{
	 "smiles": "CC1=NC(=C(O1)C1=CC=C(C=C1)S(=O)(=O)N1CCOCC1)C1=CC=C(C=C1)S(=O)(=O)N1CCOCC1", 
	 "Tm": 519.15, 
	 "num_atms": 63, 
	 "gaussian": { 
		 "optdone": 1, 
		 "sigma_profile": "yes", 
		 "theory": "DFT", 
		 "functional": "B3LYP", 
		 "basiset": "6-31G**", 
		 "properties": { 
			 "R2extent": 27164.9193, 
			 "electric_dipole_moment_norm": 4.12811745715, 
			 "electric_quadrupole_moment_norm": 58.5080159013, 
			 "total_energy": -2417.84534344, 
			 "HOMO_LUMO_gap": 0.14864, 
			 "cosmo_polarized_energy": -30.52, 
			 "cosmo_cavitation_energy": 67.23, 
			 "cosmo_dispersion_energy": -46.21, 
			 "cosmo_repulsion_energy": 3.39, 
			 "cosmo_total_nonelectrostatic_energy": 24.41, 
			 "SMD_solvation_energy": 6.46 
		},
		"coords": [
			{
				"x": -2.1430190966,
				"y": -5.3286958233,
				"z": -4.1189877672,
				"element": "C" 
			},
			{
				"x": -1.8216653238,
				"y": -4.1950653173,
				"z": -3.2123829613,
				"element": "C" 
			},
			{
				"x": -2.2580927912,
				"y": -3.9669764557,
				"z": -2.0136905835,
				"element": "N" 
			},
			{
				"x": -1.6600284541,
				"y": -2.7706858474,
				"z": -1.6186209342,
				"element": "C" 
			},
			{
				"x": -0.8343504624,
				"y": -2.3346542289,
				"z": -2.6332977918,
				"element": "C" 
			},
			{
				"x": -0.9579804757,
				"y": -3.2467460579,
				"z": -3.663106371,
				"element": "O" 
			},
			{
				"x": 0.1176920146,
				"y": -1.2508710129,
				"z": -2.8593771666,
				"element": "C" 
			},
			{
				"x": 0.4112629319,
				"y": -0.8407279751,
				"z": -4.1744540037,
				"element": "C" 
			},
			{
				"x": 1.3344492013,
				"y": 0.1717091873,
				"z": -4.4152795956,
				"element": "C" 
			},
			{
				"x": 1.9748061375,
				"y": 0.7914025978,
				"z": -3.3389553927,
				"element": "C" 
			},
			{
				"x": 1.7213304891,
				"y": 0.3785628473,
				"z": -2.0275948339,
				"element": "C" 
			},
			{
				"x": 0.8021518608,
				"y": -0.6384991181,
				"z": -1.7923263812,
				"element": "C" 
			},
			{
				"x": 3.1352363045,
				"y": 2.1344368776,
				"z": -3.6428611799,
				"element": "S" 
			},
			{
				"x": 4.0250477125,
				"y": 2.1863187815,
				"z": -2.4804931826,
				"element": "O" 
			},
			{
				"x": 3.6265392709,
				"y": 1.9580235379,
				"z": -5.0113185235,
				"element": "O" 
			},
			{
				"x": 2.2849411476,
				"y": 3.5720269469,
				"z": -3.6386744099,
				"element": "N" 
			},
			{
				"x": 1.5120789691,
				"y": 4.0049841968,
				"z": -4.8108040232,
				"element": "C" 
			},
			{
				"x": 0.0121569735,
				"y": 3.9675749678,
				"z": -4.5097018371,
				"element": "C" 
			},
			{
				"x": -0.2912114817,
				"y": 4.7079307462,
				"z": -3.3332902949,
				"element": "O" 
			},
			{
				"x": 0.3799323089,
				"y": 4.1799165127,
				"z": -2.1956553377,
				"element": "C" 
			},
			{
				"x": 1.8981448037,
				"y": 4.2272686891,
				"z": -2.3818905333,
				"element": "C" 
			},
			{
				"x": -2.0087683801,
				"y": -2.1910126772,
				"z": -0.3124034525,
				"element": "C" 
			},
			{
				"x": -2.4049001572,
				"y": -3.0545021544,
				"z": 0.7271490532,
				"element": "C" 
			},
			{
				"x": -2.7670189018,
				"y": -2.5513573673,
				"z": 1.9706129019,
				"element": "C" 
			},
			{
				"x": -2.742334057,
				"y": -1.1700929726,
				"z": 2.1834682185,
				"element": "C" 
			},
			{
				"x": -2.3835440513,
				"y": -0.292002117,
				"z": 1.1607604889,
				"element": "C" 
			},
			{
				"x": -2.0218265111,
				"y": -0.8054230447,
				"z": -0.0834151766,
				"element": "C" 
			},
			{
				"x": -3.2279113475,
				"y": -0.5152953865,
				"z": 3.7817000717,
				"element": "S" 
			},
			{
				"x": -4.3677918753,
				"y": -1.2937239596,
				"z": 4.2787374097,
				"element": "O" 
			},
			{
				"x": -3.3164338232,
				"y": 0.9449075218,
				"z": 3.6389691326,
				"element": "O" 
			},
			{
				"x": -1.9040173052,
				"y": -0.9332230561,
				"z": 4.7505867408,
				"element": "N" 
			},
			{
				"x": -0.7425004137,
				"y": -0.0233466377,
				"z": 4.6590069429,
				"element": "C" 
			},
			{
				"x": 0.2708131304,
				"y": -0.4231029457,
				"z": 5.7274129963,
				"element": "C" 
			},
			{
				"x": -0.238227699,
				"y": -0.2840808482,
				"z": 7.0483118676,
				"element": "O" 
			},
			{
				"x": -1.6424623283,
				"y": -0.5163299389,
				"z": 7.1730539164,
				"element": "C" 
			},
			{
				"x": -2.1742750227,
				"y": -1.4671583906,
				"z": 6.1060380224,
				"element": "C" 
			},
			{
				"x": -1.2376311084,
				"y": -5.8798841705,
				"z": -4.3933412356,
				"element": "H" 
			},
			{
				"x": -2.8334355123,
				"y": -6.0024426823,
				"z": -3.6113016959,
				"element": "H" 
			},
			{
				"x": -2.606971696,
				"y": -4.9711031755,
				"z": -5.0441351504,
				"element": "H" 
			},
			{
				"x": -0.0833183265,
				"y": -1.3286013362,
				"z": -5.0069423648,
				"element": "H" 
			},
			{
				"x": 1.5784325453,
				"y": 0.4670529857,
				"z": -5.4298263699,
				"element": "H" 
			},
			{
				"x": 2.2726681818,
				"y": 0.8252161993,
				"z": -1.2074954408,
				"element": "H" 
			},
			{
				"x": 0.6309833406,
				"y": -0.978390101,
				"z": -0.7773075243,
				"element": "H" 
			},
			{
				"x": 1.8110079869,
				"y": 5.0351741988,
				"z": -5.0446967715,
				"element": "H" 
			},
			{
				"x": 1.7742482319,
				"y": 3.380739092,
				"z": -5.6667064069,
				"element": "H" 
			},
			{
				"x": -0.5541350384,
				"y": 4.4309911321,
				"z": -5.3231533917,
				"element": "H" 
			},
			{
				"x": -0.3237933321,
				"y": 2.9234852407,
				"z": -4.3990795346,
				"element": "H" 
			},
			{
				"x": 0.0783000458,
				"y": 4.7957564022,
				"z": -1.343080755,
				"element": "H" 
			},
			{
				"x": 0.0560579706,
				"y": 3.1423386252,
				"z": -2.0108879259,
				"element": "H" 
			},
			{
				"x": 2.4280583524,
				"y": 3.7571344466,
				"z": -1.5517339295,
				"element": "H" 
			},
			{
				"x": 2.2256159339,
				"y": 5.2737014236,
				"z": -2.4374471669,
				"element": "H" 
			},
			{
				"x": -2.4336053734,
				"y": -4.1215056681,
				"z": 0.5374741842,
				"element": "H" 
			},
			{
				"x": -3.0781238658,
				"y": -3.2182353014,
				"z": 2.7675003749,
				"element": "H" 
			},
			{
				"x": -2.4160592295,
				"y": 0.77713718,
				"z": 1.3383849352,
				"element": "H" 
			},
			{
				"x": -1.7717880368,
				"y": -0.1217655546,
				"z": -0.8872700724,
				"element": "H" 
			},
			{
				"x": -1.0413893344,
				"y": 1.0224957849,
				"z": 4.8002733558,
				"element": "H" 
			},
			{
				"x": -0.2877619474,
				"y": -0.114634345,
				"z": 3.6656872971,
				"element": "H" 
			},
			{
				"x": 1.149226138,
				"y": 0.2262856527,
				"z": 5.6564934446,
				"element": "H" 
			},
			{
				"x": 0.6036958094,
				"y": -1.4572887422,
				"z": 5.5476777588,
				"element": "H" 
			},
			{
				"x": -1.8069003456,
				"y": -0.942855452,
				"z": 8.1685958171,
				"element": "H" 
			},
			{
				"x": -2.18816488,
				"y": 0.4377230302,
				"z": 7.1207684843,
				"element": "H" 
			},
			{
				"x": -3.2484506007,
				"y": -1.6176007637,
				"z": 6.2243310793,
				"element": "H" 
			},
			{
				"x": -1.6882892064,
				"y": -2.4458141788,
				"z": 6.2016929759,
				"element": "H" 
			}
		],
		 "valence_orbital": [ 
			{
				"type": "occ",
				"energy": -0.27517,
				"method": "rhf"
			},
			{
				"type": "occ",
				"energy": -0.25956,
				"method": "rhf"
			},
			{
				"type": "occ",
				"energy": -0.251,
				"method": "rhf"
			},
			{
				"type": "occ",
				"energy": -0.24488,
				"method": "rhf"
			},
			{
				"type": "occ",
				"energy": -0.22767,
				"method": "rhf"
			},
			{
				"type": "unocc",
				"energy": -0.07903,
				"method": "rhf"
			},
			{
				"type": "unocc",
				"energy": -0.03998,
				"method": "rhf"
			},
			{
				"type": "unocc",
				"energy": -0.0359,
				"method": "rhf"
			},
			{
				"type": "unocc",
				"energy": -0.02428,
				"method": "rhf"
			},
			{
				"type": "unocc",
				"energy": -0.0017,
				"method": "rhf"
			}
		],
		"cosmo_sigma_profile": { 
			"-0.025": 0.0,
			"-0.024": 0.0,
			"-0.023": 0.0,
			"-0.022": 0.0,
			"-0.021": 0.0,
			"-0.02": 0.0,
			"-0.019": 0.0,
			"-0.018": 0.0,
			"-0.017": 0.0,
			"-0.016": 0.0,
			"-0.015": 0.0,
			"-0.014": 0.0,
			"-0.013": 0.0,
			"-0.012": 0.0,
			"-0.011": 0.0,
			"-0.01": 0.0,
			"-0.009": 0.0,
			"-0.008": 0.703976598524,
			"-0.007": 10.1653363449,
			"-0.006": 38.5132833148,
			"-0.005": 60.7823484025,
			"-0.004": 58.2399553448,
			"-0.003": 51.4343256936,
			"-0.002": 45.5983755743,
			"-0.001": 33.5634397674,
			"0.0": 33.0696191961,
			"0.001": 32.1335696942,
			"0.002": 32.9977924479,
			"0.003": 19.1633451647,
			"0.004": 15.2563180787,
			"0.005": 11.2500981983,
			"0.006": 11.483669009,
			"0.007": 10.4120316372,
			"0.008": 8.7069395334,
			"0.009": 10.6931703198,
			"0.01": 16.2191022545,
			"0.011": 18.1010778031,
			"0.012": 10.5824496776,
			"0.013": 3.78319330048,
			"0.014": 0.768008338368,
			"0.015": 0.0,
			"0.016": 0.0,
			"0.017": 0.0,
			"0.018": 0.0,
			"0.019": 0.0,
			"0.02": 0.0,
			"0.021": 0.0,
			"0.022": 0.0,
			"0.023": 0.0,
			"0.024": 0.0,
			"0.025": 0.0
		}
	}
}
