{
	 "smiles": "CCOC(=O)C1=C(N)C=C(S1)C1=CC=C(OC)C=C1", 
	 "Tm": 394.15, 
	 "num_atms": 34, 
	 "gaussian": { 
		 "optdone": 1, 
		 "sigma_profile": "yes", 
		 "theory": "DFT", 
		 "functional": "B3LYP", 
		 "basiset": "6-31G**", 
		 "properties": { 
			 "R2extent": 9050.7426, 
			 "electric_dipole_moment_norm": 3.47295622921, 
			 "electric_quadrupole_moment_norm": 20.2293486289, 
			 "total_energy": -1221.1535988, 
			 "HOMO_LUMO_gap": 0.14674, 
			 "cosmo_polarized_energy": -13.95, 
			 "cosmo_cavitation_energy": 39.54, 
			 "cosmo_dispersion_energy": -29.34, 
			 "cosmo_repulsion_energy": 2.23, 
			 "cosmo_total_nonelectrostatic_energy": 12.43, 
			 "SMD_solvation_energy": 7.91 
		},
		"coords": [
			{
				"x": 4.277597329,
				"y": -3.078647364,
				"z": -3.0856597373,
				"element": "C" 
			},
			{
				"x": 3.0844715452,
				"y": -3.8635009798,
				"z": -2.5596126327,
				"element": "C" 
			},
			{
				"x": 2.1477300308,
				"y": -3.004288459,
				"z": -1.8747376351,
				"element": "O" 
			},
			{
				"x": 1.2237720987,
				"y": -2.3732890207,
				"z": -2.6437942071,
				"element": "C" 
			},
			{
				"x": 1.1567622684,
				"y": -2.5153073158,
				"z": -3.8653248106,
				"element": "O" 
			},
			{
				"x": 0.3431891362,
				"y": -1.5259522422,
				"z": -1.8773880791,
				"element": "C" 
			},
			{
				"x": -0.6822938835,
				"y": -0.7480182095,
				"z": -2.4213880642,
				"element": "C" 
			},
			{
				"x": -1.0386444254,
				"y": -0.7701455209,
				"z": -3.7428389653,
				"element": "N" 
			},
			{
				"x": -1.334953244,
				"y": 0.0452018645,
				"z": -1.428576197,
				"element": "C" 
			},
			{
				"x": -0.8310333352,
				"y": -0.1275088004,
				"z": -0.1593949313,
				"element": "C" 
			},
			{
				"x": 0.46989289,
				"y": -1.2948802825,
				"z": -0.1422926197,
				"element": "S" 
			},
			{
				"x": -1.2818545649,
				"y": 0.5217108123,
				"z": 1.0765989138,
				"element": "C" 
			},
			{
				"x": -2.6063557351,
				"y": 0.9660261788,
				"z": 1.2108941738,
				"element": "C" 
			},
			{
				"x": -3.0526930458,
				"y": 1.5986195262,
				"z": 2.3705653925,
				"element": "C" 
			},
			{
				"x": -2.1687868284,
				"y": 1.7924702829,
				"z": 3.4398186592,
				"element": "C" 
			},
			{
				"x": -2.4944778518,
				"y": 2.3927206757,
				"z": 4.6184177494,
				"element": "O" 
			},
			{
				"x": -3.8205578702,
				"y": 2.8698125253,
				"z": 4.788449659,
				"element": "C" 
			},
			{
				"x": -0.8425893839,
				"y": 1.3464948534,
				"z": 3.3269650167,
				"element": "C" 
			},
			{
				"x": -0.4102635871,
				"y": 0.7257932473,
				"z": 2.165765005,
				"element": "C" 
			},
			{
				"x": 4.7686377372,
				"y": -2.5285269952,
				"z": -2.2774561457,
				"element": "H" 
			},
			{
				"x": 5.0081289588,
				"y": -3.7633600597,
				"z": -3.529933669,
				"element": "H" 
			},
			{
				"x": 3.9594265366,
				"y": -2.3699600263,
				"z": -3.8541148445,
				"element": "H" 
			},
			{
				"x": 3.3877846024,
				"y": -4.5922467263,
				"z": -1.8037099649,
				"element": "H" 
			},
			{
				"x": 2.5648090831,
				"y": -4.3782794327,
				"z": -3.3713048852,
				"element": "H" 
			},
			{
				"x": -1.5192248808,
				"y": 0.0336055813,
				"z": -4.1153628333,
				"element": "H" 
			},
			{
				"x": -0.3867152053,
				"y": -1.2529731964,
				"z": -4.3515381043,
				"element": "H" 
			},
			{
				"x": -2.1355040532,
				"y": 0.7389087739,
				"z": -1.6605008014,
				"element": "H" 
			},
			{
				"x": -3.3116107082,
				"y": 0.7940264316,
				"z": 0.4037042936,
				"element": "H" 
			},
			{
				"x": -4.0853827549,
				"y": 1.92022493,
				"z": 2.4339554449,
				"element": "H" 
			},
			{
				"x": -4.0733459535,
				"y": 3.6360586235,
				"z": 4.0444455918,
				"element": "H" 
			},
			{
				"x": -3.8557817681,
				"y": 3.3119699885,
				"z": 5.785119818,
				"element": "H" 
			},
			{
				"x": -4.5543101673,
				"y": 2.0558034904,
				"z": 4.7289974571,
				"element": "H" 
			},
			{
				"x": -0.1690414639,
				"y": 1.5081908589,
				"z": 4.1620169512,
				"element": "H" 
			},
			{
				"x": 0.6259184941,
				"y": 0.4096459868,
				"z": 2.0892150017,
				"element": "H" 
			}
		],
		 "valence_orbital": [ 
			{
				"type": "occ",
				"energy": -0.26511,
				"method": "rhf"
			},
			{
				"type": "occ",
				"energy": -0.25865,
				"method": "rhf"
			},
			{
				"type": "occ",
				"energy": -0.25162,
				"method": "rhf"
			},
			{
				"type": "occ",
				"energy": -0.21605,
				"method": "rhf"
			},
			{
				"type": "occ",
				"energy": -0.19328,
				"method": "rhf"
			},
			{
				"type": "unocc",
				"energy": -0.04654,
				"method": "rhf"
			},
			{
				"type": "unocc",
				"energy": -0.00956,
				"method": "rhf"
			},
			{
				"type": "unocc",
				"energy": 0.0126,
				"method": "rhf"
			},
			{
				"type": "unocc",
				"energy": 0.03806,
				"method": "rhf"
			},
			{
				"type": "unocc",
				"energy": 0.05953,
				"method": "rhf"
			}
		],
		"cosmo_sigma_profile": { 
			"-0.025": 0.0,
			"-0.024": 0.0,
			"-0.023": 0.0,
			"-0.022": 0.0,
			"-0.021": 0.0,
			"-0.02": 0.0,
			"-0.019": 0.0,
			"-0.018": 0.0,
			"-0.017": 0.0,
			"-0.016": 0.0,
			"-0.015": 0.0,
			"-0.014": 0.572454883082,
			"-0.013": 1.32910174769,
			"-0.012": 1.31441048427,
			"-0.011": 1.42122132676,
			"-0.01": 1.49438227169,
			"-0.009": 2.15241549432,
			"-0.008": 3.14986856475,
			"-0.007": 5.95467740368,
			"-0.006": 15.358377039,
			"-0.005": 22.9072590944,
			"-0.004": 25.160903852,
			"-0.003": 27.5592826471,
			"-0.002": 19.0478030823,
			"-0.001": 19.1456806579,
			"0.0": 21.3138120857,
			"0.001": 20.1318709575,
			"0.002": 21.9674759067,
			"0.003": 30.5701789052,
			"0.004": 31.4467186567,
			"0.005": 15.7107847938,
			"0.006": 6.50045882615,
			"0.007": 5.85521087285,
			"0.008": 3.44791963464,
			"0.009": 3.62123746972,
			"0.01": 4.31399449362,
			"0.011": 2.10489759353,
			"0.012": 2.14135388899,
			"0.013": 0.675609902006,
			"0.014": 0.0,
			"0.015": 0.0,
			"0.016": 0.0,
			"0.017": 0.0,
			"0.018": 0.0,
			"0.019": 0.0,
			"0.02": 0.0,
			"0.021": 0.0,
			"0.022": 0.0,
			"0.023": 0.0,
			"0.024": 0.0,
			"0.025": 0.0
		}
	}
}
