{
	 "smiles": "CCCCCOC(=O)C1=CC=C(N)C=C1", 
	 "Tm": 325.15, 
	 "num_atms": 32, 
	 "gaussian": { 
		 "optdone": 1, 
		 "sigma_profile": "yes", 
		 "theory": "DFT", 
		 "functional": "B3LYP", 
		 "basiset": "6-31G**", 
		 "properties": { 
			 "R2extent": 6012.249, 
			 "electric_dipole_moment_norm": 3.68605667347, 
			 "electric_quadrupole_moment_norm": 24.5187348752, 
			 "total_energy": -672.759438103, 
			 "HOMO_LUMO_gap": 0.18492, 
			 "cosmo_polarized_energy": -13.15, 
			 "cosmo_cavitation_energy": 35.34, 
			 "cosmo_dispersion_energy": -25.2, 
			 "cosmo_repulsion_energy": 2.02, 
			 "cosmo_total_nonelectrostatic_energy": 12.17, 
			 "SMD_solvation_energy": 6.56 
		},
		"coords": [
			{
				"x": 5.3352243552,
				"y": -0.2800146212,
				"z": -1.031289261,
				"element": "C" 
			},
			{
				"x": 4.0004145296,
				"y": -0.7783339446,
				"z": -0.4641572329,
				"element": "C" 
			},
			{
				"x": 2.8586086984,
				"y": 0.2490261386,
				"z": -0.5229975999,
				"element": "C" 
			},
			{
				"x": 2.420979949,
				"y": 0.6280770952,
				"z": -1.9449532779,
				"element": "C" 
			},
			{
				"x": 1.242871949,
				"y": 1.5902079369,
				"z": -1.9858716499,
				"element": "C" 
			},
			{
				"x": 0.0936149053,
				"y": 0.9156272825,
				"z": -1.4320027881,
				"element": "O" 
			},
			{
				"x": -1.0333428816,
				"y": 1.6641114971,
				"z": -1.3213039448,
				"element": "C" 
			},
			{
				"x": -1.0818463891,
				"y": 2.8343478903,
				"z": -1.6571452534,
				"element": "O" 
			},
			{
				"x": -2.1703761922,
				"y": 0.9020510021,
				"z": -0.7563179764,
				"element": "C" 
			},
			{
				"x": -3.3928428958,
				"y": 1.5680275067,
				"z": -0.5770561152,
				"element": "C" 
			},
			{
				"x": -4.4929601537,
				"y": 0.9097403565,
				"z": -0.0500966258,
				"element": "C" 
			},
			{
				"x": -4.4042864897,
				"y": -0.4484178342,
				"z": 0.3159986822,
				"element": "C" 
			},
			{
				"x": -5.5149989004,
				"y": -1.1251736093,
				"z": 0.7961615689,
				"element": "N" 
			},
			{
				"x": -3.1777423178,
				"y": -1.1175609127,
				"z": 0.1345085551,
				"element": "C" 
			},
			{
				"x": -2.0810285593,
				"y": -0.4509286947,
				"z": -0.3934887453,
				"element": "C" 
			},
			{
				"x": 5.6680074613,
				"y": 0.6284455471,
				"z": -0.5154923267,
				"element": "H" 
			},
			{
				"x": 6.1198788986,
				"y": -1.0344908602,
				"z": -0.9126417586,
				"element": "H" 
			},
			{
				"x": 5.2661814246,
				"y": -0.0472477535,
				"z": -2.0990681821,
				"element": "H" 
			},
			{
				"x": 3.693792059,
				"y": -1.6889551248,
				"z": -0.9972138889,
				"element": "H" 
			},
			{
				"x": 4.1476592873,
				"y": -1.0762244928,
				"z": 0.5817393535,
				"element": "H" 
			},
			{
				"x": 3.1612481595,
				"y": 1.1595206263,
				"z": 0.0144357285,
				"element": "H" 
			},
			{
				"x": 1.9898649672,
				"y": -0.1487464622,
				"z": 0.0138699302,
				"element": "H" 
			},
			{
				"x": 2.1598583993,
				"y": -0.277258001,
				"z": -2.5088386148,
				"element": "H" 
			},
			{
				"x": 3.2479569189,
				"y": 1.1048947931,
				"z": -2.485620715,
				"element": "H" 
			},
			{
				"x": 1.4371834658,
				"y": 2.4979415662,
				"z": -1.4042868238,
				"element": "H" 
			},
			{
				"x": 1.0095656593,
				"y": 1.9011820372,
				"z": -3.0097143349,
				"element": "H" 
			},
			{
				"x": -3.4559320998,
				"y": 2.6138828597,
				"z": -0.8588090116,
				"element": "H" 
			},
			{
				"x": -5.4341255056,
				"y": 1.4380811255,
				"z": 0.0804055624,
				"element": "H" 
			},
			{
				"x": -5.3363649327,
				"y": -1.9682739837,
				"z": 1.3220320295,
				"element": "H" 
			},
			{
				"x": -6.2513331297,
				"y": -0.5582135084,
				"z": 1.1907423107,
				"element": "H" 
			},
			{
				"x": -3.0964126664,
				"y": -2.1666427518,
				"z": 0.4080788051,
				"element": "H" 
			},
			{
				"x": -1.1430179735,
				"y": -0.9775827057,
				"z": -0.528006399,
				"element": "H" 
			}
		],
		 "valence_orbital": [ 
			{
				"type": "occ",
				"energy": -0.30817,
				"method": "rhf"
			},
			{
				"type": "occ",
				"energy": -0.28495,
				"method": "rhf"
			},
			{
				"type": "occ",
				"energy": -0.25798,
				"method": "rhf"
			},
			{
				"type": "occ",
				"energy": -0.25213,
				"method": "rhf"
			},
			{
				"type": "occ",
				"energy": -0.20955,
				"method": "rhf"
			},
			{
				"type": "unocc",
				"energy": -0.02463,
				"method": "rhf"
			},
			{
				"type": "unocc",
				"energy": -4e-05,
				"method": "rhf"
			},
			{
				"type": "unocc",
				"energy": 0.06772,
				"method": "rhf"
			},
			{
				"type": "unocc",
				"energy": 0.0821,
				"method": "rhf"
			},
			{
				"type": "unocc",
				"energy": 0.08958,
				"method": "rhf"
			}
		],
		"cosmo_sigma_profile": { 
			"-0.025": 0.0,
			"-0.024": 0.0,
			"-0.023": 0.0,
			"-0.022": 0.0,
			"-0.021": 0.0,
			"-0.02": 0.0,
			"-0.019": 0.0,
			"-0.018": 0.0,
			"-0.017": 0.0,
			"-0.016": 0.0,
			"-0.015": 0.0,
			"-0.014": 0.0217948072121,
			"-0.013": 2.10951782733,
			"-0.012": 3.17162428554,
			"-0.011": 2.76502693096,
			"-0.01": 2.77793232993,
			"-0.009": 3.32040089848,
			"-0.008": 3.04508406116,
			"-0.007": 3.03053475766,
			"-0.006": 5.11595138135,
			"-0.005": 8.71552408752,
			"-0.004": 13.9558503158,
			"-0.003": 21.9434305261,
			"-0.002": 27.6810450487,
			"-0.001": 31.4523773133,
			"0.0": 31.2098108365,
			"0.001": 29.0017566097,
			"0.002": 17.7624837534,
			"0.003": 15.2457083603,
			"0.004": 14.4754666619,
			"0.005": 15.2125950916,
			"0.006": 5.1172884057,
			"0.007": 2.48207182032,
			"0.008": 1.80053444762,
			"0.009": 2.28518416696,
			"0.01": 2.40594082083,
			"0.011": 2.76362419829,
			"0.012": 3.91279081891,
			"0.013": 4.06250497061,
			"0.014": 0.0593406141006,
			"0.015": 0.0,
			"0.016": 0.0,
			"0.017": 0.0,
			"0.018": 0.0,
			"0.019": 0.0,
			"0.02": 0.0,
			"0.021": 0.0,
			"0.022": 0.0,
			"0.023": 0.0,
			"0.024": 0.0,
			"0.025": 0.0
		}
	}
}
