{
	 "smiles": "CCC(CON(=O)=O)(CON(=O)=O)CON(=O)=O", 
	 "Tm": 324.65, 
	 "num_atms": 29, 
	 "gaussian": { 
		 "optdone": 1, 
		 "sigma_profile": "yes", 
		 "theory": "DFT", 
		 "functional": "B3LYP", 
		 "basiset": "6-31G**", 
		 "properties": { 
			 "R2extent": 5156.2254, 
			 "electric_dipole_moment_norm": 5.48140626026, 
			 "electric_quadrupole_moment_norm": 10.6888927598, 
			 "total_energy": -1076.1018029, 
			 "HOMO_LUMO_gap": 0.2455, 
			 "cosmo_polarized_energy": -16.6, 
			 "cosmo_cavitation_energy": 35.76, 
			 "cosmo_dispersion_energy": -23.65, 
			 "cosmo_repulsion_energy": 1.93, 
			 "cosmo_total_nonelectrostatic_energy": 14.05, 
			 "SMD_solvation_energy": 14.68 
		},
		"coords": [
			{
				"x": -3.2967562105,
				"y": -0.3529167427,
				"z": -0.7076212298,
				"element": "C" 
			},
			{
				"x": -1.941425433,
				"y": -1.0500734445,
				"z": -0.5222858169,
				"element": "C" 
			},
			{
				"x": -0.6965876234,
				"y": -0.1341141518,
				"z": -0.3111861628,
				"element": "C" 
			},
			{
				"x": -0.545379913,
				"y": 0.7479172357,
				"z": -1.566986182,
				"element": "C" 
			},
			{
				"x": 0.7297746793,
				"y": 1.4175486018,
				"z": -1.5122738536,
				"element": "O" 
			},
			{
				"x": 0.9757120629,
				"y": 2.2554237078,
				"z": -2.6385180664,
				"element": "N" 
			},
			{
				"x": 2.0524016698,
				"y": 2.7901400768,
				"z": -2.5901061259,
				"element": "O" 
			},
			{
				"x": 0.1005087928,
				"y": 2.3258310103,
				"z": -3.4773213353,
				"element": "O" 
			},
			{
				"x": -0.9196451135,
				"y": 0.698294459,
				"z": 0.966982544,
				"element": "C" 
			},
			{
				"x": 0.3068178596,
				"y": 1.3908353574,
				"z": 1.2740515191,
				"element": "O" 
			},
			{
				"x": 0.2360296489,
				"y": 2.1609447802,
				"z": 2.4686263872,
				"element": "N" 
			},
			{
				"x": 1.2767735135,
				"y": 2.7071824966,
				"z": 2.7288164393,
				"element": "O" 
			},
			{
				"x": -0.8264125834,
				"y": 2.1768676199,
				"z": 3.0561542425,
				"element": "O" 
			},
			{
				"x": 0.5661856423,
				"y": -1.0123444238,
				"z": -0.1835272454,
				"element": "C" 
			},
			{
				"x": 0.354976124,
				"y": -1.8656839383,
				"z": 0.961289258,
				"element": "O" 
			},
			{
				"x": 1.4458651353,
				"y": -2.738189252,
				"z": 1.2336335473,
				"element": "N" 
			},
			{
				"x": 2.3922808234,
				"y": -2.6943798535,
				"z": 0.4771660093,
				"element": "O" 
			},
			{
				"x": 1.2566325035,
				"y": -3.4206571563,
				"z": 2.2081906324,
				"element": "O" 
			},
			{
				"x": -3.3178531741,
				"y": 0.3045630112,
				"z": -1.582295642,
				"element": "H" 
			},
			{
				"x": -3.5845774109,
				"y": 0.2389607573,
				"z": 0.1665296805,
				"element": "H" 
			},
			{
				"x": -4.0758945112,
				"y": -1.1066109416,
				"z": -0.8541244714,
				"element": "H" 
			},
			{
				"x": -2.0000075016,
				"y": -1.7317187323,
				"z": 0.3312443652,
				"element": "H" 
			},
			{
				"x": -1.7393637754,
				"y": -1.6794243386,
				"z": -1.3980413838,
				"element": "H" 
			},
			{
				"x": -0.5891570381,
				"y": 0.1319740993,
				"z": -2.4711899194,
				"element": "H" 
			},
			{
				"x": -1.3447365799,
				"y": 1.4908227026,
				"z": -1.6208955924,
				"element": "H" 
			},
			{
				"x": -1.1836129655,
				"y": 0.0446424215,
				"z": 1.8018454269,
				"element": "H" 
			},
			{
				"x": -1.7218120636,
				"y": 1.4270819719,
				"z": 0.8263747417,
				"element": "H" 
			},
			{
				"x": 1.4606973906,
				"y": -0.4085556759,
				"z": -0.0313143711,
				"element": "H" 
			},
			{
				"x": 0.6985660512,
				"y": -1.6258616581,
				"z": -1.0806173952,
				"element": "H" 
			}
		],
		 "valence_orbital": [ 
			{
				"type": "occ",
				"energy": -0.33777,
				"method": "rhf"
			},
			{
				"type": "occ",
				"energy": -0.33322,
				"method": "rhf"
			},
			{
				"type": "occ",
				"energy": -0.32848,
				"method": "rhf"
			},
			{
				"type": "occ",
				"energy": -0.32559,
				"method": "rhf"
			},
			{
				"type": "occ",
				"energy": -0.32362,
				"method": "rhf"
			},
			{
				"type": "unocc",
				"energy": -0.07812,
				"method": "rhf"
			},
			{
				"type": "unocc",
				"energy": -0.07605,
				"method": "rhf"
			},
			{
				"type": "unocc",
				"energy": -0.07344,
				"method": "rhf"
			},
			{
				"type": "unocc",
				"energy": 0.02,
				"method": "rhf"
			},
			{
				"type": "unocc",
				"energy": 0.02571,
				"method": "rhf"
			}
		],
		"cosmo_sigma_profile": { 
			"-0.025": 0.0,
			"-0.024": 0.0,
			"-0.023": 0.0,
			"-0.022": 0.0,
			"-0.021": 0.0,
			"-0.02": 0.0,
			"-0.019": 0.0,
			"-0.018": 0.0,
			"-0.017": 0.0,
			"-0.016": 0.0,
			"-0.015": 0.0,
			"-0.014": 0.0,
			"-0.013": 0.0,
			"-0.012": 0.0,
			"-0.011": 0.0,
			"-0.01": 0.388055420606,
			"-0.009": 5.13321406442,
			"-0.008": 14.5326977083,
			"-0.007": 15.4121866326,
			"-0.006": 16.521849922,
			"-0.005": 14.8018913967,
			"-0.004": 16.8821928025,
			"-0.003": 16.7306797546,
			"-0.002": 18.68198017,
			"-0.001": 16.7668919726,
			"0.0": 15.6885662261,
			"0.001": 11.3008871379,
			"0.002": 9.89463865426,
			"0.003": 12.3938685245,
			"0.004": 14.2338699612,
			"0.005": 24.1456820398,
			"0.006": 35.490841762,
			"0.007": 18.8912964521,
			"0.008": 3.57772848338,
			"0.009": 0.089902030475,
			"0.01": 0.0,
			"0.011": 0.0,
			"0.012": 0.0,
			"0.013": 0.0,
			"0.014": 0.0,
			"0.015": 0.0,
			"0.016": 0.0,
			"0.017": 0.0,
			"0.018": 0.0,
			"0.019": 0.0,
			"0.02": 0.0,
			"0.021": 0.0,
			"0.022": 0.0,
			"0.023": 0.0,
			"0.024": 0.0,
			"0.025": 0.0
		}
	}
}
