{
	 "smiles": "NNC(=O)C1=CC=C(C=C1)C1=CC=CC=C1", 
	 "Tm": 467.15, 
	 "num_atms": 28, 
	 "gaussian": { 
		 "optdone": 1, 
		 "sigma_profile": "yes", 
		 "theory": "DFT", 
		 "functional": "B3LYP", 
		 "basiset": "6-31G**", 
		 "properties": { 
			 "R2extent": 5807.4137, 
			 "electric_dipole_moment_norm": 3.72328622053, 
			 "electric_quadrupole_moment_norm": 22.9590718018, 
			 "total_energy": -687.326333108, 
			 "HOMO_LUMO_gap": 0.18031, 
			 "cosmo_polarized_energy": -15.98, 
			 "cosmo_cavitation_energy": 32.26, 
			 "cosmo_dispersion_energy": -23.7, 
			 "cosmo_repulsion_energy": 1.85, 
			 "cosmo_total_nonelectrostatic_energy": 10.41, 
			 "SMD_solvation_energy": 6.64 
		},
		"coords": [
			{
				"x": -2.6637736147,
				"y": -1.6356688714,
				"z": 2.8973276154,
				"element": "N" 
			},
			{
				"x": -3.3738249268,
				"y": -1.9696457532,
				"z": 1.732380401,
				"element": "N" 
			},
			{
				"x": -2.9582449497,
				"y": -1.6393079304,
				"z": 0.4530351564,
				"element": "C" 
			},
			{
				"x": -3.4049543304,
				"y": -2.2953780688,
				"z": -0.4841709304,
				"element": "O" 
			},
			{
				"x": -2.0273164454,
				"y": -0.4878456122,
				"z": 0.22192901,
				"element": "C" 
			},
			{
				"x": -1.8462497133,
				"y": 0.5965567706,
				"z": 1.0929319894,
				"element": "C" 
			},
			{
				"x": -1.0082146183,
				"y": 1.6506807857,
				"z": 0.7396883368,
				"element": "C" 
			},
			{
				"x": -0.3172732159,
				"y": 1.6581078674,
				"z": -0.4839388565,
				"element": "C" 
			},
			{
				"x": -0.5100464729,
				"y": 0.5700030577,
				"z": -1.3535911594,
				"element": "C" 
			},
			{
				"x": -1.3575004363,
				"y": -0.4764628495,
				"z": -1.0111296278,
				"element": "C" 
			},
			{
				"x": 0.5835753799,
				"y": 2.7800838495,
				"z": -0.8487077694,
				"element": "C" 
			},
			{
				"x": 0.2628792937,
				"y": 4.1055106149,
				"z": -0.5075782273,
				"element": "C" 
			},
			{
				"x": 1.109287676,
				"y": 5.1585798712,
				"z": -0.8510602783,
				"element": "C" 
			},
			{
				"x": 2.2960805196,
				"y": 4.9101552192,
				"z": -1.543388053,
				"element": "C" 
			},
			{
				"x": 2.6281891359,
				"y": 3.5988903239,
				"z": -1.8893346185,
				"element": "C" 
			},
			{
				"x": 1.7814125345,
				"y": 2.5460116832,
				"z": -1.5460702866,
				"element": "C" 
			},
			{
				"x": -3.3221274804,
				"y": -1.370439454,
				"z": 3.6242658904,
				"element": "H" 
			},
			{
				"x": -2.1179140475,
				"y": -2.4297818033,
				"z": 3.2271655286,
				"element": "H" 
			},
			{
				"x": -3.9378662879,
				"y": -2.8160144524,
				"z": 1.7227989478,
				"element": "H" 
			},
			{
				"x": -2.3475782529,
				"y": 0.6093681341,
				"z": 2.0510556101,
				"element": "H" 
			},
			{
				"x": -0.865868596,
				"y": 2.4707090746,
				"z": 1.4372015879,
				"element": "H" 
			},
			{
				"x": -0.016457571,
				"y": 0.5638377116,
				"z": -2.3207550971,
				"element": "H" 
			},
			{
				"x": -1.5319420224,
				"y": -1.2977507413,
				"z": -1.6976739904,
				"element": "H" 
			},
			{
				"x": -0.6707599412,
				"y": 4.3127660037,
				"z": 0.0068963404,
				"element": "H" 
			},
			{
				"x": 0.8366855875,
				"y": 6.1760701284,
				"z": -0.5851146835,
				"element": "H" 
			},
			{
				"x": 2.9555136998,
				"y": 5.7306128471,
				"z": -1.8111885093,
				"element": "H" 
			},
			{
				"x": 3.55306206,
				"y": 3.3934691781,
				"z": -2.4210448896,
				"element": "H" 
			},
			{
				"x": 2.0616270363,
				"y": 1.5273824157,
				"z": -1.7974294372,
				"element": "H" 
			}
		],
		 "valence_orbital": [ 
			{
				"type": "occ",
				"energy": -0.25997,
				"method": "rhf"
			},
			{
				"type": "occ",
				"energy": -0.25075,
				"method": "rhf"
			},
			{
				"type": "occ",
				"energy": -0.24905,
				"method": "rhf"
			},
			{
				"type": "occ",
				"energy": -0.24375,
				"method": "rhf"
			},
			{
				"type": "occ",
				"energy": -0.22309,
				"method": "rhf"
			},
			{
				"type": "unocc",
				"energy": -0.04278,
				"method": "rhf"
			},
			{
				"type": "unocc",
				"energy": -0.00276,
				"method": "rhf"
			},
			{
				"type": "unocc",
				"energy": 0.00279,
				"method": "rhf"
			},
			{
				"type": "unocc",
				"energy": 0.00933,
				"method": "rhf"
			},
			{
				"type": "unocc",
				"energy": 0.05954,
				"method": "rhf"
			}
		],
		"cosmo_sigma_profile": { 
			"-0.025": 0.0,
			"-0.024": 0.0,
			"-0.023": 0.0,
			"-0.022": 0.0,
			"-0.021": 0.0,
			"-0.02": 0.0,
			"-0.019": 0.0,
			"-0.018": 0.0,
			"-0.017": 0.0,
			"-0.016": 0.0,
			"-0.015": 0.0,
			"-0.014": 0.0,
			"-0.013": 0.887800856457,
			"-0.012": 3.31897146475,
			"-0.011": 5.04406259965,
			"-0.01": 5.42426890077,
			"-0.009": 4.50768316621,
			"-0.008": 3.48137966539,
			"-0.007": 2.39361545015,
			"-0.006": 10.4752169312,
			"-0.005": 18.5061779886,
			"-0.004": 20.2613274318,
			"-0.003": 17.7346745941,
			"-0.002": 13.5107088971,
			"-0.001": 13.969209659,
			"0.0": 15.6310590831,
			"0.001": 15.103749832,
			"0.002": 16.7262564018,
			"0.003": 20.5875991432,
			"0.004": 22.4028760567,
			"0.005": 17.3999961897,
			"0.006": 6.96560127116,
			"0.007": 3.12666240059,
			"0.008": 2.89624334823,
			"0.009": 2.23657530074,
			"0.01": 1.89811442934,
			"0.011": 2.36875264352,
			"0.012": 1.92094020681,
			"0.013": 4.18288441532,
			"0.014": 4.23853294397,
			"0.015": 0.158442174587,
			"0.016": 0.0,
			"0.017": 0.0,
			"0.018": 0.0,
			"0.019": 0.0,
			"0.02": 0.0,
			"0.021": 0.0,
			"0.022": 0.0,
			"0.023": 0.0,
			"0.024": 0.0,
			"0.025": 0.0
		}
	}
}
