{
	 "smiles": "OC(=O)COC1=CC=C(OC2=CC=CC=C2)C=C1", 
	 "Tm": 401.15, 
	 "num_atms": 30, 
	 "gaussian": { 
		 "optdone": 1, 
		 "sigma_profile": "yes", 
		 "theory": "DFT", 
		 "functional": "B3LYP", 
		 "basiset": "6-31G**", 
		 "properties": { 
			 "R2extent": 7378.9201, 
			 "electric_dipole_moment_norm": 3.09128384171, 
			 "electric_quadrupole_moment_norm": 15.5707100683, 
			 "total_energy": -841.602600968, 
			 "HOMO_LUMO_gap": 0.19484, 
			 "cosmo_polarized_energy": -15.49, 
			 "cosmo_cavitation_energy": 35.41, 
			 "cosmo_dispersion_energy": -25.35, 
			 "cosmo_repulsion_energy": 1.98, 
			 "cosmo_total_nonelectrostatic_energy": 12.04, 
			 "SMD_solvation_energy": 7.63 
		},
		"coords": [
			{
				"x": -4.0425364647,
				"y": 4.5222039684,
				"z": -2.7198060875,
				"element": "O" 
			},
			{
				"x": -2.9675151739,
				"y": 3.7435893187,
				"z": -2.9921762442,
				"element": "C" 
			},
			{
				"x": -2.9695860332,
				"y": 2.8532242701,
				"z": -3.8048979811,
				"element": "O" 
			},
			{
				"x": -1.7816132305,
				"y": 4.1837197402,
				"z": -2.1390134504,
				"element": "C" 
			},
			{
				"x": -0.6356740417,
				"y": 3.4014589986,
				"z": -2.3475735992,
				"element": "O" 
			},
			{
				"x": -0.5489217231,
				"y": 2.1640427762,
				"z": -1.7545660043,
				"element": "C" 
			},
			{
				"x": -1.550723311,
				"y": 1.5747125644,
				"z": -0.9769482599,
				"element": "C" 
			},
			{
				"x": -1.3383372424,
				"y": 0.3174557639,
				"z": -0.4062138006,
				"element": "C" 
			},
			{
				"x": -0.1278043493,
				"y": -0.3452512462,
				"z": -0.6030300455,
				"element": "C" 
			},
			{
				"x": 0.0928787462,
				"y": -1.6273002601,
				"z": -0.1269627311,
				"element": "O" 
			},
			{
				"x": -0.0739131307,
				"y": -1.9149126479,
				"z": 1.2118549026,
				"element": "C" 
			},
			{
				"x": 0.0611294264,
				"y": -0.9637878484,
				"z": 2.2280397399,
				"element": "C" 
			},
			{
				"x": -0.0733840673,
				"y": -1.3646636044,
				"z": 3.5587795438,
				"element": "C" 
			},
			{
				"x": -0.3333200824,
				"y": -2.6972567341,
				"z": 3.8817659533,
				"element": "C" 
			},
			{
				"x": -0.4584509209,
				"y": -3.6386869228,
				"z": 2.856600268,
				"element": "C" 
			},
			{
				"x": -0.332737806,
				"y": -3.2533951281,
				"z": 1.5235176039,
				"element": "C" 
			},
			{
				"x": 0.8716165052,
				"y": 0.2405828602,
				"z": -1.3835635035,
				"element": "C" 
			},
			{
				"x": 0.6599822176,
				"y": 1.4881248944,
				"z": -1.9593248406,
				"element": "C" 
			},
			{
				"x": -4.7576229449,
				"y": 4.2198160513,
				"z": -3.3048128648,
				"element": "H" 
			},
			{
				"x": -1.5182994262,
				"y": 5.2045365935,
				"z": -2.4342122944,
				"element": "H" 
			},
			{
				"x": -2.0855930583,
				"y": 4.2200008456,
				"z": -1.0843997513,
				"element": "H" 
			},
			{
				"x": -2.5062907353,
				"y": 2.0615267484,
				"z": -0.8216353016,
				"element": "H" 
			},
			{
				"x": -2.1188153385,
				"y": -0.1492231322,
				"z": 0.1854550693,
				"element": "H" 
			},
			{
				"x": 0.2716835506,
				"y": 0.0706075974,
				"z": 1.9808623244,
				"element": "H" 
			},
			{
				"x": 0.0332947394,
				"y": -0.6247523999,
				"z": 4.3472251548,
				"element": "H" 
			},
			{
				"x": -0.4358620179,
				"y": -2.9996111747,
				"z": 4.9193811014,
				"element": "H" 
			},
			{
				"x": -0.6597199398,
				"y": -4.6795475473,
				"z": 3.0937548259,
				"element": "H" 
			},
			{
				"x": -0.4283205255,
				"y": -3.9686307234,
				"z": 0.7131676339,
				"element": "H" 
			},
			{
				"x": 1.8037582635,
				"y": -0.2934326339,
				"z": -1.534957817,
				"element": "H" 
			},
			{
				"x": 1.4224981146,
				"y": 1.960549012,
				"z": -2.5693095443,
				"element": "H" 
			}
		],
		 "valence_orbital": [ 
			{
				"type": "occ",
				"energy": -0.288,
				"method": "rhf"
			},
			{
				"type": "occ",
				"energy": -0.25771,
				"method": "rhf"
			},
			{
				"type": "occ",
				"energy": -0.24918,
				"method": "rhf"
			},
			{
				"type": "occ",
				"energy": -0.2335,
				"method": "rhf"
			},
			{
				"type": "occ",
				"energy": -0.20759,
				"method": "rhf"
			},
			{
				"type": "unocc",
				"energy": -0.01275,
				"method": "rhf"
			},
			{
				"type": "unocc",
				"energy": -0.00215,
				"method": "rhf"
			},
			{
				"type": "unocc",
				"energy": 0.00316,
				"method": "rhf"
			},
			{
				"type": "unocc",
				"energy": 0.00487,
				"method": "rhf"
			},
			{
				"type": "unocc",
				"energy": 0.01956,
				"method": "rhf"
			}
		],
		"cosmo_sigma_profile": { 
			"-0.025": 0.0,
			"-0.024": 0.0,
			"-0.023": 0.0,
			"-0.022": 0.0,
			"-0.021": 0.0,
			"-0.02": 0.0,
			"-0.019": 0.259833493025,
			"-0.018": 0.978325481326,
			"-0.017": 1.16496029569,
			"-0.016": 0.572266985434,
			"-0.015": 0.743389730628,
			"-0.014": 0.677213922617,
			"-0.013": 0.967298133403,
			"-0.012": 0.592835442924,
			"-0.011": 0.709727882366,
			"-0.01": 1.03330117791,
			"-0.009": 4.24152479114,
			"-0.008": 5.3750882091,
			"-0.007": 8.34350626819,
			"-0.006": 17.4697584185,
			"-0.005": 20.3091503983,
			"-0.004": 18.9403204581,
			"-0.003": 18.5994472784,
			"-0.002": 15.1666808416,
			"-0.001": 15.1933577763,
			"0.0": 15.7542676782,
			"0.001": 14.6961650656,
			"0.002": 17.2375586552,
			"0.003": 23.0450473316,
			"0.004": 24.3943937376,
			"0.005": 16.5722142136,
			"0.006": 10.7867277373,
			"0.007": 5.77794801881,
			"0.008": 6.08725932389,
			"0.009": 6.20090405861,
			"0.01": 4.18532469928,
			"0.011": 5.39310112423,
			"0.012": 1.65531943105,
			"0.013": 0.0,
			"0.014": 0.0,
			"0.015": 0.0,
			"0.016": 0.0,
			"0.017": 0.0,
			"0.018": 0.0,
			"0.019": 0.0,
			"0.02": 0.0,
			"0.021": 0.0,
			"0.022": 0.0,
			"0.023": 0.0,
			"0.024": 0.0,
			"0.025": 0.0
		}
	}
}
