{
	 "smiles": "O=C1CCSC2=CC=CC=C12", 
	 "Tm": 302.15, 
	 "num_atms": 19, 
	 "gaussian": { 
		 "optdone": 1, 
		 "sigma_profile": "yes", 
		 "theory": "DFT", 
		 "functional": "B3LYP", 
		 "basiset": "6-31G**", 
		 "properties": { 
			 "R2extent": 1908.3912, 
			 "electric_dipole_moment_norm": 1.78717217413, 
			 "electric_quadrupole_moment_norm": 10.8518696491, 
			 "total_energy": -821.19623436, 
			 "HOMO_LUMO_gap": 0.16179, 
			 "cosmo_polarized_energy": -8.45, 
			 "cosmo_cavitation_energy": 23.52, 
			 "cosmo_dispersion_energy": -18.32, 
			 "cosmo_repulsion_energy": 1.4, 
			 "cosmo_total_nonelectrostatic_energy": 6.61, 
			 "SMD_solvation_energy": 3.8 
		},
		"coords": [
			{
				"x": -0.7697350474,
				"y": -0.7739537949,
				"z": -2.1420105891,
				"element": "O" 
			},
			{
				"x": -0.520553064,
				"y": -0.0018140242,
				"z": -1.2274820188,
				"element": "C" 
			},
			{
				"x": -0.3399860052,
				"y": 1.4839479164,
				"z": -1.5135615999,
				"element": "C" 
			},
			{
				"x": 0.7065430534,
				"y": 2.1546321635,
				"z": -0.6297786894,
				"element": "C" 
			},
			{
				"x": 0.2383870848,
				"y": 2.09055397,
				"z": 1.1390381682,
				"element": "S" 
			},
			{
				"x": -0.1359438169,
				"y": 0.3589795708,
				"z": 1.2854492673,
				"element": "C" 
			},
			{
				"x": -0.1445837441,
				"y": -0.1783383685,
				"z": 2.582796803,
				"element": "C" 
			},
			{
				"x": -0.4361485648,
				"y": -1.5220822959,
				"z": 2.790041629,
				"element": "C" 
			},
			{
				"x": -0.7123420356,
				"y": -2.3632054129,
				"z": 1.7050708056,
				"element": "C" 
			},
			{
				"x": -0.7066425297,
				"y": -1.8385403411,
				"z": 0.4211427149,
				"element": "C" 
			},
			{
				"x": -0.4339419448,
				"y": -0.478045272,
				"z": 0.1860362968,
				"element": "C" 
			},
			{
				"x": -1.312942898,
				"y": 1.9729241808,
				"z": -1.3658052749,
				"element": "H" 
			},
			{
				"x": -0.0822959815,
				"y": 1.5793944106,
				"z": -2.5727984732,
				"element": "H" 
			},
			{
				"x": 1.6886051679,
				"y": 1.6862451771,
				"z": -0.7520539151,
				"element": "H" 
			},
			{
				"x": 0.8066384803,
				"y": 3.2164464469,
				"z": -0.8686031719,
				"element": "H" 
			},
			{
				"x": 0.0946224107,
				"y": 0.4626065041,
				"z": 3.426310473,
				"element": "H" 
			},
			{
				"x": -0.4346590795,
				"y": -1.9183834305,
				"z": 3.8015640371,
				"element": "H" 
			},
			{
				"x": -0.9302707082,
				"y": -3.4141970861,
				"z": 1.8671526086,
				"element": "H" 
			},
			{
				"x": -0.9256507774,
				"y": -2.4554703139,
				"z": -0.4440090712,
				"element": "H" 
			}
		],
		 "valence_orbital": [ 
			{
				"type": "occ",
				"energy": -0.32744,
				"method": "rhf"
			},
			{
				"type": "occ",
				"energy": -0.2938,
				"method": "rhf"
			},
			{
				"type": "occ",
				"energy": -0.26206,
				"method": "rhf"
			},
			{
				"type": "occ",
				"energy": -0.24974,
				"method": "rhf"
			},
			{
				"type": "occ",
				"energy": -0.22208,
				"method": "rhf"
			},
			{
				"type": "unocc",
				"energy": -0.06029,
				"method": "rhf"
			},
			{
				"type": "unocc",
				"energy": -0.01343,
				"method": "rhf"
			},
			{
				"type": "unocc",
				"energy": 0.02011,
				"method": "rhf"
			},
			{
				"type": "unocc",
				"energy": 0.03962,
				"method": "rhf"
			},
			{
				"type": "unocc",
				"energy": 0.07003,
				"method": "rhf"
			}
		],
		"cosmo_sigma_profile": { 
			"-0.025": 0.0,
			"-0.024": 0.0,
			"-0.023": 0.0,
			"-0.022": 0.0,
			"-0.021": 0.0,
			"-0.02": 0.0,
			"-0.019": 0.0,
			"-0.018": 0.0,
			"-0.017": 0.0,
			"-0.016": 0.0,
			"-0.015": 0.0,
			"-0.014": 0.0,
			"-0.013": 0.0,
			"-0.012": 0.0,
			"-0.011": 0.0,
			"-0.01": 0.0,
			"-0.009": 0.0,
			"-0.008": 0.426937568176,
			"-0.007": 6.34989044926,
			"-0.006": 16.3080459857,
			"-0.005": 18.3990630966,
			"-0.004": 18.8196992812,
			"-0.003": 13.9636255898,
			"-0.002": 11.9617778973,
			"-0.001": 9.20593456255,
			"0.0": 9.23813690832,
			"0.001": 11.7221952548,
			"0.002": 12.9853501005,
			"0.003": 17.9613002018,
			"0.004": 13.5692061454,
			"0.005": 5.43291667714,
			"0.006": 4.17886148478,
			"0.007": 3.78581494258,
			"0.008": 2.94483200254,
			"0.009": 2.1662367881,
			"0.01": 1.8558718364,
			"0.011": 3.04938875059,
			"0.012": 4.00103345748,
			"0.013": 1.34663722613,
			"0.014": 0.091144949889,
			"0.015": 0.0,
			"0.016": 0.0,
			"0.017": 0.0,
			"0.018": 0.0,
			"0.019": 0.0,
			"0.02": 0.0,
			"0.021": 0.0,
			"0.022": 0.0,
			"0.023": 0.0,
			"0.024": 0.0,
			"0.025": 0.0
		}
	}
}
