{
	 "smiles": "ClC1=C(Cl)C=C(C=C1)C1CCCC1=O", 
	 "Tm": 337.15, 
	 "num_atms": 24, 
	 "gaussian": { 
		 "optdone": 1, 
		 "sigma_profile": "yes", 
		 "theory": "DFT", 
		 "functional": "B3LYP", 
		 "basiset": "6-31G**", 
		 "properties": { 
			 "R2extent": 5392.7125, 
			 "electric_dipole_moment_norm": 5.05308378518, 
			 "electric_quadrupole_moment_norm": 8.4727055909, 
			 "total_energy": -1420.8057144, 
			 "HOMO_LUMO_gap": 0.19843, 
			 "cosmo_polarized_energy": -9.62, 
			 "cosmo_cavitation_energy": 30.34, 
			 "cosmo_dispersion_energy": -22.36, 
			 "cosmo_repulsion_energy": 1.77, 
			 "cosmo_total_nonelectrostatic_energy": 9.75, 
			 "SMD_solvation_energy": 4.66 
		},
		"coords": [
			{
				"x": -5.1011996547,
				"y": 0.4784175586,
				"z": -1.2592328301,
				"element": "Cl" 
			},
			{
				"x": -3.4045585999,
				"y": 0.5421578541,
				"z": -0.8486915292,
				"element": "C" 
			},
			{
				"x": -2.67039019,
				"y": 1.7342648481,
				"z": -0.9273772669,
				"element": "C" 
			},
			{
				"x": -3.4167973878,
				"y": 3.2288754904,
				"z": -1.4393039616,
				"element": "Cl" 
			},
			{
				"x": -1.3165740264,
				"y": 1.7415343548,
				"z": -0.5967922118,
				"element": "C" 
			},
			{
				"x": -0.6635031504,
				"y": 0.5708068117,
				"z": -0.187234761,
				"element": "C" 
			},
			{
				"x": -1.4097062725,
				"y": -0.6099112439,
				"z": -0.1035659205,
				"element": "C" 
			},
			{
				"x": -2.7641386032,
				"y": -0.6243355489,
				"z": -0.4328703854,
				"element": "C" 
			},
			{
				"x": 0.8199626205,
				"y": 0.6565227265,
				"z": 0.1611795475,
				"element": "C" 
			},
			{
				"x": 1.5390102156,
				"y": -0.6645216218,
				"z": 0.4950309721,
				"element": "C" 
			},
			{
				"x": 1.3904191158,
				"y": -0.8365888423,
				"z": 2.0255049806,
				"element": "C" 
			},
			{
				"x": 1.5271653542,
				"y": 0.5924250372,
				"z": 2.5723879512,
				"element": "C" 
			},
			{
				"x": 1.0012674544,
				"y": 1.4986308004,
				"z": 1.4572742704,
				"element": "C" 
			},
			{
				"x": 0.7707174528,
				"y": 2.6824459395,
				"z": 1.5498272229,
				"element": "O" 
			},
			{
				"x": -0.7700668696,
				"y": 2.6766193618,
				"z": -0.6418181799,
				"element": "H" 
			},
			{
				"x": -0.9465137095,
				"y": -1.5370124006,
				"z": 0.2148994706,
				"element": "H" 
			},
			{
				"x": -3.3350166111,
				"y": -1.5442136545,
				"z": -0.370200707,
				"element": "H" 
			},
			{
				"x": 1.320527683,
				"y": 1.2005498281,
				"z": -0.6472432258,
				"element": "H" 
			},
			{
				"x": 1.1696827398,
				"y": -1.5208471554,
				"z": -0.0746827538,
				"element": "H" 
			},
			{
				"x": 2.6011081898,
				"y": -0.5566021581,
				"z": 0.246119357,
				"element": "H" 
			},
			{
				"x": 0.3992349737,
				"y": -1.2357596402,
				"z": 2.2683014177,
				"element": "H" 
			},
			{
				"x": 2.1293918493,
				"y": -1.5273156327,
				"z": 2.4401858664,
				"element": "H" 
			},
			{
				"x": 1.0002898765,
				"y": 0.7901106818,
				"z": 3.5097169362,
				"element": "H" 
			},
			{
				"x": 2.5805875497,
				"y": 0.8585466053,
				"z": 2.7356857402,
				"element": "H" 
			}
		],
		 "valence_orbital": [ 
			{
				"type": "occ",
				"energy": -0.32509,
				"method": "rhf"
			},
			{
				"type": "occ",
				"energy": -0.30611,
				"method": "rhf"
			},
			{
				"type": "occ",
				"energy": -0.26278,
				"method": "rhf"
			},
			{
				"type": "occ",
				"energy": -0.25723,
				"method": "rhf"
			},
			{
				"type": "occ",
				"energy": -0.23844,
				"method": "rhf"
			},
			{
				"type": "unocc",
				"energy": -0.04001,
				"method": "rhf"
			},
			{
				"type": "unocc",
				"energy": -0.02312,
				"method": "rhf"
			},
			{
				"type": "unocc",
				"energy": -0.01173,
				"method": "rhf"
			},
			{
				"type": "unocc",
				"energy": 0.00567,
				"method": "rhf"
			},
			{
				"type": "unocc",
				"energy": 0.06341,
				"method": "rhf"
			}
		],
		"cosmo_sigma_profile": { 
			"-0.025": 0.0,
			"-0.024": 0.0,
			"-0.023": 0.0,
			"-0.022": 0.0,
			"-0.021": 0.0,
			"-0.02": 0.0,
			"-0.019": 0.0,
			"-0.018": 0.0,
			"-0.017": 0.0,
			"-0.016": 0.0,
			"-0.015": 0.0,
			"-0.014": 0.0,
			"-0.013": 0.0,
			"-0.012": 0.0,
			"-0.011": 0.0,
			"-0.01": 0.0,
			"-0.009": 0.0,
			"-0.008": 0.817249646901,
			"-0.007": 4.53254616213,
			"-0.006": 14.3422351967,
			"-0.005": 15.8492748315,
			"-0.004": 19.3397802115,
			"-0.003": 20.0975924439,
			"-0.002": 21.4909664855,
			"-0.001": 19.9869620832,
			"0.0": 21.3759191572,
			"0.001": 22.352320418,
			"0.002": 21.3468595844,
			"0.003": 19.2808263974,
			"0.004": 18.7456224088,
			"0.005": 8.55536834599,
			"0.006": 2.88817485732,
			"0.007": 1.42004140615,
			"0.008": 1.68462257499,
			"0.009": 1.79247204323,
			"0.01": 2.39397887674,
			"0.011": 4.07362058922,
			"0.012": 2.4667196563,
			"0.013": 0.610506580891,
			"0.014": 0.0,
			"0.015": 0.0,
			"0.016": 0.0,
			"0.017": 0.0,
			"0.018": 0.0,
			"0.019": 0.0,
			"0.02": 0.0,
			"0.021": 0.0,
			"0.022": 0.0,
			"0.023": 0.0,
			"0.024": 0.0,
			"0.025": 0.0
		}
	}
}
