{
	 "smiles": "CC(C)(C)OC(=O)NC1=C(C=O)C=NC=C1", 
	 "Tm": 336.15, 
	 "num_atms": 30, 
	 "gaussian": { 
		 "optdone": 1, 
		 "sigma_profile": "yes", 
		 "theory": "DFT", 
		 "functional": "B3LYP", 
		 "basiset": "6-31G**", 
		 "properties": { 
			 "R2extent": 5383.351, 
			 "electric_dipole_moment_norm": 5.30213744541, 
			 "electric_quadrupole_moment_norm": 14.5392927366, 
			 "total_energy": -762.801993099, 
			 "HOMO_LUMO_gap": 0.17896, 
			 "cosmo_polarized_energy": -14.91, 
			 "cosmo_cavitation_energy": 33.64, 
			 "cosmo_dispersion_energy": -23.5, 
			 "cosmo_repulsion_energy": 1.81, 
			 "cosmo_total_nonelectrostatic_energy": 11.94, 
			 "SMD_solvation_energy": 6.43 
		},
		"coords": [
			{
				"x": 3.0209126486,
				"y": 0.8464534637,
				"z": 1.0980177068,
				"element": "C" 
			},
			{
				"x": 2.0465053985,
				"y": -0.1520649499,
				"z": 0.4684460743,
				"element": "C" 
			},
			{
				"x": 1.8150357174,
				"y": -1.3843594081,
				"z": 1.3464651683,
				"element": "C" 
			},
			{
				"x": 2.5054267114,
				"y": -0.5575736854,
				"z": -0.9334120705,
				"element": "C" 
			},
			{
				"x": 0.7481270554,
				"y": 0.5181491807,
				"z": 0.1963353957,
				"element": "O" 
			},
			{
				"x": 0.0166130686,
				"y": 1.0188982731,
				"z": 1.197471821,
				"element": "C" 
			},
			{
				"x": 0.2910298118,
				"y": 1.0118612943,
				"z": 2.3832394959,
				"element": "O" 
			},
			{
				"x": -1.1826982887,
				"y": 1.5892994038,
				"z": 0.7706042789,
				"element": "N" 
			},
			{
				"x": -1.7847048094,
				"y": 1.7558427352,
				"z": -0.4763777588,
				"element": "C" 
			},
			{
				"x": -3.1333883869,
				"y": 2.1977939272,
				"z": -0.5464573459,
				"element": "C" 
			},
			{
				"x": -3.9985233676,
				"y": 2.4333495258,
				"z": 0.6281873873,
				"element": "C" 
			},
			{
				"x": -5.1357894242,
				"y": 2.8634125432,
				"z": 0.5640522652,
				"element": "O" 
			},
			{
				"x": -3.7005685815,
				"y": 2.4005293199,
				"z": -1.8168149518,
				"element": "C" 
			},
			{
				"x": -3.0766464435,
				"y": 2.2006393785,
				"z": -2.9746761905,
				"element": "N" 
			},
			{
				"x": -1.8055344645,
				"y": 1.7737934663,
				"z": -2.883747372,
				"element": "C" 
			},
			{
				"x": -1.1224044438,
				"y": 1.5403555984,
				"z": -1.6967122717,
				"element": "C" 
			},
			{
				"x": 3.1178431435,
				"y": 1.7354139568,
				"z": 0.4670121435,
				"element": "H" 
			},
			{
				"x": 2.6892115584,
				"y": 1.1494823469,
				"z": 2.0911566758,
				"element": "H" 
			},
			{
				"x": 4.0086893546,
				"y": 0.3825401662,
				"z": 1.1828841788,
				"element": "H" 
			},
			{
				"x": 1.4688794471,
				"y": -1.1015810531,
				"z": 2.3406849696,
				"element": "H" 
			},
			{
				"x": 2.7537103475,
				"y": -1.9385411908,
				"z": 1.4455321779,
				"element": "H" 
			},
			{
				"x": 1.0768549816,
				"y": -2.0482574332,
				"z": 0.8860005704,
				"element": "H" 
			},
			{
				"x": 1.7754726731,
				"y": -1.2221885241,
				"z": -1.4042765463,
				"element": "H" 
			},
			{
				"x": 3.4620169886,
				"y": -1.0842651914,
				"z": -0.8722057731,
				"element": "H" 
			},
			{
				"x": 2.6393873068,
				"y": 0.3221669624,
				"z": -1.5699187732,
				"element": "H" 
			},
			{
				"x": -1.6976252692,
				"y": 1.9122274324,
				"z": 1.5764144302,
				"element": "H" 
			},
			{
				"x": -3.5757085675,
				"y": 2.1793885085,
				"z": 1.6254203446,
				"element": "H" 
			},
			{
				"x": -4.7325272479,
				"y": 2.7407075977,
				"z": -1.856677157,
				"element": "H" 
			},
			{
				"x": -1.2903505326,
				"y": 1.6116091835,
				"z": -3.8290562352,
				"element": "H" 
			},
			{
				"x": -0.0964463857,
				"y": 1.2080171714,
				"z": -1.715692638,
				"element": "H" 
			}
		],
		 "valence_orbital": [ 
			{
				"type": "occ",
				"energy": -0.29261,
				"method": "rhf"
			},
			{
				"type": "occ",
				"energy": -0.27696,
				"method": "rhf"
			},
			{
				"type": "occ",
				"energy": -0.27447,
				"method": "rhf"
			},
			{
				"type": "occ",
				"energy": -0.25629,
				"method": "rhf"
			},
			{
				"type": "occ",
				"energy": -0.25398,
				"method": "rhf"
			},
			{
				"type": "unocc",
				"energy": -0.07502,
				"method": "rhf"
			},
			{
				"type": "unocc",
				"energy": -0.03222,
				"method": "rhf"
			},
			{
				"type": "unocc",
				"energy": 0.02522,
				"method": "rhf"
			},
			{
				"type": "unocc",
				"energy": 0.03912,
				"method": "rhf"
			},
			{
				"type": "unocc",
				"energy": 0.05795,
				"method": "rhf"
			}
		],
		"cosmo_sigma_profile": { 
			"-0.025": 0.0,
			"-0.024": 0.0,
			"-0.023": 0.0,
			"-0.022": 0.0,
			"-0.021": 0.0,
			"-0.02": 0.0,
			"-0.019": 0.0,
			"-0.018": 0.0,
			"-0.017": 0.02117079239,
			"-0.016": 0.745731134523,
			"-0.015": 1.41493993661,
			"-0.014": 0.586645908598,
			"-0.013": 1.61497072856,
			"-0.012": 1.05297662891,
			"-0.011": 1.34977732031,
			"-0.01": 1.15892267124,
			"-0.009": 2.24758371039,
			"-0.008": 1.8912641356,
			"-0.007": 3.62435183253,
			"-0.006": 6.49110587241,
			"-0.005": 9.95459205953,
			"-0.004": 22.1956606739,
			"-0.003": 23.6928232005,
			"-0.002": 29.1948166923,
			"-0.001": 34.4382662035,
			"0.0": 37.1275821667,
			"0.001": 20.132988351,
			"0.002": 12.0737194088,
			"0.003": 5.83410118968,
			"0.004": 5.62070087472,
			"0.005": 3.80094194249,
			"0.006": 5.16786761932,
			"0.007": 4.26737466928,
			"0.008": 2.90331089393,
			"0.009": 4.84066365539,
			"0.01": 5.77882427052,
			"0.011": 7.54885423144,
			"0.012": 5.9865415833,
			"0.013": 1.55219445054,
			"0.014": 0.659449758364,
			"0.015": 1.14202383481,
			"0.016": 0.646362059828,
			"0.017": 0.0657735141436,
			"0.018": 0.0,
			"0.019": 0.0,
			"0.02": 0.0,
			"0.021": 0.0,
			"0.022": 0.0,
			"0.023": 0.0,
			"0.024": 0.0,
			"0.025": 0.0
		}
	}
}
