{
	 "smiles": "COC1=CC=C(OC)C(=C1)[N+]([O-])=O", 
	 "Tm": 344.95, 
	 "num_atms": 22, 
	 "gaussian": { 
		 "optdone": 1, 
		 "sigma_profile": "yes", 
		 "theory": "DFT", 
		 "functional": "B3LYP", 
		 "basiset": "6-31G**", 
		 "properties": { 
			 "R2extent": 4307.8476, 
			 "electric_dipole_moment_norm": 6.82746828993, 
			 "electric_quadrupole_moment_norm": 21.1478605937, 
			 "total_energy": -665.783764412, 
			 "HOMO_LUMO_gap": 0.1466, 
			 "cosmo_polarized_energy": -13.81, 
			 "cosmo_cavitation_energy": 26.73, 
			 "cosmo_dispersion_energy": -19.68, 
			 "cosmo_repulsion_energy": 1.56, 
			 "cosmo_total_nonelectrostatic_energy": 8.61, 
			 "SMD_solvation_energy": 8.52 
		},
		"coords": [
			{
				"x": 1.650473013,
				"y": 0.6726934896,
				"z": 1.0915692093,
				"element": "C" 
			},
			{
				"x": 1.0032208368,
				"y": 0.1256942474,
				"z": -0.0461539234,
				"element": "O" 
			},
			{
				"x": -0.3309319443,
				"y": -0.1450011295,
				"z": 0.0427493387,
				"element": "C" 
			},
			{
				"x": -1.1243342163,
				"y": 0.0688378002,
				"z": 1.1735907483,
				"element": "C" 
			},
			{
				"x": -2.4862244666,
				"y": -0.2431496606,
				"z": 1.1504849365,
				"element": "C" 
			},
			{
				"x": -3.0984029783,
				"y": -0.7909269768,
				"z": 0.0172583921,
				"element": "C" 
			},
			{
				"x": -4.4172520493,
				"y": -1.0803242895,
				"z": -0.0672463487,
				"element": "O" 
			},
			{
				"x": -5.2466663589,
				"y": -0.7979928957,
				"z": 1.0508420525,
				"element": "C" 
			},
			{
				"x": -2.2732618299,
				"y": -1.0069609438,
				"z": -1.1134875653,
				"element": "C" 
			},
			{
				"x": -0.9237616955,
				"y": -0.6779804311,
				"z": -1.1045528532,
				"element": "C" 
			},
			{
				"x": -2.7932973765,
				"y": -1.597455925,
				"z": -2.3558619282,
				"element": "N" 
			},
			{
				"x": -2.2030690078,
				"y": -1.3118773381,
				"z": -3.4007355843,
				"element": "O" 
			},
			{
				"x": -3.7570338581,
				"y": -2.3541268772,
				"z": -2.2826864015,
				"element": "O" 
			},
			{
				"x": 2.6943523407,
				"y": 0.8102680093,
				"z": 0.8067163914,
				"element": "H" 
			},
			{
				"x": 1.5987931484,
				"y": -0.0060955251,
				"z": 1.9530380843,
				"element": "H" 
			},
			{
				"x": 1.223209506,
				"y": 1.6440489515,
				"z": 1.3733891367,
				"element": "H" 
			},
			{
				"x": -0.702090283,
				"y": 0.4824985457,
				"z": 2.0816176834,
				"element": "H" 
			},
			{
				"x": -3.0743463414,
				"y": -0.050558564,
				"z": 2.0388583891,
				"element": "H" 
			},
			{
				"x": -4.9463205002,
				"y": -1.3776755401,
				"z": 1.9326533889,
				"element": "H" 
			},
			{
				"x": -5.2414179098,
				"y": 0.27082534,
				"z": 1.2997933199,
				"element": "H" 
			},
			{
				"x": -6.2521640868,
				"y": -1.0948374818,
				"z": 0.7514800481,
				"element": "H" 
			},
			{
				"x": -0.333273942,
				"y": -0.8395028053,
				"z": -1.9971165146,
				"element": "H" 
			}
		],
		 "valence_orbital": [ 
			{
				"type": "occ",
				"energy": -0.29452,
				"method": "rhf"
			},
			{
				"type": "occ",
				"energy": -0.29283,
				"method": "rhf"
			},
			{
				"type": "occ",
				"energy": -0.28389,
				"method": "rhf"
			},
			{
				"type": "occ",
				"energy": -0.26652,
				"method": "rhf"
			},
			{
				"type": "occ",
				"energy": -0.22014,
				"method": "rhf"
			},
			{
				"type": "unocc",
				"energy": -0.07354,
				"method": "rhf"
			},
			{
				"type": "unocc",
				"energy": -0.00906,
				"method": "rhf"
			},
			{
				"type": "unocc",
				"energy": 0.01211,
				"method": "rhf"
			},
			{
				"type": "unocc",
				"energy": 0.07082,
				"method": "rhf"
			},
			{
				"type": "unocc",
				"energy": 0.09234,
				"method": "rhf"
			}
		],
		"cosmo_sigma_profile": { 
			"-0.025": 0.0,
			"-0.024": 0.0,
			"-0.023": 0.0,
			"-0.022": 0.0,
			"-0.021": 0.0,
			"-0.02": 0.0,
			"-0.019": 0.0,
			"-0.018": 0.0,
			"-0.017": 0.0,
			"-0.016": 0.0,
			"-0.015": 0.0,
			"-0.014": 0.0,
			"-0.013": 0.0,
			"-0.012": 0.0,
			"-0.011": 0.0,
			"-0.01": 0.0,
			"-0.009": 0.0,
			"-0.008": 2.22871924761,
			"-0.007": 8.11440441566,
			"-0.006": 19.3715301445,
			"-0.005": 21.0162527916,
			"-0.004": 21.6277564338,
			"-0.003": 17.8063689847,
			"-0.002": 10.6557392508,
			"-0.001": 10.0280421001,
			"0.0": 11.2677525286,
			"0.001": 15.8944388988,
			"0.002": 14.4933341182,
			"0.003": 8.77411324235,
			"0.004": 5.22935952205,
			"0.005": 5.02894492651,
			"0.006": 4.6968632539,
			"0.007": 6.69629299966,
			"0.008": 11.5576862595,
			"0.009": 9.0725555009,
			"0.01": 5.71951112041,
			"0.011": 2.08811046436,
			"0.012": 1.25003479335,
			"0.013": 0.367397388708,
			"0.014": 0.0,
			"0.015": 0.0,
			"0.016": 0.0,
			"0.017": 0.0,
			"0.018": 0.0,
			"0.019": 0.0,
			"0.02": 0.0,
			"0.021": 0.0,
			"0.022": 0.0,
			"0.023": 0.0,
			"0.024": 0.0,
			"0.025": 0.0
		}
	}
}
