{
	 "smiles": "OC(=O)CCNC1=C(Cl)C=C(C=N1)C(F)(F)F", 
	 "Tm": 405.15, 
	 "num_atms": 25, 
	 "gaussian": { 
		 "optdone": 1, 
		 "sigma_profile": "yes", 
		 "theory": "DFT", 
		 "functional": "B3LYP", 
		 "basiset": "6-31G**", 
		 "properties": { 
			 "R2extent": 7444.1383, 
			 "electric_dipole_moment_norm": 2.95817255751, 
			 "electric_quadrupole_moment_norm": 25.6807001478, 
			 "total_energy": -1367.46370523, 
			 "HOMO_LUMO_gap": 0.18723, 
			 "cosmo_polarized_energy": -17.36, 
			 "cosmo_cavitation_energy": 33.51, 
			 "cosmo_dispersion_energy": -23.77, 
			 "cosmo_repulsion_energy": 1.82, 
			 "cosmo_total_nonelectrostatic_energy": 11.56, 
			 "SMD_solvation_energy": 6.38 
		},
		"coords": [
			{
				"x": -2.6758990246,
				"y": 2.9532650027,
				"z": 3.6979776506,
				"element": "O" 
			},
			{
				"x": -2.6059477565,
				"y": 1.646914228,
				"z": 3.3286512913,
				"element": "C" 
			},
			{
				"x": -3.2987214828,
				"y": 0.8250405109,
				"z": 3.875876989,
				"element": "O" 
			},
			{
				"x": -1.6046529796,
				"y": 1.32787351,
				"z": 2.228336906,
				"element": "C" 
			},
			{
				"x": -1.7290895665,
				"y": -0.1272743145,
				"z": 1.7576629549,
				"element": "C" 
			},
			{
				"x": -0.6882202314,
				"y": -0.5118435156,
				"z": 0.8156932352,
				"element": "N" 
			},
			{
				"x": -0.7015055007,
				"y": -0.1631181359,
				"z": -0.4980650285,
				"element": "C" 
			},
			{
				"x": 0.2836765683,
				"y": -0.6409339731,
				"z": -1.4085519226,
				"element": "C" 
			},
			{
				"x": 1.5522519427,
				"y": -1.7172754863,
				"z": -0.8389169559,
				"element": "Cl" 
			},
			{
				"x": 0.2340647935,
				"y": -0.2653633376,
				"z": -2.7328631408,
				"element": "C" 
			},
			{
				"x": -0.7980409064,
				"y": 0.5864801793,
				"z": -3.1565582413,
				"element": "C" 
			},
			{
				"x": -1.7233980446,
				"y": 1.0097182992,
				"z": -2.2074239036,
				"element": "C" 
			},
			{
				"x": -1.6819405999,
				"y": 0.6546844535,
				"z": -0.9210695687,
				"element": "N" 
			},
			{
				"x": -0.8540038564,
				"y": 1.0576865276,
				"z": -4.5769812034,
				"element": "C" 
			},
			{
				"x": -0.5214550765,
				"y": 0.0704126861,
				"z": -5.4407865693,
				"element": "F" 
			},
			{
				"x": 0.0083786472,
				"y": 2.0767276456,
				"z": -4.8088872479,
				"element": "F" 
			},
			{
				"x": -2.0853646078,
				"y": 1.5001721733,
				"z": -4.9108387355,
				"element": "F" 
			},
			{
				"x": -2.0780221566,
				"y": 3.4873234452,
				"z": 3.1556531929,
				"element": "H" 
			},
			{
				"x": -0.5929685622,
				"y": 1.5192748554,
				"z": 2.6112619458,
				"element": "H" 
			},
			{
				"x": -1.7568132282,
				"y": 1.9989693423,
				"z": 1.3751818975,
				"element": "H" 
			},
			{
				"x": -2.7099368469,
				"y": -0.2713118659,
				"z": 1.2970000179,
				"element": "H" 
			},
			{
				"x": -1.6710498069,
				"y": -0.7962637816,
				"z": 2.6182008384,
				"element": "H" 
			},
			{
				"x": 0.0347928738,
				"y": -1.1446125087,
				"z": 1.1192317445,
				"element": "H" 
			},
			{
				"x": 0.9752109587,
				"y": -0.633446843,
				"z": -3.4335214531,
				"element": "H" 
			},
			{
				"x": -2.5420455496,
				"y": 1.6633009031,
				"z": -2.4963646935,
				"element": "H" 
			}
		],
		 "valence_orbital": [ 
			{
				"type": "occ",
				"energy": -0.3223,
				"method": "rhf"
			},
			{
				"type": "occ",
				"energy": -0.29424,
				"method": "rhf"
			},
			{
				"type": "occ",
				"energy": -0.28561,
				"method": "rhf"
			},
			{
				"type": "occ",
				"energy": -0.27837,
				"method": "rhf"
			},
			{
				"type": "occ",
				"energy": -0.23309,
				"method": "rhf"
			},
			{
				"type": "unocc",
				"energy": -0.04586,
				"method": "rhf"
			},
			{
				"type": "unocc",
				"energy": -0.0281,
				"method": "rhf"
			},
			{
				"type": "unocc",
				"energy": 0.00387,
				"method": "rhf"
			},
			{
				"type": "unocc",
				"energy": 0.00973,
				"method": "rhf"
			},
			{
				"type": "unocc",
				"energy": 0.05031,
				"method": "rhf"
			}
		],
		"cosmo_sigma_profile": { 
			"-0.025": 0.0,
			"-0.024": 0.0,
			"-0.023": 0.0,
			"-0.022": 0.0,
			"-0.021": 0.0,
			"-0.02": 0.0,
			"-0.019": 0.677780110999,
			"-0.018": 1.14229206084,
			"-0.017": 1.28977029511,
			"-0.016": 1.27233596085,
			"-0.015": 0.936994905012,
			"-0.014": 0.613634966069,
			"-0.013": 1.57072961057,
			"-0.012": 2.88957376293,
			"-0.011": 2.09052179042,
			"-0.01": 2.69257072833,
			"-0.009": 2.47515406024,
			"-0.008": 4.86221225629,
			"-0.007": 8.31181196247,
			"-0.006": 9.07864786296,
			"-0.005": 11.2549653261,
			"-0.004": 11.7218157588,
			"-0.003": 10.8814788489,
			"-0.002": 14.1827725584,
			"-0.001": 20.5469223973,
			"0.0": 25.8651774961,
			"0.001": 24.9571820536,
			"0.002": 24.7324732872,
			"0.003": 37.6529877434,
			"0.004": 11.5005043188,
			"0.005": 4.27297955955,
			"0.006": 3.62346232163,
			"0.007": 3.37094978709,
			"0.008": 2.94976370566,
			"0.009": 4.56701819873,
			"0.01": 5.4445427096,
			"0.011": 5.67907255141,
			"0.012": 4.82274414266,
			"0.013": 1.57496690992,
			"0.014": 0.0302357880632,
			"0.015": 0.0,
			"0.016": 0.0,
			"0.017": 0.0,
			"0.018": 0.0,
			"0.019": 0.0,
			"0.02": 0.0,
			"0.021": 0.0,
			"0.022": 0.0,
			"0.023": 0.0,
			"0.024": 0.0,
			"0.025": 0.0
		}
	}
}
