{
	 "smiles": "COC1=C(O)C(Br)=CC(C=O)=C1", 
	 "Tm": 438.15, 
	 "num_atms": 19, 
	 "gaussian": { 
		 "optdone": 1, 
		 "sigma_profile": "yes", 
		 "theory": "DFT", 
		 "functional": "B3LYP", 
		 "basiset": "6-31G**", 
		 "properties": { 
			 "R2extent": 3639.1889, 
			 "electric_dipole_moment_norm": 6.05218867683, 
			 "electric_quadrupole_moment_norm": 8.7279271428, 
			 "total_energy": -3106.12012372, 
			 "HOMO_LUMO_gap": 0.17011, 
			 "cosmo_polarized_energy": -13.08, 
			 "cosmo_cavitation_energy": 26.11, 
			 "cosmo_dispersion_energy": -19.57, 
			 "cosmo_repulsion_energy": 1.56, 
			 "cosmo_total_nonelectrostatic_energy": 8.1, 
			 "SMD_solvation_energy": 5.6 
		},
		"coords": [
			{
				"x": 2.3149646318,
				"y": 1.8863618369,
				"z": -1.6472170865,
				"element": "C" 
			},
			{
				"x": 2.0649107914,
				"y": 1.4608964663,
				"z": -0.3131711926,
				"element": "O" 
			},
			{
				"x": 1.0183252958,
				"y": 0.6029062191,
				"z": -0.0920208082,
				"element": "C" 
			},
			{
				"x": 0.8717532876,
				"y": 0.2541371309,
				"z": 1.2719878411,
				"element": "C" 
			},
			{
				"x": 1.7198878091,
				"y": 0.76145467,
				"z": 2.1885123057,
				"element": "O" 
			},
			{
				"x": -0.1587368001,
				"y": -0.616904779,
				"z": 1.6439053349,
				"element": "C" 
			},
			{
				"x": -0.3557317762,
				"y": -1.0851814348,
				"z": 3.4770536829,
				"element": "Br" 
			},
			{
				"x": -1.0277249643,
				"y": -1.1342593272,
				"z": 0.6910400329,
				"element": "C" 
			},
			{
				"x": -0.8739039917,
				"y": -0.7830571061,
				"z": -0.6541413422,
				"element": "C" 
			},
			{
				"x": -1.7950463943,
				"y": -1.3304377703,
				"z": -1.6692577413,
				"element": "C" 
			},
			{
				"x": -2.7154959271,
				"y": -2.0914414058,
				"z": -1.4363241317,
				"element": "O" 
			},
			{
				"x": 0.1552689274,
				"y": 0.0908287841,
				"z": -1.0484840031,
				"element": "C" 
			},
			{
				"x": 1.4559039419,
				"y": 2.4312507922,
				"z": -2.0567350684,
				"element": "H" 
			},
			{
				"x": 3.1764586117,
				"y": 2.552825256,
				"z": -1.5963993814,
				"element": "H" 
			},
			{
				"x": 2.55035107,
				"y": 1.0348773558,
				"z": -2.2969521615,
				"element": "H" 
			},
			{
				"x": 2.3451124649,
				"y": 1.3328691023,
				"z": 1.713391544,
				"element": "H" 
			},
			{
				"x": -1.8279665132,
				"y": -1.8091455149,
				"z": 0.9711586413,
				"element": "H" 
			},
			{
				"x": -1.5869353513,
				"y": -0.9889421208,
				"z": -2.7090671485,
				"element": "H" 
			},
			{
				"x": 0.2609048868,
				"y": 0.3532618454,
				"z": -2.0959793175,
				"element": "H" 
			}
		],
		 "valence_orbital": [ 
			{
				"type": "occ",
				"energy": -0.30713,
				"method": "rhf"
			},
			{
				"type": "occ",
				"energy": -0.28583,
				"method": "rhf"
			},
			{
				"type": "occ",
				"energy": -0.2554,
				"method": "rhf"
			},
			{
				"type": "occ",
				"energy": -0.24747,
				"method": "rhf"
			},
			{
				"type": "occ",
				"energy": -0.2308,
				"method": "rhf"
			},
			{
				"type": "unocc",
				"energy": -0.06069,
				"method": "rhf"
			},
			{
				"type": "unocc",
				"energy": -0.01613,
				"method": "rhf"
			},
			{
				"type": "unocc",
				"energy": 0.00521,
				"method": "rhf"
			},
			{
				"type": "unocc",
				"energy": 0.04357,
				"method": "rhf"
			},
			{
				"type": "unocc",
				"energy": 0.06538,
				"method": "rhf"
			}
		],
		"cosmo_sigma_profile": { 
			"-0.025": 0.0,
			"-0.024": 0.0,
			"-0.023": 0.0,
			"-0.022": 0.0,
			"-0.021": 0.0,
			"-0.02": 0.0,
			"-0.019": 0.0,
			"-0.018": 0.0,
			"-0.017": 0.0,
			"-0.016": 0.284359725654,
			"-0.015": 0.451562144114,
			"-0.014": 0.265770054307,
			"-0.013": 0.655475481612,
			"-0.012": 0.800902185134,
			"-0.011": 0.791433027849,
			"-0.01": 0.524959403582,
			"-0.009": 1.06124676041,
			"-0.008": 4.30805114977,
			"-0.007": 7.45486823712,
			"-0.006": 14.8893603056,
			"-0.005": 13.986630154,
			"-0.004": 15.2966623754,
			"-0.003": 12.9184435724,
			"-0.002": 10.8912548305,
			"-0.001": 12.2143122758,
			"0.0": 16.5016049611,
			"0.001": 21.4955080309,
			"0.002": 17.480882939,
			"0.003": 11.7861211771,
			"0.004": 13.6594257634,
			"0.005": 7.11419749815,
			"0.006": 3.07404735665,
			"0.007": 3.67716884877,
			"0.008": 3.52430499437,
			"0.009": 4.20485718011,
			"0.01": 4.07219473832,
			"0.011": 4.31132760425,
			"0.012": 3.44078894891,
			"0.013": 0.997963981927,
			"0.014": 0.0235092055993,
			"0.015": 0.0,
			"0.016": 0.0,
			"0.017": 0.0,
			"0.018": 0.0,
			"0.019": 0.0,
			"0.02": 0.0,
			"0.021": 0.0,
			"0.022": 0.0,
			"0.023": 0.0,
			"0.024": 0.0,
			"0.025": 0.0
		}
	}
}
