{
	 "smiles": "OC1=COC(CCl)=CC1=O", 
	 "Tm": 440.15, 
	 "num_atms": 15, 
	 "gaussian": { 
		 "optdone": 1, 
		 "sigma_profile": "yes", 
		 "theory": "DFT", 
		 "functional": "B3LYP", 
		 "basiset": "6-31G**", 
		 "properties": { 
			 "R2extent": 2030.6887, 
			 "electric_dipole_moment_norm": 3.52261934077, 
			 "electric_quadrupole_moment_norm": 4.0896685966, 
			 "total_energy": -917.484510684, 
			 "HOMO_LUMO_gap": 0.18426, 
			 "cosmo_polarized_energy": -10.87, 
			 "cosmo_cavitation_energy": 21.36, 
			 "cosmo_dispersion_energy": -16.45, 
			 "cosmo_repulsion_energy": 1.34, 
			 "cosmo_total_nonelectrostatic_energy": 6.26, 
			 "SMD_solvation_energy": 5.35 
		},
		"coords": [
			{
				"x": -0.7867582738,
				"y": 2.2466545571,
				"z": 2.5054769966,
				"element": "O" 
			},
			{
				"x": -0.2285777652,
				"y": 1.5164542874,
				"z": 1.5254348889,
				"element": "C" 
			},
			{
				"x": 0.584627145,
				"y": 2.0257922762,
				"z": 0.5747189749,
				"element": "C" 
			},
			{
				"x": 1.1260057539,
				"y": 1.230871779,
				"z": -0.4021143702,
				"element": "O" 
			},
			{
				"x": 0.8506287181,
				"y": -0.0919471519,
				"z": -0.4289113974,
				"element": "C" 
			},
			{
				"x": 1.572584821,
				"y": -0.7123926515,
				"z": -1.5978175343,
				"element": "C" 
			},
			{
				"x": 1.3046857398,
				"y": -2.4790265105,
				"z": -1.7691889852,
				"element": "Cl" 
			},
			{
				"x": 0.0466986051,
				"y": -0.6947271047,
				"z": 0.4808007546,
				"element": "C" 
			},
			{
				"x": -0.5595216057,
				"y": 0.0824661337,
				"z": 1.5399799298,
				"element": "C" 
			},
			{
				"x": -1.3091697517,
				"y": -0.3373792131,
				"z": 2.4330399913,
				"element": "O" 
			},
			{
				"x": -1.3066636454,
				"y": 1.5824526984,
				"z": 3.0101673307,
				"element": "H" 
			},
			{
				"x": 0.885389406,
				"y": 3.0596235278,
				"z": 0.4794884175,
				"element": "H" 
			},
			{
				"x": 1.2450858261,
				"y": -0.23974436,
				"z": -2.5268389043,
				"element": "H" 
			},
			{
				"x": 2.648434215,
				"y": -0.5527594236,
				"z": -1.4939082574,
				"element": "H" 
			},
			{
				"x": -0.1461491882,
				"y": -1.7575388444,
				"z": 0.4208721643,
				"element": "H" 
			}
		],
		 "valence_orbital": [ 
			{
				"type": "occ",
				"energy": -0.32416,
				"method": "rhf"
			},
			{
				"type": "occ",
				"energy": -0.32049,
				"method": "rhf"
			},
			{
				"type": "occ",
				"energy": -0.28231,
				"method": "rhf"
			},
			{
				"type": "occ",
				"energy": -0.26654,
				"method": "rhf"
			},
			{
				"type": "occ",
				"energy": -0.23843,
				"method": "rhf"
			},
			{
				"type": "unocc",
				"energy": -0.05417,
				"method": "rhf"
			},
			{
				"type": "unocc",
				"energy": -0.01253,
				"method": "rhf"
			},
			{
				"type": "unocc",
				"energy": 0.00109,
				"method": "rhf"
			},
			{
				"type": "unocc",
				"energy": 0.08429,
				"method": "rhf"
			},
			{
				"type": "unocc",
				"energy": 0.09478,
				"method": "rhf"
			}
		],
		"cosmo_sigma_profile": { 
			"-0.025": 0.0,
			"-0.024": 0.0,
			"-0.023": 0.0,
			"-0.022": 0.0,
			"-0.021": 0.0,
			"-0.02": 0.0,
			"-0.019": 0.0,
			"-0.018": 0.0,
			"-0.017": 0.0,
			"-0.016": 0.0,
			"-0.015": 0.0,
			"-0.014": 0.0,
			"-0.013": 0.331207436186,
			"-0.012": 0.5596042653,
			"-0.011": 0.57563758864,
			"-0.01": 3.67899419351,
			"-0.009": 7.19545759507,
			"-0.008": 6.17889882643,
			"-0.007": 6.89180487466,
			"-0.006": 6.42779300123,
			"-0.005": 6.60979600608,
			"-0.004": 7.28363953221,
			"-0.003": 11.1459609663,
			"-0.002": 12.6369486516,
			"-0.001": 13.9845616777,
			"0.0": 16.7513603334,
			"0.001": 11.8055787927,
			"0.002": 8.26716489809,
			"0.003": 9.04014947403,
			"0.004": 8.66477517805,
			"0.005": 9.76887934139,
			"0.006": 4.02437836194,
			"0.007": 2.50398337544,
			"0.008": 2.51931195413,
			"0.009": 2.66847473482,
			"0.01": 3.48223477656,
			"0.011": 3.36156398427,
			"0.012": 3.22562137328,
			"0.013": 2.378764545,
			"0.014": 1.49835086909,
			"0.015": 0.0399623749141,
			"0.016": 0.0,
			"0.017": 0.0,
			"0.018": 0.0,
			"0.019": 0.0,
			"0.02": 0.0,
			"0.021": 0.0,
			"0.022": 0.0,
			"0.023": 0.0,
			"0.024": 0.0,
			"0.025": 0.0
		}
	}
}
