{
	 "smiles": "CC1CC(=O)O1", 
	 "Tm": 229.65, 
	 "num_atms": 12, 
	 "gaussian": { 
		 "optdone": 1, 
		 "sigma_profile": "yes", 
		 "theory": "DFT", 
		 "functional": "B3LYP", 
		 "basiset": "6-31G**", 
		 "properties": { 
			 "R2extent": 1398.6734, 
			 "electric_dipole_moment_norm": 4.30648878438, 
			 "electric_quadrupole_moment_norm": 16.3197134767, 
			 "total_energy": -306.478252668, 
			 "HOMO_LUMO_gap": 0.2839, 
			 "cosmo_polarized_energy": -9.54, 
			 "cosmo_cavitation_energy": 15.63, 
			 "cosmo_dispersion_energy": -11.77, 
			 "cosmo_repulsion_energy": 1.05, 
			 "cosmo_total_nonelectrostatic_energy": 4.91, 
			 "SMD_solvation_energy": 4.0 
		},
		"coords": [
			{
				"x": 0.9109645716,
				"y": 0.1606501511,
				"z": 0.845187483,
				"element": "C" 
			},
			{
				"x": 0.052029432,
				"y": -1.0838823623,
				"z": 0.8134581013,
				"element": "C" 
			},
			{
				"x": -1.3256009194,
				"y": -1.0444909815,
				"z": 1.5033594114,
				"element": "C" 
			},
			{
				"x": -0.7081725769,
				"y": -2.0848691519,
				"z": 2.4370197466,
				"element": "C" 
			},
			{
				"x": -1.0395283609,
				"y": -2.7314771393,
				"z": 3.3864230057,
				"element": "O" 
			},
			{
				"x": 0.5088729844,
				"y": -2.0888578337,
				"z": 1.7986636216,
				"element": "O" 
			},
			{
				"x": 0.9161766681,
				"y": 0.6038157249,
				"z": 1.8458651728,
				"element": "H" 
			},
			{
				"x": 0.5266511464,
				"y": 0.9025922988,
				"z": 0.1370798936,
				"element": "H" 
			},
			{
				"x": 1.9423744061,
				"y": -0.0750965392,
				"z": 0.5675892288,
				"element": "H" 
			},
			{
				"x": 0.0416518489,
				"y": -1.5455160792,
				"z": -0.1783706241,
				"element": "H" 
			},
			{
				"x": -2.1772855161,
				"y": -1.4091386728,
				"z": 0.9249058526,
				"element": "H" 
			},
			{
				"x": -1.5883336843,
				"y": -0.1031294148,
				"z": 1.9926191067,
				"element": "H" 
			}
		],
		 "valence_orbital": [ 
			{
				"type": "occ",
				"energy": -0.39282,
				"method": "rhf"
			},
			{
				"type": "occ",
				"energy": -0.37228,
				"method": "rhf"
			},
			{
				"type": "occ",
				"energy": -0.34611,
				"method": "rhf"
			},
			{
				"type": "occ",
				"energy": -0.29918,
				"method": "rhf"
			},
			{
				"type": "occ",
				"energy": -0.27428,
				"method": "rhf"
			},
			{
				"type": "unocc",
				"energy": 0.00962,
				"method": "rhf"
			},
			{
				"type": "unocc",
				"energy": 0.08144,
				"method": "rhf"
			},
			{
				"type": "unocc",
				"energy": 0.09749,
				"method": "rhf"
			},
			{
				"type": "unocc",
				"energy": 0.11681,
				"method": "rhf"
			},
			{
				"type": "unocc",
				"energy": 0.12156,
				"method": "rhf"
			}
		],
		"cosmo_sigma_profile": { 
			"-0.025": 0.0,
			"-0.024": 0.0,
			"-0.023": 0.0,
			"-0.022": 0.0,
			"-0.021": 0.0,
			"-0.02": 0.0,
			"-0.019": 0.0,
			"-0.018": 0.0,
			"-0.017": 0.0,
			"-0.016": 0.0,
			"-0.015": 0.0,
			"-0.014": 0.0,
			"-0.013": 0.0,
			"-0.012": 0.0,
			"-0.011": 0.0,
			"-0.01": 0.0,
			"-0.009": 0.0,
			"-0.008": 0.979155957793,
			"-0.007": 8.29954183841,
			"-0.006": 10.7810920762,
			"-0.005": 13.1215282776,
			"-0.004": 13.8571057485,
			"-0.003": 12.4059879804,
			"-0.002": 8.70060430497,
			"-0.001": 7.27980528018,
			"0.0": 6.33626276505,
			"0.001": 2.51781808579,
			"0.002": 2.05957654942,
			"0.003": 2.62645005834,
			"0.004": 2.03036874154,
			"0.005": 2.59818147001,
			"0.006": 2.85097335555,
			"0.007": 3.68017017486,
			"0.008": 3.677046179,
			"0.009": 4.12989803905,
			"0.01": 5.19815044514,
			"0.011": 6.9425520561,
			"0.012": 3.25007299197,
			"0.013": 0.0332684801599,
			"0.014": 0.0,
			"0.015": 0.0,
			"0.016": 0.0,
			"0.017": 0.0,
			"0.018": 0.0,
			"0.019": 0.0,
			"0.02": 0.0,
			"0.021": 0.0,
			"0.022": 0.0,
			"0.023": 0.0,
			"0.024": 0.0,
			"0.025": 0.0
		}
	}
}
