{
	 "smiles": "OC(=O)COC1=C(Br)C2=C(C=CC=C2)C=C1", 
	 "Tm": 432.15, 
	 "num_atms": 25, 
	 "gaussian": { 
		 "optdone": 1, 
		 "sigma_profile": "yes", 
		 "theory": "DFT", 
		 "functional": "B3LYP", 
		 "basiset": "6-31G**", 
		 "properties": { 
			 "R2extent": 6054.4951, 
			 "electric_dipole_moment_norm": 5.48055736217, 
			 "electric_quadrupole_moment_norm": 24.1393184171, 
			 "total_energy": -3259.78131934, 
			 "HOMO_LUMO_gap": 0.16416, 
			 "cosmo_polarized_energy": -13.79, 
			 "cosmo_cavitation_energy": 31.61, 
			 "cosmo_dispersion_energy": -23.56, 
			 "cosmo_repulsion_energy": 1.8, 
			 "cosmo_total_nonelectrostatic_energy": 9.85, 
			 "SMD_solvation_energy": 5.69 
		},
		"coords": [
			{
				"x": 1.3762096471,
				"y": 4.2208025066,
				"z": -2.608491125,
				"element": "O" 
			},
			{
				"x": 0.4159794248,
				"y": 4.7255998448,
				"z": -1.8213916014,
				"element": "C" 
			},
			{
				"x": 0.1924213195,
				"y": 5.9060244649,
				"z": -1.7226310027,
				"element": "O" 
			},
			{
				"x": -0.406070388,
				"y": 3.7018733355,
				"z": -1.0318164397,
				"element": "C" 
			},
			{
				"x": 0.0811436497,
				"y": 2.4054651458,
				"z": -1.3486228182,
				"element": "O" 
			},
			{
				"x": -0.4678770213,
				"y": 1.2877091927,
				"z": -0.7872711026,
				"element": "C" 
			},
			{
				"x": 0.0672781932,
				"y": 0.0614771094,
				"z": -1.1510115968,
				"element": "C" 
			},
			{
				"x": 1.5164419375,
				"y": 0.0495840788,
				"z": -2.3982912249,
				"element": "Br" 
			},
			{
				"x": -0.4369645062,
				"y": -1.157639592,
				"z": -0.6202767853,
				"element": "C" 
			},
			{
				"x": -1.5276571784,
				"y": -1.0849311425,
				"z": 0.3130215865,
				"element": "C" 
			},
			{
				"x": -2.0532505471,
				"y": -2.2863364085,
				"z": 0.8605672904,
				"element": "C" 
			},
			{
				"x": -1.5346003549,
				"y": -3.5104881861,
				"z": 0.5109155648,
				"element": "C" 
			},
			{
				"x": -0.4601766056,
				"y": -3.5817627823,
				"z": -0.4083919322,
				"element": "C" 
			},
			{
				"x": 0.0751285143,
				"y": -2.4400131097,
				"z": -0.9596232624,
				"element": "C" 
			},
			{
				"x": -2.0531992575,
				"y": 0.1821118316,
				"z": 0.6653008796,
				"element": "C" 
			},
			{
				"x": -1.5424167164,
				"y": 1.3427529007,
				"z": 0.1336998428,
				"element": "C" 
			},
			{
				"x": 1.3715721461,
				"y": 3.2490321508,
				"z": -2.5272745922,
				"element": "H" 
			},
			{
				"x": -0.299296656,
				"y": 3.9253417573,
				"z": 0.0363703103,
				"element": "H" 
			},
			{
				"x": -1.4600804198,
				"y": 3.8183625488,
				"z": -1.3108525417,
				"element": "H" 
			},
			{
				"x": -2.8779119313,
				"y": -2.2154824521,
				"z": 1.5649341445,
				"element": "H" 
			},
			{
				"x": -1.9445541597,
				"y": -4.4215391589,
				"z": 0.9359411097,
				"element": "H" 
			},
			{
				"x": -0.0526302468,
				"y": -4.5503715892,
				"z": -0.6825603692,
				"element": "H" 
			},
			{
				"x": 0.8972848423,
				"y": -2.5064066089,
				"z": -1.6621737777,
				"element": "H" 
			},
			{
				"x": -2.8773730847,
				"y": 0.2310256438,
				"z": 1.3710936768,
				"element": "H" 
			},
			{
				"x": -1.961800601,
				"y": 2.3001085184,
				"z": 0.4191357667,
				"element": "H" 
			}
		],
		 "valence_orbital": [ 
			{
				"type": "occ",
				"energy": -0.29763,
				"method": "rhf"
			},
			{
				"type": "occ",
				"energy": -0.27967,
				"method": "rhf"
			},
			{
				"type": "occ",
				"energy": -0.27763,
				"method": "rhf"
			},
			{
				"type": "occ",
				"energy": -0.25425,
				"method": "rhf"
			},
			{
				"type": "occ",
				"energy": -0.22318,
				"method": "rhf"
			},
			{
				"type": "unocc",
				"energy": -0.05902,
				"method": "rhf"
			},
			{
				"type": "unocc",
				"energy": -0.02307,
				"method": "rhf"
			},
			{
				"type": "unocc",
				"energy": -0.00305,
				"method": "rhf"
			},
			{
				"type": "unocc",
				"energy": 0.00513,
				"method": "rhf"
			},
			{
				"type": "unocc",
				"energy": 0.01647,
				"method": "rhf"
			}
		],
		"cosmo_sigma_profile": { 
			"-0.025": 0.0,
			"-0.024": 0.0,
			"-0.023": 0.0,
			"-0.022": 0.0,
			"-0.021": 0.0,
			"-0.02": 0.0,
			"-0.019": 0.0,
			"-0.018": 0.0,
			"-0.017": 0.0,
			"-0.016": 0.0,
			"-0.015": 0.0,
			"-0.014": 0.0,
			"-0.013": 0.0,
			"-0.012": 0.0,
			"-0.011": 0.0,
			"-0.01": 0.151642402019,
			"-0.009": 7.85358975254,
			"-0.008": 9.74489407119,
			"-0.007": 11.8492395429,
			"-0.006": 16.2775832765,
			"-0.005": 14.9949317807,
			"-0.004": 16.2124838194,
			"-0.003": 12.7904304921,
			"-0.002": 11.1788674518,
			"-0.001": 12.7932850459,
			"0.0": 14.0188517823,
			"0.001": 19.5367540706,
			"0.002": 27.459248497,
			"0.003": 26.443690654,
			"0.004": 19.4918393348,
			"0.005": 9.19799310271,
			"0.006": 2.16229712501,
			"0.007": 2.20814850217,
			"0.008": 3.29283604624,
			"0.009": 4.430704541,
			"0.01": 4.08181538644,
			"0.011": 5.13309886537,
			"0.012": 4.72193885936,
			"0.013": 0.948454760008,
			"0.014": 0.0,
			"0.015": 0.0,
			"0.016": 0.0,
			"0.017": 0.0,
			"0.018": 0.0,
			"0.019": 0.0,
			"0.02": 0.0,
			"0.021": 0.0,
			"0.022": 0.0,
			"0.023": 0.0,
			"0.024": 0.0,
			"0.025": 0.0
		}
	}
}
