{
	 "smiles": "FC1=CC=C(CS(Cl)(=O)=O)C=C1", 
	 "Tm": 335.15, 
	 "num_atms": 18, 
	 "gaussian": { 
		 "optdone": 1, 
		 "sigma_profile": "yes", 
		 "theory": "DFT", 
		 "functional": "B3LYP", 
		 "basiset": "6-31G**", 
		 "properties": { 
			 "R2extent": 3647.7133, 
			 "electric_dipole_moment_norm": 4.13125284629, 
			 "electric_quadrupole_moment_norm": 13.8160696046, 
			 "total_energy": -1378.96042466, 
			 "HOMO_LUMO_gap": 0.17517, 
			 "cosmo_polarized_energy": -11.52, 
			 "cosmo_cavitation_energy": 26.66, 
			 "cosmo_dispersion_energy": -19.44, 
			 "cosmo_repulsion_energy": 1.49, 
			 "cosmo_total_nonelectrostatic_energy": 8.7, 
			 "SMD_solvation_energy": 3.6 
		},
		"coords": [
			{
				"x": -2.4192851235,
				"y": -3.5979420278,
				"z": 0.2499219222,
				"element": "F" 
			},
			{
				"x": -1.6472728923,
				"y": -2.5714002673,
				"z": -0.1485497518,
				"element": "C" 
			},
			{
				"x": -1.8914818598,
				"y": -1.9871468103,
				"z": -1.3875981135,
				"element": "C" 
			},
			{
				"x": -1.085586911,
				"y": -0.9276757246,
				"z": -1.7953906008,
				"element": "C" 
			},
			{
				"x": -0.0424122285,
				"y": -0.4660014197,
				"z": -0.9788202417,
				"element": "C" 
			},
			{
				"x": 0.8142412157,
				"y": 0.6810826703,
				"z": -1.4203967586,
				"element": "C" 
			},
			{
				"x": 0.0864352411,
				"y": 2.2845129721,
				"z": -0.866655187,
				"element": "S" 
			},
			{
				"x": 1.564636033,
				"y": 3.611215973,
				"z": -1.6738896339,
				"element": "Cl" 
			},
			{
				"x": 0.1680797849,
				"y": 2.3885549016,
				"z": 0.5852014561,
				"element": "O" 
			},
			{
				"x": -1.1542348332,
				"y": 2.5392139506,
				"z": -1.5886193419,
				"element": "O" 
			},
			{
				"x": 0.1688224377,
				"y": -1.069375248,
				"z": 0.2699701181,
				"element": "C" 
			},
			{
				"x": -0.6291420873,
				"y": -2.129722291,
				"z": 0.6908484319,
				"element": "C" 
			},
			{
				"x": -2.6982144298,
				"y": -2.361414599,
				"z": -2.0077557433,
				"element": "H" 
			},
			{
				"x": -1.2690462367,
				"y": -0.4545145469,
				"z": -2.755386591,
				"element": "H" 
			},
			{
				"x": 1.814225342,
				"y": 0.671369339,
				"z": -0.9825103354,
				"element": "H" 
			},
			{
				"x": 0.8880765936,
				"y": 0.7767945521,
				"z": -2.505378687,
				"element": "H" 
			},
			{
				"x": 0.9615269772,
				"y": -0.7064436844,
				"z": 0.9172971772,
				"element": "H" 
			},
			{
				"x": -0.4768670232,
				"y": -2.6123077396,
				"z": 1.6497118804,
				"element": "H" 
			}
		],
		 "valence_orbital": [ 
			{
				"type": "occ",
				"energy": -0.33801,
				"method": "rhf"
			},
			{
				"type": "occ",
				"energy": -0.33198,
				"method": "rhf"
			},
			{
				"type": "occ",
				"energy": -0.31601,
				"method": "rhf"
			},
			{
				"type": "occ",
				"energy": -0.28333,
				"method": "rhf"
			},
			{
				"type": "occ",
				"energy": -0.26541,
				"method": "rhf"
			},
			{
				"type": "unocc",
				"energy": -0.09024,
				"method": "rhf"
			},
			{
				"type": "unocc",
				"energy": -0.03418,
				"method": "rhf"
			},
			{
				"type": "unocc",
				"energy": -0.02433,
				"method": "rhf"
			},
			{
				"type": "unocc",
				"energy": 0.03273,
				"method": "rhf"
			},
			{
				"type": "unocc",
				"energy": 0.06029,
				"method": "rhf"
			}
		],
		"cosmo_sigma_profile": { 
			"-0.025": 0.0,
			"-0.024": 0.0,
			"-0.023": 0.0,
			"-0.022": 0.0,
			"-0.021": 0.0,
			"-0.02": 0.0,
			"-0.019": 0.0,
			"-0.018": 0.0,
			"-0.017": 0.0,
			"-0.016": 0.0,
			"-0.015": 0.0,
			"-0.014": 0.0,
			"-0.013": 0.0,
			"-0.012": 0.0,
			"-0.011": 0.927985152555,
			"-0.01": 5.08443731185,
			"-0.009": 5.20832912069,
			"-0.008": 8.2021483684,
			"-0.007": 10.677062617,
			"-0.006": 10.8455468304,
			"-0.005": 9.33672729561,
			"-0.004": 7.04149210036,
			"-0.003": 7.72561070317,
			"-0.002": 8.80181557512,
			"-0.001": 11.4712308929,
			"0.0": 16.3639989062,
			"0.001": 18.652904507,
			"0.002": 22.1487445912,
			"0.003": 23.0445985662,
			"0.004": 22.067465394,
			"0.005": 3.02786134188,
			"0.006": 2.5938002883,
			"0.007": 5.22614546004,
			"0.008": 10.3142779981,
			"0.009": 7.06571333193,
			"0.01": 0.443231858037,
			"0.011": 0.0,
			"0.012": 0.0,
			"0.013": 0.0,
			"0.014": 0.0,
			"0.015": 0.0,
			"0.016": 0.0,
			"0.017": 0.0,
			"0.018": 0.0,
			"0.019": 0.0,
			"0.02": 0.0,
			"0.021": 0.0,
			"0.022": 0.0,
			"0.023": 0.0,
			"0.024": 0.0,
			"0.025": 0.0
		}
	}
}
