{
	 "smiles": "NS(=O)(=O)C1=C(Cl)C=C(C=C1)C(O)=O", 
	 "Tm": 505.15, 
	 "num_atms": 20, 
	 "gaussian": { 
		 "optdone": 1, 
		 "sigma_profile": "yes", 
		 "theory": "DFT", 
		 "functional": "B3LYP", 
		 "basiset": "6-31G**", 
		 "properties": { 
			 "R2extent": 4475.5759, 
			 "electric_dipole_moment_norm": 4.13952731722, 
			 "electric_quadrupole_moment_norm": 21.4529607637, 
			 "total_energy": -1484.31619684, 
			 "HOMO_LUMO_gap": 0.19752, 
			 "cosmo_polarized_energy": -23.54, 
			 "cosmo_cavitation_energy": 28.13, 
			 "cosmo_dispersion_energy": -21.4, 
			 "cosmo_repulsion_energy": 1.62, 
			 "cosmo_total_nonelectrostatic_energy": 8.36, 
			 "SMD_solvation_energy": 5.42 
		},
		"coords": [
			{
				"x": 2.3664129149,
				"y": -0.6928972686,
				"z": 3.6052222065,
				"element": "N" 
			},
			{
				"x": 1.2327557342,
				"y": 0.4381036079,
				"z": 3.0885161422,
				"element": "S" 
			},
			{
				"x": 1.9118384667,
				"y": 1.7359748344,
				"z": 3.1077921778,
				"element": "O" 
			},
			{
				"x": -0.0349318825,
				"y": 0.2227212514,
				"z": 3.7827676369,
				"element": "O" 
			},
			{
				"x": 0.9995851661,
				"y": 0.0080853499,
				"z": 1.3485721038,
				"element": "C" 
			},
			{
				"x": 0.5098958973,
				"y": -1.2305831111,
				"z": 0.9060446314,
				"element": "C" 
			},
			{
				"x": 0.1407350585,
				"y": -2.5319856269,
				"z": 2.0125949428,
				"element": "Cl" 
			},
			{
				"x": 0.3151049975,
				"y": -1.456834588,
				"z": -0.4528146767,
				"element": "C" 
			},
			{
				"x": 0.6134552216,
				"y": -0.4562368522,
				"z": -1.3842917331,
				"element": "C" 
			},
			{
				"x": 1.0833779114,
				"y": 0.7851963955,
				"z": -0.9412795477,
				"element": "C" 
			},
			{
				"x": 1.2741510718,
				"y": 1.0128632396,
				"z": 0.4193261558,
				"element": "C" 
			},
			{
				"x": 0.3676607338,
				"y": -0.7789820436,
				"z": -2.8333234178,
				"element": "C" 
			},
			{
				"x": 1.0154473562,
				"y": -0.0152578013,
				"z": -3.7480674485,
				"element": "O" 
			},
			{
				"x": -0.3664084132,
				"y": -1.6685347833,
				"z": -3.189345933,
				"element": "O" 
			},
			{
				"x": 1.9392335796,
				"y": -1.3934965515,
				"z": 4.2039655523,
				"element": "H" 
			},
			{
				"x": 3.1374916935,
				"y": -0.2086693309,
				"z": 4.0566760665,
				"element": "H" 
			},
			{
				"x": -0.0707035361,
				"y": -2.4062739288,
				"z": -0.8049359056,
				"element": "H" 
			},
			{
				"x": 1.269824218,
				"y": 1.5982208322,
				"z": -1.6373956158,
				"element": "H" 
			},
			{
				"x": 1.6344268219,
				"y": 1.9684275198,
				"z": 0.782534009,
				"element": "H" 
			},
			{
				"x": 1.6838469886,
				"y": 0.5384588556,
				"z": -3.321357347,
				"element": "H" 
			}
		],
		 "valence_orbital": [ 
			{
				"type": "occ",
				"energy": -0.32321,
				"method": "rhf"
			},
			{
				"type": "occ",
				"energy": -0.30999,
				"method": "rhf"
			},
			{
				"type": "occ",
				"energy": -0.29675,
				"method": "rhf"
			},
			{
				"type": "occ",
				"energy": -0.28669,
				"method": "rhf"
			},
			{
				"type": "occ",
				"energy": -0.28167,
				"method": "rhf"
			},
			{
				"type": "unocc",
				"energy": -0.08415,
				"method": "rhf"
			},
			{
				"type": "unocc",
				"energy": -0.04964,
				"method": "rhf"
			},
			{
				"type": "unocc",
				"energy": -0.00297,
				"method": "rhf"
			},
			{
				"type": "unocc",
				"energy": 0.01413,
				"method": "rhf"
			},
			{
				"type": "unocc",
				"energy": 0.04314,
				"method": "rhf"
			}
		],
		"cosmo_sigma_profile": { 
			"-0.025": 0.0,
			"-0.024": 0.0,
			"-0.023": 0.0,
			"-0.022": 0.0,
			"-0.021": 0.0,
			"-0.02": 0.395001631409,
			"-0.019": 0.834401334231,
			"-0.018": 1.16473979235,
			"-0.017": 0.620455110309,
			"-0.016": 0.966877417022,
			"-0.015": 3.39735043294,
			"-0.014": 3.95341409307,
			"-0.013": 3.5785263568,
			"-0.012": 3.10121711392,
			"-0.011": 3.27815921461,
			"-0.01": 3.19734252037,
			"-0.009": 3.48101709214,
			"-0.008": 6.14062178309,
			"-0.007": 6.60804001395,
			"-0.006": 6.71650188291,
			"-0.005": 6.37270401048,
			"-0.004": 10.9086722547,
			"-0.003": 10.7467042565,
			"-0.002": 13.4066943876,
			"-0.001": 21.3292337155,
			"0.0": 16.2143475684,
			"0.001": 9.89371946359,
			"0.002": 9.19678025638,
			"0.003": 10.7939560906,
			"0.004": 7.92692290979,
			"0.005": 5.43843076846,
			"0.006": 5.678012956,
			"0.007": 6.48601793896,
			"0.008": 6.97225218302,
			"0.009": 10.3885571335,
			"0.01": 15.446426978,
			"0.011": 10.7462034524,
			"0.012": 2.10535305772,
			"0.013": 0.167262963248,
			"0.014": 0.0,
			"0.015": 0.0,
			"0.016": 0.0,
			"0.017": 0.0,
			"0.018": 0.0,
			"0.019": 0.0,
			"0.02": 0.0,
			"0.021": 0.0,
			"0.022": 0.0,
			"0.023": 0.0,
			"0.024": 0.0,
			"0.025": 0.0
		}
	}
}
