{
	 "smiles": "FC1=C(Cl)C=CC(=C1)N1CCC(Br)C1=O", 
	 "Tm": 368.15, 
	 "num_atms": 23, 
	 "gaussian": { 
		 "optdone": 1, 
		 "sigma_profile": "yes", 
		 "theory": "DFT", 
		 "functional": "B3LYP", 
		 "basiset": "6-31G**", 
		 "properties": { 
			 "R2extent": 7183.3344, 
			 "electric_dipole_moment_norm": 5.65737142055, 
			 "electric_quadrupole_moment_norm": 7.17782827462, 
			 "total_energy": -3647.30651889, 
			 "HOMO_LUMO_gap": 0.17604, 
			 "cosmo_polarized_energy": -12.52, 
			 "cosmo_cavitation_energy": 31.07, 
			 "cosmo_dispersion_energy": -23.19, 
			 "cosmo_repulsion_energy": 1.78, 
			 "cosmo_total_nonelectrostatic_energy": 9.67, 
			 "SMD_solvation_energy": 4.17 
		},
		"coords": [
			{
				"x": -3.6209356472,
				"y": 1.4124323161,
				"z": -0.9945126926,
				"element": "F" 
			},
			{
				"x": -2.4597459378,
				"y": 0.7611521099,
				"z": -1.1541329043,
				"element": "C" 
			},
			{
				"x": -1.9457640402,
				"y": 0.5794732512,
				"z": -2.4394507459,
				"element": "C" 
			},
			{
				"x": -2.8084192589,
				"y": 1.1931878668,
				"z": -3.8263479918,
				"element": "Cl" 
			},
			{
				"x": -0.7391681365,
				"y": -0.1003943393,
				"z": -2.5825318629,
				"element": "C" 
			},
			{
				"x": -0.0616902273,
				"y": -0.5833182194,
				"z": -1.4654253812,
				"element": "C" 
			},
			{
				"x": -0.5841827379,
				"y": -0.3908949359,
				"z": -0.1740228154,
				"element": "C" 
			},
			{
				"x": -1.8033508035,
				"y": 0.2923079316,
				"z": -0.0264583337,
				"element": "C" 
			},
			{
				"x": 0.1260551175,
				"y": -0.8771755157,
				"z": 0.9457944592,
				"element": "N" 
			},
			{
				"x": 1.4745355243,
				"y": -1.4468729271,
				"z": 0.8150990645,
				"element": "C" 
			},
			{
				"x": 1.9700584396,
				"y": -1.531072843,
				"z": 2.2665664266,
				"element": "C" 
			},
			{
				"x": 0.6895410133,
				"y": -1.7228305424,
				"z": 3.0616023019,
				"element": "C" 
			},
			{
				"x": 0.1771914551,
				"y": -3.6482135375,
				"z": 3.1558522191,
				"element": "Br" 
			},
			{
				"x": -0.3746339706,
				"y": -0.9982364438,
				"z": 2.2362741621,
				"element": "C" 
			},
			{
				"x": -1.4463535181,
				"y": -0.603130551,
				"z": 2.6552728671,
				"element": "O" 
			},
			{
				"x": -0.3313418377,
				"y": -0.2551656718,
				"z": -3.575227265,
				"element": "H" 
			},
			{
				"x": 0.8655992264,
				"y": -1.1210229468,
				"z": -1.6165953067,
				"element": "H" 
			},
			{
				"x": -2.2420019147,
				"y": 0.4479318674,
				"z": 0.9481749291,
				"element": "H" 
			},
			{
				"x": 1.4311796122,
				"y": -2.4374607853,
				"z": 0.3456025414,
				"element": "H" 
			},
			{
				"x": 2.1052364685,
				"y": -0.7978839545,
				"z": 0.2022447848,
				"element": "H" 
			},
			{
				"x": 2.7087835394,
				"y": -2.3182601577,
				"z": 2.4198850305,
				"element": "H" 
			},
			{
				"x": 2.4180626361,
				"y": -0.5740911774,
				"z": 2.5605353471,
				"element": "H" 
			},
			{
				"x": 0.701644998,
				"y": -1.3849607944,
				"z": 4.0944011661,
				"element": "H" 
			}
		],
		 "valence_orbital": [ 
			{
				"type": "occ",
				"energy": -0.2956,
				"method": "rhf"
			},
			{
				"type": "occ",
				"energy": -0.28954,
				"method": "rhf"
			},
			{
				"type": "occ",
				"energy": -0.26884,
				"method": "rhf"
			},
			{
				"type": "occ",
				"energy": -0.26283,
				"method": "rhf"
			},
			{
				"type": "occ",
				"energy": -0.23174,
				"method": "rhf"
			},
			{
				"type": "unocc",
				"energy": -0.0557,
				"method": "rhf"
			},
			{
				"type": "unocc",
				"energy": -0.01996,
				"method": "rhf"
			},
			{
				"type": "unocc",
				"energy": -0.00765,
				"method": "rhf"
			},
			{
				"type": "unocc",
				"energy": 0.02286,
				"method": "rhf"
			},
			{
				"type": "unocc",
				"energy": 0.04043,
				"method": "rhf"
			}
		],
		"cosmo_sigma_profile": { 
			"-0.025": 0.0,
			"-0.024": 0.0,
			"-0.023": 0.0,
			"-0.022": 0.0,
			"-0.021": 0.0,
			"-0.02": 0.0,
			"-0.019": 0.0,
			"-0.018": 0.0,
			"-0.017": 0.0,
			"-0.016": 0.0,
			"-0.015": 0.0,
			"-0.014": 0.0,
			"-0.013": 0.0,
			"-0.012": 0.0,
			"-0.011": 0.0,
			"-0.01": 0.0338479617326,
			"-0.009": 1.95064708812,
			"-0.008": 7.94466046193,
			"-0.007": 12.4185416663,
			"-0.006": 16.5229948935,
			"-0.005": 14.664756328,
			"-0.004": 13.0457904246,
			"-0.003": 13.9137890307,
			"-0.002": 11.5631989242,
			"-0.001": 15.0959859587,
			"0.0": 19.9173067224,
			"0.001": 23.5557450596,
			"0.002": 23.2994911132,
			"0.003": 21.9942597681,
			"0.004": 25.3141376306,
			"0.005": 16.3604678183,
			"0.006": 3.5641778172,
			"0.007": 1.51866102435,
			"0.008": 1.45640742045,
			"0.009": 2.04667397191,
			"0.01": 2.11535903143,
			"0.011": 2.4085134615,
			"0.012": 2.60550016848,
			"0.013": 0.834673715678,
			"0.014": 0.0,
			"0.015": 0.0,
			"0.016": 0.0,
			"0.017": 0.0,
			"0.018": 0.0,
			"0.019": 0.0,
			"0.02": 0.0,
			"0.021": 0.0,
			"0.022": 0.0,
			"0.023": 0.0,
			"0.024": 0.0,
			"0.025": 0.0
		}
	}
}
