{
	 "smiles": "CC(F)(F)C(O)=O", 
	 "Tm": 316.15, 
	 "num_atms": 11, 
	 "gaussian": { 
		 "optdone": 1, 
		 "sigma_profile": "yes", 
		 "theory": "DFT", 
		 "functional": "B3LYP", 
		 "basiset": "6-31G**", 
		 "properties": { 
			 "R2extent": 788.842, 
			 "electric_dipole_moment_norm": 2.6822574224, 
			 "electric_quadrupole_moment_norm": 8.65062468091, 
			 "total_energy": -466.864322097, 
			 "HOMO_LUMO_gap": 0.27228, 
			 "cosmo_polarized_energy": -9.51, 
			 "cosmo_cavitation_energy": 16.32, 
			 "cosmo_dispersion_energy": -11.62, 
			 "cosmo_repulsion_energy": 0.98, 
			 "cosmo_total_nonelectrostatic_energy": 5.68, 
			 "SMD_solvation_energy": 5.29 
		},
		"coords": [
			{
				"x": 0.8732981722,
				"y": 0.1278490493,
				"z": -0.4649977725,
				"element": "C" 
			},
			{
				"x": -0.3019752893,
				"y": 0.5447114263,
				"z": 0.3935030721,
				"element": "C" 
			},
			{
				"x": 0.1107102719,
				"y": 0.7836746569,
				"z": 1.6670538948,
				"element": "F" 
			},
			{
				"x": -0.8398977058,
				"y": 1.7089052636,
				"z": -0.093236321,
				"element": "F" 
			},
			{
				"x": -1.4287482418,
				"y": -0.5069168549,
				"z": 0.4575362235,
				"element": "C" 
			},
			{
				"x": -2.0548419334,
				"y": -0.6006733335,
				"z": -0.7317591755,
				"element": "O" 
			},
			{
				"x": -1.6900077012,
				"y": -1.1738140378,
				"z": 1.4261503562,
				"element": "O" 
			},
			{
				"x": 1.3233481247,
				"y": -0.7849539565,
				"z": -0.0671775953,
				"element": "H" 
			},
			{
				"x": 0.5459044661,
				"y": -0.0449070678,
				"z": -1.491643298,
				"element": "H" 
			},
			{
				"x": 1.6155182573,
				"y": 0.9296152866,
				"z": -0.4484371616,
				"element": "H" 
			},
			{
				"x": -2.7401084207,
				"y": -1.2834904324,
				"z": -0.6326922228,
				"element": "H" 
			}
		],
		 "valence_orbital": [ 
			{
				"type": "occ",
				"energy": -0.40256,
				"method": "rhf"
			},
			{
				"type": "occ",
				"energy": -0.38939,
				"method": "rhf"
			},
			{
				"type": "occ",
				"energy": -0.35764,
				"method": "rhf"
			},
			{
				"type": "occ",
				"energy": -0.33968,
				"method": "rhf"
			},
			{
				"type": "occ",
				"energy": -0.29162,
				"method": "rhf"
			},
			{
				"type": "unocc",
				"energy": -0.01934,
				"method": "rhf"
			},
			{
				"type": "unocc",
				"energy": 0.05962,
				"method": "rhf"
			},
			{
				"type": "unocc",
				"energy": 0.11074,
				"method": "rhf"
			},
			{
				"type": "unocc",
				"energy": 0.11838,
				"method": "rhf"
			},
			{
				"type": "unocc",
				"energy": 0.14225,
				"method": "rhf"
			}
		],
		"cosmo_sigma_profile": { 
			"-0.025": 0.0,
			"-0.024": 0.0,
			"-0.023": 0.0,
			"-0.022": 0.0,
			"-0.021": 0.0,
			"-0.02": 0.100588743048,
			"-0.019": 1.13142219608,
			"-0.018": 0.760309528985,
			"-0.017": 1.04477904235,
			"-0.016": 0.978087078641,
			"-0.015": 0.466833610105,
			"-0.014": 0.40107857133,
			"-0.013": 1.0321757273,
			"-0.012": 1.2379935464,
			"-0.011": 0.611608110131,
			"-0.01": 0.360575878119,
			"-0.009": 0.988107062099,
			"-0.008": 1.33639051712,
			"-0.007": 4.30177008584,
			"-0.006": 6.17920291537,
			"-0.005": 7.10430256674,
			"-0.004": 8.71257141438,
			"-0.003": 9.14121821225,
			"-0.002": 8.45491434753,
			"-0.001": 5.83382070479,
			"0.0": 4.65785117549,
			"0.001": 4.05838267619,
			"0.002": 5.12338202756,
			"0.003": 9.4907335557,
			"0.004": 18.4897533026,
			"0.005": 6.12365766058,
			"0.006": 3.46194429427,
			"0.007": 3.4488104337,
			"0.008": 2.88126828174,
			"0.009": 2.91143818468,
			"0.01": 5.09484387281,
			"0.011": 3.0371823667,
			"0.012": 0.180017625364,
			"0.013": 0.0,
			"0.014": 0.0,
			"0.015": 0.0,
			"0.016": 0.0,
			"0.017": 0.0,
			"0.018": 0.0,
			"0.019": 0.0,
			"0.02": 0.0,
			"0.021": 0.0,
			"0.022": 0.0,
			"0.023": 0.0,
			"0.024": 0.0,
			"0.025": 0.0
		}
	}
}
