{
	 "smiles": "ClS(=O)(=O)C1=CN(CC2=CC=CC=C2)N=C1", 
	 "Tm": 331.15, 
	 "num_atms": 25, 
	 "gaussian": { 
		 "optdone": 1, 
		 "sigma_profile": "yes", 
		 "theory": "DFT", 
		 "functional": "B3LYP", 
		 "basiset": "6-31G**", 
		 "properties": { 
			 "R2extent": 6363.461, 
			 "electric_dipole_moment_norm": 6.33774659165, 
			 "electric_quadrupole_moment_norm": 19.6013005395, 
			 "total_energy": -1504.72481096, 
			 "HOMO_LUMO_gap": 0.18285, 
			 "cosmo_polarized_energy": -13.74, 
			 "cosmo_cavitation_energy": 33.77, 
			 "cosmo_dispersion_energy": -24.33, 
			 "cosmo_repulsion_energy": 1.87, 
			 "cosmo_total_nonelectrostatic_energy": 11.3, 
			 "SMD_solvation_energy": 3.83 
		},
		"coords": [
			{
				"x": 1.5211896758,
				"y": -3.0956590537,
				"z": -3.5141849144,
				"element": "Cl" 
			},
			{
				"x": 2.3087205517,
				"y": -2.5536765097,
				"z": -1.6011111189,
				"element": "S" 
			},
			{
				"x": 2.0607540588,
				"y": -3.6982524195,
				"z": -0.7331357893,
				"element": "O" 
			},
			{
				"x": 3.6435559805,
				"y": -2.0308627314,
				"z": -1.8582413069,
				"element": "O" 
			},
			{
				"x": 1.2617325425,
				"y": -1.2430277069,
				"z": -1.1287005631,
				"element": "C" 
			},
			{
				"x": 0.1037615202,
				"y": -1.3589476508,
				"z": -0.3721582223,
				"element": "C" 
			},
			{
				"x": -0.3813973579,
				"y": -0.1078323035,
				"z": -0.2559099497,
				"element": "N" 
			},
			{
				"x": -1.5426105072,
				"y": 0.3376532143,
				"z": 0.5231824177,
				"element": "C" 
			},
			{
				"x": -1.2347833724,
				"y": 0.5520507496,
				"z": 1.9922663278,
				"element": "C" 
			},
			{
				"x": -1.9106364833,
				"y": -0.1851591107,
				"z": 2.9694968612,
				"element": "C" 
			},
			{
				"x": -1.6399168599,
				"y": 0.0196631707,
				"z": 4.324500378,
				"element": "C" 
			},
			{
				"x": -0.6854815339,
				"y": 0.9607859436,
				"z": 4.709464578,
				"element": "C" 
			},
			{
				"x": -0.0047708242,
				"y": 1.6989868749,
				"z": 3.7368846232,
				"element": "C" 
			},
			{
				"x": -0.2790355041,
				"y": 1.4991159604,
				"z": 2.3852310239,
				"element": "C" 
			},
			{
				"x": 0.3932485006,
				"y": 0.8181425634,
				"z": -0.8831698001,
				"element": "N" 
			},
			{
				"x": 1.3924903345,
				"y": 0.1340160128,
				"z": -1.4236264703,
				"element": "C" 
			},
			{
				"x": -0.3670248935,
				"y": -2.2219202489,
				"z": 0.0736809772,
				"element": "H" 
			},
			{
				"x": -2.332630956,
				"y": -0.4076837715,
				"z": 0.3992455964,
				"element": "H" 
			},
			{
				"x": -1.8708863069,
				"y": 1.2629731796,
				"z": 0.0437803789,
				"element": "H" 
			},
			{
				"x": -2.654863279,
				"y": -0.920630157,
				"z": 2.6728843862,
				"element": "H" 
			},
			{
				"x": -2.1716293787,
				"y": -0.5580374244,
				"z": 5.0747940829,
				"element": "H" 
			},
			{
				"x": -0.4713330809,
				"y": 1.1199724671,
				"z": 5.7621967695,
				"element": "H" 
			},
			{
				"x": 0.7387374102,
				"y": 2.4331850634,
				"z": 4.0329532639,
				"element": "H" 
			},
			{
				"x": 0.2514549857,
				"y": 2.0692824054,
				"z": 1.6277703484,
				"element": "H" 
			},
			{
				"x": 2.1649547774,
				"y": 0.6281614829,
				"z": -1.9949938779,
				"element": "H" 
			}
		],
		 "valence_orbital": [ 
			{
				"type": "occ",
				"energy": -0.30874,
				"method": "rhf"
			},
			{
				"type": "occ",
				"energy": -0.29239,
				"method": "rhf"
			},
			{
				"type": "occ",
				"energy": -0.28664,
				"method": "rhf"
			},
			{
				"type": "occ",
				"energy": -0.26824,
				"method": "rhf"
			},
			{
				"type": "occ",
				"energy": -0.26465,
				"method": "rhf"
			},
			{
				"type": "unocc",
				"energy": -0.0818,
				"method": "rhf"
			},
			{
				"type": "unocc",
				"energy": -0.03014,
				"method": "rhf"
			},
			{
				"type": "unocc",
				"energy": -0.02099,
				"method": "rhf"
			},
			{
				"type": "unocc",
				"energy": -0.01529,
				"method": "rhf"
			},
			{
				"type": "unocc",
				"energy": 0.00477,
				"method": "rhf"
			}
		],
		"cosmo_sigma_profile": { 
			"-0.025": 0.0,
			"-0.024": 0.0,
			"-0.023": 0.0,
			"-0.022": 0.0,
			"-0.021": 0.0,
			"-0.02": 0.0,
			"-0.019": 0.0,
			"-0.018": 0.0,
			"-0.017": 0.0,
			"-0.016": 0.0,
			"-0.015": 0.0,
			"-0.014": 0.0,
			"-0.013": 0.0,
			"-0.012": 1.05650398044,
			"-0.011": 2.30747610714,
			"-0.01": 2.6397112139,
			"-0.009": 4.3035952863,
			"-0.008": 6.17347450446,
			"-0.007": 7.80870768303,
			"-0.006": 12.845141029,
			"-0.005": 18.1390239913,
			"-0.004": 18.9403880872,
			"-0.003": 16.0710784784,
			"-0.002": 16.662030617,
			"-0.001": 19.3789307235,
			"0.0": 19.4902640381,
			"0.001": 18.1078101561,
			"0.002": 17.4446112606,
			"0.003": 21.3886215336,
			"0.004": 23.0970916238,
			"0.005": 13.8928502941,
			"0.006": 6.3403493833,
			"0.007": 6.46568811264,
			"0.008": 11.5593954149,
			"0.009": 6.61904573932,
			"0.01": 1.29295650598,
			"0.011": 0.537722271439,
			"0.012": 0.897265708417,
			"0.013": 0.377812969862,
			"0.014": 0.0640155733146,
			"0.015": 0.0,
			"0.016": 0.0,
			"0.017": 0.0,
			"0.018": 0.0,
			"0.019": 0.0,
			"0.02": 0.0,
			"0.021": 0.0,
			"0.022": 0.0,
			"0.023": 0.0,
			"0.024": 0.0,
			"0.025": 0.0
		}
	}
}
