{
	 "smiles": "ClCCOC1=CC2=C(NC(=O)CC2)C=C1", 
	 "Tm": 424.15, 
	 "num_atms": 27, 
	 "gaussian": { 
		 "optdone": 1, 
		 "sigma_profile": "yes", 
		 "theory": "DFT", 
		 "functional": "B3LYP", 
		 "basiset": "6-31G**", 
		 "properties": { 
			 "R2extent": 5338.7759, 
			 "electric_dipole_moment_norm": 2.15561368292, 
			 "electric_quadrupole_moment_norm": 21.6585051629, 
			 "total_energy": -1091.8165233, 
			 "HOMO_LUMO_gap": 0.18864, 
			 "cosmo_polarized_energy": -14.71, 
			 "cosmo_cavitation_energy": 31.97, 
			 "cosmo_dispersion_energy": -23.62, 
			 "cosmo_repulsion_energy": 1.88, 
			 "cosmo_total_nonelectrostatic_energy": 10.23, 
			 "SMD_solvation_energy": 5.4 
		},
		"coords": [
			{
				"x": 1.1577751738,
				"y": -0.4973845712,
				"z": -5.1665868446,
				"element": "Cl" 
			},
			{
				"x": 0.2401124666,
				"y": -0.9905949862,
				"z": -3.6846059479,
				"element": "C" 
			},
			{
				"x": 1.0817290599,
				"y": -1.9495545835,
				"z": -2.8436258315,
				"element": "C" 
			},
			{
				"x": 0.3607543066,
				"y": -2.3631735543,
				"z": -1.6908777228,
				"element": "O" 
			},
			{
				"x": 0.3421686132,
				"y": -1.5655508071,
				"z": -0.5709065157,
				"element": "C" 
			},
			{
				"x": 0.9907815552,
				"y": -0.3318839623,
				"z": -0.4460918302,
				"element": "C" 
			},
			{
				"x": 0.9227461355,
				"y": 0.3907825298,
				"z": 0.7490167808,
				"element": "C" 
			},
			{
				"x": 0.1760541043,
				"y": -0.1182818653,
				"z": 1.8218880802,
				"element": "C" 
			},
			{
				"x": 0.1065524482,
				"y": 0.6179040997,
				"z": 3.0207358605,
				"element": "N" 
			},
			{
				"x": 0.4052731572,
				"y": 1.9584616212,
				"z": 3.1589948318,
				"element": "C" 
			},
			{
				"x": 0.2793303001,
				"y": 2.5353244802,
				"z": 4.2276148835,
				"element": "O" 
			},
			{
				"x": 0.8558515239,
				"y": 2.6362656775,
				"z": 1.8716809603,
				"element": "C" 
			},
			{
				"x": 1.6556905146,
				"y": 1.6965173196,
				"z": 0.9570774691,
				"element": "C" 
			},
			{
				"x": -0.4771799812,
				"y": -1.3498671578,
				"z": 1.6944144381,
				"element": "C" 
			},
			{
				"x": -0.3902078708,
				"y": -2.0711676904,
				"z": 0.5101001697,
				"element": "C" 
			},
			{
				"x": -0.6803946028,
				"y": -1.4723653201,
				"z": -4.0153584952,
				"element": "H" 
			},
			{
				"x": -0.0062659776,
				"y": -0.0790141991,
				"z": -3.1397744401,
				"element": "H" 
			},
			{
				"x": 1.2811287193,
				"y": -2.8612159388,
				"z": -3.4119449076,
				"element": "H" 
			},
			{
				"x": 2.045303795,
				"y": -1.4992941043,
				"z": -2.5803176133,
				"element": "H" 
			},
			{
				"x": 1.5661267738,
				"y": 0.0861984553,
				"z": -1.2651333337,
				"element": "H" 
			},
			{
				"x": -0.2752475158,
				"y": 0.1786937954,
				"z": 3.8484917616,
				"element": "H" 
			},
			{
				"x": -0.0510169196,
				"y": 2.9787262661,
				"z": 1.3544532869,
				"element": "H" 
			},
			{
				"x": 1.4256951471,
				"y": 3.5247066431,
				"z": 2.1505879506,
				"element": "H" 
			},
			{
				"x": 1.8636301304,
				"y": 2.1820268756,
				"z": -0.0017305053,
				"element": "H" 
			},
			{
				"x": 2.6320143074,
				"y": 1.4912098883,
				"z": 1.4201585666,
				"element": "H" 
			},
			{
				"x": -1.057486263,
				"y": -1.7429746911,
				"z": 2.5250335548,
				"element": "H" 
			},
			{
				"x": -0.8888191013,
				"y": -3.02809422,
				"z": 0.4000053935,
				"element": "H" 
			}
		],
		 "valence_orbital": [ 
			{
				"type": "occ",
				"energy": -0.30681,
				"method": "rhf"
			},
			{
				"type": "occ",
				"energy": -0.28569,
				"method": "rhf"
			},
			{
				"type": "occ",
				"energy": -0.26016,
				"method": "rhf"
			},
			{
				"type": "occ",
				"energy": -0.2523,
				"method": "rhf"
			},
			{
				"type": "occ",
				"energy": -0.2075,
				"method": "rhf"
			},
			{
				"type": "unocc",
				"energy": -0.01886,
				"method": "rhf"
			},
			{
				"type": "unocc",
				"energy": -0.00844,
				"method": "rhf"
			},
			{
				"type": "unocc",
				"energy": 0.01455,
				"method": "rhf"
			},
			{
				"type": "unocc",
				"energy": 0.03752,
				"method": "rhf"
			},
			{
				"type": "unocc",
				"energy": 0.07687,
				"method": "rhf"
			}
		],
		"cosmo_sigma_profile": { 
			"-0.025": 0.0,
			"-0.024": 0.0,
			"-0.023": 0.0,
			"-0.022": 0.0,
			"-0.021": 0.0,
			"-0.02": 0.0,
			"-0.019": 0.0,
			"-0.018": 0.0,
			"-0.017": 0.0,
			"-0.016": 0.0,
			"-0.015": 0.209591352432,
			"-0.014": 1.01299102887,
			"-0.013": 1.31796384284,
			"-0.012": 1.15169573584,
			"-0.011": 0.967645837009,
			"-0.01": 1.31566136506,
			"-0.009": 1.2937717807,
			"-0.008": 3.54491406019,
			"-0.007": 8.99728707383,
			"-0.006": 15.3916408349,
			"-0.005": 21.9015160649,
			"-0.004": 23.0220204017,
			"-0.003": 21.0929070858,
			"-0.002": 17.4281043634,
			"-0.001": 14.1828837897,
			"0.0": 11.9684763369,
			"0.001": 12.1634730142,
			"0.002": 13.5236526331,
			"0.003": 14.2891797107,
			"0.004": 16.8708480524,
			"0.005": 16.9377070637,
			"0.006": 11.8502182118,
			"0.007": 3.57514496211,
			"0.008": 2.64205644131,
			"0.009": 2.82729411914,
			"0.01": 1.98194026306,
			"0.011": 1.65573426982,
			"0.012": 1.92520030069,
			"0.013": 5.2508279924,
			"0.014": 4.28041765105,
			"0.015": 0.710220830619,
			"0.016": 0.0,
			"0.017": 0.0,
			"0.018": 0.0,
			"0.019": 0.0,
			"0.02": 0.0,
			"0.021": 0.0,
			"0.022": 0.0,
			"0.023": 0.0,
			"0.024": 0.0,
			"0.025": 0.0
		}
	}
}
