{
	 "smiles": "O=C(NCCN=CC1=NC=CC=C1)C(=O)NCC1=NC=CC=C1", 
	 "Tm": 398.15, 
	 "num_atms": 40, 
	 "gaussian": { 
		 "optdone": 1, 
		 "sigma_profile": "yes", 
		 "theory": "DFT", 
		 "functional": "B3LYP", 
		 "basiset": "6-31G**", 
		 "properties": { 
			 "R2extent": 8312.6071, 
			 "electric_dipole_moment_norm": 9.6307155378, 
			 "electric_quadrupole_moment_norm": 46.4314685774, 
			 "total_energy": -1044.15011288, 
			 "HOMO_LUMO_gap": 0.15083, 
			 "cosmo_polarized_energy": -29.47, 
			 "cosmo_cavitation_energy": 45.18, 
			 "cosmo_dispersion_energy": -29.43, 
			 "cosmo_repulsion_energy": 2.27, 
			 "cosmo_total_nonelectrostatic_energy": 18.03, 
			 "SMD_solvation_energy": 5.87 
		},
		"coords": [
			{
				"x": -0.052353925,
				"y": -0.7594571476,
				"z": -3.5518166569,
				"element": "O" 
			},
			{
				"x": 0.2269697245,
				"y": 0.1773240839,
				"z": -2.8161706664,
				"element": "C" 
			},
			{
				"x": 1.2073711421,
				"y": 0.1673111817,
				"z": -1.8676554319,
				"element": "N" 
			},
			{
				"x": 1.8763885065,
				"y": -1.0696597181,
				"z": -1.5104872682,
				"element": "C" 
			},
			{
				"x": 1.4654894032,
				"y": -1.5967362955,
				"z": -0.1204076711,
				"element": "C" 
			},
			{
				"x": 0.0256184081,
				"y": -1.7194093065,
				"z": -0.0114842463,
				"element": "N" 
			},
			{
				"x": -0.4739531636,
				"y": -2.8642460782,
				"z": 0.2228740813,
				"element": "C" 
			},
			{
				"x": -1.9311015976,
				"y": -3.107183118,
				"z": 0.3358989083,
				"element": "C" 
			},
			{
				"x": -2.7724228085,
				"y": -2.059186425,
				"z": 0.2510826537,
				"element": "N" 
			},
			{
				"x": -4.0786538453,
				"y": -2.3067603434,
				"z": 0.343311486,
				"element": "C" 
			},
			{
				"x": -4.623291826,
				"y": -3.5832038142,
				"z": 0.5258666098,
				"element": "C" 
			},
			{
				"x": -3.7501831094,
				"y": -4.6634468575,
				"z": 0.61926555,
				"element": "C" 
			},
			{
				"x": -2.3808962661,
				"y": -4.421637095,
				"z": 0.5240355225,
				"element": "C" 
			},
			{
				"x": -0.4823467716,
				"y": 1.5360918707,
				"z": -2.9831378765,
				"element": "C" 
			},
			{
				"x": -0.3430071869,
				"y": 2.1828927593,
				"z": -4.0102750755,
				"element": "O" 
			},
			{
				"x": -1.2930739434,
				"y": 1.9538571785,
				"z": -1.9618202619,
				"element": "N" 
			},
			{
				"x": -1.5383506095,
				"y": 1.325609686,
				"z": -0.6723678441,
				"element": "C" 
			},
			{
				"x": -0.8049502385,
				"y": 2.0155092587,
				"z": 0.4687845235,
				"element": "C" 
			},
			{
				"x": 0.5288702979,
				"y": 2.1412549322,
				"z": 0.3433770751,
				"element": "N" 
			},
			{
				"x": 1.2092680369,
				"y": 2.7436918717,
				"z": 1.3249723865,
				"element": "C" 
			},
			{
				"x": 0.6100174422,
				"y": 3.248128847,
				"z": 2.4794313982,
				"element": "C" 
			},
			{
				"x": -0.770234732,
				"y": 3.1128410725,
				"z": 2.6140998497,
				"element": "C" 
			},
			{
				"x": -1.4872500197,
				"y": 2.4901023492,
				"z": 1.5933400335,
				"element": "C" 
			},
			{
				"x": 1.2254564288,
				"y": 0.9409193598,
				"z": -1.2003489446,
				"element": "H" 
			},
			{
				"x": 2.964986719,
				"y": -0.9320024075,
				"z": -1.520272117,
				"element": "H" 
			},
			{
				"x": 1.6174953226,
				"y": -1.7986342347,
				"z": -2.2816428055,
				"element": "H" 
			},
			{
				"x": 1.7910487694,
				"y": -0.8753718587,
				"z": 0.6412638921,
				"element": "H" 
			},
			{
				"x": 1.997677522,
				"y": -2.5455370526,
				"z": 0.0688979285,
				"element": "H" 
			},
			{
				"x": 0.1562662225,
				"y": -3.7600972849,
				"z": 0.3519662515,
				"element": "H" 
			},
			{
				"x": -4.7356948623,
				"y": -1.4414714339,
				"z": 0.2677967303,
				"element": "H" 
			},
			{
				"x": -5.698400717,
				"y": -3.7163724471,
				"z": 0.5915102607,
				"element": "H" 
			},
			{
				"x": -4.1247033784,
				"y": -5.6729191958,
				"z": 0.7611918343,
				"element": "H" 
			},
			{
				"x": -1.665183361,
				"y": -5.2361098781,
				"z": 0.5884676015,
				"element": "H" 
			},
			{
				"x": -1.7094708869,
				"y": 2.8607736672,
				"z": -2.1369189156,
				"element": "H" 
			},
			{
				"x": -1.2387175119,
				"y": 0.2727006209,
				"z": -0.7018819767,
				"element": "H" 
			},
			{
				"x": -2.6142089251,
				"y": 1.3333282326,
				"z": -0.4683291451,
				"element": "H" 
			},
			{
				"x": 2.2848414562,
				"y": 2.8270000428,
				"z": 1.1807738603,
				"element": "H" 
			},
			{
				"x": 1.2106931855,
				"y": 3.7306762604,
				"z": 3.2434126247,
				"element": "H" 
			},
			{
				"x": -1.2814119577,
				"y": 3.4905570818,
				"z": 3.4950293859,
				"element": "H" 
			},
			{
				"x": -2.5642969438,
				"y": 2.3714716353,
				"z": 1.6616664554,
				"element": "H" 
			}
		],
		 "valence_orbital": [ 
			{
				"type": "occ",
				"energy": -0.2598,
				"method": "rhf"
			},
			{
				"type": "occ",
				"energy": -0.25791,
				"method": "rhf"
			},
			{
				"type": "occ",
				"energy": -0.24132,
				"method": "rhf"
			},
			{
				"type": "occ",
				"energy": -0.23181,
				"method": "rhf"
			},
			{
				"type": "occ",
				"energy": -0.21312,
				"method": "rhf"
			},
			{
				"type": "unocc",
				"energy": -0.06229,
				"method": "rhf"
			},
			{
				"type": "unocc",
				"energy": -0.04012,
				"method": "rhf"
			},
			{
				"type": "unocc",
				"energy": -0.02849,
				"method": "rhf"
			},
			{
				"type": "unocc",
				"energy": -0.02292,
				"method": "rhf"
			},
			{
				"type": "unocc",
				"energy": 0.0213,
				"method": "rhf"
			}
		],
		"cosmo_sigma_profile": { 
			"-0.025": 0.0,
			"-0.024": 0.0,
			"-0.023": 0.0,
			"-0.022": 0.0,
			"-0.021": 0.0,
			"-0.02": 0.0,
			"-0.019": 0.0,
			"-0.018": 0.0,
			"-0.017": 0.0,
			"-0.016": 0.0,
			"-0.015": 0.054697140407,
			"-0.014": 0.890565387274,
			"-0.013": 1.08581422012,
			"-0.012": 1.46965589579,
			"-0.011": 0.63566988095,
			"-0.01": 1.33591317687,
			"-0.009": 1.29632154884,
			"-0.008": 3.38629805969,
			"-0.007": 20.4963431346,
			"-0.006": 26.8627880129,
			"-0.005": 31.3025048123,
			"-0.004": 27.594203244,
			"-0.003": 24.4692063646,
			"-0.002": 21.9336765321,
			"-0.001": 21.22360158,
			"0.0": 21.8456150893,
			"0.001": 28.7052645574,
			"0.002": 35.4105334579,
			"0.003": 14.8381275924,
			"0.004": 10.0340793833,
			"0.005": 7.25673351754,
			"0.006": 7.1810636241,
			"0.007": 6.87772262159,
			"0.008": 5.90237574512,
			"0.009": 4.38799142149,
			"0.01": 5.75595542334,
			"0.011": 4.3739008676,
			"0.012": 7.41570209145,
			"0.013": 12.6381817815,
			"0.014": 4.22982555058,
			"0.015": 0.128655959139,
			"0.016": 0.0,
			"0.017": 0.0,
			"0.018": 0.0,
			"0.019": 0.0,
			"0.02": 0.0,
			"0.021": 0.0,
			"0.022": 0.0,
			"0.023": 0.0,
			"0.024": 0.0,
			"0.025": 0.0
		}
	}
}
