{
	 "smiles": "OS(=O)(=O)CCS(O)(=O)=O", 
	 "Tm": 446.15, 
	 "num_atms": 16, 
	 "gaussian": { 
		 "optdone": 1, 
		 "sigma_profile": "yes", 
		 "theory": "DFT", 
		 "functional": "B3LYP", 
		 "basiset": "6-31G**", 
		 "properties": { 
			 "R2extent": 2373.5888, 
			 "electric_dipole_moment_norm": 6.15351325179, 
			 "electric_quadrupole_moment_norm": 13.7063746979, 
			 "total_energy": -1327.40998315, 
			 "HOMO_LUMO_gap": 0.31479, 
			 "cosmo_polarized_energy": -24.65, 
			 "cosmo_cavitation_energy": 22.39, 
			 "cosmo_dispersion_energy": -18.12, 
			 "cosmo_repulsion_energy": 1.37, 
			 "cosmo_total_nonelectrostatic_energy": 5.64, 
			 "SMD_solvation_energy": 1.83 
		},
		"coords": [
			{
				"x": 1.9409353089,
				"y": 0.1052858613,
				"z": -0.665766986,
				"element": "O" 
			},
			{
				"x": 0.5818408012,
				"y": -0.7876432701,
				"z": -0.7616244898,
				"element": "S" 
			},
			{
				"x": 0.9017955234,
				"y": -2.0863927037,
				"z": -0.194451964,
				"element": "O" 
			},
			{
				"x": 0.0166779707,
				"y": -0.6377412223,
				"z": -2.0975017449,
				"element": "O" 
			},
			{
				"x": -0.5336108401,
				"y": 0.0705506271,
				"z": 0.4183391661,
				"element": "C" 
			},
			{
				"x": -0.2327476034,
				"y": 1.5423764644,
				"z": 0.6860673686,
				"element": "C" 
			},
			{
				"x": -0.3827152286,
				"y": 2.6207701024,
				"z": -0.7652389396,
				"element": "S" 
			},
			{
				"x": -0.2433346883,
				"y": 4.0552162864,
				"z": 0.0153738854,
				"element": "O" 
			},
			{
				"x": -1.7150474888,
				"y": 2.5044710606,
				"z": -1.3304370164,
				"element": "O" 
			},
			{
				"x": 0.8173991186,
				"y": 2.4982735956,
				"z": -1.6102777719,
				"element": "O" 
			},
			{
				"x": 1.82734258,
				"y": 0.8807429853,
				"z": -1.2601968912,
				"element": "H" 
			},
			{
				"x": -0.4407074433,
				"y": -0.4776755239,
				"z": 1.3582141425,
				"element": "H" 
			},
			{
				"x": -1.5381290812,
				"y": -0.0715253057,
				"z": 0.0129184452,
				"element": "H" 
			},
			{
				"x": -0.9520240726,
				"y": 1.9384518975,
				"z": 1.4078657011,
				"element": "H" 
			},
			{
				"x": 0.7784664114,
				"y": 1.6882747818,
				"z": 1.0695187269,
				"element": "H" 
			},
			{
				"x": 0.4066587321,
				"y": 4.5854643633,
				"z": -0.4780016319,
				"element": "H" 
			}
		],
		 "valence_orbital": [ 
			{
				"type": "occ",
				"energy": -0.34775,
				"method": "rhf"
			},
			{
				"type": "occ",
				"energy": -0.33772,
				"method": "rhf"
			},
			{
				"type": "occ",
				"energy": -0.32936,
				"method": "rhf"
			},
			{
				"type": "occ",
				"energy": -0.32354,
				"method": "rhf"
			},
			{
				"type": "occ",
				"energy": -0.31431,
				"method": "rhf"
			},
			{
				"type": "unocc",
				"energy": 0.00048,
				"method": "rhf"
			},
			{
				"type": "unocc",
				"energy": 0.01627,
				"method": "rhf"
			},
			{
				"type": "unocc",
				"energy": 0.03651,
				"method": "rhf"
			},
			{
				"type": "unocc",
				"energy": 0.04212,
				"method": "rhf"
			},
			{
				"type": "unocc",
				"energy": 0.05253,
				"method": "rhf"
			}
		],
		"cosmo_sigma_profile": { 
			"-0.025": 0.0,
			"-0.024": 0.0,
			"-0.023": 0.0,
			"-0.022": 0.0,
			"-0.021": 0.374537496068,
			"-0.02": 1.14188615132,
			"-0.019": 1.0485754633,
			"-0.018": 0.921406642546,
			"-0.017": 0.659739271932,
			"-0.016": 0.294131377657,
			"-0.015": 0.507356180054,
			"-0.014": 1.41062288035,
			"-0.013": 1.11960408017,
			"-0.012": 1.44699507809,
			"-0.011": 5.97049415114,
			"-0.01": 11.6049095353,
			"-0.009": 9.96940551965,
			"-0.008": 8.61407491944,
			"-0.007": 7.75283211855,
			"-0.006": 5.99318174778,
			"-0.005": 4.35528054202,
			"-0.004": 3.83045151893,
			"-0.003": 4.49051779954,
			"-0.002": 4.60141283381,
			"-0.001": 4.12208103472,
			"0.0": 4.78758415818,
			"0.001": 4.0234519047,
			"0.002": 4.77620522595,
			"0.003": 4.23368337898,
			"0.004": 6.11225878888,
			"0.005": 8.83730905257,
			"0.006": 9.22861283713,
			"0.007": 9.6595902889,
			"0.008": 12.0177534581,
			"0.009": 17.8219607421,
			"0.01": 13.830791168,
			"0.011": 1.83801863699,
			"0.012": 0.0,
			"0.013": 0.0,
			"0.014": 0.0,
			"0.015": 0.0,
			"0.016": 0.0,
			"0.017": 0.0,
			"0.018": 0.0,
			"0.019": 0.0,
			"0.02": 0.0,
			"0.021": 0.0,
			"0.022": 0.0,
			"0.023": 0.0,
			"0.024": 0.0,
			"0.025": 0.0
		}
	}
}
