{
	 "smiles": "COC(=O)C(=O)CN1C(=O)C2=C(C=CC=C2)C1=O", 
	 "Tm": 408.15, 
	 "num_atms": 27, 
	 "gaussian": { 
		 "optdone": 1, 
		 "sigma_profile": "yes", 
		 "theory": "DFT", 
		 "functional": "B3LYP", 
		 "basiset": "6-31G**", 
		 "properties": { 
			 "R2extent": 4957.1059, 
			 "electric_dipole_moment_norm": 4.29032373837, 
			 "electric_quadrupole_moment_norm": 17.7581909487, 
			 "total_energy": -893.586656869, 
			 "HOMO_LUMO_gap": 0.1655, 
			 "cosmo_polarized_energy": -16.17, 
			 "cosmo_cavitation_energy": 33.4, 
			 "cosmo_dispersion_energy": -22.98, 
			 "cosmo_repulsion_energy": 1.78, 
			 "cosmo_total_nonelectrostatic_energy": 12.2, 
			 "SMD_solvation_energy": 9.02 
		},
		"coords": [
			{
				"x": -1.7058369961,
				"y": 3.796762106,
				"z": -3.2382222056,
				"element": "C" 
			},
			{
				"x": -1.9126415208,
				"y": 2.3811236079,
				"z": -3.3988573292,
				"element": "O" 
			},
			{
				"x": -1.0157039813,
				"y": 1.6024391826,
				"z": -2.7951168854,
				"element": "C" 
			},
			{
				"x": -0.060560774,
				"y": 1.9907614176,
				"z": -2.1543449266,
				"element": "O" 
			},
			{
				"x": -1.3042125871,
				"y": 0.1100401682,
				"z": -3.0467661034,
				"element": "C" 
			},
			{
				"x": -1.9866391117,
				"y": -0.2501507299,
				"z": -3.9765490513,
				"element": "O" 
			},
			{
				"x": -0.5730956666,
				"y": -0.9007877391,
				"z": -2.1622093561,
				"element": "C" 
			},
			{
				"x": -0.4538792894,
				"y": -0.5335097995,
				"z": -0.7681975981,
				"element": "N" 
			},
			{
				"x": -1.4987326829,
				"y": 0.0080284159,
				"z": -0.0110780792,
				"element": "C" 
			},
			{
				"x": -2.6205175742,
				"y": 0.2193173394,
				"z": -0.4341157275,
				"element": "O" 
			},
			{
				"x": -0.9229986697,
				"y": 0.2728396548,
				"z": 1.3384695348,
				"element": "C" 
			},
			{
				"x": 0.4316577382,
				"y": -0.0707403318,
				"z": 1.3101819042,
				"element": "C" 
			},
			{
				"x": 1.2410080084,
				"y": 0.0792759037,
				"z": 2.4264216972,
				"element": "C" 
			},
			{
				"x": 0.6475087477,
				"y": 0.5900581201,
				"z": 3.588795832,
				"element": "C" 
			},
			{
				"x": -0.7097687958,
				"y": 0.9350939478,
				"z": 3.6168159095,
				"element": "C" 
			},
			{
				"x": -1.5190314065,
				"y": 0.7816889052,
				"z": 2.4829861666,
				"element": "C" 
			},
			{
				"x": 0.7590014866,
				"y": -0.5791451609,
				"z": -0.0539285201,
				"element": "C" 
			},
			{
				"x": 1.8164161552,
				"y": -0.9707742066,
				"z": -0.5014422472,
				"element": "O" 
			},
			{
				"x": -2.5267929235,
				"y": 4.2733939187,
				"z": -3.7718809237,
				"element": "H" 
			},
			{
				"x": -0.7437389617,
				"y": 4.0914389525,
				"z": -3.6641994166,
				"element": "H" 
			},
			{
				"x": -1.7243128842,
				"y": 4.0655976637,
				"z": -2.179252336,
				"element": "H" 
			},
			{
				"x": 0.4505888641,
				"y": -1.021537153,
				"z": -2.536049945,
				"element": "H" 
			},
			{
				"x": -1.0971215819,
				"y": -1.8536348722,
				"z": -2.2827100744,
				"element": "H" 
			},
			{
				"x": 2.2920214591,
				"y": -0.18844835,
				"z": 2.3927868933,
				"element": "H" 
			},
			{
				"x": 1.2484645971,
				"y": 0.7222870515,
				"z": 4.4834734057,
				"element": "H" 
			},
			{
				"x": -1.1398318663,
				"y": 1.328781422,
				"z": 4.5328573211,
				"element": "H" 
			},
			{
				"x": -2.5709497829,
				"y": 1.0480005652,
				"z": 2.4930320611,
				"element": "H" 
			}
		],
		 "valence_orbital": [ 
			{
				"type": "occ",
				"energy": -0.29549,
				"method": "rhf"
			},
			{
				"type": "occ",
				"energy": -0.28212,
				"method": "rhf"
			},
			{
				"type": "occ",
				"energy": -0.27898,
				"method": "rhf"
			},
			{
				"type": "occ",
				"energy": -0.27482,
				"method": "rhf"
			},
			{
				"type": "occ",
				"energy": -0.25264,
				"method": "rhf"
			},
			{
				"type": "unocc",
				"energy": -0.08714,
				"method": "rhf"
			},
			{
				"type": "unocc",
				"energy": -0.07406,
				"method": "rhf"
			},
			{
				"type": "unocc",
				"energy": -0.04484,
				"method": "rhf"
			},
			{
				"type": "unocc",
				"energy": 0.02383,
				"method": "rhf"
			},
			{
				"type": "unocc",
				"energy": 0.04794,
				"method": "rhf"
			}
		],
		"cosmo_sigma_profile": { 
			"-0.025": 0.0,
			"-0.024": 0.0,
			"-0.023": 0.0,
			"-0.022": 0.0,
			"-0.021": 0.0,
			"-0.02": 0.0,
			"-0.019": 0.0,
			"-0.018": 0.0,
			"-0.017": 0.0,
			"-0.016": 0.0,
			"-0.015": 0.0,
			"-0.014": 0.0,
			"-0.013": 0.0,
			"-0.012": 0.0,
			"-0.011": 0.133655196642,
			"-0.01": 1.30214520704,
			"-0.009": 1.8800855711,
			"-0.008": 6.63874697717,
			"-0.007": 16.2016511278,
			"-0.006": 23.1173511075,
			"-0.005": 21.3456749208,
			"-0.004": 20.7193162659,
			"-0.003": 15.1572935146,
			"-0.002": 13.8439723215,
			"-0.001": 18.8319236877,
			"0.0": 16.4542053723,
			"0.001": 18.7182306897,
			"0.002": 17.2329781884,
			"0.003": 8.48654073573,
			"0.004": 7.08557615757,
			"0.005": 7.07909593227,
			"0.006": 6.04008118807,
			"0.007": 7.38925133151,
			"0.008": 7.09270618014,
			"0.009": 11.470049452,
			"0.01": 12.9792422866,
			"0.011": 8.02481820779,
			"0.012": 0.868052079012,
			"0.013": 0.0,
			"0.014": 0.0,
			"0.015": 0.0,
			"0.016": 0.0,
			"0.017": 0.0,
			"0.018": 0.0,
			"0.019": 0.0,
			"0.02": 0.0,
			"0.021": 0.0,
			"0.022": 0.0,
			"0.023": 0.0,
			"0.024": 0.0,
			"0.025": 0.0
		}
	}
}
