{
	 "smiles": "CC(C)(C)OC(=O)NC(COC1CCCCO1)CS(=O)(=O)C1=CC=CC=C1", 
	 "Tm": 375.15, 
	 "num_atms": 56, 
	 "gaussian": { 
		 "optdone": 1, 
		 "sigma_profile": "yes", 
		 "theory": "DFT", 
		 "functional": "B3LYP", 
		 "basiset": "6-31G**", 
		 "properties": { 
			 "R2extent": 12888.8317, 
			 "electric_dipole_moment_norm": 4.32642889344, 
			 "electric_quadrupole_moment_norm": 30.2823259118, 
			 "total_energy": -1645.74421198, 
			 "HOMO_LUMO_gap": 0.21668, 
			 "cosmo_polarized_energy": -21.48, 
			 "cosmo_cavitation_energy": 56.77, 
			 "cosmo_dispersion_energy": -36.19, 
			 "cosmo_repulsion_energy": 2.73, 
			 "cosmo_total_nonelectrostatic_energy": 23.31, 
			 "SMD_solvation_energy": 9.08 
		},
		"coords": [
			{
				"x": 1.0136499057,
				"y": -1.2037104935,
				"z": 3.6474598224,
				"element": "C" 
			},
			{
				"x": 1.4776637475,
				"y": 0.0239306587,
				"z": 2.8576103948,
				"element": "C" 
			},
			{
				"x": 0.8429676209,
				"y": 1.3205841555,
				"z": 3.3710169174,
				"element": "C" 
			},
			{
				"x": 3.0049289081,
				"y": 0.1279514841,
				"z": 2.8624036005,
				"element": "C" 
			},
			{
				"x": 1.1715716497,
				"y": -0.1488671788,
				"z": 1.4255265789,
				"element": "O" 
			},
			{
				"x": -0.1094565427,
				"y": -0.2775559284,
				"z": 0.9993891738,
				"element": "C" 
			},
			{
				"x": -1.1055922716,
				"y": -0.2958171217,
				"z": 1.7026946973,
				"element": "O" 
			},
			{
				"x": -0.1527202126,
				"y": -0.41507106,
				"z": -0.3676046089,
				"element": "N" 
			},
			{
				"x": 0.9354109256,
				"y": -0.0830341235,
				"z": -1.2814463637,
				"element": "C" 
			},
			{
				"x": 0.3398876308,
				"y": 0.2469940567,
				"z": -2.6662557814,
				"element": "C" 
			},
			{
				"x": -0.7503759555,
				"y": 1.1595149532,
				"z": -2.5835550147,
				"element": "O" 
			},
			{
				"x": -0.4011832685,
				"y": 2.5223551664,
				"z": -2.3458990813,
				"element": "C" 
			},
			{
				"x": -1.7071599411,
				"y": 3.3059133866,
				"z": -2.2997488112,
				"element": "C" 
			},
			{
				"x": -2.4556955145,
				"y": 3.2370638721,
				"z": -3.6511224082,
				"element": "C" 
			},
			{
				"x": -1.4675565578,
				"y": 3.0633764242,
				"z": -4.827726914,
				"element": "C" 
			},
			{
				"x": -0.0983936113,
				"y": 3.6375126895,
				"z": -4.4741647454,
				"element": "C" 
			},
			{
				"x": 0.4921378345,
				"y": 3.00944652,
				"z": -3.3231757324,
				"element": "O" 
			},
			{
				"x": 2.0273976022,
				"y": -1.1627360921,
				"z": -1.3678680691,
				"element": "C" 
			},
			{
				"x": 1.5477888545,
				"y": -2.8810947344,
				"z": -1.7964339995,
				"element": "S" 
			},
			{
				"x": 2.8018899359,
				"y": -3.517275,
				"z": -2.2379846265,
				"element": "O" 
			},
			{
				"x": 0.3638524113,
				"y": -2.8615986035,
				"z": -2.6754237733,
				"element": "O" 
			},
			{
				"x": 1.0720912151,
				"y": -3.6737755386,
				"z": -0.2488756389,
				"element": "C" 
			},
			{
				"x": 2.0648930555,
				"y": -4.2746907648,
				"z": 0.5282530824,
				"element": "C" 
			},
			{
				"x": 1.6981142696,
				"y": -4.922378635,
				"z": 1.7085894358,
				"element": "C" 
			},
			{
				"x": 0.3550839522,
				"y": -4.9691533812,
				"z": 2.0928061876,
				"element": "C" 
			},
			{
				"x": -0.6280756094,
				"y": -4.3753490896,
				"z": 1.2975973847,
				"element": "C" 
			},
			{
				"x": -0.2737834916,
				"y": -3.7248035276,
				"z": 0.1153125546,
				"element": "C" 
			},
			{
				"x": 1.4408960605,
				"y": -2.1158466092,
				"z": 3.2201917454,
				"element": "H" 
			},
			{
				"x": -0.0730821786,
				"y": -1.2857700618,
				"z": 3.6366491754,
				"element": "H" 
			},
			{
				"x": 1.3541392481,
				"y": -1.1193448477,
				"z": 4.6848183221,
				"element": "H" 
			},
			{
				"x": -0.2451321163,
				"y": 1.2596589856,
				"z": 3.3418566278,
				"element": "H" 
			},
			{
				"x": 1.1596345577,
				"y": 1.5003878466,
				"z": 4.4034514744,
				"element": "H" 
			},
			{
				"x": 1.1692538767,
				"y": 2.1711659601,
				"z": 2.7637750278,
				"element": "H" 
			},
			{
				"x": 3.3670822703,
				"y": 0.2781078672,
				"z": 3.8837017914,
				"element": "H" 
			},
			{
				"x": 3.3385583559,
				"y": 0.971370756,
				"z": 2.250616359,
				"element": "H" 
			},
			{
				"x": 3.4574471818,
				"y": -0.7872329819,
				"z": 2.4688442013,
				"element": "H" 
			},
			{
				"x": -1.0836621751,
				"y": -0.2791436689,
				"z": -0.7398321642,
				"element": "H" 
			},
			{
				"x": 1.4606503269,
				"y": 0.8053156639,
				"z": -0.9046036656,
				"element": "H" 
			},
			{
				"x": 1.1314238546,
				"y": 0.6477442884,
				"z": -3.3090908873,
				"element": "H" 
			},
			{
				"x": -0.0628571899,
				"y": -0.6590876853,
				"z": -3.1206951248,
				"element": "H" 
			},
			{
				"x": 0.1458220226,
				"y": 2.6023582667,
				"z": -1.396470939,
				"element": "H" 
			},
			{
				"x": -2.3259250631,
				"y": 2.9274485873,
				"z": -1.4811519587,
				"element": "H" 
			},
			{
				"x": -1.4505578886,
				"y": 4.3427934319,
				"z": -2.0549433514,
				"element": "H" 
			},
			{
				"x": -3.1635108382,
				"y": 2.4041203471,
				"z": -3.6449851441,
				"element": "H" 
			},
			{
				"x": -3.0444180612,
				"y": 4.1522927803,
				"z": -3.7774588674,
				"element": "H" 
			},
			{
				"x": -1.8415825475,
				"y": 3.5543411707,
				"z": -5.7331421995,
				"element": "H" 
			},
			{
				"x": -1.3482060294,
				"y": 2.0006846198,
				"z": -5.0579109907,
				"element": "H" 
			},
			{
				"x": -0.1772342751,
				"y": 4.7198929902,
				"z": -4.2879864089,
				"element": "H" 
			},
			{
				"x": 0.6174534725,
				"y": 3.4950923977,
				"z": -5.2893711188,
				"element": "H" 
			},
			{
				"x": 2.750202023,
				"y": -0.9138067791,
				"z": -2.1517076453,
				"element": "H" 
			},
			{
				"x": 2.5633531562,
				"y": -1.2401467027,
				"z": -0.4199511062,
				"element": "H" 
			},
			{
				"x": 3.096946546,
				"y": -4.2544650635,
				"z": 0.1947044655,
				"element": "H" 
			},
			{
				"x": 2.4577819327,
				"y": -5.4001061705,
				"z": 2.3200657174,
				"element": "H" 
			},
			{
				"x": 0.0733122533,
				"y": -5.4767324551,
				"z": 3.010756624,
				"element": "H" 
			},
			{
				"x": -1.6711300906,
				"y": -4.4201151065,
				"z": 1.594709454,
				"element": "H" 
			},
			{
				"x": -1.0214952275,
				"y": -3.2687099215,
				"z": -0.5223136753,
				"element": "H" 
			}
		],
		 "valence_orbital": [ 
			{
				"type": "occ",
				"energy": -0.26941,
				"method": "rhf"
			},
			{
				"type": "occ",
				"energy": -0.26717,
				"method": "rhf"
			},
			{
				"type": "occ",
				"energy": -0.26665,
				"method": "rhf"
			},
			{
				"type": "occ",
				"energy": -0.26543,
				"method": "rhf"
			},
			{
				"type": "occ",
				"energy": -0.25293,
				"method": "rhf"
			},
			{
				"type": "unocc",
				"energy": -0.03625,
				"method": "rhf"
			},
			{
				"type": "unocc",
				"energy": -0.01769,
				"method": "rhf"
			},
			{
				"type": "unocc",
				"energy": 0.04317,
				"method": "rhf"
			},
			{
				"type": "unocc",
				"energy": 0.0584,
				"method": "rhf"
			},
			{
				"type": "unocc",
				"energy": 0.06635,
				"method": "rhf"
			}
		],
		"cosmo_sigma_profile": { 
			"-0.025": 0.0,
			"-0.024": 0.0,
			"-0.023": 0.0,
			"-0.022": 0.0,
			"-0.021": 0.0,
			"-0.02": 0.0,
			"-0.019": 0.0,
			"-0.018": 0.0,
			"-0.017": 0.0,
			"-0.016": 0.0,
			"-0.015": 0.0,
			"-0.014": 0.0,
			"-0.013": 0.0,
			"-0.012": 0.0,
			"-0.011": 0.266576514377,
			"-0.01": 0.656098022161,
			"-0.009": 1.83251250884,
			"-0.008": 4.48758216544,
			"-0.007": 10.9209346596,
			"-0.006": 19.9545380625,
			"-0.005": 19.7983027236,
			"-0.004": 35.5265751193,
			"-0.003": 46.0998755545,
			"-0.002": 47.3988839131,
			"-0.001": 46.7029001904,
			"0.0": 50.6086875955,
			"0.001": 41.5789612993,
			"0.002": 24.4844889587,
			"0.003": 18.1657869,
			"0.004": 9.97582724777,
			"0.005": 7.67906882052,
			"0.006": 6.7474144615,
			"0.007": 6.18935335952,
			"0.008": 6.40292144703,
			"0.009": 6.11529254153,
			"0.01": 6.0892529239,
			"0.011": 9.81219778413,
			"0.012": 9.67225208665,
			"0.013": 4.75652961398,
			"0.014": 1.81022804391,
			"0.015": 0.00366370427941,
			"0.016": 0.0,
			"0.017": 0.0,
			"0.018": 0.0,
			"0.019": 0.0,
			"0.02": 0.0,
			"0.021": 0.0,
			"0.022": 0.0,
			"0.023": 0.0,
			"0.024": 0.0,
			"0.025": 0.0
		}
	}
}
