{
	 "smiles": "OC(=O)C1=C(COC2=CC=CC=C2)C=CO1", 
	 "Tm": 403.15, 
	 "num_atms": 26, 
	 "gaussian": { 
		 "optdone": 1, 
		 "sigma_profile": "yes", 
		 "theory": "DFT", 
		 "functional": "B3LYP", 
		 "basiset": "6-31G**", 
		 "properties": { 
			 "R2extent": 4430.0093, 
			 "electric_dipole_moment_norm": 4.32865597386, 
			 "electric_quadrupole_moment_norm": 21.0288670047, 
			 "total_energy": -764.159881715, 
			 "HOMO_LUMO_gap": 0.17644, 
			 "cosmo_polarized_energy": -18.33, 
			 "cosmo_cavitation_energy": 31.15, 
			 "cosmo_dispersion_energy": -22.03, 
			 "cosmo_repulsion_energy": 1.72, 
			 "cosmo_total_nonelectrostatic_energy": 10.85, 
			 "SMD_solvation_energy": 7.57 
		},
		"coords": [
			{
				"x": 2.1841406488,
				"y": 0.6159066679,
				"z": 3.7594912175,
				"element": "O" 
			},
			{
				"x": 2.8759703777,
				"y": -0.0359501358,
				"z": 2.7756009496,
				"element": "C" 
			},
			{
				"x": 3.6977371627,
				"y": -0.8724074156,
				"z": 3.0546328857,
				"element": "O" 
			},
			{
				"x": 2.5082151109,
				"y": 0.3348001003,
				"z": 1.3952281643,
				"element": "C" 
			},
			{
				"x": 1.3972025525,
				"y": 0.9031822603,
				"z": 0.8057278251,
				"element": "C" 
			},
			{
				"x": 0.139682583,
				"y": 1.4312828145,
				"z": 1.4507513783,
				"element": "C" 
			},
			{
				"x": -0.9918759936,
				"y": 1.3506479414,
				"z": 0.5976558065,
				"element": "O" 
			},
			{
				"x": -1.6560228762,
				"y": 0.1504005735,
				"z": 0.4736682199,
				"element": "C" 
			},
			{
				"x": -2.8360835847,
				"y": 0.2021545209,
				"z": -0.2797798556,
				"element": "C" 
			},
			{
				"x": -3.5925112689,
				"y": -0.9509377124,
				"z": -0.4624791176,
				"element": "C" 
			},
			{
				"x": -3.1848144874,
				"y": -2.163963083,
				"z": 0.1022438411,
				"element": "C" 
			},
			{
				"x": -2.008546132,
				"y": -2.2069717914,
				"z": 0.8473267974,
				"element": "C" 
			},
			{
				"x": -1.2344221014,
				"y": -1.0574872566,
				"z": 1.0377133067,
				"element": "C" 
			},
			{
				"x": 1.6561799149,
				"y": 0.9039282858,
				"z": -0.6001896128,
				"element": "C" 
			},
			{
				"x": 2.8859066336,
				"y": 0.3371746101,
				"z": -0.7596561351,
				"element": "C" 
			},
			{
				"x": 3.4140513734,
				"y": -0.0166198793,
				"z": 0.4328459798,
				"element": "O" 
			},
			{
				"x": 1.7809570953,
				"y": 1.4232213184,
				"z": 3.4127057594,
				"element": "H" 
			},
			{
				"x": -0.0566128863,
				"y": 0.9266129606,
				"z": 2.4058561123,
				"element": "H" 
			},
			{
				"x": 0.2436238617,
				"y": 2.5045213613,
				"z": 1.6532373816,
				"element": "H" 
			},
			{
				"x": -3.1401634757,
				"y": 1.1536111574,
				"z": -0.7039455672,
				"element": "H" 
			},
			{
				"x": -4.5074214823,
				"y": -0.9010527392,
				"z": -1.0459740605,
				"element": "H" 
			},
			{
				"x": -3.7769416106,
				"y": -3.0624190039,
				"z": -0.0404721239,
				"element": "H" 
			},
			{
				"x": -1.675489547,
				"y": -3.1428093231,
				"z": 1.286764396,
				"element": "H" 
			},
			{
				"x": -0.3125586471,
				"y": -1.1244251982,
				"z": 1.6025855141,
				"element": "H" 
			},
			{
				"x": 0.9933142652,
				"y": 1.2617445506,
				"z": -1.3735382687,
				"element": "H" 
			},
			{
				"x": 3.4956825135,
				"y": 0.1271544155,
				"z": -1.6252007937,
				"element": "H" 
			}
		],
		 "valence_orbital": [ 
			{
				"type": "occ",
				"energy": -0.29728,
				"method": "rhf"
			},
			{
				"type": "occ",
				"energy": -0.28265,
				"method": "rhf"
			},
			{
				"type": "occ",
				"energy": -0.25588,
				"method": "rhf"
			},
			{
				"type": "occ",
				"energy": -0.25325,
				"method": "rhf"
			},
			{
				"type": "occ",
				"energy": -0.22877,
				"method": "rhf"
			},
			{
				"type": "unocc",
				"energy": -0.05233,
				"method": "rhf"
			},
			{
				"type": "unocc",
				"energy": -0.00633,
				"method": "rhf"
			},
			{
				"type": "unocc",
				"energy": 0.00635,
				"method": "rhf"
			},
			{
				"type": "unocc",
				"energy": 0.02096,
				"method": "rhf"
			},
			{
				"type": "unocc",
				"energy": 0.04697,
				"method": "rhf"
			}
		],
		"cosmo_sigma_profile": { 
			"-0.025": 0.0,
			"-0.024": 0.0,
			"-0.023": 0.0,
			"-0.022": 0.0,
			"-0.021": 0.0,
			"-0.02": 0.0,
			"-0.019": 0.54855995184,
			"-0.018": 0.997987628208,
			"-0.017": 0.979775829562,
			"-0.016": 1.32837854632,
			"-0.015": 0.786496212605,
			"-0.014": 0.731329678631,
			"-0.013": 0.808090250887,
			"-0.012": 1.43537026925,
			"-0.011": 1.26800300141,
			"-0.01": 2.94920386823,
			"-0.009": 4.30259895691,
			"-0.008": 6.13036537219,
			"-0.007": 7.60742192962,
			"-0.006": 11.7405842732,
			"-0.005": 16.7035918863,
			"-0.004": 16.6857264089,
			"-0.003": 14.8748291943,
			"-0.002": 13.8229155416,
			"-0.001": 14.1593362962,
			"0.0": 14.7796841869,
			"0.001": 15.6683836685,
			"0.002": 13.8780457899,
			"0.003": 16.4433227253,
			"0.004": 13.2583947637,
			"0.005": 14.1961955721,
			"0.006": 10.4395057701,
			"0.007": 4.38976295083,
			"0.008": 4.74364767341,
			"0.009": 5.5501757289,
			"0.01": 6.20271913681,
			"0.011": 6.40993101847,
			"0.012": 5.08375432212,
			"0.013": 1.04521428059,
			"0.014": 0.0,
			"0.015": 0.0,
			"0.016": 0.0,
			"0.017": 0.0,
			"0.018": 0.0,
			"0.019": 0.0,
			"0.02": 0.0,
			"0.021": 0.0,
			"0.022": 0.0,
			"0.023": 0.0,
			"0.024": 0.0,
			"0.025": 0.0
		}
	}
}
