{
	 "smiles": "CS(=O)(=O)NCC(O)=O", 
	 "Tm": 448.15, 
	 "num_atms": 16, 
	 "gaussian": { 
		 "optdone": 1, 
		 "sigma_profile": "yes", 
		 "theory": "DFT", 
		 "functional": "B3LYP", 
		 "basiset": "6-31G**", 
		 "properties": { 
			 "R2extent": 2537.9146, 
			 "electric_dipole_moment_norm": 3.38613394449, 
			 "electric_quadrupole_moment_norm": 18.2876850071, 
			 "total_energy": -872.314908238, 
			 "HOMO_LUMO_gap": 0.26868, 
			 "cosmo_polarized_energy": -19.74, 
			 "cosmo_cavitation_energy": 21.75, 
			 "cosmo_dispersion_energy": -16.27, 
			 "cosmo_repulsion_energy": 1.31, 
			 "cosmo_total_nonelectrostatic_energy": 6.79, 
			 "SMD_solvation_energy": 4.13 
		},
		"coords": [
			{
				"x": -2.7755429062,
				"y": 1.0151757062,
				"z": 1.3843712127,
				"element": "C" 
			},
			{
				"x": -1.1994377951,
				"y": 1.8804479325,
				"z": 1.3135834181,
				"element": "S" 
			},
			{
				"x": -0.696895412,
				"y": 1.9953312611,
				"z": 2.6867079524,
				"element": "O" 
			},
			{
				"x": -1.3530481038,
				"y": 3.0473196162,
				"z": 0.4424212827,
				"element": "O" 
			},
			{
				"x": -0.233860538,
				"y": 0.7712798294,
				"z": 0.4523463311,
				"element": "N" 
			},
			{
				"x": 0.7483863636,
				"y": 0.0096617964,
				"z": 1.2212904704,
				"element": "C" 
			},
			{
				"x": 1.9854747683,
				"y": 0.7587058708,
				"z": 1.7081874725,
				"element": "C" 
			},
			{
				"x": 2.2041512627,
				"y": 1.8910378592,
				"z": 1.0046919977,
				"element": "O" 
			},
			{
				"x": 2.718084155,
				"y": 0.3525917662,
				"z": 2.5780884985,
				"element": "O" 
			},
			{
				"x": -2.6382448653,
				"y": 0.0689346984,
				"z": 1.9092486774,
				"element": "H" 
			},
			{
				"x": -3.1297121406,
				"y": 0.8512773372,
				"z": 0.3668452903,
				"element": "H" 
			},
			{
				"x": -3.4646358239,
				"y": 1.6566416711,
				"z": 1.9366272664,
				"element": "H" 
			},
			{
				"x": 0.1813958804,
				"y": 1.2878703699,
				"z": -0.3201671008,
				"element": "H" 
			},
			{
				"x": 0.2768694017,
				"y": -0.4332663358,
				"z": 2.0994855775,
				"element": "H" 
			},
			{
				"x": 1.0960785457,
				"y": -0.8195632291,
				"z": 0.5936956049,
				"element": "H" 
			},
			{
				"x": 2.9992372076,
				"y": 2.3055538502,
				"z": 1.379576048,
				"element": "H" 
			}
		],
		 "valence_orbital": [ 
			{
				"type": "occ",
				"energy": -0.32312,
				"method": "rhf"
			},
			{
				"type": "occ",
				"energy": -0.32151,
				"method": "rhf"
			},
			{
				"type": "occ",
				"energy": -0.3069,
				"method": "rhf"
			},
			{
				"type": "occ",
				"energy": -0.3025,
				"method": "rhf"
			},
			{
				"type": "occ",
				"energy": -0.26928,
				"method": "rhf"
			},
			{
				"type": "unocc",
				"energy": -0.0006,
				"method": "rhf"
			},
			{
				"type": "unocc",
				"energy": 0.05022,
				"method": "rhf"
			},
			{
				"type": "unocc",
				"energy": 0.06615,
				"method": "rhf"
			},
			{
				"type": "unocc",
				"energy": 0.07471,
				"method": "rhf"
			},
			{
				"type": "unocc",
				"energy": 0.084,
				"method": "rhf"
			}
		],
		"cosmo_sigma_profile": { 
			"-0.025": 0.0,
			"-0.024": 0.0,
			"-0.023": 0.0,
			"-0.022": 0.0,
			"-0.021": 0.0,
			"-0.02": 0.0,
			"-0.019": 0.462073450434,
			"-0.018": 1.00276844813,
			"-0.017": 0.889023180539,
			"-0.016": 1.22033492976,
			"-0.015": 0.455507171592,
			"-0.014": 0.961042221596,
			"-0.013": 1.60319033985,
			"-0.012": 1.85544780632,
			"-0.011": 1.46824701654,
			"-0.01": 2.15208587374,
			"-0.009": 8.25236528945,
			"-0.008": 11.7043560159,
			"-0.007": 9.90169999442,
			"-0.006": 8.75553368441,
			"-0.005": 8.97014763746,
			"-0.004": 10.9840867024,
			"-0.003": 8.47729704944,
			"-0.002": 5.08649361205,
			"-0.001": 4.27082465262,
			"0.0": 4.39731971411,
			"0.001": 4.25268030287,
			"0.002": 5.40473177193,
			"0.003": 4.27461778502,
			"0.004": 6.67336585115,
			"0.005": 6.39228817477,
			"0.006": 5.37158091415,
			"0.007": 4.182485168,
			"0.008": 6.30539951405,
			"0.009": 5.46053312828,
			"0.01": 9.30001678287,
			"0.011": 15.3532909987,
			"0.012": 5.55843786208,
			"0.013": 0.0925441673982,
			"0.014": 0.0,
			"0.015": 0.0,
			"0.016": 0.0,
			"0.017": 0.0,
			"0.018": 0.0,
			"0.019": 0.0,
			"0.02": 0.0,
			"0.021": 0.0,
			"0.022": 0.0,
			"0.023": 0.0,
			"0.024": 0.0,
			"0.025": 0.0
		}
	}
}
