{
	 "smiles": "SC1=C(S)N=C2C=CC=CC2=N1", 
	 "Tm": 619.15, 
	 "num_atms": 18, 
	 "gaussian": { 
		 "optdone": 1, 
		 "sigma_profile": "yes", 
		 "theory": "DFT", 
		 "functional": "B3LYP", 
		 "basiset": "6-31G**", 
		 "properties": { 
			 "R2extent": 4120.7609, 
			 "electric_dipole_moment_norm": 1.99740741212, 
			 "electric_quadrupole_moment_norm": 11.0538112993, 
			 "total_energy": -1214.340127, 
			 "HOMO_LUMO_gap": 0.15889, 
			 "cosmo_polarized_energy": -7.82, 
			 "cosmo_cavitation_energy": 25.59, 
			 "cosmo_dispersion_energy": -20.4, 
			 "cosmo_repulsion_energy": 1.52, 
			 "cosmo_total_nonelectrostatic_energy": 6.71, 
			 "SMD_solvation_energy": 0.44 
		},
		"coords": [
			{
				"x": -1.930333407,
				"y": -3.7202079198,
				"z": -1.9922588282,
				"element": "S" 
			},
			{
				"x": -0.8368190944,
				"y": -2.3529288611,
				"z": -1.6544543404,
				"element": "C" 
			},
			{
				"x": -0.2754032262,
				"y": -1.4731824891,
				"z": -2.6586488579,
				"element": "C" 
			},
			{
				"x": -0.6574489444,
				"y": -1.7081176361,
				"z": -4.3876808414,
				"element": "S" 
			},
			{
				"x": 0.5219262254,
				"y": -0.4882063283,
				"z": -2.3322015696,
				"element": "N" 
			},
			{
				"x": 0.8180582417,
				"y": -0.3035503669,
				"z": -1.0121980077,
				"element": "C" 
			},
			{
				"x": 1.676784724,
				"y": 0.7510575657,
				"z": -0.6195339936,
				"element": "C" 
			},
			{
				"x": 1.9710118227,
				"y": 0.9308794064,
				"z": 0.7157115731,
				"element": "C" 
			},
			{
				"x": 1.4224966209,
				"y": 0.0706062457,
				"z": 1.6992959921,
				"element": "C" 
			},
			{
				"x": 0.5836192723,
				"y": -0.9635227679,
				"z": 1.3411751827,
				"element": "C" 
			},
			{
				"x": 0.2661861716,
				"y": -1.1689943052,
				"z": -0.0234412319,
				"element": "C" 
			},
			{
				"x": -0.5625381698,
				"y": -2.1891513803,
				"z": -0.3851164749,
				"element": "N" 
			},
			{
				"x": -1.9852638614,
				"y": -3.5844412977,
				"z": -3.3307989979,
				"element": "H" 
			},
			{
				"x": 0.0969451189,
				"y": -0.6669188461,
				"z": -4.7868633896,
				"element": "H" 
			},
			{
				"x": 2.0841336956,
				"y": 1.3961132958,
				"z": -1.3912070391,
				"element": "H" 
			},
			{
				"x": 2.6293063354,
				"y": 1.7386345002,
				"z": 1.0212802319,
				"element": "H" 
			},
			{
				"x": 1.6682866452,
				"y": 0.2314316852,
				"z": 2.7447121077,
				"element": "H" 
			},
			{
				"x": 0.1507518295,
				"y": -1.6359005006,
				"z": 2.0745284846,
				"element": "H" 
			}
		],
		 "valence_orbital": [ 
			{
				"type": "occ",
				"energy": -0.30126,
				"method": "rhf"
			},
			{
				"type": "occ",
				"energy": -0.28269,
				"method": "rhf"
			},
			{
				"type": "occ",
				"energy": -0.2596,
				"method": "rhf"
			},
			{
				"type": "occ",
				"energy": -0.2414,
				"method": "rhf"
			},
			{
				"type": "occ",
				"energy": -0.23334,
				"method": "rhf"
			},
			{
				"type": "unocc",
				"energy": -0.07445,
				"method": "rhf"
			},
			{
				"type": "unocc",
				"energy": -0.02963,
				"method": "rhf"
			},
			{
				"type": "unocc",
				"energy": -0.01263,
				"method": "rhf"
			},
			{
				"type": "unocc",
				"energy": 0.00425,
				"method": "rhf"
			},
			{
				"type": "unocc",
				"energy": 0.03899,
				"method": "rhf"
			}
		],
		"cosmo_sigma_profile": { 
			"-0.025": 0.0,
			"-0.024": 0.0,
			"-0.023": 0.0,
			"-0.022": 0.0,
			"-0.021": 0.0,
			"-0.02": 0.0,
			"-0.019": 0.0,
			"-0.018": 0.0,
			"-0.017": 0.0,
			"-0.016": 0.0,
			"-0.015": 0.0,
			"-0.014": 0.0,
			"-0.013": 0.0,
			"-0.012": 0.627450802356,
			"-0.011": 2.33645041994,
			"-0.01": 2.45812880535,
			"-0.009": 2.35840393245,
			"-0.008": 1.60952136865,
			"-0.007": 6.11135067439,
			"-0.006": 11.1693987624,
			"-0.005": 11.2599070514,
			"-0.004": 11.922472444,
			"-0.003": 12.3532097232,
			"-0.002": 14.8546627787,
			"-0.001": 11.8068444712,
			"0.0": 15.5596583378,
			"0.001": 19.8333567434,
			"0.002": 23.0028256464,
			"0.003": 21.3861896688,
			"0.004": 13.6473507695,
			"0.005": 9.00288948987,
			"0.006": 8.63358669731,
			"0.007": 4.76935959405,
			"0.008": 1.7329570477,
			"0.009": 1.43513005876,
			"0.01": 1.9888269473,
			"0.011": 1.23522229852,
			"0.012": 0.492613289554,
			"0.013": 0.0265336029649,
			"0.014": 0.0,
			"0.015": 0.0,
			"0.016": 0.0,
			"0.017": 0.0,
			"0.018": 0.0,
			"0.019": 0.0,
			"0.02": 0.0,
			"0.021": 0.0,
			"0.022": 0.0,
			"0.023": 0.0,
			"0.024": 0.0,
			"0.025": 0.0
		}
	}
}
