{
	 "smiles": "CCOC(=O)C(N)=O", 
	 "Tm": 387.15, 
	 "num_atms": 15, 
	 "gaussian": { 
		 "optdone": 1, 
		 "sigma_profile": "yes", 
		 "theory": "DFT", 
		 "functional": "B3LYP", 
		 "basiset": "6-31G**", 
		 "properties": { 
			 "R2extent": 1167.5066, 
			 "electric_dipole_moment_norm": 5.41031319888, 
			 "electric_quadrupole_moment_norm": 11.2958570295, 
			 "total_energy": -437.084677911, 
			 "HOMO_LUMO_gap": 0.21412, 
			 "cosmo_polarized_energy": -15.65, 
			 "cosmo_cavitation_energy": 19.67, 
			 "cosmo_dispersion_energy": -14.4, 
			 "cosmo_repulsion_energy": 1.25, 
			 "cosmo_total_nonelectrostatic_energy": 6.52, 
			 "SMD_solvation_energy": 5.88 
		},
		"coords": [
			{
				"x": -1.9742626102,
				"y": 1.2878199689,
				"z": -0.7278422554,
				"element": "C" 
			},
			{
				"x": -1.9268596268,
				"y": -0.0920275408,
				"z": -0.0912328647,
				"element": "C" 
			},
			{
				"x": -0.5792208882,
				"y": -0.6365802709,
				"z": -0.1148043864,
				"element": "O" 
			},
			{
				"x": 0.2364653378,
				"y": -0.273646323,
				"z": 0.9032353048,
				"element": "C" 
			},
			{
				"x": -0.0726803949,
				"y": 0.4515799432,
				"z": 1.8142686863,
				"element": "O" 
			},
			{
				"x": 1.6410621548,
				"y": -0.9121259771,
				"z": 0.7715082367,
				"element": "C" 
			},
			{
				"x": 1.8085858242,
				"y": -1.6883549476,
				"z": -0.3317483231,
				"element": "N" 
			},
			{
				"x": 2.4905975219,
				"y": -0.7001796645,
				"z": 1.6149710315,
				"element": "O" 
			},
			{
				"x": -1.5900517997,
				"y": 1.2604266686,
				"z": -1.7517110858,
				"element": "H" 
			},
			{
				"x": -1.3854515613,
				"y": 2.0009080177,
				"z": -0.146063099,
				"element": "H" 
			},
			{
				"x": -3.0094746646,
				"y": 1.6431500956,
				"z": -0.7590665959,
				"element": "H" 
			},
			{
				"x": -2.5211044154,
				"y": -0.8175751963,
				"z": -0.6510869835,
				"element": "H" 
			},
			{
				"x": -2.2677349764,
				"y": -0.0633480965,
				"z": 0.9460884127,
				"element": "H" 
			},
			{
				"x": 1.0581866235,
				"y": -1.8296539442,
				"z": -0.9879737984,
				"element": "H" 
			},
			{
				"x": 2.7018434753,
				"y": -2.135392733,
				"z": -0.4705422796,
				"element": "H" 
			}
		],
		 "valence_orbital": [ 
			{
				"type": "occ",
				"energy": -0.35713,
				"method": "rhf"
			},
			{
				"type": "occ",
				"energy": -0.31574,
				"method": "rhf"
			},
			{
				"type": "occ",
				"energy": -0.29491,
				"method": "rhf"
			},
			{
				"type": "occ",
				"energy": -0.27777,
				"method": "rhf"
			},
			{
				"type": "occ",
				"energy": -0.25987,
				"method": "rhf"
			},
			{
				"type": "unocc",
				"energy": -0.04575,
				"method": "rhf"
			},
			{
				"type": "unocc",
				"energy": 0.0806,
				"method": "rhf"
			},
			{
				"type": "unocc",
				"energy": 0.09167,
				"method": "rhf"
			},
			{
				"type": "unocc",
				"energy": 0.09948,
				"method": "rhf"
			},
			{
				"type": "unocc",
				"energy": 0.11073,
				"method": "rhf"
			}
		],
		"cosmo_sigma_profile": { 
			"-0.025": 0.0,
			"-0.024": 0.0,
			"-0.023": 0.0,
			"-0.022": 0.0,
			"-0.021": 0.0,
			"-0.02": 0.0,
			"-0.019": 0.0,
			"-0.018": 0.0,
			"-0.017": 0.0,
			"-0.016": 0.0322992563744,
			"-0.015": 1.01482037185,
			"-0.014": 1.79496440715,
			"-0.013": 1.6629922639,
			"-0.012": 2.13514895291,
			"-0.011": 2.50578925421,
			"-0.01": 1.57872828538,
			"-0.009": 1.3101253799,
			"-0.008": 1.79494047206,
			"-0.007": 1.88131785812,
			"-0.006": 5.87199582639,
			"-0.005": 10.2857032978,
			"-0.004": 16.4890057352,
			"-0.003": 15.9093333166,
			"-0.002": 12.2475026364,
			"-0.001": 11.9792607638,
			"0.0": 11.4286505991,
			"0.001": 7.9359901031,
			"0.002": 5.89662380664,
			"0.003": 3.15466596073,
			"0.004": 2.33520678514,
			"0.005": 2.22628845931,
			"0.006": 2.16830469604,
			"0.007": 2.08303035454,
			"0.008": 2.76563236315,
			"0.009": 2.33300219083,
			"0.01": 4.88589434421,
			"0.011": 5.68884309067,
			"0.012": 5.95177136665,
			"0.013": 5.1729153134,
			"0.014": 2.26708067512,
			"0.015": 0.361339021208,
			"0.016": 0.0,
			"0.017": 0.0,
			"0.018": 0.0,
			"0.019": 0.0,
			"0.02": 0.0,
			"0.021": 0.0,
			"0.022": 0.0,
			"0.023": 0.0,
			"0.024": 0.0,
			"0.025": 0.0
		}
	}
}
