{
	 "smiles": "COC1=CC2=C(C(C)NCC2)C(O)=C1OC", 
	 "Tm": 433.15, 
	 "num_atms": 33, 
	 "gaussian": { 
		 "optdone": 1, 
		 "sigma_profile": "yes", 
		 "theory": "DFT", 
		 "functional": "B3LYP", 
		 "basiset": "6-31G**", 
		 "properties": { 
			 "R2extent": 4596.9214, 
			 "electric_dipole_moment_norm": 2.27236705662, 
			 "electric_quadrupole_moment_norm": 9.8796561342, 
			 "total_energy": -747.915495913, 
			 "HOMO_LUMO_gap": 0.21394, 
			 "cosmo_polarized_energy": -9.91, 
			 "cosmo_cavitation_energy": 33.68, 
			 "cosmo_dispersion_energy": -24.43, 
			 "cosmo_repulsion_energy": 1.91, 
			 "cosmo_total_nonelectrostatic_energy": 11.15, 
			 "SMD_solvation_energy": 4.63 
		},
		"coords": [
			{
				"x": 2.2839477332,
				"y": -1.6966336673,
				"z": -1.4677156603,
				"element": "C" 
			},
			{
				"x": 1.2470573545,
				"y": -0.8179213284,
				"z": -1.9171792529,
				"element": "O" 
			},
			{
				"x": 0.8647762533,
				"y": 0.13309437,
				"z": -0.9937065896,
				"element": "C" 
			},
			{
				"x": 1.1350532119,
				"y": 1.4772238534,
				"z": -1.2351958965,
				"element": "C" 
			},
			{
				"x": 0.736363649,
				"y": 2.468763775,
				"z": -0.3288714806,
				"element": "C" 
			},
			{
				"x": 0.0784891949,
				"y": 2.1247263278,
				"z": 0.8664811079,
				"element": "C" 
			},
			{
				"x": -0.3643030889,
				"y": 3.1787915322,
				"z": 1.8884032662,
				"element": "C" 
			},
			{
				"x": 0.2227574237,
				"y": 2.9316366397,
				"z": 3.2871048372,
				"element": "C" 
			},
			{
				"x": -0.0454623741,
				"y": 4.5655496155,
				"z": 1.5101081216,
				"element": "N" 
			},
			{
				"x": -0.0435648576,
				"y": 4.8124826826,
				"z": 0.071310101,
				"element": "C" 
			},
			{
				"x": 0.9751217271,
				"y": 3.9285180608,
				"z": -0.6599027366,
				"element": "C" 
			},
			{
				"x": -0.2399672014,
				"y": 0.7704334887,
				"z": 1.0688361384,
				"element": "C" 
			},
			{
				"x": -0.9552280006,
				"y": 0.3899589268,
				"z": 2.1681566185,
				"element": "O" 
			},
			{
				"x": 0.1483966889,
				"y": -0.2190170412,
				"z": 0.1555907588,
				"element": "C" 
			},
			{
				"x": -0.1987745416,
				"y": -1.5250656101,
				"z": 0.4748770939,
				"element": "O" 
			},
			{
				"x": -1.1499880111,
				"y": -2.1243604657,
				"z": -0.4222616693,
				"element": "C" 
			},
			{
				"x": 3.1947601836,
				"y": -1.1332438942,
				"z": -1.2291148246,
				"element": "H" 
			},
			{
				"x": 1.9716744512,
				"y": -2.2686772405,
				"z": -0.5874891388,
				"element": "H" 
			},
			{
				"x": 2.4886960885,
				"y": -2.3789535383,
				"z": -2.2955165153,
				"element": "H" 
			},
			{
				"x": 1.6501265718,
				"y": 1.7419170106,
				"z": -2.1537833919,
				"element": "H" 
			},
			{
				"x": -1.4595026007,
				"y": 3.1031059647,
				"z": 1.9725933218,
				"element": "H" 
			},
			{
				"x": 1.3190149338,
				"y": 2.9330240829,
				"z": 3.247142799,
				"element": "H" 
			},
			{
				"x": -0.1038458333,
				"y": 1.9735218691,
				"z": 3.6901514707,
				"element": "H" 
			},
			{
				"x": -0.0994336483,
				"y": 3.7323289413,
				"z": 3.9604450644,
				"element": "H" 
			},
			{
				"x": 0.8779906409,
				"y": 4.7928842662,
				"z": 1.8744217466,
				"element": "H" 
			},
			{
				"x": -1.0517960753,
				"y": 4.6161682974,
				"z": -0.315526008,
				"element": "H" 
			},
			{
				"x": 0.1648341296,
				"y": 5.8740965704,
				"z": -0.1026590291,
				"element": "H" 
			},
			{
				"x": 0.9220595762,
				"y": 4.0741309549,
				"z": -1.7460606823,
				"element": "H" 
			},
			{
				"x": 1.9885803792,
				"y": 4.2330528211,
				"z": -0.3579548827,
				"element": "H" 
			},
			{
				"x": -1.0104601582,
				"y": -0.5797216038,
				"z": 2.1203877228,
				"element": "H" 
			},
			{
				"x": -2.0835623937,
				"y": -1.5492831308,
				"z": -0.4397151317,
				"element": "H" 
			},
			{
				"x": -0.7412378124,
				"y": -2.1848261331,
				"z": -1.4341638809,
				"element": "H" 
			},
			{
				"x": -1.3446735941,
				"y": -3.1274063978,
				"z": -0.0368933976,
				"element": "H" 
			}
		],
		 "valence_orbital": [ 
			{
				"type": "occ",
				"energy": -0.2946,
				"method": "rhf"
			},
			{
				"type": "occ",
				"energy": -0.26764,
				"method": "rhf"
			},
			{
				"type": "occ",
				"energy": -0.22068,
				"method": "rhf"
			},
			{
				"type": "occ",
				"energy": -0.21552,
				"method": "rhf"
			},
			{
				"type": "occ",
				"energy": -0.20681,
				"method": "rhf"
			},
			{
				"type": "unocc",
				"energy": 0.00713,
				"method": "rhf"
			},
			{
				"type": "unocc",
				"energy": 0.01504,
				"method": "rhf"
			},
			{
				"type": "unocc",
				"energy": 0.06626,
				"method": "rhf"
			},
			{
				"type": "unocc",
				"energy": 0.09577,
				"method": "rhf"
			},
			{
				"type": "unocc",
				"energy": 0.11514,
				"method": "rhf"
			}
		],
		"cosmo_sigma_profile": { 
			"-0.025": 0.0,
			"-0.024": 0.0,
			"-0.023": 0.0,
			"-0.022": 0.0,
			"-0.021": 0.0,
			"-0.02": 0.0,
			"-0.019": 0.0,
			"-0.018": 0.0,
			"-0.017": 0.0,
			"-0.016": 0.0,
			"-0.015": 0.0,
			"-0.014": 0.0406856664849,
			"-0.013": 0.54338151568,
			"-0.012": 0.481467457651,
			"-0.011": 0.360457880725,
			"-0.01": 0.904407558881,
			"-0.009": 1.77356514189,
			"-0.008": 2.32843021058,
			"-0.007": 2.41979442556,
			"-0.006": 4.48847811055,
			"-0.005": 13.1734374556,
			"-0.004": 20.941603277,
			"-0.003": 33.4141204674,
			"-0.002": 31.9904009384,
			"-0.001": 28.5862071501,
			"0.0": 23.3831059077,
			"0.001": 18.9552906842,
			"0.002": 14.3295175093,
			"0.003": 13.055752973,
			"0.004": 13.0163099336,
			"0.005": 11.5688671009,
			"0.006": 6.6531001055,
			"0.007": 4.08820297167,
			"0.008": 3.88711189572,
			"0.009": 3.06889217495,
			"0.01": 2.89553430144,
			"0.011": 2.2509649177,
			"0.012": 1.42417564125,
			"0.013": 1.03445247161,
			"0.014": 0.428447398914,
			"0.015": 0.411108310148,
			"0.016": 0.35913520102,
			"0.017": 0.519254221852,
			"0.018": 0.669159327343,
			"0.019": 0.0380801956294,
			"0.02": 0.0,
			"0.021": 0.0,
			"0.022": 0.0,
			"0.023": 0.0,
			"0.024": 0.0,
			"0.025": 0.0
		}
	}
}
