{
	 "smiles": "CCCCN(CCCC)C(C(N)=O)C1=CC=C(OC)C=C1", 
	 "Tm": 407.15, 
	 "num_atms": 49, 
	 "gaussian": { 
		 "optdone": 1, 
		 "sigma_profile": "yes", 
		 "theory": "DFT", 
		 "functional": "B3LYP", 
		 "basiset": "6-31G**", 
		 "properties": { 
			 "R2extent": 8957.9924, 
			 "electric_dipole_moment_norm": 4.81282485137, 
			 "electric_quadrupole_moment_norm": 12.3611263269, 
			 "total_energy": -924.639752525, 
			 "HOMO_LUMO_gap": 0.18745, 
			 "cosmo_polarized_energy": -17.6, 
			 "cosmo_cavitation_energy": 48.52, 
			 "cosmo_dispersion_energy": -32.31, 
			 "cosmo_repulsion_energy": 2.58, 
			 "cosmo_total_nonelectrostatic_energy": 18.79, 
			 "SMD_solvation_energy": 7.96 
		},
		"coords": [
			{
				"x": -1.5702576527,
				"y": -0.6622008421,
				"z": 3.4841469429,
				"element": "C" 
			},
			{
				"x": -1.9286381787,
				"y": 0.710378724,
				"z": 2.8994483218,
				"element": "C" 
			},
			{
				"x": -0.9744340723,
				"y": 1.2110215815,
				"z": 1.8016467045,
				"element": "C" 
			},
			{
				"x": -1.0474891747,
				"y": 0.3986234582,
				"z": 0.4996221655,
				"element": "C" 
			},
			{
				"x": -0.2479541441,
				"y": 0.9839464432,
				"z": -0.5865927878,
				"element": "N" 
			},
			{
				"x": -0.8110216367,
				"y": 0.7278965413,
				"z": -1.9177041867,
				"element": "C" 
			},
			{
				"x": -0.3712099404,
				"y": 1.706984191,
				"z": -3.0139174011,
				"element": "C" 
			},
			{
				"x": -1.1613303759,
				"y": 1.497008658,
				"z": -4.3127461705,
				"element": "C" 
			},
			{
				"x": -0.730772723,
				"y": 2.4461469749,
				"z": -5.4357734721,
				"element": "C" 
			},
			{
				"x": 1.1936694371,
				"y": 0.7550361378,
				"z": -0.4119720266,
				"element": "C" 
			},
			{
				"x": 2.0346106825,
				"y": 1.95404233,
				"z": -0.9369424612,
				"element": "C" 
			},
			{
				"x": 3.3476156656,
				"y": 1.6657136654,
				"z": -1.187325013,
				"element": "N" 
			},
			{
				"x": 1.5925665936,
				"y": 3.0882396897,
				"z": -1.0138526226,
				"element": "O" 
			},
			{
				"x": 1.6974529455,
				"y": -0.6332756022,
				"z": -0.8135484981,
				"element": "C" 
			},
			{
				"x": 1.9336750096,
				"y": -1.011851941,
				"z": -2.1507955874,
				"element": "C" 
			},
			{
				"x": 2.3316671047,
				"y": -2.3011021656,
				"z": -2.4807423383,
				"element": "C" 
			},
			{
				"x": 2.5070539572,
				"y": -3.2673124506,
				"z": -1.4783810011,
				"element": "C" 
			},
			{
				"x": 2.8982168268,
				"y": -4.5019610225,
				"z": -1.9058104606,
				"element": "O" 
			},
			{
				"x": 3.0848061589,
				"y": -5.5204042711,
				"z": -0.9355091757,
				"element": "C" 
			},
			{
				"x": 2.2862397658,
				"y": -2.9160897811,
				"z": -0.1425418409,
				"element": "C" 
			},
			{
				"x": 1.8881746937,
				"y": -1.6126270882,
				"z": 0.1690954628,
				"element": "C" 
			},
			{
				"x": -2.2523501746,
				"y": -0.934912784,
				"z": 4.2964069946,
				"element": "H" 
			},
			{
				"x": -0.5529808121,
				"y": -0.6611285223,
				"z": 3.893924729,
				"element": "H" 
			},
			{
				"x": -1.6229575627,
				"y": -1.4560623865,
				"z": 2.7320651642,
				"element": "H" 
			},
			{
				"x": -1.9397296573,
				"y": 1.4484366757,
				"z": 3.7111274572,
				"element": "H" 
			},
			{
				"x": -2.9537219212,
				"y": 0.6827045616,
				"z": 2.504501271,
				"element": "H" 
			},
			{
				"x": 0.0484746447,
				"y": 1.2143377339,
				"z": 2.2027188783,
				"element": "H" 
			},
			{
				"x": -1.2057369115,
				"y": 2.2525981535,
				"z": 1.5526816622,
				"element": "H" 
			},
			{
				"x": -0.7897675347,
				"y": -0.6595448242,
				"z": 0.6837429262,
				"element": "H" 
			},
			{
				"x": -2.0918831798,
				"y": 0.3981160826,
				"z": 0.1692418193,
				"element": "H" 
			},
			{
				"x": -1.8971550348,
				"y": 0.8287705701,
				"z": -1.8120979302,
				"element": "H" 
			},
			{
				"x": -0.6371103318,
				"y": -0.3098015077,
				"z": -2.2587034948,
				"element": "H" 
			},
			{
				"x": -0.497206648,
				"y": 2.7288806445,
				"z": -2.6429605991,
				"element": "H" 
			},
			{
				"x": 0.6987846557,
				"y": 1.6027397037,
				"z": -3.2318069692,
				"element": "H" 
			},
			{
				"x": -2.2331026685,
				"y": 1.633132499,
				"z": -4.1120618887,
				"element": "H" 
			},
			{
				"x": -1.0478677572,
				"y": 0.4569634205,
				"z": -4.649928414,
				"element": "H" 
			},
			{
				"x": -0.8618399111,
				"y": 3.492800596,
				"z": -5.1395635224,
				"element": "H" 
			},
			{
				"x": 0.326729275,
				"y": 2.3071735429,
				"z": -5.6884746663,
				"element": "H" 
			},
			{
				"x": -1.3149659837,
				"y": 2.2807262784,
				"z": -6.3472417172,
				"element": "H" 
			},
			{
				"x": 1.3669689615,
				"y": 0.8293653231,
				"z": 0.66830229,
				"element": "H" 
			},
			{
				"x": 3.9459039437,
				"y": 2.4253745632,
				"z": -1.473121807,
				"element": "H" 
			},
			{
				"x": 3.6978980503,
				"y": 0.7218865759,
				"z": -1.1961690307,
				"element": "H" 
			},
			{
				"x": 1.8211738868,
				"y": -0.2820819753,
				"z": -2.9462807821,
				"element": "H" 
			},
			{
				"x": 2.5143116301,
				"y": -2.5865331978,
				"z": -3.5117431019,
				"element": "H" 
			},
			{
				"x": 2.1585646529,
				"y": -5.73031522,
				"z": -0.3852846632,
				"element": "H" 
			},
			{
				"x": 3.3834934345,
				"y": -6.4123645637,
				"z": -1.4882201552,
				"element": "H" 
			},
			{
				"x": 3.8748840355,
				"y": -5.2588582468,
				"z": -0.2196816204,
				"element": "H" 
			},
			{
				"x": 2.4228090003,
				"y": -3.6357011686,
				"z": 0.6560430701,
				"element": "H" 
			},
			{
				"x": 1.7289389756,
				"y": -1.3557157583,
				"z": 1.2135795465,
				"element": "H" 
			}
		],
		 "valence_orbital": [ 
			{
				"type": "occ",
				"energy": -0.26048,
				"method": "rhf"
			},
			{
				"type": "occ",
				"energy": -0.25377,
				"method": "rhf"
			},
			{
				"type": "occ",
				"energy": -0.24042,
				"method": "rhf"
			},
			{
				"type": "occ",
				"energy": -0.22154,
				"method": "rhf"
			},
			{
				"type": "occ",
				"energy": -0.19746,
				"method": "rhf"
			},
			{
				"type": "unocc",
				"energy": -0.01001,
				"method": "rhf"
			},
			{
				"type": "unocc",
				"energy": 0.00132,
				"method": "rhf"
			},
			{
				"type": "unocc",
				"energy": 0.03417,
				"method": "rhf"
			},
			{
				"type": "unocc",
				"energy": 0.07718,
				"method": "rhf"
			},
			{
				"type": "unocc",
				"energy": 0.09177,
				"method": "rhf"
			}
		],
		"cosmo_sigma_profile": { 
			"-0.025": 0.0,
			"-0.024": 0.0,
			"-0.023": 0.0,
			"-0.022": 0.0,
			"-0.021": 0.0,
			"-0.02": 0.0,
			"-0.019": 0.0,
			"-0.018": 0.0,
			"-0.017": 0.0,
			"-0.016": 0.0,
			"-0.015": 0.0,
			"-0.014": 0.264032532184,
			"-0.013": 1.42396173426,
			"-0.012": 1.89060161235,
			"-0.011": 1.13129756511,
			"-0.01": 1.85754691146,
			"-0.009": 2.5062311864,
			"-0.008": 1.64861029118,
			"-0.007": 2.81272515938,
			"-0.006": 11.4881539519,
			"-0.005": 19.688699357,
			"-0.004": 21.8125491202,
			"-0.003": 28.9731781704,
			"-0.002": 44.3985664712,
			"-0.001": 47.358319084,
			"0.0": 51.4607693601,
			"0.001": 44.1716900081,
			"0.002": 22.6293787464,
			"0.003": 14.4618279279,
			"0.004": 12.7515017811,
			"0.005": 9.76735781198,
			"0.006": 5.03848743264,
			"0.007": 2.71055923747,
			"0.008": 3.4045596317,
			"0.009": 3.22052523539,
			"0.01": 3.39513278101,
			"0.011": 1.87776181616,
			"0.012": 1.99264829831,
			"0.013": 2.63466658678,
			"0.014": 4.48925098306,
			"0.015": 3.11340704907,
			"0.016": 0.958053588362,
			"0.017": 0.457797611237,
			"0.018": 0.61407008496,
			"0.019": 0.46300442582,
			"0.02": 0.234080077446,
			"0.021": 0.0,
			"0.022": 0.0,
			"0.023": 0.0,
			"0.024": 0.0,
			"0.025": 0.0
		}
	}
}
