{
	 "smiles": "FC1=C(C=CC(=C1)C#N)N1CCNCC1", 
	 "Tm": 358.15, 
	 "num_atms": 27, 
	 "gaussian": { 
		 "optdone": 1, 
		 "sigma_profile": "yes", 
		 "theory": "DFT", 
		 "functional": "B3LYP", 
		 "basiset": "6-31G**", 
		 "properties": { 
			 "R2extent": 3961.9462, 
			 "electric_dipole_moment_norm": 5.80137518352, 
			 "electric_quadrupole_moment_norm": 25.8709151056, 
			 "total_energy": -690.451137896, 
			 "HOMO_LUMO_gap": 0.16746, 
			 "cosmo_polarized_energy": -13.96, 
			 "cosmo_cavitation_energy": 30.5, 
			 "cosmo_dispersion_energy": -21.74, 
			 "cosmo_repulsion_energy": 1.66, 
			 "cosmo_total_nonelectrostatic_energy": 10.42, 
			 "SMD_solvation_energy": 3.23 
		},
		"coords": [
			{
				"x": -2.0215791556,
				"y": 1.8519865949,
				"z": 0.6846500048,
				"element": "F" 
			},
			{
				"x": -1.3869829475,
				"y": 1.218184629,
				"z": -0.333040959,
				"element": "C" 
			},
			{
				"x": -0.1953696038,
				"y": 0.502878633,
				"z": -0.0559876164,
				"element": "C" 
			},
			{
				"x": 0.3661487505,
				"y": -0.1887571135,
				"z": -1.1553651297,
				"element": "C" 
			},
			{
				"x": -0.2067889619,
				"y": -0.1552899736,
				"z": -2.419655783,
				"element": "C" 
			},
			{
				"x": -1.3737536736,
				"y": 0.5873877421,
				"z": -2.6581532857,
				"element": "C" 
			},
			{
				"x": -1.9617453495,
				"y": 1.2809768647,
				"z": -1.5846066722,
				"element": "C" 
			},
			{
				"x": -1.9588732641,
				"y": 0.6370004919,
				"z": -3.9611779408,
				"element": "C" 
			},
			{
				"x": -2.4324023485,
				"y": 0.6762250175,
				"z": -5.0242026947,
				"element": "N" 
			},
			{
				"x": 0.3411164757,
				"y": 0.4587180869,
				"z": 1.2164502749,
				"element": "N" 
			},
			{
				"x": 1.340019802,
				"y": -0.5349938065,
				"z": 1.5916897729,
				"element": "C" 
			},
			{
				"x": 2.7737918165,
				"y": 0.0533392603,
				"z": 1.5403966498,
				"element": "C" 
			},
			{
				"x": 2.8013698101,
				"y": 1.4772788722,
				"z": 1.909720064,
				"element": "N" 
			},
			{
				"x": 1.6881187103,
				"y": 1.820788274,
				"z": 2.7898964127,
				"element": "C" 
			},
			{
				"x": 0.2999140288,
				"y": 1.6196729648,
				"z": 2.1247888955,
				"element": "C" 
			},
			{
				"x": 1.2847411495,
				"y": -0.7466078272,
				"z": -1.0187856963,
				"element": "H" 
			},
			{
				"x": 0.2619093023,
				"y": -0.6933015043,
				"z": -3.2365634313,
				"element": "H" 
			},
			{
				"x": -2.8783892357,
				"y": 1.8454336953,
				"z": -1.7116994277,
				"element": "H" 
			},
			{
				"x": 1.2402437536,
				"y": -1.4242205555,
				"z": 0.9667928429,
				"element": "H" 
			},
			{
				"x": 1.1125089529,
				"y": -0.8571321666,
				"z": 2.6160426761,
				"element": "H" 
			},
			{
				"x": 3.2023707435,
				"y": -0.0507445346,
				"z": 0.5382483327,
				"element": "H" 
			},
			{
				"x": 3.4159668546,
				"y": -0.5208047613,
				"z": 2.2230136761,
				"element": "H" 
			},
			{
				"x": 2.7442912991,
				"y": 2.0444761214,
				"z": 1.0683691552,
				"element": "H" 
			},
			{
				"x": 1.7814826632,
				"y": 2.8635732623,
				"z": 3.1100551429,
				"element": "H" 
			},
			{
				"x": 1.7730641539,
				"y": 1.2111828159,
				"z": 3.6972419585,
				"element": "H" 
			},
			{
				"x": 0.0504880534,
				"y": 2.5070210415,
				"z": 1.5404570259,
				"element": "H" 
			},
			{
				"x": -0.4821617796,
				"y": 1.5037278756,
				"z": 2.8886257516,
				"element": "H" 
			}
		],
		 "valence_orbital": [ 
			{
				"type": "occ",
				"energy": -0.32262,
				"method": "rhf"
			},
			{
				"type": "occ",
				"energy": -0.29337,
				"method": "rhf"
			},
			{
				"type": "occ",
				"energy": -0.26702,
				"method": "rhf"
			},
			{
				"type": "occ",
				"energy": -0.23971,
				"method": "rhf"
			},
			{
				"type": "occ",
				"energy": -0.20695,
				"method": "rhf"
			},
			{
				"type": "unocc",
				"energy": -0.03949,
				"method": "rhf"
			},
			{
				"type": "unocc",
				"energy": -0.01755,
				"method": "rhf"
			},
			{
				"type": "unocc",
				"energy": 0.0425,
				"method": "rhf"
			},
			{
				"type": "unocc",
				"energy": 0.05917,
				"method": "rhf"
			},
			{
				"type": "unocc",
				"energy": 0.06902,
				"method": "rhf"
			}
		],
		"cosmo_sigma_profile": { 
			"-0.025": 0.0,
			"-0.024": 0.0,
			"-0.023": 0.0,
			"-0.022": 0.0,
			"-0.021": 0.0,
			"-0.02": 0.0,
			"-0.019": 0.0,
			"-0.018": 0.0,
			"-0.017": 0.0,
			"-0.016": 0.0,
			"-0.015": 0.0,
			"-0.014": 0.0,
			"-0.013": 0.0,
			"-0.012": 0.0,
			"-0.011": 0.0,
			"-0.01": 0.852884884051,
			"-0.009": 1.8102990609,
			"-0.008": 4.57414043886,
			"-0.007": 8.21780915657,
			"-0.006": 11.0086653998,
			"-0.005": 19.4985416644,
			"-0.004": 24.0623124662,
			"-0.003": 23.5452924159,
			"-0.002": 18.6653778371,
			"-0.001": 15.6567381997,
			"0.0": 16.0197353983,
			"0.001": 17.2997023651,
			"0.002": 16.991460673,
			"0.003": 13.6689155654,
			"0.004": 13.2502496277,
			"0.005": 4.07846330574,
			"0.006": 3.32177951957,
			"0.007": 3.62098447763,
			"0.008": 3.95107042827,
			"0.009": 4.21021625844,
			"0.01": 4.17135494499,
			"0.011": 3.83436352481,
			"0.012": 3.36333926066,
			"0.013": 3.40874623962,
			"0.014": 1.28772030869,
			"0.015": 0.102036675444,
			"0.016": 0.760999233619,
			"0.017": 0.458739325282,
			"0.018": 0.543644114127,
			"0.019": 0.0188374792793,
			"0.02": 0.0,
			"0.021": 0.0,
			"0.022": 0.0,
			"0.023": 0.0,
			"0.024": 0.0,
			"0.025": 0.0
		}
	}
}
