{
	 "smiles": "FC(F)(F)COC(=O)NC1=CC=CO1", 
	 "Tm": 352.15, 
	 "num_atms": 20, 
	 "gaussian": { 
		 "optdone": 1, 
		 "sigma_profile": "yes", 
		 "theory": "DFT", 
		 "functional": "B3LYP", 
		 "basiset": "6-31G**", 
		 "properties": { 
			 "R2extent": 3944.8669, 
			 "electric_dipole_moment_norm": 2.1519649486, 
			 "electric_quadrupole_moment_norm": 8.34284770987, 
			 "total_energy": -850.296398989, 
			 "HOMO_LUMO_gap": 0.20988, 
			 "cosmo_polarized_energy": -9.96, 
			 "cosmo_cavitation_energy": 27.18, 
			 "cosmo_dispersion_energy": -19.41, 
			 "cosmo_repulsion_energy": 1.48, 
			 "cosmo_total_nonelectrostatic_energy": 9.25, 
			 "SMD_solvation_energy": 7.97 
		},
		"coords": [
			{
				"x": 1.5338534376,
				"y": 1.2377196026,
				"z": 3.0378865781,
				"element": "F" 
			},
			{
				"x": 1.1723004234,
				"y": 2.1107235405,
				"z": 2.0783585071,
				"element": "C" 
			},
			{
				"x": -0.1717001279,
				"y": 2.1218971758,
				"z": 2.0194435468,
				"element": "F" 
			},
			{
				"x": 1.5922689165,
				"y": 3.3373904822,
				"z": 2.4522379075,
				"element": "F" 
			},
			{
				"x": 1.7849129104,
				"y": 1.7567452027,
				"z": 0.7335493909,
				"element": "C" 
			},
			{
				"x": 1.3306384537,
				"y": 0.4721199466,
				"z": 0.3266212344,
				"element": "O" 
			},
			{
				"x": 0.3741310657,
				"y": 0.4630682646,
				"z": -0.6586782218,
				"element": "C" 
			},
			{
				"x": -0.0150457295,
				"y": 1.4383561184,
				"z": -1.2651855157,
				"element": "O" 
			},
			{
				"x": -0.0389451523,
				"y": -0.8238734079,
				"z": -0.8478397305,
				"element": "N" 
			},
			{
				"x": -0.9834323205,
				"y": -1.2078772246,
				"z": -1.7951599799,
				"element": "C" 
			},
			{
				"x": -1.7310748278,
				"y": -0.5520250082,
				"z": -2.7272995154,
				"element": "C" 
			},
			{
				"x": -2.5064316703,
				"y": -1.5784708072,
				"z": -3.3703095817,
				"element": "C" 
			},
			{
				"x": -2.1727656024,
				"y": -2.757040411,
				"z": -2.7856423073,
				"element": "C" 
			},
			{
				"x": -1.2276283446,
				"y": -2.5432234628,
				"z": -1.8056872752,
				"element": "O" 
			},
			{
				"x": 2.8705257744,
				"y": 1.7122416912,
				"z": 0.8408605052,
				"element": "H" 
			},
			{
				"x": 1.5017256302,
				"y": 2.5145337167,
				"z": 0.0008877306,
				"element": "H" 
			},
			{
				"x": 0.3563626264,
				"y": -1.5468479307,
				"z": -0.2632392984,
				"element": "H" 
			},
			{
				"x": -1.7231304114,
				"y": 0.5079666534,
				"z": -2.9174904107,
				"element": "H" 
			},
			{
				"x": -3.2216281598,
				"y": -1.4404391856,
				"z": -4.1684872308,
				"element": "H" 
			},
			{
				"x": -2.4775368918,
				"y": -3.7820649566,
				"z": -2.918726333,
				"element": "H" 
			}
		],
		 "valence_orbital": [ 
			{
				"type": "occ",
				"energy": -0.33447,
				"method": "rhf"
			},
			{
				"type": "occ",
				"energy": -0.31733,
				"method": "rhf"
			},
			{
				"type": "occ",
				"energy": -0.30037,
				"method": "rhf"
			},
			{
				"type": "occ",
				"energy": -0.28022,
				"method": "rhf"
			},
			{
				"type": "occ",
				"energy": -0.20844,
				"method": "rhf"
			},
			{
				"type": "unocc",
				"energy": 0.00144,
				"method": "rhf"
			},
			{
				"type": "unocc",
				"energy": 0.04403,
				"method": "rhf"
			},
			{
				"type": "unocc",
				"energy": 0.07636,
				"method": "rhf"
			},
			{
				"type": "unocc",
				"energy": 0.08879,
				"method": "rhf"
			},
			{
				"type": "unocc",
				"energy": 0.09454,
				"method": "rhf"
			}
		],
		"cosmo_sigma_profile": { 
			"-0.025": 0.0,
			"-0.024": 0.0,
			"-0.023": 0.0,
			"-0.022": 0.0,
			"-0.021": 0.0,
			"-0.02": 0.0,
			"-0.019": 0.0,
			"-0.018": 0.0,
			"-0.017": 0.326031193071,
			"-0.016": 1.0473466413,
			"-0.015": 0.86324511565,
			"-0.014": 0.579365891483,
			"-0.013": 0.810008703371,
			"-0.012": 0.819581606671,
			"-0.011": 0.69790179103,
			"-0.01": 1.15788221527,
			"-0.009": 4.80261415734,
			"-0.008": 6.5050500542,
			"-0.007": 8.05865483839,
			"-0.006": 8.37656348841,
			"-0.005": 8.09811780478,
			"-0.004": 8.83847807471,
			"-0.003": 9.68753192132,
			"-0.002": 10.9078333232,
			"-0.001": 13.2906235593,
			"0.0": 12.7855668971,
			"0.001": 15.2599889537,
			"0.002": 33.5925382885,
			"0.003": 30.6427574993,
			"0.004": 11.9156718749,
			"0.005": 10.7164158349,
			"0.006": 6.41745878708,
			"0.007": 3.32610026182,
			"0.008": 1.28350991839,
			"0.009": 1.3896907226,
			"0.01": 2.74522436828,
			"0.011": 2.87156318483,
			"0.012": 0.289962323058,
			"0.013": 0.0,
			"0.014": 0.0,
			"0.015": 0.0,
			"0.016": 0.0,
			"0.017": 0.0,
			"0.018": 0.0,
			"0.019": 0.0,
			"0.02": 0.0,
			"0.021": 0.0,
			"0.022": 0.0,
			"0.023": 0.0,
			"0.024": 0.0,
			"0.025": 0.0
		}
	}
}
