{
	 "smiles": "O=S1(=O)CC2=C(N1)C=CC=C2", 
	 "Tm": 397.15, 
	 "num_atms": 18, 
	 "gaussian": { 
		 "optdone": 1, 
		 "sigma_profile": "yes", 
		 "theory": "DFT", 
		 "functional": "B3LYP", 
		 "basiset": "6-31G**", 
		 "properties": { 
			 "R2extent": 2448.8414, 
			 "electric_dipole_moment_norm": 4.28411101747, 
			 "electric_quadrupole_moment_norm": 21.3766899409, 
			 "total_energy": -874.279374866, 
			 "HOMO_LUMO_gap": 0.20781, 
			 "cosmo_polarized_energy": -15.45, 
			 "cosmo_cavitation_energy": 22.96, 
			 "cosmo_dispersion_energy": -18.06, 
			 "cosmo_repulsion_energy": 1.39, 
			 "cosmo_total_nonelectrostatic_energy": 6.29, 
			 "SMD_solvation_energy": 2.7 
		},
		"coords": [
			{
				"x": 2.902082782,
				"y": 0.1752652025,
				"z": -3.3086794743,
				"element": "O" 
			},
			{
				"x": 2.4249687538,
				"y": 0.0619531681,
				"z": -1.9327810125,
				"element": "S" 
			},
			{
				"x": 3.383180572,
				"y": 0.0988381239,
				"z": -0.8236452471,
				"element": "O" 
			},
			{
				"x": 1.2566402663,
				"y": -1.3326968145,
				"z": -1.7162184126,
				"element": "C" 
			},
			{
				"x": 0.1535399061,
				"y": -0.7501025901,
				"z": -0.8758464322,
				"element": "C" 
			},
			{
				"x": 0.1580609196,
				"y": 0.6561903274,
				"z": -0.8692705909,
				"element": "C" 
			},
			{
				"x": 1.1717245572,
				"y": 1.2285468091,
				"z": -1.6688843913,
				"element": "N" 
			},
			{
				"x": -0.7954779995,
				"y": 1.3706598868,
				"z": -0.1445087723,
				"element": "C" 
			},
			{
				"x": -1.7630234603,
				"y": 0.6603617059,
				"z": 0.5694849963,
				"element": "C" 
			},
			{
				"x": -1.7755689725,
				"y": -0.7366242003,
				"z": 0.570831876,
				"element": "C" 
			},
			{
				"x": -0.8102334153,
				"y": -1.4442693078,
				"z": -0.1513229281,
				"element": "C" 
			},
			{
				"x": 1.8082579277,
				"y": -2.1520356521,
				"z": -1.2495365419,
				"element": "H" 
			},
			{
				"x": 0.938651902,
				"y": -1.6223197487,
				"z": -2.7226062634,
				"element": "H" 
			},
			{
				"x": 1.5397535316,
				"y": 2.129636274,
				"z": -1.3759853655,
				"element": "H" 
			},
			{
				"x": -0.7865603632,
				"y": 2.4563586331,
				"z": -0.1405096311,
				"element": "H" 
			},
			{
				"x": -2.5115366137,
				"y": 1.2077316945,
				"z": 1.1346194798,
				"element": "H" 
			},
			{
				"x": -2.5306477879,
				"y": -1.2738451728,
				"z": 1.1354808252,
				"element": "H" 
			},
			{
				"x": -0.8083125057,
				"y": -2.5306483388,
				"z": -0.1467221141,
				"element": "H" 
			}
		],
		 "valence_orbital": [ 
			{
				"type": "occ",
				"energy": -0.31898,
				"method": "rhf"
			},
			{
				"type": "occ",
				"energy": -0.31298,
				"method": "rhf"
			},
			{
				"type": "occ",
				"energy": -0.3002,
				"method": "rhf"
			},
			{
				"type": "occ",
				"energy": -0.26673,
				"method": "rhf"
			},
			{
				"type": "occ",
				"energy": -0.23349,
				"method": "rhf"
			},
			{
				"type": "unocc",
				"energy": -0.02568,
				"method": "rhf"
			},
			{
				"type": "unocc",
				"energy": -0.01068,
				"method": "rhf"
			},
			{
				"type": "unocc",
				"energy": 0.04749,
				"method": "rhf"
			},
			{
				"type": "unocc",
				"energy": 0.05246,
				"method": "rhf"
			},
			{
				"type": "unocc",
				"energy": 0.06328,
				"method": "rhf"
			}
		],
		"cosmo_sigma_profile": { 
			"-0.025": 0.0,
			"-0.024": 0.0,
			"-0.023": 0.0,
			"-0.022": 0.0,
			"-0.021": 0.0,
			"-0.02": 0.0,
			"-0.019": 0.0,
			"-0.018": 0.0,
			"-0.017": 0.205391767687,
			"-0.016": 1.835763485,
			"-0.015": 0.830392294838,
			"-0.014": 0.984039289196,
			"-0.013": 1.70799068099,
			"-0.012": 0.809572443526,
			"-0.011": 1.2688723331,
			"-0.01": 2.24430794345,
			"-0.009": 6.14285997274,
			"-0.008": 5.67857161923,
			"-0.007": 7.95595688201,
			"-0.006": 12.0566861363,
			"-0.005": 14.2984672905,
			"-0.004": 11.3313929622,
			"-0.003": 8.17020718681,
			"-0.002": 7.01093867316,
			"-0.001": 6.30578768246,
			"0.0": 7.85792300683,
			"0.001": 8.4460869133,
			"0.002": 8.7929226121,
			"0.003": 10.388608335,
			"0.004": 11.6181474064,
			"0.005": 9.52295558409,
			"0.006": 2.60138633412,
			"0.007": 2.64500213109,
			"0.008": 4.1695188191,
			"0.009": 5.66990313611,
			"0.01": 11.8730396112,
			"0.011": 10.5619495704,
			"0.012": 0.80662820906,
			"0.013": 0.0,
			"0.014": 0.0,
			"0.015": 0.0,
			"0.016": 0.0,
			"0.017": 0.0,
			"0.018": 0.0,
			"0.019": 0.0,
			"0.02": 0.0,
			"0.021": 0.0,
			"0.022": 0.0,
			"0.023": 0.0,
			"0.024": 0.0,
			"0.025": 0.0
		}
	}
}
