{
	 "smiles": "CC(C)CN1C(=O)C2=C(C=CC=C2)N2C(=O)CCC12C(O)=O", 
	 "Tm": 379.15, 
	 "num_atms": 40, 
	 "gaussian": { 
		 "optdone": 1, 
		 "sigma_profile": "yes", 
		 "theory": "DFT", 
		 "functional": "B3LYP", 
		 "basiset": "6-31G**", 
		 "properties": { 
			 "R2extent": 6376.8529, 
			 "electric_dipole_moment_norm": 1.9833688361, 
			 "electric_quadrupole_moment_norm": 20.02434974, 
			 "total_energy": -1030.99667575, 
			 "HOMO_LUMO_gap": 0.17645, 
			 "cosmo_polarized_energy": -16.69, 
			 "cosmo_cavitation_energy": 39.76, 
			 "cosmo_dispersion_energy": -27.75, 
			 "cosmo_repulsion_energy": 2.06, 
			 "cosmo_total_nonelectrostatic_energy": 14.06, 
			 "SMD_solvation_energy": 7.79 
		},
		"coords": [
			{
				"x": -0.6731342444,
				"y": 2.0135595653,
				"z": -2.9776595529,
				"element": "C" 
			},
			{
				"x": 0.1485802891,
				"y": 0.7182903896,
				"z": -3.0231741085,
				"element": "C" 
			},
			{
				"x": 1.6082251913,
				"y": 0.9943889959,
				"z": -2.634812,
				"element": "C" 
			},
			{
				"x": -0.4946630736,
				"y": -0.4695254752,
				"z": -2.2663041808,
				"element": "C" 
			},
			{
				"x": -0.6371460141,
				"y": -0.3378470595,
				"z": -0.7917635966,
				"element": "N" 
			},
			{
				"x": 0.4270805448,
				"y": -0.8060476047,
				"z": -0.0258828403,
				"element": "C" 
			},
			{
				"x": 1.4852578638,
				"y": -1.1598260113,
				"z": -0.5328255835,
				"element": "O" 
			},
			{
				"x": 0.2425883775,
				"y": -0.7992792504,
				"z": 1.4549351306,
				"element": "C" 
			},
			{
				"x": -0.943856344,
				"y": -0.3303212755,
				"z": 2.054546214,
				"element": "C" 
			},
			{
				"x": -1.0437375425,
				"y": -0.26571669,
				"z": 3.4542251161,
				"element": "C" 
			},
			{
				"x": 0.0361096337,
				"y": -0.6816679063,
				"z": 4.2312176827,
				"element": "C" 
			},
			{
				"x": 1.2104025117,
				"y": -1.1640263811,
				"z": 3.6448190218,
				"element": "C" 
			},
			{
				"x": 1.3084968069,
				"y": -1.2188452638,
				"z": 2.2591148638,
				"element": "C" 
			},
			{
				"x": -1.9926100419,
				"y": 0.0371301616,
				"z": 1.1871866686,
				"element": "N" 
			},
			{
				"x": -3.1556966465,
				"y": 0.737176847,
				"z": 1.5305279187,
				"element": "C" 
			},
			{
				"x": -3.4342011171,
				"y": 1.1468055322,
				"z": 2.640143682,
				"element": "O" 
			},
			{
				"x": -3.9951208143,
				"y": 0.8549196417,
				"z": 0.2690232413,
				"element": "C" 
			},
			{
				"x": -3.0138475347,
				"y": 0.5484870335,
				"z": -0.8652922728,
				"element": "C" 
			},
			{
				"x": -1.994152249,
				"y": -0.4082166382,
				"z": -0.2146286799,
				"element": "C" 
			},
			{
				"x": -2.5129682704,
				"y": -1.8850381056,
				"z": -0.3619002548,
				"element": "C" 
			},
			{
				"x": -2.2045482954,
				"y": -2.7655053985,
				"z": 0.6094738324,
				"element": "O" 
			},
			{
				"x": -3.1257208047,
				"y": -2.238969005,
				"z": -1.3408026449,
				"element": "O" 
			},
			{
				"x": -1.7034444774,
				"y": 1.8618137792,
				"z": -3.3168890402,
				"element": "H" 
			},
			{
				"x": -0.6980092729,
				"y": 2.4320245051,
				"z": -1.9649305524,
				"element": "H" 
			},
			{
				"x": -0.2214851835,
				"y": 2.7706155157,
				"z": -3.6270948007,
				"element": "H" 
			},
			{
				"x": 0.1484139464,
				"y": 0.3725519881,
				"z": -4.0681845949,
				"element": "H" 
			},
			{
				"x": 2.2197967811,
				"y": 0.0918263829,
				"z": -2.6885946709,
				"element": "H" 
			},
			{
				"x": 2.0350210199,
				"y": 1.7491395147,
				"z": -3.3047029523,
				"element": "H" 
			},
			{
				"x": 1.6823580973,
				"y": 1.3780176981,
				"z": -1.6123434006,
				"element": "H" 
			},
			{
				"x": -1.4889950688,
				"y": -0.6627282559,
				"z": -2.6732664706,
				"element": "H" 
			},
			{
				"x": 0.1114158387,
				"y": -1.3613652114,
				"z": -2.4489721424,
				"element": "H" 
			},
			{
				"x": -1.9483397917,
				"y": 0.113371491,
				"z": 3.9069981973,
				"element": "H" 
			},
			{
				"x": -0.0485380749,
				"y": -0.6314832402,
				"z": 5.3128190755,
				"element": "H" 
			},
			{
				"x": 2.0401386815,
				"y": -1.4879486442,
				"z": 4.2647753441,
				"element": "H" 
			},
			{
				"x": 2.2051846361,
				"y": -1.5693637625,
				"z": 1.7601388812,
				"element": "H" 
			},
			{
				"x": -4.8062442339,
				"y": 0.1183593394,
				"z": 0.3244734447,
				"element": "H" 
			},
			{
				"x": -4.4532305629,
				"y": 1.8439739425,
				"z": 0.2128875904,
				"element": "H" 
			},
			{
				"x": -2.4888373104,
				"y": 1.4558397187,
				"z": -1.1619881465,
				"element": "H" 
			},
			{
				"x": -3.481273355,
				"y": 0.0935579444,
				"z": -1.7366151371,
				"element": "H" 
			},
			{
				"x": -1.7099698959,
				"y": -2.3504288073,
				"z": 1.3342217182,
				"element": "H" 
			}
		],
		 "valence_orbital": [ 
			{
				"type": "occ",
				"energy": -0.27676,
				"method": "rhf"
			},
			{
				"type": "occ",
				"energy": -0.27291,
				"method": "rhf"
			},
			{
				"type": "occ",
				"energy": -0.27036,
				"method": "rhf"
			},
			{
				"type": "occ",
				"energy": -0.26294,
				"method": "rhf"
			},
			{
				"type": "occ",
				"energy": -0.24031,
				"method": "rhf"
			},
			{
				"type": "unocc",
				"energy": -0.06386,
				"method": "rhf"
			},
			{
				"type": "unocc",
				"energy": -0.03534,
				"method": "rhf"
			},
			{
				"type": "unocc",
				"energy": -0.01251,
				"method": "rhf"
			},
			{
				"type": "unocc",
				"energy": 0.01548,
				"method": "rhf"
			},
			{
				"type": "unocc",
				"energy": 0.04188,
				"method": "rhf"
			}
		],
		"cosmo_sigma_profile": { 
			"-0.025": 0.0,
			"-0.024": 0.0,
			"-0.023": 0.0,
			"-0.022": 0.0,
			"-0.021": 0.0,
			"-0.02": 0.0,
			"-0.019": 0.0,
			"-0.018": 0.0,
			"-0.017": 0.0,
			"-0.016": 0.0,
			"-0.015": 0.0,
			"-0.014": 0.194129443704,
			"-0.013": 0.611624616897,
			"-0.012": 1.31026404384,
			"-0.011": 1.2771741036,
			"-0.01": 1.64737940684,
			"-0.009": 2.27875442083,
			"-0.008": 2.9952363271,
			"-0.007": 9.17646470618,
			"-0.006": 15.4751711023,
			"-0.005": 21.7317009535,
			"-0.004": 22.5453548885,
			"-0.003": 30.0711106183,
			"-0.002": 28.5068629084,
			"-0.001": 27.9105943876,
			"0.0": 25.5926149818,
			"0.001": 25.1182532696,
			"0.002": 20.5302739952,
			"0.003": 14.7032945487,
			"0.004": 6.2621372368,
			"0.005": 5.88732264089,
			"0.006": 6.91204765163,
			"0.007": 4.72825099722,
			"0.008": 5.94754074766,
			"0.009": 7.93298888531,
			"0.01": 8.08323988598,
			"0.011": 8.26371601544,
			"0.012": 6.38781563761,
			"0.013": 1.89285071652,
			"0.014": 0.0,
			"0.015": 0.0,
			"0.016": 0.0,
			"0.017": 0.0,
			"0.018": 0.0,
			"0.019": 0.0,
			"0.02": 0.0,
			"0.021": 0.0,
			"0.022": 0.0,
			"0.023": 0.0,
			"0.024": 0.0,
			"0.025": 0.0
		}
	}
}
