{
	 "smiles": "CC1CCC2=C(N1)C=C1CCC(C)N(C(=O)C3=CC=CC=C3)C1=C2", 
	 "Tm": 418.15, 
	 "num_atms": 48, 
	 "gaussian": { 
		 "optdone": 1, 
		 "sigma_profile": "yes", 
		 "theory": "DFT", 
		 "functional": "B3LYP", 
		 "basiset": "6-31G**", 
		 "properties": { 
			 "R2extent": 8583.3071, 
			 "electric_dipole_moment_norm": 5.10405594503, 
			 "electric_quadrupole_moment_norm": 15.777560577, 
			 "total_energy": -999.47077817, 
			 "HOMO_LUMO_gap": 0.15575, 
			 "cosmo_polarized_energy": -13.53, 
			 "cosmo_cavitation_energy": 47.28, 
			 "cosmo_dispersion_energy": -31.87, 
			 "cosmo_repulsion_energy": 2.43, 
			 "cosmo_total_nonelectrostatic_energy": 17.85, 
			 "SMD_solvation_energy": 6.58 
		},
		"coords": [
			{
				"x": -1.7186064977,
				"y": 2.8656902366,
				"z": -3.2649787772,
				"element": "C" 
			},
			{
				"x": -0.3337310182,
				"y": 3.1049718483,
				"z": -2.6376304327,
				"element": "C" 
			},
			{
				"x": 0.739137272,
				"y": 2.1282169785,
				"z": -3.1473134244,
				"element": "C" 
			},
			{
				"x": 0.4636091947,
				"y": 0.6929978068,
				"z": -2.6771298811,
				"element": "C" 
			},
			{
				"x": 0.1380711892,
				"y": 0.6366614221,
				"z": -1.1975475254,
				"element": "C" 
			},
			{
				"x": -0.2933631033,
				"y": 1.8009617586,
				"z": -0.5228332968,
				"element": "C" 
			},
			{
				"x": -0.3491033799,
				"y": 3.0313093784,
				"z": -1.1768862656,
				"element": "N" 
			},
			{
				"x": -0.5994442657,
				"y": 1.7234783797,
				"z": 0.8495770579,
				"element": "C" 
			},
			{
				"x": -0.5174322707,
				"y": 0.5218977527,
				"z": 1.5424261437,
				"element": "C" 
			},
			{
				"x": -0.7497878107,
				"y": 0.3733706856,
				"z": 3.0238125826,
				"element": "C" 
			},
			{
				"x": 0.4605908842,
				"y": -0.3789955842,
				"z": 3.6070596382,
				"element": "C" 
			},
			{
				"x": 0.6622001897,
				"y": -1.7695395566,
				"z": 2.9557126186,
				"element": "C" 
			},
			{
				"x": 2.1453085395,
				"y": -2.1374388714,
				"z": 2.83987309,
				"element": "C" 
			},
			{
				"x": -0.0189790775,
				"y": -1.8369371962,
				"z": 1.6306450693,
				"element": "N" 
			},
			{
				"x": -0.4263265148,
				"y": -3.0890349427,
				"z": 1.2129264858,
				"element": "C" 
			},
			{
				"x": -0.0595534592,
				"y": -4.1041025835,
				"z": 1.8074919479,
				"element": "O" 
			},
			{
				"x": -1.3820202544,
				"y": -3.2210821133,
				"z": 0.055101485,
				"element": "C" 
			},
			{
				"x": -1.2479484868,
				"y": -4.3578104353,
				"z": -0.7542283153,
				"element": "C" 
			},
			{
				"x": -2.1490372114,
				"y": -4.60038777,
				"z": -1.7893810757,
				"element": "C" 
			},
			{
				"x": -3.2155986431,
				"y": -3.7251626509,
				"z": -2.0067702194,
				"element": "C" 
			},
			{
				"x": -3.3742745964,
				"y": -2.6074916374,
				"z": -1.1843492358,
				"element": "C" 
			},
			{
				"x": -2.459683788,
				"y": -2.3510054464,
				"z": -0.1631258709,
				"element": "C" 
			},
			{
				"x": -0.0990965003,
				"y": -0.63717449,
				"z": 0.8651202513,
				"element": "C" 
			},
			{
				"x": 0.2535610508,
				"y": -0.5574380507,
				"z": -0.4830396359,
				"element": "C" 
			},
			{
				"x": -2.1068633064,
				"y": 1.8746124176,
				"z": -3.0117350005,
				"element": "H" 
			},
			{
				"x": -1.6734529772,
				"y": 2.9494579196,
				"z": -4.3567498235,
				"element": "H" 
			},
			{
				"x": -2.4392769672,
				"y": 3.6071912204,
				"z": -2.9027668466,
				"element": "H" 
			},
			{
				"x": -0.015531665,
				"y": 4.1229201508,
				"z": -2.8977569337,
				"element": "H" 
			},
			{
				"x": 0.7874286794,
				"y": 2.1712017661,
				"z": -4.2405443055,
				"element": "H" 
			},
			{
				"x": 1.7105884453,
				"y": 2.4595994215,
				"z": -2.7635152345,
				"element": "H" 
			},
			{
				"x": -0.3693319034,
				"y": 0.2674368282,
				"z": -3.2543065883,
				"element": "H" 
			},
			{
				"x": 1.3296575773,
				"y": 0.0569990887,
				"z": -2.8944956984,
				"element": "H" 
			},
			{
				"x": -0.9278112885,
				"y": 3.7232009459,
				"z": -0.720312094,
				"element": "H" 
			},
			{
				"x": -0.8979806915,
				"y": 2.6268714316,
				"z": 1.3784593311,
				"element": "H" 
			},
			{
				"x": -0.8727007303,
				"y": 1.3488057916,
				"z": 3.5050165636,
				"element": "H" 
			},
			{
				"x": -1.6663994656,
				"y": -0.2022440783,
				"z": 3.2156928485,
				"element": "H" 
			},
			{
				"x": 0.3595783263,
				"y": -0.5090286007,
				"z": 4.6902246454,
				"element": "H" 
			},
			{
				"x": 1.3533249249,
				"y": 0.2361600631,
				"z": 3.4428508415,
				"element": "H" 
			},
			{
				"x": 0.1654299833,
				"y": -2.5313871439,
				"z": 3.5618408533,
				"element": "H" 
			},
			{
				"x": 2.2521955768,
				"y": -3.1563212864,
				"z": 2.4632904479,
				"element": "H" 
			},
			{
				"x": 2.6295500782,
				"y": -2.0751204618,
				"z": 3.8210241904,
				"element": "H" 
			},
			{
				"x": 2.6605764767,
				"y": -1.4465901379,
				"z": 2.163339682,
				"element": "H" 
			},
			{
				"x": -0.4370608803,
				"y": -5.0482818222,
				"z": -0.547427829,
				"element": "H" 
			},
			{
				"x": -2.0266725458,
				"y": -5.47763398,
				"z": -2.4183358228,
				"element": "H" 
			},
			{
				"x": -3.9249253037,
				"y": -3.9175821786,
				"z": -2.8069350872,
				"element": "H" 
			},
			{
				"x": -4.2128836535,
				"y": -1.9339127923,
				"z": -1.33695424,
				"element": "H" 
			},
			{
				"x": -2.5888421499,
				"y": -1.4787188416,
				"z": 0.4680614287,
				"element": "H" 
			},
			{
				"x": 0.605512018,
				"y": -1.44709064,
				"z": -0.9973977424,
				"element": "H" 
			}
		],
		 "valence_orbital": [ 
			{
				"type": "occ",
				"energy": -0.24843,
				"method": "rhf"
			},
			{
				"type": "occ",
				"energy": -0.24252,
				"method": "rhf"
			},
			{
				"type": "occ",
				"energy": -0.23295,
				"method": "rhf"
			},
			{
				"type": "occ",
				"energy": -0.2305,
				"method": "rhf"
			},
			{
				"type": "occ",
				"energy": -0.18012,
				"method": "rhf"
			},
			{
				"type": "unocc",
				"energy": -0.02437,
				"method": "rhf"
			},
			{
				"type": "unocc",
				"energy": -0.00223,
				"method": "rhf"
			},
			{
				"type": "unocc",
				"energy": 0.00632,
				"method": "rhf"
			},
			{
				"type": "unocc",
				"energy": 0.01967,
				"method": "rhf"
			},
			{
				"type": "unocc",
				"energy": 0.06493,
				"method": "rhf"
			}
		],
		"cosmo_sigma_profile": { 
			"-0.025": 0.0,
			"-0.024": 0.0,
			"-0.023": 0.0,
			"-0.022": 0.0,
			"-0.021": 0.0,
			"-0.02": 0.0,
			"-0.019": 0.0,
			"-0.018": 0.0,
			"-0.017": 0.0,
			"-0.016": 0.0,
			"-0.015": 0.0,
			"-0.014": 0.0,
			"-0.013": 0.0,
			"-0.012": 0.623818258297,
			"-0.011": 1.27789593485,
			"-0.01": 1.33486945379,
			"-0.009": 1.47320710163,
			"-0.008": 1.69966966319,
			"-0.007": 1.49386203437,
			"-0.006": 6.65479227998,
			"-0.005": 12.5094923166,
			"-0.004": 27.3890948714,
			"-0.003": 47.9447185456,
			"-0.002": 48.4393959588,
			"-0.001": 47.9377370758,
			"0.0": 40.2327380543,
			"0.001": 29.5587089243,
			"0.002": 20.7025907806,
			"0.003": 14.7106129038,
			"0.004": 13.8224107251,
			"0.005": 20.0645090007,
			"0.006": 9.64710756415,
			"0.007": 4.95029531462,
			"0.008": 2.94061071659,
			"0.009": 2.02725603974,
			"0.01": 1.88856102578,
			"0.011": 2.74236307352,
			"0.012": 1.99451427865,
			"0.013": 2.56026882057,
			"0.014": 3.67122908747,
			"0.015": 0.62592148979,
			"0.016": 0.0,
			"0.017": 0.0,
			"0.018": 0.0,
			"0.019": 0.0,
			"0.02": 0.0,
			"0.021": 0.0,
			"0.022": 0.0,
			"0.023": 0.0,
			"0.024": 0.0,
			"0.025": 0.0
		}
	}
}
