{
	 "smiles": "CC1=NC(C)=C(C#N)C(O)=C1", 
	 "Tm": 575.15, 
	 "num_atms": 19, 
	 "gaussian": { 
		 "optdone": 1, 
		 "sigma_profile": "yes", 
		 "theory": "DFT", 
		 "functional": "B3LYP", 
		 "basiset": "6-31G**", 
		 "properties": { 
			 "R2extent": 2702.7331, 
			 "electric_dipole_moment_norm": 5.31574869797, 
			 "electric_quadrupole_moment_norm": 25.7761394499, 
			 "total_energy": -494.393326209, 
			 "HOMO_LUMO_gap": 0.20608, 
			 "cosmo_polarized_energy": -15.84, 
			 "cosmo_cavitation_energy": 24.17, 
			 "cosmo_dispersion_energy": -17.17, 
			 "cosmo_repulsion_energy": 1.4, 
			 "cosmo_total_nonelectrostatic_energy": 8.4, 
			 "SMD_solvation_energy": 4.71 
		},
		"coords": [
			{
				"x": -1.310717247,
				"y": -0.5313587767,
				"z": -0.7427931487,
				"element": "C" 
			},
			{
				"x": 0.0039201599,
				"y": -0.2339684097,
				"z": -0.0665885948,
				"element": "C" 
			},
			{
				"x": 0.286127906,
				"y": -0.9389686959,
				"z": 1.0423359238,
				"element": "N" 
			},
			{
				"x": 1.4404226422,
				"y": -0.7142945309,
				"z": 1.6816830959,
				"element": "C" 
			},
			{
				"x": 1.7082677204,
				"y": -1.5303798201,
				"z": 2.9185820854,
				"element": "C" 
			},
			{
				"x": 2.3778770425,
				"y": 0.2416494418,
				"z": 1.2313340767,
				"element": "C" 
			},
			{
				"x": 3.6013275718,
				"y": 0.460110331,
				"z": 1.933817303,
				"element": "C" 
			},
			{
				"x": 4.589103018,
				"y": 0.612215916,
				"z": 2.5302955036,
				"element": "N" 
			},
			{
				"x": 2.0767731048,
				"y": 0.9781164906,
				"z": 0.0677870508,
				"element": "C" 
			},
			{
				"x": 2.9814793413,
				"y": 1.8879992324,
				"z": -0.3510537249,
				"element": "O" 
			},
			{
				"x": 0.8709772074,
				"y": 0.7319184777,
				"z": -0.5856063992,
				"element": "C" 
			},
			{
				"x": -1.8383725463,
				"y": -1.3087677644,
				"z": -0.1891883241,
				"element": "H" 
			},
			{
				"x": -1.9428452104,
				"y": 0.3626917147,
				"z": -0.7877976083,
				"element": "H" 
			},
			{
				"x": -1.1567861394,
				"y": -0.8722995788,
				"z": -1.7728440582,
				"element": "H" 
			},
			{
				"x": 2.6271314411,
				"y": -2.1172603914,
				"z": 2.8130647903,
				"element": "H" 
			},
			{
				"x": 1.8434585113,
				"y": -0.8867831271,
				"z": 3.7945865935,
				"element": "H" 
			},
			{
				"x": 0.8687896047,
				"y": -2.203796106,
				"z": 3.092564606,
				"element": "H" 
			},
			{
				"x": 2.6605147172,
				"y": 2.3230876026,
				"z": -1.1526418447,
				"element": "H" 
			},
			{
				"x": 0.6096511544,
				"y": 1.2833879943,
				"z": -1.4854373263,
				"element": "H" 
			}
		],
		 "valence_orbital": [ 
			{
				"type": "occ",
				"energy": -0.34896,
				"method": "rhf"
			},
			{
				"type": "occ",
				"energy": -0.33006,
				"method": "rhf"
			},
			{
				"type": "occ",
				"energy": -0.269,
				"method": "rhf"
			},
			{
				"type": "occ",
				"energy": -0.26679,
				"method": "rhf"
			},
			{
				"type": "occ",
				"energy": -0.25727,
				"method": "rhf"
			},
			{
				"type": "unocc",
				"energy": -0.05119,
				"method": "rhf"
			},
			{
				"type": "unocc",
				"energy": -0.02078,
				"method": "rhf"
			},
			{
				"type": "unocc",
				"energy": 0.03454,
				"method": "rhf"
			},
			{
				"type": "unocc",
				"energy": 0.04996,
				"method": "rhf"
			},
			{
				"type": "unocc",
				"energy": 0.0684,
				"method": "rhf"
			}
		],
		"cosmo_sigma_profile": { 
			"-0.025": 0.0,
			"-0.024": 0.0,
			"-0.023": 0.0,
			"-0.022": 0.0,
			"-0.021": 0.0,
			"-0.02": 0.143621138302,
			"-0.019": 1.29209923018,
			"-0.018": 1.18081229064,
			"-0.017": 1.12587421637,
			"-0.016": 1.46981034925,
			"-0.015": 0.777862007785,
			"-0.014": 0.773943018236,
			"-0.013": 0.953606576068,
			"-0.012": 1.16981730471,
			"-0.011": 1.13817842631,
			"-0.01": 0.844658224349,
			"-0.009": 1.33807537443,
			"-0.008": 1.81168987893,
			"-0.007": 2.09256502012,
			"-0.006": 4.39057487355,
			"-0.005": 11.3701793627,
			"-0.004": 14.6522050869,
			"-0.003": 13.3558521471,
			"-0.002": 15.3919849252,
			"-0.001": 26.009364841,
			"0.0": 20.4920387656,
			"0.001": 9.7135694245,
			"0.002": 6.96758007328,
			"0.003": 5.14894358531,
			"0.004": 5.03245204672,
			"0.005": 4.52164831836,
			"0.006": 6.99925947834,
			"0.007": 5.72008537973,
			"0.008": 6.91915117666,
			"0.009": 5.55702472305,
			"0.01": 4.01557805346,
			"0.011": 3.5547150575,
			"0.012": 3.63041498555,
			"0.013": 2.59649059359,
			"0.014": 0.719305698665,
			"0.015": 0.180170432626,
			"0.016": 0.0,
			"0.017": 0.0,
			"0.018": 0.0,
			"0.019": 0.0,
			"0.02": 0.0,
			"0.021": 0.0,
			"0.022": 0.0,
			"0.023": 0.0,
			"0.024": 0.0,
			"0.025": 0.0
		}
	}
}
