{
	 "smiles": "CS(=O)(=O)NC1=CC(=CC=C1)C#N", 
	 "Tm": 428.15, 
	 "num_atms": 21, 
	 "gaussian": { 
		 "optdone": 1, 
		 "sigma_profile": "yes", 
		 "theory": "DFT", 
		 "functional": "B3LYP", 
		 "basiset": "6-31G**", 
		 "properties": { 
			 "R2extent": 3341.0584, 
			 "electric_dipole_moment_norm": 2.79640998604, 
			 "electric_quadrupole_moment_norm": 27.8183233796, 
			 "total_energy": -967.72714065, 
			 "HOMO_LUMO_gap": 0.19269, 
			 "cosmo_polarized_energy": -20.54, 
			 "cosmo_cavitation_energy": 27.93, 
			 "cosmo_dispersion_energy": -20.12, 
			 "cosmo_repulsion_energy": 1.54, 
			 "cosmo_total_nonelectrostatic_energy": 9.35, 
			 "SMD_solvation_energy": 5.9 
		},
		"coords": [
			{
				"x": -1.9412694521,
				"y": 1.8794572149,
				"z": -0.7998338255,
				"element": "C" 
			},
			{
				"x": -1.9572616517,
				"y": 0.0760171187,
				"z": -0.8726969431,
				"element": "S" 
			},
			{
				"x": -3.1557986295,
				"y": -0.411786864,
				"z": -0.1956538521,
				"element": "O" 
			},
			{
				"x": -1.6263556109,
				"y": -0.3061989762,
				"z": -2.2435831316,
				"element": "O" 
			},
			{
				"x": -0.6865532564,
				"y": -0.4154292963,
				"z": 0.1367980518,
				"element": "N" 
			},
			{
				"x": 0.6725688804,
				"y": -0.0575513714,
				"z": -0.0251894724,
				"element": "C" 
			},
			{
				"x": 1.4224819102,
				"y": 0.2707047186,
				"z": 1.1098452597,
				"element": "C" 
			},
			{
				"x": 2.7850542738,
				"y": 0.57896059,
				"z": 0.9852394373,
				"element": "C" 
			},
			{
				"x": 3.3997732984,
				"y": 0.5873368868,
				"z": -0.2765874022,
				"element": "C" 
			},
			{
				"x": 2.6391672653,
				"y": 0.2679845414,
				"z": -1.3989539727,
				"element": "C" 
			},
			{
				"x": 1.2905082139,
				"y": -0.0674605237,
				"z": -1.2869036668,
				"element": "C" 
			},
			{
				"x": 3.5439048411,
				"y": 0.9037905945,
				"z": 2.1589611714,
				"element": "C" 
			},
			{
				"x": 4.1574039025,
				"y": 1.1699107938,
				"z": 3.1105673494,
				"element": "N" 
			},
			{
				"x": -2.7111962242,
				"y": 2.2292016314,
				"z": -1.4897404983,
				"element": "H" 
			},
			{
				"x": -0.9607769651,
				"y": 2.2385912411,
				"z": -1.1160069085,
				"element": "H" 
			},
			{
				"x": -2.1693498794,
				"y": 2.1958867485,
				"z": 0.2185985196,
				"element": "H" 
			},
			{
				"x": -1.0149195065,
				"y": -0.531323715,
				"z": 1.0891533547,
				"element": "H" 
			},
			{
				"x": 0.9581098659,
				"y": 0.2843888024,
				"z": 2.0911682079,
				"element": "H" 
			},
			{
				"x": 4.4516165229,
				"y": 0.8347039266,
				"z": -0.3638782176,
				"element": "H" 
			},
			{
				"x": 3.1059140271,
				"y": 0.2601389373,
				"z": -2.3789401433,
				"element": "H" 
			},
			{
				"x": 0.7139781743,
				"y": -0.3466229993,
				"z": -2.1603633177,
				"element": "H" 
			}
		],
		 "valence_orbital": [ 
			{
				"type": "occ",
				"energy": -0.33245,
				"method": "rhf"
			},
			{
				"type": "occ",
				"energy": -0.32327,
				"method": "rhf"
			},
			{
				"type": "occ",
				"energy": -0.31871,
				"method": "rhf"
			},
			{
				"type": "occ",
				"energy": -0.28057,
				"method": "rhf"
			},
			{
				"type": "occ",
				"energy": -0.25565,
				"method": "rhf"
			},
			{
				"type": "unocc",
				"energy": -0.06296,
				"method": "rhf"
			},
			{
				"type": "unocc",
				"energy": -0.03533,
				"method": "rhf"
			},
			{
				"type": "unocc",
				"energy": 0.02672,
				"method": "rhf"
			},
			{
				"type": "unocc",
				"energy": 0.04039,
				"method": "rhf"
			},
			{
				"type": "unocc",
				"energy": 0.05086,
				"method": "rhf"
			}
		],
		"cosmo_sigma_profile": { 
			"-0.025": 0.0,
			"-0.024": 0.0,
			"-0.023": 0.0,
			"-0.022": 0.0,
			"-0.021": 0.0,
			"-0.02": 0.0,
			"-0.019": 0.0,
			"-0.018": 0.0,
			"-0.017": 0.173631917989,
			"-0.016": 1.28800687745,
			"-0.015": 1.01968601889,
			"-0.014": 1.33243430724,
			"-0.013": 1.67616984345,
			"-0.012": 1.32450640866,
			"-0.011": 1.39015740776,
			"-0.01": 2.41952048149,
			"-0.009": 5.61748506925,
			"-0.008": 9.14048502836,
			"-0.007": 12.1943921915,
			"-0.006": 14.7372240028,
			"-0.005": 13.8946680519,
			"-0.004": 12.8978217514,
			"-0.003": 10.4483983906,
			"-0.002": 9.90950183264,
			"-0.001": 12.5190426834,
			"0.0": 11.7889382854,
			"0.001": 13.514166588,
			"0.002": 14.4499783661,
			"0.003": 8.45566619328,
			"0.004": 5.92716218669,
			"0.005": 5.62172943099,
			"0.006": 5.09959354246,
			"0.007": 6.22880824489,
			"0.008": 6.62467099527,
			"0.009": 7.40362401413,
			"0.01": 11.4500825305,
			"0.011": 11.4818077357,
			"0.012": 3.45911328468,
			"0.013": 1.24385664125,
			"0.014": 0.0232997928582,
			"0.015": 0.0,
			"0.016": 0.0,
			"0.017": 0.0,
			"0.018": 0.0,
			"0.019": 0.0,
			"0.02": 0.0,
			"0.021": 0.0,
			"0.022": 0.0,
			"0.023": 0.0,
			"0.024": 0.0,
			"0.025": 0.0
		}
	}
}
