{
	 "smiles": "CC(C)(OC1=CC=C(Cl)C=C1)C(O)=O", 
	 "Tm": 392.15, 
	 "num_atms": 25, 
	 "gaussian": { 
		 "optdone": 1, 
		 "sigma_profile": "yes", 
		 "theory": "DFT", 
		 "functional": "B3LYP", 
		 "basiset": "6-31G**", 
		 "properties": { 
			 "R2extent": 4562.5502, 
			 "electric_dipole_moment_norm": 3.21964686573, 
			 "electric_quadrupole_moment_norm": 11.0760815264, 
			 "total_energy": -1073.56574563, 
			 "HOMO_LUMO_gap": 0.21756, 
			 "cosmo_polarized_energy": -11.72, 
			 "cosmo_cavitation_energy": 30.32, 
			 "cosmo_dispersion_energy": -21.4, 
			 "cosmo_repulsion_energy": 1.68, 
			 "cosmo_total_nonelectrostatic_energy": 10.6, 
			 "SMD_solvation_energy": 6.13 
		},
		"coords": [
			{
				"x": -0.7651345524,
				"y": -1.1160068838,
				"z": 0.5294686634,
				"element": "C" 
			},
			{
				"x": 0.0311724734,
				"y": 0.0142404136,
				"z": 1.1748890251,
				"element": "C" 
			},
			{
				"x": 0.8306571418,
				"y": -0.4800658721,
				"z": 2.38824055,
				"element": "C" 
			},
			{
				"x": 1.0411554228,
				"y": 0.59631036,
				"z": 0.2883291603,
				"element": "O" 
			},
			{
				"x": 0.8282968915,
				"y": 0.6484926,
				"z": -1.0826471334,
				"element": "C" 
			},
			{
				"x": 1.6974261803,
				"y": -0.0812749154,
				"z": -1.89610509,
				"element": "C" 
			},
			{
				"x": 1.5840200015,
				"y": -0.0122735271,
				"z": -3.2838096996,
				"element": "C" 
			},
			{
				"x": 0.5885469931,
				"y": 0.7854309268,
				"z": -3.8480014113,
				"element": "C" 
			},
			{
				"x": 0.434398318,
				"y": 0.8708044251,
				"z": -5.5958506242,
				"element": "Cl" 
			},
			{
				"x": -0.2828888784,
				"y": 1.5203895644,
				"z": -3.0446168003,
				"element": "C" 
			},
			{
				"x": -0.1585660569,
				"y": 1.4568094624,
				"z": -1.6564290193,
				"element": "C" 
			},
			{
				"x": -0.9108820232,
				"y": 1.1407025933,
				"z": 1.6629982746,
				"element": "C" 
			},
			{
				"x": -0.4117667009,
				"y": 2.3864419358,
				"z": 1.5224436028,
				"element": "O" 
			},
			{
				"x": -1.9805014912,
				"y": 0.927865661,
				"z": 2.17902434,
				"element": "O" 
			},
			{
				"x": -1.3107710175,
				"y": -0.780185196,
				"z": -0.354622729,
				"element": "H" 
			},
			{
				"x": -1.4941974595,
				"y": -1.483851337,
				"z": 1.2531838348,
				"element": "H" 
			},
			{
				"x": -0.0980210934,
				"y": -1.9331349998,
				"z": 0.2415961626,
				"element": "H" 
			},
			{
				"x": 1.4344345032,
				"y": 0.3297143955,
				"z": 2.8074143956,
				"element": "H" 
			},
			{
				"x": 0.1497345134,
				"y": -0.8451053943,
				"z": 3.160708689,
				"element": "H" 
			},
			{
				"x": 1.4990844981,
				"y": -1.2896738675,
				"z": 2.0835722145,
				"element": "H" 
			},
			{
				"x": 2.4632797987,
				"y": -0.6928026339,
				"z": -1.430943053,
				"element": "H" 
			},
			{
				"x": 2.2577415216,
				"y": -0.5741798989,
				"z": -3.9210079956,
				"element": "H" 
			},
			{
				"x": -1.0460687581,
				"y": 2.1430217162,
				"z": -3.4979884339,
				"element": "H" 
			},
			{
				"x": -0.8201433008,
				"y": 2.0447827645,
				"z": -1.0294101218,
				"element": "H" 
			},
			{
				"x": 0.4515930749,
				"y": 2.2931477072,
				"z": 1.0772631986,
				"element": "H" 
			}
		],
		 "valence_orbital": [ 
			{
				"type": "occ",
				"energy": -0.32025,
				"method": "rhf"
			},
			{
				"type": "occ",
				"energy": -0.3184,
				"method": "rhf"
			},
			{
				"type": "occ",
				"energy": -0.27759,
				"method": "rhf"
			},
			{
				"type": "occ",
				"energy": -0.26604,
				"method": "rhf"
			},
			{
				"type": "occ",
				"energy": -0.24817,
				"method": "rhf"
			},
			{
				"type": "unocc",
				"energy": -0.03061,
				"method": "rhf"
			},
			{
				"type": "unocc",
				"energy": -0.02289,
				"method": "rhf"
			},
			{
				"type": "unocc",
				"energy": 0.00369,
				"method": "rhf"
			},
			{
				"type": "unocc",
				"energy": 0.0217,
				"method": "rhf"
			},
			{
				"type": "unocc",
				"energy": 0.0746,
				"method": "rhf"
			}
		],
		"cosmo_sigma_profile": { 
			"-0.025": 0.0,
			"-0.024": 0.0,
			"-0.023": 0.0,
			"-0.022": 0.0,
			"-0.021": 0.0,
			"-0.02": 0.0,
			"-0.019": 0.0,
			"-0.018": 0.0,
			"-0.017": 0.0,
			"-0.016": 0.0,
			"-0.015": 0.117690785799,
			"-0.014": 0.566544331177,
			"-0.013": 0.272129912534,
			"-0.012": 0.898046718228,
			"-0.011": 1.05648898782,
			"-0.01": 1.15885306624,
			"-0.009": 1.25571468684,
			"-0.008": 1.93251046294,
			"-0.007": 8.91738464449,
			"-0.006": 10.6484965275,
			"-0.005": 16.7676565358,
			"-0.004": 18.1495234434,
			"-0.003": 19.3298724311,
			"-0.002": 19.2984069742,
			"-0.001": 21.8129260393,
			"0.0": 16.3466234553,
			"0.001": 15.4717228848,
			"0.002": 20.3466534913,
			"0.003": 18.3904691006,
			"0.004": 12.5665274948,
			"0.005": 9.03832091507,
			"0.006": 2.94986461953,
			"0.007": 3.22490851234,
			"0.008": 3.92618383907,
			"0.009": 3.91205006161,
			"0.01": 4.66928076782,
			"0.011": 4.98341227309,
			"0.012": 3.91407531762,
			"0.013": 0.79562986669,
			"0.014": 0.0,
			"0.015": 0.0,
			"0.016": 0.0,
			"0.017": 0.0,
			"0.018": 0.0,
			"0.019": 0.0,
			"0.02": 0.0,
			"0.021": 0.0,
			"0.022": 0.0,
			"0.023": 0.0,
			"0.024": 0.0,
			"0.025": 0.0
		}
	}
}
