{
	 "smiles": "NC(=NO)C1=CC=CC(=C1)C(F)(F)F", 
	 "Tm": 358.15, 
	 "num_atms": 21, 
	 "gaussian": { 
		 "optdone": 1, 
		 "sigma_profile": "yes", 
		 "theory": "DFT", 
		 "functional": "B3LYP", 
		 "basiset": "6-31G**", 
		 "properties": { 
			 "R2extent": 4182.1835, 
			 "electric_dipole_moment_norm": 2.76966246319, 
			 "electric_quadrupole_moment_norm": 9.43142751125, 
			 "total_energy": -793.268926778, 
			 "HOMO_LUMO_gap": 0.17483, 
			 "cosmo_polarized_energy": -11.01, 
			 "cosmo_cavitation_energy": 27.13, 
			 "cosmo_dispersion_energy": -19.38, 
			 "cosmo_repulsion_energy": 1.5, 
			 "cosmo_total_nonelectrostatic_energy": 9.24, 
			 "SMD_solvation_energy": 5.94 
		},
		"coords": [
			{
				"x": -1.3392950278,
				"y": -3.733805933,
				"z": 0.8145886733,
				"element": "N" 
			},
			{
				"x": -1.6200013452,
				"y": -2.3638212306,
				"z": 0.7357128911,
				"element": "C" 
			},
			{
				"x": -2.8712815009,
				"y": -2.0464072737,
				"z": 0.7461151646,
				"element": "N" 
			},
			{
				"x": -3.1043783698,
				"y": -0.6805729245,
				"z": 0.4661887203,
				"element": "O" 
			},
			{
				"x": -0.4353008447,
				"y": -1.477014799,
				"z": 0.5904909046,
				"element": "C" 
			},
			{
				"x": -0.4114321848,
				"y": -0.1716214891,
				"z": 1.1105795173,
				"element": "C" 
			},
			{
				"x": 0.7341756067,
				"y": 0.6121261024,
				"z": 0.991083222,
				"element": "C" 
			},
			{
				"x": 1.8695687499,
				"y": 0.1163476586,
				"z": 0.3505673041,
				"element": "C" 
			},
			{
				"x": 1.8515181142,
				"y": -1.1792318098,
				"z": -0.1705572906,
				"element": "C" 
			},
			{
				"x": 0.7105186588,
				"y": -1.9730003433,
				"z": -0.0491789902,
				"element": "C" 
			},
			{
				"x": 3.0871630404,
				"y": -1.7490139641,
				"z": -0.8139164864,
				"element": "C" 
			},
			{
				"x": 3.8571865685,
				"y": -0.7864049332,
				"z": -1.3677823845,
				"element": "F" 
			},
			{
				"x": 2.7872316549,
				"y": -2.6399271997,
				"z": -1.7841046865,
				"element": "F" 
			},
			{
				"x": 3.8618038987,
				"y": -2.3995512963,
				"z": 0.0876487557,
				"element": "F" 
			},
			{
				"x": -2.1816541038,
				"y": -4.2797956986,
				"z": 0.9576931546,
				"element": "H" 
			},
			{
				"x": -0.6167216271,
				"y": -3.9692383282,
				"z": 1.4856632182,
				"element": "H" 
			},
			{
				"x": -4.0693785177,
				"y": -0.6484555912,
				"z": 0.4701988285,
				"element": "H" 
			},
			{
				"x": -1.2936809737,
				"y": 0.2216391958,
				"z": 1.5979306097,
				"element": "H" 
			},
			{
				"x": 0.7410041617,
				"y": 1.618950417,
				"z": 1.3972850281,
				"element": "H" 
			},
			{
				"x": 2.75825218,
				"y": 0.729267391,
				"z": 0.2461415032,
				"element": "H" 
			},
			{
				"x": 0.6960018615,
				"y": -2.9716679505,
				"z": -0.4699476572,
				"element": "H" 
			}
		],
		 "valence_orbital": [ 
			{
				"type": "occ",
				"energy": -0.32688,
				"method": "rhf"
			},
			{
				"type": "occ",
				"energy": -0.27424,
				"method": "rhf"
			},
			{
				"type": "occ",
				"energy": -0.27012,
				"method": "rhf"
			},
			{
				"type": "occ",
				"energy": -0.26751,
				"method": "rhf"
			},
			{
				"type": "occ",
				"energy": -0.21762,
				"method": "rhf"
			},
			{
				"type": "unocc",
				"energy": -0.04279,
				"method": "rhf"
			},
			{
				"type": "unocc",
				"energy": -0.02517,
				"method": "rhf"
			},
			{
				"type": "unocc",
				"energy": 0.04468,
				"method": "rhf"
			},
			{
				"type": "unocc",
				"energy": 0.07117,
				"method": "rhf"
			},
			{
				"type": "unocc",
				"energy": 0.08909,
				"method": "rhf"
			}
		],
		"cosmo_sigma_profile": { 
			"-0.025": 0.0,
			"-0.024": 0.0,
			"-0.023": 0.0,
			"-0.022": 0.0,
			"-0.021": 0.0,
			"-0.02": 0.0,
			"-0.019": 0.0,
			"-0.018": 0.00496088814696,
			"-0.017": 0.532070890166,
			"-0.016": 0.976769165847,
			"-0.015": 0.753039364248,
			"-0.014": 0.965705334082,
			"-0.013": 1.72862348833,
			"-0.012": 3.0093837543,
			"-0.011": 2.73340447773,
			"-0.01": 2.27154738272,
			"-0.009": 3.18179831404,
			"-0.008": 4.04049250461,
			"-0.007": 5.13620306567,
			"-0.006": 7.60665484262,
			"-0.005": 9.21040082186,
			"-0.004": 9.98135032845,
			"-0.003": 9.29191892639,
			"-0.002": 8.62628853155,
			"-0.001": 11.7584562875,
			"0.0": 14.6177041406,
			"0.001": 17.2130029027,
			"0.002": 29.5258222836,
			"0.003": 37.0553607618,
			"0.004": 7.52668757657,
			"0.005": 5.07945187044,
			"0.006": 4.74411752523,
			"0.007": 4.32231325203,
			"0.008": 4.23668647301,
			"0.009": 2.9962459739,
			"0.01": 2.51231630267,
			"0.011": 2.07094634725,
			"0.012": 1.8275909131,
			"0.013": 0.666951711805,
			"0.014": 0.248219174931,
			"0.015": 0.0,
			"0.016": 0.0,
			"0.017": 0.0,
			"0.018": 0.0,
			"0.019": 0.0,
			"0.02": 0.0,
			"0.021": 0.0,
			"0.022": 0.0,
			"0.023": 0.0,
			"0.024": 0.0,
			"0.025": 0.0
		}
	}
}
