{
	 "smiles": "COCCOC1=CC=C(C=C1)C(C)=O", 
	 "Tm": 312.15, 
	 "num_atms": 28, 
	 "gaussian": { 
		 "optdone": 1, 
		 "sigma_profile": "yes", 
		 "theory": "DFT", 
		 "functional": "B3LYP", 
		 "basiset": "6-31G**", 
		 "properties": { 
			 "R2extent": 4378.9917, 
			 "electric_dipole_moment_norm": 5.81613554691, 
			 "electric_quadrupole_moment_norm": 5.7669708886, 
			 "total_energy": -653.257972109, 
			 "HOMO_LUMO_gap": 0.18389, 
			 "cosmo_polarized_energy": -11.81, 
			 "cosmo_cavitation_energy": 31.54, 
			 "cosmo_dispersion_energy": -22.73, 
			 "cosmo_repulsion_energy": 1.82, 
			 "cosmo_total_nonelectrostatic_energy": 10.63, 
			 "SMD_solvation_energy": 7.0 
		},
		"coords": [
			{
				"x": -2.9563836826,
				"y": -4.10485248,
				"z": 0.7549017852,
				"element": "C" 
			},
			{
				"x": -2.9813010418,
				"y": -2.6925950997,
				"z": 0.7009669926,
				"element": "O" 
			},
			{
				"x": -4.020121069,
				"y": -2.1881091195,
				"z": -0.1115476829,
				"element": "C" 
			},
			{
				"x": -3.9282784796,
				"y": -0.673369729,
				"z": -0.1975195814,
				"element": "C" 
			},
			{
				"x": -2.9093169491,
				"y": -0.21906864,
				"z": -1.0888443605,
				"element": "O" 
			},
			{
				"x": -1.6900275324,
				"y": 0.1792359672,
				"z": -0.6247917731,
				"element": "C" 
			},
			{
				"x": -1.1675909686,
				"y": -0.1367679919,
				"z": 0.6363158785,
				"element": "C" 
			},
			{
				"x": 0.0916712752,
				"y": 0.3442875525,
				"z": 0.9922475707,
				"element": "C" 
			},
			{
				"x": 0.852330309,
				"y": 1.1289090547,
				"z": 0.1141490705,
				"element": "C" 
			},
			{
				"x": 0.3156401929,
				"y": 1.420840592,
				"z": -1.1536834562,
				"element": "C" 
			},
			{
				"x": -0.9362423751,
				"y": 0.9582049154,
				"z": -1.5204247057,
				"element": "C" 
			},
			{
				"x": 2.2026924576,
				"y": 1.6622878447,
				"z": 0.4546337631,
				"element": "C" 
			},
			{
				"x": 2.7907542918,
				"y": 1.3540732873,
				"z": 1.824214487,
				"element": "C" 
			},
			{
				"x": 2.8338059842,
				"y": 2.3379011273,
				"z": -0.3476479883,
				"element": "O" 
			},
			{
				"x": -3.8879892331,
				"y": -4.5126298295,
				"z": 1.1777565568,
				"element": "H" 
			},
			{
				"x": -2.1211559952,
				"y": -4.3899372718,
				"z": 1.3982684701,
				"element": "H" 
			},
			{
				"x": -2.8059615192,
				"y": -4.5465403157,
				"z": -0.2418686199,
				"element": "H" 
			},
			{
				"x": -5.0061392029,
				"y": -2.4556394136,
				"z": 0.3085984875,
				"element": "H" 
			},
			{
				"x": -3.966988887,
				"y": -2.6098784538,
				"z": -1.1283228166,
				"element": "H" 
			},
			{
				"x": -3.801807847,
				"y": -0.2392142532,
				"z": 0.800429414,
				"element": "H" 
			},
			{
				"x": -4.8663014104,
				"y": -0.2962876356,
				"z": -0.6189354325,
				"element": "H" 
			},
			{
				"x": -1.7106036112,
				"y": -0.7891615913,
				"z": 1.3077125429,
				"element": "H" 
			},
			{
				"x": 0.4827566776,
				"y": 0.0859547174,
				"z": 1.9714302056,
				"element": "H" 
			},
			{
				"x": 0.9076119625,
				"y": 2.0264752797,
				"z": -1.8317812046,
				"element": "H" 
			},
			{
				"x": -1.3636137165,
				"y": 1.187535385,
				"z": -2.491174301,
				"element": "H" 
			},
			{
				"x": 2.8951728774,
				"y": 0.2737899612,
				"z": 1.9745196259,
				"element": "H" 
			},
			{
				"x": 3.7718503621,
				"y": 1.8246443522,
				"z": 1.8945646375,
				"element": "H" 
			},
			{
				"x": 2.1472371303,
				"y": 1.7343117879,
				"z": 2.6252324348,
				"element": "H" 
			}
		],
		 "valence_orbital": [ 
			{
				"type": "occ",
				"energy": -0.30924,
				"method": "rhf"
			},
			{
				"type": "occ",
				"energy": -0.27146,
				"method": "rhf"
			},
			{
				"type": "occ",
				"energy": -0.25213,
				"method": "rhf"
			},
			{
				"type": "occ",
				"energy": -0.23541,
				"method": "rhf"
			},
			{
				"type": "occ",
				"energy": -0.22248,
				"method": "rhf"
			},
			{
				"type": "unocc",
				"energy": -0.03859,
				"method": "rhf"
			},
			{
				"type": "unocc",
				"energy": -0.00128,
				"method": "rhf"
			},
			{
				"type": "unocc",
				"energy": 0.05677,
				"method": "rhf"
			},
			{
				"type": "unocc",
				"energy": 0.07942,
				"method": "rhf"
			},
			{
				"type": "unocc",
				"energy": 0.09706,
				"method": "rhf"
			}
		],
		"cosmo_sigma_profile": { 
			"-0.025": 0.0,
			"-0.024": 0.0,
			"-0.023": 0.0,
			"-0.022": 0.0,
			"-0.021": 0.0,
			"-0.02": 0.0,
			"-0.019": 0.0,
			"-0.018": 0.0,
			"-0.017": 0.0,
			"-0.016": 0.0,
			"-0.015": 0.0,
			"-0.014": 0.0,
			"-0.013": 0.0,
			"-0.012": 0.0,
			"-0.011": 0.0,
			"-0.01": 0.0,
			"-0.009": 0.0,
			"-0.008": 0.0,
			"-0.007": 1.26538387145,
			"-0.006": 13.4959126328,
			"-0.005": 22.4394722214,
			"-0.004": 32.7507656936,
			"-0.003": 27.4825282918,
			"-0.002": 25.6056150567,
			"-0.001": 16.2707972092,
			"0.0": 13.3130445756,
			"0.001": 10.8149412149,
			"0.002": 12.9247449676,
			"0.003": 15.6760675743,
			"0.004": 17.642636271,
			"0.005": 8.11322568245,
			"0.006": 5.31295165552,
			"0.007": 4.81242563819,
			"0.008": 5.11803893866,
			"0.009": 3.18382816699,
			"0.01": 2.57639917179,
			"0.011": 2.63207823913,
			"0.012": 4.13777888389,
			"0.013": 2.88041705727,
			"0.014": 0.794466433766,
			"0.015": 0.0,
			"0.016": 0.0,
			"0.017": 0.0,
			"0.018": 0.0,
			"0.019": 0.0,
			"0.02": 0.0,
			"0.021": 0.0,
			"0.022": 0.0,
			"0.023": 0.0,
			"0.024": 0.0,
			"0.025": 0.0
		}
	}
}
