{
	 "smiles": "CN1N(C(=O)C(NN=C(C#N)C2=NC(=CS2)C2=CC=CC=C2)=C1C)C1=CC=CC=C1", 
	 "Tm": 499.15, 
	 "num_atms": 48, 
	 "gaussian": { 
		 "optdone": 1, 
		 "sigma_profile": "yes", 
		 "theory": "DFT", 
		 "functional": "B3LYP", 
		 "basiset": "6-31G**", 
		 "properties": { 
			 "R2extent": 21592.5202, 
			 "electric_dipole_moment_norm": 5.50830665268, 
			 "electric_quadrupole_moment_norm": 36.5656185782, 
			 "total_energy": -1651.02527089, 
			 "HOMO_LUMO_gap": 0.12496, 
			 "cosmo_polarized_energy": -22.57, 
			 "cosmo_cavitation_energy": 55.71, 
			 "cosmo_dispersion_energy": -38.76, 
			 "cosmo_repulsion_energy": 2.83, 
			 "cosmo_total_nonelectrostatic_energy": 19.78, 
			 "SMD_solvation_energy": 9.61 
		},
		"coords": [
			{
				"x": 4.1157227304,
				"y": 3.3785120634,
				"z": -0.2130694934,
				"element": "C" 
			},
			{
				"x": 2.6972502063,
				"y": 3.1528244138,
				"z": -0.5417147785,
				"element": "N" 
			},
			{
				"x": 1.8145825468,
				"y": 3.763199756,
				"z": 0.381072642,
				"element": "N" 
			},
			{
				"x": 0.7931755271,
				"y": 2.8728799029,
				"z": 0.7281470474,
				"element": "C" 
			},
			{
				"x": -0.1944478013,
				"y": 3.1021897026,
				"z": 1.4218503125,
				"element": "O" 
			},
			{
				"x": 1.1390195061,
				"y": 1.6331335786,
				"z": 0.0461104585,
				"element": "C" 
			},
			{
				"x": 0.2471419174,
				"y": 0.5754475712,
				"z": 0.1817253302,
				"element": "N" 
			},
			{
				"x": 0.5490059237,
				"y": -0.6418440929,
				"z": -0.2342443459,
				"element": "N" 
			},
			{
				"x": -0.2683261563,
				"y": -1.6545619182,
				"z": -0.0888474821,
				"element": "C" 
			},
			{
				"x": 0.2573597382,
				"y": -2.9047689699,
				"z": -0.5706646862,
				"element": "C" 
			},
			{
				"x": 0.6964035302,
				"y": -3.9047914164,
				"z": -0.9700641617,
				"element": "N" 
			},
			{
				"x": -1.6157149689,
				"y": -1.7070924072,
				"z": 0.4850698472,
				"element": "C" 
			},
			{
				"x": -2.1839755306,
				"y": -2.8392709993,
				"z": 0.8056370881,
				"element": "N" 
			},
			{
				"x": -3.4629724595,
				"y": -2.6761022405,
				"z": 1.2844064259,
				"element": "C" 
			},
			{
				"x": -3.8871840534,
				"y": -1.3658006645,
				"z": 1.3269344882,
				"element": "C" 
			},
			{
				"x": -2.6622311499,
				"y": -0.3035193925,
				"z": 0.7403301655,
				"element": "S" 
			},
			{
				"x": -4.2355532428,
				"y": -3.8675860844,
				"z": 1.6904768641,
				"element": "C" 
			},
			{
				"x": -5.5029527849,
				"y": -3.7584389385,
				"z": 2.2860353473,
				"element": "C" 
			},
			{
				"x": -6.2141582688,
				"y": -4.8976476724,
				"z": 2.6546115135,
				"element": "C" 
			},
			{
				"x": -5.6715232506,
				"y": -6.1665174448,
				"z": 2.4370048029,
				"element": "C" 
			},
			{
				"x": -4.4110126552,
				"y": -6.2847950603,
				"z": 1.848907856,
				"element": "C" 
			},
			{
				"x": -3.6964293981,
				"y": -5.1470915055,
				"z": 1.4784293094,
				"element": "C" 
			},
			{
				"x": 2.2756152928,
				"y": 1.8169709481,
				"z": -0.6796721561,
				"element": "C" 
			},
			{
				"x": 3.0623355195,
				"y": 0.8675222045,
				"z": -1.5227732346,
				"element": "C" 
			},
			{
				"x": 1.7059734426,
				"y": 5.1789323617,
				"z": 0.4203377617,
				"element": "C" 
			},
			{
				"x": 2.1166634114,
				"y": 5.9596783981,
				"z": -0.6681033584,
				"element": "C" 
			},
			{
				"x": 2.0129507475,
				"y": 7.3487758549,
				"z": -0.5970964563,
				"element": "C" 
			},
			{
				"x": 1.4851496674,
				"y": 7.9623955477,
				"z": 0.5396694348,
				"element": "C" 
			},
			{
				"x": 1.0619475846,
				"y": 7.1746778572,
				"z": 1.6125210552,
				"element": "C" 
			},
			{
				"x": 1.1775376435,
				"y": 5.7865636244,
				"z": 1.5672506887,
				"element": "C" 
			},
			{
				"x": 4.7257463457,
				"y": 2.936274106,
				"z": -1.0015531878,
				"element": "H" 
			},
			{
				"x": 4.3840479972,
				"y": 2.9369266317,
				"z": 0.7553488328,
				"element": "H" 
			},
			{
				"x": 4.3078807437,
				"y": 4.4514504833,
				"z": -0.1878965018,
				"element": "H" 
			},
			{
				"x": -0.5318858399,
				"y": 0.778431633,
				"z": 0.8109270872,
				"element": "H" 
			},
			{
				"x": -4.8373831158,
				"y": -0.9677207274,
				"z": 1.6500795963,
				"element": "H" 
			},
			{
				"x": -5.937961986,
				"y": -2.7806808453,
				"z": 2.4710015566,
				"element": "H" 
			},
			{
				"x": -7.1924907415,
				"y": -4.7945058832,
				"z": 3.1151523523,
				"element": "H" 
			},
			{
				"x": -6.2269009294,
				"y": -7.0542233889,
				"z": 2.7254710099,
				"element": "H" 
			},
			{
				"x": -3.9803349241,
				"y": -7.2669325829,
				"z": 1.6764788057,
				"element": "H" 
			},
			{
				"x": -2.717028489,
				"y": -5.232319403,
				"z": 1.0213770141,
				"element": "H" 
			},
			{
				"x": 2.4667224489,
				"y": -0.0226184246,
				"z": -1.7231837895,
				"element": "H" 
			},
			{
				"x": 3.9797000349,
				"y": 0.5407566234,
				"z": -1.017557586,
				"element": "H" 
			},
			{
				"x": 3.348756824,
				"y": 1.3351152415,
				"z": -2.4703515032,
				"element": "H" 
			},
			{
				"x": 2.4922976955,
				"y": 5.4762249702,
				"z": -1.5630017724,
				"element": "H" 
			},
			{
				"x": 2.3347923523,
				"y": 7.9497388439,
				"z": -1.4426564693,
				"element": "H" 
			},
			{
				"x": 1.4009423441,
				"y": 9.0437322778,
				"z": 0.5881018897,
				"element": "H" 
			},
			{
				"x": 0.6452028834,
				"y": 7.6421923735,
				"z": 2.4997436037,
				"element": "H" 
			},
			{
				"x": 0.847543141,
				"y": 5.1710830932,
				"z": 2.3941407761,
				"element": "H" 
			}
		],
		 "valence_orbital": [ 
			{
				"type": "occ",
				"energy": -0.25895,
				"method": "rhf"
			},
			{
				"type": "occ",
				"energy": -0.25108,
				"method": "rhf"
			},
			{
				"type": "occ",
				"energy": -0.23339,
				"method": "rhf"
			},
			{
				"type": "occ",
				"energy": -0.22666,
				"method": "rhf"
			},
			{
				"type": "occ",
				"energy": -0.20546,
				"method": "rhf"
			},
			{
				"type": "unocc",
				"energy": -0.0805,
				"method": "rhf"
			},
			{
				"type": "unocc",
				"energy": -0.0386,
				"method": "rhf"
			},
			{
				"type": "unocc",
				"energy": -0.03026,
				"method": "rhf"
			},
			{
				"type": "unocc",
				"energy": -0.01169,
				"method": "rhf"
			},
			{
				"type": "unocc",
				"energy": -0.00495,
				"method": "rhf"
			}
		],
		"cosmo_sigma_profile": { 
			"-0.025": 0.0,
			"-0.024": 0.0,
			"-0.023": 0.0,
			"-0.022": 0.0,
			"-0.021": 0.0,
			"-0.02": 0.0,
			"-0.019": 0.0,
			"-0.018": 0.0,
			"-0.017": 0.0,
			"-0.016": 0.0,
			"-0.015": 0.0,
			"-0.014": 0.0,
			"-0.013": 0.0253299881954,
			"-0.012": 0.45547423858,
			"-0.011": 0.979667515185,
			"-0.01": 3.21415062656,
			"-0.009": 2.72708198601,
			"-0.008": 3.26007560766,
			"-0.007": 5.54096872343,
			"-0.006": 25.209415291,
			"-0.005": 34.5336871271,
			"-0.004": 38.8044015462,
			"-0.003": 38.8493720936,
			"-0.002": 37.423994844,
			"-0.001": 37.4353907743,
			"0.0": 35.0589053867,
			"0.001": 33.5152456506,
			"0.002": 28.4488905085,
			"0.003": 24.6066489208,
			"0.004": 25.9695704001,
			"0.005": 25.7113400356,
			"0.006": 8.89653986806,
			"0.007": 6.03171394946,
			"0.008": 7.6646758862,
			"0.009": 7.32659533537,
			"0.01": 4.98672271669,
			"0.011": 3.7108131389,
			"0.012": 5.6165166892,
			"0.013": 5.15634521821,
			"0.014": 0.108420599957,
			"0.015": 0.0,
			"0.016": 0.0,
			"0.017": 0.0,
			"0.018": 0.0,
			"0.019": 0.0,
			"0.02": 0.0,
			"0.021": 0.0,
			"0.022": 0.0,
			"0.023": 0.0,
			"0.024": 0.0,
			"0.025": 0.0
		}
	}
}
