{
	 "smiles": "OC(=O)CC1=CSC(NC(=O)C2=CC(O)=CC=C2)=N1", 
	 "Tm": 470.15, 
	 "num_atms": 29, 
	 "gaussian": { 
		 "optdone": 1, 
		 "sigma_profile": "yes", 
		 "theory": "DFT", 
		 "functional": "B3LYP", 
		 "basiset": "6-31G**", 
		 "properties": { 
			 "R2extent": 6666.5214, 
			 "electric_dipole_moment_norm": 3.05779594479, 
			 "electric_quadrupole_moment_norm": 10.1432275568, 
			 "total_energy": -1271.90127146, 
			 "HOMO_LUMO_gap": 0.17668, 
			 "cosmo_polarized_energy": -21.83, 
			 "cosmo_cavitation_energy": 36.87, 
			 "cosmo_dispersion_energy": -26.0, 
			 "cosmo_repulsion_energy": 2.0, 
			 "cosmo_total_nonelectrostatic_energy": 12.87, 
			 "SMD_solvation_energy": 6.91 
		},
		"coords": [
			{
				"x": -4.077676563,
				"y": -3.8812069773,
				"z": 0.0756564139,
				"element": "O" 
			},
			{
				"x": -3.1860349718,
				"y": -3.3683197442,
				"z": 0.9557911999,
				"element": "C" 
			},
			{
				"x": -3.4156736637,
				"y": -3.3057903141,
				"z": 2.1444664945,
				"element": "O" 
			},
			{
				"x": -1.9367156483,
				"y": -2.9215198221,
				"z": 0.2300118522,
				"element": "C" 
			},
			{
				"x": -0.8414998689,
				"y": -2.3018941162,
				"z": 1.0554559538,
				"element": "C" 
			},
			{
				"x": -0.7912366426,
				"y": -2.1231943721,
				"z": 2.4076313133,
				"element": "C" 
			},
			{
				"x": 0.7045054463,
				"y": -1.3537204683,
				"z": 2.8536817739,
				"element": "S" 
			},
			{
				"x": 1.1663571213,
				"y": -1.3747671951,
				"z": 1.1492141059,
				"element": "C" 
			},
			{
				"x": 2.3945301373,
				"y": -0.8439478139,
				"z": 0.7609114093,
				"element": "N" 
			},
			{
				"x": 2.7725831444,
				"y": -0.4072881858,
				"z": -0.5214047194,
				"element": "C" 
			},
			{
				"x": 3.9356983709,
				"y": -0.548463037,
				"z": -0.8645332823,
				"element": "O" 
			},
			{
				"x": 1.7695955876,
				"y": 0.3002664528,
				"z": -1.3720405605,
				"element": "C" 
			},
			{
				"x": 0.7339237695,
				"y": 1.0689936597,
				"z": -0.8245587996,
				"element": "C" 
			},
			{
				"x": -0.1238873098,
				"y": 1.7799421686,
				"z": -1.6652686326,
				"element": "C" 
			},
			{
				"x": -1.1445675935,
				"y": 2.5546629498,
				"z": -1.1911230063,
				"element": "O" 
			},
			{
				"x": 0.0447622782,
				"y": 1.7198199923,
				"z": -3.0543180147,
				"element": "C" 
			},
			{
				"x": 1.0820773645,
				"y": 0.9602762124,
				"z": -3.589988046,
				"element": "C" 
			},
			{
				"x": 1.9548048896,
				"y": 0.2589652968,
				"z": -2.7582316351,
				"element": "C" 
			},
			{
				"x": 0.2779566397,
				"y": -1.8871191621,
				"z": 0.3539397439,
				"element": "N" 
			},
			{
				"x": -4.8510848318,
				"y": -4.1513007802,
				"z": 0.5987973601,
				"element": "H" 
			},
			{
				"x": -2.2413910441,
				"y": -2.2221256825,
				"z": -0.5586725158,
				"element": "H" 
			},
			{
				"x": -1.5424700201,
				"y": -3.7898002855,
				"z": -0.3136716209,
				"element": "H" 
			},
			{
				"x": -1.5276872706,
				"y": -2.4088214306,
				"z": 3.1412814361,
				"element": "H" 
			},
			{
				"x": 3.2035476219,
				"y": -1.1515522087,
				"z": 1.2895653121,
				"element": "H" 
			},
			{
				"x": 0.6056798144,
				"y": 1.1282040007,
				"z": 0.252836658,
				"element": "H" 
			},
			{
				"x": -1.1582457871,
				"y": 2.5082685958,
				"z": -0.2262999006,
				"element": "H" 
			},
			{
				"x": -0.6374604842,
				"y": 2.2769150373,
				"z": -3.6879518729,
				"element": "H" 
			},
			{
				"x": 1.213747216,
				"y": 0.921157583,
				"z": -4.6671997786,
				"element": "H" 
			},
			{
				"x": 2.7787622979,
				"y": -0.3179403537,
				"z": -3.1617786417,
				"element": "H" 
			}
		],
		 "valence_orbital": [ 
			{
				"type": "occ",
				"energy": -0.28756,
				"method": "rhf"
			},
			{
				"type": "occ",
				"energy": -0.26693,
				"method": "rhf"
			},
			{
				"type": "occ",
				"energy": -0.25703,
				"method": "rhf"
			},
			{
				"type": "occ",
				"energy": -0.23142,
				"method": "rhf"
			},
			{
				"type": "occ",
				"energy": -0.22764,
				"method": "rhf"
			},
			{
				"type": "unocc",
				"energy": -0.05096,
				"method": "rhf"
			},
			{
				"type": "unocc",
				"energy": -0.02153,
				"method": "rhf"
			},
			{
				"type": "unocc",
				"energy": -0.00304,
				"method": "rhf"
			},
			{
				"type": "unocc",
				"energy": 0.00413,
				"method": "rhf"
			},
			{
				"type": "unocc",
				"energy": 0.00502,
				"method": "rhf"
			}
		],
		"cosmo_sigma_profile": { 
			"-0.025": 0.0,
			"-0.024": 0.0,
			"-0.023": 0.0,
			"-0.022": 0.0,
			"-0.021": 0.0,
			"-0.02": 0.0,
			"-0.019": 0.0156220914461,
			"-0.018": 1.64394942488,
			"-0.017": 2.25754398242,
			"-0.016": 1.74735648383,
			"-0.015": 3.84178934638,
			"-0.014": 3.2486731559,
			"-0.013": 1.86045488609,
			"-0.012": 2.10955529825,
			"-0.011": 2.6361838845,
			"-0.01": 3.59009299217,
			"-0.009": 2.67487231998,
			"-0.008": 4.47534056274,
			"-0.007": 9.37940911053,
			"-0.006": 13.6160425239,
			"-0.005": 14.9534852317,
			"-0.004": 15.8146927994,
			"-0.003": 13.7313426702,
			"-0.002": 15.5649614545,
			"-0.001": 17.577752294,
			"0.0": 17.7300606036,
			"0.001": 20.8297199722,
			"0.002": 21.9418531325,
			"0.003": 25.1617266687,
			"0.004": 17.536343727,
			"0.005": 9.31838274959,
			"0.006": 7.80504259432,
			"0.007": 7.09414367177,
			"0.008": 7.02446744077,
			"0.009": 8.07543145407,
			"0.01": 6.96944807017,
			"0.011": 8.44995147342,
			"0.012": 6.64353175688,
			"0.013": 1.61370276828,
			"0.014": 0.0,
			"0.015": 0.0,
			"0.016": 0.0,
			"0.017": 0.0,
			"0.018": 0.0,
			"0.019": 0.0,
			"0.02": 0.0,
			"0.021": 0.0,
			"0.022": 0.0,
			"0.023": 0.0,
			"0.024": 0.0,
			"0.025": 0.0
		}
	}
}
