{
	 "smiles": "OC(=O)CN1C(=O)N(C2=C1C=CC=C2)C1=CCCCC1", 
	 "Tm": 419.15, 
	 "num_atms": 36, 
	 "gaussian": { 
		 "optdone": 1, 
		 "sigma_profile": "yes", 
		 "theory": "DFT", 
		 "functional": "B3LYP", 
		 "basiset": "6-31G**", 
		 "properties": { 
			 "R2extent": 6187.636, 
			 "electric_dipole_moment_norm": 1.7420912634, 
			 "electric_quadrupole_moment_norm": 16.7176841584, 
			 "total_energy": -916.456689391, 
			 "HOMO_LUMO_gap": 0.19767, 
			 "cosmo_polarized_energy": -16.4, 
			 "cosmo_cavitation_energy": 38.88, 
			 "cosmo_dispersion_energy": -27.31, 
			 "cosmo_repulsion_energy": 2.12, 
			 "cosmo_total_nonelectrostatic_energy": 13.69, 
			 "SMD_solvation_energy": 7.66 
		},
		"coords": [
			{
				"x": 4.7740191079,
				"y": 1.872998832,
				"z": 1.6278001078,
				"element": "O" 
			},
			{
				"x": 3.4871929002,
				"y": 1.7629668545,
				"z": 1.2238264609,
				"element": "C" 
			},
			{
				"x": 2.8376942292,
				"y": 2.6826992251,
				"z": 0.7904352975,
				"element": "O" 
			},
			{
				"x": 3.0085829551,
				"y": 0.3245347288,
				"z": 1.3936162668,
				"element": "C" 
			},
			{
				"x": 1.6175918817,
				"y": 0.1557685085,
				"z": 1.0857592592,
				"element": "N" 
			},
			{
				"x": 1.1996736208,
				"y": -0.3984154827,
				"z": -0.1274896668,
				"element": "C" 
			},
			{
				"x": 1.9261038217,
				"y": -0.836662953,
				"z": -1.0069696375,
				"element": "O" 
			},
			{
				"x": -0.1983185636,
				"y": -0.3512310979,
				"z": -0.1054135404,
				"element": "N" 
			},
			{
				"x": -0.6314420236,
				"y": 0.2411275726,
				"z": 1.0900839374,
				"element": "C" 
			},
			{
				"x": 0.5190247509,
				"y": 0.5673633653,
				"z": 1.8355531227,
				"element": "C" 
			},
			{
				"x": 0.4272564886,
				"y": 1.1589066994,
				"z": 3.088641978,
				"element": "C" 
			},
			{
				"x": -0.8537503065,
				"y": 1.4126361328,
				"z": 3.5948418247,
				"element": "C" 
			},
			{
				"x": -1.9966992729,
				"y": 1.0774107917,
				"z": 2.8630326989,
				"element": "C" 
			},
			{
				"x": -1.9019696585,
				"y": 0.4859301689,
				"z": 1.5966929975,
				"element": "C" 
			},
			{
				"x": -1.0116383669,
				"y": -0.8208120189,
				"z": -1.1849032911,
				"element": "C" 
			},
			{
				"x": -1.9691840061,
				"y": -0.0358772355,
				"z": -1.6965104019,
				"element": "C" 
			},
			{
				"x": -2.8806803454,
				"y": -0.4690765572,
				"z": -2.8166067463,
				"element": "C" 
			},
			{
				"x": -2.3650046737,
				"y": -1.7243368701,
				"z": -3.5359694217,
				"element": "C" 
			},
			{
				"x": -1.8874446989,
				"y": -2.7727208959,
				"z": -2.5236328214,
				"element": "C" 
			},
			{
				"x": -0.7359789178,
				"y": -2.228891808,
				"z": -1.6644742255,
				"element": "C" 
			},
			{
				"x": 5.0326217144,
				"y": 2.7974047473,
				"z": 1.4752202508,
				"element": "H" 
			},
			{
				"x": 3.5738872611,
				"y": -0.3084874758,
				"z": 0.7020007922,
				"element": "H" 
			},
			{
				"x": 3.2340938553,
				"y": -0.0096753941,
				"z": 2.412525462,
				"element": "H" 
			},
			{
				"x": 1.3144035536,
				"y": 1.4210109926,
				"z": 3.6558411672,
				"element": "H" 
			},
			{
				"x": -0.9561615238,
				"y": 1.8786069867,
				"z": 4.5698806486,
				"element": "H" 
			},
			{
				"x": -2.9788246096,
				"y": 1.2809326364,
				"z": 3.2784566019,
				"element": "H" 
			},
			{
				"x": -2.7876490386,
				"y": 0.2250682723,
				"z": 1.0292099019,
				"element": "H" 
			},
			{
				"x": -2.099535445,
				"y": 0.9679645763,
				"z": -1.2995533314,
				"element": "H" 
			},
			{
				"x": -2.9929312328,
				"y": 0.3585456891,
				"z": -3.5286038106,
				"element": "H" 
			},
			{
				"x": -3.8908939752,
				"y": -0.6502870787,
				"z": -2.4176045555,
				"element": "H" 
			},
			{
				"x": -3.1486660394,
				"y": -2.1370351747,
				"z": -4.1811206225,
				"element": "H" 
			},
			{
				"x": -1.5276956341,
				"y": -1.4474937467,
				"z": -4.1894748989,
				"element": "H" 
			},
			{
				"x": -2.727153703,
				"y": -3.0538370283,
				"z": -1.8738107034,
				"element": "H" 
			},
			{
				"x": -1.5661066177,
				"y": -3.6864593409,
				"z": -3.0355510431,
				"element": "H" 
			},
			{
				"x": 0.2082399039,
				"y": -2.232367428,
				"z": -2.2213032795,
				"element": "H" 
			},
			{
				"x": -0.5699573911,
				"y": -2.8746091939,
				"z": -0.7932267785,
				"element": "H" 
			}
		],
		 "valence_orbital": [ 
			{
				"type": "occ",
				"energy": -0.28651,
				"method": "rhf"
			},
			{
				"type": "occ",
				"energy": -0.27236,
				"method": "rhf"
			},
			{
				"type": "occ",
				"energy": -0.25178,
				"method": "rhf"
			},
			{
				"type": "occ",
				"energy": -0.22573,
				"method": "rhf"
			},
			{
				"type": "occ",
				"energy": -0.20181,
				"method": "rhf"
			},
			{
				"type": "unocc",
				"energy": -0.00414,
				"method": "rhf"
			},
			{
				"type": "unocc",
				"energy": 0.00106,
				"method": "rhf"
			},
			{
				"type": "unocc",
				"energy": 0.00727,
				"method": "rhf"
			},
			{
				"type": "unocc",
				"energy": 0.01865,
				"method": "rhf"
			},
			{
				"type": "unocc",
				"energy": 0.0661,
				"method": "rhf"
			}
		],
		"cosmo_sigma_profile": { 
			"-0.025": 0.0,
			"-0.024": 0.0,
			"-0.023": 0.0,
			"-0.022": 0.0,
			"-0.021": 0.0,
			"-0.02": 0.0,
			"-0.019": 0.271531031984,
			"-0.018": 0.918054183897,
			"-0.017": 0.891213936301,
			"-0.016": 1.10442901415,
			"-0.015": 0.826033483183,
			"-0.014": 0.445340413591,
			"-0.013": 0.301840254122,
			"-0.012": 0.888829720479,
			"-0.011": 1.34216030135,
			"-0.01": 0.624304653651,
			"-0.009": 2.31426881499,
			"-0.008": 5.61907946926,
			"-0.007": 5.80686618537,
			"-0.006": 8.97374466343,
			"-0.005": 13.0222063758,
			"-0.004": 16.3307662427,
			"-0.003": 29.1885183196,
			"-0.002": 35.5926950438,
			"-0.001": 39.2930417166,
			"0.0": 29.1563718945,
			"0.001": 20.5326931885,
			"0.002": 11.9887403403,
			"0.003": 12.3435323697,
			"0.004": 12.763667128,
			"0.005": 12.9731066806,
			"0.006": 9.66273940387,
			"0.007": 5.37654638662,
			"0.008": 5.67001711149,
			"0.009": 3.51328589769,
			"0.01": 4.02362803377,
			"0.011": 7.09331209043,
			"0.012": 3.35690257542,
			"0.013": 4.69657755343,
			"0.014": 0.442216162307,
			"0.015": 0.0,
			"0.016": 0.0,
			"0.017": 0.0,
			"0.018": 0.0,
			"0.019": 0.0,
			"0.02": 0.0,
			"0.021": 0.0,
			"0.022": 0.0,
			"0.023": 0.0,
			"0.024": 0.0,
			"0.025": 0.0
		}
	}
}
