{
	 "smiles": "CC(=O)NC1=C(C=CC(F)=C1)C(O)=O", 
	 "Tm": 487.15, 
	 "num_atms": 22, 
	 "gaussian": { 
		 "optdone": 1, 
		 "sigma_profile": "yes", 
		 "theory": "DFT", 
		 "functional": "B3LYP", 
		 "basiset": "6-31G**", 
		 "properties": { 
			 "R2extent": 3663.8839, 
			 "electric_dipole_moment_norm": 2.18446812291, 
			 "electric_quadrupole_moment_norm": 12.941787732, 
			 "total_energy": -728.065640866, 
			 "HOMO_LUMO_gap": 0.19744, 
			 "cosmo_polarized_energy": -18.38, 
			 "cosmo_cavitation_energy": 27.47, 
			 "cosmo_dispersion_energy": -19.59, 
			 "cosmo_repulsion_energy": 1.53, 
			 "cosmo_total_nonelectrostatic_energy": 9.41, 
			 "SMD_solvation_energy": 7.07 
		},
		"coords": [
			{
				"x": 2.1405745033,
				"y": -2.0036179612,
				"z": 0.0680689364,
				"element": "C" 
			},
			{
				"x": 0.6765896038,
				"y": -1.6930365615,
				"z": -0.1837423834,
				"element": "C" 
			},
			{
				"x": 0.1382606735,
				"y": -1.86613729,
				"z": -1.2621358098,
				"element": "O" 
			},
			{
				"x": 0.0152312237,
				"y": -1.1578330986,
				"z": 0.9127231953,
				"element": "N" 
			},
			{
				"x": -1.3346141186,
				"y": -0.7549261577,
				"z": 0.9338713329,
				"element": "C" 
			},
			{
				"x": -1.909751815,
				"y": 0.0527842607,
				"z": -0.072981814,
				"element": "C" 
			},
			{
				"x": -3.2802590962,
				"y": 0.3472009339,
				"z": -0.0025197217,
				"element": "C" 
			},
			{
				"x": -4.0715920921,
				"y": -0.0820328659,
				"z": 1.0579147976,
				"element": "C" 
			},
			{
				"x": -3.4660689423,
				"y": -0.8350738831,
				"z": 2.0565449219,
				"element": "C" 
			},
			{
				"x": -4.2032031878,
				"y": -1.2605346412,
				"z": 3.0994690355,
				"element": "F" 
			},
			{
				"x": -2.1260178196,
				"y": -1.1911939082,
				"z": 2.0030220025,
				"element": "C" 
			},
			{
				"x": -1.0865782619,
				"y": 0.7118394962,
				"z": -1.1265503479,
				"element": "C" 
			},
			{
				"x": -1.8088156299,
				"y": 0.9836861157,
				"z": -2.2419981524,
				"element": "O" 
			},
			{
				"x": 0.073603946,
				"y": 1.0494696912,
				"z": -1.0154528213,
				"element": "O" 
			},
			{
				"x": 2.45140207,
				"y": -2.8012099568,
				"z": -0.6072697984,
				"element": "H" 
			},
			{
				"x": 2.7279247981,
				"y": -1.1078523265,
				"z": -0.1615230403,
				"element": "H" 
			},
			{
				"x": 2.3509898235,
				"y": -2.2943415019,
				"z": 1.1020457091,
				"element": "H" 
			},
			{
				"x": 0.4795316782,
				"y": -1.2148417951,
				"z": 1.8071037801,
				"element": "H" 
			},
			{
				"x": -3.7186350483,
				"y": 0.9503680055,
				"z": -0.788687493,
				"element": "H" 
			},
			{
				"x": -5.1259706253,
				"y": 0.1603312546,
				"z": 1.1227225985,
				"element": "H" 
			},
			{
				"x": -1.7129085092,
				"y": -1.8311791224,
				"z": 2.7754170412,
				"element": "H" 
			},
			{
				"x": -1.1974931741,
				"y": 1.4456313125,
				"z": -2.8392419687,
				"element": "H" 
			}
		],
		 "valence_orbital": [ 
			{
				"type": "occ",
				"energy": -0.30033,
				"method": "rhf"
			},
			{
				"type": "occ",
				"energy": -0.27491,
				"method": "rhf"
			},
			{
				"type": "occ",
				"energy": -0.26081,
				"method": "rhf"
			},
			{
				"type": "occ",
				"energy": -0.25292,
				"method": "rhf"
			},
			{
				"type": "occ",
				"energy": -0.24008,
				"method": "rhf"
			},
			{
				"type": "unocc",
				"energy": -0.04264,
				"method": "rhf"
			},
			{
				"type": "unocc",
				"energy": -0.02519,
				"method": "rhf"
			},
			{
				"type": "unocc",
				"energy": 0.0312,
				"method": "rhf"
			},
			{
				"type": "unocc",
				"energy": 0.05103,
				"method": "rhf"
			},
			{
				"type": "unocc",
				"energy": 0.06757,
				"method": "rhf"
			}
		],
		"cosmo_sigma_profile": { 
			"-0.025": 0.0,
			"-0.024": 0.0,
			"-0.023": 0.0,
			"-0.022": 0.0,
			"-0.021": 0.0,
			"-0.02": 0.0,
			"-0.019": 0.0,
			"-0.018": 0.819098755079,
			"-0.017": 0.900901886012,
			"-0.016": 1.17375696173,
			"-0.015": 1.95815914027,
			"-0.014": 1.80415489148,
			"-0.013": 2.15348343355,
			"-0.012": 2.1594709076,
			"-0.011": 2.7849560151,
			"-0.01": 2.71569922883,
			"-0.009": 2.16289267644,
			"-0.008": 4.56027401694,
			"-0.007": 7.32229667405,
			"-0.006": 8.28236393775,
			"-0.005": 10.6208541936,
			"-0.004": 10.6200736228,
			"-0.003": 13.8311481344,
			"-0.002": 14.4494279303,
			"-0.001": 14.3132582183,
			"0.0": 15.8172763041,
			"0.001": 15.518865189,
			"0.002": 15.4432893225,
			"0.003": 12.2073992616,
			"0.004": 12.7058911795,
			"0.005": 4.27608311024,
			"0.006": 4.76330145709,
			"0.007": 4.54901707474,
			"0.008": 4.11379751651,
			"0.009": 4.36568667582,
			"0.01": 4.82184052052,
			"0.011": 5.50230887479,
			"0.012": 6.9318083014,
			"0.013": 3.79545334372,
			"0.014": 1.44953947328,
			"0.015": 0.069812227842,
			"0.016": 0.0,
			"0.017": 0.0,
			"0.018": 0.0,
			"0.019": 0.0,
			"0.02": 0.0,
			"0.021": 0.0,
			"0.022": 0.0,
			"0.023": 0.0,
			"0.024": 0.0,
			"0.025": 0.0
		}
	}
}
