{
	 "smiles": "CC(=O)C1=CNC2=C1C=CC(Cl)=C2", 
	 "Tm": 503.15, 
	 "num_atms": 21, 
	 "gaussian": { 
		 "optdone": 1, 
		 "sigma_profile": "yes", 
		 "theory": "DFT", 
		 "functional": "B3LYP", 
		 "basiset": "6-31G**", 
		 "properties": { 
			 "R2extent": 3556.8623, 
			 "electric_dipole_moment_norm": 5.4913918691, 
			 "electric_quadrupole_moment_norm": 18.3623509353, 
			 "total_energy": -976.06600165, 
			 "HOMO_LUMO_gap": 0.17609, 
			 "cosmo_polarized_energy": -15.97, 
			 "cosmo_cavitation_energy": 27.14, 
			 "cosmo_dispersion_energy": -20.18, 
			 "cosmo_repulsion_energy": 1.58, 
			 "cosmo_total_nonelectrostatic_energy": 8.54, 
			 "SMD_solvation_energy": 4.83 
		},
		"coords": [
			{
				"x": -3.1770221736,
				"y": 2.4687378663,
				"z": -2.9904175796,
				"element": "C" 
			},
			{
				"x": -2.6413752368,
				"y": 1.8294211103,
				"z": -1.7161679236,
				"element": "C" 
			},
			{
				"x": -3.3980871752,
				"y": 1.5444867815,
				"z": -0.7942550963,
				"element": "O" 
			},
			{
				"x": -1.1993216364,
				"y": 1.5682810911,
				"z": -1.6240594761,
				"element": "C" 
			},
			{
				"x": -0.2361347365,
				"y": 1.8371987843,
				"z": -2.578451204,
				"element": "C" 
			},
			{
				"x": 0.9949200602,
				"y": 1.4480355294,
				"z": -2.1192940739,
				"element": "N" 
			},
			{
				"x": 0.8666031014,
				"y": 0.9122329305,
				"z": -0.8464288457,
				"element": "C" 
			},
			{
				"x": -0.5064272461,
				"y": 0.9719844647,
				"z": -0.5009861835,
				"element": "C" 
			},
			{
				"x": -0.9131436504,
				"y": 0.487420933,
				"z": 0.7522096185,
				"element": "C" 
			},
			{
				"x": 0.041683211,
				"y": -0.0356368885,
				"z": 1.6152085426,
				"element": "C" 
			},
			{
				"x": 1.3966155617,
				"y": -0.0775155962,
				"z": 1.2350750338,
				"element": "C" 
			},
			{
				"x": 2.5713026792,
				"y": -0.7494690121,
				"z": 2.3617163846,
				"element": "Cl" 
			},
			{
				"x": 1.84311993,
				"y": 0.3904073831,
				"z": 0.0060674961,
				"element": "C" 
			},
			{
				"x": -2.9611405617,
				"y": 1.8427312048,
				"z": -3.8635576339,
				"element": "H" 
			},
			{
				"x": -4.2560663854,
				"y": 2.5932538717,
				"z": -2.8943756496,
				"element": "H" 
			},
			{
				"x": -2.7136978142,
				"y": 3.4467109076,
				"z": -3.1629783622,
				"element": "H" 
			},
			{
				"x": -0.3389674003,
				"y": 2.2807195446,
				"z": -3.5584628554,
				"element": "H" 
			},
			{
				"x": 1.8592233065,
				"y": 1.5381660867,
				"z": -2.6295838967,
				"element": "H" 
			},
			{
				"x": -1.9600008945,
				"y": 0.5278333256,
				"z": 1.0274332617,
				"element": "H" 
			},
			{
				"x": -0.2451019233,
				"y": -0.4165821005,
				"z": 2.5888317618,
				"element": "H" 
			},
			{
				"x": 2.8922189843,
				"y": 0.3475817818,
				"z": -0.2645233186,
				"element": "H" 
			}
		],
		 "valence_orbital": [ 
			{
				"type": "occ",
				"energy": -0.30934,
				"method": "rhf"
			},
			{
				"type": "occ",
				"energy": -0.28276,
				"method": "rhf"
			},
			{
				"type": "occ",
				"energy": -0.24252,
				"method": "rhf"
			},
			{
				"type": "occ",
				"energy": -0.23743,
				"method": "rhf"
			},
			{
				"type": "occ",
				"energy": -0.22037,
				"method": "rhf"
			},
			{
				"type": "unocc",
				"energy": -0.04428,
				"method": "rhf"
			},
			{
				"type": "unocc",
				"energy": -0.01147,
				"method": "rhf"
			},
			{
				"type": "unocc",
				"energy": 0.01163,
				"method": "rhf"
			},
			{
				"type": "unocc",
				"energy": 0.03252,
				"method": "rhf"
			},
			{
				"type": "unocc",
				"energy": 0.0608,
				"method": "rhf"
			}
		],
		"cosmo_sigma_profile": { 
			"-0.025": 0.0,
			"-0.024": 0.0,
			"-0.023": 0.0,
			"-0.022": 0.0,
			"-0.021": 0.0,
			"-0.02": 0.0,
			"-0.019": 0.0,
			"-0.018": 0.0,
			"-0.017": 0.722050991568,
			"-0.016": 2.08159127028,
			"-0.015": 1.90049038043,
			"-0.014": 0.887572151703,
			"-0.013": 1.35440358538,
			"-0.012": 1.65992623448,
			"-0.011": 1.14620396622,
			"-0.01": 2.22636286642,
			"-0.009": 3.62224301654,
			"-0.008": 4.17452226783,
			"-0.007": 5.21396210797,
			"-0.006": 7.90102618645,
			"-0.005": 11.1786228088,
			"-0.004": 10.3771924268,
			"-0.003": 11.7363764858,
			"-0.002": 12.7097713472,
			"-0.001": 14.0651673105,
			"0.0": 13.5397799424,
			"0.001": 13.7826283854,
			"0.002": 19.8730045329,
			"0.003": 21.2169043906,
			"0.004": 23.9070350641,
			"0.005": 14.9660874165,
			"0.006": 2.84651970407,
			"0.007": 2.29962717477,
			"0.008": 1.61936724846,
			"0.009": 2.10343572291,
			"0.01": 1.41564832142,
			"0.011": 2.01452560198,
			"0.012": 3.03381113324,
			"0.013": 2.44790734201,
			"0.014": 1.51893202549,
			"0.015": 0.0917058783796,
			"0.016": 0.0,
			"0.017": 0.0,
			"0.018": 0.0,
			"0.019": 0.0,
			"0.02": 0.0,
			"0.021": 0.0,
			"0.022": 0.0,
			"0.023": 0.0,
			"0.024": 0.0,
			"0.025": 0.0
		}
	}
}
