{
	 "smiles": "CC(C)NC(=O)OCC(F)(F)F", 
	 "Tm": 322.15, 
	 "num_atms": 22, 
	 "gaussian": { 
		 "optdone": 1, 
		 "sigma_profile": "yes", 
		 "theory": "DFT", 
		 "functional": "B3LYP", 
		 "basiset": "6-31G**", 
		 "properties": { 
			 "R2extent": 2994.5609, 
			 "electric_dipole_moment_norm": 2.91965592493, 
			 "electric_quadrupole_moment_norm": 12.7846417693, 
			 "total_energy": -739.419043417, 
			 "HOMO_LUMO_gap": 0.30599, 
			 "cosmo_polarized_energy": -9.29, 
			 "cosmo_cavitation_energy": 26.7, 
			 "cosmo_dispersion_energy": -18.19, 
			 "cosmo_repulsion_energy": 1.43, 
			 "cosmo_total_nonelectrostatic_energy": 9.93, 
			 "SMD_solvation_energy": 6.67 
		},
		"coords": [
			{
				"x": 1.3254646676,
				"y": 0.7717416131,
				"z": -1.1648722746,
				"element": "C" 
			},
			{
				"x": 0.2476984779,
				"y": 1.7600206674,
				"z": -0.6986076257,
				"element": "C" 
			},
			{
				"x": 0.4828415235,
				"y": 2.2592467292,
				"z": 0.7346252168,
				"element": "C" 
			},
			{
				"x": -1.1179884439,
				"y": 1.2339696821,
				"z": -0.8963452731,
				"element": "N" 
			},
			{
				"x": -1.7422962053,
				"y": 0.2028250808,
				"z": -0.2722375702,
				"element": "C" 
			},
			{
				"x": -2.9086445494,
				"y": -0.1061779175,
				"z": -0.4274949757,
				"element": "O" 
			},
			{
				"x": -0.8728201342,
				"y": -0.4806026927,
				"z": 0.5508280916,
				"element": "O" 
			},
			{
				"x": -1.4598036856,
				"y": -1.4565515303,
				"z": 1.3975749541,
				"element": "C" 
			},
			{
				"x": -1.5371535682,
				"y": -0.9084047533,
				"z": 2.8119053861,
				"element": "C" 
			},
			{
				"x": -2.3206514108,
				"y": 0.1833825878,
				"z": 2.8790568415,
				"element": "F" 
			},
			{
				"x": -0.3181022383,
				"y": -0.5619804925,
				"z": 3.278562002,
				"element": "F" 
			},
			{
				"x": -2.0449497755,
				"y": -1.8466737828,
				"z": 3.6378408089,
				"element": "F" 
			},
			{
				"x": 2.3112134419,
				"y": 1.2460637526,
				"z": -1.1204372002,
				"element": "H" 
			},
			{
				"x": 1.1423291238,
				"y": 0.4569174147,
				"z": -2.196569012,
				"element": "H" 
			},
			{
				"x": 1.3430180793,
				"y": -0.1162624369,
				"z": -0.5294264096,
				"element": "H" 
			},
			{
				"x": 0.2861621072,
				"y": 2.6298455246,
				"z": -1.3646485902,
				"element": "H" 
			},
			{
				"x": -0.2793807908,
				"y": 2.9907527828,
				"z": 1.0195841015,
				"element": "H" 
			},
			{
				"x": 0.4550552818,
				"y": 1.4355683275,
				"z": 1.4509667355,
				"element": "H" 
			},
			{
				"x": 1.4628319695,
				"y": 2.7425236277,
				"z": 0.8041541959,
				"element": "H" 
			},
			{
				"x": -1.7395124354,
				"y": 1.7426731765,
				"z": -1.5062965159,
				"element": "H" 
			},
			{
				"x": -2.4636202013,
				"y": -1.7125648156,
				"z": 1.0536641915,
				"element": "H" 
			},
			{
				"x": -0.8160912336,
				"y": -2.3388125453,
				"z": 1.398272922,
				"element": "H" 
			}
		],
		 "valence_orbital": [ 
			{
				"type": "occ",
				"energy": -0.35619,
				"method": "rhf"
			},
			{
				"type": "occ",
				"energy": -0.34207,
				"method": "rhf"
			},
			{
				"type": "occ",
				"energy": -0.30757,
				"method": "rhf"
			},
			{
				"type": "occ",
				"energy": -0.28164,
				"method": "rhf"
			},
			{
				"type": "occ",
				"energy": -0.25986,
				"method": "rhf"
			},
			{
				"type": "unocc",
				"energy": 0.04613,
				"method": "rhf"
			},
			{
				"type": "unocc",
				"energy": 0.06207,
				"method": "rhf"
			},
			{
				"type": "unocc",
				"energy": 0.09787,
				"method": "rhf"
			},
			{
				"type": "unocc",
				"energy": 0.11094,
				"method": "rhf"
			},
			{
				"type": "unocc",
				"energy": 0.12012,
				"method": "rhf"
			}
		],
		"cosmo_sigma_profile": { 
			"-0.025": 0.0,
			"-0.024": 0.0,
			"-0.023": 0.0,
			"-0.022": 0.0,
			"-0.021": 0.0,
			"-0.02": 0.0,
			"-0.019": 0.0,
			"-0.018": 0.0,
			"-0.017": 0.0,
			"-0.016": 0.0,
			"-0.015": 0.0822097107262,
			"-0.014": 0.979563223012,
			"-0.013": 1.36221543848,
			"-0.012": 0.96914205075,
			"-0.011": 1.04730943868,
			"-0.01": 0.921519425571,
			"-0.009": 3.27719856019,
			"-0.008": 4.45109777727,
			"-0.007": 4.7430282807,
			"-0.006": 5.23569880222,
			"-0.005": 6.27785465931,
			"-0.004": 8.47031796829,
			"-0.003": 16.2031230001,
			"-0.002": 14.201744243,
			"-0.001": 16.0295045008,
			"0.0": 24.233362018,
			"0.001": 26.6369957622,
			"0.002": 27.3084220988,
			"0.003": 26.2868790863,
			"0.004": 3.5348807588,
			"0.005": 1.62080767161,
			"0.006": 1.33526543653,
			"0.007": 1.30520361602,
			"0.008": 1.30417100987,
			"0.009": 0.887526470843,
			"0.01": 1.10230868445,
			"0.011": 2.16310074557,
			"0.012": 3.44389914257,
			"0.013": 4.07897643415,
			"0.014": 0.397609830112,
			"0.015": 0.0,
			"0.016": 0.0,
			"0.017": 0.0,
			"0.018": 0.0,
			"0.019": 0.0,
			"0.02": 0.0,
			"0.021": 0.0,
			"0.022": 0.0,
			"0.023": 0.0,
			"0.024": 0.0,
			"0.025": 0.0
		}
	}
}
