{
	 "smiles": "CCOC(=O)CN(C)C1=C(C=NC=C1)[N+]([O-])=O", 
	 "Tm": 356.15, 
	 "num_atms": 30, 
	 "gaussian": { 
		 "optdone": 1, 
		 "sigma_profile": "yes", 
		 "theory": "DFT", 
		 "functional": "B3LYP", 
		 "basiset": "6-31G**", 
		 "properties": { 
			 "R2extent": 4987.7495, 
			 "electric_dipole_moment_norm": 6.79702223183, 
			 "electric_quadrupole_moment_norm": 5.53170871702, 
			 "total_energy": -853.938708824, 
			 "HOMO_LUMO_gap": 0.154, 
			 "cosmo_polarized_energy": -16.37, 
			 "cosmo_cavitation_energy": 34.21, 
			 "cosmo_dispersion_energy": -23.83, 
			 "cosmo_repulsion_energy": 1.85, 
			 "cosmo_total_nonelectrostatic_energy": 12.24, 
			 "SMD_solvation_energy": 7.5 
		},
		"coords": [
			{
				"x": -3.531491961,
				"y": 2.8828311463,
				"z": -1.461880906,
				"element": "C" 
			},
			{
				"x": -3.9806984216,
				"y": 1.7966035083,
				"z": -0.4978158588,
				"element": "C" 
			},
			{
				"x": -2.9547665559,
				"y": 1.5154040628,
				"z": 0.4930225172,
				"element": "O" 
			},
			{
				"x": -2.0086769301,
				"y": 0.6225291553,
				"z": 0.1491533422,
				"element": "C" 
			},
			{
				"x": -1.9390683814,
				"y": 0.0510878375,
				"z": -0.9155956891,
				"element": "O" 
			},
			{
				"x": -1.0477669637,
				"y": 0.408228854,
				"z": 1.324539879,
				"element": "C" 
			},
			{
				"x": 0.1097984448,
				"y": -0.3957420557,
				"z": 1.0002663559,
				"element": "N" 
			},
			{
				"x": -0.1218771166,
				"y": -1.8393049067,
				"z": 0.9506924522,
				"element": "C" 
			},
			{
				"x": 1.2467612658,
				"y": 0.1954473305,
				"z": 0.5116681332,
				"element": "C" 
			},
			{
				"x": 2.5231265165,
				"y": -0.4286581603,
				"z": 0.4596667134,
				"element": "C" 
			},
			{
				"x": 3.5982734227,
				"y": 0.1975659766,
				"z": -0.1836378296,
				"element": "C" 
			},
			{
				"x": 3.5445131851,
				"y": 1.410990831,
				"z": -0.7222271911,
				"element": "N" 
			},
			{
				"x": 2.3611306704,
				"y": 2.0418964092,
				"z": -0.6160337182,
				"element": "C" 
			},
			{
				"x": 1.2265124207,
				"y": 1.5036134563,
				"z": -0.0330918405,
				"element": "C" 
			},
			{
				"x": 2.8554684153,
				"y": -1.6469415328,
				"z": 1.1921018862,
				"element": "N" 
			},
			{
				"x": 3.7132836323,
				"y": -2.3898185109,
				"z": 0.7107662265,
				"element": "O" 
			},
			{
				"x": 2.3091356104,
				"y": -1.8281728372,
				"z": 2.2842224467,
				"element": "O" 
			},
			{
				"x": -3.2505632722,
				"y": 3.7921630131,
				"z": -0.9225312518,
				"element": "H" 
			},
			{
				"x": -2.680178739,
				"y": 2.5429249884,
				"z": -2.0568665371,
				"element": "H" 
			},
			{
				"x": -4.3494125979,
				"y": 3.1297783936,
				"z": -2.1465930083,
				"element": "H" 
			},
			{
				"x": -4.2181191116,
				"y": 0.8702947977,
				"z": -1.025916072,
				"element": "H" 
			},
			{
				"x": -4.8438746089,
				"y": 2.1120988554,
				"z": 0.0922369185,
				"element": "H" 
			},
			{
				"x": -1.6102932487,
				"y": -0.0906242768,
				"z": 2.1227829775,
				"element": "H" 
			},
			{
				"x": -0.7513860166,
				"y": 1.3781593243,
				"z": 1.7310769526,
				"element": "H" 
			},
			{
				"x": -1.1375293519,
				"y": -2.0123349209,
				"z": 0.5865414659,
				"element": "H" 
			},
			{
				"x": 0.0176637293,
				"y": -2.3125569225,
				"z": 1.9269894673,
				"element": "H" 
			},
			{
				"x": 0.5583507423,
				"y": -2.3056823703,
				"z": 0.2363868957,
				"element": "H" 
			},
			{
				"x": 4.5484138611,
				"y": -0.3280966228,
				"z": -0.2156850359,
				"element": "H" 
			},
			{
				"x": 2.3119391329,
				"y": 3.0383346079,
				"z": -1.0510863122,
				"element": "H" 
			},
			{
				"x": 0.3086322275,
				"y": 2.0768805687,
				"z": -0.0574533795,
				"element": "H" 
			}
		],
		 "valence_orbital": [ 
			{
				"type": "occ",
				"energy": -0.29794,
				"method": "rhf"
			},
			{
				"type": "occ",
				"energy": -0.29459,
				"method": "rhf"
			},
			{
				"type": "occ",
				"energy": -0.27124,
				"method": "rhf"
			},
			{
				"type": "occ",
				"energy": -0.26488,
				"method": "rhf"
			},
			{
				"type": "occ",
				"energy": -0.2335,
				"method": "rhf"
			},
			{
				"type": "unocc",
				"energy": -0.0795,
				"method": "rhf"
			},
			{
				"type": "unocc",
				"energy": -0.02426,
				"method": "rhf"
			},
			{
				"type": "unocc",
				"energy": -0.01485,
				"method": "rhf"
			},
			{
				"type": "unocc",
				"energy": -0.00572,
				"method": "rhf"
			},
			{
				"type": "unocc",
				"energy": 0.07227,
				"method": "rhf"
			}
		],
		"cosmo_sigma_profile": { 
			"-0.025": 0.0,
			"-0.024": 0.0,
			"-0.023": 0.0,
			"-0.022": 0.0,
			"-0.021": 0.0,
			"-0.02": 0.0,
			"-0.019": 0.0,
			"-0.018": 0.0,
			"-0.017": 0.0,
			"-0.016": 0.0,
			"-0.015": 0.0,
			"-0.014": 0.0,
			"-0.013": 0.0,
			"-0.012": 0.0,
			"-0.011": 0.0151013147171,
			"-0.01": 0.579246750476,
			"-0.009": 4.10944488563,
			"-0.008": 8.03504290209,
			"-0.007": 12.4437212058,
			"-0.006": 14.6013809095,
			"-0.005": 18.9572657368,
			"-0.004": 23.0189483975,
			"-0.003": 24.6053498269,
			"-0.002": 20.7925649338,
			"-0.001": 21.1522955132,
			"0.0": 19.201090288,
			"0.001": 14.2408136933,
			"0.002": 11.8988772597,
			"0.003": 8.21657615441,
			"0.004": 8.80401363685,
			"0.005": 6.77265708304,
			"0.006": 6.80145790894,
			"0.007": 11.1782633271,
			"0.008": 11.7496053514,
			"0.009": 7.9403437743,
			"0.01": 6.35762392718,
			"0.011": 4.67015224373,
			"0.012": 2.06333548931,
			"0.013": 0.804046572453,
			"0.014": 0.929959818343,
			"0.015": 0.937911119204,
			"0.016": 0.575031544447,
			"0.017": 0.0240055979363,
			"0.018": 0.0,
			"0.019": 0.0,
			"0.02": 0.0,
			"0.021": 0.0,
			"0.022": 0.0,
			"0.023": 0.0,
			"0.024": 0.0,
			"0.025": 0.0
		}
	}
}
