{
	 "smiles": "CNCC1=CC=C(S1)N1CCOCC1", 
	 "Tm": 311.65, 
	 "num_atms": 30, 
	 "gaussian": { 
		 "optdone": 1, 
		 "sigma_profile": "yes", 
		 "theory": "DFT", 
		 "functional": "B3LYP", 
		 "basiset": "6-31G**", 
		 "properties": { 
			 "R2extent": 4579.8194, 
			 "electric_dipole_moment_norm": 1.64969095894, 
			 "electric_quadrupole_moment_norm": 11.5242209316, 
			 "total_energy": -973.566220239, 
			 "HOMO_LUMO_gap": 0.18652, 
			 "cosmo_polarized_energy": -9.89, 
			 "cosmo_cavitation_energy": 32.68, 
			 "cosmo_dispersion_energy": -24.32, 
			 "cosmo_repulsion_energy": 1.89, 
			 "cosmo_total_nonelectrostatic_energy": 10.26, 
			 "SMD_solvation_energy": 1.84 
		},
		"coords": [
			{
				"x": -4.069366218,
				"y": -1.3770426166,
				"z": 0.5872982114,
				"element": "C" 
			},
			{
				"x": -4.2963752913,
				"y": -0.0456517859,
				"z": 0.0350021703,
				"element": "N" 
			},
			{
				"x": -3.5657167567,
				"y": 0.2250332254,
				"z": -1.2099656149,
				"element": "C" 
			},
			{
				"x": -2.0594146019,
				"y": 0.1566128696,
				"z": -1.1567468616,
				"element": "C" 
			},
			{
				"x": -1.2173435223,
				"y": -0.8461962487,
				"z": -1.5452271113,
				"element": "C" 
			},
			{
				"x": 0.1646026199,
				"y": -0.6208920617,
				"z": -1.2599699282,
				"element": "C" 
			},
			{
				"x": 0.3872557498,
				"y": 0.5852033703,
				"z": -0.6284908905,
				"element": "C" 
			},
			{
				"x": -1.1293524812,
				"y": 1.459776305,
				"z": -0.4117221003,
				"element": "S" 
			},
			{
				"x": 1.5843417735,
				"y": 1.1412735376,
				"z": -0.2420658074,
				"element": "N" 
			},
			{
				"x": 2.8320132494,
				"y": 0.4808075742,
				"z": -0.6057143394,
				"element": "C" 
			},
			{
				"x": 3.9896715282,
				"y": 1.461412782,
				"z": -0.4399502844,
				"element": "C" 
			},
			{
				"x": 4.1132821541,
				"y": 1.9627679253,
				"z": 0.8858646001,
				"element": "O" 
			},
			{
				"x": 2.8791661147,
				"y": 2.1249331195,
				"z": 1.5821644966,
				"element": "C" 
			},
			{
				"x": 1.6751768226,
				"y": 2.2874811763,
				"z": 0.6549946454,
				"element": "C" 
			},
			{
				"x": -4.6197398083,
				"y": -1.473113594,
				"z": 1.5283443189,
				"element": "H" 
			},
			{
				"x": -4.4690554834,
				"y": -2.1272011185,
				"z": -0.105999657,
				"element": "H" 
			},
			{
				"x": -3.012150314,
				"y": -1.6271272765,
				"z": 0.774894017,
				"element": "H" 
			},
			{
				"x": -4.0425289279,
				"y": 0.6546920564,
				"z": 0.7275271517,
				"element": "H" 
			},
			{
				"x": -3.9020207964,
				"y": -0.5042246299,
				"z": -1.958113065,
				"element": "H" 
			},
			{
				"x": -3.8901443018,
				"y": 1.2099195518,
				"z": -1.5678920416,
				"element": "H" 
			},
			{
				"x": -1.5802766251,
				"y": -1.7495317572,
				"z": -2.0263211157,
				"element": "H" 
			},
			{
				"x": 0.9487744737,
				"y": -1.3303918918,
				"z": -1.4911817998,
				"element": "H" 
			},
			{
				"x": 3.0073088825,
				"y": -0.4207979404,
				"z": 0.0038815263,
				"element": "H" 
			},
			{
				"x": 2.7806651981,
				"y": 0.1608866108,
				"z": -1.654381482,
				"element": "H" 
			},
			{
				"x": 4.9348021622,
				"y": 0.9626693727,
				"z": -0.6762160698,
				"element": "H" 
			},
			{
				"x": 3.8611417997,
				"y": 2.2912789253,
				"z": -1.1523369957,
				"element": "H" 
			},
			{
				"x": 2.9797848044,
				"y": 3.012372128,
				"z": 2.2168633125,
				"element": "H" 
			},
			{
				"x": 2.7085273725,
				"y": 1.2579661895,
				"z": 2.2381980989,
				"element": "H" 
			},
			{
				"x": 0.7699674327,
				"y": 2.3425490563,
				"z": 1.2695748994,
				"element": "H" 
			},
			{
				"x": 1.7494029904,
				"y": 3.2340351453,
				"z": 0.0972877164,
				"element": "H" 
			}
		],
		 "valence_orbital": [ 
			{
				"type": "occ",
				"energy": -0.2773,
				"method": "rhf"
			},
			{
				"type": "occ",
				"energy": -0.25607,
				"method": "rhf"
			},
			{
				"type": "occ",
				"energy": -0.24165,
				"method": "rhf"
			},
			{
				"type": "occ",
				"energy": -0.2164,
				"method": "rhf"
			},
			{
				"type": "occ",
				"energy": -0.17662,
				"method": "rhf"
			},
			{
				"type": "unocc",
				"energy": 0.0099,
				"method": "rhf"
			},
			{
				"type": "unocc",
				"energy": 0.02632,
				"method": "rhf"
			},
			{
				"type": "unocc",
				"energy": 0.07199,
				"method": "rhf"
			},
			{
				"type": "unocc",
				"energy": 0.08151,
				"method": "rhf"
			},
			{
				"type": "unocc",
				"energy": 0.08902,
				"method": "rhf"
			}
		],
		"cosmo_sigma_profile": { 
			"-0.025": 0.0,
			"-0.024": 0.0,
			"-0.023": 0.0,
			"-0.022": 0.0,
			"-0.021": 0.0,
			"-0.02": 0.0,
			"-0.019": 0.0,
			"-0.018": 0.0,
			"-0.017": 0.0,
			"-0.016": 0.0,
			"-0.015": 0.0,
			"-0.014": 0.0,
			"-0.013": 0.0,
			"-0.012": 0.0,
			"-0.011": 0.0,
			"-0.01": 0.0581115190265,
			"-0.009": 1.00013416807,
			"-0.008": 0.867838767623,
			"-0.007": 1.48879167859,
			"-0.006": 6.0381001703,
			"-0.005": 20.5985163007,
			"-0.004": 37.1959958024,
			"-0.003": 33.7939314022,
			"-0.002": 23.2982516291,
			"-0.001": 20.5517197278,
			"0.0": 19.6548707272,
			"0.001": 13.5863343455,
			"0.002": 10.9185646768,
			"0.003": 11.823284539,
			"0.004": 10.8759546895,
			"0.005": 10.7169402627,
			"0.006": 10.0674689668,
			"0.007": 7.08346841513,
			"0.008": 4.09119504507,
			"0.009": 2.11084969934,
			"0.01": 2.14977202099,
			"0.011": 1.44226675957,
			"0.012": 2.19824939456,
			"0.013": 2.98425653302,
			"0.014": 0.595798405247,
			"0.015": 0.181767830119,
			"0.016": 0.92032981085,
			"0.017": 0.646711497005,
			"0.018": 0.371802069142,
			"0.019": 0.162521298761,
			"0.02": 0.0,
			"0.021": 0.0,
			"0.022": 0.0,
			"0.023": 0.0,
			"0.024": 0.0,
			"0.025": 0.0
		}
	}
}
