{
	 "smiles": "BrC1=CSC(=C1)C#N", 
	 "Tm": 321.15, 
	 "num_atms": 10, 
	 "gaussian": { 
		 "optdone": 1, 
		 "sigma_profile": "yes", 
		 "theory": "DFT", 
		 "functional": "B3LYP", 
		 "basiset": "6-31G**", 
		 "properties": { 
			 "R2extent": 2127.4759, 
			 "electric_dipole_moment_norm": 3.47844995796, 
			 "electric_quadrupole_moment_norm": 15.752910027, 
			 "total_energy": -3216.03832333, 
			 "HOMO_LUMO_gap": 0.18444, 
			 "cosmo_polarized_energy": -7.87, 
			 "cosmo_cavitation_energy": 19.88, 
			 "cosmo_dispersion_energy": -15.2, 
			 "cosmo_repulsion_energy": 1.22, 
			 "cosmo_total_nonelectrostatic_energy": 5.9, 
			 "SMD_solvation_energy": 3.77 
		},
		"coords": [
			{
				"x": -0.9212788554,
				"y": 2.3496334787,
				"z": 0.2941854865,
				"element": "Br" 
			},
			{
				"x": -0.6534780764,
				"y": 0.5092247969,
				"z": -0.0625132976,
				"element": "C" 
			},
			{
				"x": -0.3302917435,
				"y": 0.0207146232,
				"z": -1.3000327494,
				"element": "C" 
			},
			{
				"x": -0.1590874705,
				"y": -1.697833273,
				"z": -1.276387582,
				"element": "S" 
			},
			{
				"x": -0.53049853,
				"y": -1.7500131818,
				"z": 0.4335643554,
				"element": "C" 
			},
			{
				"x": -0.7713628287,
				"y": -0.4915645437,
				"z": 0.9385861636,
				"element": "C" 
			},
			{
				"x": -0.5596925959,
				"y": -2.9783234002,
				"z": 1.138722544,
				"element": "C" 
			},
			{
				"x": -0.5825802099,
				"y": -3.9904550254,
				"z": 1.7143014979,
				"element": "N" 
			},
			{
				"x": -0.1849941801,
				"y": 0.5738639545,
				"z": -2.2164266812,
				"element": "H" 
			},
			{
				"x": -1.0197355096,
				"y": -0.2948474292,
				"z": 1.9731002628,
				"element": "H" 
			}
		],
		 "valence_orbital": [ 
			{
				"type": "occ",
				"energy": -0.3445,
				"method": "rhf"
			},
			{
				"type": "occ",
				"energy": -0.33179,
				"method": "rhf"
			},
			{
				"type": "occ",
				"energy": -0.30844,
				"method": "rhf"
			},
			{
				"type": "occ",
				"energy": -0.28148,
				"method": "rhf"
			},
			{
				"type": "occ",
				"energy": -0.25863,
				"method": "rhf"
			},
			{
				"type": "unocc",
				"energy": -0.07419,
				"method": "rhf"
			},
			{
				"type": "unocc",
				"energy": -0.02457,
				"method": "rhf"
			},
			{
				"type": "unocc",
				"energy": -0.01363,
				"method": "rhf"
			},
			{
				"type": "unocc",
				"energy": 0.01139,
				"method": "rhf"
			},
			{
				"type": "unocc",
				"energy": 0.01866,
				"method": "rhf"
			}
		],
		"cosmo_sigma_profile": { 
			"-0.025": 0.0,
			"-0.024": 0.0,
			"-0.023": 0.0,
			"-0.022": 0.0,
			"-0.021": 0.0,
			"-0.02": 0.0,
			"-0.019": 0.0,
			"-0.018": 0.0,
			"-0.017": 0.0,
			"-0.016": 0.0,
			"-0.015": 0.0,
			"-0.014": 0.0,
			"-0.013": 0.0,
			"-0.012": 0.0129406260806,
			"-0.011": 1.6204389086,
			"-0.01": 3.57233474451,
			"-0.009": 3.71260450159,
			"-0.008": 3.32304761771,
			"-0.007": 3.6592737821,
			"-0.006": 4.75575476205,
			"-0.005": 7.44117989469,
			"-0.004": 8.23835255442,
			"-0.003": 8.54944627447,
			"-0.002": 11.9756861901,
			"-0.001": 19.7396725862,
			"0.0": 21.3210915759,
			"0.001": 15.9089149372,
			"0.002": 9.49843381884,
			"0.003": 12.1350043995,
			"0.004": 9.37001807108,
			"0.005": 2.87381586345,
			"0.006": 2.372142203,
			"0.007": 3.12744050476,
			"0.008": 3.19582389009,
			"0.009": 3.3433758062,
			"0.01": 2.73736738411,
			"0.011": 2.73391452832,
			"0.012": 2.03906774654,
			"0.013": 0.510193077585,
			"0.014": 0.0,
			"0.015": 0.0,
			"0.016": 0.0,
			"0.017": 0.0,
			"0.018": 0.0,
			"0.019": 0.0,
			"0.02": 0.0,
			"0.021": 0.0,
			"0.022": 0.0,
			"0.023": 0.0,
			"0.024": 0.0,
			"0.025": 0.0
		}
	}
}
