{
	 "smiles": "O=C(OCC1C2=CC=CC=C2C2=CC=CC=C12)ON1C(=O)CCC1=O", 
	 "Tm": 424.65, 
	 "num_atms": 40, 
	 "gaussian": { 
		 "optdone": 1, 
		 "sigma_profile": "yes", 
		 "theory": "DFT", 
		 "functional": "B3LYP", 
		 "basiset": "6-31G**", 
		 "properties": { 
			 "R2extent": 10576.7647, 
			 "electric_dipole_moment_norm": 1.66322440458, 
			 "electric_quadrupole_moment_norm": 32.566758497, 
			 "total_energy": -1163.92674138, 
			 "HOMO_LUMO_gap": 0.18432, 
			 "cosmo_polarized_energy": -18.65, 
			 "cosmo_cavitation_energy": 45.44, 
			 "cosmo_dispersion_energy": -31.02, 
			 "cosmo_repulsion_energy": 2.33, 
			 "cosmo_total_nonelectrostatic_energy": 16.74, 
			 "SMD_solvation_energy": 9.99 
		},
		"coords": [
			{
				"x": -0.4866529857,
				"y": 2.7231011898,
				"z": -0.4802869091,
				"element": "O" 
			},
			{
				"x": -0.7071532967,
				"y": 1.7883820067,
				"z": -1.20347067,
				"element": "C" 
			},
			{
				"x": 0.063166583,
				"y": 0.7541872,
				"z": -1.5009117483,
				"element": "O" 
			},
			{
				"x": 1.3500278845,
				"y": 0.7054430939,
				"z": -0.829270646,
				"element": "C" 
			},
			{
				"x": 1.2330626486,
				"y": 0.2571890904,
				"z": 0.6364603917,
				"element": "C" 
			},
			{
				"x": 2.6237440126,
				"y": 0.1006616422,
				"z": 1.2347744057,
				"element": "C" 
			},
			{
				"x": 3.6274731775,
				"y": 1.0511788293,
				"z": 1.3866271784,
				"element": "C" 
			},
			{
				"x": 4.8486513216,
				"y": 0.6626658053,
				"z": 1.9510633512,
				"element": "C" 
			},
			{
				"x": 5.0548615134,
				"y": -0.6607537361,
				"z": 2.3542575685,
				"element": "C" 
			},
			{
				"x": 4.0480647018,
				"y": -1.6179744322,
				"z": 2.2054871836,
				"element": "C" 
			},
			{
				"x": 2.8293632849,
				"y": -1.2337166162,
				"z": 1.6426458313,
				"element": "C" 
			},
			{
				"x": 1.6013959014,
				"y": -1.9977793592,
				"z": 1.3843551227,
				"element": "C" 
			},
			{
				"x": 1.2900900961,
				"y": -3.3353695939,
				"z": 1.6361718374,
				"element": "C" 
			},
			{
				"x": 0.0118275578,
				"y": -3.799218676,
				"z": 1.3182262022,
				"element": "C" 
			},
			{
				"x": -0.942870689,
				"y": -2.9379665352,
				"z": 0.7668479426,
				"element": "C" 
			},
			{
				"x": -0.6350935211,
				"y": -1.5963359738,
				"z": 0.511658558,
				"element": "C" 
			},
			{
				"x": 0.6429965064,
				"y": -1.1342147887,
				"z": 0.8127089825,
				"element": "C" 
			},
			{
				"x": -1.8865233489,
				"y": 1.5859903246,
				"z": -1.9116598087,
				"element": "O" 
			},
			{
				"x": -2.8399639771,
				"y": 2.5168313566,
				"z": -1.5798503447,
				"element": "N" 
			},
			{
				"x": -3.6442470099,
				"y": 2.3396927357,
				"z": -0.4503892475,
				"element": "C" 
			},
			{
				"x": -3.5861092198,
				"y": 1.3934238227,
				"z": 0.2980446111,
				"element": "O" 
			},
			{
				"x": -4.5531903478,
				"y": 3.5618159436,
				"z": -0.403387842,
				"element": "C" 
			},
			{
				"x": -4.1081613879,
				"y": 4.4657266089,
				"z": -1.5745866004,
				"element": "C" 
			},
			{
				"x": -2.9592912382,
				"y": 3.7342073493,
				"z": -2.2622279461,
				"element": "C" 
			},
			{
				"x": -2.2778549735,
				"y": 4.0811800461,
				"z": -3.1942943048,
				"element": "O" 
			},
			{
				"x": 1.8157498437,
				"y": 1.6913737959,
				"z": -0.8968650477,
				"element": "H" 
			},
			{
				"x": 1.9231425925,
				"y": -0.0165717645,
				"z": -1.4116601865,
				"element": "H" 
			},
			{
				"x": 0.6489925566,
				"y": 1.0130540044,
				"z": 1.1760119467,
				"element": "H" 
			},
			{
				"x": 3.4708404133,
				"y": 2.0834229627,
				"z": 1.0837680668,
				"element": "H" 
			},
			{
				"x": 5.6400030689,
				"y": 1.3952754753,
				"z": 2.0797013603,
				"element": "H" 
			},
			{
				"x": 6.0073480586,
				"y": -0.9464189613,
				"z": 2.7915602601,
				"element": "H" 
			},
			{
				"x": 4.2145632027,
				"y": -2.6425680622,
				"z": 2.5262075215,
				"element": "H" 
			},
			{
				"x": 2.0232731407,
				"y": -4.0047305329,
				"z": 2.0777498515,
				"element": "H" 
			},
			{
				"x": -0.2468804528,
				"y": -4.8367946121,
				"z": 1.5097364068,
				"element": "H" 
			},
			{
				"x": -1.9366412098,
				"y": -3.3116303187,
				"z": 0.5381989024,
				"element": "H" 
			},
			{
				"x": -1.3904124558,
				"y": -0.9339663315,
				"z": 0.1001512293,
				"element": "H" 
			},
			{
				"x": -4.4397138127,
				"y": 4.0373507204,
				"z": 0.5743084208,
				"element": "H" 
			},
			{
				"x": -5.5924078995,
				"y": 3.2309430876,
				"z": -0.4841464388,
				"element": "H" 
			},
			{
				"x": -4.8997896559,
				"y": 4.643203079,
				"z": -2.3077686893,
				"element": "H" 
			},
			{
				"x": -3.7442805844,
				"y": 5.4432101244,
				"z": -1.2475467033,
				"element": "H" 
			}
		],
		 "valence_orbital": [ 
			{
				"type": "occ",
				"energy": -0.2813,
				"method": "rhf"
			},
			{
				"type": "occ",
				"energy": -0.27039,
				"method": "rhf"
			},
			{
				"type": "occ",
				"energy": -0.25228,
				"method": "rhf"
			},
			{
				"type": "occ",
				"energy": -0.24433,
				"method": "rhf"
			},
			{
				"type": "occ",
				"energy": -0.21626,
				"method": "rhf"
			},
			{
				"type": "unocc",
				"energy": -0.03194,
				"method": "rhf"
			},
			{
				"type": "unocc",
				"energy": -0.03031,
				"method": "rhf"
			},
			{
				"type": "unocc",
				"energy": -0.01395,
				"method": "rhf"
			},
			{
				"type": "unocc",
				"energy": 0.00595,
				"method": "rhf"
			},
			{
				"type": "unocc",
				"energy": 0.01304,
				"method": "rhf"
			}
		],
		"cosmo_sigma_profile": { 
			"-0.025": 0.0,
			"-0.024": 0.0,
			"-0.023": 0.0,
			"-0.022": 0.0,
			"-0.021": 0.0,
			"-0.02": 0.0,
			"-0.019": 0.0,
			"-0.018": 0.0,
			"-0.017": 0.0,
			"-0.016": 0.0,
			"-0.015": 0.0,
			"-0.014": 0.0,
			"-0.013": 0.0,
			"-0.012": 0.0,
			"-0.011": 0.0,
			"-0.01": 0.0129085376955,
			"-0.009": 0.821196168051,
			"-0.008": 13.84540894,
			"-0.007": 19.7030610015,
			"-0.006": 24.0949417699,
			"-0.005": 27.9759525791,
			"-0.004": 30.8345398388,
			"-0.003": 25.6337483822,
			"-0.002": 17.5098440275,
			"-0.001": 19.0591660332,
			"0.0": 17.6774699091,
			"0.001": 17.6834461981,
			"0.002": 22.2890523812,
			"0.003": 22.9151772836,
			"0.004": 24.9069830812,
			"0.005": 27.664916956,
			"0.006": 15.3052077327,
			"0.007": 5.30151033383,
			"0.008": 5.0391534855,
			"0.009": 7.46159344118,
			"0.01": 8.73228790616,
			"0.011": 7.25124234143,
			"0.012": 1.715185168,
			"0.013": 0.0,
			"0.014": 0.0,
			"0.015": 0.0,
			"0.016": 0.0,
			"0.017": 0.0,
			"0.018": 0.0,
			"0.019": 0.0,
			"0.02": 0.0,
			"0.021": 0.0,
			"0.022": 0.0,
			"0.023": 0.0,
			"0.024": 0.0,
			"0.025": 0.0
		}
	}
}
