{
	 "smiles": "CC(C)C1COC2(C)C=CC(=O)N12", 
	 "Tm": 321.15, 
	 "num_atms": 28, 
	 "gaussian": { 
		 "optdone": 1, 
		 "sigma_profile": "yes", 
		 "theory": "DFT", 
		 "functional": "B3LYP", 
		 "basiset": "6-31G**", 
		 "properties": { 
			 "R2extent": 2320.9636, 
			 "electric_dipole_moment_norm": 2.78283728594, 
			 "electric_quadrupole_moment_norm": 12.0479737906, 
			 "total_energy": -595.294519043, 
			 "HOMO_LUMO_gap": 0.20563, 
			 "cosmo_polarized_energy": -10.47, 
			 "cosmo_cavitation_energy": 28.55, 
			 "cosmo_dispersion_energy": -20.37, 
			 "cosmo_repulsion_energy": 1.58, 
			 "cosmo_total_nonelectrostatic_energy": 9.77, 
			 "SMD_solvation_energy": 5.05 
		},
		"coords": [
			{
				"x": 0.5421102771,
				"y": 0.385302948,
				"z": -2.2226194463,
				"element": "C" 
			},
			{
				"x": -0.3278348617,
				"y": 1.4385875647,
				"z": -1.5230361785,
				"element": "C" 
			},
			{
				"x": 0.4117033598,
				"y": 2.7826547862,
				"z": -1.4400425492,
				"element": "C" 
			},
			{
				"x": -0.8371536129,
				"y": 1.0035903377,
				"z": -0.130442262,
				"element": "C" 
			},
			{
				"x": -1.8676844342,
				"y": -0.156782003,
				"z": -0.1427066071,
				"element": "C" 
			},
			{
				"x": -1.6200786355,
				"y": -0.9211201509,
				"z": 1.0391951509,
				"element": "O" 
			},
			{
				"x": -0.212308742,
				"y": -0.860358542,
				"z": 1.2707554034,
				"element": "C" 
			},
			{
				"x": 0.510466188,
				"y": -2.0101803051,
				"z": 0.5603335301,
				"element": "C" 
			},
			{
				"x": 0.1216588144,
				"y": -0.8229660403,
				"z": 2.7482092411,
				"element": "C" 
			},
			{
				"x": 0.6545695246,
				"y": 0.3579385856,
				"z": 3.069102921,
				"element": "C" 
			},
			{
				"x": 0.5942714023,
				"y": 1.2617654166,
				"z": 1.8822767363,
				"element": "C" 
			},
			{
				"x": 0.7925122154,
				"y": 2.463224426,
				"z": 1.8503071606,
				"element": "O" 
			},
			{
				"x": 0.1886206277,
				"y": 0.4762141749,
				"z": 0.7939197273,
				"element": "N" 
			},
			{
				"x": 1.4454484673,
				"y": 0.1831101853,
				"z": -1.6388930345,
				"element": "H" 
			},
			{
				"x": 0.8519381439,
				"y": 0.7465194643,
				"z": -3.2084642514,
				"element": "H" 
			},
			{
				"x": 0.0163968841,
				"y": -0.5628883721,
				"z": -2.3769223488,
				"element": "H" 
			},
			{
				"x": -1.2335459291,
				"y": 1.5915109669,
				"z": -2.1311263485,
				"element": "H" 
			},
			{
				"x": 1.2917432629,
				"y": 2.7061293154,
				"z": -0.7951144228,
				"element": "H" 
			},
			{
				"x": -0.2274026529,
				"y": 3.5646189955,
				"z": -1.0178938277,
				"element": "H" 
			},
			{
				"x": 0.734974736,
				"y": 3.1072447804,
				"z": -2.4348309028,
				"element": "H" 
			},
			{
				"x": -1.2839109911,
				"y": 1.8848444095,
				"z": 0.3455819852,
				"element": "H" 
			},
			{
				"x": -1.7575750167,
				"y": -0.7800563525,
				"z": -1.0411975902,
				"element": "H" 
			},
			{
				"x": -2.8994100177,
				"y": 0.2004144125,
				"z": -0.0985650537,
				"element": "H" 
			},
			{
				"x": 0.2972984696,
				"y": -2.0047758002,
				"z": -0.5105439335,
				"element": "H" 
			},
			{
				"x": 1.5920731003,
				"y": -1.9260685113,
				"z": 0.6968659073,
				"element": "H" 
			},
			{
				"x": 0.1733062178,
				"y": -2.9651301679,
				"z": 0.9745409117,
				"element": "H" 
			},
			{
				"x": -0.0150147236,
				"y": -1.6862741674,
				"z": 3.3895765728,
				"element": "H" 
			},
			{
				"x": 1.0187279262,
				"y": 0.6942296429,
				"z": 4.0315335093,
				"element": "H" 
			}
		],
		 "valence_orbital": [ 
			{
				"type": "occ",
				"energy": -0.32009,
				"method": "rhf"
			},
			{
				"type": "occ",
				"energy": -0.28457,
				"method": "rhf"
			},
			{
				"type": "occ",
				"energy": -0.2682,
				"method": "rhf"
			},
			{
				"type": "occ",
				"energy": -0.25786,
				"method": "rhf"
			},
			{
				"type": "occ",
				"energy": -0.2504,
				"method": "rhf"
			},
			{
				"type": "unocc",
				"energy": -0.04477,
				"method": "rhf"
			},
			{
				"type": "unocc",
				"energy": 0.07104,
				"method": "rhf"
			},
			{
				"type": "unocc",
				"energy": 0.07518,
				"method": "rhf"
			},
			{
				"type": "unocc",
				"energy": 0.10019,
				"method": "rhf"
			},
			{
				"type": "unocc",
				"energy": 0.10634,
				"method": "rhf"
			}
		],
		"cosmo_sigma_profile": { 
			"-0.025": 0.0,
			"-0.024": 0.0,
			"-0.023": 0.0,
			"-0.022": 0.0,
			"-0.021": 0.0,
			"-0.02": 0.0,
			"-0.019": 0.0,
			"-0.018": 0.0,
			"-0.017": 0.0,
			"-0.016": 0.0,
			"-0.015": 0.0,
			"-0.014": 0.0,
			"-0.013": 0.0,
			"-0.012": 0.0,
			"-0.011": 0.0,
			"-0.01": 0.0,
			"-0.009": 0.361899704993,
			"-0.008": 3.83462137729,
			"-0.007": 4.08735403451,
			"-0.006": 7.56406218083,
			"-0.005": 14.40773245,
			"-0.004": 19.2428909811,
			"-0.003": 20.8039630484,
			"-0.002": 23.9749824886,
			"-0.001": 25.5796475266,
			"0.0": 24.5310158317,
			"0.001": 20.4513698196,
			"0.002": 13.4441177356,
			"0.003": 6.17918242658,
			"0.004": 5.44987982186,
			"0.005": 4.36603270542,
			"0.006": 3.29956977259,
			"0.007": 3.65084814516,
			"0.008": 2.48085297676,
			"0.009": 2.50651529114,
			"0.01": 3.47194351375,
			"0.011": 3.3948095702,
			"0.012": 4.72149376598,
			"0.013": 4.19813235259,
			"0.014": 0.951520775798,
			"0.015": 0.0,
			"0.016": 0.0,
			"0.017": 0.0,
			"0.018": 0.0,
			"0.019": 0.0,
			"0.02": 0.0,
			"0.021": 0.0,
			"0.022": 0.0,
			"0.023": 0.0,
			"0.024": 0.0,
			"0.025": 0.0
		}
	}
}
