{
	 "smiles": "CC1=CC(F)=CC=C1CC(O)=O", 
	 "Tm": 370.65, 
	 "num_atms": 21, 
	 "gaussian": { 
		 "optdone": 1, 
		 "sigma_profile": "yes", 
		 "theory": "DFT", 
		 "functional": "B3LYP", 
		 "basiset": "6-31G**", 
		 "properties": { 
			 "R2extent": 2595.7706, 
			 "electric_dipole_moment_norm": 3.37636000006, 
			 "electric_quadrupole_moment_norm": 14.7496080314, 
			 "total_energy": -598.681489435, 
			 "HOMO_LUMO_gap": 0.22292, 
			 "cosmo_polarized_energy": -12.77, 
			 "cosmo_cavitation_energy": 25.32, 
			 "cosmo_dispersion_energy": -17.95, 
			 "cosmo_repulsion_energy": 1.4, 
			 "cosmo_total_nonelectrostatic_energy": 8.77, 
			 "SMD_solvation_energy": 5.92 
		},
		"coords": [
			{
				"x": -1.5560319224,
				"y": 0.9918507151,
				"z": -0.3991571283,
				"element": "C" 
			},
			{
				"x": -1.3164351055,
				"y": -0.2196027139,
				"z": 0.4706843103,
				"element": "C" 
			},
			{
				"x": -2.2474574209,
				"y": -0.5613932265,
				"z": 1.4564576981,
				"element": "C" 
			},
			{
				"x": -2.0328281314,
				"y": -1.6712566561,
				"z": 2.2662658123,
				"element": "C" 
			},
			{
				"x": -2.9487818404,
				"y": -1.9748303497,
				"z": 3.2068774955,
				"element": "F" 
			},
			{
				"x": -0.9060830026,
				"y": -2.4701803383,
				"z": 2.1343728753,
				"element": "C" 
			},
			{
				"x": 0.0216150582,
				"y": -2.1312328606,
				"z": 1.1493719632,
				"element": "C" 
			},
			{
				"x": -0.1595955709,
				"y": -1.0213016518,
				"z": 0.3110117723,
				"element": "C" 
			},
			{
				"x": 0.8798090525,
				"y": -0.6945977635,
				"z": -0.7393571077,
				"element": "C" 
			},
			{
				"x": 1.7902098833,
				"y": 0.5095319328,
				"z": -0.4425672088,
				"element": "C" 
			},
			{
				"x": 1.8914348462,
				"y": 0.87678539,
				"z": 0.8571083749,
				"element": "O" 
			},
			{
				"x": 2.4115080886,
				"y": 1.0849508328,
				"z": -1.2999128347,
				"element": "O" 
			},
			{
				"x": -1.5867857772,
				"y": 0.7256795298,
				"z": -1.461958965,
				"element": "H" 
			},
			{
				"x": -2.5039027425,
				"y": 1.4733905141,
				"z": -0.1483342622,
				"element": "H" 
			},
			{
				"x": -0.7615875544,
				"y": 1.7372984112,
				"z": -0.2800128939,
				"element": "H" 
			},
			{
				"x": -3.1455532212,
				"y": 0.0299591866,
				"z": 1.6026415315,
				"element": "H" 
			},
			{
				"x": -0.7694420823,
				"y": -3.3300870239,
				"z": 2.7803947777,
				"element": "H" 
			},
			{
				"x": 0.9055402888,
				"y": -2.751113285,
				"z": 1.0222470207,
				"element": "H" 
			},
			{
				"x": 1.5498569693,
				"y": -1.5512684539,
				"z": -0.8780278761,
				"element": "H" 
			},
			{
				"x": 0.4327951843,
				"y": -0.4986848455,
				"z": -1.7178717754,
				"element": "H" 
			},
			{
				"x": 1.3093150006,
				"y": 0.3149026563,
				"z": 1.3944664204,
				"element": "H" 
			}
		],
		 "valence_orbital": [ 
			{
				"type": "occ",
				"energy": -0.35603,
				"method": "rhf"
			},
			{
				"type": "occ",
				"energy": -0.31266,
				"method": "rhf"
			},
			{
				"type": "occ",
				"energy": -0.27902,
				"method": "rhf"
			},
			{
				"type": "occ",
				"energy": -0.27059,
				"method": "rhf"
			},
			{
				"type": "occ",
				"energy": -0.24944,
				"method": "rhf"
			},
			{
				"type": "unocc",
				"energy": -0.02652,
				"method": "rhf"
			},
			{
				"type": "unocc",
				"energy": -0.02186,
				"method": "rhf"
			},
			{
				"type": "unocc",
				"energy": 0.01068,
				"method": "rhf"
			},
			{
				"type": "unocc",
				"energy": 0.07011,
				"method": "rhf"
			},
			{
				"type": "unocc",
				"energy": 0.08078,
				"method": "rhf"
			}
		],
		"cosmo_sigma_profile": { 
			"-0.025": 0.0,
			"-0.024": 0.0,
			"-0.023": 0.0,
			"-0.022": 0.0,
			"-0.021": 0.0,
			"-0.02": 0.0,
			"-0.019": 0.0,
			"-0.018": 0.0,
			"-0.017": 0.0,
			"-0.016": 0.0,
			"-0.015": 0.0959317099391,
			"-0.014": 0.409313000458,
			"-0.013": 0.570419948723,
			"-0.012": 0.533746580068,
			"-0.011": 0.959366475883,
			"-0.01": 1.5406679825,
			"-0.009": 1.31927984544,
			"-0.008": 4.64600544271,
			"-0.007": 10.1455743695,
			"-0.006": 12.5952489101,
			"-0.005": 13.8070019037,
			"-0.004": 13.8680946602,
			"-0.003": 15.2050379846,
			"-0.002": 12.43676283,
			"-0.001": 12.7824567401,
			"0.0": 13.7502982456,
			"0.001": 14.3488451952,
			"0.002": 12.6985455587,
			"0.003": 11.5216955092,
			"0.004": 14.2659212606,
			"0.005": 5.63096466595,
			"0.006": 1.43796723664,
			"0.007": 2.50273711822,
			"0.008": 2.57760081164,
			"0.009": 2.73664911052,
			"0.01": 5.31396875054,
			"0.011": 4.76140611465,
			"0.012": 5.75924014485,
			"0.013": 2.86181062395,
			"0.014": 0.14287301895,
			"0.015": 0.0,
			"0.016": 0.0,
			"0.017": 0.0,
			"0.018": 0.0,
			"0.019": 0.0,
			"0.02": 0.0,
			"0.021": 0.0,
			"0.022": 0.0,
			"0.023": 0.0,
			"0.024": 0.0,
			"0.025": 0.0
		}
	}
}
