{
	 "smiles": "CC1=C(NC(=O)CCl)C=CC=C1", 
	 "Tm": 349.15, 
	 "num_atms": 22, 
	 "gaussian": { 
		 "optdone": 1, 
		 "sigma_profile": "yes", 
		 "theory": "DFT", 
		 "functional": "B3LYP", 
		 "basiset": "6-31G**", 
		 "properties": { 
			 "R2extent": 3971.9272, 
			 "electric_dipole_moment_norm": 4.33709007631, 
			 "electric_quadrupole_moment_norm": 17.7056597671, 
			 "total_energy": -939.169197771, 
			 "HOMO_LUMO_gap": 0.20277, 
			 "cosmo_polarized_energy": -11.68, 
			 "cosmo_cavitation_energy": 27.26, 
			 "cosmo_dispersion_energy": -19.65, 
			 "cosmo_repulsion_energy": 1.58, 
			 "cosmo_total_nonelectrostatic_energy": 9.19, 
			 "SMD_solvation_energy": 5.23 
		},
		"coords": [
			{
				"x": -1.5571902324,
				"y": 1.6479391502,
				"z": 0.199848556,
				"element": "C" 
			},
			{
				"x": -0.4493265388,
				"y": 0.6594553604,
				"z": -0.0727953637,
				"element": "C" 
			},
			{
				"x": 0.5547368708,
				"y": 0.4079621963,
				"z": 0.8876256462,
				"element": "C" 
			},
			{
				"x": 0.4831685681,
				"y": 1.0853234028,
				"z": 2.1346249355,
				"element": "N" 
			},
			{
				"x": 1.4417454817,
				"y": 1.7352345079,
				"z": 2.8812243138,
				"element": "C" 
			},
			{
				"x": 1.1639455213,
				"y": 2.2363539576,
				"z": 3.9591802059,
				"element": "O" 
			},
			{
				"x": 2.8445203504,
				"y": 1.8691131436,
				"z": 2.293036684,
				"element": "C" 
			},
			{
				"x": 3.9877522507,
				"y": 0.687903867,
				"z": 3.0602578822,
				"element": "Cl" 
			},
			{
				"x": 1.567173512,
				"y": -0.5242604411,
				"z": 0.6285303499,
				"element": "C" 
			},
			{
				"x": 1.6179069432,
				"y": -1.1823038361,
				"z": -0.6000259352,
				"element": "C" 
			},
			{
				"x": 0.6373752559,
				"y": -0.9398729753,
				"z": -1.5605638799,
				"element": "C" 
			},
			{
				"x": -0.387405574,
				"y": -0.033117379,
				"z": -1.2862534175,
				"element": "C" 
			},
			{
				"x": -1.1627533163,
				"y": 2.6153754428,
				"z": 0.5292743589,
				"element": "H" 
			},
			{
				"x": -2.1590658917,
				"y": 1.8131778935,
				"z": -0.6969198528,
				"element": "H" 
			},
			{
				"x": -2.2396159458,
				"y": 1.2963464277,
				"z": 0.9855847188,
				"element": "H" 
			},
			{
				"x": -0.4304623176,
				"y": 1.1644176202,
				"z": 2.5661592696,
				"element": "H" 
			},
			{
				"x": 2.8877795851,
				"y": 1.7062129262,
				"z": 1.2174413078,
				"element": "H" 
			},
			{
				"x": 3.2105945676,
				"y": 2.8616095489,
				"z": 2.5511152437,
				"element": "H" 
			},
			{
				"x": 2.3015490129,
				"y": -0.7436518425,
				"z": 1.3959682693,
				"element": "H" 
			},
			{
				"x": 2.4126711039,
				"y": -1.8967302668,
				"z": -0.7920870715,
				"element": "H" 
			},
			{
				"x": 0.6642253268,
				"y": -1.4557412628,
				"z": -2.5156081207,
				"element": "H" 
			},
			{
				"x": -1.1543245337,
				"y": 0.1540525586,
				"z": -2.0334181002,
				"element": "H" 
			}
		],
		 "valence_orbital": [ 
			{
				"type": "occ",
				"energy": -0.30746,
				"method": "rhf"
			},
			{
				"type": "occ",
				"energy": -0.29704,
				"method": "rhf"
			},
			{
				"type": "occ",
				"energy": -0.26273,
				"method": "rhf"
			},
			{
				"type": "occ",
				"energy": -0.25767,
				"method": "rhf"
			},
			{
				"type": "occ",
				"energy": -0.23579,
				"method": "rhf"
			},
			{
				"type": "unocc",
				"energy": -0.03302,
				"method": "rhf"
			},
			{
				"type": "unocc",
				"energy": -0.01288,
				"method": "rhf"
			},
			{
				"type": "unocc",
				"energy": -0.00564,
				"method": "rhf"
			},
			{
				"type": "unocc",
				"energy": 0.05633,
				"method": "rhf"
			},
			{
				"type": "unocc",
				"energy": 0.07736,
				"method": "rhf"
			}
		],
		"cosmo_sigma_profile": { 
			"-0.025": 0.0,
			"-0.024": 0.0,
			"-0.023": 0.0,
			"-0.022": 0.0,
			"-0.021": 0.0,
			"-0.02": 0.0,
			"-0.019": 0.0,
			"-0.018": 0.0,
			"-0.017": 0.0,
			"-0.016": 0.0,
			"-0.015": 0.0,
			"-0.014": 0.377521138877,
			"-0.013": 1.08719597778,
			"-0.012": 1.09909565112,
			"-0.011": 1.17056407449,
			"-0.01": 1.02839391858,
			"-0.009": 1.71082211437,
			"-0.008": 4.81721829272,
			"-0.007": 4.94394427112,
			"-0.006": 9.955172686,
			"-0.005": 15.1192083927,
			"-0.004": 17.7965593035,
			"-0.003": 17.0773175357,
			"-0.002": 15.8122018673,
			"-0.001": 16.9501263573,
			"0.0": 17.2528617087,
			"0.001": 13.3953759771,
			"0.002": 11.7067373972,
			"0.003": 13.3168929428,
			"0.004": 13.3843266067,
			"0.005": 16.332145563,
			"0.006": 7.31490563458,
			"0.007": 1.72056248759,
			"0.008": 0.976395668161,
			"0.009": 0.948211770021,
			"0.01": 1.83564576586,
			"0.011": 2.06829603939,
			"0.012": 3.57696550304,
			"0.013": 5.22596820856,
			"0.014": 0.873210409796,
			"0.015": 0.0,
			"0.016": 0.0,
			"0.017": 0.0,
			"0.018": 0.0,
			"0.019": 0.0,
			"0.02": 0.0,
			"0.021": 0.0,
			"0.022": 0.0,
			"0.023": 0.0,
			"0.024": 0.0,
			"0.025": 0.0
		}
	}
}
