{
	 "smiles": "ClC(Cl)C(Cl)Cl", 
	 "Tm": 229.65, 
	 "num_atms": 8, 
	 "gaussian": { 
		 "optdone": 1, 
		 "sigma_profile": "yes", 
		 "theory": "DFT", 
		 "functional": "B3LYP", 
		 "basiset": "6-31G**", 
		 "properties": { 
			 "R2extent": 2109.145, 
			 "electric_dipole_moment_norm": 1.90052700586, 
			 "electric_quadrupole_moment_norm": 3.61782242516, 
			 "total_energy": -1918.17388754, 
			 "HOMO_LUMO_gap": 0.28226, 
			 "cosmo_polarized_energy": -6.48, 
			 "cosmo_cavitation_energy": 18.73, 
			 "cosmo_dispersion_energy": -14.36, 
			 "cosmo_repulsion_energy": 1.24, 
			 "cosmo_total_nonelectrostatic_energy": 5.61, 
			 "SMD_solvation_energy": 1.88 
		},
		"coords": [
			{
				"x": 0.7258803212,
				"y": 2.9592932037,
				"z": -0.4883961978,
				"element": "Cl" 
			},
			{
				"x": -0.7362378803,
				"y": 2.1246279231,
				"z": 0.1479607148,
				"element": "C" 
			},
			{
				"x": -2.2304252452,
				"y": 2.7479946201,
				"z": -0.6023592433,
				"element": "Cl" 
			},
			{
				"x": -0.5621589443,
				"y": 0.6037147525,
				"z": 0.0044885104,
				"element": "C" 
			},
			{
				"x": -1.8132062173,
				"y": -0.2394141616,
				"z": 0.98603857,
				"element": "Cl" 
			},
			{
				"x": -0.56180046,
				"y": 0.0399047375,
				"z": -1.6885134579,
				"element": "Cl" 
			},
			{
				"x": -0.7890839143,
				"y": 2.362586747,
				"z": 1.2092993312,
				"element": "H" 
			},
			{
				"x": 0.4010323402,
				"y": 0.3294921777,
				"z": 0.4321817725,
				"element": "H" 
			}
		],
		 "valence_orbital": [ 
			{
				"type": "occ",
				"energy": -0.33893,
				"method": "rhf"
			},
			{
				"type": "occ",
				"energy": -0.32526,
				"method": "rhf"
			},
			{
				"type": "occ",
				"energy": -0.32441,
				"method": "rhf"
			},
			{
				"type": "occ",
				"energy": -0.32163,
				"method": "rhf"
			},
			{
				"type": "occ",
				"energy": -0.31807,
				"method": "rhf"
			},
			{
				"type": "unocc",
				"energy": -0.03581,
				"method": "rhf"
			},
			{
				"type": "unocc",
				"energy": -0.03382,
				"method": "rhf"
			},
			{
				"type": "unocc",
				"energy": 0.01352,
				"method": "rhf"
			},
			{
				"type": "unocc",
				"energy": 0.02134,
				"method": "rhf"
			},
			{
				"type": "unocc",
				"energy": 0.08292,
				"method": "rhf"
			}
		],
		"cosmo_sigma_profile": { 
			"-0.025": 0.0,
			"-0.024": 0.0,
			"-0.023": 0.0,
			"-0.022": 0.0,
			"-0.021": 0.0,
			"-0.02": 0.0,
			"-0.019": 0.0,
			"-0.018": 0.0,
			"-0.017": 0.0,
			"-0.016": 0.0,
			"-0.015": 0.0,
			"-0.014": 0.0,
			"-0.013": 1.14523093505,
			"-0.012": 4.60368148467,
			"-0.011": 3.81526080372,
			"-0.01": 2.43597706239,
			"-0.009": 2.5911915721,
			"-0.008": 2.46700509035,
			"-0.007": 1.74924593189,
			"-0.006": 2.20364297815,
			"-0.005": 2.55701673765,
			"-0.004": 3.37553289162,
			"-0.003": 7.3329916615,
			"-0.002": 7.67749294504,
			"-0.001": 8.93777411914,
			"0.0": 10.5178847182,
			"0.001": 14.3716463935,
			"0.002": 18.6084627646,
			"0.003": 33.0674877557,
			"0.004": 27.4663073697,
			"0.005": 3.17192482588,
			"0.006": 0.0,
			"0.007": 0.0,
			"0.008": 0.0,
			"0.009": 0.0,
			"0.01": 0.0,
			"0.011": 0.0,
			"0.012": 0.0,
			"0.013": 0.0,
			"0.014": 0.0,
			"0.015": 0.0,
			"0.016": 0.0,
			"0.017": 0.0,
			"0.018": 0.0,
			"0.019": 0.0,
			"0.02": 0.0,
			"0.021": 0.0,
			"0.022": 0.0,
			"0.023": 0.0,
			"0.024": 0.0,
			"0.025": 0.0
		}
	}
}
