{
	 "smiles": "COC1=C(NC(=O)CCl)C=C(C=C1)S(=O)(=O)N1CCCCC1", 
	 "Tm": 395.15, 
	 "num_atms": 41, 
	 "gaussian": { 
		 "optdone": 1, 
		 "sigma_profile": "yes", 
		 "theory": "DFT", 
		 "functional": "B3LYP", 
		 "basiset": "6-31G**", 
		 "properties": { 
			 "R2extent": 8890.4279, 
			 "electric_dipole_moment_norm": 6.76642756926, 
			 "electric_quadrupole_moment_norm": 35.1204819664, 
			 "total_energy": -1813.64763037, 
			 "HOMO_LUMO_gap": 0.18437, 
			 "cosmo_polarized_energy": -22.22, 
			 "cosmo_cavitation_energy": 45.52, 
			 "cosmo_dispersion_energy": -31.39, 
			 "cosmo_repulsion_energy": 2.39, 
			 "cosmo_total_nonelectrostatic_energy": 16.52, 
			 "SMD_solvation_energy": 6.48 
		},
		"coords": [
			{
				"x": 1.9648139246,
				"y": -2.8457457162,
				"z": -4.2888568383,
				"element": "C" 
			},
			{
				"x": 2.3823722211,
				"y": -2.3018416189,
				"z": -3.0415224077,
				"element": "O" 
			},
			{
				"x": 1.4455875953,
				"y": -2.0736770094,
				"z": -2.0784577974,
				"element": "C" 
			},
			{
				"x": 1.9542295422,
				"y": -1.509389359,
				"z": -0.8764421044,
				"element": "C" 
			},
			{
				"x": 3.3390412355,
				"y": -1.2666889696,
				"z": -0.845856759,
				"element": "N" 
			},
			{
				"x": 4.2922549059,
				"y": -1.2759496594,
				"z": 0.1544538937,
				"element": "C" 
			},
			{
				"x": 5.4717416351,
				"y": -1.1376913646,
				"z": -0.1283873306,
				"element": "O" 
			},
			{
				"x": 3.8657226007,
				"y": -1.4861286062,
				"z": 1.6015431447,
				"element": "C" 
			},
			{
				"x": 3.5140071016,
				"y": 0.1032644457,
				"z": 2.4052966711,
				"element": "Cl" 
			},
			{
				"x": 1.0620325456,
				"y": -1.1994886683,
				"z": 0.1492763072,
				"element": "C" 
			},
			{
				"x": -0.2990530082,
				"y": -1.5002642884,
				"z": 0.0062634613,
				"element": "C" 
			},
			{
				"x": -0.7918815583,
				"y": -2.0799648785,
				"z": -1.1583274668,
				"element": "C" 
			},
			{
				"x": 0.0868361482,
				"y": -2.3556137916,
				"z": -2.2090470772,
				"element": "C" 
			},
			{
				"x": -1.4322670327,
				"y": -1.0915862275,
				"z": 1.343122919,
				"element": "S" 
			},
			{
				"x": -0.6679418536,
				"y": -1.1935043762,
				"z": 2.5886914501,
				"element": "O" 
			},
			{
				"x": -2.6540359772,
				"y": -1.8653304273,
				"z": 1.1052740869,
				"element": "O" 
			},
			{
				"x": -1.8481278302,
				"y": 0.5178615567,
				"z": 1.1768903636,
				"element": "N" 
			},
			{
				"x": -0.8438975321,
				"y": 1.5330416465,
				"z": 1.5578098054,
				"element": "C" 
			},
			{
				"x": -1.4936800878,
				"y": 2.9169607593,
				"z": 1.4928686536,
				"element": "C" 
			},
			{
				"x": -1.9491854135,
				"y": 3.2722852231,
				"z": 0.05800645,
				"element": "C" 
			},
			{
				"x": -2.3159764937,
				"y": 2.0069695823,
				"z": -0.7515317217,
				"element": "C" 
			},
			{
				"x": -2.8515891139,
				"y": 0.8954935902,
				"z": 0.1553530323,
				"element": "C" 
			},
			{
				"x": 1.2448789653,
				"y": -2.1876826218,
				"z": -4.7896602612,
				"element": "H" 
			},
			{
				"x": 2.8668033533,
				"y": -2.9268051033,
				"z": -4.8959095214,
				"element": "H" 
			},
			{
				"x": 1.5225451947,
				"y": -3.8404838912,
				"z": -4.15989712,
				"element": "H" 
			},
			{
				"x": 3.7768387923,
				"y": -1.2570220671,
				"z": -1.7605217931,
				"element": "H" 
			},
			{
				"x": 2.9811253616,
				"y": -2.1120334437,
				"z": 1.7177224733,
				"element": "H" 
			},
			{
				"x": 4.7153110046,
				"y": -1.917989098,
				"z": 2.1262901803,
				"element": "H" 
			},
			{
				"x": 1.4061933414,
				"y": -0.7293963466,
				"z": 1.0608325548,
				"element": "H" 
			},
			{
				"x": -1.8424739703,
				"y": -2.3348690104,
				"z": -1.2334912994,
				"element": "H" 
			},
			{
				"x": -0.293224742,
				"y": -2.8085414989,
				"z": -3.1166420248,
				"element": "H" 
			},
			{
				"x": 0.0321234272,
				"y": 1.5031973635,
				"z": 0.8899407529,
				"element": "H" 
			},
			{
				"x": -0.5003701703,
				"y": 1.3055368966,
				"z": 2.5679132732,
				"element": "H" 
			},
			{
				"x": -2.3497031378,
				"y": 2.9246798482,
				"z": 2.1770335928,
				"element": "H" 
			},
			{
				"x": -0.7840115263,
				"y": 3.660388114,
				"z": 1.8698697266,
				"element": "H" 
			},
			{
				"x": -2.8091582698,
				"y": 3.9491486168,
				"z": 0.1096091539,
				"element": "H" 
			},
			{
				"x": -1.1570010482,
				"y": 3.8189243511,
				"z": -0.4655030429,
				"element": "H" 
			},
			{
				"x": -3.0635432036,
				"y": 2.2405314677,
				"z": -1.517438796,
				"element": "H" 
			},
			{
				"x": -1.4340416459,
				"y": 1.6281347345,
				"z": -1.2814525786,
				"element": "H" 
			},
			{
				"x": -3.7659802612,
				"y": 1.2255827941,
				"z": 0.6652548272,
				"element": "H" 
			},
			{
				"x": -3.1223150197,
				"y": 0.0089870517,
				"z": -0.4209708332,
				"element": "H" 
			}
		],
		 "valence_orbital": [ 
			{
				"type": "occ",
				"energy": -0.29541,
				"method": "rhf"
			},
			{
				"type": "occ",
				"energy": -0.26924,
				"method": "rhf"
			},
			{
				"type": "occ",
				"energy": -0.26709,
				"method": "rhf"
			},
			{
				"type": "occ",
				"energy": -0.24595,
				"method": "rhf"
			},
			{
				"type": "occ",
				"energy": -0.22892,
				"method": "rhf"
			},
			{
				"type": "unocc",
				"energy": -0.04455,
				"method": "rhf"
			},
			{
				"type": "unocc",
				"energy": -0.03206,
				"method": "rhf"
			},
			{
				"type": "unocc",
				"energy": -0.01247,
				"method": "rhf"
			},
			{
				"type": "unocc",
				"energy": 0.05418,
				"method": "rhf"
			},
			{
				"type": "unocc",
				"energy": 0.05684,
				"method": "rhf"
			}
		],
		"cosmo_sigma_profile": { 
			"-0.025": 0.0,
			"-0.024": 0.0,
			"-0.023": 0.0,
			"-0.022": 0.0,
			"-0.021": 0.0,
			"-0.02": 0.0,
			"-0.019": 0.0,
			"-0.018": 0.0,
			"-0.017": 0.0,
			"-0.016": 0.0,
			"-0.015": 0.0,
			"-0.014": 0.0,
			"-0.013": 0.0,
			"-0.012": 0.0299371240656,
			"-0.011": 0.628529435153,
			"-0.01": 0.376123117256,
			"-0.009": 2.46442320875,
			"-0.008": 7.36389380805,
			"-0.007": 11.9651524104,
			"-0.006": 18.1995982674,
			"-0.005": 17.1464373665,
			"-0.004": 29.1502747287,
			"-0.003": 42.5075851574,
			"-0.002": 40.3107513475,
			"-0.001": 28.8233419452,
			"0.0": 29.292286285,
			"0.001": 23.5890964741,
			"0.002": 18.5657930931,
			"0.003": 13.4797393318,
			"0.004": 11.6933376189,
			"0.005": 13.2875432052,
			"0.006": 6.42066474902,
			"0.007": 5.10487795479,
			"0.008": 5.34756242685,
			"0.009": 4.50562387151,
			"0.01": 7.26336537291,
			"0.011": 9.6811052648,
			"0.012": 11.618906033,
			"0.013": 2.63314129698,
			"0.014": 0.0759300976935,
			"0.015": 0.0,
			"0.016": 0.0,
			"0.017": 0.0,
			"0.018": 0.0,
			"0.019": 0.0,
			"0.02": 0.0,
			"0.021": 0.0,
			"0.022": 0.0,
			"0.023": 0.0,
			"0.024": 0.0,
			"0.025": 0.0
		}
	}
}
