{
	 "smiles": "COC1OC2CC3C(C)(C)CCC(O)C13C1C(O)CC3C(O)C21C(=O)C3=C", 
	 "Tm": 534.15, 
	 "num_atms": 57, 
	 "gaussian": { 
		 "optdone": 1, 
		 "sigma_profile": "yes", 
		 "theory": "DFT", 
		 "functional": "B3LYP", 
		 "basiset": "6-31G**", 
		 "properties": { 
			 "R2extent": 8133.9494, 
			 "electric_dipole_moment_norm": 2.73899532493, 
			 "electric_quadrupole_moment_norm": 19.685638088, 
			 "total_energy": -1269.58652798, 
			 "HOMO_LUMO_gap": 0.17621, 
			 "cosmo_polarized_energy": -20.73, 
			 "cosmo_cavitation_energy": 47.61, 
			 "cosmo_dispersion_energy": -32.99, 
			 "cosmo_repulsion_energy": 2.38, 
			 "cosmo_total_nonelectrostatic_energy": 17.0, 
			 "SMD_solvation_energy": 8.35 
		},
		"coords": [
			{
				"x": -3.6874483179,
				"y": -2.2600204384,
				"z": -0.9506232389,
				"element": "C" 
			},
			{
				"x": -2.330662287,
				"y": -2.1490861306,
				"z": -0.526188583,
				"element": "O" 
			},
			{
				"x": -2.141953931,
				"y": -1.2255512158,
				"z": 0.5229381589,
				"element": "C" 
			},
			{
				"x": -2.5119324505,
				"y": 0.101795452,
				"z": 0.1654707421,
				"element": "O" 
			},
			{
				"x": -1.4051047782,
				"y": 0.9939688335,
				"z": -0.1037924839,
				"element": "C" 
			},
			{
				"x": -0.6911534847,
				"y": 1.2868443445,
				"z": 1.2192665969,
				"element": "C" 
			},
			{
				"x": -0.5920384538,
				"y": -0.0536104677,
				"z": 1.9814981403,
				"element": "C" 
			},
			{
				"x": 0.4764220763,
				"y": -0.1368006619,
				"z": 3.1098327913,
				"element": "C" 
			},
			{
				"x": 0.2366776776,
				"y": 1.0326888603,
				"z": 4.0905260052,
				"element": "C" 
			},
			{
				"x": 1.9323183917,
				"y": -0.0354025546,
				"z": 2.6067077362,
				"element": "C" 
			},
			{
				"x": 0.2601099084,
				"y": -1.4880811882,
				"z": 3.8807016773,
				"element": "C" 
			},
			{
				"x": -0.6284687185,
				"y": -2.5167469758,
				"z": 3.1492859894,
				"element": "C" 
			},
			{
				"x": -0.2841274401,
				"y": -2.5915237249,
				"z": 1.6607952452,
				"element": "C" 
			},
			{
				"x": 1.1043105551,
				"y": -2.8898642882,
				"z": 1.6170792966,
				"element": "O" 
			},
			{
				"x": -0.6655186359,
				"y": -1.2529004322,
				"z": 0.9478895994,
				"element": "C" 
			},
			{
				"x": 0.182883212,
				"y": -0.9277567508,
				"z": -0.3322256153,
				"element": "C" 
			},
			{
				"x": 0.5468771061,
				"y": -1.9390936706,
				"z": -1.4508360104,
				"element": "C" 
			},
			{
				"x": 1.0842975922,
				"y": -3.2054130599,
				"z": -1.0278135554,
				"element": "O" 
			},
			{
				"x": 1.6306905655,
				"y": -1.2610970393,
				"z": -2.3146124082,
				"element": "C" 
			},
			{
				"x": 1.1883441497,
				"y": 0.1399335805,
				"z": -2.818843956,
				"element": "C" 
			},
			{
				"x": 0.7768448491,
				"y": 1.0818870667,
				"z": -1.6429779797,
				"element": "C" 
			},
			{
				"x": 0.3440815174,
				"y": 2.3530756904,
				"z": -2.1067768596,
				"element": "O" 
			},
			{
				"x": -0.4478662988,
				"y": 0.3164495835,
				"z": -1.0888604863,
				"element": "C" 
			},
			{
				"x": -1.1827044075,
				"y": 0.0527488033,
				"z": -2.4539753891,
				"element": "C" 
			},
			{
				"x": -2.3771662981,
				"y": 0.0222689889,
				"z": -2.6581452334,
				"element": "O" 
			},
			{
				"x": -0.1332008996,
				"y": -0.004491626,
				"z": -3.5289307195,
				"element": "C" 
			},
			{
				"x": -0.4145943135,
				"y": -0.1645538904,
				"z": -4.8221267867,
				"element": "C" 
			},
			{
				"x": -3.7192839422,
				"y": -3.0535531712,
				"z": -1.7007074345,
				"element": "H" 
			},
			{
				"x": -4.3383923046,
				"y": -2.5376901142,
				"z": -0.1082267163,
				"element": "H" 
			},
			{
				"x": -4.0318153074,
				"y": -1.3223053166,
				"z": -1.3923217786,
				"element": "H" 
			},
			{
				"x": -2.8145550461,
				"y": -1.5002850147,
				"z": 1.3520982407,
				"element": "H" 
			},
			{
				"x": -1.8539878858,
				"y": 1.8826927695,
				"z": -0.5491121554,
				"element": "H" 
			},
			{
				"x": -1.2619528595,
				"y": 2.01450103,
				"z": 1.802726938,
				"element": "H" 
			},
			{
				"x": 0.2886335306,
				"y": 1.7365752807,
				"z": 1.0229304747,
				"element": "H" 
			},
			{
				"x": -1.540216262,
				"y": -0.1286945656,
				"z": 2.5282701611,
				"element": "H" 
			},
			{
				"x": 0.4527281889,
				"y": 2.0041699357,
				"z": 3.6332788187,
				"element": "H" 
			},
			{
				"x": -0.7995038933,
				"y": 1.0506875888,
				"z": 4.4491031515,
				"element": "H" 
			},
			{
				"x": 0.8884215148,
				"y": 0.9300739669,
				"z": 4.9654187597,
				"element": "H" 
			},
			{
				"x": 2.6149076102,
				"y": 0.0140436563,
				"z": 3.4632675278,
				"element": "H" 
			},
			{
				"x": 2.0972027061,
				"y": 0.8734753124,
				"z": 2.0158079816,
				"element": "H" 
			},
			{
				"x": 2.2065391812,
				"y": -0.9098371601,
				"z": 2.0159525118,
				"element": "H" 
			},
			{
				"x": 1.2338841279,
				"y": -1.946425557,
				"z": 4.0726092628,
				"element": "H" 
			},
			{
				"x": -0.1867292952,
				"y": -1.2844414959,
				"z": 4.8610725116,
				"element": "H" 
			},
			{
				"x": -1.690668622,
				"y": -2.2746360172,
				"z": 3.2712892668,
				"element": "H" 
			},
			{
				"x": -0.4805804288,
				"y": -3.5067817248,
				"z": 3.5931829766,
				"element": "H" 
			},
			{
				"x": -0.8628491297,
				"y": -3.4007232027,
				"z": 1.1870478803,
				"element": "H" 
			},
			{
				"x": 1.3356622347,
				"y": -3.0745702175,
				"z": 0.6876163599,
				"element": "H" 
			},
			{
				"x": 1.1450238793,
				"y": -0.5905930817,
				"z": 0.0649167197,
				"element": "H" 
			},
			{
				"x": -0.3422040948,
				"y": -2.1499572824,
				"z": -2.0484697776,
				"element": "H" 
			},
			{
				"x": 0.3462447182,
				"y": -3.8282687539,
				"z": -0.9850869256,
				"element": "H" 
			},
			{
				"x": 1.8546443912,
				"y": -1.8981890707,
				"z": -3.1761047855,
				"element": "H" 
			},
			{
				"x": 2.5477066657,
				"y": -1.1859440508,
				"z": -1.7163601672,
				"element": "H" 
			},
			{
				"x": 1.9764622521,
				"y": 0.5798252286,
				"z": -3.4409478497,
				"element": "H" 
			},
			{
				"x": 1.5759249042,
				"y": 1.1915359667,
				"z": -0.8983163352,
				"element": "H" 
			},
			{
				"x": 1.0482031958,
				"y": 2.7464373284,
				"z": -2.6388430306,
				"element": "H" 
			},
			{
				"x": -1.4498692745,
				"y": -0.2601398425,
				"z": -5.1374411961,
				"element": "H" 
			},
			{
				"x": 0.355602359,
				"y": -0.1962495123,
				"z": -5.5877140643,
				"element": "H" 
			}
		],
		 "valence_orbital": [ 
			{
				"type": "occ",
				"energy": -0.26932,
				"method": "rhf"
			},
			{
				"type": "occ",
				"energy": -0.26477,
				"method": "rhf"
			},
			{
				"type": "occ",
				"energy": -0.25792,
				"method": "rhf"
			},
			{
				"type": "occ",
				"energy": -0.24343,
				"method": "rhf"
			},
			{
				"type": "occ",
				"energy": -0.23037,
				"method": "rhf"
			},
			{
				"type": "unocc",
				"energy": -0.05416,
				"method": "rhf"
			},
			{
				"type": "unocc",
				"energy": 0.05004,
				"method": "rhf"
			},
			{
				"type": "unocc",
				"energy": 0.05916,
				"method": "rhf"
			},
			{
				"type": "unocc",
				"energy": 0.06449,
				"method": "rhf"
			},
			{
				"type": "unocc",
				"energy": 0.07636,
				"method": "rhf"
			}
		],
		"cosmo_sigma_profile": { 
			"-0.025": 0.0,
			"-0.024": 0.0,
			"-0.023": 0.0,
			"-0.022": 0.0,
			"-0.021": 0.0,
			"-0.02": 0.0,
			"-0.019": 0.0,
			"-0.018": 0.0,
			"-0.017": 0.0,
			"-0.016": 1.16979882257,
			"-0.015": 1.64185188101,
			"-0.014": 2.06913400155,
			"-0.013": 1.56262005119,
			"-0.012": 2.45180055993,
			"-0.011": 0.97042364168,
			"-0.01": 2.19933345023,
			"-0.009": 2.35622629524,
			"-0.008": 2.35897831893,
			"-0.007": 3.29273481908,
			"-0.006": 6.82924687915,
			"-0.005": 17.7240546213,
			"-0.004": 28.1313102788,
			"-0.003": 31.3074711917,
			"-0.002": 44.8982090171,
			"-0.001": 45.142653126,
			"0.0": 36.3389864608,
			"0.001": 27.8621443975,
			"0.002": 23.6944533854,
			"0.003": 13.3681878906,
			"0.004": 9.8305340449,
			"0.005": 8.96678982825,
			"0.006": 7.68860720617,
			"0.007": 8.34580115433,
			"0.008": 5.89103020853,
			"0.009": 5.69992513835,
			"0.01": 6.12669550468,
			"0.011": 6.55192270206,
			"0.012": 5.73492556454,
			"0.013": 2.99577650203,
			"0.014": 2.29224505647,
			"0.015": 0.816537507427,
			"0.016": 0.119341125598,
			"0.017": 0.0,
			"0.018": 0.0,
			"0.019": 0.0,
			"0.02": 0.0,
			"0.021": 0.0,
			"0.022": 0.0,
			"0.023": 0.0,
			"0.024": 0.0,
			"0.025": 0.0
		}
	}
}
