{
	 "smiles": "FC1=CC(=CC=C1)C1=NN=C(CCl)O1", 
	 "Tm": 339.15, 
	 "num_atms": 20, 
	 "gaussian": { 
		 "optdone": 1, 
		 "sigma_profile": "yes", 
		 "theory": "DFT", 
		 "functional": "B3LYP", 
		 "basiset": "6-31G**", 
		 "properties": { 
			 "R2extent": 4867.2209, 
			 "electric_dipole_moment_norm": 2.36772034244, 
			 "electric_quadrupole_moment_norm": 17.3351127444, 
			 "total_energy": -1091.30085874, 
			 "HOMO_LUMO_gap": 0.18288, 
			 "cosmo_polarized_energy": -10.97, 
			 "cosmo_cavitation_energy": 28.07, 
			 "cosmo_dispersion_energy": -20.52, 
			 "cosmo_repulsion_energy": 1.6, 
			 "cosmo_total_nonelectrostatic_energy": 9.15, 
			 "SMD_solvation_energy": 3.42 
		},
		"coords": [
			{
				"x": 0.8190069302,
				"y": -1.7696385571,
				"z": -2.0599598018,
				"element": "F" 
			},
			{
				"x": 0.6243760083,
				"y": -1.5398845507,
				"z": -0.7466871897,
				"element": "C" 
			},
			{
				"x": 0.0126039148,
				"y": -0.3550519437,
				"z": -0.3617870655,
				"element": "C" 
			},
			{
				"x": -0.187991519,
				"y": -0.1209529328,
				"z": 1.0064441373,
				"element": "C" 
			},
			{
				"x": 0.2253885308,
				"y": -1.0699100293,
				"z": 1.9560225307,
				"element": "C" 
			},
			{
				"x": 0.8362297166,
				"y": -2.2472871355,
				"z": 1.5329997331,
				"element": "C" 
			},
			{
				"x": 1.0423298178,
				"y": -2.4953285599,
				"z": 0.1737174934,
				"element": "C" 
			},
			{
				"x": -0.8260703728,
				"y": 1.1077546148,
				"z": 1.4633179513,
				"element": "C" 
			},
			{
				"x": -1.0746150683,
				"y": 1.4865761249,
				"z": 2.6853457332,
				"element": "N" 
			},
			{
				"x": -1.6872948954,
				"y": 2.7297330574,
				"z": 2.5990225,
				"element": "N" 
			},
			{
				"x": -1.7697334365,
				"y": 3.0106812213,
				"z": 1.335644134,
				"element": "C" 
			},
			{
				"x": -2.3559694046,
				"y": 4.2177581681,
				"z": 0.7146741021,
				"element": "C" 
			},
			{
				"x": -1.0920616454,
				"y": 5.2817679931,
				"z": -0.0521653359,
				"element": "Cl" 
			},
			{
				"x": -1.247531751,
				"y": 2.030013142,
				"z": 0.5479581955,
				"element": "O" 
			},
			{
				"x": -0.2946185667,
				"y": 0.3631541075,
				"z": -1.1125812511,
				"element": "H" 
			},
			{
				"x": 0.0618687443,
				"y": -0.8696730802,
				"z": 3.0087028359,
				"element": "H" 
			},
			{
				"x": 1.1564278617,
				"y": -2.9814102953,
				"z": 2.2655406131,
				"element": "H" 
			},
			{
				"x": 1.5160271558,
				"y": -3.4052728326,
				"z": -0.1779071082,
				"element": "H" 
			},
			{
				"x": -2.8515957792,
				"y": 4.8020467091,
				"z": 1.4877712554,
				"element": "H" 
			},
			{
				"x": -3.0593762414,
				"y": 3.9603247788,
				"z": -0.0778734627,
				"element": "H" 
			}
		],
		 "valence_orbital": [ 
			{
				"type": "occ",
				"energy": -0.31318,
				"method": "rhf"
			},
			{
				"type": "occ",
				"energy": -0.3112,
				"method": "rhf"
			},
			{
				"type": "occ",
				"energy": -0.29013,
				"method": "rhf"
			},
			{
				"type": "occ",
				"energy": -0.2687,
				"method": "rhf"
			},
			{
				"type": "occ",
				"energy": -0.25223,
				"method": "rhf"
			},
			{
				"type": "unocc",
				"energy": -0.06935,
				"method": "rhf"
			},
			{
				"type": "unocc",
				"energy": -0.02927,
				"method": "rhf"
			},
			{
				"type": "unocc",
				"energy": -0.01835,
				"method": "rhf"
			},
			{
				"type": "unocc",
				"energy": 0.03585,
				"method": "rhf"
			},
			{
				"type": "unocc",
				"energy": 0.05125,
				"method": "rhf"
			}
		],
		"cosmo_sigma_profile": { 
			"-0.025": 0.0,
			"-0.024": 0.0,
			"-0.023": 0.0,
			"-0.022": 0.0,
			"-0.021": 0.0,
			"-0.02": 0.0,
			"-0.019": 0.0,
			"-0.018": 0.0,
			"-0.017": 0.0,
			"-0.016": 0.0,
			"-0.015": 0.0,
			"-0.014": 0.0,
			"-0.013": 0.0,
			"-0.012": 0.0,
			"-0.011": 0.130887349829,
			"-0.01": 3.66815199933,
			"-0.009": 4.39786714827,
			"-0.008": 6.70695273426,
			"-0.007": 10.1156496255,
			"-0.006": 11.9248803172,
			"-0.005": 12.1654596011,
			"-0.004": 9.74863508062,
			"-0.003": 11.2698883734,
			"-0.002": 13.6371785263,
			"-0.001": 15.9421210548,
			"0.0": 20.2329113312,
			"0.001": 22.248672131,
			"0.002": 19.7815558695,
			"0.003": 15.5142749409,
			"0.004": 17.5840668131,
			"0.005": 12.6595207344,
			"0.006": 3.17511277283,
			"0.007": 1.74624240638,
			"0.008": 2.1992706306,
			"0.009": 2.74346650737,
			"0.01": 2.76135059076,
			"0.011": 3.27777762661,
			"0.012": 2.10935873825,
			"0.013": 2.26930510306,
			"0.014": 0.992592940256,
			"0.015": 0.0512320761591,
			"0.016": 0.0,
			"0.017": 0.0,
			"0.018": 0.0,
			"0.019": 0.0,
			"0.02": 0.0,
			"0.021": 0.0,
			"0.022": 0.0,
			"0.023": 0.0,
			"0.024": 0.0,
			"0.025": 0.0
		}
	}
}
