{
	 "smiles": "NC(=O)CN1C=C(N)C=N1", 
	 "Tm": 433.15, 
	 "num_atms": 18, 
	 "gaussian": { 
		 "optdone": 1, 
		 "sigma_profile": "yes", 
		 "theory": "DFT", 
		 "functional": "B3LYP", 
		 "basiset": "6-31G**", 
		 "properties": { 
			 "R2extent": 1982.9424, 
			 "electric_dipole_moment_norm": 3.92179645061, 
			 "electric_quadrupole_moment_norm": 8.46822474962, 
			 "total_energy": -489.568877545, 
			 "HOMO_LUMO_gap": 0.21108, 
			 "cosmo_polarized_energy": -17.05, 
			 "cosmo_cavitation_energy": 22.38, 
			 "cosmo_dispersion_energy": -16.6, 
			 "cosmo_repulsion_energy": 1.38, 
			 "cosmo_total_nonelectrostatic_energy": 7.16, 
			 "SMD_solvation_energy": 4.5 
		},
		"coords": [
			{
				"x": -0.5115037187,
				"y": -1.6812014706,
				"z": 2.788047198,
				"element": "N" 
			},
			{
				"x": 0.3559259823,
				"y": -0.6457649687,
				"z": 2.6809339899,
				"element": "C" 
			},
			{
				"x": 1.2296777861,
				"y": -0.3784252588,
				"z": 3.4934432119,
				"element": "O" 
			},
			{
				"x": 0.1479622701,
				"y": 0.263974647,
				"z": 1.452865721,
				"element": "C" 
			},
			{
				"x": -0.3722725323,
				"y": -0.3818763798,
				"z": 0.2609560321,
				"element": "N" 
			},
			{
				"x": 0.3022487818,
				"y": -0.6621776031,
				"z": -0.8952605176,
				"element": "C" 
			},
			{
				"x": -0.585617293,
				"y": -1.3292192556,
				"z": -1.7271216809,
				"element": "C" 
			},
			{
				"x": -0.3467095922,
				"y": -1.8748144728,
				"z": -2.9985146527,
				"element": "N" 
			},
			{
				"x": -1.775827069,
				"y": -1.4107383706,
				"z": -0.9671451218,
				"element": "C" 
			},
			{
				"x": -1.6401853367,
				"y": -0.8326466804,
				"z": 0.2316497091,
				"element": "N" 
			},
			{
				"x": -0.4572066726,
				"y": -2.2628499587,
				"z": 3.6099463603,
				"element": "H" 
			},
			{
				"x": -1.2657743015,
				"y": -1.7905947438,
				"z": 2.1207948878,
				"element": "H" 
			},
			{
				"x": 1.1156474332,
				"y": 0.7074280895,
				"z": 1.218361515,
				"element": "H" 
			},
			{
				"x": -0.5351356329,
				"y": 1.0697365421,
				"z": 1.7430734988,
				"element": "H" 
			},
			{
				"x": 1.3323712604,
				"y": -0.3702498013,
				"z": -1.0361384481,
				"element": "H" 
			},
			{
				"x": 0.3912854379,
				"y": -1.4003352485,
				"z": -3.5038830947,
				"element": "H" 
			},
			{
				"x": -1.1802900055,
				"y": -1.9059930053,
				"z": -3.5726598276,
				"element": "H" 
			},
			{
				"x": -2.7195967974,
				"y": -1.8603520606,
				"z": -1.2469487805,
				"element": "H" 
			}
		],
		 "valence_orbital": [ 
			{
				"type": "occ",
				"energy": -0.29805,
				"method": "rhf"
			},
			{
				"type": "occ",
				"energy": -0.26297,
				"method": "rhf"
			},
			{
				"type": "occ",
				"energy": -0.26203,
				"method": "rhf"
			},
			{
				"type": "occ",
				"energy": -0.24227,
				"method": "rhf"
			},
			{
				"type": "occ",
				"energy": -0.20228,
				"method": "rhf"
			},
			{
				"type": "unocc",
				"energy": 0.0088,
				"method": "rhf"
			},
			{
				"type": "unocc",
				"energy": 0.03157,
				"method": "rhf"
			},
			{
				"type": "unocc",
				"energy": 0.06701,
				"method": "rhf"
			},
			{
				"type": "unocc",
				"energy": 0.08581,
				"method": "rhf"
			},
			{
				"type": "unocc",
				"energy": 0.09884,
				"method": "rhf"
			}
		],
		"cosmo_sigma_profile": { 
			"-0.025": 0.0,
			"-0.024": 0.0,
			"-0.023": 0.0,
			"-0.022": 0.0,
			"-0.021": 0.0,
			"-0.02": 0.0,
			"-0.019": 0.0,
			"-0.018": 0.0,
			"-0.017": 0.0,
			"-0.016": 0.0,
			"-0.015": 0.00740073821195,
			"-0.014": 0.981829889202,
			"-0.013": 1.03895182998,
			"-0.012": 3.45027288178,
			"-0.011": 3.40711091295,
			"-0.01": 4.75742221749,
			"-0.009": 7.1766414253,
			"-0.008": 9.4462559082,
			"-0.007": 11.4917085571,
			"-0.006": 9.67714934937,
			"-0.005": 7.53490464501,
			"-0.004": 8.56733860722,
			"-0.003": 7.78257855202,
			"-0.002": 6.60456327252,
			"-0.001": 7.64848987837,
			"0.0": 5.9889148327,
			"0.001": 6.72938245682,
			"0.002": 9.48870651536,
			"0.003": 9.52556102875,
			"0.004": 7.89638036579,
			"0.005": 9.01107512044,
			"0.006": 5.23991857696,
			"0.007": 3.65978957485,
			"0.008": 3.18084538545,
			"0.009": 2.39599863404,
			"0.01": 3.45703330957,
			"0.011": 2.66866007783,
			"0.012": 3.81822995928,
			"0.013": 5.71562443992,
			"0.014": 6.32282037205,
			"0.015": 1.72468353975,
			"0.016": 0.59279360795,
			"0.017": 0.119753801794,
			"0.018": 0.0,
			"0.019": 0.0,
			"0.02": 0.0,
			"0.021": 0.0,
			"0.022": 0.0,
			"0.023": 0.0,
			"0.024": 0.0,
			"0.025": 0.0
		}
	}
}
