{
	 "smiles": "CC1=CC=C2C=CC=C2C=C1", 
	 "Tm": 355.65, 
	 "num_atms": 21, 
	 "gaussian": { 
		 "optdone": 1, 
		 "sigma_profile": "yes", 
		 "theory": "DFT", 
		 "functional": "B3LYP", 
		 "basiset": "6-31G**", 
		 "properties": { 
			 "R2extent": 2103.7934, 
			 "electric_dipole_moment_norm": 1.65549350044, 
			 "electric_quadrupole_moment_norm": 7.03101670529, 
			 "total_energy": -425.16116615, 
			 "HOMO_LUMO_gap": 0.12404, 
			 "cosmo_polarized_energy": -5.21, 
			 "cosmo_cavitation_energy": 24.09, 
			 "cosmo_dispersion_energy": -17.96, 
			 "cosmo_repulsion_energy": 1.41, 
			 "cosmo_total_nonelectrostatic_energy": 7.54, 
			 "SMD_solvation_energy": 3.9 
		},
		"coords": [
			{
				"x": 1.5535575134,
				"y": -2.191921278,
				"z": 0.4483664627,
				"element": "C" 
			},
			{
				"x": 0.917734955,
				"y": -0.8250749275,
				"z": 0.2718408912,
				"element": "C" 
			},
			{
				"x": 0.7740394933,
				"y": -0.0292067,
				"z": 1.4172498915,
				"element": "C" 
			},
			{
				"x": 0.2327957648,
				"y": 1.2538960695,
				"z": 1.5572062431,
				"element": "C" 
			},
			{
				"x": -0.3136851373,
				"y": 2.0969279484,
				"z": 0.5971166353,
				"element": "C" 
			},
			{
				"x": -0.8420021196,
				"y": 3.3839456757,
				"z": 0.8176727804,
				"element": "C" 
			},
			{
				"x": -1.2897925182,
				"y": 3.8937574645,
				"z": -0.4093774518,
				"element": "C" 
			},
			{
				"x": -1.0600280856,
				"y": 2.9534408785,
				"z": -1.4313068773,
				"element": "C" 
			},
			{
				"x": -0.4567150357,
				"y": 1.8200790488,
				"z": -0.8646544228,
				"element": "C" 
			},
			{
				"x": -0.0674125317,
				"y": 0.6621858318,
				"z": -1.5367997915,
				"element": "C" 
			},
			{
				"x": 0.5330947893,
				"y": -0.4940198348,
				"z": -1.0416434787,
				"element": "C" 
			},
			{
				"x": 2.4595370696,
				"y": -2.2843981738,
				"z": -0.1618368669,
				"element": "H" 
			},
			{
				"x": 1.8271972818,
				"y": -2.3838536165,
				"z": 1.4882878947,
				"element": "H" 
			},
			{
				"x": 0.8702199288,
				"y": -2.9864853,
				"z": 0.1267759436,
				"element": "H" 
			},
			{
				"x": 1.138100063,
				"y": -0.474315011,
				"z": 2.3404322097,
				"element": "H" 
			},
			{
				"x": 0.2413854543,
				"y": 1.6514312749,
				"z": 2.572049424,
				"element": "H" 
			},
			{
				"x": -0.8887169733,
				"y": 3.8840384864,
				"z": 1.7771726697,
				"element": "H" 
			},
			{
				"x": -1.7455490971,
				"y": 4.8675445064,
				"z": -0.5512257959,
				"element": "H" 
			},
			{
				"x": -1.3037612902,
				"y": 3.0745094628,
				"z": -2.4796963152,
				"element": "H" 
			},
			{
				"x": -0.2620749497,
				"y": 0.6621933427,
				"z": -2.6092475305,
				"element": "H" 
			},
			{
				"x": 0.7364754251,
				"y": -1.2608751488,
				"z": -1.7870825152,
				"element": "H" 
			}
		],
		 "valence_orbital": [ 
			{
				"type": "occ",
				"energy": -0.32533,
				"method": "rhf"
			},
			{
				"type": "occ",
				"energy": -0.31321,
				"method": "rhf"
			},
			{
				"type": "occ",
				"energy": -0.29419,
				"method": "rhf"
			},
			{
				"type": "occ",
				"energy": -0.2224,
				"method": "rhf"
			},
			{
				"type": "occ",
				"energy": -0.1879,
				"method": "rhf"
			},
			{
				"type": "unocc",
				"energy": -0.06386,
				"method": "rhf"
			},
			{
				"type": "unocc",
				"energy": -0.03342,
				"method": "rhf"
			},
			{
				"type": "unocc",
				"energy": 0.08612,
				"method": "rhf"
			},
			{
				"type": "unocc",
				"energy": 0.08822,
				"method": "rhf"
			},
			{
				"type": "unocc",
				"energy": 0.11335,
				"method": "rhf"
			}
		],
		"cosmo_sigma_profile": { 
			"-0.025": 0.0,
			"-0.024": 0.0,
			"-0.023": 0.0,
			"-0.022": 0.0,
			"-0.021": 0.0,
			"-0.02": 0.0,
			"-0.019": 0.0,
			"-0.018": 0.0,
			"-0.017": 0.0,
			"-0.016": 0.0,
			"-0.015": 0.0,
			"-0.014": 0.0,
			"-0.013": 0.0,
			"-0.012": 0.0,
			"-0.011": 0.0,
			"-0.01": 0.0,
			"-0.009": 0.0,
			"-0.008": 0.0,
			"-0.007": 0.0971259558332,
			"-0.006": 5.76230622965,
			"-0.005": 18.9171707745,
			"-0.004": 20.388548545,
			"-0.003": 17.0203294585,
			"-0.002": 16.1276307745,
			"-0.001": 16.3741191494,
			"0.0": 16.6605712081,
			"0.001": 10.3688961438,
			"0.002": 9.68407748457,
			"0.003": 14.2959161802,
			"0.004": 20.7450487831,
			"0.005": 10.0775467554,
			"0.006": 7.65864255706,
			"0.007": 7.27138852174,
			"0.008": 0.942420406534,
			"0.009": 0.0,
			"0.01": 0.0,
			"0.011": 0.0,
			"0.012": 0.0,
			"0.013": 0.0,
			"0.014": 0.0,
			"0.015": 0.0,
			"0.016": 0.0,
			"0.017": 0.0,
			"0.018": 0.0,
			"0.019": 0.0,
			"0.02": 0.0,
			"0.021": 0.0,
			"0.022": 0.0,
			"0.023": 0.0,
			"0.024": 0.0,
			"0.025": 0.0
		}
	}
}
