{
	 "smiles": "CCCCCCCCCCCCCC(C)C", 
	 "Tm": 266.15, 
	 "num_atms": 50, 
	 "gaussian": { 
		 "optdone": 1, 
		 "sigma_profile": "yes", 
		 "theory": "DFT", 
		 "functional": "B3LYP", 
		 "basiset": "6-31G**", 
		 "properties": { 
			 "R2extent": 7183.9602, 
			 "electric_dipole_moment_norm": 0.071330288097, 
			 "electric_quadrupole_moment_norm": 0.80424527975, 
			 "total_energy": -630.240551466, 
			 "HOMO_LUMO_gap": 0.36282, 
			 "cosmo_polarized_energy": -1.08, 
			 "cosmo_cavitation_energy": 47.37, 
			 "cosmo_dispersion_energy": -30.71, 
			 "cosmo_repulsion_energy": 2.51, 
			 "cosmo_total_nonelectrostatic_energy": 19.17, 
			 "SMD_solvation_energy": 6.38 
		},
		"coords": [
			{
				"x": -3.6686455798,
				"y": 1.6989332226,
				"z": 2.3156305747,
				"element": "C" 
			},
			{
				"x": -2.9624798144,
				"y": 3.0245655279,
				"z": 2.0089211792,
				"element": "C" 
			},
			{
				"x": -1.5276431036,
				"y": 2.9117064526,
				"z": 1.4624938771,
				"element": "C" 
			},
			{
				"x": -0.4883173338,
				"y": 2.2782791493,
				"z": 2.4145985358,
				"element": "C" 
			},
			{
				"x": -0.2977004814,
				"y": 0.7607526168,
				"z": 2.2622999171,
				"element": "C" 
			},
			{
				"x": 0.7372924993,
				"y": 0.1889219648,
				"z": 3.2440069705,
				"element": "C" 
			},
			{
				"x": 0.9743646062,
				"y": -1.3348899093,
				"z": 3.1532055098,
				"element": "C" 
			},
			{
				"x": 2.0933435241,
				"y": -1.7919731945,
				"z": 2.1962650634,
				"element": "C" 
			},
			{
				"x": 1.8976649864,
				"y": -1.5265049968,
				"z": 0.6936062839,
				"element": "C" 
			},
			{
				"x": 0.7065257574,
				"y": -2.2586358119,
				"z": 0.0606994862,
				"element": "C" 
			},
			{
				"x": 0.5847904646,
				"y": -2.0246191105,
				"z": -1.4507802197,
				"element": "C" 
			},
			{
				"x": -0.5893187566,
				"y": -2.7829714782,
				"z": -2.0898550382,
				"element": "C" 
			},
			{
				"x": -0.7400477107,
				"y": -2.5831727425,
				"z": -3.6162192997,
				"element": "C" 
			},
			{
				"x": -1.7071852228,
				"y": -1.4730322356,
				"z": -4.0945495916,
				"element": "C" 
			},
			{
				"x": -1.3388238064,
				"y": -0.0714788802,
				"z": -3.5847614619,
				"element": "C" 
			},
			{
				"x": -3.1734900552,
				"y": -1.8036170767,
				"z": -3.7727880141,
				"element": "C" 
			},
			{
				"x": -3.6846338239,
				"y": 1.0432005589,
				"z": 1.4372430061,
				"element": "H" 
			},
			{
				"x": -4.706979609,
				"y": 1.8714254927,
				"z": 2.6189618672,
				"element": "H" 
			},
			{
				"x": -3.1788193413,
				"y": 1.1537186447,
				"z": 3.1285698276,
				"element": "H" 
			},
			{
				"x": -3.5630530978,
				"y": 3.5831384675,
				"z": 1.2789105679,
				"element": "H" 
			},
			{
				"x": -2.9457340843,
				"y": 3.6415079237,
				"z": 2.9181259814,
				"element": "H" 
			},
			{
				"x": -1.1963455824,
				"y": 3.9253885119,
				"z": 1.204172344,
				"element": "H" 
			},
			{
				"x": -1.5410403822,
				"y": 2.3534780752,
				"z": 0.5152896105,
				"element": "H" 
			},
			{
				"x": -0.7556265269,
				"y": 2.5126974066,
				"z": 3.4554009276,
				"element": "H" 
			},
			{
				"x": 0.4858927515,
				"y": 2.7565676748,
				"z": 2.2464498812,
				"element": "H" 
			},
			{
				"x": -0.0005506708,
				"y": 0.5483499346,
				"z": 1.2278877664,
				"element": "H" 
			},
			{
				"x": -1.2521495703,
				"y": 0.2413302035,
				"z": 2.4129919559,
				"element": "H" 
			},
			{
				"x": 0.4013948861,
				"y": 0.4325055713,
				"z": 4.2610942889,
				"element": "H" 
			},
			{
				"x": 1.694616461,
				"y": 0.7150791469,
				"z": 3.116155,
				"element": "H" 
			},
			{
				"x": 0.0306915187,
				"y": -1.8366578766,
				"z": 2.9005682957,
				"element": "H" 
			},
			{
				"x": 1.2419761965,
				"y": -1.7035545324,
				"z": 4.1515324236,
				"element": "H" 
			},
			{
				"x": 2.2444985456,
				"y": -2.8712882207,
				"z": 2.3389358581,
				"element": "H" 
			},
			{
				"x": 3.0304850507,
				"y": -1.3144768746,
				"z": 2.5142939473,
				"element": "H" 
			},
			{
				"x": 1.8041103341,
				"y": -0.4477348385,
				"z": 0.5119036323,
				"element": "H" 
			},
			{
				"x": 2.8144264792,
				"y": -1.833985894,
				"z": 0.1715150098,
				"element": "H" 
			},
			{
				"x": -0.227138619,
				"y": -1.9456788483,
				"z": 0.5465208977,
				"element": "H" 
			},
			{
				"x": 0.801562599,
				"y": -3.3369717626,
				"z": 0.2557069626,
				"element": "H" 
			},
			{
				"x": 1.5182100541,
				"y": -2.3348672192,
				"z": -1.942319281,
				"element": "H" 
			},
			{
				"x": 0.48890231,
				"y": -0.9484871246,
				"z": -1.6418447039,
				"element": "H" 
			},
			{
				"x": -0.4505371764,
				"y": -3.8526549933,
				"z": -1.8849438008,
				"element": "H" 
			},
			{
				"x": -1.5210425412,
				"y": -2.5082511355,
				"z": -1.5775871478,
				"element": "H" 
			},
			{
				"x": 0.2528845695,
				"y": -2.3941583311,
				"z": -4.0473049706,
				"element": "H" 
			},
			{
				"x": -1.0829838672,
				"y": -3.5242478022,
				"z": -4.0653607973,
				"element": "H" 
			},
			{
				"x": -1.6173828508,
				"y": -1.4515828638,
				"z": -5.1906764193,
				"element": "H" 
			},
			{
				"x": -1.9830186674,
				"y": 0.6887345621,
				"z": -4.040682416,
				"element": "H" 
			},
			{
				"x": -1.4626518218,
				"y": 0.0074284484,
				"z": -2.4987581976,
				"element": "H" 
			},
			{
				"x": -0.3007053057,
				"y": 0.184440099,
				"z": -3.8234898805,
				"element": "H" 
			},
			{
				"x": -3.8469043092,
				"y": -1.0529578393,
				"z": -4.2010374022,
				"element": "H" 
			},
			{
				"x": -3.3569142155,
				"y": -1.8255435428,
				"z": -2.6924703195,
				"element": "H" 
			},
			{
				"x": -3.4600696662,
				"y": -2.7803545201,
				"z": -4.1783284879,
				"element": "H" 
			}
		],
		 "valence_orbital": [ 
			{
				"type": "occ",
				"energy": -0.3051,
				"method": "rhf"
			},
			{
				"type": "occ",
				"energy": -0.30101,
				"method": "rhf"
			},
			{
				"type": "occ",
				"energy": -0.30057,
				"method": "rhf"
			},
			{
				"type": "occ",
				"energy": -0.29405,
				"method": "rhf"
			},
			{
				"type": "occ",
				"energy": -0.28943,
				"method": "rhf"
			},
			{
				"type": "unocc",
				"energy": 0.07339,
				"method": "rhf"
			},
			{
				"type": "unocc",
				"energy": 0.08385,
				"method": "rhf"
			},
			{
				"type": "unocc",
				"energy": 0.09244,
				"method": "rhf"
			},
			{
				"type": "unocc",
				"energy": 0.09907,
				"method": "rhf"
			},
			{
				"type": "unocc",
				"energy": 0.10576,
				"method": "rhf"
			}
		],
		"cosmo_sigma_profile": { 
			"-0.025": 0.0,
			"-0.024": 0.0,
			"-0.023": 0.0,
			"-0.022": 0.0,
			"-0.021": 0.0,
			"-0.02": 0.0,
			"-0.019": 0.0,
			"-0.018": 0.0,
			"-0.017": 0.0,
			"-0.016": 0.0,
			"-0.015": 0.0,
			"-0.014": 0.0,
			"-0.013": 0.0,
			"-0.012": 0.0,
			"-0.011": 0.0,
			"-0.01": 0.0,
			"-0.009": 0.0,
			"-0.008": 0.0,
			"-0.007": 0.0,
			"-0.006": 0.0,
			"-0.005": 0.0,
			"-0.004": 0.0,
			"-0.003": 2.86273660996,
			"-0.002": 38.1317561322,
			"-0.001": 90.770579136,
			"0.0": 101.887586009,
			"0.001": 79.7646582337,
			"0.002": 45.119639206,
			"0.003": 2.40759735117,
			"0.004": 0.0,
			"0.005": 0.0,
			"0.006": 0.0,
			"0.007": 0.0,
			"0.008": 0.0,
			"0.009": 0.0,
			"0.01": 0.0,
			"0.011": 0.0,
			"0.012": 0.0,
			"0.013": 0.0,
			"0.014": 0.0,
			"0.015": 0.0,
			"0.016": 0.0,
			"0.017": 0.0,
			"0.018": 0.0,
			"0.019": 0.0,
			"0.02": 0.0,
			"0.021": 0.0,
			"0.022": 0.0,
			"0.023": 0.0,
			"0.024": 0.0,
			"0.025": 0.0
		}
	}
}
