{
	 "smiles": "CC1=C(SC(=N1)C1=CC=C(C=C1)C(F)(F)F)C=O", 
	 "Tm": 405.15, 
	 "num_atms": 26, 
	 "gaussian": { 
		 "optdone": 1, 
		 "sigma_profile": "yes", 
		 "theory": "DFT", 
		 "functional": "B3LYP", 
		 "basiset": "6-31G**", 
		 "properties": { 
			 "R2extent": 8599.1328, 
			 "electric_dipole_moment_norm": 0.978129838007, 
			 "electric_quadrupole_moment_norm": 21.8265389254, 
			 "total_energy": -1289.78651972, 
			 "HOMO_LUMO_gap": 0.1474, 
			 "cosmo_polarized_energy": -9.09, 
			 "cosmo_cavitation_energy": 34.31, 
			 "cosmo_dispersion_energy": -24.8, 
			 "cosmo_repulsion_energy": 1.78, 
			 "cosmo_total_nonelectrostatic_energy": 11.29, 
			 "SMD_solvation_energy": 6.45 
		},
		"coords": [
			{
				"x": 4.1048443742,
				"y": -4.1661538797,
				"z": -1.5594748119,
				"element": "C" 
			},
			{
				"x": 3.2484709654,
				"y": -3.237847612,
				"z": -0.7526989148,
				"element": "C" 
			},
			{
				"x": 3.2837539818,
				"y": -3.1035186195,
				"z": 0.6303874868,
				"element": "C" 
			},
			{
				"x": 2.1144910055,
				"y": -1.9082927283,
				"z": 1.1375836236,
				"element": "S" 
			},
			{
				"x": 1.6676224725,
				"y": -1.6799734261,
				"z": -0.5419809527,
				"element": "C" 
			},
			{
				"x": 2.3418287388,
				"y": -2.4357915146,
				"z": -1.381917948,
				"element": "N" 
			},
			{
				"x": 0.6343610374,
				"y": -0.7291471462,
				"z": -0.9689794908,
				"element": "C" 
			},
			{
				"x": 0.346203495,
				"y": -0.6115670442,
				"z": -2.3408216112,
				"element": "C" 
			},
			{
				"x": -0.6263080332,
				"y": 0.2777139555,
				"z": -2.7814575708,
				"element": "C" 
			},
			{
				"x": -1.3272649523,
				"y": 1.0628174451,
				"z": -1.8606036866,
				"element": "C" 
			},
			{
				"x": -1.0505679746,
				"y": 0.9530909968,
				"z": -0.4951606303,
				"element": "C" 
			},
			{
				"x": -0.077639847,
				"y": 0.0632807576,
				"z": -0.0534932991,
				"element": "C" 
			},
			{
				"x": -2.3391538634,
				"y": 2.0669029005,
				"z": -2.3450172446,
				"element": "C" 
			},
			{
				"x": -3.2995131934,
				"y": 2.2966100708,
				"z": -1.4230830246,
				"element": "F" 
			},
			{
				"x": -2.9490618361,
				"y": 1.6567331051,
				"z": -3.4780978323,
				"element": "F" 
			},
			{
				"x": -1.7613209146,
				"y": 3.25939035,
				"z": -2.6180632594,
				"element": "F" 
			},
			{
				"x": 4.1320019464,
				"y": -3.8097162426,
				"z": 1.5844051817,
				"element": "C" 
			},
			{
				"x": 4.9583896972,
				"y": -4.6497311314,
				"z": 1.2636606325,
				"element": "O" 
			},
			{
				"x": 3.8582797166,
				"y": -4.0593812726,
				"z": -2.6169764447,
				"element": "H" 
			},
			{
				"x": 5.166431213,
				"y": -3.9522138811,
				"z": -1.404650246,
				"element": "H" 
			},
			{
				"x": 3.9562893631,
				"y": -5.2043648496,
				"z": -1.2485723577,
				"element": "H" 
			},
			{
				"x": 0.8951069199,
				"y": -1.228756994,
				"z": -3.0424087396,
				"element": "H" 
			},
			{
				"x": -0.8499679035,
				"y": 0.35890346,
				"z": -3.8396165825,
				"element": "H" 
			},
			{
				"x": -1.6016146019,
				"y": 1.5562563491,
				"z": 0.217744302,
				"element": "H" 
			},
			{
				"x": 0.1232098171,
				"y": -0.0136732551,
				"z": 1.0111022463,
				"element": "H" 
			},
			{
				"x": 3.9826283761,
				"y": -3.5353697936,
				"z": 2.6502911745,
				"element": "H" 
			}
		],
		 "valence_orbital": [ 
			{
				"type": "occ",
				"energy": -0.29656,
				"method": "rhf"
			},
			{
				"type": "occ",
				"energy": -0.29635,
				"method": "rhf"
			},
			{
				"type": "occ",
				"energy": -0.28043,
				"method": "rhf"
			},
			{
				"type": "occ",
				"energy": -0.26333,
				"method": "rhf"
			},
			{
				"type": "occ",
				"energy": -0.24304,
				"method": "rhf"
			},
			{
				"type": "unocc",
				"energy": -0.09564,
				"method": "rhf"
			},
			{
				"type": "unocc",
				"energy": -0.04142,
				"method": "rhf"
			},
			{
				"type": "unocc",
				"energy": -0.02889,
				"method": "rhf"
			},
			{
				"type": "unocc",
				"energy": -0.00488,
				"method": "rhf"
			},
			{
				"type": "unocc",
				"energy": 0.01482,
				"method": "rhf"
			}
		],
		"cosmo_sigma_profile": { 
			"-0.025": 0.0,
			"-0.024": 0.0,
			"-0.023": 0.0,
			"-0.022": 0.0,
			"-0.021": 0.0,
			"-0.02": 0.0,
			"-0.019": 0.0,
			"-0.018": 0.0,
			"-0.017": 0.0,
			"-0.016": 0.0,
			"-0.015": 0.0,
			"-0.014": 0.0,
			"-0.013": 0.0,
			"-0.012": 0.0,
			"-0.011": 0.0,
			"-0.01": 0.0,
			"-0.009": 0.280864824031,
			"-0.008": 5.54640041564,
			"-0.007": 9.65592591326,
			"-0.006": 10.987240492,
			"-0.005": 12.256965843,
			"-0.004": 14.9073602066,
			"-0.003": 17.3667908995,
			"-0.002": 21.0314444347,
			"-0.001": 30.1845918286,
			"0.0": 30.8149261478,
			"0.001": 29.1422131379,
			"0.002": 37.3780558038,
			"0.003": 29.1160373251,
			"0.004": 4.53378924634,
			"0.005": 3.65290173845,
			"0.006": 2.55618768097,
			"0.007": 2.9783754998,
			"0.008": 3.14522797004,
			"0.009": 3.18466372304,
			"0.01": 2.85668439427,
			"0.011": 3.53583820953,
			"0.012": 2.3857468139,
			"0.013": 0.812887501762,
			"0.014": 0.0,
			"0.015": 0.0,
			"0.016": 0.0,
			"0.017": 0.0,
			"0.018": 0.0,
			"0.019": 0.0,
			"0.02": 0.0,
			"0.021": 0.0,
			"0.022": 0.0,
			"0.023": 0.0,
			"0.024": 0.0,
			"0.025": 0.0
		}
	}
}
