{
	 "smiles": "OC(=O)C1CS(=O)(=O)C2=C(O1)C=CC=C2", 
	 "Tm": 513.15, 
	 "num_atms": 23, 
	 "gaussian": { 
		 "optdone": 1, 
		 "sigma_profile": "yes", 
		 "theory": "DFT", 
		 "functional": "B3LYP", 
		 "basiset": "6-31G**", 
		 "properties": { 
			 "R2extent": 3734.4285, 
			 "electric_dipole_moment_norm": 7.36252827906, 
			 "electric_quadrupole_moment_norm": 17.2971061814, 
			 "total_energy": -1122.00873032, 
			 "HOMO_LUMO_gap": 0.21199, 
			 "cosmo_polarized_energy": -22.03, 
			 "cosmo_cavitation_energy": 28.08, 
			 "cosmo_dispersion_energy": -21.2, 
			 "cosmo_repulsion_energy": 1.59, 
			 "cosmo_total_nonelectrostatic_energy": 8.47, 
			 "SMD_solvation_energy": 5.2 
		},
		"coords": [
			{
				"x": 1.7894210755,
				"y": -0.7977296568,
				"z": 2.0717317656,
				"element": "O" 
			},
			{
				"x": 1.557271514,
				"y": -1.7184313899,
				"z": 1.1341268355,
				"element": "C" 
			},
			{
				"x": 2.0930137483,
				"y": -2.7981002614,
				"z": 1.1064886593,
				"element": "O" 
			},
			{
				"x": 0.4617701608,
				"y": -1.370415612,
				"z": 0.0991403428,
				"element": "C" 
			},
			{
				"x": 0.9388448872,
				"y": -1.6481580031,
				"z": -1.3268842189,
				"element": "C" 
			},
			{
				"x": 1.9405031344,
				"y": -0.2613840737,
				"z": -1.9224379868,
				"element": "S" 
			},
			{
				"x": 2.2463516993,
				"y": -0.4291671624,
				"z": -3.348107379,
				"element": "O" 
			},
			{
				"x": 3.0108159486,
				"y": -0.0419245783,
				"z": -0.9369101043,
				"element": "O" 
			},
			{
				"x": 0.6955244403,
				"y": 0.9981108954,
				"z": -1.7344153643,
				"element": "C" 
			},
			{
				"x": -0.1397124253,
				"y": 0.9311862016,
				"z": -0.6113221573,
				"element": "C" 
			},
			{
				"x": -0.0389644066,
				"y": -0.0384708785,
				"z": 0.3600101383,
				"element": "O" 
			},
			{
				"x": -1.1160439586,
				"y": 1.9123539539,
				"z": -0.4237481988,
				"element": "C" 
			},
			{
				"x": -1.23781985,
				"y": 2.9472447545,
				"z": -1.3489668812,
				"element": "C" 
			},
			{
				"x": -0.4133820226,
				"y": 3.0034371257,
				"z": -2.4779769509,
				"element": "C" 
			},
			{
				"x": 0.5501942198,
				"y": 2.0181848131,
				"z": -2.6761338673,
				"element": "C" 
			},
			{
				"x": 1.2706971168,
				"y": -0.004057317,
				"z": 1.8515905787,
				"element": "H" 
			},
			{
				"x": -0.368718492,
				"y": -2.0535734168,
				"z": 0.3132637762,
				"element": "H" 
			},
			{
				"x": 1.5655368167,
				"y": -2.5432130446,
				"z": -1.3126332048,
				"element": "H" 
			},
			{
				"x": 0.1168434306,
				"y": -1.7766382469,
				"z": -2.0340072687,
				"element": "H" 
			},
			{
				"x": -1.762001672,
				"y": 1.8475964712,
				"z": 0.4453635228,
				"element": "H" 
			},
			{
				"x": -1.9951139179,
				"y": 3.7095648164,
				"z": -1.1933469091,
				"element": "H" 
			},
			{
				"x": -0.5262011627,
				"y": 3.8059468281,
				"z": -3.1991995579,
				"element": "H" 
			},
			{
				"x": 1.1935697156,
				"y": 2.0188377815,
				"z": -3.5499255698,
				"element": "H" 
			}
		],
		 "valence_orbital": [ 
			{
				"type": "occ",
				"energy": -0.31624,
				"method": "rhf"
			},
			{
				"type": "occ",
				"energy": -0.30254,
				"method": "rhf"
			},
			{
				"type": "occ",
				"energy": -0.28791,
				"method": "rhf"
			},
			{
				"type": "occ",
				"energy": -0.2857,
				"method": "rhf"
			},
			{
				"type": "occ",
				"energy": -0.26382,
				"method": "rhf"
			},
			{
				"type": "unocc",
				"energy": -0.05183,
				"method": "rhf"
			},
			{
				"type": "unocc",
				"energy": -0.03221,
				"method": "rhf"
			},
			{
				"type": "unocc",
				"energy": -0.00518,
				"method": "rhf"
			},
			{
				"type": "unocc",
				"energy": 0.02611,
				"method": "rhf"
			},
			{
				"type": "unocc",
				"energy": 0.05908,
				"method": "rhf"
			}
		],
		"cosmo_sigma_profile": { 
			"-0.025": 0.0,
			"-0.024": 0.0,
			"-0.023": 0.0,
			"-0.022": 0.0,
			"-0.021": 0.0,
			"-0.02": 0.0,
			"-0.019": 0.0,
			"-0.018": 0.0,
			"-0.017": 0.00138808332635,
			"-0.016": 0.531850211513,
			"-0.015": 0.397697903398,
			"-0.014": 0.644126686408,
			"-0.013": 0.523438938689,
			"-0.012": 1.13870970405,
			"-0.011": 2.7556708548,
			"-0.01": 9.62134430291,
			"-0.009": 6.6877594596,
			"-0.008": 8.81632553283,
			"-0.007": 13.4916628581,
			"-0.006": 13.5839203984,
			"-0.005": 12.145304775,
			"-0.004": 10.677693907,
			"-0.003": 8.95613037264,
			"-0.002": 8.542668613,
			"-0.001": 10.202798152,
			"0.0": 11.6214961069,
			"0.001": 13.8050973525,
			"0.002": 14.3649730457,
			"0.003": 9.56308130415,
			"0.004": 5.10314932062,
			"0.005": 4.89941376874,
			"0.006": 6.54373447212,
			"0.007": 5.62468286113,
			"0.008": 7.08642561388,
			"0.009": 10.2402064195,
			"0.01": 11.147783932,
			"0.011": 12.9811317389,
			"0.012": 2.91435394934,
			"0.013": 0.113909917969,
			"0.014": 0.0,
			"0.015": 0.0,
			"0.016": 0.0,
			"0.017": 0.0,
			"0.018": 0.0,
			"0.019": 0.0,
			"0.02": 0.0,
			"0.021": 0.0,
			"0.022": 0.0,
			"0.023": 0.0,
			"0.024": 0.0,
			"0.025": 0.0
		}
	}
}
