{
	 "smiles": "CC1=CC=CC2=C1CC1=C2C=CC=C1", 
	 "Tm": 358.15, 
	 "num_atms": 26, 
	 "gaussian": { 
		 "optdone": 1, 
		 "sigma_profile": "yes", 
		 "theory": "DFT", 
		 "functional": "B3LYP", 
		 "basiset": "6-31G**", 
		 "properties": { 
			 "R2extent": 3256.4368, 
			 "electric_dipole_moment_norm": 0.816545663144, 
			 "electric_quadrupole_moment_norm": 6.74849822331, 
			 "total_energy": -540.748127874, 
			 "HOMO_LUMO_gap": 0.18556, 
			 "cosmo_polarized_energy": -5.4, 
			 "cosmo_cavitation_energy": 28.7, 
			 "cosmo_dispersion_energy": -21.15, 
			 "cosmo_repulsion_energy": 1.63, 
			 "cosmo_total_nonelectrostatic_energy": 9.17, 
			 "SMD_solvation_energy": 4.12 
		},
		"coords": [
			{
				"x": 2.190494387,
				"y": 1.4877531286,
				"z": -1.8728345679,
				"element": "C" 
			},
			{
				"x": 0.9383808416,
				"y": 1.9564244009,
				"z": -1.1718149448,
				"element": "C" 
			},
			{
				"x": 0.3906988213,
				"y": 3.2239869211,
				"z": -1.4229777028,
				"element": "C" 
			},
			{
				"x": -0.7694065529,
				"y": 3.6620657599,
				"z": -0.7755365408,
				"element": "C" 
			},
			{
				"x": -1.4230923808,
				"y": 2.8453884177,
				"z": 0.147496058,
				"element": "C" 
			},
			{
				"x": -0.8913232827,
				"y": 1.5804767382,
				"z": 0.409310524,
				"element": "C" 
			},
			{
				"x": 0.2778531076,
				"y": 1.1444788085,
				"z": -0.2460198981,
				"element": "C" 
			},
			{
				"x": 0.6388735018,
				"y": -0.2534351273,
				"z": 0.2148048757,
				"element": "C" 
			},
			{
				"x": -0.4566465834,
				"y": -0.5736603921,
				"z": 1.2114594932,
				"element": "C" 
			},
			{
				"x": -1.3474799174,
				"y": 0.5152883795,
				"z": 1.3134742491,
				"element": "C" 
			},
			{
				"x": -2.4445162502,
				"y": 0.4523885291,
				"z": 2.1761673967,
				"element": "C" 
			},
			{
				"x": -2.642128338,
				"y": -0.7045284058,
				"z": 2.9330389604,
				"element": "C" 
			},
			{
				"x": -1.757723927,
				"y": -1.7842210378,
				"z": 2.8310637966,
				"element": "C" 
			},
			{
				"x": -0.6579461649,
				"y": -1.7232339688,
				"z": 1.9672689022,
				"element": "C" 
			},
			{
				"x": 2.0084580396,
				"y": 0.5743686658,
				"z": -2.4522741526,
				"element": "H" 
			},
			{
				"x": 2.9881740898,
				"y": 1.2543502875,
				"z": -1.1570206173,
				"element": "H" 
			},
			{
				"x": 2.5706868252,
				"y": 2.2485350361,
				"z": -2.5598042345,
				"element": "H" 
			},
			{
				"x": 0.8824381755,
				"y": 3.8784877823,
				"z": -2.1384624181,
				"element": "H" 
			},
			{
				"x": -1.16338353,
				"y": 4.6502419005,
				"z": -0.9962875614,
				"element": "H" 
			},
			{
				"x": -2.3238088612,
				"y": 3.1892567788,
				"z": 0.6481685825,
				"element": "H" 
			},
			{
				"x": 1.6366120032,
				"y": -0.2920936154,
				"z": 0.6741671488,
				"element": "H" 
			},
			{
				"x": 0.6593628323,
				"y": -0.9703994675,
				"z": -0.6179801884,
				"element": "H" 
			},
			{
				"x": -3.1352641968,
				"y": 1.2869772671,
				"z": 2.2603767318,
				"element": "H" 
			},
			{
				"x": -3.4911105174,
				"y": -0.7672324508,
				"z": 3.6080338629,
				"element": "H" 
			},
			{
				"x": -1.926200257,
				"y": -2.6766363709,
				"z": 3.4270487836,
				"element": "H" 
			},
			{
				"x": 0.0257981349,
				"y": -2.5652279652,
				"z": 1.8922334613,
				"element": "H" 
			}
		],
		 "valence_orbital": [ 
			{
				"type": "occ",
				"energy": -0.32477,
				"method": "rhf"
			},
			{
				"type": "occ",
				"energy": -0.27378,
				"method": "rhf"
			},
			{
				"type": "occ",
				"energy": -0.24297,
				"method": "rhf"
			},
			{
				"type": "occ",
				"energy": -0.23373,
				"method": "rhf"
			},
			{
				"type": "occ",
				"energy": -0.20998,
				"method": "rhf"
			},
			{
				"type": "unocc",
				"energy": -0.02442,
				"method": "rhf"
			},
			{
				"type": "unocc",
				"energy": -0.00522,
				"method": "rhf"
			},
			{
				"type": "unocc",
				"energy": 0.01241,
				"method": "rhf"
			},
			{
				"type": "unocc",
				"energy": 0.04675,
				"method": "rhf"
			},
			{
				"type": "unocc",
				"energy": 0.09804,
				"method": "rhf"
			}
		],
		"cosmo_sigma_profile": { 
			"-0.025": 0.0,
			"-0.024": 0.0,
			"-0.023": 0.0,
			"-0.022": 0.0,
			"-0.021": 0.0,
			"-0.02": 0.0,
			"-0.019": 0.0,
			"-0.018": 0.0,
			"-0.017": 0.0,
			"-0.016": 0.0,
			"-0.015": 0.0,
			"-0.014": 0.0,
			"-0.013": 0.0,
			"-0.012": 0.0,
			"-0.011": 0.0,
			"-0.01": 0.0,
			"-0.009": 0.0,
			"-0.008": 0.0,
			"-0.007": 0.0,
			"-0.006": 3.29282350953,
			"-0.005": 18.5358437696,
			"-0.004": 25.6030966767,
			"-0.003": 26.7089557477,
			"-0.002": 22.3346813631,
			"-0.001": 18.2674491127,
			"0.0": 18.1898004039,
			"0.001": 14.8967762403,
			"0.002": 13.1527181225,
			"0.003": 15.0807289012,
			"0.004": 16.4287812608,
			"0.005": 17.0200645511,
			"0.006": 15.7080747676,
			"0.007": 3.60044450037,
			"0.008": 0.0,
			"0.009": 0.0,
			"0.01": 0.0,
			"0.011": 0.0,
			"0.012": 0.0,
			"0.013": 0.0,
			"0.014": 0.0,
			"0.015": 0.0,
			"0.016": 0.0,
			"0.017": 0.0,
			"0.018": 0.0,
			"0.019": 0.0,
			"0.02": 0.0,
			"0.021": 0.0,
			"0.022": 0.0,
			"0.023": 0.0,
			"0.024": 0.0,
			"0.025": 0.0
		}
	}
}
