{
	 "smiles": "ClCCC(=O)NC1=CC(Cl)=C(C=C1)C#N", 
	 "Tm": 430.15, 
	 "num_atms": 23, 
	 "gaussian": { 
		 "optdone": 1, 
		 "sigma_profile": "yes", 
		 "theory": "DFT", 
		 "functional": "B3LYP", 
		 "basiset": "6-31G**", 
		 "properties": { 
			 "R2extent": 6786.2748, 
			 "electric_dipole_moment_norm": 5.67862573604, 
			 "electric_quadrupole_moment_norm": 32.5159111552, 
			 "total_energy": -1491.00339713, 
			 "HOMO_LUMO_gap": 0.18593, 
			 "cosmo_polarized_energy": -20.63, 
			 "cosmo_cavitation_energy": 32.72, 
			 "cosmo_dispersion_energy": -23.52, 
			 "cosmo_repulsion_energy": 1.86, 
			 "cosmo_total_nonelectrostatic_energy": 11.07, 
			 "SMD_solvation_energy": 6.59 
		},
		"coords": [
			{
				"x": 4.9862460675,
				"y": -1.9397689952,
				"z": 2.9418622141,
				"element": "Cl" 
			},
			{
				"x": 3.2479238653,
				"y": -1.7600876973,
				"z": 2.459276144,
				"element": "C" 
			},
			{
				"x": 3.1192439748,
				"y": -0.7842945435,
				"z": 1.2971217915,
				"element": "C" 
			},
			{
				"x": 1.6570486435,
				"y": -0.6244896664,
				"z": 0.8815308115,
				"element": "C" 
			},
			{
				"x": 0.747971758,
				"y": -1.2204757171,
				"z": 1.4376715766,
				"element": "O" 
			},
			{
				"x": 1.4767284374,
				"y": 0.2518334137,
				"z": -0.1732776135,
				"element": "N" 
			},
			{
				"x": 0.2845012727,
				"y": 0.6342591059,
				"z": -0.8077958181,
				"element": "C" 
			},
			{
				"x": -0.9733265649,
				"y": 0.1416557307,
				"z": -0.4262507342,
				"element": "C" 
			},
			{
				"x": -2.107211226,
				"y": 0.5717093386,
				"z": -1.1076396338,
				"element": "C" 
			},
			{
				"x": -3.6589914437,
				"y": -0.0558370964,
				"z": -0.6136796146,
				"element": "Cl" 
			},
			{
				"x": -2.0286664057,
				"y": 1.4895933213,
				"z": -2.1720257403,
				"element": "C" 
			},
			{
				"x": -0.7578688159,
				"y": 1.9700935351,
				"z": -2.5372691572,
				"element": "C" 
			},
			{
				"x": 0.3803461036,
				"y": 1.5520350535,
				"z": -1.8692730011,
				"element": "C" 
			},
			{
				"x": -3.185547203,
				"y": 1.939994665,
				"z": -2.8808779708,
				"element": "C" 
			},
			{
				"x": -4.0999615994,
				"y": 2.3321915314,
				"z": -3.4836187264,
				"element": "N" 
			},
			{
				"x": 2.7046470074,
				"y": -1.4124277433,
				"z": 3.3367588749,
				"element": "H" 
			},
			{
				"x": 2.883835191,
				"y": -2.7512669223,
				"z": 2.1928164864,
				"element": "H" 
			},
			{
				"x": 3.5303045386,
				"y": 0.1928624881,
				"z": 1.5787402122,
				"element": "H" 
			},
			{
				"x": 3.7080747786,
				"y": -1.1376652164,
				"z": 0.4418309717,
				"element": "H" 
			},
			{
				"x": 2.3144664217,
				"y": 0.6795286313,
				"z": -0.543664741,
				"element": "H" 
			},
			{
				"x": -1.0542185823,
				"y": -0.5630824794,
				"z": 0.3877602764,
				"element": "H" 
			},
			{
				"x": -0.6810353104,
				"y": 2.6777987092,
				"z": -3.3553703131,
				"element": "H" 
			},
			{
				"x": 1.3511890912,
				"y": 1.9369405534,
				"z": -2.1692262953,
				"element": "H" 
			}
		],
		 "valence_orbital": [ 
			{
				"type": "occ",
				"energy": -0.31419,
				"method": "rhf"
			},
			{
				"type": "occ",
				"energy": -0.30732,
				"method": "rhf"
			},
			{
				"type": "occ",
				"energy": -0.28752,
				"method": "rhf"
			},
			{
				"type": "occ",
				"energy": -0.27606,
				"method": "rhf"
			},
			{
				"type": "occ",
				"energy": -0.25244,
				"method": "rhf"
			},
			{
				"type": "unocc",
				"energy": -0.06651,
				"method": "rhf"
			},
			{
				"type": "unocc",
				"energy": -0.03962,
				"method": "rhf"
			},
			{
				"type": "unocc",
				"energy": -0.00492,
				"method": "rhf"
			},
			{
				"type": "unocc",
				"energy": 0.01077,
				"method": "rhf"
			},
			{
				"type": "unocc",
				"energy": 0.01398,
				"method": "rhf"
			}
		],
		"cosmo_sigma_profile": { 
			"-0.025": 0.0,
			"-0.024": 0.0,
			"-0.023": 0.0,
			"-0.022": 0.0,
			"-0.021": 0.0,
			"-0.02": 0.0,
			"-0.019": 0.0,
			"-0.018": 0.0,
			"-0.017": 0.421282580926,
			"-0.016": 1.45380243484,
			"-0.015": 2.01421967978,
			"-0.014": 1.05541008914,
			"-0.013": 1.94033649666,
			"-0.012": 1.95225901769,
			"-0.011": 1.29127527254,
			"-0.01": 1.51501183429,
			"-0.009": 4.13578165708,
			"-0.008": 7.39470442424,
			"-0.007": 13.353228601,
			"-0.006": 12.6602855955,
			"-0.005": 10.1147218374,
			"-0.004": 9.50553615457,
			"-0.003": 12.9009692898,
			"-0.002": 14.8633176877,
			"-0.001": 20.1542595456,
			"0.0": 27.6583060837,
			"0.001": 22.1532826706,
			"0.002": 14.8172774799,
			"0.003": 17.6409977002,
			"0.004": 11.6126933161,
			"0.005": 10.672661439,
			"0.006": 13.9389122512,
			"0.007": 6.82687706868,
			"0.008": 4.6713198467,
			"0.009": 5.26770248454,
			"0.01": 5.0974065081,
			"0.011": 4.96389629611,
			"0.012": 3.96940957685,
			"0.013": 1.31074365087,
			"0.014": 0.0117660538973,
			"0.015": 0.0,
			"0.016": 0.0,
			"0.017": 0.0,
			"0.018": 0.0,
			"0.019": 0.0,
			"0.02": 0.0,
			"0.021": 0.0,
			"0.022": 0.0,
			"0.023": 0.0,
			"0.024": 0.0,
			"0.025": 0.0
		}
	}
}
