{
	 "smiles": "NC1=NC(C2CC2)=C(CC2=C(F)C=CC=C2)S1", 
	 "Tm": 388.15, 
	 "num_atms": 30, 
	 "gaussian": { 
		 "optdone": 1, 
		 "sigma_profile": "yes", 
		 "theory": "DFT", 
		 "functional": "B3LYP", 
		 "basiset": "6-31G**", 
		 "properties": { 
			 "R2extent": 5181.8294, 
			 "electric_dipole_moment_norm": 1.85250702563, 
			 "electric_quadrupole_moment_norm": 10.392803577, 
			 "total_energy": -1110.71945232, 
			 "HOMO_LUMO_gap": 0.18322, 
			 "cosmo_polarized_energy": -12.2, 
			 "cosmo_cavitation_energy": 35.46, 
			 "cosmo_dispersion_energy": -25.31, 
			 "cosmo_repulsion_energy": 1.94, 
			 "cosmo_total_nonelectrostatic_energy": 12.08, 
			 "SMD_solvation_energy": 4.45 
		},
		"coords": [
			{
				"x": -4.1282017359,
				"y": 2.3186640469,
				"z": 0.3711569567,
				"element": "N" 
			},
			{
				"x": -3.2048779703,
				"y": 1.400354688,
				"z": -0.0821204242,
				"element": "C" 
			},
			{
				"x": -3.1125879614,
				"y": 1.0209199025,
				"z": -1.3216132297,
				"element": "N" 
			},
			{
				"x": -2.1480774042,
				"y": 0.0338339384,
				"z": -1.4749075884,
				"element": "C" 
			},
			{
				"x": -1.9255041508,
				"y": -0.5062648469,
				"z": -2.8390516902,
				"element": "C" 
			},
			{
				"x": -2.048522181,
				"y": 0.4105186397,
				"z": -4.0429688917,
				"element": "C" 
			},
			{
				"x": -3.0952743433,
				"y": -0.6374592966,
				"z": -3.7969461992,
				"element": "C" 
			},
			{
				"x": -1.4865834043,
				"y": -0.3443791106,
				"z": -0.3372152974,
				"element": "C" 
			},
			{
				"x": -0.3820856237,
				"y": -1.3511194983,
				"z": -0.1432540646,
				"element": "C" 
			},
			{
				"x": 0.9750305105,
				"y": -0.741940423,
				"z": 0.1703230728,
				"element": "C" 
			},
			{
				"x": 1.3508448569,
				"y": -0.4738977508,
				"z": 1.4871483016,
				"element": "C" 
			},
			{
				"x": 0.4743486435,
				"y": -0.7736847352,
				"z": 2.4799416663,
				"element": "F" 
			},
			{
				"x": 2.5740750112,
				"y": 0.0862116751,
				"z": 1.8317854153,
				"element": "C" 
			},
			{
				"x": 3.4752535689,
				"y": 0.4006907088,
				"z": 0.813779991,
				"element": "C" 
			},
			{
				"x": 3.13684798,
				"y": 0.1511880433,
				"z": -0.517851484,
				"element": "C" 
			},
			{
				"x": 1.8989884019,
				"y": -0.4137649662,
				"z": -0.8289265668,
				"element": "C" 
			},
			{
				"x": -2.115130944,
				"y": 0.5799905749,
				"z": 1.0334509643,
				"element": "S" 
			},
			{
				"x": -3.8557741937,
				"y": 2.8790168742,
				"z": 1.1663030046,
				"element": "H" 
			},
			{
				"x": -4.5454514051,
				"y": 2.853620279,
				"z": -0.3797190507,
				"element": "H" 
			},
			{
				"x": -1.1668652303,
				"y": -1.279483468,
				"z": -2.9078290789,
				"element": "H" 
			},
			{
				"x": -1.3467047904,
				"y": 0.2686083242,
				"z": -4.8596700539,
				"element": "H" 
			},
			{
				"x": -2.317554131,
				"y": 1.4415465511,
				"z": -3.8394907043,
				"element": "H" 
			},
			{
				"x": -4.0597424051,
				"y": -0.3028595835,
				"z": -3.430155949,
				"element": "H" 
			},
			{
				"x": -3.1231777595,
				"y": -1.511047857,
				"z": -4.4415852879,
				"element": "H" 
			},
			{
				"x": -0.6519141334,
				"y": -2.0506575468,
				"z": 0.6557072788,
				"element": "H" 
			},
			{
				"x": -0.2972585677,
				"y": -1.9444524544,
				"z": -1.058156687,
				"element": "H" 
			},
			{
				"x": 2.8004714587,
				"y": 0.2652538608,
				"z": 2.8773996774,
				"element": "H" 
			},
			{
				"x": 4.4369631868,
				"y": 0.8386413899,
				"z": 1.063335845,
				"element": "H" 
			},
			{
				"x": 3.8356775989,
				"y": 0.3936400414,
				"z": -1.3125804504,
				"element": "H" 
			},
			{
				"x": 1.6373871177,
				"y": -0.6060880008,
				"z": -1.8662894758,
				"element": "H" 
			}
		],
		 "valence_orbital": [ 
			{
				"type": "occ",
				"energy": -0.26661,
				"method": "rhf"
			},
			{
				"type": "occ",
				"energy": -0.25576,
				"method": "rhf"
			},
			{
				"type": "occ",
				"energy": -0.25184,
				"method": "rhf"
			},
			{
				"type": "occ",
				"energy": -0.2403,
				"method": "rhf"
			},
			{
				"type": "occ",
				"energy": -0.19354,
				"method": "rhf"
			},
			{
				"type": "unocc",
				"energy": -0.01032,
				"method": "rhf"
			},
			{
				"type": "unocc",
				"energy": -0.00094,
				"method": "rhf"
			},
			{
				"type": "unocc",
				"energy": 0.0104,
				"method": "rhf"
			},
			{
				"type": "unocc",
				"energy": 0.02015,
				"method": "rhf"
			},
			{
				"type": "unocc",
				"energy": 0.06519,
				"method": "rhf"
			}
		],
		"cosmo_sigma_profile": { 
			"-0.025": 0.0,
			"-0.024": 0.0,
			"-0.023": 0.0,
			"-0.022": 0.0,
			"-0.021": 0.0,
			"-0.02": 0.0,
			"-0.019": 0.0,
			"-0.018": 0.0,
			"-0.017": 0.0,
			"-0.016": 0.0,
			"-0.015": 0.135302104912,
			"-0.014": 1.73506470954,
			"-0.013": 2.36940409848,
			"-0.012": 1.94571763737,
			"-0.011": 2.96912103702,
			"-0.01": 2.65851035636,
			"-0.009": 2.88036349925,
			"-0.008": 1.72634097141,
			"-0.007": 4.41866491167,
			"-0.006": 11.1068798375,
			"-0.005": 15.0796180475,
			"-0.004": 19.5561093091,
			"-0.003": 20.4426883271,
			"-0.002": 18.86101238,
			"-0.001": 17.3277255978,
			"0.0": 18.1806569348,
			"0.001": 18.1770275914,
			"0.002": 20.4572171532,
			"0.003": 27.4169147635,
			"0.004": 34.471786478,
			"0.005": 25.55804209,
			"0.006": 4.65222473891,
			"0.007": 2.43804707915,
			"0.008": 2.98540052063,
			"0.009": 1.9507107281,
			"0.01": 1.803589592,
			"0.011": 1.3984322297,
			"0.012": 1.18448009593,
			"0.013": 0.268609834697,
			"0.014": 0.0,
			"0.015": 0.0,
			"0.016": 0.0,
			"0.017": 0.0,
			"0.018": 0.0,
			"0.019": 0.0,
			"0.02": 0.0,
			"0.021": 0.0,
			"0.022": 0.0,
			"0.023": 0.0,
			"0.024": 0.0,
			"0.025": 0.0
		}
	}
}
