{
	 "smiles": "O=C1CSC(=O)N1", 
	 "Tm": 399.15, 
	 "num_atms": 10, 
	 "gaussian": { 
		 "optdone": 1, 
		 "sigma_profile": "yes", 
		 "theory": "DFT", 
		 "functional": "B3LYP", 
		 "basiset": "6-31G**", 
		 "properties": { 
			 "R2extent": 1648.6831, 
			 "electric_dipole_moment_norm": 1.5124604094, 
			 "electric_quadrupole_moment_norm": 13.0422367947, 
			 "total_energy": -719.537972324, 
			 "HOMO_LUMO_gap": 0.23409, 
			 "cosmo_polarized_energy": -12.23, 
			 "cosmo_cavitation_energy": 16.28, 
			 "cosmo_dispersion_energy": -13.0, 
			 "cosmo_repulsion_energy": 1.06, 
			 "cosmo_total_nonelectrostatic_energy": 4.34, 
			 "SMD_solvation_energy": 4.33 
		},
		"coords": [
			{
				"x": 1.3935784334,
				"y": -1.2430447742,
				"z": 2.7088801295,
				"element": "O" 
			},
			{
				"x": 0.6035761094,
				"y": -1.5338999992,
				"z": 1.8388802869,
				"element": "C" 
			},
			{
				"x": 0.691951881,
				"y": -2.783535544,
				"z": 0.9632595531,
				"element": "C" 
			},
			{
				"x": -0.7293967845,
				"y": -2.7702981519,
				"z": -0.1939782661,
				"element": "S" 
			},
			{
				"x": -1.3534898324,
				"y": -1.2151492437,
				"z": 0.4730573944,
				"element": "C" 
			},
			{
				"x": -2.343034958,
				"y": -0.6415169164,
				"z": 0.0965280424,
				"element": "O" 
			},
			{
				"x": -0.5086237227,
				"y": -0.7833393965,
				"z": 1.4951848853,
				"element": "N" 
			},
			{
				"x": 0.6682307453,
				"y": -3.6694545863,
				"z": 1.602080427,
				"element": "H" 
			},
			{
				"x": 1.6394283034,
				"y": -2.7721066737,
				"z": 0.41951285,
				"element": "H" 
			},
			{
				"x": -0.7194201749,
				"y": 0.0814452859,
				"z": 1.9786946975,
				"element": "H" 
			}
		],
		 "valence_orbital": [ 
			{
				"type": "occ",
				"energy": -0.3854,
				"method": "rhf"
			},
			{
				"type": "occ",
				"energy": -0.31078,
				"method": "rhf"
			},
			{
				"type": "occ",
				"energy": -0.31069,
				"method": "rhf"
			},
			{
				"type": "occ",
				"energy": -0.27816,
				"method": "rhf"
			},
			{
				"type": "occ",
				"energy": -0.27294,
				"method": "rhf"
			},
			{
				"type": "unocc",
				"energy": -0.03885,
				"method": "rhf"
			},
			{
				"type": "unocc",
				"energy": -0.00951,
				"method": "rhf"
			},
			{
				"type": "unocc",
				"energy": 0.02069,
				"method": "rhf"
			},
			{
				"type": "unocc",
				"energy": 0.0505,
				"method": "rhf"
			},
			{
				"type": "unocc",
				"energy": 0.08065,
				"method": "rhf"
			}
		],
		"cosmo_sigma_profile": { 
			"-0.025": 0.0,
			"-0.024": 0.0,
			"-0.023": 0.0,
			"-0.022": 0.0,
			"-0.021": 0.0,
			"-0.02": 0.0,
			"-0.019": 0.0,
			"-0.018": 0.0597754499609,
			"-0.017": 1.01791617352,
			"-0.016": 1.56332149683,
			"-0.015": 0.746034926425,
			"-0.014": 0.697534675416,
			"-0.013": 1.13546924604,
			"-0.012": 0.900253479316,
			"-0.011": 0.810019119005,
			"-0.01": 1.05534171721,
			"-0.009": 6.92553850822,
			"-0.008": 7.25796279991,
			"-0.007": 6.47454332519,
			"-0.006": 6.71455327353,
			"-0.005": 6.22334215014,
			"-0.004": 5.611752061,
			"-0.003": 6.46592926581,
			"-0.002": 4.68423013664,
			"-0.001": 4.50140541569,
			"0.0": 6.09995800868,
			"0.001": 8.05974895168,
			"0.002": 6.65213453843,
			"0.003": 5.40402107813,
			"0.004": 5.97336420268,
			"0.005": 4.63686676393,
			"0.006": 3.0319213366,
			"0.007": 2.20663203067,
			"0.008": 3.67172078046,
			"0.009": 4.18152724167,
			"0.01": 7.1344375711,
			"0.011": 9.97173869711,
			"0.012": 2.6660190092,
			"0.013": 0.0413559508047,
			"0.014": 0.0,
			"0.015": 0.0,
			"0.016": 0.0,
			"0.017": 0.0,
			"0.018": 0.0,
			"0.019": 0.0,
			"0.02": 0.0,
			"0.021": 0.0,
			"0.022": 0.0,
			"0.023": 0.0,
			"0.024": 0.0,
			"0.025": 0.0
		}
	}
}
