{
	 "smiles": "COC(=O)C1=C2CCCCCN2C(=O)C=C1O", 
	 "Tm": 496.15, 
	 "num_atms": 32, 
	 "gaussian": { 
		 "optdone": 1, 
		 "sigma_profile": "yes", 
		 "theory": "DFT", 
		 "functional": "B3LYP", 
		 "basiset": "6-31G**", 
		 "properties": { 
			 "R2extent": 4527.8044, 
			 "electric_dipole_moment_norm": 6.85232118482, 
			 "electric_quadrupole_moment_norm": 12.2802053855, 
			 "total_energy": -821.995336254, 
			 "HOMO_LUMO_gap": 0.16173, 
			 "cosmo_polarized_energy": -14.44, 
			 "cosmo_cavitation_energy": 32.7, 
			 "cosmo_dispersion_energy": -24.15, 
			 "cosmo_repulsion_energy": 1.83, 
			 "cosmo_total_nonelectrostatic_energy": 10.38, 
			 "SMD_solvation_energy": 7.18 
		},
		"coords": [
			{
				"x": 0.3192935967,
				"y": -4.5443227129,
				"z": -1.5506120402,
				"element": "C" 
			},
			{
				"x": 0.2748833648,
				"y": -3.2286078348,
				"z": -0.9656706309,
				"element": "O" 
			},
			{
				"x": 0.6391155473,
				"y": -3.1558464206,
				"z": 0.3302704708,
				"element": "C" 
			},
			{
				"x": 0.9521604599,
				"y": -4.1844439527,
				"z": 0.939714766,
				"element": "O" 
			},
			{
				"x": 0.5754358855,
				"y": -1.8323186453,
				"z": 0.9631914543,
				"element": "C" 
			},
			{
				"x": 0.4449324274,
				"y": -0.615536539,
				"z": 0.2841971676,
				"element": "C" 
			},
			{
				"x": 0.5398322664,
				"y": -0.4557397266,
				"z": -1.2188865749,
				"element": "C" 
			},
			{
				"x": -0.8269034139,
				"y": -0.176127109,
				"z": -1.9019749105,
				"element": "C" 
			},
			{
				"x": -1.8219772259,
				"y": 0.6101087503,
				"z": -1.0348970232,
				"element": "C" 
			},
			{
				"x": -1.2925814068,
				"y": 1.9319796254,
				"z": -0.456876108,
				"element": "C" 
			},
			{
				"x": 0.0635824011,
				"y": 1.8268032068,
				"z": 0.27550549,
				"element": "C" 
			},
			{
				"x": 0.2544894152,
				"y": 0.542212336,
				"z": 0.9782445836,
				"element": "N" 
			},
			{
				"x": 0.1778258997,
				"y": 0.6138136912,
				"z": 2.4272358424,
				"element": "C" 
			},
			{
				"x": -0.0464284527,
				"y": 1.6983909866,
				"z": 2.9592934877,
				"element": "O" 
			},
			{
				"x": 0.3998397954,
				"y": -0.624184448,
				"z": 3.0947648313,
				"element": "C" 
			},
			{
				"x": 0.6000310191,
				"y": -1.8011093789,
				"z": 2.42174612,
				"element": "C" 
			},
			{
				"x": 0.8018826566,
				"y": -2.912859994,
				"z": 3.1358514275,
				"element": "O" 
			},
			{
				"x": 1.3279794298,
				"y": -4.9589499018,
				"z": -1.4938103713,
				"element": "H" 
			},
			{
				"x": 0.0162822323,
				"y": -4.4067957336,
				"z": -2.5882133495,
				"element": "H" 
			},
			{
				"x": -0.3696575138,
				"y": -5.2150181353,
				"z": -1.0329511516,
				"element": "H" 
			},
			{
				"x": 0.9902979128,
				"y": -1.3405332489,
				"z": -1.6561207043,
				"element": "H" 
			},
			{
				"x": 1.2263748372,
				"y": 0.372235407,
				"z": -1.4155536725,
				"element": "H" 
			},
			{
				"x": -1.2817216323,
				"y": -1.1364678377,
				"z": -2.1665329285,
				"element": "H" 
			},
			{
				"x": -0.6372907938,
				"y": 0.3543169904,
				"z": -2.8428522842,
				"element": "H" 
			},
			{
				"x": -2.725956687,
				"y": 0.8139969985,
				"z": -1.6201885163,
				"element": "H" 
			},
			{
				"x": -2.1438267602,
				"y": -0.0304315864,
				"z": -0.2048681159,
				"element": "H" 
			},
			{
				"x": -1.1807929909,
				"y": 2.678038747,
				"z": -1.253584194,
				"element": "H" 
			},
			{
				"x": -2.0398620952,
				"y": 2.3275250457,
				"z": 0.2395733443,
				"element": "H" 
			},
			{
				"x": 0.8966830991,
				"y": 1.9768351242,
				"z": -0.4141564043,
				"element": "H" 
			},
			{
				"x": 0.1315104014,
				"y": 2.5856272045,
				"z": 1.053050058,
				"element": "H" 
			},
			{
				"x": 0.4005455396,
				"y": -0.6152043453,
				"z": 4.1768396159,
				"element": "H" 
			},
			{
				"x": 0.9540207853,
				"y": -3.6523865628,
				"z": 2.4963703207,
				"element": "H" 
			}
		],
		 "valence_orbital": [ 
			{
				"type": "occ",
				"energy": -0.31768,
				"method": "rhf"
			},
			{
				"type": "occ",
				"energy": -0.2945,
				"method": "rhf"
			},
			{
				"type": "occ",
				"energy": -0.25548,
				"method": "rhf"
			},
			{
				"type": "occ",
				"energy": -0.2473,
				"method": "rhf"
			},
			{
				"type": "occ",
				"energy": -0.21278,
				"method": "rhf"
			},
			{
				"type": "unocc",
				"energy": -0.05105,
				"method": "rhf"
			},
			{
				"type": "unocc",
				"energy": -0.01387,
				"method": "rhf"
			},
			{
				"type": "unocc",
				"energy": 0.05361,
				"method": "rhf"
			},
			{
				"type": "unocc",
				"energy": 0.07087,
				"method": "rhf"
			},
			{
				"type": "unocc",
				"energy": 0.08295,
				"method": "rhf"
			}
		],
		"cosmo_sigma_profile": { 
			"-0.025": 0.0,
			"-0.024": 0.0,
			"-0.023": 0.0,
			"-0.022": 0.0,
			"-0.021": 0.0,
			"-0.02": 0.0,
			"-0.019": 0.0,
			"-0.018": 0.0,
			"-0.017": 0.0,
			"-0.016": 0.0,
			"-0.015": 0.0,
			"-0.014": 0.0,
			"-0.013": 0.0,
			"-0.012": 0.0,
			"-0.011": 0.0,
			"-0.01": 0.0,
			"-0.009": 0.0358829316564,
			"-0.008": 1.45435469966,
			"-0.007": 4.65732732536,
			"-0.006": 10.3795099659,
			"-0.005": 11.5280202972,
			"-0.004": 22.7107877875,
			"-0.003": 38.3568785996,
			"-0.002": 36.9827968163,
			"-0.001": 31.8613487968,
			"0.0": 22.0938116014,
			"0.001": 10.5005277988,
			"0.002": 7.60677285848,
			"0.003": 10.2032055346,
			"0.004": 8.66450537032,
			"0.005": 4.24397793114,
			"0.006": 3.92129453248,
			"0.007": 4.56837569641,
			"0.008": 4.19990713211,
			"0.009": 4.6158118892,
			"0.01": 4.52746919843,
			"0.011": 3.7301423613,
			"0.012": 1.90632637058,
			"0.013": 3.08163970865,
			"0.014": 4.40508540377,
			"0.015": 1.54469906979,
			"0.016": 0.0516810225211,
			"0.017": 0.0,
			"0.018": 0.0,
			"0.019": 0.0,
			"0.02": 0.0,
			"0.021": 0.0,
			"0.022": 0.0,
			"0.023": 0.0,
			"0.024": 0.0,
			"0.025": 0.0
		}
	}
}
