{
	 "smiles": "CC(C)(C)OC1=CC=C(C=C1)C(O)=O", 
	 "Tm": 413.15, 
	 "num_atms": 28, 
	 "gaussian": { 
		 "optdone": 1, 
		 "sigma_profile": "yes", 
		 "theory": "DFT", 
		 "functional": "B3LYP", 
		 "basiset": "6-31G**", 
		 "properties": { 
			 "R2extent": 3965.7845, 
			 "electric_dipole_moment_norm": 2.73733098291, 
			 "electric_quadrupole_moment_norm": 12.491071336, 
			 "total_energy": -653.30481764, 
			 "HOMO_LUMO_gap": 0.20123, 
			 "cosmo_polarized_energy": -10.36, 
			 "cosmo_cavitation_energy": 31.05, 
			 "cosmo_dispersion_energy": -21.96, 
			 "cosmo_repulsion_energy": 1.72, 
			 "cosmo_total_nonelectrostatic_energy": 10.81, 
			 "SMD_solvation_energy": 6.74 
		},
		"coords": [
			{
				"x": 1.0633359408,
				"y": 0.5399691105,
				"z": -4.3528009996,
				"element": "C" 
			},
			{
				"x": 0.8802256657,
				"y": -0.1386636034,
				"z": -2.9941839479,
				"element": "C" 
			},
			{
				"x": 0.3517871116,
				"y": -1.5677806986,
				"z": -3.1643230135,
				"element": "C" 
			},
			{
				"x": 2.1904123037,
				"y": -0.1298208215,
				"z": -2.1979953688,
				"element": "C" 
			},
			{
				"x": -0.1234401965,
				"y": 0.7065701006,
				"z": -2.3400455958,
				"element": "O" 
			},
			{
				"x": -0.5628152571,
				"y": 0.4210552647,
				"z": -1.0730462648,
				"element": "C" 
			},
			{
				"x": -1.6996599019,
				"y": -0.3795379067,
				"z": -0.8848378447,
				"element": "C" 
			},
			{
				"x": -2.1935121902,
				"y": -0.5974871465,
				"z": 0.3959956047,
				"element": "C" 
			},
			{
				"x": -1.566084676,
				"y": -0.0166138793,
				"z": 1.5073879468,
				"element": "C" 
			},
			{
				"x": -0.4403458166,
				"y": 0.7979447866,
				"z": 1.3168624329,
				"element": "C" 
			},
			{
				"x": 0.0562045963,
				"y": 1.0168547403,
				"z": 0.0355114903,
				"element": "C" 
			},
			{
				"x": -2.1364560045,
				"y": -0.2836184288,
				"z": 2.8500783096,
				"element": "C" 
			},
			{
				"x": -1.4560466656,
				"y": 0.3325076146,
				"z": 3.8519802054,
				"element": "O" 
			},
			{
				"x": -3.1103336767,
				"y": -0.9781668546,
				"z": 3.0701809619,
				"element": "O" 
			},
			{
				"x": 0.1155336302,
				"y": 0.5616094402,
				"z": -4.8978951692,
				"element": "H" 
			},
			{
				"x": 1.4060160705,
				"y": 1.5700071801,
				"z": -4.2204004035,
				"element": "H" 
			},
			{
				"x": 1.8007812832,
				"y": 0.0006888425,
				"z": -4.9549011677,
				"element": "H" 
			},
			{
				"x": 0.1805654956,
				"y": -2.0503693534,
				"z": -2.1979586941,
				"element": "H" 
			},
			{
				"x": -0.5880766708,
				"y": -1.5675709528,
				"z": -3.7244508798,
				"element": "H" 
			},
			{
				"x": 1.0782698074,
				"y": -2.1722322048,
				"z": -3.7167056051,
				"element": "H" 
			},
			{
				"x": 2.9553892117,
				"y": -0.705065268,
				"z": -2.7291740152,
				"element": "H" 
			},
			{
				"x": 2.5585508638,
				"y": 0.8927955124,
				"z": -2.0719616311,
				"element": "H" 
			},
			{
				"x": 2.0616814173,
				"y": -0.577383082,
				"z": -1.2084164458,
				"element": "H" 
			},
			{
				"x": -2.1915429045,
				"y": -0.8071811388,
				"z": -1.751590698,
				"element": "H" 
			},
			{
				"x": -3.0717578562,
				"y": -1.2130358466,
				"z": 0.5594918067,
				"element": "H" 
			},
			{
				"x": 0.0375583507,
				"y": 1.2599251255,
				"z": 2.173358606,
				"element": "H" 
			},
			{
				"x": 0.9135264478,
				"y": 1.6612889003,
				"z": -0.1253882813,
				"element": "H" 
			},
			{
				"x": -1.9184663798,
				"y": 0.0862105678,
				"z": 4.6696286618,
				"element": "H" 
			}
		],
		 "valence_orbital": [ 
			{
				"type": "occ",
				"energy": -0.31321,
				"method": "rhf"
			},
			{
				"type": "occ",
				"energy": -0.27505,
				"method": "rhf"
			},
			{
				"type": "occ",
				"energy": -0.27006,
				"method": "rhf"
			},
			{
				"type": "occ",
				"energy": -0.25959,
				"method": "rhf"
			},
			{
				"type": "occ",
				"energy": -0.24434,
				"method": "rhf"
			},
			{
				"type": "unocc",
				"energy": -0.04311,
				"method": "rhf"
			},
			{
				"type": "unocc",
				"energy": -0.00911,
				"method": "rhf"
			},
			{
				"type": "unocc",
				"energy": 0.05953,
				"method": "rhf"
			},
			{
				"type": "unocc",
				"energy": 0.07725,
				"method": "rhf"
			},
			{
				"type": "unocc",
				"energy": 0.08098,
				"method": "rhf"
			}
		],
		"cosmo_sigma_profile": { 
			"-0.025": 0.0,
			"-0.024": 0.0,
			"-0.023": 0.0,
			"-0.022": 0.0,
			"-0.021": 0.0,
			"-0.02": 0.0,
			"-0.019": 0.0075377200143,
			"-0.018": 0.713436491374,
			"-0.017": 0.591737119258,
			"-0.016": 0.924323408581,
			"-0.015": 0.939166950149,
			"-0.014": 0.790466505781,
			"-0.013": 0.832901844418,
			"-0.012": 0.581034179501,
			"-0.011": 0.730816517498,
			"-0.01": 0.571216246203,
			"-0.009": 0.334423313554,
			"-0.008": 0.433429344671,
			"-0.007": 1.39469731527,
			"-0.006": 6.11543175726,
			"-0.005": 8.48597321157,
			"-0.004": 17.6477967086,
			"-0.003": 26.6741438622,
			"-0.002": 24.8807888532,
			"-0.001": 26.0190922482,
			"0.0": 29.4741135072,
			"0.001": 22.6149006559,
			"0.002": 15.6214609222,
			"0.003": 18.1745646452,
			"0.004": 6.72692022806,
			"0.005": 4.70693312802,
			"0.006": 3.89270912601,
			"0.007": 4.69328877791,
			"0.008": 4.13789851493,
			"0.009": 2.11947166453,
			"0.01": 3.13290659906,
			"0.011": 4.52093672666,
			"0.012": 5.30406970937,
			"0.013": 0.267820743779,
			"0.014": 0.0,
			"0.015": 0.0,
			"0.016": 0.0,
			"0.017": 0.0,
			"0.018": 0.0,
			"0.019": 0.0,
			"0.02": 0.0,
			"0.021": 0.0,
			"0.022": 0.0,
			"0.023": 0.0,
			"0.024": 0.0,
			"0.025": 0.0
		}
	}
}
