{
	 "smiles": "CC(C(O)C1=CC=C(O)C=C1)N1CCC(CC2=CC=CC=C2)CC1", 
	 "Tm": 387.15, 
	 "num_atms": 51, 
	 "gaussian": { 
		 "optdone": 1, 
		 "sigma_profile": "yes", 
		 "theory": "DFT", 
		 "functional": "B3LYP", 
		 "basiset": "6-31G**", 
		 "properties": { 
			 "R2extent": 11383.907, 
			 "electric_dipole_moment_norm": 2.06426613594, 
			 "electric_quadrupole_moment_norm": 9.67701302831, 
			 "total_energy": -1021.68843156, 
			 "HOMO_LUMO_gap": 0.18737, 
			 "cosmo_polarized_energy": -15.06, 
			 "cosmo_cavitation_energy": 49.76, 
			 "cosmo_dispersion_energy": -33.45, 
			 "cosmo_repulsion_energy": 2.54, 
			 "cosmo_total_nonelectrostatic_energy": 18.85, 
			 "SMD_solvation_energy": 7.69 
		},
		"coords": [
			{
				"x": -0.6187194109,
				"y": 1.3211863737,
				"z": -2.4348100017,
				"element": "C" 
			},
			{
				"x": -0.928368648,
				"y": 0.9081564264,
				"z": -0.9951067473,
				"element": "C" 
			},
			{
				"x": -2.3193418055,
				"y": 0.1900413292,
				"z": -0.9087424345,
				"element": "C" 
			},
			{
				"x": -3.3636883602,
				"y": 1.1075048696,
				"z": -1.2345783097,
				"element": "O" 
			},
			{
				"x": -2.4484907676,
				"y": -1.01557205,
				"z": -1.8187813472,
				"element": "C" 
			},
			{
				"x": -1.7802472569,
				"y": -2.2112151779,
				"z": -1.5120388173,
				"element": "C" 
			},
			{
				"x": -1.8705435488,
				"y": -3.3245177625,
				"z": -2.3422795814,
				"element": "C" 
			},
			{
				"x": -2.6489636705,
				"y": -3.2647024079,
				"z": -3.5032111504,
				"element": "C" 
			},
			{
				"x": -2.7111690538,
				"y": -4.3879568552,
				"z": -4.283847031,
				"element": "O" 
			},
			{
				"x": -3.3300492633,
				"y": -2.0857998698,
				"z": -3.8172695627,
				"element": "C" 
			},
			{
				"x": -3.2275585734,
				"y": -0.9738758596,
				"z": -2.9797088507,
				"element": "C" 
			},
			{
				"x": 0.0905314271,
				"y": 0.102422855,
				"z": -0.3101391188,
				"element": "N" 
			},
			{
				"x": 0.1794106317,
				"y": 0.4175586979,
				"z": 1.1190416374,
				"element": "C" 
			},
			{
				"x": 1.2726614708,
				"y": -0.4040447382,
				"z": 1.8061467428,
				"element": "C" 
			},
			{
				"x": 2.6890218839,
				"y": -0.1198725397,
				"z": 1.2293139457,
				"element": "C" 
			},
			{
				"x": 3.5970918213,
				"y": 0.7342358122,
				"z": 2.1589084382,
				"element": "C" 
			},
			{
				"x": 3.1107514131,
				"y": 2.1288697166,
				"z": 2.499973191,
				"element": "C" 
			},
			{
				"x": 3.4358753283,
				"y": 3.228623079,
				"z": 1.6903409995,
				"element": "C" 
			},
			{
				"x": 2.9810381313,
				"y": 4.5120076388,
				"z": 1.9972105951,
				"element": "C" 
			},
			{
				"x": 2.1941065614,
				"y": 4.7250498152,
				"z": 3.1302385392,
				"element": "C" 
			},
			{
				"x": 1.8762038251,
				"y": 3.6460599576,
				"z": 3.9567861614,
				"element": "C" 
			},
			{
				"x": 2.3343260828,
				"y": 2.3649703981,
				"z": 3.6451059922,
				"element": "C" 
			},
			{
				"x": 2.5660944595,
				"y": 0.457225143,
				"z": -0.1968617444,
				"element": "C" 
			},
			{
				"x": 1.3881884607,
				"y": -0.1879610867,
				"z": -0.9410747368,
				"element": "C" 
			},
			{
				"x": -0.4512638603,
				"y": 0.4593352668,
				"z": -3.0860300758,
				"element": "H" 
			},
			{
				"x": -1.4830520037,
				"y": 1.8652397595,
				"z": -2.8243692803,
				"element": "H" 
			},
			{
				"x": 0.2514649929,
				"y": 1.9820326802,
				"z": -2.4898497369,
				"element": "H" 
			},
			{
				"x": -1.0603925053,
				"y": 1.8516060964,
				"z": -0.4264078914,
				"element": "H" 
			},
			{
				"x": -2.4368147791,
				"y": -0.1524797219,
				"z": 0.1312016318,
				"element": "H" 
			},
			{
				"x": -3.2559100431,
				"y": 1.8824585499,
				"z": -0.668376152,
				"element": "H" 
			},
			{
				"x": -1.1753112312,
				"y": -2.2614715158,
				"z": -0.6126777942,
				"element": "H" 
			},
			{
				"x": -1.354691564,
				"y": -4.2489541603,
				"z": -2.1032500549,
				"element": "H" 
			},
			{
				"x": -3.2878543898,
				"y": -4.211211688,
				"z": -5.0382157978,
				"element": "H" 
			},
			{
				"x": -3.9454312586,
				"y": -2.0356793471,
				"z": -4.7140420982,
				"element": "H" 
			},
			{
				"x": -3.767613179,
				"y": -0.0657815616,
				"z": -3.2210739882,
				"element": "H" 
			},
			{
				"x": 0.3701343855,
				"y": 1.4943656647,
				"z": 1.2878112998,
				"element": "H" 
			},
			{
				"x": -0.7866745761,
				"y": 0.2024581564,
				"z": 1.5941408255,
				"element": "H" 
			},
			{
				"x": 1.2413281961,
				"y": -0.2073347524,
				"z": 2.882699083,
				"element": "H" 
			},
			{
				"x": 1.0326581311,
				"y": -1.4660838813,
				"z": 1.6791706699,
				"element": "H" 
			},
			{
				"x": 3.2022024706,
				"y": -1.0867445395,
				"z": 1.1406380101,
				"element": "H" 
			},
			{
				"x": 3.7446907813,
				"y": 0.1731301779,
				"z": 3.0899399542,
				"element": "H" 
			},
			{
				"x": 4.5842191983,
				"y": 0.808006972,
				"z": 1.6846770767,
				"element": "H" 
			},
			{
				"x": 4.064387674,
				"y": 3.0783661435,
				"z": 0.8161994831,
				"element": "H" 
			},
			{
				"x": 3.2492095749,
				"y": 5.3466520935,
				"z": 1.3552431687,
				"element": "H" 
			},
			{
				"x": 1.8427893705,
				"y": 5.7236936465,
				"z": 3.3735087101,
				"element": "H" 
			},
			{
				"x": 1.2787673754,
				"y": 3.8021185111,
				"z": 4.8508772245,
				"element": "H" 
			},
			{
				"x": 2.0982211484,
				"y": 1.5372573958,
				"z": 4.3091978436,
				"element": "H" 
			},
			{
				"x": 2.4095335358,
				"y": 1.5415170033,
				"z": -0.1587625025,
				"element": "H" 
			},
			{
				"x": 3.4975741453,
				"y": 0.290320228,
				"z": -0.7521700437,
				"element": "H" 
			},
			{
				"x": 1.5461686082,
				"y": -1.2778397798,
				"z": -0.9755821621,
				"element": "H" 
			},
			{
				"x": 1.379198664,
				"y": 0.1423288376,
				"z": -1.9795142115,
				"element": "H" 
			}
		],
		 "valence_orbital": [ 
			{
				"type": "occ",
				"energy": -0.24921,
				"method": "rhf"
			},
			{
				"type": "occ",
				"energy": -0.24074,
				"method": "rhf"
			},
			{
				"type": "occ",
				"energy": -0.23807,
				"method": "rhf"
			},
			{
				"type": "occ",
				"energy": -0.20666,
				"method": "rhf"
			},
			{
				"type": "occ",
				"energy": -0.18969,
				"method": "rhf"
			},
			{
				"type": "unocc",
				"energy": -0.00232,
				"method": "rhf"
			},
			{
				"type": "unocc",
				"energy": -0.00151,
				"method": "rhf"
			},
			{
				"type": "unocc",
				"energy": 0.01036,
				"method": "rhf"
			},
			{
				"type": "unocc",
				"energy": 0.02338,
				"method": "rhf"
			},
			{
				"type": "unocc",
				"energy": 0.06999,
				"method": "rhf"
			}
		],
		"cosmo_sigma_profile": { 
			"-0.025": 0.0,
			"-0.024": 0.0,
			"-0.023": 0.0,
			"-0.022": 0.0,
			"-0.021": 0.0,
			"-0.02": 0.0,
			"-0.019": 0.0,
			"-0.018": 0.0705195310081,
			"-0.017": 0.943356944589,
			"-0.016": 1.0801801213,
			"-0.015": 1.69472448979,
			"-0.014": 2.17606468301,
			"-0.013": 1.19395031392,
			"-0.012": 2.42636829374,
			"-0.011": 1.98370198423,
			"-0.01": 1.69328361786,
			"-0.009": 2.11136353444,
			"-0.008": 1.96714552098,
			"-0.007": 2.55436309006,
			"-0.006": 4.1759245041,
			"-0.005": 14.6014307142,
			"-0.004": 20.8731429299,
			"-0.003": 35.9858125248,
			"-0.002": 42.8778373204,
			"-0.001": 52.7323555878,
			"0.0": 40.666535942,
			"0.001": 30.0917391143,
			"0.002": 20.989975734,
			"0.003": 21.1132628806,
			"0.004": 22.2800259464,
			"0.005": 19.8551017099,
			"0.006": 19.8469803279,
			"0.007": 6.74844597876,
			"0.008": 3.52401892948,
			"0.009": 2.46594975311,
			"0.01": 3.26063181978,
			"0.011": 2.94288223066,
			"0.012": 2.20102689334,
			"0.013": 0.955871445692,
			"0.014": 0.504882365799,
			"0.015": 0.000426064134074,
			"0.016": 0.0,
			"0.017": 0.0,
			"0.018": 0.0,
			"0.019": 0.0,
			"0.02": 0.0,
			"0.021": 0.0,
			"0.022": 0.0,
			"0.023": 0.0,
			"0.024": 0.0,
			"0.025": 0.0
		}
	}
}
