{
	 "smiles": "CCCSP(=O)(OCC)OC1=CC=C(Br)C=C1Cl", 
	 "Tm": 298.15, 
	 "num_atms": 33, 
	 "gaussian": { 
		 "optdone": 1, 
		 "sigma_profile": "yes", 
		 "theory": "DFT", 
		 "functional": "B3LYP", 
		 "basiset": "6-31G**", 
		 "properties": { 
			 "R2extent": 9140.9521, 
			 "electric_dipole_moment_norm": 5.52957805985, 
			 "electric_quadrupole_moment_norm": 15.1654029027, 
			 "total_energy": -4425.08799883, 
			 "HOMO_LUMO_gap": 0.21087, 
			 "cosmo_polarized_energy": -14.66, 
			 "cosmo_cavitation_energy": 43.58, 
			 "cosmo_dispersion_energy": -29.54, 
			 "cosmo_repulsion_energy": 2.3, 
			 "cosmo_total_nonelectrostatic_energy": 16.33, 
			 "SMD_solvation_energy": 6.79 
		},
		"coords": [
			{
				"x": -0.4890107993,
				"y": 2.1175732494,
				"z": -3.9694384951,
				"element": "C" 
			},
			{
				"x": -1.3840012654,
				"y": 1.9114616412,
				"z": -2.7444423715,
				"element": "C" 
			},
			{
				"x": -0.7228155219,
				"y": 1.1468179149,
				"z": -1.5911144702,
				"element": "C" 
			},
			{
				"x": 0.6037631314,
				"y": 2.1885754778,
				"z": -0.8059943482,
				"element": "S" 
			},
			{
				"x": 1.9140764449,
				"y": 0.8098231799,
				"z": 0.0801026883,
				"element": "P" 
			},
			{
				"x": 3.1641300115,
				"y": 1.472532945,
				"z": 0.5029720202,
				"element": "O" 
			},
			{
				"x": 2.0443806551,
				"y": -0.4361120619,
				"z": -0.9465459355,
				"element": "O" 
			},
			{
				"x": 2.9657839928,
				"y": -0.3262330294,
				"z": -2.0736751567,
				"element": "C" 
			},
			{
				"x": 4.3599554342,
				"y": -0.7842923031,
				"z": -1.6838859508,
				"element": "C" 
			},
			{
				"x": 1.1800595608,
				"y": 0.0707675685,
				"z": 1.3378990977,
				"element": "O" 
			},
			{
				"x": -0.0151240753,
				"y": -0.6145032085,
				"z": 1.3489125906,
				"element": "C" 
			},
			{
				"x": -0.1602507399,
				"y": -1.8322965376,
				"z": 0.6801219307,
				"element": "C" 
			},
			{
				"x": -1.3529235528,
				"y": -2.5472863658,
				"z": 0.7610764252,
				"element": "C" 
			},
			{
				"x": -2.4001439488,
				"y": -2.0401022953,
				"z": 1.5287600526,
				"element": "C" 
			},
			{
				"x": -4.0396266742,
				"y": -3.0089997801,
				"z": 1.6471134529,
				"element": "Br" 
			},
			{
				"x": -2.2711149079,
				"y": -0.8373162371,
				"z": 2.218939816,
				"element": "C" 
			},
			{
				"x": -1.0736182257,
				"y": -0.1252047274,
				"z": 2.1294776733,
				"element": "C" 
			},
			{
				"x": -0.9040823621,
				"y": 1.3721918623,
				"z": 3.0049509688,
				"element": "Cl" 
			},
			{
				"x": -0.1499959573,
				"y": 1.1572384078,
				"z": -4.37483622,
				"element": "H" 
			},
			{
				"x": 0.3969449561,
				"y": 2.7100213881,
				"z": -3.7235070117,
				"element": "H" 
			},
			{
				"x": -1.0326394606,
				"y": 2.6399402439,
				"z": -4.7625209226,
				"element": "H" 
			},
			{
				"x": -1.7528195399,
				"y": 2.877591184,
				"z": -2.3785243054,
				"element": "H" 
			},
			{
				"x": -2.2746023129,
				"y": 1.3375036861,
				"z": -3.0318229634,
				"element": "H" 
			},
			{
				"x": -0.2673135939,
				"y": 0.2194965013,
				"z": -1.9467763719,
				"element": "H" 
			},
			{
				"x": -1.4577963063,
				"y": 0.9023679901,
				"z": -0.8220552733,
				"element": "H" 
			},
			{
				"x": 2.5308545617,
				"y": -0.962193425,
				"z": -2.8491485945,
				"element": "H" 
			},
			{
				"x": 2.9696487923,
				"y": 0.7054688046,
				"z": -2.4408999063,
				"element": "H" 
			},
			{
				"x": 4.7699295182,
				"y": -0.134349595,
				"z": -0.9078636738,
				"element": "H" 
			},
			{
				"x": 4.3388378206,
				"y": -1.8125327752,
				"z": -1.3115106803,
				"element": "H" 
			},
			{
				"x": 5.0167841051,
				"y": -0.7476948959,
				"z": -2.5597129089,
				"element": "H" 
			},
			{
				"x": 0.6731817044,
				"y": -2.204640176,
				"z": 0.0970588831,
				"element": "H" 
			},
			{
				"x": -1.4628715197,
				"y": -3.4905425419,
				"z": 0.2393189602,
				"element": "H" 
			},
			{
				"x": -3.0827799252,
				"y": -0.4514720897,
				"z": 2.8227710006,
				"element": "H" 
			}
		],
		 "valence_orbital": [ 
			{
				"type": "occ",
				"energy": -0.30014,
				"method": "rhf"
			},
			{
				"type": "occ",
				"energy": -0.29403,
				"method": "rhf"
			},
			{
				"type": "occ",
				"energy": -0.27101,
				"method": "rhf"
			},
			{
				"type": "occ",
				"energy": -0.26011,
				"method": "rhf"
			},
			{
				"type": "occ",
				"energy": -0.24754,
				"method": "rhf"
			},
			{
				"type": "unocc",
				"energy": -0.03667,
				"method": "rhf"
			},
			{
				"type": "unocc",
				"energy": -0.03383,
				"method": "rhf"
			},
			{
				"type": "unocc",
				"energy": -0.01488,
				"method": "rhf"
			},
			{
				"type": "unocc",
				"energy": 0.00353,
				"method": "rhf"
			},
			{
				"type": "unocc",
				"energy": 0.02466,
				"method": "rhf"
			}
		],
		"cosmo_sigma_profile": { 
			"-0.025": 0.0,
			"-0.024": 0.0,
			"-0.023": 0.0,
			"-0.022": 0.0,
			"-0.021": 0.0,
			"-0.02": 0.0,
			"-0.019": 0.0,
			"-0.018": 0.0,
			"-0.017": 0.0,
			"-0.016": 0.0,
			"-0.015": 0.0,
			"-0.014": 0.0,
			"-0.013": 0.0,
			"-0.012": 0.0,
			"-0.011": 0.0,
			"-0.01": 0.0,
			"-0.009": 0.500916086474,
			"-0.008": 3.01834989418,
			"-0.007": 4.86091371789,
			"-0.006": 9.29289397213,
			"-0.005": 15.5167168129,
			"-0.004": 29.7348219055,
			"-0.003": 36.0484503276,
			"-0.002": 33.6469685124,
			"-0.001": 38.0465438656,
			"0.0": 42.5691398506,
			"0.001": 35.0741119403,
			"0.002": 21.7727287026,
			"0.003": 21.9103951279,
			"0.004": 23.992978367,
			"0.005": 9.1920152246,
			"0.006": 5.22908149536,
			"0.007": 3.98939924857,
			"0.008": 2.80144637348,
			"0.009": 0.768805959432,
			"0.01": 1.38618202701,
			"0.011": 2.04740983134,
			"0.012": 2.0201477663,
			"0.013": 5.5680317576,
			"0.014": 1.94218121426,
			"0.015": 0.0,
			"0.016": 0.0,
			"0.017": 0.0,
			"0.018": 0.0,
			"0.019": 0.0,
			"0.02": 0.0,
			"0.021": 0.0,
			"0.022": 0.0,
			"0.023": 0.0,
			"0.024": 0.0,
			"0.025": 0.0
		}
	}
}
