{
	 "smiles": "COC(=O)C1=CC(=C(O)C(=C1)C(C)(C)C)C(C)(C)C", 
	 "Tm": 438.15, 
	 "num_atms": 43, 
	 "gaussian": { 
		 "optdone": 1, 
		 "sigma_profile": "yes", 
		 "theory": "DFT", 
		 "functional": "B3LYP", 
		 "basiset": "6-31G**", 
		 "properties": { 
			 "R2extent": 6414.5147, 
			 "electric_dipole_moment_norm": 1.66471097191, 
			 "electric_quadrupole_moment_norm": 14.4906087043, 
			 "total_energy": -849.871317684, 
			 "HOMO_LUMO_gap": 0.19147, 
			 "cosmo_polarized_energy": -9.87, 
			 "cosmo_cavitation_energy": 41.97, 
			 "cosmo_dispersion_energy": -28.93, 
			 "cosmo_repulsion_energy": 2.23, 
			 "cosmo_total_nonelectrostatic_energy": 15.27, 
			 "SMD_solvation_energy": 9.13 
		},
		"coords": [
			{
				"x": -3.2206901813,
				"y": -2.2148781064,
				"z": 3.4130629114,
				"element": "C" 
			},
			{
				"x": -1.9957452135,
				"y": -1.8882610625,
				"z": 2.7438504171,
				"element": "O" 
			},
			{
				"x": -2.0304631927,
				"y": -0.7533217526,
				"z": 2.0006847393,
				"element": "C" 
			},
			{
				"x": -3.0287130321,
				"y": -0.0616510764,
				"z": 1.9077676867,
				"element": "O" 
			},
			{
				"x": -0.7366290619,
				"y": -0.4672837447,
				"z": 1.3334367594,
				"element": "C" 
			},
			{
				"x": -0.6537071219,
				"y": 0.6783524966,
				"z": 0.5405234083,
				"element": "C" 
			},
			{
				"x": 0.520489276,
				"y": 1.0301728977,
				"z": -0.1257534244,
				"element": "C" 
			},
			{
				"x": 1.6356723769,
				"y": 0.1668982175,
				"z": 0.0388482409,
				"element": "C" 
			},
			{
				"x": 2.8333213352,
				"y": 0.4279558345,
				"z": -0.5738757711,
				"element": "O" 
			},
			{
				"x": 1.5913485635,
				"y": -1.0066450884,
				"z": 0.8349634386,
				"element": "C" 
			},
			{
				"x": 0.3831409631,
				"y": -1.2936124697,
				"z": 1.4705411435,
				"element": "C" 
			},
			{
				"x": 2.8197944459,
				"y": -1.9322947164,
				"z": 0.9978901931,
				"element": "C" 
			},
			{
				"x": 3.2518494622,
				"y": -2.5026538516,
				"z": -0.3761619346,
				"element": "C" 
			},
			{
				"x": 3.9947572959,
				"y": -1.1601808923,
				"z": 1.648429496,
				"element": "C" 
			},
			{
				"x": 2.5059690669,
				"y": -3.136152407,
				"z": 1.9111235649,
				"element": "C" 
			},
			{
				"x": 0.5813694358,
				"y": 2.3084195825,
				"z": -0.9997706553,
				"element": "C" 
			},
			{
				"x": 1.6295780412,
				"y": 3.309959319,
				"z": -0.4420980803,
				"element": "C" 
			},
			{
				"x": 0.8811657503,
				"y": 1.950976448,
				"z": -2.481445973,
				"element": "C" 
			},
			{
				"x": -0.767505106,
				"y": 3.0591652143,
				"z": -1.0051974518,
				"element": "C" 
			},
			{
				"x": -4.029286723,
				"y": -2.3609003295,
				"z": 2.6919712328,
				"element": "H" 
			},
			{
				"x": -3.0226548538,
				"y": -3.1387780839,
				"z": 3.957070059,
				"element": "H" 
			},
			{
				"x": -3.5093974374,
				"y": -1.4181307786,
				"z": 4.103664768,
				"element": "H" 
			},
			{
				"x": -1.5448012497,
				"y": 1.2863648977,
				"z": 0.4636945595,
				"element": "H" 
			},
			{
				"x": 2.7667895259,
				"y": 1.2393979094,
				"z": -1.0867449052,
				"element": "H" 
			},
			{
				"x": 0.2909781917,
				"y": -2.1740930198,
				"z": 2.089824665,
				"element": "H" 
			},
			{
				"x": 4.1078566691,
				"y": -3.1748946838,
				"z": -0.2467007142,
				"element": "H" 
			},
			{
				"x": 3.5394432532,
				"y": -1.7146946912,
				"z": -1.0723990608,
				"element": "H" 
			},
			{
				"x": 2.4376102764,
				"y": -3.0809134869,
				"z": -0.8264593292,
				"element": "H" 
			},
			{
				"x": 4.3140350091,
				"y": -0.3147196535,
				"z": 1.0387962759,
				"element": "H" 
			},
			{
				"x": 4.8518277666,
				"y": -1.8305259053,
				"z": 1.7806225069,
				"element": "H" 
			},
			{
				"x": 3.7084904015,
				"y": -0.7844039154,
				"z": 2.6368443846,
				"element": "H" 
			},
			{
				"x": 2.2247824657,
				"y": -2.8257466768,
				"z": 2.9228193398,
				"element": "H" 
			},
			{
				"x": 1.7041272638,
				"y": -3.76331561,
				"z": 1.5078088917,
				"element": "H" 
			},
			{
				"x": 3.4000117711,
				"y": -3.7619110702,
				"z": 1.996804213,
				"element": "H" 
			},
			{
				"x": 2.6505149367,
				"y": 2.9187168078,
				"z": -0.3858023266,
				"element": "H" 
			},
			{
				"x": 1.6615301809,
				"y": 4.2088260365,
				"z": -1.0670997619,
				"element": "H" 
			},
			{
				"x": 1.3567610646,
				"y": 3.6118907101,
				"z": 0.5735993764,
				"element": "H" 
			},
			{
				"x": 1.8221538114,
				"y": 1.4145330939,
				"z": -2.6405816456,
				"element": "H" 
			},
			{
				"x": 0.0883839897,
				"y": 1.3112269851,
				"z": -2.8808686861,
				"element": "H" 
			},
			{
				"x": 0.9210474172,
				"y": 2.8619567621,
				"z": -3.088146868,
				"element": "H" 
			},
			{
				"x": -1.5757453406,
				"y": 2.4453463642,
				"z": -1.4133492147,
				"element": "H" 
			},
			{
				"x": -0.6805398475,
				"y": 3.9519356836,
				"z": -1.6326777861,
				"element": "H" 
			},
			{
				"x": -1.0577216458,
				"y": 3.3866678124,
				"z": -0.0026086829,
				"element": "H" 
			}
		],
		 "valence_orbital": [ 
			{
				"type": "occ",
				"energy": -0.30492,
				"method": "rhf"
			},
			{
				"type": "occ",
				"energy": -0.29201,
				"method": "rhf"
			},
			{
				"type": "occ",
				"energy": -0.26276,
				"method": "rhf"
			},
			{
				"type": "occ",
				"energy": -0.24356,
				"method": "rhf"
			},
			{
				"type": "occ",
				"energy": -0.22103,
				"method": "rhf"
			},
			{
				"type": "unocc",
				"energy": -0.02956,
				"method": "rhf"
			},
			{
				"type": "unocc",
				"energy": 0.00069,
				"method": "rhf"
			},
			{
				"type": "unocc",
				"energy": 0.05835,
				"method": "rhf"
			},
			{
				"type": "unocc",
				"energy": 0.06631,
				"method": "rhf"
			},
			{
				"type": "unocc",
				"energy": 0.09714,
				"method": "rhf"
			}
		],
		"cosmo_sigma_profile": { 
			"-0.025": 0.0,
			"-0.024": 0.0,
			"-0.023": 0.0,
			"-0.022": 0.0,
			"-0.021": 0.0,
			"-0.02": 0.0,
			"-0.019": 0.0,
			"-0.018": 0.0,
			"-0.017": 0.0,
			"-0.016": 0.0,
			"-0.015": 0.263265663548,
			"-0.014": 0.665200690736,
			"-0.013": 0.568947084037,
			"-0.012": 0.373941772814,
			"-0.011": 1.15672948964,
			"-0.01": 0.872286658055,
			"-0.009": 0.526885640414,
			"-0.008": 0.965217274928,
			"-0.007": 1.17518100302,
			"-0.006": 4.08082327424,
			"-0.005": 7.88908246757,
			"-0.004": 16.2098967633,
			"-0.003": 42.3966076831,
			"-0.002": 40.6660890256,
			"-0.001": 38.991512253,
			"0.0": 41.0055696825,
			"0.001": 38.9150614074,
			"0.002": 28.680839528,
			"0.003": 17.4316207391,
			"0.004": 16.3872484621,
			"0.005": 7.81027808415,
			"0.006": 4.04441597475,
			"0.007": 2.95272288838,
			"0.008": 1.52771381786,
			"0.009": 1.41477763118,
			"0.01": 1.35118324018,
			"0.011": 2.14952835799,
			"0.012": 4.28960383162,
			"0.013": 2.41293588882,
			"0.014": 0.0,
			"0.015": 0.0,
			"0.016": 0.0,
			"0.017": 0.0,
			"0.018": 0.0,
			"0.019": 0.0,
			"0.02": 0.0,
			"0.021": 0.0,
			"0.022": 0.0,
			"0.023": 0.0,
			"0.024": 0.0,
			"0.025": 0.0
		}
	}
}
