{
	 "smiles": "CC(N1C(=O)CCC1=O)C(=O)C1=CC=C(Br)C=C1", 
	 "Tm": 445.15, 
	 "num_atms": 30, 
	 "gaussian": { 
		 "optdone": 1, 
		 "sigma_profile": "yes", 
		 "theory": "DFT", 
		 "functional": "B3LYP", 
		 "basiset": "6-31G**", 
		 "properties": { 
			 "R2extent": 9284.9004, 
			 "electric_dipole_moment_norm": 3.4964393002, 
			 "electric_quadrupole_moment_norm": 12.6388275825, 
			 "total_energy": -3354.48024229, 
			 "HOMO_LUMO_gap": 0.18504, 
			 "cosmo_polarized_energy": -16.43, 
			 "cosmo_cavitation_energy": 36.16, 
			 "cosmo_dispersion_energy": -25.19, 
			 "cosmo_repulsion_energy": 1.97, 
			 "cosmo_total_nonelectrostatic_energy": 12.94, 
			 "SMD_solvation_energy": 6.78 
		},
		"coords": [
			{
				"x": -0.8440438364,
				"y": 2.5530987477,
				"z": 0.741606348,
				"element": "C" 
			},
			{
				"x": -0.8504677655,
				"y": 1.0373987907,
				"z": 0.540061745,
				"element": "C" 
			},
			{
				"x": 0.4642766824,
				"y": 0.5392254524,
				"z": 0.11590565,
				"element": "N" 
			},
			{
				"x": 1.5926225148,
				"y": 0.5188001712,
				"z": 0.94325824,
				"element": "C" 
			},
			{
				"x": 1.5947359785,
				"y": 0.8536725778,
				"z": 2.1080991499,
				"element": "O" 
			},
			{
				"x": 2.7674209416,
				"y": -0.0012893308,
				"z": 0.1204109633,
				"element": "C" 
			},
			{
				"x": 2.193047168,
				"y": -0.2726077353,
				"z": -1.278582881,
				"element": "C" 
			},
			{
				"x": 0.7129576841,
				"y": 0.0760906347,
				"z": -1.1768413052,
				"element": "C" 
			},
			{
				"x": -0.1344423328,
				"y": -0.0329968542,
				"z": -2.0412581943,
				"element": "O" 
			},
			{
				"x": -1.3584666256,
				"y": 0.2952737299,
				"z": 1.7985941778,
				"element": "C" 
			},
			{
				"x": -1.7807744855,
				"y": 0.9315063138,
				"z": 2.7469102677,
				"element": "O" 
			},
			{
				"x": -1.3718299591,
				"y": -1.2026580112,
				"z": 1.8134737086,
				"element": "C" 
			},
			{
				"x": -1.3533387621,
				"y": -1.9867994245,
				"z": 0.6495575836,
				"element": "C" 
			},
			{
				"x": -1.4169810245,
				"y": -3.3774809061,
				"z": 0.7316833554,
				"element": "C" 
			},
			{
				"x": -1.485784878,
				"y": -3.983147261,
				"z": 1.9856329524,
				"element": "C" 
			},
			{
				"x": -1.555252288,
				"y": -5.8866185238,
				"z": 2.1019222123,
				"element": "Br" 
			},
			{
				"x": -1.5080448642,
				"y": -3.2239472129,
				"z": 3.1572795278,
				"element": "C" 
			},
			{
				"x": -1.460368693,
				"y": -1.8374570091,
				"z": 3.0624391655,
				"element": "C" 
			},
			{
				"x": -1.8455443514,
				"y": 2.8942769723,
				"z": 1.0099183464,
				"element": "H" 
			},
			{
				"x": -0.5353345229,
				"y": 3.0501415147,
				"z": -0.1821162545,
				"element": "H" 
			},
			{
				"x": -0.1661335386,
				"y": 2.8288134696,
				"z": 1.5510506131,
				"element": "H" 
			},
			{
				"x": -1.5164028557,
				"y": 0.7804569436,
				"z": -0.2929374776,
				"element": "H" 
			},
			{
				"x": 3.1650031301,
				"y": -0.89566924,
				"z": 0.6082542021,
				"element": "H" 
			},
			{
				"x": 3.5627764028,
				"y": 0.7490513305,
				"z": 0.1307356062,
				"element": "H" 
			},
			{
				"x": 2.6433097749,
				"y": 0.3435804978,
				"z": -2.0623599064,
				"element": "H" 
			},
			{
				"x": 2.2871783297,
				"y": -1.3139909336,
				"z": -1.5984511044,
				"element": "H" 
			},
			{
				"x": -1.3120639999,
				"y": -1.528302409,
				"z": -0.3334238615,
				"element": "H" 
			},
			{
				"x": -1.4160475386,
				"y": -3.9830669238,
				"z": -0.1673029438,
				"element": "H" 
			},
			{
				"x": -1.5649760616,
				"y": -3.7127859084,
				"z": 4.1230705263,
				"element": "H" 
			},
			{
				"x": -1.4898302234,
				"y": -1.220969463,
				"z": 3.9545095876,
				"element": "H" 
			}
		],
		 "valence_orbital": [ 
			{
				"type": "occ",
				"energy": -0.29471,
				"method": "rhf"
			},
			{
				"type": "occ",
				"energy": -0.27386,
				"method": "rhf"
			},
			{
				"type": "occ",
				"energy": -0.27115,
				"method": "rhf"
			},
			{
				"type": "occ",
				"energy": -0.25928,
				"method": "rhf"
			},
			{
				"type": "occ",
				"energy": -0.25131,
				"method": "rhf"
			},
			{
				"type": "unocc",
				"energy": -0.06627,
				"method": "rhf"
			},
			{
				"type": "unocc",
				"energy": -0.03111,
				"method": "rhf"
			},
			{
				"type": "unocc",
				"energy": -0.02343,
				"method": "rhf"
			},
			{
				"type": "unocc",
				"energy": -0.00029,
				"method": "rhf"
			},
			{
				"type": "unocc",
				"energy": 0.01017,
				"method": "rhf"
			}
		],
		"cosmo_sigma_profile": { 
			"-0.025": 0.0,
			"-0.024": 0.0,
			"-0.023": 0.0,
			"-0.022": 0.0,
			"-0.021": 0.0,
			"-0.02": 0.0,
			"-0.019": 0.0,
			"-0.018": 0.0,
			"-0.017": 0.0,
			"-0.016": 0.0,
			"-0.015": 0.0,
			"-0.014": 0.0,
			"-0.013": 0.0,
			"-0.012": 0.0,
			"-0.011": 0.0,
			"-0.01": 0.0,
			"-0.009": 0.863727126775,
			"-0.008": 5.21035629244,
			"-0.007": 22.1240005423,
			"-0.006": 20.7601956219,
			"-0.005": 17.6550147063,
			"-0.004": 22.8774964754,
			"-0.003": 21.4519146011,
			"-0.002": 17.9079350319,
			"-0.001": 17.7148310072,
			"0.0": 19.2248349636,
			"0.001": 22.9853301739,
			"0.002": 23.7244673358,
			"0.003": 13.7037793175,
			"0.004": 14.2120973813,
			"0.005": 6.29905064819,
			"0.006": 4.60272382173,
			"0.007": 4.03211676763,
			"0.008": 5.1572703494,
			"0.009": 6.03901092975,
			"0.01": 6.80786613452,
			"0.011": 11.2874204635,
			"0.012": 5.90718473324,
			"0.013": 0.907145226767,
			"0.014": 0.0,
			"0.015": 0.0,
			"0.016": 0.0,
			"0.017": 0.0,
			"0.018": 0.0,
			"0.019": 0.0,
			"0.02": 0.0,
			"0.021": 0.0,
			"0.022": 0.0,
			"0.023": 0.0,
			"0.024": 0.0,
			"0.025": 0.0
		}
	}
}
