{
	 "smiles": "NC(CCCC(O)=O)C(O)=O", 
	 "Tm": 479.15, 
	 "num_atms": 22, 
	 "gaussian": { 
		 "optdone": 1, 
		 "sigma_profile": "yes", 
		 "theory": "DFT", 
		 "functional": "B3LYP", 
		 "basiset": "6-31G**", 
		 "properties": { 
			 "R2extent": 3002.5369, 
			 "electric_dipole_moment_norm": 5.99576697679, 
			 "electric_quadrupole_moment_norm": 22.7481290712, 
			 "total_energy": -590.948339242, 
			 "HOMO_LUMO_gap": 0.2506, 
			 "cosmo_polarized_energy": -21.45, 
			 "cosmo_cavitation_energy": 25.96, 
			 "cosmo_dispersion_energy": -18.48, 
			 "cosmo_repulsion_energy": 1.55, 
			 "cosmo_total_nonelectrostatic_energy": 9.02, 
			 "SMD_solvation_energy": 6.28 
		},
		"coords": [
			{
				"x": -2.2569666665,
				"y": -0.2217709773,
				"z": -0.4428411261,
				"element": "N" 
			},
			{
				"x": -1.611103947,
				"y": -0.9824296557,
				"z": -1.531418187,
				"element": "C" 
			},
			{
				"x": -0.1061098162,
				"y": -1.2288231974,
				"z": -1.3578966199,
				"element": "C" 
			},
			{
				"x": 0.2257356723,
				"y": -2.147060344,
				"z": -0.1761015112,
				"element": "C" 
			},
			{
				"x": 1.7321816254,
				"y": -2.296222979,
				"z": 0.0779008098,
				"element": "C" 
			},
			{
				"x": 2.4582125057,
				"y": -1.0363691786,
				"z": 0.5085810139,
				"element": "C" 
			},
			{
				"x": 1.6728674999,
				"y": -0.2013145519,
				"z": 1.2421851945,
				"element": "O" 
			},
			{
				"x": 3.6184341466,
				"y": -0.7858507112,
				"z": 0.2753438123,
				"element": "O" 
			},
			{
				"x": -1.9023520845,
				"y": -0.2764090435,
				"z": -2.8782954484,
				"element": "C" 
			},
			{
				"x": -2.8759613763,
				"y": 0.639855365,
				"z": -2.8015946602,
				"element": "O" 
			},
			{
				"x": -1.3239206081,
				"y": -0.552551065,
				"z": -3.9038400508,
				"element": "O" 
			},
			{
				"x": -1.5911776998,
				"y": 0.4098371533,
				"z": -0.0026465924,
				"element": "H" 
			},
			{
				"x": -2.6167059265,
				"y": -0.8314140743,
				"z": 0.2837962547,
				"element": "H" 
			},
			{
				"x": -2.1243083195,
				"y": -1.9512341003,
				"z": -1.6018734141,
				"element": "H" 
			},
			{
				"x": 0.3892110882,
				"y": -0.2565692171,
				"z": -1.2280379367,
				"element": "H" 
			},
			{
				"x": 0.2762235571,
				"y": -1.6474907739,
				"z": -2.2937544694,
				"element": "H" 
			},
			{
				"x": -0.1929035737,
				"y": -3.1442335852,
				"z": -0.3632707236,
				"element": "H" 
			},
			{
				"x": -0.2502984557,
				"y": -1.7719271477,
				"z": 0.7365601813,
				"element": "H" 
			},
			{
				"x": 1.9000616989,
				"y": -3.0322646161,
				"z": 0.8755705532,
				"element": "H" 
			},
			{
				"x": 2.2569270555,
				"y": -2.6712979679,
				"z": -0.8053284143,
				"element": "H" 
			},
			{
				"x": 2.2454009557,
				"y": 0.5444139409,
				"z": 1.4904250915,
				"element": "H" 
			},
			{
				"x": -3.1220473314,
				"y": 0.6557267268,
				"z": -1.844663757,
				"element": "H" 
			}
		],
		 "valence_orbital": [ 
			{
				"type": "occ",
				"energy": -0.32619,
				"method": "rhf"
			},
			{
				"type": "occ",
				"energy": -0.30015,
				"method": "rhf"
			},
			{
				"type": "occ",
				"energy": -0.29909,
				"method": "rhf"
			},
			{
				"type": "occ",
				"energy": -0.2813,
				"method": "rhf"
			},
			{
				"type": "occ",
				"energy": -0.25138,
				"method": "rhf"
			},
			{
				"type": "unocc",
				"energy": -0.00078,
				"method": "rhf"
			},
			{
				"type": "unocc",
				"energy": 0.01508,
				"method": "rhf"
			},
			{
				"type": "unocc",
				"energy": 0.05219,
				"method": "rhf"
			},
			{
				"type": "unocc",
				"energy": 0.06771,
				"method": "rhf"
			},
			{
				"type": "unocc",
				"energy": 0.09244,
				"method": "rhf"
			}
		],
		"cosmo_sigma_profile": { 
			"-0.025": 0.0,
			"-0.024": 0.0,
			"-0.023": 0.0,
			"-0.022": 0.0,
			"-0.021": 0.0,
			"-0.02": 0.0,
			"-0.019": 0.0,
			"-0.018": 0.321172929398,
			"-0.017": 1.27555253241,
			"-0.016": 0.461340757131,
			"-0.015": 0.812140651961,
			"-0.014": 0.817509468846,
			"-0.013": 0.748932257911,
			"-0.012": 1.59985047161,
			"-0.011": 2.80537573119,
			"-0.01": 3.94374669329,
			"-0.009": 4.83102922295,
			"-0.008": 5.09173213286,
			"-0.007": 9.48170231522,
			"-0.006": 10.4856296349,
			"-0.005": 12.1039115431,
			"-0.004": 16.5086191981,
			"-0.003": 19.3432316216,
			"-0.002": 15.7796924187,
			"-0.001": 9.04078958599,
			"0.0": 7.87011952332,
			"0.001": 4.98644795027,
			"0.002": 6.109371171,
			"0.003": 6.06742311418,
			"0.004": 5.89170501009,
			"0.005": 4.6730762,
			"0.006": 5.24469483934,
			"0.007": 4.14176803107,
			"0.008": 4.41453205423,
			"0.009": 5.57790848902,
			"0.01": 6.03065821168,
			"0.011": 8.55673501541,
			"0.012": 10.366951909,
			"0.013": 5.79208230958,
			"0.014": 0.976508521918,
			"0.015": 0.0,
			"0.016": 0.0,
			"0.017": 0.0,
			"0.018": 0.0,
			"0.019": 0.0,
			"0.02": 0.0,
			"0.021": 0.0,
			"0.022": 0.0,
			"0.023": 0.0,
			"0.024": 0.0,
			"0.025": 0.0
		}
	}
}
