{
	 "smiles": "CCCOC1=C(Cl)C=C(N)C=C1", 
	 "Tm": 323.15, 
	 "num_atms": 24, 
	 "gaussian": { 
		 "optdone": 1, 
		 "sigma_profile": "yes", 
		 "theory": "DFT", 
		 "functional": "B3LYP", 
		 "basiset": "6-31G**", 
		 "properties": { 
			 "R2extent": 3719.6811, 
			 "electric_dipole_moment_norm": 3.42999650583, 
			 "electric_quadrupole_moment_norm": 15.129121178, 
			 "total_energy": -940.354311467, 
			 "HOMO_LUMO_gap": 0.18373, 
			 "cosmo_polarized_energy": -11.36, 
			 "cosmo_cavitation_energy": 28.74, 
			 "cosmo_dispersion_energy": -20.88, 
			 "cosmo_repulsion_energy": 1.7, 
			 "cosmo_total_nonelectrostatic_energy": 9.56, 
			 "SMD_solvation_energy": 4.8 
		},
		"coords": [
			{
				"x": -2.3775541109,
				"y": -2.8161131901,
				"z": 0.4803517271,
				"element": "C" 
			},
			{
				"x": -1.7012315633,
				"y": -2.0433592477,
				"z": -0.6561117723,
				"element": "C" 
			},
			{
				"x": -0.2491592762,
				"y": -2.4685612652,
				"z": -0.8858084456,
				"element": "C" 
			},
			{
				"x": 0.577667785,
				"y": -2.2821762166,
				"z": 0.2647135752,
				"element": "O" 
			},
			{
				"x": 1.0734953635,
				"y": -1.0436997913,
				"z": 0.5513998237,
				"element": "C" 
			},
			{
				"x": 1.8253662213,
				"y": -0.9147461028,
				"z": 1.7334429616,
				"element": "C" 
			},
			{
				"x": 2.0529051382,
				"y": -2.3150553268,
				"z": 2.765412632,
				"element": "Cl" 
			},
			{
				"x": 2.3967525378,
				"y": 0.2950273618,
				"z": 2.1097165762,
				"element": "C" 
			},
			{
				"x": 2.2353071344,
				"y": 1.439979557,
				"z": 1.3134532273,
				"element": "C" 
			},
			{
				"x": 2.8616916221,
				"y": 2.6455203026,
				"z": 1.6616079107,
				"element": "N" 
			},
			{
				"x": 1.4845511257,
				"y": 1.3218630571,
				"z": 0.1372589367,
				"element": "C" 
			},
			{
				"x": 0.9150560983,
				"y": 0.1037998952,
				"z": -0.2345124284,
				"element": "C" 
			},
			{
				"x": -3.4063194406,
				"y": -2.4746903141,
				"z": 0.6309692713,
				"element": "H" 
			},
			{
				"x": -2.4090014592,
				"y": -3.8899695399,
				"z": 0.2633561494,
				"element": "H" 
			},
			{
				"x": -1.8328476419,
				"y": -2.683077088,
				"z": 1.4190357466,
				"element": "H" 
			},
			{
				"x": -1.7409387397,
				"y": -0.9673770666,
				"z": -0.4503520911,
				"element": "H" 
			},
			{
				"x": -2.2439292034,
				"y": -2.2000386102,
				"z": -1.5979458045,
				"element": "H" 
			},
			{
				"x": 0.1859032859,
				"y": -1.9605997568,
				"z": -1.7563054352,
				"element": "H" 
			},
			{
				"x": -0.2010421852,
				"y": -3.5453561492,
				"z": -1.0772612517,
				"element": "H" 
			},
			{
				"x": 2.97537137,
				"y": 0.3408930213,
				"z": 3.0268350764,
				"element": "H" 
			},
			{
				"x": 3.0354785828,
				"y": 2.7551852892,
				"z": 2.651975962,
				"element": "H" 
			},
			{
				"x": 2.4163580258,
				"y": 3.4696423111,
				"z": 1.2801914164,
				"element": "H" 
			},
			{
				"x": 1.3423502372,
				"y": 2.1901958232,
				"z": -0.5007470833,
				"element": "H" 
			},
			{
				"x": 0.3375690922,
				"y": 0.0600130468,
				"z": -1.1500766805,
				"element": "H" 
			}
		],
		 "valence_orbital": [ 
			{
				"type": "occ",
				"energy": -0.31789,
				"method": "rhf"
			},
			{
				"type": "occ",
				"energy": -0.29667,
				"method": "rhf"
			},
			{
				"type": "occ",
				"energy": -0.27576,
				"method": "rhf"
			},
			{
				"type": "occ",
				"energy": -0.24041,
				"method": "rhf"
			},
			{
				"type": "occ",
				"energy": -0.18989,
				"method": "rhf"
			},
			{
				"type": "unocc",
				"energy": -0.00616,
				"method": "rhf"
			},
			{
				"type": "unocc",
				"energy": 0.02342,
				"method": "rhf"
			},
			{
				"type": "unocc",
				"energy": 0.04062,
				"method": "rhf"
			},
			{
				"type": "unocc",
				"energy": 0.07996,
				"method": "rhf"
			},
			{
				"type": "unocc",
				"energy": 0.09278,
				"method": "rhf"
			}
		],
		"cosmo_sigma_profile": { 
			"-0.025": 0.0,
			"-0.024": 0.0,
			"-0.023": 0.0,
			"-0.022": 0.0,
			"-0.021": 0.0,
			"-0.02": 0.0,
			"-0.019": 0.0,
			"-0.018": 0.0,
			"-0.017": 0.0,
			"-0.016": 0.0,
			"-0.015": 0.0,
			"-0.014": 0.0,
			"-0.013": 0.187623359282,
			"-0.012": 2.61239416951,
			"-0.011": 2.59419867657,
			"-0.01": 3.5510200357,
			"-0.009": 3.32022146293,
			"-0.008": 3.43736614158,
			"-0.007": 5.60791845263,
			"-0.006": 7.17030594347,
			"-0.005": 10.0116760874,
			"-0.004": 13.0513021903,
			"-0.003": 18.5681703409,
			"-0.002": 17.4428291958,
			"-0.001": 17.895418789,
			"0.0": 18.4208526092,
			"0.001": 16.7508483554,
			"0.002": 13.186560146,
			"0.003": 16.9113117604,
			"0.004": 15.7264842357,
			"0.005": 19.3990326693,
			"0.006": 7.85464596934,
			"0.007": 2.87249918274,
			"0.008": 3.01576809354,
			"0.009": 1.78234621026,
			"0.01": 2.40032560201,
			"0.011": 2.33644291399,
			"0.012": 0.518448888181,
			"0.013": 0.584143716752,
			"0.014": 1.07032677125,
			"0.015": 0.349778584918,
			"0.016": 0.0349937070823,
			"0.017": 0.0,
			"0.018": 0.0,
			"0.019": 0.0,
			"0.02": 0.0,
			"0.021": 0.0,
			"0.022": 0.0,
			"0.023": 0.0,
			"0.024": 0.0,
			"0.025": 0.0
		}
	}
}
