{
	 "smiles": "FC1=CC=C(C=C1)C(=O)N1CCCCC1", 
	 "Tm": 334.15, 
	 "num_atms": 29, 
	 "gaussian": { 
		 "optdone": 1, 
		 "sigma_profile": "yes", 
		 "theory": "DFT", 
		 "functional": "B3LYP", 
		 "basiset": "6-31G**", 
		 "properties": { 
			 "R2extent": 5140.0683, 
			 "electric_dipole_moment_norm": 3.49858213281, 
			 "electric_quadrupole_moment_norm": 6.41945135896, 
			 "total_energy": -695.547531913, 
			 "HOMO_LUMO_gap": 0.20644, 
			 "cosmo_polarized_energy": -9.78, 
			 "cosmo_cavitation_energy": 31.31, 
			 "cosmo_dispersion_energy": -22.6, 
			 "cosmo_repulsion_energy": 1.74, 
			 "cosmo_total_nonelectrostatic_energy": 10.46, 
			 "SMD_solvation_energy": 5.31 
		},
		"coords": [
			{
				"x": -0.8469607854,
				"y": -5.9537970085,
				"z": 1.0803597631,
				"element": "F" 
			},
			{
				"x": -1.0348596542,
				"y": -4.6975186866,
				"z": 0.6293019488,
				"element": "C" 
			},
			{
				"x": -0.1903220158,
				"y": -3.6881893117,
				"z": 1.077784162,
				"element": "C" 
			},
			{
				"x": -0.3978525414,
				"y": -2.3889796737,
				"z": 0.6150536567,
				"element": "C" 
			},
			{
				"x": -1.43245333,
				"y": -2.1049132683,
				"z": -0.287974493,
				"element": "C" 
			},
			{
				"x": -2.2434557942,
				"y": -3.1540526615,
				"z": -0.7443516128,
				"element": "C" 
			},
			{
				"x": -2.061387362,
				"y": -4.452929063,
				"z": -0.2780219566,
				"element": "C" 
			},
			{
				"x": -1.6340778615,
				"y": -0.7473236488,
				"z": -0.9068933148,
				"element": "C" 
			},
			{
				"x": -1.8566231754,
				"y": -0.6616663869,
				"z": -2.1135048251,
				"element": "O" 
			},
			{
				"x": -1.5060397935,
				"y": 0.3692831925,
				"z": -0.1055792409,
				"element": "N" 
			},
			{
				"x": -1.792352728,
				"y": 0.403111091,
				"z": 1.33304341,
				"element": "C" 
			},
			{
				"x": -0.8170945136,
				"y": 1.3348512123,
				"z": 2.0622927155,
				"element": "C" 
			},
			{
				"x": -0.830524835,
				"y": 2.7368810216,
				"z": 1.4346847276,
				"element": "C" 
			},
			{
				"x": -0.5931179529,
				"y": 2.6559921174,
				"z": -0.0805922956,
				"element": "C" 
			},
			{
				"x": -1.5730965542,
				"y": 1.6854023068,
				"z": -0.7505051942,
				"element": "C" 
			},
			{
				"x": 0.6128278909,
				"y": -3.9272140093,
				"z": 1.7663568412,
				"element": "H" 
			},
			{
				"x": 0.2680686255,
				"y": -1.5957609053,
				"z": 0.9404540394,
				"element": "H" 
			},
			{
				"x": -3.0118942466,
				"y": -2.9367079138,
				"z": -1.4784451566,
				"element": "H" 
			},
			{
				"x": -2.6882596101,
				"y": -5.272800112,
				"z": -0.6115133153,
				"element": "H" 
			},
			{
				"x": -1.7557055979,
				"y": -0.6065483314,
				"z": 1.7392626533,
				"element": "H" 
			},
			{
				"x": -2.8208803136,
				"y": 0.7738566414,
				"z": 1.4793468417,
				"element": "H" 
			},
			{
				"x": 0.1945217333,
				"y": 0.9121494582,
				"z": 2.0039475049,
				"element": "H" 
			},
			{
				"x": -1.0879052533,
				"y": 1.3819285676,
				"z": 3.1235847223,
				"element": "H" 
			},
			{
				"x": -0.0786750471,
				"y": 3.3772609086,
				"z": 1.909449257,
				"element": "H" 
			},
			{
				"x": -1.8069937727,
				"y": 3.2050258553,
				"z": 1.6239612683,
				"element": "H" 
			},
			{
				"x": -0.6960558704,
				"y": 3.6456364341,
				"z": -0.540593821,
				"element": "H" 
			},
			{
				"x": 0.4313745474,
				"y": 2.3145770592,
				"z": -0.2763761912,
				"element": "H" 
			},
			{
				"x": -1.3538943318,
				"y": 1.5467749603,
				"z": -1.808756192,
				"element": "H" 
			},
			{
				"x": -2.6002098565,
				"y": 2.0784701543,
				"z": -0.6775759026,
				"element": "H" 
			}
		],
		 "valence_orbital": [ 
			{
				"type": "occ",
				"energy": -0.32589,
				"method": "rhf"
			},
			{
				"type": "occ",
				"energy": -0.26668,
				"method": "rhf"
			},
			{
				"type": "occ",
				"energy": -0.25948,
				"method": "rhf"
			},
			{
				"type": "occ",
				"energy": -0.24143,
				"method": "rhf"
			},
			{
				"type": "occ",
				"energy": -0.23332,
				"method": "rhf"
			},
			{
				"type": "unocc",
				"energy": -0.02688,
				"method": "rhf"
			},
			{
				"type": "unocc",
				"energy": -0.01612,
				"method": "rhf"
			},
			{
				"type": "unocc",
				"energy": 0.04705,
				"method": "rhf"
			},
			{
				"type": "unocc",
				"energy": 0.0766,
				"method": "rhf"
			},
			{
				"type": "unocc",
				"energy": 0.0931,
				"method": "rhf"
			}
		],
		"cosmo_sigma_profile": { 
			"-0.025": 0.0,
			"-0.024": 0.0,
			"-0.023": 0.0,
			"-0.022": 0.0,
			"-0.021": 0.0,
			"-0.02": 0.0,
			"-0.019": 0.0,
			"-0.018": 0.0,
			"-0.017": 0.0,
			"-0.016": 0.0,
			"-0.015": 0.0,
			"-0.014": 0.0,
			"-0.013": 0.0,
			"-0.012": 0.0,
			"-0.011": 0.0,
			"-0.01": 0.0,
			"-0.009": 0.0,
			"-0.008": 0.864183719326,
			"-0.007": 4.2291129594,
			"-0.006": 6.31907686172,
			"-0.005": 9.18142397734,
			"-0.004": 16.1206041769,
			"-0.003": 31.9556875477,
			"-0.002": 36.9945004967,
			"-0.001": 28.6062639591,
			"0.0": 27.1900023777,
			"0.001": 19.3020659442,
			"0.002": 13.8377093926,
			"0.003": 14.6585307937,
			"0.004": 13.7941371094,
			"0.005": 4.11153480081,
			"0.006": 1.40727022958,
			"0.007": 1.69033899612,
			"0.008": 1.67982939068,
			"0.009": 1.55797648663,
			"0.01": 1.7296316267,
			"0.011": 1.78963856461,
			"0.012": 1.59620663735,
			"0.013": 3.70453739487,
			"0.014": 3.98910462057,
			"0.015": 0.597668976465,
			"0.016": 0.0,
			"0.017": 0.0,
			"0.018": 0.0,
			"0.019": 0.0,
			"0.02": 0.0,
			"0.021": 0.0,
			"0.022": 0.0,
			"0.023": 0.0,
			"0.024": 0.0,
			"0.025": 0.0
		}
	}
}
