{
	 "smiles": "CC(Cl)C1=C(C)C=CC(=C1)[N+]([O-])=O", 
	 "Tm": 318.15, 
	 "num_atms": 23, 
	 "gaussian": { 
		 "optdone": 1, 
		 "sigma_profile": "yes", 
		 "theory": "DFT", 
		 "functional": "B3LYP", 
		 "basiset": "6-31G**", 
		 "properties": { 
			 "R2extent": 4187.761, 
			 "electric_dipole_moment_norm": 4.61113674163, 
			 "electric_quadrupole_moment_norm": 22.9902486007, 
			 "total_energy": -1014.29154222, 
			 "HOMO_LUMO_gap": 0.18236, 
			 "cosmo_polarized_energy": -10.21, 
			 "cosmo_cavitation_energy": 28.23, 
			 "cosmo_dispersion_energy": -20.44, 
			 "cosmo_repulsion_energy": 1.61, 
			 "cosmo_total_nonelectrostatic_energy": 9.41, 
			 "SMD_solvation_energy": 6.85 
		},
		"coords": [
			{
				"x": -1.4762128032,
				"y": 1.0547548473,
				"z": -1.9285214797,
				"element": "C" 
			},
			{
				"x": -2.1208395376,
				"y": 0.3663732956,
				"z": -0.7283509835,
				"element": "C" 
			},
			{
				"x": -2.9557421317,
				"y": 1.6330315715,
				"z": 0.3335313645,
				"element": "Cl" 
			},
			{
				"x": -1.2222077904,
				"y": -0.534180971,
				"z": 0.097257156,
				"element": "C" 
			},
			{
				"x": -0.034336749,
				"y": -0.1164040791,
				"z": 0.7485249115,
				"element": "C" 
			},
			{
				"x": 0.4789700445,
				"y": 1.3044940626,
				"z": 0.7174962342,
				"element": "C" 
			},
			{
				"x": 0.7110151473,
				"y": -1.070607082,
				"z": 1.4586407853,
				"element": "C" 
			},
			{
				"x": 0.3313748161,
				"y": -2.4058172231,
				"z": 1.5384483809,
				"element": "C" 
			},
			{
				"x": -0.8378145374,
				"y": -2.7894900605,
				"z": 0.8923615199,
				"element": "C" 
			},
			{
				"x": -1.6118630479,
				"y": -1.874470122,
				"z": 0.1865488956,
				"element": "C" 
			},
			{
				"x": -1.2725865707,
				"y": -4.1916341306,
				"z": 0.9594039644,
				"element": "N" 
			},
			{
				"x": -2.308655294,
				"y": -4.4985186534,
				"z": 0.36963274,
				"element": "O" 
			},
			{
				"x": -0.5717329015,
				"y": -4.9746318796,
				"z": 1.5999071941,
				"element": "O" 
			},
			{
				"x": -1.0201067207,
				"y": 0.2947161203,
				"z": -2.5725808217,
				"element": "H" 
			},
			{
				"x": -0.7057546255,
				"y": 1.7683801776,
				"z": -1.6359547494,
				"element": "H" 
			},
			{
				"x": -2.2346509659,
				"y": 1.5884337628,
				"z": -2.5062160641,
				"element": "H" 
			},
			{
				"x": -2.9593559793,
				"y": -0.2349105463,
				"z": -1.0809228939,
				"element": "H" 
			},
			{
				"x": 1.045839418,
				"y": 1.4981860278,
				"z": -0.2009936392,
				"element": "H" 
			},
			{
				"x": 1.1571562668,
				"y": 1.4810215767,
				"z": 1.5563329223,
				"element": "H" 
			},
			{
				"x": -0.3292838054,
				"y": 2.0356044431,
				"z": 0.7717747789,
				"element": "H" 
			},
			{
				"x": 1.6170579506,
				"y": -0.7502484444,
				"z": 1.9648447427,
				"element": "H" 
			},
			{
				"x": 0.911252227,
				"y": -3.1376750524,
				"z": 2.0864684749,
				"element": "H" 
			},
			{
				"x": -2.5203224102,
				"y": -2.2250076407,
				"z": -0.2889334337,
				"element": "H" 
			}
		],
		 "valence_orbital": [ 
			{
				"type": "occ",
				"energy": -0.30518,
				"method": "rhf"
			},
			{
				"type": "occ",
				"energy": -0.30225,
				"method": "rhf"
			},
			{
				"type": "occ",
				"energy": -0.29212,
				"method": "rhf"
			},
			{
				"type": "occ",
				"energy": -0.27932,
				"method": "rhf"
			},
			{
				"type": "occ",
				"energy": -0.27334,
				"method": "rhf"
			},
			{
				"type": "unocc",
				"energy": -0.09098,
				"method": "rhf"
			},
			{
				"type": "unocc",
				"energy": -0.04193,
				"method": "rhf"
			},
			{
				"type": "unocc",
				"energy": -0.01032,
				"method": "rhf"
			},
			{
				"type": "unocc",
				"energy": 0.0275,
				"method": "rhf"
			},
			{
				"type": "unocc",
				"energy": 0.07156,
				"method": "rhf"
			}
		],
		"cosmo_sigma_profile": { 
			"-0.025": 0.0,
			"-0.024": 0.0,
			"-0.023": 0.0,
			"-0.022": 0.0,
			"-0.021": 0.0,
			"-0.02": 0.0,
			"-0.019": 0.0,
			"-0.018": 0.0,
			"-0.017": 0.0,
			"-0.016": 0.0,
			"-0.015": 0.0,
			"-0.014": 0.0,
			"-0.013": 0.0,
			"-0.012": 0.0,
			"-0.011": 0.0,
			"-0.01": 0.5514367548,
			"-0.009": 1.88399990992,
			"-0.008": 3.11372424975,
			"-0.007": 5.84621412084,
			"-0.006": 10.7933860545,
			"-0.005": 16.4185231313,
			"-0.004": 18.0267718764,
			"-0.003": 15.9953937912,
			"-0.002": 21.1646933507,
			"-0.001": 21.9252987971,
			"0.0": 18.1816092572,
			"0.001": 17.0565143971,
			"0.002": 14.1663206035,
			"0.003": 7.89871938179,
			"0.004": 8.58302115669,
			"0.005": 7.66763227099,
			"0.006": 10.7876318335,
			"0.007": 10.6414097602,
			"0.008": 8.05457275894,
			"0.009": 4.55283467312,
			"0.01": 2.94421973967,
			"0.011": 0.212214670695,
			"0.012": 0.0,
			"0.013": 0.0,
			"0.014": 0.0,
			"0.015": 0.0,
			"0.016": 0.0,
			"0.017": 0.0,
			"0.018": 0.0,
			"0.019": 0.0,
			"0.02": 0.0,
			"0.021": 0.0,
			"0.022": 0.0,
			"0.023": 0.0,
			"0.024": 0.0,
			"0.025": 0.0
		}
	}
}
