{
	 "smiles": "CN(C)C(=O)C1=CC=C(C=C1)C(O)=O", 
	 "Tm": 452.15, 
	 "num_atms": 25, 
	 "gaussian": { 
		 "optdone": 1, 
		 "sigma_profile": "yes", 
		 "theory": "DFT", 
		 "functional": "B3LYP", 
		 "basiset": "6-31G**", 
		 "properties": { 
			 "R2extent": 4147.4073, 
			 "electric_dipole_moment_norm": 5.05072086835, 
			 "electric_quadrupole_moment_norm": 19.7615580335, 
			 "total_energy": -668.133122953, 
			 "HOMO_LUMO_gap": 0.18037, 
			 "cosmo_polarized_energy": -19.52, 
			 "cosmo_cavitation_energy": 29.2, 
			 "cosmo_dispersion_energy": -21.11, 
			 "cosmo_repulsion_energy": 1.66, 
			 "cosmo_total_nonelectrostatic_energy": 9.74, 
			 "SMD_solvation_energy": 6.78 
		},
		"coords": [
			{
				"x": -2.1232550636,
				"y": 1.7076280334,
				"z": -2.096399075,
				"element": "C" 
			},
			{
				"x": -2.7266254883,
				"y": 2.0112584443,
				"z": -0.805371702,
				"element": "N" 
			},
			{
				"x": -3.7104430948,
				"y": 3.0874240344,
				"z": -0.8230660074,
				"element": "C" 
			},
			{
				"x": -2.6964305223,
				"y": 1.1881718059,
				"z": 0.2963622859,
				"element": "C" 
			},
			{
				"x": -3.502515342,
				"y": 1.2955762632,
				"z": 1.2183273637,
				"element": "O" 
			},
			{
				"x": -1.6011427637,
				"y": 0.1550504265,
				"z": 0.4002422249,
				"element": "C" 
			},
			{
				"x": -1.9395079746,
				"y": -1.0915726727,
				"z": 0.9423032002,
				"element": "C" 
			},
			{
				"x": -0.9628172009,
				"y": -2.0625324149,
				"z": 1.1405871621,
				"element": "C" 
			},
			{
				"x": 0.3788619995,
				"y": -1.7942505993,
				"z": 0.8290884765,
				"element": "C" 
			},
			{
				"x": 0.7255094624,
				"y": -0.5284447307,
				"z": 0.3398499464,
				"element": "C" 
			},
			{
				"x": -0.2555401204,
				"y": 0.4329193427,
				"z": 0.1165000904,
				"element": "C" 
			},
			{
				"x": 1.4865070597,
				"y": -2.7856479607,
				"z": 1.0336471529,
				"element": "C" 
			},
			{
				"x": 1.12908614,
				"y": -4.0934076439,
				"z": 1.1352510785,
				"element": "O" 
			},
			{
				"x": 2.6511000663,
				"y": -2.4708946684,
				"z": 1.1050093267,
				"element": "O" 
			},
			{
				"x": -2.9067775465,
				"y": 1.5962736003,
				"z": -2.8577828629,
				"element": "H" 
			},
			{
				"x": -1.5575955846,
				"y": 0.7790940616,
				"z": -2.0544850411,
				"element": "H" 
			},
			{
				"x": -1.4531395512,
				"y": 2.5145537157,
				"z": -2.4184565329,
				"element": "H" 
			},
			{
				"x": -3.2624217822,
				"y": 3.9842256637,
				"z": -1.2646099939,
				"element": "H" 
			},
			{
				"x": -4.0282495055,
				"y": 3.2926525519,
				"z": 0.1974497827,
				"element": "H" 
			},
			{
				"x": -4.5921627967,
				"y": 2.8116389335,
				"z": -1.4174048233,
				"element": "H" 
			},
			{
				"x": -2.9709453562,
				"y": -1.276703916,
				"z": 1.2219770628,
				"element": "H" 
			},
			{
				"x": -1.2537613028,
				"y": -3.0108755344,
				"z": 1.5865158144,
				"element": "H" 
			},
			{
				"x": 1.7717240729,
				"y": -0.3198036093,
				"z": 0.1442480081,
				"element": "H" 
			},
			{
				"x": 0.0276073294,
				"y": 1.4119239411,
				"z": -0.2573502762,
				"element": "H" 
			},
			{
				"x": 0.1956348663,
				"y": -4.2056570679,
				"z": 0.9089673384,
				"element": "H" 
			}
		],
		 "valence_orbital": [ 
			{
				"type": "occ",
				"energy": -0.28267,
				"method": "rhf"
			},
			{
				"type": "occ",
				"energy": -0.27759,
				"method": "rhf"
			},
			{
				"type": "occ",
				"energy": -0.27407,
				"method": "rhf"
			},
			{
				"type": "occ",
				"energy": -0.25608,
				"method": "rhf"
			},
			{
				"type": "occ",
				"energy": -0.24624,
				"method": "rhf"
			},
			{
				"type": "unocc",
				"energy": -0.06587,
				"method": "rhf"
			},
			{
				"type": "unocc",
				"energy": -0.02747,
				"method": "rhf"
			},
			{
				"type": "unocc",
				"energy": 0.01415,
				"method": "rhf"
			},
			{
				"type": "unocc",
				"energy": 0.05287,
				"method": "rhf"
			},
			{
				"type": "unocc",
				"energy": 0.06418,
				"method": "rhf"
			}
		],
		"cosmo_sigma_profile": { 
			"-0.025": 0.0,
			"-0.024": 0.0,
			"-0.023": 0.0,
			"-0.022": 0.0,
			"-0.021": 0.0,
			"-0.02": 0.0,
			"-0.019": 0.306831008885,
			"-0.018": 1.00682532544,
			"-0.017": 0.791918005353,
			"-0.016": 1.22411669585,
			"-0.015": 1.19348440308,
			"-0.014": 0.816229952946,
			"-0.013": 1.0093649221,
			"-0.012": 0.968106032522,
			"-0.011": 1.5857516196,
			"-0.01": 0.732331619418,
			"-0.009": 1.21766625794,
			"-0.008": 2.2759550382,
			"-0.007": 4.36551321974,
			"-0.006": 8.37733964584,
			"-0.005": 18.3993933272,
			"-0.004": 23.4124703421,
			"-0.003": 25.2061245519,
			"-0.002": 23.9522683593,
			"-0.001": 14.5099714347,
			"0.0": 11.625659305,
			"0.001": 11.6791341123,
			"0.002": 16.690012567,
			"0.003": 6.949442044,
			"0.004": 4.05635896657,
			"0.005": 3.83027938942,
			"0.006": 4.71854740974,
			"0.007": 3.79142919548,
			"0.008": 4.017021408,
			"0.009": 5.48318592695,
			"0.01": 6.3275919846,
			"0.011": 6.76071155496,
			"0.012": 6.31798408614,
			"0.013": 5.24463026,
			"0.014": 3.1602346005,
			"0.015": 0.250219505229,
			"0.016": 0.0,
			"0.017": 0.0,
			"0.018": 0.0,
			"0.019": 0.0,
			"0.02": 0.0,
			"0.021": 0.0,
			"0.022": 0.0,
			"0.023": 0.0,
			"0.024": 0.0,
			"0.025": 0.0
		}
	}
}
