{
	 "smiles": "IC1=CC=C(C=C1)N=[N+]=[N-]", 
	 "Tm": 307.15, 
	 "num_atms": 14, 
	 "gaussian": { 
		 "optdone": 1, 
		 "sigma_profile": "yes", 
		 "theory": "DFT", 
		 "functional": "B3LYP", 
		 "basiset": "6-31G**", 
		 "properties": { 
			 "R2extent": 1946.6387, 
			 "electric_dipole_moment_norm": 0.122435370706, 
			 "electric_quadrupole_moment_norm": 6.74458099143, 
			 "total_energy": -406.618700576, 
			 "HOMO_LUMO_gap": 0.18144, 
			 "cosmo_polarized_energy": -5.25, 
			 "cosmo_cavitation_energy": 23.16, 
			 "cosmo_dispersion_energy": -18.16, 
			 "cosmo_repulsion_energy": 1.44, 
			 "cosmo_total_nonelectrostatic_energy": 6.45, 
			 "SMD_solvation_energy": 1.24 
		},
		"coords": [
			{
				"x": 1.5485522301,
				"y": -0.2504425324,
				"z": -4.3763942046,
				"element": "I" 
			},
			{
				"x": 0.8824926582,
				"y": 0.1512963516,
				"z": -2.4063570942,
				"element": "C" 
			},
			{
				"x": 1.1417734678,
				"y": 1.395662913,
				"z": -1.8280082388,
				"element": "C" 
			},
			{
				"x": 0.7040853521,
				"y": 1.6608486952,
				"z": -0.5316591858,
				"element": "C" 
			},
			{
				"x": 0.0063355824,
				"y": 0.6811321611,
				"z": 0.1875378412,
				"element": "C" 
			},
			{
				"x": -0.2492381846,
				"y": -0.5634880681,
				"z": -0.4003711143,
				"element": "C" 
			},
			{
				"x": 0.1871672734,
				"y": -0.8302757275,
				"z": -1.6951445504,
				"element": "C" 
			},
			{
				"x": -0.4773423108,
				"y": 0.8572527903,
				"z": 1.5083110571,
				"element": "N" 
			},
			{
				"x": -0.2748009666,
				"y": 1.9417206028,
				"z": 2.0706713267,
				"element": "N" 
			},
			{
				"x": -0.1600187291,
				"y": 2.8835013083,
				"z": 2.7043852048,
				"element": "N" 
			},
			{
				"x": 1.6810073443,
				"y": 2.1586775827,
				"z": -2.3779668709,
				"element": "H" 
			},
			{
				"x": 0.907972946,
				"y": 2.6302816119,
				"z": -0.0863101376,
				"element": "H" 
			},
			{
				"x": -0.7905495486,
				"y": -1.3132343335,
				"z": 0.1666763255,
				"element": "H" 
			},
			{
				"x": -0.0151371146,
				"y": -1.7968333555,
				"z": -2.1423703588,
				"element": "H" 
			}
		],
		 "valence_orbital": [ 
			{
				"type": "occ",
				"energy": -0.32542,
				"method": "rhf"
			},
			{
				"type": "occ",
				"energy": -0.27955,
				"method": "rhf"
			},
			{
				"type": "occ",
				"energy": -0.2763,
				"method": "rhf"
			},
			{
				"type": "occ",
				"energy": -0.27361,
				"method": "rhf"
			},
			{
				"type": "occ",
				"energy": -0.23026,
				"method": "rhf"
			},
			{
				"type": "unocc",
				"energy": -0.04882,
				"method": "rhf"
			},
			{
				"type": "unocc",
				"energy": -0.04625,
				"method": "rhf"
			},
			{
				"type": "unocc",
				"energy": -0.04127,
				"method": "rhf"
			},
			{
				"type": "unocc",
				"energy": -0.02628,
				"method": "rhf"
			},
			{
				"type": "unocc",
				"energy": 0.02249,
				"method": "rhf"
			}
		],
		"cosmo_sigma_profile": { 
			"-0.025": 0.0,
			"-0.024": 0.0,
			"-0.023": 0.0,
			"-0.022": 0.0,
			"-0.021": 0.0,
			"-0.02": 0.0,
			"-0.019": 0.0,
			"-0.018": 0.0,
			"-0.017": 0.0,
			"-0.016": 0.0,
			"-0.015": 0.0,
			"-0.014": 0.0,
			"-0.013": 0.0,
			"-0.012": 0.0,
			"-0.011": 0.0,
			"-0.01": 0.0,
			"-0.009": 0.0,
			"-0.008": 2.37340466547,
			"-0.007": 10.3828827743,
			"-0.006": 12.0110815259,
			"-0.005": 10.3516276141,
			"-0.004": 12.6750976389,
			"-0.003": 11.0657635257,
			"-0.002": 9.41046790851,
			"-0.001": 10.8786257163,
			"0.0": 13.4237947654,
			"0.001": 15.724389477,
			"0.002": 21.0641784988,
			"0.003": 25.4241279357,
			"0.004": 18.8278187883,
			"0.005": 9.13880037716,
			"0.006": 5.23528539658,
			"0.007": 3.06987858837,
			"0.008": 1.13101691832,
			"0.009": 0.726534290427,
			"0.01": 0.0,
			"0.011": 0.0,
			"0.012": 0.0,
			"0.013": 0.0,
			"0.014": 0.0,
			"0.015": 0.0,
			"0.016": 0.0,
			"0.017": 0.0,
			"0.018": 0.0,
			"0.019": 0.0,
			"0.02": 0.0,
			"0.021": 0.0,
			"0.022": 0.0,
			"0.023": 0.0,
			"0.024": 0.0,
			"0.025": 0.0
		}
	}
}
