{
	 "smiles": "OC(=O)C1=CC(Cl)=C(S)C=C1", 
	 "Tm": 493.15, 
	 "num_atms": 16, 
	 "gaussian": { 
		 "optdone": 1, 
		 "sigma_profile": "yes", 
		 "theory": "DFT", 
		 "functional": "B3LYP", 
		 "basiset": "6-31G**", 
		 "properties": { 
			 "R2extent": 3077.0687, 
			 "electric_dipole_moment_norm": 3.55085201184, 
			 "electric_quadrupole_moment_norm": 16.9930232507, 
			 "total_energy": -1278.58819811, 
			 "HOMO_LUMO_gap": 0.18134, 
			 "cosmo_polarized_energy": -14.13, 
			 "cosmo_cavitation_energy": 24.15, 
			 "cosmo_dispersion_energy": -18.6, 
			 "cosmo_repulsion_energy": 1.43, 
			 "cosmo_total_nonelectrostatic_energy": 6.99, 
			 "SMD_solvation_energy": 4.49 
		},
		"coords": [
			{
				"x": 1.3427805463,
				"y": 3.9944778696,
				"z": -2.0253421988,
				"element": "O" 
			},
			{
				"x": 1.8988332079,
				"y": 3.1815819255,
				"z": -1.0874607192,
				"element": "C" 
			},
			{
				"x": 2.9926991106,
				"y": 3.4331329707,
				"z": -0.6403790907,
				"element": "O" 
			},
			{
				"x": 1.0959846073,
				"y": 1.9928914596,
				"z": -0.6556885232,
				"element": "C" 
			},
			{
				"x": -0.2895455074,
				"y": 1.9065388895,
				"z": -0.8200234583,
				"element": "C" 
			},
			{
				"x": -0.9847505152,
				"y": 0.7802715127,
				"z": -0.3821323264,
				"element": "C" 
			},
			{
				"x": -2.7275342343,
				"y": 0.759844087,
				"z": -0.6181799003,
				"element": "Cl" 
			},
			{
				"x": -0.3171234767,
				"y": -0.2933931452,
				"z": 0.2324782929,
				"element": "C" 
			},
			{
				"x": -1.0782007187,
				"y": -1.7812371009,
				"z": 0.8226398142,
				"element": "S" 
			},
			{
				"x": 1.0764025449,
				"y": -0.1823284733,
				"z": 0.4031020621,
				"element": "C" 
			},
			{
				"x": 1.7696960551,
				"y": 0.9391233737,
				"z": -0.0218210051,
				"element": "C" 
			},
			{
				"x": 0.5665871836,
				"y": 3.5751554285,
				"z": -2.421284422,
				"element": "H" 
			},
			{
				"x": -0.8623037061,
				"y": 2.7219734126,
				"z": -1.2506804709,
				"element": "H" 
			},
			{
				"x": -2.3419993729,
				"y": -1.4638182847,
				"z": 0.4873105743,
				"element": "H" 
			},
			{
				"x": 1.6114837106,
				"y": -0.9965310414,
				"z": 0.8825638218,
				"element": "H" 
			},
			{
				"x": 2.8406905651,
				"y": 1.0214171161,
				"z": 0.1255975496,
				"element": "H" 
			}
		],
		 "valence_orbital": [ 
			{
				"type": "occ",
				"energy": -0.33169,
				"method": "rhf"
			},
			{
				"type": "occ",
				"energy": -0.31801,
				"method": "rhf"
			},
			{
				"type": "occ",
				"energy": -0.28238,
				"method": "rhf"
			},
			{
				"type": "occ",
				"energy": -0.2766,
				"method": "rhf"
			},
			{
				"type": "occ",
				"energy": -0.24533,
				"method": "rhf"
			},
			{
				"type": "unocc",
				"energy": -0.06399,
				"method": "rhf"
			},
			{
				"type": "unocc",
				"energy": -0.03931,
				"method": "rhf"
			},
			{
				"type": "unocc",
				"energy": -0.01299,
				"method": "rhf"
			},
			{
				"type": "unocc",
				"energy": 0.02187,
				"method": "rhf"
			},
			{
				"type": "unocc",
				"energy": 0.03411,
				"method": "rhf"
			}
		],
		"cosmo_sigma_profile": { 
			"-0.025": 0.0,
			"-0.024": 0.0,
			"-0.023": 0.0,
			"-0.022": 0.0,
			"-0.021": 0.0,
			"-0.02": 0.0663576026344,
			"-0.019": 0.76530935025,
			"-0.018": 1.04610372822,
			"-0.017": 1.13031074332,
			"-0.016": 0.546805955666,
			"-0.015": 1.36812492396,
			"-0.014": 1.0523967153,
			"-0.013": 0.759264674379,
			"-0.012": 1.39890824866,
			"-0.011": 1.67993761911,
			"-0.01": 2.58457719491,
			"-0.009": 2.20189252993,
			"-0.008": 4.37501983735,
			"-0.007": 6.80203713882,
			"-0.006": 7.28194794134,
			"-0.005": 7.5819137322,
			"-0.004": 7.72462772742,
			"-0.003": 9.85366488806,
			"-0.002": 11.0510239168,
			"-0.001": 14.4737510329,
			"0.0": 17.4865819722,
			"0.001": 21.9446715663,
			"0.002": 17.748615372,
			"0.003": 13.0873015035,
			"0.004": 8.63152766687,
			"0.005": 5.24842271329,
			"0.006": 4.19861353953,
			"0.007": 4.6152606803,
			"0.008": 3.68223158992,
			"0.009": 2.82121248558,
			"0.01": 5.38853245076,
			"0.011": 5.16378308699,
			"0.012": 4.04032019856,
			"0.013": 1.18306007851,
			"0.014": 0.00710609450313,
			"0.015": 0.0,
			"0.016": 0.0,
			"0.017": 0.0,
			"0.018": 0.0,
			"0.019": 0.0,
			"0.02": 0.0,
			"0.021": 0.0,
			"0.022": 0.0,
			"0.023": 0.0,
			"0.024": 0.0,
			"0.025": 0.0
		}
	}
}
