{
	 "smiles": "NC1=C(C=CN=C1Cl)C(O)=O", 
	 "Tm": 523.15, 
	 "num_atms": 16, 
	 "gaussian": { 
		 "optdone": 1, 
		 "sigma_profile": "yes", 
		 "theory": "DFT", 
		 "functional": "B3LYP", 
		 "basiset": "6-31G**", 
		 "properties": { 
			 "R2extent": 2335.7939, 
			 "electric_dipole_moment_norm": 2.96097616843, 
			 "electric_quadrupole_moment_norm": 17.6972122581, 
			 "total_energy": -951.804248893, 
			 "HOMO_LUMO_gap": 0.19223, 
			 "cosmo_polarized_energy": -15.75, 
			 "cosmo_cavitation_energy": 22.23, 
			 "cosmo_dispersion_energy": -17.07, 
			 "cosmo_repulsion_energy": 1.36, 
			 "cosmo_total_nonelectrostatic_energy": 6.52, 
			 "SMD_solvation_energy": 3.8 
		},
		"coords": [
			{
				"x": -1.2256062806,
				"y": 0.8727327381,
				"z": 0.4707991069,
				"element": "N" 
			},
			{
				"x": -0.8887458584,
				"y": -0.4735317496,
				"z": 0.1354262082,
				"element": "C" 
			},
			{
				"x": 0.457917598,
				"y": -0.8696644136,
				"z": 0.0576655218,
				"element": "C" 
			},
			{
				"x": 0.7481332466,
				"y": -2.2014210764,
				"z": -0.2571400484,
				"element": "C" 
			},
			{
				"x": -0.2958594203,
				"y": -3.0782570995,
				"z": -0.5206063005,
				"element": "C" 
			},
			{
				"x": -1.5839842643,
				"y": -2.703201489,
				"z": -0.4878105408,
				"element": "N" 
			},
			{
				"x": -1.8508460583,
				"y": -1.457730231,
				"z": -0.1665268345,
				"element": "C" 
			},
			{
				"x": -3.5616159262,
				"y": -1.0029465395,
				"z": -0.1290036625,
				"element": "Cl" 
			},
			{
				"x": 1.6401708697,
				"y": 0.0658125221,
				"z": 0.2498187661,
				"element": "C" 
			},
			{
				"x": 1.3820102623,
				"y": 1.3784615243,
				"z": 0.2494970855,
				"element": "O" 
			},
			{
				"x": 2.76436609,
				"y": -0.3691208607,
				"z": 0.3634825064,
				"element": "O" 
			},
			{
				"x": -2.1560806919,
				"y": 1.1098048902,
				"z": 0.1374647177,
				"element": "H" 
			},
			{
				"x": -1.2143122403,
				"y": 1.0192596406,
				"z": 1.4793816943,
				"element": "H" 
			},
			{
				"x": 1.7851355065,
				"y": -2.512536903,
				"z": -0.3022865712,
				"element": "H" 
			},
			{
				"x": -0.108003026,
				"y": -4.1182641399,
				"z": -0.7732875913,
				"element": "H" 
			},
			{
				"x": 0.406420193,
				"y": 1.520603187,
				"z": 0.1574259424,
				"element": "H" 
			}
		],
		 "valence_orbital": [ 
			{
				"type": "occ",
				"energy": -0.31697,
				"method": "rhf"
			},
			{
				"type": "occ",
				"energy": -0.30351,
				"method": "rhf"
			},
			{
				"type": "occ",
				"energy": -0.28988,
				"method": "rhf"
			},
			{
				"type": "occ",
				"energy": -0.27933,
				"method": "rhf"
			},
			{
				"type": "occ",
				"energy": -0.26926,
				"method": "rhf"
			},
			{
				"type": "unocc",
				"energy": -0.07703,
				"method": "rhf"
			},
			{
				"type": "unocc",
				"energy": -0.04048,
				"method": "rhf"
			},
			{
				"type": "unocc",
				"energy": 0.01141,
				"method": "rhf"
			},
			{
				"type": "unocc",
				"energy": 0.0358,
				"method": "rhf"
			},
			{
				"type": "unocc",
				"energy": 0.05333,
				"method": "rhf"
			}
		],
		"cosmo_sigma_profile": { 
			"-0.025": 0.0,
			"-0.024": 0.0,
			"-0.023": 0.0,
			"-0.022": 0.0,
			"-0.021": 0.0,
			"-0.02": 0.0,
			"-0.019": 0.0,
			"-0.018": 0.0,
			"-0.017": 0.0,
			"-0.016": 0.0,
			"-0.015": 0.801580104409,
			"-0.014": 2.00693827205,
			"-0.013": 2.22996750548,
			"-0.012": 3.69885893361,
			"-0.011": 2.71472858066,
			"-0.01": 2.14349056867,
			"-0.009": 2.63836872316,
			"-0.008": 4.45417581136,
			"-0.007": 7.33389779911,
			"-0.006": 8.23188571806,
			"-0.005": 7.87423995381,
			"-0.004": 8.27969948906,
			"-0.003": 9.25430818593,
			"-0.002": 13.6435941185,
			"-0.001": 12.6312489074,
			"0.0": 15.6746438765,
			"0.001": 9.4127617693,
			"0.002": 8.55389100729,
			"0.003": 8.35199203231,
			"0.004": 8.98152113219,
			"0.005": 6.0751048731,
			"0.006": 3.54181869358,
			"0.007": 4.23072605006,
			"0.008": 3.99719632839,
			"0.009": 4.23915384203,
			"0.01": 5.15339094108,
			"0.011": 7.55169720183,
			"0.012": 4.64646970807,
			"0.013": 2.26709434606,
			"0.014": 0.287894776944,
			"0.015": 0.0,
			"0.016": 0.0,
			"0.017": 0.0,
			"0.018": 0.0,
			"0.019": 0.0,
			"0.02": 0.0,
			"0.021": 0.0,
			"0.022": 0.0,
			"0.023": 0.0,
			"0.024": 0.0,
			"0.025": 0.0
		}
	}
}
