{
	 "smiles": "FC1=CC2=C(NCCC2=O)C=C1", 
	 "Tm": 323.15, 
	 "num_atms": 20, 
	 "gaussian": { 
		 "optdone": 1, 
		 "sigma_profile": "yes", 
		 "theory": "DFT", 
		 "functional": "B3LYP", 
		 "basiset": "6-31G**", 
		 "properties": { 
			 "R2extent": 2840.0715, 
			 "electric_dipole_moment_norm": 5.01638186246, 
			 "electric_quadrupole_moment_norm": 14.4461771161, 
			 "total_energy": -577.5949705, 
			 "HOMO_LUMO_gap": 0.15328, 
			 "cosmo_polarized_energy": -11.9, 
			 "cosmo_cavitation_energy": 23.82, 
			 "cosmo_dispersion_energy": -17.86, 
			 "cosmo_repulsion_energy": 1.39, 
			 "cosmo_total_nonelectrostatic_energy": 7.34, 
			 "SMD_solvation_energy": 3.78 
		},
		"coords": [
			{
				"x": 2.1335361131,
				"y": -2.8446393505,
				"z": -2.3200696933,
				"element": "F" 
			},
			{
				"x": 1.3051530348,
				"y": -1.9180016805,
				"z": -1.7873490983,
				"element": "C" 
			},
			{
				"x": 0.8624313781,
				"y": -0.8637940608,
				"z": -2.5578872232,
				"element": "C" 
			},
			{
				"x": 0.0021929544,
				"y": 0.0939786459,
				"z": -1.9943114203,
				"element": "C" 
			},
			{
				"x": -0.4135102967,
				"y": -0.0280586484,
				"z": -0.6450956454,
				"element": "C" 
			},
			{
				"x": -1.2518894662,
				"y": 0.922500608,
				"z": -0.076762134,
				"element": "N" 
			},
			{
				"x": -2.0973975209,
				"y": 1.7030440967,
				"z": -0.9766176338,
				"element": "C" 
			},
			{
				"x": -1.2317800564,
				"y": 2.3170764124,
				"z": -2.0760370559,
				"element": "C" 
			},
			{
				"x": -0.4214541751,
				"y": 1.2553340738,
				"z": -2.8129610808,
				"element": "C" 
			},
			{
				"x": -0.1084074735,
				"y": 1.3860603201,
				"z": -3.9874981059,
				"element": "O" 
			},
			{
				"x": 0.0635908505,
				"y": -1.1161745642,
				"z": 0.1132822533,
				"element": "C" 
			},
			{
				"x": 0.9169790329,
				"y": -2.053527025,
				"z": -0.4514839409,
				"element": "C" 
			},
			{
				"x": 1.1683029389,
				"y": -0.7495625128,
				"z": -3.5918230589,
				"element": "H" 
			},
			{
				"x": -1.7078907936,
				"y": 0.6163622958,
				"z": 0.7724867646,
				"element": "H" 
			},
			{
				"x": -2.8811566883,
				"y": 1.0755666662,
				"z": -1.4355783507,
				"element": "H" 
			},
			{
				"x": -2.5960556643,
				"y": 2.4846237859,
				"z": -0.3962058987,
				"element": "H" 
			},
			{
				"x": -1.831731011,
				"y": 2.8695178362,
				"z": -2.8032060305,
				"element": "H" 
			},
			{
				"x": -0.5172544417,
				"y": 3.0204555778,
				"z": -1.6258129005,
				"element": "H" 
			},
			{
				"x": -0.2448649421,
				"y": -1.2225053703,
				"z": 1.1500521058,
				"element": "H" 
			},
			{
				"x": 1.2842062273,
				"y": -2.8956571064,
				"z": 0.1257781475,
				"element": "H" 
			}
		],
		 "valence_orbital": [ 
			{
				"type": "occ",
				"energy": -0.34424,
				"method": "rhf"
			},
			{
				"type": "occ",
				"energy": -0.30065,
				"method": "rhf"
			},
			{
				"type": "occ",
				"energy": -0.26371,
				"method": "rhf"
			},
			{
				"type": "occ",
				"energy": -0.24374,
				"method": "rhf"
			},
			{
				"type": "occ",
				"energy": -0.20945,
				"method": "rhf"
			},
			{
				"type": "unocc",
				"energy": -0.05617,
				"method": "rhf"
			},
			{
				"type": "unocc",
				"energy": 0.0043,
				"method": "rhf"
			},
			{
				"type": "unocc",
				"energy": 0.04214,
				"method": "rhf"
			},
			{
				"type": "unocc",
				"energy": 0.06987,
				"method": "rhf"
			},
			{
				"type": "unocc",
				"energy": 0.09589,
				"method": "rhf"
			}
		],
		"cosmo_sigma_profile": { 
			"-0.025": 0.0,
			"-0.024": 0.0,
			"-0.023": 0.0,
			"-0.022": 0.0,
			"-0.021": 0.0,
			"-0.02": 0.0,
			"-0.019": 0.0,
			"-0.018": 0.0,
			"-0.017": 0.0,
			"-0.016": 0.0,
			"-0.015": 0.0,
			"-0.014": 0.26002594114,
			"-0.013": 1.80118102111,
			"-0.012": 0.966096747181,
			"-0.011": 1.68342525137,
			"-0.01": 1.41352020394,
			"-0.009": 2.144934016,
			"-0.008": 2.42643776436,
			"-0.007": 4.64051473888,
			"-0.006": 9.0213388716,
			"-0.005": 14.3778279096,
			"-0.004": 16.5922722786,
			"-0.003": 15.6588953784,
			"-0.002": 11.4572189069,
			"-0.001": 8.14980580177,
			"0.0": 8.91835754632,
			"0.001": 13.1643293707,
			"0.002": 15.5379774923,
			"0.003": 17.3210189604,
			"0.004": 12.5055655355,
			"0.005": 10.1336503966,
			"0.006": 2.63325454539,
			"0.007": 1.82221633822,
			"0.008": 2.41489369146,
			"0.009": 1.81463417246,
			"0.01": 2.39964774155,
			"0.011": 2.52722924529,
			"0.012": 4.30894281384,
			"0.013": 2.94775302972,
			"0.014": 0.63168883243,
			"0.015": 0.0,
			"0.016": 0.0,
			"0.017": 0.0,
			"0.018": 0.0,
			"0.019": 0.0,
			"0.02": 0.0,
			"0.021": 0.0,
			"0.022": 0.0,
			"0.023": 0.0,
			"0.024": 0.0,
			"0.025": 0.0
		}
	}
}
