{
	 "smiles": "CC1=CC=C(I)C=C1N", 
	 "Tm": 320.65, 
	 "num_atms": 17, 
	 "gaussian": { 
		 "optdone": 1, 
		 "sigma_profile": "no", 
		 "theory": "DFT", 
		 "functional": "B3LYP", 
		 "basiset": "6-31G**", 
		 "properties": { 
			 "R2extent": 1675.8002, 
			 "electric_dipole_moment_norm": 3.38467617653, 
			 "electric_quadrupole_moment_norm": 7.33686964243, 
			 "total_energy": -337.714025207, 
			 "HOMO_LUMO_gap": 0.17717, 
			 "cosmo_polarized_energy": -101283.42, 
			 "cosmo_cavitation_energy": 23.4, 
			 "cosmo_dispersion_energy": -18.89, 
			 "cosmo_repulsion_energy": 1.51, 
			 "cosmo_total_nonelectrostatic_energy": 6.02, 
			 "SMD_solvation_energy": 3.04 
		},
		"coords": [
			{
				"x": -2.208463904,
				"y": 1.4640567068,
				"z": 0.8834066101,
				"element": "C" 
			},
			{
				"x": -0.8829644512,
				"y": 0.7932396429,
				"z": 1.1420438839,
				"element": "C" 
			},
			{
				"x": -0.726589716,
				"y": -0.134778289,
				"z": 2.1721627445,
				"element": "C" 
			},
			{
				"x": 0.4938866654,
				"y": -0.7584192616,
				"z": 2.4433721271,
				"element": "C" 
			},
			{
				"x": 1.5859451927,
				"y": -0.4294950607,
				"z": 1.643609834,
				"element": "C" 
			},
			{
				"x": 3.4670904369,
				"y": -1.3493610377,
				"z": 2.0094903084,
				"element": "I" 
			},
			{
				"x": 1.4752618059,
				"y": 0.4859487189,
				"z": 0.6008391944,
				"element": "C" 
			},
			{
				"x": 0.2411743689,
				"y": 1.105798266,
				"z": 0.3421484169,
				"element": "C" 
			},
			{
				"x": 0.1432373633,
				"y": 2.0691871324,
				"z": -0.6631071513,
				"element": "N" 
			},
			{
				"x": -2.1206429951,
				"y": 2.5567125404,
				"z": 0.9290546925,
				"element": "H" 
			},
			{
				"x": -2.9549809605,
				"y": 1.1554914791,
				"z": 1.6192452761,
				"element": "H" 
			},
			{
				"x": -2.6110394284,
				"y": 1.2148767902,
				"z": -0.1090661045,
				"element": "H" 
			},
			{
				"x": -1.5882049759,
				"y": -0.3787303309,
				"z": 2.7890006473,
				"element": "H" 
			},
			{
				"x": 0.5828470847,
				"y": -1.4726530096,
				"z": 3.2528360086,
				"element": "H" 
			},
			{
				"x": 2.3355678468,
				"y": 0.729895589,
				"z": -0.0141000649,
				"element": "H" 
			},
			{
				"x": 0.8859456161,
				"y": 2.0504057431,
				"z": -1.3482527009,
				"element": "H" 
			},
			{
				"x": -0.7655699496,
				"y": 2.1619243806,
				"z": -1.0944837223,
				"element": "H" 
			}
		],
		 "valence_orbital": [ 
			{
				"type": "occ",
				"energy": -0.3234,
				"method": "rhf"
			},
			{
				"type": "occ",
				"energy": -0.27671,
				"method": "rhf"
			},
			{
				"type": "occ",
				"energy": -0.26047,
				"method": "rhf"
			},
			{
				"type": "occ",
				"energy": -0.23334,
				"method": "rhf"
			},
			{
				"type": "occ",
				"energy": -0.20813,
				"method": "rhf"
			},
			{
				"type": "unocc",
				"energy": -0.03096,
				"method": "rhf"
			},
			{
				"type": "unocc",
				"energy": -0.00605,
				"method": "rhf"
			},
			{
				"type": "unocc",
				"energy": 0.00789,
				"method": "rhf"
			},
			{
				"type": "unocc",
				"energy": 0.04602,
				"method": "rhf"
			},
			{
				"type": "unocc",
				"energy": 0.05547,
				"method": "rhf"
			}
		],
		"cosmo_sigma_profile": { 
			"0.0": 0.0,
			"0.0": 0.0,
			"0.0": 0.0,
			"0.0": 0.0,
			"0.0": 0.0,
			"0.0": 0.0,
			"0.0": 0.0,
			"0.0": 0.0,
			"0.0": 0.0,
			"0.0": 0.0,
			"0.0": 0.0,
			"0.0": 0.0,
			"0.0": 0.0,
			"0.0": 0.0,
			"0.0": 0.0,
			"0.0": 0.0,
			"0.0": 0.0,
			"0.0": 0.0,
			"0.0": 0.0,
			"0.0": 0.0,
			"0.0": 0.0,
			"0.0": 0.0,
			"0.0": 0.0,
			"0.0": 0.0,
			"0.0": 0.0,
			"0.0": 0.0,
			"0.0": 0.0,
			"0.0": 0.0,
			"0.0": 0.0,
			"0.0": 0.0,
			"0.0": 0.0,
			"0.0": 0.0,
			"0.0": 0.0,
			"0.0": 0.0,
			"0.0": 0.0,
			"0.0": 0.0,
			"0.0": 0.0,
			"0.0": 0.0,
			"0.0": 0.0,
			"0.0": 0.0,
			"0.0": 0.0,
			"0.0": 0.0,
			"0.0": 0.0,
			"0.0": 0.0,
			"0.0": 0.0,
			"0.0": 0.0,
			"0.0": 0.0,
			"0.0": 0.0,
			"0.0": 0.0,
			"0.0": 0.0,
			"0.0": 0.0
		}
	}
}
