{
	 "smiles": "CC1=CC(C)=C2C(CC2(C)O)=C1", 
	 "Tm": 331.15, 
	 "num_atms": 26, 
	 "gaussian": { 
		 "optdone": 1, 
		 "sigma_profile": "yes", 
		 "theory": "DFT", 
		 "functional": "B3LYP", 
		 "basiset": "6-31G**", 
		 "properties": { 
			 "R2extent": 2589.6846, 
			 "electric_dipole_moment_norm": 1.4023210688, 
			 "electric_quadrupole_moment_norm": 7.15735625773, 
			 "total_energy": -502.807998359, 
			 "HOMO_LUMO_gap": 0.22531, 
			 "cosmo_polarized_energy": -7.94, 
			 "cosmo_cavitation_energy": 28.53, 
			 "cosmo_dispersion_energy": -20.06, 
			 "cosmo_repulsion_energy": 1.61, 
			 "cosmo_total_nonelectrostatic_energy": 10.09, 
			 "SMD_solvation_energy": 4.71 
		},
		"coords": [
			{
				"x": 1.7937702361,
				"y": 3.3049669442,
				"z": -2.8243012032,
				"element": "C" 
			},
			{
				"x": 1.1745073677,
				"y": 2.4397699712,
				"z": -1.7486559979,
				"element": "C" 
			},
			{
				"x": -0.0971381138,
				"y": 2.7603844509,
				"z": -1.2369286567,
				"element": "C" 
			},
			{
				"x": -0.7572180393,
				"y": 1.9944194582,
				"z": -0.2589234677,
				"element": "C" 
			},
			{
				"x": -2.1221888737,
				"y": 2.3594901908,
				"z": 0.2689541308,
				"element": "C" 
			},
			{
				"x": -0.0443728245,
				"y": 0.8800492399,
				"z": 0.1735974784,
				"element": "C" 
			},
			{
				"x": 1.2234337021,
				"y": 0.5577233477,
				"z": -0.2971530332,
				"element": "C" 
			},
			{
				"x": 1.3706290012,
				"y": -0.6483780524,
				"z": 0.6183454548,
				"element": "C" 
			},
			{
				"x": -0.1097304661,
				"y": -0.3181048986,
				"z": 1.1145708958,
				"element": "C" 
			},
			{
				"x": -1.1483522902,
				"y": -1.3876502085,
				"z": 0.7795191678,
				"element": "C" 
			},
			{
				"x": -0.2192024749,
				"y": 0.0896619,
				"z": 2.4717984984,
				"element": "O" 
			},
			{
				"x": 1.8656265516,
				"y": 1.3097318473,
				"z": -1.2694114012,
				"element": "C" 
			},
			{
				"x": 1.3575098684,
				"y": 4.3080577376,
				"z": -2.8341883489,
				"element": "H" 
			},
			{
				"x": 2.874465804,
				"y": 3.40799642,
				"z": -2.6823813187,
				"element": "H" 
			},
			{
				"x": 1.6397577834,
				"y": 2.8719550344,
				"z": -3.8210015599,
				"element": "H" 
			},
			{
				"x": -0.5912368883,
				"y": 3.6534085391,
				"z": -1.6161283676,
				"element": "H" 
			},
			{
				"x": -2.908192986,
				"y": 1.7675950757,
				"z": -0.2172906793,
				"element": "H" 
			},
			{
				"x": -2.186775414,
				"y": 2.1655453532,
				"z": 1.3436704758,
				"element": "H" 
			},
			{
				"x": -2.350695532,
				"y": 3.4146240777,
				"z": 0.0917811369,
				"element": "H" 
			},
			{
				"x": 2.1084769612,
				"y": -0.5319121686,
				"z": 1.4187254051,
				"element": "H" 
			},
			{
				"x": 1.5099250844,
				"y": -1.6232289054,
				"z": 0.135844406,
				"element": "H" 
			},
			{
				"x": -2.1576852684,
				"y": -1.0144650264,
				"z": 0.9790158171,
				"element": "H" 
			},
			{
				"x": -1.088669376,
				"y": -1.6855179983,
				"z": -0.271327549,
				"element": "H" 
			},
			{
				"x": -0.9889107091,
				"y": -2.2856263155,
				"z": 1.3915059626,
				"element": "H" 
			},
			{
				"x": -0.245037671,
				"y": -0.7074040333,
				"z": 3.0190657824,
				"element": "H" 
			},
			{
				"x": 2.8572045673,
				"y": 1.0699080191,
				"z": -1.6459030286,
				"element": "H" 
			}
		],
		 "valence_orbital": [ 
			{
				"type": "occ",
				"energy": -0.30861,
				"method": "rhf"
			},
			{
				"type": "occ",
				"energy": -0.30111,
				"method": "rhf"
			},
			{
				"type": "occ",
				"energy": -0.25784,
				"method": "rhf"
			},
			{
				"type": "occ",
				"energy": -0.23059,
				"method": "rhf"
			},
			{
				"type": "occ",
				"energy": -0.22356,
				"method": "rhf"
			},
			{
				"type": "unocc",
				"energy": 0.00175,
				"method": "rhf"
			},
			{
				"type": "unocc",
				"energy": 0.01343,
				"method": "rhf"
			},
			{
				"type": "unocc",
				"energy": 0.07495,
				"method": "rhf"
			},
			{
				"type": "unocc",
				"energy": 0.11062,
				"method": "rhf"
			},
			{
				"type": "unocc",
				"energy": 0.11584,
				"method": "rhf"
			}
		],
		"cosmo_sigma_profile": { 
			"-0.025": 0.0,
			"-0.024": 0.0,
			"-0.023": 0.0,
			"-0.022": 0.0,
			"-0.021": 0.0,
			"-0.02": 0.0,
			"-0.019": 0.0,
			"-0.018": 0.0,
			"-0.017": 0.0,
			"-0.016": 0.0,
			"-0.015": 0.771548708078,
			"-0.014": 0.879873991364,
			"-0.013": 0.857547710555,
			"-0.012": 1.15858276605,
			"-0.011": 1.25020375462,
			"-0.01": 0.513532529846,
			"-0.009": 0.927066179386,
			"-0.008": 0.705578675687,
			"-0.007": 0.647617714599,
			"-0.006": 1.90957550592,
			"-0.005": 3.38950588746,
			"-0.004": 16.3717074351,
			"-0.003": 25.9504758775,
			"-0.002": 25.7561723573,
			"-0.001": 28.1166788351,
			"0.0": 35.2888998598,
			"0.001": 21.0234133628,
			"0.002": 9.48225095802,
			"0.003": 7.92913390431,
			"0.004": 7.88265223446,
			"0.005": 8.03323355144,
			"0.006": 8.48421439904,
			"0.007": 6.36795500269,
			"0.008": 1.47685155194,
			"0.009": 1.72647105601,
			"0.01": 1.17996734865,
			"0.011": 1.17568294978,
			"0.012": 1.69447266732,
			"0.013": 1.23426098633,
			"0.014": 1.01976547565,
			"0.015": 0.255377727131,
			"0.016": 0.0,
			"0.017": 0.0,
			"0.018": 0.0,
			"0.019": 0.0,
			"0.02": 0.0,
			"0.021": 0.0,
			"0.022": 0.0,
			"0.023": 0.0,
			"0.024": 0.0,
			"0.025": 0.0
		}
	}
}
