{
	 "smiles": "NS(=O)(=O)C1=CC2=C(OCO2)C=C1", 
	 "Tm": 429.15, 
	 "num_atms": 20, 
	 "gaussian": { 
		 "optdone": 1, 
		 "sigma_profile": "yes", 
		 "theory": "DFT", 
		 "functional": "B3LYP", 
		 "basiset": "6-31G**", 
		 "properties": { 
			 "R2extent": 3098.8452, 
			 "electric_dipole_moment_norm": 4.22441072459, 
			 "electric_quadrupole_moment_norm": 18.7703074834, 
			 "total_energy": -1024.69993335, 
			 "HOMO_LUMO_gap": 0.19541, 
			 "cosmo_polarized_energy": -16.62, 
			 "cosmo_cavitation_energy": 25.77, 
			 "cosmo_dispersion_energy": -20.19, 
			 "cosmo_repulsion_energy": 1.55, 
			 "cosmo_total_nonelectrostatic_energy": 7.13, 
			 "SMD_solvation_energy": 4.8 
		},
		"coords": [
			{
				"x": -2.1229829348,
				"y": 2.6043082115,
				"z": -0.1010289808,
				"element": "N" 
			},
			{
				"x": -1.3285502905,
				"y": 2.0543297028,
				"z": -1.4979686704,
				"element": "S" 
			},
			{
				"x": -2.3715066348,
				"y": 1.415973153,
				"z": -2.3064276743,
				"element": "O" 
			},
			{
				"x": -0.4900808007,
				"y": 3.1359171392,
				"z": -2.0268466847,
				"element": "O" 
			},
			{
				"x": -0.2400134483,
				"y": 0.7844841948,
				"z": -0.8685112399,
				"element": "C" 
			},
			{
				"x": -0.7965890772,
				"y": -0.4679384362,
				"z": -0.5373277891,
				"element": "C" 
			},
			{
				"x": 0.0886188449,
				"y": -1.4076974907,
				"z": -0.0596070677,
				"element": "C" 
			},
			{
				"x": 1.4532825644,
				"y": -1.1393838798,
				"z": 0.0811957176,
				"element": "C" 
			},
			{
				"x": 2.0910952697,
				"y": -2.2431512931,
				"z": 0.5739679277,
				"element": "O" 
			},
			{
				"x": 1.0929100323,
				"y": -3.2692933223,
				"z": 0.683641884,
				"element": "C" 
			},
			{
				"x": -0.1725379037,
				"y": -2.692333376,
				"z": 0.3421708141,
				"element": "O" 
			},
			{
				"x": 2.0009775474,
				"y": 0.0843472225,
				"z": -0.2509419544,
				"element": "C" 
			},
			{
				"x": 1.1181126374,
				"y": 1.0640362563,
				"z": -0.7386159514,
				"element": "C" 
			},
			{
				"x": -3.1093254815,
				"y": 2.7153419854,
				"z": -0.324454455,
				"element": "H" 
			},
			{
				"x": -1.7186140424,
				"y": 3.4865194439,
				"z": 0.20371632,
				"element": "H" 
			},
			{
				"x": -1.8513988023,
				"y": -0.676245628,
				"z": -0.6657682434,
				"element": "H" 
			},
			{
				"x": 1.3283800225,
				"y": -4.0819722356,
				"z": -0.0151852872,
				"element": "H" 
			},
			{
				"x": 1.0619375131,
				"y": -3.6370364412,
				"z": 1.714850898,
				"element": "H" 
			},
			{
				"x": 3.0624128315,
				"y": 0.2754627119,
				"z": -0.1454543112,
				"element": "H" 
			},
			{
				"x": 1.4880721529,
				"y": 2.0390320814,
				"z": -1.0330052521,
				"element": "H" 
			}
		],
		 "valence_orbital": [ 
			{
				"type": "occ",
				"energy": -0.31336,
				"method": "rhf"
			},
			{
				"type": "occ",
				"energy": -0.30212,
				"method": "rhf"
			},
			{
				"type": "occ",
				"energy": -0.28962,
				"method": "rhf"
			},
			{
				"type": "occ",
				"energy": -0.26346,
				"method": "rhf"
			},
			{
				"type": "occ",
				"energy": -0.22626,
				"method": "rhf"
			},
			{
				"type": "unocc",
				"energy": -0.03085,
				"method": "rhf"
			},
			{
				"type": "unocc",
				"energy": -0.0133,
				"method": "rhf"
			},
			{
				"type": "unocc",
				"energy": 0.05435,
				"method": "rhf"
			},
			{
				"type": "unocc",
				"energy": 0.08154,
				"method": "rhf"
			},
			{
				"type": "unocc",
				"energy": 0.08947,
				"method": "rhf"
			}
		],
		"cosmo_sigma_profile": { 
			"-0.025": 0.0,
			"-0.024": 0.0,
			"-0.023": 0.0,
			"-0.022": 0.0,
			"-0.021": 0.0,
			"-0.02": 0.0,
			"-0.019": 0.0,
			"-0.018": 0.0,
			"-0.017": 0.0,
			"-0.016": 0.0,
			"-0.015": 0.940400510157,
			"-0.014": 2.52514245462,
			"-0.013": 2.14466304536,
			"-0.012": 3.1607813872,
			"-0.011": 2.37732583733,
			"-0.01": 1.17092225126,
			"-0.009": 2.39823453351,
			"-0.008": 11.8923948924,
			"-0.007": 11.8714794981,
			"-0.006": 11.7750053254,
			"-0.005": 9.07011701792,
			"-0.004": 7.42843675873,
			"-0.003": 8.78656019813,
			"-0.002": 9.6880614392,
			"-0.001": 10.0890730601,
			"0.0": 11.6685589428,
			"0.001": 16.7348935652,
			"0.002": 14.5489492693,
			"0.003": 9.13913257281,
			"0.004": 5.80101816334,
			"0.005": 6.65564102324,
			"0.006": 4.91124047513,
			"0.007": 6.23023018282,
			"0.008": 7.56242732289,
			"0.009": 6.21265800874,
			"0.01": 7.05682920399,
			"0.011": 9.8979004992,
			"0.012": 4.52408611166,
			"0.013": 0.0193385544525,
			"0.014": 0.0,
			"0.015": 0.0,
			"0.016": 0.0,
			"0.017": 0.0,
			"0.018": 0.0,
			"0.019": 0.0,
			"0.02": 0.0,
			"0.021": 0.0,
			"0.022": 0.0,
			"0.023": 0.0,
			"0.024": 0.0,
			"0.025": 0.0
		}
	}
}
