{
	 "smiles": "BrC1(C(=O)C2=CC=CC=C2C1=O)C1=CC=CC=C1", 
	 "Tm": 379.15, 
	 "num_atms": 27, 
	 "gaussian": { 
		 "optdone": 1, 
		 "sigma_profile": "yes", 
		 "theory": "DFT", 
		 "functional": "B3LYP", 
		 "basiset": "6-31G**", 
		 "properties": { 
			 "R2extent": 6673.4294, 
			 "electric_dipole_moment_norm": 3.91923492279, 
			 "electric_quadrupole_moment_norm": 21.7007264519, 
			 "total_energy": -3298.86679579, 
			 "HOMO_LUMO_gap": 0.15684, 
			 "cosmo_polarized_energy": -11.19, 
			 "cosmo_cavitation_energy": 33.77, 
			 "cosmo_dispersion_energy": -24.28, 
			 "cosmo_repulsion_energy": 1.85, 
			 "cosmo_total_nonelectrostatic_energy": 11.34, 
			 "SMD_solvation_energy": 5.4 
		},
		"coords": [
			{
				"x": -2.0108146282,
				"y": 3.2373717081,
				"z": 0.9207345787,
				"element": "Br" 
			},
			{
				"x": -1.191514712,
				"y": 1.6301569737,
				"z": -0.0260109156,
				"element": "C" 
			},
			{
				"x": -0.5018638139,
				"y": 0.8380656251,
				"z": 1.1243230398,
				"element": "C" 
			},
			{
				"x": -1.0446942124,
				"y": 0.1544509306,
				"z": 1.9667631915,
				"element": "O" 
			},
			{
				"x": 0.9600973394,
				"y": 1.0575793107,
				"z": 1.0026855667,
				"element": "C" 
			},
			{
				"x": 1.9756267116,
				"y": 0.5639452906,
				"z": 1.821831024,
				"element": "C" 
			},
			{
				"x": 3.2900218681,
				"y": 0.9022713905,
				"z": 1.500997386,
				"element": "C" 
			},
			{
				"x": 3.5790455636,
				"y": 1.7125918005,
				"z": 0.3877244673,
				"element": "C" 
			},
			{
				"x": 2.5599739363,
				"y": 2.2018694949,
				"z": -0.4290128139,
				"element": "C" 
			},
			{
				"x": 1.2469764342,
				"y": 1.8614423823,
				"z": -0.1030917855,
				"element": "C" 
			},
			{
				"x": 0.0006315007,
				"y": 2.2404288834,
				"z": -0.8128155494,
				"element": "C" 
			},
			{
				"x": -0.0577574949,
				"y": 2.9056350766,
				"z": -1.8266973254,
				"element": "O" 
			},
			{
				"x": -2.2431929527,
				"y": 0.886060354,
				"z": -0.8072369057,
				"element": "C" 
			},
			{
				"x": -2.3373965858,
				"y": 1.0016447049,
				"z": -2.2040045037,
				"element": "C" 
			},
			{
				"x": -3.3119656905,
				"y": 0.2909156577,
				"z": -2.9052216423,
				"element": "C" 
			},
			{
				"x": -4.207432655,
				"y": -0.5366321777,
				"z": -2.2288729679,
				"element": "C" 
			},
			{
				"x": -4.1272689879,
				"y": -0.6472057014,
				"z": -0.8386543038,
				"element": "C" 
			},
			{
				"x": -3.1576592894,
				"y": 0.0576126123,
				"z": -0.1307883933,
				"element": "C" 
			},
			{
				"x": 1.7359521923,
				"y": -0.06032406,
				"z": 2.6764226297,
				"element": "H" 
			},
			{
				"x": 4.1061775895,
				"y": 0.5369979643,
				"z": 2.1173155841,
				"element": "H" 
			},
			{
				"x": 4.6131257988,
				"y": 1.9581985948,
				"z": 0.1647081804,
				"element": "H" 
			},
			{
				"x": 2.7660912835,
				"y": 2.8270525347,
				"z": -1.2916627318,
				"element": "H" 
			},
			{
				"x": -1.661551228,
				"y": 1.6563559953,
				"z": -2.7384595408,
				"element": "H" 
			},
			{
				"x": -3.3699680232,
				"y": 0.3908396462,
				"z": -3.9852237876,
				"element": "H" 
			},
			{
				"x": -4.9656236498,
				"y": -1.0873265957,
				"z": -2.778385637,
				"element": "H" 
			},
			{
				"x": -4.8239898527,
				"y": -1.2837752469,
				"z": -0.3009837432,
				"element": "H" 
			},
			{
				"x": -3.0990264414,
				"y": -0.0313231497,
				"z": 0.9466168985,
				"element": "H" 
			}
		],
		 "valence_orbital": [ 
			{
				"type": "occ",
				"energy": -0.28389,
				"method": "rhf"
			},
			{
				"type": "occ",
				"energy": -0.2734,
				"method": "rhf"
			},
			{
				"type": "occ",
				"energy": -0.25511,
				"method": "rhf"
			},
			{
				"type": "occ",
				"energy": -0.25201,
				"method": "rhf"
			},
			{
				"type": "occ",
				"energy": -0.24719,
				"method": "rhf"
			},
			{
				"type": "unocc",
				"energy": -0.09035,
				"method": "rhf"
			},
			{
				"type": "unocc",
				"energy": -0.08988,
				"method": "rhf"
			},
			{
				"type": "unocc",
				"energy": -0.03805,
				"method": "rhf"
			},
			{
				"type": "unocc",
				"energy": -0.00317,
				"method": "rhf"
			},
			{
				"type": "unocc",
				"energy": 0.0078,
				"method": "rhf"
			}
		],
		"cosmo_sigma_profile": { 
			"-0.025": 0.0,
			"-0.024": 0.0,
			"-0.023": 0.0,
			"-0.022": 0.0,
			"-0.021": 0.0,
			"-0.02": 0.0,
			"-0.019": 0.0,
			"-0.018": 0.0,
			"-0.017": 0.0,
			"-0.016": 0.0,
			"-0.015": 0.0,
			"-0.014": 0.0,
			"-0.013": 0.0,
			"-0.012": 0.0,
			"-0.011": 0.0,
			"-0.01": 0.090724665437,
			"-0.009": 0.607164035419,
			"-0.008": 5.68995369913,
			"-0.007": 10.0888305096,
			"-0.006": 16.9320171235,
			"-0.005": 15.9673485507,
			"-0.004": 18.4221053374,
			"-0.003": 17.3621763089,
			"-0.002": 19.395985492,
			"-0.001": 21.2740958691,
			"0.0": 24.825999486,
			"0.001": 23.8763333978,
			"0.002": 18.0103811857,
			"0.003": 20.6943979911,
			"0.004": 25.6532697568,
			"0.005": 12.5635436644,
			"0.006": 4.21658204805,
			"0.007": 3.77509406793,
			"0.008": 3.57899933877,
			"0.009": 5.21916651477,
			"0.01": 6.29128545556,
			"0.011": 1.23507168999,
			"0.012": 0.0,
			"0.013": 0.0,
			"0.014": 0.0,
			"0.015": 0.0,
			"0.016": 0.0,
			"0.017": 0.0,
			"0.018": 0.0,
			"0.019": 0.0,
			"0.02": 0.0,
			"0.021": 0.0,
			"0.022": 0.0,
			"0.023": 0.0,
			"0.024": 0.0,
			"0.025": 0.0
		}
	}
}
