{
	 "smiles": "COC(=O)C1CCN(CC1)C(=O)C1=CC(Cl)=C(Cl)C=C1", 
	 "Tm": 377.15, 
	 "num_atms": 35, 
	 "gaussian": { 
		 "optdone": 1, 
		 "sigma_profile": "yes", 
		 "theory": "DFT", 
		 "functional": "B3LYP", 
		 "basiset": "6-31G**", 
		 "properties": { 
			 "R2extent": 12048.2825, 
			 "electric_dipole_moment_norm": 6.34037703926, 
			 "electric_quadrupole_moment_norm": 11.5413475496, 
			 "total_energy": -1743.35697724, 
			 "HOMO_LUMO_gap": 0.19597, 
			 "cosmo_polarized_energy": -16.5, 
			 "cosmo_cavitation_energy": 41.58, 
			 "cosmo_dispersion_energy": -29.72, 
			 "cosmo_repulsion_energy": 2.3, 
			 "cosmo_total_nonelectrostatic_energy": 14.16, 
			 "SMD_solvation_energy": 7.23 
		},
		"coords": [
			{
				"x": -2.7628369,
				"y": -4.6118188356,
				"z": -2.6350593964,
				"element": "C" 
			},
			{
				"x": -1.6778118803,
				"y": -4.1202032101,
				"z": -1.8284462724,
				"element": "O" 
			},
			{
				"x": -1.7452645846,
				"y": -2.8110679961,
				"z": -1.5007032767,
				"element": "C" 
			},
			{
				"x": -2.6576115968,
				"y": -2.08615305,
				"z": -1.8379399777,
				"element": "O" 
			},
			{
				"x": -0.5148242312,
				"y": -2.3897620176,
				"z": -0.7066323745,
				"element": "C" 
			},
			{
				"x": 0.6843831299,
				"y": -2.1696529479,
				"z": -1.6755898236,
				"element": "C" 
			},
			{
				"x": 0.7244606155,
				"y": -0.7389495094,
				"z": -2.2070611483,
				"element": "C" 
			},
			{
				"x": 0.9148311382,
				"y": 0.2092973894,
				"z": -1.0941281243,
				"element": "N" 
			},
			{
				"x": 0.4447113454,
				"y": -0.2167074928,
				"z": 0.2332650178,
				"element": "C" 
			},
			{
				"x": -0.7965295255,
				"y": -1.1067105034,
				"z": 0.1062367447,
				"element": "C" 
			},
			{
				"x": 1.2096223652,
				"y": 1.49988246,
				"z": -1.4552192754,
				"element": "C" 
			},
			{
				"x": 1.257858328,
				"y": 1.8385692772,
				"z": -2.6372376693,
				"element": "O" 
			},
			{
				"x": 1.5215686285,
				"y": 2.5113689267,
				"z": -0.3808442463,
				"element": "C" 
			},
			{
				"x": 1.086133182,
				"y": 3.8222261921,
				"z": -0.6010327855,
				"element": "C" 
			},
			{
				"x": 1.3949868599,
				"y": 4.8367097141,
				"z": 0.3022953673,
				"element": "C" 
			},
			{
				"x": 0.8002859992,
				"y": 6.4492325279,
				"z": -0.0066915755,
				"element": "Cl" 
			},
			{
				"x": 2.1792789668,
				"y": 4.5510396102,
				"z": 1.430441662,
				"element": "C" 
			},
			{
				"x": 2.6014459695,
				"y": 5.7880492452,
				"z": 2.5866033943,
				"element": "Cl" 
			},
			{
				"x": 2.6441666235,
				"y": 3.2505116227,
				"z": 1.6359471759,
				"element": "C" 
			},
			{
				"x": 2.3141127222,
				"y": 2.2365580603,
				"z": 0.7406625727,
				"element": "C" 
			},
			{
				"x": -3.7149652042,
				"y": -4.4887709408,
				"z": -2.113299822,
				"element": "H" 
			},
			{
				"x": -2.8104352854,
				"y": -4.0745654734,
				"z": -3.5854888551,
				"element": "H" 
			},
			{
				"x": -2.5505775118,
				"y": -5.6676829902,
				"z": -2.8016645132,
				"element": "H" 
			},
			{
				"x": -0.2635545258,
				"y": -3.2252994956,
				"z": -0.0456333963,
				"element": "H" 
			},
			{
				"x": 0.6343077367,
				"y": -2.8741101587,
				"z": -2.510904909,
				"element": "H" 
			},
			{
				"x": 1.6178019928,
				"y": -2.3847501791,
				"z": -1.1436881665,
				"element": "H" 
			},
			{
				"x": -0.1987597907,
				"y": -0.5015039596,
				"z": -2.7524626099,
				"element": "H" 
			},
			{
				"x": 1.5466236484,
				"y": -0.6006442319,
				"z": -2.912919743,
				"element": "H" 
			},
			{
				"x": 1.2391801363,
				"y": -0.7547093266,
				"z": 0.771437441,
				"element": "H" 
			},
			{
				"x": 0.2018918776,
				"y": 0.6676110425,
				"z": 0.8232800859,
				"element": "H" 
			},
			{
				"x": -1.5922821389,
				"y": -0.5440013061,
				"z": -0.3906065688,
				"element": "H" 
			},
			{
				"x": -1.1599565085,
				"y": -1.3602222222,
				"z": 1.1076315549,
				"element": "H" 
			},
			{
				"x": 0.5137724668,
				"y": 4.0471878307,
				"z": -1.4932943328,
				"element": "H" 
			},
			{
				"x": 3.2677178762,
				"y": 3.045324434,
				"z": 2.4990034263,
				"element": "H" 
			},
			{
				"x": 2.6992680749,
				"y": 1.236517514,
				"z": 0.9085444195,
				"element": "H" 
			}
		],
		 "valence_orbital": [ 
			{
				"type": "occ",
				"energy": -0.28016,
				"method": "rhf"
			},
			{
				"type": "occ",
				"energy": -0.27058,
				"method": "rhf"
			},
			{
				"type": "occ",
				"energy": -0.25721,
				"method": "rhf"
			},
			{
				"type": "occ",
				"energy": -0.24836,
				"method": "rhf"
			},
			{
				"type": "occ",
				"energy": -0.241,
				"method": "rhf"
			},
			{
				"type": "unocc",
				"energy": -0.04503,
				"method": "rhf"
			},
			{
				"type": "unocc",
				"energy": -0.02722,
				"method": "rhf"
			},
			{
				"type": "unocc",
				"energy": -0.00082,
				"method": "rhf"
			},
			{
				"type": "unocc",
				"energy": 0.00138,
				"method": "rhf"
			},
			{
				"type": "unocc",
				"energy": 0.04001,
				"method": "rhf"
			}
		],
		"cosmo_sigma_profile": { 
			"-0.025": 0.0,
			"-0.024": 0.0,
			"-0.023": 0.0,
			"-0.022": 0.0,
			"-0.021": 0.0,
			"-0.02": 0.0,
			"-0.019": 0.0,
			"-0.018": 0.0,
			"-0.017": 0.0,
			"-0.016": 0.0,
			"-0.015": 0.0,
			"-0.014": 0.0,
			"-0.013": 0.0,
			"-0.012": 0.0,
			"-0.011": 0.0,
			"-0.01": 0.0,
			"-0.009": 0.129278369184,
			"-0.008": 2.42476263396,
			"-0.007": 6.31768762574,
			"-0.006": 11.0000602008,
			"-0.005": 28.926030558,
			"-0.004": 36.5093539594,
			"-0.003": 38.5672412003,
			"-0.002": 25.8047177727,
			"-0.001": 25.1276125389,
			"0.0": 28.387213258,
			"0.001": 26.0627060238,
			"0.002": 20.9723751716,
			"0.003": 18.0787717064,
			"0.004": 20.1324225455,
			"0.005": 8.62567490799,
			"0.006": 3.97074714467,
			"0.007": 3.28971249222,
			"0.008": 4.71378631608,
			"0.009": 3.07267355773,
			"0.01": 3.13708586602,
			"0.011": 4.4562710105,
			"0.012": 5.94307922444,
			"0.013": 3.33693755631,
			"0.014": 4.17839670467,
			"0.015": 0.222661033113,
			"0.016": 0.0,
			"0.017": 0.0,
			"0.018": 0.0,
			"0.019": 0.0,
			"0.02": 0.0,
			"0.021": 0.0,
			"0.022": 0.0,
			"0.023": 0.0,
			"0.024": 0.0,
			"0.025": 0.0
		}
	}
}
