{
	 "smiles": "[O-][N+](=O)C1=C2C(C=N/C3=CC=CC=C3)=CC=CC2=CC=C1", 
	 "Tm": 387.15, 
	 "num_atms": 33, 
	 "gaussian": { 
		 "optdone": 1, 
		 "sigma_profile": "yes", 
		 "theory": "DFT", 
		 "functional": "B3LYP", 
		 "basiset": "6-31G**", 
		 "properties": { 
			 "R2extent": 5305.2853, 
			 "electric_dipole_moment_norm": 5.9806866069, 
			 "electric_quadrupole_moment_norm": 14.8385165279, 
			 "total_energy": -914.866372338, 
			 "HOMO_LUMO_gap": 0.12169, 
			 "cosmo_polarized_energy": -14.45, 
			 "cosmo_cavitation_energy": 37.11, 
			 "cosmo_dispersion_energy": -25.07, 
			 "cosmo_repulsion_energy": 1.9, 
			 "cosmo_total_nonelectrostatic_energy": 13.94, 
			 "SMD_solvation_energy": 6.29 
		},
		"coords": [
			{
				"x": 2.7461269371,
				"y": -1.7968926708,
				"z": -0.04808404,
				"element": "O" 
			},
			{
				"x": 2.0658374543,
				"y": -2.0213113626,
				"z": -1.0496979803,
				"element": "N" 
			},
			{
				"x": 1.861274892,
				"y": -3.1403247733,
				"z": -1.5191468791,
				"element": "O" 
			},
			{
				"x": 1.5308885097,
				"y": -0.858916264,
				"z": -1.7762876629,
				"element": "C" 
			},
			{
				"x": 1.1429859798,
				"y": 0.3425912529,
				"z": -1.1030366874,
				"element": "C" 
			},
			{
				"x": 0.907377683,
				"y": 0.4870546624,
				"z": 0.3031517301,
				"element": "C" 
			},
			{
				"x": 0.7919990073,
				"y": -0.6518270559,
				"z": 1.274299564,
				"element": "C" 
			},
			{
				"x": -0.1057503882,
				"y": -1.5552628298,
				"z": 1.31393923,
				"element": "N" 
			},
			{
				"x": -1.1785852876,
				"y": -1.6316164518,
				"z": 0.3974036073,
				"element": "C" 
			},
			{
				"x": -2.157451954,
				"y": -0.6277012734,
				"z": 0.3198365728,
				"element": "C" 
			},
			{
				"x": -3.2600154922,
				"y": -0.7869292477,
				"z": -0.5197689565,
				"element": "C" 
			},
			{
				"x": -3.398207053,
				"y": -1.9374463983,
				"z": -1.2976142713,
				"element": "C" 
			},
			{
				"x": -2.4282711568,
				"y": -2.9401910004,
				"z": -1.2161600794,
				"element": "C" 
			},
			{
				"x": -1.33527944,
				"y": -2.8016610228,
				"z": -0.3635367171,
				"element": "C" 
			},
			{
				"x": 0.6796962061,
				"y": 1.7494761103,
				"z": 0.8247745357,
				"element": "C" 
			},
			{
				"x": 0.5755725544,
				"y": 2.8925927167,
				"z": 0.0041304717,
				"element": "C" 
			},
			{
				"x": 0.6719399194,
				"y": 2.7573272207,
				"z": -1.3591418713,
				"element": "C" 
			},
			{
				"x": 0.9504082281,
				"y": 1.4937611109,
				"z": -1.9444116485,
				"element": "C" 
			},
			{
				"x": 1.0344089779,
				"y": 1.3689247034,
				"z": -3.3575953063,
				"element": "C" 
			},
			{
				"x": 1.3050847086,
				"y": 0.1606298566,
				"z": -3.9546107455,
				"element": "C" 
			},
			{
				"x": 1.5741619163,
				"y": -0.9636109841,
				"z": -3.1499057782,
				"element": "C" 
			},
			{
				"x": 1.5329264598,
				"y": -0.6638601472,
				"z": 2.077672886,
				"element": "H" 
			},
			{
				"x": -2.0573012955,
				"y": 0.2631566054,
				"z": 0.9312054127,
				"element": "H" 
			},
			{
				"x": -4.0131543544,
				"y": -0.004842071,
				"z": -0.5649028646,
				"element": "H" 
			},
			{
				"x": -4.2561343738,
				"y": -2.0563722167,
				"z": -1.9526865699,
				"element": "H" 
			},
			{
				"x": -2.5274757072,
				"y": -3.8432490439,
				"z": -1.8119957948,
				"element": "H" 
			},
			{
				"x": -0.5852218694,
				"y": -3.5817991089,
				"z": -0.2880127247,
				"element": "H" 
			},
			{
				"x": 0.5316931622,
				"y": 1.8515070777,
				"z": 1.8968356857,
				"element": "H" 
			},
			{
				"x": 0.3830799504,
				"y": 3.8624129728,
				"z": 0.4522494159,
				"element": "H" 
			},
			{
				"x": 0.5413039004,
				"y": 3.6143671356,
				"z": -2.0136928883,
				"element": "H" 
			},
			{
				"x": 0.8748637637,
				"y": 2.2572958033,
				"z": -3.9623952372,
				"element": "H" 
			},
			{
				"x": 1.354010115,
				"y": 0.0721570578,
				"z": -5.0347914104,
				"element": "H" 
			},
			{
				"x": 1.8613080463,
				"y": -1.9114403642,
				"z": -3.5886229982,
				"element": "H" 
			}
		],
		 "valence_orbital": [ 
			{
				"type": "occ",
				"energy": -0.27844,
				"method": "rhf"
			},
			{
				"type": "occ",
				"energy": -0.26995,
				"method": "rhf"
			},
			{
				"type": "occ",
				"energy": -0.24632,
				"method": "rhf"
			},
			{
				"type": "occ",
				"energy": -0.2384,
				"method": "rhf"
			},
			{
				"type": "occ",
				"energy": -0.21325,
				"method": "rhf"
			},
			{
				"type": "unocc",
				"energy": -0.09156,
				"method": "rhf"
			},
			{
				"type": "unocc",
				"energy": -0.05778,
				"method": "rhf"
			},
			{
				"type": "unocc",
				"energy": -0.03626,
				"method": "rhf"
			},
			{
				"type": "unocc",
				"energy": -0.01541,
				"method": "rhf"
			},
			{
				"type": "unocc",
				"energy": 0.00636,
				"method": "rhf"
			}
		],
		"cosmo_sigma_profile": { 
			"-0.025": 0.0,
			"-0.024": 0.0,
			"-0.023": 0.0,
			"-0.022": 0.0,
			"-0.021": 0.0,
			"-0.02": 0.0,
			"-0.019": 0.0,
			"-0.018": 0.0,
			"-0.017": 0.0,
			"-0.016": 0.0,
			"-0.015": 0.0,
			"-0.014": 0.0,
			"-0.013": 0.0,
			"-0.012": 0.0,
			"-0.011": 0.0,
			"-0.01": 0.0,
			"-0.009": 0.181445177284,
			"-0.008": 5.63495099084,
			"-0.007": 15.3556472738,
			"-0.006": 19.0989034299,
			"-0.005": 23.1732690228,
			"-0.004": 21.8375455892,
			"-0.003": 19.2000238385,
			"-0.002": 16.7890461878,
			"-0.001": 17.2722082095,
			"0.0": 20.9147313282,
			"0.001": 23.8037109857,
			"0.002": 26.6548904909,
			"0.003": 18.9401946754,
			"0.004": 15.1951003408,
			"0.005": 15.4309409023,
			"0.006": 11.3743402119,
			"0.007": 8.7354274433,
			"0.008": 7.10293763646,
			"0.009": 4.46600580378,
			"0.01": 3.39283555325,
			"0.011": 0.967792357113,
			"0.012": 0.60664423782,
			"0.013": 0.849708964272,
			"0.014": 0.930741953891,
			"0.015": 0.417685001257,
			"0.016": 0.0,
			"0.017": 0.0,
			"0.018": 0.0,
			"0.019": 0.0,
			"0.02": 0.0,
			"0.021": 0.0,
			"0.022": 0.0,
			"0.023": 0.0,
			"0.024": 0.0,
			"0.025": 0.0
		}
	}
}
