{
	 "smiles": "CC(=O)NC(C)(C)C", 
	 "Tm": 370.15, 
	 "num_atms": 21, 
	 "gaussian": { 
		 "optdone": 1, 
		 "sigma_profile": "yes", 
		 "theory": "DFT", 
		 "functional": "B3LYP", 
		 "basiset": "6-31G**", 
		 "properties": { 
			 "R2extent": 1259.5848, 
			 "electric_dipole_moment_norm": 3.47197351804, 
			 "electric_quadrupole_moment_norm": 8.18755627156, 
			 "total_energy": -366.48300424, 
			 "HOMO_LUMO_gap": 0.27202, 
			 "cosmo_polarized_energy": -10.23, 
			 "cosmo_cavitation_energy": 22.67, 
			 "cosmo_dispersion_energy": -16.29, 
			 "cosmo_repulsion_energy": 1.36, 
			 "cosmo_total_nonelectrostatic_energy": 7.74, 
			 "SMD_solvation_energy": 4.69 
		},
		"coords": [
			{
				"x": -2.1586150211,
				"y": -1.642086216,
				"z": -0.2406784192,
				"element": "C" 
			},
			{
				"x": -0.8790688467,
				"y": -1.3042344029,
				"z": 0.5178065466,
				"element": "C" 
			},
			{
				"x": -0.45634443,
				"y": -2.0390802573,
				"z": 1.4057770994,
				"element": "O" 
			},
			{
				"x": -0.2644857717,
				"y": -0.1471861795,
				"z": 0.1336932923,
				"element": "N" 
			},
			{
				"x": 0.9847658855,
				"y": 0.4005452955,
				"z": 0.7118009509,
				"element": "C" 
			},
			{
				"x": 2.1404884854,
				"y": -0.5961971881,
				"z": 0.5032408301,
				"element": "C" 
			},
			{
				"x": 1.2761474554,
				"y": 1.7076388707,
				"z": -0.0416272618,
				"element": "C" 
			},
			{
				"x": 0.7859117385,
				"y": 0.6904116764,
				"z": 2.2115219524,
				"element": "C" 
			},
			{
				"x": -2.4310065433,
				"y": -0.9142118256,
				"z": -1.0104272708,
				"element": "H" 
			},
			{
				"x": -2.0385948724,
				"y": -2.6237564802,
				"z": -0.7069770924,
				"element": "H" 
			},
			{
				"x": -2.9789912281,
				"y": -1.7225306139,
				"z": 0.4777470362,
				"element": "H" 
			},
			{
				"x": -0.6948510987,
				"y": 0.3849466081,
				"z": -0.6072636227,
				"element": "H" 
			},
			{
				"x": 3.0693116181,
				"y": -0.1894042937,
				"z": 0.9170416682,
				"element": "H" 
			},
			{
				"x": 1.9175547118,
				"y": -1.5419903206,
				"z": 0.9994874715,
				"element": "H" 
			},
			{
				"x": 2.2956657677,
				"y": -0.7880284411,
				"z": -0.5637231709,
				"element": "H" 
			},
			{
				"x": 2.1926665151,
				"y": 2.1661158048,
				"z": 0.3397381453,
				"element": "H" 
			},
			{
				"x": 1.4137951675,
				"y": 1.5250301623,
				"z": -1.1137422113,
				"element": "H" 
			},
			{
				"x": 0.4614595385,
				"y": 2.4297072948,
				"z": 0.0873346288,
				"element": "H" 
			},
			{
				"x": 1.7028417722,
				"y": 1.1086661727,
				"z": 2.6401461313,
				"element": "H" 
			},
			{
				"x": -0.0228022816,
				"y": 1.4137783112,
				"z": 2.3599266799,
				"element": "H" 
			},
			{
				"x": 0.5348514378,
				"y": -0.2284339777,
				"z": 2.7436766161,
				"element": "H" 
			}
		],
		 "valence_orbital": [ 
			{
				"type": "occ",
				"energy": -0.35075,
				"method": "rhf"
			},
			{
				"type": "occ",
				"energy": -0.33268,
				"method": "rhf"
			},
			{
				"type": "occ",
				"energy": -0.32978,
				"method": "rhf"
			},
			{
				"type": "occ",
				"energy": -0.2461,
				"method": "rhf"
			},
			{
				"type": "occ",
				"energy": -0.23681,
				"method": "rhf"
			},
			{
				"type": "unocc",
				"energy": 0.03521,
				"method": "rhf"
			},
			{
				"type": "unocc",
				"energy": 0.0686,
				"method": "rhf"
			},
			{
				"type": "unocc",
				"energy": 0.10129,
				"method": "rhf"
			},
			{
				"type": "unocc",
				"energy": 0.1225,
				"method": "rhf"
			},
			{
				"type": "unocc",
				"energy": 0.13468,
				"method": "rhf"
			}
		],
		"cosmo_sigma_profile": { 
			"-0.025": 0.0,
			"-0.024": 0.0,
			"-0.023": 0.0,
			"-0.022": 0.0,
			"-0.021": 0.0,
			"-0.02": 0.0,
			"-0.019": 0.0,
			"-0.018": 0.0,
			"-0.017": 0.0,
			"-0.016": 0.0,
			"-0.015": 0.0,
			"-0.014": 0.0436707464775,
			"-0.013": 0.856188562209,
			"-0.012": 1.13559583723,
			"-0.011": 0.98354581518,
			"-0.01": 1.0747920686,
			"-0.009": 1.53651636084,
			"-0.008": 1.63902298642,
			"-0.007": 2.0255823604,
			"-0.006": 1.99677660814,
			"-0.005": 6.14106330174,
			"-0.004": 9.90660680958,
			"-0.003": 21.9410939685,
			"-0.002": 21.3772118071,
			"-0.001": 22.5656169288,
			"0.0": 20.6416779287,
			"0.001": 21.5974392265,
			"0.002": 11.5940235573,
			"0.003": 4.40363073276,
			"0.004": 1.5652131736,
			"0.005": 2.07089379468,
			"0.006": 2.38889065891,
			"0.007": 1.33980098301,
			"0.008": 2.00902898326,
			"0.009": 1.89430194429,
			"0.01": 0.976350282754,
			"0.011": 1.61548300367,
			"0.012": 1.67337479646,
			"0.013": 1.65029662187,
			"0.014": 3.15665670932,
			"0.015": 2.98282290003,
			"0.016": 0.724486890628,
			"0.017": 0.0,
			"0.018": 0.0,
			"0.019": 0.0,
			"0.02": 0.0,
			"0.021": 0.0,
			"0.022": 0.0,
			"0.023": 0.0,
			"0.024": 0.0,
			"0.025": 0.0
		}
	}
}
