{
	 "smiles": "OC(=O)C1=CC2=C(C=CC=C2)N1CC1=CC=CC=C1", 
	 "Tm": 471.15, 
	 "num_atms": 32, 
	 "gaussian": { 
		 "optdone": 1, 
		 "sigma_profile": "yes", 
		 "theory": "DFT", 
		 "functional": "B3LYP", 
		 "basiset": "6-31G**", 
		 "properties": { 
			 "R2extent": 5385.3959, 
			 "electric_dipole_moment_norm": 3.26883813763, 
			 "electric_quadrupole_moment_norm": 16.7337597957, 
			 "total_energy": -822.75313248, 
			 "HOMO_LUMO_gap": 0.1656, 
			 "cosmo_polarized_energy": -14.36, 
			 "cosmo_cavitation_energy": 35.41, 
			 "cosmo_dispersion_energy": -25.23, 
			 "cosmo_repulsion_energy": 1.91, 
			 "cosmo_total_nonelectrostatic_energy": 12.09, 
			 "SMD_solvation_energy": 6.33 
		},
		"coords": [
			{
				"x": 0.504418955,
				"y": -3.5252172196,
				"z": 2.8188334245,
				"element": "O" 
			},
			{
				"x": 0.334160458,
				"y": -2.1805741529,
				"z": 2.7277899196,
				"element": "C" 
			},
			{
				"x": -0.4541959322,
				"y": -1.620151731,
				"z": 3.4605233932,
				"element": "O" 
			},
			{
				"x": 1.1887537251,
				"y": -1.5128391019,
				"z": 1.7243922632,
				"element": "C" 
			},
			{
				"x": 2.4010103822,
				"y": -1.9585038068,
				"z": 1.2274525391,
				"element": "C" 
			},
			{
				"x": 2.9095936959,
				"y": -0.9424985797,
				"z": 0.3692303648,
				"element": "C" 
			},
			{
				"x": 1.9504437117,
				"y": 0.1117678232,
				"z": 0.3770023449,
				"element": "C" 
			},
			{
				"x": 2.1429049414,
				"y": 1.2802145615,
				"z": -0.3792391134,
				"element": "C" 
			},
			{
				"x": 3.3063748858,
				"y": 1.3786791321,
				"z": -1.1283602041,
				"element": "C" 
			},
			{
				"x": 4.2698756549,
				"y": 0.344483153,
				"z": -1.1410878784,
				"element": "C" 
			},
			{
				"x": 4.0824488894,
				"y": -0.8098747061,
				"z": -0.3997503366,
				"element": "C" 
			},
			{
				"x": 0.9173461259,
				"y": -0.2450805382,
				"z": 1.2204958851,
				"element": "N" 
			},
			{
				"x": -0.3255497369,
				"y": 0.5198312031,
				"z": 1.4080940409,
				"element": "C" 
			},
			{
				"x": -1.4761430945,
				"y": 0.0462446372,
				"z": 0.5353431645,
				"element": "C" 
			},
			{
				"x": -2.5644423632,
				"y": -0.6223063166,
				"z": 1.1093222147,
				"element": "C" 
			},
			{
				"x": -3.6304861033,
				"y": -1.0524518736,
				"z": 0.3157918055,
				"element": "C" 
			},
			{
				"x": -3.6180793171,
				"y": -0.8224864101,
				"z": -1.0600286708,
				"element": "C" 
			},
			{
				"x": -2.5342184523,
				"y": -0.1593475043,
				"z": -1.6413553491,
				"element": "C" 
			},
			{
				"x": -1.4722886945,
				"y": 0.27364063,
				"z": -0.8483478758,
				"element": "C" 
			},
			{
				"x": 1.0329251877,
				"y": -3.8354917574,
				"z": 2.0695196884,
				"element": "H" 
			},
			{
				"x": 2.9069298692,
				"y": -2.8744692353,
				"z": 1.50358154,
				"element": "H" 
			},
			{
				"x": 1.4172316578,
				"y": 2.0868007806,
				"z": -0.3792632363,
				"element": "H" 
			},
			{
				"x": 3.4817906097,
				"y": 2.2737851359,
				"z": -1.7177985625,
				"element": "H" 
			},
			{
				"x": 5.1667691805,
				"y": 0.4623040919,
				"z": -1.7415221124,
				"element": "H" 
			},
			{
				"x": 4.8238679403,
				"y": -1.6037785989,
				"z": -0.4091481283,
				"element": "H" 
			},
			{
				"x": -0.5973563582,
				"y": 0.4492210879,
				"z": 2.4601143506,
				"element": "H" 
			},
			{
				"x": -0.0816804851,
				"y": 1.5628687558,
				"z": 1.1907239187,
				"element": "H" 
			},
			{
				"x": -2.566681634,
				"y": -0.8151254255,
				"z": 2.1777853596,
				"element": "H" 
			},
			{
				"x": -4.4686700366,
				"y": -1.568922353,
				"z": 0.7749150543,
				"element": "H" 
			},
			{
				"x": -4.4472258379,
				"y": -1.1564274606,
				"z": -1.677359959,
				"element": "H" 
			},
			{
				"x": -2.5185621941,
				"y": 0.0245515969,
				"z": -2.7119582459,
				"element": "H" 
			},
			{
				"x": -0.6329656306,
				"y": 0.7877541824,
				"z": -1.3089915993,
				"element": "H" 
			}
		],
		 "valence_orbital": [ 
			{
				"type": "occ",
				"energy": -0.27807,
				"method": "rhf"
			},
			{
				"type": "occ",
				"energy": -0.25101,
				"method": "rhf"
			},
			{
				"type": "occ",
				"energy": -0.25034,
				"method": "rhf"
			},
			{
				"type": "occ",
				"energy": -0.23263,
				"method": "rhf"
			},
			{
				"type": "occ",
				"energy": -0.21798,
				"method": "rhf"
			},
			{
				"type": "unocc",
				"energy": -0.05238,
				"method": "rhf"
			},
			{
				"type": "unocc",
				"energy": -0.00972,
				"method": "rhf"
			},
			{
				"type": "unocc",
				"energy": -0.00203,
				"method": "rhf"
			},
			{
				"type": "unocc",
				"energy": 0.00844,
				"method": "rhf"
			},
			{
				"type": "unocc",
				"energy": 0.0209,
				"method": "rhf"
			}
		],
		"cosmo_sigma_profile": { 
			"-0.025": 0.0,
			"-0.024": 0.0,
			"-0.023": 0.0,
			"-0.022": 0.0,
			"-0.021": 0.0,
			"-0.02": 0.0,
			"-0.019": 0.00782216566857,
			"-0.018": 0.695674207498,
			"-0.017": 0.743433692607,
			"-0.016": 1.22258005742,
			"-0.015": 0.909413841262,
			"-0.014": 0.896974049303,
			"-0.013": 1.30535854183,
			"-0.012": 0.679827770169,
			"-0.011": 1.17850599809,
			"-0.01": 0.901071320581,
			"-0.009": 1.73902302507,
			"-0.008": 4.51393844846,
			"-0.007": 4.77790908689,
			"-0.006": 11.9190440248,
			"-0.005": 19.5562800702,
			"-0.004": 23.5675880323,
			"-0.003": 23.6001703168,
			"-0.002": 17.9110227666,
			"-0.001": 17.5446671321,
			"0.0": 15.0484075302,
			"0.001": 18.2323841911,
			"0.002": 20.9728614614,
			"0.003": 21.9719885414,
			"0.004": 20.6157627168,
			"0.005": 20.595891804,
			"0.006": 12.454825741,
			"0.007": 2.62196699105,
			"0.008": 2.7458462347,
			"0.009": 3.37623602795,
			"0.01": 4.55543154067,
			"0.011": 3.60789848688,
			"0.012": 2.48648881668,
			"0.013": 1.12262725736,
			"0.014": 0.0385647322107,
			"0.015": 0.0,
			"0.016": 0.0,
			"0.017": 0.0,
			"0.018": 0.0,
			"0.019": 0.0,
			"0.02": 0.0,
			"0.021": 0.0,
			"0.022": 0.0,
			"0.023": 0.0,
			"0.024": 0.0,
			"0.025": 0.0
		}
	}
}
