{
	 "smiles": "OCC1=CC=C(S1)C1=CC=CS1", 
	 "Tm": 325.65, 
	 "num_atms": 20, 
	 "gaussian": { 
		 "optdone": 1, 
		 "sigma_profile": "yes", 
		 "theory": "DFT", 
		 "functional": "B3LYP", 
		 "basiset": "6-31G**", 
		 "properties": { 
			 "R2extent": 4312.9762, 
			 "electric_dipole_moment_norm": 1.65825886097, 
			 "electric_quadrupole_moment_norm": 4.08226964812, 
			 "total_energy": -1219.33972436, 
			 "HOMO_LUMO_gap": 0.16012, 
			 "cosmo_polarized_energy": -9.04, 
			 "cosmo_cavitation_energy": 27.38, 
			 "cosmo_dispersion_energy": -21.12, 
			 "cosmo_repulsion_energy": 1.59, 
			 "cosmo_total_nonelectrostatic_energy": 7.85, 
			 "SMD_solvation_energy": 4.26 
		},
		"coords": [
			{
				"x": -1.4462491987,
				"y": -3.7560026313,
				"z": -0.8779095343,
				"element": "O" 
			},
			{
				"x": -2.2163558305,
				"y": -2.5687353778,
				"z": -0.9695352247,
				"element": "C" 
			},
			{
				"x": -1.5036174943,
				"y": -1.3807856289,
				"z": -0.374614361,
				"element": "C" 
			},
			{
				"x": -0.150696612,
				"y": -1.1936372176,
				"z": -0.2577737209,
				"element": "C" 
			},
			{
				"x": 0.200433534,
				"y": 0.0596744549,
				"z": 0.3186720601,
				"element": "C" 
			},
			{
				"x": -0.8862944589,
				"y": 0.8363457931,
				"z": 0.6536436006,
				"element": "C" 
			},
			{
				"x": -2.3752321189,
				"y": -0.0074800693,
				"z": 0.2577674804,
				"element": "S" 
			},
			{
				"x": -0.885676471,
				"y": 2.1498230994,
				"z": 1.2745204291,
				"element": "C" 
			},
			{
				"x": 0.0630247449,
				"y": 2.6794013121,
				"z": 2.1228854821,
				"element": "C" 
			},
			{
				"x": -0.2243011197,
				"y": 4.0121304,
				"z": 2.5343408294,
				"element": "C" 
			},
			{
				"x": -1.3923704527,
				"y": 4.4920508588,
				"z": 2.0077414718,
				"element": "C" 
			},
			{
				"x": -2.1550420956,
				"y": 3.3239100885,
				"z": 0.9782392715,
				"element": "S" 
			},
			{
				"x": -1.2548651898,
				"y": -3.9029370029,
				"z": 0.0584625694,
				"element": "H" 
			},
			{
				"x": -2.3864934323,
				"y": -2.4154641696,
				"z": -2.0420943451,
				"element": "H" 
			},
			{
				"x": -3.2090837003,
				"y": -2.6863386095,
				"z": -0.5060178294,
				"element": "H" 
			},
			{
				"x": 0.5662040746,
				"y": -1.9330534403,
				"z": -0.5951493074,
				"element": "H" 
			},
			{
				"x": 1.2216627035,
				"y": 0.3949344261,
				"z": 0.4597685706,
				"element": "H" 
			},
			{
				"x": 0.9246738145,
				"y": 2.1144993249,
				"z": 2.4593215789,
				"element": "H" 
			},
			{
				"x": 0.4060299729,
				"y": 4.5840404594,
				"z": 3.2058506651,
				"element": "H" 
			},
			{
				"x": -1.8538506698,
				"y": 5.4574239301,
				"z": 2.1617803137,
				"element": "H" 
			}
		],
		 "valence_orbital": [ 
			{
				"type": "occ",
				"energy": -0.28684,
				"method": "rhf"
			},
			{
				"type": "occ",
				"energy": -0.26384,
				"method": "rhf"
			},
			{
				"type": "occ",
				"energy": -0.25585,
				"method": "rhf"
			},
			{
				"type": "occ",
				"energy": -0.25246,
				"method": "rhf"
			},
			{
				"type": "occ",
				"energy": -0.20401,
				"method": "rhf"
			},
			{
				"type": "unocc",
				"energy": -0.04389,
				"method": "rhf"
			},
			{
				"type": "unocc",
				"energy": -0.00086,
				"method": "rhf"
			},
			{
				"type": "unocc",
				"energy": 0.01839,
				"method": "rhf"
			},
			{
				"type": "unocc",
				"energy": 0.04901,
				"method": "rhf"
			},
			{
				"type": "unocc",
				"energy": 0.05491,
				"method": "rhf"
			}
		],
		"cosmo_sigma_profile": { 
			"-0.025": 0.0,
			"-0.024": 0.0,
			"-0.023": 0.0,
			"-0.022": 0.0,
			"-0.021": 0.0,
			"-0.02": 0.0,
			"-0.019": 0.0,
			"-0.018": 0.0,
			"-0.017": 0.0,
			"-0.016": 0.197038066241,
			"-0.015": 0.839827039055,
			"-0.014": 1.12825544173,
			"-0.013": 0.509678520284,
			"-0.012": 0.866799346284,
			"-0.011": 1.08178907422,
			"-0.01": 0.875892723026,
			"-0.009": 1.35099678837,
			"-0.008": 2.28439519957,
			"-0.007": 5.23950656418,
			"-0.006": 14.6513844342,
			"-0.005": 15.8422380181,
			"-0.004": 16.5072667697,
			"-0.003": 12.560428605,
			"-0.002": 11.0774927273,
			"-0.001": 10.7798834179,
			"0.0": 14.4489563491,
			"0.001": 15.4723187024,
			"0.002": 19.4067503297,
			"0.003": 21.193379432,
			"0.004": 27.5591063611,
			"0.005": 16.6642770758,
			"0.006": 1.96171806942,
			"0.007": 1.30838291972,
			"0.008": 1.1664907799,
			"0.009": 1.22622921141,
			"0.01": 0.910927562548,
			"0.011": 1.1073722622,
			"0.012": 1.5094111762,
			"0.013": 1.98554699173,
			"0.014": 1.27734987764,
			"0.015": 0.0,
			"0.016": 0.0,
			"0.017": 0.0,
			"0.018": 0.0,
			"0.019": 0.0,
			"0.02": 0.0,
			"0.021": 0.0,
			"0.022": 0.0,
			"0.023": 0.0,
			"0.024": 0.0,
			"0.025": 0.0
		}
	}
}
