{
	 "smiles": "OC(=O)C1CCN(C1=O)C1=CC(Cl)=C(Cl)C=C1", 
	 "Tm": 439.15, 
	 "num_atms": 26, 
	 "gaussian": { 
		 "optdone": 1, 
		 "sigma_profile": "yes", 
		 "theory": "DFT", 
		 "functional": "B3LYP", 
		 "basiset": "6-31G**", 
		 "properties": { 
			 "R2extent": 8301.5386, 
			 "electric_dipole_moment_norm": 3.16400889537, 
			 "electric_quadrupole_moment_norm": 29.0678179952, 
			 "total_energy": -1625.43515234, 
			 "HOMO_LUMO_gap": 0.19472, 
			 "cosmo_polarized_energy": -16.52, 
			 "cosmo_cavitation_energy": 33.28, 
			 "cosmo_dispersion_energy": -24.98, 
			 "cosmo_repulsion_energy": 1.92, 
			 "cosmo_total_nonelectrostatic_energy": 10.21, 
			 "SMD_solvation_energy": 6.11 
		},
		"coords": [
			{
				"x": -2.4902852709,
				"y": 0.911188812,
				"z": -2.4348115326,
				"element": "O" 
			},
			{
				"x": -2.281685511,
				"y": -0.3519457068,
				"z": -2.0478314769,
				"element": "C" 
			},
			{
				"x": -3.171099957,
				"y": -1.1605137422,
				"z": -1.9299335743,
				"element": "O" 
			},
			{
				"x": -0.8095977119,
				"y": -0.7347695296,
				"z": -1.8195366053,
				"element": "C" 
			},
			{
				"x": -0.5928952444,
				"y": -1.9378534226,
				"z": -0.8992663555,
				"element": "C" 
			},
			{
				"x": 0.7665032075,
				"y": -1.6524105292,
				"z": -0.2377716546,
				"element": "C" 
			},
			{
				"x": 0.9020382984,
				"y": -0.1835958187,
				"z": -0.2970539714,
				"element": "N" 
			},
			{
				"x": 0.033704767,
				"y": 0.3739473384,
				"z": -1.1990114074,
				"element": "C" 
			},
			{
				"x": -0.0678805014,
				"y": 1.566070224,
				"z": -1.4968744251,
				"element": "O" 
			},
			{
				"x": 1.9149900932,
				"y": 0.5011518879,
				"z": 0.4202395211,
				"element": "C" 
			},
			{
				"x": 2.9292338764,
				"y": -0.2431231658,
				"z": 1.0379258322,
				"element": "C" 
			},
			{
				"x": 3.9347536971,
				"y": 0.3926516998,
				"z": 1.7672645308,
				"element": "C" 
			},
			{
				"x": 5.166604838,
				"y": -0.5980615465,
				"z": 2.5095205178,
				"element": "Cl" 
			},
			{
				"x": 3.9442247164,
				"y": 1.7858527484,
				"z": 1.8889053824,
				"element": "C" 
			},
			{
				"x": 5.179441093,
				"y": 2.6235258952,
				"z": 2.7911627785,
				"element": "Cl" 
			},
			{
				"x": 2.9327125144,
				"y": 2.5229871705,
				"z": 1.2684198778,
				"element": "C" 
			},
			{
				"x": 1.9245037079,
				"y": 1.9016817665,
				"z": 0.5421137828,
				"element": "C" 
			},
			{
				"x": -1.6588640588,
				"y": 1.4282362532,
				"z": -2.3090288957,
				"element": "H" 
			},
			{
				"x": -0.3882394514,
				"y": -0.9142075755,
				"z": -2.8203479076,
				"element": "H" 
			},
			{
				"x": -1.3911054578,
				"y": -1.9701660443,
				"z": -0.1536604787,
				"element": "H" 
			},
			{
				"x": -0.599459289,
				"y": -2.8911997229,
				"z": -1.42866088,
				"element": "H" 
			},
			{
				"x": 0.8048248405,
				"y": -1.9881447288,
				"z": 0.8017095917,
				"element": "H" 
			},
			{
				"x": 1.5948919369,
				"y": -2.1251930259,
				"z": -0.7807073542,
				"element": "H" 
			},
			{
				"x": 2.9657925713,
				"y": -1.3212724747,
				"z": 0.9592867481,
				"element": "H" 
			},
			{
				"x": 2.9388260864,
				"y": 3.6031356609,
				"z": 1.3633803025,
				"element": "H" 
			},
			{
				"x": 1.156266209,
				"y": 2.4918275765,
				"z": 0.0651676536,
				"element": "H" 
			}
		],
		 "valence_orbital": [ 
			{
				"type": "occ",
				"energy": -0.30918,
				"method": "rhf"
			},
			{
				"type": "occ",
				"energy": -0.29741,
				"method": "rhf"
			},
			{
				"type": "occ",
				"energy": -0.27615,
				"method": "rhf"
			},
			{
				"type": "occ",
				"energy": -0.27276,
				"method": "rhf"
			},
			{
				"type": "occ",
				"energy": -0.2455,
				"method": "rhf"
			},
			{
				"type": "unocc",
				"energy": -0.05078,
				"method": "rhf"
			},
			{
				"type": "unocc",
				"energy": -0.03668,
				"method": "rhf"
			},
			{
				"type": "unocc",
				"energy": -0.0075,
				"method": "rhf"
			},
			{
				"type": "unocc",
				"energy": -0.00037,
				"method": "rhf"
			},
			{
				"type": "unocc",
				"energy": 0.01184,
				"method": "rhf"
			}
		],
		"cosmo_sigma_profile": { 
			"-0.025": 0.0,
			"-0.024": 0.0,
			"-0.023": 0.0,
			"-0.022": 0.0,
			"-0.021": 0.0,
			"-0.02": 0.0,
			"-0.019": 0.0,
			"-0.018": 0.0,
			"-0.017": 0.0,
			"-0.016": 0.0,
			"-0.015": 0.0,
			"-0.014": 0.0,
			"-0.013": 0.0,
			"-0.012": 0.0,
			"-0.011": 0.0,
			"-0.01": 1.68363492398,
			"-0.009": 6.80564601859,
			"-0.008": 9.53012630093,
			"-0.007": 12.8502952741,
			"-0.006": 18.8665685543,
			"-0.005": 17.3119416941,
			"-0.004": 12.7189003964,
			"-0.003": 12.8651334651,
			"-0.002": 13.5939844676,
			"-0.001": 15.425393223,
			"0.0": 20.0039318557,
			"0.001": 26.7942627431,
			"0.002": 20.5014840663,
			"0.003": 18.0178945765,
			"0.004": 19.968136102,
			"0.005": 9.0120842729,
			"0.006": 3.79823941026,
			"0.007": 4.10356008158,
			"0.008": 3.72672952524,
			"0.009": 4.92807902558,
			"0.01": 6.1167923372,
			"0.011": 5.44258792351,
			"0.012": 4.93251050102,
			"0.013": 1.60984961476,
			"0.014": 0.0259373453954,
			"0.015": 0.0,
			"0.016": 0.0,
			"0.017": 0.0,
			"0.018": 0.0,
			"0.019": 0.0,
			"0.02": 0.0,
			"0.021": 0.0,
			"0.022": 0.0,
			"0.023": 0.0,
			"0.024": 0.0,
			"0.025": 0.0
		}
	}
}
