{
	 "smiles": "COC1=CC=C(C=C1)C1=CC=C(CCC(O)=O)O1", 
	 "Tm": 416.15, 
	 "num_atms": 32, 
	 "gaussian": { 
		 "optdone": 1, 
		 "sigma_profile": "yes", 
		 "theory": "DFT", 
		 "functional": "B3LYP", 
		 "basiset": "6-31G**", 
		 "properties": { 
			 "R2extent": 6519.4794, 
			 "electric_dipole_moment_norm": 5.57663458907, 
			 "electric_quadrupole_moment_norm": 29.8935134345, 
			 "total_energy": -842.81130783, 
			 "HOMO_LUMO_gap": 0.16715, 
			 "cosmo_polarized_energy": -16.41, 
			 "cosmo_cavitation_energy": 36.5, 
			 "cosmo_dispersion_energy": -25.73, 
			 "cosmo_repulsion_energy": 1.99, 
			 "cosmo_total_nonelectrostatic_energy": 12.76, 
			 "SMD_solvation_energy": 7.99 
		},
		"coords": [
			{
				"x": -1.3814198974,
				"y": 0.4850329423,
				"z": 5.6630279614,
				"element": "C" 
			},
			{
				"x": -1.9839218458,
				"y": 0.2459603011,
				"z": 4.4001950159,
				"element": "O" 
			},
			{
				"x": -1.2265396904,
				"y": 0.4125561721,
				"z": 3.2799220774,
				"element": "C" 
			},
			{
				"x": -1.873790381,
				"y": 0.1597169902,
				"z": 2.0607040159,
				"element": "C" 
			},
			{
				"x": -1.192266416,
				"y": 0.3024983831,
				"z": 0.8620039823,
				"element": "C" 
			},
			{
				"x": 0.1605119716,
				"y": 0.6973943522,
				"z": 0.8380348931,
				"element": "C" 
			},
			{
				"x": 0.7958588881,
				"y": 0.940982885,
				"z": 2.0650838467,
				"element": "C" 
			},
			{
				"x": 0.1179913359,
				"y": 0.8073684374,
				"z": 3.2752525681,
				"element": "C" 
			},
			{
				"x": 0.8818636825,
				"y": 0.855418315,
				"z": -0.4176265413,
				"element": "C" 
			},
			{
				"x": 2.0903034517,
				"y": 1.3974996647,
				"z": -0.7627779714,
				"element": "C" 
			},
			{
				"x": 2.2382455872,
				"y": 1.2318861061,
				"z": -2.1766356427,
				"element": "C" 
			},
			{
				"x": 1.1129536189,
				"y": 0.6103006492,
				"z": -2.6254747593,
				"element": "C" 
			},
			{
				"x": 0.625918445,
				"y": 0.1920115158,
				"z": -3.9743248707,
				"element": "C" 
			},
			{
				"x": -0.1055525342,
				"y": -1.1724371221,
				"z": -4.0081587339,
				"element": "C" 
			},
			{
				"x": 0.7609075681,
				"y": -2.3435415619,
				"z": -3.5531898513,
				"element": "C" 
			},
			{
				"x": 0.9341393453,
				"y": -2.4663219088,
				"z": -2.2140741304,
				"element": "O" 
			},
			{
				"x": 1.2799461604,
				"y": -3.1245427476,
				"z": -4.3128539951,
				"element": "O" 
			},
			{
				"x": 0.2725966655,
				"y": 0.3683505581,
				"z": -1.5590092545,
				"element": "O" 
			},
			{
				"x": -0.5361581778,
				"y": -0.1915712101,
				"z": 5.8427506926,
				"element": "H" 
			},
			{
				"x": -2.1565338183,
				"y": 0.2956735346,
				"z": 6.406946085,
				"element": "H" 
			},
			{
				"x": -1.0369443854,
				"y": 1.522897084,
				"z": 5.7572044868,
				"element": "H" 
			},
			{
				"x": -2.9153974228,
				"y": -0.1434095007,
				"z": 2.0812933469,
				"element": "H" 
			},
			{
				"x": -1.7102852173,
				"y": 0.1151536303,
				"z": -0.0724525303,
				"element": "H" 
			},
			{
				"x": 1.8423522098,
				"y": 1.2301865896,
				"z": 2.0814602335,
				"element": "H" 
			},
			{
				"x": 0.6458055542,
				"y": 1.00268016,
				"z": 4.2009947724,
				"element": "H" 
			},
			{
				"x": 2.7936196212,
				"y": 1.8685715849,
				"z": -0.0918328796,
				"element": "H" 
			},
			{
				"x": 3.0771848969,
				"y": 1.5410935722,
				"z": -2.7838046834,
				"element": "H" 
			},
			{
				"x": -0.0666954696,
				"y": 0.9454886039,
				"z": -4.3745369437,
				"element": "H" 
			},
			{
				"x": 1.485180848,
				"y": 0.1670084999,
				"z": -4.6519170608,
				"element": "H" 
			},
			{
				"x": -1.0072708777,
				"y": -1.1142238357,
				"z": -3.3881542352,
				"element": "H" 
			},
			{
				"x": -0.4138143742,
				"y": -1.3831827309,
				"z": -5.0337206219,
				"element": "H" 
			},
			{
				"x": 0.4987106578,
				"y": -1.7336999138,
				"z": -1.7491292727,
				"element": "H" 
			}
		],
		 "valence_orbital": [ 
			{
				"type": "occ",
				"energy": -0.28975,
				"method": "rhf"
			},
			{
				"type": "occ",
				"energy": -0.26292,
				"method": "rhf"
			},
			{
				"type": "occ",
				"energy": -0.26019,
				"method": "rhf"
			},
			{
				"type": "occ",
				"energy": -0.25491,
				"method": "rhf"
			},
			{
				"type": "occ",
				"energy": -0.19985,
				"method": "rhf"
			},
			{
				"type": "unocc",
				"energy": -0.0327,
				"method": "rhf"
			},
			{
				"type": "unocc",
				"energy": -0.01049,
				"method": "rhf"
			},
			{
				"type": "unocc",
				"energy": 0.01555,
				"method": "rhf"
			},
			{
				"type": "unocc",
				"energy": 0.03267,
				"method": "rhf"
			},
			{
				"type": "unocc",
				"energy": 0.07031,
				"method": "rhf"
			}
		],
		"cosmo_sigma_profile": { 
			"-0.025": 0.0,
			"-0.024": 0.0,
			"-0.023": 0.0,
			"-0.022": 0.0,
			"-0.021": 0.0,
			"-0.02": 0.0,
			"-0.019": 0.0,
			"-0.018": 0.0,
			"-0.017": 0.0,
			"-0.016": 0.0,
			"-0.015": 0.0,
			"-0.014": 0.0,
			"-0.013": 0.0,
			"-0.012": 0.154433589039,
			"-0.011": 0.828882226697,
			"-0.01": 1.0680730214,
			"-0.009": 1.67223585185,
			"-0.008": 1.97741153213,
			"-0.007": 7.56427437031,
			"-0.006": 21.1920481628,
			"-0.005": 31.9384348498,
			"-0.004": 29.6110385524,
			"-0.003": 26.3824605635,
			"-0.002": 17.3302245098,
			"-0.001": 14.257542512,
			"0.0": 12.2734510457,
			"0.001": 13.7214506339,
			"0.002": 16.2086958134,
			"0.003": 18.7896719457,
			"0.004": 20.0783590328,
			"0.005": 17.7775157611,
			"0.006": 4.33262071366,
			"0.007": 4.63919379784,
			"0.008": 4.04856763638,
			"0.009": 3.86624847874,
			"0.01": 5.74163448036,
			"0.011": 6.06895476976,
			"0.012": 5.55591808453,
			"0.013": 3.18027515335,
			"0.014": 0.303594607034,
			"0.015": 0.0,
			"0.016": 0.0,
			"0.017": 0.0,
			"0.018": 0.0,
			"0.019": 0.0,
			"0.02": 0.0,
			"0.021": 0.0,
			"0.022": 0.0,
			"0.023": 0.0,
			"0.024": 0.0,
			"0.025": 0.0
		}
	}
}
