{
	 "smiles": "CCOC(=O)C1=C(Cl)N=C(N=C1)C(F)(F)F", 
	 "Tm": 309.65, 
	 "num_atms": 22, 
	 "gaussian": { 
		 "optdone": 1, 
		 "sigma_profile": "yes", 
		 "theory": "DFT", 
		 "functional": "B3LYP", 
		 "basiset": "6-31G**", 
		 "properties": { 
			 "R2extent": 6366.1212, 
			 "electric_dipole_moment_norm": 4.36679446505, 
			 "electric_quadrupole_moment_norm": 8.41632904062, 
			 "total_energy": -1328.12979776, 
			 "HOMO_LUMO_gap": 0.19708, 
			 "cosmo_polarized_energy": -8.87, 
			 "cosmo_cavitation_energy": 31.02, 
			 "cosmo_dispersion_energy": -21.94, 
			 "cosmo_repulsion_energy": 1.68, 
			 "cosmo_total_nonelectrostatic_energy": 10.76, 
			 "SMD_solvation_energy": 5.02 
		},
		"coords": [
			{
				"x": -1.614554942,
				"y": 2.5946073076,
				"z": 1.5414747577,
				"element": "C" 
			},
			{
				"x": -2.2875431794,
				"y": 1.3200526778,
				"z": 1.0583243323,
				"element": "C" 
			},
			{
				"x": -1.4389388815,
				"y": 0.6011583711,
				"z": 0.1203884413,
				"element": "O" 
			},
			{
				"x": -0.5339516811,
				"y": -0.2291983639,
				"z": 0.6447040815,
				"element": "C" 
			},
			{
				"x": -0.3607444039,
				"y": -0.4064908775,
				"z": 1.8352495132,
				"element": "O" 
			},
			{
				"x": 0.311655764,
				"y": -0.9270284321,
				"z": -0.3815544289,
				"element": "C" 
			},
			{
				"x": 0.0834899096,
				"y": -1.1153372053,
				"z": -1.7569202331,
				"element": "C" 
			},
			{
				"x": -1.3605847427,
				"y": -0.5786823419,
				"z": -2.5706631796,
				"element": "Cl" 
			},
			{
				"x": 0.9500462789,
				"y": -1.7533256524,
				"z": -2.5355543734,
				"element": "N" 
			},
			{
				"x": 2.0517155893,
				"y": -2.2193256559,
				"z": -1.9571581327,
				"element": "C" 
			},
			{
				"x": 2.382264302,
				"y": -2.1369617056,
				"z": -0.6683504165,
				"element": "N" 
			},
			{
				"x": 1.5041454453,
				"y": -1.4943409821,
				"z": 0.0989411246,
				"element": "C" 
			},
			{
				"x": 3.0597228803,
				"y": -2.9449378454,
				"z": -2.8461661421,
				"element": "C" 
			},
			{
				"x": 4.2629302049,
				"y": -2.3483657845,
				"z": -2.761238525,
				"element": "F" 
			},
			{
				"x": 2.6820795116,
				"y": -2.9518849283,
				"z": -4.1288197371,
				"element": "F" 
			},
			{
				"x": 3.1994509731,
				"y": -4.2198350171,
				"z": -2.4376153874,
				"element": "F" 
			},
			{
				"x": -0.7217601536,
				"y": 2.3633622079,
				"z": 2.1272836041,
				"element": "H" 
			},
			{
				"x": -2.3065785824,
				"y": 3.1545479779,
				"z": 2.1788579262,
				"element": "H" 
			},
			{
				"x": -1.3336535222,
				"y": 3.2314268975,
				"z": 0.6978654682,
				"element": "H" 
			},
			{
				"x": -3.1911525326,
				"y": 1.5321447335,
				"z": 0.4835942952,
				"element": "H" 
			},
			{
				"x": -2.5287018228,
				"y": 0.6546025371,
				"z": 1.889877129,
				"element": "H" 
			},
			{
				"x": 1.7274635852,
				"y": -1.4064879182,
				"z": 1.1584798826,
				"element": "H" 
			}
		],
		 "valence_orbital": [ 
			{
				"type": "occ",
				"energy": -0.33315,
				"method": "rhf"
			},
			{
				"type": "occ",
				"energy": -0.32037,
				"method": "rhf"
			},
			{
				"type": "occ",
				"energy": -0.30676,
				"method": "rhf"
			},
			{
				"type": "occ",
				"energy": -0.29876,
				"method": "rhf"
			},
			{
				"type": "occ",
				"energy": -0.29074,
				"method": "rhf"
			},
			{
				"type": "unocc",
				"energy": -0.09366,
				"method": "rhf"
			},
			{
				"type": "unocc",
				"energy": -0.07267,
				"method": "rhf"
			},
			{
				"type": "unocc",
				"energy": 0.00441,
				"method": "rhf"
			},
			{
				"type": "unocc",
				"energy": 0.0127,
				"method": "rhf"
			},
			{
				"type": "unocc",
				"energy": 0.09451,
				"method": "rhf"
			}
		],
		"cosmo_sigma_profile": { 
			"-0.025": 0.0,
			"-0.024": 0.0,
			"-0.023": 0.0,
			"-0.022": 0.0,
			"-0.021": 0.0,
			"-0.02": 0.0,
			"-0.019": 0.0,
			"-0.018": 0.0,
			"-0.017": 0.0,
			"-0.016": 0.0,
			"-0.015": 0.0,
			"-0.014": 0.0,
			"-0.013": 0.0,
			"-0.012": 0.0,
			"-0.011": 0.0,
			"-0.01": 0.0503902063102,
			"-0.009": 1.03469160594,
			"-0.008": 2.37366163293,
			"-0.007": 4.10007055124,
			"-0.006": 12.5024387878,
			"-0.005": 18.8982079186,
			"-0.004": 22.8231300063,
			"-0.003": 20.0777606368,
			"-0.002": 16.7084038644,
			"-0.001": 17.0871445565,
			"0.0": 18.9676029855,
			"0.001": 18.1819000872,
			"0.002": 38.7723598767,
			"0.003": 18.5715116523,
			"0.004": 8.87307837616,
			"0.005": 7.22134138332,
			"0.006": 5.95318971866,
			"0.007": 3.43493684437,
			"0.008": 3.89884295933,
			"0.009": 4.11045511607,
			"0.01": 4.03972159386,
			"0.011": 3.46716978345,
			"0.012": 0.209384312229,
			"0.013": 0.0,
			"0.014": 0.0,
			"0.015": 0.0,
			"0.016": 0.0,
			"0.017": 0.0,
			"0.018": 0.0,
			"0.019": 0.0,
			"0.02": 0.0,
			"0.021": 0.0,
			"0.022": 0.0,
			"0.023": 0.0,
			"0.024": 0.0,
			"0.025": 0.0
		}
	}
}
