{
	 "smiles": "NC(C(O)=O)C1=CC(F)=CC=C1", 
	 "Tm": 547.15, 
	 "num_atms": 20, 
	 "gaussian": { 
		 "optdone": 1, 
		 "sigma_profile": "yes", 
		 "theory": "DFT", 
		 "functional": "B3LYP", 
		 "basiset": "6-31G**", 
		 "properties": { 
			 "R2extent": 2483.1771, 
			 "electric_dipole_moment_norm": 5.77319164501, 
			 "electric_quadrupole_moment_norm": 8.43553050377, 
			 "total_energy": -614.714333846, 
			 "HOMO_LUMO_gap": 0.22762, 
			 "cosmo_polarized_energy": -16.73, 
			 "cosmo_cavitation_energy": 24.8, 
			 "cosmo_dispersion_energy": -17.84, 
			 "cosmo_repulsion_energy": 1.43, 
			 "cosmo_total_nonelectrostatic_energy": 8.39, 
			 "SMD_solvation_energy": 5.5 
		},
		"coords": [
			{
				"x": -0.2497517935,
				"y": -1.6520209659,
				"z": -2.3505468713,
				"element": "N" 
			},
			{
				"x": -0.3093954387,
				"y": -1.1812649667,
				"z": -0.9460928563,
				"element": "C" 
			},
			{
				"x": 0.4228296574,
				"y": -2.2161632084,
				"z": -0.0528436082,
				"element": "C" 
			},
			{
				"x": 0.5585559769,
				"y": -3.4121797078,
				"z": -0.6426362332,
				"element": "O" 
			},
			{
				"x": 0.7873218532,
				"y": -1.9826097536,
				"z": 1.0739683338,
				"element": "O" 
			},
			{
				"x": 0.1606804756,
				"y": 0.2470853519,
				"z": -0.7420844029,
				"element": "C" 
			},
			{
				"x": 1.5250467263,
				"y": 0.5468469189,
				"z": -0.634402932,
				"element": "C" 
			},
			{
				"x": 1.9198182701,
				"y": 1.8752480559,
				"z": -0.543855943,
				"element": "C" 
			},
			{
				"x": 3.2349540782,
				"y": 2.1540659589,
				"z": -0.4385736835,
				"element": "F" 
			},
			{
				"x": 1.0092441482,
				"y": 2.9267401782,
				"z": -0.5538752846,
				"element": "C" 
			},
			{
				"x": -0.3477547985,
				"y": 2.6219766574,
				"z": -0.6543007544,
				"element": "C" 
			},
			{
				"x": -0.7692580825,
				"y": 1.2944107361,
				"z": -0.7490280231,
				"element": "C" 
			},
			{
				"x": 0.5814591418,
				"y": -1.2778745543,
				"z": -2.8042557898,
				"element": "H" 
			},
			{
				"x": -1.0480038223,
				"y": -1.3144750919,
				"z": -2.8805484129,
				"element": "H" 
			},
			{
				"x": -1.3604532659,
				"y": -1.2465797422,
				"z": -0.638920274,
				"element": "H" 
			},
			{
				"x": 0.2139501604,
				"y": -3.2822522623,
				"z": -1.5587852925,
				"element": "H" 
			},
			{
				"x": 2.2786797232,
				"y": -0.2315442019,
				"z": -0.5833344829,
				"element": "H" 
			},
			{
				"x": 1.3663574359,
				"y": 3.9475877577,
				"z": -0.4748482554,
				"element": "H" 
			},
			{
				"x": -1.0794424126,
				"y": 3.424228506,
				"z": -0.654675541,
				"element": "H" 
			},
			{
				"x": -1.8302380331,
				"y": 1.070174334,
				"z": -0.8222596928,
				"element": "H" 
			}
		],
		 "valence_orbital": [ 
			{
				"type": "occ",
				"energy": -0.30627,
				"method": "rhf"
			},
			{
				"type": "occ",
				"energy": -0.30471,
				"method": "rhf"
			},
			{
				"type": "occ",
				"energy": -0.26798,
				"method": "rhf"
			},
			{
				"type": "occ",
				"energy": -0.25458,
				"method": "rhf"
			},
			{
				"type": "occ",
				"energy": -0.25188,
				"method": "rhf"
			},
			{
				"type": "unocc",
				"energy": -0.02426,
				"method": "rhf"
			},
			{
				"type": "unocc",
				"energy": -0.01006,
				"method": "rhf"
			},
			{
				"type": "unocc",
				"energy": 0.009,
				"method": "rhf"
			},
			{
				"type": "unocc",
				"energy": 0.0669,
				"method": "rhf"
			},
			{
				"type": "unocc",
				"energy": 0.08386,
				"method": "rhf"
			}
		],
		"cosmo_sigma_profile": { 
			"-0.025": 0.0,
			"-0.024": 0.0,
			"-0.023": 0.0,
			"-0.022": 0.0,
			"-0.021": 0.0,
			"-0.02": 0.0,
			"-0.019": 0.0,
			"-0.018": 0.0,
			"-0.017": 0.0,
			"-0.016": 0.0,
			"-0.015": 0.0,
			"-0.014": 0.0,
			"-0.013": 0.0911658952798,
			"-0.012": 1.78740542798,
			"-0.011": 3.19235508201,
			"-0.01": 4.45417720243,
			"-0.009": 6.07464734422,
			"-0.008": 8.0998506649,
			"-0.007": 9.96490559914,
			"-0.006": 12.104438811,
			"-0.005": 11.7454284415,
			"-0.004": 9.86884821431,
			"-0.003": 8.00853931719,
			"-0.002": 8.98359606483,
			"-0.001": 5.67633096324,
			"0.0": 9.72729697934,
			"0.001": 13.8772243276,
			"0.002": 12.7572621919,
			"0.003": 11.4212545729,
			"0.004": 18.6187475307,
			"0.005": 8.47228323019,
			"0.006": 4.05348270375,
			"0.007": 2.44429073574,
			"0.008": 3.05873163673,
			"0.009": 2.97893688186,
			"0.01": 5.16915533133,
			"0.011": 5.13040947393,
			"0.012": 5.79758226858,
			"0.013": 3.16919083179,
			"0.014": 0.418513106635,
			"0.015": 0.0,
			"0.016": 0.0,
			"0.017": 0.0,
			"0.018": 0.0,
			"0.019": 0.0,
			"0.02": 0.0,
			"0.021": 0.0,
			"0.022": 0.0,
			"0.023": 0.0,
			"0.024": 0.0,
			"0.025": 0.0
		}
	}
}
