{
	 "smiles": "OC(=O)CC1=CC(OC(F)(F)F)=C(Cl)C=C1", 
	 "Tm": 335.15, 
	 "num_atms": 22, 
	 "gaussian": { 
		 "optdone": 1, 
		 "sigma_profile": "yes", 
		 "theory": "DFT", 
		 "functional": "B3LYP", 
		 "basiset": "6-31G**", 
		 "properties": { 
			 "R2extent": 5939.3683, 
			 "electric_dipole_moment_norm": 4.16703439991, 
			 "electric_quadrupole_moment_norm": 18.4598874953, 
			 "total_energy": -1331.96360271, 
			 "HOMO_LUMO_gap": 0.22512, 
			 "cosmo_polarized_energy": -17.24, 
			 "cosmo_cavitation_energy": 30.72, 
			 "cosmo_dispersion_energy": -21.57, 
			 "cosmo_repulsion_energy": 1.65, 
			 "cosmo_total_nonelectrostatic_energy": 10.79, 
			 "SMD_solvation_energy": 7.55 
		},
		"coords": [
			{
				"x": -0.2572353184,
				"y": -2.6219373301,
				"z": 3.3556408659,
				"element": "O" 
			},
			{
				"x": 0.1363165585,
				"y": -1.8017302654,
				"z": 2.3461858268,
				"element": "C" 
			},
			{
				"x": 1.2769321742,
				"y": -1.8175244848,
				"z": 1.9639736148,
				"element": "O" 
			},
			{
				"x": -0.9610966092,
				"y": -0.8678370503,
				"z": 1.8197512516,
				"element": "C" 
			},
			{
				"x": -0.6416632528,
				"y": -0.1857206086,
				"z": 0.5103193643,
				"element": "C" 
			},
			{
				"x": -1.5107844193,
				"y": -0.317940648,
				"z": -0.5746871936,
				"element": "C" 
			},
			{
				"x": -1.2466777986,
				"y": 0.3301006213,
				"z": -1.7801031921,
				"element": "C" 
			},
			{
				"x": -2.0857485529,
				"y": 0.1305998137,
				"z": -2.8767046476,
				"element": "O" 
			},
			{
				"x": -3.2774049743,
				"y": 0.7867605967,
				"z": -2.8873781307,
				"element": "C" 
			},
			{
				"x": -3.1351955734,
				"y": 2.1105178565,
				"z": -2.7155823263,
				"element": "F" 
			},
			{
				"x": -4.1086771949,
				"y": 0.3484342526,
				"z": -1.9152986317,
				"element": "F" 
			},
			{
				"x": -3.8521576028,
				"y": 0.5563493103,
				"z": -4.0643382582,
				"element": "F" 
			},
			{
				"x": -0.096874655,
				"y": 1.1097910786,
				"z": -1.9250629964,
				"element": "C" 
			},
			{
				"x": 0.2477210468,
				"y": 1.9140753411,
				"z": -3.4342072841,
				"element": "Cl" 
			},
			{
				"x": 0.7821951048,
				"y": 1.2370533687,
				"z": -0.8477572505,
				"element": "C" 
			},
			{
				"x": 0.5095197778,
				"y": 0.5990219043,
				"z": 0.3587414411,
				"element": "C" 
			},
			{
				"x": -1.1991498987,
				"y": -2.5068037211,
				"z": 3.5452840168,
				"element": "H" 
			},
			{
				"x": -1.1309836668,
				"y": -0.1193989138,
				"z": 2.6080801962,
				"element": "H" 
			},
			{
				"x": -1.8988144697,
				"y": -1.4287861597,
				"z": 1.7295444509,
				"element": "H" 
			},
			{
				"x": -2.4053067525,
				"y": -0.9268983367,
				"z": -0.5044537724,
				"element": "H" 
			},
			{
				"x": 1.6770519773,
				"y": 1.8380535174,
				"z": -0.9639597867,
				"element": "H" 
			},
			{
				"x": 1.2099340998,
				"y": 0.6940198573,
				"z": 1.1803124419,
				"element": "H" 
			}
		],
		 "valence_orbital": [ 
			{
				"type": "occ",
				"energy": -0.33035,
				"method": "rhf"
			},
			{
				"type": "occ",
				"energy": -0.32112,
				"method": "rhf"
			},
			{
				"type": "occ",
				"energy": -0.28997,
				"method": "rhf"
			},
			{
				"type": "occ",
				"energy": -0.27208,
				"method": "rhf"
			},
			{
				"type": "occ",
				"energy": -0.25622,
				"method": "rhf"
			},
			{
				"type": "unocc",
				"energy": -0.0311,
				"method": "rhf"
			},
			{
				"type": "unocc",
				"energy": -0.02798,
				"method": "rhf"
			},
			{
				"type": "unocc",
				"energy": -0.0038,
				"method": "rhf"
			},
			{
				"type": "unocc",
				"energy": 0.01719,
				"method": "rhf"
			},
			{
				"type": "unocc",
				"energy": 0.04062,
				"method": "rhf"
			}
		],
		"cosmo_sigma_profile": { 
			"-0.025": 0.0,
			"-0.024": 0.0,
			"-0.023": 0.0,
			"-0.022": 0.0,
			"-0.021": 0.0,
			"-0.02": 0.0965826891971,
			"-0.019": 0.818147555727,
			"-0.018": 1.46536578714,
			"-0.017": 0.96896902791,
			"-0.016": 1.55476921497,
			"-0.015": 1.27470979505,
			"-0.014": 0.743260519132,
			"-0.013": 0.79643621256,
			"-0.012": 1.56478031471,
			"-0.011": 1.7223547747,
			"-0.01": 1.24334742117,
			"-0.009": 3.73347909299,
			"-0.008": 8.27588285042,
			"-0.007": 8.44088009661,
			"-0.006": 9.15942900864,
			"-0.005": 8.20434259527,
			"-0.004": 6.48378903946,
			"-0.003": 8.39013180395,
			"-0.002": 10.2674342211,
			"-0.001": 13.7552693238,
			"0.0": 22.3190124861,
			"0.001": 33.5178135443,
			"0.002": 38.7866344106,
			"0.003": 17.7893421082,
			"0.004": 11.7566826843,
			"0.005": 5.38403075832,
			"0.006": 4.74779252296,
			"0.007": 2.74415727185,
			"0.008": 3.40714407257,
			"0.009": 3.82570838836,
			"0.01": 5.16514761601,
			"0.011": 5.67039556687,
			"0.012": 3.43846096156,
			"0.013": 0.730130850545,
			"0.014": 0.0,
			"0.015": 0.0,
			"0.016": 0.0,
			"0.017": 0.0,
			"0.018": 0.0,
			"0.019": 0.0,
			"0.02": 0.0,
			"0.021": 0.0,
			"0.022": 0.0,
			"0.023": 0.0,
			"0.024": 0.0,
			"0.025": 0.0
		}
	}
}
