{
	 "smiles": "OC(=O)CC1=CC=C2C=CC=CC2=C1", 
	 "Tm": 415.15, 
	 "num_atms": 24, 
	 "gaussian": { 
		 "optdone": 1, 
		 "sigma_profile": "yes", 
		 "theory": "DFT", 
		 "functional": "B3LYP", 
		 "basiset": "6-31G**", 
		 "properties": { 
			 "R2extent": 3618.4378, 
			 "electric_dipole_moment_norm": 1.57990152225, 
			 "electric_quadrupole_moment_norm": 13.5946383427, 
			 "total_energy": -613.78108899, 
			 "HOMO_LUMO_gap": 0.17583, 
			 "cosmo_polarized_energy": -10.97, 
			 "cosmo_cavitation_energy": 28.45, 
			 "cosmo_dispersion_energy": -20.6, 
			 "cosmo_repulsion_energy": 1.61, 
			 "cosmo_total_nonelectrostatic_energy": 9.46, 
			 "SMD_solvation_energy": 5.69 
		},
		"coords": [
			{
				"x": -3.1632080759,
				"y": -1.0514104151,
				"z": 3.4719029669,
				"element": "O" 
			},
			{
				"x": -3.4046005112,
				"y": -1.4725813625,
				"z": 2.2050755871,
				"element": "C" 
			},
			{
				"x": -4.4474558244,
				"y": -1.2549168969,
				"z": 1.6320870964,
				"element": "O" 
			},
			{
				"x": -2.2105311187,
				"y": -2.2112121615,
				"z": 1.6230169681,
				"element": "C" 
			},
			{
				"x": -1.1181891931,
				"y": -1.253240296,
				"z": 1.1767802616,
				"element": "C" 
			},
			{
				"x": -0.2397500525,
				"y": -0.6749602629,
				"z": 2.1347162848,
				"element": "C" 
			},
			{
				"x": 0.748025917,
				"y": 0.1988192763,
				"z": 1.7465846963,
				"element": "C" 
			},
			{
				"x": 0.9189641776,
				"y": 0.5523914818,
				"z": 0.3805238554,
				"element": "C" 
			},
			{
				"x": 1.930182089,
				"y": 1.4498210473,
				"z": -0.0550344834,
				"element": "C" 
			},
			{
				"x": 2.0633547443,
				"y": 1.7680265714,
				"z": -1.3882446008,
				"element": "C" 
			},
			{
				"x": 1.1894715787,
				"y": 1.2011859401,
				"z": -2.3485609305,
				"element": "C" 
			},
			{
				"x": 0.1999497753,
				"y": 0.3268631058,
				"z": -1.9580412424,
				"element": "C" 
			},
			{
				"x": 0.035844178,
				"y": -0.0217487241,
				"z": -0.5901940182,
				"element": "C" 
			},
			{
				"x": -0.9737861949,
				"y": -0.9214883289,
				"z": -0.1544417917,
				"element": "C" 
			},
			{
				"x": -3.9524013474,
				"y": -0.5546602361,
				"z": 3.7467543281,
				"element": "H" 
			},
			{
				"x": -1.8223069139,
				"y": -2.8984295669,
				"z": 2.3822601379,
				"element": "H" 
			},
			{
				"x": -2.5777079871,
				"y": -2.7933008951,
				"z": 0.776167183,
				"element": "H" 
			},
			{
				"x": -0.3624825599,
				"y": -0.9285525056,
				"z": 3.1834824135,
				"element": "H" 
			},
			{
				"x": 1.4162753834,
				"y": 0.6313093154,
				"z": 2.4870015888,
				"element": "H" 
			},
			{
				"x": 2.5990023362,
				"y": 1.8831796535,
				"z": 0.6843757462,
				"element": "H" 
			},
			{
				"x": 2.8400128421,
				"y": 2.4561716553,
				"z": -1.7092350769,
				"element": "H" 
			},
			{
				"x": 1.3038812212,
				"y": 1.4602218547,
				"z": -3.3971878501,
				"element": "H" 
			},
			{
				"x": -0.4718120594,
				"y": -0.1087761061,
				"z": -2.693320732,
				"element": "H" 
			},
			{
				"x": -1.6412324045,
				"y": -1.3534121439,
				"z": -0.8965683881,
				"element": "H" 
			}
		],
		 "valence_orbital": [ 
			{
				"type": "occ",
				"energy": -0.31905,
				"method": "rhf"
			},
			{
				"type": "occ",
				"energy": -0.28592,
				"method": "rhf"
			},
			{
				"type": "occ",
				"energy": -0.2766,
				"method": "rhf"
			},
			{
				"type": "occ",
				"energy": -0.24003,
				"method": "rhf"
			},
			{
				"type": "occ",
				"energy": -0.21605,
				"method": "rhf"
			},
			{
				"type": "unocc",
				"energy": -0.04022,
				"method": "rhf"
			},
			{
				"type": "unocc",
				"energy": -0.01545,
				"method": "rhf"
			},
			{
				"type": "unocc",
				"energy": 0.01294,
				"method": "rhf"
			},
			{
				"type": "unocc",
				"energy": 0.03177,
				"method": "rhf"
			},
			{
				"type": "unocc",
				"energy": 0.07554,
				"method": "rhf"
			}
		],
		"cosmo_sigma_profile": { 
			"-0.025": 0.0,
			"-0.024": 0.0,
			"-0.023": 0.0,
			"-0.022": 0.0,
			"-0.021": 0.0,
			"-0.02": 0.0,
			"-0.019": 0.00973522719947,
			"-0.018": 0.841070276772,
			"-0.017": 0.96991365475,
			"-0.016": 0.759124726345,
			"-0.015": 0.784138042244,
			"-0.014": 0.817248017083,
			"-0.013": 0.255700572286,
			"-0.012": 0.835366772218,
			"-0.011": 1.07923114647,
			"-0.01": 0.593423333042,
			"-0.009": 0.309059780368,
			"-0.008": 0.476209960354,
			"-0.007": 2.08327594931,
			"-0.006": 16.2293613985,
			"-0.005": 20.3339297022,
			"-0.004": 18.7767934258,
			"-0.003": 18.0541656466,
			"-0.002": 13.2408049005,
			"-0.001": 12.3562203963,
			"0.0": 11.5410327671,
			"0.001": 10.4941052679,
			"0.002": 14.3517557546,
			"0.003": 15.1051539665,
			"0.004": 27.3492029758,
			"0.005": 17.4145538073,
			"0.006": 4.03477019749,
			"0.007": 1.95973727214,
			"0.008": 2.83598189802,
			"0.009": 2.04835778469,
			"0.01": 1.7259007788,
			"0.011": 4.43687925906,
			"0.012": 4.14344785702,
			"0.013": 0.736775266134,
			"0.014": 0.0,
			"0.015": 0.0,
			"0.016": 0.0,
			"0.017": 0.0,
			"0.018": 0.0,
			"0.019": 0.0,
			"0.02": 0.0,
			"0.021": 0.0,
			"0.022": 0.0,
			"0.023": 0.0,
			"0.024": 0.0,
			"0.025": 0.0
		}
	}
}
