{
	 "smiles": "COC1=CC(O)=C(C=C1)C(N)=O", 
	 "Tm": 419.15, 
	 "num_atms": 21, 
	 "gaussian": { 
		 "optdone": 1, 
		 "sigma_profile": "yes", 
		 "theory": "DFT", 
		 "functional": "B3LYP", 
		 "basiset": "6-31G**", 
		 "properties": { 
			 "R2extent": 3739.7649, 
			 "electric_dipole_moment_norm": 5.42021126526, 
			 "electric_quadrupole_moment_norm": 20.7353743012, 
			 "total_energy": -590.71624944, 
			 "HOMO_LUMO_gap": 0.18448, 
			 "cosmo_polarized_energy": -15.11, 
			 "cosmo_cavitation_energy": 24.73, 
			 "cosmo_dispersion_energy": -18.95, 
			 "cosmo_repulsion_energy": 1.5, 
			 "cosmo_total_nonelectrostatic_energy": 7.28, 
			 "SMD_solvation_energy": 5.98 
		},
		"coords": [
			{
				"x": 1.3620742751,
				"y": 1.7987672046,
				"z": 1.1187209447,
				"element": "C" 
			},
			{
				"x": 1.1851200403,
				"y": 1.3944867912,
				"z": -0.231369439,
				"element": "O" 
			},
			{
				"x": 0.9725730112,
				"y": 0.0781940541,
				"z": -0.4969998145,
				"element": "C" 
			},
			{
				"x": 0.7977229952,
				"y": -0.2441204442,
				"z": -1.8423012841,
				"element": "C" 
			},
			{
				"x": 0.5682139343,
				"y": -1.566121568,
				"z": -2.2336970838,
				"element": "C" 
			},
			{
				"x": 0.3870823467,
				"y": -1.8162988363,
				"z": -3.5360612132,
				"element": "O" 
			},
			{
				"x": 0.5355363438,
				"y": -2.6015303705,
				"z": -1.2519612579,
				"element": "C" 
			},
			{
				"x": 0.6980188157,
				"y": -2.2375628129,
				"z": 0.0946553014,
				"element": "C" 
			},
			{
				"x": 0.9150989359,
				"y": -0.9258105161,
				"z": 0.4903248353,
				"element": "C" 
			},
			{
				"x": 0.3329784462,
				"y": -3.9911193755,
				"z": -1.7041243608,
				"element": "C" 
			},
			{
				"x": 0.422634065,
				"y": -5.0038648324,
				"z": -0.7901922005,
				"element": "N" 
			},
			{
				"x": 0.0661218994,
				"y": -4.2643353132,
				"z": -2.8912760194,
				"element": "O" 
			},
			{
				"x": 1.5176983477,
				"y": 2.8781053435,
				"z": 1.0894054311,
				"element": "H" 
			},
			{
				"x": 0.4755924209,
				"y": 1.5790157171,
				"z": 1.7266161416,
				"element": "H" 
			},
			{
				"x": 2.23877277,
				"y": 1.3204536124,
				"z": 1.5729692369,
				"element": "H" 
			},
			{
				"x": 0.8289849645,
				"y": 0.5355877874,
				"z": -2.5940927224,
				"element": "H" 
			},
			{
				"x": 0.2012970059,
				"y": -2.7930000871,
				"z": -3.6037366556,
				"element": "H" 
			},
			{
				"x": 0.6262769336,
				"y": -2.9946704299,
				"z": 0.8705310348,
				"element": "H" 
			},
			{
				"x": 1.0273972104,
				"y": -0.6915615051,
				"z": 1.5409410688,
				"element": "H" 
			},
			{
				"x": 0.9122200892,
				"y": -4.8783131973,
				"z": 0.0802833378,
				"element": "H" 
			},
			{
				"x": 0.3943851491,
				"y": -5.9363012219,
				"z": -1.1758352812,
				"element": "H" 
			}
		],
		 "valence_orbital": [ 
			{
				"type": "occ",
				"energy": -0.31142,
				"method": "rhf"
			},
			{
				"type": "occ",
				"energy": -0.28139,
				"method": "rhf"
			},
			{
				"type": "occ",
				"energy": -0.26495,
				"method": "rhf"
			},
			{
				"type": "occ",
				"energy": -0.23087,
				"method": "rhf"
			},
			{
				"type": "occ",
				"energy": -0.21976,
				"method": "rhf"
			},
			{
				"type": "unocc",
				"energy": -0.03528,
				"method": "rhf"
			},
			{
				"type": "unocc",
				"energy": 0.00971,
				"method": "rhf"
			},
			{
				"type": "unocc",
				"energy": 0.05826,
				"method": "rhf"
			},
			{
				"type": "unocc",
				"energy": 0.07179,
				"method": "rhf"
			},
			{
				"type": "unocc",
				"energy": 0.09447,
				"method": "rhf"
			}
		],
		"cosmo_sigma_profile": { 
			"-0.025": 0.0,
			"-0.024": 0.0,
			"-0.023": 0.0,
			"-0.022": 0.0,
			"-0.021": 0.0,
			"-0.02": 0.0,
			"-0.019": 0.0,
			"-0.018": 0.0,
			"-0.017": 0.0,
			"-0.016": 0.0233610803987,
			"-0.015": 0.789758407682,
			"-0.014": 2.151743811,
			"-0.013": 2.57308903637,
			"-0.012": 2.02383347371,
			"-0.011": 3.24916165614,
			"-0.01": 2.12719882917,
			"-0.009": 1.97557591101,
			"-0.008": 2.23540626677,
			"-0.007": 4.40363383501,
			"-0.006": 11.2501724058,
			"-0.005": 13.6242055731,
			"-0.004": 14.7971957484,
			"-0.003": 11.1943950357,
			"-0.002": 9.47084010715,
			"-0.001": 9.51454300665,
			"0.0": 11.8645155903,
			"0.001": 9.97271566902,
			"0.002": 11.2366519308,
			"0.003": 16.0334624568,
			"0.004": 16.6984591267,
			"0.005": 7.88718176516,
			"0.006": 4.93888952681,
			"0.007": 5.16156651915,
			"0.008": 3.94555660411,
			"0.009": 4.18033603191,
			"0.01": 3.93797168495,
			"0.011": 3.84935080855,
			"0.012": 3.32724111451,
			"0.013": 1.98736650887,
			"0.014": 0.391909053352,
			"0.015": 0.0,
			"0.016": 0.0,
			"0.017": 0.0,
			"0.018": 0.0,
			"0.019": 0.0,
			"0.02": 0.0,
			"0.021": 0.0,
			"0.022": 0.0,
			"0.023": 0.0,
			"0.024": 0.0,
			"0.025": 0.0
		}
	}
}
