{
	 "smiles": "O=C1NN(C(=O)C1=CC1=CC=CC=C1)C1=CC=CC=C1", 
	 "Tm": 548.15, 
	 "num_atms": 32, 
	 "gaussian": { 
		 "optdone": 1, 
		 "sigma_profile": "yes", 
		 "theory": "DFT", 
		 "functional": "B3LYP", 
		 "basiset": "6-31G**", 
		 "properties": { 
			 "R2extent": 8112.8734, 
			 "electric_dipole_moment_norm": 1.20674990781, 
			 "electric_quadrupole_moment_norm": 20.2915778241, 
			 "total_energy": -876.866184902, 
			 "HOMO_LUMO_gap": 0.11912, 
			 "cosmo_polarized_energy": -14.42, 
			 "cosmo_cavitation_energy": 36.83, 
			 "cosmo_dispersion_energy": -27.09, 
			 "cosmo_repulsion_energy": 2.01, 
			 "cosmo_total_nonelectrostatic_energy": 11.75, 
			 "SMD_solvation_energy": 7.38 
		},
		"coords": [
			{
				"x": 0.1073777933,
				"y": -2.1149171545,
				"z": 0.5555912328,
				"element": "O" 
			},
			{
				"x": -0.2286489017,
				"y": -1.0259433872,
				"z": 0.1121490292,
				"element": "C" 
			},
			{
				"x": -0.8535215235,
				"y": -0.0579218569,
				"z": 0.9134850386,
				"element": "N" 
			},
			{
				"x": -1.3800462897,
				"y": 0.9796867559,
				"z": 0.0976725659,
				"element": "N" 
			},
			{
				"x": -0.9151718696,
				"y": 0.8345695782,
				"z": -1.2095570026,
				"element": "C" 
			},
			{
				"x": -1.0992310937,
				"y": 1.6240588312,
				"z": -2.1250387892,
				"element": "O" 
			},
			{
				"x": -0.1498597426,
				"y": -0.4413078757,
				"z": -1.2404020417,
				"element": "C" 
			},
			{
				"x": 0.4350830858,
				"y": -0.8291602825,
				"z": -2.4053427018,
				"element": "C" 
			},
			{
				"x": 1.2541428622,
				"y": -1.962321045,
				"z": -2.7915830421,
				"element": "C" 
			},
			{
				"x": 1.5992047983,
				"y": -3.0336120641,
				"z": -1.9373053224,
				"element": "C" 
			},
			{
				"x": 2.3963444949,
				"y": -4.0710852969,
				"z": -2.4102958662,
				"element": "C" 
			},
			{
				"x": 2.8627015369,
				"y": -4.068343057,
				"z": -3.7286746856,
				"element": "C" 
			},
			{
				"x": 2.5273060814,
				"y": -3.0173434607,
				"z": -4.5866175706,
				"element": "C" 
			},
			{
				"x": 1.7306018925,
				"y": -1.9773221512,
				"z": -4.1223948928,
				"element": "C" 
			},
			{
				"x": -1.8470420885,
				"y": 2.1614323117,
				"z": 0.7206870017,
				"element": "C" 
			},
			{
				"x": -1.6521326036,
				"y": 2.3554485476,
				"z": 2.0962347627,
				"element": "C" 
			},
			{
				"x": -2.146864117,
				"y": 3.5061309643,
				"z": 2.7097509588,
				"element": "C" 
			},
			{
				"x": -2.8311465359,
				"y": 4.4688333368,
				"z": 1.9684878381,
				"element": "C" 
			},
			{
				"x": -3.0168034016,
				"y": 4.2699961419,
				"z": 0.5983100618,
				"element": "C" 
			},
			{
				"x": -2.539037664,
				"y": 3.1242375909,
				"z": -0.0330279371,
				"element": "C" 
			},
			{
				"x": -1.5219938355,
				"y": -0.4268253896,
				"z": 1.5843443349,
				"element": "H" 
			},
			{
				"x": 0.2465219462,
				"y": -0.115800753,
				"z": -3.2099577726,
				"element": "H" 
			},
			{
				"x": 1.2301896302,
				"y": -3.0388752338,
				"z": -0.9181124002,
				"element": "H" 
			},
			{
				"x": 2.6553387145,
				"y": -4.8906072909,
				"z": -1.7464650297,
				"element": "H" 
			},
			{
				"x": 3.4841469098,
				"y": -4.8840896942,
				"z": -4.0871594392,
				"element": "H" 
			},
			{
				"x": 2.8857443535,
				"y": -3.0114114218,
				"z": -5.6114872759,
				"element": "H" 
			},
			{
				"x": 1.4684908058,
				"y": -1.158214634,
				"z": -4.7867038214,
				"element": "H" 
			},
			{
				"x": -1.0958295563,
				"y": 1.6275473362,
				"z": 2.6751637107,
				"element": "H" 
			},
			{
				"x": -1.9867208868,
				"y": 3.6477252098,
				"z": 3.7747007812,
				"element": "H" 
			},
			{
				"x": -3.21476666,
				"y": 5.3626245698,
				"z": 2.4507507043,
				"element": "H" 
			},
			{
				"x": -3.5465757592,
				"y": 5.0123018587,
				"z": 0.0082808993,
				"element": "H" 
			},
			{
				"x": -2.6774023764,
				"y": 2.9725090162,
				"z": -1.0944833288,
				"element": "H" 
			}
		],
		 "valence_orbital": [ 
			{
				"type": "occ",
				"energy": -0.26503,
				"method": "rhf"
			},
			{
				"type": "occ",
				"energy": -0.25927,
				"method": "rhf"
			},
			{
				"type": "occ",
				"energy": -0.25307,
				"method": "rhf"
			},
			{
				"type": "occ",
				"energy": -0.2474,
				"method": "rhf"
			},
			{
				"type": "occ",
				"energy": -0.21423,
				"method": "rhf"
			},
			{
				"type": "unocc",
				"energy": -0.09511,
				"method": "rhf"
			},
			{
				"type": "unocc",
				"energy": -0.01326,
				"method": "rhf"
			},
			{
				"type": "unocc",
				"energy": -0.00964,
				"method": "rhf"
			},
			{
				"type": "unocc",
				"energy": -0.00481,
				"method": "rhf"
			},
			{
				"type": "unocc",
				"energy": 0.00473,
				"method": "rhf"
			}
		],
		"cosmo_sigma_profile": { 
			"-0.025": 0.0,
			"-0.024": 0.0,
			"-0.023": 0.0,
			"-0.022": 0.0,
			"-0.021": 0.0,
			"-0.02": 0.0,
			"-0.019": 0.0,
			"-0.018": 0.0,
			"-0.017": 0.0,
			"-0.016": 0.848053878213,
			"-0.015": 1.44927569082,
			"-0.014": 0.68229097364,
			"-0.013": 0.876542639174,
			"-0.012": 1.09599755867,
			"-0.011": 1.57435967806,
			"-0.01": 1.41629864398,
			"-0.009": 1.65757384746,
			"-0.008": 3.16518242738,
			"-0.007": 7.35152373212,
			"-0.006": 17.196239384,
			"-0.005": 20.8320170295,
			"-0.004": 21.1472315783,
			"-0.003": 18.4523677913,
			"-0.002": 17.9805068082,
			"-0.001": 21.9831666803,
			"0.0": 22.0521880489,
			"0.001": 21.8131203139,
			"0.002": 23.5376854238,
			"0.003": 26.6456014003,
			"0.004": 18.3404396955,
			"0.005": 15.2986574923,
			"0.006": 5.9412227413,
			"0.007": 2.95959655767,
			"0.008": 2.65934200067,
			"0.009": 3.61941845429,
			"0.01": 3.65514150957,
			"0.011": 4.99930215881,
			"0.012": 6.19030318938,
			"0.013": 1.69705580962,
			"0.014": 0.0,
			"0.015": 0.0,
			"0.016": 0.0,
			"0.017": 0.0,
			"0.018": 0.0,
			"0.019": 0.0,
			"0.02": 0.0,
			"0.021": 0.0,
			"0.022": 0.0,
			"0.023": 0.0,
			"0.024": 0.0,
			"0.025": 0.0
		}
	}
}
