{
	 "smiles": "O=C(CNC1=CC=C(NCC(=O)C2=CC=CC=C2)C=C1)C1=CC=CC=C1", 
	 "Tm": 424.15, 
	 "num_atms": 46, 
	 "gaussian": { 
		 "optdone": 1, 
		 "sigma_profile": "yes", 
		 "theory": "DFT", 
		 "functional": "B3LYP", 
		 "basiset": "6-31G**", 
		 "properties": { 
			 "R2extent": 17498.0841, 
			 "electric_dipole_moment_norm": 1.23666078615, 
			 "electric_quadrupole_moment_norm": 43.8822937271, 
			 "total_energy": -1110.339817, 
			 "HOMO_LUMO_gap": 0.1029, 
			 "cosmo_polarized_energy": -19.45, 
			 "cosmo_cavitation_energy": 50.58, 
			 "cosmo_dispersion_energy": -35.83, 
			 "cosmo_repulsion_energy": 2.67, 
			 "cosmo_total_nonelectrostatic_energy": 17.42, 
			 "SMD_solvation_energy": 7.75 
		},
		"coords": [
			{
				"x": -0.7272633319,
				"y": -3.6015545894,
				"z": -2.7748122193,
				"element": "O" 
			},
			{
				"x": -0.7112899555,
				"y": -2.4370966692,
				"z": -3.150209061,
				"element": "C" 
			},
			{
				"x": -1.0989293879,
				"y": -1.3208949356,
				"z": -2.1806592656,
				"element": "C" 
			},
			{
				"x": -1.583900148,
				"y": -1.8842836252,
				"z": -0.9534492054,
				"element": "N" 
			},
			{
				"x": -1.6103794991,
				"y": -1.153464999,
				"z": 0.2324444612,
				"element": "C" 
			},
			{
				"x": -1.7390856032,
				"y": -1.8261578633,
				"z": 1.4644103652,
				"element": "C" 
			},
			{
				"x": -1.7958173129,
				"y": -1.1266327379,
				"z": 2.6599640387,
				"element": "C" 
			},
			{
				"x": -1.7367081942,
				"y": 0.2788197858,
				"z": 2.6881886078,
				"element": "C" 
			},
			{
				"x": -1.7681429436,
				"y": 0.9394856869,
				"z": 3.9379045122,
				"element": "N" 
			},
			{
				"x": -2.032486313,
				"y": 2.3673280499,
				"z": 4.0015892259,
				"element": "C" 
			},
			{
				"x": -0.8261474882,
				"y": 3.2701378618,
				"z": 3.6751528833,
				"element": "C" 
			},
			{
				"x": -0.9558090505,
				"y": 4.1260312421,
				"z": 2.8104832882,
				"element": "O" 
			},
			{
				"x": 0.4508271154,
				"y": 3.1502787645,
				"z": 4.4461334883,
				"element": "C" 
			},
			{
				"x": 0.6437338439,
				"y": 2.2242320261,
				"z": 5.483668915,
				"element": "C" 
			},
			{
				"x": 1.8491178198,
				"y": 2.1962731612,
				"z": 6.1846311096,
				"element": "C" 
			},
			{
				"x": 2.8727597563,
				"y": 3.08721636,
				"z": 5.8566420884,
				"element": "C" 
			},
			{
				"x": 2.6907085134,
				"y": 4.0104143397,
				"z": 4.8221770209,
				"element": "C" 
			},
			{
				"x": 1.4884464177,
				"y": 4.0416474341,
				"z": 4.1234757524,
				"element": "C" 
			},
			{
				"x": -1.6158255024,
				"y": 0.9536112042,
				"z": 1.4680146332,
				"element": "C" 
			},
			{
				"x": -1.5498695261,
				"y": 0.2472947192,
				"z": 0.2623844617,
				"element": "C" 
			},
			{
				"x": -0.3013145574,
				"y": -2.0761106175,
				"z": -4.5400140611,
				"element": "C" 
			},
			{
				"x": 0.0369708749,
				"y": -3.1180503566,
				"z": -5.4186373575,
				"element": "C" 
			},
			{
				"x": 0.4308092886,
				"y": -2.8392888248,
				"z": -6.7236005758,
				"element": "C" 
			},
			{
				"x": 0.494219242,
				"y": -1.5146028953,
				"z": -7.1663534538,
				"element": "C" 
			},
			{
				"x": 0.1623893493,
				"y": -0.4710198172,
				"z": -6.2996409263,
				"element": "C" 
			},
			{
				"x": -0.2348368483,
				"y": -0.7487326813,
				"z": -4.9924543443,
				"element": "C" 
			},
			{
				"x": -0.2075666249,
				"y": -0.6814714784,
				"z": -2.0359277559,
				"element": "H" 
			},
			{
				"x": -1.8528699869,
				"y": -0.679428852,
				"z": -2.6628470013,
				"element": "H" 
			},
			{
				"x": -1.3710869098,
				"y": -2.8716840553,
				"z": -0.8766722646,
				"element": "H" 
			},
			{
				"x": -1.7930771141,
				"y": -2.9121945467,
				"z": 1.4752034036,
				"element": "H" 
			},
			{
				"x": -1.8816692888,
				"y": -1.6764810638,
				"z": 3.5949727417,
				"element": "H" 
			},
			{
				"x": -2.2955971434,
				"y": 0.4177671625,
				"z": 4.6251460946,
				"element": "H" 
			},
			{
				"x": -2.8363227129,
				"y": 2.6935288196,
				"z": 3.3257811171,
				"element": "H" 
			},
			{
				"x": -2.3434680664,
				"y": 2.6015861083,
				"z": 5.0269141774,
				"element": "H" 
			},
			{
				"x": -0.1352756743,
				"y": 1.5105416791,
				"z": 5.7214552185,
				"element": "H" 
			},
			{
				"x": 1.991339946,
				"y": 1.4750541671,
				"z": 6.9842121539,
				"element": "H" 
			},
			{
				"x": 3.8112175591,
				"y": 3.0613179787,
				"z": 6.4035491376,
				"element": "H" 
			},
			{
				"x": 3.4862799036,
				"y": 4.7038383885,
				"z": 4.5651452599,
				"element": "H" 
			},
			{
				"x": 1.3207541229,
				"y": 4.7522819477,
				"z": 3.3212377385,
				"element": "H" 
			},
			{
				"x": -1.5679052702,
				"y": 2.0362129535,
				"z": 1.4366934994,
				"element": "H" 
			},
			{
				"x": -1.4662519461,
				"y": 0.8105362975,
				"z": -0.6613569929,
				"element": "H" 
			},
			{
				"x": -0.0181255897,
				"y": -4.1371378903,
				"z": -5.0510569173,
				"element": "H" 
			},
			{
				"x": 0.689138446,
				"y": -3.6510293581,
				"z": -7.3972164224,
				"element": "H" 
			},
			{
				"x": 0.8019889324,
				"y": -1.2960560309,
				"z": -8.1849294256,
				"element": "H" 
			},
			{
				"x": 0.2125513071,
				"y": 0.5583081458,
				"z": -6.6417737939,
				"element": "H" 
			},
			{
				"x": -0.4885304486,
				"y": 0.0735296037,
				"z": -4.3312643502,
				"element": "H" 
			}
		],
		 "valence_orbital": [ 
			{
				"type": "occ",
				"energy": -0.25409,
				"method": "rhf"
			},
			{
				"type": "occ",
				"energy": -0.25397,
				"method": "rhf"
			},
			{
				"type": "occ",
				"energy": -0.23911,
				"method": "rhf"
			},
			{
				"type": "occ",
				"energy": -0.2352,
				"method": "rhf"
			},
			{
				"type": "occ",
				"energy": -0.16699,
				"method": "rhf"
			},
			{
				"type": "unocc",
				"energy": -0.06409,
				"method": "rhf"
			},
			{
				"type": "unocc",
				"energy": -0.05591,
				"method": "rhf"
			},
			{
				"type": "unocc",
				"energy": -0.01532,
				"method": "rhf"
			},
			{
				"type": "unocc",
				"energy": -0.00413,
				"method": "rhf"
			},
			{
				"type": "unocc",
				"energy": 0.01022,
				"method": "rhf"
			}
		],
		"cosmo_sigma_profile": { 
			"-0.025": 0.0,
			"-0.024": 0.0,
			"-0.023": 0.0,
			"-0.022": 0.0,
			"-0.021": 0.0,
			"-0.02": 0.0,
			"-0.019": 0.0,
			"-0.018": 0.0,
			"-0.017": 0.0,
			"-0.016": 0.0,
			"-0.015": 0.0,
			"-0.014": 0.0,
			"-0.013": 0.329593614842,
			"-0.012": 1.38702674729,
			"-0.011": 1.45404104496,
			"-0.01": 1.76887430816,
			"-0.009": 2.56652369816,
			"-0.008": 4.32382767284,
			"-0.007": 13.1939406292,
			"-0.006": 29.2227888298,
			"-0.005": 34.7021194506,
			"-0.004": 31.3872226974,
			"-0.003": 26.5244664336,
			"-0.002": 25.52839803,
			"-0.001": 22.2140039575,
			"0.0": 23.1529193325,
			"0.001": 24.6581312567,
			"0.002": 27.7635809285,
			"0.003": 31.148053155,
			"0.004": 34.7913322901,
			"0.005": 13.603216798,
			"0.006": 11.5469509238,
			"0.007": 13.976119636,
			"0.008": 8.58728809594,
			"0.009": 4.64124943371,
			"0.01": 5.15782898838,
			"0.011": 6.36884654497,
			"0.012": 3.38889400291,
			"0.013": 0.641599749191,
			"0.014": 0.0,
			"0.015": 0.0,
			"0.016": 0.0,
			"0.017": 0.0,
			"0.018": 0.0,
			"0.019": 0.0,
			"0.02": 0.0,
			"0.021": 0.0,
			"0.022": 0.0,
			"0.023": 0.0,
			"0.024": 0.0,
			"0.025": 0.0
		}
	}
}
