{
	 "smiles": "CC1=CC(Cl)=NN=C1Cl", 
	 "Tm": 360.15, 
	 "num_atms": 13, 
	 "gaussian": { 
		 "optdone": 1, 
		 "sigma_profile": "yes", 
		 "theory": "DFT", 
		 "functional": "B3LYP", 
		 "basiset": "6-31G**", 
		 "properties": { 
			 "R2extent": 2222.546, 
			 "electric_dipole_moment_norm": 4.8941139198, 
			 "electric_quadrupole_moment_norm": 6.0716667761, 
			 "total_energy": -1222.79014791, 
			 "HOMO_LUMO_gap": 0.19063, 
			 "cosmo_polarized_energy": -10.31, 
			 "cosmo_cavitation_energy": 21.16, 
			 "cosmo_dispersion_energy": -16.09, 
			 "cosmo_repulsion_energy": 1.32, 
			 "cosmo_total_nonelectrostatic_energy": 6.39, 
			 "SMD_solvation_energy": 1.53 
		},
		"coords": [
			{
				"x": -0.6023503905,
				"y": -1.8096527123,
				"z": -0.9124141391,
				"element": "C" 
			},
			{
				"x": 0.1251407767,
				"y": -0.4985737072,
				"z": -0.8499293919,
				"element": "C" 
			},
			{
				"x": 0.4441229232,
				"y": 0.2341003951,
				"z": -1.9817705191,
				"element": "C" 
			},
			{
				"x": 1.1251634065,
				"y": 1.4457475247,
				"z": -1.807065252,
				"element": "C" 
			},
			{
				"x": 1.5451637088,
				"y": 2.3987937712,
				"z": -3.2116667691,
				"element": "Cl" 
			},
			{
				"x": 1.4862142029,
				"y": 1.941195529,
				"z": -0.6357527404,
				"element": "N" 
			},
			{
				"x": 1.1858129645,
				"y": 1.2461100012,
				"z": 0.4671930166,
				"element": "N" 
			},
			{
				"x": 0.5445409832,
				"y": 0.0971782254,
				"z": 0.3623952561,
				"element": "C" 
			},
			{
				"x": 0.2112724663,
				"y": -0.7138125667,
				"z": 1.8798672574,
				"element": "Cl" 
			},
			{
				"x": -0.0032973551,
				"y": -2.6084537398,
				"z": -0.4633784546,
				"element": "H" 
			},
			{
				"x": -1.5392822106,
				"y": -1.7616604101,
				"z": -0.3481125311,
				"element": "H" 
			},
			{
				"x": -0.8287462517,
				"y": -2.0795680582,
				"z": -1.9462059232,
				"element": "H" 
			},
			{
				"x": 0.1778447759,
				"y": -0.1139042524,
				"z": -2.9737598096,
				"element": "H" 
			}
		],
		 "valence_orbital": [ 
			{
				"type": "occ",
				"energy": -0.33666,
				"method": "rhf"
			},
			{
				"type": "occ",
				"energy": -0.32442,
				"method": "rhf"
			},
			{
				"type": "occ",
				"energy": -0.3169,
				"method": "rhf"
			},
			{
				"type": "occ",
				"energy": -0.27864,
				"method": "rhf"
			},
			{
				"type": "occ",
				"energy": -0.26217,
				"method": "rhf"
			},
			{
				"type": "unocc",
				"energy": -0.07154,
				"method": "rhf"
			},
			{
				"type": "unocc",
				"energy": -0.05017,
				"method": "rhf"
			},
			{
				"type": "unocc",
				"energy": 0.01681,
				"method": "rhf"
			},
			{
				"type": "unocc",
				"energy": 0.01729,
				"method": "rhf"
			},
			{
				"type": "unocc",
				"energy": 0.08932,
				"method": "rhf"
			}
		],
		"cosmo_sigma_profile": { 
			"-0.025": 0.0,
			"-0.024": 0.0,
			"-0.023": 0.0,
			"-0.022": 0.0,
			"-0.021": 0.0,
			"-0.02": 0.0,
			"-0.019": 0.0,
			"-0.018": 0.0,
			"-0.017": 0.0,
			"-0.016": 0.0,
			"-0.015": 0.0,
			"-0.014": 0.0,
			"-0.013": 0.0,
			"-0.012": 0.0,
			"-0.011": 0.0,
			"-0.01": 1.31119126133,
			"-0.009": 2.95947154539,
			"-0.008": 2.45451594989,
			"-0.007": 3.10433522655,
			"-0.006": 7.99126019096,
			"-0.005": 10.2092387801,
			"-0.004": 14.2686521074,
			"-0.003": 21.9848398924,
			"-0.002": 17.5652813101,
			"-0.001": 8.91943254798,
			"0.0": 9.14071435121,
			"0.001": 10.6198832072,
			"0.002": 13.3063568281,
			"0.003": 16.5836282009,
			"0.004": 9.2609951198,
			"0.005": 3.67615276843,
			"0.006": 3.31259651618,
			"0.007": 2.69864320839,
			"0.008": 2.39151925747,
			"0.009": 2.24562822787,
			"0.01": 2.25777724712,
			"0.011": 3.01791601456,
			"0.012": 2.71835010374,
			"0.013": 1.8656705346,
			"0.014": 0.837778476426,
			"0.015": 0.0,
			"0.016": 0.0,
			"0.017": 0.0,
			"0.018": 0.0,
			"0.019": 0.0,
			"0.02": 0.0,
			"0.021": 0.0,
			"0.022": 0.0,
			"0.023": 0.0,
			"0.024": 0.0,
			"0.025": 0.0
		}
	}
}
