{
	 "smiles": "CCCCCCCCCCCCCC=CC(O)C(CO)NC(C)=O", 
	 "Tm": 367.65, 
	 "num_atms": 63, 
	 "gaussian": { 
		 "optdone": 1, 
		 "sigma_profile": "yes", 
		 "theory": "DFT", 
		 "functional": "B3LYP", 
		 "basiset": "6-31G**", 
		 "properties": { 
			 "R2extent": 10698.7053, 
			 "electric_dipole_moment_norm": 3.68586643003, 
			 "electric_quadrupole_moment_norm": 15.4156670222, 
			 "total_energy": -1066.08282452, 
			 "HOMO_LUMO_gap": 0.25142, 
			 "cosmo_polarized_energy": -16.82, 
			 "cosmo_cavitation_energy": 60.35, 
			 "cosmo_dispersion_energy": -35.85, 
			 "cosmo_repulsion_energy": 2.78, 
			 "cosmo_total_nonelectrostatic_energy": 27.28, 
			 "SMD_solvation_energy": 8.47 
		},
		"coords": [
			{
				"x": 5.2923199362,
				"y": -0.0601007782,
				"z": 2.625278829,
				"element": "C" 
			},
			{
				"x": 4.1659701234,
				"y": 0.8488918095,
				"z": 3.1318242199,
				"element": "C" 
			},
			{
				"x": 2.9191961693,
				"y": 0.0967927787,
				"z": 3.6279467981,
				"element": "C" 
			},
			{
				"x": 2.161296704,
				"y": -0.6576207594,
				"z": 2.5259637963,
				"element": "C" 
			},
			{
				"x": 0.8171557,
				"y": -1.2376614248,
				"z": 2.9864750073,
				"element": "C" 
			},
			{
				"x": 0.0283115361,
				"y": -1.9091162216,
				"z": 1.8537588023,
				"element": "C" 
			},
			{
				"x": -1.3696769382,
				"y": -2.3882146109,
				"z": 2.2721461186,
				"element": "C" 
			},
			{
				"x": -2.2008265154,
				"y": -3.0188701285,
				"z": 1.1381040756,
				"element": "C" 
			},
			{
				"x": -2.5519004124,
				"y": -2.0753733256,
				"z": -0.0289432997,
				"element": "C" 
			},
			{
				"x": -3.5402181127,
				"y": -0.9511018976,
				"z": 0.3361763582,
				"element": "C" 
			},
			{
				"x": -3.4853918744,
				"y": 0.2608312586,
				"z": -0.6079611359,
				"element": "C" 
			},
			{
				"x": -3.8726022577,
				"y": -0.0210889537,
				"z": -2.067350326,
				"element": "C" 
			},
			{
				"x": -3.7247312335,
				"y": 1.2112837591,
				"z": -2.9773074128,
				"element": "C" 
			},
			{
				"x": -2.3123491317,
				"y": 1.6863319474,
				"z": -3.2464085889,
				"element": "C" 
			},
			{
				"x": -1.2019053645,
				"y": 0.942073773,
				"z": -3.1971132406,
				"element": "C" 
			},
			{
				"x": 0.1912016168,
				"y": 1.4565421612,
				"z": -3.4893152558,
				"element": "C" 
			},
			{
				"x": 0.2023960102,
				"y": 2.7925694444,
				"z": -3.9805285784,
				"element": "O" 
			},
			{
				"x": 1.1248447023,
				"y": 1.4454802552,
				"z": -2.2540127011,
				"element": "C" 
			},
			{
				"x": 1.6466435553,
				"y": 0.0515397608,
				"z": -1.8877065518,
				"element": "C" 
			},
			{
				"x": 0.5702441177,
				"y": -0.8181534195,
				"z": -1.5416140676,
				"element": "O" 
			},
			{
				"x": 0.4785434754,
				"y": 2.1183172934,
				"z": -1.1355697428,
				"element": "N" 
			},
			{
				"x": 1.163318959,
				"y": 2.5454391101,
				"z": -0.0413560095,
				"element": "C" 
			},
			{
				"x": 0.3434022764,
				"y": 3.2832049908,
				"z": 1.0062249543,
				"element": "C" 
			},
			{
				"x": 2.3700923459,
				"y": 2.3461147382,
				"z": 0.1031706682,
				"element": "O" 
			},
			{
				"x": 4.9838358837,
				"y": -0.6420571298,
				"z": 1.7505020541,
				"element": "H" 
			},
			{
				"x": 6.1690925358,
				"y": 0.5267658386,
				"z": 2.3318225866,
				"element": "H" 
			},
			{
				"x": 5.6106039528,
				"y": -0.7688911741,
				"z": 3.3996766658,
				"element": "H" 
			},
			{
				"x": 4.5523635195,
				"y": 1.4668446065,
				"z": 3.953066926,
				"element": "H" 
			},
			{
				"x": 3.8661791515,
				"y": 1.5411284729,
				"z": 2.3346233996,
				"element": "H" 
			},
			{
				"x": 3.200714615,
				"y": -0.6027194225,
				"z": 4.4289212458,
				"element": "H" 
			},
			{
				"x": 2.2339225383,
				"y": 0.8227607931,
				"z": 4.0878237715,
				"element": "H" 
			},
			{
				"x": 2.7868220421,
				"y": -1.4697371693,
				"z": 2.1304116483,
				"element": "H" 
			},
			{
				"x": 1.9897834405,
				"y": 0.0333262672,
				"z": 1.6890446262,
				"element": "H" 
			},
			{
				"x": 0.9799655357,
				"y": -1.9554384168,
				"z": 3.8030808152,
				"element": "H" 
			},
			{
				"x": 0.2062000796,
				"y": -0.429021153,
				"z": 3.4136235709,
				"element": "H" 
			},
			{
				"x": -0.055540625,
				"y": -1.1959551255,
				"z": 1.0240560437,
				"element": "H" 
			},
			{
				"x": 0.6024075714,
				"y": -2.7666375915,
				"z": 1.4685565869,
				"element": "H" 
			},
			{
				"x": -1.9176510987,
				"y": -1.5432236223,
				"z": 2.7103277971,
				"element": "H" 
			},
			{
				"x": -1.2673466178,
				"y": -3.1239972388,
				"z": 3.0812330874,
				"element": "H" 
			},
			{
				"x": -1.6505123678,
				"y": -3.8825097823,
				"z": 0.7394724857,
				"element": "H" 
			},
			{
				"x": -3.1289365273,
				"y": -3.4252669637,
				"z": 1.5632559064,
				"element": "H" 
			},
			{
				"x": -2.9700792012,
				"y": -2.676084544,
				"z": -0.8464290228,
				"element": "H" 
			},
			{
				"x": -1.634135144,
				"y": -1.6290491267,
				"z": -0.4301709329,
				"element": "H" 
			},
			{
				"x": -4.5616005575,
				"y": -1.3558060321,
				"z": 0.3730353457,
				"element": "H" 
			},
			{
				"x": -3.3262414459,
				"y": -0.5897422982,
				"z": 1.3496226709,
				"element": "H" 
			},
			{
				"x": -4.1459144427,
				"y": 1.049038064,
				"z": -0.2199592308,
				"element": "H" 
			},
			{
				"x": -2.4678125184,
				"y": 0.6701071471,
				"z": -0.5802706519,
				"element": "H" 
			},
			{
				"x": -4.9170107086,
				"y": -0.3581547213,
				"z": -2.1042197919,
				"element": "H" 
			},
			{
				"x": -3.2764597145,
				"y": -0.8499180714,
				"z": -2.4666392467,
				"element": "H" 
			},
			{
				"x": -4.2126041469,
				"y": 1.0125793252,
				"z": -3.943631535,
				"element": "H" 
			},
			{
				"x": -4.2919230804,
				"y": 2.0452709194,
				"z": -2.5409916415,
				"element": "H" 
			},
			{
				"x": -2.2141762758,
				"y": 2.736632248,
				"z": -3.5219311155,
				"element": "H" 
			},
			{
				"x": -1.2384533345,
				"y": -0.1043885553,
				"z": -2.9099540858,
				"element": "H" 
			},
			{
				"x": 0.66038434,
				"y": 0.7786421244,
				"z": -4.2234431179,
				"element": "H" 
			},
			{
				"x": -0.3603950872,
				"y": 2.8161060271,
				"z": -4.765876521,
				"element": "H" 
			},
			{
				"x": 2.0112475952,
				"y": 2.0279330477,
				"z": -2.5349528575,
				"element": "H" 
			},
			{
				"x": 2.205295061,
				"y": -0.3429216847,
				"z": -2.7519118649,
				"element": "H" 
			},
			{
				"x": 2.3450220588,
				"y": 0.1744292726,
				"z": -1.0544087801,
				"element": "H" 
			},
			{
				"x": 0.9246673075,
				"y": -1.5472676364,
				"z": -1.0196103662,
				"element": "H" 
			},
			{
				"x": -0.5115690048,
				"y": 2.2992310431,
				"z": -1.2169758957,
				"element": "H" 
			},
			{
				"x": -0.7085562535,
				"y": 3.4086450527,
				"z": 0.7359276847,
				"element": "H" 
			},
			{
				"x": 0.7903342199,
				"y": 4.2678247865,
				"z": 1.1679696822,
				"element": "H" 
			},
			{
				"x": 0.4055413168,
				"y": 2.7382108632,
				"z": 1.9522393402,
				"element": "H" 
			}
		],
		 "valence_orbital": [ 
			{
				"type": "occ",
				"energy": -0.28417,
				"method": "rhf"
			},
			{
				"type": "occ",
				"energy": -0.27642,
				"method": "rhf"
			},
			{
				"type": "occ",
				"energy": -0.2519,
				"method": "rhf"
			},
			{
				"type": "occ",
				"energy": -0.24406,
				"method": "rhf"
			},
			{
				"type": "occ",
				"energy": -0.23951,
				"method": "rhf"
			},
			{
				"type": "unocc",
				"energy": 0.01191,
				"method": "rhf"
			},
			{
				"type": "unocc",
				"energy": 0.03454,
				"method": "rhf"
			},
			{
				"type": "unocc",
				"energy": 0.05691,
				"method": "rhf"
			},
			{
				"type": "unocc",
				"energy": 0.06848,
				"method": "rhf"
			},
			{
				"type": "unocc",
				"energy": 0.07901,
				"method": "rhf"
			}
		],
		"cosmo_sigma_profile": { 
			"-0.025": 0.0,
			"-0.024": 0.0,
			"-0.023": 0.0,
			"-0.022": 0.0,
			"-0.021": 0.0,
			"-0.02": 0.0,
			"-0.019": 0.0,
			"-0.018": 0.0,
			"-0.017": 0.0,
			"-0.016": 0.0981595572777,
			"-0.015": 0.603974695023,
			"-0.014": 1.04246014887,
			"-0.013": 1.69868240523,
			"-0.012": 1.55647265548,
			"-0.011": 1.20491056533,
			"-0.01": 2.50886755785,
			"-0.009": 2.71987289906,
			"-0.008": 3.18294302361,
			"-0.007": 4.16230535247,
			"-0.006": 5.26032676091,
			"-0.005": 13.3667336763,
			"-0.004": 17.6614077144,
			"-0.003": 25.2905336477,
			"-0.002": 53.5306803839,
			"-0.001": 76.2062923935,
			"0.0": 85.2677585274,
			"0.001": 64.2817716459,
			"0.002": 36.7904455858,
			"0.003": 12.2503059999,
			"0.004": 7.8868981742,
			"0.005": 8.17390104575,
			"0.006": 7.01874218705,
			"0.007": 6.00208929813,
			"0.008": 5.53177878768,
			"0.009": 4.56537733751,
			"0.01": 3.13286636295,
			"0.011": 2.73809285139,
			"0.012": 3.09219441922,
			"0.013": 3.8973735562,
			"0.014": 2.82339809825,
			"0.015": 0.2737736837,
			"0.016": 0.0,
			"0.017": 0.0,
			"0.018": 0.0,
			"0.019": 0.0,
			"0.02": 0.0,
			"0.021": 0.0,
			"0.022": 0.0,
			"0.023": 0.0,
			"0.024": 0.0,
			"0.025": 0.0
		}
	}
}
