{
	 "smiles": "FC(F)(F)C1=CC=C(C=C1)C(=O)CC#N", 
	 "Tm": 322.15, 
	 "num_atms": 21, 
	 "gaussian": { 
		 "optdone": 1, 
		 "sigma_profile": "yes", 
		 "theory": "DFT", 
		 "functional": "B3LYP", 
		 "basiset": "6-31G**", 
		 "properties": { 
			 "R2extent": 4737.6453, 
			 "electric_dipole_moment_norm": 2.96697682499, 
			 "electric_quadrupole_moment_norm": 10.47843335, 
			 "total_energy": -814.158859846, 
			 "HOMO_LUMO_gap": 0.19017, 
			 "cosmo_polarized_energy": -12.75, 
			 "cosmo_cavitation_energy": 28.62, 
			 "cosmo_dispersion_energy": -19.47, 
			 "cosmo_repulsion_energy": 1.46, 
			 "cosmo_total_nonelectrostatic_energy": 10.61, 
			 "SMD_solvation_energy": 7.95 
		},
		"coords": [
			{
				"x": 2.7108225018,
				"y": -0.1107311364,
				"z": 4.5218932628,
				"element": "F" 
			},
			{
				"x": 2.4584114657,
				"y": 0.8677708136,
				"z": 3.6264289016,
				"element": "C" 
			},
			{
				"x": 3.642963596,
				"y": 1.3898496426,
				"z": 3.244472212,
				"element": "F" 
			},
			{
				"x": 1.7855232856,
				"y": 1.8398635264,
				"z": 4.2803074371,
				"element": "F" 
			},
			{
				"x": 1.66729666,
				"y": 0.3524242521,
				"z": 2.4502656358,
				"element": "C" 
			},
			{
				"x": 1.8558702132,
				"y": 0.9095001363,
				"z": 1.1840890557,
				"element": "C" 
			},
			{
				"x": 1.0877343871,
				"y": 0.4652188599,
				"z": 0.1100404206,
				"element": "C" 
			},
			{
				"x": 0.1254009052,
				"y": -0.5382671617,
				"z": 0.2964028176,
				"element": "C" 
			},
			{
				"x": -0.0542637928,
				"y": -1.091543759,
				"z": 1.575360698,
				"element": "C" 
			},
			{
				"x": 0.7103075726,
				"y": -0.6498708153,
				"z": 2.6470419553,
				"element": "C" 
			},
			{
				"x": -0.718914153,
				"y": -1.0762905454,
				"z": -0.8117817269,
				"element": "C" 
			},
			{
				"x": -1.5131260973,
				"y": -1.9801169594,
				"z": -0.6348298886,
				"element": "O" 
			},
			{
				"x": -0.5560496164,
				"y": -0.5081080397,
				"z": -2.2441575867,
				"element": "C" 
			},
			{
				"x": -0.9001660866,
				"y": 0.9080315301,
				"z": -2.3654432839,
				"element": "C" 
			},
			{
				"x": -1.1751164126,
				"y": 2.0326134319,
				"z": -2.4500107261,
				"element": "N" 
			},
			{
				"x": 2.6024928182,
				"y": 1.6819879099,
				"z": 1.0391924736,
				"element": "H" 
			},
			{
				"x": 1.2418995103,
				"y": 0.916333061,
				"z": -0.8637710992,
				"element": "H" 
			},
			{
				"x": -0.7983047263,
				"y": -1.8702281372,
				"z": 1.7014172648,
				"element": "H" 
			},
			{
				"x": 0.5767153053,
				"y": -1.082733761,
				"z": 3.632447199,
				"element": "H" 
			},
			{
				"x": 0.4766594308,
				"y": -0.6536906732,
				"z": -2.5846721444,
				"element": "H" 
			},
			{
				"x": -1.2121567668,
				"y": -1.1002121758,
				"z": -2.8870928781,
				"element": "H" 
			}
		],
		 "valence_orbital": [ 
			{
				"type": "occ",
				"energy": -0.35037,
				"method": "rhf"
			},
			{
				"type": "occ",
				"energy": -0.34015,
				"method": "rhf"
			},
			{
				"type": "occ",
				"energy": -0.29085,
				"method": "rhf"
			},
			{
				"type": "occ",
				"energy": -0.28729,
				"method": "rhf"
			},
			{
				"type": "occ",
				"energy": -0.28292,
				"method": "rhf"
			},
			{
				"type": "unocc",
				"energy": -0.09275,
				"method": "rhf"
			},
			{
				"type": "unocc",
				"energy": -0.03717,
				"method": "rhf"
			},
			{
				"type": "unocc",
				"energy": -0.00411,
				"method": "rhf"
			},
			{
				"type": "unocc",
				"energy": 0.02029,
				"method": "rhf"
			},
			{
				"type": "unocc",
				"energy": 0.02743,
				"method": "rhf"
			}
		],
		"cosmo_sigma_profile": { 
			"-0.025": 0.0,
			"-0.024": 0.0,
			"-0.023": 0.0,
			"-0.022": 0.0,
			"-0.021": 0.0,
			"-0.02": 0.0,
			"-0.019": 0.0,
			"-0.018": 0.0,
			"-0.017": 0.0,
			"-0.016": 0.0,
			"-0.015": 0.0,
			"-0.014": 0.0,
			"-0.013": 0.0,
			"-0.012": 0.343266759843,
			"-0.011": 2.50448467324,
			"-0.01": 4.74593916651,
			"-0.009": 4.68309818638,
			"-0.008": 8.01953778204,
			"-0.007": 10.5253192191,
			"-0.006": 10.925683366,
			"-0.005": 10.2578862496,
			"-0.004": 9.30675098755,
			"-0.003": 9.2444691878,
			"-0.002": 10.992939298,
			"-0.001": 14.516499212,
			"0.0": 19.5246250516,
			"0.001": 25.610906029,
			"0.002": 28.4247296685,
			"0.003": 21.9498476234,
			"0.004": 2.99484407332,
			"0.005": 3.96794849625,
			"0.006": 3.96350321282,
			"0.007": 4.42734509149,
			"0.008": 4.90238766113,
			"0.009": 5.21208372598,
			"0.01": 7.18260643164,
			"0.011": 3.86707258916,
			"0.012": 2.36335073946,
			"0.013": 0.833191318357,
			"0.014": 0.0,
			"0.015": 0.0,
			"0.016": 0.0,
			"0.017": 0.0,
			"0.018": 0.0,
			"0.019": 0.0,
			"0.02": 0.0,
			"0.021": 0.0,
			"0.022": 0.0,
			"0.023": 0.0,
			"0.024": 0.0,
			"0.025": 0.0
		}
	}
}
