{
	 "smiles": "COC(=O)C1=NN=C(OC2=CC=C(C=C2)[N+]([O-])=O)C=C1", 
	 "Tm": 468.15, 
	 "num_atms": 29, 
	 "gaussian": { 
		 "optdone": 1, 
		 "sigma_profile": "yes", 
		 "theory": "DFT", 
		 "functional": "B3LYP", 
		 "basiset": "6-31G**", 
		 "properties": { 
			 "R2extent": 11208.708, 
			 "electric_dipole_moment_norm": 5.5028661741, 
			 "electric_quadrupole_moment_norm": 48.9474689038, 
			 "total_energy": -1002.92911525, 
			 "HOMO_LUMO_gap": 0.16259, 
			 "cosmo_polarized_energy": -18.12, 
			 "cosmo_cavitation_energy": 36.59, 
			 "cosmo_dispersion_energy": -26.61, 
			 "cosmo_repulsion_energy": 2.03, 
			 "cosmo_total_nonelectrostatic_energy": 12.01, 
			 "SMD_solvation_energy": 9.21 
		},
		"coords": [
			{
				"x": -1.6042243801,
				"y": 1.4576394101,
				"z": -4.2670283365,
				"element": "C" 
			},
			{
				"x": -1.083594701,
				"y": 0.8063962371,
				"z": -3.0950330899,
				"element": "O" 
			},
			{
				"x": -0.6202565176,
				"y": 1.6273202892,
				"z": -2.1472656482,
				"element": "C" 
			},
			{
				"x": -0.6202204761,
				"y": 2.8416929299,
				"z": -2.2257529638,
				"element": "O" 
			},
			{
				"x": -0.0853344652,
				"y": 0.9055693151,
				"z": -0.9446990297,
				"element": "C" 
			},
			{
				"x": -0.11589211,
				"y": -0.4269657825,
				"z": -0.9279537771,
				"element": "N" 
			},
			{
				"x": 0.3579550825,
				"y": -1.0820517227,
				"z": 0.1311813201,
				"element": "N" 
			},
			{
				"x": 0.8505207992,
				"y": -0.3978430623,
				"z": 1.1574133808,
				"element": "C" 
			},
			{
				"x": 1.3654708639,
				"y": -1.0620795504,
				"z": 2.2249478095,
				"element": "O" 
			},
			{
				"x": 1.2362449694,
				"y": -2.4301872653,
				"z": 2.4115004774,
				"element": "C" 
			},
			{
				"x": 2.3695729452,
				"y": -3.0686638342,
				"z": 2.9209852866,
				"element": "C" 
			},
			{
				"x": 2.3143288016,
				"y": -4.4209467449,
				"z": 3.2385364071,
				"element": "C" 
			},
			{
				"x": 1.118194625,
				"y": -5.1074688665,
				"z": 3.0386894598,
				"element": "C" 
			},
			{
				"x": -0.0188141144,
				"y": -4.4754532205,
				"z": 2.5355931043,
				"element": "C" 
			},
			{
				"x": 0.0362237606,
				"y": -3.1226036521,
				"z": 2.2199727804,
				"element": "C" 
			},
			{
				"x": 1.0522386611,
				"y": -6.5360224651,
				"z": 3.3714476509,
				"element": "N" 
			},
			{
				"x": 2.0700860699,
				"y": -7.0656230241,
				"z": 3.8179670137,
				"element": "O" 
			},
			{
				"x": -0.0167874321,
				"y": -7.117225657,
				"z": 3.1856271855,
				"element": "O" 
			},
			{
				"x": 0.9137895844,
				"y": 1.0056388075,
				"z": 1.2139445253,
				"element": "C" 
			},
			{
				"x": 0.4263432989,
				"y": 1.6769523009,
				"z": 0.1173438085,
				"element": "C" 
			},
			{
				"x": -2.4416052787,
				"y": 2.108561688,
				"z": -4.0039043648,
				"element": "H" 
			},
			{
				"x": -0.8280170192,
				"y": 2.0569327162,
				"z": -4.7491858341,
				"element": "H" 
			},
			{
				"x": -1.9330501682,
				"y": 0.6530360109,
				"z": -4.9235200018,
				"element": "H" 
			},
			{
				"x": 3.2787035412,
				"y": -2.4952512947,
				"z": 3.0633044448,
				"element": "H" 
			},
			{
				"x": 3.1737806259,
				"y": -4.9481321889,
				"z": 3.6325593688,
				"element": "H" 
			},
			{
				"x": -0.9278606564,
				"y": -5.0474869422,
				"z": 2.3998997454,
				"element": "H" 
			},
			{
				"x": -0.8321969771,
				"y": -2.6186616298,
				"z": 1.818194372,
				"element": "H" 
			},
			{
				"x": 1.3288981361,
				"y": 1.502242341,
				"z": 2.0836434469,
				"element": "H" 
			},
			{
				"x": 0.4202025312,
				"y": 2.7581848572,
				"z": 0.041991458,
				"element": "H" 
			}
		],
		 "valence_orbital": [ 
			{
				"type": "occ",
				"energy": -0.29061,
				"method": "rhf"
			},
			{
				"type": "occ",
				"energy": -0.28979,
				"method": "rhf"
			},
			{
				"type": "occ",
				"energy": -0.28354,
				"method": "rhf"
			},
			{
				"type": "occ",
				"energy": -0.26704,
				"method": "rhf"
			},
			{
				"type": "occ",
				"energy": -0.25236,
				"method": "rhf"
			},
			{
				"type": "unocc",
				"energy": -0.08977,
				"method": "rhf"
			},
			{
				"type": "unocc",
				"energy": -0.07619,
				"method": "rhf"
			},
			{
				"type": "unocc",
				"energy": -0.0631,
				"method": "rhf"
			},
			{
				"type": "unocc",
				"energy": -0.03164,
				"method": "rhf"
			},
			{
				"type": "unocc",
				"energy": 0.00125,
				"method": "rhf"
			}
		],
		"cosmo_sigma_profile": { 
			"-0.025": 0.0,
			"-0.024": 0.0,
			"-0.023": 0.0,
			"-0.022": 0.0,
			"-0.021": 0.0,
			"-0.02": 0.0,
			"-0.019": 0.0,
			"-0.018": 0.0,
			"-0.017": 0.0,
			"-0.016": 0.0,
			"-0.015": 0.0,
			"-0.014": 0.0,
			"-0.013": 0.0,
			"-0.012": 0.0,
			"-0.011": 0.0,
			"-0.01": 1.10425006202,
			"-0.009": 3.25768648944,
			"-0.008": 8.39419288707,
			"-0.007": 13.8710108919,
			"-0.006": 17.3642445908,
			"-0.005": 19.9131661078,
			"-0.004": 26.2032808701,
			"-0.003": 27.477196764,
			"-0.002": 23.931187399,
			"-0.001": 21.5164810606,
			"0.0": 21.5287595375,
			"0.001": 17.9849026221,
			"0.002": 9.55573972278,
			"0.003": 7.31966748142,
			"0.004": 8.12472743612,
			"0.005": 7.54577463435,
			"0.006": 6.61052549797,
			"0.007": 10.921884369,
			"0.008": 12.1635875748,
			"0.009": 8.83511520307,
			"0.01": 6.7459034432,
			"0.011": 7.23869283721,
			"0.012": 3.84915205794,
			"0.013": 1.22911337133,
			"0.014": 1.09341261695,
			"0.015": 1.09735811726,
			"0.016": 0.215170622244,
			"0.017": 0.0,
			"0.018": 0.0,
			"0.019": 0.0,
			"0.02": 0.0,
			"0.021": 0.0,
			"0.022": 0.0,
			"0.023": 0.0,
			"0.024": 0.0,
			"0.025": 0.0
		}
	}
}
