{
	 "smiles": "CC(=O)SCC(CC1=CC=CC=C1)C(=O)NCC(=O)OCC1=CC=CC=C1", 
	 "Tm": 362.15, 
	 "num_atms": 50, 
	 "gaussian": { 
		 "optdone": 1, 
		 "sigma_profile": "yes", 
		 "theory": "DFT", 
		 "functional": "B3LYP", 
		 "basiset": "6-31G**", 
		 "properties": { 
			 "R2extent": 10892.6347, 
			 "electric_dipole_moment_norm": 4.93750102076, 
			 "electric_quadrupole_moment_norm": 17.762899636, 
			 "total_energy": -1567.97797888, 
			 "HOMO_LUMO_gap": 0.20296, 
			 "cosmo_polarized_energy": -17.12, 
			 "cosmo_cavitation_energy": 54.91, 
			 "cosmo_dispersion_energy": -34.26, 
			 "cosmo_repulsion_energy": 2.56, 
			 "cosmo_total_nonelectrostatic_energy": 23.21, 
			 "SMD_solvation_energy": 9.53 
		},
		"coords": [
			{
				"x": -0.2447590881,
				"y": 1.3556063124,
				"z": -5.6270231508,
				"element": "C" 
			},
			{
				"x": -0.0000132599,
				"y": 0.8917762962,
				"z": -4.2065798895,
				"element": "C" 
			},
			{
				"x": 0.9579733661,
				"y": 0.2029421604,
				"z": -3.900487493,
				"element": "O" 
			},
			{
				"x": -1.2435333286,
				"y": 1.4229898245,
				"z": -3.0338702622,
				"element": "S" 
			},
			{
				"x": -0.6036516514,
				"y": 0.5942110095,
				"z": -1.5273649428,
				"element": "C" 
			},
			{
				"x": 0.6006185457,
				"y": 1.3153122892,
				"z": -0.8739765794,
				"element": "C" 
			},
			{
				"x": 0.2054037172,
				"y": 2.4522699466,
				"z": 0.1059615804,
				"element": "C" 
			},
			{
				"x": -0.9518428608,
				"y": 2.1923927154,
				"z": 1.0551417188,
				"element": "C" 
			},
			{
				"x": -0.7924849775,
				"y": 1.4337652099,
				"z": 2.2258810221,
				"element": "C" 
			},
			{
				"x": -1.8661614055,
				"y": 1.2340637769,
				"z": 3.0954721661,
				"element": "C" 
			},
			{
				"x": -3.1201680225,
				"y": 1.7829123348,
				"z": 2.8122676469,
				"element": "C" 
			},
			{
				"x": -3.2918736542,
				"y": 2.537196589,
				"z": 1.6509584882,
				"element": "C" 
			},
			{
				"x": -2.2148113751,
				"y": 2.7406621301,
				"z": 0.7853586741,
				"element": "C" 
			},
			{
				"x": 1.5545546192,
				"y": 0.2787450164,
				"z": -0.2497371477,
				"element": "C" 
			},
			{
				"x": 1.7584111269,
				"y": 0.1673937863,
				"z": 0.9558580692,
				"element": "O" 
			},
			{
				"x": 2.1955277526,
				"y": -0.4946191067,
				"z": -1.1769901045,
				"element": "N" 
			},
			{
				"x": 2.9874998001,
				"y": -1.6293837313,
				"z": -0.7703949336,
				"element": "C" 
			},
			{
				"x": 2.22692682,
				"y": -2.9337111722,
				"z": -0.52087512,
				"element": "C" 
			},
			{
				"x": 2.7816383304,
				"y": -3.9730539971,
				"z": -0.2399815737,
				"element": "O" 
			},
			{
				"x": 0.8934354328,
				"y": -2.7844248721,
				"z": -0.630000583,
				"element": "O" 
			},
			{
				"x": 0.0916189305,
				"y": -3.9431265948,
				"z": -0.2922276704,
				"element": "C" 
			},
			{
				"x": -1.3282434646,
				"y": -3.4925267168,
				"z": -0.0676156345,
				"element": "C" 
			},
			{
				"x": -2.3905021029,
				"y": -4.2013493603,
				"z": -0.6379021819,
				"element": "C" 
			},
			{
				"x": -3.7114138284,
				"y": -3.8162460274,
				"z": -0.3975232139,
				"element": "C" 
			},
			{
				"x": -3.9797213301,
				"y": -2.7081371603,
				"z": 0.4061573637,
				"element": "C" 
			},
			{
				"x": -2.9234328149,
				"y": -1.9889867771,
				"z": 0.9731869482,
				"element": "C" 
			},
			{
				"x": -1.6053709275,
				"y": -2.3823113254,
				"z": 0.7432162117,
				"element": "C" 
			},
			{
				"x": -1.0612084144,
				"y": 2.0764947098,
				"z": -5.7012033462,
				"element": "H" 
			},
			{
				"x": 0.6767651969,
				"y": 1.7953641764,
				"z": -6.0185257074,
				"element": "H" 
			},
			{
				"x": -0.4831631465,
				"y": 0.4809928643,
				"z": -6.2413140083,
				"element": "H" 
			},
			{
				"x": -0.351863831,
				"y": -0.4254018723,
				"z": -1.8207816733,
				"element": "H" 
			},
			{
				"x": -1.4503486825,
				"y": 0.5404370489,
				"z": -0.8409263045,
				"element": "H" 
			},
			{
				"x": 1.1824720837,
				"y": 1.7802554875,
				"z": -1.6780453065,
				"element": "H" 
			},
			{
				"x": 1.0993751448,
				"y": 2.7110549448,
				"z": 0.6818801163,
				"element": "H" 
			},
			{
				"x": -0.0447734648,
				"y": 3.3287846871,
				"z": -0.5017620312,
				"element": "H" 
			},
			{
				"x": 0.1786593335,
				"y": 1.0001779697,
				"z": 2.4375453003,
				"element": "H" 
			},
			{
				"x": -1.7203618658,
				"y": 0.6527587561,
				"z": 4.0020778444,
				"element": "H" 
			},
			{
				"x": -3.9519806435,
				"y": 1.630664164,
				"z": 3.4944747147,
				"element": "H" 
			},
			{
				"x": -4.2594544619,
				"y": 2.9750037846,
				"z": 1.4212957129,
				"element": "H" 
			},
			{
				"x": -2.3542415498,
				"y": 3.3435367387,
				"z": -0.1094719851,
				"element": "H" 
			},
			{
				"x": 1.9084945144,
				"y": -0.4144477357,
				"z": -2.1475212023,
				"element": "H" 
			},
			{
				"x": 3.488877109,
				"y": -1.3850661438,
				"z": 0.1704401312,
				"element": "H" 
			},
			{
				"x": 3.7616347043,
				"y": -1.8395129652,
				"z": -1.513565465,
				"element": "H" 
			},
			{
				"x": 0.1587599314,
				"y": -4.6721486363,
				"z": -1.1060510621,
				"element": "H" 
			},
			{
				"x": 0.5256493164,
				"y": -4.4066707683,
				"z": 0.599755474,
				"element": "H" 
			},
			{
				"x": -2.1846224727,
				"y": -5.0586174126,
				"z": -1.2744414699,
				"element": "H" 
			},
			{
				"x": -4.5269999359,
				"y": -4.3765147672,
				"z": -0.8459104841,
				"element": "H" 
			},
			{
				"x": -5.0062007593,
				"y": -2.4025020242,
				"z": 0.5879503081,
				"element": "H" 
			},
			{
				"x": -3.1222405647,
				"y": -1.120545158,
				"z": 1.5944028001,
				"element": "H" 
			},
			{
				"x": -0.786351891,
				"y": -1.8174604044,
				"z": 1.1791882357,
				"element": "H" 
			}
		],
		 "valence_orbital": [ 
			{
				"type": "occ",
				"energy": -0.25045,
				"method": "rhf"
			},
			{
				"type": "occ",
				"energy": -0.24859,
				"method": "rhf"
			},
			{
				"type": "occ",
				"energy": -0.24543,
				"method": "rhf"
			},
			{
				"type": "occ",
				"energy": -0.24168,
				"method": "rhf"
			},
			{
				"type": "occ",
				"energy": -0.23866,
				"method": "rhf"
			},
			{
				"type": "unocc",
				"energy": -0.0357,
				"method": "rhf"
			},
			{
				"type": "unocc",
				"energy": -0.00795,
				"method": "rhf"
			},
			{
				"type": "unocc",
				"energy": -0.00256,
				"method": "rhf"
			},
			{
				"type": "unocc",
				"energy": -0.00084,
				"method": "rhf"
			},
			{
				"type": "unocc",
				"energy": 0.00115,
				"method": "rhf"
			}
		],
		"cosmo_sigma_profile": { 
			"-0.025": 0.0,
			"-0.024": 0.0,
			"-0.023": 0.0,
			"-0.022": 0.0,
			"-0.021": 0.0,
			"-0.02": 0.0,
			"-0.019": 0.0,
			"-0.018": 0.0,
			"-0.017": 0.0,
			"-0.016": 0.0,
			"-0.015": 0.0,
			"-0.014": 0.0,
			"-0.013": 0.0,
			"-0.012": 0.0,
			"-0.011": 0.0,
			"-0.01": 0.136418067409,
			"-0.009": 0.958503362262,
			"-0.008": 4.07939595127,
			"-0.007": 8.47528972783,
			"-0.006": 19.7840369514,
			"-0.005": 32.3032708922,
			"-0.004": 38.6766814562,
			"-0.003": 45.9446229155,
			"-0.002": 38.6221229814,
			"-0.001": 33.3356777577,
			"0.0": 33.0601028014,
			"0.001": 35.4720177976,
			"0.002": 28.8662122793,
			"0.003": 25.7302123617,
			"0.004": 24.736828379,
			"0.005": 21.7674259283,
			"0.006": 14.1907736048,
			"0.007": 5.74489216939,
			"0.008": 3.35050512788,
			"0.009": 4.05165552372,
			"0.01": 4.38285798727,
			"0.011": 6.35411329828,
			"0.012": 5.58136311214,
			"0.013": 2.2336560435,
			"0.014": 0.12566058852,
			"0.015": 0.0,
			"0.016": 0.0,
			"0.017": 0.0,
			"0.018": 0.0,
			"0.019": 0.0,
			"0.02": 0.0,
			"0.021": 0.0,
			"0.022": 0.0,
			"0.023": 0.0,
			"0.024": 0.0,
			"0.025": 0.0
		}
	}
}
