{
	 "smiles": "CS(=O)(=O)CC1(CC(O)=O)CC1", 
	 "Tm": 363.15, 
	 "num_atms": 24, 
	 "gaussian": { 
		 "optdone": 1, 
		 "sigma_profile": "yes", 
		 "theory": "DFT", 
		 "functional": "B3LYP", 
		 "basiset": "6-31G**", 
		 "properties": { 
			 "R2extent": 2864.7142, 
			 "electric_dipole_moment_norm": 7.01881619933, 
			 "electric_quadrupole_moment_norm": 16.007533955, 
			 "total_energy": -972.987200801, 
			 "HOMO_LUMO_gap": 0.26911, 
			 "cosmo_polarized_energy": -22.55, 
			 "cosmo_cavitation_energy": 27.38, 
			 "cosmo_dispersion_energy": -19.85, 
			 "cosmo_repulsion_energy": 1.5, 
			 "cosmo_total_nonelectrostatic_energy": 9.04, 
			 "SMD_solvation_energy": 5.12 
		},
		"coords": [
			{
				"x": 1.6506820572,
				"y": 0.5692109224,
				"z": 1.8830488782,
				"element": "C" 
			},
			{
				"x": 0.1210059308,
				"y": 1.4841098408,
				"z": 1.6043897677,
				"element": "S" 
			},
			{
				"x": -0.6264498691,
				"y": 1.5430838564,
				"z": 2.8667216861,
				"element": "O" 
			},
			{
				"x": 0.5008583587,
				"y": 2.7487763224,
				"z": 0.9191809622,
				"element": "O" 
			},
			{
				"x": -0.855044116,
				"y": 0.487372156,
				"z": 0.424137598,
				"element": "C" 
			},
			{
				"x": -0.2043397943,
				"y": 0.1481626113,
				"z": -0.9066870497,
				"element": "C" 
			},
			{
				"x": 0.2682135114,
				"y": 1.3113406413,
				"z": -1.7867950842,
				"element": "C" 
			},
			{
				"x": -0.8840781783,
				"y": 2.2481506142,
				"z": -2.1602409491,
				"element": "C" 
			},
			{
				"x": -1.1639126955,
				"y": 3.2261039721,
				"z": -1.2759530878,
				"element": "O" 
			},
			{
				"x": -1.5410801775,
				"y": 2.1018362869,
				"z": -3.1645684752,
				"element": "O" 
			},
			{
				"x": -0.8156885525,
				"y": -1.0366508885,
				"z": -1.626697304,
				"element": "C" 
			},
			{
				"x": 0.5576579003,
				"y": -1.1599494814,
				"z": -1.0182574019,
				"element": "C" 
			},
			{
				"x": 2.1641320228,
				"y": 0.415810306,
				"z": 0.9338548451,
				"element": "H" 
			},
			{
				"x": 1.414669801,
				"y": -0.3795099709,
				"z": 2.3670778308,
				"element": "H" 
			},
			{
				"x": 2.2510406742,
				"y": 1.1930768555,
				"z": 2.5478881698,
				"element": "H" 
			},
			{
				"x": -1.1431656542,
				"y": -0.411897292,
				"z": 0.9752319435,
				"element": "H" 
			},
			{
				"x": -1.7530783511,
				"y": 1.102342233,
				"z": 0.2945874516,
				"element": "H" 
			},
			{
				"x": 1.0712408836,
				"y": 1.8670786945,
				"z": -1.2938843911,
				"element": "H" 
			},
			{
				"x": 0.6572369513,
				"y": 0.9035994452,
				"z": -2.721923001,
				"element": "H" 
			},
			{
				"x": -0.5365280827,
				"y": 3.2171507208,
				"z": -0.5211181057,
				"element": "H" 
			},
			{
				"x": -0.908827369,
				"y": -0.9576912847,
				"z": -2.704735991,
				"element": "H" 
			},
			{
				"x": -1.6358738397,
				"y": -1.5632673667,
				"z": -1.1478170188,
				"element": "H" 
			},
			{
				"x": 0.6642362863,
				"y": -1.7761072632,
				"z": -0.129544523,
				"element": "H" 
			},
			{
				"x": 1.4171923022,
				"y": -1.1892319315,
				"z": -1.6812967505,
				"element": "H" 
			}
		],
		 "valence_orbital": [ 
			{
				"type": "occ",
				"energy": -0.32342,
				"method": "rhf"
			},
			{
				"type": "occ",
				"energy": -0.31718,
				"method": "rhf"
			},
			{
				"type": "occ",
				"energy": -0.30314,
				"method": "rhf"
			},
			{
				"type": "occ",
				"energy": -0.29269,
				"method": "rhf"
			},
			{
				"type": "occ",
				"energy": -0.25713,
				"method": "rhf"
			},
			{
				"type": "unocc",
				"energy": 0.01198,
				"method": "rhf"
			},
			{
				"type": "unocc",
				"energy": 0.03631,
				"method": "rhf"
			},
			{
				"type": "unocc",
				"energy": 0.04527,
				"method": "rhf"
			},
			{
				"type": "unocc",
				"energy": 0.05245,
				"method": "rhf"
			},
			{
				"type": "unocc",
				"energy": 0.06493,
				"method": "rhf"
			}
		],
		"cosmo_sigma_profile": { 
			"-0.025": 0.0,
			"-0.024": 0.0,
			"-0.023": 0.0,
			"-0.022": 0.0,
			"-0.021": 0.0,
			"-0.02": 0.0,
			"-0.019": 0.0,
			"-0.018": 0.0,
			"-0.017": 0.0,
			"-0.016": 0.0,
			"-0.015": 0.0,
			"-0.014": 0.0,
			"-0.013": 0.0,
			"-0.012": 0.12723606139,
			"-0.011": 0.861168093483,
			"-0.01": 2.18054998253,
			"-0.009": 7.92201754748,
			"-0.008": 9.49365521048,
			"-0.007": 12.4108784635,
			"-0.006": 17.1068784312,
			"-0.005": 21.1977426231,
			"-0.004": 18.8807752415,
			"-0.003": 15.6821596176,
			"-0.002": 11.3280512055,
			"-0.001": 8.56868167204,
			"0.0": 7.20135934472,
			"0.001": 6.12985970853,
			"0.002": 6.12910901773,
			"0.003": 5.34472573997,
			"0.004": 5.33611555821,
			"0.005": 4.53741317297,
			"0.006": 3.74939229985,
			"0.007": 4.7538260601,
			"0.008": 5.27707936234,
			"0.009": 5.01556415787,
			"0.01": 7.79056634064,
			"0.011": 14.1215855851,
			"0.012": 9.82422098573,
			"0.013": 3.48334292017,
			"0.014": 0.703943681377,
			"0.015": 0.0,
			"0.016": 0.0,
			"0.017": 0.0,
			"0.018": 0.0,
			"0.019": 0.0,
			"0.02": 0.0,
			"0.021": 0.0,
			"0.022": 0.0,
			"0.023": 0.0,
			"0.024": 0.0,
			"0.025": 0.0
		}
	}
}
