{
	 "smiles": "O=C(NNC1=CC=CC=C1)C1CCCCC1", 
	 "Tm": 437.15, 
	 "num_atms": 34, 
	 "gaussian": { 
		 "optdone": 1, 
		 "sigma_profile": "yes", 
		 "theory": "DFT", 
		 "functional": "B3LYP", 
		 "basiset": "6-31G**", 
		 "properties": { 
			 "R2extent": 5727.8227, 
			 "electric_dipole_moment_norm": 2.77981907865, 
			 "electric_quadrupole_moment_norm": 6.11463823296, 
			 "total_energy": -690.9638272, 
			 "HOMO_LUMO_gap": 0.21157, 
			 "cosmo_polarized_energy": -12.99, 
			 "cosmo_cavitation_energy": 35.77, 
			 "cosmo_dispersion_energy": -25.55, 
			 "cosmo_repulsion_energy": 2.02, 
			 "cosmo_total_nonelectrostatic_energy": 12.23, 
			 "SMD_solvation_energy": 5.76 
		},
		"coords": [
			{
				"x": -1.1655757703,
				"y": 0.6007390638,
				"z": 1.5456605997,
				"element": "O" 
			},
			{
				"x": -0.8066292605,
				"y": 0.4042740227,
				"z": 0.3913638515,
				"element": "C" 
			},
			{
				"x": 0.0506428649,
				"y": -0.6283969085,
				"z": 0.0716606036,
				"element": "N" 
			},
			{
				"x": 0.360370207,
				"y": -1.5814451534,
				"z": 1.0492271978,
				"element": "N" 
			},
			{
				"x": 1.6433650141,
				"y": -1.4866885505,
				"z": 1.6484071738,
				"element": "C" 
			},
			{
				"x": 1.8487189503,
				"y": -2.13213218,
				"z": 2.8772999946,
				"element": "C" 
			},
			{
				"x": 3.1093573989,
				"y": -2.1306329373,
				"z": 3.4677141032,
				"element": "C" 
			},
			{
				"x": 4.1850738424,
				"y": -1.4916017961,
				"z": 2.8451659519,
				"element": "C" 
			},
			{
				"x": 3.9779898368,
				"y": -0.8517911161,
				"z": 1.6230675783,
				"element": "C" 
			},
			{
				"x": 2.7183123628,
				"y": -0.8452660101,
				"z": 1.022082742,
				"element": "C" 
			},
			{
				"x": -1.2599427013,
				"y": 1.2622722496,
				"z": -0.7823152307,
				"element": "C" 
			},
			{
				"x": -0.8000497611,
				"y": 2.7213552909,
				"z": -0.566765223,
				"element": "C" 
			},
			{
				"x": -1.3172768116,
				"y": 3.6498619524,
				"z": -1.674881889,
				"element": "C" 
			},
			{
				"x": -2.8448330705,
				"y": 3.5704934945,
				"z": -1.813138474,
				"element": "C" 
			},
			{
				"x": -3.3088459119,
				"y": 2.1232451214,
				"z": -2.0336290579,
				"element": "C" 
			},
			{
				"x": -2.7964506211,
				"y": 1.1904604692,
				"z": -0.9266827297,
				"element": "C" 
			},
			{
				"x": 0.0522487947,
				"y": -0.980990046,
				"z": -0.8765980699,
				"element": "H" 
			},
			{
				"x": -0.3792022492,
				"y": -1.567868159,
				"z": 1.7484013204,
				"element": "H" 
			},
			{
				"x": 1.0167098591,
				"y": -2.6351900712,
				"z": 3.3641006024,
				"element": "H" 
			},
			{
				"x": 3.2500404351,
				"y": -2.6299042234,
				"z": 4.422375489,
				"element": "H" 
			},
			{
				"x": 5.1672371986,
				"y": -1.4917203724,
				"z": 3.3075808163,
				"element": "H" 
			},
			{
				"x": 4.8026860753,
				"y": -0.3461363841,
				"z": 1.1280182769,
				"element": "H" 
			},
			{
				"x": 2.5623790902,
				"y": -0.3363023099,
				"z": 0.0775028684,
				"element": "H" 
			},
			{
				"x": -0.800066854,
				"y": 0.8868707716,
				"z": -1.70902452,
				"element": "H" 
			},
			{
				"x": -1.1749259578,
				"y": 3.0523120286,
				"z": 0.4091415989,
				"element": "H" 
			},
			{
				"x": 0.2945327019,
				"y": 2.7609801069,
				"z": -0.514265398,
				"element": "H" 
			},
			{
				"x": -1.0058355453,
				"y": 4.6804608025,
				"z": -1.4677334054,
				"element": "H" 
			},
			{
				"x": -0.8518549291,
				"y": 3.3714130174,
				"z": -2.6314499833,
				"element": "H" 
			},
			{
				"x": -3.3109208426,
				"y": 3.9634480885,
				"z": -0.8987826393,
				"element": "H" 
			},
			{
				"x": -3.1856568688,
				"y": 4.2082502129,
				"z": -2.6373141605,
				"element": "H" 
			},
			{
				"x": -2.9418794353,
				"y": 1.7693945354,
				"z": -3.0079632792,
				"element": "H" 
			},
			{
				"x": -4.4032668416,
				"y": 2.0755763964,
				"z": -2.0792974832,
				"element": "H" 
			},
			{
				"x": -3.1056645419,
				"y": 0.1569514774,
				"z": -1.1272064025,
				"element": "H" 
			},
			{
				"x": -3.2384866583,
				"y": 1.469907116,
				"z": 0.0371771771,
				"element": "H" 
			}
		],
		 "valence_orbital": [ 
			{
				"type": "occ",
				"energy": -0.30264,
				"method": "rhf"
			},
			{
				"type": "occ",
				"energy": -0.26602,
				"method": "rhf"
			},
			{
				"type": "occ",
				"energy": -0.25659,
				"method": "rhf"
			},
			{
				"type": "occ",
				"energy": -0.2435,
				"method": "rhf"
			},
			{
				"type": "occ",
				"energy": -0.20629,
				"method": "rhf"
			},
			{
				"type": "unocc",
				"energy": 0.00528,
				"method": "rhf"
			},
			{
				"type": "unocc",
				"energy": 0.01276,
				"method": "rhf"
			},
			{
				"type": "unocc",
				"energy": 0.02128,
				"method": "rhf"
			},
			{
				"type": "unocc",
				"energy": 0.06585,
				"method": "rhf"
			},
			{
				"type": "unocc",
				"energy": 0.08857,
				"method": "rhf"
			}
		],
		"cosmo_sigma_profile": { 
			"-0.025": 0.0,
			"-0.024": 0.0,
			"-0.023": 0.0,
			"-0.022": 0.0,
			"-0.021": 0.0,
			"-0.02": 0.0,
			"-0.019": 0.0,
			"-0.018": 0.0,
			"-0.017": 0.0,
			"-0.016": 0.0,
			"-0.015": 0.577207569696,
			"-0.014": 1.15649142901,
			"-0.013": 1.44092532151,
			"-0.012": 1.10723216151,
			"-0.011": 1.65774769062,
			"-0.01": 2.40663043483,
			"-0.009": 2.59050875301,
			"-0.008": 2.46972548272,
			"-0.007": 2.61733743592,
			"-0.006": 5.09983466036,
			"-0.005": 11.0564703325,
			"-0.004": 15.9436935268,
			"-0.003": 23.5524312356,
			"-0.002": 35.8991072552,
			"-0.001": 35.2656926316,
			"0.0": 32.9243367356,
			"0.001": 24.5900665702,
			"0.002": 11.2244348072,
			"0.003": 9.61843601174,
			"0.004": 10.2648336717,
			"0.005": 12.0085423152,
			"0.006": 12.8056146284,
			"0.007": 6.78196067622,
			"0.008": 2.00359908575,
			"0.009": 2.02846200362,
			"0.01": 2.35099150244,
			"0.011": 2.02202715046,
			"0.012": 2.30918218986,
			"0.013": 4.14759490997,
			"0.014": 1.72350824573,
			"0.015": 0.0453546308396,
			"0.016": 0.0,
			"0.017": 0.0,
			"0.018": 0.0,
			"0.019": 0.0,
			"0.02": 0.0,
			"0.021": 0.0,
			"0.022": 0.0,
			"0.023": 0.0,
			"0.024": 0.0,
			"0.025": 0.0
		}
	}
}
