{
	 "smiles": "CN1NC(=O)C2=C1C1=C(N=C2)N(C)N=C1C", 
	 "Tm": 573.15, 
	 "num_atms": 27, 
	 "gaussian": { 
		 "optdone": 1, 
		 "sigma_profile": "yes", 
		 "theory": "DFT", 
		 "functional": "B3LYP", 
		 "basiset": "6-31G**", 
		 "properties": { 
			 "R2extent": 3713.1132, 
			 "electric_dipole_moment_norm": 4.35572360234, 
			 "electric_quadrupole_moment_norm": 24.1882288882, 
			 "total_energy": -736.65334601, 
			 "HOMO_LUMO_gap": 0.17807, 
			 "cosmo_polarized_energy": -16.91, 
			 "cosmo_cavitation_energy": 30.49, 
			 "cosmo_dispersion_energy": -22.47, 
			 "cosmo_repulsion_energy": 1.72, 
			 "cosmo_total_nonelectrostatic_energy": 9.74, 
			 "SMD_solvation_energy": 3.15 
		},
		"coords": [
			{
				"x": -2.6670577197,
				"y": 2.5476720947,
				"z": 0.6127705719,
				"element": "C" 
			},
			{
				"x": -2.0532877172,
				"y": 1.6929853643,
				"z": -0.4038759049,
				"element": "N" 
			},
			{
				"x": -1.9618656507,
				"y": 2.3346772917,
				"z": -1.6740581313,
				"element": "N" 
			},
			{
				"x": -0.8074048248,
				"y": 1.9071841309,
				"z": -2.3684617305,
				"element": "C" 
			},
			{
				"x": -0.5894064389,
				"y": 2.132604937,
				"z": -3.5472742565,
				"element": "O" 
			},
			{
				"x": -0.0421918564,
				"y": 1.1734135345,
				"z": -1.3598955668,
				"element": "C" 
			},
			{
				"x": -0.8235923913,
				"y": 1.0849445868,
				"z": -0.1974768775,
				"element": "C" 
			},
			{
				"x": -0.2753374292,
				"y": 0.405645427,
				"z": 0.9148223501,
				"element": "C" 
			},
			{
				"x": 1.0327490959,
				"y": -0.1163908341,
				"z": 0.6841679256,
				"element": "C" 
			},
			{
				"x": 1.7981187282,
				"y": -0.0476313468,
				"z": -0.4238859145,
				"element": "N" 
			},
			{
				"x": 1.2380091357,
				"y": 0.5959059743,
				"z": -1.4386759396,
				"element": "C" 
			},
			{
				"x": 1.3949451957,
				"y": -0.7572028271,
				"z": 1.8277475793,
				"element": "N" 
			},
			{
				"x": 2.6347282704,
				"y": -1.461192158,
				"z": 2.0875178306,
				"element": "C" 
			},
			{
				"x": 0.4161324597,
				"y": -0.702713549,
				"z": 2.7665112962,
				"element": "N" 
			},
			{
				"x": -0.5936949649,
				"y": -0.0142694835,
				"z": 2.2495115575,
				"element": "C" 
			},
			{
				"x": -1.8283376032,
				"y": 0.1764660567,
				"z": 3.0770297987,
				"element": "C" 
			},
			{
				"x": -2.7635369304,
				"y": 1.9844515925,
				"z": 1.5380576501,
				"element": "H" 
			},
			{
				"x": -3.6687543068,
				"y": 2.8281797292,
				"z": 0.2785970726,
				"element": "H" 
			},
			{
				"x": -2.0805508047,
				"y": 3.4583810439,
				"z": 0.7875877686,
				"element": "H" 
			},
			{
				"x": -2.8324763419,
				"y": 2.3384293103,
				"z": -2.1946813254,
				"element": "H" 
			},
			{
				"x": 1.8095220769,
				"y": 0.6791696933,
				"z": -2.3602919313,
				"element": "H" 
			},
			{
				"x": 3.2486568384,
				"y": -1.389095419,
				"z": 1.1896001922,
				"element": "H" 
			},
			{
				"x": 3.1573774914,
				"y": -1.0061469605,
				"z": 2.9332567812,
				"element": "H" 
			},
			{
				"x": 2.4308006872,
				"y": -2.5106979543,
				"z": 2.3160802919,
				"element": "H" 
			},
			{
				"x": -1.7503037404,
				"y": -0.4433277606,
				"z": 3.9727010134,
				"element": "H" 
			},
			{
				"x": -1.9521512638,
				"y": 1.2162045707,
				"z": 3.4020877923,
				"element": "H" 
			},
			{
				"x": -2.7320899951,
				"y": -0.1177470446,
				"z": 2.532430106,
				"element": "H" 
			}
		],
		 "valence_orbital": [ 
			{
				"type": "occ",
				"energy": -0.27505,
				"method": "rhf"
			},
			{
				"type": "occ",
				"energy": -0.25684,
				"method": "rhf"
			},
			{
				"type": "occ",
				"energy": -0.25226,
				"method": "rhf"
			},
			{
				"type": "occ",
				"energy": -0.24157,
				"method": "rhf"
			},
			{
				"type": "occ",
				"energy": -0.2187,
				"method": "rhf"
			},
			{
				"type": "unocc",
				"energy": -0.04063,
				"method": "rhf"
			},
			{
				"type": "unocc",
				"energy": -0.02681,
				"method": "rhf"
			},
			{
				"type": "unocc",
				"energy": 0.0361,
				"method": "rhf"
			},
			{
				"type": "unocc",
				"energy": 0.06499,
				"method": "rhf"
			},
			{
				"type": "unocc",
				"energy": 0.07556,
				"method": "rhf"
			}
		],
		"cosmo_sigma_profile": { 
			"-0.025": 0.0,
			"-0.024": 0.0,
			"-0.023": 0.0,
			"-0.022": 0.0,
			"-0.021": 0.0,
			"-0.02": 0.0,
			"-0.019": 0.0,
			"-0.018": 0.0,
			"-0.017": 0.0,
			"-0.016": 0.351475691365,
			"-0.015": 1.16963286167,
			"-0.014": 1.82352866435,
			"-0.013": 0.887839485014,
			"-0.012": 0.675750142214,
			"-0.011": 1.0547780567,
			"-0.01": 1.53572956339,
			"-0.009": 1.24824593122,
			"-0.008": 1.30960629025,
			"-0.007": 4.65277943608,
			"-0.006": 13.8500782988,
			"-0.005": 20.2961969294,
			"-0.004": 20.7378193221,
			"-0.003": 24.9612690555,
			"-0.002": 17.0494933793,
			"-0.001": 18.0334731887,
			"0.0": 22.6108012609,
			"0.001": 19.6008048162,
			"0.002": 9.06008548578,
			"0.003": 7.46919890916,
			"0.004": 7.28870827264,
			"0.005": 5.54783762216,
			"0.006": 6.07256541702,
			"0.007": 5.49908731776,
			"0.008": 2.91299918306,
			"0.009": 3.07440033818,
			"0.01": 4.4532201334,
			"0.011": 3.74645893678,
			"0.012": 4.09486507243,
			"0.013": 7.18966806247,
			"0.014": 4.61908452239,
			"0.015": 0.461944626432,
			"0.016": 0.00517226023767,
			"0.017": 0.0,
			"0.018": 0.0,
			"0.019": 0.0,
			"0.02": 0.0,
			"0.021": 0.0,
			"0.022": 0.0,
			"0.023": 0.0,
			"0.024": 0.0,
			"0.025": 0.0
		}
	}
}
