{
	 "smiles": "CC1=CN2C(C=C1)=NC=C2C(O)=O", 
	 "Tm": 451.15, 
	 "num_atms": 21, 
	 "gaussian": { 
		 "optdone": 1, 
		 "sigma_profile": "yes", 
		 "theory": "DFT", 
		 "functional": "B3LYP", 
		 "basiset": "6-31G**", 
		 "properties": { 
			 "R2extent": 2726.7378, 
			 "electric_dipole_moment_norm": 4.95546737755, 
			 "electric_quadrupole_moment_norm": 8.23706658829, 
			 "total_energy": -607.749060584, 
			 "HOMO_LUMO_gap": 0.17572, 
			 "cosmo_polarized_energy": -13.37, 
			 "cosmo_cavitation_energy": 25.56, 
			 "cosmo_dispersion_energy": -18.99, 
			 "cosmo_repulsion_energy": 1.48, 
			 "cosmo_total_nonelectrostatic_energy": 8.05, 
			 "SMD_solvation_energy": 4.15 
		},
		"coords": [
			{
				"x": -0.8193856575,
				"y": 2.0502592236,
				"z": -2.60163159,
				"element": "C" 
			},
			{
				"x": -1.1796405971,
				"y": 1.6591956476,
				"z": -1.1898805294,
				"element": "C" 
			},
			{
				"x": -0.6180995221,
				"y": 0.5491742981,
				"z": -0.6105404921,
				"element": "C" 
			},
			{
				"x": -0.9513846088,
				"y": 0.1988376365,
				"z": 0.6771512432,
				"element": "N" 
			},
			{
				"x": -1.861059918,
				"y": 0.947581751,
				"z": 1.4352959162,
				"element": "C" 
			},
			{
				"x": -2.4439214941,
				"y": 2.0899243988,
				"z": 0.8497685501,
				"element": "C" 
			},
			{
				"x": -2.1084721989,
				"y": 2.4363648228,
				"z": -0.4362939491,
				"element": "C" 
			},
			{
				"x": -2.0369908921,
				"y": 0.4259192602,
				"z": 2.6595687177,
				"element": "N" 
			},
			{
				"x": -1.2426251793,
				"y": -0.6588437794,
				"z": 2.6944334752,
				"element": "C" 
			},
			{
				"x": -0.5459590641,
				"y": -0.8534047044,
				"z": 1.5011165183,
				"element": "C" 
			},
			{
				"x": 0.3885837936,
				"y": -1.9243020823,
				"z": 1.2101337108,
				"element": "C" 
			},
			{
				"x": 0.9276325276,
				"y": -1.8693895485,
				"z": -0.0449072815,
				"element": "O" 
			},
			{
				"x": 0.6849511701,
				"y": -2.8060299022,
				"z": 1.9949674824,
				"element": "O" 
			},
			{
				"x": -0.0981058319,
				"y": 1.3549614616,
				"z": -3.0387121123,
				"element": "H" 
			},
			{
				"x": -1.7056072018,
				"y": 2.0641012455,
				"z": -3.2461848754,
				"element": "H" 
			},
			{
				"x": -0.380371204,
				"y": 3.0538839287,
				"z": -2.633826114,
				"element": "H" 
			},
			{
				"x": 0.0926903586,
				"y": -0.0951711254,
				"z": -1.1070457423,
				"element": "H" 
			},
			{
				"x": -3.1462365653,
				"y": 2.6623694085,
				"z": 1.44415967,
				"element": "H" 
			},
			{
				"x": -2.5532847812,
				"y": 3.3150957689,
				"z": -0.8943265515,
				"element": "H" 
			},
			{
				"x": -1.1700309791,
				"y": -1.2952137275,
				"z": 3.5663505549,
				"element": "H" 
			},
			{
				"x": 1.5243178453,
				"y": -2.6342139819,
				"z": -0.0991966013,
				"element": "H" 
			}
		],
		 "valence_orbital": [ 
			{
				"type": "occ",
				"energy": -0.31847,
				"method": "rhf"
			},
			{
				"type": "occ",
				"energy": -0.28181,
				"method": "rhf"
			},
			{
				"type": "occ",
				"energy": -0.27588,
				"method": "rhf"
			},
			{
				"type": "occ",
				"energy": -0.25019,
				"method": "rhf"
			},
			{
				"type": "occ",
				"energy": -0.22236,
				"method": "rhf"
			},
			{
				"type": "unocc",
				"energy": -0.04664,
				"method": "rhf"
			},
			{
				"type": "unocc",
				"energy": -0.03187,
				"method": "rhf"
			},
			{
				"type": "unocc",
				"energy": 0.02168,
				"method": "rhf"
			},
			{
				"type": "unocc",
				"energy": 0.0743,
				"method": "rhf"
			},
			{
				"type": "unocc",
				"energy": 0.09348,
				"method": "rhf"
			}
		],
		"cosmo_sigma_profile": { 
			"-0.025": 0.0,
			"-0.024": 0.0,
			"-0.023": 0.0,
			"-0.022": 0.0,
			"-0.021": 0.0,
			"-0.02": 0.0,
			"-0.019": 0.122924793939,
			"-0.018": 0.791114369875,
			"-0.017": 1.03173840889,
			"-0.016": 0.800971626362,
			"-0.015": 0.545397805074,
			"-0.014": 0.239352862352,
			"-0.013": 0.482620315001,
			"-0.012": 1.01637472167,
			"-0.011": 0.837874670173,
			"-0.01": 0.676057659146,
			"-0.009": 0.359522627411,
			"-0.008": 2.29142144078,
			"-0.007": 7.6349523831,
			"-0.006": 7.57197567835,
			"-0.005": 12.0999944269,
			"-0.004": 12.8971146917,
			"-0.003": 13.2634541834,
			"-0.002": 19.0302258748,
			"-0.001": 24.2217116015,
			"0.0": 18.9991749808,
			"0.001": 18.789773565,
			"0.002": 14.4445268216,
			"0.003": 7.52853065757,
			"0.004": 4.92932351052,
			"0.005": 4.53843638602,
			"0.006": 3.42441502207,
			"0.007": 2.29287053831,
			"0.008": 1.93828896921,
			"0.009": 2.76752319045,
			"0.01": 3.36886271184,
			"0.011": 3.71448872593,
			"0.012": 6.41656875249,
			"0.013": 2.54032562749,
			"0.014": 0.48619363508,
			"0.015": 1.26657464936,
			"0.016": 0.814282936678,
			"0.017": 0.731791493398,
			"0.018": 0.00261116163327,
			"0.019": 0.0,
			"0.02": 0.0,
			"0.021": 0.0,
			"0.022": 0.0,
			"0.023": 0.0,
			"0.024": 0.0,
			"0.025": 0.0
		}
	}
}
