{
	 "smiles": "CCOC(=O)C1=C(N)SSC1=O", 
	 "Tm": 457.15, 
	 "num_atms": 19, 
	 "gaussian": { 
		 "optdone": 1, 
		 "sigma_profile": "yes", 
		 "theory": "DFT", 
		 "functional": "B3LYP", 
		 "basiset": "6-31G**", 
		 "properties": { 
			 "R2extent": 3498.7725, 
			 "electric_dipole_moment_norm": 3.82668192564, 
			 "electric_quadrupole_moment_norm": 13.9331185712, 
			 "total_energy": -1309.67630538, 
			 "HOMO_LUMO_gap": 0.17221, 
			 "cosmo_polarized_energy": -14.37, 
			 "cosmo_cavitation_energy": 26.75, 
			 "cosmo_dispersion_energy": -20.93, 
			 "cosmo_repulsion_energy": 1.59, 
			 "cosmo_total_nonelectrostatic_energy": 7.42, 
			 "SMD_solvation_energy": 5.11 
		},
		"coords": [
			{
				"x": -2.5780759859,
				"y": -2.5959075297,
				"z": 0.649967391,
				"element": "C" 
			},
			{
				"x": -2.5630771039,
				"y": -1.1430026111,
				"z": 0.2158368455,
				"element": "C" 
			},
			{
				"x": -1.2195950847,
				"y": -0.8472795629,
				"z": -0.2346516073,
				"element": "O" 
			},
			{
				"x": -0.9966067048,
				"y": 0.3978546993,
				"z": -0.6614365831,
				"element": "C" 
			},
			{
				"x": -1.8809451963,
				"y": 1.259197406,
				"z": -0.6756604045,
				"element": "O" 
			},
			{
				"x": 0.3838728384,
				"y": 0.6424424008,
				"z": -1.1068584097,
				"element": "C" 
			},
			{
				"x": 0.7307251371,
				"y": 1.9123106897,
				"z": -1.5737819941,
				"element": "C" 
			},
			{
				"x": -0.1145187989,
				"y": 2.9451607445,
				"z": -1.6480926623,
				"element": "N" 
			},
			{
				"x": 2.3870758047,
				"y": 2.2039842824,
				"z": -2.1076959598,
				"element": "S" 
			},
			{
				"x": 3.0554144708,
				"y": 0.2555620261,
				"z": -1.7164090402,
				"element": "S" 
			},
			{
				"x": 1.4069931663,
				"y": -0.3870892946,
				"z": -1.0814835695,
				"element": "C" 
			},
			{
				"x": 1.376021509,
				"y": -1.5401273353,
				"z": -0.7345494688,
				"element": "O" 
			},
			{
				"x": -2.311813411,
				"y": -3.2537642503,
				"z": -0.1816850927,
				"element": "H" 
			},
			{
				"x": -3.5790491955,
				"y": -2.8661694889,
				"z": 1.0007058649,
				"element": "H" 
			},
			{
				"x": -1.8671048359,
				"y": -2.7669222584,
				"z": 1.4627445882,
				"element": "H" 
			},
			{
				"x": -2.8181434444,
				"y": -0.4630549718,
				"z": 1.0346769823,
				"element": "H" 
			},
			{
				"x": -3.2609019182,
				"y": -0.9483939204,
				"z": -0.6046035075,
				"element": "H" 
			},
			{
				"x": -1.0690863167,
				"y": 2.7544850626,
				"z": -1.3341485653,
				"element": "H" 
			},
			{
				"x": 0.1755150699,
				"y": 3.8465139119,
				"z": -1.9918748071,
				"element": "H" 
			}
		],
		 "valence_orbital": [ 
			{
				"type": "occ",
				"energy": -0.30474,
				"method": "rhf"
			},
			{
				"type": "occ",
				"energy": -0.28879,
				"method": "rhf"
			},
			{
				"type": "occ",
				"energy": -0.26276,
				"method": "rhf"
			},
			{
				"type": "occ",
				"energy": -0.25018,
				"method": "rhf"
			},
			{
				"type": "occ",
				"energy": -0.23629,
				"method": "rhf"
			},
			{
				"type": "unocc",
				"energy": -0.06408,
				"method": "rhf"
			},
			{
				"type": "unocc",
				"energy": -0.04541,
				"method": "rhf"
			},
			{
				"type": "unocc",
				"energy": -0.01123,
				"method": "rhf"
			},
			{
				"type": "unocc",
				"energy": -0.00616,
				"method": "rhf"
			},
			{
				"type": "unocc",
				"energy": 0.06125,
				"method": "rhf"
			}
		],
		"cosmo_sigma_profile": { 
			"-0.025": 0.0,
			"-0.024": 0.0,
			"-0.023": 0.0,
			"-0.022": 0.0,
			"-0.021": 0.0,
			"-0.02": 0.0,
			"-0.019": 0.0,
			"-0.018": 0.0,
			"-0.017": 1.01317760696,
			"-0.016": 1.2671036196,
			"-0.015": 1.42209752825,
			"-0.014": 1.3437654623,
			"-0.013": 1.18679435009,
			"-0.012": 1.75707379576,
			"-0.011": 2.40172232475,
			"-0.01": 1.31812957444,
			"-0.009": 0.806678899412,
			"-0.008": 1.99510100826,
			"-0.007": 2.43993720531,
			"-0.006": 3.71038900466,
			"-0.005": 8.71171331332,
			"-0.004": 15.3722646692,
			"-0.003": 17.5246403912,
			"-0.002": 21.2256865329,
			"-0.001": 25.4233224693,
			"0.0": 23.0013552552,
			"0.001": 14.8326368627,
			"0.002": 13.4267153217,
			"0.003": 9.87147371185,
			"0.004": 8.25621142689,
			"0.005": 7.52393841871,
			"0.006": 4.7322346401,
			"0.007": 3.20318470656,
			"0.008": 3.11947320178,
			"0.009": 3.60376752718,
			"0.01": 5.16133740228,
			"0.011": 7.31592303347,
			"0.012": 3.87922648986,
			"0.013": 0.920289755669,
			"0.014": 0.00136938228408,
			"0.015": 0.0,
			"0.016": 0.0,
			"0.017": 0.0,
			"0.018": 0.0,
			"0.019": 0.0,
			"0.02": 0.0,
			"0.021": 0.0,
			"0.022": 0.0,
			"0.023": 0.0,
			"0.024": 0.0,
			"0.025": 0.0
		}
	}
}
