{
	 "smiles": "CN(C)CC(O)=O", 
	 "Tm": 456.15, 
	 "num_atms": 16, 
	 "gaussian": { 
		 "optdone": 1, 
		 "sigma_profile": "yes", 
		 "theory": "DFT", 
		 "functional": "B3LYP", 
		 "basiset": "6-31G**", 
		 "properties": { 
			 "R2extent": 1013.2513, 
			 "electric_dipole_moment_norm": 5.24293120115, 
			 "electric_quadrupole_moment_norm": 12.0857050034, 
			 "total_energy": -363.049841527, 
			 "HOMO_LUMO_gap": 0.26394, 
			 "cosmo_polarized_energy": -11.42, 
			 "cosmo_cavitation_energy": 18.9, 
			 "cosmo_dispersion_energy": -13.87, 
			 "cosmo_repulsion_energy": 1.19, 
			 "cosmo_total_nonelectrostatic_energy": 6.22, 
			 "SMD_solvation_energy": 4.6 
		},
		"coords": [
			{
				"x": 0.7468924466,
				"y": 1.1492086607,
				"z": 0.4316914562,
				"element": "C" 
			},
			{
				"x": -0.4286619239,
				"y": 0.363633934,
				"z": 0.042592787,
				"element": "N" 
			},
			{
				"x": -0.9748071087,
				"y": 0.8103919084,
				"z": -1.2391522878,
				"element": "C" 
			},
			{
				"x": -0.1551603299,
				"y": -1.0753208891,
				"z": 0.0869209326,
				"element": "C" 
			},
			{
				"x": -0.3033154178,
				"y": -1.623005752,
				"z": 1.5155725238,
				"element": "C" 
			},
			{
				"x": -1.0350095428,
				"y": -0.8242591878,
				"z": 2.3123838118,
				"element": "O" 
			},
			{
				"x": 0.156982418,
				"y": -2.6796122101,
				"z": 1.8729295018,
				"element": "O" 
			},
			{
				"x": 0.478228726,
				"y": 2.2078332044,
				"z": 0.4905117037,
				"element": "H" 
			},
			{
				"x": 1.0941830996,
				"y": 0.8315485054,
				"z": 1.4188483552,
				"element": "H" 
			},
			{
				"x": 1.5814685428,
				"y": 1.0401149046,
				"z": -0.2814748433,
				"element": "H" 
			},
			{
				"x": -1.2361983221,
				"y": 1.8706968226,
				"z": -1.1728045195,
				"element": "H" 
			},
			{
				"x": -1.884787355,
				"y": 0.2494521877,
				"z": -1.4701530878,
				"element": "H" 
			},
			{
				"x": -0.2661331578,
				"y": 0.6849021867,
				"z": -2.0753682334,
				"element": "H" 
			},
			{
				"x": -0.8954484524,
				"y": -1.6003577523,
				"z": -0.5273174141,
				"element": "H" 
			},
			{
				"x": 0.8375265379,
				"y": -1.355508999,
				"z": -0.2941298302,
				"element": "H" 
			},
			{
				"x": -1.2519601607,
				"y": -0.0434175243,
				"z": 1.751349144,
				"element": "H" 
			}
		],
		 "valence_orbital": [ 
			{
				"type": "occ",
				"energy": -0.37795,
				"method": "rhf"
			},
			{
				"type": "occ",
				"energy": -0.36827,
				"method": "rhf"
			},
			{
				"type": "occ",
				"energy": -0.30222,
				"method": "rhf"
			},
			{
				"type": "occ",
				"energy": -0.26976,
				"method": "rhf"
			},
			{
				"type": "occ",
				"energy": -0.24663,
				"method": "rhf"
			},
			{
				"type": "unocc",
				"energy": 0.01731,
				"method": "rhf"
			},
			{
				"type": "unocc",
				"energy": 0.06339,
				"method": "rhf"
			},
			{
				"type": "unocc",
				"energy": 0.11759,
				"method": "rhf"
			},
			{
				"type": "unocc",
				"energy": 0.12425,
				"method": "rhf"
			},
			{
				"type": "unocc",
				"energy": 0.12539,
				"method": "rhf"
			}
		],
		"cosmo_sigma_profile": { 
			"-0.025": 0.0,
			"-0.024": 0.0,
			"-0.023": 0.0,
			"-0.022": 0.0,
			"-0.021": 0.0,
			"-0.02": 0.0,
			"-0.019": 0.0,
			"-0.018": 0.0,
			"-0.017": 0.0,
			"-0.016": 0.0,
			"-0.015": 0.0,
			"-0.014": 0.0,
			"-0.013": 0.0,
			"-0.012": 0.0,
			"-0.011": 0.140482191503,
			"-0.01": 0.633291127161,
			"-0.009": 0.547758831439,
			"-0.008": 2.02901440753,
			"-0.007": 4.8054761566,
			"-0.006": 5.32892489917,
			"-0.005": 13.6398856338,
			"-0.004": 17.3014084283,
			"-0.003": 21.0115303079,
			"-0.002": 17.0021026365,
			"-0.001": 17.8921841871,
			"0.0": 5.00970011766,
			"0.001": 2.59130566564,
			"0.002": 2.76566514336,
			"0.003": 2.58891392415,
			"0.004": 1.63488321217,
			"0.005": 2.24071090861,
			"0.006": 2.40793381584,
			"0.007": 1.55842319316,
			"0.008": 3.02996489011,
			"0.009": 3.18810134359,
			"0.01": 4.36219362894,
			"0.011": 5.28920546997,
			"0.012": 6.00559738963,
			"0.013": 3.95129664781,
			"0.014": 0.539928282449,
			"0.015": 0.0,
			"0.016": 0.0,
			"0.017": 0.0,
			"0.018": 0.0,
			"0.019": 0.0,
			"0.02": 0.0,
			"0.021": 0.0,
			"0.022": 0.0,
			"0.023": 0.0,
			"0.024": 0.0,
			"0.025": 0.0
		}
	}
}
