{
	 "smiles": "CCOC1=C(C=CC=C1)C1=NN(C=C1C(O)=O)C(C)(C)C", 
	 "Tm": 481.15, 
	 "num_atms": 41, 
	 "gaussian": { 
		 "optdone": 1, 
		 "sigma_profile": "yes", 
		 "theory": "DFT", 
		 "functional": "B3LYP", 
		 "basiset": "6-31G**", 
		 "properties": { 
			 "R2extent": 7236.3342, 
			 "electric_dipole_moment_norm": 4.70451717183, 
			 "electric_quadrupole_moment_norm": 20.4203046064, 
			 "total_energy": -956.933777471, 
			 "HOMO_LUMO_gap": 0.19036, 
			 "cosmo_polarized_energy": -21.02, 
			 "cosmo_cavitation_energy": 43.2, 
			 "cosmo_dispersion_energy": -29.14, 
			 "cosmo_repulsion_energy": 2.25, 
			 "cosmo_total_nonelectrostatic_energy": 16.31, 
			 "SMD_solvation_energy": 8.1 
		},
		"coords": [
			{
				"x": -4.2493002792,
				"y": -1.6280361662,
				"z": -3.3373989118,
				"element": "C" 
			},
			{
				"x": -3.9684427895,
				"y": -0.6149040349,
				"z": -2.2334477544,
				"element": "C" 
			},
			{
				"x": -2.6006692534,
				"y": -0.6568593951,
				"z": -1.8051542181,
				"element": "O" 
			},
			{
				"x": -1.692678253,
				"y": 0.2200302768,
				"z": -2.3214962654,
				"element": "C" 
			},
			{
				"x": -0.5110290601,
				"y": 0.4160448881,
				"z": -1.5712928434,
				"element": "C" 
			},
			{
				"x": 0.4898253424,
				"y": 1.2429422489,
				"z": -2.0971263051,
				"element": "C" 
			},
			{
				"x": 0.329422721,
				"y": 1.894504345,
				"z": -3.3185354264,
				"element": "C" 
			},
			{
				"x": -0.8528954656,
				"y": 1.7159742323,
				"z": -4.0345881076,
				"element": "C" 
			},
			{
				"x": -1.8575086371,
				"y": 0.8800979062,
				"z": -3.5451286529,
				"element": "C" 
			},
			{
				"x": -0.2924797342,
				"y": -0.2404709551,
				"z": -0.2682419779,
				"element": "C" 
			},
			{
				"x": 0.915255145,
				"y": -0.72700996,
				"z": 0.0304682962,
				"element": "N" 
			},
			{
				"x": 0.8203049306,
				"y": -1.2385090927,
				"z": 1.2803461703,
				"element": "N" 
			},
			{
				"x": -0.431198443,
				"y": -1.1071303417,
				"z": 1.7798521844,
				"element": "C" 
			},
			{
				"x": -1.1938068538,
				"y": -0.459963408,
				"z": 0.815506923,
				"element": "C" 
			},
			{
				"x": -2.5898107472,
				"y": 0.0006497902,
				"z": 0.9782926019,
				"element": "C" 
			},
			{
				"x": -3.3929780504,
				"y": -0.8491825456,
				"z": 1.6934666759,
				"element": "O" 
			},
			{
				"x": -3.0367466822,
				"y": 1.0444495434,
				"z": 0.5692475893,
				"element": "O" 
			},
			{
				"x": 2.0325443382,
				"y": -1.8464891842,
				"z": 1.8915346333,
				"element": "C" 
			},
			{
				"x": 3.1252941432,
				"y": -0.7651836013,
				"z": 1.9587358862,
				"element": "C" 
			},
			{
				"x": 1.6960512743,
				"y": -2.3507768262,
				"z": 3.3003298148,
				"element": "C" 
			},
			{
				"x": 2.4804824145,
				"y": -3.0162295514,
				"z": 0.9973025184,
				"element": "C" 
			},
			{
				"x": -3.9712520962,
				"y": -2.6340276398,
				"z": -3.009463672,
				"element": "H" 
			},
			{
				"x": -3.6890997694,
				"y": -1.4038847814,
				"z": -4.2496079377,
				"element": "H" 
			},
			{
				"x": -5.3170763946,
				"y": -1.6297690176,
				"z": -3.5821096945,
				"element": "H" 
			},
			{
				"x": -4.5496617516,
				"y": -0.8527878169,
				"z": -1.3377069043,
				"element": "H" 
			},
			{
				"x": -4.2353350839,
				"y": 0.4039334681,
				"z": -2.5338232615,
				"element": "H" 
			},
			{
				"x": 1.3961761942,
				"y": 1.3786687022,
				"z": -1.5163546094,
				"element": "H" 
			},
			{
				"x": 1.1143309973,
				"y": 2.5398162937,
				"z": -3.7003129788,
				"element": "H" 
			},
			{
				"x": -0.9994706108,
				"y": 2.2203170277,
				"z": -4.9856377442,
				"element": "H" 
			},
			{
				"x": -2.7587000849,
				"y": 0.7320758432,
				"z": -4.1280727852,
				"element": "H" 
			},
			{
				"x": -0.6908751689,
				"y": -1.4215341048,
				"z": 2.7788790701,
				"element": "H" 
			},
			{
				"x": -2.9429519454,
				"y": -1.7010896386,
				"z": 1.7826635588,
				"element": "H" 
			},
			{
				"x": 3.3361467125,
				"y": -0.3762295826,
				"z": 0.9607785215,
				"element": "H" 
			},
			{
				"x": 2.8091129251,
				"y": 0.0673051891,
				"z": 2.5949786009,
				"element": "H" 
			},
			{
				"x": 4.0446915503,
				"y": -1.1885020749,
				"z": 2.3746768803,
				"element": "H" 
			},
			{
				"x": 0.9192528245,
				"y": -3.1217813616,
				"z": 3.2818356367,
				"element": "H" 
			},
			{
				"x": 2.5928698574,
				"y": -2.7957025858,
				"z": 3.7391567449,
				"element": "H" 
			},
			{
				"x": 1.3735709435,
				"y": -1.5373107582,
				"z": 3.9577431035,
				"element": "H" 
			},
			{
				"x": 3.3952597827,
				"y": -3.4638737237,
				"z": 1.3977898791,
				"element": "H" 
			},
			{
				"x": 1.7075645458,
				"y": -3.7900605039,
				"z": 0.9541582995,
				"element": "H" 
			},
			{
				"x": 2.673310512,
				"y": -2.6650111029,
				"z": -0.0181435385,
				"element": "H" 
			}
		],
		 "valence_orbital": [ 
			{
				"type": "occ",
				"energy": -0.27656,
				"method": "rhf"
			},
			{
				"type": "occ",
				"energy": -0.26366,
				"method": "rhf"
			},
			{
				"type": "occ",
				"energy": -0.24833,
				"method": "rhf"
			},
			{
				"type": "occ",
				"energy": -0.23017,
				"method": "rhf"
			},
			{
				"type": "occ",
				"energy": -0.20638,
				"method": "rhf"
			},
			{
				"type": "unocc",
				"energy": -0.01602,
				"method": "rhf"
			},
			{
				"type": "unocc",
				"energy": -0.00699,
				"method": "rhf"
			},
			{
				"type": "unocc",
				"energy": 0.01745,
				"method": "rhf"
			},
			{
				"type": "unocc",
				"energy": 0.03659,
				"method": "rhf"
			},
			{
				"type": "unocc",
				"energy": 0.06881,
				"method": "rhf"
			}
		],
		"cosmo_sigma_profile": { 
			"-0.025": 0.0,
			"-0.024": 0.0,
			"-0.023": 0.0,
			"-0.022": 0.0,
			"-0.021": 0.0,
			"-0.02": 0.0,
			"-0.019": 0.0,
			"-0.018": 0.402739460066,
			"-0.017": 0.952423988742,
			"-0.016": 0.710917501504,
			"-0.015": 1.08452827259,
			"-0.014": 0.84191990144,
			"-0.013": 0.932152776146,
			"-0.012": 1.13007252138,
			"-0.011": 1.84658448942,
			"-0.01": 1.76157262656,
			"-0.009": 1.68094695593,
			"-0.008": 1.93686943496,
			"-0.007": 3.42563514836,
			"-0.006": 7.96078487632,
			"-0.005": 20.4711047952,
			"-0.004": 35.0589033762,
			"-0.003": 34.7193379959,
			"-0.002": 30.4624786516,
			"-0.001": 32.2820325618,
			"0.0": 33.120044517,
			"0.001": 20.8048890493,
			"0.002": 14.5745399091,
			"0.003": 13.5078716963,
			"0.004": 15.1407367978,
			"0.005": 16.0725869403,
			"0.006": 12.6965930492,
			"0.007": 5.80313552597,
			"0.008": 5.04463142354,
			"0.009": 5.25067091756,
			"0.01": 5.81978525634,
			"0.011": 5.43855703147,
			"0.012": 5.56740782906,
			"0.013": 3.29630501499,
			"0.014": 0.431251280818,
			"0.015": 0.0,
			"0.016": 0.0,
			"0.017": 0.0,
			"0.018": 0.0,
			"0.019": 0.0,
			"0.02": 0.0,
			"0.021": 0.0,
			"0.022": 0.0,
			"0.023": 0.0,
			"0.024": 0.0,
			"0.025": 0.0
		}
	}
}
