{
	 "smiles": "CC(CC(O)=O)C1=CC=C(Br)C=C1", 
	 "Tm": 375.15, 
	 "num_atms": 24, 
	 "gaussian": { 
		 "optdone": 1, 
		 "sigma_profile": "yes", 
		 "theory": "DFT", 
		 "functional": "B3LYP", 
		 "basiset": "6-31G**", 
		 "properties": { 
			 "R2extent": 6513.096, 
			 "electric_dipole_moment_norm": 1.91603437339, 
			 "electric_quadrupole_moment_norm": 10.8420073155, 
			 "total_energy": -3109.57233371, 
			 "HOMO_LUMO_gap": 0.22219, 
			 "cosmo_polarized_energy": -10.61, 
			 "cosmo_cavitation_energy": 30.33, 
			 "cosmo_dispersion_energy": -21.9, 
			 "cosmo_repulsion_energy": 1.76, 
			 "cosmo_total_nonelectrostatic_energy": 10.18, 
			 "SMD_solvation_energy": 5.13 
		},
		"coords": [
			{
				"x": -1.6477693646,
				"y": 0.5298907808,
				"z": -1.1419827811,
				"element": "C" 
			},
			{
				"x": -0.214675299,
				"y": 0.102823736,
				"z": -1.5115783298,
				"element": "C" 
			},
			{
				"x": 0.2782807965,
				"y": 0.816115571,
				"z": -2.7866080922,
				"element": "C" 
			},
			{
				"x": -0.4447282145,
				"y": 0.3708668692,
				"z": -4.041136956,
				"element": "C" 
			},
			{
				"x": -0.2097438363,
				"y": 1.215793776,
				"z": -5.0739076879,
				"element": "O" 
			},
			{
				"x": -1.130959359,
				"y": -0.6216662569,
				"z": -4.1571027941,
				"element": "O" 
			},
			{
				"x": 0.7587448006,
				"y": 0.3117406331,
				"z": -0.3605366977,
				"element": "C" 
			},
			{
				"x": 1.0096032853,
				"y": 1.5872280198,
				"z": 0.1672829057,
				"element": "C" 
			},
			{
				"x": 1.9033932093,
				"y": 1.7754244844,
				"z": 1.2207599276,
				"element": "C" 
			},
			{
				"x": 2.5593307066,
				"y": 0.670171595,
				"z": 1.7607073414,
				"element": "C" 
			},
			{
				"x": 3.7867914002,
				"y": 0.9169457661,
				"z": 3.2069591787,
				"element": "Br" 
			},
			{
				"x": 2.332475896,
				"y": -0.6095211767,
				"z": 1.2616978904,
				"element": "C" 
			},
			{
				"x": 1.4350802669,
				"y": -0.7760282608,
				"z": 0.2052691819,
				"element": "C" 
			},
			{
				"x": -2.3365064432,
				"y": 0.3028210901,
				"z": -1.9599514372,
				"element": "H" 
			},
			{
				"x": -1.9911013948,
				"y": -0.0019291102,
				"z": -0.2498676987,
				"element": "H" 
			},
			{
				"x": -1.7033248167,
				"y": 1.6038798469,
				"z": -0.9314078841,
				"element": "H" 
			},
			{
				"x": -0.2389222488,
				"y": -0.9681953266,
				"z": -1.7406480908,
				"element": "H" 
			},
			{
				"x": 1.3445597333,
				"y": 0.6127066975,
				"z": -2.9504016547,
				"element": "H" 
			},
			{
				"x": 0.1932048689,
				"y": 1.905345615,
				"z": -2.7038198397,
				"element": "H" 
			},
			{
				"x": -0.6759921483,
				"y": 0.8416558797,
				"z": -5.8407292165,
				"element": "H" 
			},
			{
				"x": 0.5010115934,
				"y": 2.4551959684,
				"z": -0.2437950169,
				"element": "H" 
			},
			{
				"x": 2.0880127935,
				"y": 2.7669957462,
				"z": 1.618457693,
				"element": "H" 
			},
			{
				"x": 2.8468742472,
				"y": -1.4626528172,
				"z": 1.6894413438,
				"element": "H" 
			},
			{
				"x": 1.2586595276,
				"y": -1.7758091268,
				"z": -0.183401285,
				"element": "H" 
			}
		],
		 "valence_orbital": [ 
			{
				"type": "occ",
				"energy": -0.30675,
				"method": "rhf"
			},
			{
				"type": "occ",
				"energy": -0.28606,
				"method": "rhf"
			},
			{
				"type": "occ",
				"energy": -0.28173,
				"method": "rhf"
			},
			{
				"type": "occ",
				"energy": -0.26368,
				"method": "rhf"
			},
			{
				"type": "occ",
				"energy": -0.23841,
				"method": "rhf"
			},
			{
				"type": "unocc",
				"energy": -0.01622,
				"method": "rhf"
			},
			{
				"type": "unocc",
				"energy": -0.01328,
				"method": "rhf"
			},
			{
				"type": "unocc",
				"energy": 0.00318,
				"method": "rhf"
			},
			{
				"type": "unocc",
				"energy": 0.00821,
				"method": "rhf"
			},
			{
				"type": "unocc",
				"energy": 0.07456,
				"method": "rhf"
			}
		],
		"cosmo_sigma_profile": { 
			"-0.025": 0.0,
			"-0.024": 0.0,
			"-0.023": 0.0,
			"-0.022": 0.0,
			"-0.021": 0.0,
			"-0.02": 0.0,
			"-0.019": 0.0,
			"-0.018": 0.509119733185,
			"-0.017": 1.07468503372,
			"-0.016": 0.805012513003,
			"-0.015": 0.811587200195,
			"-0.014": 0.641973949961,
			"-0.013": 0.713490685468,
			"-0.012": 0.616358339872,
			"-0.011": 0.832404359238,
			"-0.01": 0.919663267781,
			"-0.009": 0.373113252384,
			"-0.008": 0.623078730444,
			"-0.007": 4.97480244673,
			"-0.006": 13.4620826108,
			"-0.005": 15.4071059143,
			"-0.004": 15.6539881335,
			"-0.003": 18.2249881487,
			"-0.002": 18.5035622802,
			"-0.001": 18.3930227242,
			"0.0": 17.7250305075,
			"0.001": 18.3349247608,
			"0.002": 18.5420792397,
			"0.003": 17.8917826029,
			"0.004": 23.203978094,
			"0.005": 13.6323892381,
			"0.006": 2.47623838652,
			"0.007": 2.86859427822,
			"0.008": 2.43054444178,
			"0.009": 3.32981651924,
			"0.01": 2.72917325629,
			"0.011": 3.01082494718,
			"0.012": 4.08171822804,
			"0.013": 0.292682756059,
			"0.014": 0.0,
			"0.015": 0.0,
			"0.016": 0.0,
			"0.017": 0.0,
			"0.018": 0.0,
			"0.019": 0.0,
			"0.02": 0.0,
			"0.021": 0.0,
			"0.022": 0.0,
			"0.023": 0.0,
			"0.024": 0.0,
			"0.025": 0.0
		}
	}
}
