{
	 "smiles": "OCCCCCCCCCCCBr", 
	 "Tm": 319.15, 
	 "num_atms": 36, 
	 "gaussian": { 
		 "optdone": 1, 
		 "sigma_profile": "yes", 
		 "theory": "DFT", 
		 "functional": "B3LYP", 
		 "basiset": "6-31G**", 
		 "properties": { 
			 "R2extent": 7021.6538, 
			 "electric_dipole_moment_norm": 1.75778784556, 
			 "electric_quadrupole_moment_norm": 17.7548113645, 
			 "total_energy": -3079.68196143, 
			 "HOMO_LUMO_gap": 0.26688, 
			 "cosmo_polarized_energy": -8.66, 
			 "cosmo_cavitation_energy": 38.63, 
			 "cosmo_dispersion_energy": -26.78, 
			 "cosmo_repulsion_energy": 2.23, 
			 "cosmo_total_nonelectrostatic_energy": 14.09, 
			 "SMD_solvation_energy": 4.24 
		},
		"coords": [
			{
				"x": 0.531414759,
				"y": -4.8611160695,
				"z": 1.7291052069,
				"element": "O" 
			},
			{
				"x": -0.6974384505,
				"y": -4.2805871538,
				"z": 2.1588149267,
				"element": "C" 
			},
			{
				"x": -0.4528832166,
				"y": -2.8492465463,
				"z": 2.6275859794,
				"element": "C" 
			},
			{
				"x": -0.0987472862,
				"y": -1.8334908762,
				"z": 1.5269971353,
				"element": "C" 
			},
			{
				"x": 1.321444024,
				"y": -1.9601703667,
				"z": 0.9527449955,
				"element": "C" 
			},
			{
				"x": 1.6914215558,
				"y": -0.8600074762,
				"z": -0.0561286296,
				"element": "C" 
			},
			{
				"x": 0.9039092862,
				"y": -0.91624957,
				"z": -1.3744527563,
				"element": "C" 
			},
			{
				"x": 1.3894681298,
				"y": 0.0743762766,
				"z": -2.4478841108,
				"element": "C" 
			},
			{
				"x": 1.2587610308,
				"y": 1.5670929724,
				"z": -2.0963340784,
				"element": "C" 
			},
			{
				"x": -0.1844285495,
				"y": 2.0444265214,
				"z": -1.8848589609,
				"element": "C" 
			},
			{
				"x": -0.2761190122,
				"y": 3.5519540002,
				"z": -1.6240631664,
				"element": "C" 
			},
			{
				"x": -1.6891450283,
				"y": 4.0878778221,
				"z": -1.4489096288,
				"element": "C" 
			},
			{
				"x": -2.5755827115,
				"y": 3.3971701394,
				"z": 0.1934825177,
				"element": "Br" 
			},
			{
				"x": 0.3441102308,
				"y": -5.7485387096,
				"z": 1.3993284525,
				"element": "H" 
			},
			{
				"x": -1.4401043776,
				"y": -4.2765703045,
				"z": 1.3429749283,
				"element": "H" 
			},
			{
				"x": -1.1302101503,
				"y": -4.8618293303,
				"z": 2.9895309358,
				"element": "H" 
			},
			{
				"x": 0.3336105683,
				"y": -2.8660264357,
				"z": 3.3935530256,
				"element": "H" 
			},
			{
				"x": -1.3707932726,
				"y": -2.5185273376,
				"z": 3.1312778692,
				"element": "H" 
			},
			{
				"x": -0.8416968425,
				"y": -1.9166898473,
				"z": 0.7219410899,
				"element": "H" 
			},
			{
				"x": -0.218826191,
				"y": -0.8224255961,
				"z": 1.9411167245,
				"element": "H" 
			},
			{
				"x": 1.4441762317,
				"y": -2.9471185661,
				"z": 0.4946103615,
				"element": "H" 
			},
			{
				"x": 2.0353179283,
				"y": -1.9273831871,
				"z": 1.7870393937,
				"element": "H" 
			},
			{
				"x": 1.5572936083,
				"y": 0.1221496733,
				"z": 0.4183563665,
				"element": "H" 
			},
			{
				"x": 2.7631017275,
				"y": -0.940375353,
				"z": -0.2868163291,
				"element": "H" 
			},
			{
				"x": -0.1638138258,
				"y": -0.755511261,
				"z": -1.1810133688,
				"element": "H" 
			},
			{
				"x": 0.9825077046,
				"y": -1.9324454547,
				"z": -1.7849271917,
				"element": "H" 
			},
			{
				"x": 0.8380293044,
				"y": -0.1156360035,
				"z": -3.3792131815,
				"element": "H" 
			},
			{
				"x": 2.4435994682,
				"y": -0.1389616751,
				"z": -2.6720571452,
				"element": "H" 
			},
			{
				"x": 1.7131455699,
				"y": 2.1536406942,
				"z": -2.9069234564,
				"element": "H" 
			},
			{
				"x": 1.8488086039,
				"y": 1.7924394444,
				"z": -1.1981808539,
				"element": "H" 
			},
			{
				"x": -0.6408666631,
				"y": 1.5129506547,
				"z": -1.0427430705,
				"element": "H" 
			},
			{
				"x": -0.7854205361,
				"y": 1.79376568,
				"z": -2.7712378507,
				"element": "H" 
			},
			{
				"x": 0.1579803779,
				"y": 4.0971269443,
				"z": -2.4763892274,
				"element": "H" 
			},
			{
				"x": 0.3250361365,
				"y": 3.8214625216,
				"z": -0.74746969,
				"element": "H" 
			},
			{
				"x": -1.7085674579,
				"y": 5.171081954,
				"z": -1.3337849799,
				"element": "H" 
			},
			{
				"x": -2.3497926741,
				"y": 3.7961918217,
				"z": -2.2662722327,
				"element": "H" 
			}
		],
		 "valence_orbital": [ 
			{
				"type": "occ",
				"energy": -0.29859,
				"method": "rhf"
			},
			{
				"type": "occ",
				"energy": -0.29705,
				"method": "rhf"
			},
			{
				"type": "occ",
				"energy": -0.26794,
				"method": "rhf"
			},
			{
				"type": "occ",
				"energy": -0.26569,
				"method": "rhf"
			},
			{
				"type": "occ",
				"energy": -0.26033,
				"method": "rhf"
			},
			{
				"type": "unocc",
				"energy": 0.00655,
				"method": "rhf"
			},
			{
				"type": "unocc",
				"energy": 0.07596,
				"method": "rhf"
			},
			{
				"type": "unocc",
				"energy": 0.08401,
				"method": "rhf"
			},
			{
				"type": "unocc",
				"energy": 0.0998,
				"method": "rhf"
			},
			{
				"type": "unocc",
				"energy": 0.10879,
				"method": "rhf"
			}
		],
		"cosmo_sigma_profile": { 
			"-0.025": 0.0,
			"-0.024": 0.0,
			"-0.023": 0.0,
			"-0.022": 0.0,
			"-0.021": 0.0,
			"-0.02": 0.0,
			"-0.019": 0.0,
			"-0.018": 0.0,
			"-0.017": 0.0,
			"-0.016": 0.170691729767,
			"-0.015": 1.20889317898,
			"-0.014": 0.734733836774,
			"-0.013": 0.618539281017,
			"-0.012": 1.19878016988,
			"-0.011": 1.25127433866,
			"-0.01": 0.225001560742,
			"-0.009": 0.439525175688,
			"-0.008": 0.998078446234,
			"-0.007": 2.34522311312,
			"-0.006": 5.05939992453,
			"-0.005": 6.88606868872,
			"-0.004": 10.0877626388,
			"-0.003": 19.9662049685,
			"-0.002": 39.8679741374,
			"-0.001": 52.2951048764,
			"0.0": 48.2416571214,
			"0.001": 39.9976022324,
			"0.002": 16.6171731024,
			"0.003": 6.79491828616,
			"0.004": 7.57193572548,
			"0.005": 7.50116458541,
			"0.006": 10.9457894885,
			"0.007": 8.79311854013,
			"0.008": 2.31555655107,
			"0.009": 1.72127460745,
			"0.01": 1.43569349719,
			"0.011": 0.832239241809,
			"0.012": 0.74242302065,
			"0.013": 1.4551939525,
			"0.014": 0.838936738806,
			"0.015": 0.630911039347,
			"0.016": 0.0,
			"0.017": 0.0,
			"0.018": 0.0,
			"0.019": 0.0,
			"0.02": 0.0,
			"0.021": 0.0,
			"0.022": 0.0,
			"0.023": 0.0,
			"0.024": 0.0,
			"0.025": 0.0
		}
	}
}
