{
	 "smiles": "CN(C)S(=O)(=O)C1=CC2=C(OC(NN)=N2)C=C1", 
	 "Tm": 492.15, 
	 "num_atms": 29, 
	 "gaussian": { 
		 "optdone": 1, 
		 "sigma_profile": "yes", 
		 "theory": "DFT", 
		 "functional": "B3LYP", 
		 "basiset": "6-31G**", 
		 "properties": { 
			 "R2extent": 6051.4374, 
			 "electric_dipole_moment_norm": 4.97564581637, 
			 "electric_quadrupole_moment_norm": 19.6628339494, 
			 "total_energy": -1192.9469619, 
			 "HOMO_LUMO_gap": 0.19718, 
			 "cosmo_polarized_energy": -19.41, 
			 "cosmo_cavitation_energy": 34.46, 
			 "cosmo_dispersion_energy": -25.42, 
			 "cosmo_repulsion_energy": 1.93, 
			 "cosmo_total_nonelectrostatic_energy": 10.97, 
			 "SMD_solvation_energy": 3.73 
		},
		"coords": [
			{
				"x": 2.2155715958,
				"y": -3.7175273372,
				"z": 0.575475421,
				"element": "C" 
			},
			{
				"x": 1.2631763983,
				"y": -2.6710293234,
				"z": 0.1747350868,
				"element": "N" 
			},
			{
				"x": 0.5972741158,
				"y": -2.9427927453,
				"z": -1.1044725806,
				"element": "C" 
			},
			{
				"x": 0.1891321894,
				"y": -2.2024486135,
				"z": 1.4164114933,
				"element": "S" 
			},
			{
				"x": 0.9890028058,
				"y": -2.1616761693,
				"z": 2.6453987181,
				"element": "O" 
			},
			{
				"x": -1.05461455,
				"y": -2.9861502245,
				"z": 1.3656577821,
				"element": "O" 
			},
			{
				"x": -0.206625803,
				"y": -0.5227165847,
				"z": 0.9228152829,
				"element": "C" 
			},
			{
				"x": -1.5113737637,
				"y": -0.2414659525,
				"z": 0.5065095565,
				"element": "C" 
			},
			{
				"x": -1.7867588358,
				"y": 1.0831590232,
				"z": 0.1691164111,
				"element": "C" 
			},
			{
				"x": -0.7692692518,
				"y": 2.045561094,
				"z": 0.2663746483,
				"element": "C" 
			},
			{
				"x": -1.3097714416,
				"y": 3.2565186989,
				"z": -0.1176829032,
				"element": "O" 
			},
			{
				"x": -2.6131584008,
				"y": 2.938914394,
				"z": -0.4193467844,
				"element": "C" 
			},
			{
				"x": -3.3831907664,
				"y": 3.966820845,
				"z": -0.8615294579,
				"element": "N" 
			},
			{
				"x": -4.7789718547,
				"y": 3.8009985219,
				"z": -0.9638994391,
				"element": "N" 
			},
			{
				"x": -2.9622575769,
				"y": 1.6946836367,
				"z": -0.2726010785,
				"element": "N" 
			},
			{
				"x": 0.5237952675,
				"y": 1.7817279316,
				"z": 0.6838511832,
				"element": "C" 
			},
			{
				"x": 0.797832254,
				"y": 0.4534922337,
				"z": 1.020249558,
				"element": "C" 
			},
			{
				"x": 2.6574469145,
				"y": -3.4563056367,
				"z": 1.5362676764,
				"element": "H" 
			},
			{
				"x": 1.7501591608,
				"y": -4.7110723334,
				"z": 0.6495078173,
				"element": "H" 
			},
			{
				"x": 3.0039295229,
				"y": -3.7550487572,
				"z": -0.1820371904,
				"element": "H" 
			},
			{
				"x": 1.3705251549,
				"y": -3.0386399803,
				"z": -1.8719626545,
				"element": "H" 
			},
			{
				"x": -0.0064599038,
				"y": -3.8598763157,
				"z": -1.0828097619,
				"element": "H" 
			},
			{
				"x": -0.0459619203,
				"y": -2.1028362694,
				"z": -1.3763322608,
				"element": "H" 
			},
			{
				"x": -2.2631956561,
				"y": -1.0202545685,
				"z": 0.4641518292,
				"element": "H" 
			},
			{
				"x": -3.0835675655,
				"y": 4.9023217771,
				"z": -0.6244828766,
				"element": "H" 
			},
			{
				"x": -5.0931520859,
				"y": 3.2067703882,
				"z": -0.1955780083,
				"element": "H" 
			},
			{
				"x": -4.9637256978,
				"y": 3.2824106472,
				"z": -1.8202743032,
				"element": "H" 
			},
			{
				"x": 1.2776753928,
				"y": 2.5576950811,
				"z": 0.7512219904,
				"element": "H" 
			},
			{
				"x": 1.7851343018,
				"y": 0.1700665389,
				"z": 1.3655648449,
				"element": "H" 
			}
		],
		 "valence_orbital": [ 
			{
				"type": "occ",
				"energy": -0.29305,
				"method": "rhf"
			},
			{
				"type": "occ",
				"energy": -0.28928,
				"method": "rhf"
			},
			{
				"type": "occ",
				"energy": -0.26671,
				"method": "rhf"
			},
			{
				"type": "occ",
				"energy": -0.2481,
				"method": "rhf"
			},
			{
				"type": "occ",
				"energy": -0.227,
				"method": "rhf"
			},
			{
				"type": "unocc",
				"energy": -0.02982,
				"method": "rhf"
			},
			{
				"type": "unocc",
				"energy": -0.02396,
				"method": "rhf"
			},
			{
				"type": "unocc",
				"energy": 0.03736,
				"method": "rhf"
			},
			{
				"type": "unocc",
				"energy": 0.06378,
				"method": "rhf"
			},
			{
				"type": "unocc",
				"energy": 0.07572,
				"method": "rhf"
			}
		],
		"cosmo_sigma_profile": { 
			"-0.025": 0.0,
			"-0.024": 0.0,
			"-0.023": 0.0,
			"-0.022": 0.0,
			"-0.021": 0.0,
			"-0.02": 0.0,
			"-0.019": 0.0,
			"-0.018": 0.0,
			"-0.017": 0.0,
			"-0.016": 0.31085374934,
			"-0.015": 1.0698469735,
			"-0.014": 0.981265230355,
			"-0.013": 1.21047691456,
			"-0.012": 2.0483877532,
			"-0.011": 3.45715406499,
			"-0.01": 3.1566618038,
			"-0.009": 3.64902974786,
			"-0.008": 5.90671634296,
			"-0.007": 7.56283342291,
			"-0.006": 12.5043734012,
			"-0.005": 13.9720642395,
			"-0.004": 22.0730388787,
			"-0.003": 23.8881595915,
			"-0.002": 24.5901388713,
			"-0.001": 16.5506625612,
			"0.0": 16.4739852344,
			"0.001": 17.3172375095,
			"0.002": 17.8839429964,
			"0.003": 12.5189780522,
			"0.004": 8.82243887328,
			"0.005": 7.31419448043,
			"0.006": 6.87145257976,
			"0.007": 4.61553430523,
			"0.008": 5.8150474964,
			"0.009": 5.04610383109,
			"0.01": 9.03371131671,
			"0.011": 9.42265678608,
			"0.012": 5.82018458222,
			"0.013": 1.34931645503,
			"0.014": 0.950788917001,
			"0.015": 1.20425400043,
			"0.016": 0.329773260977,
			"0.017": 0.0,
			"0.018": 0.0,
			"0.019": 0.0,
			"0.02": 0.0,
			"0.021": 0.0,
			"0.022": 0.0,
			"0.023": 0.0,
			"0.024": 0.0,
			"0.025": 0.0
		}
	}
}
