{
	 "smiles": "CC1=C(C=C(C=C1)C(O)=O)S(Cl)(=O)=O", 
	 "Tm": 417.15, 
	 "num_atms": 21, 
	 "gaussian": { 
		 "optdone": 1, 
		 "sigma_profile": "yes", 
		 "theory": "DFT", 
		 "functional": "B3LYP", 
		 "basiset": "6-31G**", 
		 "properties": { 
			 "R2extent": 3788.4413, 
			 "electric_dipole_moment_norm": 3.35526390169, 
			 "electric_quadrupole_moment_norm": 19.2891211998, 
			 "total_energy": -1468.28766821, 
			 "HOMO_LUMO_gap": 0.18534, 
			 "cosmo_polarized_energy": -17.07, 
			 "cosmo_cavitation_energy": 28.75, 
			 "cosmo_dispersion_energy": -21.46, 
			 "cosmo_repulsion_energy": 1.63, 
			 "cosmo_total_nonelectrostatic_energy": 8.92, 
			 "SMD_solvation_energy": 4.97 
		},
		"coords": [
			{
				"x": 0.4956435253,
				"y": -0.6221818635,
				"z": -2.9818648683,
				"element": "C" 
			},
			{
				"x": -0.0578648113,
				"y": -0.7126337565,
				"z": -1.5827587296,
				"element": "C" 
			},
			{
				"x": 0.452507704,
				"y": -0.0007132327,
				"z": -0.4793336981,
				"element": "C" 
			},
			{
				"x": -0.0816632119,
				"y": -0.1094534333,
				"z": 0.806082837,
				"element": "C" 
			},
			{
				"x": -1.1777410387,
				"y": -0.9446156038,
				"z": 1.0306293574,
				"element": "C" 
			},
			{
				"x": -1.6957008764,
				"y": -1.6787455501,
				"z": -0.0436976944,
				"element": "C" 
			},
			{
				"x": -1.1490748,
				"y": -1.5548029857,
				"z": -1.3155916219,
				"element": "C" 
			},
			{
				"x": -1.8108662872,
				"y": -1.1346880041,
				"z": 2.380147878,
				"element": "C" 
			},
			{
				"x": -1.5607660489,
				"y": -0.1934585072,
				"z": 3.3228065539,
				"element": "O" 
			},
			{
				"x": -2.5156808127,
				"y": -2.0815846479,
				"z": 2.6356163176,
				"element": "O" 
			},
			{
				"x": 1.8315037229,
				"y": 1.1406438547,
				"z": -0.636971844,
				"element": "S" 
			},
			{
				"x": 3.4803457504,
				"y": -0.1984108699,
				"z": -0.8315637239,
				"element": "Cl" 
			},
			{
				"x": 2.0183517418,
				"y": 1.8294438837,
				"z": 0.6347441842,
				"element": "O" 
			},
			{
				"x": 1.7457194059,
				"y": 1.8720844869,
				"z": -1.8944654355,
				"element": "O" 
			},
			{
				"x": 1.5691272297,
				"y": -0.8321204291,
				"z": -3.0052209989,
				"element": "H" 
			},
			{
				"x": -0.0089796429,
				"y": -1.3407397662,
				"z": -3.6307300154,
				"element": "H" 
			},
			{
				"x": 0.3620695497,
				"y": 0.3814021461,
				"z": -3.3940149477,
				"element": "H" 
			},
			{
				"x": 0.3957311573,
				"y": 0.4447118778,
				"z": 1.6072951551,
				"element": "H" 
			},
			{
				"x": -2.5303233404,
				"y": -2.3456884507,
				"z": 0.1436101857,
				"element": "H" 
			},
			{
				"x": -1.5709425302,
				"y": -2.1276951167,
				"z": -2.1358996669,
				"element": "H" 
			},
			{
				"x": -1.1217963863,
				"y": 0.5789459684,
				"z": 2.9406807759,
				"element": "H" 
			}
		],
		 "valence_orbital": [ 
			{
				"type": "occ",
				"energy": -0.33388,
				"method": "rhf"
			},
			{
				"type": "occ",
				"energy": -0.32612,
				"method": "rhf"
			},
			{
				"type": "occ",
				"energy": -0.30473,
				"method": "rhf"
			},
			{
				"type": "occ",
				"energy": -0.29742,
				"method": "rhf"
			},
			{
				"type": "occ",
				"energy": -0.28787,
				"method": "rhf"
			},
			{
				"type": "unocc",
				"energy": -0.10253,
				"method": "rhf"
			},
			{
				"type": "unocc",
				"energy": -0.07652,
				"method": "rhf"
			},
			{
				"type": "unocc",
				"energy": -0.05926,
				"method": "rhf"
			},
			{
				"type": "unocc",
				"energy": 0.01373,
				"method": "rhf"
			},
			{
				"type": "unocc",
				"energy": 0.03553,
				"method": "rhf"
			}
		],
		"cosmo_sigma_profile": { 
			"-0.025": 0.0,
			"-0.024": 0.0,
			"-0.023": 0.0,
			"-0.022": 0.0,
			"-0.021": 0.0,
			"-0.02": 0.445918295222,
			"-0.019": 1.30979484093,
			"-0.018": 0.682438358428,
			"-0.017": 0.983654434506,
			"-0.016": 0.860738437757,
			"-0.015": 1.53144416038,
			"-0.014": 0.991545511317,
			"-0.013": 0.689481279318,
			"-0.012": 0.975986074156,
			"-0.011": 1.14269296125,
			"-0.01": 0.814678743093,
			"-0.009": 1.56430893266,
			"-0.008": 5.00196685532,
			"-0.007": 7.23570996114,
			"-0.006": 8.03587947637,
			"-0.005": 10.7299269066,
			"-0.004": 13.9473452722,
			"-0.003": 16.9179507794,
			"-0.002": 22.4334833223,
			"-0.001": 22.0317453372,
			"0.0": 16.2776927683,
			"0.001": 13.5334366161,
			"0.002": 10.9967158367,
			"0.003": 15.1020818547,
			"0.004": 6.99230410997,
			"0.005": 6.10019971153,
			"0.006": 6.39784312255,
			"0.007": 7.53326367265,
			"0.008": 11.4910826041,
			"0.009": 6.66992489369,
			"0.01": 5.14465763674,
			"0.011": 5.41873556015,
			"0.012": 2.68092837259,
			"0.013": 0.420680099749,
			"0.014": 0.0,
			"0.015": 0.0,
			"0.016": 0.0,
			"0.017": 0.0,
			"0.018": 0.0,
			"0.019": 0.0,
			"0.02": 0.0,
			"0.021": 0.0,
			"0.022": 0.0,
			"0.023": 0.0,
			"0.024": 0.0,
			"0.025": 0.0
		}
	}
}
