{
	 "smiles": "CC1=CC(C)=C(N)C(C)=C1", 
	 "Tm": 268.15, 
	 "num_atms": 23, 
	 "gaussian": { 
		 "optdone": 1, 
		 "sigma_profile": "yes", 
		 "theory": "DFT", 
		 "functional": "B3LYP", 
		 "basiset": "6-31G**", 
		 "properties": { 
			 "R2extent": 1651.7249, 
			 "electric_dipole_moment_norm": 1.55948584796, 
			 "electric_quadrupole_moment_norm": 6.81942332533, 
			 "total_energy": -405.56848851, 
			 "HOMO_LUMO_gap": 0.20396, 
			 "cosmo_polarized_energy": -7.15, 
			 "cosmo_cavitation_energy": 24.94, 
			 "cosmo_dispersion_energy": -18.46, 
			 "cosmo_repulsion_energy": 1.49, 
			 "cosmo_total_nonelectrostatic_energy": 7.98, 
			 "SMD_solvation_energy": 4.18 
		},
		"coords": [
			{
				"x": 3.0644798726,
				"y": -1.2020771929,
				"z": 0.9989994622,
				"element": "C" 
			},
			{
				"x": 1.6624014604,
				"y": -0.7760850167,
				"z": 0.6293537703,
				"element": "C" 
			},
			{
				"x": 0.5600225512,
				"y": -1.5916472719,
				"z": 0.9027479699,
				"element": "C" 
			},
			{
				"x": -0.7480596943,
				"y": -1.207565326,
				"z": 0.5991623886,
				"element": "C" 
			},
			{
				"x": -1.9140908689,
				"y": -2.1116407465,
				"z": 0.9182101182,
				"element": "C" 
			},
			{
				"x": -0.9685991687,
				"y": 0.0467111089,
				"z": -0.0090964194,
				"element": "C" 
			},
			{
				"x": -2.2774276133,
				"y": 0.4774283567,
				"z": -0.2763806681,
				"element": "N" 
			},
			{
				"x": 0.1252030142,
				"y": 0.8919340392,
				"z": -0.293740243,
				"element": "C" 
			},
			{
				"x": -0.1039657735,
				"y": 2.2402896349,
				"z": -0.9326344944,
				"element": "C" 
			},
			{
				"x": 1.4143120898,
				"y": 0.4622406826,
				"z": 0.0292480192,
				"element": "C" 
			},
			{
				"x": 3.1743039506,
				"y": -2.2909042316,
				"z": 0.9661294623,
				"element": "H" 
			},
			{
				"x": 3.3321829682,
				"y": -0.8813967301,
				"z": 2.0144545506,
				"element": "H" 
			},
			{
				"x": 3.806673365,
				"y": -0.7708605154,
				"z": 0.3193748541,
				"element": "H" 
			},
			{
				"x": 0.7193595508,
				"y": -2.5626860508,
				"z": 1.3682306613,
				"element": "H" 
			},
			{
				"x": -1.5774641923,
				"y": -3.0246604106,
				"z": 1.4156940902,
				"element": "H" 
			},
			{
				"x": -2.6402001896,
				"y": -1.6193500189,
				"z": 1.5778046707,
				"element": "H" 
			},
			{
				"x": -2.4598650636,
				"y": -2.4198194898,
				"z": 0.0142402703,
				"element": "H" 
			},
			{
				"x": -2.9507446647,
				"y": -0.2655513205,
				"z": -0.4022993651,
				"element": "H" 
			},
			{
				"x": -2.3550774982,
				"y": 1.1665468169,
				"z": -1.0114439186,
				"element": "H" 
			},
			{
				"x": 0.8376516244,
				"y": 2.7816195549,
				"z": -1.0539890741,
				"element": "H" 
			},
			{
				"x": -0.5573854671,
				"y": 2.1547930828,
				"z": -1.9311880034,
				"element": "H" 
			},
			{
				"x": -0.7744146653,
				"y": 2.865982171,
				"z": -0.3295931978,
				"element": "H" 
			},
			{
				"x": 2.2512044123,
				"y": 1.1201988738,
				"z": -0.1980849038,
				"element": "H" 
			}
		],
		 "valence_orbital": [ 
			{
				"type": "occ",
				"energy": -0.32826,
				"method": "rhf"
			},
			{
				"type": "occ",
				"energy": -0.32036,
				"method": "rhf"
			},
			{
				"type": "occ",
				"energy": -0.28962,
				"method": "rhf"
			},
			{
				"type": "occ",
				"energy": -0.22433,
				"method": "rhf"
			},
			{
				"type": "occ",
				"energy": -0.18654,
				"method": "rhf"
			},
			{
				"type": "unocc",
				"energy": 0.01742,
				"method": "rhf"
			},
			{
				"type": "unocc",
				"energy": 0.02751,
				"method": "rhf"
			},
			{
				"type": "unocc",
				"energy": 0.07664,
				"method": "rhf"
			},
			{
				"type": "unocc",
				"energy": 0.10916,
				"method": "rhf"
			},
			{
				"type": "unocc",
				"energy": 0.11314,
				"method": "rhf"
			}
		],
		"cosmo_sigma_profile": { 
			"-0.025": 0.0,
			"-0.024": 0.0,
			"-0.023": 0.0,
			"-0.022": 0.0,
			"-0.021": 0.0,
			"-0.02": 0.0,
			"-0.019": 0.0,
			"-0.018": 0.0,
			"-0.017": 0.0,
			"-0.016": 0.0,
			"-0.015": 0.0,
			"-0.014": 0.0,
			"-0.013": 0.0,
			"-0.012": 0.0237688239755,
			"-0.011": 1.8271713183,
			"-0.01": 1.8909769402,
			"-0.009": 2.97677860739,
			"-0.008": 2.84404250927,
			"-0.007": 2.99763428957,
			"-0.006": 3.2900839604,
			"-0.005": 2.89911710806,
			"-0.004": 13.7116605881,
			"-0.003": 23.2163646972,
			"-0.002": 19.3797520497,
			"-0.001": 19.7038949706,
			"0.0": 23.71776423,
			"0.001": 21.2691536957,
			"0.002": 8.27146442622,
			"0.003": 7.98182708086,
			"0.004": 6.93275175903,
			"0.005": 6.95627862588,
			"0.006": 6.98852796394,
			"0.007": 7.39910050013,
			"0.008": 6.28866783836,
			"0.009": 0.79651612322,
			"0.01": 0.690480362834,
			"0.011": 0.620129283658,
			"0.012": 0.788771174055,
			"0.013": 0.503691567355,
			"0.014": 0.641916450077,
			"0.015": 0.439379918541,
			"0.016": 0.144615180353,
			"0.017": 0.0,
			"0.018": 0.0,
			"0.019": 0.0,
			"0.02": 0.0,
			"0.021": 0.0,
			"0.022": 0.0,
			"0.023": 0.0,
			"0.024": 0.0,
			"0.025": 0.0
		}
	}
}
