{
	 "smiles": "CCOC(=O)C1=C2NC(CCl)=CC(=O)N2N=C1C", 
	 "Tm": 492.15, 
	 "num_atms": 30, 
	 "gaussian": { 
		 "optdone": 1, 
		 "sigma_profile": "yes", 
		 "theory": "DFT", 
		 "functional": "B3LYP", 
		 "basiset": "6-31G**", 
		 "properties": { 
			 "R2extent": 6235.811, 
			 "electric_dipole_moment_norm": 6.48510110792, 
			 "electric_quadrupole_moment_norm": 21.2769885609, 
			 "total_energy": -1276.54232808, 
			 "HOMO_LUMO_gap": 0.17089, 
			 "cosmo_polarized_energy": -22.54, 
			 "cosmo_cavitation_energy": 36.66, 
			 "cosmo_dispersion_energy": -25.52, 
			 "cosmo_repulsion_energy": 1.98, 
			 "cosmo_total_nonelectrostatic_energy": 13.12, 
			 "SMD_solvation_energy": 6.61 
		},
		"coords": [
			{
				"x": -1.7543418559,
				"y": 0.14063866,
				"z": -3.3142607073,
				"element": "C" 
			},
			{
				"x": -2.5939273374,
				"y": 0.2708916406,
				"z": -2.057695498,
				"element": "C" 
			},
			{
				"x": -1.8470960192,
				"y": -0.3175628784,
				"z": -0.9658785761,
				"element": "O" 
			},
			{
				"x": -2.4834621507,
				"y": -0.3264726134,
				"z": 0.250709912,
				"element": "C" 
			},
			{
				"x": -3.6043429174,
				"y": 0.1159386572,
				"z": 0.4090071487,
				"element": "O" 
			},
			{
				"x": -1.6434049642,
				"y": -0.9201695477,
				"z": 1.2789362839,
				"element": "C" 
			},
			{
				"x": -0.3567902333,
				"y": -1.4284551046,
				"z": 1.1393197866,
				"element": "C" 
			},
			{
				"x": 0.484585892,
				"y": -1.5490352283,
				"z": 0.0707922006,
				"element": "N" 
			},
			{
				"x": 1.7439897977,
				"y": -2.0692650843,
				"z": 0.2351601666,
				"element": "C" 
			},
			{
				"x": 2.5843290437,
				"y": -2.2180272157,
				"z": -0.9974190517,
				"element": "C" 
			},
			{
				"x": 2.7222883548,
				"y": -0.6657513564,
				"z": -1.9403989048,
				"element": "Cl" 
			},
			{
				"x": 2.1617652768,
				"y": -2.4971526751,
				"z": 1.4581324512,
				"element": "C" 
			},
			{
				"x": 1.3226374997,
				"y": -2.4401454252,
				"z": 2.6535782725,
				"element": "C" 
			},
			{
				"x": 1.6338650582,
				"y": -2.8123707789,
				"z": 3.7651533193,
				"element": "O" 
			},
			{
				"x": 0.0419663077,
				"y": -1.8719305902,
				"z": 2.3711291087,
				"element": "N" 
			},
			{
				"x": -0.9311574909,
				"y": -1.6777863911,
				"z": 3.3184678277,
				"element": "N" 
			},
			{
				"x": -1.9371846762,
				"y": -1.1108820331,
				"z": 2.6704078257,
				"element": "C" 
			},
			{
				"x": -3.1959511563,
				"y": -0.7457569066,
				"z": 3.387973148,
				"element": "C" 
			},
			{
				"x": -2.2855578289,
				"y": 0.5850686415,
				"z": -4.1614416447,
				"element": "H" 
			},
			{
				"x": -1.5587790167,
				"y": -0.9099222153,
				"z": -3.5502917556,
				"element": "H" 
			},
			{
				"x": -0.7960088279,
				"y": 0.657425537,
				"z": -3.2049849307,
				"element": "H" 
			},
			{
				"x": -2.8069025762,
				"y": 1.3160904055,
				"z": -1.8132282924,
				"element": "H" 
			},
			{
				"x": -3.5525374525,
				"y": -0.2483014254,
				"z": -2.1474422408,
				"element": "H" 
			},
			{
				"x": 0.1699206734,
				"y": -1.144004552,
				"z": -0.8035892589,
				"element": "H" 
			},
			{
				"x": 3.5942205061,
				"y": -2.5259782258,
				"z": -0.7337265942,
				"element": "H" 
			},
			{
				"x": 2.1501101913,
				"y": -2.9451225633,
				"z": -1.6874033363,
				"element": "H" 
			},
			{
				"x": 3.1529652155,
				"y": -2.9101700938,
				"z": 1.5913759489,
				"element": "H" 
			},
			{
				"x": -3.3955162065,
				"y": 0.3264256342,
				"z": 3.3013227107,
				"element": "H" 
			},
			{
				"x": -4.0567559628,
				"y": -1.2594090531,
				"z": 2.9494962705,
				"element": "H" 
			},
			{
				"x": -3.1075271439,
				"y": -1.0167072182,
				"z": 4.4414984101,
				"element": "H" 
			}
		],
		 "valence_orbital": [ 
			{
				"type": "occ",
				"energy": -0.28606,
				"method": "rhf"
			},
			{
				"type": "occ",
				"energy": -0.28322,
				"method": "rhf"
			},
			{
				"type": "occ",
				"energy": -0.26927,
				"method": "rhf"
			},
			{
				"type": "occ",
				"energy": -0.26795,
				"method": "rhf"
			},
			{
				"type": "occ",
				"energy": -0.23461,
				"method": "rhf"
			},
			{
				"type": "unocc",
				"energy": -0.06372,
				"method": "rhf"
			},
			{
				"type": "unocc",
				"energy": -0.03094,
				"method": "rhf"
			},
			{
				"type": "unocc",
				"energy": -0.00174,
				"method": "rhf"
			},
			{
				"type": "unocc",
				"energy": 0.00985,
				"method": "rhf"
			},
			{
				"type": "unocc",
				"energy": 0.05755,
				"method": "rhf"
			}
		],
		"cosmo_sigma_profile": { 
			"-0.025": 0.0,
			"-0.024": 0.0,
			"-0.023": 0.0,
			"-0.022": 0.0,
			"-0.021": 0.0,
			"-0.02": 0.0,
			"-0.019": 0.0,
			"-0.018": 0.0,
			"-0.017": 0.0,
			"-0.016": 0.0,
			"-0.015": 0.0,
			"-0.014": 0.000557291827348,
			"-0.013": 0.215536816058,
			"-0.012": 0.691548269628,
			"-0.011": 1.09770026703,
			"-0.01": 5.37464986139,
			"-0.009": 6.7416978475,
			"-0.008": 5.66944538773,
			"-0.007": 6.16480765699,
			"-0.006": 8.99100322522,
			"-0.005": 16.4581697652,
			"-0.004": 25.2949054819,
			"-0.003": 28.8877383256,
			"-0.002": 29.0756442815,
			"-0.001": 31.0886483932,
			"0.0": 27.1743080449,
			"0.001": 15.2417206064,
			"0.002": 9.51655578507,
			"0.003": 9.88189339986,
			"0.004": 9.04590718781,
			"0.005": 11.3275730004,
			"0.006": 5.56651791619,
			"0.007": 3.30758223182,
			"0.008": 3.39176109203,
			"0.009": 4.1541332567,
			"0.01": 4.35492426856,
			"0.011": 5.60662008391,
			"0.012": 10.2902514624,
			"0.013": 4.30904253451,
			"0.014": 1.91208023486,
			"0.015": 1.45420773886,
			"0.016": 1.66081114947,
			"0.017": 0.100588213465,
			"0.018": 0.0,
			"0.019": 0.0,
			"0.02": 0.0,
			"0.021": 0.0,
			"0.022": 0.0,
			"0.023": 0.0,
			"0.024": 0.0,
			"0.025": 0.0
		}
	}
}
