{
	 "smiles": "NS(=O)(=O)C1=CN=CC=C1", 
	 "Tm": 383.15, 
	 "num_atms": 16, 
	 "gaussian": { 
		 "optdone": 1, 
		 "sigma_profile": "yes", 
		 "theory": "DFT", 
		 "functional": "B3LYP", 
		 "basiset": "6-31G**", 
		 "properties": { 
			 "R2extent": 1852.4136, 
			 "electric_dipole_moment_norm": 5.26965786176, 
			 "electric_quadrupole_moment_norm": 9.42473625785, 
			 "total_energy": -852.203100852, 
			 "HOMO_LUMO_gap": 0.21769, 
			 "cosmo_polarized_energy": -19.38, 
			 "cosmo_cavitation_energy": 21.89, 
			 "cosmo_dispersion_energy": -16.81, 
			 "cosmo_repulsion_energy": 1.31, 
			 "cosmo_total_nonelectrostatic_energy": 6.39, 
			 "SMD_solvation_energy": 2.16 
		},
		"coords": [
			{
				"x": -1.0796645729,
				"y": -1.2047970129,
				"z": -0.3121503447,
				"element": "N" 
			},
			{
				"x": 0.421832985,
				"y": -0.5198191929,
				"z": -0.0140232668,
				"element": "S" 
			},
			{
				"x": 1.2690147802,
				"y": -0.9164643853,
				"z": -1.1366094375,
				"element": "O" 
			},
			{
				"x": 0.7305282768,
				"y": -0.8346844249,
				"z": 1.378101367,
				"element": "O" 
			},
			{
				"x": 0.2128705335,
				"y": 1.2640495247,
				"z": -0.1215323221,
				"element": "C" 
			},
			{
				"x": -0.2083278963,
				"y": 1.9933451987,
				"z": 0.9952990335,
				"element": "C" 
			},
			{
				"x": -0.4010936022,
				"y": 3.3158113037,
				"z": 0.963703753,
				"element": "N" 
			},
			{
				"x": -0.1614045663,
				"y": 3.9478489522,
				"z": -0.1931111926,
				"element": "C" 
			},
			{
				"x": 0.2839349838,
				"y": 3.3078538828,
				"z": -1.3522318378,
				"element": "C" 
			},
			{
				"x": 0.4776635819,
				"y": 1.9288706894,
				"z": -1.3191291389,
				"element": "C" 
			},
			{
				"x": -1.416302482,
				"y": -1.0516780822,
				"z": -1.2568517602,
				"element": "H" 
			},
			{
				"x": -1.7671353551,
				"y": -1.0040081967,
				"z": 0.4065197812,
				"element": "H" 
			},
			{
				"x": -0.3761421118,
				"y": 1.4917211988,
				"z": 1.945368591,
				"element": "H" 
			},
			{
				"x": -0.3268068036,
				"y": 5.0234585659,
				"z": -0.1905835457,
				"element": "H" 
			},
			{
				"x": 0.4797228633,
				"y": 3.878721079,
				"z": -2.2540934969,
				"element": "H" 
			},
			{
				"x": 0.8409093856,
				"y": 1.3773708997,
				"z": -2.1801761825,
				"element": "H" 
			}
		],
		 "valence_orbital": [ 
			{
				"type": "occ",
				"energy": -0.31822,
				"method": "rhf"
			},
			{
				"type": "occ",
				"energy": -0.31322,
				"method": "rhf"
			},
			{
				"type": "occ",
				"energy": -0.3076,
				"method": "rhf"
			},
			{
				"type": "occ",
				"energy": -0.28296,
				"method": "rhf"
			},
			{
				"type": "occ",
				"energy": -0.27471,
				"method": "rhf"
			},
			{
				"type": "unocc",
				"energy": -0.05702,
				"method": "rhf"
			},
			{
				"type": "unocc",
				"energy": -0.04534,
				"method": "rhf"
			},
			{
				"type": "unocc",
				"energy": 0.04404,
				"method": "rhf"
			},
			{
				"type": "unocc",
				"energy": 0.07065,
				"method": "rhf"
			},
			{
				"type": "unocc",
				"energy": 0.07792,
				"method": "rhf"
			}
		],
		"cosmo_sigma_profile": { 
			"-0.025": 0.0,
			"-0.024": 0.0,
			"-0.023": 0.0,
			"-0.022": 0.0,
			"-0.021": 0.0,
			"-0.02": 0.0,
			"-0.019": 0.0,
			"-0.018": 0.0,
			"-0.017": 0.0,
			"-0.016": 0.677306943284,
			"-0.015": 2.74066922404,
			"-0.014": 2.71600697581,
			"-0.013": 2.52546027875,
			"-0.012": 3.54486630934,
			"-0.011": 2.83114612203,
			"-0.01": 2.3988888769,
			"-0.009": 2.24322448829,
			"-0.008": 5.27118291308,
			"-0.007": 10.6262909482,
			"-0.006": 10.5421545555,
			"-0.005": 7.16391076754,
			"-0.004": 6.26992898328,
			"-0.003": 6.61131239436,
			"-0.002": 7.51695618168,
			"-0.001": 10.8161377162,
			"0.0": 15.4361926628,
			"0.001": 10.1527865609,
			"0.002": 4.3801442393,
			"0.003": 4.9587841653,
			"0.004": 3.98705051785,
			"0.005": 4.03946044637,
			"0.006": 4.54259583949,
			"0.007": 5.54832764438,
			"0.008": 6.17291900416,
			"0.009": 5.08187047576,
			"0.01": 9.76292401769,
			"0.011": 10.6022509148,
			"0.012": 3.27243875647,
			"0.013": 1.2510156872,
			"0.014": 0.863101967542,
			"0.015": 0.572022075928,
			"0.016": 0.247619652876,
			"0.017": 0.0,
			"0.018": 0.0,
			"0.019": 0.0,
			"0.02": 0.0,
			"0.021": 0.0,
			"0.022": 0.0,
			"0.023": 0.0,
			"0.024": 0.0,
			"0.025": 0.0
		}
	}
}
