{
	 "smiles": "CCOC(=O)N1CCC2=C(C1)C=C(Cl)N=N2", 
	 "Tm": 380.15, 
	 "num_atms": 28, 
	 "gaussian": { 
		 "optdone": 1, 
		 "sigma_profile": "yes", 
		 "theory": "DFT", 
		 "functional": "B3LYP", 
		 "basiset": "6-31G**", 
		 "properties": { 
			 "R2extent": 6931.2658, 
			 "electric_dipole_moment_norm": 4.43260027636, 
			 "electric_quadrupole_moment_norm": 24.2814882359, 
			 "total_energy": -1163.17921999, 
			 "HOMO_LUMO_gap": 0.18129, 
			 "cosmo_polarized_energy": -15.71, 
			 "cosmo_cavitation_energy": 33.22, 
			 "cosmo_dispersion_energy": -24.36, 
			 "cosmo_repulsion_energy": 1.92, 
			 "cosmo_total_nonelectrostatic_energy": 10.78, 
			 "SMD_solvation_energy": 3.9 
		},
		"coords": [
			{
				"x": -3.2457203977,
				"y": -0.5779968614,
				"z": 1.0793370787,
				"element": "C" 
			},
			{
				"x": -2.9328844635,
				"y": -0.6392351857,
				"z": -0.4074830381,
				"element": "C" 
			},
			{
				"x": -1.5141749208,
				"y": -0.7987391495,
				"z": -0.6449238896,
				"element": "O" 
			},
			{
				"x": -0.7864418056,
				"y": 0.3462074148,
				"z": -0.6482828301,
				"element": "C" 
			},
			{
				"x": -1.2564667051,
				"y": 1.4607967763,
				"z": -0.477690303,
				"element": "O" 
			},
			{
				"x": 0.5433616875,
				"y": 0.0992188541,
				"z": -0.8773304595,
				"element": "N" 
			},
			{
				"x": 1.1401526616,
				"y": -1.2252147746,
				"z": -1.0355650718,
				"element": "C" 
			},
			{
				"x": 2.0585254695,
				"y": -1.5250717978,
				"z": 0.1551868063,
				"element": "C" 
			},
			{
				"x": 3.004954156,
				"y": -0.3758737711,
				"z": 0.4137502406,
				"element": "C" 
			},
			{
				"x": 2.7129506446,
				"y": 0.9228135409,
				"z": -0.0544863394,
				"element": "C" 
			},
			{
				"x": 1.4665676698,
				"y": 1.221258534,
				"z": -0.8629710732,
				"element": "C" 
			},
			{
				"x": 3.6405502624,
				"y": 1.9107889462,
				"z": 0.2323439795,
				"element": "C" 
			},
			{
				"x": 4.7656465483,
				"y": 1.5247753436,
				"z": 0.9649672625,
				"element": "C" 
			},
			{
				"x": 5.9725512145,
				"y": 2.7268823119,
				"z": 1.3773820778,
				"element": "Cl" 
			},
			{
				"x": 5.0034955774,
				"y": 0.2913678967,
				"z": 1.3838951234,
				"element": "N" 
			},
			{
				"x": 4.1159883332,
				"y": -0.6632666571,
				"z": 1.1002489224,
				"element": "N" 
			},
			{
				"x": -4.3297079167,
				"y": -0.5343086273,
				"z": 1.2291024373,
				"element": "H" 
			},
			{
				"x": -2.8018422104,
				"y": 0.3151056015,
				"z": 1.5255543321,
				"element": "H" 
			},
			{
				"x": -2.8638272717,
				"y": -1.4634454781,
				"z": 1.5963973717,
				"element": "H" 
			},
			{
				"x": -3.3828252791,
				"y": -1.5176974537,
				"z": -0.8765829443,
				"element": "H" 
			},
			{
				"x": -3.2759012473,
				"y": 0.2622446894,
				"z": -0.9197460449,
				"element": "H" 
			},
			{
				"x": 0.346624214,
				"y": -1.9639937217,
				"z": -1.119761464,
				"element": "H" 
			},
			{
				"x": 1.7169935578,
				"y": -1.2405583116,
				"z": -1.9709300929,
				"element": "H" 
			},
			{
				"x": 1.4447250024,
				"y": -1.6937894224,
				"z": 1.0492119857,
				"element": "H" 
			},
			{
				"x": 2.6408353248,
				"y": -2.4369677727,
				"z": -0.0080969325,
				"element": "H" 
			},
			{
				"x": 0.9343112488,
				"y": 2.0846399886,
				"z": -0.4575334584,
				"element": "H" 
			},
			{
				"x": 1.7692032494,
				"y": 1.4834654197,
				"z": -1.8896841282,
				"element": "H" 
			},
			{
				"x": 3.5093553959,
				"y": 2.9393936672,
				"z": -0.0878095482,
				"element": "H" 
			}
		],
		 "valence_orbital": [ 
			{
				"type": "occ",
				"energy": -0.30123,
				"method": "rhf"
			},
			{
				"type": "occ",
				"energy": -0.28085,
				"method": "rhf"
			},
			{
				"type": "occ",
				"energy": -0.27415,
				"method": "rhf"
			},
			{
				"type": "occ",
				"energy": -0.25724,
				"method": "rhf"
			},
			{
				"type": "occ",
				"energy": -0.2454,
				"method": "rhf"
			},
			{
				"type": "unocc",
				"energy": -0.06411,
				"method": "rhf"
			},
			{
				"type": "unocc",
				"energy": -0.03632,
				"method": "rhf"
			},
			{
				"type": "unocc",
				"energy": 0.02492,
				"method": "rhf"
			},
			{
				"type": "unocc",
				"energy": 0.04367,
				"method": "rhf"
			},
			{
				"type": "unocc",
				"energy": 0.0864,
				"method": "rhf"
			}
		],
		"cosmo_sigma_profile": { 
			"-0.025": 0.0,
			"-0.024": 0.0,
			"-0.023": 0.0,
			"-0.022": 0.0,
			"-0.021": 0.0,
			"-0.02": 0.0,
			"-0.019": 0.0,
			"-0.018": 0.0,
			"-0.017": 0.0,
			"-0.016": 0.0,
			"-0.015": 0.0,
			"-0.014": 0.0,
			"-0.013": 0.0,
			"-0.012": 0.0,
			"-0.011": 0.0,
			"-0.01": 0.992561023387,
			"-0.009": 2.54953067308,
			"-0.008": 3.51397875048,
			"-0.007": 6.80159847304,
			"-0.006": 11.883113252,
			"-0.005": 19.6762807908,
			"-0.004": 24.4729305908,
			"-0.003": 31.0786644545,
			"-0.002": 28.504933101,
			"-0.001": 20.3299337903,
			"0.0": 20.1027768988,
			"0.001": 14.7915227094,
			"0.002": 10.6086102224,
			"0.003": 12.6145031606,
			"0.004": 12.5486600958,
			"0.005": 7.7164350833,
			"0.006": 5.16111409924,
			"0.007": 3.97272108158,
			"0.008": 3.06413493047,
			"0.009": 2.97223299135,
			"0.01": 4.06356691783,
			"0.011": 3.42622865819,
			"0.012": 4.81194686288,
			"0.013": 6.49939342008,
			"0.014": 2.36445638532,
			"0.015": 1.29693395231,
			"0.016": 0.0199541381074,
			"0.017": 0.0,
			"0.018": 0.0,
			"0.019": 0.0,
			"0.02": 0.0,
			"0.021": 0.0,
			"0.022": 0.0,
			"0.023": 0.0,
			"0.024": 0.0,
			"0.025": 0.0
		}
	}
}
