{
	 "smiles": "COC1=CC2=C(C=C1)N=C(C)C(=C2)C(O)=O", 
	 "Tm": 495.15, 
	 "num_atms": 27, 
	 "gaussian": { 
		 "optdone": 1, 
		 "sigma_profile": "yes", 
		 "theory": "DFT", 
		 "functional": "B3LYP", 
		 "basiset": "6-31G**", 
		 "properties": { 
			 "R2extent": 5499.7541, 
			 "electric_dipole_moment_norm": 6.062047353, 
			 "electric_quadrupole_moment_norm": 19.7108998186, 
			 "total_energy": -744.337566865, 
			 "HOMO_LUMO_gap": 0.15228, 
			 "cosmo_polarized_energy": -17.32, 
			 "cosmo_cavitation_energy": 31.27, 
			 "cosmo_dispersion_energy": -23.1, 
			 "cosmo_repulsion_energy": 1.77, 
			 "cosmo_total_nonelectrostatic_energy": 9.95, 
			 "SMD_solvation_energy": 5.6 
		},
		"coords": [
			{
				"x": 2.0310836699,
				"y": 3.5451604166,
				"z": -1.8372610663,
				"element": "C" 
			},
			{
				"x": 1.3077663243,
				"y": 2.4036625522,
				"z": -2.2748708361,
				"element": "O" 
			},
			{
				"x": 0.499339238,
				"y": 1.7560802121,
				"z": -1.3893255909,
				"element": "C" 
			},
			{
				"x": -0.1876612308,
				"y": 0.6561693297,
				"z": -1.8759167387,
				"element": "C" 
			},
			{
				"x": -1.0463260057,
				"y": -0.0776286715,
				"z": -1.029074195,
				"element": "C" 
			},
			{
				"x": -1.2144645236,
				"y": 0.31369563,
				"z": 0.3352259444,
				"element": "C" 
			},
			{
				"x": -0.4990176155,
				"y": 1.4420179027,
				"z": 0.8033319248,
				"element": "C" 
			},
			{
				"x": 0.3386027772,
				"y": 2.1491812019,
				"z": -0.0329742374,
				"element": "C" 
			},
			{
				"x": -2.0364822855,
				"y": -0.3497315357,
				"z": 1.1986975086,
				"element": "N" 
			},
			{
				"x": -2.7231082416,
				"y": -1.3959837288,
				"z": 0.7824073944,
				"element": "C" 
			},
			{
				"x": -3.6166719249,
				"y": -2.0647254271,
				"z": 1.7956887269,
				"element": "C" 
			},
			{
				"x": -2.6066054136,
				"y": -1.8823463021,
				"z": -0.5712998767,
				"element": "C" 
			},
			{
				"x": -1.7768162211,
				"y": -1.2162517914,
				"z": -1.4504166087,
				"element": "C" 
			},
			{
				"x": -3.4172093807,
				"y": -3.0500666942,
				"z": -1.0489233585,
				"element": "C" 
			},
			{
				"x": -2.8226652801,
				"y": -3.8387128897,
				"z": -1.9884459457,
				"element": "O" 
			},
			{
				"x": -4.5368240448,
				"y": -3.305969731,
				"z": -0.6745601521,
				"element": "O" 
			},
			{
				"x": 2.5943904868,
				"y": 3.8911704619,
				"z": -2.7049818824,
				"element": "H" 
			},
			{
				"x": 2.7321219634,
				"y": 3.2979586135,
				"z": -1.0300718365,
				"element": "H" 
			},
			{
				"x": 1.3614947025,
				"y": 4.3469127496,
				"z": -1.5013880398,
				"element": "H" 
			},
			{
				"x": -0.0550751445,
				"y": 0.3694618739,
				"z": -2.9146582057,
				"element": "H" 
			},
			{
				"x": -0.632528213,
				"y": 1.7325102152,
				"z": 1.8400769273,
				"element": "H" 
			},
			{
				"x": 0.8729264229,
				"y": 3.0090898558,
				"z": 0.3532185057,
				"element": "H" 
			},
			{
				"x": -3.4029491183,
				"y": -3.1353357192,
				"z": 1.8797010954,
				"element": "H" 
			},
			{
				"x": -3.4634019307,
				"y": -1.5859395215,
				"z": 2.7635341732,
				"element": "H" 
			},
			{
				"x": -4.6666496702,
				"y": -1.9852092057,
				"z": 1.5024195122,
				"element": "H" 
			},
			{
				"x": -1.6990694433,
				"y": -1.5320581347,
				"z": -2.4888677101,
				"element": "H" 
			},
			{
				"x": -1.8853998972,
				"y": -3.6103116623,
				"z": -2.0614654322,
				"element": "H" 
			}
		],
		 "valence_orbital": [ 
			{
				"type": "occ",
				"energy": -0.30755,
				"method": "rhf"
			},
			{
				"type": "occ",
				"energy": -0.27757,
				"method": "rhf"
			},
			{
				"type": "occ",
				"energy": -0.25779,
				"method": "rhf"
			},
			{
				"type": "occ",
				"energy": -0.25397,
				"method": "rhf"
			},
			{
				"type": "occ",
				"energy": -0.22327,
				"method": "rhf"
			},
			{
				"type": "unocc",
				"energy": -0.07099,
				"method": "rhf"
			},
			{
				"type": "unocc",
				"energy": -0.03173,
				"method": "rhf"
			},
			{
				"type": "unocc",
				"energy": 0.00588,
				"method": "rhf"
			},
			{
				"type": "unocc",
				"energy": 0.02887,
				"method": "rhf"
			},
			{
				"type": "unocc",
				"energy": 0.06828,
				"method": "rhf"
			}
		],
		"cosmo_sigma_profile": { 
			"-0.025": 0.0,
			"-0.024": 0.0,
			"-0.023": 0.0,
			"-0.022": 0.0,
			"-0.021": 0.0,
			"-0.02": 0.0,
			"-0.019": 0.231419493529,
			"-0.018": 0.739310970792,
			"-0.017": 1.04064208099,
			"-0.016": 0.794241599258,
			"-0.015": 1.30880729762,
			"-0.014": 1.09705137126,
			"-0.013": 0.76206900639,
			"-0.012": 1.05666747657,
			"-0.011": 1.44007721103,
			"-0.01": 1.22475209861,
			"-0.009": 1.74498979189,
			"-0.008": 3.25296376431,
			"-0.007": 7.26014630942,
			"-0.006": 14.781583691,
			"-0.005": 17.245782384,
			"-0.004": 18.2450168707,
			"-0.003": 16.3156458011,
			"-0.002": 13.7497225818,
			"-0.001": 15.9729308842,
			"0.0": 20.5955219932,
			"0.001": 18.5148868306,
			"0.002": 17.5467954064,
			"0.003": 17.3055359076,
			"0.004": 9.29434743564,
			"0.005": 5.7018182877,
			"0.006": 5.54800922753,
			"0.007": 4.8744932357,
			"0.008": 6.00825067804,
			"0.009": 6.35724691642,
			"0.01": 6.78442271772,
			"0.011": 5.96736410452,
			"0.012": 3.80104169135,
			"0.013": 1.9325667545,
			"0.014": 0.774605798191,
			"0.015": 0.272421065494,
			"0.016": 0.0,
			"0.017": 0.0,
			"0.018": 0.0,
			"0.019": 0.0,
			"0.02": 0.0,
			"0.021": 0.0,
			"0.022": 0.0,
			"0.023": 0.0,
			"0.024": 0.0,
			"0.025": 0.0
		}
	}
}
