{
	 "smiles": "O(C1=CC=CC=C1)C1=CC=C(OC2=CC=CC=C2)C=C1", 
	 "Tm": 348.15, 
	 "num_atms": 34, 
	 "gaussian": { 
		 "optdone": 1, 
		 "sigma_profile": "yes", 
		 "theory": "DFT", 
		 "functional": "B3LYP", 
		 "basiset": "6-31G**", 
		 "properties": { 
			 "R2extent": 8751.0064, 
			 "electric_dipole_moment_norm": 1.59729580855, 
			 "electric_quadrupole_moment_norm": 3.9227910472, 
			 "total_energy": -844.781003469, 
			 "HOMO_LUMO_gap": 0.19206, 
			 "cosmo_polarized_energy": -8.02, 
			 "cosmo_cavitation_energy": 38.86, 
			 "cosmo_dispersion_energy": -27.72, 
			 "cosmo_repulsion_energy": 2.13, 
			 "cosmo_total_nonelectrostatic_energy": 13.27, 
			 "SMD_solvation_energy": 6.93 
		},
		"coords": [
			{
				"x": 1.4805520483,
				"y": -2.7293924941,
				"z": 2.1552195374,
				"element": "O" 
			},
			{
				"x": 0.403386908,
				"y": -3.54380264,
				"z": 2.4444086855,
				"element": "C" 
			},
			{
				"x": 0.7055347512,
				"y": -4.8309249095,
				"z": 2.8970942514,
				"element": "C" 
			},
			{
				"x": -0.3272234349,
				"y": -5.6877449929,
				"z": 3.2744392823,
				"element": "C" 
			},
			{
				"x": -1.6581639247,
				"y": -5.2703139285,
				"z": 3.1963512291,
				"element": "C" 
			},
			{
				"x": -1.9475351029,
				"y": -3.9816620551,
				"z": 2.7440246411,
				"element": "C" 
			},
			{
				"x": -0.9237822049,
				"y": -3.1097072397,
				"z": 2.3698036823,
				"element": "C" 
			},
			{
				"x": 1.3854086595,
				"y": -1.7511925498,
				"z": 1.182743597,
				"element": "C" 
			},
			{
				"x": 1.9436376656,
				"y": -0.5056009024,
				"z": 1.4730680449,
				"element": "C" 
			},
			{
				"x": 1.9531494058,
				"y": 0.4948154768,
				"z": 0.5023905554,
				"element": "C" 
			},
			{
				"x": 1.404417875,
				"y": 0.2476265442,
				"z": -0.7566598646,
				"element": "C" 
			},
			{
				"x": 1.5183467445,
				"y": 1.2482264371,
				"z": -1.703989252,
				"element": "O" 
			},
			{
				"x": 0.4524572271,
				"y": 1.5713250981,
				"z": -2.5205006893,
				"element": "C" 
			},
			{
				"x": 0.7721006852,
				"y": 2.0582193786,
				"z": -3.7907929911,
				"element": "C" 
			},
			{
				"x": -0.2481965934,
				"y": 2.4702182142,
				"z": -4.6465884495,
				"element": "C" 
			},
			{
				"x": -1.5840361904,
				"y": 2.3929204021,
				"z": -4.2449747451,
				"element": "C" 
			},
			{
				"x": -1.8909160022,
				"y": 1.9062634215,
				"z": -2.9729838318,
				"element": "C" 
			},
			{
				"x": -0.879752578,
				"y": 1.4970404072,
				"z": -2.1020730399,
				"element": "C" 
			},
			{
				"x": 0.8533738347,
				"y": -1.0035361661,
				"z": -1.0523178102,
				"element": "C" 
			},
			{
				"x": 0.8438614703,
				"y": -2.00360971,
				"z": -0.0819561189,
				"element": "C" 
			},
			{
				"x": 1.745448837,
				"y": -5.1362123088,
				"z": 2.9484784662,
				"element": "H" 
			},
			{
				"x": -0.0890288661,
				"y": -6.6875217317,
				"z": 3.6260979526,
				"element": "H" 
			},
			{
				"x": -2.4606521101,
				"y": -5.9413657245,
				"z": 3.4866060432,
				"element": "H" 
			},
			{
				"x": -2.9784915926,
				"y": -3.6438261827,
				"z": 2.6869142713,
				"element": "H" 
			},
			{
				"x": -1.1489637124,
				"y": -2.1053177898,
				"z": 2.0286316281,
				"element": "H" 
			},
			{
				"x": 2.3661413074,
				"y": -0.3348503826,
				"z": 2.4575124011,
				"element": "H" 
			},
			{
				"x": 2.3832835332,
				"y": 1.4694899405,
				"z": 0.7068162358,
				"element": "H" 
			},
			{
				"x": 1.8155421868,
				"y": 2.1083658517,
				"z": -4.0840110982,
				"element": "H" 
			},
			{
				"x": 0.0035698916,
				"y": 2.8484037889,
				"z": -5.6332709961,
				"element": "H" 
			},
			{
				"x": -2.3768039477,
				"y": 2.7102570632,
				"z": -4.9153198786,
				"element": "H" 
			},
			{
				"x": -2.9257897919,
				"y": 1.8493779781,
				"z": -2.6473097046,
				"element": "H" 
			},
			{
				"x": -1.1184328112,
				"y": 1.129084964,
				"z": -1.1103326798,
				"element": "H" 
			},
			{
				"x": 0.4457635753,
				"y": -1.1955910575,
				"z": -2.0390358519,
				"element": "H" 
			},
			{
				"x": 0.4287922567,
				"y": -2.9800622006,
				"z": -0.3075835031,
				"element": "H" 
			}
		],
		 "valence_orbital": [ 
			{
				"type": "occ",
				"energy": -0.25473,
				"method": "rhf"
			},
			{
				"type": "occ",
				"energy": -0.25226,
				"method": "rhf"
			},
			{
				"type": "occ",
				"energy": -0.24906,
				"method": "rhf"
			},
			{
				"type": "occ",
				"energy": -0.23025,
				"method": "rhf"
			},
			{
				"type": "occ",
				"energy": -0.20866,
				"method": "rhf"
			},
			{
				"type": "unocc",
				"energy": -0.0166,
				"method": "rhf"
			},
			{
				"type": "unocc",
				"energy": -0.00734,
				"method": "rhf"
			},
			{
				"type": "unocc",
				"energy": -0.00347,
				"method": "rhf"
			},
			{
				"type": "unocc",
				"energy": 0.00172,
				"method": "rhf"
			},
			{
				"type": "unocc",
				"energy": 0.00669,
				"method": "rhf"
			}
		],
		"cosmo_sigma_profile": { 
			"-0.025": 0.0,
			"-0.024": 0.0,
			"-0.023": 0.0,
			"-0.022": 0.0,
			"-0.021": 0.0,
			"-0.02": 0.0,
			"-0.019": 0.0,
			"-0.018": 0.0,
			"-0.017": 0.0,
			"-0.016": 0.0,
			"-0.015": 0.0,
			"-0.014": 0.0,
			"-0.013": 0.0,
			"-0.012": 0.0,
			"-0.011": 0.0,
			"-0.01": 0.0,
			"-0.009": 0.0,
			"-0.008": 0.0,
			"-0.007": 4.13855445097,
			"-0.006": 17.5772679787,
			"-0.005": 27.5924138553,
			"-0.004": 27.3017873043,
			"-0.003": 24.6408216554,
			"-0.002": 21.724275864,
			"-0.001": 20.0101870705,
			"0.0": 21.1233923712,
			"0.001": 20.7895920184,
			"0.002": 27.3512996767,
			"0.003": 31.8706519696,
			"0.004": 27.9514447076,
			"0.005": 22.0323508557,
			"0.006": 10.9438471668,
			"0.007": 2.34698263999,
			"0.008": 2.47991054933,
			"0.009": 2.16003275447,
			"0.01": 0.287759552044,
			"0.011": 0.0,
			"0.012": 0.0,
			"0.013": 0.0,
			"0.014": 0.0,
			"0.015": 0.0,
			"0.016": 0.0,
			"0.017": 0.0,
			"0.018": 0.0,
			"0.019": 0.0,
			"0.02": 0.0,
			"0.021": 0.0,
			"0.022": 0.0,
			"0.023": 0.0,
			"0.024": 0.0,
			"0.025": 0.0
		}
	}
}
