{
	 "smiles": "[O-][N+](=O)C1=CC=C2C(=O)C(C3=CC=CC4=CC=CC=C34)=[N+]([O-])C2=C1", 
	 "Tm": 496.15, 
	 "num_atms": 34, 
	 "gaussian": { 
		 "optdone": 1, 
		 "sigma_profile": "yes", 
		 "theory": "DFT", 
		 "functional": "B3LYP", 
		 "basiset": "6-31G**", 
		 "properties": { 
			 "R2extent": 11326.7576, 
			 "electric_dipole_moment_norm": 3.2171072099, 
			 "electric_quadrupole_moment_norm": 19.7238020095, 
			 "total_energy": -1102.17486119, 
			 "HOMO_LUMO_gap": 0.08886, 
			 "cosmo_polarized_energy": -15.65, 
			 "cosmo_cavitation_energy": 40.1, 
			 "cosmo_dispersion_energy": -28.77, 
			 "cosmo_repulsion_energy": 2.1, 
			 "cosmo_total_nonelectrostatic_energy": 13.43, 
			 "SMD_solvation_energy": 9.9 
		},
		"coords": [
			{
				"x": 6.3445784153,
				"y": -4.8889347727,
				"z": -0.1708467702,
				"element": "O" 
			},
			{
				"x": 5.4708144351,
				"y": -4.2130874308,
				"z": -0.7099440154,
				"element": "N" 
			},
			{
				"x": 5.3756229358,
				"y": -4.0128344973,
				"z": -1.9186201843,
				"element": "O" 
			},
			{
				"x": 4.4531807842,
				"y": -3.5903231447,
				"z": 0.1601349497,
				"element": "C" 
			},
			{
				"x": 4.5381518582,
				"y": -3.7994836654,
				"z": 1.5361824025,
				"element": "C" 
			},
			{
				"x": 3.5841889738,
				"y": -3.2212866663,
				"z": 2.3879495055,
				"element": "C" 
			},
			{
				"x": 2.5865919965,
				"y": -2.4522078324,
				"z": 1.8112998376,
				"element": "C" 
			},
			{
				"x": 1.4168372477,
				"y": -1.6989419339,
				"z": 2.376131274,
				"element": "C" 
			},
			{
				"x": 1.0965048262,
				"y": -1.6303922538,
				"z": 3.5492098471,
				"element": "O" 
			},
			{
				"x": 0.7407003546,
				"y": -1.0680599609,
				"z": 1.2089794041,
				"element": "C" 
			},
			{
				"x": -0.4785461606,
				"y": -0.2639595847,
				"z": 1.2582340431,
				"element": "C" 
			},
			{
				"x": -1.4843146131,
				"y": -0.7002987649,
				"z": 2.1152122403,
				"element": "C" 
			},
			{
				"x": -2.7125566235,
				"y": -0.0179782145,
				"z": 2.2127548318,
				"element": "C" 
			},
			{
				"x": -2.9327923434,
				"y": 1.1139860779,
				"z": 1.4618924581,
				"element": "C" 
			},
			{
				"x": -1.9239321219,
				"y": 1.6261276724,
				"z": 0.6048157283,
				"element": "C" 
			},
			{
				"x": -2.1325516633,
				"y": 2.8247638647,
				"z": -0.1298935677,
				"element": "C" 
			},
			{
				"x": -1.137592196,
				"y": 3.3531761324,
				"z": -0.9185815939,
				"element": "C" 
			},
			{
				"x": 0.1146222612,
				"y": 2.701279796,
				"z": -0.998348646,
				"element": "C" 
			},
			{
				"x": 0.3463238908,
				"y": 1.5315882883,
				"z": -0.3077819377,
				"element": "C" 
			},
			{
				"x": -0.6645092333,
				"y": 0.9454887819,
				"z": 0.5004858545,
				"element": "C" 
			},
			{
				"x": 1.3976676724,
				"y": -1.4414345253,
				"z": 0.0966401714,
				"element": "N" 
			},
			{
				"x": 1.1457543505,
				"y": -1.186393204,
				"z": -1.107588365,
				"element": "O" 
			},
			{
				"x": 2.5463536075,
				"y": -2.2710880843,
				"z": 0.4348840383,
				"element": "C" 
			},
			{
				"x": 3.44930833,
				"y": -2.8181371034,
				"z": -0.4454823438,
				"element": "C" 
			},
			{
				"x": 5.3454754505,
				"y": -4.4101219263,
				"z": 1.9202666095,
				"element": "H" 
			},
			{
				"x": 3.6236204369,
				"y": -3.3702527663,
				"z": 3.4616317143,
				"element": "H" 
			},
			{
				"x": -1.3230571287,
				"y": -1.5910561251,
				"z": 2.7109527295,
				"element": "H" 
			},
			{
				"x": -3.4817744958,
				"y": -0.3965561032,
				"z": 2.8785885613,
				"element": "H" 
			},
			{
				"x": -3.8794571633,
				"y": 1.6439586935,
				"z": 1.5270442656,
				"element": "H" 
			},
			{
				"x": -3.0945838028,
				"y": 3.32332142,
				"z": -0.0452718332,
				"element": "H" 
			},
			{
				"x": -1.306129995,
				"y": 4.2716594943,
				"z": -1.4728595605,
				"element": "H" 
			},
			{
				"x": 0.9035345812,
				"y": 3.1266260047,
				"z": -1.611628618,
				"element": "H" 
			},
			{
				"x": 1.3121447089,
				"y": 1.051879046,
				"z": -0.3924949883,
				"element": "H" 
			},
			{
				"x": 3.3967204233,
				"y": -2.6702267116,
				"z": -1.5156480424,
				"element": "H" 
			}
		],
		 "valence_orbital": [ 
			{
				"type": "occ",
				"energy": -0.29392,
				"method": "rhf"
			},
			{
				"type": "occ",
				"energy": -0.27908,
				"method": "rhf"
			},
			{
				"type": "occ",
				"energy": -0.25346,
				"method": "rhf"
			},
			{
				"type": "occ",
				"energy": -0.25256,
				"method": "rhf"
			},
			{
				"type": "occ",
				"energy": -0.21991,
				"method": "rhf"
			},
			{
				"type": "unocc",
				"energy": -0.13105,
				"method": "rhf"
			},
			{
				"type": "unocc",
				"energy": -0.09796,
				"method": "rhf"
			},
			{
				"type": "unocc",
				"energy": -0.05814,
				"method": "rhf"
			},
			{
				"type": "unocc",
				"energy": -0.0448,
				"method": "rhf"
			},
			{
				"type": "unocc",
				"energy": -0.01731,
				"method": "rhf"
			}
		],
		"cosmo_sigma_profile": { 
			"-0.025": 0.0,
			"-0.024": 0.0,
			"-0.023": 0.0,
			"-0.022": 0.0,
			"-0.021": 0.0,
			"-0.02": 0.0,
			"-0.019": 0.0,
			"-0.018": 0.0,
			"-0.017": 0.0,
			"-0.016": 0.0,
			"-0.015": 0.0,
			"-0.014": 0.0,
			"-0.013": 0.0,
			"-0.012": 0.0,
			"-0.011": 0.0,
			"-0.01": 0.267806606858,
			"-0.009": 2.95302872065,
			"-0.008": 7.2729229322,
			"-0.007": 12.0636169782,
			"-0.006": 22.9449663397,
			"-0.005": 23.0695033434,
			"-0.004": 25.5976929779,
			"-0.003": 27.9548435978,
			"-0.002": 27.5839892118,
			"-0.001": 18.8746457372,
			"0.0": 14.1461859568,
			"0.001": 14.5097253214,
			"0.002": 17.5161133268,
			"0.003": 26.3481104464,
			"0.004": 19.3074022553,
			"0.005": 11.5887682306,
			"0.006": 8.66239531154,
			"0.007": 13.7928527049,
			"0.008": 8.82050472944,
			"0.009": 11.006314342,
			"0.01": 8.62203180567,
			"0.011": 1.74484155755,
			"0.012": 0.0,
			"0.013": 0.0,
			"0.014": 0.0,
			"0.015": 0.0,
			"0.016": 0.0,
			"0.017": 0.0,
			"0.018": 0.0,
			"0.019": 0.0,
			"0.02": 0.0,
			"0.021": 0.0,
			"0.022": 0.0,
			"0.023": 0.0,
			"0.024": 0.0,
			"0.025": 0.0
		}
	}
}
