{
	 "smiles": "CCOC1=C(N)C=C(C=C1)C(=O)N(C)C", 
	 "Tm": 401.15, 
	 "num_atms": 31, 
	 "gaussian": { 
		 "optdone": 1, 
		 "sigma_profile": "yes", 
		 "theory": "DFT", 
		 "functional": "B3LYP", 
		 "basiset": "6-31G**", 
		 "properties": { 
			 "R2extent": 4862.5742, 
			 "electric_dipole_moment_norm": 4.87233383195, 
			 "electric_quadrupole_moment_norm": 15.218867771, 
			 "total_energy": -688.77420998, 
			 "HOMO_LUMO_gap": 0.18218, 
			 "cosmo_polarized_energy": -15.54, 
			 "cosmo_cavitation_energy": 33.71, 
			 "cosmo_dispersion_energy": -24.36, 
			 "cosmo_repulsion_energy": 1.94, 
			 "cosmo_total_nonelectrostatic_energy": 11.3, 
			 "SMD_solvation_energy": 6.52 
		},
		"coords": [
			{
				"x": 4.5904079715,
				"y": -2.8367639425,
				"z": 2.079550469,
				"element": "C" 
			},
			{
				"x": 3.4953502914,
				"y": -1.8124035391,
				"z": 1.8387945197,
				"element": "C" 
			},
			{
				"x": 2.4484057241,
				"y": -2.458680429,
				"z": 1.1173861423,
				"element": "O" 
			},
			{
				"x": 1.3362388821,
				"y": -1.7336909748,
				"z": 0.7773967551,
				"element": "C" 
			},
			{
				"x": 0.3514375428,
				"y": -2.4702630766,
				"z": 0.0705700113,
				"element": "C" 
			},
			{
				"x": 0.5509939321,
				"y": -3.830785896,
				"z": -0.1450153508,
				"element": "N" 
			},
			{
				"x": -0.8100088858,
				"y": -1.8105675601,
				"z": -0.3285961025,
				"element": "C" 
			},
			{
				"x": -1.0067822932,
				"y": -0.446672388,
				"z": -0.0652673781,
				"element": "C" 
			},
			{
				"x": -0.0348229764,
				"y": 0.2580635154,
				"z": 0.6498320285,
				"element": "C" 
			},
			{
				"x": 1.1332907186,
				"y": -0.3877299159,
				"z": 1.0713488398,
				"element": "C" 
			},
			{
				"x": -2.3311273803,
				"y": 0.1425286643,
				"z": -0.4621708582,
				"element": "C" 
			},
			{
				"x": -3.3591847557,
				"y": -0.5255632292,
				"z": -0.3567033823,
				"element": "O" 
			},
			{
				"x": -2.3703154165,
				"y": 1.4558928897,
				"z": -0.8945223017,
				"element": "N" 
			},
			{
				"x": -1.2646132923,
				"y": 2.1531047474,
				"z": -1.5364564808,
				"element": "C" 
			},
			{
				"x": -3.6809432213,
				"y": 2.0443076707,
				"z": -1.1345105444,
				"element": "C" 
			},
			{
				"x": 4.2071035037,
				"y": -3.6819100406,
				"z": 2.6581000822,
				"element": "H" 
			},
			{
				"x": 5.4154105593,
				"y": -2.3813698191,
				"z": 2.6357556601,
				"element": "H" 
			},
			{
				"x": 4.9810518558,
				"y": -3.2158190846,
				"z": 1.1307563403,
				"element": "H" 
			},
			{
				"x": 3.1051852745,
				"y": -1.4249188828,
				"z": 2.7902069706,
				"element": "H" 
			},
			{
				"x": 3.8756641174,
				"y": -0.959163331,
				"z": 1.2591698839,
				"element": "H" 
			},
			{
				"x": 0.0482059592,
				"y": -4.2215730717,
				"z": -0.9285685107,
				"element": "H" 
			},
			{
				"x": 1.5170226303,
				"y": -4.1222326828,
				"z": -0.0987958501,
				"element": "H" 
			},
			{
				"x": -1.5960165576,
				"y": -2.3601548895,
				"z": -0.8376435669,
				"element": "H" 
			},
			{
				"x": -0.1897378286,
				"y": 1.2997658488,
				"z": 0.9097342628,
				"element": "H" 
			},
			{
				"x": 1.8756534335,
				"y": 0.1680735336,
				"z": 1.6320434301,
				"element": "H" 
			},
			{
				"x": -0.3552839256,
				"y": 1.5577293701,
				"z": -1.4918178668,
				"element": "H" 
			},
			{
				"x": -1.5014825142,
				"y": 2.3441263224,
				"z": -2.5929294516,
				"element": "H" 
			},
			{
				"x": -1.075235451,
				"y": 3.1217183701,
				"z": -1.0557263831,
				"element": "H" 
			},
			{
				"x": -3.6609470534,
				"y": 3.1041047102,
				"z": -0.8567709795,
				"element": "H" 
			},
			{
				"x": -4.4222249331,
				"y": 1.5157365836,
				"z": -0.5378692187,
				"element": "H" 
			},
			{
				"x": -3.9700959113,
				"y": 1.9702105271,
				"z": -2.1927811693,
				"element": "H" 
			}
		],
		 "valence_orbital": [ 
			{
				"type": "occ",
				"energy": -0.30226,
				"method": "rhf"
			},
			{
				"type": "occ",
				"energy": -0.2449,
				"method": "rhf"
			},
			{
				"type": "occ",
				"energy": -0.22853,
				"method": "rhf"
			},
			{
				"type": "occ",
				"energy": -0.2207,
				"method": "rhf"
			},
			{
				"type": "occ",
				"energy": -0.19115,
				"method": "rhf"
			},
			{
				"type": "unocc",
				"energy": -0.00897,
				"method": "rhf"
			},
			{
				"type": "unocc",
				"energy": 0.0136,
				"method": "rhf"
			},
			{
				"type": "unocc",
				"energy": 0.06968,
				"method": "rhf"
			},
			{
				"type": "unocc",
				"energy": 0.08838,
				"method": "rhf"
			},
			{
				"type": "unocc",
				"energy": 0.0935,
				"method": "rhf"
			}
		],
		"cosmo_sigma_profile": { 
			"-0.025": 0.0,
			"-0.024": 0.0,
			"-0.023": 0.0,
			"-0.022": 0.0,
			"-0.021": 0.0,
			"-0.02": 0.0,
			"-0.019": 0.0,
			"-0.018": 0.0,
			"-0.017": 0.0,
			"-0.016": 0.0,
			"-0.015": 0.0,
			"-0.014": 0.0,
			"-0.013": 0.266243010517,
			"-0.012": 1.17645302864,
			"-0.011": 2.0565687072,
			"-0.01": 1.70502191082,
			"-0.009": 2.2952400846,
			"-0.008": 2.77385848584,
			"-0.007": 2.58962525751,
			"-0.006": 4.81903422782,
			"-0.005": 14.7279765963,
			"-0.004": 31.3656736907,
			"-0.003": 31.9906710901,
			"-0.002": 31.0014581786,
			"-0.001": 26.0597258113,
			"0.0": 17.300797272,
			"0.001": 13.8684983167,
			"0.002": 10.4888174344,
			"0.003": 11.2636753405,
			"0.004": 11.7663069458,
			"0.005": 11.6462070506,
			"0.006": 7.8436753339,
			"0.007": 3.95656810518,
			"0.008": 3.18582238085,
			"0.009": 2.93229719963,
			"0.01": 2.32104318377,
			"0.011": 2.37218799731,
			"0.012": 2.51523576615,
			"0.013": 3.22032295004,
			"0.014": 5.39853687443,
			"0.015": 2.0288588808,
			"0.016": 0.102798491989,
			"0.017": 0.0,
			"0.018": 0.0,
			"0.019": 0.0,
			"0.02": 0.0,
			"0.021": 0.0,
			"0.022": 0.0,
			"0.023": 0.0,
			"0.024": 0.0,
			"0.025": 0.0
		}
	}
}
