{
	 "smiles": "CC1=NN(C(C)=C1N)C1=CC=CC=C1", 
	 "Tm": 335.15, 
	 "num_atms": 27, 
	 "gaussian": { 
		 "optdone": 1, 
		 "sigma_profile": "yes", 
		 "theory": "DFT", 
		 "functional": "B3LYP", 
		 "basiset": "6-31G**", 
		 "properties": { 
			 "R2extent": 3215.9049, 
			 "electric_dipole_moment_norm": 1.8796074404, 
			 "electric_quadrupole_moment_norm": 12.9498895748, 
			 "total_energy": -591.249242349, 
			 "HOMO_LUMO_gap": 0.18138, 
			 "cosmo_polarized_energy": -11.54, 
			 "cosmo_cavitation_energy": 30.12, 
			 "cosmo_dispersion_energy": -21.89, 
			 "cosmo_repulsion_energy": 1.74, 
			 "cosmo_total_nonelectrostatic_energy": 9.97, 
			 "SMD_solvation_energy": 4.43 
		},
		"coords": [
			{
				"x": 1.9844151833,
				"y": 1.4836911984,
				"z": 2.8586658735,
				"element": "C" 
			},
			{
				"x": 1.5489008218,
				"y": 0.6789398795,
				"z": 1.673197022,
				"element": "C" 
			},
			{
				"x": 0.2600342797,
				"y": 0.4506040054,
				"z": 1.437717283,
				"element": "N" 
			},
			{
				"x": 0.2230470624,
				"y": -0.3067565024,
				"z": 0.306572025,
				"element": "N" 
			},
			{
				"x": 1.4847431876,
				"y": -0.5343414003,
				"z": -0.2052108342,
				"element": "C" 
			},
			{
				"x": 1.80886739,
				"y": -1.21321379,
				"z": -1.4957782536,
				"element": "C" 
			},
			{
				"x": 2.3617862437,
				"y": 0.0812588435,
				"z": 0.6721904567,
				"element": "C" 
			},
			{
				"x": 3.7671667087,
				"y": 0.1399267569,
				"z": 0.5224471589,
				"element": "N" 
			},
			{
				"x": -1.0388906256,
				"y": -0.7039336789,
				"z": -0.2030109554,
				"element": "C" 
			},
			{
				"x": -1.2114024156,
				"y": -1.9473882296,
				"z": -0.8233872396,
				"element": "C" 
			},
			{
				"x": -2.4654746515,
				"y": -2.3069852835,
				"z": -1.3188484064,
				"element": "C" 
			},
			{
				"x": -3.5550715831,
				"y": -1.4469366113,
				"z": -1.1813030911,
				"element": "C" 
			},
			{
				"x": -3.3822056652,
				"y": -0.2173511661,
				"z": -0.5398829575,
				"element": "C" 
			},
			{
				"x": -2.1323584258,
				"y": 0.1605387247,
				"z": -0.0564591014,
				"element": "C" 
			},
			{
				"x": 1.1206317691,
				"y": 1.7088334616,
				"z": 3.4878352144,
				"element": "H" 
			},
			{
				"x": 2.7198734226,
				"y": 0.9418793304,
				"z": 3.4659666055,
				"element": "H" 
			},
			{
				"x": 2.442891212,
				"y": 2.4356229164,
				"z": 2.5621391149,
				"element": "H" 
			},
			{
				"x": 1.8936074366,
				"y": -2.3039904038,
				"z": -1.4052127857,
				"element": "H" 
			},
			{
				"x": 2.7761630372,
				"y": -0.8371426456,
				"z": -1.8431790626,
				"element": "H" 
			},
			{
				"x": 1.0588465277,
				"y": -1.0056318833,
				"z": -2.2644354361,
				"element": "H" 
			},
			{
				"x": 4.2100654772,
				"y": -0.768920513,
				"z": 0.615645182,
				"element": "H" 
			},
			{
				"x": 4.1894356235,
				"y": 0.7683285617,
				"z": 1.1961364199,
				"element": "H" 
			},
			{
				"x": -0.3812505472,
				"y": -2.639754191,
				"z": -0.8959311548,
				"element": "H" 
			},
			{
				"x": -2.5899820987,
				"y": -3.2732862216,
				"z": -1.7991328366,
				"element": "H" 
			},
			{
				"x": -4.5302266434,
				"y": -1.7334544533,
				"z": -1.5634253348,
				"element": "H" 
			},
			{
				"x": -4.2248506386,
				"y": 0.4579370587,
				"z": -0.4219294006,
				"element": "H" 
			},
			{
				"x": -1.9824620884,
				"y": 1.1101262365,
				"z": 0.4427144946,
				"element": "H" 
			}
		],
		 "valence_orbital": [ 
			{
				"type": "occ",
				"energy": -0.27408,
				"method": "rhf"
			},
			{
				"type": "occ",
				"energy": -0.25986,
				"method": "rhf"
			},
			{
				"type": "occ",
				"energy": -0.24956,
				"method": "rhf"
			},
			{
				"type": "occ",
				"energy": -0.21991,
				"method": "rhf"
			},
			{
				"type": "occ",
				"energy": -0.19253,
				"method": "rhf"
			},
			{
				"type": "unocc",
				"energy": -0.01115,
				"method": "rhf"
			},
			{
				"type": "unocc",
				"energy": -0.00081,
				"method": "rhf"
			},
			{
				"type": "unocc",
				"energy": 0.04396,
				"method": "rhf"
			},
			{
				"type": "unocc",
				"energy": 0.07208,
				"method": "rhf"
			},
			{
				"type": "unocc",
				"energy": 0.08443,
				"method": "rhf"
			}
		],
		"cosmo_sigma_profile": { 
			"-0.025": 0.0,
			"-0.024": 0.0,
			"-0.023": 0.0,
			"-0.022": 0.0,
			"-0.021": 0.0,
			"-0.02": 0.0,
			"-0.019": 0.0,
			"-0.018": 0.0,
			"-0.017": 0.0,
			"-0.016": 0.0,
			"-0.015": 0.0,
			"-0.014": 0.0,
			"-0.013": 0.0,
			"-0.012": 0.212030503494,
			"-0.011": 1.63831842744,
			"-0.01": 2.65031951589,
			"-0.009": 2.58782003012,
			"-0.008": 3.20486512706,
			"-0.007": 3.22045254966,
			"-0.006": 9.72050937976,
			"-0.005": 15.8749810794,
			"-0.004": 22.6916771134,
			"-0.003": 20.3723846767,
			"-0.002": 19.5323292911,
			"-0.001": 20.4990294853,
			"0.0": 18.8594148986,
			"0.001": 13.7827490997,
			"0.002": 12.0962562633,
			"0.003": 13.4682313709,
			"0.004": 14.5395307096,
			"0.005": 18.2721757058,
			"0.006": 6.24713623482,
			"0.007": 3.55771163272,
			"0.008": 2.34144589486,
			"0.009": 2.93330869769,
			"0.01": 1.84382729858,
			"0.011": 2.19877286041,
			"0.012": 1.49988870284,
			"0.013": 1.84897515915,
			"0.014": 1.07976257571,
			"0.015": 1.10913772737,
			"0.016": 0.74341054272,
			"0.017": 0.199568079151,
			"0.018": 0.0,
			"0.019": 0.0,
			"0.02": 0.0,
			"0.021": 0.0,
			"0.022": 0.0,
			"0.023": 0.0,
			"0.024": 0.0,
			"0.025": 0.0
		}
	}
}
