{
	 "smiles": "NC1=C2C3=C(CCC3)SC2=NC=N1", 
	 "Tm": 290.15, 
	 "num_atms": 22, 
	 "gaussian": { 
		 "optdone": 1, 
		 "sigma_profile": "yes", 
		 "theory": "DFT", 
		 "functional": "B3LYP", 
		 "basiset": "6-31G**", 
		 "properties": { 
			 "R2extent": 2679.0478, 
			 "electric_dipole_moment_norm": 4.8305887933, 
			 "electric_quadrupole_moment_norm": 6.91965173401, 
			 "total_energy": -910.836948426, 
			 "HOMO_LUMO_gap": 0.18196, 
			 "cosmo_polarized_energy": -12.13, 
			 "cosmo_cavitation_energy": 26.3, 
			 "cosmo_dispersion_energy": -20.67, 
			 "cosmo_repulsion_energy": 1.58, 
			 "cosmo_total_nonelectrostatic_energy": 7.22, 
			 "SMD_solvation_energy": 0.16 
		},
		"coords": [
			{
				"x": 1.8651416689,
				"y": 2.3145997194,
				"z": -0.8449035136,
				"element": "N" 
			},
			{
				"x": 1.9584690962,
				"y": 0.9666903918,
				"z": -1.0572425949,
				"element": "C" 
			},
			{
				"x": 1.0134129897,
				"y": 0.0478770046,
				"z": -0.5316306256,
				"element": "C" 
			},
			{
				"x": -0.145346304,
				"y": 0.185113219,
				"z": 0.307324574,
				"element": "C" 
			},
			{
				"x": -0.7569322438,
				"y": -1.0048454505,
				"z": 0.5574692424,
				"element": "C" 
			},
			{
				"x": -2.0159862704,
				"y": -0.8801045264,
				"z": 1.3668371327,
				"element": "C" 
			},
			{
				"x": -1.9098711624,
				"y": 0.5888821514,
				"z": 1.8795117154,
				"element": "C" 
			},
			{
				"x": -0.9115951828,
				"y": 1.3263874552,
				"z": 0.9341774423,
				"element": "C" 
			},
			{
				"x": 0.0223533268,
				"y": -2.3742178781,
				"z": -0.2002232796,
				"element": "S" 
			},
			{
				"x": 1.2434473498,
				"y": -1.2972503194,
				"z": -0.8919998754,
				"element": "C" 
			},
			{
				"x": 2.2470583419,
				"y": -1.7380081077,
				"z": -1.6546147076,
				"element": "N" 
			},
			{
				"x": 3.057263699,
				"y": -0.7681038515,
				"z": -2.0793071327,
				"element": "C" 
			},
			{
				"x": 2.9728342038,
				"y": 0.5451372404,
				"z": -1.8256980307,
				"element": "N" 
			},
			{
				"x": 1.3145257215,
				"y": 2.6595301598,
				"z": -0.0759435545,
				"element": "H" 
			},
			{
				"x": 2.6737853851,
				"y": 2.8549503977,
				"z": -1.114812825,
				"element": "H" 
			},
			{
				"x": -2.0846463534,
				"y": -1.5997720844,
				"z": 2.1899222979,
				"element": "H" 
			},
			{
				"x": -2.9046447789,
				"y": -1.030572106,
				"z": 0.7383970057,
				"element": "H" 
			},
			{
				"x": -2.8835387529,
				"y": 1.0839708294,
				"z": 1.9229489603,
				"element": "H" 
			},
			{
				"x": -1.5017840845,
				"y": 0.5824171508,
				"z": 2.8948359645,
				"element": "H" 
			},
			{
				"x": -0.2818909504,
				"y": 2.0271866566,
				"z": 1.4976131314,
				"element": "H" 
			},
			{
				"x": -1.4366714903,
				"y": 1.9160050725,
				"z": 0.1699007012,
				"element": "H" 
			},
			{
				"x": 3.8918157912,
				"y": -1.0768731245,
				"z": -2.7056620284,
				"element": "H" 
			}
		],
		 "valence_orbital": [ 
			{
				"type": "occ",
				"energy": -0.29097,
				"method": "rhf"
			},
			{
				"type": "occ",
				"energy": -0.26467,
				"method": "rhf"
			},
			{
				"type": "occ",
				"energy": -0.25475,
				"method": "rhf"
			},
			{
				"type": "occ",
				"energy": -0.24943,
				"method": "rhf"
			},
			{
				"type": "occ",
				"energy": -0.20727,
				"method": "rhf"
			},
			{
				"type": "unocc",
				"energy": -0.02531,
				"method": "rhf"
			},
			{
				"type": "unocc",
				"energy": -0.00896,
				"method": "rhf"
			},
			{
				"type": "unocc",
				"energy": 0.02548,
				"method": "rhf"
			},
			{
				"type": "unocc",
				"energy": 0.04022,
				"method": "rhf"
			},
			{
				"type": "unocc",
				"energy": 0.06308,
				"method": "rhf"
			}
		],
		"cosmo_sigma_profile": { 
			"-0.025": 0.0,
			"-0.024": 0.0,
			"-0.023": 0.0,
			"-0.022": 0.0,
			"-0.021": 0.0,
			"-0.02": 0.0,
			"-0.019": 0.0,
			"-0.018": 0.0,
			"-0.017": 0.0,
			"-0.016": 0.0,
			"-0.015": 0.0,
			"-0.014": 0.229251837796,
			"-0.013": 1.94432503199,
			"-0.012": 2.09531589126,
			"-0.011": 2.71619372463,
			"-0.01": 2.92965833382,
			"-0.009": 2.34338088916,
			"-0.008": 2.08393316827,
			"-0.007": 3.46030047202,
			"-0.006": 4.16005589798,
			"-0.005": 3.91708028618,
			"-0.004": 15.6568613985,
			"-0.003": 21.790678667,
			"-0.002": 20.6358073282,
			"-0.001": 17.1489078004,
			"0.0": 19.4245765053,
			"0.001": 17.2590434124,
			"0.002": 18.4111805342,
			"0.003": 15.0978428089,
			"0.004": 10.5784371441,
			"0.005": 6.30415221056,
			"0.006": 3.73913054893,
			"0.007": 2.74460155398,
			"0.008": 2.87663266421,
			"0.009": 2.77957799822,
			"0.01": 2.70927562214,
			"0.011": 1.53750080855,
			"0.012": 1.99519146218,
			"0.013": 2.06713060291,
			"0.014": 1.19873109285,
			"0.015": 1.49129001361,
			"0.016": 0.316095209728,
			"0.017": 0.0,
			"0.018": 0.0,
			"0.019": 0.0,
			"0.02": 0.0,
			"0.021": 0.0,
			"0.022": 0.0,
			"0.023": 0.0,
			"0.024": 0.0,
			"0.025": 0.0
		}
	}
}
