{
	 "smiles": "CN(CCO)C1=CC=C(C=C1)[N+]([O-])=O", 
	 "Tm": 371.15, 
	 "num_atms": 26, 
	 "gaussian": { 
		 "optdone": 1, 
		 "sigma_profile": "yes", 
		 "theory": "DFT", 
		 "functional": "B3LYP", 
		 "basiset": "6-31G**", 
		 "properties": { 
			 "R2extent": 4265.0596, 
			 "electric_dipole_moment_norm": 6.24177635854, 
			 "electric_quadrupole_moment_norm": 33.0925063093, 
			 "total_energy": -685.251362333, 
			 "HOMO_LUMO_gap": 0.14731, 
			 "cosmo_polarized_energy": -16.75, 
			 "cosmo_cavitation_energy": 29.46, 
			 "cosmo_dispersion_energy": -21.38, 
			 "cosmo_repulsion_energy": 1.67, 
			 "cosmo_total_nonelectrostatic_energy": 9.75, 
			 "SMD_solvation_energy": 7.25 
		},
		"coords": [
			{
				"x": -0.8718019851,
				"y": 1.0556460055,
				"z": -1.6862130731,
				"element": "C" 
			},
			{
				"x": 0.0107240488,
				"y": -0.0262662801,
				"z": -1.2627626177,
				"element": "N" 
			},
			{
				"x": 1.0272399217,
				"y": -0.4620704114,
				"z": -2.224165938,
				"element": "C" 
			},
			{
				"x": 0.605104845,
				"y": -1.6979581478,
				"z": -3.0282130507,
				"element": "C" 
			},
			{
				"x": -0.5984987598,
				"y": -1.4786910658,
				"z": -3.748456404,
				"element": "O" 
			},
			{
				"x": 0.0611560315,
				"y": -0.4038186939,
				"z": 0.0645894802,
				"element": "C" 
			},
			{
				"x": 0.88024982,
				"y": -1.4796952879,
				"z": 0.4988219357,
				"element": "C" 
			},
			{
				"x": 0.9195810842,
				"y": -1.859323491,
				"z": 1.8295321226,
				"element": "C" 
			},
			{
				"x": 0.1392208624,
				"y": -1.1812601036,
				"z": 2.7682161138,
				"element": "C" 
			},
			{
				"x": -0.6792204404,
				"y": -0.1215407437,
				"z": 2.3758290218,
				"element": "C" 
			},
			{
				"x": -0.7177555787,
				"y": 0.2636663041,
				"z": 1.0454337145,
				"element": "C" 
			},
			{
				"x": 0.1790820157,
				"y": -1.5838183469,
				"z": 4.1648661957,
				"element": "N" 
			},
			{
				"x": 0.9191320621,
				"y": -2.5226274225,
				"z": 4.4739980049,
				"element": "O" 
			},
			{
				"x": -0.5290172453,
				"y": -0.9647381595,
				"z": 4.9647078472,
				"element": "O" 
			},
			{
				"x": -0.9098368363,
				"y": 1.0654971342,
				"z": -2.7753477843,
				"element": "H" 
			},
			{
				"x": -0.5331058629,
				"y": 2.0409785787,
				"z": -1.3330558642,
				"element": "H" 
			},
			{
				"x": -1.8905765372,
				"y": 0.893789718,
				"z": -1.319970999,
				"element": "H" 
			},
			{
				"x": 1.2032857619,
				"y": 0.3628181902,
				"z": -2.9218103581,
				"element": "H" 
			},
			{
				"x": 1.9768188786,
				"y": -0.6479757604,
				"z": -1.7107917079,
				"element": "H" 
			},
			{
				"x": 0.5185035332,
				"y": -2.572269309,
				"z": -2.3665937259,
				"element": "H" 
			},
			{
				"x": 1.3781870637,
				"y": -1.92141479,
				"z": -3.7715510619,
				"element": "H" 
			},
			{
				"x": -1.3204452414,
				"y": -1.4859467575,
				"z": -3.1067863253,
				"element": "H" 
			},
			{
				"x": 1.4757848651,
				"y": -2.0371866127,
				"z": -0.2128765255,
				"element": "H" 
			},
			{
				"x": 1.5419077953,
				"y": -2.682995357,
				"z": 2.1570621393,
				"element": "H" 
			},
			{
				"x": -1.2694366039,
				"y": 0.3940697731,
				"z": 3.1234102266,
				"element": "H" 
			},
			{
				"x": -1.3436834983,
				"y": 1.1021310367,
				"z": 0.7691286333,
				"element": "H" 
			}
		],
		 "valence_orbital": [ 
			{
				"type": "occ",
				"energy": -0.29158,
				"method": "rhf"
			},
			{
				"type": "occ",
				"energy": -0.28628,
				"method": "rhf"
			},
			{
				"type": "occ",
				"energy": -0.27323,
				"method": "rhf"
			},
			{
				"type": "occ",
				"energy": -0.27187,
				"method": "rhf"
			},
			{
				"type": "occ",
				"energy": -0.21853,
				"method": "rhf"
			},
			{
				"type": "unocc",
				"energy": -0.07122,
				"method": "rhf"
			},
			{
				"type": "unocc",
				"energy": -0.0206,
				"method": "rhf"
			},
			{
				"type": "unocc",
				"energy": 0.02031,
				"method": "rhf"
			},
			{
				"type": "unocc",
				"energy": 0.06022,
				"method": "rhf"
			},
			{
				"type": "unocc",
				"energy": 0.07587,
				"method": "rhf"
			}
		],
		"cosmo_sigma_profile": { 
			"-0.025": 0.0,
			"-0.024": 0.0,
			"-0.023": 0.0,
			"-0.022": 0.0,
			"-0.021": 0.0,
			"-0.02": 0.0,
			"-0.019": 0.0,
			"-0.018": 0.0,
			"-0.017": 0.0,
			"-0.016": 0.0,
			"-0.015": 0.361001540987,
			"-0.014": 0.785258943277,
			"-0.013": 0.570198754694,
			"-0.012": 1.04100691958,
			"-0.011": 0.808836237685,
			"-0.01": 0.492436494218,
			"-0.009": 0.940321044639,
			"-0.008": 2.59010865852,
			"-0.007": 6.5719779693,
			"-0.006": 14.1799510383,
			"-0.005": 22.747235352,
			"-0.004": 23.8244647196,
			"-0.003": 21.2252577979,
			"-0.002": 18.0245686048,
			"-0.001": 12.3554723432,
			"0.0": 12.443718368,
			"0.001": 11.6305543529,
			"0.002": 13.8988747169,
			"0.003": 14.4144615855,
			"0.004": 8.3906251745,
			"0.005": 2.48891294798,
			"0.006": 3.41517811947,
			"0.007": 5.27631057191,
			"0.008": 7.26562366041,
			"0.009": 10.6137627701,
			"0.01": 5.56927989832,
			"0.011": 5.0924422146,
			"0.012": 2.0096604888,
			"0.013": 1.95564885168,
			"0.014": 1.79143534619,
			"0.015": 0.22997285817,
			"0.016": 0.0,
			"0.017": 0.0,
			"0.018": 0.0,
			"0.019": 0.0,
			"0.02": 0.0,
			"0.021": 0.0,
			"0.022": 0.0,
			"0.023": 0.0,
			"0.024": 0.0,
			"0.025": 0.0
		}
	}
}
