{
	 "smiles": "ClCC(=O)C(C#N)=C1NC2=C(N1)C=CC=C2", 
	 "Tm": 559.15, 
	 "num_atms": 24, 
	 "gaussian": { 
		 "optdone": 1, 
		 "sigma_profile": "yes", 
		 "theory": "DFT", 
		 "functional": "B3LYP", 
		 "basiset": "6-31G**", 
		 "properties": { 
			 "R2extent": 6455.0273, 
			 "electric_dipole_moment_norm": 6.68089921343, 
			 "electric_quadrupole_moment_norm": 14.6482458516, 
			 "total_energy": -1123.67139669, 
			 "HOMO_LUMO_gap": 0.15951, 
			 "cosmo_polarized_energy": -18.37, 
			 "cosmo_cavitation_energy": 31.54, 
			 "cosmo_dispersion_energy": -22.75, 
			 "cosmo_repulsion_energy": 1.77, 
			 "cosmo_total_nonelectrostatic_energy": 10.56, 
			 "SMD_solvation_energy": 5.87 
		},
		"coords": [
			{
				"x": -3.4480423414,
				"y": 1.2250433864,
				"z": -5.0379935178,
				"element": "Cl" 
			},
			{
				"x": -2.1050080545,
				"y": 0.0020307627,
				"z": -5.0908991292,
				"element": "C" 
			},
			{
				"x": -1.2056645758,
				"y": 0.1563899556,
				"z": -3.8697898788,
				"element": "C" 
			},
			{
				"x": -0.2381279358,
				"y": 0.9356675495,
				"z": -3.934758988,
				"element": "O" 
			},
			{
				"x": -1.5186425626,
				"y": -0.6103668256,
				"z": -2.6896000476,
				"element": "C" 
			},
			{
				"x": -2.5914163445,
				"y": -1.5315692323,
				"z": -2.6017958135,
				"element": "C" 
			},
			{
				"x": -3.4471229416,
				"y": -2.3136972965,
				"z": -2.4594242706,
				"element": "N" 
			},
			{
				"x": -0.7196955466,
				"y": -0.4485397251,
				"z": -1.5381219607,
				"element": "C" 
			},
			{
				"x": -0.8682764453,
				"y": -1.0766147449,
				"z": -0.3364933077,
				"element": "N" 
			},
			{
				"x": 0.1198629258,
				"y": -0.6436066053,
				"z": 0.5481829477,
				"element": "C" 
			},
			{
				"x": 0.900984782,
				"y": 0.2899818895,
				"z": -0.1620702131,
				"element": "C" 
			},
			{
				"x": 0.3505312791,
				"y": 0.3767341435,
				"z": -1.4366811361,
				"element": "N" 
			},
			{
				"x": 1.988059408,
				"y": 0.9242913427,
				"z": 0.4318024379,
				"element": "C" 
			},
			{
				"x": 2.269270889,
				"y": 0.5952755656,
				"z": 1.759973946,
				"element": "C" 
			},
			{
				"x": 1.4903959422,
				"y": -0.3342123691,
				"z": 2.4655754719,
				"element": "C" 
			},
			{
				"x": 0.398801165,
				"y": -0.9720502034,
				"z": 1.870526504,
				"element": "C" 
			},
			{
				"x": -1.5212526489,
				"y": 0.2115956918,
				"z": -5.9859598949,
				"element": "H" 
			},
			{
				"x": -2.5776220571,
				"y": -0.9784280904,
				"z": -5.149837596,
				"element": "H" 
			},
			{
				"x": -1.60499243,
				"y": -1.7427221761,
				"z": -0.1530479431,
				"element": "H" 
			},
			{
				"x": 0.5964964624,
				"y": 0.9261104447,
				"z": -2.2653839257,
				"element": "H" 
			},
			{
				"x": 2.5892236388,
				"y": 1.6432791276,
				"z": -0.1142505029,
				"element": "H" 
			},
			{
				"x": 3.1094095407,
				"y": 1.0706691458,
				"z": 2.2557584348,
				"element": "H" 
			},
			{
				"x": 1.739086362,
				"y": -0.5643852293,
				"z": 3.4964725357,
				"element": "H" 
			},
			{
				"x": -0.203458511,
				"y": -1.6904765074,
				"z": 2.4167158475,
				"element": "H" 
			}
		],
		 "valence_orbital": [ 
			{
				"type": "occ",
				"energy": -0.29407,
				"method": "rhf"
			},
			{
				"type": "occ",
				"energy": -0.2818,
				"method": "rhf"
			},
			{
				"type": "occ",
				"energy": -0.26609,
				"method": "rhf"
			},
			{
				"type": "occ",
				"energy": -0.2608,
				"method": "rhf"
			},
			{
				"type": "occ",
				"energy": -0.21788,
				"method": "rhf"
			},
			{
				"type": "unocc",
				"energy": -0.05837,
				"method": "rhf"
			},
			{
				"type": "unocc",
				"energy": -0.02258,
				"method": "rhf"
			},
			{
				"type": "unocc",
				"energy": -0.01267,
				"method": "rhf"
			},
			{
				"type": "unocc",
				"energy": 0.01225,
				"method": "rhf"
			},
			{
				"type": "unocc",
				"energy": 0.0254,
				"method": "rhf"
			}
		],
		"cosmo_sigma_profile": { 
			"-0.025": 0.0,
			"-0.024": 0.0,
			"-0.023": 0.0,
			"-0.022": 0.0,
			"-0.021": 0.0,
			"-0.02": 0.0,
			"-0.019": 0.0,
			"-0.018": 0.232217735856,
			"-0.017": 0.813163382795,
			"-0.016": 0.84319244003,
			"-0.015": 1.37013605515,
			"-0.014": 0.615819631157,
			"-0.013": 1.52300376237,
			"-0.012": 1.96395123033,
			"-0.011": 1.54027511242,
			"-0.01": 2.52115790079,
			"-0.009": 3.16052648572,
			"-0.008": 7.0619063204,
			"-0.007": 10.9043166821,
			"-0.006": 13.9595192213,
			"-0.005": 15.5867186695,
			"-0.004": 12.9582651963,
			"-0.003": 13.8746760811,
			"-0.002": 16.7521405875,
			"-0.001": 16.5680753727,
			"0.0": 16.1285959601,
			"0.001": 16.1613631298,
			"0.002": 14.2740956749,
			"0.003": 16.9668846596,
			"0.004": 15.0238060909,
			"0.005": 16.4904726971,
			"0.006": 9.32510698848,
			"0.007": 3.20813580129,
			"0.008": 3.70694243778,
			"0.009": 3.90341739245,
			"0.01": 4.44764496926,
			"0.011": 4.9153197922,
			"0.012": 4.47454744892,
			"0.013": 4.09098763171,
			"0.014": 1.44826403069,
			"0.015": 0.00758437410615,
			"0.016": 0.0,
			"0.017": 0.0,
			"0.018": 0.0,
			"0.019": 0.0,
			"0.02": 0.0,
			"0.021": 0.0,
			"0.022": 0.0,
			"0.023": 0.0,
			"0.024": 0.0,
			"0.025": 0.0
		}
	}
}
