{
	 "smiles": "O=C1NC(=O)C2(CCSCC2)N1", 
	 "Tm": 539.15, 
	 "num_atms": 22, 
	 "gaussian": { 
		 "optdone": 1, 
		 "sigma_profile": "yes", 
		 "theory": "DFT", 
		 "functional": "B3LYP", 
		 "basiset": "6-31G**", 
		 "properties": { 
			 "R2extent": 2543.4227, 
			 "electric_dipole_moment_norm": 1.12281924636, 
			 "electric_quadrupole_moment_norm": 16.090660071, 
			 "total_energy": -930.95984377, 
			 "HOMO_LUMO_gap": 0.20808, 
			 "cosmo_polarized_energy": -17.11, 
			 "cosmo_cavitation_energy": 25.45, 
			 "cosmo_dispersion_energy": -19.58, 
			 "cosmo_repulsion_energy": 1.51, 
			 "cosmo_total_nonelectrostatic_energy": 7.38, 
			 "SMD_solvation_energy": 4.62 
		},
		"coords": [
			{
				"x": -0.3578391707,
				"y": 2.0504604746,
				"z": -3.8390186496,
				"element": "O" 
			},
			{
				"x": -0.2692528813,
				"y": 1.3017898011,
				"z": -2.8892537633,
				"element": "C" 
			},
			{
				"x": -1.2928551426,
				"y": 0.4589253456,
				"z": -2.3971328205,
				"element": "N" 
			},
			{
				"x": -0.9133958795,
				"y": -0.2843966942,
				"z": -1.3037166109,
				"element": "C" 
			},
			{
				"x": -1.6024018906,
				"y": -1.0814800808,
				"z": -0.6947969619,
				"element": "O" 
			},
			{
				"x": 0.5565561474,
				"y": 0.0956669984,
				"z": -1.0066742964,
				"element": "C" 
			},
			{
				"x": 0.6885512617,
				"y": 0.7561729564,
				"z": 0.3888698594,
				"element": "C" 
			},
			{
				"x": 0.4611734392,
				"y": -0.1961031244,
				"z": 1.5672078985,
				"element": "C" 
			},
			{
				"x": 1.664190053,
				"y": -1.5801110446,
				"z": 1.5917128498,
				"element": "S" 
			},
			{
				"x": 1.3180725812,
				"y": -2.208750315,
				"z": -0.0959725357,
				"element": "C" 
			},
			{
				"x": 1.4913095928,
				"y": -1.1294809724,
				"z": -1.1694367789,
				"element": "C" 
			},
			{
				"x": 0.7996232649,
				"y": 1.0741422658,
				"z": -2.0651715539,
				"element": "N" 
			},
			{
				"x": -2.2092029807,
				"y": 0.4191379438,
				"z": -2.8201200784,
				"element": "H" 
			},
			{
				"x": -0.0226105348,
				"y": 1.5899406859,
				"z": 0.4452269816,
				"element": "H" 
			},
			{
				"x": 1.6958726927,
				"y": 1.1846724924,
				"z": 0.4580500059,
				"element": "H" 
			},
			{
				"x": -0.5523636619,
				"y": -0.6035209829,
				"z": 1.5462328117,
				"element": "H" 
			},
			{
				"x": 0.5977919897,
				"y": 0.3381796336,
				"z": 2.5112510247,
				"element": "H" 
			},
			{
				"x": 2.0286398138,
				"y": -3.0221340545,
				"z": -0.2658301985,
				"element": "H" 
			},
			{
				"x": 0.3076874904,
				"y": -2.6235608135,
				"z": -0.1229463655,
				"element": "H" 
			},
			{
				"x": 1.3205532098,
				"y": -1.5649411956,
				"z": -2.1620637539,
				"element": "H" 
			},
			{
				"x": 2.5245938803,
				"y": -0.7619711179,
				"z": -1.1506017642,
				"element": "H" 
			},
			{
				"x": 1.6708067254,
				"y": 1.5615617984,
				"z": -2.2051153,
				"element": "H" 
			}
		],
		 "valence_orbital": [ 
			{
				"type": "occ",
				"energy": -0.29564,
				"method": "rhf"
			},
			{
				"type": "occ",
				"energy": -0.29387,
				"method": "rhf"
			},
			{
				"type": "occ",
				"energy": -0.27106,
				"method": "rhf"
			},
			{
				"type": "occ",
				"energy": -0.26745,
				"method": "rhf"
			},
			{
				"type": "occ",
				"energy": -0.22522,
				"method": "rhf"
			},
			{
				"type": "unocc",
				"energy": -0.01714,
				"method": "rhf"
			},
			{
				"type": "unocc",
				"energy": 0.0336,
				"method": "rhf"
			},
			{
				"type": "unocc",
				"energy": 0.05778,
				"method": "rhf"
			},
			{
				"type": "unocc",
				"energy": 0.06707,
				"method": "rhf"
			},
			{
				"type": "unocc",
				"energy": 0.07722,
				"method": "rhf"
			}
		],
		"cosmo_sigma_profile": { 
			"-0.025": 0.0,
			"-0.024": 0.0,
			"-0.023": 0.0,
			"-0.022": 0.0,
			"-0.021": 0.0,
			"-0.02": 0.0,
			"-0.019": 0.0,
			"-0.018": 0.0,
			"-0.017": 0.3479257895,
			"-0.016": 1.25772852074,
			"-0.015": 2.33591559671,
			"-0.014": 2.50881001727,
			"-0.013": 1.79020922297,
			"-0.012": 1.1733096172,
			"-0.011": 2.38598784058,
			"-0.01": 2.01096472777,
			"-0.009": 2.03092576119,
			"-0.008": 2.51273664222,
			"-0.007": 2.74197729478,
			"-0.006": 10.9229303369,
			"-0.005": 14.3081833619,
			"-0.004": 16.0760722468,
			"-0.003": 19.3470515735,
			"-0.002": 19.8194420573,
			"-0.001": 14.2501167192,
			"0.0": 7.74775915534,
			"0.001": 7.08505456147,
			"0.002": 7.55385854788,
			"0.003": 6.44011356539,
			"0.004": 4.88766826398,
			"0.005": 5.43210120648,
			"0.006": 5.81281826991,
			"0.007": 5.43922195799,
			"0.008": 4.23936306015,
			"0.009": 4.520744731,
			"0.01": 5.66562626113,
			"0.011": 5.91851347931,
			"0.012": 6.72813796189,
			"0.013": 7.317719813,
			"0.014": 1.0392660275,
			"0.015": 0.0,
			"0.016": 0.0,
			"0.017": 0.0,
			"0.018": 0.0,
			"0.019": 0.0,
			"0.02": 0.0,
			"0.021": 0.0,
			"0.022": 0.0,
			"0.023": 0.0,
			"0.024": 0.0,
			"0.025": 0.0
		}
	}
}
