{
	 "smiles": "CCOC(=O)C(C#N)=C(SC)SC", 
	 "Tm": 343.15, 
	 "num_atms": 24, 
	 "gaussian": { 
		 "optdone": 1, 
		 "sigma_profile": "yes", 
		 "theory": "DFT", 
		 "functional": "B3LYP", 
		 "basiset": "6-31G**", 
		 "properties": { 
			 "R2extent": 3965.2731, 
			 "electric_dipole_moment_norm": 4.43159256927, 
			 "electric_quadrupole_moment_norm": 23.4943101186, 
			 "total_energy": -1313.02593772, 
			 "HOMO_LUMO_gap": 0.15909, 
			 "cosmo_polarized_energy": -14.87, 
			 "cosmo_cavitation_energy": 31.83, 
			 "cosmo_dispersion_energy": -22.78, 
			 "cosmo_repulsion_energy": 1.77, 
			 "cosmo_total_nonelectrostatic_energy": 10.83, 
			 "SMD_solvation_energy": 8.08 
		},
		"coords": [
			{
				"x": -3.4995557724,
				"y": -1.4899473957,
				"z": -3.5403679909,
				"element": "C" 
			},
			{
				"x": -2.0468284697,
				"y": -1.239399789,
				"z": -3.1844676851,
				"element": "C" 
			},
			{
				"x": -1.9735272389,
				"y": -1.1042616188,
				"z": -1.7465291922,
				"element": "O" 
			},
			{
				"x": -0.7448408196,
				"y": -0.9040481433,
				"z": -1.231069513,
				"element": "C" 
			},
			{
				"x": 0.258902421,
				"y": -0.8073659001,
				"z": -1.9156032959,
				"element": "O" 
			},
			{
				"x": -0.7969468981,
				"y": -0.8712792468,
				"z": 0.2541427892,
				"element": "C" 
			},
			{
				"x": -2.0320492381,
				"y": -1.2766062438,
				"z": 0.8534555151,
				"element": "C" 
			},
			{
				"x": -3.0394713189,
				"y": -1.5980231079,
				"z": 1.3419006279,
				"element": "N" 
			},
			{
				"x": 0.2946322796,
				"y": -0.6171722642,
				"z": 1.0682041051,
				"element": "C" 
			},
			{
				"x": 0.1959686055,
				"y": -1.1970052055,
				"z": 2.7370709403,
				"element": "S" 
			},
			{
				"x": 1.4225259078,
				"y": -0.2247246358,
				"z": 3.6807070037,
				"element": "C" 
			},
			{
				"x": 1.807418924,
				"y": 0.1456668006,
				"z": 0.6138719453,
				"element": "S" 
			},
			{
				"x": 1.3757361979,
				"y": 1.4594134866,
				"z": -0.5811589639,
				"element": "C" 
			},
			{
				"x": -3.8654900578,
				"y": -2.4033032169,
				"z": -3.0636477727,
				"element": "H" 
			},
			{
				"x": -4.1305774338,
				"y": -0.6575291898,
				"z": -3.2168616021,
				"element": "H" 
			},
			{
				"x": -3.6003167675,
				"y": -1.5999369598,
				"z": -4.6246244263,
				"element": "H" 
			},
			{
				"x": -1.3964586111,
				"y": -2.0635498526,
				"z": -3.4938835256,
				"element": "H" 
			},
			{
				"x": -1.6601320432,
				"y": -0.3241305803,
				"z": -3.6444202928,
				"element": "H" 
			},
			{
				"x": 2.4467445823,
				"y": -0.517356292,
				"z": 3.4511176967,
				"element": "H" 
			},
			{
				"x": 1.2874006812,
				"y": 0.8445235064,
				"z": 3.5155962329,
				"element": "H" 
			},
			{
				"x": 1.2043855475,
				"y": -0.4631765253,
				"z": 4.7246508447,
				"element": "H" 
			},
			{
				"x": 2.1705857248,
				"y": 2.2020307111,
				"z": -0.4829557181,
				"element": "H" 
			},
			{
				"x": 1.3277622873,
				"y": 1.0572208594,
				"z": -1.5904359292,
				"element": "H" 
			},
			{
				"x": 0.4212315103,
				"y": 1.9097608037,
				"z": -0.3024917932,
				"element": "H" 
			}
		],
		 "valence_orbital": [ 
			{
				"type": "occ",
				"energy": -0.31475,
				"method": "rhf"
			},
			{
				"type": "occ",
				"energy": -0.30227,
				"method": "rhf"
			},
			{
				"type": "occ",
				"energy": -0.28115,
				"method": "rhf"
			},
			{
				"type": "occ",
				"energy": -0.25864,
				"method": "rhf"
			},
			{
				"type": "occ",
				"energy": -0.23444,
				"method": "rhf"
			},
			{
				"type": "unocc",
				"energy": -0.07535,
				"method": "rhf"
			},
			{
				"type": "unocc",
				"energy": -0.00129,
				"method": "rhf"
			},
			{
				"type": "unocc",
				"energy": 0.01974,
				"method": "rhf"
			},
			{
				"type": "unocc",
				"energy": 0.02716,
				"method": "rhf"
			},
			{
				"type": "unocc",
				"energy": 0.04907,
				"method": "rhf"
			}
		],
		"cosmo_sigma_profile": { 
			"-0.025": 0.0,
			"-0.024": 0.0,
			"-0.023": 0.0,
			"-0.022": 0.0,
			"-0.021": 0.0,
			"-0.02": 0.0,
			"-0.019": 0.0,
			"-0.018": 0.0,
			"-0.017": 0.0,
			"-0.016": 0.0,
			"-0.015": 0.0,
			"-0.014": 0.0,
			"-0.013": 0.0,
			"-0.012": 0.0,
			"-0.011": 0.0,
			"-0.01": 0.0,
			"-0.009": 0.201668824691,
			"-0.008": 3.20503463849,
			"-0.007": 8.49176515147,
			"-0.006": 11.7578047028,
			"-0.005": 19.4709154336,
			"-0.004": 25.8323468378,
			"-0.003": 30.6181587247,
			"-0.002": 26.9825977459,
			"-0.001": 19.9699880099,
			"0.0": 18.1730286031,
			"0.001": 11.3555756387,
			"0.002": 11.0151179302,
			"0.003": 9.63772056295,
			"0.004": 8.77478034392,
			"0.005": 8.13633704175,
			"0.006": 6.68690157379,
			"0.007": 5.40055555351,
			"0.008": 6.9930379617,
			"0.009": 6.63925370386,
			"0.01": 5.0065340771,
			"0.011": 5.97155147985,
			"0.012": 3.72966967897,
			"0.013": 2.12311585572,
			"0.014": 0.343162159482,
			"0.015": 0.0,
			"0.016": 0.0,
			"0.017": 0.0,
			"0.018": 0.0,
			"0.019": 0.0,
			"0.02": 0.0,
			"0.021": 0.0,
			"0.022": 0.0,
			"0.023": 0.0,
			"0.024": 0.0,
			"0.025": 0.0
		}
	}
}
