{
	 "smiles": "O=C1CNC2(CCCCC2)C(=O)N1", 
	 "Tm": 458.15, 
	 "num_atms": 27, 
	 "gaussian": { 
		 "optdone": 1, 
		 "sigma_profile": "yes", 
		 "theory": "DFT", 
		 "functional": "B3LYP", 
		 "basiset": "6-31G**", 
		 "properties": { 
			 "R2extent": 2481.161, 
			 "electric_dipole_moment_norm": 2.44859354937, 
			 "electric_quadrupole_moment_norm": 11.4756365719, 
			 "total_energy": -611.383292606, 
			 "HOMO_LUMO_gap": 0.20509, 
			 "cosmo_polarized_energy": -13.46, 
			 "cosmo_cavitation_energy": 27.61, 
			 "cosmo_dispersion_energy": -20.43, 
			 "cosmo_repulsion_energy": 1.61, 
			 "cosmo_total_nonelectrostatic_energy": 8.79, 
			 "SMD_solvation_energy": 4.33 
		},
		"coords": [
			{
				"x": -3.5878302743,
				"y": 2.3561259161,
				"z": -0.4769162392,
				"element": "O" 
			},
			{
				"x": -2.5551306979,
				"y": 1.7553895196,
				"z": -0.2538297237,
				"element": "C" 
			},
			{
				"x": -2.4651504111,
				"y": 0.2482813657,
				"z": -0.0396351856,
				"element": "C" 
			},
			{
				"x": -1.2708881234,
				"y": -0.2053843383,
				"z": 0.6598233089,
				"element": "N" 
			},
			{
				"x": 0.0005159506,
				"y": 0.3351240053,
				"z": 0.1514390088,
				"element": "C" 
			},
			{
				"x": 0.3513618469,
				"y": -0.2978190329,
				"z": -1.2253969087,
				"element": "C" 
			},
			{
				"x": 0.6121696401,
				"y": -1.8066386716,
				"z": -1.1193966627,
				"element": "C" 
			},
			{
				"x": 1.7212085368,
				"y": -2.1112426075,
				"z": -0.1026153257,
				"element": "C" 
			},
			{
				"x": 1.3963384277,
				"y": -1.5017571195,
				"z": 1.2685039203,
				"element": "C" 
			},
			{
				"x": 1.1205488895,
				"y": 0.0051156309,
				"z": 1.1635010211,
				"element": "C" 
			},
			{
				"x": -0.053175757,
				"y": 1.8631157096,
				"z": -0.0444201278,
				"element": "C" 
			},
			{
				"x": 0.9305949364,
				"y": 2.578031951,
				"z": -0.099117031,
				"element": "O" 
			},
			{
				"x": -1.3284886013,
				"y": 2.4160955639,
				"z": -0.1930797474,
				"element": "N" 
			},
			{
				"x": -2.5307903177,
				"y": -0.2265482869,
				"z": -1.0273064228,
				"element": "H" 
			},
			{
				"x": -3.3591402876,
				"y": -0.0606898858,
				"z": 0.5075865484,
				"element": "H" 
			},
			{
				"x": -1.3528283171,
				"y": 0.0191938511,
				"z": 1.6481174417,
				"element": "H" 
			},
			{
				"x": 1.2452842542,
				"y": 0.2141783992,
				"z": -1.6003788534,
				"element": "H" 
			},
			{
				"x": -0.4459247585,
				"y": -0.0958881872,
				"z": -1.9507168329,
				"element": "H" 
			},
			{
				"x": 0.8815436987,
				"y": -2.1962791817,
				"z": -2.108147305,
				"element": "H" 
			},
			{
				"x": -0.3118015043,
				"y": -2.3114892661,
				"z": -0.8147766325,
				"element": "H" 
			},
			{
				"x": 1.8647949364,
				"y": -3.1941923048,
				"z": -0.0111788897,
				"element": "H" 
			},
			{
				"x": 2.6722195843,
				"y": -1.6982821206,
				"z": -0.4683130414,
				"element": "H" 
			},
			{
				"x": 0.5192587065,
				"y": -2.00643758,
				"z": 1.6905529959,
				"element": "H" 
			},
			{
				"x": 2.2257400319,
				"y": -1.6673870671,
				"z": 1.9660499905,
				"element": "H" 
			},
			{
				"x": 2.0201342961,
				"y": 0.5398708834,
				"z": 0.8448049062,
				"element": "H" 
			},
			{
				"x": 0.8511994209,
				"y": 0.416681883,
				"z": 2.1459642908,
				"element": "H" 
			},
			{
				"x": -1.3550641068,
				"y": 3.419930971,
				"z": -0.3471185031,
				"element": "H" 
			}
		],
		 "valence_orbital": [ 
			{
				"type": "occ",
				"energy": -0.31102,
				"method": "rhf"
			},
			{
				"type": "occ",
				"energy": -0.30722,
				"method": "rhf"
			},
			{
				"type": "occ",
				"energy": -0.28838,
				"method": "rhf"
			},
			{
				"type": "occ",
				"energy": -0.26281,
				"method": "rhf"
			},
			{
				"type": "occ",
				"energy": -0.23529,
				"method": "rhf"
			},
			{
				"type": "unocc",
				"energy": -0.0302,
				"method": "rhf"
			},
			{
				"type": "unocc",
				"energy": 0.02876,
				"method": "rhf"
			},
			{
				"type": "unocc",
				"energy": 0.06373,
				"method": "rhf"
			},
			{
				"type": "unocc",
				"energy": 0.0924,
				"method": "rhf"
			},
			{
				"type": "unocc",
				"energy": 0.09942,
				"method": "rhf"
			}
		],
		"cosmo_sigma_profile": { 
			"-0.025": 0.0,
			"-0.024": 0.0,
			"-0.023": 0.0,
			"-0.022": 0.0,
			"-0.021": 0.0,
			"-0.02": 0.0,
			"-0.019": 0.0,
			"-0.018": 0.0,
			"-0.017": 0.0,
			"-0.016": 0.0342331199149,
			"-0.015": 0.589885373071,
			"-0.014": 0.895700183846,
			"-0.013": 1.00454377924,
			"-0.012": 0.801867580012,
			"-0.011": 2.73313151971,
			"-0.01": 3.57769563067,
			"-0.009": 2.97355192543,
			"-0.008": 4.37134932286,
			"-0.007": 7.41863646357,
			"-0.006": 6.40253129858,
			"-0.005": 7.31149269286,
			"-0.004": 8.63959844198,
			"-0.003": 14.2399412657,
			"-0.002": 26.2938561717,
			"-0.001": 29.1595351796,
			"0.0": 25.862570819,
			"0.001": 16.5192056076,
			"0.002": 6.26415988335,
			"0.003": 3.40455912561,
			"0.004": 3.40455063768,
			"0.005": 4.01480162914,
			"0.006": 3.32155927436,
			"0.007": 2.93904834962,
			"0.008": 4.02357094985,
			"0.009": 3.68780522161,
			"0.01": 3.58272215492,
			"0.011": 7.42193291153,
			"0.012": 10.3023543807,
			"0.013": 2.93480130651,
			"0.014": 0.0535479898519,
			"0.015": 0.0,
			"0.016": 0.0,
			"0.017": 0.0,
			"0.018": 0.0,
			"0.019": 0.0,
			"0.02": 0.0,
			"0.021": 0.0,
			"0.022": 0.0,
			"0.023": 0.0,
			"0.024": 0.0,
			"0.025": 0.0
		}
	}
}
