{
	 "smiles": "ClCC1=NN(C2=C1CCC2)C1=CC=CC=C1", 
	 "Tm": 357.15, 
	 "num_atms": 29, 
	 "gaussian": { 
		 "optdone": 1, 
		 "sigma_profile": "yes", 
		 "theory": "DFT", 
		 "functional": "B3LYP", 
		 "basiset": "6-31G**", 
		 "properties": { 
			 "R2extent": 4915.2524, 
			 "electric_dipole_moment_norm": 3.72018837292, 
			 "electric_quadrupole_moment_norm": 10.6010142958, 
			 "total_energy": -1072.89858429, 
			 "HOMO_LUMO_gap": 0.19374, 
			 "cosmo_polarized_energy": -9.18, 
			 "cosmo_cavitation_energy": 33.66, 
			 "cosmo_dispersion_energy": -24.53, 
			 "cosmo_repulsion_energy": 1.94, 
			 "cosmo_total_nonelectrostatic_energy": 11.06, 
			 "SMD_solvation_energy": 3.84 
		},
		"coords": [
			{
				"x": 1.0681282486,
				"y": 1.4459466435,
				"z": 3.7859200207,
				"element": "Cl" 
			},
			{
				"x": 1.6772158867,
				"y": 0.2811318195,
				"z": 2.5000944355,
				"element": "C" 
			},
			{
				"x": 0.7793782108,
				"y": 0.221391394,
				"z": 1.317511505,
				"element": "C" 
			},
			{
				"x": 0.0715198607,
				"y": -0.8913256155,
				"z": 1.0964154615,
				"element": "N" 
			},
			{
				"x": -0.6316403156,
				"y": -0.6673573231,
				"z": -0.0506458202,
				"element": "N" 
			},
			{
				"x": -0.3774536851,
				"y": 0.588362404,
				"z": -0.5322826638,
				"element": "C" 
			},
			{
				"x": 0.522093905,
				"y": 1.1853545433,
				"z": 0.3133130549,
				"element": "C" 
			},
			{
				"x": 0.8664628489,
				"y": 2.5754648218,
				"z": -0.1433039094,
				"element": "C" 
			},
			{
				"x": -0.2474425575,
				"y": 2.8461709459,
				"z": -1.2095545248,
				"element": "C" 
			},
			{
				"x": -0.7957034774,
				"y": 1.4579101714,
				"z": -1.6821020282,
				"element": "C" 
			},
			{
				"x": -1.5094643479,
				"y": -1.6679995644,
				"z": -0.5429882989,
				"element": "C" 
			},
			{
				"x": -1.9818025775,
				"y": -2.6567771725,
				"z": 0.3289718275,
				"element": "C" 
			},
			{
				"x": -2.8460649943,
				"y": -3.638090652,
				"z": -0.1499898307,
				"element": "C" 
			},
			{
				"x": -3.252425485,
				"y": -3.6400769985,
				"z": -1.4868102063,
				"element": "C" 
			},
			{
				"x": -2.7750715127,
				"y": -2.6531748435,
				"z": -2.3494537252,
				"element": "C" 
			},
			{
				"x": -1.8989659135,
				"y": -1.6707936135,
				"z": -1.8872343676,
				"element": "C" 
			},
			{
				"x": 2.6746182949,
				"y": 0.6418129639,
				"z": 2.2471710709,
				"element": "H" 
			},
			{
				"x": 1.7415033515,
				"y": -0.69562175,
				"z": 2.9769918067,
				"element": "H" 
			},
			{
				"x": 1.868291483,
				"y": 2.6163233299,
				"z": -0.5924035885,
				"element": "H" 
			},
			{
				"x": 0.8481318687,
				"y": 3.3198022588,
				"z": 0.6588700575,
				"element": "H" 
			},
			{
				"x": -1.06354026,
				"y": 3.3992253463,
				"z": -0.7343359092,
				"element": "H" 
			},
			{
				"x": 0.1109773185,
				"y": 3.4516010345,
				"z": -2.0465875026,
				"element": "H" 
			},
			{
				"x": -1.8764431514,
				"y": 1.4779440787,
				"z": -1.8567485159,
				"element": "H" 
			},
			{
				"x": -0.3238669724,
				"y": 1.1391088604,
				"z": -2.6218851707,
				"element": "H" 
			},
			{
				"x": -1.6608861045,
				"y": -2.6402710778,
				"z": 1.3630004738,
				"element": "H" 
			},
			{
				"x": -3.2097269941,
				"y": -4.4025751522,
				"z": 0.5303969344,
				"element": "H" 
			},
			{
				"x": -3.9307467446,
				"y": -4.404915652,
				"z": -1.8523233921,
				"element": "H" 
			},
			{
				"x": -3.0736025817,
				"y": -2.6494397176,
				"z": -3.3936800591,
				"element": "H" 
			},
			{
				"x": -1.5102736022,
				"y": -0.9272314835,
				"z": -2.5728271351,
				"element": "H" 
			}
		],
		 "valence_orbital": [ 
			{
				"type": "occ",
				"energy": -0.28647,
				"method": "rhf"
			},
			{
				"type": "occ",
				"energy": -0.28241,
				"method": "rhf"
			},
			{
				"type": "occ",
				"energy": -0.25811,
				"method": "rhf"
			},
			{
				"type": "occ",
				"energy": -0.23777,
				"method": "rhf"
			},
			{
				"type": "occ",
				"energy": -0.22172,
				"method": "rhf"
			},
			{
				"type": "unocc",
				"energy": -0.02798,
				"method": "rhf"
			},
			{
				"type": "unocc",
				"energy": -0.00903,
				"method": "rhf"
			},
			{
				"type": "unocc",
				"energy": 0.01098,
				"method": "rhf"
			},
			{
				"type": "unocc",
				"energy": 0.04061,
				"method": "rhf"
			},
			{
				"type": "unocc",
				"energy": 0.07728,
				"method": "rhf"
			}
		],
		"cosmo_sigma_profile": { 
			"-0.025": 0.0,
			"-0.024": 0.0,
			"-0.023": 0.0,
			"-0.022": 0.0,
			"-0.021": 0.0,
			"-0.02": 0.0,
			"-0.019": 0.0,
			"-0.018": 0.0,
			"-0.017": 0.0,
			"-0.016": 0.0,
			"-0.015": 0.0,
			"-0.014": 0.0,
			"-0.013": 0.0,
			"-0.012": 0.0,
			"-0.011": 0.0,
			"-0.01": 0.0,
			"-0.009": 0.0,
			"-0.008": 1.42498573959,
			"-0.007": 4.71156914461,
			"-0.006": 12.0269230948,
			"-0.005": 16.6622477826,
			"-0.004": 24.0163149184,
			"-0.003": 28.6583299712,
			"-0.002": 25.961664595,
			"-0.001": 22.5660295218,
			"0.0": 20.7701693596,
			"0.001": 15.5384909677,
			"0.002": 15.8088829253,
			"0.003": 18.2657409364,
			"0.004": 20.2652161127,
			"0.005": 18.3289272848,
			"0.006": 11.1784664224,
			"0.007": 8.04655185143,
			"0.008": 1.4073945598,
			"0.009": 1.1972082836,
			"0.01": 1.24725446866,
			"0.011": 0.870826158799,
			"0.012": 0.604580571958,
			"0.013": 0.562497571997,
			"0.014": 0.0,
			"0.015": 0.0,
			"0.016": 0.0,
			"0.017": 0.0,
			"0.018": 0.0,
			"0.019": 0.0,
			"0.02": 0.0,
			"0.021": 0.0,
			"0.022": 0.0,
			"0.023": 0.0,
			"0.024": 0.0,
			"0.025": 0.0
		}
	}
}
