{
	 "smiles": "SC1=NN=C2N1C1=C(C=CC=C1)C(=O)N2CC=C", 
	 "Tm": 451.15, 
	 "num_atms": 28, 
	 "gaussian": { 
		 "optdone": 1, 
		 "sigma_profile": "yes", 
		 "theory": "DFT", 
		 "functional": "B3LYP", 
		 "basiset": "6-31G**", 
		 "properties": { 
			 "R2extent": 5116.1521, 
			 "electric_dipole_moment_norm": 3.72845363925, 
			 "electric_quadrupole_moment_norm": 8.76758404693, 
			 "total_energy": -1155.68906772, 
			 "HOMO_LUMO_gap": 0.16319, 
			 "cosmo_polarized_energy": -15.33, 
			 "cosmo_cavitation_energy": 33.92, 
			 "cosmo_dispersion_energy": -24.98, 
			 "cosmo_repulsion_energy": 1.83, 
			 "cosmo_total_nonelectrostatic_energy": 10.77, 
			 "SMD_solvation_energy": 4.6 
		},
		"coords": [
			{
				"x": 1.1024750645,
				"y": -1.6943712268,
				"z": 3.3443288275,
				"element": "S" 
			},
			{
				"x": 0.3630646383,
				"y": -2.0877756085,
				"z": 1.7882050596,
				"element": "C" 
			},
			{
				"x": -0.1531133753,
				"y": -3.2535127719,
				"z": 1.503755868,
				"element": "N" 
			},
			{
				"x": -0.6421528586,
				"y": -3.2089941432,
				"z": 0.2060784036,
				"element": "N" 
			},
			{
				"x": -0.3931545007,
				"y": -2.0064325916,
				"z": -0.2427940773,
				"element": "C" 
			},
			{
				"x": 0.2449526779,
				"y": -1.2210362444,
				"z": 0.7031690899,
				"element": "N" 
			},
			{
				"x": 0.6001154868,
				"y": 0.1181915371,
				"z": 0.4440713383,
				"element": "C" 
			},
			{
				"x": 0.2695040699,
				"y": 0.6192038548,
				"z": -0.831285279,
				"element": "C" 
			},
			{
				"x": 0.591781652,
				"y": 1.942805608,
				"z": -1.1549457464,
				"element": "C" 
			},
			{
				"x": 1.2320096612,
				"y": 2.761000877,
				"z": -0.2332871742,
				"element": "C" 
			},
			{
				"x": 1.5556819033,
				"y": 2.2532645117,
				"z": 1.0289761591,
				"element": "C" 
			},
			{
				"x": 1.2454285865,
				"y": 0.9405651842,
				"z": 1.3745667784,
				"element": "C" 
			},
			{
				"x": -0.4139370163,
				"y": -0.2042546759,
				"z": -1.8640631578,
				"element": "C" 
			},
			{
				"x": -0.7025082185,
				"y": 0.2239681161,
				"z": -2.973820219,
				"element": "O" 
			},
			{
				"x": -0.6978180259,
				"y": -1.5167214794,
				"z": -1.4926876348,
				"element": "N" 
			},
			{
				"x": -1.3948977547,
				"y": -2.4122407932,
				"z": -2.4438154752,
				"element": "C" 
			},
			{
				"x": -2.8792355734,
				"y": -2.470870481,
				"z": -2.1927409135,
				"element": "C" 
			},
			{
				"x": -3.7871639937,
				"y": -2.0205080655,
				"z": -3.0573456778,
				"element": "C" 
			},
			{
				"x": 0.8587209544,
				"y": -2.930446032,
				"z": 3.8210839206,
				"element": "H" 
			},
			{
				"x": 0.3221072096,
				"y": 2.2940234507,
				"z": -2.1448613581,
				"element": "H" 
			},
			{
				"x": 1.4792626376,
				"y": 3.7858512743,
				"z": -0.4902185536,
				"element": "H" 
			},
			{
				"x": 2.0563843591,
				"y": 2.8835327706,
				"z": 1.7575331052,
				"element": "H" 
			},
			{
				"x": 1.5077732969,
				"y": 0.573558042,
				"z": 2.3578989229,
				"element": "H" 
			},
			{
				"x": -1.1814884602,
				"y": -2.0196840282,
				"z": -3.437765829,
				"element": "H" 
			},
			{
				"x": -0.943748948,
				"y": -3.4018095442,
				"z": -2.3291099041,
				"element": "H" 
			},
			{
				"x": -3.1826592028,
				"y": -2.9218662476,
				"z": -1.2500982647,
				"element": "H" 
			},
			{
				"x": -3.4982685131,
				"y": -1.5621142594,
				"z": -3.9998289987,
				"element": "H" 
			},
			{
				"x": -4.8515157569,
				"y": -2.0936270338,
				"z": -2.85379921,
				"element": "H" 
			}
		],
		 "valence_orbital": [ 
			{
				"type": "occ",
				"energy": -0.27899,
				"method": "rhf"
			},
			{
				"type": "occ",
				"energy": -0.27327,
				"method": "rhf"
			},
			{
				"type": "occ",
				"energy": -0.26347,
				"method": "rhf"
			},
			{
				"type": "occ",
				"energy": -0.25826,
				"method": "rhf"
			},
			{
				"type": "occ",
				"energy": -0.22376,
				"method": "rhf"
			},
			{
				"type": "unocc",
				"energy": -0.06057,
				"method": "rhf"
			},
			{
				"type": "unocc",
				"energy": -0.04026,
				"method": "rhf"
			},
			{
				"type": "unocc",
				"energy": -0.00348,
				"method": "rhf"
			},
			{
				"type": "unocc",
				"energy": 0.00964,
				"method": "rhf"
			},
			{
				"type": "unocc",
				"energy": 0.01778,
				"method": "rhf"
			}
		],
		"cosmo_sigma_profile": { 
			"-0.025": 0.0,
			"-0.024": 0.0,
			"-0.023": 0.0,
			"-0.022": 0.0,
			"-0.021": 0.0,
			"-0.02": 0.0,
			"-0.019": 0.0,
			"-0.018": 0.0,
			"-0.017": 0.0,
			"-0.016": 0.0,
			"-0.015": 0.0,
			"-0.014": 0.0,
			"-0.013": 0.49463295628,
			"-0.012": 1.48990560955,
			"-0.011": 1.16488638376,
			"-0.01": 1.42514836352,
			"-0.009": 1.1490386499,
			"-0.008": 2.9346559858,
			"-0.007": 9.65009339434,
			"-0.006": 14.9538239715,
			"-0.005": 21.667690919,
			"-0.004": 21.9900483639,
			"-0.003": 24.4814880219,
			"-0.002": 20.7626506199,
			"-0.001": 20.6879448293,
			"0.0": 19.4307782228,
			"0.001": 21.8352647011,
			"0.002": 21.0133145916,
			"0.003": 12.6230670899,
			"0.004": 9.60516951328,
			"0.005": 10.0381328195,
			"0.006": 6.37758480023,
			"0.007": 3.35201653088,
			"0.008": 3.07131553448,
			"0.009": 2.83091192266,
			"0.01": 4.04423423326,
			"0.011": 4.62827578923,
			"0.012": 7.39260112412,
			"0.013": 3.57642214459,
			"0.014": 1.94861770027,
			"0.015": 1.08801837838,
			"0.016": 0.118287808931,
			"0.017": 0.0,
			"0.018": 0.0,
			"0.019": 0.0,
			"0.02": 0.0,
			"0.021": 0.0,
			"0.022": 0.0,
			"0.023": 0.0,
			"0.024": 0.0,
			"0.025": 0.0
		}
	}
}
