{
	 "smiles": "OC(=O)CCSC1=CC(=O)C(SCCC(O)=O)=CC1=O", 
	 "Tm": 506.15, 
	 "num_atms": 32, 
	 "gaussian": { 
		 "optdone": 1, 
		 "sigma_profile": "yes", 
		 "theory": "DFT", 
		 "functional": "B3LYP", 
		 "basiset": "6-31G**", 
		 "properties": { 
			 "R2extent": 10069.5599, 
			 "electric_dipole_moment_norm": 2.2289886451, 
			 "electric_quadrupole_moment_norm": 18.9683126118, 
			 "total_energy": -1712.21784423, 
			 "HOMO_LUMO_gap": 0.10635, 
			 "cosmo_polarized_energy": -21.81, 
			 "cosmo_cavitation_energy": 40.32, 
			 "cosmo_dispersion_energy": -28.97, 
			 "cosmo_repulsion_energy": 2.17, 
			 "cosmo_total_nonelectrostatic_energy": 13.52, 
			 "SMD_solvation_energy": 8.91 
		},
		"coords": [
			{
				"x": 1.3447295854,
				"y": -6.8252703507,
				"z": 1.5322312905,
				"element": "O" 
			},
			{
				"x": 0.6241932967,
				"y": -6.0047588135,
				"z": 0.7349520638,
				"element": "C" 
			},
			{
				"x": 0.3006399759,
				"y": -6.3058172322,
				"z": -0.3945519509,
				"element": "O" 
			},
			{
				"x": 0.2772952279,
				"y": -4.7089336044,
				"z": 1.4324813041,
				"element": "C" 
			},
			{
				"x": -0.4855791637,
				"y": -3.7489067591,
				"z": 0.5281481426,
				"element": "C" 
			},
			{
				"x": 0.5005013137,
				"y": -3.1498256193,
				"z": -0.9209243576,
				"element": "S" 
			},
			{
				"x": 0.8722502786,
				"y": -1.4590647663,
				"z": -0.5686871688,
				"element": "C" 
			},
			{
				"x": 0.9332937773,
				"y": -0.5718921895,
				"z": -1.5909544461,
				"element": "C" 
			},
			{
				"x": 1.3889605267,
				"y": 0.8209034797,
				"z": -1.436830231,
				"element": "C" 
			},
			{
				"x": 1.5166051849,
				"y": 1.5454929865,
				"z": -2.4170753351,
				"element": "O" 
			},
			{
				"x": 1.6915172072,
				"y": 1.3012078325,
				"z": -0.0432993099,
				"element": "C" 
			},
			{
				"x": 2.3252023304,
				"y": 2.9421525659,
				"z": 0.2272619824,
				"element": "S" 
			},
			{
				"x": 0.9094663095,
				"y": 4.0885431583,
				"z": -0.089068104,
				"element": "C" 
			},
			{
				"x": 0.4454851921,
				"y": 4.2931801085,
				"z": -1.5309081955,
				"element": "C" 
			},
			{
				"x": -0.678111403,
				"y": 3.3588220293,
				"z": -1.9261050063,
				"element": "C" 
			},
			{
				"x": -1.0536870457,
				"y": 3.5561878723,
				"z": -3.2064600571,
				"element": "O" 
			},
			{
				"x": -1.2161579802,
				"y": 2.5474668229,
				"z": -1.2012998632,
				"element": "O" 
			},
			{
				"x": 1.6447196122,
				"y": 0.4204332156,
				"z": 0.9769269403,
				"element": "C" 
			},
			{
				"x": 1.2844332194,
				"y": -1.0062641527,
				"z": 0.8038461248,
				"element": "C" 
			},
			{
				"x": 1.3267467018,
				"y": -1.7658718091,
				"z": 1.7648314117,
				"element": "O" 
			},
			{
				"x": 1.5194295016,
				"y": -7.6268575506,
				"z": 1.0107509759,
				"element": "H" 
			},
			{
				"x": -0.3347165748,
				"y": -4.9580516931,
				"z": 2.3099904087,
				"element": "H" 
			},
			{
				"x": 1.1867933391,
				"y": -4.2408208392,
				"z": 1.8166579688,
				"element": "H" 
			},
			{
				"x": -1.3458614459,
				"y": -4.2489515181,
				"z": 0.078225224,
				"element": "H" 
			},
			{
				"x": -0.8335584271,
				"y": -2.8843282523,
				"z": 1.0901658707,
				"element": "H" 
			},
			{
				"x": 0.6546443444,
				"y": -0.8515916834,
				"z": -2.6022488665,
				"element": "H" 
			},
			{
				"x": 0.0740376549,
				"y": 3.7770377957,
				"z": 0.5406228127,
				"element": "H" 
			},
			{
				"x": 1.3072699104,
				"y": 5.0251877094,
				"z": 0.3115429141,
				"element": "H" 
			},
			{
				"x": 0.0652930856,
				"y": 5.3161477986,
				"z": -1.6534958161,
				"element": "H" 
			},
			{
				"x": 1.2613656836,
				"y": 4.1728237276,
				"z": -2.247590785,
				"element": "H" 
			},
			{
				"x": -1.7670734425,
				"y": 2.920630976,
				"z": -3.3842386287,
				"element": "H" 
			},
			{
				"x": 1.8801722236,
				"y": 0.7111887543,
				"z": 1.9957026868,
				"element": "H" 
			}
		],
		 "valence_orbital": [ 
			{
				"type": "occ",
				"energy": -0.28149,
				"method": "rhf"
			},
			{
				"type": "occ",
				"energy": -0.28041,
				"method": "rhf"
			},
			{
				"type": "occ",
				"energy": -0.26935,
				"method": "rhf"
			},
			{
				"type": "occ",
				"energy": -0.24448,
				"method": "rhf"
			},
			{
				"type": "occ",
				"energy": -0.23557,
				"method": "rhf"
			},
			{
				"type": "unocc",
				"energy": -0.12922,
				"method": "rhf"
			},
			{
				"type": "unocc",
				"energy": -0.0353,
				"method": "rhf"
			},
			{
				"type": "unocc",
				"energy": -0.00065,
				"method": "rhf"
			},
			{
				"type": "unocc",
				"energy": 0.00553,
				"method": "rhf"
			},
			{
				"type": "unocc",
				"energy": 0.01146,
				"method": "rhf"
			}
		],
		"cosmo_sigma_profile": { 
			"-0.025": 0.0,
			"-0.024": 0.0,
			"-0.023": 0.0,
			"-0.022": 0.0,
			"-0.021": 0.0,
			"-0.02": 0.0,
			"-0.019": 0.0131547825448,
			"-0.018": 1.6032318339,
			"-0.017": 2.18017637272,
			"-0.016": 1.3070849513,
			"-0.015": 1.5903945321,
			"-0.014": 1.20909032982,
			"-0.013": 1.53953483497,
			"-0.012": 1.66303143339,
			"-0.011": 1.29546318057,
			"-0.01": 1.49739158882,
			"-0.009": 1.48128746281,
			"-0.008": 5.57077620594,
			"-0.007": 16.2509357963,
			"-0.006": 20.0888892849,
			"-0.005": 22.0821900502,
			"-0.004": 21.3452008444,
			"-0.003": 25.5391488863,
			"-0.002": 21.2686973751,
			"-0.001": 16.5029158856,
			"0.0": 14.9251863758,
			"0.001": 15.0125046655,
			"0.002": 15.1140198419,
			"0.003": 13.8712533616,
			"0.004": 16.5056321812,
			"0.005": 14.5700957289,
			"0.006": 13.7392464621,
			"0.007": 10.9985969257,
			"0.008": 10.8820246538,
			"0.009": 11.3133390619,
			"0.01": 8.74637112297,
			"0.011": 9.02892732011,
			"0.012": 4.68245190138,
			"0.013": 0.0695759684038,
			"0.014": 0.0,
			"0.015": 0.0,
			"0.016": 0.0,
			"0.017": 0.0,
			"0.018": 0.0,
			"0.019": 0.0,
			"0.02": 0.0,
			"0.021": 0.0,
			"0.022": 0.0,
			"0.023": 0.0,
			"0.024": 0.0,
			"0.025": 0.0
		}
	}
}
