{
	 "smiles": "OCC1CCCN(C1)C(=O)C=CC1=CC2=C(OCC2)C=C1", 
	 "Tm": 405.15, 
	 "num_atms": 42, 
	 "gaussian": { 
		 "optdone": 1, 
		 "sigma_profile": "yes", 
		 "theory": "DFT", 
		 "functional": "B3LYP", 
		 "basiset": "6-31G**", 
		 "properties": { 
			 "R2extent": 11484.0062, 
			 "electric_dipole_moment_norm": 4.10079762363, 
			 "electric_quadrupole_moment_norm": 11.4002552748, 
			 "total_energy": -940.868941342, 
			 "HOMO_LUMO_gap": 0.15652, 
			 "cosmo_polarized_energy": -18.21, 
			 "cosmo_cavitation_energy": 43.03, 
			 "cosmo_dispersion_energy": -31.6, 
			 "cosmo_repulsion_energy": 2.42, 
			 "cosmo_total_nonelectrostatic_energy": 13.85, 
			 "SMD_solvation_energy": 6.41 
		},
		"coords": [
			{
				"x": -5.3322530791,
				"y": 3.4560989471,
				"z": 3.3867820188,
				"element": "O" 
			},
			{
				"x": -4.0332984179,
				"y": 2.8951896876,
				"z": 3.2458965787,
				"element": "C" 
			},
			{
				"x": -3.8996813995,
				"y": 1.9970271333,
				"z": 2.0110175868,
				"element": "C" 
			},
			{
				"x": -4.9879148578,
				"y": 0.8943392257,
				"z": 1.9730404505,
				"element": "C" 
			},
			{
				"x": -4.4815710522,
				"y": -0.3823481576,
				"z": 1.2716932716,
				"element": "C" 
			},
			{
				"x": -3.4924902693,
				"y": -0.0710758685,
				"z": 0.1436353247,
				"element": "C" 
			},
			{
				"x": -2.3248583183,
				"y": 0.6468710984,
				"z": 0.6745108385,
				"element": "N" 
			},
			{
				"x": -2.4937836504,
				"y": 1.3889589415,
				"z": 1.9287779013,
				"element": "C" 
			},
			{
				"x": -1.0619410952,
				"y": 0.6016423195,
				"z": 0.1216127537,
				"element": "C" 
			},
			{
				"x": -0.1035575968,
				"y": 1.0988716582,
				"z": 0.7258164717,
				"element": "O" 
			},
			{
				"x": -0.9710255752,
				"y": -0.0084642192,
				"z": -1.2295123766,
				"element": "C" 
			},
			{
				"x": 0.0747906214,
				"y": -0.596784654,
				"z": -1.8617850392,
				"element": "C" 
			},
			{
				"x": 1.455882211,
				"y": -0.9356338338,
				"z": -1.5179592565,
				"element": "C" 
			},
			{
				"x": 2.139929831,
				"y": -1.7757774168,
				"z": -2.4328628467,
				"element": "C" 
			},
			{
				"x": 3.4408080051,
				"y": -2.1719338499,
				"z": -2.1821809951,
				"element": "C" 
			},
			{
				"x": 4.0876154266,
				"y": -1.7252401292,
				"z": -1.0255326776,
				"element": "C" 
			},
			{
				"x": 5.3653003399,
				"y": -2.1806892295,
				"z": -0.9091481774,
				"element": "O" 
			},
			{
				"x": 5.5771058518,
				"y": -3.1690014432,
				"z": -1.9517852919,
				"element": "C" 
			},
			{
				"x": 4.4248873656,
				"y": -3.0047666519,
				"z": -2.9742281977,
				"element": "C" 
			},
			{
				"x": 3.4616662007,
				"y": -0.8819041685,
				"z": -0.1113934572,
				"element": "C" 
			},
			{
				"x": 2.1481467241,
				"y": -0.4924578218,
				"z": -0.3680648091,
				"element": "C" 
			},
			{
				"x": -5.4808206674,
				"y": 4.0441976104,
				"z": 2.6348055939,
				"element": "H" 
			},
			{
				"x": -3.8711201177,
				"y": 2.301805486,
				"z": 4.1536069807,
				"element": "H" 
			},
			{
				"x": -3.2584735629,
				"y": 3.6783207219,
				"z": 3.2265306526,
				"element": "H" 
			},
			{
				"x": -4.0165790139,
				"y": 2.6365382236,
				"z": 1.1222196033,
				"element": "H" 
			},
			{
				"x": -5.3042081913,
				"y": 0.6507633138,
				"z": 2.9937847691,
				"element": "H" 
			},
			{
				"x": -5.8794890806,
				"y": 1.2790761161,
				"z": 1.4677211458,
				"element": "H" 
			},
			{
				"x": -5.3191268469,
				"y": -0.9568089397,
				"z": 0.8617327416,
				"element": "H" 
			},
			{
				"x": -3.980388501,
				"y": -1.0365847643,
				"z": 1.9945971265,
				"element": "H" 
			},
			{
				"x": -3.9970195662,
				"y": 0.5206507272,
				"z": -0.6373062806,
				"element": "H" 
			},
			{
				"x": -3.1598889679,
				"y": -1.0027971762,
				"z": -0.3204980133,
				"element": "H" 
			},
			{
				"x": -2.3125052459,
				"y": 0.7345267,
				"z": 2.7956113747,
				"element": "H" 
			},
			{
				"x": -1.7191462122,
				"y": 2.1577540947,
				"z": 1.9549089039,
				"element": "H" 
			},
			{
				"x": -1.8864406067,
				"y": 0.0375454824,
				"z": -1.8128400907,
				"element": "H" 
			},
			{
				"x": -0.1792088381,
				"y": -0.9404642724,
				"z": -2.8656472829,
				"element": "H" 
			},
			{
				"x": 1.6287225777,
				"y": -2.1136712705,
				"z": -3.3316695012,
				"element": "H" 
			},
			{
				"x": 6.5696599169,
				"y": -2.9959972734,
				"z": -2.3733415918,
				"element": "H" 
			},
			{
				"x": 5.5610354168,
				"y": -4.1592588792,
				"z": -1.4814462198,
				"element": "H" 
			},
			{
				"x": 4.0244445467,
				"y": -3.9728257402,
				"z": -3.2909817822,
				"element": "H" 
			},
			{
				"x": 4.7577142,
				"y": -2.4767541598,
				"z": -3.8765425645,
				"element": "H" 
			},
			{
				"x": 3.9879176225,
				"y": -0.5367661954,
				"z": 0.7720797175,
				"element": "H" 
			},
			{
				"x": 1.6371638723,
				"y": 0.1771286274,
				"z": 0.312544646,
				"element": "H" 
			}
		],
		 "valence_orbital": [ 
			{
				"type": "occ",
				"energy": -0.26681,
				"method": "rhf"
			},
			{
				"type": "occ",
				"energy": -0.24345,
				"method": "rhf"
			},
			{
				"type": "occ",
				"energy": -0.23788,
				"method": "rhf"
			},
			{
				"type": "occ",
				"energy": -0.22612,
				"method": "rhf"
			},
			{
				"type": "occ",
				"energy": -0.19922,
				"method": "rhf"
			},
			{
				"type": "unocc",
				"energy": -0.0427,
				"method": "rhf"
			},
			{
				"type": "unocc",
				"energy": 0.00156,
				"method": "rhf"
			},
			{
				"type": "unocc",
				"energy": 0.03889,
				"method": "rhf"
			},
			{
				"type": "unocc",
				"energy": 0.06641,
				"method": "rhf"
			},
			{
				"type": "unocc",
				"energy": 0.0794,
				"method": "rhf"
			}
		],
		"cosmo_sigma_profile": { 
			"-0.025": 0.0,
			"-0.024": 0.0,
			"-0.023": 0.0,
			"-0.022": 0.0,
			"-0.021": 0.0,
			"-0.02": 0.0,
			"-0.019": 0.0,
			"-0.018": 0.0,
			"-0.017": 0.0,
			"-0.016": 0.103749305198,
			"-0.015": 1.01058889618,
			"-0.014": 0.854301316554,
			"-0.013": 1.1184023356,
			"-0.012": 0.801629105353,
			"-0.011": 0.682652681391,
			"-0.01": 0.731889300338,
			"-0.009": 1.01934858778,
			"-0.008": 1.00191144068,
			"-0.007": 2.45506634579,
			"-0.006": 10.7383064608,
			"-0.005": 23.218764432,
			"-0.004": 38.382707801,
			"-0.003": 46.6566611466,
			"-0.002": 39.9336084263,
			"-0.001": 22.929468079,
			"0.0": 19.7848788279,
			"0.001": 15.4284359677,
			"0.002": 14.6251533528,
			"0.003": 17.0902112291,
			"0.004": 18.3875220069,
			"0.005": 17.8932055797,
			"0.006": 7.40835751375,
			"0.007": 3.8623010932,
			"0.008": 4.48047323989,
			"0.009": 5.73709040973,
			"0.01": 3.66330035737,
			"0.011": 4.41690743683,
			"0.012": 3.53215342108,
			"0.013": 3.83645662276,
			"0.014": 4.83363602069,
			"0.015": 1.05340063791,
			"0.016": 0.0,
			"0.017": 0.0,
			"0.018": 0.0,
			"0.019": 0.0,
			"0.02": 0.0,
			"0.021": 0.0,
			"0.022": 0.0,
			"0.023": 0.0,
			"0.024": 0.0,
			"0.025": 0.0
		}
	}
}
