{
	 "smiles": "BrC1=CC2=C(OC(C=O)=C2)C=C1", 
	 "Tm": 403.15, 
	 "num_atms": 17, 
	 "gaussian": { 
		 "optdone": 1, 
		 "sigma_profile": "yes", 
		 "theory": "DFT", 
		 "functional": "B3LYP", 
		 "basiset": "6-31G**", 
		 "properties": { 
			 "R2extent": 4351.8496, 
			 "electric_dipole_moment_norm": 2.04787242767, 
			 "electric_quadrupole_moment_norm": 12.2229298857, 
			 "total_energy": -3067.79854565, 
			 "HOMO_LUMO_gap": 0.16242, 
			 "cosmo_polarized_energy": -7.88, 
			 "cosmo_cavitation_energy": 24.89, 
			 "cosmo_dispersion_energy": -18.79, 
			 "cosmo_repulsion_energy": 1.48, 
			 "cosmo_total_nonelectrostatic_energy": 7.59, 
			 "SMD_solvation_energy": 4.55 
		},
		"coords": [
			{
				"x": 2.6955860045,
				"y": 3.1089158058,
				"z": -1.7627021907,
				"element": "Br" 
			},
			{
				"x": 1.3676245779,
				"y": 2.02117204,
				"z": -0.919832664,
				"element": "C" 
			},
			{
				"x": 1.346367766,
				"y": 0.6591483173,
				"z": -1.1777560187,
				"element": "C" 
			},
			{
				"x": 0.3541915582,
				"y": -0.105454088,
				"z": -0.5381845986,
				"element": "C" 
			},
			{
				"x": -0.5622071385,
				"y": 0.5339737983,
				"z": 0.3241584648,
				"element": "C" 
			},
			{
				"x": -1.4391076181,
				"y": -0.3686048747,
				"z": 0.8437009417,
				"element": "O" 
			},
			{
				"x": -1.086004199,
				"y": -1.5945229623,
				"z": 0.3137087828,
				"element": "C" 
			},
			{
				"x": -1.8874497085,
				"y": -2.7472984285,
				"z": 0.7223475045,
				"element": "C" 
			},
			{
				"x": -1.6761384118,
				"y": -3.8787536197,
				"z": 0.3249096232,
				"element": "O" 
			},
			{
				"x": -0.0115495532,
				"y": -1.4909401537,
				"z": -0.5251308919,
				"element": "C" 
			},
			{
				"x": -0.5419548602,
				"y": 1.9010219439,
				"z": 0.5838641656,
				"element": "C" 
			},
			{
				"x": 0.4444908837,
				"y": 2.6446287578,
				"z": -0.0553597222,
				"element": "C" 
			},
			{
				"x": 2.0681956557,
				"y": 0.2058419691,
				"z": -1.8468102226,
				"element": "H" 
			},
			{
				"x": -2.7091163508,
				"y": -2.5082691173,
				"z": 1.4280744379,
				"element": "H" 
			},
			{
				"x": 0.4447952228,
				"y": -2.3134033021,
				"z": -1.0562858846,
				"element": "H" 
			},
			{
				"x": -1.2603238254,
				"y": 2.362655954,
				"z": 1.2518577634,
				"element": "H" 
			},
			{
				"x": 0.5100999967,
				"y": 3.7137879602,
				"z": 0.1079405094,
				"element": "H" 
			}
		],
		 "valence_orbital": [ 
			{
				"type": "occ",
				"energy": -0.31324,
				"method": "rhf"
			},
			{
				"type": "occ",
				"energy": -0.29546,
				"method": "rhf"
			},
			{
				"type": "occ",
				"energy": -0.26969,
				"method": "rhf"
			},
			{
				"type": "occ",
				"energy": -0.24926,
				"method": "rhf"
			},
			{
				"type": "occ",
				"energy": -0.24752,
				"method": "rhf"
			},
			{
				"type": "unocc",
				"energy": -0.0851,
				"method": "rhf"
			},
			{
				"type": "unocc",
				"energy": -0.01897,
				"method": "rhf"
			},
			{
				"type": "unocc",
				"energy": -0.00633,
				"method": "rhf"
			},
			{
				"type": "unocc",
				"energy": -0.0026,
				"method": "rhf"
			},
			{
				"type": "unocc",
				"energy": 0.07509,
				"method": "rhf"
			}
		],
		"cosmo_sigma_profile": { 
			"-0.025": 0.0,
			"-0.024": 0.0,
			"-0.023": 0.0,
			"-0.022": 0.0,
			"-0.021": 0.0,
			"-0.02": 0.0,
			"-0.019": 0.0,
			"-0.018": 0.0,
			"-0.017": 0.0,
			"-0.016": 0.0,
			"-0.015": 0.0,
			"-0.014": 0.0,
			"-0.013": 0.0,
			"-0.012": 0.0,
			"-0.011": 0.0,
			"-0.01": 0.0966802122654,
			"-0.009": 1.36744918861,
			"-0.008": 6.79179479616,
			"-0.007": 11.1391687582,
			"-0.006": 10.7310685399,
			"-0.005": 8.73182014273,
			"-0.004": 10.5021619937,
			"-0.003": 11.3095683252,
			"-0.002": 11.2712829218,
			"-0.001": 16.0500873226,
			"0.0": 20.3819800473,
			"0.001": 24.0492624312,
			"0.002": 21.6777287219,
			"0.003": 11.1801964335,
			"0.004": 13.0548345483,
			"0.005": 6.86789293276,
			"0.006": 3.51343058726,
			"0.007": 2.45237694202,
			"0.008": 1.50255895492,
			"0.009": 2.25590887273,
			"0.01": 2.95215519497,
			"0.011": 4.81389442414,
			"0.012": 1.85949607724,
			"0.013": 0.239703110535,
			"0.014": 0.0,
			"0.015": 0.0,
			"0.016": 0.0,
			"0.017": 0.0,
			"0.018": 0.0,
			"0.019": 0.0,
			"0.02": 0.0,
			"0.021": 0.0,
			"0.022": 0.0,
			"0.023": 0.0,
			"0.024": 0.0,
			"0.025": 0.0
		}
	}
}
