{
	 "smiles": "NC(CN1CCCC1)=NO", 
	 "Tm": 416.15, 
	 "num_atms": 23, 
	 "gaussian": { 
		 "optdone": 1, 
		 "sigma_profile": "yes", 
		 "theory": "DFT", 
		 "functional": "B3LYP", 
		 "basiset": "6-31G**", 
		 "properties": { 
			 "R2extent": 2158.483, 
			 "electric_dipole_moment_norm": 1.9399143976, 
			 "electric_quadrupole_moment_norm": 6.36276105791, 
			 "total_energy": -475.874176002, 
			 "HOMO_LUMO_gap": 0.23222, 
			 "cosmo_polarized_energy": -14.48, 
			 "cosmo_cavitation_energy": 24.76, 
			 "cosmo_dispersion_energy": -18.17, 
			 "cosmo_repulsion_energy": 1.51, 
			 "cosmo_total_nonelectrostatic_energy": 8.09, 
			 "SMD_solvation_energy": 1.27 
		},
		"coords": [
			{
				"x": 0.6634733726,
				"y": 2.8623811156,
				"z": 2.3275908406,
				"element": "N" 
			},
			{
				"x": 1.5313614354,
				"y": 2.0556690981,
				"z": 1.5893895755,
				"element": "C" 
			},
			{
				"x": 1.0762152281,
				"y": 0.6371839674,
				"z": 1.3092208473,
				"element": "C" 
			},
			{
				"x": 0.7203839752,
				"y": 0.4336231808,
				"z": -0.1020024702,
				"element": "N" 
			},
			{
				"x": 0.5427766054,
				"y": -0.9844141972,
				"z": -0.4457470104,
				"element": "C" 
			},
			{
				"x": -0.9193442419,
				"y": -1.3635268628,
				"z": -0.0725197785,
				"element": "C" 
			},
			{
				"x": -1.6735005172,
				"y": -0.0052420186,
				"z": -0.0959222017,
				"element": "C" 
			},
			{
				"x": -0.5714589228,
				"y": 1.024908189,
				"z": -0.4790910896,
				"element": "C" 
			},
			{
				"x": 2.6806173696,
				"y": 2.5467302123,
				"z": 1.2875264286,
				"element": "N" 
			},
			{
				"x": 3.5205428644,
				"y": 1.5692597766,
				"z": 0.6977348942,
				"element": "O" 
			},
			{
				"x": -0.3142630096,
				"y": 2.7757310352,
				"z": 2.0814631513,
				"element": "H" 
			},
			{
				"x": 0.9674570682,
				"y": 3.8283449317,
				"z": 2.3718219307,
				"element": "H" 
			},
			{
				"x": 1.9220020779,
				"y": -0.0192636963,
				"z": 1.5306045355,
				"element": "H" 
			},
			{
				"x": 0.265541795,
				"y": 0.3882353561,
				"z": 2.0177968715,
				"element": "H" 
			},
			{
				"x": 1.2975924764,
				"y": -1.6013510604,
				"z": 0.0487574566,
				"element": "H" 
			},
			{
				"x": 0.6885261502,
				"y": -1.0916945819,
				"z": -1.5282481014,
				"element": "H" 
			},
			{
				"x": -0.9641559856,
				"y": -1.8172055066,
				"z": 0.9224968187,
				"element": "H" 
			},
			{
				"x": -1.3405637588,
				"y": -2.0896263902,
				"z": -0.7741584624,
				"element": "H" 
			},
			{
				"x": -2.4998998192,
				"y": 0.0061635561,
				"z": -0.8127163422,
				"element": "H" 
			},
			{
				"x": -2.1022152572,
				"y": 0.2194117248,
				"z": 0.8861197087,
				"element": "H" 
			},
			{
				"x": -0.7041650619,
				"y": 2.0089769356,
				"z": -0.0207034683,
				"element": "H" 
			},
			{
				"x": -0.5702901437,
				"y": 1.1802686677,
				"z": -1.5652499745,
				"element": "H" 
			},
			{
				"x": 4.3339662996,
				"y": 2.0719365669,
				"z": 0.56743584,
				"element": "H" 
			}
		],
		 "valence_orbital": [ 
			{
				"type": "occ",
				"energy": -0.31974,
				"method": "rhf"
			},
			{
				"type": "occ",
				"energy": -0.31065,
				"method": "rhf"
			},
			{
				"type": "occ",
				"energy": -0.25903,
				"method": "rhf"
			},
			{
				"type": "occ",
				"energy": -0.209,
				"method": "rhf"
			},
			{
				"type": "occ",
				"energy": -0.20188,
				"method": "rhf"
			},
			{
				"type": "unocc",
				"energy": 0.03034,
				"method": "rhf"
			},
			{
				"type": "unocc",
				"energy": 0.05757,
				"method": "rhf"
			},
			{
				"type": "unocc",
				"energy": 0.0834,
				"method": "rhf"
			},
			{
				"type": "unocc",
				"energy": 0.10075,
				"method": "rhf"
			},
			{
				"type": "unocc",
				"energy": 0.11282,
				"method": "rhf"
			}
		],
		"cosmo_sigma_profile": { 
			"-0.025": 0.0,
			"-0.024": 0.0,
			"-0.023": 0.0,
			"-0.022": 0.0,
			"-0.021": 0.0,
			"-0.02": 0.0,
			"-0.019": 0.0,
			"-0.018": 0.0,
			"-0.017": 0.0889758260358,
			"-0.016": 0.780340659064,
			"-0.015": 1.06210988735,
			"-0.014": 0.652444566217,
			"-0.013": 0.75305972567,
			"-0.012": 3.15951676845,
			"-0.011": 3.17001532201,
			"-0.01": 3.36902890797,
			"-0.009": 3.55454480148,
			"-0.008": 2.56200605985,
			"-0.007": 2.68456907516,
			"-0.006": 4.30328282564,
			"-0.005": 5.05534130301,
			"-0.004": 7.72033799693,
			"-0.003": 20.7652132724,
			"-0.002": 26.7532278475,
			"-0.001": 22.994232184,
			"0.0": 17.3529591019,
			"0.001": 10.6276836406,
			"0.002": 6.62978558024,
			"0.003": 4.26535994281,
			"0.004": 3.1057863407,
			"0.005": 3.4340804944,
			"0.006": 2.88457127033,
			"0.007": 3.27198244532,
			"0.008": 6.03689180375,
			"0.009": 5.1902462155,
			"0.01": 4.44199216624,
			"0.011": 3.74084353835,
			"0.012": 2.36132957254,
			"0.013": 2.75268892117,
			"0.014": 2.29114244485,
			"0.015": 1.01831804412,
			"0.016": 0.868427797317,
			"0.017": 0.911373585788,
			"0.018": 0.92212068189,
			"0.019": 0.090403951597,
			"0.02": 0.0,
			"0.021": 0.0,
			"0.022": 0.0,
			"0.023": 0.0,
			"0.024": 0.0,
			"0.025": 0.0
		}
	}
}
