{
	 "smiles": "ClC(Cl)(Cl)C(=O)C1=CC=C(C=C1)C(=O)C(Cl)(Cl)Cl", 
	 "Tm": 394.15, 
	 "num_atms": 22, 
	 "gaussian": { 
		 "optdone": 1, 
		 "sigma_profile": "yes", 
		 "theory": "DFT", 
		 "functional": "B3LYP", 
		 "basiset": "6-31G**", 
		 "properties": { 
			 "R2extent": 10773.0172, 
			 "electric_dipole_moment_norm": 1.20402997471, 
			 "electric_quadrupole_moment_norm": 14.0788436443, 
			 "total_energy": -3295.01526241, 
			 "HOMO_LUMO_gap": 0.16852, 
			 "cosmo_polarized_energy": -7.56, 
			 "cosmo_cavitation_energy": 37.43, 
			 "cosmo_dispersion_energy": -27.21, 
			 "cosmo_repulsion_energy": 2.1, 
			 "cosmo_total_nonelectrostatic_energy": 12.32, 
			 "SMD_solvation_energy": 5.5 
		},
		"coords": [
			{
				"x": 5.7561009887,
				"y": 1.3560971729,
				"z": 0.4367044394,
				"element": "Cl" 
			},
			{
				"x": 4.2255294718,
				"y": 0.7743572687,
				"z": -0.2582959716,
				"element": "C" 
			},
			{
				"x": 3.9153239931,
				"y": 1.6528214553,
				"z": -1.8054367323,
				"element": "Cl" 
			},
			{
				"x": 4.3565033198,
				"y": -1.0022101919,
				"z": -0.5555413412,
				"element": "Cl" 
			},
			{
				"x": 3.0328134272,
				"y": 1.0457169125,
				"z": 0.7410911778,
				"element": "C" 
			},
			{
				"x": 3.293247506,
				"y": 1.5806864845,
				"z": 1.7938558531,
				"element": "O" 
			},
			{
				"x": 1.6256203945,
				"y": 0.6527657787,
				"z": 0.3943381554,
				"element": "C" 
			},
			{
				"x": 1.2137457814,
				"y": 0.0263470338,
				"z": -0.7919013258,
				"element": "C" 
			},
			{
				"x": -0.126564507,
				"y": -0.2889955965,
				"z": -0.9984687437,
				"element": "C" 
			},
			{
				"x": -1.0900240799,
				"y": 0.0137681278,
				"z": -0.0241636047,
				"element": "C" 
			},
			{
				"x": -0.6754881888,
				"y": 0.6412575746,
				"z": 1.1647272553,
				"element": "C" 
			},
			{
				"x": 0.6586622343,
				"y": 0.9551900194,
				"z": 1.3703317643,
				"element": "C" 
			},
			{
				"x": -2.5612995473,
				"y": -0.2705164606,
				"z": -0.1209161351,
				"element": "C" 
			},
			{
				"x": -3.3175062953,
				"y": 0.0258438989,
				"z": 0.7749941997,
				"element": "O" 
			},
			{
				"x": -3.1754865271,
				"y": -0.9673986893,
				"z": -1.398439579,
				"element": "C" 
			},
			{
				"x": -2.426277554,
				"y": -2.5979631825,
				"z": -1.6022939141,
				"element": "Cl" 
			},
			{
				"x": -4.9334947521,
				"y": -1.1614991959,
				"z": -1.2089441024,
				"element": "Cl" 
			},
			{
				"x": -2.854028491,
				"y": 0.0614526887,
				"z": -2.8474608343,
				"element": "Cl" 
			},
			{
				"x": 1.9243474274,
				"y": -0.2237522445,
				"z": -1.5671475379,
				"element": "H" 
			},
			{
				"x": -0.4024848862,
				"y": -0.7712294177,
				"z": -1.9257414365,
				"element": "H" 
			},
			{
				"x": -1.4201239737,
				"y": 0.8745446573,
				"z": 1.9167463018,
				"element": "H" 
			},
			{
				"x": 0.9775842582,
				"y": 1.4387159059,
				"z": 2.286262112,
				"element": "H" 
			}
		],
		 "valence_orbital": [ 
			{
				"type": "occ",
				"energy": -0.32201,
				"method": "rhf"
			},
			{
				"type": "occ",
				"energy": -0.29816,
				"method": "rhf"
			},
			{
				"type": "occ",
				"energy": -0.29733,
				"method": "rhf"
			},
			{
				"type": "occ",
				"energy": -0.29412,
				"method": "rhf"
			},
			{
				"type": "occ",
				"energy": -0.28921,
				"method": "rhf"
			},
			{
				"type": "unocc",
				"energy": -0.12069,
				"method": "rhf"
			},
			{
				"type": "unocc",
				"energy": -0.07371,
				"method": "rhf"
			},
			{
				"type": "unocc",
				"energy": -0.05696,
				"method": "rhf"
			},
			{
				"type": "unocc",
				"energy": -0.05657,
				"method": "rhf"
			},
			{
				"type": "unocc",
				"energy": -0.03782,
				"method": "rhf"
			}
		],
		"cosmo_sigma_profile": { 
			"-0.025": 0.0,
			"-0.024": 0.0,
			"-0.023": 0.0,
			"-0.022": 0.0,
			"-0.021": 0.0,
			"-0.02": 0.0,
			"-0.019": 0.0,
			"-0.018": 0.0,
			"-0.017": 0.0,
			"-0.016": 0.0,
			"-0.015": 0.0,
			"-0.014": 0.0,
			"-0.013": 0.0,
			"-0.012": 0.0,
			"-0.011": 0.0,
			"-0.01": 0.0,
			"-0.009": 0.0,
			"-0.008": 1.98201015377,
			"-0.007": 5.92549456329,
			"-0.006": 6.07555811018,
			"-0.005": 15.5566773894,
			"-0.004": 19.6660698745,
			"-0.003": 22.495313325,
			"-0.002": 24.6710449681,
			"-0.001": 34.7231115792,
			"0.0": 46.2764606943,
			"0.001": 41.3381429704,
			"0.002": 45.1999374715,
			"0.003": 19.6796076322,
			"0.004": 4.10853165647,
			"0.005": 5.15003710859,
			"0.006": 3.57744962677,
			"0.007": 4.67899603734,
			"0.008": 6.72058613548,
			"0.009": 5.69888565009,
			"0.01": 1.08162898539,
			"0.011": 0.0,
			"0.012": 0.0,
			"0.013": 0.0,
			"0.014": 0.0,
			"0.015": 0.0,
			"0.016": 0.0,
			"0.017": 0.0,
			"0.018": 0.0,
			"0.019": 0.0,
			"0.02": 0.0,
			"0.021": 0.0,
			"0.022": 0.0,
			"0.023": 0.0,
			"0.024": 0.0,
			"0.025": 0.0
		}
	}
}
