{
	 "smiles": "CCOC(=O)C1=NC=C(OC)C=C1", 
	 "Tm": 312.15, 
	 "num_atms": 24, 
	 "gaussian": { 
		 "optdone": 1, 
		 "sigma_profile": "yes", 
		 "theory": "DFT", 
		 "functional": "B3LYP", 
		 "basiset": "6-31G**", 
		 "properties": { 
			 "R2extent": 4031.9513, 
			 "electric_dipole_moment_norm": 2.89125911153, 
			 "electric_quadrupole_moment_norm": 14.5645994202, 
			 "total_energy": -630.006854618, 
			 "HOMO_LUMO_gap": 0.19554, 
			 "cosmo_polarized_energy": -11.93, 
			 "cosmo_cavitation_energy": 28.53, 
			 "cosmo_dispersion_energy": -20.97, 
			 "cosmo_repulsion_energy": 1.68, 
			 "cosmo_total_nonelectrostatic_energy": 9.23, 
			 "SMD_solvation_energy": 5.73 
		},
		"coords": [
			{
				"x": -1.7303642688,
				"y": 0.6522724598,
				"z": 3.5754381329,
				"element": "C" 
			},
			{
				"x": -0.8962053867,
				"y": 1.3483197181,
				"z": 2.5098528328,
				"element": "C" 
			},
			{
				"x": -0.5253894785,
				"y": 0.4342740067,
				"z": 1.4526720701,
				"element": "O" 
			},
			{
				"x": -1.4225427289,
				"y": 0.2709486327,
				"z": 0.4662678532,
				"element": "C" 
			},
			{
				"x": -2.4988506661,
				"y": 0.8411124245,
				"z": 0.415931838,
				"element": "O" 
			},
			{
				"x": -0.9661838814,
				"y": -0.6903731302,
				"z": -0.5887330707,
				"element": "C" 
			},
			{
				"x": 0.2253108201,
				"y": -1.285001702,
				"z": -0.4631033537,
				"element": "N" 
			},
			{
				"x": 0.6135458543,
				"y": -2.1378895125,
				"z": -1.412656448,
				"element": "C" 
			},
			{
				"x": -0.1731470494,
				"y": -2.4388665703,
				"z": -2.5385718645,
				"element": "C" 
			},
			{
				"x": 0.1781822012,
				"y": -3.2969009851,
				"z": -3.5281104007,
				"element": "O" 
			},
			{
				"x": 1.437672715,
				"y": -3.9548894974,
				"z": -3.4398278508,
				"element": "C" 
			},
			{
				"x": -1.4208400162,
				"y": -1.8118232798,
				"z": -2.6627497527,
				"element": "C" 
			},
			{
				"x": -1.8221520751,
				"y": -0.9274013744,
				"z": -1.6756409431,
				"element": "C" 
			},
			{
				"x": -2.6884702935,
				"y": 0.3287260682,
				"z": 3.1615061663,
				"element": "H" 
			},
			{
				"x": -1.928848434,
				"y": 1.3429051706,
				"z": 4.4020176524,
				"element": "H" 
			},
			{
				"x": -1.2029696099,
				"y": -0.219382429,
				"z": 3.9737794567,
				"element": "H" 
			},
			{
				"x": 0.05824684,
				"y": 1.6951954811,
				"z": 2.9130074351,
				"element": "H" 
			},
			{
				"x": -1.4376907555,
				"y": 2.1928656803,
				"z": 2.0765720933,
				"element": "H" 
			},
			{
				"x": 1.5872526906,
				"y": -2.5979812327,
				"z": -1.2705111914,
				"element": "H" 
			},
			{
				"x": 1.5078437338,
				"y": -4.5847543414,
				"z": -4.3272878747,
				"element": "H" 
			},
			{
				"x": 2.2666582581,
				"y": -3.2368723756,
				"z": -3.4379060411,
				"element": "H" 
			},
			{
				"x": 1.500670277,
				"y": -4.5830733762,
				"z": -2.5430541649,
				"element": "H" 
			},
			{
				"x": -2.0402260863,
				"y": -2.0336431618,
				"z": -3.5257422706,
				"element": "H" 
			},
			{
				"x": -2.7759026596,
				"y": -0.4145666736,
				"z": -1.7193503041,
				"element": "H" 
			}
		],
		 "valence_orbital": [ 
			{
				"type": "occ",
				"energy": -0.2916,
				"method": "rhf"
			},
			{
				"type": "occ",
				"energy": -0.28275,
				"method": "rhf"
			},
			{
				"type": "occ",
				"energy": -0.27652,
				"method": "rhf"
			},
			{
				"type": "occ",
				"energy": -0.25092,
				"method": "rhf"
			},
			{
				"type": "occ",
				"energy": -0.23988,
				"method": "rhf"
			},
			{
				"type": "unocc",
				"energy": -0.04434,
				"method": "rhf"
			},
			{
				"type": "unocc",
				"energy": -0.02219,
				"method": "rhf"
			},
			{
				"type": "unocc",
				"energy": 0.06388,
				"method": "rhf"
			},
			{
				"type": "unocc",
				"energy": 0.09197,
				"method": "rhf"
			},
			{
				"type": "unocc",
				"energy": 0.09703,
				"method": "rhf"
			}
		],
		"cosmo_sigma_profile": { 
			"-0.025": 0.0,
			"-0.024": 0.0,
			"-0.023": 0.0,
			"-0.022": 0.0,
			"-0.021": 0.0,
			"-0.02": 0.0,
			"-0.019": 0.0,
			"-0.018": 0.0,
			"-0.017": 0.0,
			"-0.016": 0.0,
			"-0.015": 0.0,
			"-0.014": 0.0,
			"-0.013": 0.0,
			"-0.012": 0.0,
			"-0.011": 0.0,
			"-0.01": 0.0,
			"-0.009": 0.0,
			"-0.008": 1.46341757202,
			"-0.007": 7.36496710374,
			"-0.006": 14.9972848338,
			"-0.005": 17.0067205196,
			"-0.004": 20.719303234,
			"-0.003": 22.0317149955,
			"-0.002": 19.5520052542,
			"-0.001": 17.5198723009,
			"0.0": 24.6762535922,
			"0.001": 18.7251633746,
			"0.002": 11.2225681443,
			"0.003": 6.17878606816,
			"0.004": 6.37422385265,
			"0.005": 5.37740335611,
			"0.006": 3.24388158577,
			"0.007": 5.15769831744,
			"0.008": 4.45493438304,
			"0.009": 3.510013023,
			"0.01": 2.91382970169,
			"0.011": 4.67633531507,
			"0.012": 4.41694996253,
			"0.013": 1.0267001067,
			"0.014": 1.18099035768,
			"0.015": 1.24064612636,
			"0.016": 0.858466667539,
			"0.017": 0.730708664036,
			"0.018": 0.0628615542731,
			"0.019": 0.0,
			"0.02": 0.0,
			"0.021": 0.0,
			"0.022": 0.0,
			"0.023": 0.0,
			"0.024": 0.0,
			"0.025": 0.0
		}
	}
}
