{
	 "smiles": "CCCCOC(=O)C(C)OC1=CC=C(OC2=NC=C(C=C2)C(F)(F)F)C=C1", 
	 "Tm": 286.15, 
	 "num_atms": 47, 
	 "gaussian": { 
		 "optdone": 1, 
		 "sigma_profile": "yes", 
		 "theory": "DFT", 
		 "functional": "B3LYP", 
		 "basiset": "6-31G**", 
		 "properties": { 
			 "R2extent": 15662.5993, 
			 "electric_dipole_moment_norm": 1.69068084806, 
			 "electric_quadrupole_moment_norm": 14.2981236059, 
			 "total_energy": -1391.25259553, 
			 "HOMO_LUMO_gap": 0.17797, 
			 "cosmo_polarized_energy": -13.39, 
			 "cosmo_cavitation_energy": 53.06, 
			 "cosmo_dispersion_energy": -33.69, 
			 "cosmo_repulsion_energy": 2.49, 
			 "cosmo_total_nonelectrostatic_energy": 21.87, 
			 "SMD_solvation_energy": 10.37 
		},
		"coords": [
			{
				"x": 2.46320733,
				"y": -0.2879680672,
				"z": -1.0655088416,
				"element": "C" 
			},
			{
				"x": 2.79751434,
				"y": -1.2056835595,
				"z": 0.1157153819,
				"element": "C" 
			},
			{
				"x": 2.5073010929,
				"y": -2.695556296,
				"z": -0.1336663494,
				"element": "C" 
			},
			{
				"x": 1.0377912719,
				"y": -3.0331196695,
				"z": -0.3391848094,
				"element": "C" 
			},
			{
				"x": 0.3268473587,
				"y": -2.6698499177,
				"z": 0.8725482831,
				"element": "O" 
			},
			{
				"x": -1.0091227107,
				"y": -2.7472266909,
				"z": 0.8264540506,
				"element": "C" 
			},
			{
				"x": -1.6469876762,
				"y": -3.1407774691,
				"z": -0.1280107103,
				"element": "O" 
			},
			{
				"x": -1.6378042451,
				"y": -2.330825884,
				"z": 2.168441555,
				"element": "C" 
			},
			{
				"x": -3.1540338322,
				"y": -2.1711861288,
				"z": 2.0912248199,
				"element": "C" 
			},
			{
				"x": -0.9748567191,
				"y": -1.2251574848,
				"z": 2.7827541891,
				"element": "O" 
			},
			{
				"x": -0.8769257619,
				"y": -0.0072623272,
				"z": 2.1624226714,
				"element": "C" 
			},
			{
				"x": -1.3068380662,
				"y": 0.2902383111,
				"z": 0.8615591386,
				"element": "C" 
			},
			{
				"x": -1.1375634901,
				"y": 1.5792010713,
				"z": 0.3502241936,
				"element": "C" 
			},
			{
				"x": -0.53620825,
				"y": 2.5623537896,
				"z": 1.1276164698,
				"element": "C" 
			},
			{
				"x": -0.44950319,
				"y": 3.8885120577,
				"z": 0.6931970864,
				"element": "O" 
			},
			{
				"x": 0.3200553342,
				"y": 4.2288723223,
				"z": -0.3718382124,
				"element": "C" 
			},
			{
				"x": 1.0848563978,
				"y": 3.3209595787,
				"z": -0.9633310669,
				"element": "N" 
			},
			{
				"x": 1.8276473456,
				"y": 3.7202522893,
				"z": -2.0053164204,
				"element": "C" 
			},
			{
				"x": 1.8368312102,
				"y": 5.0257968917,
				"z": -2.4855436791,
				"element": "C" 
			},
			{
				"x": 1.0241567033,
				"y": 5.9736697227,
				"z": -1.8426201216,
				"element": "C" 
			},
			{
				"x": 0.2500538629,
				"y": 5.5783833451,
				"z": -0.768637309,
				"element": "C" 
			},
			{
				"x": 2.6531705425,
				"y": 5.4150439596,
				"z": -3.6808816619,
				"element": "C" 
			},
			{
				"x": 3.2632894505,
				"y": 6.6090291042,
				"z": -3.4958493997,
				"element": "F" 
			},
			{
				"x": 1.889609271,
				"y": 5.5421596545,
				"z": -4.792131669,
				"element": "F" 
			},
			{
				"x": 3.6107269091,
				"y": 4.5048256754,
				"z": -3.9593253532,
				"element": "F" 
			},
			{
				"x": -0.1045451377,
				"y": 2.275909627,
				"z": 2.4211481275,
				"element": "C" 
			},
			{
				"x": -0.2768420554,
				"y": 0.9960500294,
				"z": 2.9365720152,
				"element": "C" 
			},
			{
				"x": 1.3987593298,
				"y": -0.3188046621,
				"z": -1.3186238104,
				"element": "H" 
			},
			{
				"x": 2.6934722433,
				"y": 0.7537567376,
				"z": -0.8239600428,
				"element": "H" 
			},
			{
				"x": 3.0314701075,
				"y": -0.5676003605,
				"z": -1.960982332,
				"element": "H" 
			},
			{
				"x": 2.2414380251,
				"y": -0.8794060293,
				"z": 1.0014208758,
				"element": "H" 
			},
			{
				"x": 3.8611069724,
				"y": -1.102615929,
				"z": 0.3637243489,
				"element": "H" 
			},
			{
				"x": 3.0466607034,
				"y": -3.0383730275,
				"z": -1.0272614244,
				"element": "H" 
			},
			{
				"x": 2.8861788287,
				"y": -3.2896034167,
				"z": 0.7068508335,
				"element": "H" 
			},
			{
				"x": 0.5935743946,
				"y": -2.4904069394,
				"z": -1.1779960295,
				"element": "H" 
			},
			{
				"x": 0.8889840183,
				"y": -4.102415792,
				"z": -0.5213209894,
				"element": "H" 
			},
			{
				"x": -1.4107604207,
				"y": -3.1554075483,
				"z": 2.8557145031,
				"element": "H" 
			},
			{
				"x": -3.5469663687,
				"y": -1.9839999592,
				"z": 3.0936229542,
				"element": "H" 
			},
			{
				"x": -3.5996834085,
				"y": -3.0871069469,
				"z": 1.6974535633,
				"element": "H" 
			},
			{
				"x": -3.451908481,
				"y": -1.346626803,
				"z": 1.4415231021,
				"element": "H" 
			},
			{
				"x": -1.77551141,
				"y": -0.4582940784,
				"z": 0.2350987849,
				"element": "H" 
			},
			{
				"x": -1.475406055,
				"y": 1.8122530796,
				"z": -0.653352656,
				"element": "H" 
			},
			{
				"x": 2.4488362881,
				"y": 2.9594189792,
				"z": -2.4695462533,
				"element": "H" 
			},
			{
				"x": 1.011316385,
				"y": 7.0040823598,
				"z": -2.1832989688,
				"element": "H" 
			},
			{
				"x": -0.3943919704,
				"y": 6.2647433195,
				"z": -0.2322261992,
				"element": "H" 
			},
			{
				"x": 0.354763541,
				"y": 3.0586127261,
				"z": 3.0157058961,
				"element": "H" 
			},
			{
				"x": 0.0485399909,
				"y": 0.7491503555,
				"z": 3.9414214657,
				"element": "H" 
			}
		],
		 "valence_orbital": [ 
			{
				"type": "occ",
				"energy": -0.28208,
				"method": "rhf"
			},
			{
				"type": "occ",
				"energy": -0.27494,
				"method": "rhf"
			},
			{
				"type": "occ",
				"energy": -0.25842,
				"method": "rhf"
			},
			{
				"type": "occ",
				"energy": -0.25559,
				"method": "rhf"
			},
			{
				"type": "occ",
				"energy": -0.21767,
				"method": "rhf"
			},
			{
				"type": "unocc",
				"energy": -0.0397,
				"method": "rhf"
			},
			{
				"type": "unocc",
				"energy": -0.02748,
				"method": "rhf"
			},
			{
				"type": "unocc",
				"energy": -0.01166,
				"method": "rhf"
			},
			{
				"type": "unocc",
				"energy": -0.00021,
				"method": "rhf"
			},
			{
				"type": "unocc",
				"energy": 0.00947,
				"method": "rhf"
			}
		],
		"cosmo_sigma_profile": { 
			"-0.025": 0.0,
			"-0.024": 0.0,
			"-0.023": 0.0,
			"-0.022": 0.0,
			"-0.021": 0.0,
			"-0.02": 0.0,
			"-0.019": 0.0,
			"-0.018": 0.0,
			"-0.017": 0.0,
			"-0.016": 0.0,
			"-0.015": 0.0,
			"-0.014": 0.0,
			"-0.013": 0.0,
			"-0.012": 0.0,
			"-0.011": 0.0,
			"-0.01": 0.0,
			"-0.009": 1.43147057535,
			"-0.008": 5.87662653479,
			"-0.007": 9.69986788471,
			"-0.006": 14.5951459926,
			"-0.005": 21.4942946586,
			"-0.004": 29.2062038841,
			"-0.003": 33.9845536957,
			"-0.002": 34.3437132863,
			"-0.001": 43.0391670481,
			"0.0": 46.3836750983,
			"0.001": 36.9193368971,
			"0.002": 37.4999711909,
			"0.003": 45.7689922369,
			"0.004": 16.8826416633,
			"0.005": 7.78813647902,
			"0.006": 7.59447674949,
			"0.007": 8.13188531289,
			"0.008": 5.70180501062,
			"0.009": 5.4903569112,
			"0.01": 2.9015975245,
			"0.011": 3.75941208734,
			"0.012": 2.49405477015,
			"0.013": 0.0,
			"0.014": 0.0,
			"0.015": 0.0,
			"0.016": 0.0,
			"0.017": 0.0,
			"0.018": 0.0,
			"0.019": 0.0,
			"0.02": 0.0,
			"0.021": 0.0,
			"0.022": 0.0,
			"0.023": 0.0,
			"0.024": 0.0,
			"0.025": 0.0
		}
	}
}
