{
	 "smiles": "N[C@@H](CC1=CC=C(O)C(I)=C1)C(O)=O", 
	 "Tm": 478.15, 
	 "num_atms": 24, 
	 "gaussian": { 
		 "optdone": 1, 
		 "sigma_profile": "no", 
		 "theory": "DFT", 
		 "functional": "B3LYP", 
		 "basiset": "6-31G**", 
		 "properties": { 
			 "R2extent": 3610.8545, 
			 "electric_dipole_moment_norm": 1.7231113545, 
			 "electric_quadrupole_moment_norm": 9.21643837987, 
			 "total_energy": -640.807082939, 
			 "HOMO_LUMO_gap": 0.18047, 
			 "cosmo_polarized_energy": -92099.04, 
			 "cosmo_cavitation_energy": 31.06, 
			 "cosmo_dispersion_energy": -23.28, 
			 "cosmo_repulsion_energy": 1.82, 
			 "cosmo_total_nonelectrostatic_energy": 9.6, 
			 "SMD_solvation_energy": 4.56 
		},
		"coords": [
			{
				"x": -0.5564339498,
				"y": 1.6624176281,
				"z": -1.715699699,
				"element": "N" 
			},
			{
				"x": -0.3916274934,
				"y": 0.2194495541,
				"z": -1.6440239389,
				"element": "C" 
			},
			{
				"x": 0.7647747749,
				"y": -0.1603288813,
				"z": -0.6800491064,
				"element": "C" 
			},
			{
				"x": 0.5435272173,
				"y": 0.2654547841,
				"z": 0.7562312372,
				"element": "C" 
			},
			{
				"x": -0.0544514484,
				"y": -0.595210616,
				"z": 1.6903071384,
				"element": "C" 
			},
			{
				"x": -0.2711804186,
				"y": -0.1991475122,
				"z": 3.0036631559,
				"element": "C" 
			},
			{
				"x": 0.1038198108,
				"y": 1.0803653568,
				"z": 3.4384328402,
				"element": "C" 
			},
			{
				"x": -0.1349316368,
				"y": 1.3934182174,
				"z": 4.7348597748,
				"element": "O" 
			},
			{
				"x": 0.7027004474,
				"y": 1.9417626248,
				"z": 2.5063180707,
				"element": "C" 
			},
			{
				"x": 1.2965422975,
				"y": 3.8882825863,
				"z": 3.1249826979,
				"element": "I" 
			},
			{
				"x": 0.9210528398,
				"y": 1.5431970144,
				"z": 1.1871245806,
				"element": "C" 
			},
			{
				"x": -1.6901433514,
				"y": -0.5146351524,
				"z": -1.2900118259,
				"element": "C" 
			},
			{
				"x": -1.5305447269,
				"y": -1.8626068587,
				"z": -1.2627697202,
				"element": "O" 
			},
			{
				"x": -2.7560768041,
				"y": 0.0180133359,
				"z": -1.0763719492,
				"element": "O" 
			},
			{
				"x": -0.9438485858,
				"y": 1.9905552154,
				"z": -0.8329215512,
				"element": "H" 
			},
			{
				"x": -1.2629993984,
				"y": 1.885662703,
				"z": -2.4126420824,
				"element": "H" 
			},
			{
				"x": -0.1011919584,
				"y": -0.1450460487,
				"z": -2.6385943631,
				"element": "H" 
			},
			{
				"x": 1.6661029305,
				"y": 0.3173952045,
				"z": -1.0750037664,
				"element": "H" 
			},
			{
				"x": 0.9139519138,
				"y": -1.2425872548,
				"z": -0.7278558515,
				"element": "H" 
			},
			{
				"x": -0.3511757226,
				"y": -1.5934201644,
				"z": 1.3808458505,
				"element": "H" 
			},
			{
				"x": -0.7286976306,
				"y": -0.8657768547,
				"z": 3.727380463,
				"element": "H" 
			},
			{
				"x": 0.1694753994,
				"y": 2.2984681107,
				"z": 4.9093648371,
				"element": "H" 
			},
			{
				"x": 1.3864508172,
				"y": 2.2272884463,
				"z": 0.4858655572,
				"element": "H" 
			},
			{
				"x": -2.4040953233,
				"y": -2.2341714387,
				"z": -1.0519323493,
				"element": "H" 
			}
		],
		 "valence_orbital": [ 
			{
				"type": "occ",
				"energy": -0.28406,
				"method": "rhf"
			},
			{
				"type": "occ",
				"energy": -0.2826,
				"method": "rhf"
			},
			{
				"type": "occ",
				"energy": -0.25298,
				"method": "rhf"
			},
			{
				"type": "occ",
				"energy": -0.24993,
				"method": "rhf"
			},
			{
				"type": "occ",
				"energy": -0.22626,
				"method": "rhf"
			},
			{
				"type": "unocc",
				"energy": -0.04579,
				"method": "rhf"
			},
			{
				"type": "unocc",
				"energy": -0.02093,
				"method": "rhf"
			},
			{
				"type": "unocc",
				"energy": -0.00349,
				"method": "rhf"
			},
			{
				"type": "unocc",
				"energy": 0.00426,
				"method": "rhf"
			},
			{
				"type": "unocc",
				"energy": 0.03675,
				"method": "rhf"
			}
		],
		"cosmo_sigma_profile": { 
			"0.0": 0.0,
			"0.0": 0.0,
			"0.0": 0.0,
			"0.0": 0.0,
			"0.0": 0.0,
			"0.0": 0.0,
			"0.0": 0.0,
			"0.0": 0.0,
			"0.0": 0.0,
			"0.0": 0.0,
			"0.0": 0.0,
			"0.0": 0.0,
			"0.0": 0.0,
			"0.0": 0.0,
			"0.0": 0.0,
			"0.0": 0.0,
			"0.0": 0.0,
			"0.0": 0.0,
			"0.0": 0.0,
			"0.0": 0.0,
			"0.0": 0.0,
			"0.0": 0.0,
			"0.0": 0.0,
			"0.0": 0.0,
			"0.0": 0.0,
			"0.0": 0.0,
			"0.0": 0.0,
			"0.0": 0.0,
			"0.0": 0.0,
			"0.0": 0.0,
			"0.0": 0.0,
			"0.0": 0.0,
			"0.0": 0.0,
			"0.0": 0.0,
			"0.0": 0.0,
			"0.0": 0.0,
			"0.0": 0.0,
			"0.0": 0.0,
			"0.0": 0.0,
			"0.0": 0.0,
			"0.0": 0.0,
			"0.0": 0.0,
			"0.0": 0.0,
			"0.0": 0.0,
			"0.0": 0.0,
			"0.0": 0.0,
			"0.0": 0.0,
			"0.0": 0.0,
			"0.0": 0.0,
			"0.0": 0.0,
			"0.0": 0.0
		}
	}
}
