{
	 "smiles": "BrC1=CC=CC2=C1OC1=C(O2)C(Br)=CC=C1", 
	 "Tm": 480.15, 
	 "num_atms": 22, 
	 "gaussian": { 
		 "optdone": 1, 
		 "sigma_profile": "yes", 
		 "theory": "DFT", 
		 "functional": "B3LYP", 
		 "basiset": "6-31G**", 
		 "properties": { 
			 "R2extent": 7759.5951, 
			 "electric_dipole_moment_norm": 0.0, 
			 "electric_quadrupole_moment_norm": 14.5067126476, 
			 "total_energy": -5754.12444767, 
			 "HOMO_LUMO_gap": 0.18063, 
			 "cosmo_polarized_energy": -6.32, 
			 "cosmo_cavitation_energy": 31.22, 
			 "cosmo_dispersion_energy": -24.02, 
			 "cosmo_repulsion_energy": 1.85, 
			 "cosmo_total_nonelectrostatic_energy": 9.04, 
			 "SMD_solvation_energy": 3.53 
		},
		"coords": [
			{
				"x": -4.2979984925,
				"y": 0.0676042148,
				"z": 0.8753448356,
				"element": "Br" 
			},
			{
				"x": -2.6647041733,
				"y": 0.4835420667,
				"z": 1.757379952,
				"element": "C" 
			},
			{
				"x": -2.6564711128,
				"y": 1.4017219152,
				"z": 2.8096263433,
				"element": "C" 
			},
			{
				"x": -1.4570873216,
				"y": 1.701961842,
				"z": 3.4509446376,
				"element": "C" 
			},
			{
				"x": -0.2678798834,
				"y": 1.0916084367,
				"z": 3.0482672538,
				"element": "C" 
			},
			{
				"x": -0.2884554176,
				"y": 0.1799313539,
				"z": 2.0005053618,
				"element": "C" 
			},
			{
				"x": -1.4846449474,
				"y": -0.1345571145,
				"z": 1.3436438123,
				"element": "C" 
			},
			{
				"x": -1.5234395946,
				"y": -1.0336545834,
				"z": 0.3056222147,
				"element": "O" 
			},
			{
				"x": -0.3277422119,
				"y": -1.6155068379,
				"z": -0.0628527505,
				"element": "C" 
			},
			{
				"x": 0.8684474462,
				"y": -1.3010180134,
				"z": 0.5940097108,
				"element": "C" 
			},
			{
				"x": 0.9072347196,
				"y": -0.4019494251,
				"z": 1.632055825,
				"element": "O" 
			},
			{
				"x": 2.0485123613,
				"y": -1.9190883743,
				"z": 0.1802486926,
				"element": "C" 
			},
			{
				"x": 3.6818054863,
				"y": -1.5031507808,
				"z": 1.062283816,
				"element": "Br" 
			},
			{
				"x": 2.0402854754,
				"y": -2.8372454963,
				"z": -0.8720173838,
				"element": "C" 
			},
			{
				"x": 0.8409019623,
				"y": -3.1374855543,
				"z": -1.5133357055,
				"element": "C" 
			},
			{
				"x": -0.3483108191,
				"y": -2.5271565122,
				"z": -1.1106395084,
				"element": "C" 
			},
			{
				"x": -3.585528236,
				"y": 1.8689498987,
				"z": 3.1132356045,
				"element": "H" 
			},
			{
				"x": -1.4470470151,
				"y": 2.4148573152,
				"z": 4.2687212694,
				"element": "H" 
			},
			{
				"x": 0.6799441406,
				"y": 1.3063738179,
				"z": 3.5292615749,
				"element": "H" 
			},
			{
				"x": 2.9693463653,
				"y": -3.3044557848,
				"z": -1.1756428926,
				"element": "H" 
			},
			{
				"x": 0.8308665031,
				"y": -3.8503629845,
				"z": -2.3311288582,
				"element": "H" 
			},
			{
				"x": -1.2961352348,
				"y": -2.7419193997,
				"z": -1.5916338053,
				"element": "H" 
			}
		],
		 "valence_orbital": [ 
			{
				"type": "occ",
				"energy": -0.28924,
				"method": "rhf"
			},
			{
				"type": "occ",
				"energy": -0.27868,
				"method": "rhf"
			},
			{
				"type": "occ",
				"energy": -0.25497,
				"method": "rhf"
			},
			{
				"type": "occ",
				"energy": -0.23879,
				"method": "rhf"
			},
			{
				"type": "occ",
				"energy": -0.21218,
				"method": "rhf"
			},
			{
				"type": "unocc",
				"energy": -0.03155,
				"method": "rhf"
			},
			{
				"type": "unocc",
				"energy": -0.02086,
				"method": "rhf"
			},
			{
				"type": "unocc",
				"energy": -0.01971,
				"method": "rhf"
			},
			{
				"type": "unocc",
				"energy": -0.00362,
				"method": "rhf"
			},
			{
				"type": "unocc",
				"energy": 0.00022,
				"method": "rhf"
			}
		],
		"cosmo_sigma_profile": { 
			"-0.025": 0.0,
			"-0.024": 0.0,
			"-0.023": 0.0,
			"-0.022": 0.0,
			"-0.021": 0.0,
			"-0.02": 0.0,
			"-0.019": 0.0,
			"-0.018": 0.0,
			"-0.017": 0.0,
			"-0.016": 0.0,
			"-0.015": 0.0,
			"-0.014": 0.0,
			"-0.013": 0.0,
			"-0.012": 0.0,
			"-0.011": 0.0,
			"-0.01": 0.0,
			"-0.009": 0.0,
			"-0.008": 2.22405600489,
			"-0.007": 11.1422141574,
			"-0.006": 12.2179851566,
			"-0.005": 15.3381009532,
			"-0.004": 14.2888591892,
			"-0.003": 13.7945607087,
			"-0.002": 13.471216552,
			"-0.001": 17.5109474486,
			"0.0": 23.3380515186,
			"0.001": 32.7136268289,
			"0.002": 31.8736699583,
			"0.003": 29.0534828951,
			"0.004": 23.1798590485,
			"0.005": 8.69586939894,
			"0.006": 4.67478476679,
			"0.007": 3.80263206127,
			"0.008": 1.99252876589,
			"0.009": 0.0,
			"0.01": 0.0,
			"0.011": 0.0,
			"0.012": 0.0,
			"0.013": 0.0,
			"0.014": 0.0,
			"0.015": 0.0,
			"0.016": 0.0,
			"0.017": 0.0,
			"0.018": 0.0,
			"0.019": 0.0,
			"0.02": 0.0,
			"0.021": 0.0,
			"0.022": 0.0,
			"0.023": 0.0,
			"0.024": 0.0,
			"0.025": 0.0
		}
	}
}
