{
	 "smiles": "BrC1C2C(Br)C(=O)C(Br)C(C(Br)C1=O)C1=CC=CC=C21", 
	 "Tm": 353.15, 
	 "num_atms": 30, 
	 "gaussian": { 
		 "optdone": 1, 
		 "sigma_profile": "yes", 
		 "theory": "DFT", 
		 "functional": "B3LYP", 
		 "basiset": "6-31G**", 
		 "properties": { 
			 "R2extent": 13628.5649, 
			 "electric_dipole_moment_norm": 6.25041955552, 
			 "electric_quadrupole_moment_norm": 23.8293969235, 
			 "total_energy": -10975.5509513, 
			 "HOMO_LUMO_gap": 0.16607, 
			 "cosmo_polarized_energy": -18.85, 
			 "cosmo_cavitation_energy": 39.71, 
			 "cosmo_dispersion_energy": -28.08, 
			 "cosmo_repulsion_energy": 2.13, 
			 "cosmo_total_nonelectrostatic_energy": 13.76, 
			 "SMD_solvation_energy": 2.84 
		},
		"coords": [
			{
				"x": 0.4724383742,
				"y": 2.7991621985,
				"z": 2.7029537658,
				"element": "Br" 
			},
			{
				"x": 1.473627454,
				"y": 1.0828811371,
				"z": 2.6291881909,
				"element": "C" 
			},
			{
				"x": 0.6013093194,
				"y": -0.0346247401,
				"z": 2.0058536754,
				"element": "C" 
			},
			{
				"x": 1.4038022632,
				"y": -1.3551804511,
				"z": 2.1071167337,
				"element": "C" 
			},
			{
				"x": 0.309656137,
				"y": -2.8937711932,
				"z": 1.4834353707,
				"element": "Br" 
			},
			{
				"x": 2.7652186735,
				"y": -1.4424963119,
				"z": 1.3926942284,
				"element": "C" 
			},
			{
				"x": 3.7147239593,
				"y": -1.8560098588,
				"z": 2.0145662862,
				"element": "O" 
			},
			{
				"x": 2.8229682182,
				"y": -1.0240858922,
				"z": -0.0798236524,
				"element": "C" 
			},
			{
				"x": 4.591092271,
				"y": -1.4429942922,
				"z": -0.8371234088,
				"element": "Br" 
			},
			{
				"x": 2.3598307255,
				"y": 0.4301563522,
				"z": -0.399889748,
				"element": "C" 
			},
			{
				"x": 2.8970401573,
				"y": 1.599082187,
				"z": 0.4816373105,
				"element": "C" 
			},
			{
				"x": 4.6931588791,
				"y": 2.1963161413,
				"z": -0.0591376479,
				"element": "Br" 
			},
			{
				"x": 2.8457456386,
				"y": 1.3805390631,
				"z": 1.9969590557,
				"element": "C" 
			},
			{
				"x": 3.809304075,
				"y": 1.4511422128,
				"z": 2.7221232998,
				"element": "O" 
			},
			{
				"x": 0.8401238725,
				"y": 0.4915508804,
				"z": -0.4852225998,
				"element": "C" 
			},
			{
				"x": 0.2445328739,
				"y": 0.7731465312,
				"z": -1.7215719133,
				"element": "C" 
			},
			{
				"x": -1.1413105938,
				"y": 0.8411684594,
				"z": -1.8541852353,
				"element": "C" 
			},
			{
				"x": -1.9515013165,
				"y": 0.6259496938,
				"z": -0.7401613699,
				"element": "C" 
			},
			{
				"x": -1.3668144564,
				"y": 0.3453002649,
				"z": 0.4931732474,
				"element": "C" 
			},
			{
				"x": 0.0236544747,
				"y": 0.2746905617,
				"z": 0.6373445091,
				"element": "C" 
			},
			{
				"x": 1.6825055832,
				"y": 0.8558407144,
				"z": 3.6743853309,
				"element": "H" 
			},
			{
				"x": -0.244863726,
				"y": -0.1564285637,
				"z": 2.6881150233,
				"element": "H" 
			},
			{
				"x": 1.6123918435,
				"y": -1.5876704027,
				"z": 3.1511707238,
				"element": "H" 
			},
			{
				"x": 2.1462409344,
				"y": -1.6860215931,
				"z": -0.6235945805,
				"element": "H" 
			},
			{
				"x": 2.7376834301,
				"y": 0.6341879816,
				"z": -1.4027424174,
				"element": "H" 
			},
			{
				"x": 2.2626368123,
				"y": 2.4606402044,
				"z": 0.2646803429,
				"element": "H" 
			},
			{
				"x": 0.8771155312,
				"y": 0.9407499642,
				"z": -2.5892219073,
				"element": "H" 
			},
			{
				"x": -1.5826838216,
				"y": 1.0608259926,
				"z": -2.8215344581,
				"element": "H" 
			},
			{
				"x": -3.0323983177,
				"y": 0.6757213401,
				"z": -0.8283122081,
				"element": "H" 
			},
			{
				"x": -1.9980292692,
				"y": 0.1775314184,
				"z": 1.3611240524,
				"element": "H" 
			}
		],
		 "valence_orbital": [ 
			{
				"type": "occ",
				"energy": -0.28163,
				"method": "rhf"
			},
			{
				"type": "occ",
				"energy": -0.27601,
				"method": "rhf"
			},
			{
				"type": "occ",
				"energy": -0.27218,
				"method": "rhf"
			},
			{
				"type": "occ",
				"energy": -0.26966,
				"method": "rhf"
			},
			{
				"type": "occ",
				"energy": -0.2617,
				"method": "rhf"
			},
			{
				"type": "unocc",
				"energy": -0.09563,
				"method": "rhf"
			},
			{
				"type": "unocc",
				"energy": -0.05371,
				"method": "rhf"
			},
			{
				"type": "unocc",
				"energy": -0.04148,
				"method": "rhf"
			},
			{
				"type": "unocc",
				"energy": -0.03306,
				"method": "rhf"
			},
			{
				"type": "unocc",
				"energy": -0.02722,
				"method": "rhf"
			}
		],
		"cosmo_sigma_profile": { 
			"-0.025": 0.0,
			"-0.024": 0.0,
			"-0.023": 0.0,
			"-0.022": 0.0,
			"-0.021": 0.0,
			"-0.02": 0.0,
			"-0.019": 0.0,
			"-0.018": 0.0,
			"-0.017": 0.0,
			"-0.016": 0.0,
			"-0.015": 0.0,
			"-0.014": 0.0,
			"-0.013": 0.282893642409,
			"-0.012": 1.53120210681,
			"-0.011": 2.12153628294,
			"-0.01": 3.77465113016,
			"-0.009": 7.73967492677,
			"-0.008": 12.1614852614,
			"-0.007": 12.0054527237,
			"-0.006": 14.6959965415,
			"-0.005": 16.3242073849,
			"-0.004": 19.3779687927,
			"-0.003": 17.5065642477,
			"-0.002": 17.9557901518,
			"-0.001": 17.3727739192,
			"0.0": 19.1015215097,
			"0.001": 21.9409220131,
			"0.002": 23.1330226466,
			"0.003": 29.6469990773,
			"0.004": 33.0947824282,
			"0.005": 21.0635561469,
			"0.006": 8.71782238214,
			"0.007": 6.44377490966,
			"0.008": 5.95036072002,
			"0.009": 8.23957862726,
			"0.01": 6.0020859173,
			"0.011": 1.69046355165,
			"0.012": 0.0,
			"0.013": 0.0,
			"0.014": 0.0,
			"0.015": 0.0,
			"0.016": 0.0,
			"0.017": 0.0,
			"0.018": 0.0,
			"0.019": 0.0,
			"0.02": 0.0,
			"0.021": 0.0,
			"0.022": 0.0,
			"0.023": 0.0,
			"0.024": 0.0,
			"0.025": 0.0
		}
	}
}
