{
	 "smiles": "COC(=O)C1=CC2=C(N=C1N)C1=CC=CC=C1OC2=O", 
	 "Tm": 537.15, 
	 "num_atms": 30, 
	 "gaussian": { 
		 "optdone": 1, 
		 "sigma_profile": "yes", 
		 "theory": "DFT", 
		 "functional": "B3LYP", 
		 "basiset": "6-31G**", 
		 "properties": { 
			 "R2extent": 6571.1899, 
			 "electric_dipole_moment_norm": 3.50460665981, 
			 "electric_quadrupole_moment_norm": 25.5128741141, 
			 "total_energy": -949.972819438, 
			 "HOMO_LUMO_gap": 0.15513, 
			 "cosmo_polarized_energy": -13.89, 
			 "cosmo_cavitation_energy": 35.01, 
			 "cosmo_dispersion_energy": -26.22, 
			 "cosmo_repulsion_energy": 1.97, 
			 "cosmo_total_nonelectrostatic_energy": 10.76, 
			 "SMD_solvation_energy": 7.11 
		},
		"coords": [
			{
				"x": -1.1745944148,
				"y": -5.6970181802,
				"z": 0.2361020714,
				"element": "C" 
			},
			{
				"x": -0.57276297,
				"y": -4.4054879182,
				"z": 0.0494550665,
				"element": "O" 
			},
			{
				"x": -1.3380621219,
				"y": -3.3501274761,
				"z": 0.3884355396,
				"element": "C" 
			},
			{
				"x": -2.4755303755,
				"y": -3.48323034,
				"z": 0.8284274712,
				"element": "O" 
			},
			{
				"x": -0.6598565143,
				"y": -2.0576377299,
				"z": 0.1715384444,
				"element": "C" 
			},
			{
				"x": 0.632105348,
				"y": -1.9852544385,
				"z": -0.3313155718,
				"element": "C" 
			},
			{
				"x": 1.2464027024,
				"y": -0.7450673692,
				"z": -0.5250233813,
				"element": "C" 
			},
			{
				"x": 0.5134827961,
				"y": 0.4177009407,
				"z": -0.1943657676,
				"element": "C" 
			},
			{
				"x": -0.7300887786,
				"y": 0.3795741798,
				"z": 0.2909679155,
				"element": "N" 
			},
			{
				"x": -1.3222618139,
				"y": -0.8147225539,
				"z": 0.4776124709,
				"element": "C" 
			},
			{
				"x": -2.575031551,
				"y": -0.7900491675,
				"z": 0.9686964443,
				"element": "N" 
			},
			{
				"x": 1.1587802983,
				"y": 1.7103209975,
				"z": -0.3981982459,
				"element": "C" 
			},
			{
				"x": 0.5335172376,
				"y": 2.9353742371,
				"z": -0.1072822721,
				"element": "C" 
			},
			{
				"x": 1.1965501179,
				"y": 4.1352413822,
				"z": -0.3218482882,
				"element": "C" 
			},
			{
				"x": 2.5028673592,
				"y": 4.1292011258,
				"z": -0.8336758217,
				"element": "C" 
			},
			{
				"x": 3.1413361953,
				"y": 2.9298085264,
				"z": -1.1287503719,
				"element": "C" 
			},
			{
				"x": 2.4671879239,
				"y": 1.7258585378,
				"z": -0.9099332341,
				"element": "C" 
			},
			{
				"x": 3.1532305121,
				"y": 0.579549271,
				"z": -1.2215097459,
				"element": "O" 
			},
			{
				"x": 2.6105449375,
				"y": -0.6858104697,
				"z": -1.0565013694,
				"element": "C" 
			},
			{
				"x": 3.2934539234,
				"y": -1.6371416605,
				"z": -1.3592589567,
				"element": "O" 
			},
			{
				"x": -2.0807213079,
				"y": -5.7896227025,
				"z": -0.3673995204,
				"element": "H" 
			},
			{
				"x": -0.4228828872,
				"y": -6.4165911902,
				"z": -0.0867391442,
				"element": "H" 
			},
			{
				"x": -1.431088874,
				"y": -5.8532121721,
				"z": 1.2866725913,
				"element": "H" 
			},
			{
				"x": 1.1778554206,
				"y": -2.8879497131,
				"z": -0.5788171197,
				"element": "H" 
			},
			{
				"x": -3.0582106233,
				"y": -1.6661586426,
				"z": 1.1247232289,
				"element": "H" 
			},
			{
				"x": -2.9866682449,
				"y": 0.1083233869,
				"z": 1.1639017642,
				"element": "H" 
			},
			{
				"x": -0.4760957328,
				"y": 2.9070199119,
				"z": 0.2869531557,
				"element": "H" 
			},
			{
				"x": 0.7060688636,
				"y": 5.0764278149,
				"z": -0.0944279196,
				"element": "H" 
			},
			{
				"x": 3.0243374603,
				"y": 5.0666726774,
				"z": -1.0027091391,
				"element": "H" 
			},
			{
				"x": 4.1503351141,
				"y": 2.8990087349,
				"z": -1.5250302945,
				"element": "H" 
			}
		],
		 "valence_orbital": [ 
			{
				"type": "occ",
				"energy": -0.28418,
				"method": "rhf"
			},
			{
				"type": "occ",
				"energy": -0.26837,
				"method": "rhf"
			},
			{
				"type": "occ",
				"energy": -0.25859,
				"method": "rhf"
			},
			{
				"type": "occ",
				"energy": -0.24319,
				"method": "rhf"
			},
			{
				"type": "occ",
				"energy": -0.22869,
				"method": "rhf"
			},
			{
				"type": "unocc",
				"energy": -0.07356,
				"method": "rhf"
			},
			{
				"type": "unocc",
				"energy": -0.04451,
				"method": "rhf"
			},
			{
				"type": "unocc",
				"energy": -0.0106,
				"method": "rhf"
			},
			{
				"type": "unocc",
				"energy": -0.00221,
				"method": "rhf"
			},
			{
				"type": "unocc",
				"energy": 0.03116,
				"method": "rhf"
			}
		],
		"cosmo_sigma_profile": { 
			"-0.025": 0.0,
			"-0.024": 0.0,
			"-0.023": 0.0,
			"-0.022": 0.0,
			"-0.021": 0.0,
			"-0.02": 0.0,
			"-0.019": 0.0,
			"-0.018": 0.0,
			"-0.017": 0.0,
			"-0.016": 0.0,
			"-0.015": 0.0650981291526,
			"-0.014": 0.857702635664,
			"-0.013": 1.37416944715,
			"-0.012": 0.408870216992,
			"-0.011": 1.40841072798,
			"-0.01": 1.63365573824,
			"-0.009": 2.29191304999,
			"-0.008": 1.22751132471,
			"-0.007": 5.93337500338,
			"-0.006": 14.9007327405,
			"-0.005": 18.0270852803,
			"-0.004": 21.2256211573,
			"-0.003": 22.2090923427,
			"-0.002": 24.2125516202,
			"-0.001": 25.6135379783,
			"0.0": 23.1019830685,
			"0.001": 19.7942893311,
			"0.002": 21.0882774384,
			"0.003": 19.8374212635,
			"0.004": 13.1828033763,
			"0.005": 6.55074318539,
			"0.006": 5.17230251252,
			"0.007": 4.90471416737,
			"0.008": 4.98785922067,
			"0.009": 5.00545064022,
			"0.01": 4.46804305852,
			"0.011": 6.48102712551,
			"0.012": 4.77982918601,
			"0.013": 1.19051619632,
			"0.014": 0.0,
			"0.015": 0.0,
			"0.016": 0.0,
			"0.017": 0.0,
			"0.018": 0.0,
			"0.019": 0.0,
			"0.02": 0.0,
			"0.021": 0.0,
			"0.022": 0.0,
			"0.023": 0.0,
			"0.024": 0.0,
			"0.025": 0.0
		}
	}
}
