{
	 "smiles": "CC12CCC3C(CCC33CCC(=O)O3)C1CCC1=CC(=O)CCC21C", 
	 "Tm": 431.15, 
	 "num_atms": 55, 
	 "gaussian": { 
		 "optdone": 1, 
		 "sigma_profile": "yes", 
		 "theory": "DFT", 
		 "functional": "B3LYP", 
		 "basiset": "6-31G**", 
		 "properties": { 
			 "R2extent": 10390.3891, 
			 "electric_dipole_moment_norm": 3.99587556488, 
			 "electric_quadrupole_moment_norm": 52.6356854363, 
			 "total_energy": -1082.10146488, 
			 "HOMO_LUMO_gap": 0.18642, 
			 "cosmo_polarized_energy": -19.33, 
			 "cosmo_cavitation_energy": 47.47, 
			 "cosmo_dispersion_energy": -33.49, 
			 "cosmo_repulsion_energy": 2.44, 
			 "cosmo_total_nonelectrostatic_energy": 16.43, 
			 "SMD_solvation_energy": 8.02 
		},
		"coords": [
			{
				"x": 1.7215634119,
				"y": -1.5953367351,
				"z": 1.0693279381,
				"element": "C" 
			},
			{
				"x": 0.8009598594,
				"y": -0.9113562816,
				"z": 0.0331156222,
				"element": "C" 
			},
			{
				"x": 1.5877565806,
				"y": 0.2492076705,
				"z": -0.6310793383,
				"element": "C" 
			},
			{
				"x": 1.9405489987,
				"y": 1.3962266061,
				"z": 0.3221904639,
				"element": "C" 
			},
			{
				"x": 0.6530354402,
				"y": 2.0381530134,
				"z": 0.8529082791,
				"element": "C" 
			},
			{
				"x": -0.262131455,
				"y": 1.0036004731,
				"z": 1.549334597,
				"element": "C" 
			},
			{
				"x": 0.253164529,
				"y": 0.9456938573,
				"z": 3.0222417812,
				"element": "C" 
			},
			{
				"x": 1.0670073955,
				"y": 2.2448514899,
				"z": 3.2487113194,
				"element": "C" 
			},
			{
				"x": 0.8899232694,
				"y": 3.0865936493,
				"z": 1.9697546416,
				"element": "C" 
			},
			{
				"x": -0.2267766996,
				"y": 4.1593064748,
				"z": 2.0350145612,
				"element": "C" 
			},
			{
				"x": 0.3144538466,
				"y": 5.2837187639,
				"z": 1.1495204744,
				"element": "C" 
			},
			{
				"x": 1.8252672249,
				"y": 5.0994878197,
				"z": 1.2286282545,
				"element": "C" 
			},
			{
				"x": 2.691941976,
				"y": 5.8727685389,
				"z": 0.9134666813,
				"element": "O" 
			},
			{
				"x": 2.0972349918,
				"y": 3.8593680249,
				"z": 1.7271031286,
				"element": "O" 
			},
			{
				"x": -0.4598623719,
				"y": -0.363449274,
				"z": 0.8248272277,
				"element": "C" 
			},
			{
				"x": -1.7439997081,
				"y": -0.3366472751,
				"z": -0.0267057781,
				"element": "C" 
			},
			{
				"x": -2.1253482664,
				"y": -1.7550954681,
				"z": -0.5093597491,
				"element": "C" 
			},
			{
				"x": -0.918830424,
				"y": -2.6624075265,
				"z": -0.6050535367,
				"element": "C" 
			},
			{
				"x": -1.0018995488,
				"y": -3.9652246185,
				"z": -0.265357308,
				"element": "C" 
			},
			{
				"x": 0.1264881988,
				"y": -4.9099329487,
				"z": -0.2919887971,
				"element": "C" 
			},
			{
				"x": -0.027736075,
				"y": -6.0991821137,
				"z": -0.0449115978,
				"element": "O" 
			},
			{
				"x": 1.5006518847,
				"y": -4.3231759305,
				"z": -0.5756937968,
				"element": "C" 
			},
			{
				"x": 1.4479380609,
				"y": -3.0514131039,
				"z": -1.4350361171,
				"element": "C" 
			},
			{
				"x": 0.354076283,
				"y": -1.990640647,
				"z": -1.0926318702,
				"element": "C" 
			},
			{
				"x": 0.0308824069,
				"y": -1.3254276115,
				"z": -2.4669317311,
				"element": "C" 
			},
			{
				"x": 1.2167224996,
				"y": -2.4358067873,
				"z": 1.5535310159,
				"element": "H" 
			},
			{
				"x": 2.6488018702,
				"y": -1.9580746559,
				"z": 0.6184513368,
				"element": "H" 
			},
			{
				"x": 2.0110135555,
				"y": -0.9004096838,
				"z": 1.858510224,
				"element": "H" 
			},
			{
				"x": 2.5028586588,
				"y": -0.1515716592,
				"z": -1.0847775149,
				"element": "H" 
			},
			{
				"x": 1.0045035034,
				"y": 0.6806357208,
				"z": -1.4506781446,
				"element": "H" 
			},
			{
				"x": 2.536768575,
				"y": 2.1464138372,
				"z": -0.2060560987,
				"element": "H" 
			},
			{
				"x": 2.5694403096,
				"y": 1.0452612522,
				"z": 1.1475285203,
				"element": "H" 
			},
			{
				"x": 0.134042573,
				"y": 2.5000923549,
				"z": 0.0009850578,
				"element": "H" 
			},
			{
				"x": -1.2610600317,
				"y": 1.4547758538,
				"z": 1.6040296571,
				"element": "H" 
			},
			{
				"x": 0.8730747455,
				"y": 0.0655326174,
				"z": 3.2038385537,
				"element": "H" 
			},
			{
				"x": -0.5920441228,
				"y": 0.8675922639,
				"z": 3.7133382845,
				"element": "H" 
			},
			{
				"x": 2.1322656799,
				"y": 2.026714582,
				"z": 3.3664268546,
				"element": "H" 
			},
			{
				"x": 0.7571492749,
				"y": 2.7973211135,
				"z": 4.1404906129,
				"element": "H" 
			},
			{
				"x": -0.3406837679,
				"y": 4.5123235098,
				"z": 3.0651555586,
				"element": "H" 
			},
			{
				"x": -1.1942662279,
				"y": 3.7698491201,
				"z": 1.7086665982,
				"element": "H" 
			},
			{
				"x": 0.0399983575,
				"y": 6.2923673912,
				"z": 1.4639676657,
				"element": "H" 
			},
			{
				"x": 0.0144746875,
				"y": 5.1753573994,
				"z": 0.1005308114,
				"element": "H" 
			},
			{
				"x": -0.6596976512,
				"y": -1.0989514645,
				"z": 1.6175765869,
				"element": "H" 
			},
			{
				"x": -2.5648291221,
				"y": 0.065078039,
				"z": 0.5778293579,
				"element": "H" 
			},
			{
				"x": -1.6310970654,
				"y": 0.3558338428,
				"z": -0.867915376,
				"element": "H" 
			},
			{
				"x": -2.6184241695,
				"y": -1.6980935617,
				"z": -1.4889686922,
				"element": "H" 
			},
			{
				"x": -2.8542796851,
				"y": -2.2055588967,
				"z": 0.1721381764,
				"element": "H" 
			},
			{
				"x": -1.9477506609,
				"y": -4.3901264824,
				"z": 0.0652541199,
				"element": "H" 
			},
			{
				"x": 2.0999991887,
				"y": -5.0956837177,
				"z": -1.0674232256,
				"element": "H" 
			},
			{
				"x": 1.9736385573,
				"y": -4.1454305185,
				"z": 0.3958970067,
				"element": "H" 
			},
			{
				"x": 1.2509330459,
				"y": -3.3777890259,
				"z": -2.4627269444,
				"element": "H" 
			},
			{
				"x": 2.4322281596,
				"y": -2.5715882621,
				"z": -1.4691749044,
				"element": "H" 
			},
			{
				"x": -0.6360897416,
				"y": -0.4654996599,
				"z": -2.4054353819,
				"element": "H" 
			},
			{
				"x": -0.4423824151,
				"y": -2.0657295904,
				"z": -3.1199369644,
				"element": "H" 
			},
			{
				"x": 0.9499816098,
				"y": -0.9984217799,
				"z": -2.9605481019,
				"element": "H" 
			}
		],
		 "valence_orbital": [ 
			{
				"type": "occ",
				"energy": -0.29144,
				"method": "rhf"
			},
			{
				"type": "occ",
				"energy": -0.28339,
				"method": "rhf"
			},
			{
				"type": "occ",
				"energy": -0.26438,
				"method": "rhf"
			},
			{
				"type": "occ",
				"energy": -0.25387,
				"method": "rhf"
			},
			{
				"type": "occ",
				"energy": -0.23066,
				"method": "rhf"
			},
			{
				"type": "unocc",
				"energy": -0.04424,
				"method": "rhf"
			},
			{
				"type": "unocc",
				"energy": 0.01083,
				"method": "rhf"
			},
			{
				"type": "unocc",
				"energy": 0.04904,
				"method": "rhf"
			},
			{
				"type": "unocc",
				"energy": 0.05643,
				"method": "rhf"
			},
			{
				"type": "unocc",
				"energy": 0.0685,
				"method": "rhf"
			}
		],
		"cosmo_sigma_profile": { 
			"-0.025": 0.0,
			"-0.024": 0.0,
			"-0.023": 0.0,
			"-0.022": 0.0,
			"-0.021": 0.0,
			"-0.02": 0.0,
			"-0.019": 0.0,
			"-0.018": 0.0,
			"-0.017": 0.0,
			"-0.016": 0.0,
			"-0.015": 0.0,
			"-0.014": 0.0,
			"-0.013": 0.0,
			"-0.012": 0.0,
			"-0.011": 0.0,
			"-0.01": 0.0,
			"-0.009": 0.0,
			"-0.008": 0.0,
			"-0.007": 0.878789106377,
			"-0.006": 5.84892748912,
			"-0.005": 14.9334004087,
			"-0.004": 38.8772860808,
			"-0.003": 57.241278965,
			"-0.002": 61.8365349569,
			"-0.001": 54.4397455315,
			"0.0": 36.530038735,
			"0.001": 21.8642750677,
			"0.002": 9.23281018905,
			"0.003": 7.54933927389,
			"0.004": 5.13424466168,
			"0.005": 3.37328066443,
			"0.006": 3.4381630763,
			"0.007": 3.67794728693,
			"0.008": 4.50514487216,
			"0.009": 3.63374426199,
			"0.01": 5.07792388359,
			"0.011": 6.58225803599,
			"0.012": 8.7966251768,
			"0.013": 7.97337859066,
			"0.014": 4.15846989605,
			"0.015": 1.01064041636,
			"0.016": 0.0,
			"0.017": 0.0,
			"0.018": 0.0,
			"0.019": 0.0,
			"0.02": 0.0,
			"0.021": 0.0,
			"0.022": 0.0,
			"0.023": 0.0,
			"0.024": 0.0,
			"0.025": 0.0
		}
	}
}
