{
	 "smiles": "CC1=NN(CCO)C(N)=C1C", 
	 "Tm": 403.15, 
	 "num_atms": 24, 
	 "gaussian": { 
		 "optdone": 1, 
		 "sigma_profile": "yes", 
		 "theory": "DFT", 
		 "functional": "B3LYP", 
		 "basiset": "6-31G**", 
		 "properties": { 
			 "R2extent": 2328.837, 
			 "electric_dipole_moment_norm": 3.1985381958, 
			 "electric_quadrupole_moment_norm": 12.3035559327, 
			 "total_energy": -514.043725712, 
			 "HOMO_LUMO_gap": 0.24855, 
			 "cosmo_polarized_energy": -13.96, 
			 "cosmo_cavitation_energy": 26.31, 
			 "cosmo_dispersion_energy": -19.28, 
			 "cosmo_repulsion_energy": 1.58, 
			 "cosmo_total_nonelectrostatic_energy": 8.61, 
			 "SMD_solvation_energy": 3.76 
		},
		"coords": [
			{
				"x": 1.4920667303,
				"y": -1.8930507896,
				"z": -1.6333460409,
				"element": "C" 
			},
			{
				"x": 0.4716555381,
				"y": -1.0979310489,
				"z": -0.8779296628,
				"element": "C" 
			},
			{
				"x": -0.607870177,
				"y": -0.6235265992,
				"z": -1.4972056132,
				"element": "N" 
			},
			{
				"x": -1.3188635838,
				"y": 0.0292762827,
				"z": -0.5397822095,
				"element": "N" 
			},
			{
				"x": -2.584266522,
				"y": 0.6624787089,
				"z": -0.9047085403,
				"element": "C" 
			},
			{
				"x": -3.8234692158,
				"y": 0.034236718,
				"z": -0.2510113569,
				"element": "C" 
			},
			{
				"x": -4.0454045087,
				"y": 0.4482013208,
				"z": 1.0795243831,
				"element": "O" 
			},
			{
				"x": -0.6815567464,
				"y": -0.0126872525,
				"z": 0.6671585686,
				"element": "C" 
			},
			{
				"x": -1.2684521842,
				"y": 0.5640077756,
				"z": 1.8208210964,
				"element": "N" 
			},
			{
				"x": 0.4878333668,
				"y": -0.7379811077,
				"z": 0.4971276719,
				"element": "C" 
			},
			{
				"x": 1.5268856464,
				"y": -1.0625925677,
				"z": 1.5273490697,
				"element": "C" 
			},
			{
				"x": 1.5812677325,
				"y": -2.9134377603,
				"z": -1.2416126539,
				"element": "H" 
			},
			{
				"x": 1.2060850804,
				"y": -1.9540068648,
				"z": -2.6857617509,
				"element": "H" 
			},
			{
				"x": 2.4871594592,
				"y": -1.4360170977,
				"z": -1.5726720771,
				"element": "H" 
			},
			{
				"x": -2.63670348,
				"y": 0.5601960099,
				"z": -1.9906002891,
				"element": "H" 
			},
			{
				"x": -2.5556839409,
				"y": 1.7320438268,
				"z": -0.6615254403,
				"element": "H" 
			},
			{
				"x": -3.7480473076,
				"y": -1.0619376644,
				"z": -0.3451952984,
				"element": "H" 
			},
			{
				"x": -4.7022132376,
				"y": 0.3502135802,
				"z": -0.8258798594,
				"element": "H" 
			},
			{
				"x": -3.2092963738,
				"y": 0.3208421187,
				"z": 1.5666191839,
				"element": "H" 
			},
			{
				"x": -0.827260908,
				"y": 0.2089098474,
				"z": 2.6625455007,
				"element": "H" 
			},
			{
				"x": -1.1988118703,
				"y": 1.5801063328,
				"z": 1.8305938617,
				"element": "H" 
			},
			{
				"x": 1.4011357202,
				"y": -0.4558072146,
				"z": 2.4315518707,
				"element": "H" 
			},
			{
				"x": 1.4975211465,
				"y": -2.115391299,
				"z": 1.8359096682,
				"element": "H" 
			},
			{
				"x": 2.5376896357,
				"y": -0.8678452553,
				"z": 1.1513299176,
				"element": "H" 
			}
		],
		 "valence_orbital": [ 
			{
				"type": "occ",
				"energy": -0.29765,
				"method": "rhf"
			},
			{
				"type": "occ",
				"energy": -0.27374,
				"method": "rhf"
			},
			{
				"type": "occ",
				"energy": -0.25314,
				"method": "rhf"
			},
			{
				"type": "occ",
				"energy": -0.22395,
				"method": "rhf"
			},
			{
				"type": "occ",
				"energy": -0.21765,
				"method": "rhf"
			},
			{
				"type": "unocc",
				"energy": 0.0309,
				"method": "rhf"
			},
			{
				"type": "unocc",
				"energy": 0.05186,
				"method": "rhf"
			},
			{
				"type": "unocc",
				"energy": 0.07157,
				"method": "rhf"
			},
			{
				"type": "unocc",
				"energy": 0.0986,
				"method": "rhf"
			},
			{
				"type": "unocc",
				"energy": 0.11629,
				"method": "rhf"
			}
		],
		"cosmo_sigma_profile": { 
			"-0.025": 0.0,
			"-0.024": 0.0,
			"-0.023": 0.0,
			"-0.022": 0.0,
			"-0.021": 0.0,
			"-0.02": 0.0,
			"-0.019": 0.0,
			"-0.018": 0.0,
			"-0.017": 0.0,
			"-0.016": 0.0,
			"-0.015": 0.0,
			"-0.014": 0.0299191133762,
			"-0.013": 1.36146866461,
			"-0.012": 2.55250063077,
			"-0.011": 3.23391849015,
			"-0.01": 3.31942567185,
			"-0.009": 3.31328895453,
			"-0.008": 2.54798003391,
			"-0.007": 2.73677035532,
			"-0.006": 5.39074007101,
			"-0.005": 7.88870834296,
			"-0.004": 13.5898457755,
			"-0.003": 22.3271149387,
			"-0.002": 21.1731967971,
			"-0.001": 21.1865636641,
			"0.0": 23.2888821571,
			"0.001": 13.2815598222,
			"0.002": 6.86866528404,
			"0.003": 7.02511972906,
			"0.004": 5.30881900104,
			"0.005": 6.44944065344,
			"0.006": 5.41257178669,
			"0.007": 3.31661767016,
			"0.008": 3.33450295287,
			"0.009": 2.69664316865,
			"0.01": 2.61469783428,
			"0.011": 2.63924673119,
			"0.012": 2.22925103123,
			"0.013": 2.11434777359,
			"0.014": 2.80571188054,
			"0.015": 3.96453767857,
			"0.016": 1.33499380482,
			"0.017": 0.197982274663,
			"0.018": 0.0,
			"0.019": 0.0,
			"0.02": 0.0,
			"0.021": 0.0,
			"0.022": 0.0,
			"0.023": 0.0,
			"0.024": 0.0,
			"0.025": 0.0
		}
	}
}
