{
	 "smiles": "NC1=C(Br)C=C(C=C1Br)C(F)(F)F", 
	 "Tm": 311.15, 
	 "num_atms": 17, 
	 "gaussian": { 
		 "optdone": 1, 
		 "sigma_profile": "yes", 
		 "theory": "DFT", 
		 "functional": "B3LYP", 
		 "basiset": "6-31G**", 
		 "properties": { 
			 "R2extent": 5130.2222, 
			 "electric_dipole_moment_norm": 3.02114522822, 
			 "electric_quadrupole_moment_norm": 5.43892583421, 
			 "total_energy": -5766.24934409, 
			 "HOMO_LUMO_gap": 0.19604, 
			 "cosmo_polarized_energy": -6.05, 
			 "cosmo_cavitation_energy": 27.2, 
			 "cosmo_dispersion_energy": -20.53, 
			 "cosmo_repulsion_energy": 1.57, 
			 "cosmo_total_nonelectrostatic_energy": 8.24, 
			 "SMD_solvation_energy": 3.54 
		},
		"coords": [
			{
				"x": -1.9345549388,
				"y": 0.769196684,
				"z": 1.5499507357,
				"element": "N" 
			},
			{
				"x": -1.1564972042,
				"y": 0.3226712224,
				"z": 0.5211003697,
				"element": "C" 
			},
			{
				"x": -0.1923122056,
				"y": -0.6987037602,
				"z": 0.6925958221,
				"element": "C" 
			},
			{
				"x": -0.0181846741,
				"y": -1.519505651,
				"z": 2.4132788221,
				"element": "Br" 
			},
			{
				"x": 0.6333695648,
				"y": -1.1266137723,
				"z": -0.3348389301,
				"element": "C" 
			},
			{
				"x": 0.526908998,
				"y": -0.5450834759,
				"z": -1.5995478975,
				"element": "C" 
			},
			{
				"x": -0.4154745125,
				"y": 0.4616599873,
				"z": -1.8173351654,
				"element": "C" 
			},
			{
				"x": -1.2330996944,
				"y": 0.8772430135,
				"z": -0.7784736197,
				"element": "C" 
			},
			{
				"x": -2.5142219228,
				"y": 2.2594954799,
				"z": -1.1144369654,
				"element": "Br" 
			},
			{
				"x": 1.3727191352,
				"y": -1.0453098365,
				"z": -2.7340332997,
				"element": "C" 
			},
			{
				"x": 0.7753164034,
				"y": -2.0605528342,
				"z": -3.402660792,
				"element": "F" 
			},
			{
				"x": 2.5643796016,
				"y": -1.5137566102,
				"z": -2.3007315381,
				"element": "F" 
			},
			{
				"x": 1.6176418148,
				"y": -0.0737807494,
				"z": -3.6414587644,
				"element": "F" 
			},
			{
				"x": -2.7360566252,
				"y": 1.3366912963,
				"z": 1.3214492474,
				"element": "H" 
			},
			{
				"x": -1.986053899,
				"y": 0.2011732701,
				"z": 2.3814349745,
				"element": "H" 
			},
			{
				"x": 1.361886394,
				"y": -1.9062751802,
				"z": -0.150046984,
				"element": "H" 
			},
			{
				"x": -0.5073662354,
				"y": 0.9243509164,
				"z": -2.7921460153,
				"element": "H" 
			}
		],
		 "valence_orbital": [ 
			{
				"type": "occ",
				"energy": -0.31273,
				"method": "rhf"
			},
			{
				"type": "occ",
				"energy": -0.31101,
				"method": "rhf"
			},
			{
				"type": "occ",
				"energy": -0.30529,
				"method": "rhf"
			},
			{
				"type": "occ",
				"energy": -0.25828,
				"method": "rhf"
			},
			{
				"type": "occ",
				"energy": -0.22935,
				"method": "rhf"
			},
			{
				"type": "unocc",
				"energy": -0.03331,
				"method": "rhf"
			},
			{
				"type": "unocc",
				"energy": -0.027,
				"method": "rhf"
			},
			{
				"type": "unocc",
				"energy": -0.0254,
				"method": "rhf"
			},
			{
				"type": "unocc",
				"energy": 0.01349,
				"method": "rhf"
			},
			{
				"type": "unocc",
				"energy": 0.08142,
				"method": "rhf"
			}
		],
		"cosmo_sigma_profile": { 
			"-0.025": 0.0,
			"-0.024": 0.0,
			"-0.023": 0.0,
			"-0.022": 0.0,
			"-0.021": 0.0,
			"-0.02": 0.0,
			"-0.019": 0.0,
			"-0.018": 0.0,
			"-0.017": 0.0,
			"-0.016": 0.0,
			"-0.015": 0.0,
			"-0.014": 0.0,
			"-0.013": 0.836295642101,
			"-0.012": 1.88332071114,
			"-0.011": 1.76040778891,
			"-0.01": 1.95965164846,
			"-0.009": 1.68343401101,
			"-0.008": 3.52849461115,
			"-0.007": 4.29543972934,
			"-0.006": 5.53063168025,
			"-0.005": 7.23356081273,
			"-0.004": 9.73290781407,
			"-0.003": 8.81483640407,
			"-0.002": 10.5414601097,
			"-0.001": 16.1257743122,
			"0.0": 22.6297761858,
			"0.001": 32.8771120054,
			"0.002": 35.5022843628,
			"0.003": 41.4466010807,
			"0.004": 14.9675968109,
			"0.005": 1.41110382633,
			"0.006": 0.637319254122,
			"0.007": 0.846331779463,
			"0.008": 0.438914266312,
			"0.009": 0.450684771826,
			"0.01": 0.050910371207,
			"0.011": 0.0,
			"0.012": 0.0,
			"0.013": 0.0,
			"0.014": 0.0,
			"0.015": 0.0,
			"0.016": 0.0,
			"0.017": 0.0,
			"0.018": 0.0,
			"0.019": 0.0,
			"0.02": 0.0,
			"0.021": 0.0,
			"0.022": 0.0,
			"0.023": 0.0,
			"0.024": 0.0,
			"0.025": 0.0
		}
	}
}
