{
	 "smiles": "ClC1=CC=C(OC(=O)C2=CC=C(OC3=CC=C(C=C3)C(=O)OC3=CC=C(Cl)C=C3)C=C2)C=C1", 
	 "Tm": 422.15, 
	 "num_atms": 49, 
	 "gaussian": { 
		 "optdone": 1, 
		 "sigma_profile": "yes", 
		 "theory": "DFT", 
		 "functional": "B3LYP", 
		 "basiset": "6-31G**", 
		 "properties": { 
			 "R2extent": 45162.144, 
			 "electric_dipole_moment_norm": 2.36438514206, 
			 "electric_quadrupole_moment_norm": 35.0967913975, 
			 "total_energy": -2296.93072595, 
			 "HOMO_LUMO_gap": 0.17194, 
			 "cosmo_polarized_energy": -15.45, 
			 "cosmo_cavitation_energy": 60.91, 
			 "cosmo_dispersion_energy": -43.59, 
			 "cosmo_repulsion_energy": 3.22, 
			 "cosmo_total_nonelectrostatic_energy": 20.54, 
			 "SMD_solvation_energy": 11.65 
		},
		"coords": [
			{
				"x": -7.6738173395,
				"y": -6.4177768665,
				"z": -6.8575482534,
				"element": "Cl" 
			},
			{
				"x": -6.8354683873,
				"y": -5.5900774966,
				"z": -5.5531936818,
				"element": "C" 
			},
			{
				"x": -5.7341742379,
				"y": -6.1973457777,
				"z": -4.9508323499,
				"element": "C" 
			},
			{
				"x": -5.0730429959,
				"y": -5.5338529348,
				"z": -3.9190687752,
				"element": "C" 
			},
			{
				"x": -5.5172258541,
				"y": -4.2800037814,
				"z": -3.5009164661,
				"element": "C" 
			},
			{
				"x": -4.8418050967,
				"y": -3.7341357974,
				"z": -2.4123744338,
				"element": "O" 
			},
			{
				"x": -4.5325457109,
				"y": -2.3983572735,
				"z": -2.3580382538,
				"element": "C" 
			},
			{
				"x": -4.8171121191,
				"y": -1.6024907156,
				"z": -3.225745678,
				"element": "O" 
			},
			{
				"x": -3.8077513869,
				"y": -2.06429499,
				"z": -1.1066553692,
				"element": "C" 
			},
			{
				"x": -3.421407639,
				"y": -0.7292427911,
				"z": -0.9160222968,
				"element": "C" 
			},
			{
				"x": -2.7401177959,
				"y": -0.3422640244,
				"z": 0.231721191,
				"element": "C" 
			},
			{
				"x": -2.4349555727,
				"y": -1.3062868904,
				"z": 1.2006252573,
				"element": "C" 
			},
			{
				"x": -1.8283189606,
				"y": -0.9968990148,
				"z": 2.3970394475,
				"element": "O" 
			},
			{
				"x": -0.8451590632,
				"y": -0.0369577576,
				"z": 2.4866508102,
				"element": "C" 
			},
			{
				"x": 0.1278291595,
				"y": 0.1474712225,
				"z": 1.4972560703,
				"element": "C" 
			},
			{
				"x": 1.1323283228,
				"y": 1.0892573074,
				"z": 1.6971253644,
				"element": "C" 
			},
			{
				"x": 1.1787316848,
				"y": 1.8421566822,
				"z": 2.8797767656,
				"element": "C" 
			},
			{
				"x": 0.2020891498,
				"y": 1.6352232784,
				"z": 3.8661126451,
				"element": "C" 
			},
			{
				"x": -0.8081697483,
				"y": 0.7024637329,
				"z": 3.673479329,
				"element": "C" 
			},
			{
				"x": 2.2259733762,
				"y": 2.8586334869,
				"z": 3.1501737697,
				"element": "C" 
			},
			{
				"x": 2.3080531661,
				"y": 3.5130502618,
				"z": 4.1660735384,
				"element": "O" 
			},
			{
				"x": 3.0970429288,
				"y": 2.9687355528,
				"z": 2.0954748387,
				"element": "O" 
			},
			{
				"x": 4.1603933677,
				"y": 3.8674694886,
				"z": 2.1219850071,
				"element": "C" 
			},
			{
				"x": 4.9851579444,
				"y": 4.0478689311,
				"z": 3.2334325793,
				"element": "C" 
			},
			{
				"x": 6.0743080776,
				"y": 4.9139626651,
				"z": 3.1377914583,
				"element": "C" 
			},
			{
				"x": 6.3279529448,
				"y": 5.5804749839,
				"z": 1.9394494522,
				"element": "C" 
			},
			{
				"x": 7.703837855,
				"y": 6.6684889761,
				"z": 1.8280483988,
				"element": "Cl" 
			},
			{
				"x": 5.5074218697,
				"y": 5.3954517725,
				"z": 0.827263204,
				"element": "C" 
			},
			{
				"x": 4.4169667065,
				"y": 4.5332483814,
				"z": 0.9239909463,
				"element": "C" 
			},
			{
				"x": -2.8193892529,
				"y": -2.6397918396,
				"z": 1.0287106891,
				"element": "C" 
			},
			{
				"x": -3.5045365971,
				"y": -3.0158179889,
				"z": -0.1207746239,
				"element": "C" 
			},
			{
				"x": -6.6233327569,
				"y": -3.6748079969,
				"z": -4.0995501967,
				"element": "C" 
			},
			{
				"x": -7.2825929142,
				"y": -4.3371714077,
				"z": -5.1350032526,
				"element": "C" 
			},
			{
				"x": -5.3978875001,
				"y": -7.1727560099,
				"z": -5.2836067186,
				"element": "H" 
			},
			{
				"x": -4.2141509292,
				"y": -5.9817176273,
				"z": -3.4306991533,
				"element": "H" 
			},
			{
				"x": -3.6734080034,
				"y": -0.0020600926,
				"z": -1.6803218896,
				"element": "H" 
			},
			{
				"x": -2.4543995096,
				"y": 0.6926822845,
				"z": 0.382006451,
				"element": "H" 
			},
			{
				"x": 0.10071028,
				"y": -0.4435420785,
				"z": 0.5887819501,
				"element": "H" 
			},
			{
				"x": 1.8911352092,
				"y": 1.2367067698,
				"z": 0.9378213216,
				"element": "H" 
			},
			{
				"x": 0.2503588969,
				"y": 2.22181025,
				"z": 4.7770275505,
				"element": "H" 
			},
			{
				"x": -1.5721110457,
				"y": 0.5298969772,
				"z": 4.4237556618,
				"element": "H" 
			},
			{
				"x": 4.7771225544,
				"y": 3.5336290351,
				"z": 4.1617236008,
				"element": "H" 
			},
			{
				"x": 6.7233804173,
				"y": 5.0682179847,
				"z": 3.9924152423,
				"element": "H" 
			},
			{
				"x": 5.7166104087,
				"y": 5.9178814295,
				"z": -0.0993192204,
				"element": "H" 
			},
			{
				"x": 3.7616099184,
				"y": 4.3685653302,
				"z": 0.0753652305,
				"element": "H" 
			},
			{
				"x": -2.5752001794,
				"y": -3.3593981865,
				"z": 1.8025783383,
				"element": "H" 
			},
			{
				"x": -3.803103118,
				"y": -4.0478901177,
				"z": -0.2606202163,
				"element": "H" 
			},
			{
				"x": -6.959030507,
				"y": -2.6994407284,
				"z": -3.7749032663,
				"element": "H" 
			},
			{
				"x": -8.1416000171,
				"y": -3.8801665987,
				"z": -5.6132620136,
				"element": "H" 
			}
		],
		 "valence_orbital": [ 
			{
				"type": "occ",
				"energy": -0.26918,
				"method": "rhf"
			},
			{
				"type": "occ",
				"energy": -0.26881,
				"method": "rhf"
			},
			{
				"type": "occ",
				"energy": -0.24719,
				"method": "rhf"
			},
			{
				"type": "occ",
				"energy": -0.2418,
				"method": "rhf"
			},
			{
				"type": "occ",
				"energy": -0.23891,
				"method": "rhf"
			},
			{
				"type": "unocc",
				"energy": -0.06697,
				"method": "rhf"
			},
			{
				"type": "unocc",
				"energy": -0.05482,
				"method": "rhf"
			},
			{
				"type": "unocc",
				"energy": -0.03187,
				"method": "rhf"
			},
			{
				"type": "unocc",
				"energy": -0.02055,
				"method": "rhf"
			},
			{
				"type": "unocc",
				"energy": -0.02022,
				"method": "rhf"
			}
		],
		"cosmo_sigma_profile": { 
			"-0.025": 0.0,
			"-0.024": 0.0,
			"-0.023": 0.0,
			"-0.022": 0.0,
			"-0.021": 0.0,
			"-0.02": 0.0,
			"-0.019": 0.0,
			"-0.018": 0.0,
			"-0.017": 0.0,
			"-0.016": 0.0,
			"-0.015": 0.0,
			"-0.014": 0.0,
			"-0.013": 0.0,
			"-0.012": 0.0,
			"-0.011": 0.0,
			"-0.01": 0.0,
			"-0.009": 0.0,
			"-0.008": 4.90298811478,
			"-0.007": 22.6543759287,
			"-0.006": 28.1931563172,
			"-0.005": 29.5543050197,
			"-0.004": 24.4298504654,
			"-0.003": 27.9932874765,
			"-0.002": 30.4589698658,
			"-0.001": 35.5919606702,
			"0.0": 43.1703660672,
			"0.001": 57.9922978752,
			"0.002": 72.2499331011,
			"0.003": 45.626657648,
			"0.004": 27.0441281511,
			"0.005": 16.9748126905,
			"0.006": 5.2266592782,
			"0.007": 3.75732893502,
			"0.008": 3.895012945,
			"0.009": 3.92202792559,
			"0.01": 4.87542961855,
			"0.011": 7.38818297554,
			"0.012": 0.726110593628,
			"0.013": 0.0,
			"0.014": 0.0,
			"0.015": 0.0,
			"0.016": 0.0,
			"0.017": 0.0,
			"0.018": 0.0,
			"0.019": 0.0,
			"0.02": 0.0,
			"0.021": 0.0,
			"0.022": 0.0,
			"0.023": 0.0,
			"0.024": 0.0,
			"0.025": 0.0
		}
	}
}
