{
	 "smiles": "CN(C)CCN1CC(CC1=O)C(O)=O", 
	 "Tm": 436.15, 
	 "num_atms": 30, 
	 "gaussian": { 
		 "optdone": 1, 
		 "sigma_profile": "yes", 
		 "theory": "DFT", 
		 "functional": "B3LYP", 
		 "basiset": "6-31G**", 
		 "properties": { 
			 "R2extent": 3552.5653, 
			 "electric_dipole_moment_norm": 4.81885913262, 
			 "electric_quadrupole_moment_norm": 11.4786066519, 
			 "total_energy": -687.796710431, 
			 "HOMO_LUMO_gap": 0.21743, 
			 "cosmo_polarized_energy": -16.71, 
			 "cosmo_cavitation_energy": 32.24, 
			 "cosmo_dispersion_energy": -21.82, 
			 "cosmo_repulsion_energy": 1.75, 
			 "cosmo_total_nonelectrostatic_energy": 12.17, 
			 "SMD_solvation_energy": 6.6 
		},
		"coords": [
			{
				"x": 2.2829115367,
				"y": -1.6602446187,
				"z": -0.0042150129,
				"element": "C" 
			},
			{
				"x": 1.6964718447,
				"y": -0.3816973185,
				"z": 0.3850040168,
				"element": "N" 
			},
			{
				"x": 2.6889711077,
				"y": 0.4585067022,
				"z": 1.0469544896,
				"element": "C" 
			},
			{
				"x": 1.0714098932,
				"y": 0.2924764863,
				"z": -0.7574313831,
				"element": "C" 
			},
			{
				"x": 0.0347411319,
				"y": 1.3536191308,
				"z": -0.3669574198,
				"element": "C" 
			},
			{
				"x": -1.1493278558,
				"y": 0.8052773032,
				"z": 0.2703800276,
				"element": "N" 
			},
			{
				"x": -1.2012098232,
				"y": 0.4457218578,
				"z": 1.6805950516,
				"element": "C" 
			},
			{
				"x": -2.5957151634,
				"y": -0.2334426649,
				"z": 1.830542538,
				"element": "C" 
			},
			{
				"x": -3.4097511508,
				"y": 0.2944349957,
				"z": 0.6406479654,
				"element": "C" 
			},
			{
				"x": -2.3730814369,
				"y": 0.8131851391,
				"z": -0.3553748281,
				"element": "C" 
			},
			{
				"x": -2.5823366076,
				"y": 1.1866761081,
				"z": -1.4991930473,
				"element": "O" 
			},
			{
				"x": -2.4705708935,
				"y": -1.7498191599,
				"z": 1.8072239995,
				"element": "C" 
			},
			{
				"x": -1.7852841133,
				"y": -2.1980635045,
				"z": 2.8881269081,
				"element": "O" 
			},
			{
				"x": -2.9149362061,
				"y": -2.4967130266,
				"z": 0.9646716424,
				"element": "O" 
			},
			{
				"x": 1.5130690557,
				"y": -2.3064183661,
				"z": -0.4365606701,
				"element": "H" 
			},
			{
				"x": 3.1006593496,
				"y": -1.5588280394,
				"z": -0.7432301834,
				"element": "H" 
			},
			{
				"x": 2.6913813598,
				"y": -2.1618001001,
				"z": 0.8791184896,
				"element": "H" 
			},
			{
				"x": 2.2357903291,
				"y": 1.3910420972,
				"z": 1.3946486731,
				"element": "H" 
			},
			{
				"x": 3.5394020297,
				"y": 0.7199851456,
				"z": 0.3878777994,
				"element": "H" 
			},
			{
				"x": 3.0869201411,
				"y": -0.0621530994,
				"z": 1.923538239,
				"element": "H" 
			},
			{
				"x": 1.8285662107,
				"y": 0.7644776356,
				"z": -1.4155064893,
				"element": "H" 
			},
			{
				"x": 0.5558266045,
				"y": -0.4635210175,
				"z": -1.3581163131,
				"element": "H" 
			},
			{
				"x": 0.4774299728,
				"y": 2.1188567082,
				"z": 0.2844244628,
				"element": "H" 
			},
			{
				"x": -0.3134814968,
				"y": 1.8519075148,
				"z": -1.2765803953,
				"element": "H" 
			},
			{
				"x": -0.373032904,
				"y": -0.2158695689,
				"z": 1.9401517926,
				"element": "H" 
			},
			{
				"x": -1.1371326237,
				"y": 1.341593025,
				"z": 2.3173867632,
				"element": "H" 
			},
			{
				"x": -3.030106847,
				"y": 0.0291293191,
				"z": 2.799672758,
				"element": "H" 
			},
			{
				"x": -4.0208842766,
				"y": -0.4801160472,
				"z": 0.1744634664,
				"element": "H" 
			},
			{
				"x": -4.0651606232,
				"y": 1.1245299311,
				"z": 0.9240895725,
				"element": "H" 
			},
			{
				"x": -1.7396385453,
				"y": -3.164732568,
				"z": 2.7986470865,
				"element": "H" 
			}
		],
		 "valence_orbital": [ 
			{
				"type": "occ",
				"energy": -0.32506,
				"method": "rhf"
			},
			{
				"type": "occ",
				"energy": -0.28166,
				"method": "rhf"
			},
			{
				"type": "occ",
				"energy": -0.24158,
				"method": "rhf"
			},
			{
				"type": "occ",
				"energy": -0.23872,
				"method": "rhf"
			},
			{
				"type": "occ",
				"energy": -0.21777,
				"method": "rhf"
			},
			{
				"type": "unocc",
				"energy": -0.00034,
				"method": "rhf"
			},
			{
				"type": "unocc",
				"energy": 0.03569,
				"method": "rhf"
			},
			{
				"type": "unocc",
				"energy": 0.07006,
				"method": "rhf"
			},
			{
				"type": "unocc",
				"energy": 0.07883,
				"method": "rhf"
			},
			{
				"type": "unocc",
				"energy": 0.09418,
				"method": "rhf"
			}
		],
		"cosmo_sigma_profile": { 
			"-0.025": 0.0,
			"-0.024": 0.0,
			"-0.023": 0.0,
			"-0.022": 0.0,
			"-0.021": 0.0,
			"-0.02": 0.0,
			"-0.019": 0.0131555740844,
			"-0.018": 1.00914075444,
			"-0.017": 0.470194527764,
			"-0.016": 0.981778943345,
			"-0.015": 0.998660756676,
			"-0.014": 0.957134480071,
			"-0.013": 0.639739921009,
			"-0.012": 0.26119245715,
			"-0.011": 0.606602644545,
			"-0.01": 1.10207504992,
			"-0.009": 0.296684308682,
			"-0.008": 0.729500026633,
			"-0.007": 4.02537963314,
			"-0.006": 9.13537055315,
			"-0.005": 15.7998693236,
			"-0.004": 22.6766646465,
			"-0.003": 22.2532852031,
			"-0.002": 31.816975373,
			"-0.001": 33.6031934604,
			"0.0": 25.4208226154,
			"0.001": 10.9251173569,
			"0.002": 8.06484476314,
			"0.003": 5.59434505056,
			"0.004": 6.31794108807,
			"0.005": 5.51446680621,
			"0.006": 4.55833423344,
			"0.007": 4.70812810105,
			"0.008": 4.74888569703,
			"0.009": 4.56401985463,
			"0.01": 3.0188691054,
			"0.011": 5.50574742511,
			"0.012": 4.57906998241,
			"0.013": 2.64439784164,
			"0.014": 5.72039664019,
			"0.015": 1.78888747638,
			"0.016": 0.0397328561041,
			"0.017": 0.0,
			"0.018": 0.0,
			"0.019": 0.0,
			"0.02": 0.0,
			"0.021": 0.0,
			"0.022": 0.0,
			"0.023": 0.0,
			"0.024": 0.0,
			"0.025": 0.0
		}
	}
}
