{
	 "smiles": "CC1=CC=CC=C1N1CSC2=NN=C(N2C1)C1=CC=CC=C1", 
	 "Tm": 472.15, 
	 "num_atms": 38, 
	 "gaussian": { 
		 "optdone": 1, 
		 "sigma_profile": "yes", 
		 "theory": "DFT", 
		 "functional": "B3LYP", 
		 "basiset": "6-31G**", 
		 "properties": { 
			 "R2extent": 8148.3535, 
			 "electric_dipole_moment_norm": 7.31421042492, 
			 "electric_quadrupole_moment_norm": 26.1437998001, 
			 "total_energy": -1274.60800476, 
			 "HOMO_LUMO_gap": 0.18257, 
			 "cosmo_polarized_energy": -21.38, 
			 "cosmo_cavitation_energy": 42.24, 
			 "cosmo_dispersion_energy": -29.74, 
			 "cosmo_repulsion_energy": 2.18, 
			 "cosmo_total_nonelectrostatic_energy": 14.67, 
			 "SMD_solvation_energy": 3.46 
		},
		"coords": [
			{
				"x": -0.2720611318,
				"y": 0.4650802094,
				"z": -2.2393306653,
				"element": "C" 
			},
			{
				"x": 0.28463061,
				"y": 1.7635962262,
				"z": -1.7095016304,
				"element": "C" 
			},
			{
				"x": 1.1445942613,
				"y": 2.5394850412,
				"z": -2.4964897772,
				"element": "C" 
			},
			{
				"x": 1.6487947517,
				"y": 3.7613390125,
				"z": -2.0511476931,
				"element": "C" 
			},
			{
				"x": 1.2962817305,
				"y": 4.2334472112,
				"z": -0.7876614886,
				"element": "C" 
			},
			{
				"x": 0.4547579611,
				"y": 3.4720854278,
				"z": 0.0220768764,
				"element": "C" 
			},
			{
				"x": -0.0552297921,
				"y": 2.2451145561,
				"z": -0.4259576326,
				"element": "C" 
			},
			{
				"x": -0.9442735862,
				"y": 1.4738048152,
				"z": 0.3947535152,
				"element": "N" 
			},
			{
				"x": -1.8929860568,
				"y": 2.1911985746,
				"z": 1.2185380902,
				"element": "C" 
			},
			{
				"x": -3.4432755816,
				"y": 1.2052740089,
				"z": 1.45560208,
				"element": "S" 
			},
			{
				"x": -2.6521943762,
				"y": -0.3233695368,
				"z": 1.8273277615,
				"element": "C" 
			},
			{
				"x": -3.2382724203,
				"y": -1.3499125874,
				"z": 2.3959527361,
				"element": "N" 
			},
			{
				"x": -2.3064730327,
				"y": -2.3647603774,
				"z": 2.4525361354,
				"element": "N" 
			},
			{
				"x": -1.185492468,
				"y": -1.9268107783,
				"z": 1.9189125333,
				"element": "C" 
			},
			{
				"x": -1.3546244318,
				"y": -0.6231551902,
				"z": 1.4764377579,
				"element": "N" 
			},
			{
				"x": -0.3319230578,
				"y": 0.356700679,
				"z": 1.0887384223,
				"element": "C" 
			},
			{
				"x": 0.0535482619,
				"y": -2.716069003,
				"z": 1.8325683071,
				"element": "C" 
			},
			{
				"x": 0.4217253705,
				"y": -3.5101679357,
				"z": 2.9310925862,
				"element": "C" 
			},
			{
				"x": 1.5705027319,
				"y": -4.2965039073,
				"z": 2.8784825601,
				"element": "C" 
			},
			{
				"x": 2.3691784774,
				"y": -4.3011001423,
				"z": 1.732250865,
				"element": "C" 
			},
			{
				"x": 2.0020336752,
				"y": -3.527802742,
				"z": 0.6295733559,
				"element": "C" 
			},
			{
				"x": 0.8484476686,
				"y": -2.7454427284,
				"z": 0.6751114504,
				"element": "C" 
			},
			{
				"x": -0.317990983,
				"y": 0.4799472517,
				"z": -3.3316576504,
				"element": "H" 
			},
			{
				"x": -1.2738890234,
				"y": 0.2783531934,
				"z": -1.8444371362,
				"element": "H" 
			},
			{
				"x": 0.3546869439,
				"y": -0.3929929401,
				"z": -1.9607303709,
				"element": "H" 
			},
			{
				"x": 1.4048668559,
				"y": 2.1825801384,
				"z": -3.4898532381,
				"element": "H" 
			},
			{
				"x": 2.3045976953,
				"y": 4.3436739569,
				"z": -2.6914597853,
				"element": "H" 
			},
			{
				"x": 1.6790126798,
				"y": 5.1836528833,
				"z": -0.4272066723,
				"element": "H" 
			},
			{
				"x": 0.1949227579,
				"y": 3.8315460888,
				"z": 1.0134438348,
				"element": "H" 
			},
			{
				"x": -1.5001439349,
				"y": 2.4481528062,
				"z": 2.2137724328,
				"element": "H" 
			},
			{
				"x": -2.2040316013,
				"y": 3.1051263343,
				"z": 0.7122070104,
				"element": "H" 
			},
			{
				"x": 0.1996959927,
				"y": 0.6806026747,
				"z": 2.0017656397,
				"element": "H" 
			},
			{
				"x": 0.3927843378,
				"y": -0.1217038698,
				"z": 0.4340349568,
				"element": "H" 
			},
			{
				"x": -0.207361421,
				"y": -3.5019578284,
				"z": 3.8146677271,
				"element": "H" 
			},
			{
				"x": 1.8448085784,
				"y": -4.9048109713,
				"z": 3.7353954352,
				"element": "H" 
			},
			{
				"x": 3.2670595034,
				"y": -4.9109714375,
				"z": 1.6950285849,
				"element": "H" 
			},
			{
				"x": 2.6050959994,
				"y": -3.5447844854,
				"z": -0.2735928445,
				"element": "H" 
			},
			{
				"x": 0.5423960545,
				"y": -2.1912446285,
				"z": -0.2072440699,
				"element": "H" 
			}
		],
		 "valence_orbital": [ 
			{
				"type": "occ",
				"energy": -0.26028,
				"method": "rhf"
			},
			{
				"type": "occ",
				"energy": -0.25826,
				"method": "rhf"
			},
			{
				"type": "occ",
				"energy": -0.24793,
				"method": "rhf"
			},
			{
				"type": "occ",
				"energy": -0.23384,
				"method": "rhf"
			},
			{
				"type": "occ",
				"energy": -0.21541,
				"method": "rhf"
			},
			{
				"type": "unocc",
				"energy": -0.03284,
				"method": "rhf"
			},
			{
				"type": "unocc",
				"energy": -0.01727,
				"method": "rhf"
			},
			{
				"type": "unocc",
				"energy": -0.0162,
				"method": "rhf"
			},
			{
				"type": "unocc",
				"energy": -0.01195,
				"method": "rhf"
			},
			{
				"type": "unocc",
				"energy": 0.00837,
				"method": "rhf"
			}
		],
		"cosmo_sigma_profile": { 
			"-0.025": 0.0,
			"-0.024": 0.0,
			"-0.023": 0.0,
			"-0.022": 0.0,
			"-0.021": 0.0,
			"-0.02": 0.0,
			"-0.019": 0.0,
			"-0.018": 0.0,
			"-0.017": 0.0,
			"-0.016": 0.0,
			"-0.015": 0.0,
			"-0.014": 0.0,
			"-0.013": 0.0,
			"-0.012": 0.0,
			"-0.011": 0.0,
			"-0.01": 0.117518290615,
			"-0.009": 3.16387096732,
			"-0.008": 6.61969479267,
			"-0.007": 14.5578596335,
			"-0.006": 24.0286998258,
			"-0.005": 28.4771097336,
			"-0.004": 27.9702102064,
			"-0.003": 21.9422724978,
			"-0.002": 22.0397218893,
			"-0.001": 20.6277968431,
			"0.0": 21.572073006,
			"0.001": 22.6984267442,
			"0.002": 21.4364901397,
			"0.003": 22.2604573021,
			"0.004": 25.4560008337,
			"0.005": 17.6270073981,
			"0.006": 11.0295202876,
			"0.007": 4.57046540361,
			"0.008": 2.2896786364,
			"0.009": 2.85373122564,
			"0.01": 1.75012978811,
			"0.011": 2.56953966196,
			"0.012": 2.89268337883,
			"0.013": 2.69287383506,
			"0.014": 3.56707908472,
			"0.015": 2.5029721695,
			"0.016": 2.11142668767,
			"0.017": 0.472948882009,
			"0.018": 0.0,
			"0.019": 0.0,
			"0.02": 0.0,
			"0.021": 0.0,
			"0.022": 0.0,
			"0.023": 0.0,
			"0.024": 0.0,
			"0.025": 0.0
		}
	}
}
