{
	 "smiles": "CC(=O)C1=CC=C(NC(=O)C(F)(F)C(F)(F)C(F)(F)C(F)(F)C(F)(F)C(F)(F)C(F)(F)C(F)(F)F)C=C1", 
	 "Tm": 428.15, 
	 "num_atms": 45, 
	 "gaussian": { 
		 "optdone": 1, 
		 "sigma_profile": "yes", 
		 "theory": "DFT", 
		 "functional": "B3LYP", 
		 "basiset": "6-31G**", 
		 "properties": { 
			 "R2extent": 22122.1712, 
			 "electric_dipole_moment_norm": 0.569534590697, 
			 "electric_quadrupole_moment_norm": 22.4345342691, 
			 "total_energy": -2555.06090542, 
			 "HOMO_LUMO_gap": 0.17763, 
			 "cosmo_polarized_energy": -14.12, 
			 "cosmo_cavitation_energy": 55.78, 
			 "cosmo_dispersion_energy": -35.3, 
			 "cosmo_repulsion_energy": 2.32, 
			 "cosmo_total_nonelectrostatic_energy": 22.8, 
			 "SMD_solvation_energy": 15.55 
		},
		"coords": [
			{
				"x": 3.405879541,
				"y": 2.1798622285,
				"z": -4.9371242094,
				"element": "C" 
			},
			{
				"x": 2.1351253242,
				"y": 1.4334837783,
				"z": -4.5685852597,
				"element": "C" 
			},
			{
				"x": 1.2203664085,
				"y": 1.3255998674,
				"z": -5.3722066742,
				"element": "O" 
			},
			{
				"x": 2.0204050735,
				"y": 0.8306713556,
				"z": -3.2024789701,
				"element": "C" 
			},
			{
				"x": 0.8391672182,
				"y": 0.1439725874,
				"z": -2.8773281532,
				"element": "C" 
			},
			{
				"x": 0.6778794299,
				"y": -0.4341964822,
				"z": -1.6290779348,
				"element": "C" 
			},
			{
				"x": 1.7001513871,
				"y": -0.3395982171,
				"z": -0.6683583676,
				"element": "C" 
			},
			{
				"x": 1.4648645732,
				"y": -0.9539316427,
				"z": 0.5787611755,
				"element": "N" 
			},
			{
				"x": 2.2817798713,
				"y": -0.9896849266,
				"z": 1.6679345332,
				"element": "C" 
			},
			{
				"x": 3.3926785478,
				"y": -0.5061332803,
				"z": 1.7809556478,
				"element": "O" 
			},
			{
				"x": 1.6820465542,
				"y": -1.7795433707,
				"z": 2.8646076304,
				"element": "C" 
			},
			{
				"x": 0.5232193599,
				"y": -2.4276487203,
				"z": 2.5116051352,
				"element": "F" 
			},
			{
				"x": 2.5825494707,
				"y": -2.7151676246,
				"z": 3.2375501218,
				"element": "F" 
			},
			{
				"x": 1.3701069063,
				"y": -0.9380378121,
				"z": 4.1294975887,
				"element": "C" 
			},
			{
				"x": 2.5229072013,
				"y": -0.383195959,
				"z": 4.5590833014,
				"element": "F" 
			},
			{
				"x": 0.9089803017,
				"y": -1.7774863747,
				"z": 5.0858233594,
				"element": "F" 
			},
			{
				"x": 0.3582588803,
				"y": 0.2397877165,
				"z": 3.98315123,
				"element": "C" 
			},
			{
				"x": 0.3132003207,
				"y": 0.8474436109,
				"z": 5.1897965993,
				"element": "F" 
			},
			{
				"x": 0.8615641773,
				"y": 1.1086157805,
				"z": 3.0719080178,
				"element": "F" 
			},
			{
				"x": -1.0976978562,
				"y": -0.1150046935,
				"z": 3.5444913846,
				"element": "C" 
			},
			{
				"x": -1.0770843221,
				"y": -0.3063053181,
				"z": 2.1950324724,
				"element": "F" 
			},
			{
				"x": -1.5048349531,
				"y": -1.2516380459,
				"z": 4.1429638528,
				"element": "F" 
			},
			{
				"x": -2.1355422701,
				"y": 0.9982809645,
				"z": 3.8544429543,
				"element": "C" 
			},
			{
				"x": -1.6679898421,
				"y": 2.1755873085,
				"z": 3.3849261051,
				"element": "F" 
			},
			{
				"x": -2.2751958135,
				"y": 1.0775668372,
				"z": 5.1969616231,
				"element": "F" 
			},
			{
				"x": -3.5862416881,
				"y": 0.7796374318,
				"z": 3.3079803781,
				"element": "C" 
			},
			{
				"x": -4.2903645477,
				"y": 1.8537980844,
				"z": 3.744943341,
				"element": "F" 
			},
			{
				"x": -4.0873298152,
				"y": -0.3358964717,
				"z": 3.8795533809,
				"element": "F" 
			},
			{
				"x": -3.787562637,
				"y": 0.6697397143,
				"z": 1.7694521548,
				"element": "C" 
			},
			{
				"x": -3.5408699206,
				"y": -0.6050671829,
				"z": 1.3906140017,
				"element": "F" 
			},
			{
				"x": -2.9330293603,
				"y": 1.4997685359,
				"z": 1.1296674549,
				"element": "F" 
			},
			{
				"x": -5.2263072156,
				"y": 1.0202578108,
				"z": 1.3005222622,
				"element": "C" 
			},
			{
				"x": -6.1280779837,
				"y": 0.3706812038,
				"z": 2.0487774256,
				"element": "F" 
			},
			{
				"x": -5.4437662771,
				"y": 2.3351030456,
				"z": 1.3854239384,
				"element": "F" 
			},
			{
				"x": -5.3671408586,
				"y": 0.640885711,
				"z": 0.0251517703,
				"element": "F" 
			},
			{
				"x": 2.8866031824,
				"y": 0.3423157003,
				"z": -0.9746511603,
				"element": "C" 
			},
			{
				"x": 3.0311240768,
				"y": 0.9177568569,
				"z": -2.2352094513,
				"element": "C" 
			},
			{
				"x": 4.2816903853,
				"y": 1.5254299552,
				"z": -4.865600871,
				"element": "H" 
			},
			{
				"x": 3.5749803137,
				"y": 3.0264258825,
				"z": -4.2624670189,
				"element": "H" 
			},
			{
				"x": 3.3107280543,
				"y": 2.5459009942,
				"z": -5.9596371554,
				"element": "H" 
			},
			{
				"x": 0.0594422911,
				"y": 0.0795455757,
				"z": -3.6285453739,
				"element": "H" 
			},
			{
				"x": -0.2419656307,
				"y": -0.9618714977,
				"z": -1.3878001638,
				"element": "H" 
			},
			{
				"x": 0.5744538464,
				"y": -1.4216582595,
				"z": 0.6799993156,
				"element": "H" 
			},
			{
				"x": 3.6715362732,
				"y": 0.414174972,
				"z": -0.2354344599,
				"element": "H" 
			},
			{
				"x": 3.9552120213,
				"y": 1.4417723699,
				"z": -2.4563729329,
				"element": "H" 
			}
		],
		 "valence_orbital": [ 
			{
				"type": "occ",
				"energy": -0.32905,
				"method": "rhf"
			},
			{
				"type": "occ",
				"energy": -0.29167,
				"method": "rhf"
			},
			{
				"type": "occ",
				"energy": -0.27387,
				"method": "rhf"
			},
			{
				"type": "occ",
				"energy": -0.25276,
				"method": "rhf"
			},
			{
				"type": "occ",
				"energy": -0.24802,
				"method": "rhf"
			},
			{
				"type": "unocc",
				"energy": -0.07039,
				"method": "rhf"
			},
			{
				"type": "unocc",
				"energy": -0.02618,
				"method": "rhf"
			},
			{
				"type": "unocc",
				"energy": -0.02139,
				"method": "rhf"
			},
			{
				"type": "unocc",
				"energy": -0.00437,
				"method": "rhf"
			},
			{
				"type": "unocc",
				"energy": 0.00823,
				"method": "rhf"
			}
		],
		"cosmo_sigma_profile": { 
			"-0.025": 0.0,
			"-0.024": 0.0,
			"-0.023": 0.0,
			"-0.022": 0.0,
			"-0.021": 0.0,
			"-0.02": 0.0,
			"-0.019": 0.0,
			"-0.018": 0.0,
			"-0.017": 0.0,
			"-0.016": 0.15788913129,
			"-0.015": 1.08504767688,
			"-0.014": 0.718682611441,
			"-0.013": 0.74766448194,
			"-0.012": 1.05264611722,
			"-0.011": 1.21627796611,
			"-0.01": 1.64081765686,
			"-0.009": 1.16744827294,
			"-0.008": 3.004346545,
			"-0.007": 6.03933788475,
			"-0.006": 13.9171084498,
			"-0.005": 15.2364889652,
			"-0.004": 14.3632555475,
			"-0.003": 18.2462451545,
			"-0.002": 29.4878101288,
			"-0.001": 48.3390791299,
			"0.0": 85.9879666282,
			"0.001": 122.298562773,
			"0.002": 29.2034403123,
			"0.003": 16.3087103392,
			"0.004": 4.48671878239,
			"0.005": 4.45998013669,
			"0.006": 3.02953331667,
			"0.007": 3.85506190485,
			"0.008": 3.43311638633,
			"0.009": 4.34306794963,
			"0.01": 4.97096525168,
			"0.011": 3.93712081661,
			"0.012": 3.80179237916,
			"0.013": 1.52394629054,
			"0.014": 0.0981095609804,
			"0.015": 0.0,
			"0.016": 0.0,
			"0.017": 0.0,
			"0.018": 0.0,
			"0.019": 0.0,
			"0.02": 0.0,
			"0.021": 0.0,
			"0.022": 0.0,
			"0.023": 0.0,
			"0.024": 0.0,
			"0.025": 0.0
		}
	}
}
