{
	 "smiles": "CN1N=CC2=C1N=C(C)C=C2C(O)=O", 
	 "Tm": 558.15, 
	 "num_atms": 23, 
	 "gaussian": { 
		 "optdone": 1, 
		 "sigma_profile": "yes", 
		 "theory": "DFT", 
		 "functional": "B3LYP", 
		 "basiset": "6-31G**", 
		 "properties": { 
			 "R2extent": 5000.8278, 
			 "electric_dipole_moment_norm": 4.03126662105, 
			 "electric_quadrupole_moment_norm": 19.7362517265, 
			 "total_energy": -663.085444093, 
			 "HOMO_LUMO_gap": 0.17052, 
			 "cosmo_polarized_energy": -14.19, 
			 "cosmo_cavitation_energy": 27.52, 
			 "cosmo_dispersion_energy": -20.28, 
			 "cosmo_repulsion_energy": 1.59, 
			 "cosmo_total_nonelectrostatic_energy": 8.82, 
			 "SMD_solvation_energy": 3.89 
		},
		"coords": [
			{
				"x": -2.602166689,
				"y": 1.4649549786,
				"z": 1.6468928332,
				"element": "C" 
			},
			{
				"x": -1.2562645073,
				"y": 1.9796220329,
				"z": 1.4826545708,
				"element": "N" 
			},
			{
				"x": -1.0414481012,
				"y": 3.2668744222,
				"z": 1.1198541205,
				"element": "N" 
			},
			{
				"x": 0.2725332546,
				"y": 3.4408411936,
				"z": 1.0770576396,
				"element": "C" 
			},
			{
				"x": 0.9610572362,
				"y": 2.2391045621,
				"z": 1.4176738123,
				"element": "C" 
			},
			{
				"x": -0.0805089151,
				"y": 1.3136856802,
				"z": 1.6858053025,
				"element": "C" 
			},
			{
				"x": 0.0459532332,
				"y": 0.0399618784,
				"z": 2.0753271936,
				"element": "N" 
			},
			{
				"x": 1.3012731135,
				"y": -0.3832002889,
				"z": 2.2401386753,
				"element": "C" 
			},
			{
				"x": 1.4963843108,
				"y": -1.8086118365,
				"z": 2.6890542341,
				"element": "C" 
			},
			{
				"x": 2.4293530898,
				"y": 0.4489128571,
				"z": 2.0052550339,
				"element": "C" 
			},
			{
				"x": 2.280853571,
				"y": 1.7580842944,
				"z": 1.5740586373,
				"element": "C" 
			},
			{
				"x": 3.5083115672,
				"y": 2.5786036499,
				"z": 1.3030909668,
				"element": "C" 
			},
			{
				"x": 3.3516201659,
				"y": 3.6029514823,
				"z": 0.4245824169,
				"element": "O" 
			},
			{
				"x": 4.580968664,
				"y": 2.3623927779,
				"z": 1.8121265935,
				"element": "O" 
			},
			{
				"x": -3.1547630936,
				"y": 1.5512038603,
				"z": 0.7079596929,
				"element": "H" 
			},
			{
				"x": -2.5206511676,
				"y": 0.4163589266,
				"z": 1.9343677482,
				"element": "H" 
			},
			{
				"x": -3.1280909289,
				"y": 2.0231411251,
				"z": 2.4258397532,
				"element": "H" 
			},
			{
				"x": 0.6677867348,
				"y": 4.4208996831,
				"z": 0.8429187187,
				"element": "H" 
			},
			{
				"x": 2.0776894457,
				"y": -2.3769481764,
				"z": 1.9542087575,
				"element": "H" 
			},
			{
				"x": 2.0465832637,
				"y": -1.8496725325,
				"z": 3.6358360772,
				"element": "H" 
			},
			{
				"x": 0.5277183231,
				"y": -2.2922103984,
				"z": 2.8224296184,
				"element": "H" 
			},
			{
				"x": 3.4308276959,
				"y": 0.0594094202,
				"z": 2.1524269162,
				"element": "H" 
			},
			{
				"x": 2.4861797333,
				"y": 3.542240408,
				"z": -0.0057593126,
				"element": "H" 
			}
		],
		 "valence_orbital": [ 
			{
				"type": "occ",
				"energy": -0.31121,
				"method": "rhf"
			},
			{
				"type": "occ",
				"energy": -0.2885,
				"method": "rhf"
			},
			{
				"type": "occ",
				"energy": -0.27777,
				"method": "rhf"
			},
			{
				"type": "occ",
				"energy": -0.25863,
				"method": "rhf"
			},
			{
				"type": "occ",
				"energy": -0.24826,
				"method": "rhf"
			},
			{
				"type": "unocc",
				"energy": -0.07774,
				"method": "rhf"
			},
			{
				"type": "unocc",
				"energy": -0.0155,
				"method": "rhf"
			},
			{
				"type": "unocc",
				"energy": 0.0179,
				"method": "rhf"
			},
			{
				"type": "unocc",
				"energy": 0.04166,
				"method": "rhf"
			},
			{
				"type": "unocc",
				"energy": 0.0797,
				"method": "rhf"
			}
		],
		"cosmo_sigma_profile": { 
			"-0.025": 0.0,
			"-0.024": 0.0,
			"-0.023": 0.0,
			"-0.022": 0.0,
			"-0.021": 0.0,
			"-0.02": 0.0,
			"-0.019": 0.0,
			"-0.018": 0.0462750538273,
			"-0.017": 0.437154670802,
			"-0.016": 1.05190896734,
			"-0.015": 0.915062995763,
			"-0.014": 0.960340091318,
			"-0.013": 1.40185656116,
			"-0.012": 1.15543392247,
			"-0.011": 1.24029883026,
			"-0.01": 1.296273002,
			"-0.009": 1.69335604441,
			"-0.008": 1.98541975273,
			"-0.007": 3.93241037989,
			"-0.006": 10.4376822146,
			"-0.005": 16.0720896952,
			"-0.004": 17.9352413516,
			"-0.003": 20.0718465772,
			"-0.002": 15.8419574634,
			"-0.001": 22.599108585,
			"0.0": 19.5325863801,
			"0.001": 12.3890633574,
			"0.002": 7.82553118218,
			"0.003": 6.95722652353,
			"0.004": 6.44865018148,
			"0.005": 5.58291362903,
			"0.006": 5.13017168902,
			"0.007": 4.66838783395,
			"0.008": 5.9675837981,
			"0.009": 5.8754296957,
			"0.01": 8.26373509035,
			"0.011": 6.70524635028,
			"0.012": 3.65916579278,
			"0.013": 1.22624273105,
			"0.014": 0.793309061726,
			"0.015": 0.0912225044179,
			"0.016": 0.0,
			"0.017": 0.0,
			"0.018": 0.0,
			"0.019": 0.0,
			"0.02": 0.0,
			"0.021": 0.0,
			"0.022": 0.0,
			"0.023": 0.0,
			"0.024": 0.0,
			"0.025": 0.0
		}
	}
}
