{
	 "smiles": "NC(C1CCCCC1)C(O)=O", 
	 "Tm": 529.15, 
	 "num_atms": 26, 
	 "gaussian": { 
		 "optdone": 1, 
		 "sigma_profile": "yes", 
		 "theory": "DFT", 
		 "functional": "B3LYP", 
		 "basiset": "6-31G**", 
		 "properties": { 
			 "R2extent": 2733.991, 
			 "electric_dipole_moment_norm": 4.28418243659, 
			 "electric_quadrupole_moment_norm": 21.1865172926, 
			 "total_energy": -519.10098757, 
			 "HOMO_LUMO_gap": 0.24417, 
			 "cosmo_polarized_energy": -15.23, 
			 "cosmo_cavitation_energy": 26.25, 
			 "cosmo_dispersion_energy": -19.28, 
			 "cosmo_repulsion_energy": 1.55, 
			 "cosmo_total_nonelectrostatic_energy": 8.52, 
			 "SMD_solvation_energy": 3.42 
		},
		"coords": [
			{
				"x": -2.837097518,
				"y": 0.6562086365,
				"z": 1.8321422351,
				"element": "N" 
			},
			{
				"x": -1.4563388467,
				"y": 1.0127766396,
				"z": 2.1131154395,
				"element": "C" 
			},
			{
				"x": -0.3617436161,
				"y": 0.4546602058,
				"z": 1.1410141938,
				"element": "C" 
			},
			{
				"x": -0.3819030717,
				"y": -1.0985731931,
				"z": 1.0187880018,
				"element": "C" 
			},
			{
				"x": -0.9677188219,
				"y": -1.5774748259,
				"z": -0.3177574308,
				"element": "C" 
			},
			{
				"x": -0.1598666706,
				"y": -1.0490652141,
				"z": -1.5228410858,
				"element": "C" 
			},
			{
				"x": 0.3864011827,
				"y": 0.3816163583,
				"z": -1.2811785288,
				"element": "C" 
			},
			{
				"x": -0.4539477756,
				"y": 1.1367830714,
				"z": -0.2425383476,
				"element": "C" 
			},
			{
				"x": -1.1370863406,
				"y": 0.5440894067,
				"z": 3.5350588822,
				"element": "C" 
			},
			{
				"x": -0.1380055492,
				"y": 1.205431083,
				"z": 4.1710684831,
				"element": "O" 
			},
			{
				"x": -1.6777935016,
				"y": -0.3957049309,
				"z": 4.0671330692,
				"element": "O" 
			},
			{
				"x": -3.0212447408,
				"y": 0.6190169276,
				"z": 0.8355828376,
				"element": "H" 
			},
			{
				"x": -3.0393131216,
				"y": -0.2506833333,
				"z": 2.2442718528,
				"element": "H" 
			},
			{
				"x": -1.3666428588,
				"y": 2.1122970527,
				"z": 2.0910257631,
				"element": "H" 
			},
			{
				"x": 0.6090748647,
				"y": 0.7449766199,
				"z": 1.5689758472,
				"element": "H" 
			},
			{
				"x": -0.9371732541,
				"y": -1.5371919998,
				"z": 1.8540543157,
				"element": "H" 
			},
			{
				"x": 0.643703274,
				"y": -1.4768071466,
				"z": 1.1082938656,
				"element": "H" 
			},
			{
				"x": -2.0091770829,
				"y": -1.2408633489,
				"z": -0.3921316009,
				"element": "H" 
			},
			{
				"x": -1.005233799,
				"y": -2.6722421604,
				"z": -0.3404664811,
				"element": "H" 
			},
			{
				"x": -0.7946107542,
				"y": -1.0630726822,
				"z": -2.4166092959,
				"element": "H" 
			},
			{
				"x": 0.6768209924,
				"y": -1.7256228796,
				"z": -1.7327899352,
				"element": "H" 
			},
			{
				"x": 1.4213751268,
				"y": 0.3305072344,
				"z": -0.9185220214,
				"element": "H" 
			},
			{
				"x": 0.4220948831,
				"y": 0.9406738414,
				"z": -2.2225245956,
				"element": "H" 
			},
			{
				"x": -1.4971905094,
				"y": 1.1734705742,
				"z": -0.5859268073,
				"element": "H" 
			},
			{
				"x": -0.126204053,
				"y": 2.1801988866,
				"z": -0.1601485588,
				"element": "H" 
			},
			{
				"x": 0.1548215621,
				"y": 1.9569951766,
				"z": 3.6359099028,
				"element": "H" 
			}
		],
		 "valence_orbital": [ 
			{
				"type": "occ",
				"energy": -0.3165,
				"method": "rhf"
			},
			{
				"type": "occ",
				"energy": -0.30896,
				"method": "rhf"
			},
			{
				"type": "occ",
				"energy": -0.30753,
				"method": "rhf"
			},
			{
				"type": "occ",
				"energy": -0.27259,
				"method": "rhf"
			},
			{
				"type": "occ",
				"energy": -0.23767,
				"method": "rhf"
			},
			{
				"type": "unocc",
				"energy": 0.0065,
				"method": "rhf"
			},
			{
				"type": "unocc",
				"energy": 0.04429,
				"method": "rhf"
			},
			{
				"type": "unocc",
				"energy": 0.06292,
				"method": "rhf"
			},
			{
				"type": "unocc",
				"energy": 0.08672,
				"method": "rhf"
			},
			{
				"type": "unocc",
				"energy": 0.11098,
				"method": "rhf"
			}
		],
		"cosmo_sigma_profile": { 
			"-0.025": 0.0,
			"-0.024": 0.0,
			"-0.023": 0.0,
			"-0.022": 0.0,
			"-0.021": 0.0,
			"-0.02": 0.0,
			"-0.019": 0.203678684758,
			"-0.018": 1.20064613456,
			"-0.017": 0.71416765901,
			"-0.016": 1.21642605495,
			"-0.015": 1.26037113777,
			"-0.014": 0.844433832858,
			"-0.013": 1.17843451031,
			"-0.012": 1.69874030579,
			"-0.011": 0.935632156803,
			"-0.01": 0.744515011666,
			"-0.009": 2.27761777954,
			"-0.008": 4.20188460091,
			"-0.007": 3.61487325996,
			"-0.006": 5.10624275614,
			"-0.005": 5.34044804739,
			"-0.004": 5.4214064836,
			"-0.003": 12.0413650702,
			"-0.002": 27.3524446851,
			"-0.001": 28.3559774862,
			"0.0": 27.3141414636,
			"0.001": 20.1677210508,
			"0.002": 7.77892510198,
			"0.003": 3.02819421324,
			"0.004": 3.08797794645,
			"0.005": 2.75797095584,
			"0.006": 3.18486574373,
			"0.007": 3.26338221341,
			"0.008": 3.96924097875,
			"0.009": 4.29099658972,
			"0.01": 5.41599238536,
			"0.011": 5.17368414828,
			"0.012": 4.11558070937,
			"0.013": 1.98934973113,
			"0.014": 0.466176537109,
			"0.015": 0.565378729755,
			"0.016": 0.496819137027,
			"0.017": 0.128855034134,
			"0.018": 1.0935724184,
			"0.019": 0.168975411429,
			"0.02": 0.0,
			"0.021": 0.0,
			"0.022": 0.0,
			"0.023": 0.0,
			"0.024": 0.0,
			"0.025": 0.0
		}
	}
}
