{
	 "smiles": "CC1=C(NC(=O)C2=CC=CC=C2)C=CC=C1N", 
	 "Tm": 467.15, 
	 "num_atms": 31, 
	 "gaussian": { 
		 "optdone": 1, 
		 "sigma_profile": "yes", 
		 "theory": "DFT", 
		 "functional": "B3LYP", 
		 "basiset": "6-31G**", 
		 "properties": { 
			 "R2extent": 5650.1114, 
			 "electric_dipole_moment_norm": 4.31406708455, 
			 "electric_quadrupole_moment_norm": 18.2050276048, 
			 "total_energy": -726.68233366, 
			 "HOMO_LUMO_gap": 0.15848, 
			 "cosmo_polarized_energy": -16.86, 
			 "cosmo_cavitation_energy": 34.24, 
			 "cosmo_dispersion_energy": -25.07, 
			 "cosmo_repulsion_energy": 1.91, 
			 "cosmo_total_nonelectrostatic_energy": 11.08, 
			 "SMD_solvation_energy": 6.04 
		},
		"coords": [
			{
				"x": -0.0938656742,
				"y": 3.2900501192,
				"z": -0.0554889087,
				"element": "C" 
			},
			{
				"x": -0.8870340083,
				"y": 2.7055972847,
				"z": 1.0925260917,
				"element": "C" 
			},
			{
				"x": -1.1407157453,
				"y": 1.3178486569,
				"z": 1.1917884346,
				"element": "C" 
			},
			{
				"x": -0.5533145532,
				"y": 0.4822603082,
				"z": 0.2134446026,
				"element": "N" 
			},
			{
				"x": -0.6451566426,
				"y": -0.8854519051,
				"z": 0.0612739022,
				"element": "C" 
			},
			{
				"x": -1.2667236253,
				"y": -1.6277027637,
				"z": 0.8140874137,
				"element": "O" 
			},
			{
				"x": 0.1121383681,
				"y": -1.4380528427,
				"z": -1.1184957104,
				"element": "C" 
			},
			{
				"x": 0.4008585307,
				"y": -0.7009753741,
				"z": -2.2764908954,
				"element": "C" 
			},
			{
				"x": 1.0956356807,
				"y": -1.290107564,
				"z": -3.3334952296,
				"element": "C" 
			},
			{
				"x": 1.5083415091,
				"y": -2.6204789147,
				"z": -3.2442130776,
				"element": "C" 
			},
			{
				"x": 1.2102476258,
				"y": -3.3654046053,
				"z": -2.0999810834,
				"element": "C" 
			},
			{
				"x": 0.5093592431,
				"y": -2.7805837835,
				"z": -1.0482567517,
				"element": "C" 
			},
			{
				"x": -1.9476588394,
				"y": 0.7998464133,
				"z": 2.2159346623,
				"element": "C" 
			},
			{
				"x": -2.4870663345,
				"y": 1.6749819029,
				"z": 3.1548108149,
				"element": "C" 
			},
			{
				"x": -2.2180271277,
				"y": 3.0377361876,
				"z": 3.1078250408,
				"element": "C" 
			},
			{
				"x": -1.4120066229,
				"y": 3.5593504453,
				"z": 2.0851106518,
				"element": "C" 
			},
			{
				"x": -1.1807220953,
				"y": 4.9465761151,
				"z": 2.0166929768,
				"element": "N" 
			},
			{
				"x": 0.9941871892,
				"y": 3.2337412722,
				"z": 0.0939811601,
				"element": "H" 
			},
			{
				"x": -0.3525661206,
				"y": 4.3416233616,
				"z": -0.2014838388,
				"element": "H" 
			},
			{
				"x": -0.3202936708,
				"y": 2.7915893664,
				"z": -1.0052682349,
				"element": "H" 
			},
			{
				"x": 0.1072032786,
				"y": 0.9347515015,
				"z": -0.3976568422,
				"element": "H" 
			},
			{
				"x": 0.0513159405,
				"y": 0.3226439452,
				"z": -2.3818108736,
				"element": "H" 
			},
			{
				"x": 1.3041793981,
				"y": -0.713112141,
				"z": -4.2297283116,
				"element": "H" 
			},
			{
				"x": 2.0509606353,
				"y": -3.0776616456,
				"z": -4.0666456318,
				"element": "H" 
			},
			{
				"x": 1.5220305623,
				"y": -4.4035051154,
				"z": -2.0303547478,
				"element": "H" 
			},
			{
				"x": 0.2533910651,
				"y": -3.3450760965,
				"z": -0.1581354382,
				"element": "H" 
			},
			{
				"x": -2.1306081268,
				"y": -0.2627930339,
				"z": 2.2616667618,
				"element": "H" 
			},
			{
				"x": -3.1128132965,
				"y": 1.2790429789,
				"z": 3.9496545544,
				"element": "H" 
			},
			{
				"x": -2.6245708293,
				"y": 3.7068850784,
				"z": 3.8622257996,
				"element": "H" 
			},
			{
				"x": -0.2316967957,
				"y": 5.2043169961,
				"z": 1.7788403251,
				"element": "H" 
			},
			{
				"x": -1.4737089181,
				"y": 5.4358638521,
				"z": 2.8526423835,
				"element": "H" 
			}
		],
		 "valence_orbital": [ 
			{
				"type": "occ",
				"energy": -0.26214,
				"method": "rhf"
			},
			{
				"type": "occ",
				"energy": -0.26014,
				"method": "rhf"
			},
			{
				"type": "occ",
				"energy": -0.24647,
				"method": "rhf"
			},
			{
				"type": "occ",
				"energy": -0.21537,
				"method": "rhf"
			},
			{
				"type": "occ",
				"energy": -0.19858,
				"method": "rhf"
			},
			{
				"type": "unocc",
				"energy": -0.0401,
				"method": "rhf"
			},
			{
				"type": "unocc",
				"energy": -0.01098,
				"method": "rhf"
			},
			{
				"type": "unocc",
				"energy": 0.01049,
				"method": "rhf"
			},
			{
				"type": "unocc",
				"energy": 0.02225,
				"method": "rhf"
			},
			{
				"type": "unocc",
				"energy": 0.06124,
				"method": "rhf"
			}
		],
		"cosmo_sigma_profile": { 
			"-0.025": 0.0,
			"-0.024": 0.0,
			"-0.023": 0.0,
			"-0.022": 0.0,
			"-0.021": 0.0,
			"-0.02": 0.0,
			"-0.019": 0.0,
			"-0.018": 0.0,
			"-0.017": 0.0,
			"-0.016": 0.0,
			"-0.015": 0.0,
			"-0.014": 0.0,
			"-0.013": 0.0,
			"-0.012": 1.72368520088,
			"-0.011": 4.53900265772,
			"-0.01": 4.25831390827,
			"-0.009": 5.5852357844,
			"-0.008": 4.95553473046,
			"-0.007": 5.42572873322,
			"-0.006": 13.2539633102,
			"-0.005": 19.448929444,
			"-0.004": 19.8190324768,
			"-0.003": 16.6705503075,
			"-0.002": 17.7888687028,
			"-0.001": 18.4152896751,
			"0.0": 16.9578074327,
			"0.001": 14.0461651565,
			"0.002": 16.9757979711,
			"0.003": 17.4794810417,
			"0.004": 21.6299036408,
			"0.005": 15.3227959575,
			"0.006": 11.9372530869,
			"0.007": 8.58076401723,
			"0.008": 2.86670310776,
			"0.009": 2.36073002171,
			"0.01": 2.7925655775,
			"0.011": 2.88955350704,
			"0.012": 2.94507049708,
			"0.013": 3.06810636135,
			"0.014": 1.25490455264,
			"0.015": 0.317954348093,
			"0.016": 0.0,
			"0.017": 0.0,
			"0.018": 0.0,
			"0.019": 0.0,
			"0.02": 0.0,
			"0.021": 0.0,
			"0.022": 0.0,
			"0.023": 0.0,
			"0.024": 0.0,
			"0.025": 0.0
		}
	}
}
