{
	 "smiles": "O=C(CNC1=CC(NCC(=O)C2=CC=CC=C2)=CC=C1)C1=CC=CC=C1", 
	 "Tm": 437.15, 
	 "num_atms": 46, 
	 "gaussian": { 
		 "optdone": 1, 
		 "sigma_profile": "yes", 
		 "theory": "DFT", 
		 "functional": "B3LYP", 
		 "basiset": "6-31G**", 
		 "properties": { 
			 "R2extent": 18688.478, 
			 "electric_dipole_moment_norm": 3.53410876601, 
			 "electric_quadrupole_moment_norm": 36.1307553523, 
			 "total_energy": -1110.34303265, 
			 "HOMO_LUMO_gap": 0.1157, 
			 "cosmo_polarized_energy": -20.26, 
			 "cosmo_cavitation_energy": 50.58, 
			 "cosmo_dispersion_energy": -35.83, 
			 "cosmo_repulsion_energy": 2.67, 
			 "cosmo_total_nonelectrostatic_energy": 17.42, 
			 "SMD_solvation_energy": 7.84 
		},
		"coords": [
			{
				"x": 2.6096716754,
				"y": -0.0348615028,
				"z": 5.2685263345,
				"element": "O" 
			},
			{
				"x": 1.3941987287,
				"y": -0.0325952743,
				"z": 5.1325088297,
				"element": "C" 
			},
			{
				"x": 0.7359474314,
				"y": -1.2200255368,
				"z": 4.4008256147,
				"element": "C" 
			},
			{
				"x": -0.1404356853,
				"y": -0.8613691559,
				"z": 3.2996728698,
				"element": "N" 
			},
			{
				"x": 0.3705284461,
				"y": -0.5290574669,
				"z": 2.0361243314,
				"element": "C" 
			},
			{
				"x": -0.5028118391,
				"y": -0.5321859906,
				"z": 0.9403427878,
				"element": "C" 
			},
			{
				"x": -0.0629876706,
				"y": -0.1817160233,
				"z": -0.346437002,
				"element": "C" 
			},
			{
				"x": -0.9712775435,
				"y": -0.1738127393,
				"z": -1.3931200073,
				"element": "N" 
			},
			{
				"x": -0.5757726099,
				"y": -0.1443952074,
				"z": -2.770922833,
				"element": "C" 
			},
			{
				"x": -1.7426433994,
				"y": -0.5843207667,
				"z": -3.6549597301,
				"element": "C" 
			},
			{
				"x": -2.7792516466,
				"y": -0.9821649494,
				"z": -3.1406170594,
				"element": "O" 
			},
			{
				"x": -1.5832145419,
				"y": -0.5305558025,
				"z": -5.1383660126,
				"element": "C" 
			},
			{
				"x": -2.6706815637,
				"y": -0.9287185522,
				"z": -5.9327105445,
				"element": "C" 
			},
			{
				"x": -2.5759804875,
				"y": -0.902948316,
				"z": -7.3205444071,
				"element": "C" 
			},
			{
				"x": -1.3917942666,
				"y": -0.4806772472,
				"z": -7.9322628809,
				"element": "C" 
			},
			{
				"x": -0.3038816387,
				"y": -0.084538871,
				"z": -7.1512478327,
				"element": "C" 
			},
			{
				"x": -0.3976815629,
				"y": -0.1079115168,
				"z": -5.7605160662,
				"element": "C" 
			},
			{
				"x": 1.2879408069,
				"y": 0.1773547093,
				"z": -0.5286902891,
				"element": "C" 
			},
			{
				"x": 2.1475090729,
				"y": 0.1748037534,
				"z": 0.5670749346,
				"element": "C" 
			},
			{
				"x": 1.7190644563,
				"y": -0.1737657326,
				"z": 1.8468484237,
				"element": "C" 
			},
			{
				"x": 0.5609499419,
				"y": 1.0634972199,
				"z": 5.7187705324,
				"element": "C" 
			},
			{
				"x": 1.2344246878,
				"y": 2.1125350778,
				"z": 6.3674899922,
				"element": "C" 
			},
			{
				"x": 0.5229518979,
				"y": 3.1473789148,
				"z": 6.9654821119,
				"element": "C" 
			},
			{
				"x": -0.8748407687,
				"y": 3.146509768,
				"z": 6.9270955527,
				"element": "C" 
			},
			{
				"x": -1.5543528772,
				"y": 2.108806708,
				"z": 6.2862755935,
				"element": "C" 
			},
			{
				"x": -0.8423505306,
				"y": 1.0728700304,
				"z": 5.6823943563,
				"element": "C" 
			},
			{
				"x": 1.5641237987,
				"y": -1.8742654201,
				"z": 4.0964152973,
				"element": "H" 
			},
			{
				"x": 0.1358217923,
				"y": -1.7650766112,
				"z": 5.1392944707,
				"element": "H" 
			},
			{
				"x": -0.9839175396,
				"y": -1.4146765024,
				"z": 3.2515010429,
				"element": "H" 
			},
			{
				"x": -1.5469227244,
				"y": -0.8029706,
				"z": 1.0878358832,
				"element": "H" 
			},
			{
				"x": -1.8634667781,
				"y": -0.6300387092,
				"z": -1.2497738078,
				"element": "H" 
			},
			{
				"x": 0.2776554212,
				"y": -0.8138237466,
				"z": -2.9833664591,
				"element": "H" 
			},
			{
				"x": -0.2555243023,
				"y": 0.8610906002,
				"z": -3.0862903677,
				"element": "H" 
			},
			{
				"x": -3.5779397975,
				"y": -1.2537652952,
				"z": -5.4348199137,
				"element": "H" 
			},
			{
				"x": -3.4220184951,
				"y": -1.2112236959,
				"z": -7.9276290335,
				"element": "H" 
			},
			{
				"x": -1.3169336528,
				"y": -0.4605152296,
				"z": -9.0157432158,
				"element": "H" 
			},
			{
				"x": 0.6166387717,
				"y": 0.2427341043,
				"z": -7.6251556888,
				"element": "H" 
			},
			{
				"x": 0.4568152324,
				"y": 0.20256042,
				"z": -5.1679422756,
				"element": "H" 
			},
			{
				"x": 1.6564742808,
				"y": 0.4671941957,
				"z": -1.5062478729,
				"element": "H" 
			},
			{
				"x": 3.1882911503,
				"y": 0.4516997576,
				"z": 0.4204740622,
				"element": "H" 
			},
			{
				"x": 2.4179880648,
				"y": -0.1645279653,
				"z": 2.6739194043,
				"element": "H" 
			},
			{
				"x": 2.3186455875,
				"y": 2.0870643647,
				"z": 6.3897337809,
				"element": "H" 
			},
			{
				"x": 1.0533650314,
				"y": 3.9541551793,
				"z": 7.4630291614,
				"element": "H" 
			},
			{
				"x": -1.4323610321,
				"y": 3.9538409588,
				"z": 7.3937855683,
				"element": "H" 
			},
			{
				"x": -2.6399310379,
				"y": 2.1086898054,
				"z": 6.2522931334,
				"element": "H" 
			},
			{
				"x": -1.3767322845,
				"y": 0.2856188593,
				"z": 5.1652492299,
				"element": "H" 
			}
		],
		 "valence_orbital": [ 
			{
				"type": "occ",
				"energy": -0.25585,
				"method": "rhf"
			},
			{
				"type": "occ",
				"energy": -0.25369,
				"method": "rhf"
			},
			{
				"type": "occ",
				"energy": -0.24772,
				"method": "rhf"
			},
			{
				"type": "occ",
				"energy": -0.19615,
				"method": "rhf"
			},
			{
				"type": "occ",
				"energy": -0.1822,
				"method": "rhf"
			},
			{
				"type": "unocc",
				"energy": -0.0665,
				"method": "rhf"
			},
			{
				"type": "unocc",
				"energy": -0.0552,
				"method": "rhf"
			},
			{
				"type": "unocc",
				"energy": -0.01741,
				"method": "rhf"
			},
			{
				"type": "unocc",
				"energy": -0.00388,
				"method": "rhf"
			},
			{
				"type": "unocc",
				"energy": 0.01734,
				"method": "rhf"
			}
		],
		"cosmo_sigma_profile": { 
			"-0.025": 0.0,
			"-0.024": 0.0,
			"-0.023": 0.0,
			"-0.022": 0.0,
			"-0.021": 0.0,
			"-0.02": 0.0,
			"-0.019": 0.0,
			"-0.018": 0.0,
			"-0.017": 0.0,
			"-0.016": 0.0,
			"-0.015": 0.0,
			"-0.014": 0.0,
			"-0.013": 0.579426449145,
			"-0.012": 1.56783585003,
			"-0.011": 1.81578941669,
			"-0.01": 1.79042990153,
			"-0.009": 3.18439020123,
			"-0.008": 6.1634303388,
			"-0.007": 13.5392605839,
			"-0.006": 27.9305995288,
			"-0.005": 31.008164839,
			"-0.004": 31.9483682465,
			"-0.003": 25.9075955581,
			"-0.002": 25.1293600069,
			"-0.001": 21.0064673316,
			"0.0": 24.5268390119,
			"0.001": 27.7342598629,
			"0.002": 26.1969249085,
			"0.003": 31.2678138607,
			"0.004": 33.5833259744,
			"0.005": 13.0534077256,
			"0.006": 11.5850120132,
			"0.007": 13.9786617689,
			"0.008": 11.364339387,
			"0.009": 4.42120115277,
			"0.01": 5.1542574795,
			"0.011": 5.6852130308,
			"0.012": 3.18470804324,
			"0.013": 0.719280608162,
			"0.014": 0.0,
			"0.015": 0.0,
			"0.016": 0.0,
			"0.017": 0.0,
			"0.018": 0.0,
			"0.019": 0.0,
			"0.02": 0.0,
			"0.021": 0.0,
			"0.022": 0.0,
			"0.023": 0.0,
			"0.024": 0.0,
			"0.025": 0.0
		}
	}
}
