{
	 "smiles": "CC1=CC=C(C=O)C=C1[N+]([O-])=O", 
	 "Tm": 319.15, 
	 "num_atms": 19, 
	 "gaussian": { 
		 "optdone": 1, 
		 "sigma_profile": "yes", 
		 "theory": "DFT", 
		 "functional": "B3LYP", 
		 "basiset": "6-31G**", 
		 "properties": { 
			 "R2extent": 3363.35, 
			 "electric_dipole_moment_norm": 2.56871029118, 
			 "electric_quadrupole_moment_norm": 15.6112737059, 
			 "total_energy": -589.386460293, 
			 "HOMO_LUMO_gap": 0.1719, 
			 "cosmo_polarized_energy": -10.65, 
			 "cosmo_cavitation_energy": 24.18, 
			 "cosmo_dispersion_energy": -17.6, 
			 "cosmo_repulsion_energy": 1.38, 
			 "cosmo_total_nonelectrostatic_energy": 7.96, 
			 "SMD_solvation_energy": 7.37 
		},
		"coords": [
			{
				"x": 1.4296446767,
				"y": 0.0490405325,
				"z": 1.5378337431,
				"element": "C" 
			},
			{
				"x": 1.0594507449,
				"y": 0.2731357096,
				"z": 0.0938255992,
				"element": "C" 
			},
			{
				"x": -0.2661677765,
				"y": 0.0143320295,
				"z": -0.3060209275,
				"element": "C" 
			},
			{
				"x": -0.6994004591,
				"y": 0.1927097337,
				"z": -1.6114837953,
				"element": "C" 
			},
			{
				"x": 0.1936566523,
				"y": 0.6546828696,
				"z": -2.589532317,
				"element": "C" 
			},
			{
				"x": -0.2535609532,
				"y": 0.8524028445,
				"z": -3.9894525909,
				"element": "C" 
			},
			{
				"x": -1.3842702244,
				"y": 0.6363761278,
				"z": -4.3785941714,
				"element": "O" 
			},
			{
				"x": 1.5109369407,
				"y": 0.9292651019,
				"z": -2.2303218354,
				"element": "C" 
			},
			{
				"x": 1.9316878407,
				"y": 0.7365755252,
				"z": -0.9140230618,
				"element": "C" 
			},
			{
				"x": 3.3488782654,
				"y": 1.048235332,
				"z": -0.6391258158,
				"element": "N" 
			},
			{
				"x": 3.8150034892,
				"y": 0.7357823466,
				"z": 0.4562626068,
				"element": "O" 
			},
			{
				"x": 3.9921064786,
				"y": 1.6019613501,
				"z": -1.5303220825,
				"element": "O" 
			},
			{
				"x": 2.1747969735,
				"y": -0.7442094359,
				"z": 1.6382339515,
				"element": "H" 
			},
			{
				"x": 0.5384526527,
				"y": -0.2259433458,
				"z": 2.107095179,
				"element": "H" 
			},
			{
				"x": 1.8768578289,
				"y": 0.9404980418,
				"z": 1.9840106267,
				"element": "H" 
			},
			{
				"x": -0.9659589449,
				"y": -0.3379617283,
				"z": 0.4458171272,
				"element": "H" 
			},
			{
				"x": -1.7247538594,
				"y": -0.0161658603,
				"z": -1.899900717,
				"element": "H" 
			},
			{
				"x": 0.5338990045,
				"y": 1.221917416,
				"z": -4.6816415132,
				"element": "H" 
			},
			{
				"x": 2.2278406694,
				"y": 1.2943654095,
				"z": -2.9569600059,
				"element": "H" 
			}
		],
		 "valence_orbital": [ 
			{
				"type": "occ",
				"energy": -0.31543,
				"method": "rhf"
			},
			{
				"type": "occ",
				"energy": -0.30006,
				"method": "rhf"
			},
			{
				"type": "occ",
				"energy": -0.29206,
				"method": "rhf"
			},
			{
				"type": "occ",
				"energy": -0.28222,
				"method": "rhf"
			},
			{
				"type": "occ",
				"energy": -0.27111,
				"method": "rhf"
			},
			{
				"type": "unocc",
				"energy": -0.09921,
				"method": "rhf"
			},
			{
				"type": "unocc",
				"energy": -0.07846,
				"method": "rhf"
			},
			{
				"type": "unocc",
				"energy": -0.02005,
				"method": "rhf"
			},
			{
				"type": "unocc",
				"energy": 0.02388,
				"method": "rhf"
			},
			{
				"type": "unocc",
				"energy": 0.08432,
				"method": "rhf"
			}
		],
		"cosmo_sigma_profile": { 
			"-0.025": 0.0,
			"-0.024": 0.0,
			"-0.023": 0.0,
			"-0.022": 0.0,
			"-0.021": 0.0,
			"-0.02": 0.0,
			"-0.019": 0.0,
			"-0.018": 0.0,
			"-0.017": 0.0,
			"-0.016": 0.0,
			"-0.015": 0.0,
			"-0.014": 0.0,
			"-0.013": 0.0,
			"-0.012": 0.0,
			"-0.011": 0.0,
			"-0.01": 0.306762390201,
			"-0.009": 1.80196232112,
			"-0.008": 3.8341760403,
			"-0.007": 9.68519667193,
			"-0.006": 11.290897475,
			"-0.005": 13.2079073147,
			"-0.004": 13.5940790565,
			"-0.003": 15.7569819336,
			"-0.002": 17.2524835981,
			"-0.001": 21.9286481152,
			"0.0": 16.7186906522,
			"0.001": 9.97978778796,
			"0.002": 6.23214400372,
			"0.003": 4.19919077368,
			"0.004": 3.33313919384,
			"0.005": 4.80918110886,
			"0.006": 6.08836591267,
			"0.007": 7.83352843546,
			"0.008": 7.36236066063,
			"0.009": 6.62979928952,
			"0.01": 6.03138533796,
			"0.011": 4.05146220775,
			"0.012": 1.57564278772,
			"0.013": 0.196700480383,
			"0.014": 0.0,
			"0.015": 0.0,
			"0.016": 0.0,
			"0.017": 0.0,
			"0.018": 0.0,
			"0.019": 0.0,
			"0.02": 0.0,
			"0.021": 0.0,
			"0.022": 0.0,
			"0.023": 0.0,
			"0.024": 0.0,
			"0.025": 0.0
		}
	}
}
