{
	 "smiles": "CC1=CC=C(O)C(=C1)[N+]([O-])=O", 
	 "Tm": 308.35, 
	 "num_atms": 18, 
	 "gaussian": { 
		 "optdone": 1, 
		 "sigma_profile": "yes", 
		 "theory": "DFT", 
		 "functional": "B3LYP", 
		 "basiset": "6-31G**", 
		 "properties": { 
			 "R2extent": 1948.0163, 
			 "electric_dipole_moment_norm": 4.00807519515, 
			 "electric_quadrupole_moment_norm": 5.25411420698, 
			 "total_energy": -551.298769229, 
			 "HOMO_LUMO_gap": 0.14386, 
			 "cosmo_polarized_energy": -7.51, 
			 "cosmo_cavitation_energy": 22.36, 
			 "cosmo_dispersion_energy": -16.9, 
			 "cosmo_repulsion_energy": 1.35, 
			 "cosmo_total_nonelectrostatic_energy": 6.8, 
			 "SMD_solvation_energy": 6.39 
		},
		"coords": [
			{
				"x": 2.7208566446,
				"y": -0.6865951124,
				"z": 0.5517788438,
				"element": "C" 
			},
			{
				"x": 1.364397939,
				"y": -0.0907794208,
				"z": 0.2611785694,
				"element": "C" 
			},
			{
				"x": 1.1567549153,
				"y": 0.7068426866,
				"z": -0.8874307388,
				"element": "C" 
			},
			{
				"x": -0.0731834589,
				"y": 1.2667065519,
				"z": -1.181480308,
				"element": "C" 
			},
			{
				"x": -1.1794387087,
				"y": 1.0601346226,
				"z": -0.3360380497,
				"element": "C" 
			},
			{
				"x": -2.3451859174,
				"y": 1.6233600442,
				"z": -0.6657380992,
				"element": "O" 
			},
			{
				"x": -0.9737710449,
				"y": 0.2619415238,
				"z": 0.81438714,
				"element": "C" 
			},
			{
				"x": 0.2824371213,
				"y": -0.3006253352,
				"z": 1.1002764683,
				"element": "C" 
			},
			{
				"x": -2.0592647261,
				"y": 0.0031903337,
				"z": 1.7317432133,
				"element": "N" 
			},
			{
				"x": -3.1814950375,
				"y": 0.5045787516,
				"z": 1.4781505666,
				"element": "O" 
			},
			{
				"x": -1.8583823875,
				"y": -0.6909933772,
				"z": 2.722028272,
				"element": "O" 
			},
			{
				"x": 2.7077985454,
				"y": -1.2724621742,
				"z": 1.4742561483,
				"element": "H" 
			},
			{
				"x": 3.4837781918,
				"y": 0.0927176617,
				"z": 0.661244286,
				"element": "H" 
			},
			{
				"x": 3.0486157157,
				"y": -1.3469663599,
				"z": -0.2592928877,
				"element": "H" 
			},
			{
				"x": 1.9897757631,
				"y": 0.8870368178,
				"z": -1.5626705125,
				"element": "H" 
			},
			{
				"x": -0.2233198794,
				"y": 1.8773895117,
				"z": -2.0651131409,
				"element": "H" 
			},
			{
				"x": -2.9837067441,
				"y": 1.363519949,
				"z": 0.0419218368,
				"element": "H" 
			},
			{
				"x": 0.3731330683,
				"y": -0.9017966748,
				"z": 1.9970983925,
				"element": "H" 
			}
		],
		 "valence_orbital": [ 
			{
				"type": "occ",
				"energy": -0.31964,
				"method": "rhf"
			},
			{
				"type": "occ",
				"energy": -0.31641,
				"method": "rhf"
			},
			{
				"type": "occ",
				"energy": -0.30247,
				"method": "rhf"
			},
			{
				"type": "occ",
				"energy": -0.28318,
				"method": "rhf"
			},
			{
				"type": "occ",
				"energy": -0.24079,
				"method": "rhf"
			},
			{
				"type": "unocc",
				"energy": -0.09693,
				"method": "rhf"
			},
			{
				"type": "unocc",
				"energy": -0.01285,
				"method": "rhf"
			},
			{
				"type": "unocc",
				"energy": -0.00187,
				"method": "rhf"
			},
			{
				"type": "unocc",
				"energy": 0.07946,
				"method": "rhf"
			},
			{
				"type": "unocc",
				"energy": 0.11021,
				"method": "rhf"
			}
		],
		"cosmo_sigma_profile": { 
			"-0.025": 0.0,
			"-0.024": 0.0,
			"-0.023": 0.0,
			"-0.022": 0.0,
			"-0.021": 0.0,
			"-0.02": 0.0,
			"-0.019": 0.0,
			"-0.018": 0.0,
			"-0.017": 0.0,
			"-0.016": 0.0,
			"-0.015": 0.0,
			"-0.014": 0.0,
			"-0.013": 0.0,
			"-0.012": 0.0,
			"-0.011": 0.0,
			"-0.01": 0.480169032026,
			"-0.009": 0.46402250528,
			"-0.008": 0.911781416908,
			"-0.007": 6.44262804813,
			"-0.006": 10.5911734144,
			"-0.005": 12.0215457449,
			"-0.004": 14.6927411156,
			"-0.003": 14.3945384561,
			"-0.002": 13.0520504302,
			"-0.001": 16.1363766554,
			"0.0": 17.3347854626,
			"0.001": 14.9267555888,
			"0.002": 13.6119403983,
			"0.003": 6.93512301643,
			"0.004": 3.39176169154,
			"0.005": 4.47779027561,
			"0.006": 4.85823048166,
			"0.007": 7.89738148258,
			"0.008": 5.94840545702,
			"0.009": 6.1152458762,
			"0.01": 3.72420790983,
			"0.011": 0.283714713492,
			"0.012": 0.0,
			"0.013": 0.0,
			"0.014": 0.0,
			"0.015": 0.0,
			"0.016": 0.0,
			"0.017": 0.0,
			"0.018": 0.0,
			"0.019": 0.0,
			"0.02": 0.0,
			"0.021": 0.0,
			"0.022": 0.0,
			"0.023": 0.0,
			"0.024": 0.0,
			"0.025": 0.0
		}
	}
}
