{
	 "smiles": "FC1=CC=C(C=CC(=O)C=CC2=CC=C(F)C=C2)C=C1", 
	 "Tm": 417.15, 
	 "num_atms": 32, 
	 "gaussian": { 
		 "optdone": 1, 
		 "sigma_profile": "yes", 
		 "theory": "DFT", 
		 "functional": "B3LYP", 
		 "basiset": "6-31G**", 
		 "properties": { 
			 "R2extent": 7574.646, 
			 "electric_dipole_moment_norm": 2.3291094049, 
			 "electric_quadrupole_moment_norm": 17.1655838138, 
			 "total_energy": -929.90075428, 
			 "HOMO_LUMO_gap": 0.14733, 
			 "cosmo_polarized_energy": -11.72, 
			 "cosmo_cavitation_energy": 38.83, 
			 "cosmo_dispersion_energy": -26.11, 
			 "cosmo_repulsion_energy": 1.96, 
			 "cosmo_total_nonelectrostatic_energy": 14.68, 
			 "SMD_solvation_energy": 8.09 
		},
		"coords": [
			{
				"x": -0.1650975616,
				"y": -4.224247647,
				"z": 4.5634759861,
				"element": "F" 
			},
			{
				"x": 0.3417558671,
				"y": -3.5193100562,
				"z": 3.5338940391,
				"element": "C" 
			},
			{
				"x": -0.5070172392,
				"y": -3.1367965251,
				"z": 2.4969030411,
				"element": "C" 
			},
			{
				"x": 0.0170586463,
				"y": -2.4095619158,
				"z": 1.4353390921,
				"element": "C" 
			},
			{
				"x": 1.3822314157,
				"y": -2.0581400559,
				"z": 1.3946195897,
				"element": "C" 
			},
			{
				"x": 1.980987555,
				"y": -1.2973960012,
				"z": 0.3011480123,
				"element": "C" 
			},
			{
				"x": 1.3949722055,
				"y": -0.8857399556,
				"z": -0.8415415139,
				"element": "C" 
			},
			{
				"x": 2.1812163002,
				"y": -0.1390089179,
				"z": -1.8544896632,
				"element": "C" 
			},
			{
				"x": 3.3827663841,
				"y": 0.0843737054,
				"z": -1.7100066485,
				"element": "O" 
			},
			{
				"x": 1.5304827286,
				"y": 0.2642322286,
				"z": -3.1354852695,
				"element": "C" 
			},
			{
				"x": 0.270395795,
				"y": 0.6691245889,
				"z": -3.3971990691,
				"element": "C" 
			},
			{
				"x": -0.8488756385,
				"y": 0.952644787,
				"z": -2.4852242976,
				"element": "C" 
			},
			{
				"x": -2.1656861672,
				"y": 0.7402452151,
				"z": -2.9370232952,
				"element": "C" 
			},
			{
				"x": -3.2639737925,
				"y": 1.0018935507,
				"z": -2.1230371059,
				"element": "C" 
			},
			{
				"x": -3.0399692462,
				"y": 1.5072061526,
				"z": -0.8462120287,
				"element": "C" 
			},
			{
				"x": -4.0966339389,
				"y": 1.7724302854,
				"z": -0.0534055289,
				"element": "F" 
			},
			{
				"x": -1.7576768245,
				"y": 1.7626116221,
				"z": -0.3713237089,
				"element": "C" 
			},
			{
				"x": -0.6691047804,
				"y": 1.4887706439,
				"z": -1.1955737425,
				"element": "C" 
			},
			{
				"x": 2.2011220067,
				"y": -2.4609364952,
				"z": 2.467263037,
				"element": "C" 
			},
			{
				"x": 1.6925572384,
				"y": -3.1916085668,
				"z": 3.5375983814,
				"element": "C" 
			},
			{
				"x": -1.555977159,
				"y": -3.4094533994,
				"z": 2.5378249627,
				"element": "H" 
			},
			{
				"x": -0.6443738282,
				"y": -2.1033051686,
				"z": 0.6314931392,
				"element": "H" 
			},
			{
				"x": 3.0311557325,
				"y": -1.0326989275,
				"z": 0.418443456,
				"element": "H" 
			},
			{
				"x": 0.3589713487,
				"y": -1.1092473746,
				"z": -1.0713912234,
				"element": "H" 
			},
			{
				"x": 2.2311768371,
				"y": 0.2401365291,
				"z": -3.9673411786,
				"element": "H" 
			},
			{
				"x": 0.0364803146,
				"y": 0.8433504755,
				"z": -4.4478333921,
				"element": "H" 
			},
			{
				"x": -2.3273328806,
				"y": 0.3521866728,
				"z": -3.9390100641,
				"element": "H" 
			},
			{
				"x": -4.2797519291,
				"y": 0.8297344272,
				"z": -2.4617907017,
				"element": "H" 
			},
			{
				"x": -1.6270777602,
				"y": 2.1828297068,
				"z": 0.6199346803,
				"element": "H" 
			},
			{
				"x": 0.3310651499,
				"y": 1.7157208846,
				"z": -0.8438186075,
				"element": "H" 
			},
			{
				"x": 3.2547827754,
				"y": -2.1965800346,
				"z": 2.4552606356,
				"element": "H" 
			},
			{
				"x": 2.3196704451,
				"y": -3.5059604343,
				"z": 4.3646089868,
				"element": "H" 
			}
		],
		 "valence_orbital": [ 
			{
				"type": "occ",
				"energy": -0.27319,
				"method": "rhf"
			},
			{
				"type": "occ",
				"energy": -0.27134,
				"method": "rhf"
			},
			{
				"type": "occ",
				"energy": -0.24927,
				"method": "rhf"
			},
			{
				"type": "occ",
				"energy": -0.23692,
				"method": "rhf"
			},
			{
				"type": "occ",
				"energy": -0.22818,
				"method": "rhf"
			},
			{
				"type": "unocc",
				"energy": -0.08085,
				"method": "rhf"
			},
			{
				"type": "unocc",
				"energy": -0.04318,
				"method": "rhf"
			},
			{
				"type": "unocc",
				"energy": -0.02148,
				"method": "rhf"
			},
			{
				"type": "unocc",
				"energy": -0.01956,
				"method": "rhf"
			},
			{
				"type": "unocc",
				"energy": 0.00974,
				"method": "rhf"
			}
		],
		"cosmo_sigma_profile": { 
			"-0.025": 0.0,
			"-0.024": 0.0,
			"-0.023": 0.0,
			"-0.022": 0.0,
			"-0.021": 0.0,
			"-0.02": 0.0,
			"-0.019": 0.0,
			"-0.018": 0.0,
			"-0.017": 0.0,
			"-0.016": 0.0,
			"-0.015": 0.0,
			"-0.014": 0.0,
			"-0.013": 0.0,
			"-0.012": 0.0,
			"-0.011": 0.0,
			"-0.01": 0.0,
			"-0.009": 0.0272428266235,
			"-0.008": 3.3948598244,
			"-0.007": 16.9464707636,
			"-0.006": 20.445867327,
			"-0.005": 22.7153037637,
			"-0.004": 15.3718915429,
			"-0.003": 16.363644455,
			"-0.002": 16.248949102,
			"-0.001": 18.0358053582,
			"0.0": 29.5966646355,
			"0.001": 32.1530614706,
			"0.002": 34.7768134412,
			"0.003": 36.7957806528,
			"0.004": 26.2228884395,
			"0.005": 4.3573676194,
			"0.006": 2.00768812333,
			"0.007": 2.0209406405,
			"0.008": 0.62929623097,
			"0.009": 1.73158180814,
			"0.01": 1.91635180713,
			"0.011": 2.26596888521,
			"0.012": 3.36335085177,
			"0.013": 4.08999268999,
			"0.014": 1.18666793189,
			"0.015": 0.000717815535057,
			"0.016": 0.0,
			"0.017": 0.0,
			"0.018": 0.0,
			"0.019": 0.0,
			"0.02": 0.0,
			"0.021": 0.0,
			"0.022": 0.0,
			"0.023": 0.0,
			"0.024": 0.0,
			"0.025": 0.0
		}
	}
}
