{
	 "smiles": "[O-][N+](=O)C1=CN=C(Cl)C=C1", 
	 "Tm": 380.15, 
	 "num_atms": 13, 
	 "gaussian": { 
		 "optdone": 1, 
		 "sigma_profile": "yes", 
		 "theory": "DFT", 
		 "functional": "B3LYP", 
		 "basiset": "6-31G**", 
		 "properties": { 
			 "R2extent": 2647.4544, 
			 "electric_dipole_moment_norm": 2.62867271641, 
			 "electric_quadrupole_moment_norm": 17.7218995596, 
			 "total_energy": -912.370910581, 
			 "HOMO_LUMO_gap": 0.1822, 
			 "cosmo_polarized_energy": -8.9, 
			 "cosmo_cavitation_energy": 20.53, 
			 "cosmo_dispersion_energy": -15.48, 
			 "cosmo_repulsion_energy": 1.25, 
			 "cosmo_total_nonelectrostatic_energy": 6.3, 
			 "SMD_solvation_energy": 4.28 
		},
		"coords": [
			{
				"x": 4.3040910555,
				"y": -1.5854827668,
				"z": -0.6665441058,
				"element": "O" 
			},
			{
				"x": 3.958575202,
				"y": -0.4064071364,
				"z": -0.6245292742,
				"element": "N" 
			},
			{
				"x": 4.7223582933,
				"y": 0.5570651268,
				"z": -0.5888944934,
				"element": "O" 
			},
			{
				"x": 2.5192473881,
				"y": -0.1248890028,
				"z": -0.6142563107,
				"element": "C" 
			},
			{
				"x": 1.6072722645,
				"y": -1.1778164105,
				"z": -0.6522330073,
				"element": "C" 
			},
			{
				"x": 0.2874046222,
				"y": -0.9670935268,
				"z": -0.6444417912,
				"element": "N" 
			},
			{
				"x": -0.1335966915,
				"y": 0.2875521501,
				"z": -0.5989761381,
				"element": "C" 
			},
			{
				"x": -1.866974203,
				"y": 0.5325608504,
				"z": -0.5897909733,
				"element": "Cl" 
			},
			{
				"x": 0.7009857662,
				"y": 1.4130352747,
				"z": -0.5583774509,
				"element": "C" 
			},
			{
				"x": 2.0713155792,
				"y": 1.1945857788,
				"z": -0.5664675094,
				"element": "C" 
			},
			{
				"x": 1.9547627825,
				"y": -2.2047328849,
				"z": -0.689428297,
				"element": "H" 
			},
			{
				"x": 0.2837244681,
				"y": 2.411748201,
				"z": -0.5221939803,
				"element": "H" 
			},
			{
				"x": 2.7867334729,
				"y": 2.0075743465,
				"z": -0.5371666684,
				"element": "H" 
			}
		],
		 "valence_orbital": [ 
			{
				"type": "occ",
				"energy": -0.33028,
				"method": "rhf"
			},
			{
				"type": "occ",
				"energy": -0.32437,
				"method": "rhf"
			},
			{
				"type": "occ",
				"energy": -0.30964,
				"method": "rhf"
			},
			{
				"type": "occ",
				"energy": -0.30068,
				"method": "rhf"
			},
			{
				"type": "occ",
				"energy": -0.29167,
				"method": "rhf"
			},
			{
				"type": "unocc",
				"energy": -0.10947,
				"method": "rhf"
			},
			{
				"type": "unocc",
				"energy": -0.06551,
				"method": "rhf"
			},
			{
				"type": "unocc",
				"energy": -0.02596,
				"method": "rhf"
			},
			{
				"type": "unocc",
				"energy": 0.01338,
				"method": "rhf"
			},
			{
				"type": "unocc",
				"energy": 0.0799,
				"method": "rhf"
			}
		],
		"cosmo_sigma_profile": { 
			"-0.025": 0.0,
			"-0.024": 0.0,
			"-0.023": 0.0,
			"-0.022": 0.0,
			"-0.021": 0.0,
			"-0.02": 0.0,
			"-0.019": 0.0,
			"-0.018": 0.0,
			"-0.017": 0.0,
			"-0.016": 0.0,
			"-0.015": 0.0,
			"-0.014": 0.0,
			"-0.013": 0.0,
			"-0.012": 0.0,
			"-0.011": 0.0,
			"-0.01": 1.25900940619,
			"-0.009": 4.86257655506,
			"-0.008": 6.1398029974,
			"-0.007": 6.62898937347,
			"-0.006": 5.30755956534,
			"-0.005": 8.03393744143,
			"-0.004": 13.6863755692,
			"-0.003": 16.5044050431,
			"-0.002": 14.6337847951,
			"-0.001": 10.3762882572,
			"0.0": 7.15291152333,
			"0.001": 7.87806329005,
			"0.002": 8.81315715155,
			"0.003": 12.3536850196,
			"0.004": 7.58518364007,
			"0.005": 5.1548132853,
			"0.006": 7.56500775348,
			"0.007": 10.5233626066,
			"0.008": 5.83536736651,
			"0.009": 4.47621153539,
			"0.01": 1.54297663079,
			"0.011": 0.918661943363,
			"0.012": 0.765370752958,
			"0.013": 0.501509830562,
			"0.014": 0.0,
			"0.015": 0.0,
			"0.016": 0.0,
			"0.017": 0.0,
			"0.018": 0.0,
			"0.019": 0.0,
			"0.02": 0.0,
			"0.021": 0.0,
			"0.022": 0.0,
			"0.023": 0.0,
			"0.024": 0.0,
			"0.025": 0.0
		}
	}
}
