{
	 "smiles": "CC(C)(C)OC(=O)N1CCCC(C1)C#C", 
	 "Tm": 341.15, 
	 "num_atms": 34, 
	 "gaussian": { 
		 "optdone": 1, 
		 "sigma_profile": "yes", 
		 "theory": "DFT", 
		 "functional": "B3LYP", 
		 "basiset": "6-31G**", 
		 "properties": { 
			 "R2extent": 3896.5077, 
			 "electric_dipole_moment_norm": 2.53182125159, 
			 "electric_quadrupole_moment_norm": 12.673026676, 
			 "total_energy": -673.891355917, 
			 "HOMO_LUMO_gap": 0.27413, 
			 "cosmo_polarized_energy": -10.24, 
			 "cosmo_cavitation_energy": 35.24, 
			 "cosmo_dispersion_energy": -23.65, 
			 "cosmo_repulsion_energy": 1.87, 
			 "cosmo_total_nonelectrostatic_energy": 13.46, 
			 "SMD_solvation_energy": 7.44 
		},
		"coords": [
			{
				"x": -3.4102133062,
				"y": 0.1083384125,
				"z": -1.4703666605,
				"element": "C" 
			},
			{
				"x": -2.5993182368,
				"y": 1.2590850831,
				"z": -0.8675025809,
				"element": "C" 
			},
			{
				"x": -3.1586018668,
				"y": 1.6558431544,
				"z": 0.503282419,
				"element": "C" 
			},
			{
				"x": -2.5400444284,
				"y": 2.4457632686,
				"z": -1.8358694247,
				"element": "C" 
			},
			{
				"x": -1.2653898705,
				"y": 0.6625443346,
				"z": -0.7142132222,
				"element": "O" 
			},
			{
				"x": -0.2339866748,
				"y": 1.3861402717,
				"z": -0.2091587487,
				"element": "C" 
			},
			{
				"x": -0.2998597481,
				"y": 2.5467484617,
				"z": 0.1745585126,
				"element": "O" 
			},
			{
				"x": 0.9134374863,
				"y": 0.6369349573,
				"z": -0.1981902231,
				"element": "N" 
			},
			{
				"x": 0.9382264586,
				"y": -0.7765996914,
				"z": -0.6024153834,
				"element": "C" 
			},
			{
				"x": 2.3882859911,
				"y": -1.2388148384,
				"z": -0.7629956051,
				"element": "C" 
			},
			{
				"x": 3.1994707623,
				"y": -1.1016611705,
				"z": 0.5418269627,
				"element": "C" 
			},
			{
				"x": 2.7630168072,
				"y": 0.1505378096,
				"z": 1.3735997495,
				"element": "C" 
			},
			{
				"x": 2.0968850712,
				"y": 1.1963395713,
				"z": 0.4504735156,
				"element": "C" 
			},
			{
				"x": 1.8756521721,
				"y": -0.2110238127,
				"z": 2.4843744703,
				"element": "C" 
			},
			{
				"x": 1.1454444219,
				"y": -0.5177750366,
				"z": 3.3968121659,
				"element": "C" 
			},
			{
				"x": -3.4118017851,
				"y": -0.7554922315,
				"z": -0.7991686091,
				"element": "H" 
			},
			{
				"x": -4.4454492026,
				"y": 0.4224617645,
				"z": -1.6338159937,
				"element": "H" 
			},
			{
				"x": -2.9868812323,
				"y": -0.2017102687,
				"z": -2.4304099795,
				"element": "H" 
			},
			{
				"x": -4.1948859408,
				"y": 1.9926518067,
				"z": 0.3946247213,
				"element": "H" 
			},
			{
				"x": -2.5687230478,
				"y": 2.4584475294,
				"z": 0.9458658392,
				"element": "H" 
			},
			{
				"x": -3.1499017315,
				"y": 0.7947783167,
				"z": 1.17919734,
				"element": "H" 
			},
			{
				"x": -1.9456108398,
				"y": 3.2588517191,
				"z": -1.4191012922,
				"element": "H" 
			},
			{
				"x": -3.5534696681,
				"y": 2.8106434024,
				"z": -2.0329837591,
				"element": "H" 
			},
			{
				"x": -2.0998563933,
				"y": 2.1357569533,
				"z": -2.7891879787,
				"element": "H" 
			},
			{
				"x": 0.3950810305,
				"y": -0.8860293295,
				"z": -1.5436196675,
				"element": "H" 
			},
			{
				"x": 0.4232472268,
				"y": -1.3957420712,
				"z": 0.1452375876,
				"element": "H" 
			},
			{
				"x": 2.3950977446,
				"y": -2.2794519004,
				"z": -1.1034221246,
				"element": "H" 
			},
			{
				"x": 2.8560055632,
				"y": -0.6488563778,
				"z": -1.5601976344,
				"element": "H" 
			},
			{
				"x": 4.2648871463,
				"y": -1.0225819701,
				"z": 0.3016589292,
				"element": "H" 
			},
			{
				"x": 3.0803336843,
				"y": -1.9960898221,
				"z": 1.1596169296,
				"element": "H" 
			},
			{
				"x": 3.6587269655,
				"y": 0.6206558647,
				"z": 1.7998041265,
				"element": "H" 
			},
			{
				"x": 1.7799936454,
				"y": 2.0761381042,
				"z": 1.0098325697,
				"element": "H" 
			},
			{
				"x": 2.8349817492,
				"y": 1.5233232461,
				"z": -0.2957374278,
				"element": "H" 
			},
			{
				"x": 0.4990200462,
				"y": -0.7767555109,
				"z": 4.2028904767,
				"element": "H" 
			}
		],
		 "valence_orbital": [ 
			{
				"type": "occ",
				"energy": -0.27978,
				"method": "rhf"
			},
			{
				"type": "occ",
				"energy": -0.26354,
				"method": "rhf"
			},
			{
				"type": "occ",
				"energy": -0.26144,
				"method": "rhf"
			},
			{
				"type": "occ",
				"energy": -0.25255,
				"method": "rhf"
			},
			{
				"type": "occ",
				"energy": -0.22853,
				"method": "rhf"
			},
			{
				"type": "unocc",
				"energy": 0.0456,
				"method": "rhf"
			},
			{
				"type": "unocc",
				"energy": 0.05538,
				"method": "rhf"
			},
			{
				"type": "unocc",
				"energy": 0.06488,
				"method": "rhf"
			},
			{
				"type": "unocc",
				"energy": 0.08188,
				"method": "rhf"
			},
			{
				"type": "unocc",
				"energy": 0.0935,
				"method": "rhf"
			}
		],
		"cosmo_sigma_profile": { 
			"-0.025": 0.0,
			"-0.024": 0.0,
			"-0.023": 0.0,
			"-0.022": 0.0,
			"-0.021": 0.0,
			"-0.02": 0.0,
			"-0.019": 0.0,
			"-0.018": 0.0,
			"-0.017": 0.0,
			"-0.016": 0.0,
			"-0.015": 0.0,
			"-0.014": 0.0,
			"-0.013": 0.0,
			"-0.012": 0.0425699550419,
			"-0.011": 0.955260776224,
			"-0.01": 1.43236963619,
			"-0.009": 0.806679033895,
			"-0.008": 0.838900240802,
			"-0.007": 1.88303436594,
			"-0.006": 2.85292151352,
			"-0.005": 8.01944227774,
			"-0.004": 27.6132064699,
			"-0.003": 37.1207543447,
			"-0.002": 32.4635023562,
			"-0.001": 29.5920697679,
			"0.0": 31.8136379599,
			"0.001": 25.6170074229,
			"0.002": 12.4320971954,
			"0.003": 10.8830119024,
			"0.004": 10.8631375598,
			"0.005": 9.73779753959,
			"0.006": 9.41495029494,
			"0.007": 7.85132593453,
			"0.008": 2.10340032822,
			"0.009": 1.81668978949,
			"0.01": 1.39271976388,
			"0.011": 1.36254305562,
			"0.012": 2.04834987637,
			"0.013": 2.42004174627,
			"0.014": 1.72634067158,
			"0.015": 0.0,
			"0.016": 0.0,
			"0.017": 0.0,
			"0.018": 0.0,
			"0.019": 0.0,
			"0.02": 0.0,
			"0.021": 0.0,
			"0.022": 0.0,
			"0.023": 0.0,
			"0.024": 0.0,
			"0.025": 0.0
		}
	}
}
