{
	 "smiles": "CCNC(C)CC", 
	 "Tm": 169.15, 
	 "num_atms": 22, 
	 "gaussian": { 
		 "optdone": 1, 
		 "sigma_profile": "yes", 
		 "theory": "DFT", 
		 "functional": "B3LYP", 
		 "basiset": "6-31G**", 
		 "properties": { 
			 "R2extent": 1299.5631, 
			 "electric_dipole_moment_norm": 1.06118988876, 
			 "electric_quadrupole_moment_norm": 4.50089005864, 
			 "total_energy": -292.434433455, 
			 "HOMO_LUMO_gap": 0.28475, 
			 "cosmo_polarized_energy": -3.2, 
			 "cosmo_cavitation_energy": 22.56, 
			 "cosmo_dispersion_energy": -16.24, 
			 "cosmo_repulsion_energy": 1.38, 
			 "cosmo_total_nonelectrostatic_energy": 7.7, 
			 "SMD_solvation_energy": 2.92 
		},
		"coords": [
			{
				"x": -0.9468790679,
				"y": 2.4567253568,
				"z": 0.4451839087,
				"element": "C" 
			},
			{
				"x": -0.8495264139,
				"y": 1.6294353208,
				"z": -0.8395727573,
				"element": "C" 
			},
			{
				"x": -1.598794478,
				"y": 0.3680193004,
				"z": -0.8001128054,
				"element": "N" 
			},
			{
				"x": -1.0449473956,
				"y": -0.7930133057,
				"z": -0.06944522,
				"element": "C" 
			},
			{
				"x": 0.4799022046,
				"y": -0.9711514317,
				"z": -0.1845089017,
				"element": "C" 
			},
			{
				"x": -1.5017388642,
				"y": -0.8229410037,
				"z": 1.4048460509,
				"element": "C" 
			},
			{
				"x": -3.0226842496,
				"y": -0.8381016153,
				"z": 1.5730140749,
				"element": "C" 
			},
			{
				"x": -1.9925032259,
				"y": 2.584621715,
				"z": 0.7408759474,
				"element": "H" 
			},
			{
				"x": -0.4126899466,
				"y": 1.9904700081,
				"z": 1.2780771674,
				"element": "H" 
			},
			{
				"x": -0.5054435782,
				"y": 3.4472736191,
				"z": 0.2886462112,
				"element": "H" 
			},
			{
				"x": -1.2890077656,
				"y": 2.2151077454,
				"z": -1.655913116,
				"element": "H" 
			},
			{
				"x": 0.2152706525,
				"y": 1.497770453,
				"z": -1.0993915737,
				"element": "H" 
			},
			{
				"x": -1.7771501217,
				"y": 0.0819897736,
				"z": -1.7566314131,
				"element": "H" 
			},
			{
				"x": -1.5092764916,
				"y": -1.6666211798,
				"z": -0.5489922384,
				"element": "H" 
			},
			{
				"x": 0.7859939399,
				"y": -1.9250691755,
				"z": 0.2577472581,
				"element": "H" 
			},
			{
				"x": 0.8039863527,
				"y": -0.9677518019,
				"z": -1.231160861,
				"element": "H" 
			},
			{
				"x": 1.0258710615,
				"y": -0.1789061739,
				"z": 0.33916443,
				"element": "H" 
			},
			{
				"x": -1.0681887972,
				"y": -1.7161619209,
				"z": 1.8745013868,
				"element": "H" 
			},
			{
				"x": -1.0773182746,
				"y": 0.0344570046,
				"z": 1.9403500127,
				"element": "H" 
			},
			{
				"x": -3.3065066657,
				"y": -0.8194068273,
				"z": 2.6304925759,
				"element": "H" 
			},
			{
				"x": -3.4702856929,
				"y": 0.0252423473,
				"z": 1.0744533324,
				"element": "H" 
			},
			{
				"x": -3.4589831819,
				"y": -1.7407882083,
				"z": 1.1282765302,
				"element": "H" 
			}
		],
		 "valence_orbital": [ 
			{
				"type": "occ",
				"energy": -0.34307,
				"method": "rhf"
			},
			{
				"type": "occ",
				"energy": -0.32709,
				"method": "rhf"
			},
			{
				"type": "occ",
				"energy": -0.31249,
				"method": "rhf"
			},
			{
				"type": "occ",
				"energy": -0.30954,
				"method": "rhf"
			},
			{
				"type": "occ",
				"energy": -0.21103,
				"method": "rhf"
			},
			{
				"type": "unocc",
				"energy": 0.07372,
				"method": "rhf"
			},
			{
				"type": "unocc",
				"energy": 0.10045,
				"method": "rhf"
			},
			{
				"type": "unocc",
				"energy": 0.12082,
				"method": "rhf"
			},
			{
				"type": "unocc",
				"energy": 0.12707,
				"method": "rhf"
			},
			{
				"type": "unocc",
				"energy": 0.15042,
				"method": "rhf"
			}
		],
		"cosmo_sigma_profile": { 
			"-0.025": 0.0,
			"-0.024": 0.0,
			"-0.023": 0.0,
			"-0.022": 0.0,
			"-0.021": 0.0,
			"-0.02": 0.0,
			"-0.019": 0.0,
			"-0.018": 0.0,
			"-0.017": 0.0,
			"-0.016": 0.0,
			"-0.015": 0.0,
			"-0.014": 0.0,
			"-0.013": 0.0,
			"-0.012": 0.0,
			"-0.011": 0.0,
			"-0.01": 0.073762654976,
			"-0.009": 1.24193343063,
			"-0.008": 1.31587908146,
			"-0.007": 1.0699375596,
			"-0.006": 1.53987801735,
			"-0.005": 1.71699732273,
			"-0.004": 2.23427938853,
			"-0.003": 11.2957682074,
			"-0.002": 25.3560399812,
			"-0.001": 31.354193286,
			"0.0": 29.6307698146,
			"0.001": 29.9061031132,
			"0.002": 20.5307278443,
			"0.003": 4.61564414695,
			"0.004": 1.60358386557,
			"0.005": 1.93162147533,
			"0.006": 1.15102222037,
			"0.007": 0.811773537149,
			"0.008": 0.753231598291,
			"0.009": 0.998778792477,
			"0.01": 1.20052487817,
			"0.011": 0.674418604127,
			"0.012": 0.47923951661,
			"0.013": 0.741517520002,
			"0.014": 0.636813628761,
			"0.015": 0.0257472650995,
			"0.016": 0.0,
			"0.017": 0.0,
			"0.018": 0.0,
			"0.019": 0.0,
			"0.02": 0.0,
			"0.021": 0.0,
			"0.022": 0.0,
			"0.023": 0.0,
			"0.024": 0.0,
			"0.025": 0.0
		}
	}
}
