{
	 "smiles": "CC1=CC=C(NC2=CC=C(C=C2[N+]([O-])=O)[N+]([O-])=O)C=C1", 
	 "Tm": 413.15, 
	 "num_atms": 31, 
	 "gaussian": { 
		 "optdone": 1, 
		 "sigma_profile": "yes", 
		 "theory": "DFT", 
		 "functional": "B3LYP", 
		 "basiset": "6-31G**", 
		 "properties": { 
			 "R2extent": 7937.5405, 
			 "electric_dipole_moment_norm": 7.84136875807, 
			 "electric_quadrupole_moment_norm": 19.8517955936, 
			 "total_energy": -966.977493408, 
			 "HOMO_LUMO_gap": 0.1288, 
			 "cosmo_polarized_energy": -14.27, 
			 "cosmo_cavitation_energy": 36.8, 
			 "cosmo_dispersion_energy": -26.53, 
			 "cosmo_repulsion_energy": 2.02, 
			 "cosmo_total_nonelectrostatic_energy": 12.28, 
			 "SMD_solvation_energy": 10.36 
		},
		"coords": [
			{
				"x": 1.6897282267,
				"y": -1.0046069504,
				"z": 5.003872315,
				"element": "C" 
			},
			{
				"x": 1.4363965275,
				"y": -0.5939479369,
				"z": 3.5730949471,
				"element": "C" 
			},
			{
				"x": 1.5665040491,
				"y": 0.7419634183,
				"z": 3.1696898053,
				"element": "C" 
			},
			{
				"x": 1.3528392756,
				"y": 1.1235883037,
				"z": 1.8475523027,
				"element": "C" 
			},
			{
				"x": 1.0082603912,
				"y": 0.1665033657,
				"z": 0.8849193395,
				"element": "C" 
			},
			{
				"x": 0.8622499126,
				"y": 0.5859305515,
				"z": -0.4626893362,
				"element": "N" 
			},
			{
				"x": -0.1121056001,
				"y": 0.2489532674,
				"z": -1.3458133628,
				"element": "C" 
			},
			{
				"x": -1.2686879281,
				"y": -0.4781330117,
				"z": -0.9417131469,
				"element": "C" 
			},
			{
				"x": -2.2600086739,
				"y": -0.8228203845,
				"z": -1.8313187414,
				"element": "C" 
			},
			{
				"x": -2.1431773623,
				"y": -0.4579718807,
				"z": -3.1825614357,
				"element": "C" 
			},
			{
				"x": -1.0535952405,
				"y": 0.2639277448,
				"z": -3.6290545812,
				"element": "C" 
			},
			{
				"x": -0.049345225,
				"y": 0.624332706,
				"z": -2.7294281433,
				"element": "C" 
			},
			{
				"x": 1.0526718015,
				"y": 1.3980724677,
				"z": -3.2801915149,
				"element": "N" 
			},
			{
				"x": 1.9202584225,
				"y": 1.8436348235,
				"z": -2.5025757956,
				"element": "O" 
			},
			{
				"x": 1.0874068865,
				"y": 1.5898054999,
				"z": -4.4922852703,
				"element": "O" 
			},
			{
				"x": -3.1919445629,
				"y": -0.8319332254,
				"z": -4.1253526949,
				"element": "N" 
			},
			{
				"x": -4.1439883527,
				"y": -1.4804135708,
				"z": -3.684912012,
				"element": "O" 
			},
			{
				"x": -3.0639899012,
				"y": -0.4797355363,
				"z": -5.2984288194,
				"element": "O" 
			},
			{
				"x": 0.8949447729,
				"y": -1.1765911589,
				"z": 1.2675798283,
				"element": "C" 
			},
			{
				"x": 1.094704115,
				"y": -1.5403981375,
				"z": 2.5978016722,
				"element": "C" 
			},
			{
				"x": 1.104913744,
				"y": -1.8878540332,
				"z": 5.2767632817,
				"element": "H" 
			},
			{
				"x": 1.436148028,
				"y": -0.2010560247,
				"z": 5.7015998887,
				"element": "H" 
			},
			{
				"x": 2.7467880611,
				"y": -1.2519557287,
				"z": 5.1628951298,
				"element": "H" 
			},
			{
				"x": 1.8298036575,
				"y": 1.4994924853,
				"z": 3.9032767503,
				"element": "H" 
			},
			{
				"x": 1.4408041569,
				"y": 2.1663307276,
				"z": 1.5562726999,
				"element": "H" 
			},
			{
				"x": 1.5592478261,
				"y": 1.2190651304,
				"z": -0.8488197321,
				"element": "H" 
			},
			{
				"x": -1.3711081907,
				"y": -0.7422038026,
				"z": 0.1026787409,
				"element": "H" 
			},
			{
				"x": -3.1398434373,
				"y": -1.3646717699,
				"z": -1.5067362528,
				"element": "H" 
			},
			{
				"x": -0.9713839227,
				"y": 0.5541957406,
				"z": -4.6673870057,
				"element": "H" 
			},
			{
				"x": 0.670323944,
				"y": -1.9352883514,
				"z": 0.5251348414,
				"element": "H" 
			},
			{
				"x": 0.9985845989,
				"y": -2.5861147287,
				"z": 2.8783363022,
				"element": "H" 
			}
		],
		 "valence_orbital": [ 
			{
				"type": "occ",
				"energy": -0.29797,
				"method": "rhf"
			},
			{
				"type": "occ",
				"energy": -0.2904,
				"method": "rhf"
			},
			{
				"type": "occ",
				"energy": -0.27689,
				"method": "rhf"
			},
			{
				"type": "occ",
				"energy": -0.27368,
				"method": "rhf"
			},
			{
				"type": "occ",
				"energy": -0.23109,
				"method": "rhf"
			},
			{
				"type": "unocc",
				"energy": -0.10229,
				"method": "rhf"
			},
			{
				"type": "unocc",
				"energy": -0.08866,
				"method": "rhf"
			},
			{
				"type": "unocc",
				"energy": -0.03146,
				"method": "rhf"
			},
			{
				"type": "unocc",
				"energy": -0.02547,
				"method": "rhf"
			},
			{
				"type": "unocc",
				"energy": -0.01391,
				"method": "rhf"
			}
		],
		"cosmo_sigma_profile": { 
			"-0.025": 0.0,
			"-0.024": 0.0,
			"-0.023": 0.0,
			"-0.022": 0.0,
			"-0.021": 0.0,
			"-0.02": 0.0,
			"-0.019": 0.0,
			"-0.018": 0.0,
			"-0.017": 0.0,
			"-0.016": 0.0,
			"-0.015": 0.0,
			"-0.014": 0.0,
			"-0.013": 0.0,
			"-0.012": 0.0,
			"-0.011": 0.041380691239,
			"-0.01": 0.862991877448,
			"-0.009": 1.49850617275,
			"-0.008": 3.01680395482,
			"-0.007": 7.52142287134,
			"-0.006": 14.6197580282,
			"-0.005": 20.0089854556,
			"-0.004": 28.836574997,
			"-0.003": 24.8680740409,
			"-0.002": 32.2741919537,
			"-0.001": 28.5686401093,
			"0.0": 22.2892755944,
			"0.001": 15.060433301,
			"0.002": 11.4369194636,
			"0.003": 11.4903861688,
			"0.004": 13.4485814107,
			"0.005": 11.6856839029,
			"0.006": 6.33570873191,
			"0.007": 12.1122827268,
			"0.008": 13.7743905244,
			"0.009": 9.10262488662,
			"0.01": 5.91362282244,
			"0.011": 0.602986361297,
			"0.012": 0.0,
			"0.013": 0.0,
			"0.014": 0.0,
			"0.015": 0.0,
			"0.016": 0.0,
			"0.017": 0.0,
			"0.018": 0.0,
			"0.019": 0.0,
			"0.02": 0.0,
			"0.021": 0.0,
			"0.022": 0.0,
			"0.023": 0.0,
			"0.024": 0.0,
			"0.025": 0.0
		}
	}
}
