{
	 "smiles": "CC1=C(C)C2=C(S1)N=C(C)N=C2S", 
	 "Tm": 467.15, 
	 "num_atms": 23, 
	 "gaussian": { 
		 "optdone": 1, 
		 "sigma_profile": "yes", 
		 "theory": "DFT", 
		 "functional": "B3LYP", 
		 "basiset": "6-31G**", 
		 "properties": { 
			 "R2extent": 4315.3292, 
			 "electric_dipole_moment_norm": 2.10955419935, 
			 "electric_quadrupole_moment_norm": 13.55997908, 
			 "total_energy": -1254.88104728, 
			 "HOMO_LUMO_gap": 0.17831, 
			 "cosmo_polarized_energy": -7.19, 
			 "cosmo_cavitation_energy": 29.17, 
			 "cosmo_dispersion_energy": -22.62, 
			 "cosmo_repulsion_energy": 1.7, 
			 "cosmo_total_nonelectrostatic_energy": 8.25, 
			 "SMD_solvation_energy": 1.44 
		},
		"coords": [
			{
				"x": 0.6159905025,
				"y": -0.8006202067,
				"z": 4.0373014383,
				"element": "C" 
			},
			{
				"x": 0.9985258143,
				"y": -0.9744628204,
				"z": 2.5927114228,
				"element": "C" 
			},
			{
				"x": 0.9458522467,
				"y": -0.0451762067,
				"z": 1.5897391109,
				"element": "C" 
			},
			{
				"x": 0.4698540513,
				"y": 1.3689403894,
				"z": 1.7958581008,
				"element": "C" 
			},
			{
				"x": 1.4002580286,
				"y": -0.5913670043,
				"z": 0.3269797972,
				"element": "C" 
			},
			{
				"x": 1.789807507,
				"y": -1.9476449814,
				"z": 0.4238285658,
				"element": "C" 
			},
			{
				"x": 1.5974338097,
				"y": -2.5434242217,
				"z": 2.0563586831,
				"element": "S" 
			},
			{
				"x": 2.2477530451,
				"y": -2.7065700228,
				"z": -0.572022647,
				"element": "N" 
			},
			{
				"x": 2.3304037476,
				"y": -2.0897394565,
				"z": -1.7528291848,
				"element": "C" 
			},
			{
				"x": 2.8384812797,
				"y": -2.8784313678,
				"z": -2.9282805409,
				"element": "C" 
			},
			{
				"x": 1.9936762857,
				"y": -0.8033487089,
				"z": -1.988053333,
				"element": "N" 
			},
			{
				"x": 1.5392668231,
				"y": -0.0660240346,
				"z": -0.9790119089,
				"element": "C" 
			},
			{
				"x": 1.1144228699,
				"y": 1.6245882308,
				"z": -1.3657369706,
				"element": "S" 
			},
			{
				"x": 1.2201504187,
				"y": -0.0237303619,
				"z": 4.5190417432,
				"element": "H" 
			},
			{
				"x": -0.43659464,
				"y": -0.5138982078,
				"z": 4.1391177068,
				"element": "H" 
			},
			{
				"x": 0.7597280071,
				"y": -1.7246703471,
				"z": 4.6026886896,
				"element": "H" 
			},
			{
				"x": 0.1808839365,
				"y": 1.5377947626,
				"z": 2.8354302179,
				"element": "H" 
			},
			{
				"x": 1.2492733323,
				"y": 2.0973719237,
				"z": 1.5469762014,
				"element": "H" 
			},
			{
				"x": -0.3994930184,
				"y": 1.5974533712,
				"z": 1.1697122215,
				"element": "H" 
			},
			{
				"x": 3.0775228839,
				"y": -3.8974267095,
				"z": -2.6225204034,
				"element": "H" 
			},
			{
				"x": 2.0864898771,
				"y": -2.9027878061,
				"z": -3.7238137976,
				"element": "H" 
			},
			{
				"x": 3.7319242908,
				"y": -2.403928043,
				"z": -3.3473060385,
				"element": "H" 
			},
			{
				"x": 1.4515889007,
				"y": 1.4900018294,
				"z": -2.6626690746,
				"element": "H" 
			}
		],
		 "valence_orbital": [ 
			{
				"type": "occ",
				"energy": -0.30273,
				"method": "rhf"
			},
			{
				"type": "occ",
				"energy": -0.26487,
				"method": "rhf"
			},
			{
				"type": "occ",
				"energy": -0.25752,
				"method": "rhf"
			},
			{
				"type": "occ",
				"energy": -0.25111,
				"method": "rhf"
			},
			{
				"type": "occ",
				"energy": -0.21693,
				"method": "rhf"
			},
			{
				"type": "unocc",
				"energy": -0.03862,
				"method": "rhf"
			},
			{
				"type": "unocc",
				"energy": -0.02674,
				"method": "rhf"
			},
			{
				"type": "unocc",
				"energy": 0.01122,
				"method": "rhf"
			},
			{
				"type": "unocc",
				"energy": 0.01743,
				"method": "rhf"
			},
			{
				"type": "unocc",
				"energy": 0.03025,
				"method": "rhf"
			}
		],
		"cosmo_sigma_profile": { 
			"-0.025": 0.0,
			"-0.024": 0.0,
			"-0.023": 0.0,
			"-0.022": 0.0,
			"-0.021": 0.0,
			"-0.02": 0.0,
			"-0.019": 0.0,
			"-0.018": 0.0,
			"-0.017": 0.0,
			"-0.016": 0.0,
			"-0.015": 0.0,
			"-0.014": 0.0,
			"-0.013": 0.0,
			"-0.012": 0.0,
			"-0.011": 0.707181404122,
			"-0.01": 1.36478931063,
			"-0.009": 1.30315917503,
			"-0.008": 0.896445522564,
			"-0.007": 1.02375989104,
			"-0.006": 3.73431049099,
			"-0.005": 12.585774875,
			"-0.004": 18.7131795147,
			"-0.003": 21.1385865219,
			"-0.002": 22.600127291,
			"-0.001": 31.4416868172,
			"0.0": 28.2711252439,
			"0.001": 20.2827413613,
			"0.002": 21.2913987799,
			"0.003": 16.1224675394,
			"0.004": 9.78870156114,
			"0.005": 6.08718630809,
			"0.006": 4.86415478939,
			"0.007": 3.78205407714,
			"0.008": 2.50682580563,
			"0.009": 2.46523524744,
			"0.01": 1.26801783643,
			"0.011": 2.13479185227,
			"0.012": 1.03242802363,
			"0.013": 0.728781529151,
			"0.014": 0.561894553058,
			"0.015": 0.0,
			"0.016": 0.0,
			"0.017": 0.0,
			"0.018": 0.0,
			"0.019": 0.0,
			"0.02": 0.0,
			"0.021": 0.0,
			"0.022": 0.0,
			"0.023": 0.0,
			"0.024": 0.0,
			"0.025": 0.0
		}
	}
}
