{
	 "smiles": "OC(=O)C(F)=C1CCCC1", 
	 "Tm": 357.15, 
	 "num_atms": 19, 
	 "gaussian": { 
		 "optdone": 1, 
		 "sigma_profile": "yes", 
		 "theory": "DFT", 
		 "functional": "B3LYP", 
		 "basiset": "6-31G**", 
		 "properties": { 
			 "R2extent": 2296.9546, 
			 "electric_dipole_moment_norm": 1.31600180091, 
			 "electric_quadrupole_moment_norm": 5.73437521183, 
			 "total_energy": -522.454896974, 
			 "HOMO_LUMO_gap": 0.2045, 
			 "cosmo_polarized_energy": -8.34, 
			 "cosmo_cavitation_energy": 22.53, 
			 "cosmo_dispersion_energy": -16.73, 
			 "cosmo_repulsion_energy": 1.37, 
			 "cosmo_total_nonelectrostatic_energy": 7.17, 
			 "SMD_solvation_energy": 5.04 
		},
		"coords": [
			{
				"x": 0.0378881782,
				"y": -3.4347373428,
				"z": 3.0021717934,
				"element": "O" 
			},
			{
				"x": 0.1202168443,
				"y": -2.9758959311,
				"z": 1.7332183599,
				"element": "C" 
			},
			{
				"x": 0.0065110592,
				"y": -3.6985565737,
				"z": 0.7590479851,
				"element": "O" 
			},
			{
				"x": 0.3578223695,
				"y": -1.5224785308,
				"z": 1.6727997401,
				"element": "C" 
			},
			{
				"x": 0.4204180583,
				"y": -0.9014049147,
				"z": 2.8787400871,
				"element": "F" 
			},
			{
				"x": 0.5103078432,
				"y": -0.8020239615,
				"z": 0.5531638027,
				"element": "C" 
			},
			{
				"x": 0.4712807088,
				"y": -1.3082990832,
				"z": -0.8743518277,
				"element": "C" 
			},
			{
				"x": 0.9634342205,
				"y": -0.1072996675,
				"z": -1.7115958821,
				"element": "C" 
			},
			{
				"x": 0.516071642,
				"y": 1.1224598343,
				"z": -0.900835485,
				"element": "C" 
			},
			{
				"x": 0.7453315578,
				"y": 0.6949207374,
				"z": 0.5633364279,
				"element": "C" 
			},
			{
				"x": -0.1209105418,
				"y": -4.38990224,
				"z": 2.9224636501,
				"element": "H" 
			},
			{
				"x": 1.0532909061,
				"y": -2.2222875941,
				"z": -1.010428467,
				"element": "H" 
			},
			{
				"x": -0.5618855947,
				"y": -1.5715737292,
				"z": -1.1377409598,
				"element": "H" 
			},
			{
				"x": 0.5720825051,
				"y": -0.1172072163,
				"z": -2.732841888,
				"element": "H" 
			},
			{
				"x": 2.0581691585,
				"y": -0.1272343118,
				"z": -1.7808585836,
				"element": "H" 
			},
			{
				"x": -0.551280662,
				"y": 1.311659771,
				"z": -1.0688990987,
				"element": "H" 
			},
			{
				"x": 1.0563931754,
				"y": 2.03589775,
				"z": -1.1652276373,
				"element": "H" 
			},
			{
				"x": 0.108381544,
				"y": 1.2109012887,
				"z": 1.2878071102,
				"element": "H" 
			},
			{
				"x": 1.7835770276,
				"y": 0.8947617153,
				"z": 0.8645308725,
				"element": "H" 
			}
		],
		 "valence_orbital": [ 
			{
				"type": "occ",
				"energy": -0.34523,
				"method": "rhf"
			},
			{
				"type": "occ",
				"energy": -0.33236,
				"method": "rhf"
			},
			{
				"type": "occ",
				"energy": -0.31878,
				"method": "rhf"
			},
			{
				"type": "occ",
				"energy": -0.27727,
				"method": "rhf"
			},
			{
				"type": "occ",
				"energy": -0.24624,
				"method": "rhf"
			},
			{
				"type": "unocc",
				"energy": -0.04174,
				"method": "rhf"
			},
			{
				"type": "unocc",
				"energy": 0.07825,
				"method": "rhf"
			},
			{
				"type": "unocc",
				"energy": 0.07954,
				"method": "rhf"
			},
			{
				"type": "unocc",
				"energy": 0.085,
				"method": "rhf"
			},
			{
				"type": "unocc",
				"energy": 0.12105,
				"method": "rhf"
			}
		],
		"cosmo_sigma_profile": { 
			"-0.025": 0.0,
			"-0.024": 0.0,
			"-0.023": 0.0,
			"-0.022": 0.0,
			"-0.021": 0.0,
			"-0.02": 0.0,
			"-0.019": 0.26852270873,
			"-0.018": 0.810655692644,
			"-0.017": 0.957621486259,
			"-0.016": 0.568688451729,
			"-0.015": 1.02537670924,
			"-0.014": 0.848466474387,
			"-0.013": 0.253128987784,
			"-0.012": 0.455780693514,
			"-0.011": 0.964261695481,
			"-0.01": 0.374898372864,
			"-0.009": 0.300206240121,
			"-0.008": 1.14997767271,
			"-0.007": 1.37971680016,
			"-0.006": 0.823405687816,
			"-0.005": 3.22490253089,
			"-0.004": 9.31369989384,
			"-0.003": 23.6244435226,
			"-0.002": 25.7477492479,
			"-0.001": 21.8886495631,
			"0.0": 21.3867488648,
			"0.001": 12.0536123231,
			"0.002": 4.89249329203,
			"0.003": 4.83195561824,
			"0.004": 7.68607447463,
			"0.005": 8.01098895392,
			"0.006": 3.9419138552,
			"0.007": 3.65042963302,
			"0.008": 2.8593175894,
			"0.009": 3.2114330225,
			"0.01": 3.86046341669,
			"0.011": 3.13200205184,
			"0.012": 3.22396804569,
			"0.013": 0.123756801124,
			"0.014": 0.0,
			"0.015": 0.0,
			"0.016": 0.0,
			"0.017": 0.0,
			"0.018": 0.0,
			"0.019": 0.0,
			"0.02": 0.0,
			"0.021": 0.0,
			"0.022": 0.0,
			"0.023": 0.0,
			"0.024": 0.0,
			"0.025": 0.0
		}
	}
}
