{
	 "smiles": "NCC(O)COC1=CC=C(I)C=C1", 
	 "Tm": 403.15, 
	 "num_atms": 25, 
	 "gaussian": { 
		 "optdone": 1, 
		 "sigma_profile": "yes", 
		 "theory": "DFT", 
		 "functional": "B3LYP", 
		 "basiset": "6-31G**", 
		 "properties": { 
			 "R2extent": 3612.7884, 
			 "electric_dipole_moment_norm": 2.12205784323, 
			 "electric_quadrupole_moment_norm": 10.8974403618, 
			 "total_energy": -566.750482149, 
			 "HOMO_LUMO_gap": 0.18563, 
			 "cosmo_polarized_energy": -12.97, 
			 "cosmo_cavitation_energy": 31.49, 
			 "cosmo_dispersion_energy": -24.06, 
			 "cosmo_repulsion_energy": 1.9, 
			 "cosmo_total_nonelectrostatic_energy": 9.33, 
			 "SMD_solvation_energy": 3.15 
		},
		"coords": [
			{
				"x": -2.2096177603,
				"y": 0.8664249054,
				"z": 3.4164157305,
				"element": "N" 
			},
			{
				"x": -1.4029967021,
				"y": -0.1350419222,
				"z": 2.7264884555,
				"element": "C" 
			},
			{
				"x": -0.160240654,
				"y": 0.3947646297,
				"z": 1.9850501615,
				"element": "C" 
			},
			{
				"x": 0.6863290988,
				"y": 1.137517705,
				"z": 2.8651281044,
				"element": "O" 
			},
			{
				"x": -0.4982778948,
				"y": 1.3834309485,
				"z": 0.8657551204,
				"element": "C" 
			},
			{
				"x": -1.3568236969,
				"y": 0.8118762183,
				"z": -0.1189653313,
				"element": "O" 
			},
			{
				"x": -0.8333657241,
				"y": 0.0652326333,
				"z": -1.1367491739,
				"element": "C" 
			},
			{
				"x": 0.5269579471,
				"y": -0.2090221931,
				"z": -1.322221254,
				"element": "C" 
			},
			{
				"x": 0.9413103424,
				"y": -0.9750077098,
				"z": -2.4162538465,
				"element": "C" 
			},
			{
				"x": 0.0033023486,
				"y": -1.4689504137,
				"z": -3.3192620945,
				"element": "C" 
			},
			{
				"x": 0.6391163908,
				"y": -2.634474336,
				"z": -4.9731689883,
				"element": "I" 
			},
			{
				"x": -1.3576180509,
				"y": -1.2017380068,
				"z": -3.1383653065,
				"element": "C" 
			},
			{
				"x": -1.7695718466,
				"y": -0.4380540712,
				"z": -2.052270783,
				"element": "C" 
			},
			{
				"x": -2.7421459311,
				"y": 1.4171693384,
				"z": 2.7485795392,
				"element": "H" 
			},
			{
				"x": -1.5916333744,
				"y": 1.5109064651,
				"z": 3.9053219376,
				"element": "H" 
			},
			{
				"x": -2.0368269407,
				"y": -0.6814437415,
				"z": 2.0205872575,
				"element": "H" 
			},
			{
				"x": -1.0570289005,
				"y": -0.8721685052,
				"z": 3.4663724307,
				"element": "H" 
			},
			{
				"x": 0.3810470355,
				"y": -0.4632874079,
				"z": 1.5556058326,
				"element": "H" 
			},
			{
				"x": 1.0168245595,
				"y": 0.5333168609,
				"z": 3.5425851922,
				"element": "H" 
			},
			{
				"x": 0.4185114794,
				"y": 1.7843038286,
				"z": 0.4214322401,
				"element": "H" 
			},
			{
				"x": -1.0558248099,
				"y": 2.2239470601,
				"z": 1.2874136767,
				"element": "H" 
			},
			{
				"x": 1.275773127,
				"y": 0.158729221,
				"z": -0.6310091904,
				"element": "H" 
			},
			{
				"x": 1.9974976301,
				"y": -1.180847947,
				"z": -2.5500980392,
				"element": "H" 
			},
			{
				"x": -2.0932388985,
				"y": -1.5827044519,
				"z": -3.8379039707,
				"element": "H" 
			},
			{
				"x": -2.8199587744,
				"y": -0.2152791079,
				"z": -1.8960677004,
				"element": "H" 
			}
		],
		 "valence_orbital": [ 
			{
				"type": "occ",
				"energy": -0.27538,
				"method": "rhf"
			},
			{
				"type": "occ",
				"energy": -0.26594,
				"method": "rhf"
			},
			{
				"type": "occ",
				"energy": -0.26572,
				"method": "rhf"
			},
			{
				"type": "occ",
				"energy": -0.23697,
				"method": "rhf"
			},
			{
				"type": "occ",
				"energy": -0.22131,
				"method": "rhf"
			},
			{
				"type": "unocc",
				"energy": -0.03568,
				"method": "rhf"
			},
			{
				"type": "unocc",
				"energy": -0.01711,
				"method": "rhf"
			},
			{
				"type": "unocc",
				"energy": -0.00619,
				"method": "rhf"
			},
			{
				"type": "unocc",
				"energy": 0.04393,
				"method": "rhf"
			},
			{
				"type": "unocc",
				"energy": 0.05252,
				"method": "rhf"
			}
		],
		"cosmo_sigma_profile": { 
			"-0.025": 0.0,
			"-0.024": 0.0,
			"-0.023": 0.0,
			"-0.022": 0.0,
			"-0.021": 0.0,
			"-0.02": 0.0,
			"-0.019": 0.0,
			"-0.018": 0.0,
			"-0.017": 0.0,
			"-0.016": 0.309690853866,
			"-0.015": 1.15243899983,
			"-0.014": 0.928521712607,
			"-0.013": 1.18705087781,
			"-0.012": 0.693207313919,
			"-0.011": 0.928306698491,
			"-0.01": 1.58924883422,
			"-0.009": 1.80938985525,
			"-0.008": 3.39044026166,
			"-0.007": 9.93682565315,
			"-0.006": 15.9244661367,
			"-0.005": 15.5145968685,
			"-0.004": 18.2876069191,
			"-0.003": 18.6466056336,
			"-0.002": 15.2928617313,
			"-0.001": 15.0644412376,
			"0.0": 14.0292108744,
			"0.001": 14.7358567644,
			"0.002": 18.3971343331,
			"0.003": 21.2531012615,
			"0.004": 25.9820857946,
			"0.005": 14.3258595689,
			"0.006": 3.29415143553,
			"0.007": 2.05839529926,
			"0.008": 3.30864593373,
			"0.009": 3.10800230276,
			"0.01": 2.26477318174,
			"0.011": 1.3613984183,
			"0.012": 1.56918249473,
			"0.013": 2.32539785386,
			"0.014": 1.0774313022,
			"0.015": 0.740816682221,
			"0.016": 0.630873700448,
			"0.017": 0.72993088292,
			"0.018": 0.108371692298,
			"0.019": 1.09795301066,
			"0.02": 0.201433375763,
			"0.021": 0.0,
			"0.022": 0.0,
			"0.023": 0.0,
			"0.024": 0.0,
			"0.025": 0.0
		}
	}
}
