{
	 "smiles": "COC1=CC=C(NC=C2C3CCC(C)(C2=O)C3(C)C)C=C1", 
	 "Tm": 444.15, 
	 "num_atms": 44, 
	 "gaussian": { 
		 "optdone": 1, 
		 "sigma_profile": "yes", 
		 "theory": "DFT", 
		 "functional": "B3LYP", 
		 "basiset": "6-31G**", 
		 "properties": { 
			 "R2extent": 7897.7074, 
			 "electric_dipole_moment_norm": 3.30492910211, 
			 "electric_quadrupole_moment_norm": 14.5769588917, 
			 "total_energy": -904.951096887, 
			 "HOMO_LUMO_gap": 0.15304, 
			 "cosmo_polarized_energy": -16.94, 
			 "cosmo_cavitation_energy": 43.39, 
			 "cosmo_dispersion_energy": -30.03, 
			 "cosmo_repulsion_energy": 2.27, 
			 "cosmo_total_nonelectrostatic_energy": 15.64, 
			 "SMD_solvation_energy": 8.3 
		},
		"coords": [
			{
				"x": 3.1407469105,
				"y": 0.4483338817,
				"z": -5.5668958694,
				"element": "C" 
			},
			{
				"x": 2.9054506216,
				"y": 1.0049262165,
				"z": -4.2859092851,
				"element": "O" 
			},
			{
				"x": 2.5009190901,
				"y": 0.1652393063,
				"z": -3.2845930926,
				"element": "C" 
			},
			{
				"x": 2.2555439312,
				"y": 0.76849997,
				"z": -2.0427282511,
				"element": "C" 
			},
			{
				"x": 1.8405857439,
				"y": 0.0136090208,
				"z": -0.9561756446,
				"element": "C" 
			},
			{
				"x": 1.6577299931,
				"y": -1.371617307,
				"z": -1.0872813729,
				"element": "C" 
			},
			{
				"x": 1.3301388161,
				"y": -2.2039278638,
				"z": 0.0084859529,
				"element": "N" 
			},
			{
				"x": 0.6962773597,
				"y": -1.9404557877,
				"z": 1.195494063,
				"element": "C" 
			},
			{
				"x": -0.2129264761,
				"y": -0.9954258163,
				"z": 1.5560664197,
				"element": "C" 
			},
			{
				"x": -0.7190698579,
				"y": -0.8168121529,
				"z": 2.9814619008,
				"element": "C" 
			},
			{
				"x": -0.1517874326,
				"y": 0.5437255109,
				"z": 3.4773992562,
				"element": "C" 
			},
			{
				"x": -0.9356967783,
				"y": 1.5685650774,
				"z": 2.6011794231,
				"element": "C" 
			},
			{
				"x": -1.9175633031,
				"y": 0.6855385882,
				"z": 1.7587675704,
				"element": "C" 
			},
			{
				"x": -3.0625839815,
				"y": 1.4386154977,
				"z": 1.1064051628,
				"element": "C" 
			},
			{
				"x": -0.9939059517,
				"y": -0.036388597,
				"z": 0.7512199245,
				"element": "C" 
			},
			{
				"x": -0.9734112132,
				"y": 0.1584624479,
				"z": -0.4570382117,
				"element": "O" 
			},
			{
				"x": -2.2334785385,
				"y": -0.4900721155,
				"z": 2.7556677221,
				"element": "C" 
			},
			{
				"x": -2.9852629394,
				"y": -0.0620751537,
				"z": 4.02758439,
				"element": "C" 
			},
			{
				"x": -3.0209993968,
				"y": -1.6484370139,
				"z": 2.1188462374,
				"element": "C" 
			},
			{
				"x": 1.9065528536,
				"y": -1.9705924459,
				"z": -2.3246541829,
				"element": "C" 
			},
			{
				"x": 2.3292436053,
				"y": -1.2159114938,
				"z": -3.4209779325,
				"element": "C" 
			},
			{
				"x": 3.4364574919,
				"y": 1.2795097758,
				"z": -6.209344343,
				"element": "H" 
			},
			{
				"x": 3.9496307446,
				"y": -0.2946026165,
				"z": -5.5464458723,
				"element": "H" 
			},
			{
				"x": 2.2372875561,
				"y": -0.0208151044,
				"z": -5.9786654503,
				"element": "H" 
			},
			{
				"x": 2.3980025034,
				"y": 1.8401960759,
				"z": -1.9518259988,
				"element": "H" 
			},
			{
				"x": 1.6730242714,
				"y": 0.4912734624,
				"z": 0.0006289091,
				"element": "H" 
			},
			{
				"x": 1.7609416817,
				"y": -3.1155735498,
				"z": -0.0340742661,
				"element": "H" 
			},
			{
				"x": 0.9818459104,
				"y": -2.6563738807,
				"z": 1.9673425285,
				"element": "H" 
			},
			{
				"x": -0.5104274822,
				"y": -1.6619760407,
				"z": 3.6464406668,
				"element": "H" 
			},
			{
				"x": -0.3406692888,
				"y": 0.6959728079,
				"z": 4.5447412202,
				"element": "H" 
			},
			{
				"x": 0.929778307,
				"y": 0.6004442994,
				"z": 3.3275609377,
				"element": "H" 
			},
			{
				"x": -0.2824756409,
				"y": 2.1609467656,
				"z": 1.9524079062,
				"element": "H" 
			},
			{
				"x": -1.5003556805,
				"y": 2.2798695432,
				"z": 3.2126512882,
				"element": "H" 
			},
			{
				"x": -2.675293721,
				"y": 2.1581523029,
				"z": 0.3786204773,
				"element": "H" 
			},
			{
				"x": -3.7269069044,
				"y": 0.7609774764,
				"z": 0.561153823,
				"element": "H" 
			},
			{
				"x": -3.6570798857,
				"y": 1.983323866,
				"z": 1.8476888902,
				"element": "H" 
			},
			{
				"x": -4.0199775797,
				"y": 0.2058670919,
				"z": 3.7875041882,
				"element": "H" 
			},
			{
				"x": -2.5376002653,
				"y": 0.791267957,
				"z": 4.5405399461,
				"element": "H" 
			},
			{
				"x": -3.0228724553,
				"y": -0.8937702927,
				"z": 4.7412064144,
				"element": "H" 
			},
			{
				"x": -2.5603648853,
				"y": -2.0230408083,
				"z": 1.2018381362,
				"element": "H" 
			},
			{
				"x": -4.0420884491,
				"y": -1.3346921433,
				"z": 1.8764266859,
				"element": "H" 
			},
			{
				"x": -3.0965967463,
				"y": -2.4874281899,
				"z": 2.8205886971,
				"element": "H" 
			},
			{
				"x": 1.7628659595,
				"y": -3.0422490733,
				"z": -2.4402728949,
				"element": "H" 
			},
			{
				"x": 2.5116715023,
				"y": -1.7143794947,
				"z": -4.3654360694,
				"element": "H" 
			}
		],
		 "valence_orbital": [ 
			{
				"type": "occ",
				"energy": -0.28433,
				"method": "rhf"
			},
			{
				"type": "occ",
				"energy": -0.24485,
				"method": "rhf"
			},
			{
				"type": "occ",
				"energy": -0.23296,
				"method": "rhf"
			},
			{
				"type": "occ",
				"energy": -0.21168,
				"method": "rhf"
			},
			{
				"type": "occ",
				"energy": -0.18333,
				"method": "rhf"
			},
			{
				"type": "unocc",
				"energy": -0.03029,
				"method": "rhf"
			},
			{
				"type": "unocc",
				"energy": 0.00507,
				"method": "rhf"
			},
			{
				"type": "unocc",
				"energy": 0.0288,
				"method": "rhf"
			},
			{
				"type": "unocc",
				"energy": 0.07027,
				"method": "rhf"
			},
			{
				"type": "unocc",
				"energy": 0.07906,
				"method": "rhf"
			}
		],
		"cosmo_sigma_profile": { 
			"-0.025": 0.0,
			"-0.024": 0.0,
			"-0.023": 0.0,
			"-0.022": 0.0,
			"-0.021": 0.0,
			"-0.02": 0.0,
			"-0.019": 0.0,
			"-0.018": 0.0,
			"-0.017": 0.0,
			"-0.016": 0.0,
			"-0.015": 0.558190454948,
			"-0.014": 1.6643708198,
			"-0.013": 1.46093326774,
			"-0.012": 1.22048999947,
			"-0.011": 1.28019360954,
			"-0.01": 1.8794881977,
			"-0.009": 1.59249773802,
			"-0.008": 2.03318309765,
			"-0.007": 3.31035402952,
			"-0.006": 8.71724973166,
			"-0.005": 15.8722711406,
			"-0.004": 18.8960541672,
			"-0.003": 31.5317203573,
			"-0.002": 41.6051979535,
			"-0.001": 38.7998626623,
			"0.0": 36.2944786823,
			"0.001": 37.233683847,
			"0.002": 24.3858671471,
			"0.003": 11.0092071639,
			"0.004": 11.0940674233,
			"0.005": 11.8428172701,
			"0.006": 7.46532425189,
			"0.007": 4.74158146703,
			"0.008": 3.46192460817,
			"0.009": 3.64064027076,
			"0.01": 3.64626122863,
			"0.011": 3.21000808858,
			"0.012": 2.20287982002,
			"0.013": 3.30738033811,
			"0.014": 4.48765893573,
			"0.015": 0.642505732573,
			"0.016": 0.0,
			"0.017": 0.0,
			"0.018": 0.0,
			"0.019": 0.0,
			"0.02": 0.0,
			"0.021": 0.0,
			"0.022": 0.0,
			"0.023": 0.0,
			"0.024": 0.0,
			"0.025": 0.0
		}
	}
}
