{
	 "smiles": "CCOC(=O)NC1=CC(=CC=C1)C(O)=O", 
	 "Tm": 470.15, 
	 "num_atms": 26, 
	 "gaussian": { 
		 "optdone": 1, 
		 "sigma_profile": "yes", 
		 "theory": "DFT", 
		 "functional": "B3LYP", 
		 "basiset": "6-31G**", 
		 "properties": { 
			 "R2extent": 4354.3358, 
			 "electric_dipole_moment_norm": 3.6709879406, 
			 "electric_quadrupole_moment_norm": 29.3644559452, 
			 "total_energy": -743.376119348, 
			 "HOMO_LUMO_gap": 0.18406, 
			 "cosmo_polarized_energy": -19.72, 
			 "cosmo_cavitation_energy": 31.04, 
			 "cosmo_dispersion_energy": -22.13, 
			 "cosmo_repulsion_energy": 1.75, 
			 "cosmo_total_nonelectrostatic_energy": 10.65, 
			 "SMD_solvation_energy": 7.76 
		},
		"coords": [
			{
				"x": 0.4995880115,
				"y": 0.0162782691,
				"z": -3.5289681326,
				"element": "C" 
			},
			{
				"x": -0.8700994066,
				"y": 0.3455739281,
				"z": -2.9585409677,
				"element": "C" 
			},
			{
				"x": -0.8129627009,
				"y": 0.5256421269,
				"z": -1.5188609305,
				"element": "O" 
			},
			{
				"x": -0.4511520356,
				"y": 1.7496800763,
				"z": -1.0936546383,
				"element": "C" 
			},
			{
				"x": -0.1986652847,
				"y": 2.6993688443,
				"z": -1.8123470852,
				"element": "O" 
			},
			{
				"x": -0.3925339689,
				"y": 1.8527862156,
				"z": 0.2842825488,
				"element": "N" 
			},
			{
				"x": -0.6250513205,
				"y": 0.952338953,
				"z": 1.3372827734,
				"element": "C" 
			},
			{
				"x": -0.9720780036,
				"y": -0.3942890523,
				"z": 1.1717727427,
				"element": "C" 
			},
			{
				"x": -1.1933337202,
				"y": -1.2039041981,
				"z": 2.2913609767,
				"element": "C" 
			},
			{
				"x": -1.0421068876,
				"y": -0.6929695499,
				"z": 3.5866699258,
				"element": "C" 
			},
			{
				"x": -0.6845395946,
				"y": 0.6452318439,
				"z": 3.7508151057,
				"element": "C" 
			},
			{
				"x": -0.4864547339,
				"y": 1.4611433679,
				"z": 2.6432346179,
				"element": "C" 
			},
			{
				"x": -1.5629021453,
				"y": -2.6353005857,
				"z": 2.025335885,
				"element": "C" 
			},
			{
				"x": -2.19609925,
				"y": -3.2953459348,
				"z": 3.0324613134,
				"element": "O" 
			},
			{
				"x": -1.3290428973,
				"y": -3.2036027176,
				"z": 0.985004589,
				"element": "O" 
			},
			{
				"x": 0.9215898535,
				"y": -0.868695764,
				"z": -3.044098296,
				"element": "H" 
			},
			{
				"x": 1.1829801828,
				"y": 0.8583131104,
				"z": -3.395326256,
				"element": "H" 
			},
			{
				"x": 0.4121433883,
				"y": -0.1881520342,
				"z": -4.6012405046,
				"element": "H" 
			},
			{
				"x": -1.2814961591,
				"y": 1.2526243681,
				"z": -3.4059192858,
				"element": "H" 
			},
			{
				"x": -1.5720992592,
				"y": -0.4801475345,
				"z": -3.0919867316,
				"element": "H" 
			},
			{
				"x": -0.1271657867,
				"y": 2.7895242152,
				"z": 0.5542009845,
				"element": "H" 
			},
			{
				"x": -1.0738890073,
				"y": -0.8304838792,
				"z": 0.1900423239,
				"element": "H" 
			},
			{
				"x": -1.1503139996,
				"y": -1.3283156061,
				"z": 4.4614302982,
				"element": "H" 
			},
			{
				"x": -0.5523196839,
				"y": 1.0555853611,
				"z": 4.747193754,
				"element": "H" 
			},
			{
				"x": -0.2133340088,
				"y": 2.5040449162,
				"z": 2.7847548978,
				"element": "H" 
			},
			{
				"x": -2.4560615818,
				"y": -2.6712287398,
				"z": 3.7242000914,
				"element": "H" 
			}
		],
		 "valence_orbital": [ 
			{
				"type": "occ",
				"energy": -0.30426,
				"method": "rhf"
			},
			{
				"type": "occ",
				"energy": -0.28595,
				"method": "rhf"
			},
			{
				"type": "occ",
				"energy": -0.27808,
				"method": "rhf"
			},
			{
				"type": "occ",
				"energy": -0.2659,
				"method": "rhf"
			},
			{
				"type": "occ",
				"energy": -0.23518,
				"method": "rhf"
			},
			{
				"type": "unocc",
				"energy": -0.05112,
				"method": "rhf"
			},
			{
				"type": "unocc",
				"energy": -0.0227,
				"method": "rhf"
			},
			{
				"type": "unocc",
				"energy": 0.03649,
				"method": "rhf"
			},
			{
				"type": "unocc",
				"energy": 0.0593,
				"method": "rhf"
			},
			{
				"type": "unocc",
				"energy": 0.06521,
				"method": "rhf"
			}
		],
		"cosmo_sigma_profile": { 
			"-0.025": 0.0,
			"-0.024": 0.0,
			"-0.023": 0.0,
			"-0.022": 0.0,
			"-0.021": 0.0,
			"-0.02": 0.0,
			"-0.019": 0.053170563626,
			"-0.018": 0.637582685177,
			"-0.017": 1.24193182665,
			"-0.016": 0.924853932845,
			"-0.015": 1.88940224205,
			"-0.014": 2.31588490715,
			"-0.013": 1.77353669973,
			"-0.012": 2.53573150254,
			"-0.011": 2.68725148867,
			"-0.01": 2.28769494727,
			"-0.009": 1.95462330628,
			"-0.008": 2.90907216424,
			"-0.007": 6.40507872266,
			"-0.006": 9.22414313343,
			"-0.005": 11.5900673952,
			"-0.004": 16.906937079,
			"-0.003": 16.9220311341,
			"-0.002": 18.1863447375,
			"-0.001": 19.0670925392,
			"0.0": 21.6516879916,
			"0.001": 18.3637410078,
			"0.002": 15.3821074069,
			"0.003": 16.9723587687,
			"0.004": 7.98539134096,
			"0.005": 4.045468475,
			"0.006": 4.14854815203,
			"0.007": 3.58700378942,
			"0.008": 3.69464826058,
			"0.009": 4.50860147628,
			"0.01": 6.20632058018,
			"0.011": 7.18642068293,
			"0.012": 9.18856947059,
			"0.013": 4.54548091962,
			"0.014": 0.0663879001059,
			"0.015": 0.0,
			"0.016": 0.0,
			"0.017": 0.0,
			"0.018": 0.0,
			"0.019": 0.0,
			"0.02": 0.0,
			"0.021": 0.0,
			"0.022": 0.0,
			"0.023": 0.0,
			"0.024": 0.0,
			"0.025": 0.0
		}
	}
}
