{
	 "smiles": "CC(C)(C)OC(=O)N1CC(C1)OCC(O)=O", 
	 "Tm": 367.15, 
	 "num_atms": 33, 
	 "gaussian": { 
		 "optdone": 1, 
		 "sigma_profile": "yes", 
		 "theory": "DFT", 
		 "functional": "B3LYP", 
		 "basiset": "6-31G**", 
		 "properties": { 
			 "R2extent": 6267.6969, 
			 "electric_dipole_moment_norm": 2.13079217429, 
			 "electric_quadrupole_moment_norm": 10.9860117722, 
			 "total_energy": -822.178478211, 
			 "HOMO_LUMO_gap": 0.23534, 
			 "cosmo_polarized_energy": -16.85, 
			 "cosmo_cavitation_energy": 36.07, 
			 "cosmo_dispersion_energy": -25.1, 
			 "cosmo_repulsion_energy": 2.02, 
			 "cosmo_total_nonelectrostatic_energy": 13.0, 
			 "SMD_solvation_energy": 7.08 
		},
		"coords": [
			{
				"x": 2.0714143575,
				"y": 0.655359843,
				"z": -3.6196023888,
				"element": "C" 
			},
			{
				"x": 0.7330085372,
				"y": 0.079007771,
				"z": -3.150269344,
				"element": "C" 
			},
			{
				"x": -0.4362105344,
				"y": 0.9141620218,
				"z": -3.6837846451,
				"element": "C" 
			},
			{
				"x": 0.6120837435,
				"y": -1.3995802341,
				"z": -3.5347580075,
				"element": "C" 
			},
			{
				"x": 0.8214541731,
				"y": 0.2128990483,
				"z": -1.6885296452,
				"element": "O" 
			},
			{
				"x": -0.190476379,
				"y": -0.2065865074,
				"z": -0.8910799166,
				"element": "C" 
			},
			{
				"x": -1.2509070693,
				"y": -0.696553944,
				"z": -1.2473785007,
				"element": "O" 
			},
			{
				"x": 0.1515354927,
				"y": -0.0290163647,
				"z": 0.42155639,
				"element": "N" 
			},
			{
				"x": 1.0835698863,
				"y": 0.9394944714,
				"z": 1.0230833337,
				"element": "C" 
			},
			{
				"x": 0.2601168228,
				"y": 0.8177227573,
				"z": 2.340099609,
				"element": "C" 
			},
			{
				"x": -0.8050417053,
				"y": 0.0340274937,
				"z": 1.5326137976,
				"element": "C" 
			},
			{
				"x": -0.2428223223,
				"y": 2.0084776853,
				"z": 2.906208191,
				"element": "O" 
			},
			{
				"x": 0.3944471451,
				"y": 2.4633000736,
				"z": 4.0720854537,
				"element": "C" 
			},
			{
				"x": 1.7317949538,
				"y": 3.1807020117,
				"z": 3.9049339141,
				"element": "C" 
			},
			{
				"x": 2.1088238415,
				"y": 3.3394919274,
				"z": 2.6192743354,
				"element": "O" 
			},
			{
				"x": 2.381505541,
				"y": 3.5776069333,
				"z": 4.8455550457,
				"element": "O" 
			},
			{
				"x": 2.1751412776,
				"y": 1.6974059654,
				"z": -3.3030047632,
				"element": "H" 
			},
			{
				"x": 2.9054196535,
				"y": 0.0836832765,
				"z": -3.2021263939,
				"element": "H" 
			},
			{
				"x": 2.1360161168,
				"y": 0.6166805605,
				"z": -4.7111112948,
				"element": "H" 
			},
			{
				"x": -0.4295487925,
				"y": 0.9003482561,
				"z": -4.7786402546,
				"element": "H" 
			},
			{
				"x": -0.339533574,
				"y": 1.9545682633,
				"z": -3.3570237724,
				"element": "H" 
			},
			{
				"x": -1.3892789817,
				"y": 0.5195171549,
				"z": -3.3310034719,
				"element": "H" 
			},
			{
				"x": -0.3303177116,
				"y": -1.8180337028,
				"z": -3.1805425384,
				"element": "H" 
			},
			{
				"x": 1.4394484762,
				"y": -1.9725384845,
				"z": -3.1040487509,
				"element": "H" 
			},
			{
				"x": 0.6585830052,
				"y": -1.5017948468,
				"z": -4.6239416617,
				"element": "H" 
			},
			{
				"x": 1.0193142844,
				"y": 1.9414929789,
				"z": 0.5887702861,
				"element": "H" 
			},
			{
				"x": 2.1280223955,
				"y": 0.6156234851,
				"z": 1.0497685394,
				"element": "H" 
			},
			{
				"x": 0.7587938285,
				"y": 0.2064235089,
				"z": 3.1027053859,
				"element": "H" 
			},
			{
				"x": -1.6886686165,
				"y": 0.6442264866,
				"z": 1.3120355797,
				"element": "H" 
			},
			{
				"x": -1.1206810064,
				"y": -0.9366073831,
				"z": 1.9261993401,
				"element": "H" 
			},
			{
				"x": 0.5640695066,
				"y": 1.6529508669,
				"z": 4.7969212346,
				"element": "H" 
			},
			{
				"x": -0.2826355396,
				"y": 3.1804779086,
				"z": 4.5482109922,
				"element": "H" 
			},
			{
				"x": 2.9596591939,
				"y": 3.8103607181,
				"z": 2.6453239214,
				"element": "H" 
			}
		],
		 "valence_orbital": [ 
			{
				"type": "occ",
				"energy": -0.30527,
				"method": "rhf"
			},
			{
				"type": "occ",
				"energy": -0.28332,
				"method": "rhf"
			},
			{
				"type": "occ",
				"energy": -0.26748,
				"method": "rhf"
			},
			{
				"type": "occ",
				"energy": -0.25646,
				"method": "rhf"
			},
			{
				"type": "occ",
				"energy": -0.2398,
				"method": "rhf"
			},
			{
				"type": "unocc",
				"energy": -0.00446,
				"method": "rhf"
			},
			{
				"type": "unocc",
				"energy": 0.04717,
				"method": "rhf"
			},
			{
				"type": "unocc",
				"energy": 0.05586,
				"method": "rhf"
			},
			{
				"type": "unocc",
				"energy": 0.08107,
				"method": "rhf"
			},
			{
				"type": "unocc",
				"energy": 0.08645,
				"method": "rhf"
			}
		],
		"cosmo_sigma_profile": { 
			"-0.025": 0.0,
			"-0.024": 0.0,
			"-0.023": 0.0,
			"-0.022": 0.0,
			"-0.021": 0.0,
			"-0.02": 0.0,
			"-0.019": 0.358592086627,
			"-0.018": 0.956971071444,
			"-0.017": 1.24818836642,
			"-0.016": 0.366739356299,
			"-0.015": 0.712698101356,
			"-0.014": 0.572104460503,
			"-0.013": 0.375114666413,
			"-0.012": 0.690586320543,
			"-0.011": 0.95614008565,
			"-0.01": 0.698355288905,
			"-0.009": 1.05953755713,
			"-0.008": 6.0035429372,
			"-0.007": 7.89560571924,
			"-0.006": 8.89559093258,
			"-0.005": 14.3491296033,
			"-0.004": 24.9933907987,
			"-0.003": 26.7047400726,
			"-0.002": 24.6534987447,
			"-0.001": 22.6475098265,
			"0.0": 29.9872703047,
			"0.001": 22.2352302482,
			"0.002": 12.0393974349,
			"0.003": 8.48513692012,
			"0.004": 8.80953636257,
			"0.005": 7.92920997443,
			"0.006": 8.25367641585,
			"0.007": 6.05948310632,
			"0.008": 5.11244422003,
			"0.009": 4.73621149367,
			"0.01": 5.41628300436,
			"0.011": 7.0874692779,
			"0.012": 5.66155548254,
			"0.013": 3.78232011382,
			"0.014": 1.67799019948,
			"0.015": 0.0,
			"0.016": 0.0,
			"0.017": 0.0,
			"0.018": 0.0,
			"0.019": 0.0,
			"0.02": 0.0,
			"0.021": 0.0,
			"0.022": 0.0,
			"0.023": 0.0,
			"0.024": 0.0,
			"0.025": 0.0
		}
	}
}
