{
	 "smiles": "COC(=O)C(C)NC1=CC=C(C=C1)[N+]([O-])=O", 
	 "Tm": 373.15, 
	 "num_atms": 28, 
	 "gaussian": { 
		 "optdone": 1, 
		 "sigma_profile": "yes", 
		 "theory": "DFT", 
		 "functional": "B3LYP", 
		 "basiset": "6-31G**", 
		 "properties": { 
			 "R2extent": 5092.3831, 
			 "electric_dipole_moment_norm": 7.38395081579, 
			 "electric_quadrupole_moment_norm": 10.9253874435, 
			 "total_energy": -798.600241521, 
			 "HOMO_LUMO_gap": 0.15569, 
			 "cosmo_polarized_energy": -14.49, 
			 "cosmo_cavitation_energy": 32.58, 
			 "cosmo_dispersion_energy": -23.23, 
			 "cosmo_repulsion_energy": 1.82, 
			 "cosmo_total_nonelectrostatic_energy": 11.17, 
			 "SMD_solvation_energy": 8.13 
		},
		"coords": [
			{
				"x": 2.8644310817,
				"y": -1.421143485,
				"z": 3.5314372018,
				"element": "C" 
			},
			{
				"x": 1.5602707693,
				"y": -0.8119130948,
				"z": 3.605993311,
				"element": "O" 
			},
			{
				"x": 0.6307417205,
				"y": -1.3301211997,
				"z": 2.7842549249,
				"element": "C" 
			},
			{
				"x": 0.8424003009,
				"y": -2.2473789068,
				"z": 2.0185612193,
				"element": "O" 
			},
			{
				"x": -0.7547931357,
				"y": -0.6822106492,
				"z": 2.9816071418,
				"element": "C" 
			},
			{
				"x": -0.6831894231,
				"y": 0.8193400975,
				"z": 3.2680706503,
				"element": "C" 
			},
			{
				"x": -1.6537594809,
				"y": -1.0791541557,
				"z": 1.886259944,
				"element": "N" 
			},
			{
				"x": -1.5556992944,
				"y": -0.5096919604,
				"z": 0.5991093808,
				"element": "C" 
			},
			{
				"x": -1.1966234084,
				"y": -1.3165596651,
				"z": -0.4994123179,
				"element": "C" 
			},
			{
				"x": -1.1812172199,
				"y": -0.8051702974,
				"z": -1.7896538083,
				"element": "C" 
			},
			{
				"x": -1.5115457758,
				"y": 0.5350772445,
				"z": -1.9906999184,
				"element": "C" 
			},
			{
				"x": -1.8754132244,
				"y": 1.3589736309,
				"z": -0.9249265697,
				"element": "C" 
			},
			{
				"x": -1.9098736524,
				"y": 0.8338216619,
				"z": 0.359690963,
				"element": "C" 
			},
			{
				"x": -1.4845201006,
				"y": 1.0854175244,
				"z": -3.3446786543,
				"element": "N" 
			},
			{
				"x": -1.179677967,
				"y": 0.3271215085,
				"z": -4.267724773,
				"element": "O" 
			},
			{
				"x": -1.7671638345,
				"y": 2.2772866454,
				"z": -3.4866084276,
				"element": "O" 
			},
			{
				"x": 3.2746692526,
				"y": -1.320194633,
				"z": 2.5242331424,
				"element": "H" 
			},
			{
				"x": 3.4796360339,
				"y": -0.8852399094,
				"z": 4.253418247,
				"element": "H" 
			},
			{
				"x": 2.8050697935,
				"y": -2.4818680713,
				"z": 3.7862156107,
				"element": "H" 
			},
			{
				"x": -1.159387876,
				"y": -1.164234619,
				"z": 3.8832885905,
				"element": "H" 
			},
			{
				"x": -0.0817295609,
				"y": 0.9857050072,
				"z": 4.1629454198,
				"element": "H" 
			},
			{
				"x": -1.6865669416,
				"y": 1.2153852407,
				"z": 3.4435022129,
				"element": "H" 
			},
			{
				"x": -0.223571257,
				"y": 1.3729751987,
				"z": 2.4465448227,
				"element": "H" 
			},
			{
				"x": -1.5876623449,
				"y": -2.0888253948,
				"z": 1.801779341,
				"element": "H" 
			},
			{
				"x": -0.900397822,
				"y": -2.345811756,
				"z": -0.3231955452,
				"element": "H" 
			},
			{
				"x": -0.9001578272,
				"y": -1.4163746499,
				"z": -2.6382242541,
				"element": "H" 
			},
			{
				"x": -2.1493268881,
				"y": 2.3880686786,
				"z": -1.1212646064,
				"element": "H" 
			},
			{
				"x": -2.2493419174,
				"y": 1.4543200096,
				"z": 1.1791767511,
				"element": "H" 
			}
		],
		 "valence_orbital": [ 
			{
				"type": "occ",
				"energy": -0.29527,
				"method": "rhf"
			},
			{
				"type": "occ",
				"energy": -0.29119,
				"method": "rhf"
			},
			{
				"type": "occ",
				"energy": -0.27765,
				"method": "rhf"
			},
			{
				"type": "occ",
				"energy": -0.27001,
				"method": "rhf"
			},
			{
				"type": "occ",
				"energy": -0.23192,
				"method": "rhf"
			},
			{
				"type": "unocc",
				"energy": -0.07623,
				"method": "rhf"
			},
			{
				"type": "unocc",
				"energy": -0.01939,
				"method": "rhf"
			},
			{
				"type": "unocc",
				"energy": -0.00854,
				"method": "rhf"
			},
			{
				"type": "unocc",
				"energy": 0.01296,
				"method": "rhf"
			},
			{
				"type": "unocc",
				"energy": 0.0743,
				"method": "rhf"
			}
		],
		"cosmo_sigma_profile": { 
			"-0.025": 0.0,
			"-0.024": 0.0,
			"-0.023": 0.0,
			"-0.022": 0.0,
			"-0.021": 0.0,
			"-0.02": 0.0,
			"-0.019": 0.0,
			"-0.018": 0.0,
			"-0.017": 0.0,
			"-0.016": 0.0,
			"-0.015": 0.0,
			"-0.014": 0.0,
			"-0.013": 0.0,
			"-0.012": 0.481997453816,
			"-0.011": 0.838038257636,
			"-0.01": 1.44675390584,
			"-0.009": 1.9102500878,
			"-0.008": 3.51694775443,
			"-0.007": 8.74328505789,
			"-0.006": 16.4053599956,
			"-0.005": 18.7415127349,
			"-0.004": 23.6905005201,
			"-0.003": 23.9639338196,
			"-0.002": 17.271518023,
			"-0.001": 17.3625987767,
			"0.0": 19.0744934399,
			"0.001": 14.8883318654,
			"0.002": 17.0401169872,
			"0.003": 11.6112225455,
			"0.004": 7.73959357828,
			"0.005": 6.95577397859,
			"0.006": 6.63197137135,
			"0.007": 7.19295062827,
			"0.008": 12.733271486,
			"0.009": 6.86781033126,
			"0.01": 6.95989349067,
			"0.011": 4.4127691228,
			"0.012": 2.05873720249,
			"0.013": 0.0329586209352,
			"0.014": 0.0,
			"0.015": 0.0,
			"0.016": 0.0,
			"0.017": 0.0,
			"0.018": 0.0,
			"0.019": 0.0,
			"0.02": 0.0,
			"0.021": 0.0,
			"0.022": 0.0,
			"0.023": 0.0,
			"0.024": 0.0,
			"0.025": 0.0
		}
	}
}
