{
	 "smiles": "CCCCCCC(C)C1=CC(=CC(=C1OC(=O)C=CC)[N+]([O-])=O)[N+]([O-])=O", 
	 "Tm": 250.65, 
	 "num_atms": 50, 
	 "gaussian": { 
		 "optdone": 1, 
		 "sigma_profile": "yes", 
		 "theory": "DFT", 
		 "functional": "B3LYP", 
		 "basiset": "6-31G**", 
		 "properties": { 
			 "R2extent": 12663.8184, 
			 "electric_dipole_moment_norm": 7.22795235873, 
			 "electric_quadrupole_moment_norm": 25.1874738714, 
			 "total_energy": -1261.03640469, 
			 "HOMO_LUMO_gap": 0.17322, 
			 "cosmo_polarized_energy": -15.36, 
			 "cosmo_cavitation_energy": 54.26, 
			 "cosmo_dispersion_energy": -33.91, 
			 "cosmo_repulsion_energy": 2.68, 
			 "cosmo_total_nonelectrostatic_energy": 23.02, 
			 "SMD_solvation_energy": 13.82 
		},
		"coords": [
			{
				"x": 2.3186374972,
				"y": 0.7989939863,
				"z": -3.3767442178,
				"element": "C" 
			},
			{
				"x": 2.6362420572,
				"y": -0.239881977,
				"z": -2.2947942959,
				"element": "C" 
			},
			{
				"x": 2.1401630035,
				"y": -1.6611771725,
				"z": -2.6145485595,
				"element": "C" 
			},
			{
				"x": 0.6194875615,
				"y": -1.8187209643,
				"z": -2.7935783163,
				"element": "C" 
			},
			{
				"x": -0.2045459948,
				"y": -1.3923582198,
				"z": -1.5708395053,
				"element": "C" 
			},
			{
				"x": -1.6956270669,
				"y": -1.7265065367,
				"z": -1.703040041,
				"element": "C" 
			},
			{
				"x": -2.5660478066,
				"y": -1.2554615632,
				"z": -0.5127869089,
				"element": "C" 
			},
			{
				"x": -4.0647069753,
				"y": -1.472504179,
				"z": -0.7958966017,
				"element": "C" 
			},
			{
				"x": -2.144661654,
				"y": -1.9276746094,
				"z": 0.7890260165,
				"element": "C" 
			},
			{
				"x": -2.3428602057,
				"y": -3.2988128339,
				"z": 0.9696564106,
				"element": "C" 
			},
			{
				"x": -1.9273028451,
				"y": -3.925654157,
				"z": 2.1393280714,
				"element": "C" 
			},
			{
				"x": -1.3148371801,
				"y": -3.2275181068,
				"z": 3.1688696599,
				"element": "C" 
			},
			{
				"x": -1.1327166618,
				"y": -1.8594218154,
				"z": 3.0107398442,
				"element": "C" 
			},
			{
				"x": -1.5341925771,
				"y": -1.2001528992,
				"z": 1.8300553297,
				"element": "C" 
			},
			{
				"x": -1.3896041061,
				"y": 0.1521495341,
				"z": 1.6552058682,
				"element": "O" 
			},
			{
				"x": -0.1027805202,
				"y": 0.6924345089,
				"z": 1.6237435784,
				"element": "C" 
			},
			{
				"x": 0.882284293,
				"y": -0.0053604281,
				"z": 1.5988692652,
				"element": "O" 
			},
			{
				"x": -0.1174941799,
				"y": 2.1587439575,
				"z": 1.5827815065,
				"element": "C" 
			},
			{
				"x": -1.2134804694,
				"y": 2.9153351842,
				"z": 1.7387570104,
				"element": "C" 
			},
			{
				"x": -1.2217997077,
				"y": 4.4100357682,
				"z": 1.7336635252,
				"element": "C" 
			},
			{
				"x": -0.536846417,
				"y": -1.1466945467,
				"z": 4.1574636474,
				"element": "N" 
			},
			{
				"x": 0.1068043869,
				"y": -1.8199755053,
				"z": 4.9572236205,
				"element": "O" 
			},
			{
				"x": -0.748609791,
				"y": 0.0594693394,
				"z": 4.2648871503,
				"element": "O" 
			},
			{
				"x": -2.1434826176,
				"y": -5.3740562433,
				"z": 2.2933816439,
				"element": "N" 
			},
			{
				"x": -2.6856539872,
				"y": -5.9673869155,
				"z": 1.3620595679,
				"element": "O" 
			},
			{
				"x": -1.7694462314,
				"y": -5.8952151515,
				"z": 3.3414333595,
				"element": "O" 
			},
			{
				"x": 2.7259138149,
				"y": 0.4958425924,
				"z": -4.3485671222,
				"element": "H" 
			},
			{
				"x": 2.7505131244,
				"y": 1.7737789376,
				"z": -3.1266155003,
				"element": "H" 
			},
			{
				"x": 1.2400208764,
				"y": 0.9426630394,
				"z": -3.5038320782,
				"element": "H" 
			},
			{
				"x": 2.2242425207,
				"y": 0.0882032202,
				"z": -1.3322221719,
				"element": "H" 
			},
			{
				"x": 3.7232953646,
				"y": -0.2830620158,
				"z": -2.1509701525,
				"element": "H" 
			},
			{
				"x": 2.469578204,
				"y": -2.3335405667,
				"z": -1.8110741328,
				"element": "H" 
			},
			{
				"x": 2.6367580827,
				"y": -2.0134793238,
				"z": -3.5290745577,
				"element": "H" 
			},
			{
				"x": 0.4069543086,
				"y": -2.8729172394,
				"z": -3.0182079967,
				"element": "H" 
			},
			{
				"x": 0.2829160688,
				"y": -1.2532929278,
				"z": -3.673073088,
				"element": "H" 
			},
			{
				"x": -0.095142842,
				"y": -0.3118435855,
				"z": -1.4117306416,
				"element": "H" 
			},
			{
				"x": 0.2071925668,
				"y": -1.8693787435,
				"z": -0.6722078141,
				"element": "H" 
			},
			{
				"x": -2.0945879855,
				"y": -1.2592165385,
				"z": -2.613433352,
				"element": "H" 
			},
			{
				"x": -1.8218733795,
				"y": -2.8098632313,
				"z": -1.8398553788,
				"element": "H" 
			},
			{
				"x": -2.4041204277,
				"y": -0.1808896771,
				"z": -0.3910131236,
				"element": "H" 
			},
			{
				"x": -4.3611286074,
				"y": -0.9187572691,
				"z": -1.692336576,
				"element": "H" 
			},
			{
				"x": -4.6835217618,
				"y": -1.1252735906,
				"z": 0.0372220421,
				"element": "H" 
			},
			{
				"x": -4.298390601,
				"y": -2.528160387,
				"z": -0.9708734484,
				"element": "H" 
			},
			{
				"x": -2.8095183432,
				"y": -3.8999442713,
				"z": 0.1990675407,
				"element": "H" 
			},
			{
				"x": -0.9900789077,
				"y": -3.7245284858,
				"z": 4.072273759,
				"element": "H" 
			},
			{
				"x": 0.8661478621,
				"y": 2.5987276823,
				"z": 1.4482059817,
				"element": "H" 
			},
			{
				"x": -2.1693259572,
				"y": 2.4189466215,
				"z": 1.891926277,
				"element": "H" 
			},
			{
				"x": -0.2244152657,
				"y": 4.8267138003,
				"z": 1.5720540961,
				"element": "H" 
			},
			{
				"x": -1.6097163092,
				"y": 4.7931748975,
				"z": 2.6856577692,
				"element": "H" 
			},
			{
				"x": -1.8910342107,
				"y": 4.7898686081,
				"z": 0.9515630397,
				"element": "H" 
			}
		],
		 "valence_orbital": [ 
			{
				"type": "occ",
				"energy": -0.30182,
				"method": "rhf"
			},
			{
				"type": "occ",
				"energy": -0.30044,
				"method": "rhf"
			},
			{
				"type": "occ",
				"energy": -0.29215,
				"method": "rhf"
			},
			{
				"type": "occ",
				"energy": -0.28815,
				"method": "rhf"
			},
			{
				"type": "occ",
				"energy": -0.27888,
				"method": "rhf"
			},
			{
				"type": "unocc",
				"energy": -0.10566,
				"method": "rhf"
			},
			{
				"type": "unocc",
				"energy": -0.09505,
				"method": "rhf"
			},
			{
				"type": "unocc",
				"energy": -0.06189,
				"method": "rhf"
			},
			{
				"type": "unocc",
				"energy": -0.03043,
				"method": "rhf"
			},
			{
				"type": "unocc",
				"energy": -0.00548,
				"method": "rhf"
			}
		],
		"cosmo_sigma_profile": { 
			"-0.025": 0.0,
			"-0.024": 0.0,
			"-0.023": 0.0,
			"-0.022": 0.0,
			"-0.021": 0.0,
			"-0.02": 0.0,
			"-0.019": 0.0,
			"-0.018": 0.0,
			"-0.017": 0.0,
			"-0.016": 0.0,
			"-0.015": 0.0,
			"-0.014": 0.0,
			"-0.013": 0.0,
			"-0.012": 0.0,
			"-0.011": 0.0,
			"-0.01": 0.0,
			"-0.009": 0.0642216053961,
			"-0.008": 2.8212217595,
			"-0.007": 8.28030533925,
			"-0.006": 11.6471166005,
			"-0.005": 18.6578942535,
			"-0.004": 23.3966093727,
			"-0.003": 41.5630780554,
			"-0.002": 57.0819834162,
			"-0.001": 58.0997410462,
			"0.0": 51.9904530136,
			"0.001": 41.7135408601,
			"0.002": 23.7025261579,
			"0.003": 11.3236210584,
			"0.004": 10.1250918241,
			"0.005": 10.1425089701,
			"0.006": 12.299796065,
			"0.007": 19.4371614642,
			"0.008": 10.1342551743,
			"0.009": 7.58208251552,
			"0.01": 3.4985664957,
			"0.011": 2.04361939239,
			"0.012": 0.441901404958,
			"0.013": 0.0,
			"0.014": 0.0,
			"0.015": 0.0,
			"0.016": 0.0,
			"0.017": 0.0,
			"0.018": 0.0,
			"0.019": 0.0,
			"0.02": 0.0,
			"0.021": 0.0,
			"0.022": 0.0,
			"0.023": 0.0,
			"0.024": 0.0,
			"0.025": 0.0
		}
	}
}
