{
	 "smiles": "BrCCCOC1=CC2=C(C=CC=C2)C=C1", 
	 "Tm": 330.15, 
	 "num_atms": 28, 
	 "gaussian": { 
		 "optdone": 1, 
		 "sigma_profile": "yes", 
		 "theory": "DFT", 
		 "functional": "B3LYP", 
		 "basiset": "6-31G**", 
		 "properties": { 
			 "R2extent": 7323.807, 
			 "electric_dipole_moment_norm": 1.86606058047, 
			 "electric_quadrupole_moment_norm": 13.9382079695, 
			 "total_energy": -3149.85722106, 
			 "HOMO_LUMO_gap": 0.17235, 
			 "cosmo_polarized_energy": -8.74, 
			 "cosmo_cavitation_energy": 33.35, 
			 "cosmo_dispersion_energy": -24.29, 
			 "cosmo_repulsion_energy": 1.89, 
			 "cosmo_total_nonelectrostatic_energy": 10.95, 
			 "SMD_solvation_energy": 4.21 
		},
		"coords": [
			{
				"x": 0.9773025308,
				"y": -0.7697688581,
				"z": 5.2252275298,
				"element": "Br" 
			},
			{
				"x": 0.1808175357,
				"y": -2.546423866,
				"z": 4.814085823,
				"element": "C" 
			},
			{
				"x": -0.1831506325,
				"y": -2.6908239173,
				"z": 3.3452019158,
				"element": "C" 
			},
			{
				"x": 1.0286518002,
				"y": -2.708683485,
				"z": 2.4087922216,
				"element": "C" 
			},
			{
				"x": 0.6414851062,
				"y": -2.8710098064,
				"z": 1.0470708896,
				"element": "O" 
			},
			{
				"x": 0.2336070413,
				"y": -1.7785453861,
				"z": 0.3298264701,
				"element": "C" 
			},
			{
				"x": 0.1640849469,
				"y": -0.4823238567,
				"z": 0.801185637,
				"element": "C" 
			},
			{
				"x": -0.2634352814,
				"y": 0.5694489425,
				"z": -0.0574377129,
				"element": "C" 
			},
			{
				"x": -0.6252879639,
				"y": 0.2774946288,
				"z": -1.4117143476,
				"element": "C" 
			},
			{
				"x": -1.0512968162,
				"y": 1.3334911619,
				"z": -2.2582913014,
				"element": "C" 
			},
			{
				"x": -1.1200078656,
				"y": 2.6286677075,
				"z": -1.7930704823,
				"element": "C" 
			},
			{
				"x": -0.7633686243,
				"y": 2.9192272694,
				"z": -0.4543758095,
				"element": "C" 
			},
			{
				"x": -0.3460557609,
				"y": 1.9150731993,
				"z": 0.3919862733,
				"element": "C" 
			},
			{
				"x": -0.5429263799,
				"y": -1.0720076694,
				"z": -1.8557897858,
				"element": "C" 
			},
			{
				"x": -0.1274839051,
				"y": -2.0720988105,
				"z": -1.014817467,
				"element": "C" 
			},
			{
				"x": 0.928030626,
				"y": -3.2719866149,
				"z": 5.1383307338,
				"element": "H" 
			},
			{
				"x": -0.6936321027,
				"y": -2.6140659447,
				"z": 5.459287513,
				"element": "H" 
			},
			{
				"x": -0.8740690339,
				"y": -1.8946939986,
				"z": 3.0528522583,
				"element": "H" 
			},
			{
				"x": -0.7238163911,
				"y": -3.6400543038,
				"z": 3.2298536127,
				"element": "H" 
			},
			{
				"x": 1.6600699343,
				"y": -3.5755038615,
				"z": 2.6295498778,
				"element": "H" 
			},
			{
				"x": 1.6416717538,
				"y": -1.8100860279,
				"z": 2.5365968497,
				"element": "H" 
			},
			{
				"x": 0.4255265527,
				"y": -0.2332346767,
				"z": 1.8237033153,
				"element": "H" 
			},
			{
				"x": -1.3235469744,
				"y": 1.1019058432,
				"z": -3.2851965768,
				"element": "H" 
			},
			{
				"x": -1.4472345923,
				"y": 3.4291516379,
				"z": -2.4500905113,
				"element": "H" 
			},
			{
				"x": -0.8198317917,
				"y": 3.9425437217,
				"z": -0.0939315185,
				"element": "H" 
			},
			{
				"x": -0.0727440481,
				"y": 2.1412125251,
				"z": 1.4195631224,
				"element": "H" 
			},
			{
				"x": -0.8147024257,
				"y": -1.3046558653,
				"z": -2.8822547834,
				"element": "H" 
			},
			{
				"x": -0.0587572381,
				"y": -3.1031496885,
				"z": -1.3460437468,
				"element": "H" 
			}
		],
		 "valence_orbital": [ 
			{
				"type": "occ",
				"energy": -0.28109,
				"method": "rhf"
			},
			{
				"type": "occ",
				"energy": -0.27897,
				"method": "rhf"
			},
			{
				"type": "occ",
				"energy": -0.27453,
				"method": "rhf"
			},
			{
				"type": "occ",
				"energy": -0.22611,
				"method": "rhf"
			},
			{
				"type": "occ",
				"energy": -0.20358,
				"method": "rhf"
			},
			{
				"type": "unocc",
				"energy": -0.03123,
				"method": "rhf"
			},
			{
				"type": "unocc",
				"energy": -0.00686,
				"method": "rhf"
			},
			{
				"type": "unocc",
				"energy": 0.00128,
				"method": "rhf"
			},
			{
				"type": "unocc",
				"energy": 0.03706,
				"method": "rhf"
			},
			{
				"type": "unocc",
				"energy": 0.081,
				"method": "rhf"
			}
		],
		"cosmo_sigma_profile": { 
			"-0.025": 0.0,
			"-0.024": 0.0,
			"-0.023": 0.0,
			"-0.022": 0.0,
			"-0.021": 0.0,
			"-0.02": 0.0,
			"-0.019": 0.0,
			"-0.018": 0.0,
			"-0.017": 0.0,
			"-0.016": 0.0,
			"-0.015": 0.0,
			"-0.014": 0.0,
			"-0.013": 0.0,
			"-0.012": 0.0,
			"-0.011": 0.0,
			"-0.01": 0.0,
			"-0.009": 0.0,
			"-0.008": 0.575626984986,
			"-0.007": 6.24926225864,
			"-0.006": 14.8992628731,
			"-0.005": 26.0890802689,
			"-0.004": 23.1153877338,
			"-0.003": 24.4158699487,
			"-0.002": 18.3801253464,
			"-0.001": 18.2479473685,
			"0.0": 12.7552305851,
			"0.001": 14.0796173233,
			"0.002": 15.5979342571,
			"0.003": 19.1809479166,
			"0.004": 27.6124515504,
			"0.005": 24.9659665043,
			"0.006": 15.219503659,
			"0.007": 2.97479220143,
			"0.008": 1.63226063224,
			"0.009": 1.30093392248,
			"0.01": 1.08001422172,
			"0.011": 0.0893767082957,
			"0.012": 0.0,
			"0.013": 0.0,
			"0.014": 0.0,
			"0.015": 0.0,
			"0.016": 0.0,
			"0.017": 0.0,
			"0.018": 0.0,
			"0.019": 0.0,
			"0.02": 0.0,
			"0.021": 0.0,
			"0.022": 0.0,
			"0.023": 0.0,
			"0.024": 0.0,
			"0.025": 0.0
		}
	}
}
