{
	 "smiles": "OCCOC(=O)C1CCCCC1C(O)=O", 
	 "Tm": 363.15, 
	 "num_atms": 31, 
	 "gaussian": { 
		 "optdone": 1, 
		 "sigma_profile": "yes", 
		 "theory": "DFT", 
		 "functional": "B3LYP", 
		 "basiset": "6-31G**", 
		 "properties": { 
			 "R2extent": 3915.9174, 
			 "electric_dipole_moment_norm": 3.6223716292, 
			 "electric_quadrupole_moment_norm": 13.4412668852, 
			 "total_energy": -766.854854937, 
			 "HOMO_LUMO_gap": 0.23622, 
			 "cosmo_polarized_energy": -14.26, 
			 "cosmo_cavitation_energy": 31.94, 
			 "cosmo_dispersion_energy": -22.81, 
			 "cosmo_repulsion_energy": 1.79, 
			 "cosmo_total_nonelectrostatic_energy": 10.92, 
			 "SMD_solvation_energy": 6.29 
		},
		"coords": [
			{
				"x": 0.5439767032,
				"y": -0.5862339597,
				"z": 3.9900687758,
				"element": "O" 
			},
			{
				"x": 0.1844233522,
				"y": 0.640023477,
				"z": 3.3965712595,
				"element": "C" 
			},
			{
				"x": 1.2476109631,
				"y": 1.186057866,
				"z": 2.4491518124,
				"element": "C" 
			},
			{
				"x": 1.4130439411,
				"y": 0.314069415,
				"z": 1.3010565778,
				"element": "O" 
			},
			{
				"x": 0.6438820374,
				"y": 0.5640237613,
				"z": 0.217541464,
				"element": "C" 
			},
			{
				"x": -0.1092805139,
				"y": 1.5086356483,
				"z": 0.1134502764,
				"element": "O" 
			},
			{
				"x": 0.8259316696,
				"y": -0.5280602228,
				"z": -0.8247770488,
				"element": "C" 
			},
			{
				"x": 0.3694182565,
				"y": -0.0805416639,
				"z": -2.2184929761,
				"element": "C" 
			},
			{
				"x": 0.7294249706,
				"y": -1.1359076178,
				"z": -3.2893713616,
				"element": "C" 
			},
			{
				"x": 0.7232410275,
				"y": -2.5753382697,
				"z": -2.7243718309,
				"element": "C" 
			},
			{
				"x": -0.3001167997,
				"y": -2.7225763434,
				"z": -1.5925322599,
				"element": "C" 
			},
			{
				"x": 0.01600091,
				"y": -1.7964416648,
				"z": -0.3773506565,
				"element": "C" 
			},
			{
				"x": 0.7367785276,
				"y": -2.5311507489,
				"z": 0.7350023916,
				"element": "C" 
			},
			{
				"x": 1.8737441363,
				"y": -3.1291129102,
				"z": 0.3181705072,
				"element": "O" 
			},
			{
				"x": 0.358505919,
				"y": -2.6089293844,
				"z": 1.8885656114,
				"element": "O" 
			},
			{
				"x": 0.4589510963,
				"y": -1.2844528205,
				"z": 3.3209837401,
				"element": "H" 
			},
			{
				"x": -0.7764211332,
				"y": 0.5823911066,
				"z": 2.8621156089,
				"element": "H" 
			},
			{
				"x": 0.0588317687,
				"y": 1.3674802021,
				"z": 4.2082773463,
				"element": "H" 
			},
			{
				"x": 0.9888336996,
				"y": 2.1893902213,
				"z": 2.101695256,
				"element": "H" 
			},
			{
				"x": 2.2238297163,
				"y": 1.1906398719,
				"z": 2.9385154638,
				"element": "H" 
			},
			{
				"x": 1.8892144628,
				"y": -0.7909220294,
				"z": -0.8477529165,
				"element": "H" 
			},
			{
				"x": 0.8187219586,
				"y": 0.8866261399,
				"z": -2.4623609551,
				"element": "H" 
			},
			{
				"x": -0.7115910796,
				"y": 0.0943380416,
				"z": -2.1887506295,
				"element": "H" 
			},
			{
				"x": 1.7174932324,
				"y": -0.9176753356,
				"z": -3.7105936662,
				"element": "H" 
			},
			{
				"x": 0.0180840453,
				"y": -1.055701203,
				"z": -4.1191896373,
				"element": "H" 
			},
			{
				"x": 1.7145289765,
				"y": -2.8377972819,
				"z": -2.3391919796,
				"element": "H" 
			},
			{
				"x": 0.5028450644,
				"y": -3.2941248223,
				"z": -3.5208348009,
				"element": "H" 
			},
			{
				"x": -0.3625686458,
				"y": -3.7637264385,
				"z": -1.2597257375,
				"element": "H" 
			},
			{
				"x": -1.2963540313,
				"y": -2.4604805574,
				"z": -1.9668190636,
				"element": "H" 
			},
			{
				"x": -0.9267138304,
				"y": -1.4641506943,
				"z": 0.0667349942,
				"element": "H" 
			},
			{
				"x": 2.2640295991,
				"y": -3.5555517824,
				"z": 1.1002144347,
				"element": "H" 
			}
		],
		 "valence_orbital": [ 
			{
				"type": "occ",
				"energy": -0.31388,
				"method": "rhf"
			},
			{
				"type": "occ",
				"energy": -0.30418,
				"method": "rhf"
			},
			{
				"type": "occ",
				"energy": -0.28603,
				"method": "rhf"
			},
			{
				"type": "occ",
				"energy": -0.27514,
				"method": "rhf"
			},
			{
				"type": "occ",
				"energy": -0.25078,
				"method": "rhf"
			},
			{
				"type": "unocc",
				"energy": -0.01456,
				"method": "rhf"
			},
			{
				"type": "unocc",
				"energy": 0.00908,
				"method": "rhf"
			},
			{
				"type": "unocc",
				"energy": 0.05543,
				"method": "rhf"
			},
			{
				"type": "unocc",
				"energy": 0.0816,
				"method": "rhf"
			},
			{
				"type": "unocc",
				"energy": 0.09235,
				"method": "rhf"
			}
		],
		"cosmo_sigma_profile": { 
			"-0.025": 0.0,
			"-0.024": 0.0,
			"-0.023": 0.0,
			"-0.022": 0.0,
			"-0.021": 0.0,
			"-0.02": 0.0,
			"-0.019": 0.138577981347,
			"-0.018": 0.88953460636,
			"-0.017": 1.13271588348,
			"-0.016": 0.908465801817,
			"-0.015": 0.261568481268,
			"-0.014": 0.990860809079,
			"-0.013": 0.776364586182,
			"-0.012": 0.624713125304,
			"-0.011": 0.553205591234,
			"-0.01": 0.756113327304,
			"-0.009": 0.796496438843,
			"-0.008": 0.586769588611,
			"-0.007": 1.1443687917,
			"-0.006": 5.17410136993,
			"-0.005": 17.2260633036,
			"-0.004": 24.6462147055,
			"-0.003": 27.9672723821,
			"-0.002": 30.8296861287,
			"-0.001": 24.7648196695,
			"0.0": 19.393958052,
			"0.001": 16.6443627188,
			"0.002": 8.70041207388,
			"0.003": 8.22286037881,
			"0.004": 7.85241165232,
			"0.005": 6.19908489228,
			"0.006": 7.09663489613,
			"0.007": 4.53638317909,
			"0.008": 3.81544179007,
			"0.009": 4.9894785932,
			"0.01": 5.6638825344,
			"0.011": 4.69887913084,
			"0.012": 4.48117673097,
			"0.013": 1.91940371472,
			"0.014": 2.26639959752,
			"0.015": 1.23594268615,
			"0.016": 0.0,
			"0.017": 0.0,
			"0.018": 0.0,
			"0.019": 0.0,
			"0.02": 0.0,
			"0.021": 0.0,
			"0.022": 0.0,
			"0.023": 0.0,
			"0.024": 0.0,
			"0.025": 0.0
		}
	}
}
