{
	 "smiles": "COC(=O)COC1=C(C)C=C(C=C1C)C(O)=O", 
	 "Tm": 447.15, 
	 "num_atms": 31, 
	 "gaussian": { 
		 "optdone": 1, 
		 "sigma_profile": "yes", 
		 "theory": "DFT", 
		 "functional": "B3LYP", 
		 "basiset": "6-31G**", 
		 "properties": { 
			 "R2extent": 6307.1983, 
			 "electric_dipole_moment_norm": 5.91700547997, 
			 "electric_quadrupole_moment_norm": 34.2458506635, 
			 "total_energy": -841.843609182, 
			 "HOMO_LUMO_gap": 0.20334, 
			 "cosmo_polarized_energy": -20.48, 
			 "cosmo_cavitation_energy": 35.59, 
			 "cosmo_dispersion_energy": -24.95, 
			 "cosmo_repulsion_energy": 1.95, 
			 "cosmo_total_nonelectrostatic_energy": 12.59, 
			 "SMD_solvation_energy": 8.99 
		},
		"coords": [
			{
				"x": 4.0719971716,
				"y": 2.4255105603,
				"z": -2.9151840261,
				"element": "C" 
			},
			{
				"x": 3.1048860632,
				"y": 1.3624409086,
				"z": -2.8322690646,
				"element": "O" 
			},
			{
				"x": 2.3664546086,
				"y": 1.3400547345,
				"z": -1.7041133218,
				"element": "C" 
			},
			{
				"x": 2.4873114228,
				"y": 2.1173548501,
				"z": -0.7877987037,
				"element": "O" 
			},
			{
				"x": 1.3435592095,
				"y": 0.2137192266,
				"z": -1.7945332438,
				"element": "C" 
			},
			{
				"x": 0.8439434896,
				"y": -0.0765844494,
				"z": -0.5019666095,
				"element": "O" 
			},
			{
				"x": -0.4986982154,
				"y": -0.3938087748,
				"z": -0.4048958043,
				"element": "C" 
			},
			{
				"x": -0.8416693097,
				"y": -1.7469787941,
				"z": -0.2426543468,
				"element": "C" 
			},
			{
				"x": 0.2288718683,
				"y": -2.8099656297,
				"z": -0.2478456608,
				"element": "C" 
			},
			{
				"x": -2.1904324269,
				"y": -2.0657715124,
				"z": -0.0752895489,
				"element": "C" 
			},
			{
				"x": -3.1761181117,
				"y": -1.0693403682,
				"z": -0.0727361929,
				"element": "C" 
			},
			{
				"x": -2.799587853,
				"y": 0.2664624523,
				"z": -0.2428059735,
				"element": "C" 
			},
			{
				"x": -1.4606699216,
				"y": 0.6323747698,
				"z": -0.3967384519,
				"element": "C" 
			},
			{
				"x": -1.0574888499,
				"y": 2.0810161394,
				"z": -0.5308573477,
				"element": "C" 
			},
			{
				"x": -4.6352657201,
				"y": -1.366326399,
				"z": 0.0860135911,
				"element": "C" 
			},
			{
				"x": -4.9573813247,
				"y": -2.5555610736,
				"z": 0.6667897489,
				"element": "O" 
			},
			{
				"x": -5.5125903531,
				"y": -0.6144467851,
				"z": -0.2699706895,
				"element": "O" 
			},
			{
				"x": 3.5784011022,
				"y": 3.3985850097,
				"z": -2.8557315694,
				"element": "H" 
			},
			{
				"x": 4.7970815294,
				"y": 2.3459229707,
				"z": -2.1018970147,
				"element": "H" 
			},
			{
				"x": 4.5623924417,
				"y": 2.3019561937,
				"z": -3.8802264515,
				"element": "H" 
			},
			{
				"x": 0.546516698,
				"y": 0.5356745557,
				"z": -2.4775550082,
				"element": "H" 
			},
			{
				"x": 1.8198983377,
				"y": -0.668460026,
				"z": -2.2408424773,
				"element": "H" 
			},
			{
				"x": -0.1899569885,
				"y": -3.788083836,
				"z": 0.0026442081,
				"element": "H" 
			},
			{
				"x": 1.0195629591,
				"y": -2.5755411425,
				"z": 0.4709077529,
				"element": "H" 
			},
			{
				"x": 0.7078435419,
				"y": -2.895988292,
				"z": -1.2301019652,
				"element": "H" 
			},
			{
				"x": -2.4613220513,
				"y": -3.1162546549,
				"z": 0.0092726973,
				"element": "H" 
			},
			{
				"x": -3.5768518995,
				"y": 1.0240357801,
				"z": -0.2375951974,
				"element": "H" 
			},
			{
				"x": -1.7806370723,
				"y": 2.7281049733,
				"z": -0.0277021676,
				"element": "H" 
			},
			{
				"x": -1.0265316582,
				"y": 2.3935123082,
				"z": -1.5828361324,
				"element": "H" 
			},
			{
				"x": -0.0654362258,
				"y": 2.2568144843,
				"z": -0.1089933086,
				"element": "H" 
			},
			{
				"x": -4.1663824621,
				"y": -2.9611281794,
				"z": 1.0477122798,
				"element": "H" 
			}
		],
		 "valence_orbital": [ 
			{
				"type": "occ",
				"energy": -0.29656,
				"method": "rhf"
			},
			{
				"type": "occ",
				"energy": -0.28463,
				"method": "rhf"
			},
			{
				"type": "occ",
				"energy": -0.26942,
				"method": "rhf"
			},
			{
				"type": "occ",
				"energy": -0.25517,
				"method": "rhf"
			},
			{
				"type": "occ",
				"energy": -0.24739,
				"method": "rhf"
			},
			{
				"type": "unocc",
				"energy": -0.04405,
				"method": "rhf"
			},
			{
				"type": "unocc",
				"energy": -0.01647,
				"method": "rhf"
			},
			{
				"type": "unocc",
				"energy": -0.00396,
				"method": "rhf"
			},
			{
				"type": "unocc",
				"energy": 0.04865,
				"method": "rhf"
			},
			{
				"type": "unocc",
				"energy": 0.06621,
				"method": "rhf"
			}
		],
		"cosmo_sigma_profile": { 
			"-0.025": 0.0,
			"-0.024": 0.0,
			"-0.023": 0.0,
			"-0.022": 0.0,
			"-0.021": 0.0,
			"-0.02": 0.0,
			"-0.019": 0.0,
			"-0.018": 0.48280266109,
			"-0.017": 1.23381137101,
			"-0.016": 0.947227639589,
			"-0.015": 0.501682507439,
			"-0.014": 1.32810044716,
			"-0.013": 0.657831269075,
			"-0.012": 1.6321182365,
			"-0.011": 0.953066115079,
			"-0.01": 1.13516135239,
			"-0.009": 1.01849857947,
			"-0.008": 3.79873378336,
			"-0.007": 8.20345663423,
			"-0.006": 14.9150196138,
			"-0.005": 23.1130255137,
			"-0.004": 25.4687798069,
			"-0.003": 22.1449600671,
			"-0.002": 18.4961977913,
			"-0.001": 21.9523030707,
			"0.0": 22.9284136518,
			"0.001": 15.376718553,
			"0.002": 14.6338764583,
			"0.003": 15.609213523,
			"0.004": 7.50106720439,
			"0.005": 5.3942613407,
			"0.006": 6.70481719692,
			"0.007": 5.78344172514,
			"0.008": 5.51384638332,
			"0.009": 5.45768464156,
			"0.01": 7.5260034842,
			"0.011": 9.71681761614,
			"0.012": 8.31705392098,
			"0.013": 3.03247413936,
			"0.014": 0.187068974452,
			"0.015": 0.0,
			"0.016": 0.0,
			"0.017": 0.0,
			"0.018": 0.0,
			"0.019": 0.0,
			"0.02": 0.0,
			"0.021": 0.0,
			"0.022": 0.0,
			"0.023": 0.0,
			"0.024": 0.0,
			"0.025": 0.0
		}
	}
}
