{
	 "smiles": "OC1=C(C=CC(=C1)N1CCCCC1)[N+]([O-])=O", 
	 "Tm": 342.15, 
	 "num_atms": 30, 
	 "gaussian": { 
		 "optdone": 1, 
		 "sigma_profile": "yes", 
		 "theory": "DFT", 
		 "functional": "B3LYP", 
		 "basiset": "6-31G**", 
		 "properties": { 
			 "R2extent": 5841.1043, 
			 "electric_dipole_moment_norm": 9.58827729313, 
			 "electric_quadrupole_moment_norm": 34.5739331721, 
			 "total_energy": -762.673120184, 
			 "HOMO_LUMO_gap": 0.15309, 
			 "cosmo_polarized_energy": -20.56, 
			 "cosmo_cavitation_energy": 32.03, 
			 "cosmo_dispersion_energy": -23.93, 
			 "cosmo_repulsion_energy": 1.85, 
			 "cosmo_total_nonelectrostatic_energy": 9.94, 
			 "SMD_solvation_energy": 6.81 
		},
		"coords": [
			{
				"x": 0.152371389,
				"y": -3.9072015727,
				"z": 1.6767174202,
				"element": "O" 
			},
			{
				"x": -0.148440305,
				"y": -2.5911093735,
				"z": 1.7533142169,
				"element": "C" 
			},
			{
				"x": -0.1078085337,
				"y": -1.907233705,
				"z": 2.9883342454,
				"element": "C" 
			},
			{
				"x": -0.4149745337,
				"y": -0.5388311338,
				"z": 3.009814385,
				"element": "C" 
			},
			{
				"x": -0.754012877,
				"y": 0.1571157148,
				"z": 1.8704379457,
				"element": "C" 
			},
			{
				"x": -0.8029015113,
				"y": -0.5042282918,
				"z": 0.6126291622,
				"element": "C" 
			},
			{
				"x": -0.489429359,
				"y": -1.880481524,
				"z": 0.5974923998,
				"element": "C" 
			},
			{
				"x": -1.163097904,
				"y": 0.145209125,
				"z": -0.5469819483,
				"element": "N" 
			},
			{
				"x": -1.1667202543,
				"y": 1.6003339192,
				"z": -0.6988496208,
				"element": "C" 
			},
			{
				"x": -2.5288812164,
				"y": 2.1035913563,
				"z": -1.2119773589,
				"element": "C" 
			},
			{
				"x": -3.1205668949,
				"y": 1.1255392852,
				"z": -2.2574975338,
				"element": "C" 
			},
			{
				"x": -2.0129246885,
				"y": 0.2625872019,
				"z": -2.8742541049,
				"element": "C" 
			},
			{
				"x": -1.3430706235,
				"y": -0.6045043897,
				"z": -1.7941341774,
				"element": "C" 
			},
			{
				"x": 0.2289525279,
				"y": -2.5446289893,
				"z": 4.2475428706,
				"element": "N" 
			},
			{
				"x": 0.2647115391,
				"y": -1.8263775445,
				"z": 5.256676962,
				"element": "O" 
			},
			{
				"x": 0.459091125,
				"y": -3.754506946,
				"z": 4.2599613897,
				"element": "O" 
			},
			{
				"x": 0.0721316908,
				"y": -4.1843712021,
				"z": 0.753482083,
				"element": "H" 
			},
			{
				"x": -0.3861579538,
				"y": -0.0423576073,
				"z": 3.971523352,
				"element": "H" 
			},
			{
				"x": -1.012786085,
				"y": 1.203680744,
				"z": 1.9617591815,
				"element": "H" 
			},
			{
				"x": -0.4794628718,
				"y": -2.4258428228,
				"z": -0.3396702038,
				"element": "H" 
			},
			{
				"x": -0.9057717876,
				"y": 2.0750097243,
				"z": 0.2443355362,
				"element": "H" 
			},
			{
				"x": -0.3737075438,
				"y": 1.8826021901,
				"z": -1.4069152687,
				"element": "H" 
			},
			{
				"x": -3.223174241,
				"y": 2.2203317252,
				"z": -0.3734106945,
				"element": "H" 
			},
			{
				"x": -2.3855802524,
				"y": 3.0993824107,
				"z": -1.6476439936,
				"element": "H" 
			},
			{
				"x": -3.661682177,
				"y": 1.6725530056,
				"z": -3.0359811747,
				"element": "H" 
			},
			{
				"x": -3.8511920448,
				"y": 0.4652665452,
				"z": -1.7752570269,
				"element": "H" 
			},
			{
				"x": -1.2710013831,
				"y": 0.9014523962,
				"z": -3.368112516,
				"element": "H" 
			},
			{
				"x": -2.4124015164,
				"y": -0.3996343032,
				"z": -3.6492428049,
				"element": "H" 
			},
			{
				"x": -1.987872236,
				"y": -1.4669044006,
				"z": -1.5828984102,
				"element": "H" 
			},
			{
				"x": -0.3829394779,
				"y": -1.0002415373,
				"z": -2.1642943129,
				"element": "H" 
			}
		],
		 "valence_orbital": [ 
			{
				"type": "occ",
				"energy": -0.27622,
				"method": "rhf"
			},
			{
				"type": "occ",
				"energy": -0.27564,
				"method": "rhf"
			},
			{
				"type": "occ",
				"energy": -0.25538,
				"method": "rhf"
			},
			{
				"type": "occ",
				"energy": -0.24178,
				"method": "rhf"
			},
			{
				"type": "occ",
				"energy": -0.20953,
				"method": "rhf"
			},
			{
				"type": "unocc",
				"energy": -0.05644,
				"method": "rhf"
			},
			{
				"type": "unocc",
				"energy": -0.00294,
				"method": "rhf"
			},
			{
				"type": "unocc",
				"energy": 0.02852,
				"method": "rhf"
			},
			{
				"type": "unocc",
				"energy": 0.05612,
				"method": "rhf"
			},
			{
				"type": "unocc",
				"energy": 0.06334,
				"method": "rhf"
			}
		],
		"cosmo_sigma_profile": { 
			"-0.025": 0.0,
			"-0.024": 0.0,
			"-0.023": 0.0,
			"-0.022": 0.0,
			"-0.021": 0.0,
			"-0.02": 0.0,
			"-0.019": 0.347033833114,
			"-0.018": 0.912149005576,
			"-0.017": 1.1691340789,
			"-0.016": 1.50874786029,
			"-0.015": 0.670496244889,
			"-0.014": 0.709565605298,
			"-0.013": 0.971332684998,
			"-0.012": 0.88605299457,
			"-0.011": 0.836942305737,
			"-0.01": 1.83577171645,
			"-0.009": 1.0420219228,
			"-0.008": 1.9611346329,
			"-0.007": 3.84073518753,
			"-0.006": 5.8105560563,
			"-0.005": 9.76463622769,
			"-0.004": 19.9046382558,
			"-0.003": 31.8216969968,
			"-0.002": 29.2819854601,
			"-0.001": 23.2813556067,
			"0.0": 20.0915685637,
			"0.001": 16.5611401438,
			"0.002": 13.115873035,
			"0.003": 13.514290789,
			"0.004": 8.31692336679,
			"0.005": 3.6501255213,
			"0.006": 2.44776007738,
			"0.007": 2.61582103764,
			"0.008": 4.70618806861,
			"0.009": 8.19576226324,
			"0.01": 8.5071815968,
			"0.011": 6.17245000298,
			"0.012": 4.50416466938,
			"0.013": 1.25061996724,
			"0.014": 1.67792017256,
			"0.015": 0.200041459178,
			"0.016": 0.0,
			"0.017": 0.0,
			"0.018": 0.0,
			"0.019": 0.0,
			"0.02": 0.0,
			"0.021": 0.0,
			"0.022": 0.0,
			"0.023": 0.0,
			"0.024": 0.0,
			"0.025": 0.0
		}
	}
}
