{
	 "smiles": "FC1=C(F)C=C(Br)C=C1", 
	 "Tm": 269.15, 
	 "num_atms": 12, 
	 "gaussian": { 
		 "optdone": 1, 
		 "sigma_profile": "yes", 
		 "theory": "DFT", 
		 "functional": "B3LYP", 
		 "basiset": "6-31G**", 
		 "properties": { 
			 "R2extent": 4159.9187, 
			 "electric_dipole_moment_norm": 1.14886347318, 
			 "electric_quadrupole_moment_norm": 5.25926571966, 
			 "total_energy": -3001.50828993, 
			 "HOMO_LUMO_gap": 0.21847, 
			 "cosmo_polarized_energy": -3.47, 
			 "cosmo_cavitation_energy": 19.88, 
			 "cosmo_dispersion_energy": -14.96, 
			 "cosmo_repulsion_energy": 1.18, 
			 "cosmo_total_nonelectrostatic_energy": 6.11, 
			 "SMD_solvation_energy": 3.36 
		},
		"coords": [
			{
				"x": -0.8628766879,
				"y": -0.3790073889,
				"z": -1.0120255959,
				"element": "F" 
			},
			{
				"x": -0.1189237619,
				"y": -0.8354773954,
				"z": 0.0077707463,
				"element": "C" 
			},
			{
				"x": -0.0220801572,
				"y": -0.0725179463,
				"z": 1.1717814372,
				"element": "C" 
			},
			{
				"x": -0.6748051718,
				"y": 1.0974676065,
				"z": 1.2419140424,
				"element": "F" 
			},
			{
				"x": 0.7378918515,
				"y": -0.5115416563,
				"z": 2.247816321,
				"element": "C" 
			},
			{
				"x": 1.4031834186,
				"y": -1.7331865988,
				"z": 2.1397141838,
				"element": "C" 
			},
			{
				"x": 2.451809328,
				"y": -2.3505496392,
				"z": 3.6098543398,
				"element": "Br" 
			},
			{
				"x": 1.3164588734,
				"y": -2.5070293519,
				"z": 0.9836184662,
				"element": "C" 
			},
			{
				"x": 0.5472855983,
				"y": -2.0491963777,
				"z": -0.0884471055,
				"element": "C" 
			},
			{
				"x": 0.798513533,
				"y": 0.0974508593,
				"z": 3.1413028681,
				"element": "H" 
			},
			{
				"x": 1.8399131916,
				"y": -3.4529755712,
				"z": 0.9175778668,
				"element": "H" 
			},
			{
				"x": 0.4576299845,
				"y": -2.6254365402,
				"z": -1.00297757,
				"element": "H" 
			}
		],
		 "valence_orbital": [ 
			{
				"type": "occ",
				"energy": -0.36845,
				"method": "rhf"
			},
			{
				"type": "occ",
				"energy": -0.3154,
				"method": "rhf"
			},
			{
				"type": "occ",
				"energy": -0.29727,
				"method": "rhf"
			},
			{
				"type": "occ",
				"energy": -0.27385,
				"method": "rhf"
			},
			{
				"type": "occ",
				"energy": -0.24711,
				"method": "rhf"
			},
			{
				"type": "unocc",
				"energy": -0.02864,
				"method": "rhf"
			},
			{
				"type": "unocc",
				"energy": -0.01894,
				"method": "rhf"
			},
			{
				"type": "unocc",
				"energy": -0.00644,
				"method": "rhf"
			},
			{
				"type": "unocc",
				"energy": 0.07711,
				"method": "rhf"
			},
			{
				"type": "unocc",
				"energy": 0.12491,
				"method": "rhf"
			}
		],
		"cosmo_sigma_profile": { 
			"-0.025": 0.0,
			"-0.024": 0.0,
			"-0.023": 0.0,
			"-0.022": 0.0,
			"-0.021": 0.0,
			"-0.02": 0.0,
			"-0.019": 0.0,
			"-0.018": 0.0,
			"-0.017": 0.0,
			"-0.016": 0.0,
			"-0.015": 0.0,
			"-0.014": 0.0,
			"-0.013": 0.0,
			"-0.012": 0.0,
			"-0.011": 0.0,
			"-0.01": 0.0,
			"-0.009": 1.33629596568,
			"-0.008": 4.66431688979,
			"-0.007": 5.67407556549,
			"-0.006": 5.00952118465,
			"-0.005": 5.31303480772,
			"-0.004": 6.07264315792,
			"-0.003": 6.36411130011,
			"-0.002": 10.4504820818,
			"-0.001": 16.009006672,
			"0.0": 18.235248282,
			"0.001": 19.8050497408,
			"0.002": 16.0897176263,
			"0.003": 26.4656047391,
			"0.004": 20.3287950336,
			"0.005": 2.33425608412,
			"0.006": 0.0,
			"0.007": 0.0,
			"0.008": 0.0,
			"0.009": 0.0,
			"0.01": 0.0,
			"0.011": 0.0,
			"0.012": 0.0,
			"0.013": 0.0,
			"0.014": 0.0,
			"0.015": 0.0,
			"0.016": 0.0,
			"0.017": 0.0,
			"0.018": 0.0,
			"0.019": 0.0,
			"0.02": 0.0,
			"0.021": 0.0,
			"0.022": 0.0,
			"0.023": 0.0,
			"0.024": 0.0,
			"0.025": 0.0
		}
	}
}
