{
	 "smiles": "CC(C)(C)OC(=O)CC[C@H](NC(=O)OC(C)(C)C)C(O)=O", 
	 "Tm": 384.15, 
	 "num_atms": 46, 
	 "gaussian": { 
		 "optdone": 1, 
		 "sigma_profile": "yes", 
		 "theory": "DFT", 
		 "functional": "B3LYP", 
		 "basiset": "6-31G**", 
		 "properties": { 
			 "R2extent": 9675.7995, 
			 "electric_dipole_moment_norm": 2.37375798261, 
			 "electric_quadrupole_moment_norm": 23.6573621856, 
			 "total_energy": -1054.7358646, 
			 "HOMO_LUMO_gap": 0.26471, 
			 "cosmo_polarized_energy": -18.21, 
			 "cosmo_cavitation_energy": 47.28, 
			 "cosmo_dispersion_energy": -30.93, 
			 "cosmo_repulsion_energy": 2.41, 
			 "cosmo_total_nonelectrostatic_energy": 18.76, 
			 "SMD_solvation_energy": 10.76 
		},
		"coords": [
			{
				"x": 3.3125486694,
				"y": 1.041825393,
				"z": -4.7712926556,
				"element": "C" 
			},
			{
				"x": 3.4320384103,
				"y": 0.4865233936,
				"z": -3.3501919197,
				"element": "C" 
			},
			{
				"x": 4.3148204236,
				"y": 1.3904440799,
				"z": -2.4838125467,
				"element": "C" 
			},
			{
				"x": 3.9242701854,
				"y": -0.9641379782,
				"z": -3.3700392075,
				"element": "C" 
			},
			{
				"x": 2.0353502198,
				"y": 0.5362750566,
				"z": -2.8688100756,
				"element": "O" 
			},
			{
				"x": 1.6907766717,
				"y": 0.1418973049,
				"z": -1.6328848991,
				"element": "C" 
			},
			{
				"x": 2.4564850209,
				"y": -0.3105850788,
				"z": -0.7983872554,
				"element": "O" 
			},
			{
				"x": 0.2022907757,
				"y": 0.3478551156,
				"z": -1.4103440577,
				"element": "C" 
			},
			{
				"x": -0.313805853,
				"y": -0.2543630982,
				"z": -0.0985305498,
				"element": "C" 
			},
			{
				"x": 0.2206739812,
				"y": 0.4347009444,
				"z": 1.172755121,
				"element": "C" 
			},
			{
				"x": 0.1074559226,
				"y": -0.3728915468,
				"z": 2.3968637786,
				"element": "N" 
			},
			{
				"x": -1.0884227711,
				"y": -0.8851849177,
				"z": 2.8934453593,
				"element": "C" 
			},
			{
				"x": -1.1246999351,
				"y": -1.8045263602,
				"z": 3.6895267759,
				"element": "O" 
			},
			{
				"x": -2.1302398865,
				"y": -0.1843718205,
				"z": 2.4103870762,
				"element": "O" 
			},
			{
				"x": -3.5065706585,
				"y": -0.4052091284,
				"z": 2.9077007714,
				"element": "C" 
			},
			{
				"x": -3.5591640952,
				"y": -0.1061715716,
				"z": 4.4085826298,
				"element": "C" 
			},
			{
				"x": -3.9539516157,
				"y": -1.831909031,
				"z": 2.5783190665,
				"element": "C" 
			},
			{
				"x": -4.3130391097,
				"y": 0.6246434574,
				"z": 2.1145394391,
				"element": "C" 
			},
			{
				"x": -0.3691408985,
				"y": 1.8388332154,
				"z": 1.3998524698,
				"element": "C" 
			},
			{
				"x": -0.2575650899,
				"y": 2.2980751758,
				"z": 2.6615308478,
				"element": "O" 
			},
			{
				"x": -0.8295702551,
				"y": 2.5241440149,
				"z": 0.5173099949,
				"element": "O" 
			},
			{
				"x": 2.6432717918,
				"y": 0.4208667283,
				"z": -5.3736694121,
				"element": "H" 
			},
			{
				"x": 2.9154787467,
				"y": 2.0607870709,
				"z": -4.755723866,
				"element": "H" 
			},
			{
				"x": 4.2954577218,
				"y": 1.0593599794,
				"z": -5.2514803778,
				"element": "H" 
			},
			{
				"x": 5.3170866366,
				"y": 1.4481909024,
				"z": -2.9205016973,
				"element": "H" 
			},
			{
				"x": 4.3981089805,
				"y": 1.0046553164,
				"z": -1.4674522697,
				"element": "H" 
			},
			{
				"x": 3.9024355835,
				"y": 2.4035895988,
				"z": -2.4474440288,
				"element": "H" 
			},
			{
				"x": 4.0000968309,
				"y": -1.3689516994,
				"z": -2.3605403367,
				"element": "H" 
			},
			{
				"x": 4.9111831709,
				"y": -1.0083774254,
				"z": -3.8419794049,
				"element": "H" 
			},
			{
				"x": 3.2418108236,
				"y": -1.5897485263,
				"z": -3.9539050854,
				"element": "H" 
			},
			{
				"x": -0.0103068272,
				"y": 1.4210930696,
				"z": -1.4437992547,
				"element": "H" 
			},
			{
				"x": -0.3258010117,
				"y": -0.0914034155,
				"z": -2.2638546828,
				"element": "H" 
			},
			{
				"x": -0.0161763931,
				"y": -1.3070106274,
				"z": -0.0460259631,
				"element": "H" 
			},
			{
				"x": -1.405403606,
				"y": -0.216929539,
				"z": -0.0937274184,
				"element": "H" 
			},
			{
				"x": 1.2976178053,
				"y": 0.5835352837,
				"z": 1.0364181251,
				"element": "H" 
			},
			{
				"x": 0.8754383673,
				"y": -1.0060988972,
				"z": 2.5796421821,
				"element": "H" 
			},
			{
				"x": -3.1872780187,
				"y": 0.9038975008,
				"z": 4.6069649023,
				"element": "H" 
			},
			{
				"x": -4.5960415157,
				"y": -0.160105221,
				"z": 4.7550444584,
				"element": "H" 
			},
			{
				"x": -2.9639332397,
				"y": -0.8241862142,
				"z": 4.9740373468,
				"element": "H" 
			},
			{
				"x": -3.8553620159,
				"y": -2.0242598865,
				"z": 1.5053134693,
				"element": "H" 
			},
			{
				"x": -3.3627091366,
				"y": -2.5658977442,
				"z": 3.1262905221,
				"element": "H" 
			},
			{
				"x": -5.0079686584,
				"y": -1.9535918287,
				"z": 2.8479953056,
				"element": "H" 
			},
			{
				"x": -3.9393710518,
				"y": 1.6351680702,
				"z": 2.3001960811,
				"element": "H" 
			},
			{
				"x": -4.2472740875,
				"y": 0.4267169376,
				"z": 1.0408346467,
				"element": "H" 
			},
			{
				"x": -5.3654335743,
				"y": 0.5803095235,
				"z": 2.4101414885,
				"element": "H" 
			},
			{
				"x": 0.0687325652,
				"y": 1.5605244229,
				"z": 3.2083051066,
				"element": "H" 
			}
		],
		 "valence_orbital": [ 
			{
				"type": "occ",
				"energy": -0.29953,
				"method": "rhf"
			},
			{
				"type": "occ",
				"energy": -0.2885,
				"method": "rhf"
			},
			{
				"type": "occ",
				"energy": -0.27747,
				"method": "rhf"
			},
			{
				"type": "occ",
				"energy": -0.26743,
				"method": "rhf"
			},
			{
				"type": "occ",
				"energy": -0.2584,
				"method": "rhf"
			},
			{
				"type": "unocc",
				"energy": 0.00631,
				"method": "rhf"
			},
			{
				"type": "unocc",
				"energy": 0.01431,
				"method": "rhf"
			},
			{
				"type": "unocc",
				"energy": 0.03298,
				"method": "rhf"
			},
			{
				"type": "unocc",
				"energy": 0.06797,
				"method": "rhf"
			},
			{
				"type": "unocc",
				"energy": 0.08131,
				"method": "rhf"
			}
		],
		"cosmo_sigma_profile": { 
			"-0.025": 0.0,
			"-0.024": 0.0,
			"-0.023": 0.0,
			"-0.022": 0.0,
			"-0.021": 0.0,
			"-0.02": 0.0,
			"-0.019": 0.0,
			"-0.018": 0.0,
			"-0.017": 0.0,
			"-0.016": 0.0,
			"-0.015": 0.480500647733,
			"-0.014": 1.60338251997,
			"-0.013": 2.05505862926,
			"-0.012": 1.83591455644,
			"-0.011": 1.33059356758,
			"-0.01": 2.49431833347,
			"-0.009": 3.66705881043,
			"-0.008": 3.7648070333,
			"-0.007": 2.55528602672,
			"-0.006": 4.06466856214,
			"-0.005": 10.8534515921,
			"-0.004": 34.7742201936,
			"-0.003": 42.3615056645,
			"-0.002": 39.578092444,
			"-0.001": 41.0412654407,
			"0.0": 53.2471453976,
			"0.001": 30.1673672714,
			"0.002": 10.9468553776,
			"0.003": 9.84252658181,
			"0.004": 9.01560459952,
			"0.005": 8.34042564513,
			"0.006": 6.51360995895,
			"0.007": 6.83314000885,
			"0.008": 6.03532644595,
			"0.009": 6.72771952452,
			"0.01": 7.34756467176,
			"0.011": 7.93707482252,
			"0.012": 7.51713826138,
			"0.013": 4.16889637561,
			"0.014": 0.196998155468,
			"0.015": 0.0,
			"0.016": 0.0,
			"0.017": 0.0,
			"0.018": 0.0,
			"0.019": 0.0,
			"0.02": 0.0,
			"0.021": 0.0,
			"0.022": 0.0,
			"0.023": 0.0,
			"0.024": 0.0,
			"0.025": 0.0
		}
	}
}
