{
	 "smiles": "OC(=O)C1=CC=C(S1)C1=CC=CS1", 
	 "Tm": 451.15, 
	 "num_atms": 19, 
	 "gaussian": { 
		 "optdone": 1, 
		 "sigma_profile": "yes", 
		 "theory": "DFT", 
		 "functional": "B3LYP", 
		 "basiset": "6-31G**", 
		 "properties": { 
			 "R2extent": 4569.0554, 
			 "electric_dipole_moment_norm": 5.77428803663, 
			 "electric_quadrupole_moment_norm": 26.5763952138, 
			 "total_energy": -1293.377636, 
			 "HOMO_LUMO_gap": 0.14196, 
			 "cosmo_polarized_energy": -14.16, 
			 "cosmo_cavitation_energy": 27.19, 
			 "cosmo_dispersion_energy": -21.19, 
			 "cosmo_repulsion_energy": 1.56, 
			 "cosmo_total_nonelectrostatic_energy": 7.56, 
			 "SMD_solvation_energy": 5.57 
		},
		"coords": [
			{
				"x": 1.8164590525,
				"y": 4.4545636761,
				"z": 2.6738084555,
				"element": "O" 
			},
			{
				"x": 0.567726186,
				"y": 4.4881247609,
				"z": 2.1345214485,
				"element": "C" 
			},
			{
				"x": -0.1246659789,
				"y": 5.4696675913,
				"z": 2.2784745085,
				"element": "O" 
			},
			{
				"x": 0.1037912906,
				"y": 3.300497808,
				"z": 1.3852433262,
				"element": "C" 
			},
			{
				"x": -1.131606701,
				"y": 3.1956358177,
				"z": 0.7897638067,
				"element": "C" 
			},
			{
				"x": -1.339326688,
				"y": 1.9616290372,
				"z": 0.132656751,
				"element": "C" 
			},
			{
				"x": -0.2616407665,
				"y": 1.0981080367,
				"z": 0.2148929286,
				"element": "C" 
			},
			{
				"x": 1.0360607401,
				"y": 1.8389491712,
				"z": 1.129379688,
				"element": "S" 
			},
			{
				"x": -0.1173843402,
				"y": -0.2347933792,
				"z": -0.3315499914,
				"element": "C" 
			},
			{
				"x": 0.9579139279,
				"y": -1.0955496506,
				"z": -0.2489311383,
				"element": "C" 
			},
			{
				"x": 0.7449308143,
				"y": -2.3356139889,
				"z": -0.9112867912,
				"element": "C" 
			},
			{
				"x": -0.4894294586,
				"y": -2.4185361673,
				"z": -1.4966409001,
				"element": "C" 
			},
			{
				"x": -1.4174563255,
				"y": -0.9770330746,
				"z": -1.248007775,
				"element": "S" 
			},
			{
				"x": 2.2693633469,
				"y": 3.6190281799,
				"z": 2.4917397951,
				"element": "H" 
			},
			{
				"x": -1.8521706789,
				"y": 4.0027344389,
				"z": 0.8399368724,
				"element": "H" 
			},
			{
				"x": -2.2543762594,
				"y": 1.7064820163,
				"z": -0.3897659772,
				"element": "H" 
			},
			{
				"x": 1.87530817,
				"y": -0.8453387031,
				"z": 0.2724934889,
				"element": "H" 
			},
			{
				"x": 1.4790154828,
				"y": -3.1318537778,
				"z": -0.9503975775,
				"element": "H" 
			},
			{
				"x": -0.9132118141,
				"y": -3.2382017927,
				"z": -2.0599309189,
				"element": "H" 
			}
		],
		 "valence_orbital": [ 
			{
				"type": "occ",
				"energy": -0.29105,
				"method": "rhf"
			},
			{
				"type": "occ",
				"energy": -0.27738,
				"method": "rhf"
			},
			{
				"type": "occ",
				"energy": -0.27631,
				"method": "rhf"
			},
			{
				"type": "occ",
				"energy": -0.26817,
				"method": "rhf"
			},
			{
				"type": "occ",
				"energy": -0.22166,
				"method": "rhf"
			},
			{
				"type": "unocc",
				"energy": -0.0797,
				"method": "rhf"
			},
			{
				"type": "unocc",
				"energy": -0.02077,
				"method": "rhf"
			},
			{
				"type": "unocc",
				"energy": -0.01309,
				"method": "rhf"
			},
			{
				"type": "unocc",
				"energy": 0.01048,
				"method": "rhf"
			},
			{
				"type": "unocc",
				"energy": 0.0308,
				"method": "rhf"
			}
		],
		"cosmo_sigma_profile": { 
			"-0.025": 0.0,
			"-0.024": 0.0,
			"-0.023": 0.0,
			"-0.022": 0.0,
			"-0.021": 0.0,
			"-0.02": 0.0,
			"-0.019": 0.0476752595452,
			"-0.018": 0.645563116712,
			"-0.017": 0.314473309468,
			"-0.016": 1.22845468248,
			"-0.015": 0.895234974294,
			"-0.014": 0.516621229118,
			"-0.013": 1.07342551953,
			"-0.012": 1.66403516079,
			"-0.011": 0.742625585559,
			"-0.01": 0.644528339727,
			"-0.009": 2.63686551098,
			"-0.008": 6.38652841132,
			"-0.007": 10.2627400236,
			"-0.006": 9.87478756827,
			"-0.005": 12.3136304629,
			"-0.004": 10.5820213306,
			"-0.003": 10.9729014931,
			"-0.002": 10.5126990091,
			"-0.001": 12.9406156221,
			"0.0": 14.6959621901,
			"0.001": 22.1504671534,
			"0.002": 28.3201937187,
			"0.003": 21.3597539938,
			"0.004": 11.9850132552,
			"0.005": 3.75847205535,
			"0.006": 2.21875995472,
			"0.007": 2.10457782808,
			"0.008": 2.36277152384,
			"0.009": 3.52031743524,
			"0.01": 4.99645612834,
			"0.011": 4.69027101201,
			"0.012": 5.32375722276,
			"0.013": 1.75301473426,
			"0.014": 0.046581472941,
			"0.015": 0.0,
			"0.016": 0.0,
			"0.017": 0.0,
			"0.018": 0.0,
			"0.019": 0.0,
			"0.02": 0.0,
			"0.021": 0.0,
			"0.022": 0.0,
			"0.023": 0.0,
			"0.024": 0.0,
			"0.025": 0.0
		}
	}
}
