{
	 "smiles": "ClC(=O)CCC(Cl)=O", 
	 "Tm": 291.65, 
	 "num_atms": 12, 
	 "gaussian": { 
		 "optdone": 1, 
		 "sigma_profile": "yes", 
		 "theory": "DFT", 
		 "functional": "B3LYP", 
		 "basiset": "6-31G**", 
		 "properties": { 
			 "R2extent": 1768.154, 
			 "electric_dipole_moment_norm": 4.03997881801, 
			 "electric_quadrupole_moment_norm": 4.4609843017, 
			 "total_energy": -1225.67471779, 
			 "HOMO_LUMO_gap": 0.24638, 
			 "cosmo_polarized_energy": -9.96, 
			 "cosmo_cavitation_energy": 20.84, 
			 "cosmo_dispersion_energy": -14.75, 
			 "cosmo_repulsion_energy": 1.26, 
			 "cosmo_total_nonelectrostatic_energy": 7.35, 
			 "SMD_solvation_energy": 4.75 
		},
		"coords": [
			{
				"x": -1.7423274955,
				"y": 2.1805845262,
				"z": 1.1337740358,
				"element": "Cl" 
			},
			{
				"x": -2.0825964731,
				"y": 0.5470218359,
				"z": 0.3839683347,
				"element": "C" 
			},
			{
				"x": -2.955485165,
				"y": 0.4183561573,
				"z": -0.4100251613,
				"element": "O" 
			},
			{
				"x": -1.1548900658,
				"y": -0.5320999238,
				"z": 0.9064687193,
				"element": "C" 
			},
			{
				"x": 0.3167350008,
				"y": -0.3405928613,
				"z": 0.4823205125,
				"element": "C" 
			},
			{
				"x": 0.5417976711,
				"y": -0.4823865027,
				"z": -1.0101250156,
				"element": "C" 
			},
			{
				"x": 0.2580596841,
				"y": -2.1914154636,
				"z": -1.5977106656,
				"element": "Cl" 
			},
			{
				"x": 0.8733896858,
				"y": 0.3684180597,
				"z": -1.7684741589,
				"element": "O" 
			},
			{
				"x": -1.200281848,
				"y": -0.5192985895,
				"z": 1.9993217226,
				"element": "H" 
			},
			{
				"x": -1.5403318888,
				"y": -1.4880416076,
				"z": 0.544673519,
				"element": "H" 
			},
			{
				"x": 0.6753275986,
				"y": 0.6511751755,
				"z": 0.7670805812,
				"element": "H" 
			},
			{
				"x": 0.9205032959,
				"y": -1.0981208061,
				"z": 0.9904275764,
				"element": "H" 
			}
		],
		 "valence_orbital": [ 
			{
				"type": "occ",
				"energy": -0.33705,
				"method": "rhf"
			},
			{
				"type": "occ",
				"energy": -0.33275,
				"method": "rhf"
			},
			{
				"type": "occ",
				"energy": -0.32959,
				"method": "rhf"
			},
			{
				"type": "occ",
				"energy": -0.313,
				"method": "rhf"
			},
			{
				"type": "occ",
				"energy": -0.30793,
				"method": "rhf"
			},
			{
				"type": "unocc",
				"energy": -0.06155,
				"method": "rhf"
			},
			{
				"type": "unocc",
				"energy": -0.05601,
				"method": "rhf"
			},
			{
				"type": "unocc",
				"energy": 0.00142,
				"method": "rhf"
			},
			{
				"type": "unocc",
				"energy": 0.00578,
				"method": "rhf"
			},
			{
				"type": "unocc",
				"energy": 0.08624,
				"method": "rhf"
			}
		],
		"cosmo_sigma_profile": { 
			"-0.025": 0.0,
			"-0.024": 0.0,
			"-0.023": 0.0,
			"-0.022": 0.0,
			"-0.021": 0.0,
			"-0.02": 0.0,
			"-0.019": 0.0,
			"-0.018": 0.0,
			"-0.017": 0.0,
			"-0.016": 0.0,
			"-0.015": 0.0,
			"-0.014": 0.0,
			"-0.013": 0.0,
			"-0.012": 0.0,
			"-0.011": 0.0,
			"-0.01": 0.670514620718,
			"-0.009": 7.0022937959,
			"-0.008": 7.28776084156,
			"-0.007": 9.29766238969,
			"-0.006": 10.4016699703,
			"-0.005": 10.9191563547,
			"-0.004": 7.2303681084,
			"-0.003": 5.09982629793,
			"-0.002": 4.98644108242,
			"-0.001": 8.97761237236,
			"0.0": 9.51113485837,
			"0.001": 9.78236528227,
			"0.002": 13.3173317385,
			"0.003": 15.3827825421,
			"0.004": 18.3737541185,
			"0.005": 10.2037987292,
			"0.006": 5.12428959367,
			"0.007": 7.22122992914,
			"0.008": 8.84794744571,
			"0.009": 1.16319493067,
			"0.01": 0.0,
			"0.011": 0.0,
			"0.012": 0.0,
			"0.013": 0.0,
			"0.014": 0.0,
			"0.015": 0.0,
			"0.016": 0.0,
			"0.017": 0.0,
			"0.018": 0.0,
			"0.019": 0.0,
			"0.02": 0.0,
			"0.021": 0.0,
			"0.022": 0.0,
			"0.023": 0.0,
			"0.024": 0.0,
			"0.025": 0.0
		}
	}
}
