{
	 "smiles": "CC(C)(C)OC(=O)NC(CC1=CC(=CC=C1)C#N)C(O)=O", 
	 "Tm": 397.15, 
	 "num_atms": 39, 
	 "gaussian": { 
		 "optdone": 1, 
		 "sigma_profile": "yes", 
		 "theory": "DFT", 
		 "functional": "B3LYP", 
		 "basiset": "6-31G**", 
		 "properties": { 
			 "R2extent": 8659.8946, 
			 "electric_dipole_moment_norm": 3.82190189827, 
			 "electric_quadrupole_moment_norm": 32.3921979853, 
			 "total_energy": -992.877247777, 
			 "HOMO_LUMO_gap": 0.20773, 
			 "cosmo_polarized_energy": -25.26, 
			 "cosmo_cavitation_energy": 43.94, 
			 "cosmo_dispersion_energy": -28.37, 
			 "cosmo_repulsion_energy": 2.19, 
			 "cosmo_total_nonelectrostatic_energy": 17.75, 
			 "SMD_solvation_energy": 10.56 
		},
		"coords": [
			{
				"x": -1.9204662018,
				"y": -3.2671791028,
				"z": -0.8582230793,
				"element": "C" 
			},
			{
				"x": -0.6830392226,
				"y": -3.6838891256,
				"z": -0.0621176642,
				"element": "C" 
			},
			{
				"x": 0.2770672697,
				"y": -4.5084592721,
				"z": -0.923213912,
				"element": "C" 
			},
			{
				"x": -1.0723986986,
				"y": -4.3998301966,
				"z": 1.2336188294,
				"element": "C" 
			},
			{
				"x": -0.0579506132,
				"y": -2.3780594451,
				"z": 0.2595179771,
				"element": "O" 
			},
			{
				"x": 1.0865127176,
				"y": -2.3009253053,
				"z": 0.9553438652,
				"element": "C" 
			},
			{
				"x": 1.7301961304,
				"y": -3.2132320374,
				"z": 1.4364681528,
				"element": "O" 
			},
			{
				"x": 1.5034558036,
				"y": -0.9708621541,
				"z": 1.0335462656,
				"element": "N" 
			},
			{
				"x": 0.5928018819,
				"y": 0.1590398025,
				"z": 0.8188737004,
				"element": "C" 
			},
			{
				"x": 1.2048908828,
				"y": 1.4203762201,
				"z": 1.4876359395,
				"element": "C" 
			},
			{
				"x": 0.2794849834,
				"y": 2.6170905287,
				"z": 1.5367016942,
				"element": "C" 
			},
			{
				"x": -0.6012513016,
				"y": 2.7730822563,
				"z": 2.6097520988,
				"element": "C" 
			},
			{
				"x": -1.467954489,
				"y": 3.8758864475,
				"z": 2.6683282977,
				"element": "C" 
			},
			{
				"x": -1.4538238664,
				"y": 4.8373888974,
				"z": 1.6449635106,
				"element": "C" 
			},
			{
				"x": -0.5735617038,
				"y": 4.6834875404,
				"z": 0.5778369715,
				"element": "C" 
			},
			{
				"x": 0.2849214288,
				"y": 3.5850342371,
				"z": 0.5235979344,
				"element": "C" 
			},
			{
				"x": -2.3607225562,
				"y": 4.0208193831,
				"z": 3.7819082014,
				"element": "C" 
			},
			{
				"x": -3.0824369975,
				"y": 4.1363034233,
				"z": 4.6869205691,
				"element": "N" 
			},
			{
				"x": 0.3769102578,
				"y": 0.4104147569,
				"z": -0.6855784297,
				"element": "C" 
			},
			{
				"x": 1.3872697583,
				"y": 0.0000640368,
				"z": -1.4780483107,
				"element": "O" 
			},
			{
				"x": -0.5861919446,
				"y": 0.9935770627,
				"z": -1.1172627307,
				"element": "O" 
			},
			{
				"x": -2.4773679107,
				"y": -4.1554063588,
				"z": -1.1704534457,
				"element": "H" 
			},
			{
				"x": -2.579893769,
				"y": -2.6407371652,
				"z": -0.251006622,
				"element": "H" 
			},
			{
				"x": -1.6358208653,
				"y": -2.7026207067,
				"z": -1.7502663713,
				"element": "H" 
			},
			{
				"x": 1.1723150638,
				"y": -4.7821451506,
				"z": -0.363625834,
				"element": "H" 
			},
			{
				"x": 0.5691802741,
				"y": -3.9442739223,
				"z": -1.8143569372,
				"element": "H" 
			},
			{
				"x": -0.2247087656,
				"y": -5.4240480075,
				"z": -1.2515606436,
				"element": "H" 
			},
			{
				"x": -1.7166045738,
				"y": -3.7597575673,
				"z": 1.844514085,
				"element": "H" 
			},
			{
				"x": -0.1904821008,
				"y": -4.674451795,
				"z": 1.8130673234,
				"element": "H" 
			},
			{
				"x": -1.6318301079,
				"y": -5.3089238186,
				"z": 0.9914295734,
				"element": "H" 
			},
			{
				"x": 2.2233641394,
				"y": -0.856066132,
				"z": 1.7360622341,
				"element": "H" 
			},
			{
				"x": -0.3941921342,
				"y": -0.0378736386,
				"z": 1.2464010505,
				"element": "H" 
			},
			{
				"x": 1.4818043443,
				"y": 1.1415805733,
				"z": 2.5117021392,
				"element": "H" 
			},
			{
				"x": 2.132685928,
				"y": 1.6802250503,
				"z": 0.9643211753,
				"element": "H" 
			},
			{
				"x": -0.6201764115,
				"y": 2.0429736866,
				"z": 3.4137092712,
				"element": "H" 
			},
			{
				"x": -2.1239721869,
				"y": 5.6886032331,
				"z": 1.6968819446,
				"element": "H" 
			},
			{
				"x": -0.5562600932,
				"y": 5.4215759447,
				"z": -0.2176696993,
				"element": "H" 
			},
			{
				"x": 0.9618822039,
				"y": 3.4762709884,
				"z": -0.31837041,
				"element": "H" 
			},
			{
				"x": 2.0000634464,
				"y": -0.5119531676,
				"z": -0.917348715,
				"element": "H" 
			}
		],
		 "valence_orbital": [ 
			{
				"type": "occ",
				"energy": -0.30217,
				"method": "rhf"
			},
			{
				"type": "occ",
				"energy": -0.28869,
				"method": "rhf"
			},
			{
				"type": "occ",
				"energy": -0.27597,
				"method": "rhf"
			},
			{
				"type": "occ",
				"energy": -0.26863,
				"method": "rhf"
			},
			{
				"type": "occ",
				"energy": -0.2612,
				"method": "rhf"
			},
			{
				"type": "unocc",
				"energy": -0.05347,
				"method": "rhf"
			},
			{
				"type": "unocc",
				"energy": -0.03076,
				"method": "rhf"
			},
			{
				"type": "unocc",
				"energy": 0.00154,
				"method": "rhf"
			},
			{
				"type": "unocc",
				"energy": 0.02352,
				"method": "rhf"
			},
			{
				"type": "unocc",
				"energy": 0.03544,
				"method": "rhf"
			}
		],
		"cosmo_sigma_profile": { 
			"-0.025": 0.0,
			"-0.024": 0.0,
			"-0.023": 0.0,
			"-0.022": 0.0,
			"-0.021": 0.0,
			"-0.02": 0.0,
			"-0.019": 0.0,
			"-0.018": 0.0,
			"-0.017": 0.0,
			"-0.016": 0.0,
			"-0.015": 0.373746644942,
			"-0.014": 1.36950006296,
			"-0.013": 2.03856045891,
			"-0.012": 1.44431684032,
			"-0.011": 2.85226185956,
			"-0.01": 3.54035287595,
			"-0.009": 2.9882349245,
			"-0.008": 8.16208753553,
			"-0.007": 17.586589529,
			"-0.006": 17.1254756326,
			"-0.005": 16.9844164622,
			"-0.004": 24.1803878692,
			"-0.003": 25.3293572661,
			"-0.002": 26.4853779177,
			"-0.001": 30.4654757159,
			"0.0": 33.5660666848,
			"0.001": 22.3178197901,
			"0.002": 15.8919045432,
			"0.003": 14.4413950593,
			"0.004": 8.26898475195,
			"0.005": 6.27896134248,
			"0.006": 6.92182949078,
			"0.007": 6.98232249539,
			"0.008": 7.18388090857,
			"0.009": 9.5074102103,
			"0.01": 9.4812645322,
			"0.011": 8.88762222734,
			"0.012": 10.6762237695,
			"0.013": 5.71494989044,
			"0.014": 0.15377421219,
			"0.015": 0.0,
			"0.016": 0.0,
			"0.017": 0.0,
			"0.018": 0.0,
			"0.019": 0.0,
			"0.02": 0.0,
			"0.021": 0.0,
			"0.022": 0.0,
			"0.023": 0.0,
			"0.024": 0.0,
			"0.025": 0.0
		}
	}
}
