{
	 "smiles": "CC1=NC(=NC(O)=C1)C(C)(C)C", 
	 "Tm": 451.15, 
	 "num_atms": 26, 
	 "gaussian": { 
		 "optdone": 1, 
		 "sigma_profile": "yes", 
		 "theory": "DFT", 
		 "functional": "B3LYP", 
		 "basiset": "6-31G**", 
		 "properties": { 
			 "R2extent": 2455.9951, 
			 "electric_dipole_moment_norm": 0.749161517965, 
			 "electric_quadrupole_moment_norm": 4.175584407, 
			 "total_energy": -536.156293523, 
			 "HOMO_LUMO_gap": 0.22658, 
			 "cosmo_polarized_energy": -7.33, 
			 "cosmo_cavitation_energy": 28.38, 
			 "cosmo_dispersion_energy": -20.14, 
			 "cosmo_repulsion_energy": 1.64, 
			 "cosmo_total_nonelectrostatic_energy": 9.88, 
			 "SMD_solvation_energy": 3.99 
		},
		"coords": [
			{
				"x": 2.3040508402,
				"y": -2.1048698918,
				"z": -0.5137091076,
				"element": "C" 
			},
			{
				"x": 1.000056044,
				"y": -1.4168731447,
				"z": -0.8272913048,
				"element": "C" 
			},
			{
				"x": 0.8502999412,
				"y": -0.156742858,
				"z": -0.3830125315,
				"element": "N" 
			},
			{
				"x": -0.3057906987,
				"y": 0.465740576,
				"z": -0.6555881304,
				"element": "C" 
			},
			{
				"x": -1.3259925727,
				"y": -0.0722460003,
				"z": -1.3381963736,
				"element": "N" 
			},
			{
				"x": -1.1646621492,
				"y": -1.3231639312,
				"z": -1.773475973,
				"element": "C" 
			},
			{
				"x": -2.1837175195,
				"y": -1.8734110497,
				"z": -2.4605547256,
				"element": "O" 
			},
			{
				"x": -0.0047683081,
				"y": -2.0628290326,
				"z": -1.5468704821,
				"element": "C" 
			},
			{
				"x": -0.447365641,
				"y": 1.9000843373,
				"z": -0.1370039153,
				"element": "C" 
			},
			{
				"x": -0.2920908749,
				"y": 1.8793014799,
				"z": 1.4011450212,
				"element": "C" 
			},
			{
				"x": 0.6857916436,
				"y": 2.7539269409,
				"z": -0.7513953467,
				"element": "C" 
			},
			{
				"x": -1.810408469,
				"y": 2.5039073679,
				"z": -0.510858251,
				"element": "C" 
			},
			{
				"x": 2.8181878335,
				"y": -2.4074483232,
				"z": -1.4326342047,
				"element": "H" 
			},
			{
				"x": 2.9506266913,
				"y": -1.4304646548,
				"z": 0.0491011974,
				"element": "H" 
			},
			{
				"x": 2.1357711941,
				"y": -3.0122425284,
				"z": 0.076843835,
				"element": "H" 
			},
			{
				"x": -2.8763010561,
				"y": -1.1934779808,
				"z": -2.499008482,
				"element": "H" 
			},
			{
				"x": 0.0949317208,
				"y": -3.0773392775,
				"z": -1.9141365027,
				"element": "H" 
			},
			{
				"x": 0.6655279717,
				"y": 1.4382400216,
				"z": 1.6875973696,
				"element": "H" 
			},
			{
				"x": -1.0923634733,
				"y": 1.2963353869,
				"z": 1.8703836877,
				"element": "H" 
			},
			{
				"x": -0.3419571959,
				"y": 2.8993635428,
				"z": 1.7975574385,
				"element": "H" 
			},
			{
				"x": 0.5938197704,
				"y": 2.8052323657,
				"z": -1.8419808332,
				"element": "H" 
			},
			{
				"x": 1.6636184823,
				"y": 2.3305811042,
				"z": -0.5100586755,
				"element": "H" 
			},
			{
				"x": 0.6393575444,
				"y": 3.7765422623,
				"z": -0.3612069689,
				"element": "H" 
			},
			{
				"x": -2.6355309384,
				"y": 1.9234504259,
				"z": -0.0890143782,
				"element": "H" 
			},
			{
				"x": -1.8767243887,
				"y": 3.5269129283,
				"z": -0.1250811485,
				"element": "H" 
			},
			{
				"x": -1.951366392,
				"y": 2.5355899333,
				"z": -1.594751214,
				"element": "H" 
			}
		],
		 "valence_orbital": [ 
			{
				"type": "occ",
				"energy": -0.32124,
				"method": "rhf"
			},
			{
				"type": "occ",
				"energy": -0.29338,
				"method": "rhf"
			},
			{
				"type": "occ",
				"energy": -0.28606,
				"method": "rhf"
			},
			{
				"type": "occ",
				"energy": -0.25121,
				"method": "rhf"
			},
			{
				"type": "occ",
				"energy": -0.24933,
				"method": "rhf"
			},
			{
				"type": "unocc",
				"energy": -0.02275,
				"method": "rhf"
			},
			{
				"type": "unocc",
				"energy": -0.00912,
				"method": "rhf"
			},
			{
				"type": "unocc",
				"energy": 0.08533,
				"method": "rhf"
			},
			{
				"type": "unocc",
				"energy": 0.09768,
				"method": "rhf"
			},
			{
				"type": "unocc",
				"energy": 0.11616,
				"method": "rhf"
			}
		],
		"cosmo_sigma_profile": { 
			"-0.025": 0.0,
			"-0.024": 0.0,
			"-0.023": 0.0,
			"-0.022": 0.0,
			"-0.021": 0.0,
			"-0.02": 0.0,
			"-0.019": 0.0,
			"-0.018": 0.0522275712919,
			"-0.017": 0.606806543865,
			"-0.016": 1.04107312788,
			"-0.015": 0.411504652749,
			"-0.014": 0.785184147724,
			"-0.013": 0.162366335607,
			"-0.012": 0.570682074133,
			"-0.011": 1.24327740334,
			"-0.01": 0.836985143225,
			"-0.009": 0.460309015466,
			"-0.008": 0.617528324406,
			"-0.007": 2.38095965703,
			"-0.006": 2.82952270235,
			"-0.005": 6.50789701707,
			"-0.004": 8.78805461859,
			"-0.003": 16.9772466424,
			"-0.002": 27.1300883172,
			"-0.001": 27.5210216299,
			"0.0": 30.2993737287,
			"0.001": 33.2710365766,
			"0.002": 19.1616205855,
			"0.003": 6.78977547117,
			"0.004": 6.15573241325,
			"0.005": 4.43753612456,
			"0.006": 4.58124264968,
			"0.007": 5.05765313237,
			"0.008": 4.25052204989,
			"0.009": 3.46897981473,
			"0.01": 3.63067176726,
			"0.011": 1.06288986777,
			"0.012": 0.51967843018,
			"0.013": 0.187138680143,
			"0.014": 0.0,
			"0.015": 0.0,
			"0.016": 0.0,
			"0.017": 0.0,
			"0.018": 0.0,
			"0.019": 0.0,
			"0.02": 0.0,
			"0.021": 0.0,
			"0.022": 0.0,
			"0.023": 0.0,
			"0.024": 0.0,
			"0.025": 0.0
		}
	}
}
