{
	 "smiles": "FC1=CC(F)=C(Br)C=C1", 
	 "Tm": 269.15, 
	 "num_atms": 12, 
	 "gaussian": { 
		 "optdone": 1, 
		 "sigma_profile": "yes", 
		 "theory": "DFT", 
		 "functional": "B3LYP", 
		 "basiset": "6-31G**", 
		 "properties": { 
			 "R2extent": 3550.9777, 
			 "electric_dipole_moment_norm": 1.34111938693, 
			 "electric_quadrupole_moment_norm": 5.16967070808, 
			 "total_energy": -3001.51223335, 
			 "HOMO_LUMO_gap": 0.21769, 
			 "cosmo_polarized_energy": -3.6, 
			 "cosmo_cavitation_energy": 19.76, 
			 "cosmo_dispersion_energy": -14.9, 
			 "cosmo_repulsion_energy": 1.17, 
			 "cosmo_total_nonelectrostatic_energy": 6.03, 
			 "SMD_solvation_energy": 3.36 
		},
		"coords": [
			{
				"x": -2.2261642201,
				"y": 2.65361408,
				"z": -1.8140935036,
				"element": "F" 
			},
			{
				"x": -1.5866931261,
				"y": 1.4712759477,
				"z": -1.8649839067,
				"element": "C" 
			},
			{
				"x": -2.3023325137,
				"y": 0.3439963454,
				"z": -2.2514256928,
				"element": "C" 
			},
			{
				"x": -1.629943875,
				"y": -0.8720429648,
				"z": -2.2999730988,
				"element": "C" 
			},
			{
				"x": -2.3078086952,
				"y": -1.9665749075,
				"z": -2.6708017372,
				"element": "F" 
			},
			{
				"x": -0.2765874189,
				"y": -0.9670620934,
				"z": -1.9720525529,
				"element": "C" 
			},
			{
				"x": 0.5986134905,
				"y": -2.6503666335,
				"z": -2.0532520519,
				"element": "Br" 
			},
			{
				"x": 0.4140494452,
				"y": 0.1824558252,
				"z": -1.5879907307,
				"element": "C" 
			},
			{
				"x": -0.2375286435,
				"y": 1.4141724846,
				"z": -1.5313007447,
				"element": "C" 
			},
			{
				"x": -3.3529009717,
				"y": 0.402973239,
				"z": -2.508626724,
				"element": "H" 
			},
			{
				"x": 1.4650245994,
				"y": 0.1085738313,
				"z": -1.3333546438,
				"element": "H" 
			},
			{
				"x": 0.2844719291,
				"y": 2.316484846,
				"z": -1.2349446129,
				"element": "H" 
			}
		],
		 "valence_orbital": [ 
			{
				"type": "occ",
				"energy": -0.37647,
				"method": "rhf"
			},
			{
				"type": "occ",
				"energy": -0.31819,
				"method": "rhf"
			},
			{
				"type": "occ",
				"energy": -0.29576,
				"method": "rhf"
			},
			{
				"type": "occ",
				"energy": -0.27313,
				"method": "rhf"
			},
			{
				"type": "occ",
				"energy": -0.24609,
				"method": "rhf"
			},
			{
				"type": "unocc",
				"energy": -0.0284,
				"method": "rhf"
			},
			{
				"type": "unocc",
				"energy": -0.01584,
				"method": "rhf"
			},
			{
				"type": "unocc",
				"energy": -0.00505,
				"method": "rhf"
			},
			{
				"type": "unocc",
				"energy": 0.08888,
				"method": "rhf"
			},
			{
				"type": "unocc",
				"energy": 0.1268,
				"method": "rhf"
			}
		],
		"cosmo_sigma_profile": { 
			"-0.025": 0.0,
			"-0.024": 0.0,
			"-0.023": 0.0,
			"-0.022": 0.0,
			"-0.021": 0.0,
			"-0.02": 0.0,
			"-0.019": 0.0,
			"-0.018": 0.0,
			"-0.017": 0.0,
			"-0.016": 0.0,
			"-0.015": 0.0,
			"-0.014": 0.0,
			"-0.013": 0.0,
			"-0.012": 0.0,
			"-0.011": 0.0,
			"-0.01": 0.10665555898,
			"-0.009": 1.54658931327,
			"-0.008": 4.62934835507,
			"-0.007": 5.11582607562,
			"-0.006": 5.53451762577,
			"-0.005": 5.53892974532,
			"-0.004": 6.5688179468,
			"-0.003": 6.96561711418,
			"-0.002": 6.12871876311,
			"-0.001": 16.1908938474,
			"0.0": 22.2143697459,
			"0.001": 19.8352273835,
			"0.002": 15.3727538878,
			"0.003": 20.8716750758,
			"0.004": 22.9608806733,
			"0.005": 3.46385916723,
			"0.006": 0.066845564012,
			"0.007": 0.0,
			"0.008": 0.0,
			"0.009": 0.0,
			"0.01": 0.0,
			"0.011": 0.0,
			"0.012": 0.0,
			"0.013": 0.0,
			"0.014": 0.0,
			"0.015": 0.0,
			"0.016": 0.0,
			"0.017": 0.0,
			"0.018": 0.0,
			"0.019": 0.0,
			"0.02": 0.0,
			"0.021": 0.0,
			"0.022": 0.0,
			"0.023": 0.0,
			"0.024": 0.0,
			"0.025": 0.0
		}
	}
}
