{
	 "smiles": "CCOCCCNC(=O)CCl", 
	 "Tm": 299.15, 
	 "num_atms": 25, 
	 "gaussian": { 
		 "optdone": 1, 
		 "sigma_profile": "yes", 
		 "theory": "DFT", 
		 "functional": "B3LYP", 
		 "basiset": "6-31G**", 
		 "properties": { 
			 "R2extent": 2692.3718, 
			 "electric_dipole_moment_norm": 3.06214351558, 
			 "electric_quadrupole_moment_norm": 10.9824844448, 
			 "total_energy": -940.590440193, 
			 "HOMO_LUMO_gap": 0.26877, 
			 "cosmo_polarized_energy": -10.46, 
			 "cosmo_cavitation_energy": 29.04, 
			 "cosmo_dispersion_energy": -20.44, 
			 "cosmo_repulsion_energy": 1.68, 
			 "cosmo_total_nonelectrostatic_energy": 10.28, 
			 "SMD_solvation_energy": 4.75 
		},
		"coords": [
			{
				"x": 0.8915105461,
				"y": -2.7734996572,
				"z": 1.071432072,
				"element": "C" 
			},
			{
				"x": -0.1763110609,
				"y": -2.5463111457,
				"z": 0.0146883128,
				"element": "C" 
			},
			{
				"x": -1.2185890718,
				"y": -1.7575457713,
				"z": 0.5863026579,
				"element": "O" 
			},
			{
				"x": -2.3861395662,
				"y": -1.647248902,
				"z": -0.2242211815,
				"element": "C" 
			},
			{
				"x": -2.2932947644,
				"y": -0.5700605417,
				"z": -1.3110151132,
				"element": "C" 
			},
			{
				"x": -2.1798422077,
				"y": 0.8574778445,
				"z": -0.7656024871,
				"element": "C" 
			},
			{
				"x": -0.9321530824,
				"y": 1.0919170163,
				"z": -0.0483745788,
				"element": "N" 
			},
			{
				"x": -0.2179512878,
				"y": 2.2234776533,
				"z": -0.2314804372,
				"element": "C" 
			},
			{
				"x": -0.5099818398,
				"y": 3.1237234685,
				"z": -1.0132807566,
				"element": "O" 
			},
			{
				"x": 1.071159937,
				"y": 2.4169997343,
				"z": 0.5712079327,
				"element": "C" 
			},
			{
				"x": 1.4670753669,
				"y": 1.1660342995,
				"z": 1.8283103234,
				"element": "Cl" 
			},
			{
				"x": 1.3224172511,
				"y": -1.8233808075,
				"z": 1.3980435405,
				"element": "H" 
			},
			{
				"x": 0.4653330233,
				"y": -3.2781537181,
				"z": 1.9431833544,
				"element": "H" 
			},
			{
				"x": 1.6959104071,
				"y": -3.3958426856,
				"z": 0.6666248972,
				"element": "H" 
			},
			{
				"x": 0.2549248575,
				"y": -2.0460692185,
				"z": -0.8660176687,
				"element": "H" 
			},
			{
				"x": -0.5931124012,
				"y": -3.5075042319,
				"z": -0.3264410998,
				"element": "H" 
			},
			{
				"x": -3.2030664975,
				"y": -1.4024795428,
				"z": 0.4655588203,
				"element": "H" 
			},
			{
				"x": -2.618101829,
				"y": -2.6228701307,
				"z": -0.6784411392,
				"element": "H" 
			},
			{
				"x": -3.2055458869,
				"y": -0.630413438,
				"z": -1.9188371874,
				"element": "H" 
			},
			{
				"x": -1.4536423731,
				"y": -0.7771306222,
				"z": -1.9850082138,
				"element": "H" 
			},
			{
				"x": -3.033704116,
				"y": 1.0635173709,
				"z": -0.1029926992,
				"element": "H" 
			},
			{
				"x": -2.2156893402,
				"y": 1.589506528,
				"z": -1.5754001257,
				"element": "H" 
			},
			{
				"x": -0.6336475336,
				"y": 0.3896638271,
				"z": 0.6182241949,
				"element": "H" 
			},
			{
				"x": 1.0062851302,
				"y": 3.3754682632,
				"z": 1.0854424471,
				"element": "H" 
			},
			{
				"x": 1.9102563392,
				"y": 2.4481244078,
				"z": -0.1246058649,
				"element": "H" 
			}
		],
		 "valence_orbital": [ 
			{
				"type": "occ",
				"energy": -0.31605,
				"method": "rhf"
			},
			{
				"type": "occ",
				"energy": -0.30418,
				"method": "rhf"
			},
			{
				"type": "occ",
				"energy": -0.26444,
				"method": "rhf"
			},
			{
				"type": "occ",
				"energy": -0.25354,
				"method": "rhf"
			},
			{
				"type": "occ",
				"energy": -0.2504,
				"method": "rhf"
			},
			{
				"type": "unocc",
				"energy": 0.01837,
				"method": "rhf"
			},
			{
				"type": "unocc",
				"energy": 0.02687,
				"method": "rhf"
			},
			{
				"type": "unocc",
				"energy": 0.07814,
				"method": "rhf"
			},
			{
				"type": "unocc",
				"energy": 0.10295,
				"method": "rhf"
			},
			{
				"type": "unocc",
				"energy": 0.10968,
				"method": "rhf"
			}
		],
		"cosmo_sigma_profile": { 
			"-0.025": 0.0,
			"-0.024": 0.0,
			"-0.023": 0.0,
			"-0.022": 0.0,
			"-0.021": 0.0,
			"-0.02": 0.0,
			"-0.019": 0.0,
			"-0.018": 0.0,
			"-0.017": 0.0,
			"-0.016": 0.0,
			"-0.015": 0.0,
			"-0.014": 0.0,
			"-0.013": 0.0,
			"-0.012": 0.0,
			"-0.011": 0.0,
			"-0.01": 0.0,
			"-0.009": 1.49737670073,
			"-0.008": 4.44731900302,
			"-0.007": 3.44718100821,
			"-0.006": 3.3686206929,
			"-0.005": 7.17973486974,
			"-0.004": 27.4033959232,
			"-0.003": 31.5695306456,
			"-0.002": 28.6547251633,
			"-0.001": 23.8710759845,
			"0.0": 20.6670208867,
			"0.001": 18.0070326307,
			"0.002": 8.28643171838,
			"0.003": 6.51918779641,
			"0.004": 6.33418506024,
			"0.005": 9.75378607908,
			"0.006": 5.30560892149,
			"0.007": 2.40717867381,
			"0.008": 1.90076716405,
			"0.009": 2.20673033776,
			"0.01": 2.25742066415,
			"0.011": 2.40936255326,
			"0.012": 2.60526371908,
			"0.013": 4.84950892302,
			"0.014": 3.86160936007,
			"0.015": 0.244783794691,
			"0.016": 0.0,
			"0.017": 0.0,
			"0.018": 0.0,
			"0.019": 0.0,
			"0.02": 0.0,
			"0.021": 0.0,
			"0.022": 0.0,
			"0.023": 0.0,
			"0.024": 0.0,
			"0.025": 0.0
		}
	}
}
