{
	 "smiles": "O=C1OC(=O)[C@@]23CC4=CC=CC=C4C[C@@]12CC1=C(C3)C=C2CCC2=C1", 
	 "Tm": 523.15, 
	 "num_atms": 43, 
	 "gaussian": { 
		 "optdone": 1, 
		 "sigma_profile": "yes", 
		 "theory": "DFT", 
		 "functional": "B3LYP", 
		 "basiset": "6-31G**", 
		 "properties": { 
			 "R2extent": 8579.7982, 
			 "electric_dipole_moment_norm": 4.58535151215, 
			 "electric_quadrupole_moment_norm": 21.5039268839, 
			 "total_energy": -1074.87086864, 
			 "HOMO_LUMO_gap": 0.20366, 
			 "cosmo_polarized_energy": -13.56, 
			 "cosmo_cavitation_energy": 43.72, 
			 "cosmo_dispersion_energy": -30.35, 
			 "cosmo_repulsion_energy": 2.26, 
			 "cosmo_total_nonelectrostatic_energy": 15.63, 
			 "SMD_solvation_energy": 7.45 
		},
		"coords": [
			{
				"x": 2.0216975985,
				"y": -1.8175028785,
				"z": -2.8442999476,
				"element": "O" 
			},
			{
				"x": 2.1958140277,
				"y": -1.179585855,
				"z": -1.8442573605,
				"element": "C" 
			},
			{
				"x": 3.3093208377,
				"y": -1.3835919567,
				"z": -1.043250626,
				"element": "O" 
			},
			{
				"x": 3.2900681115,
				"y": -0.5449836744,
				"z": 0.0610815469,
				"element": "C" 
			},
			{
				"x": 4.1622735541,
				"y": -0.5761781093,
				"z": 0.8830438951,
				"element": "O" 
			},
			{
				"x": 2.0659567399,
				"y": 0.3670099868,
				"z": 0.0246664252,
				"element": "C" 
			},
			{
				"x": 2.547647427,
				"y": 1.8481528731,
				"z": -0.0238596349,
				"element": "C" 
			},
			{
				"x": 1.4428905606,
				"y": 2.7559309953,
				"z": -0.5056113177,
				"element": "C" 
			},
			{
				"x": 1.0722600656,
				"y": 3.9337511188,
				"z": 0.1459607475,
				"element": "C" 
			},
			{
				"x": 0.0443958315,
				"y": 4.7295922367,
				"z": -0.366972892,
				"element": "C" 
			},
			{
				"x": -0.6229666441,
				"y": 4.3425243613,
				"z": -1.5295173865,
				"element": "C" 
			},
			{
				"x": -0.2630551001,
				"y": 3.1592531937,
				"z": -2.1801216885,
				"element": "C" 
			},
			{
				"x": 0.7698960851,
				"y": 2.3656077044,
				"z": -1.6778321682,
				"element": "C" 
			},
			{
				"x": 1.2258121934,
				"y": 1.0815190594,
				"z": -2.3258533955,
				"element": "C" 
			},
			{
				"x": 1.3191312658,
				"y": -0.0661114173,
				"z": -1.2758838521,
				"element": "C" 
			},
			{
				"x": -0.0961447212,
				"y": -0.6417476813,
				"z": -0.9993786945,
				"element": "C" 
			},
			{
				"x": -0.1090910748,
				"y": -1.6207137187,
				"z": 0.1509642989,
				"element": "C" 
			},
			{
				"x": 0.5668243546,
				"y": -1.2288018415,
				"z": 1.3279571023,
				"element": "C" 
			},
			{
				"x": 1.2309637181,
				"y": 0.1278210697,
				"z": 1.3117106325,
				"element": "C" 
			},
			{
				"x": 0.6242115387,
				"y": -2.0702492789,
				"z": 2.4520623513,
				"element": "C" 
			},
			{
				"x": -0.0285216167,
				"y": -3.2895295883,
				"z": 2.345075563,
				"element": "C" 
			},
			{
				"x": -0.3514025397,
				"y": -4.5856545546,
				"z": 3.0746526411,
				"element": "C" 
			},
			{
				"x": -1.1084038854,
				"y": -5.0245189523,
				"z": 1.7566401286,
				"element": "C" 
			},
			{
				"x": -0.6957434545,
				"y": -3.6763766153,
				"z": 1.183283045,
				"element": "C" 
			},
			{
				"x": -0.7508019542,
				"y": -2.8674831602,
				"z": 0.0577453292,
				"element": "C" 
			},
			{
				"x": 3.4060267477,
				"y": 1.9248373536,
				"z": -0.7057809922,
				"element": "H" 
			},
			{
				"x": 2.913947477,
				"y": 2.14103439,
				"z": 0.963847985,
				"element": "H" 
			},
			{
				"x": 1.5901218303,
				"y": 4.2316470177,
				"z": 1.0543028915,
				"element": "H" 
			},
			{
				"x": -0.2366836218,
				"y": 5.6459323477,
				"z": 0.1438209423,
				"element": "H" 
			},
			{
				"x": -1.4257493544,
				"y": 4.9562701947,
				"z": -1.9275777306,
				"element": "H" 
			},
			{
				"x": -0.7852222951,
				"y": 2.8538652613,
				"z": -3.0834957746,
				"element": "H" 
			},
			{
				"x": 2.2144832268,
				"y": 1.2336142071,
				"z": -2.7809393462,
				"element": "H" 
			},
			{
				"x": 0.5591580147,
				"y": 0.7754283824,
				"z": -3.1366628931,
				"element": "H" 
			},
			{
				"x": -0.4601330686,
				"y": -1.1143982632,
				"z": -1.9164795891,
				"element": "H" 
			},
			{
				"x": -0.7590234455,
				"y": 0.2083002652,
				"z": -0.7875492489,
				"element": "H" 
			},
			{
				"x": 0.4769469774,
				"y": 0.9250090509,
				"z": 1.3649191325,
				"element": "H" 
			},
			{
				"x": 1.8901572827,
				"y": 0.2485937362,
				"z": 2.1764945415,
				"element": "H" 
			},
			{
				"x": 1.1628174419,
				"y": -1.7595124284,
				"z": 3.3439716613,
				"element": "H" 
			},
			{
				"x": -0.9908569202,
				"y": -4.4879003642,
				"z": 3.9584229256,
				"element": "H" 
			},
			{
				"x": 0.5091739294,
				"y": -5.2101908408,
				"z": 3.3362761499,
				"element": "H" 
			},
			{
				"x": -2.1856200236,
				"y": -5.1804776342,
				"z": 1.8782561331,
				"element": "H" 
			},
			{
				"x": -0.6847537564,
				"y": -5.9023663834,
				"z": 1.25765313,
				"element": "H" 
			},
			{
				"x": -1.2523233613,
				"y": -3.1598196095,
				"z": -0.8615846605,
				"element": "H" 
			}
		],
		 "valence_orbital": [ 
			{
				"type": "occ",
				"energy": -0.27317,
				"method": "rhf"
			},
			{
				"type": "occ",
				"energy": -0.25894,
				"method": "rhf"
			},
			{
				"type": "occ",
				"energy": -0.25294,
				"method": "rhf"
			},
			{
				"type": "occ",
				"energy": -0.2474,
				"method": "rhf"
			},
			{
				"type": "occ",
				"energy": -0.23074,
				"method": "rhf"
			},
			{
				"type": "unocc",
				"energy": -0.02708,
				"method": "rhf"
			},
			{
				"type": "unocc",
				"energy": -0.01382,
				"method": "rhf"
			},
			{
				"type": "unocc",
				"energy": -0.0133,
				"method": "rhf"
			},
			{
				"type": "unocc",
				"energy": -0.01016,
				"method": "rhf"
			},
			{
				"type": "unocc",
				"energy": 0.00242,
				"method": "rhf"
			}
		],
		"cosmo_sigma_profile": { 
			"-0.025": 0.0,
			"-0.024": 0.0,
			"-0.023": 0.0,
			"-0.022": 0.0,
			"-0.021": 0.0,
			"-0.02": 0.0,
			"-0.019": 0.0,
			"-0.018": 0.0,
			"-0.017": 0.0,
			"-0.016": 0.0,
			"-0.015": 0.0,
			"-0.014": 0.0240962748024,
			"-0.013": 0.291482341653,
			"-0.012": 0.274604062802,
			"-0.011": 0.876599881764,
			"-0.01": 0.825434214211,
			"-0.009": 1.28927303344,
			"-0.008": 1.13818820411,
			"-0.007": 2.17012610605,
			"-0.006": 12.2035068587,
			"-0.005": 30.0614125614,
			"-0.004": 33.5674097698,
			"-0.003": 32.7016966302,
			"-0.002": 36.6438563983,
			"-0.001": 29.4897159268,
			"0.0": 30.6128530539,
			"0.001": 21.6776573992,
			"0.002": 17.80189124,
			"0.003": 17.5280415654,
			"0.004": 15.0101993413,
			"0.005": 19.0060241773,
			"0.006": 11.6383274998,
			"0.007": 6.51291426692,
			"0.008": 5.05967379741,
			"0.009": 5.66020757808,
			"0.01": 10.2910259113,
			"0.011": 4.00990773496,
			"0.012": 0.0506210764412,
			"0.013": 0.0,
			"0.014": 0.0,
			"0.015": 0.0,
			"0.016": 0.0,
			"0.017": 0.0,
			"0.018": 0.0,
			"0.019": 0.0,
			"0.02": 0.0,
			"0.021": 0.0,
			"0.022": 0.0,
			"0.023": 0.0,
			"0.024": 0.0,
			"0.025": 0.0
		}
	}
}
