{
	 "smiles": "OC(=O)CCC1=CC=CC=C1O", 
	 "Tm": 360.15, 
	 "num_atms": 22, 
	 "gaussian": { 
		 "optdone": 1, 
		 "sigma_profile": "yes", 
		 "theory": "DFT", 
		 "functional": "B3LYP", 
		 "basiset": "6-31G**", 
		 "properties": { 
			 "R2extent": 2187.2607, 
			 "electric_dipole_moment_norm": 1.505075234, 
			 "electric_quadrupole_moment_norm": 13.0863600772, 
			 "total_energy": -574.672130821, 
			 "HOMO_LUMO_gap": 0.21656, 
			 "cosmo_polarized_energy": -14.45, 
			 "cosmo_cavitation_energy": 26.03, 
			 "cosmo_dispersion_energy": -18.43, 
			 "cosmo_repulsion_energy": 1.48, 
			 "cosmo_total_nonelectrostatic_energy": 9.09, 
			 "SMD_solvation_energy": 5.59 
		},
		"coords": [
			{
				"x": 3.0341340568,
				"y": 1.294697,
				"z": 1.470827761,
				"element": "O" 
			},
			{
				"x": 2.7504629054,
				"y": 0.4688580708,
				"z": 0.4315009813,
				"element": "C" 
			},
			{
				"x": 2.8811061482,
				"y": -0.7331322264,
				"z": 0.5021992081,
				"element": "O" 
			},
			{
				"x": 2.2754483163,
				"y": 1.2453536775,
				"z": -0.7767440918,
				"element": "C" 
			},
			{
				"x": 0.8143451233,
				"y": 1.7573258278,
				"z": -0.6478458792,
				"element": "C" 
			},
			{
				"x": -0.2325276911,
				"y": 0.6686491623,
				"z": -0.7344248573,
				"element": "C" 
			},
			{
				"x": -0.8185236248,
				"y": 0.3241859524,
				"z": -1.9565926165,
				"element": "C" 
			},
			{
				"x": -1.770672113,
				"y": -0.6916602638,
				"z": -2.0595700506,
				"element": "C" 
			},
			{
				"x": -2.1565988687,
				"y": -1.3845037699,
				"z": -0.9128154091,
				"element": "C" 
			},
			{
				"x": -1.5947770669,
				"y": -1.0575470685,
				"z": 0.3210791602,
				"element": "C" 
			},
			{
				"x": -0.6402068342,
				"y": -0.0407517554,
				"z": 0.4091519194,
				"element": "C" 
			},
			{
				"x": -0.0713332657,
				"y": 0.3182891209,
				"z": 1.6032958647,
				"element": "O" 
			},
			{
				"x": 3.2840485464,
				"y": 0.7151880556,
				"z": 2.2092698846,
				"element": "H" 
			},
			{
				"x": 2.3705057231,
				"y": 0.5927144574,
				"z": -1.6472252806,
				"element": "H" 
			},
			{
				"x": 2.9368963801,
				"y": 2.1085772332,
				"z": -0.9069873288,
				"element": "H" 
			},
			{
				"x": 0.6461001828,
				"y": 2.4706207232,
				"z": -1.4616414144,
				"element": "H" 
			},
			{
				"x": 0.7163660686,
				"y": 2.3089774209,
				"z": 0.2914367128,
				"element": "H" 
			},
			{
				"x": -0.5178564023,
				"y": 0.8703648726,
				"z": -2.8479771713,
				"element": "H" 
			},
			{
				"x": -2.2068005914,
				"y": -0.9357215675,
				"z": -3.0231419465,
				"element": "H" 
			},
			{
				"x": -2.8963104546,
				"y": -2.1775855242,
				"z": -0.9713596095,
				"element": "H" 
			},
			{
				"x": -1.8960144003,
				"y": -1.5915272232,
				"z": 1.2203333044,
				"element": "H" 
			},
			{
				"x": -0.374592138,
				"y": -0.2880721757,
				"z": 2.2909308592,
				"element": "H" 
			}
		],
		 "valence_orbital": [ 
			{
				"type": "occ",
				"energy": -0.33005,
				"method": "rhf"
			},
			{
				"type": "occ",
				"energy": -0.30675,
				"method": "rhf"
			},
			{
				"type": "occ",
				"energy": -0.26297,
				"method": "rhf"
			},
			{
				"type": "occ",
				"energy": -0.24478,
				"method": "rhf"
			},
			{
				"type": "occ",
				"energy": -0.21873,
				"method": "rhf"
			},
			{
				"type": "unocc",
				"energy": -0.00217,
				"method": "rhf"
			},
			{
				"type": "unocc",
				"energy": 0.01237,
				"method": "rhf"
			},
			{
				"type": "unocc",
				"energy": 0.01937,
				"method": "rhf"
			},
			{
				"type": "unocc",
				"energy": 0.06662,
				"method": "rhf"
			},
			{
				"type": "unocc",
				"energy": 0.08765,
				"method": "rhf"
			}
		],
		"cosmo_sigma_profile": { 
			"-0.025": 0.0,
			"-0.024": 0.0,
			"-0.023": 0.0,
			"-0.022": 0.0,
			"-0.021": 0.0,
			"-0.02": 0.0,
			"-0.019": 0.0,
			"-0.018": 0.466671626603,
			"-0.017": 2.09256488061,
			"-0.016": 1.85999054891,
			"-0.015": 1.12196950108,
			"-0.014": 1.92998069859,
			"-0.013": 1.5534386644,
			"-0.012": 2.37654536897,
			"-0.011": 1.67145409301,
			"-0.01": 1.68065502242,
			"-0.009": 1.0683896842,
			"-0.008": 1.21351330829,
			"-0.007": 1.69860355739,
			"-0.006": 5.64979899959,
			"-0.005": 14.6164546419,
			"-0.004": 16.9170577252,
			"-0.003": 18.8565441228,
			"-0.002": 15.4038834094,
			"-0.001": 12.2163151499,
			"0.0": 9.64755461139,
			"0.001": 8.92105265826,
			"0.002": 8.93105984178,
			"0.003": 10.8360003133,
			"0.004": 10.8585996351,
			"0.005": 11.1099076233,
			"0.006": 12.7654060688,
			"0.007": 7.16798617451,
			"0.008": 4.1761918319,
			"0.009": 4.11750860939,
			"0.01": 4.45923847728,
			"0.011": 2.91571076921,
			"0.012": 4.83727731918,
			"0.013": 2.12003981722,
			"0.014": 0.111077175174,
			"0.015": 0.0,
			"0.016": 0.0,
			"0.017": 0.0,
			"0.018": 0.0,
			"0.019": 0.0,
			"0.02": 0.0,
			"0.021": 0.0,
			"0.022": 0.0,
			"0.023": 0.0,
			"0.024": 0.0,
			"0.025": 0.0
		}
	}
}
