{
	 "smiles": "NC1=CC=C(C=C)C=C1", 
	 "Tm": 297.95, 
	 "num_atms": 18, 
	 "gaussian": { 
		 "optdone": 1, 
		 "sigma_profile": "yes", 
		 "theory": "DFT", 
		 "functional": "B3LYP", 
		 "basiset": "6-31G**", 
		 "properties": { 
			 "R2extent": 1756.677, 
			 "electric_dipole_moment_norm": 2.32134709813, 
			 "electric_quadrupole_moment_norm": 9.48385809415, 
			 "total_energy": -365.01219017, 
			 "HOMO_LUMO_gap": 0.17399, 
			 "cosmo_polarized_energy": -8.81, 
			 "cosmo_cavitation_energy": 21.71, 
			 "cosmo_dispersion_energy": -16.0, 
			 "cosmo_repulsion_energy": 1.3, 
			 "cosmo_total_nonelectrostatic_energy": 7.01, 
			 "SMD_solvation_energy": 4.34 
		},
		"coords": [
			{
				"x": 1.8442689661,
				"y": 0.4380558535,
				"z": -2.4271678149,
				"element": "N" 
			},
			{
				"x": 0.6701873002,
				"y": 0.5944005824,
				"z": -1.6914833323,
				"element": "C" 
			},
			{
				"x": -0.5097422875,
				"y": -0.0726970934,
				"z": -2.059116166,
				"element": "C" 
			},
			{
				"x": -1.6579065817,
				"y": 0.0480577835,
				"z": -1.2842494431,
				"element": "C" 
			},
			{
				"x": -1.6903544727,
				"y": 0.8310168029,
				"z": -0.1174736222,
				"element": "C" 
			},
			{
				"x": -2.9347238687,
				"y": 0.9216399069,
				"z": 0.6569121712,
				"element": "C" 
			},
			{
				"x": -3.1560746405,
				"y": 1.6093850284,
				"z": 1.7856129604,
				"element": "C" 
			},
			{
				"x": -0.5009202453,
				"y": 1.4942002046,
				"z": 0.2396861394,
				"element": "C" 
			},
			{
				"x": 0.6518252232,
				"y": 1.3818191507,
				"z": -0.523987727,
				"element": "C" 
			},
			{
				"x": 2.5195706118,
				"y": 1.1834157144,
				"z": -2.3289375166,
				"element": "H" 
			},
			{
				"x": 1.7177052438,
				"y": 0.1649428051,
				"z": -3.391864899,
				"element": "H" 
			},
			{
				"x": -0.5206612742,
				"y": -0.690090371,
				"z": -2.9542056284,
				"element": "H" 
			},
			{
				"x": -2.5588843764,
				"y": -0.477360003,
				"z": -1.5923924488,
				"element": "H" 
			},
			{
				"x": -3.7641613988,
				"y": 0.3492794491,
				"z": 0.2406230506,
				"element": "H" 
			},
			{
				"x": -4.1292628595,
				"y": 1.5943163432,
				"z": 2.2650212535,
				"element": "H" 
			},
			{
				"x": -2.3897390205,
				"y": 2.2060009946,
				"z": 2.2721531207,
				"element": "H" 
			},
			{
				"x": -0.4759769299,
				"y": 2.1131549848,
				"z": 1.1316900206,
				"element": "H" 
			},
			{
				"x": 1.5559506107,
				"y": 1.9035618633,
				"z": -0.2187201181,
				"element": "H" 
			}
		],
		 "valence_orbital": [ 
			{
				"type": "occ",
				"energy": -0.32915,
				"method": "rhf"
			},
			{
				"type": "occ",
				"energy": -0.32424,
				"method": "rhf"
			},
			{
				"type": "occ",
				"energy": -0.26031,
				"method": "rhf"
			},
			{
				"type": "occ",
				"energy": -0.24556,
				"method": "rhf"
			},
			{
				"type": "occ",
				"energy": -0.18905,
				"method": "rhf"
			},
			{
				"type": "unocc",
				"energy": -0.01506,
				"method": "rhf"
			},
			{
				"type": "unocc",
				"energy": 0.00608,
				"method": "rhf"
			},
			{
				"type": "unocc",
				"energy": 0.07065,
				"method": "rhf"
			},
			{
				"type": "unocc",
				"energy": 0.08593,
				"method": "rhf"
			},
			{
				"type": "unocc",
				"energy": 0.10484,
				"method": "rhf"
			}
		],
		"cosmo_sigma_profile": { 
			"-0.025": 0.0,
			"-0.024": 0.0,
			"-0.023": 0.0,
			"-0.022": 0.0,
			"-0.021": 0.0,
			"-0.02": 0.0,
			"-0.019": 0.0,
			"-0.018": 0.0,
			"-0.017": 0.0,
			"-0.016": 0.0,
			"-0.015": 0.0,
			"-0.014": 0.0,
			"-0.013": 0.356772590715,
			"-0.012": 2.66927459606,
			"-0.011": 2.72317642508,
			"-0.01": 2.611917596,
			"-0.009": 3.6323856938,
			"-0.008": 2.99873642332,
			"-0.007": 2.80227457614,
			"-0.006": 6.17348233526,
			"-0.005": 12.3613978485,
			"-0.004": 12.7666034417,
			"-0.003": 12.1108901901,
			"-0.002": 10.7462329229,
			"-0.001": 10.1103961144,
			"0.0": 9.02490958166,
			"0.001": 8.49385170229,
			"0.002": 9.27711293513,
			"0.003": 8.45677057346,
			"0.004": 10.469612885,
			"0.005": 13.8656318254,
			"0.006": 16.7482923551,
			"0.007": 8.10085699667,
			"0.008": 2.13085212794,
			"0.009": 0.599794029478,
			"0.01": 0.641156731293,
			"0.011": 0.669521386878,
			"0.012": 0.629045774407,
			"0.013": 0.878990461749,
			"0.014": 0.441578172898,
			"0.015": 0.0719184037998,
			"0.016": 0.0,
			"0.017": 0.0,
			"0.018": 0.0,
			"0.019": 0.0,
			"0.02": 0.0,
			"0.021": 0.0,
			"0.022": 0.0,
			"0.023": 0.0,
			"0.024": 0.0,
			"0.025": 0.0
		}
	}
}
