{
	 "smiles": "ClC1=CC2=C(OCC2=O)C=C1", 
	 "Tm": 389.15, 
	 "num_atms": 16, 
	 "gaussian": { 
		 "optdone": 1, 
		 "sigma_profile": "yes", 
		 "theory": "DFT", 
		 "functional": "B3LYP", 
		 "basiset": "6-31G**", 
		 "properties": { 
			 "R2extent": 2431.5582, 
			 "electric_dipole_moment_norm": 2.70746008096, 
			 "electric_quadrupole_moment_norm": 2.27902634693, 
			 "total_energy": -918.492039794, 
			 "HOMO_LUMO_gap": 0.16483, 
			 "cosmo_polarized_energy": -8.64, 
			 "cosmo_cavitation_energy": 22.53, 
			 "cosmo_dispersion_energy": -17.1, 
			 "cosmo_repulsion_energy": 1.37, 
			 "cosmo_total_nonelectrostatic_energy": 6.8, 
			 "SMD_solvation_energy": 4.48 
		},
		"coords": [
			{
				"x": 1.2792035694,
				"y": -0.5740231155,
				"z": -3.3982756961,
				"element": "Cl" 
			},
			{
				"x": 0.5875042347,
				"y": -1.0685245723,
				"z": -1.8601107688,
				"element": "C" 
			},
			{
				"x": 0.2115917179,
				"y": -0.1061794082,
				"z": -0.9316527173,
				"element": "C" 
			},
			{
				"x": -0.3326029352,
				"y": -0.5571495113,
				"z": 0.2738162904,
				"element": "C" 
			},
			{
				"x": -0.4922859638,
				"y": -1.9217162808,
				"z": 0.535053676,
				"element": "C" 
			},
			{
				"x": -1.0351404977,
				"y": -2.1965805865,
				"z": 1.751045702,
				"element": "O" 
			},
			{
				"x": -1.2849704786,
				"y": -0.9401883957,
				"z": 2.4147851865,
				"element": "C" 
			},
			{
				"x": -0.8256072715,
				"y": 0.1712359288,
				"z": 1.4510894583,
				"element": "C" 
			},
			{
				"x": -0.8805578674,
				"y": 1.3659707849,
				"z": 1.6668612684,
				"element": "O" 
			},
			{
				"x": -0.1151492094,
				"y": -2.8900610089,
				"z": -0.396564604,
				"element": "C" 
			},
			{
				"x": 0.4274622921,
				"y": -2.4421825477,
				"z": -1.5987890633,
				"element": "C" 
			},
			{
				"x": 0.3312053987,
				"y": 0.9542158506,
				"z": -1.1245222897,
				"element": "H" 
			},
			{
				"x": -2.3536415004,
				"y": -0.8583403557,
				"z": 2.6365615515,
				"element": "H" 
			},
			{
				"x": -0.7215255334,
				"y": -0.9121292874,
				"z": 3.3527024186,
				"element": "H" 
			},
			{
				"x": -0.2403337345,
				"y": -3.9470562048,
				"z": -0.190676437,
				"element": "H" 
			},
			{
				"x": 0.7346477791,
				"y": -3.1594912895,
				"z": -2.3522239756,
				"element": "H" 
			}
		],
		 "valence_orbital": [ 
			{
				"type": "occ",
				"energy": -0.32146,
				"method": "rhf"
			},
			{
				"type": "occ",
				"energy": -0.31595,
				"method": "rhf"
			},
			{
				"type": "occ",
				"energy": -0.28273,
				"method": "rhf"
			},
			{
				"type": "occ",
				"energy": -0.26047,
				"method": "rhf"
			},
			{
				"type": "occ",
				"energy": -0.23904,
				"method": "rhf"
			},
			{
				"type": "unocc",
				"energy": -0.07421,
				"method": "rhf"
			},
			{
				"type": "unocc",
				"energy": -0.01652,
				"method": "rhf"
			},
			{
				"type": "unocc",
				"energy": 0.02152,
				"method": "rhf"
			},
			{
				"type": "unocc",
				"energy": 0.0268,
				"method": "rhf"
			},
			{
				"type": "unocc",
				"energy": 0.08798,
				"method": "rhf"
			}
		],
		"cosmo_sigma_profile": { 
			"-0.025": 0.0,
			"-0.024": 0.0,
			"-0.023": 0.0,
			"-0.022": 0.0,
			"-0.021": 0.0,
			"-0.02": 0.0,
			"-0.019": 0.0,
			"-0.018": 0.0,
			"-0.017": 0.0,
			"-0.016": 0.0,
			"-0.015": 0.0,
			"-0.014": 0.0,
			"-0.013": 0.0,
			"-0.012": 0.0,
			"-0.011": 0.0,
			"-0.01": 0.0,
			"-0.009": 3.41209090776,
			"-0.008": 10.2229559958,
			"-0.007": 9.60730342958,
			"-0.006": 10.6516164191,
			"-0.005": 8.7300692477,
			"-0.004": 7.17600924103,
			"-0.003": 7.92669936466,
			"-0.002": 10.3778770828,
			"-0.001": 12.0392433508,
			"0.0": 18.9950005594,
			"0.001": 20.8943222304,
			"0.002": 12.7753575751,
			"0.003": 9.40219505355,
			"0.004": 12.0044209769,
			"0.005": 7.2510335481,
			"0.006": 2.19058153689,
			"0.007": 2.7607421862,
			"0.008": 2.6686943497,
			"0.009": 3.06276189566,
			"0.01": 2.84343289241,
			"0.011": 4.3791652691,
			"0.012": 3.92222627734,
			"0.013": 0.519548102171,
			"0.014": 0.0,
			"0.015": 0.0,
			"0.016": 0.0,
			"0.017": 0.0,
			"0.018": 0.0,
			"0.019": 0.0,
			"0.02": 0.0,
			"0.021": 0.0,
			"0.022": 0.0,
			"0.023": 0.0,
			"0.024": 0.0,
			"0.025": 0.0
		}
	}
}
