{
	 "smiles": "ClC1=NC(=CS1)C1=CC=CC=C1", 
	 "Tm": 329.15, 
	 "num_atms": 18, 
	 "gaussian": { 
		 "optdone": 1, 
		 "sigma_profile": "yes", 
		 "theory": "DFT", 
		 "functional": "B3LYP", 
		 "basiset": "6-31G**", 
		 "properties": { 
			 "R2extent": 5070.3011, 
			 "electric_dipole_moment_norm": 2.15602705456, 
			 "electric_quadrupole_moment_norm": 8.88096024988, 
			 "total_energy": -1259.69423189, 
			 "HOMO_LUMO_gap": 0.176, 
			 "cosmo_polarized_energy": -6.24, 
			 "cosmo_cavitation_energy": 25.95, 
			 "cosmo_dispersion_energy": -20.13, 
			 "cosmo_repulsion_energy": 1.54, 
			 "cosmo_total_nonelectrostatic_energy": 7.37, 
			 "SMD_solvation_energy": 2.79 
		},
		"coords": [
			{
				"x": -4.3884920468,
				"y": -3.6452235062,
				"z": 0.601250036,
				"element": "Cl" 
			},
			{
				"x": -2.9623075354,
				"y": -3.0698136397,
				"z": -0.194816784,
				"element": "C" 
			},
			{
				"x": -2.4847475955,
				"y": -1.8848396472,
				"z": -0.0398018738,
				"element": "N" 
			},
			{
				"x": -1.3362413812,
				"y": -1.7044591433,
				"z": -0.8009295989,
				"element": "C" 
			},
			{
				"x": -0.9695469176,
				"y": -2.805290093,
				"z": -1.536056968,
				"element": "C" 
			},
			{
				"x": -2.0763731834,
				"y": -4.1157990508,
				"z": -1.2854292963,
				"element": "S" 
			},
			{
				"x": -0.6470382371,
				"y": -0.4001529144,
				"z": -0.7496939387,
				"element": "C" 
			},
			{
				"x": -1.1601925701,
				"y": 0.6271988248,
				"z": 0.0588105274,
				"element": "C" 
			},
			{
				"x": -0.5233656756,
				"y": 1.8654854969,
				"z": 0.1200682159,
				"element": "C" 
			},
			{
				"x": 0.6346354115,
				"y": 2.1013853214,
				"z": -0.6224159467,
				"element": "C" 
			},
			{
				"x": 1.1528874098,
				"y": 1.0855334482,
				"z": -1.4297178353,
				"element": "C" 
			},
			{
				"x": 0.5192365461,
				"y": -0.1526661656,
				"z": -1.4932450877,
				"element": "C" 
			},
			{
				"x": -0.1275989605,
				"y": -2.9258531083,
				"z": -2.201478174,
				"element": "H" 
			},
			{
				"x": -2.0597899749,
				"y": 0.439316198,
				"z": 0.6336736082,
				"element": "H" 
			},
			{
				"x": -0.9346694256,
				"y": 2.6483600928,
				"z": 0.7508763668,
				"element": "H" 
			},
			{
				"x": 1.1300151874,
				"y": 3.0666795944,
				"z": -0.5738776819,
				"element": "H" 
			},
			{
				"x": 2.0535946312,
				"y": 1.2578759032,
				"z": -2.0118775704,
				"element": "H" 
			},
			{
				"x": 0.9385943176,
				"y": -0.928537611,
				"z": -2.1268379986,
				"element": "H" 
			}
		],
		 "valence_orbital": [ 
			{
				"type": "occ",
				"energy": -0.30326,
				"method": "rhf"
			},
			{
				"type": "occ",
				"energy": -0.29481,
				"method": "rhf"
			},
			{
				"type": "occ",
				"energy": -0.27794,
				"method": "rhf"
			},
			{
				"type": "occ",
				"energy": -0.25378,
				"method": "rhf"
			},
			{
				"type": "occ",
				"energy": -0.22438,
				"method": "rhf"
			},
			{
				"type": "unocc",
				"energy": -0.04838,
				"method": "rhf"
			},
			{
				"type": "unocc",
				"energy": -0.01741,
				"method": "rhf"
			},
			{
				"type": "unocc",
				"energy": -0.00783,
				"method": "rhf"
			},
			{
				"type": "unocc",
				"energy": -0.00131,
				"method": "rhf"
			},
			{
				"type": "unocc",
				"energy": 0.02451,
				"method": "rhf"
			}
		],
		"cosmo_sigma_profile": { 
			"-0.025": 0.0,
			"-0.024": 0.0,
			"-0.023": 0.0,
			"-0.022": 0.0,
			"-0.021": 0.0,
			"-0.02": 0.0,
			"-0.019": 0.0,
			"-0.018": 0.0,
			"-0.017": 0.0,
			"-0.016": 0.0,
			"-0.015": 0.0,
			"-0.014": 0.0,
			"-0.013": 0.0,
			"-0.012": 0.0,
			"-0.011": 0.110320606541,
			"-0.01": 2.34075208043,
			"-0.009": 2.65771287765,
			"-0.008": 2.50744508883,
			"-0.007": 2.70813945174,
			"-0.006": 6.01920722395,
			"-0.005": 10.7395720447,
			"-0.004": 13.651295831,
			"-0.003": 15.607895735,
			"-0.002": 16.449166597,
			"-0.001": 17.444702904,
			"0.0": 19.1904611224,
			"0.001": 21.3477090933,
			"0.002": 26.6199623619,
			"0.003": 20.5271457087,
			"0.004": 13.6854808826,
			"0.005": 13.2521369087,
			"0.006": 4.47445016805,
			"0.007": 1.24569989107,
			"0.008": 1.8010858232,
			"0.009": 1.15413973424,
			"0.01": 0.917250431167,
			"0.011": 0.0101638258467,
			"0.012": 0.0,
			"0.013": 0.0,
			"0.014": 0.0,
			"0.015": 0.0,
			"0.016": 0.0,
			"0.017": 0.0,
			"0.018": 0.0,
			"0.019": 0.0,
			"0.02": 0.0,
			"0.021": 0.0,
			"0.022": 0.0,
			"0.023": 0.0,
			"0.024": 0.0,
			"0.025": 0.0
		}
	}
}
