{
	 "smiles": "C(N1CCN(CC1)C1=CC=CC=C1)C1=CC=CC=C1", 
	 "Tm": 325.15, 
	 "num_atms": 39, 
	 "gaussian": { 
		 "optdone": 1, 
		 "sigma_profile": "yes", 
		 "theory": "DFT", 
		 "functional": "B3LYP", 
		 "basiset": "6-31G**", 
		 "properties": { 
			 "R2extent": 7406.8778, 
			 "electric_dipole_moment_norm": 2.30042778196, 
			 "electric_quadrupole_moment_norm": 8.86104252557, 
			 "total_energy": -769.343917676, 
			 "HOMO_LUMO_gap": 0.17372, 
			 "cosmo_polarized_energy": -8.51, 
			 "cosmo_cavitation_energy": 39.46, 
			 "cosmo_dispersion_energy": -28.4, 
			 "cosmo_repulsion_energy": 2.16, 
			 "cosmo_total_nonelectrostatic_energy": 13.22, 
			 "SMD_solvation_energy": 3.03 
		},
		"coords": [
			{
				"x": -0.826466405,
				"y": -2.6309746704,
				"z": 1.2890622418,
				"element": "C" 
			},
			{
				"x": 0.1444813736,
				"y": -1.5685368524,
				"z": 1.0215681025,
				"element": "N" 
			},
			{
				"x": 0.8973041785,
				"y": -1.7027149888,
				"z": -0.232606671,
				"element": "C" 
			},
			{
				"x": 1.2086862093,
				"y": -0.3491082824,
				"z": -0.8883723112,
				"element": "C" 
			},
			{
				"x": 1.6835025429,
				"y": 0.6246690625,
				"z": 0.0817294841,
				"element": "N" 
			},
			{
				"x": 0.9400511453,
				"y": 0.7092435217,
				"z": 1.3402554276,
				"element": "C" 
			},
			{
				"x": -0.2810803068,
				"y": -0.2105799275,
				"z": 1.3150760121,
				"element": "C" 
			},
			{
				"x": 2.5349154197,
				"y": 1.6634906754,
				"z": -0.2825429077,
				"element": "C" 
			},
			{
				"x": 3.0514815615,
				"y": 2.5402163278,
				"z": 0.6996197537,
				"element": "C" 
			},
			{
				"x": 3.9188772855,
				"y": 3.5728457546,
				"z": 0.3532253786,
				"element": "C" 
			},
			{
				"x": 4.3059580119,
				"y": 3.7759411641,
				"z": -0.9723309703,
				"element": "C" 
			},
			{
				"x": 3.7973470012,
				"y": 2.9211078949,
				"z": -1.9507569259,
				"element": "C" 
			},
			{
				"x": 2.923287602,
				"y": 1.8867774747,
				"z": -1.6229170475,
				"element": "C" 
			},
			{
				"x": -2.0338456385,
				"y": -2.6993830795,
				"z": 0.3617083117,
				"element": "C" 
			},
			{
				"x": -3.1438939054,
				"y": -1.8643631396,
				"z": 0.5611888254,
				"element": "C" 
			},
			{
				"x": -4.231591048,
				"y": -1.8946832223,
				"z": -0.3119115062,
				"element": "C" 
			},
			{
				"x": -4.2310984526,
				"y": -2.767758271,
				"z": -1.4023180844,
				"element": "C" 
			},
			{
				"x": -3.1408301331,
				"y": -3.6141932534,
				"z": -1.6068214352,
				"element": "C" 
			},
			{
				"x": -2.0547236058,
				"y": -3.5797727,
				"z": -0.7294485317,
				"element": "C" 
			},
			{
				"x": -0.2883651766,
				"y": -3.5863970339,
				"z": 1.2484766774,
				"element": "H" 
			},
			{
				"x": -1.1682661141,
				"y": -2.5052757019,
				"z": 2.3240619361,
				"element": "H" 
			},
			{
				"x": 1.8387607001,
				"y": -2.2340133907,
				"z": -0.0311395169,
				"element": "H" 
			},
			{
				"x": 0.3429745955,
				"y": -2.2926918869,
				"z": -0.9768659611,
				"element": "H" 
			},
			{
				"x": 0.32414027,
				"y": 0.0144458185,
				"z": -1.4379884416,
				"element": "H" 
			},
			{
				"x": 1.9908316602,
				"y": -0.5222377124,
				"z": -1.6309024043,
				"element": "H" 
			},
			{
				"x": 1.5778079533,
				"y": 0.4197284033,
				"z": 2.1881717541,
				"element": "H" 
			},
			{
				"x": 0.6077787426,
				"y": 1.7428580036,
				"z": 1.5117072316,
				"element": "H" 
			},
			{
				"x": -1.0372708988,
				"y": 0.1888379184,
				"z": 0.6145838447,
				"element": "H" 
			},
			{
				"x": -0.7397732619,
				"y": -0.1979950699,
				"z": 2.3110354787,
				"element": "H" 
			},
			{
				"x": 2.7930305333,
				"y": 2.3986059373,
				"z": 1.7425639919,
				"element": "H" 
			},
			{
				"x": 4.3006491886,
				"y": 4.2222394944,
				"z": 1.1369122308,
				"element": "H" 
			},
			{
				"x": 4.9832305135,
				"y": 4.5820088501,
				"z": -1.2363440289,
				"element": "H" 
			},
			{
				"x": 4.0712199813,
				"y": 3.0640125033,
				"z": -2.9929842984,
				"element": "H" 
			},
			{
				"x": 2.5260325786,
				"y": 1.2700876192,
				"z": -2.4203717794,
				"element": "H" 
			},
			{
				"x": -3.1622764412,
				"y": -1.1941248061,
				"z": 1.4170766409,
				"element": "H" 
			},
			{
				"x": -5.0833528552,
				"y": -1.2431139253,
				"z": -0.1371943224,
				"element": "H" 
			},
			{
				"x": -5.0788693819,
				"y": -2.7944902383,
				"z": -2.0808939776,
				"element": "H" 
			},
			{
				"x": -3.1378019783,
				"y": -4.3064458911,
				"z": -2.4442689504,
				"element": "H" 
			},
			{
				"x": -1.2181434454,
				"y": -4.2575623794,
				"z": -0.8836432515,
				"element": "H" 
			}
		],
		 "valence_orbital": [ 
			{
				"type": "occ",
				"energy": -0.25224,
				"method": "rhf"
			},
			{
				"type": "occ",
				"energy": -0.24842,
				"method": "rhf"
			},
			{
				"type": "occ",
				"energy": -0.23555,
				"method": "rhf"
			},
			{
				"type": "occ",
				"energy": -0.20493,
				"method": "rhf"
			},
			{
				"type": "occ",
				"energy": -0.1804,
				"method": "rhf"
			},
			{
				"type": "unocc",
				"energy": -0.00668,
				"method": "rhf"
			},
			{
				"type": "unocc",
				"energy": -0.00453,
				"method": "rhf"
			},
			{
				"type": "unocc",
				"energy": 0.01288,
				"method": "rhf"
			},
			{
				"type": "unocc",
				"energy": 0.02777,
				"method": "rhf"
			},
			{
				"type": "unocc",
				"energy": 0.0794,
				"method": "rhf"
			}
		],
		"cosmo_sigma_profile": { 
			"-0.025": 0.0,
			"-0.024": 0.0,
			"-0.023": 0.0,
			"-0.022": 0.0,
			"-0.021": 0.0,
			"-0.02": 0.0,
			"-0.019": 0.0,
			"-0.018": 0.0,
			"-0.017": 0.0,
			"-0.016": 0.0,
			"-0.015": 0.0,
			"-0.014": 0.0,
			"-0.013": 0.0,
			"-0.012": 0.0,
			"-0.011": 0.0,
			"-0.01": 0.0,
			"-0.009": 0.0,
			"-0.008": 0.0,
			"-0.007": 0.0221647608865,
			"-0.006": 3.14835363316,
			"-0.005": 22.3586785768,
			"-0.004": 34.3404351579,
			"-0.003": 44.3049225936,
			"-0.002": 40.7148641877,
			"-0.001": 28.7140907964,
			"0.0": 19.7369984617,
			"0.001": 14.9738734477,
			"0.002": 16.0998805349,
			"0.003": 15.897473357,
			"0.004": 14.9801890467,
			"0.005": 17.4090326456,
			"0.006": 18.730669237,
			"0.007": 11.7998505963,
			"0.008": 4.93267479502,
			"0.009": 0.697318459528,
			"0.01": 0.677342190048,
			"0.011": 0.483637040637,
			"0.012": 0.456531809768,
			"0.013": 0.237878582214,
			"0.014": 0.477445497532,
			"0.015": 0.0,
			"0.016": 0.0,
			"0.017": 0.0,
			"0.018": 0.0,
			"0.019": 0.0,
			"0.02": 0.0,
			"0.021": 0.0,
			"0.022": 0.0,
			"0.023": 0.0,
			"0.024": 0.0,
			"0.025": 0.0
		}
	}
}
