{
	 "smiles": "FC1=CC=CC(F)=C1N1C=CC(CCl)=N1", 
	 "Tm": 313.15, 
	 "num_atms": 22, 
	 "gaussian": { 
		 "optdone": 1, 
		 "sigma_profile": "yes", 
		 "theory": "DFT", 
		 "functional": "B3LYP", 
		 "basiset": "6-31G**", 
		 "properties": { 
			 "R2extent": 4344.6599, 
			 "electric_dipole_moment_norm": 4.48503119387, 
			 "electric_quadrupole_moment_norm": 13.6350783848, 
			 "total_energy": -1154.61811232, 
			 "HOMO_LUMO_gap": 0.20478, 
			 "cosmo_polarized_energy": -10.18, 
			 "cosmo_cavitation_energy": 29.71, 
			 "cosmo_dispersion_energy": -21.31, 
			 "cosmo_repulsion_energy": 1.65, 
			 "cosmo_total_nonelectrostatic_energy": 10.05, 
			 "SMD_solvation_energy": 5.21 
		},
		"coords": [
			{
				"x": 0.3937056449,
				"y": 2.2983255128,
				"z": -0.7915584497,
				"element": "F" 
			},
			{
				"x": -0.6449617006,
				"y": 1.5299286818,
				"z": -1.1722248073,
				"element": "C" 
			},
			{
				"x": -1.5794574912,
				"y": 2.0485247448,
				"z": -2.057929577,
				"element": "C" 
			},
			{
				"x": -2.6492232507,
				"y": 1.2449994705,
				"z": -2.4524936186,
				"element": "C" 
			},
			{
				"x": -2.7843661985,
				"y": -0.0505465998,
				"z": -1.9539569256,
				"element": "C" 
			},
			{
				"x": -1.8418452679,
				"y": -0.5349687758,
				"z": -1.0549236081,
				"element": "C" 
			},
			{
				"x": -1.9970126874,
				"y": -1.7661320806,
				"z": -0.5533374278,
				"element": "F" 
			},
			{
				"x": -0.7431068885,
				"y": 0.2352009064,
				"z": -0.6470874465,
				"element": "C" 
			},
			{
				"x": 0.2278568049,
				"y": -0.2686314158,
				"z": 0.2464849927,
				"element": "N" 
			},
			{
				"x": 0.7680244562,
				"y": 0.3620443647,
				"z": 1.3379262271,
				"element": "C" 
			},
			{
				"x": 1.6690024249,
				"y": -0.5126625316,
				"z": 1.8934273271,
				"element": "C" 
			},
			{
				"x": 1.6171483427,
				"y": -1.6621558964,
				"z": 1.0611762329,
				"element": "C" 
			},
			{
				"x": 2.3697634415,
				"y": -2.9401573086,
				"z": 1.1798427486,
				"element": "C" 
			},
			{
				"x": 4.1523352761,
				"y": -2.7453166269,
				"z": 0.7954661044,
				"element": "Cl" 
			},
			{
				"x": 0.7477399831,
				"y": -1.50973141,
				"z": 0.0649386999,
				"element": "N" 
			},
			{
				"x": -1.4478968827,
				"y": 3.0581065928,
				"z": -2.4294730903,
				"element": "H" 
			},
			{
				"x": -3.3842940561,
				"y": 1.6324399313,
				"z": -3.1500640616,
				"element": "H" 
			},
			{
				"x": -3.6117349677,
				"y": -0.6912226316,
				"z": -2.2364268332,
				"element": "H" 
			},
			{
				"x": 0.4678445136,
				"y": 1.3605718422,
				"z": 1.6140953282,
				"element": "H" 
			},
			{
				"x": 2.2873637436,
				"y": -0.3511391726,
				"z": 2.7634388123,
				"element": "H" 
			},
			{
				"x": 2.3401365373,
				"y": -3.3431286612,
				"z": 2.1925716619,
				"element": "H" 
			},
			{
				"x": 1.9792782223,
				"y": -3.6723489363,
				"z": 0.4748077107,
				"element": "H" 
			}
		],
		 "valence_orbital": [ 
			{
				"type": "occ",
				"energy": -0.28841,
				"method": "rhf"
			},
			{
				"type": "occ",
				"energy": -0.28704,
				"method": "rhf"
			},
			{
				"type": "occ",
				"energy": -0.26261,
				"method": "rhf"
			},
			{
				"type": "occ",
				"energy": -0.25797,
				"method": "rhf"
			},
			{
				"type": "occ",
				"energy": -0.24262,
				"method": "rhf"
			},
			{
				"type": "unocc",
				"energy": -0.03784,
				"method": "rhf"
			},
			{
				"type": "unocc",
				"energy": -0.01624,
				"method": "rhf"
			},
			{
				"type": "unocc",
				"energy": -0.00059,
				"method": "rhf"
			},
			{
				"type": "unocc",
				"energy": 0.0253,
				"method": "rhf"
			},
			{
				"type": "unocc",
				"energy": 0.05749,
				"method": "rhf"
			}
		],
		"cosmo_sigma_profile": { 
			"-0.025": 0.0,
			"-0.024": 0.0,
			"-0.023": 0.0,
			"-0.022": 0.0,
			"-0.021": 0.0,
			"-0.02": 0.0,
			"-0.019": 0.0,
			"-0.018": 0.0,
			"-0.017": 0.0,
			"-0.016": 0.0,
			"-0.015": 0.0,
			"-0.014": 0.0,
			"-0.013": 0.0,
			"-0.012": 0.0,
			"-0.011": 0.0,
			"-0.01": 0.283913435962,
			"-0.009": 1.71008336317,
			"-0.008": 8.34995055486,
			"-0.007": 14.2940850728,
			"-0.006": 12.1204949588,
			"-0.005": 15.0172983436,
			"-0.004": 11.5380979546,
			"-0.003": 10.2450469416,
			"-0.002": 12.3668726982,
			"-0.001": 16.6976600951,
			"0.0": 20.0318762354,
			"0.001": 19.5244141709,
			"0.002": 20.3287043089,
			"0.003": 26.6867281639,
			"0.004": 16.8565099645,
			"0.005": 10.0481965006,
			"0.006": 11.5799764189,
			"0.007": 6.4602666568,
			"0.008": 1.71865913851,
			"0.009": 1.53409995892,
			"0.01": 1.00744382112,
			"0.011": 1.34834720126,
			"0.012": 0.875992236752,
			"0.013": 0.788158874661,
			"0.014": 0.329235752052,
			"0.015": 0.0,
			"0.016": 0.0,
			"0.017": 0.0,
			"0.018": 0.0,
			"0.019": 0.0,
			"0.02": 0.0,
			"0.021": 0.0,
			"0.022": 0.0,
			"0.023": 0.0,
			"0.024": 0.0,
			"0.025": 0.0
		}
	}
}
