{
	 "smiles": "CCOC1=CC2=C(C=C(N2)C(O)=O)C=C1", 
	 "Tm": 442.15, 
	 "num_atms": 26, 
	 "gaussian": { 
		 "optdone": 1, 
		 "sigma_profile": "yes", 
		 "theory": "DFT", 
		 "functional": "B3LYP", 
		 "basiset": "6-31G**", 
		 "properties": { 
			 "R2extent": 4566.8116, 
			 "electric_dipole_moment_norm": 3.49862245177, 
			 "electric_quadrupole_moment_norm": 30.2264935361, 
			 "total_energy": -706.235535961, 
			 "HOMO_LUMO_gap": 0.15999, 
			 "cosmo_polarized_energy": -16.68, 
			 "cosmo_cavitation_energy": 30.24, 
			 "cosmo_dispersion_energy": -22.42, 
			 "cosmo_repulsion_energy": 1.76, 
			 "cosmo_total_nonelectrostatic_energy": 9.57, 
			 "SMD_solvation_energy": 6.33 
		},
		"coords": [
			{
				"x": -0.1827817764,
				"y": 4.2529037098,
				"z": 1.5116898138,
				"element": "C" 
			},
			{
				"x": -1.3633954892,
				"y": 3.4413509175,
				"z": 0.9877122417,
				"element": "C" 
			},
			{
				"x": -1.4682132672,
				"y": 2.1588185985,
				"z": 1.6114524935,
				"element": "O" 
			},
			{
				"x": -0.6873872847,
				"y": 1.1253054288,
				"z": 1.1842233652,
				"element": "C" 
			},
			{
				"x": 0.2158276883,
				"y": 1.1908235537,
				"z": 0.127339183,
				"element": "C" 
			},
			{
				"x": 0.9182584333,
				"y": 0.0147622455,
				"z": -0.1838278917,
				"element": "C" 
			},
			{
				"x": 0.7418968384,
				"y": -1.2045308821,
				"z": 0.5319098024,
				"element": "C" 
			},
			{
				"x": 1.615097465,
				"y": -2.1662087654,
				"z": -0.0596426874,
				"element": "C" 
			},
			{
				"x": 2.2827080168,
				"y": -1.5306889992,
				"z": -1.0901555938,
				"element": "C" 
			},
			{
				"x": 1.8546706146,
				"y": -0.2148618587,
				"z": -1.1550509153,
				"element": "N" 
			},
			{
				"x": 3.2935380501,
				"y": -1.9568086414,
				"z": -2.0658058018,
				"element": "C" 
			},
			{
				"x": 3.7123321793,
				"y": -3.245744245,
				"z": -2.002700014,
				"element": "O" 
			},
			{
				"x": 3.7476362398,
				"y": -1.2010437508,
				"z": -2.9013820797,
				"element": "O" 
			},
			{
				"x": -0.1807799033,
				"y": -1.228660938,
				"z": 1.5996916848,
				"element": "C" 
			},
			{
				"x": -0.8779849657,
				"y": -0.0815528815,
				"z": 1.913802531,
				"element": "C" 
			},
			{
				"x": -0.1796234101,
				"y": 5.2478675206,
				"z": 1.0540750656,
				"element": "H" 
			},
			{
				"x": -0.2585265813,
				"y": 4.3727486126,
				"z": 2.5960949412,
				"element": "H" 
			},
			{
				"x": 0.7725843502,
				"y": 3.7705534197,
				"z": 1.2887991155,
				"element": "H" 
			},
			{
				"x": -1.3275072004,
				"y": 3.3304068265,
				"z": -0.1036029609,
				"element": "H" 
			},
			{
				"x": -2.3048332475,
				"y": 3.940552118,
				"z": 1.2337249777,
				"element": "H" 
			},
			{
				"x": 0.3841903314,
				"y": 2.0990072827,
				"z": -0.4377621595,
				"element": "H" 
			},
			{
				"x": 1.7250727816,
				"y": -3.1977931413,
				"z": 0.2498709107,
				"element": "H" 
			},
			{
				"x": 2.2183232093,
				"y": 0.4271819679,
				"z": -1.8437255848,
				"element": "H" 
			},
			{
				"x": 3.2566750625,
				"y": -3.7122985694,
				"z": -1.2881386227,
				"element": "H" 
			},
			{
				"x": -0.3428191009,
				"y": -2.139433862,
				"z": 2.1688217232,
				"element": "H" 
			},
			{
				"x": -1.5971590341,
				"y": -0.0636556668,
				"z": 2.7254864626,
				"element": "H" 
			}
		],
		 "valence_orbital": [ 
			{
				"type": "occ",
				"energy": -0.30757,
				"method": "rhf"
			},
			{
				"type": "occ",
				"energy": -0.28065,
				"method": "rhf"
			},
			{
				"type": "occ",
				"energy": -0.27648,
				"method": "rhf"
			},
			{
				"type": "occ",
				"energy": -0.22811,
				"method": "rhf"
			},
			{
				"type": "occ",
				"energy": -0.20695,
				"method": "rhf"
			},
			{
				"type": "unocc",
				"energy": -0.04696,
				"method": "rhf"
			},
			{
				"type": "unocc",
				"energy": 0.00948,
				"method": "rhf"
			},
			{
				"type": "unocc",
				"energy": 0.03298,
				"method": "rhf"
			},
			{
				"type": "unocc",
				"energy": 0.05528,
				"method": "rhf"
			},
			{
				"type": "unocc",
				"energy": 0.08442,
				"method": "rhf"
			}
		],
		"cosmo_sigma_profile": { 
			"-0.025": 0.0,
			"-0.024": 0.0,
			"-0.023": 0.0,
			"-0.022": 0.0,
			"-0.021": 0.0,
			"-0.02": 0.0,
			"-0.019": 0.0,
			"-0.018": 0.380387920346,
			"-0.017": 1.52858500362,
			"-0.016": 0.778651807185,
			"-0.015": 1.61979283007,
			"-0.014": 2.0486801852,
			"-0.013": 1.79163402362,
			"-0.012": 2.56561881897,
			"-0.011": 2.40941467713,
			"-0.01": 1.16830208688,
			"-0.009": 2.86637797378,
			"-0.008": 3.3931341642,
			"-0.007": 5.05052026424,
			"-0.006": 8.10342927704,
			"-0.005": 12.7203249984,
			"-0.004": 17.0722301267,
			"-0.003": 18.5188644962,
			"-0.002": 17.3458782152,
			"-0.001": 16.3152134826,
			"0.0": 16.3318312296,
			"0.001": 11.2474633324,
			"0.002": 11.7629903163,
			"0.003": 18.0226786766,
			"0.004": 18.5613498082,
			"0.005": 14.4315699464,
			"0.006": 5.7432781874,
			"0.007": 2.92501899605,
			"0.008": 3.37236804443,
			"0.009": 4.69730194046,
			"0.01": 5.9719388134,
			"0.011": 5.02739940833,
			"0.012": 4.44418628281,
			"0.013": 2.15567082983,
			"0.014": 0.390052179513,
			"0.015": 0.0,
			"0.016": 0.0,
			"0.017": 0.0,
			"0.018": 0.0,
			"0.019": 0.0,
			"0.02": 0.0,
			"0.021": 0.0,
			"0.022": 0.0,
			"0.023": 0.0,
			"0.024": 0.0,
			"0.025": 0.0
		}
	}
}
