{
	 "smiles": "C(=CC1=CC=NC=C1)C1=CC=CC=C1", 
	 "Tm": 402.15, 
	 "num_atms": 25, 
	 "gaussian": { 
		 "optdone": 1, 
		 "sigma_profile": "yes", 
		 "theory": "DFT", 
		 "functional": "B3LYP", 
		 "basiset": "6-31G**", 
		 "properties": { 
			 "R2extent": 4466.9817, 
			 "electric_dipole_moment_norm": 3.19728074932, 
			 "electric_quadrupole_moment_norm": 14.3313637732, 
			 "total_energy": -556.751811133, 
			 "HOMO_LUMO_gap": 0.15344, 
			 "cosmo_polarized_energy": -9.13, 
			 "cosmo_cavitation_energy": 29.44, 
			 "cosmo_dispersion_energy": -21.64, 
			 "cosmo_repulsion_energy": 1.66, 
			 "cosmo_total_nonelectrostatic_energy": 9.46, 
			 "SMD_solvation_energy": 3.53 
		},
		"coords": [
			{
				"x": -0.8836487852,
				"y": -0.072776841,
				"z": 0.6568023284,
				"element": "C" 
			},
			{
				"x": -0.2031962294,
				"y": -0.7346812504,
				"z": -0.3010050184,
				"element": "C" 
			},
			{
				"x": 1.0214878355,
				"y": -1.5165810055,
				"z": -0.1150385328,
				"element": "C" 
			},
			{
				"x": 1.6758257326,
				"y": -1.6886947073,
				"z": 1.1192305189,
				"element": "C" 
			},
			{
				"x": 2.8353108009,
				"y": -2.4545171179,
				"z": 1.1777087958,
				"element": "C" 
			},
			{
				"x": 3.396253206,
				"y": -3.0600560204,
				"z": 0.1198199379,
				"element": "N" 
			},
			{
				"x": 2.7754353861,
				"y": -2.8974316845,
				"z": -1.0549024488,
				"element": "C" 
			},
			{
				"x": 1.6106201652,
				"y": -2.1515953607,
				"z": -1.2221188905,
				"element": "C" 
			},
			{
				"x": -2.1088280778,
				"y": 0.7140042776,
				"z": 0.4916395783,
				"element": "C" 
			},
			{
				"x": -2.7615843171,
				"y": 0.8880772483,
				"z": -0.745169298,
				"element": "C" 
			},
			{
				"x": -3.9231370618,
				"y": 1.6475735459,
				"z": -0.8379489559,
				"element": "C" 
			},
			{
				"x": -4.4661825858,
				"y": 2.2545486173,
				"z": 0.2992763381,
				"element": "C" 
			},
			{
				"x": -3.8335506445,
				"y": 2.0932380174,
				"z": 1.5323938597,
				"element": "C" 
			},
			{
				"x": -2.6698980189,
				"y": 1.3322689921,
				"z": 1.6248905889,
				"element": "C" 
			},
			{
				"x": -0.5087528933,
				"y": -0.1056089736,
				"z": 1.6784158202,
				"element": "H" 
			},
			{
				"x": -0.5690048391,
				"y": -0.7090846295,
				"z": -1.3255902733,
				"element": "H" 
			},
			{
				"x": 1.2932430284,
				"y": -1.2349375034,
				"z": 2.0275567498,
				"element": "H" 
			},
			{
				"x": 3.3452309367,
				"y": -2.5906962857,
				"z": 2.1301588737,
				"element": "H" 
			},
			{
				"x": 3.2329860668,
				"y": -3.3899634044,
				"z": -1.9116001787,
				"element": "H" 
			},
			{
				"x": 1.1605004351,
				"y": -2.0625161647,
				"z": -2.2071070334,
				"element": "H" 
			},
			{
				"x": -2.3587426228,
				"y": 0.4266756165,
				"z": -1.6413463953,
				"element": "H" 
			},
			{
				"x": -4.4095463535,
				"y": 1.7683007625,
				"z": -1.801758072,
				"element": "H" 
			},
			{
				"x": -5.3732793509,
				"y": 2.8466485853,
				"z": 0.221968317,
				"element": "H" 
			},
			{
				"x": -4.2454567036,
				"y": 2.5596044277,
				"z": 2.4227135002,
				"element": "H" 
			},
			{
				"x": -2.1814851098,
				"y": 1.2102008583,
				"z": 2.5885098902,
				"element": "H" 
			}
		],
		 "valence_orbital": [ 
			{
				"type": "occ",
				"energy": -0.2819,
				"method": "rhf"
			},
			{
				"type": "occ",
				"energy": -0.25975,
				"method": "rhf"
			},
			{
				"type": "occ",
				"energy": -0.25823,
				"method": "rhf"
			},
			{
				"type": "occ",
				"energy": -0.25092,
				"method": "rhf"
			},
			{
				"type": "occ",
				"energy": -0.2191,
				"method": "rhf"
			},
			{
				"type": "unocc",
				"energy": -0.06566,
				"method": "rhf"
			},
			{
				"type": "unocc",
				"energy": -0.00786,
				"method": "rhf"
			},
			{
				"type": "unocc",
				"energy": -0.00697,
				"method": "rhf"
			},
			{
				"type": "unocc",
				"energy": 0.0038,
				"method": "rhf"
			},
			{
				"type": "unocc",
				"energy": 0.06483,
				"method": "rhf"
			}
		],
		"cosmo_sigma_profile": { 
			"-0.025": 0.0,
			"-0.024": 0.0,
			"-0.023": 0.0,
			"-0.022": 0.0,
			"-0.021": 0.0,
			"-0.02": 0.0,
			"-0.019": 0.0,
			"-0.018": 0.0,
			"-0.017": 0.0,
			"-0.016": 0.0,
			"-0.015": 0.0,
			"-0.014": 0.0,
			"-0.013": 0.0,
			"-0.012": 0.0,
			"-0.011": 0.0,
			"-0.01": 0.0,
			"-0.009": 0.00291598134404,
			"-0.008": 1.7033502325,
			"-0.007": 7.96918128948,
			"-0.006": 18.392813593,
			"-0.005": 20.9538940608,
			"-0.004": 19.0983897109,
			"-0.003": 16.0436859581,
			"-0.002": 12.9564699381,
			"-0.001": 13.0357584282,
			"0.0": 12.449258618,
			"0.001": 16.0331152497,
			"0.002": 20.9676853349,
			"0.003": 29.9456899818,
			"0.004": 17.1219364757,
			"0.005": 14.872101848,
			"0.006": 3.87131020282,
			"0.007": 1.2205363595,
			"0.008": 1.72882052478,
			"0.009": 0.987970887825,
			"0.01": 0.787547386826,
			"0.011": 1.35193797428,
			"0.012": 1.20370354875,
			"0.013": 0.833214110661,
			"0.014": 0.862289080131,
			"0.015": 1.03640194818,
			"0.016": 0.832647942321,
			"0.017": 0.628127035381,
			"0.018": 0.0,
			"0.019": 0.0,
			"0.02": 0.0,
			"0.021": 0.0,
			"0.022": 0.0,
			"0.023": 0.0,
			"0.024": 0.0,
			"0.025": 0.0
		}
	}
}
