{
	 "smiles": "BrCC1=CC=CC=C1CBr", 
	 "Tm": 367.65, 
	 "num_atms": 18, 
	 "gaussian": { 
		 "optdone": 1, 
		 "sigma_profile": "yes", 
		 "theory": "DFT", 
		 "functional": "B3LYP", 
		 "basiset": "6-31G**", 
		 "properties": { 
			 "R2extent": 6136.3225, 
			 "electric_dipole_moment_norm": 2.5729594886, 
			 "electric_quadrupole_moment_norm": 9.19428906333, 
			 "total_energy": -5452.4939482, 
			 "HOMO_LUMO_gap": 0.19778, 
			 "cosmo_polarized_energy": -7.23, 
			 "cosmo_cavitation_energy": 25.68, 
			 "cosmo_dispersion_energy": -19.22, 
			 "cosmo_repulsion_energy": 1.56, 
			 "cosmo_total_nonelectrostatic_energy": 8.03, 
			 "SMD_solvation_energy": 2.0 
		},
		"coords": [
			{
				"x": -1.9076372062,
				"y": 1.9448261329,
				"z": 3.8714888472,
				"element": "Br" 
			},
			{
				"x": -1.2063011509,
				"y": 2.3381818364,
				"z": 2.0265939187,
				"element": "C" 
			},
			{
				"x": -0.7703582207,
				"y": 1.103362739,
				"z": 1.3058251415,
				"element": "C" 
			},
			{
				"x": -1.6240249263,
				"y": 0.5326195329,
				"z": 0.3543147836,
				"element": "C" 
			},
			{
				"x": -1.2455420149,
				"y": -0.5958540878,
				"z": -0.3720144808,
				"element": "C" 
			},
			{
				"x": 0.0046925055,
				"y": -1.1723846801,
				"z": -0.1501338428,
				"element": "C" 
			},
			{
				"x": 0.862895773,
				"y": -0.6162644882,
				"z": 0.7977464149,
				"element": "C" 
			},
			{
				"x": 0.4936652203,
				"y": 0.5140322024,
				"z": 1.5366614712,
				"element": "C" 
			},
			{
				"x": 1.4324928967,
				"y": 1.045376798,
				"z": 2.5713118745,
				"element": "C" 
			},
			{
				"x": 2.475729549,
				"y": 2.6376996007,
				"z": 1.9183042738,
				"element": "Br" 
			},
			{
				"x": -0.3985998152,
				"y": 3.0473595046,
				"z": 2.1945732635,
				"element": "H" 
			},
			{
				"x": -2.0381430875,
				"y": 2.8306395755,
				"z": 1.5279056477,
				"element": "H" 
			},
			{
				"x": -2.5984735779,
				"y": 0.9824104801,
				"z": 0.1832215976,
				"element": "H" 
			},
			{
				"x": -1.9232799287,
				"y": -1.0204429776,
				"z": -1.1064612554,
				"element": "H" 
			},
			{
				"x": 0.3114419219,
				"y": -2.0505169878,
				"z": -0.710317038,
				"element": "H" 
			},
			{
				"x": 1.8379187647,
				"y": -1.0639495619,
				"z": 0.9711018822,
				"element": "H" 
			},
			{
				"x": 2.1980655849,
				"y": 0.320723302,
				"z": 2.839539855,
				"element": "H" 
			},
			{
				"x": 0.9291577124,
				"y": 1.4056810789,
				"z": 3.4659376456,
				"element": "H" 
			}
		],
		 "valence_orbital": [ 
			{
				"type": "occ",
				"energy": -0.2805,
				"method": "rhf"
			},
			{
				"type": "occ",
				"energy": -0.27751,
				"method": "rhf"
			},
			{
				"type": "occ",
				"energy": -0.26967,
				"method": "rhf"
			},
			{
				"type": "occ",
				"energy": -0.26268,
				"method": "rhf"
			},
			{
				"type": "occ",
				"energy": -0.25417,
				"method": "rhf"
			},
			{
				"type": "unocc",
				"energy": -0.05639,
				"method": "rhf"
			},
			{
				"type": "unocc",
				"energy": -0.02967,
				"method": "rhf"
			},
			{
				"type": "unocc",
				"energy": 0.01645,
				"method": "rhf"
			},
			{
				"type": "unocc",
				"energy": 0.02375,
				"method": "rhf"
			},
			{
				"type": "unocc",
				"energy": 0.0792,
				"method": "rhf"
			}
		],
		"cosmo_sigma_profile": { 
			"-0.025": 0.0,
			"-0.024": 0.0,
			"-0.023": 0.0,
			"-0.022": 0.0,
			"-0.021": 0.0,
			"-0.02": 0.0,
			"-0.019": 0.0,
			"-0.018": 0.0,
			"-0.017": 0.0,
			"-0.016": 0.0,
			"-0.015": 0.0,
			"-0.014": 0.0,
			"-0.013": 0.0,
			"-0.012": 0.0,
			"-0.011": 0.0,
			"-0.01": 0.0,
			"-0.009": 0.218896842219,
			"-0.008": 5.51648958942,
			"-0.007": 8.00606536695,
			"-0.006": 12.6952213535,
			"-0.005": 15.9195671257,
			"-0.004": 15.8581696042,
			"-0.003": 12.1648305449,
			"-0.002": 11.9760018061,
			"-0.001": 11.9400783986,
			"0.0": 12.9306200152,
			"0.001": 11.8650454026,
			"0.002": 15.1571212329,
			"0.003": 17.953085984,
			"0.004": 23.235009366,
			"0.005": 15.7819182836,
			"0.006": 17.4527329154,
			"0.007": 2.69714827976,
			"0.008": 0.0,
			"0.009": 0.0,
			"0.01": 0.0,
			"0.011": 0.0,
			"0.012": 0.0,
			"0.013": 0.0,
			"0.014": 0.0,
			"0.015": 0.0,
			"0.016": 0.0,
			"0.017": 0.0,
			"0.018": 0.0,
			"0.019": 0.0,
			"0.02": 0.0,
			"0.021": 0.0,
			"0.022": 0.0,
			"0.023": 0.0,
			"0.024": 0.0,
			"0.025": 0.0
		}
	}
}
