{
	 "smiles": "OC(=O)C1=CC=C(SC2=CC=C(Cl)C=C2)C=C1", 
	 "Tm": 477.15, 
	 "num_atms": 26, 
	 "gaussian": { 
		 "optdone": 1, 
		 "sigma_profile": "yes", 
		 "theory": "DFT", 
		 "functional": "B3LYP", 
		 "basiset": "6-31G**", 
		 "properties": { 
			 "R2extent": 7599.0307, 
			 "electric_dipole_moment_norm": 4.27731132606, 
			 "electric_quadrupole_moment_norm": 26.6158062839, 
			 "total_energy": -1509.64160577, 
			 "HOMO_LUMO_gap": 0.17954, 
			 "cosmo_polarized_energy": -16.13, 
			 "cosmo_cavitation_energy": 34.88, 
			 "cosmo_dispersion_energy": -25.52, 
			 "cosmo_repulsion_energy": 1.93, 
			 "cosmo_total_nonelectrostatic_energy": 11.29, 
			 "SMD_solvation_energy": 6.28 
		},
		"coords": [
			{
				"x": 2.7352094609,
				"y": 2.3673960477,
				"z": 5.0706558496,
				"element": "O" 
			},
			{
				"x": 2.3615819219,
				"y": 2.5656048173,
				"z": 3.7762343373,
				"element": "C" 
			},
			{
				"x": 2.5730384804,
				"y": 3.631791244,
				"z": 3.2464874199,
				"element": "O" 
			},
			{
				"x": 1.6989241317,
				"y": 1.4187206299,
				"z": 3.0810402263,
				"element": "C" 
			},
			{
				"x": 1.0923157266,
				"y": 0.3486836647,
				"z": 3.7561226455,
				"element": "C" 
			},
			{
				"x": 0.4745723342,
				"y": -0.6784441782,
				"z": 3.0510303901,
				"element": "C" 
			},
			{
				"x": 0.4596463445,
				"y": -0.6607424193,
				"z": 1.647390923,
				"element": "C" 
			},
			{
				"x": -0.3211784897,
				"y": -2.0550366308,
				"z": 0.8451825058,
				"element": "S" 
			},
			{
				"x": -0.4358892198,
				"y": -1.5614534133,
				"z": -0.8736693383,
				"element": "C" 
			},
			{
				"x": -1.4697343813,
				"y": -0.7187690199,
				"z": -1.3051040148,
				"element": "C" 
			},
			{
				"x": -1.5916487459,
				"y": -0.3850978882,
				"z": -2.6526628815,
				"element": "C" 
			},
			{
				"x": -0.6799512839,
				"y": -0.9115582608,
				"z": -3.5696627016,
				"element": "C" 
			},
			{
				"x": -0.8347897049,
				"y": -0.5016844109,
				"z": -5.2678151467,
				"element": "Cl" 
			},
			{
				"x": 0.3490038536,
				"y": -1.7596165554,
				"z": -3.1609340731,
				"element": "C" 
			},
			{
				"x": 0.4686716606,
				"y": -2.0803194079,
				"z": -1.808384523,
				"element": "C" 
			},
			{
				"x": 1.0558494724,
				"y": 0.40965506,
				"z": 0.965822213,
				"element": "C" 
			},
			{
				"x": 1.6554962533,
				"y": 1.4406251414,
				"z": 1.6807249672,
				"element": "C" 
			},
			{
				"x": 2.6631407234,
				"y": 1.430763881,
				"z": 5.299675231,
				"element": "H" 
			},
			{
				"x": 1.0515567947,
				"y": 0.3246213928,
				"z": 4.8427178549,
				"element": "H" 
			},
			{
				"x": -0.0083641536,
				"y": -1.4886880672,
				"z": 3.5893253872,
				"element": "H" 
			},
			{
				"x": -2.1799696971,
				"y": -0.3251799626,
				"z": -0.5853894365,
				"element": "H" 
			},
			{
				"x": -2.387985736,
				"y": 0.2682352738,
				"z": -2.9912676274,
				"element": "H" 
			},
			{
				"x": 1.0460839244,
				"y": -2.1601101661,
				"z": -3.8884468003,
				"element": "H" 
			},
			{
				"x": 1.2664115042,
				"y": -2.7371702797,
				"z": -1.4775826997,
				"element": "H" 
			},
			{
				"x": 1.0486019925,
				"y": 0.4389808301,
				"z": -0.1177256088,
				"element": "H" 
			},
			{
				"x": 2.1082068328,
				"y": 2.2807926774,
				"z": 1.1648349007,
				"element": "H" 
			}
		],
		 "valence_orbital": [ 
			{
				"type": "occ",
				"energy": -0.284,
				"method": "rhf"
			},
			{
				"type": "occ",
				"energy": -0.27576,
				"method": "rhf"
			},
			{
				"type": "occ",
				"energy": -0.27153,
				"method": "rhf"
			},
			{
				"type": "occ",
				"energy": -0.26499,
				"method": "rhf"
			},
			{
				"type": "occ",
				"energy": -0.23217,
				"method": "rhf"
			},
			{
				"type": "unocc",
				"energy": -0.05263,
				"method": "rhf"
			},
			{
				"type": "unocc",
				"energy": -0.0456,
				"method": "rhf"
			},
			{
				"type": "unocc",
				"energy": -0.03559,
				"method": "rhf"
			},
			{
				"type": "unocc",
				"energy": -0.02327,
				"method": "rhf"
			},
			{
				"type": "unocc",
				"energy": 0.01209,
				"method": "rhf"
			}
		],
		"cosmo_sigma_profile": { 
			"-0.025": 0.0,
			"-0.024": 0.0,
			"-0.023": 0.0,
			"-0.022": 0.0,
			"-0.021": 0.0,
			"-0.02": 0.0,
			"-0.019": 0.218151432376,
			"-0.018": 0.832264189091,
			"-0.017": 1.23944269213,
			"-0.016": 0.79243052748,
			"-0.015": 1.01322166946,
			"-0.014": 0.419708939427,
			"-0.013": 1.25697534674,
			"-0.012": 1.68895048415,
			"-0.011": 0.508230765232,
			"-0.01": 1.50723232815,
			"-0.009": 1.19655812318,
			"-0.008": 5.13070555576,
			"-0.007": 13.0021369771,
			"-0.006": 15.3128930867,
			"-0.005": 12.6466977374,
			"-0.004": 12.1155134941,
			"-0.003": 14.3814872962,
			"-0.002": 17.9313005425,
			"-0.001": 20.3480494358,
			"0.0": 22.7499826663,
			"0.001": 26.7766484181,
			"0.002": 31.7326059893,
			"0.003": 27.0764035701,
			"0.004": 16.2770435383,
			"0.005": 7.69503467943,
			"0.006": 4.47527874236,
			"0.007": 3.98582289563,
			"0.008": 2.42835312029,
			"0.009": 3.17741903309,
			"0.01": 4.26253775688,
			"0.011": 5.46330450477,
			"0.012": 5.21147188274,
			"0.013": 2.01754548393,
			"0.014": 0.130884333807,
			"0.015": 0.0,
			"0.016": 0.0,
			"0.017": 0.0,
			"0.018": 0.0,
			"0.019": 0.0,
			"0.02": 0.0,
			"0.021": 0.0,
			"0.022": 0.0,
			"0.023": 0.0,
			"0.024": 0.0,
			"0.025": 0.0
		}
	}
}
