{
	 "smiles": "FC(F)(F)C1=CC=CC=C1N1C=CN=C1", 
	 "Tm": 325.15, 
	 "num_atms": 22, 
	 "gaussian": { 
		 "optdone": 1, 
		 "sigma_profile": "yes", 
		 "theory": "DFT", 
		 "functional": "B3LYP", 
		 "basiset": "6-31G**", 
		 "properties": { 
			 "R2extent": 3640.9299, 
			 "electric_dipole_moment_norm": 4.6986803541, 
			 "electric_quadrupole_moment_norm": 17.391824515, 
			 "total_energy": -794.296499845, 
			 "HOMO_LUMO_gap": 0.18206, 
			 "cosmo_polarized_energy": -10.21, 
			 "cosmo_cavitation_energy": 27.29, 
			 "cosmo_dispersion_energy": -19.4, 
			 "cosmo_repulsion_energy": 1.43, 
			 "cosmo_total_nonelectrostatic_energy": 9.31, 
			 "SMD_solvation_energy": 5.03 
		},
		"coords": [
			{
				"x": 2.4724896393,
				"y": -0.4244719209,
				"z": 1.073536458,
				"element": "F" 
			},
			{
				"x": 1.4239959773,
				"y": 0.3234215833,
				"z": 0.685310062,
				"element": "C" 
			},
			{
				"x": 1.4955734311,
				"y": 1.4926700221,
				"z": 1.3577326321,
				"element": "F" 
			},
			{
				"x": 1.6054305194,
				"y": 0.6237095435,
				"z": -0.6267698553,
				"element": "F" 
			},
			{
				"x": 0.1013243082,
				"y": -0.3688215757,
				"z": 0.9220679774,
				"element": "C" 
			},
			{
				"x": -0.939672093,
				"y": 0.3695116462,
				"z": 1.4935903556,
				"element": "C" 
			},
			{
				"x": -2.1751909434,
				"y": -0.2160903857,
				"z": 1.7618962209,
				"element": "C" 
			},
			{
				"x": -2.3820678278,
				"y": -1.5593346052,
				"z": 1.4532999901,
				"element": "C" 
			},
			{
				"x": -1.3609552154,
				"y": -2.3023150394,
				"z": 0.864961042,
				"element": "C" 
			},
			{
				"x": -0.1165879995,
				"y": -1.7221191575,
				"z": 0.5921048036,
				"element": "C" 
			},
			{
				"x": 0.88454175,
				"y": -2.5508067089,
				"z": 0.0152192306,
				"element": "N" 
			},
			{
				"x": 1.5942541171,
				"y": -2.3635002605,
				"z": -1.1645262279,
				"element": "C" 
			},
			{
				"x": 2.363753968,
				"y": -3.486355857,
				"z": -1.3106770162,
				"element": "C" 
			},
			{
				"x": 2.1617246419,
				"y": -4.3628695777,
				"z": -0.264718346,
				"element": "N" 
			},
			{
				"x": 1.272665955,
				"y": -3.7824726264,
				"z": 0.5028415096,
				"element": "C" 
			},
			{
				"x": -0.7650010202,
				"y": 1.4086337185,
				"z": 1.7451632243,
				"element": "H" 
			},
			{
				"x": -2.9666526371,
				"y": 0.3746221798,
				"z": 2.2116611672,
				"element": "H" 
			},
			{
				"x": -3.3397213692,
				"y": -2.0291364602,
				"z": 1.6553696341,
				"element": "H" 
			},
			{
				"x": -1.5195002434,
				"y": -3.3399392363,
				"z": 0.5913173288,
				"element": "H" 
			},
			{
				"x": 1.4774728951,
				"y": -1.4735020045,
				"z": -1.7591914627,
				"element": "H" 
			},
			{
				"x": 3.0518046996,
				"y": -3.715162385,
				"z": -2.1126285744,
				"element": "H" 
			},
			{
				"x": 0.8808174472,
				"y": -4.1667708924,
				"z": 1.4346398463,
				"element": "H" 
			}
		],
		 "valence_orbital": [ 
			{
				"type": "occ",
				"energy": -0.30257,
				"method": "rhf"
			},
			{
				"type": "occ",
				"energy": -0.28541,
				"method": "rhf"
			},
			{
				"type": "occ",
				"energy": -0.268,
				"method": "rhf"
			},
			{
				"type": "occ",
				"energy": -0.25779,
				"method": "rhf"
			},
			{
				"type": "occ",
				"energy": -0.22866,
				"method": "rhf"
			},
			{
				"type": "unocc",
				"energy": -0.0466,
				"method": "rhf"
			},
			{
				"type": "unocc",
				"energy": -0.0344,
				"method": "rhf"
			},
			{
				"type": "unocc",
				"energy": 0.02738,
				"method": "rhf"
			},
			{
				"type": "unocc",
				"energy": 0.06742,
				"method": "rhf"
			},
			{
				"type": "unocc",
				"energy": 0.07918,
				"method": "rhf"
			}
		],
		"cosmo_sigma_profile": { 
			"-0.025": 0.0,
			"-0.024": 0.0,
			"-0.023": 0.0,
			"-0.022": 0.0,
			"-0.021": 0.0,
			"-0.02": 0.0,
			"-0.019": 0.0,
			"-0.018": 0.0,
			"-0.017": 0.0,
			"-0.016": 0.0,
			"-0.015": 0.0,
			"-0.014": 0.0,
			"-0.013": 0.0,
			"-0.012": 0.0,
			"-0.011": 0.0,
			"-0.01": 0.0125839652124,
			"-0.009": 1.26512963726,
			"-0.008": 2.74138098015,
			"-0.007": 12.4897808513,
			"-0.006": 15.3608663519,
			"-0.005": 13.2930975608,
			"-0.004": 12.0057550471,
			"-0.003": 13.2863245998,
			"-0.002": 11.2212034433,
			"-0.001": 14.9533992148,
			"0.0": 17.0713606209,
			"0.001": 18.7794068742,
			"0.002": 32.9688270945,
			"0.003": 25.4627674291,
			"0.004": 6.53064576399,
			"0.005": 5.74234960405,
			"0.006": 2.35673083892,
			"0.007": 1.6270675818,
			"0.008": 1.35529535851,
			"0.009": 2.15747027194,
			"0.01": 0.926746667013,
			"0.011": 1.28009318995,
			"0.012": 1.35448679533,
			"0.013": 1.42910630966,
			"0.014": 0.837176713637,
			"0.015": 1.30181930576,
			"0.016": 1.1847824952,
			"0.017": 1.04393259989,
			"0.018": 0.291533325082,
			"0.019": 0.0,
			"0.02": 0.0,
			"0.021": 0.0,
			"0.022": 0.0,
			"0.023": 0.0,
			"0.024": 0.0,
			"0.025": 0.0
		}
	}
}
