{
	 "smiles": "NNC(=O)CSC1=C(F)C=CC=C1", 
	 "Tm": 405.15, 
	 "num_atms": 22, 
	 "gaussian": { 
		 "optdone": 1, 
		 "sigma_profile": "yes", 
		 "theory": "DFT", 
		 "functional": "B3LYP", 
		 "basiset": "6-31G**", 
		 "properties": { 
			 "R2extent": 3055.7344, 
			 "electric_dipole_moment_norm": 4.37660381232, 
			 "electric_quadrupole_moment_norm": 14.2513321949, 
			 "total_energy": -992.997996148, 
			 "HOMO_LUMO_gap": 0.1954, 
			 "cosmo_polarized_energy": -13.62, 
			 "cosmo_cavitation_energy": 27.95, 
			 "cosmo_dispersion_energy": -19.92, 
			 "cosmo_repulsion_energy": 1.53, 
			 "cosmo_total_nonelectrostatic_energy": 9.55, 
			 "SMD_solvation_energy": 5.61 
		},
		"coords": [
			{
				"x": -0.1060595332,
				"y": -1.6552544671,
				"z": -2.7203492413,
				"element": "N" 
			},
			{
				"x": -0.4860440372,
				"y": -1.9231511097,
				"z": -1.3903849798,
				"element": "N" 
			},
			{
				"x": -1.8045833201,
				"y": -2.090681199,
				"z": -1.0530885191,
				"element": "C" 
			},
			{
				"x": -2.6822149769,
				"y": -2.230746296,
				"z": -1.8907525657,
				"element": "O" 
			},
			{
				"x": -2.0730460627,
				"y": -2.0910238994,
				"z": 0.4472150103,
				"element": "C" 
			},
			{
				"x": -2.6946649781,
				"y": -0.4693925717,
				"z": 1.0809329133,
				"element": "S" 
			},
			{
				"x": -1.2346725753,
				"y": 0.5601393769,
				"z": 0.9742889211,
				"element": "C" 
			},
			{
				"x": -0.8515146605,
				"y": 1.1751207452,
				"z": -0.2257401188,
				"element": "C" 
			},
			{
				"x": -1.5515800052,
				"y": 0.9332904625,
				"z": -1.3508728697,
				"element": "F" 
			},
			{
				"x": 0.2428567277,
				"y": 2.029300844,
				"z": -0.3057039076,
				"element": "C" 
			},
			{
				"x": 0.9771990778,
				"y": 2.2980070103,
				"z": 0.8494056529,
				"element": "C" 
			},
			{
				"x": 0.6161313984,
				"y": 1.7112009568,
				"z": 2.0643545397,
				"element": "C" 
			},
			{
				"x": -0.4803511348,
				"y": 0.8506826941,
				"z": 2.1216193358,
				"element": "C" 
			},
			{
				"x": -0.2745292486,
				"y": -2.5034405469,
				"z": -3.2589735994,
				"element": "H" 
			},
			{
				"x": -0.7634355981,
				"y": -0.9635686083,
				"z": -3.084293382,
				"element": "H" 
			},
			{
				"x": 0.1862987104,
				"y": -1.6295664375,
				"z": -0.6963564518,
				"element": "H" 
			},
			{
				"x": -1.2023129503,
				"y": -2.3981638996,
				"z": 1.0336486087,
				"element": "H" 
			},
			{
				"x": -2.8938559685,
				"y": -2.7848397483,
				"z": 0.6400142146,
				"element": "H" 
			},
			{
				"x": 0.4963301034,
				"y": 2.4713631677,
				"z": -1.2631910313,
				"element": "H" 
			},
			{
				"x": 1.830688478,
				"y": 2.9670495273,
				"z": 0.7968017379,
				"element": "H" 
			},
			{
				"x": 1.1847992158,
				"y": 1.922927888,
				"z": 2.9642970896,
				"element": "H" 
			},
			{
				"x": -0.7731386623,
				"y": 0.3931461106,
				"z": 3.0613286427,
				"element": "H" 
			}
		],
		 "valence_orbital": [ 
			{
				"type": "occ",
				"energy": -0.27496,
				"method": "rhf"
			},
			{
				"type": "occ",
				"energy": -0.26481,
				"method": "rhf"
			},
			{
				"type": "occ",
				"energy": -0.26133,
				"method": "rhf"
			},
			{
				"type": "occ",
				"energy": -0.25554,
				"method": "rhf"
			},
			{
				"type": "occ",
				"energy": -0.23383,
				"method": "rhf"
			},
			{
				"type": "unocc",
				"energy": -0.03843,
				"method": "rhf"
			},
			{
				"type": "unocc",
				"energy": -0.01696,
				"method": "rhf"
			},
			{
				"type": "unocc",
				"energy": 0.00754,
				"method": "rhf"
			},
			{
				"type": "unocc",
				"energy": 0.04,
				"method": "rhf"
			},
			{
				"type": "unocc",
				"energy": 0.07435,
				"method": "rhf"
			}
		],
		"cosmo_sigma_profile": { 
			"-0.025": 0.0,
			"-0.024": 0.0,
			"-0.023": 0.0,
			"-0.022": 0.0,
			"-0.021": 0.0,
			"-0.02": 0.0,
			"-0.019": 0.0,
			"-0.018": 0.0,
			"-0.017": 0.00607337686786,
			"-0.016": 0.0782666255145,
			"-0.015": 0.251801304986,
			"-0.014": 0.589820582305,
			"-0.013": 0.908411882092,
			"-0.012": 1.65832807306,
			"-0.011": 2.87725060939,
			"-0.01": 4.01237572792,
			"-0.009": 3.27935820157,
			"-0.008": 5.52809723242,
			"-0.007": 11.3469205423,
			"-0.006": 13.5888268808,
			"-0.005": 15.2859795022,
			"-0.004": 13.2879133556,
			"-0.003": 12.2874646941,
			"-0.002": 10.6521262544,
			"-0.001": 13.7146916609,
			"0.0": 16.7398741923,
			"0.001": 14.7238010891,
			"0.002": 14.7172414349,
			"0.003": 16.2636863524,
			"0.004": 11.3225314815,
			"0.005": 5.15431881315,
			"0.006": 5.46845961173,
			"0.007": 4.67095004851,
			"0.008": 3.67563720975,
			"0.009": 4.06946102271,
			"0.01": 2.23037759682,
			"0.011": 2.52212061269,
			"0.012": 2.92293533755,
			"0.013": 6.13314009816,
			"0.014": 2.62973645991,
			"0.015": 0.578148349576,
			"0.016": 0.628159314205,
			"0.017": 0.0534792105487,
			"0.018": 0.000886048768148,
			"0.019": 0.000221324231852,
			"0.02": 0.0,
			"0.021": 0.0,
			"0.022": 0.0,
			"0.023": 0.0,
			"0.024": 0.0,
			"0.025": 0.0
		}
	}
}
