{
	 "smiles": "CC1=NSC(=N1)C1=CC=CC=C1", 
	 "Tm": 324.15, 
	 "num_atms": 20, 
	 "gaussian": { 
		 "optdone": 1, 
		 "sigma_profile": "yes", 
		 "theory": "DFT", 
		 "functional": "B3LYP", 
		 "basiset": "6-31G**", 
		 "properties": { 
			 "R2extent": 3637.0898, 
			 "electric_dipole_moment_norm": 2.34577525565, 
			 "electric_quadrupole_moment_norm": 8.42147954875, 
			 "total_energy": -855.473691327, 
			 "HOMO_LUMO_gap": 0.17291, 
			 "cosmo_polarized_energy": -6.99, 
			 "cosmo_cavitation_energy": 25.83, 
			 "cosmo_dispersion_energy": -19.86, 
			 "cosmo_repulsion_energy": 1.52, 
			 "cosmo_total_nonelectrostatic_energy": 7.49, 
			 "SMD_solvation_energy": 1.62 
		},
		"coords": [
			{
				"x": -3.4507858942,
				"y": 0.1545458697,
				"z": -3.8249089429,
				"element": "C" 
			},
			{
				"x": -2.1643726302,
				"y": -0.2933762906,
				"z": -3.1901846392,
				"element": "C" 
			},
			{
				"x": -1.0661466769,
				"y": -0.4123389641,
				"z": -3.910279071,
				"element": "N" 
			},
			{
				"x": 0.1620294108,
				"y": -0.9258120845,
				"z": -2.8920390527,
				"element": "S" 
			},
			{
				"x": -0.9090071491,
				"y": -0.9532067644,
				"z": -1.505797981,
				"element": "C" 
			},
			{
				"x": -2.1223500995,
				"y": -0.5838535876,
				"z": -1.8490314507,
				"element": "N" 
			},
			{
				"x": -0.5140824789,
				"y": -1.334152584,
				"z": -0.145747726,
				"element": "C" 
			},
			{
				"x": 0.8019316352,
				"y": -1.7202058829,
				"z": 0.1576236128,
				"element": "C" 
			},
			{
				"x": 1.150353666,
				"y": -2.0770698083,
				"z": 1.4577810503,
				"element": "C" 
			},
			{
				"x": 0.1899460007,
				"y": -2.0532662399,
				"z": 2.4718506005,
				"element": "C" 
			},
			{
				"x": -1.1216172635,
				"y": -1.67040939,
				"z": 2.1783878859,
				"element": "C" 
			},
			{
				"x": -1.4748596619,
				"y": -1.312804816,
				"z": 0.8804001825,
				"element": "C" 
			},
			{
				"x": -4.2405489338,
				"y": 0.1912730848,
				"z": -3.0736599461,
				"element": "H" 
			},
			{
				"x": -3.334218495,
				"y": 1.1460462267,
				"z": -4.2721171565,
				"element": "H" 
			},
			{
				"x": -3.7458772238,
				"y": -0.5331860445,
				"z": -4.6227842012,
				"element": "H" 
			},
			{
				"x": 1.5578820268,
				"y": -1.7425789467,
				"z": -0.6230517521,
				"element": "H" 
			},
			{
				"x": 2.1710757375,
				"y": -2.373675892,
				"z": 1.6796414522,
				"element": "H" 
			},
			{
				"x": 0.4626412412,
				"y": -2.331745697,
				"z": 3.4855422558,
				"element": "H" 
			},
			{
				"x": -1.8710382822,
				"y": -1.6507269646,
				"z": 2.9642353114,
				"element": "H" 
			},
			{
				"x": -2.488154929,
				"y": -1.0134552242,
				"z": 0.636839568,
				"element": "H" 
			}
		],
		 "valence_orbital": [ 
			{
				"type": "occ",
				"energy": -0.30911,
				"method": "rhf"
			},
			{
				"type": "occ",
				"energy": -0.27984,
				"method": "rhf"
			},
			{
				"type": "occ",
				"energy": -0.27569,
				"method": "rhf"
			},
			{
				"type": "occ",
				"energy": -0.26364,
				"method": "rhf"
			},
			{
				"type": "occ",
				"energy": -0.23881,
				"method": "rhf"
			},
			{
				"type": "unocc",
				"energy": -0.0659,
				"method": "rhf"
			},
			{
				"type": "unocc",
				"energy": -0.01369,
				"method": "rhf"
			},
			{
				"type": "unocc",
				"energy": 0.00548,
				"method": "rhf"
			},
			{
				"type": "unocc",
				"energy": 0.01153,
				"method": "rhf"
			},
			{
				"type": "unocc",
				"energy": 0.05682,
				"method": "rhf"
			}
		],
		"cosmo_sigma_profile": { 
			"-0.025": 0.0,
			"-0.024": 0.0,
			"-0.023": 0.0,
			"-0.022": 0.0,
			"-0.021": 0.0,
			"-0.02": 0.0,
			"-0.019": 0.0,
			"-0.018": 0.0,
			"-0.017": 0.0,
			"-0.016": 0.0,
			"-0.015": 0.0,
			"-0.014": 0.0,
			"-0.013": 0.0,
			"-0.012": 0.0,
			"-0.011": 0.0,
			"-0.01": 0.0,
			"-0.009": 0.0,
			"-0.008": 0.766940549447,
			"-0.007": 4.03780415246,
			"-0.006": 10.4971383863,
			"-0.005": 16.7809171022,
			"-0.004": 15.2768091954,
			"-0.003": 13.841652267,
			"-0.002": 18.4724941517,
			"-0.001": 24.4024860583,
			"0.0": 17.3673191398,
			"0.001": 17.6764857687,
			"0.002": 18.2460215547,
			"0.003": 15.9586511724,
			"0.004": 14.9859546222,
			"0.005": 4.23114692264,
			"0.006": 2.57446855072,
			"0.007": 3.18522516886,
			"0.008": 2.19274111136,
			"0.009": 1.81628859826,
			"0.01": 2.54263597141,
			"0.011": 1.50960781495,
			"0.012": 1.41436071927,
			"0.013": 1.05523046878,
			"0.014": 0.881274938215,
			"0.015": 0.265244242986,
			"0.016": 0.0,
			"0.017": 0.0,
			"0.018": 0.0,
			"0.019": 0.0,
			"0.02": 0.0,
			"0.021": 0.0,
			"0.022": 0.0,
			"0.023": 0.0,
			"0.024": 0.0,
			"0.025": 0.0
		}
	}
}
