{
	 "smiles": "[O-][N+](=O)C1=CC=C(CC2=NN=NN2)C=C1", 
	 "Tm": 452.15, 
	 "num_atms": 22, 
	 "gaussian": { 
		 "optdone": 1, 
		 "sigma_profile": "yes", 
		 "theory": "DFT", 
		 "functional": "B3LYP", 
		 "basiset": "6-31G**", 
		 "properties": { 
			 "R2extent": 4226.5732, 
			 "electric_dipole_moment_norm": 4.99755795364, 
			 "electric_quadrupole_moment_norm": 36.7103346134, 
			 "total_energy": -733.121245614, 
			 "HOMO_LUMO_gap": 0.18951, 
			 "cosmo_polarized_energy": -24.11, 
			 "cosmo_cavitation_energy": 28.48, 
			 "cosmo_dispersion_energy": -20.37, 
			 "cosmo_repulsion_energy": 1.59, 
			 "cosmo_total_nonelectrostatic_energy": 9.7, 
			 "SMD_solvation_energy": 5.11 
		},
		"coords": [
			{
				"x": -4.1427481795,
				"y": 0.5412809812,
				"z": -1.8289363613,
				"element": "O" 
			},
			{
				"x": -3.2843938759,
				"y": 1.3161027173,
				"z": -1.4086780083,
				"element": "N" 
			},
			{
				"x": -3.3546535468,
				"y": 2.5425140551,
				"z": -1.4661863118,
				"element": "O" 
			},
			{
				"x": -2.0824884214,
				"y": 0.7308545568,
				"z": -0.7907870227,
				"element": "C" 
			},
			{
				"x": -1.9749936921,
				"y": -0.6541453006,
				"z": -0.7069994802,
				"element": "C" 
			},
			{
				"x": -0.8332334795,
				"y": -1.1992607509,
				"z": -0.1229579575,
				"element": "C" 
			},
			{
				"x": 0.183824993,
				"y": -0.3737782916,
				"z": 0.3720474405,
				"element": "C" 
			},
			{
				"x": 1.4189119358,
				"y": -0.9749879877,
				"z": 1.0283637278,
				"element": "C" 
			},
			{
				"x": 2.7039006552,
				"y": -0.4842069794,
				"z": 0.4372193431,
				"element": "C" 
			},
			{
				"x": 3.5313547186,
				"y": 0.3870487849,
				"z": 0.9838318143,
				"element": "N" 
			},
			{
				"x": 4.5475764185,
				"y": 0.5626975502,
				"z": 0.0918700654,
				"element": "N" 
			},
			{
				"x": 4.3726849337,
				"y": -0.1583431931,
				"z": -0.9643666555,
				"element": "N" 
			},
			{
				"x": 3.2119490645,
				"y": -0.8276047033,
				"z": -0.7673073775,
				"element": "N" 
			},
			{
				"x": 0.0451833821,
				"y": 1.0194067879,
				"z": 0.2728398444,
				"element": "C" 
			},
			{
				"x": -1.0874611849,
				"y": 1.5800668286,
				"z": -0.3079463869,
				"element": "C" 
			},
			{
				"x": -2.7723313309,
				"y": -1.2757879665,
				"z": -1.0945380728,
				"element": "H" 
			},
			{
				"x": -0.7379843821,
				"y": -2.2790198302,
				"z": -0.0473437557,
				"element": "H" 
			},
			{
				"x": 1.4460820724,
				"y": -0.7073302229,
				"z": 2.0895292917,
				"element": "H" 
			},
			{
				"x": 1.3743010879,
				"y": -2.0679414351,
				"z": 0.9742271221,
				"element": "H" 
			},
			{
				"x": 2.8595397169,
				"y": -1.453466605,
				"z": -1.4774677568,
				"element": "H" 
			},
			{
				"x": 0.8321817638,
				"y": 1.6649268626,
				"z": 0.651963809,
				"element": "H" 
			},
			{
				"x": -1.2140026496,
				"y": 2.6520741416,
				"z": -0.3928773114,
				"element": "H" 
			}
		],
		 "valence_orbital": [ 
			{
				"type": "occ",
				"energy": -0.30729,
				"method": "rhf"
			},
			{
				"type": "occ",
				"energy": -0.29943,
				"method": "rhf"
			},
			{
				"type": "occ",
				"energy": -0.29622,
				"method": "rhf"
			},
			{
				"type": "occ",
				"energy": -0.29236,
				"method": "rhf"
			},
			{
				"type": "occ",
				"energy": -0.2886,
				"method": "rhf"
			},
			{
				"type": "unocc",
				"energy": -0.09909,
				"method": "rhf"
			},
			{
				"type": "unocc",
				"energy": -0.04358,
				"method": "rhf"
			},
			{
				"type": "unocc",
				"energy": -0.02934,
				"method": "rhf"
			},
			{
				"type": "unocc",
				"energy": -0.01497,
				"method": "rhf"
			},
			{
				"type": "unocc",
				"energy": 0.01176,
				"method": "rhf"
			}
		],
		"cosmo_sigma_profile": { 
			"-0.025": 0.0,
			"-0.024": 0.0,
			"-0.023": 0.0,
			"-0.022": 0.0,
			"-0.021": 0.0,
			"-0.02": 0.0384592695426,
			"-0.019": 1.52071978777,
			"-0.018": 1.5550506951,
			"-0.017": 1.02350692521,
			"-0.016": 1.07122366791,
			"-0.015": 1.70483400373,
			"-0.014": 1.39700397897,
			"-0.013": 0.854724705956,
			"-0.012": 0.681537793833,
			"-0.011": 1.56453471978,
			"-0.01": 1.69262345647,
			"-0.009": 2.98800135249,
			"-0.008": 7.47497109904,
			"-0.007": 10.2551369434,
			"-0.006": 12.7242484175,
			"-0.005": 14.2604329782,
			"-0.004": 13.1702588815,
			"-0.003": 13.9610267541,
			"-0.002": 13.499836275,
			"-0.001": 13.8281532957,
			"0.0": 13.080826548,
			"0.001": 15.8669747969,
			"0.002": 10.4555626901,
			"0.003": 4.09049633846,
			"0.004": 4.14345486396,
			"0.005": 5.79022304276,
			"0.006": 7.40547208738,
			"0.007": 11.1366721323,
			"0.008": 12.68414704,
			"0.009": 9.08238846964,
			"0.01": 7.4044560803,
			"0.011": 4.04027755314,
			"0.012": 3.62910850179,
			"0.013": 2.51681456296,
			"0.014": 1.66400574775,
			"0.015": 0.72344943144,
			"0.016": 0.0,
			"0.017": 0.0,
			"0.018": 0.0,
			"0.019": 0.0,
			"0.02": 0.0,
			"0.021": 0.0,
			"0.022": 0.0,
			"0.023": 0.0,
			"0.024": 0.0,
			"0.025": 0.0
		}
	}
}
