{
	 "smiles": "CC(C)C1=CC=C(NC(=O)N(C)C)C=C1", 
	 "Tm": 431.15, 
	 "num_atms": 33, 
	 "gaussian": { 
		 "optdone": 1, 
		 "sigma_profile": "yes", 
		 "theory": "DFT", 
		 "functional": "B3LYP", 
		 "basiset": "6-31G**", 
		 "properties": { 
			 "R2extent": 4851.7625, 
			 "electric_dipole_moment_norm": 3.07430575415, 
			 "electric_quadrupole_moment_norm": 12.8534731972, 
			 "total_energy": -652.882442951, 
			 "HOMO_LUMO_gap": 0.2059, 
			 "cosmo_polarized_energy": -10.78, 
			 "cosmo_cavitation_energy": 34.87, 
			 "cosmo_dispersion_energy": -24.38, 
			 "cosmo_repulsion_energy": 1.93, 
			 "cosmo_total_nonelectrostatic_energy": 12.42, 
			 "SMD_solvation_energy": 7.31 
		},
		"coords": [
			{
				"x": -0.1947691887,
				"y": -4.9866884449,
				"z": -0.6629484708,
				"element": "C" 
			},
			{
				"x": -1.535992889,
				"y": -4.305020338,
				"z": -0.3319528625,
				"element": "C" 
			},
			{
				"x": -2.1618484599,
				"y": -4.9077043448,
				"z": 0.940255607,
				"element": "C" 
			},
			{
				"x": -1.3966106268,
				"y": -2.791885057,
				"z": -0.2349041584,
				"element": "C" 
			},
			{
				"x": -2.0853025923,
				"y": -1.9457907841,
				"z": -1.1128309122,
				"element": "C" 
			},
			{
				"x": -1.959514883,
				"y": -0.5602921244,
				"z": -1.0415950525,
				"element": "C" 
			},
			{
				"x": -1.1443905155,
				"y": 0.0325219665,
				"z": -0.0668253629,
				"element": "C" 
			},
			{
				"x": -1.084600775,
				"y": 1.447762316,
				"z": -0.022234968,
				"element": "N" 
			},
			{
				"x": -0.285374378,
				"y": 2.2750151507,
				"z": 0.7825186831,
				"element": "C" 
			},
			{
				"x": -0.776724168,
				"y": 3.2569317797,
				"z": 1.3301165731,
				"element": "O" 
			},
			{
				"x": 1.0496676759,
				"y": 1.941672755,
				"z": 0.8932800638,
				"element": "N" 
			},
			{
				"x": 1.8543306856,
				"y": 2.7524797443,
				"z": 1.7977606944,
				"element": "C" 
			},
			{
				"x": 1.7962318488,
				"y": 1.2601494798,
				"z": -0.1580978515,
				"element": "C" 
			},
			{
				"x": -0.4583148367,
				"y": -0.8011210167,
				"z": 0.8289900968,
				"element": "C" 
			},
			{
				"x": -0.5822626412,
				"y": -2.1856915041,
				"z": 0.7319999613,
				"element": "C" 
			},
			{
				"x": -0.3281632472,
				"y": -6.0672457615,
				"z": -0.7855111026,
				"element": "H" 
			},
			{
				"x": 0.2345506066,
				"y": -4.5886807368,
				"z": -1.5876971294,
				"element": "H" 
			},
			{
				"x": 0.5370877212,
				"y": -4.8319952978,
				"z": 0.1377405822,
				"element": "H" 
			},
			{
				"x": -2.2225764724,
				"y": -4.5100640979,
				"z": -1.1642007826,
				"element": "H" 
			},
			{
				"x": -2.3069153206,
				"y": -5.9878089445,
				"z": 0.8272652436,
				"element": "H" 
			},
			{
				"x": -3.1334986457,
				"y": -4.4532745249,
				"z": 1.1570970654,
				"element": "H" 
			},
			{
				"x": -1.518284738,
				"y": -4.7493243984,
				"z": 1.8127861687,
				"element": "H" 
			},
			{
				"x": -2.7285693404,
				"y": -2.3779407789,
				"z": -1.8758478616,
				"element": "H" 
			},
			{
				"x": -2.4927679972,
				"y": 0.072202731,
				"z": -1.7467695446,
				"element": "H" 
			},
			{
				"x": -1.975104189,
				"y": 1.9045089918,
				"z": -0.1725063036,
				"element": "H" 
			},
			{
				"x": 2.3059906743,
				"y": 3.6114136609,
				"z": 1.2812112656,
				"element": "H" 
			},
			{
				"x": 2.6582859214,
				"y": 2.1372076486,
				"z": 2.2154079764,
				"element": "H" 
			},
			{
				"x": 1.2232634065,
				"y": 3.1299447983,
				"z": 2.6006257126,
				"element": "H" 
			},
			{
				"x": 2.5118134271,
				"y": 1.9553008864,
				"z": -0.6184904635,
				"element": "H" 
			},
			{
				"x": 1.1256233104,
				"y": 0.896909948,
				"z": -0.933674071,
				"element": "H" 
			},
			{
				"x": 2.3569316278,
				"y": 0.4081286284,
				"z": 0.243952575,
				"element": "H" 
			},
			{
				"x": 0.1619920518,
				"y": -0.3644599835,
				"z": 1.6033562263,
				"element": "H" 
			},
			{
				"x": -0.0377830529,
				"y": -2.8030623473,
				"z": 1.4420224022,
				"element": "H" 
			}
		],
		 "valence_orbital": [ 
			{
				"type": "occ",
				"energy": -0.29302,
				"method": "rhf"
			},
			{
				"type": "occ",
				"energy": -0.25962,
				"method": "rhf"
			},
			{
				"type": "occ",
				"energy": -0.25107,
				"method": "rhf"
			},
			{
				"type": "occ",
				"energy": -0.2349,
				"method": "rhf"
			},
			{
				"type": "occ",
				"energy": -0.21012,
				"method": "rhf"
			},
			{
				"type": "unocc",
				"energy": -0.00422,
				"method": "rhf"
			},
			{
				"type": "unocc",
				"energy": -0.00032,
				"method": "rhf"
			},
			{
				"type": "unocc",
				"energy": 0.05233,
				"method": "rhf"
			},
			{
				"type": "unocc",
				"energy": 0.08533,
				"method": "rhf"
			},
			{
				"type": "unocc",
				"energy": 0.09204,
				"method": "rhf"
			}
		],
		"cosmo_sigma_profile": { 
			"-0.025": 0.0,
			"-0.024": 0.0,
			"-0.023": 0.0,
			"-0.022": 0.0,
			"-0.021": 0.0,
			"-0.02": 0.0,
			"-0.019": 0.0,
			"-0.018": 0.0,
			"-0.017": 0.0,
			"-0.016": 0.0,
			"-0.015": 0.0,
			"-0.014": 0.128893863291,
			"-0.013": 0.818477215349,
			"-0.012": 1.10761736728,
			"-0.011": 0.592355507871,
			"-0.01": 0.770759401058,
			"-0.009": 1.09261492471,
			"-0.008": 1.37629648046,
			"-0.007": 1.2805095044,
			"-0.006": 2.52599758874,
			"-0.005": 10.4953502554,
			"-0.004": 25.3866479537,
			"-0.003": 32.071350999,
			"-0.002": 36.6205229673,
			"-0.001": 33.7544788776,
			"0.0": 26.6190026579,
			"0.001": 26.6020325879,
			"0.002": 16.4926113013,
			"0.003": 10.6989691274,
			"0.004": 8.87869131729,
			"0.005": 8.20687960787,
			"0.006": 8.18336382955,
			"0.007": 2.38367414791,
			"0.008": 1.56430343463,
			"0.009": 1.5125065066,
			"0.01": 1.13355398544,
			"0.011": 1.06692802384,
			"0.012": 1.96596696481,
			"0.013": 2.44720153854,
			"0.014": 5.82283934384,
			"0.015": 1.39101851407,
			"0.016": 0.0,
			"0.017": 0.0,
			"0.018": 0.0,
			"0.019": 0.0,
			"0.02": 0.0,
			"0.021": 0.0,
			"0.022": 0.0,
			"0.023": 0.0,
			"0.024": 0.0,
			"0.025": 0.0
		}
	}
}
