{
	 "smiles": "CC(=O)NC1CCCC[C@@H](CCCC1)NC(C)=O", 
	 "Tm": 569.15, 
	 "num_atms": 44, 
	 "gaussian": { 
		 "optdone": 1, 
		 "sigma_profile": "yes", 
		 "theory": "DFT", 
		 "functional": "B3LYP", 
		 "basiset": "6-31G**", 
		 "properties": { 
			 "R2extent": 6466.7305, 
			 "electric_dipole_moment_norm": 3.78404730018, 
			 "electric_quadrupole_moment_norm": 40.2290242906, 
			 "total_energy": -809.142091012, 
			 "HOMO_LUMO_gap": 0.26436, 
			 "cosmo_polarized_energy": -21.51, 
			 "cosmo_cavitation_energy": 40.44, 
			 "cosmo_dispersion_energy": -28.24, 
			 "cosmo_repulsion_energy": 2.2, 
			 "cosmo_total_nonelectrostatic_energy": 14.4, 
			 "SMD_solvation_energy": 6.94 
		},
		"coords": [
			{
				"x": -2.1569231845,
				"y": -2.3692818051,
				"z": 3.5198690528,
				"element": "C" 
			},
			{
				"x": -0.7004664895,
				"y": -2.3093293203,
				"z": 3.0807165352,
				"element": "C" 
			},
			{
				"x": 0.1049899441,
				"y": -3.1853002121,
				"z": 3.3771889891,
				"element": "O" 
			},
			{
				"x": -0.3482473804,
				"y": -1.2199974908,
				"z": 2.3325932687,
				"element": "N" 
			},
			{
				"x": 1.0575628099,
				"y": -0.9523870508,
				"z": 1.9975172182,
				"element": "C" 
			},
			{
				"x": 1.6265904107,
				"y": -1.8460187352,
				"z": 0.841650712,
				"element": "C" 
			},
			{
				"x": 0.6365187343,
				"y": -2.6398978651,
				"z": -0.0352044435,
				"element": "C" 
			},
			{
				"x": -0.4128549261,
				"y": -1.850795573,
				"z": -0.8345167072,
				"element": "C" 
			},
			{
				"x": 0.1151325489,
				"y": -0.9700720767,
				"z": -1.9897684596,
				"element": "C" 
			},
			{
				"x": -0.8348705229,
				"y": 0.2164731036,
				"z": -2.3087136407,
				"element": "C" 
			},
			{
				"x": -0.588565967,
				"y": 1.5373966307,
				"z": -1.5232536227,
				"element": "C" 
			},
			{
				"x": -0.427314629,
				"y": 1.4289874391,
				"z": 0.0104466104,
				"element": "C" 
			},
			{
				"x": 1.0386148411,
				"y": 1.2191927827,
				"z": 0.4500896573,
				"element": "C" 
			},
			{
				"x": 1.3045213578,
				"y": 0.5688586176,
				"z": 1.8192725506,
				"element": "C" 
			},
			{
				"x": -0.9524922215,
				"y": 0.4983817777,
				"z": -3.7492250723,
				"element": "N" 
			},
			{
				"x": -0.0137755643,
				"y": 0.8445251613,
				"z": -4.6932334502,
				"element": "C" 
			},
			{
				"x": 1.4609039019,
				"y": 0.7265541379,
				"z": -4.338357827,
				"element": "C" 
			},
			{
				"x": -0.3684041252,
				"y": 1.1959189186,
				"z": -5.812954863,
				"element": "O" 
			},
			{
				"x": -2.5722401473,
				"y": -3.3365494065,
				"z": 3.2264516323,
				"element": "H" 
			},
			{
				"x": -2.1982454736,
				"y": -2.3161612218,
				"z": 4.6118142597,
				"element": "H" 
			},
			{
				"x": -2.7794049859,
				"y": -1.5726268628,
				"z": 3.1024265136,
				"element": "H" 
			},
			{
				"x": -1.0198157632,
				"y": -0.4762882385,
				"z": 2.2210101654,
				"element": "H" 
			},
			{
				"x": 1.6133814599,
				"y": -1.2416340089,
				"z": 2.8959538229,
				"element": "H" 
			},
			{
				"x": 2.2770994692,
				"y": -1.2314994152,
				"z": 0.2081650815,
				"element": "H" 
			},
			{
				"x": 2.28422687,
				"y": -2.5883559479,
				"z": 1.3039608027,
				"element": "H" 
			},
			{
				"x": 0.1120217334,
				"y": -3.3513193204,
				"z": 0.6110317842,
				"element": "H" 
			},
			{
				"x": 1.2330412002,
				"y": -3.2501417322,
				"z": -0.7273424031,
				"element": "H" 
			},
			{
				"x": -1.1325274126,
				"y": -2.5647016962,
				"z": -1.2564518829,
				"element": "H" 
			},
			{
				"x": -0.9918244658,
				"y": -1.2463964437,
				"z": -0.1342537752,
				"element": "H" 
			},
			{
				"x": 0.2025263618,
				"y": -1.5863604473,
				"z": -2.8904368147,
				"element": "H" 
			},
			{
				"x": 1.1245781491,
				"y": -0.6103296814,
				"z": -1.7740676989,
				"element": "H" 
			},
			{
				"x": -1.8396097869,
				"y": -0.1285033285,
				"z": -2.0333486922,
				"element": "H" 
			},
			{
				"x": 0.2960180467,
				"y": 2.0392798924,
				"z": -1.9345690122,
				"element": "H" 
			},
			{
				"x": -1.4334407872,
				"y": 2.1952028992,
				"z": -1.7582422901,
				"element": "H" 
			},
			{
				"x": -1.0779555455,
				"y": 0.6331968673,
				"z": 0.3864124337,
				"element": "H" 
			},
			{
				"x": -0.8010451644,
				"y": 2.3512004778,
				"z": 0.471765659,
				"element": "H" 
			},
			{
				"x": 1.5273417779,
				"y": 2.2019421057,
				"z": 0.4485593357,
				"element": "H" 
			},
			{
				"x": 1.5700928179,
				"y": 0.6432918857,
				"z": -0.3111258459,
				"element": "H" 
			},
			{
				"x": 0.7567189313,
				"y": 1.1025951956,
				"z": 2.6085704122,
				"element": "H" 
			},
			{
				"x": 2.3659777904,
				"y": 0.7296531184,
				"z": 2.0434842614,
				"element": "H" 
			},
			{
				"x": -1.8889739994,
				"y": 0.6457106142,
				"z": -4.1035719945,
				"element": "H" 
			},
			{
				"x": 1.7729527192,
				"y": -0.3222819207,
				"z": -4.3743795212,
				"element": "H" 
			},
			{
				"x": 1.7012694935,
				"y": 1.1106062357,
				"z": -3.3444297583,
				"element": "H" 
			},
			{
				"x": 2.023417173,
				"y": 1.2801619393,
				"z": -5.090202983,
				"element": "H" 
			}
		],
		 "valence_orbital": [ 
			{
				"type": "occ",
				"energy": -0.30936,
				"method": "rhf"
			},
			{
				"type": "occ",
				"energy": -0.25063,
				"method": "rhf"
			},
			{
				"type": "occ",
				"energy": -0.24669,
				"method": "rhf"
			},
			{
				"type": "occ",
				"energy": -0.24269,
				"method": "rhf"
			},
			{
				"type": "occ",
				"energy": -0.23689,
				"method": "rhf"
			},
			{
				"type": "unocc",
				"energy": 0.02747,
				"method": "rhf"
			},
			{
				"type": "unocc",
				"energy": 0.03261,
				"method": "rhf"
			},
			{
				"type": "unocc",
				"energy": 0.053,
				"method": "rhf"
			},
			{
				"type": "unocc",
				"energy": 0.0676,
				"method": "rhf"
			},
			{
				"type": "unocc",
				"energy": 0.07168,
				"method": "rhf"
			}
		],
		"cosmo_sigma_profile": { 
			"-0.025": 0.0,
			"-0.024": 0.0,
			"-0.023": 0.0,
			"-0.022": 0.0,
			"-0.021": 0.0,
			"-0.02": 0.0,
			"-0.019": 0.0,
			"-0.018": 0.0,
			"-0.017": 0.0,
			"-0.016": 0.0,
			"-0.015": 0.0,
			"-0.014": 0.0,
			"-0.013": 0.368918645555,
			"-0.012": 2.21254481339,
			"-0.011": 2.18236491113,
			"-0.01": 2.64881775817,
			"-0.009": 3.71647637362,
			"-0.008": 2.21236738508,
			"-0.007": 3.17229607459,
			"-0.006": 5.12789247523,
			"-0.005": 15.4976839655,
			"-0.004": 20.989307272,
			"-0.003": 31.3977631459,
			"-0.002": 47.11072617,
			"-0.001": 52.7847326224,
			"0.0": 39.3596565585,
			"0.001": 20.8645857721,
			"0.002": 7.82208029332,
			"0.003": 4.1950642261,
			"0.004": 3.67540292256,
			"0.005": 3.61984210637,
			"0.006": 3.42186350614,
			"0.007": 2.58320487544,
			"0.008": 2.86127171768,
			"0.009": 3.12062293622,
			"0.01": 2.81270539579,
			"0.011": 2.81296402721,
			"0.012": 2.84524945857,
			"0.013": 4.01795601082,
			"0.014": 9.0140173828,
			"0.015": 8.29297681013,
			"0.016": 1.23503126863,
			"0.017": 0.0,
			"0.018": 0.0,
			"0.019": 0.0,
			"0.02": 0.0,
			"0.021": 0.0,
			"0.022": 0.0,
			"0.023": 0.0,
			"0.024": 0.0,
			"0.025": 0.0
		}
	}
}
