{
	 "smiles": "CC(OC1=CC(C=O)=CC=C1)C(O)=O", 
	 "Tm": 339.15, 
	 "num_atms": 24, 
	 "gaussian": { 
		 "optdone": 1, 
		 "sigma_profile": "yes", 
		 "theory": "DFT", 
		 "functional": "B3LYP", 
		 "basiset": "6-31G**", 
		 "properties": { 
			 "R2extent": 3627.8036, 
			 "electric_dipole_moment_norm": 3.55729589717, 
			 "electric_quadrupole_moment_norm": 21.8628598303, 
			 "total_energy": -687.982883159, 
			 "HOMO_LUMO_gap": 0.17391, 
			 "cosmo_polarized_energy": -14.63, 
			 "cosmo_cavitation_energy": 29.28, 
			 "cosmo_dispersion_energy": -20.59, 
			 "cosmo_repulsion_energy": 1.64, 
			 "cosmo_total_nonelectrostatic_energy": 10.34, 
			 "SMD_solvation_energy": 7.49 
		},
		"coords": [
			{
				"x": 0.7573337692,
				"y": 2.9190626403,
				"z": -2.3131638888,
				"element": "C" 
			},
			{
				"x": 0.4328022975,
				"y": 1.5517106434,
				"z": -1.7116701521,
				"element": "C" 
			},
			{
				"x": 0.6816659165,
				"y": 1.6493036288,
				"z": -0.3159996233,
				"element": "O" 
			},
			{
				"x": 0.6921489056,
				"y": 0.5102288917,
				"z": 0.4444970501,
				"element": "C" 
			},
			{
				"x": 0.9892230053,
				"y": 0.6971432479,
				"z": 1.7998749523,
				"element": "C" 
			},
			{
				"x": 1.0361736206,
				"y": -0.3966268577,
				"z": 2.6646944807,
				"element": "C" 
			},
			{
				"x": 1.3527060623,
				"y": -0.1741870293,
				"z": 4.0955807685,
				"element": "C" 
			},
			{
				"x": 1.4198666038,
				"y": -1.0538420316,
				"z": 4.9322831094,
				"element": "O" 
			},
			{
				"x": 0.7869140825,
				"y": -1.6938255558,
				"z": 2.1860710557,
				"element": "C" 
			},
			{
				"x": 0.4911678365,
				"y": -1.8714440678,
				"z": 0.8420121158,
				"element": "C" 
			},
			{
				"x": 0.440381574,
				"y": -0.7801287798,
				"z": -0.0371320295,
				"element": "C" 
			},
			{
				"x": -1.0140452051,
				"y": 1.169111929,
				"z": -2.039383268,
				"element": "C" 
			},
			{
				"x": -1.8998734919,
				"y": 1.6977523513,
				"z": -1.1741770931,
				"element": "O" 
			},
			{
				"x": -1.3265812112,
				"y": 0.5030613349,
				"z": -3.0016026187,
				"element": "O" 
			},
			{
				"x": 1.8036342937,
				"y": 3.1646498071,
				"z": -2.1164958212,
				"element": "H" 
			},
			{
				"x": 0.5924076877,
				"y": 2.9044392901,
				"z": -3.3936198449,
				"element": "H" 
			},
			{
				"x": 0.1246764925,
				"y": 3.6884121277,
				"z": -1.8634897457,
				"element": "H" 
			},
			{
				"x": 1.0666380022,
				"y": 0.7819314911,
				"z": -2.1672220788,
				"element": "H" 
			},
			{
				"x": 1.1809091266,
				"y": 1.7041314529,
				"z": 2.1598795472,
				"element": "H" 
			},
			{
				"x": 1.5322832271,
				"y": 0.8896441063,
				"z": 4.3693082512,
				"element": "H" 
			},
			{
				"x": 0.8298329875,
				"y": -2.525847892,
				"z": 2.8803177622,
				"element": "H" 
			},
			{
				"x": 0.2926209468,
				"y": -2.8660992107,
				"z": 0.4537622601,
				"element": "H" 
			},
			{
				"x": 0.1984860662,
				"y": -0.9540591752,
				"z": -1.0793069314,
				"element": "H" 
			},
			{
				"x": -2.7803725957,
				"y": 1.4197776576,
				"z": -1.4795182578,
				"element": "H" 
			}
		],
		 "valence_orbital": [ 
			{
				"type": "occ",
				"energy": -0.33393,
				"method": "rhf"
			},
			{
				"type": "occ",
				"energy": -0.28894,
				"method": "rhf"
			},
			{
				"type": "occ",
				"energy": -0.26769,
				"method": "rhf"
			},
			{
				"type": "occ",
				"energy": -0.25501,
				"method": "rhf"
			},
			{
				"type": "occ",
				"energy": -0.23682,
				"method": "rhf"
			},
			{
				"type": "unocc",
				"energy": -0.06291,
				"method": "rhf"
			},
			{
				"type": "unocc",
				"energy": -0.0149,
				"method": "rhf"
			},
			{
				"type": "unocc",
				"energy": -0.00597,
				"method": "rhf"
			},
			{
				"type": "unocc",
				"energy": 0.04379,
				"method": "rhf"
			},
			{
				"type": "unocc",
				"energy": 0.06018,
				"method": "rhf"
			}
		],
		"cosmo_sigma_profile": { 
			"-0.025": 0.0,
			"-0.024": 0.0,
			"-0.023": 0.0,
			"-0.022": 0.0,
			"-0.021": 0.0,
			"-0.02": 0.0,
			"-0.019": 0.530787786982,
			"-0.018": 0.797477979223,
			"-0.017": 1.00643910935,
			"-0.016": 0.564438212163,
			"-0.015": 1.38796599245,
			"-0.014": 0.63900400469,
			"-0.013": 0.306643669338,
			"-0.012": 0.677927724237,
			"-0.011": 1.23892790235,
			"-0.01": 0.352802503709,
			"-0.009": 0.474970097816,
			"-0.008": 3.21061468645,
			"-0.007": 9.57961718911,
			"-0.006": 13.4352317482,
			"-0.005": 16.6573260746,
			"-0.004": 19.1631925648,
			"-0.003": 17.7627327864,
			"-0.002": 16.3462701065,
			"-0.001": 14.5930325293,
			"0.0": 12.1544572694,
			"0.001": 12.2444876338,
			"0.002": 16.3703994252,
			"0.003": 16.6936890956,
			"0.004": 9.49376064204,
			"0.005": 5.28081547133,
			"0.006": 4.79505500764,
			"0.007": 5.24058364972,
			"0.008": 5.73814424895,
			"0.009": 5.82953738812,
			"0.01": 5.42856705657,
			"0.011": 9.42286952374,
			"0.012": 4.71029944497,
			"0.013": 0.653780022339,
			"0.014": 0.0,
			"0.015": 0.0,
			"0.016": 0.0,
			"0.017": 0.0,
			"0.018": 0.0,
			"0.019": 0.0,
			"0.02": 0.0,
			"0.021": 0.0,
			"0.022": 0.0,
			"0.023": 0.0,
			"0.024": 0.0,
			"0.025": 0.0
		}
	}
}
