{
	 "smiles": "CC1=CC=C(C=C1C)C#N", 
	 "Tm": 341.15, 
	 "num_atms": 19, 
	 "gaussian": { 
		 "optdone": 1, 
		 "sigma_profile": "yes", 
		 "theory": "DFT", 
		 "functional": "B3LYP", 
		 "basiset": "6-31G**", 
		 "properties": { 
			 "R2extent": 1856.1681, 
			 "electric_dipole_moment_norm": 5.39081292014, 
			 "electric_quadrupole_moment_norm": 17.8261978223, 
			 "total_energy": -403.13292766, 
			 "HOMO_LUMO_gap": 0.20654, 
			 "cosmo_polarized_energy": -8.74, 
			 "cosmo_cavitation_energy": 23.47, 
			 "cosmo_dispersion_energy": -16.55, 
			 "cosmo_repulsion_energy": 1.33, 
			 "cosmo_total_nonelectrostatic_energy": 8.25, 
			 "SMD_solvation_energy": 5.53 
		},
		"coords": [
			{
				"x": -0.9930034198,
				"y": -1.3199297829,
				"z": -1.4584572975,
				"element": "C" 
			},
			{
				"x": -0.0164104136,
				"y": -0.5958605464,
				"z": -0.5651743699,
				"element": "C" 
			},
			{
				"x": 0.9135323922,
				"y": -1.3189908585,
				"z": 0.1921292105,
				"element": "C" 
			},
			{
				"x": 1.8288198156,
				"y": -0.6849145022,
				"z": 1.0264061579,
				"element": "C" 
			},
			{
				"x": 1.8211420489,
				"y": 0.7142526514,
				"z": 1.1121721309,
				"element": "C" 
			},
			{
				"x": 0.8929960968,
				"y": 1.4505524803,
				"z": 0.3573257844,
				"element": "C" 
			},
			{
				"x": -0.0251098734,
				"y": 0.8153654877,
				"z": -0.4794270437,
				"element": "C" 
			},
			{
				"x": -1.0105265694,
				"y": 1.6340792272,
				"z": -1.2783300114,
				"element": "C" 
			},
			{
				"x": 2.7532453283,
				"y": 1.3934353183,
				"z": 1.9638835337,
				"element": "C" 
			},
			{
				"x": 3.5097851793,
				"y": 1.9445749609,
				"z": 2.6551485107,
				"element": "N" 
			},
			{
				"x": -2.0310042987,
				"y": -1.1045341905,
				"z": -1.1778512434,
				"element": "H" 
			},
			{
				"x": -0.8814384774,
				"y": -1.0161931943,
				"z": -2.5062517224,
				"element": "H" 
			},
			{
				"x": -0.8495596094,
				"y": -2.4018705393,
				"z": -1.4062658415,
				"element": "H" 
			},
			{
				"x": 0.9191796484,
				"y": -2.4035358683,
				"z": 0.1253966555,
				"element": "H" 
			},
			{
				"x": 2.5427211081,
				"y": -1.2598084934,
				"z": 1.606457726,
				"element": "H" 
			},
			{
				"x": 0.8947364401,
				"y": 2.5338255969,
				"z": 0.4303726,
				"element": "H" 
			},
			{
				"x": -2.0461226016,
				"y": 1.3763126043,
				"z": -1.0265607936,
				"element": "H" 
			},
			{
				"x": -0.8779442257,
				"y": 2.7026560718,
				"z": -1.0927932517,
				"element": "H" 
			},
			{
				"x": -0.8956385688,
				"y": 1.464283577,
				"z": -2.3554807345,
				"element": "H" 
			}
		],
		 "valence_orbital": [ 
			{
				"type": "occ",
				"energy": -0.34912,
				"method": "rhf"
			},
			{
				"type": "occ",
				"energy": -0.33245,
				"method": "rhf"
			},
			{
				"type": "occ",
				"energy": -0.32354,
				"method": "rhf"
			},
			{
				"type": "occ",
				"energy": -0.26447,
				"method": "rhf"
			},
			{
				"type": "occ",
				"energy": -0.25129,
				"method": "rhf"
			},
			{
				"type": "unocc",
				"energy": -0.04475,
				"method": "rhf"
			},
			{
				"type": "unocc",
				"energy": -0.01655,
				"method": "rhf"
			},
			{
				"type": "unocc",
				"energy": 0.04264,
				"method": "rhf"
			},
			{
				"type": "unocc",
				"energy": 0.0789,
				"method": "rhf"
			},
			{
				"type": "unocc",
				"energy": 0.07952,
				"method": "rhf"
			}
		],
		"cosmo_sigma_profile": { 
			"-0.025": 0.0,
			"-0.024": 0.0,
			"-0.023": 0.0,
			"-0.022": 0.0,
			"-0.021": 0.0,
			"-0.02": 0.0,
			"-0.019": 0.0,
			"-0.018": 0.0,
			"-0.017": 0.0,
			"-0.016": 0.0,
			"-0.015": 0.0,
			"-0.014": 0.0,
			"-0.013": 0.0,
			"-0.012": 0.0,
			"-0.011": 0.0,
			"-0.01": 0.0,
			"-0.009": 0.0,
			"-0.008": 0.355776785278,
			"-0.007": 4.25775645654,
			"-0.006": 8.11227355825,
			"-0.005": 14.2373105939,
			"-0.004": 19.1591220212,
			"-0.003": 14.9661908596,
			"-0.002": 16.2637648114,
			"-0.001": 21.4940592676,
			"0.0": 21.8101287671,
			"0.001": 12.2675298678,
			"0.002": 10.0751989309,
			"0.003": 13.7781973958,
			"0.004": 5.31108408361,
			"0.005": 1.97458193212,
			"0.006": 2.48850070302,
			"0.007": 2.90938801479,
			"0.008": 2.86486429044,
			"0.009": 4.01472539964,
			"0.01": 3.16579565326,
			"0.011": 3.09928922715,
			"0.012": 2.3819960328,
			"0.013": 2.08880330302,
			"0.014": 0.352024341578,
			"0.015": 0.0,
			"0.016": 0.0,
			"0.017": 0.0,
			"0.018": 0.0,
			"0.019": 0.0,
			"0.02": 0.0,
			"0.021": 0.0,
			"0.022": 0.0,
			"0.023": 0.0,
			"0.024": 0.0,
			"0.025": 0.0
		}
	}
}
