{
	 "smiles": "OC[C@H]1OC(C[C@@H]1O)N1C=CC(=O)NC1=O", 
	 "Tm": 438.65, 
	 "num_atms": 28, 
	 "gaussian": { 
		 "optdone": 1, 
		 "sigma_profile": "yes", 
		 "theory": "DFT", 
		 "functional": "B3LYP", 
		 "basiset": "6-31G**", 
		 "properties": { 
			 "R2extent": 4240.4085, 
			 "electric_dipole_moment_norm": 8.165271982, 
			 "electric_quadrupole_moment_norm": 15.7973811504, 
			 "total_energy": -835.816932958, 
			 "HOMO_LUMO_gap": 0.20489, 
			 "cosmo_polarized_energy": -23.84, 
			 "cosmo_cavitation_energy": 30.89, 
			 "cosmo_dispersion_energy": -22.64, 
			 "cosmo_repulsion_energy": 1.78, 
			 "cosmo_total_nonelectrostatic_energy": 10.03, 
			 "SMD_solvation_energy": 6.84 
		},
		"coords": [
			{
				"x": -1.4083470262,
				"y": 3.0975705083,
				"z": 0.6899245655,
				"element": "O" 
			},
			{
				"x": -2.4950496584,
				"y": 2.1761558155,
				"z": 0.7222071532,
				"element": "C" 
			},
			{
				"x": -1.9989696014,
				"y": 0.8293257355,
				"z": 1.2350658945,
				"element": "C" 
			},
			{
				"x": -1.1372545635,
				"y": 0.2240379847,
				"z": 0.2660328088,
				"element": "O" 
			},
			{
				"x": 0.1584126523,
				"y": -0.0161407949,
				"z": 0.8170071185,
				"element": "C" 
			},
			{
				"x": 0.2463651045,
				"y": 0.8652894946,
				"z": 2.0711772015,
				"element": "C" 
			},
			{
				"x": -1.1975918518,
				"y": 0.8878666172,
				"z": 2.5609155116,
				"element": "C" 
			},
			{
				"x": -1.3902331997,
				"y": -0.2834577338,
				"z": 3.3454758898,
				"element": "O" 
			},
			{
				"x": 1.1598571623,
				"y": 0.2815184501,
				"z": -0.2090345561,
				"element": "N" 
			},
			{
				"x": 1.1203050149,
				"y": 1.4853983178,
				"z": -0.8844485829,
				"element": "C" 
			},
			{
				"x": 1.99391273,
				"y": 1.8080115423,
				"z": -1.8632521979,
				"element": "C" 
			},
			{
				"x": 3.0289345718,
				"y": 0.8659144783,
				"z": -2.2608910243,
				"element": "C" 
			},
			{
				"x": 3.8774060809,
				"y": 1.0302855051,
				"z": -3.123562964,
				"element": "O" 
			},
			{
				"x": 2.9797085413,
				"y": -0.3395442619,
				"z": -1.5288455107,
				"element": "N" 
			},
			{
				"x": 2.1041241045,
				"y": -0.7077930986,
				"z": -0.5229250324,
				"element": "C" 
			},
			{
				"x": 2.1613175899,
				"y": -1.7878143648,
				"z": 0.0423302814,
				"element": "O" 
			},
			{
				"x": -1.7171538771,
				"y": 3.9227863408,
				"z": 0.2966180544,
				"element": "H" 
			},
			{
				"x": -3.2963726239,
				"y": 2.5336432368,
				"z": 1.3884831065,
				"element": "H" 
			},
			{
				"x": -2.9243074302,
				"y": 2.0288468896,
				"z": -0.2786627654,
				"element": "H" 
			},
			{
				"x": -2.8792084304,
				"y": 0.1829982968,
				"z": 1.3671073838,
				"element": "H" 
			},
			{
				"x": 0.2848961174,
				"y": -1.0734195611,
				"z": 1.0546202085,
				"element": "H" 
			},
			{
				"x": 0.5627388084,
				"y": 1.8764854268,
				"z": 1.8063151918,
				"element": "H" 
			},
			{
				"x": 0.922322881,
				"y": 0.4538544347,
				"z": 2.8229847503,
				"element": "H" 
			},
			{
				"x": -1.4299390529,
				"y": 1.7957781825,
				"z": 3.1336504662,
				"element": "H" 
			},
			{
				"x": -2.3144266559,
				"y": -0.3210518838,
				"z": 3.6238741528,
				"element": "H" 
			},
			{
				"x": 0.3206721514,
				"y": 2.1476640465,
				"z": -0.5696116664,
				"element": "H" 
			},
			{
				"x": 1.9422650334,
				"y": 2.7579840296,
				"z": -2.3773397907,
				"element": "H" 
			},
			{
				"x": 3.6750154273,
				"y": -1.0365936343,
				"z": -1.7665156484,
				"element": "H" 
			}
		],
		 "valence_orbital": [ 
			{
				"type": "occ",
				"energy": -0.28413,
				"method": "rhf"
			},
			{
				"type": "occ",
				"energy": -0.27465,
				"method": "rhf"
			},
			{
				"type": "occ",
				"energy": -0.2707,
				"method": "rhf"
			},
			{
				"type": "occ",
				"energy": -0.25064,
				"method": "rhf"
			},
			{
				"type": "occ",
				"energy": -0.23471,
				"method": "rhf"
			},
			{
				"type": "unocc",
				"energy": -0.02982,
				"method": "rhf"
			},
			{
				"type": "unocc",
				"energy": 0.01976,
				"method": "rhf"
			},
			{
				"type": "unocc",
				"energy": 0.04203,
				"method": "rhf"
			},
			{
				"type": "unocc",
				"energy": 0.06213,
				"method": "rhf"
			},
			{
				"type": "unocc",
				"energy": 0.09744,
				"method": "rhf"
			}
		],
		"cosmo_sigma_profile": { 
			"-0.025": 0.0,
			"-0.024": 0.0,
			"-0.023": 0.0,
			"-0.022": 0.0,
			"-0.021": 0.0,
			"-0.02": 0.0,
			"-0.019": 0.0,
			"-0.018": 0.0,
			"-0.017": 0.0772557296279,
			"-0.016": 2.64592682879,
			"-0.015": 2.57668683257,
			"-0.014": 3.45761211074,
			"-0.013": 2.6762064257,
			"-0.012": 2.61905610495,
			"-0.011": 2.18753378865,
			"-0.01": 2.82429554877,
			"-0.009": 2.1093024896,
			"-0.008": 4.21342058373,
			"-0.007": 6.0288247689,
			"-0.006": 8.82609529664,
			"-0.005": 17.3826086714,
			"-0.004": 21.0587756789,
			"-0.003": 19.4475238147,
			"-0.002": 19.5048443273,
			"-0.001": 14.1073652106,
			"0.0": 12.662620679,
			"0.001": 11.0016151236,
			"0.002": 10.1724766688,
			"0.003": 8.93415968857,
			"0.004": 6.72857774445,
			"0.005": 5.950324455,
			"0.006": 6.18436822219,
			"0.007": 5.9919352806,
			"0.008": 4.00199738221,
			"0.009": 5.75601561741,
			"0.01": 5.44846975134,
			"0.011": 6.27291998311,
			"0.012": 10.8884703721,
			"0.013": 9.18745551867,
			"0.014": 2.05352974882,
			"0.015": 0.0166434625047,
			"0.016": 0.0,
			"0.017": 0.0,
			"0.018": 0.0,
			"0.019": 0.0,
			"0.02": 0.0,
			"0.021": 0.0,
			"0.022": 0.0,
			"0.023": 0.0,
			"0.024": 0.0,
			"0.025": 0.0
		}
	}
}
