{
	 "smiles": "CC1=CC(C(=O)CCl)=C(C)C=C1", 
	 "Tm": 302.15, 
	 "num_atms": 23, 
	 "gaussian": { 
		 "optdone": 1, 
		 "sigma_profile": "yes", 
		 "theory": "DFT", 
		 "functional": "B3LYP", 
		 "basiset": "6-31G**", 
		 "properties": { 
			 "R2extent": 2723.3123, 
			 "electric_dipole_moment_norm": 3.14637876137, 
			 "electric_quadrupole_moment_norm": 8.62367357279, 
			 "total_energy": -923.119821886, 
			 "HOMO_LUMO_gap": 0.17645, 
			 "cosmo_polarized_energy": -7.85, 
			 "cosmo_cavitation_energy": 27.85, 
			 "cosmo_dispersion_energy": -20.13, 
			 "cosmo_repulsion_energy": 1.62, 
			 "cosmo_total_nonelectrostatic_energy": 9.33, 
			 "SMD_solvation_energy": 5.02 
		},
		"coords": [
			{
				"x": 1.3486787372,
				"y": 2.1994802669,
				"z": 1.9750375793,
				"element": "C" 
			},
			{
				"x": 1.3001363197,
				"y": 1.3012953385,
				"z": 0.7617676605,
				"element": "C" 
			},
			{
				"x": 0.2666292628,
				"y": 0.3855934469,
				"z": 0.5737257816,
				"element": "C" 
			},
			{
				"x": 0.1958661114,
				"y": -0.4603034452,
				"z": -0.5505513962,
				"element": "C" 
			},
			{
				"x": -0.9589788917,
				"y": -1.3878424651,
				"z": -0.7002853073,
				"element": "C" 
			},
			{
				"x": -1.1619780593,
				"y": -2.0475932811,
				"z": -1.7094976942,
				"element": "O" 
			},
			{
				"x": -1.9937492684,
				"y": -1.5229494135,
				"z": 0.4293863994,
				"element": "C" 
			},
			{
				"x": -1.3135006179,
				"y": -2.349144103,
				"z": 1.8971348403,
				"element": "Cl" 
			},
			{
				"x": 1.2143835249,
				"y": -0.3960737267,
				"z": -1.5378032464,
				"element": "C" 
			},
			{
				"x": 1.2475050061,
				"y": -1.2560145537,
				"z": -2.7776003005,
				"element": "C" 
			},
			{
				"x": 2.2509819238,
				"y": 0.524131783,
				"z": -1.3340209111,
				"element": "C" 
			},
			{
				"x": 2.2983286335,
				"y": 1.3558367454,
				"z": -0.2193594233,
				"element": "C" 
			},
			{
				"x": 0.5175983355,
				"y": 1.9967821172,
				"z": 2.6558085912,
				"element": "H" 
			},
			{
				"x": 1.2979359889,
				"y": 3.2570440034,
				"z": 1.6909679074,
				"element": "H" 
			},
			{
				"x": 2.2801146694,
				"y": 2.0613277993,
				"z": 2.5354778187,
				"element": "H" 
			},
			{
				"x": -0.5002795593,
				"y": 0.3231126023,
				"z": 1.3375322162,
				"element": "H" 
			},
			{
				"x": -2.3909431308,
				"y": -0.5610597485,
				"z": 0.7576962658,
				"element": "H" 
			},
			{
				"x": -2.7976587552,
				"y": -2.1529499783,
				"z": 0.0544033458,
				"element": "H" 
			},
			{
				"x": 0.392875237,
				"y": -1.0558355138,
				"z": -3.4296177981,
				"element": "H" 
			},
			{
				"x": 1.1915671269,
				"y": -2.3207406342,
				"z": -2.5355024941,
				"element": "H" 
			},
			{
				"x": 2.16911307,
				"y": -1.0689284932,
				"z": -3.3362427266,
				"element": "H" 
			},
			{
				"x": 3.0430024327,
				"y": 0.5864548887,
				"z": -2.0755357856,
				"element": "H" 
			},
			{
				"x": 3.1243719028,
				"y": 2.0546763646,
				"z": -0.1085213227,
				"element": "H" 
			}
		],
		 "valence_orbital": [ 
			{
				"type": "occ",
				"energy": -0.31359,
				"method": "rhf"
			},
			{
				"type": "occ",
				"energy": -0.30324,
				"method": "rhf"
			},
			{
				"type": "occ",
				"energy": -0.26194,
				"method": "rhf"
			},
			{
				"type": "occ",
				"energy": -0.25343,
				"method": "rhf"
			},
			{
				"type": "occ",
				"energy": -0.24439,
				"method": "rhf"
			},
			{
				"type": "unocc",
				"energy": -0.06794,
				"method": "rhf"
			},
			{
				"type": "unocc",
				"energy": -0.00564,
				"method": "rhf"
			},
			{
				"type": "unocc",
				"energy": 0.00257,
				"method": "rhf"
			},
			{
				"type": "unocc",
				"energy": 0.05231,
				"method": "rhf"
			},
			{
				"type": "unocc",
				"energy": 0.09062,
				"method": "rhf"
			}
		],
		"cosmo_sigma_profile": { 
			"-0.025": 0.0,
			"-0.024": 0.0,
			"-0.023": 0.0,
			"-0.022": 0.0,
			"-0.021": 0.0,
			"-0.02": 0.0,
			"-0.019": 0.0,
			"-0.018": 0.0,
			"-0.017": 0.0,
			"-0.016": 0.0,
			"-0.015": 0.0,
			"-0.014": 0.0,
			"-0.013": 0.0,
			"-0.012": 0.0,
			"-0.011": 0.0,
			"-0.01": 0.11671490026,
			"-0.009": 2.19940555268,
			"-0.008": 4.12241616822,
			"-0.007": 4.29552245805,
			"-0.006": 8.47996289112,
			"-0.005": 12.871978718,
			"-0.004": 16.4056593883,
			"-0.003": 17.2956624676,
			"-0.002": 17.113758444,
			"-0.001": 20.934278913,
			"0.0": 24.781080966,
			"0.001": 18.1894297767,
			"0.002": 13.112788495,
			"0.003": 15.5042615528,
			"0.004": 17.4466768687,
			"0.005": 12.6946777308,
			"0.006": 5.94299569005,
			"0.007": 1.69141799601,
			"0.008": 1.89709914438,
			"0.009": 1.31220640616,
			"0.01": 2.06176798181,
			"0.011": 2.66354143451,
			"0.012": 1.69578541646,
			"0.013": 0.0995651624609,
			"0.014": 0.0,
			"0.015": 0.0,
			"0.016": 0.0,
			"0.017": 0.0,
			"0.018": 0.0,
			"0.019": 0.0,
			"0.02": 0.0,
			"0.021": 0.0,
			"0.022": 0.0,
			"0.023": 0.0,
			"0.024": 0.0,
			"0.025": 0.0
		}
	}
}
