{
	 "smiles": "OC(=O)CC(Br)C(=O)C1=CC=C(Cl)C=C1", 
	 "Tm": 388.15, 
	 "num_atms": 23, 
	 "gaussian": { 
		 "optdone": 1, 
		 "sigma_profile": "yes", 
		 "theory": "DFT", 
		 "functional": "B3LYP", 
		 "basiset": "6-31G**", 
		 "properties": { 
			 "R2extent": 6258.5483, 
			 "electric_dipole_moment_norm": 3.69977437961, 
			 "electric_quadrupole_moment_norm": 13.9591018812, 
			 "total_energy": -3643.16151517, 
			 "HOMO_LUMO_gap": 0.19079, 
			 "cosmo_polarized_energy": -19.4, 
			 "cosmo_cavitation_energy": 32.06, 
			 "cosmo_dispersion_energy": -23.0, 
			 "cosmo_repulsion_energy": 1.82, 
			 "cosmo_total_nonelectrostatic_energy": 10.88, 
			 "SMD_solvation_energy": 5.53 
		},
		"coords": [
			{
				"x": -0.8475201005,
				"y": -2.9003181585,
				"z": -3.4155094367,
				"element": "O" 
			},
			{
				"x": -0.7324755096,
				"y": -1.8085651352,
				"z": -2.6318124708,
				"element": "C" 
			},
			{
				"x": -0.1487318861,
				"y": -0.8036977214,
				"z": -2.9702704192,
				"element": "O" 
			},
			{
				"x": -1.3650757268,
				"y": -2.022860216,
				"z": -1.2696731976,
				"element": "C" 
			},
			{
				"x": -2.113564599,
				"y": -0.7883632328,
				"z": -0.7477081549,
				"element": "C" 
			},
			{
				"x": -3.7568087359,
				"y": -0.515055891,
				"z": -1.8003885781,
				"element": "Br" 
			},
			{
				"x": -1.2771806374,
				"y": 0.5097935275,
				"z": -0.6966205674,
				"element": "C" 
			},
			{
				"x": -1.5876566719,
				"y": 1.50509425,
				"z": -1.3151139754,
				"element": "O" 
			},
			{
				"x": -0.0652985112,
				"y": 0.5070158025,
				"z": 0.1912599319,
				"element": "C" 
			},
			{
				"x": 0.9218584646,
				"y": 1.4698372994,
				"z": -0.0716622511,
				"element": "C" 
			},
			{
				"x": 2.0640795367,
				"y": 1.555824363,
				"z": 0.7158013723,
				"element": "C" 
			},
			{
				"x": 2.2143301621,
				"y": 0.678467017,
				"z": 1.7925770466,
				"element": "C" 
			},
			{
				"x": 3.6487143532,
				"y": 0.7820515906,
				"z": 2.7952914308,
				"element": "Cl" 
			},
			{
				"x": 1.2420229559,
				"y": -0.2767098829,
				"z": 2.0872030017,
				"element": "C" 
			},
			{
				"x": 0.1083661832,
				"y": -0.3606450373,
				"z": 1.2798754515,
				"element": "C" 
			},
			{
				"x": -0.3903202172,
				"y": -2.6910123855,
				"z": -4.2482054818,
				"element": "H" 
			},
			{
				"x": -0.5450026131,
				"y": -2.2615735987,
				"z": -0.5806098778,
				"element": "H" 
			},
			{
				"x": -2.0352701385,
				"y": -2.8830215995,
				"z": -1.2959859719,
				"element": "H" 
			},
			{
				"x": -2.4784828592,
				"y": -1.0063185039,
				"z": 0.2586824941,
				"element": "H" 
			},
			{
				"x": 0.7739827789,
				"y": 2.1438998193,
				"z": -0.9080712728,
				"element": "H" 
			},
			{
				"x": 2.8312819445,
				"y": 2.2922650791,
				"z": 0.5044083857,
				"element": "H" 
			},
			{
				"x": 1.3693544553,
				"y": -0.939113383,
				"z": 2.9359390164,
				"element": "H" 
			},
			{
				"x": -0.6479026279,
				"y": -1.0975940024,
				"z": 1.5317935244,
				"element": "H" 
			}
		],
		 "valence_orbital": [ 
			{
				"type": "occ",
				"energy": -0.28125,
				"method": "rhf"
			},
			{
				"type": "occ",
				"energy": -0.28022,
				"method": "rhf"
			},
			{
				"type": "occ",
				"energy": -0.27747,
				"method": "rhf"
			},
			{
				"type": "occ",
				"energy": -0.26671,
				"method": "rhf"
			},
			{
				"type": "occ",
				"energy": -0.25911,
				"method": "rhf"
			},
			{
				"type": "unocc",
				"energy": -0.06832,
				"method": "rhf"
			},
			{
				"type": "unocc",
				"energy": -0.0305,
				"method": "rhf"
			},
			{
				"type": "unocc",
				"energy": -0.01502,
				"method": "rhf"
			},
			{
				"type": "unocc",
				"energy": -0.00048,
				"method": "rhf"
			},
			{
				"type": "unocc",
				"energy": 0.01584,
				"method": "rhf"
			}
		],
		"cosmo_sigma_profile": { 
			"-0.025": 0.0,
			"-0.024": 0.0,
			"-0.023": 0.0,
			"-0.022": 0.0,
			"-0.021": 0.0,
			"-0.02": 0.0,
			"-0.019": 0.300752570033,
			"-0.018": 0.889244091436,
			"-0.017": 1.07548823319,
			"-0.016": 0.971398854896,
			"-0.015": 0.612261002438,
			"-0.014": 0.632879937578,
			"-0.013": 0.625191419472,
			"-0.012": 1.81914255215,
			"-0.011": 3.79783750117,
			"-0.01": 3.57140147788,
			"-0.009": 4.14560153204,
			"-0.008": 8.79196908967,
			"-0.007": 13.3641725283,
			"-0.006": 12.0772322698,
			"-0.005": 10.4567408071,
			"-0.004": 10.0211145157,
			"-0.003": 11.0301670085,
			"-0.002": 11.5454547841,
			"-0.001": 12.0425250948,
			"0.0": 18.2022026782,
			"0.001": 23.8362477646,
			"0.002": 23.6459112118,
			"0.003": 16.1616854551,
			"0.004": 19.0844144793,
			"0.005": 12.5634936711,
			"0.006": 5.89595952596,
			"0.007": 5.61467928554,
			"0.008": 5.95175822405,
			"0.009": 5.74304533791,
			"0.01": 7.01736137738,
			"0.011": 7.05139672082,
			"0.012": 2.59492437783,
			"0.013": 0.222961146162,
			"0.014": 0.0,
			"0.015": 0.0,
			"0.016": 0.0,
			"0.017": 0.0,
			"0.018": 0.0,
			"0.019": 0.0,
			"0.02": 0.0,
			"0.021": 0.0,
			"0.022": 0.0,
			"0.023": 0.0,
			"0.024": 0.0,
			"0.025": 0.0
		}
	}
}
