{
	 "smiles": "CC1=C(OCC(O)=O)C=C(O)C(Cl)=C1", 
	 "Tm": 405.15, 
	 "num_atms": 23, 
	 "gaussian": { 
		 "optdone": 1, 
		 "sigma_profile": "yes", 
		 "theory": "DFT", 
		 "functional": "B3LYP", 
		 "basiset": "6-31G**", 
		 "properties": { 
			 "R2extent": 4227.4769, 
			 "electric_dipole_moment_norm": 5.76582738989, 
			 "electric_quadrupole_moment_norm": 18.5283736264, 
			 "total_energy": -1109.45513085, 
			 "HOMO_LUMO_gap": 0.20144, 
			 "cosmo_polarized_energy": -24.84, 
			 "cosmo_cavitation_energy": 29.59, 
			 "cosmo_dispersion_energy": -21.43, 
			 "cosmo_repulsion_energy": 1.73, 
			 "cosmo_total_nonelectrostatic_energy": 9.88, 
			 "SMD_solvation_energy": 6.6 
		},
		"coords": [
			{
				"x": -1.5564793477,
				"y": 0.4040460709,
				"z": 2.982008106,
				"element": "C" 
			},
			{
				"x": -1.3814250725,
				"y": 0.0939808154,
				"z": 1.5170141971,
				"element": "C" 
			},
			{
				"x": -0.5497460551,
				"y": 0.8891225941,
				"z": 0.7084293367,
				"element": "C" 
			},
			{
				"x": 0.0726349358,
				"y": 1.9311523093,
				"z": 1.3598998948,
				"element": "O" 
			},
			{
				"x": 1.2156911551,
				"y": 2.5220949407,
				"z": 0.8034134139,
				"element": "C" 
			},
			{
				"x": 0.9046421405,
				"y": 3.6428320867,
				"z": -0.1966853718,
				"element": "C" 
			},
			{
				"x": 1.9933038311,
				"y": 4.3604404841,
				"z": -0.5835375298,
				"element": "O" 
			},
			{
				"x": -0.1850153878,
				"y": 3.8824715951,
				"z": -0.6403645886,
				"element": "O" 
			},
			{
				"x": -0.3853144731,
				"y": 0.6191785279,
				"z": -0.6497181195,
				"element": "C" 
			},
			{
				"x": -1.0446114716,
				"y": -0.4667195047,
				"z": -1.2406208458,
				"element": "C" 
			},
			{
				"x": -0.920820029,
				"y": -0.7609276129,
				"z": -2.5625639676,
				"element": "O" 
			},
			{
				"x": -1.86331617,
				"y": -1.2743296853,
				"z": -0.4443690311,
				"element": "C" 
			},
			{
				"x": -2.6938721453,
				"y": -2.643751805,
				"z": -1.153310184,
				"element": "Cl" 
			},
			{
				"x": -2.0264307765,
				"y": -0.9833373402,
				"z": 0.9093738846,
				"element": "C" 
			},
			{
				"x": -1.9942098235,
				"y": 1.3971327629,
				"z": 3.1310658171,
				"element": "H" 
			},
			{
				"x": -2.2100592268,
				"y": -0.3317150405,
				"z": 3.457335582,
				"element": "H" 
			},
			{
				"x": -0.5960202124,
				"y": 0.4014051302,
				"z": 3.5089264738,
				"element": "H" 
			},
			{
				"x": 1.8609068447,
				"y": 1.7779468844,
				"z": 0.3107590914,
				"element": "H" 
			},
			{
				"x": 1.7794176494,
				"y": 2.9464397585,
				"z": 1.6437296654,
				"element": "H" 
			},
			{
				"x": 2.7908942167,
				"y": 4.0651119162,
				"z": -0.1197174805,
				"element": "H" 
			},
			{
				"x": 0.2045549331,
				"y": 1.2754857137,
				"z": -1.2800281806,
				"element": "H" 
			},
			{
				"x": -0.3830760537,
				"y": -0.0820407105,
				"z": -2.9898902094,
				"element": "H" 
			},
			{
				"x": -2.6711494613,
				"y": -1.6228198912,
				"z": 1.5035500458,
				"element": "H" 
			}
		],
		 "valence_orbital": [ 
			{
				"type": "occ",
				"energy": -0.30527,
				"method": "rhf"
			},
			{
				"type": "occ",
				"energy": -0.30129,
				"method": "rhf"
			},
			{
				"type": "occ",
				"energy": -0.28703,
				"method": "rhf"
			},
			{
				"type": "occ",
				"energy": -0.24319,
				"method": "rhf"
			},
			{
				"type": "occ",
				"energy": -0.21229,
				"method": "rhf"
			},
			{
				"type": "unocc",
				"energy": -0.01085,
				"method": "rhf"
			},
			{
				"type": "unocc",
				"energy": -0.00605,
				"method": "rhf"
			},
			{
				"type": "unocc",
				"energy": 0.00742,
				"method": "rhf"
			},
			{
				"type": "unocc",
				"energy": 0.03145,
				"method": "rhf"
			},
			{
				"type": "unocc",
				"energy": 0.0385,
				"method": "rhf"
			}
		],
		"cosmo_sigma_profile": { 
			"-0.025": 0.0,
			"-0.024": 0.0,
			"-0.023": 0.0,
			"-0.022": 0.0,
			"-0.021": 0.00771458280028,
			"-0.02": 0.862622444675,
			"-0.019": 1.85575019483,
			"-0.018": 2.53084219637,
			"-0.017": 2.05415938383,
			"-0.016": 2.52607479506,
			"-0.015": 2.32883173945,
			"-0.014": 2.10774658947,
			"-0.013": 2.43388650829,
			"-0.012": 2.12879545765,
			"-0.011": 3.05347409668,
			"-0.01": 4.88913001846,
			"-0.009": 4.57638821643,
			"-0.008": 4.87341965089,
			"-0.007": 4.06966058275,
			"-0.006": 7.42978884211,
			"-0.005": 6.94332752311,
			"-0.004": 7.97462804819,
			"-0.003": 8.63391198058,
			"-0.002": 11.5516727358,
			"-0.001": 11.4038545869,
			"0.0": 15.3119612825,
			"0.001": 13.089494712,
			"0.002": 16.5842964302,
			"0.003": 20.3930446754,
			"0.004": 17.7067627926,
			"0.005": 13.1520980516,
			"0.006": 6.89499324255,
			"0.007": 6.46840163614,
			"0.008": 7.30109154986,
			"0.009": 7.12311455229,
			"0.01": 7.45894714517,
			"0.011": 8.19904376288,
			"0.012": 2.92944057024,
			"0.013": 0.207689945242,
			"0.014": 0.0,
			"0.015": 0.0,
			"0.016": 0.0,
			"0.017": 0.0,
			"0.018": 0.0,
			"0.019": 0.0,
			"0.02": 0.0,
			"0.021": 0.0,
			"0.022": 0.0,
			"0.023": 0.0,
			"0.024": 0.0,
			"0.025": 0.0
		}
	}
}
