{
	 "smiles": "CC(=O)OC1=C(C=CC(=C1)C(F)(F)F)C(O)=O", 
	 "Tm": 394.15, 
	 "num_atms": 24, 
	 "gaussian": { 
		 "optdone": 1, 
		 "sigma_profile": "yes", 
		 "theory": "DFT", 
		 "functional": "B3LYP", 
		 "basiset": "6-31G**", 
		 "properties": { 
			 "R2extent": 4821.1532, 
			 "electric_dipole_moment_norm": 2.99768993226, 
			 "electric_quadrupole_moment_norm": 16.6369959305, 
			 "total_energy": -985.718081469, 
			 "HOMO_LUMO_gap": 0.20229, 
			 "cosmo_polarized_energy": -17.16, 
			 "cosmo_cavitation_energy": 31.26, 
			 "cosmo_dispersion_energy": -21.55, 
			 "cosmo_repulsion_energy": 1.62, 
			 "cosmo_total_nonelectrostatic_energy": 11.33, 
			 "SMD_solvation_energy": 8.71 
		},
		"coords": [
			{
				"x": 2.0099681061,
				"y": 0.6749981693,
				"z": 3.621361943,
				"element": "C" 
			},
			{
				"x": 2.0189463393,
				"y": 0.5859576274,
				"z": 2.1229733256,
				"element": "C" 
			},
			{
				"x": 2.953016715,
				"y": 0.3498936404,
				"z": 1.4060588843,
				"element": "O" 
			},
			{
				"x": 0.7376008449,
				"y": 0.8207202176,
				"z": 1.6321975409,
				"element": "O" 
			},
			{
				"x": 0.5070148046,
				"y": 0.5144807251,
				"z": 0.3058707583,
				"element": "C" 
			},
			{
				"x": 0.0196915143,
				"y": -0.7567279463,
				"z": -0.0418327241,
				"element": "C" 
			},
			{
				"x": -0.2634169298,
				"y": -1.0168764226,
				"z": -1.3914504675,
				"element": "C" 
			},
			{
				"x": -0.0748264107,
				"y": -0.0430195821,
				"z": -2.3670180918,
				"element": "C" 
			},
			{
				"x": 0.3916624934,
				"y": 1.2197033661,
				"z": -1.9948649562,
				"element": "C" 
			},
			{
				"x": 0.6834437306,
				"y": 1.4998332652,
				"z": -0.6601231208,
				"element": "C" 
			},
			{
				"x": 0.5298348387,
				"y": 2.3033054858,
				"z": -3.0349032293,
				"element": "C" 
			},
			{
				"x": 0.8650085566,
				"y": 1.795508559,
				"z": -4.2395454515,
				"element": "F" 
			},
			{
				"x": -0.6340356428,
				"y": 2.9727297008,
				"z": -3.1968103919,
				"element": "F" 
			},
			{
				"x": 1.466681391,
				"y": 3.2105387736,
				"z": -2.693647054,
				"element": "F" 
			},
			{
				"x": -0.1557817936,
				"y": -1.8217200609,
				"z": 1.0032947594,
				"element": "C" 
			},
			{
				"x": -1.1882139277,
				"y": -2.6810572833,
				"z": 0.7962028155,
				"element": "O" 
			},
			{
				"x": 0.5574906841,
				"y": -1.9563741118,
				"z": 1.9679592422,
				"element": "O" 
			},
			{
				"x": 1.5371763267,
				"y": -0.2335280127,
				"z": 4.0073750208,
				"element": "H" 
			},
			{
				"x": 3.033565658,
				"y": 0.7401430305,
				"z": 3.9889334735,
				"element": "H" 
			},
			{
				"x": 1.4217609645,
				"y": 1.5316201798,
				"z": 3.9588161069,
				"element": "H" 
			},
			{
				"x": -0.5954915468,
				"y": -2.0073903892,
				"z": -1.6899079214,
				"element": "H" 
			},
			{
				"x": -0.2766762291,
				"y": -0.2625769109,
				"z": -3.4091335168,
				"element": "H" 
			},
			{
				"x": 1.0538936273,
				"y": 2.4731482544,
				"z": -0.361768108,
				"element": "H" 
			},
			{
				"x": -1.7565141146,
				"y": -2.3565102752,
				"z": 0.083461163,
				"element": "H" 
			}
		],
		 "valence_orbital": [ 
			{
				"type": "occ",
				"energy": -0.32046,
				"method": "rhf"
			},
			{
				"type": "occ",
				"energy": -0.29794,
				"method": "rhf"
			},
			{
				"type": "occ",
				"energy": -0.28875,
				"method": "rhf"
			},
			{
				"type": "occ",
				"energy": -0.28618,
				"method": "rhf"
			},
			{
				"type": "occ",
				"energy": -0.27519,
				"method": "rhf"
			},
			{
				"type": "unocc",
				"energy": -0.0729,
				"method": "rhf"
			},
			{
				"type": "unocc",
				"energy": -0.04039,
				"method": "rhf"
			},
			{
				"type": "unocc",
				"energy": 0.0028,
				"method": "rhf"
			},
			{
				"type": "unocc",
				"energy": 0.01657,
				"method": "rhf"
			},
			{
				"type": "unocc",
				"energy": 0.0564,
				"method": "rhf"
			}
		],
		"cosmo_sigma_profile": { 
			"-0.025": 0.0,
			"-0.024": 0.0,
			"-0.023": 0.0,
			"-0.022": 0.0,
			"-0.021": 0.0,
			"-0.02": 0.0,
			"-0.019": 0.435531697737,
			"-0.018": 1.27718892725,
			"-0.017": 0.895004914447,
			"-0.016": 0.826098776446,
			"-0.015": 1.78718109599,
			"-0.014": 0.748630232536,
			"-0.013": 0.718242405336,
			"-0.012": 1.0728218731,
			"-0.011": 1.50486712739,
			"-0.01": 1.32860920613,
			"-0.009": 3.03334155302,
			"-0.008": 5.92990618261,
			"-0.007": 7.30534981524,
			"-0.006": 10.922785693,
			"-0.005": 12.6545600125,
			"-0.004": 12.7837007842,
			"-0.003": 15.7268194384,
			"-0.002": 16.7037355477,
			"-0.001": 17.9355987587,
			"0.0": 17.4890718791,
			"0.001": 18.3571357515,
			"0.002": 27.5486549529,
			"0.003": 20.7164146056,
			"0.004": 6.58370157423,
			"0.005": 6.10053277486,
			"0.006": 4.3974808648,
			"0.007": 6.92128722053,
			"0.008": 5.62961741078,
			"0.009": 6.81883039768,
			"0.01": 7.31343542022,
			"0.011": 6.71595614135,
			"0.012": 2.24599098367,
			"0.013": 0.154432897866,
			"0.014": 0.0,
			"0.015": 0.0,
			"0.016": 0.0,
			"0.017": 0.0,
			"0.018": 0.0,
			"0.019": 0.0,
			"0.02": 0.0,
			"0.021": 0.0,
			"0.022": 0.0,
			"0.023": 0.0,
			"0.024": 0.0,
			"0.025": 0.0
		}
	}
}
