{
	 "smiles": "CC(=O)NCCS", 
	 "Tm": 279.65, 
	 "num_atms": 16, 
	 "gaussian": { 
		 "optdone": 1, 
		 "sigma_profile": "yes", 
		 "theory": "DFT", 
		 "functional": "B3LYP", 
		 "basiset": "6-31G**", 
		 "properties": { 
			 "R2extent": 1786.013, 
			 "electric_dipole_moment_norm": 4.66475221743, 
			 "electric_quadrupole_moment_norm": 8.39759498428, 
			 "total_energy": -686.026576141, 
			 "HOMO_LUMO_gap": 0.25265, 
			 "cosmo_polarized_energy": -13.72, 
			 "cosmo_cavitation_energy": 20.93, 
			 "cosmo_dispersion_energy": -15.82, 
			 "cosmo_repulsion_energy": 1.32, 
			 "cosmo_total_nonelectrostatic_energy": 6.43, 
			 "SMD_solvation_energy": 3.49 
		},
		"coords": [
			{
				"x": -1.149382912,
				"y": 0.4416687331,
				"z": -1.2422714822,
				"element": "C" 
			},
			{
				"x": -1.3393088257,
				"y": 0.7254568752,
				"z": 0.2412452161,
				"element": "C" 
			},
			{
				"x": -2.1553146781,
				"y": 1.5426622963,
				"z": 0.6454454764,
				"element": "O" 
			},
			{
				"x": -0.5353078508,
				"y": 0.0386050029,
				"z": 1.1200205625,
				"element": "N" 
			},
			{
				"x": 0.3474372343,
				"y": -1.0768794977,
				"z": 0.843720411,
				"element": "C" 
			},
			{
				"x": 1.5736813232,
				"y": -1.0738085841,
				"z": 1.7618975145,
				"element": "C" 
			},
			{
				"x": 1.1811887722,
				"y": -1.1860085718,
				"z": 3.5597656186,
				"element": "S" 
			},
			{
				"x": -1.3658782673,
				"y": -0.6045299564,
				"z": -1.484332168,
				"element": "H" 
			},
			{
				"x": -1.8360991795,
				"y": 1.0841933523,
				"z": -1.7923239223,
				"element": "H" 
			},
			{
				"x": -0.1244879693,
				"y": 0.6536672053,
				"z": -1.5659497785,
				"element": "H" 
			},
			{
				"x": -0.7587978971,
				"y": 0.2074630459,
				"z": 2.0945278361,
				"element": "H" 
			},
			{
				"x": 0.6998392138,
				"y": -1.0081989337,
				"z": -0.1898422441,
				"element": "H" 
			},
			{
				"x": -0.1726107226,
				"y": -2.0440265527,
				"z": 0.9390938225,
				"element": "H" 
			},
			{
				"x": 2.2521237147,
				"y": -1.8868239036,
				"z": 1.4911380009,
				"element": "H" 
			},
			{
				"x": 2.1161419306,
				"y": -0.1301604618,
				"z": 1.6585526455,
				"element": "H" 
			},
			{
				"x": 0.6753761135,
				"y": -2.4367800494,
				"z": 3.5321124911,
				"element": "H" 
			}
		],
		 "valence_orbital": [ 
			{
				"type": "occ",
				"energy": -0.35544,
				"method": "rhf"
			},
			{
				"type": "occ",
				"energy": -0.33972,
				"method": "rhf"
			},
			{
				"type": "occ",
				"energy": -0.25854,
				"method": "rhf"
			},
			{
				"type": "occ",
				"energy": -0.24684,
				"method": "rhf"
			},
			{
				"type": "occ",
				"energy": -0.24061,
				"method": "rhf"
			},
			{
				"type": "unocc",
				"energy": 0.01204,
				"method": "rhf"
			},
			{
				"type": "unocc",
				"energy": 0.03214,
				"method": "rhf"
			},
			{
				"type": "unocc",
				"energy": 0.05712,
				"method": "rhf"
			},
			{
				"type": "unocc",
				"energy": 0.0804,
				"method": "rhf"
			},
			{
				"type": "unocc",
				"energy": 0.11417,
				"method": "rhf"
			}
		],
		"cosmo_sigma_profile": { 
			"-0.025": 0.0,
			"-0.024": 0.0,
			"-0.023": 0.0,
			"-0.022": 0.0,
			"-0.021": 0.0,
			"-0.02": 0.0,
			"-0.019": 0.0,
			"-0.018": 0.0,
			"-0.017": 0.0,
			"-0.016": 0.0,
			"-0.015": 0.0,
			"-0.014": 0.0,
			"-0.013": 0.0,
			"-0.012": 0.0,
			"-0.011": 0.0,
			"-0.01": 0.0780139692197,
			"-0.009": 2.46840148676,
			"-0.008": 3.24847501499,
			"-0.007": 4.95940073142,
			"-0.006": 15.2496531391,
			"-0.005": 18.3862482179,
			"-0.004": 16.0691437642,
			"-0.003": 15.5088587392,
			"-0.002": 12.6465784299,
			"-0.001": 10.5652523033,
			"0.0": 9.52589606609,
			"0.001": 4.6047143837,
			"0.002": 5.49386695114,
			"0.003": 4.5663032639,
			"0.004": 5.72936469645,
			"0.005": 5.75430463031,
			"0.006": 4.53288186553,
			"0.007": 3.30106857657,
			"0.008": 3.31538046089,
			"0.009": 2.82370721294,
			"0.01": 2.07403991692,
			"0.011": 1.39229875408,
			"0.012": 1.90478688022,
			"0.013": 2.51222837965,
			"0.014": 5.88416080782,
			"0.015": 3.34430581345,
			"0.016": 0.278677277273,
			"0.017": 0.0,
			"0.018": 0.0,
			"0.019": 0.0,
			"0.02": 0.0,
			"0.021": 0.0,
			"0.022": 0.0,
			"0.023": 0.0,
			"0.024": 0.0,
			"0.025": 0.0
		}
	}
}
