{
	 "smiles": "CCCC1=CC(C(C)=O)=C(O)C=C1O", 
	 "Tm": 373.15, 
	 "num_atms": 28, 
	 "gaussian": { 
		 "optdone": 1, 
		 "sigma_profile": "yes", 
		 "theory": "DFT", 
		 "functional": "B3LYP", 
		 "basiset": "6-31G**", 
		 "properties": { 
			 "R2extent": 3413.0023, 
			 "electric_dipole_moment_norm": 3.81265194976, 
			 "electric_quadrupole_moment_norm": 15.2236999044, 
			 "total_energy": -653.289747442, 
			 "HOMO_LUMO_gap": 0.18433, 
			 "cosmo_polarized_energy": -15.17, 
			 "cosmo_cavitation_energy": 30.57, 
			 "cosmo_dispersion_energy": -22.1, 
			 "cosmo_repulsion_energy": 1.74, 
			 "cosmo_total_nonelectrostatic_energy": 10.22, 
			 "SMD_solvation_energy": 6.18 
		},
		"coords": [
			{
				"x": -0.48909805,
				"y": 1.8455620558,
				"z": -3.967024449,
				"element": "C" 
			},
			{
				"x": 0.5657853639,
				"y": 0.7791618739,
				"z": -3.6565484705,
				"element": "C" 
			},
			{
				"x": 1.3315129861,
				"y": 0.9980352213,
				"z": -2.3324579268,
				"element": "C" 
			},
			{
				"x": 0.493310415,
				"y": 0.8522342288,
				"z": -1.0761932481,
				"element": "C" 
			},
			{
				"x": 0.3155015831,
				"y": -0.3952816763,
				"z": -0.4875365123,
				"element": "C" 
			},
			{
				"x": -0.4473170278,
				"y": -0.6253574456,
				"z": 0.6699823073,
				"element": "C" 
			},
			{
				"x": -0.5196449416,
				"y": -2.0414934026,
				"z": 1.153225701,
				"element": "C" 
			},
			{
				"x": -1.3137623068,
				"y": -2.3999126261,
				"z": 2.3943271566,
				"element": "C" 
			},
			{
				"x": 0.0700025618,
				"y": -2.9220641917,
				"z": 0.5369395251,
				"element": "O" 
			},
			{
				"x": -1.0619612176,
				"y": 0.4984959006,
				"z": 1.2656580794,
				"element": "C" 
			},
			{
				"x": -1.8125421347,
				"y": 0.3383359469,
				"z": 2.3947667324,
				"element": "O" 
			},
			{
				"x": -0.9030376959,
				"y": 1.7661327222,
				"z": 0.7053604967,
				"element": "C" 
			},
			{
				"x": -0.1421283739,
				"y": 1.9462797481,
				"z": -0.450592906,
				"element": "C" 
			},
			{
				"x": -0.0544931035,
				"y": 3.2232168467,
				"z": -0.9158726885,
				"element": "O" 
			},
			{
				"x": -0.0347832884,
				"y": 2.8398214395,
				"z": -4.0715000207,
				"element": "H" 
			},
			{
				"x": -1.0009756844,
				"y": 1.6281512328,
				"z": -4.9096536284,
				"element": "H" 
			},
			{
				"x": -1.2515867713,
				"y": 1.9022521671,
				"z": -3.1838318989,
				"element": "H" 
			},
			{
				"x": 0.0886178736,
				"y": -0.2076427522,
				"z": -3.6206476375,
				"element": "H" 
			},
			{
				"x": 1.2957809623,
				"y": 0.7414818882,
				"z": -4.4749786438,
				"element": "H" 
			},
			{
				"x": 1.8297854944,
				"y": 1.9802806916,
				"z": -2.361731107,
				"element": "H" 
			},
			{
				"x": 2.1495943111,
				"y": 0.2714610049,
				"z": -2.2797572002,
				"element": "H" 
			},
			{
				"x": 0.7891883064,
				"y": -1.2699469596,
				"z": -0.923989956,
				"element": "H" 
			},
			{
				"x": -1.2265285346,
				"y": -3.4756231967,
				"z": 2.5528767725,
				"element": "H" 
			},
			{
				"x": -2.3648604111,
				"y": -2.1175687882,
				"z": 2.2832588009,
				"element": "H" 
			},
			{
				"x": -0.9422349414,
				"y": -1.8571123367,
				"z": 3.268496734,
				"element": "H" 
			},
			{
				"x": -2.1511261604,
				"y": 1.2008901283,
				"z": 2.6685444991,
				"element": "H" 
			},
			{
				"x": -1.3709635014,
				"y": 2.637467778,
				"z": 1.1560858531,
				"element": "H" 
			},
			{
				"x": 0.4657642871,
				"y": 3.2331425009,
				"z": -1.7295063646,
				"element": "H" 
			}
		],
		 "valence_orbital": [ 
			{
				"type": "occ",
				"energy": -0.33407,
				"method": "rhf"
			},
			{
				"type": "occ",
				"energy": -0.30565,
				"method": "rhf"
			},
			{
				"type": "occ",
				"energy": -0.23998,
				"method": "rhf"
			},
			{
				"type": "occ",
				"energy": -0.23444,
				"method": "rhf"
			},
			{
				"type": "occ",
				"energy": -0.22065,
				"method": "rhf"
			},
			{
				"type": "unocc",
				"energy": -0.03632,
				"method": "rhf"
			},
			{
				"type": "unocc",
				"energy": 0.00171,
				"method": "rhf"
			},
			{
				"type": "unocc",
				"energy": 0.04725,
				"method": "rhf"
			},
			{
				"type": "unocc",
				"energy": 0.05781,
				"method": "rhf"
			},
			{
				"type": "unocc",
				"energy": 0.06255,
				"method": "rhf"
			}
		],
		"cosmo_sigma_profile": { 
			"-0.025": 0.0,
			"-0.024": 0.0,
			"-0.023": 0.0,
			"-0.022": 0.0,
			"-0.021": 0.0,
			"-0.02": 0.0,
			"-0.019": 0.0618206891415,
			"-0.018": 1.01803963523,
			"-0.017": 0.965350169723,
			"-0.016": 1.27561988661,
			"-0.015": 1.64229549108,
			"-0.014": 1.6781073472,
			"-0.013": 1.75938598993,
			"-0.012": 1.91680460398,
			"-0.011": 2.13625333796,
			"-0.01": 2.38577648297,
			"-0.009": 2.45777671866,
			"-0.008": 2.15324886358,
			"-0.007": 2.25071659854,
			"-0.006": 3.50972083827,
			"-0.005": 5.84615688989,
			"-0.004": 12.1931359151,
			"-0.003": 17.4264534715,
			"-0.002": 23.0309296526,
			"-0.001": 27.6491171235,
			"0.0": 27.1983335986,
			"0.001": 19.3947857468,
			"0.002": 14.7784809148,
			"0.003": 16.3918057923,
			"0.004": 14.2187133587,
			"0.005": 6.71690894453,
			"0.006": 4.98582098977,
			"0.007": 4.23328603024,
			"0.008": 2.80156458278,
			"0.009": 2.85779311728,
			"0.01": 4.00157525273,
			"0.011": 2.8858537364,
			"0.012": 3.49390198884,
			"0.013": 3.71115208133,
			"0.014": 1.14094055318,
			"0.015": 0.0312151712535,
			"0.016": 0.0,
			"0.017": 0.0,
			"0.018": 0.0,
			"0.019": 0.0,
			"0.02": 0.0,
			"0.021": 0.0,
			"0.022": 0.0,
			"0.023": 0.0,
			"0.024": 0.0,
			"0.025": 0.0
		}
	}
}
