{
	 "smiles": "NC1=C(C=CC=C1)C(=O)N1CCCC1", 
	 "Tm": 360.15, 
	 "num_atms": 28, 
	 "gaussian": { 
		 "optdone": 1, 
		 "sigma_profile": "yes", 
		 "theory": "DFT", 
		 "functional": "B3LYP", 
		 "basiset": "6-31G**", 
		 "properties": { 
			 "R2extent": 3292.0207, 
			 "electric_dipole_moment_norm": 2.14576316261, 
			 "electric_quadrupole_moment_norm": 13.5476531278, 
			 "total_energy": -612.360754338, 
			 "HOMO_LUMO_gap": 0.1745, 
			 "cosmo_polarized_energy": -11.01, 
			 "cosmo_cavitation_energy": 29.49, 
			 "cosmo_dispersion_energy": -22.08, 
			 "cosmo_repulsion_energy": 1.75, 
			 "cosmo_total_nonelectrostatic_energy": 9.16, 
			 "SMD_solvation_energy": 3.99 
		},
		"coords": [
			{
				"x": 0.0855085892,
				"y": -2.3124426536,
				"z": 0.7179962223,
				"element": "N" 
			},
			{
				"x": 1.1102062334,
				"y": -1.7365438423,
				"z": -0.0038760791,
				"element": "C" 
			},
			{
				"x": 0.8987457221,
				"y": -0.5607713647,
				"z": -0.7797155943,
				"element": "C" 
			},
			{
				"x": 1.9711035878,
				"y": -0.0273574299,
				"z": -1.5115529739,
				"element": "C" 
			},
			{
				"x": 3.2448084212,
				"y": -0.5845642029,
				"z": -1.4664721645,
				"element": "C" 
			},
			{
				"x": 3.4593405073,
				"y": -1.7076172985,
				"z": -0.6606553664,
				"element": "C" 
			},
			{
				"x": 2.4131614855,
				"y": -2.2728115995,
				"z": 0.0556805289,
				"element": "C" 
			},
			{
				"x": -0.4782098193,
				"y": 0.0158696776,
				"z": -0.8765772922,
				"element": "C" 
			},
			{
				"x": -1.4869627782,
				"y": -0.7084788743,
				"z": -0.8556563416,
				"element": "O" 
			},
			{
				"x": -0.6271527076,
				"y": 1.371329671,
				"z": -1.0071286529,
				"element": "N" 
			},
			{
				"x": 0.3368117758,
				"y": 2.4205780577,
				"z": -0.6273204273,
				"element": "C" 
			},
			{
				"x": -0.5549645035,
				"y": 3.5372447646,
				"z": -0.0663014865,
				"element": "C" 
			},
			{
				"x": -1.8213166469,
				"y": 3.4218380226,
				"z": -0.9292553924,
				"element": "C" 
			},
			{
				"x": -2.0012196661,
				"y": 1.9053603174,
				"z": -1.0865765671,
				"element": "C" 
			},
			{
				"x": 0.2412086384,
				"y": -3.2623188944,
				"z": 1.0209815871,
				"element": "H" 
			},
			{
				"x": -0.8382304795,
				"y": -2.1142590557,
				"z": 0.347200237,
				"element": "H" 
			},
			{
				"x": 1.7897712595,
				"y": 0.8286325276,
				"z": -2.1532307028,
				"element": "H" 
			},
			{
				"x": 4.0533711026,
				"y": -0.1568633598,
				"z": -2.0502448859,
				"element": "H" 
			},
			{
				"x": 4.4475536232,
				"y": -2.156021494,
				"z": -0.6021525893,
				"element": "H" 
			},
			{
				"x": 2.5852109166,
				"y": -3.1564055222,
				"z": 0.665772058,
				"element": "H" 
			},
			{
				"x": 1.0644350082,
				"y": 2.0385831448,
				"z": 0.0913220651,
				"element": "H" 
			},
			{
				"x": 0.8902019003,
				"y": 2.7844838172,
				"z": -1.5039302485,
				"element": "H" 
			},
			{
				"x": -0.0762938895,
				"y": 4.5189929865,
				"z": -0.1208231181,
				"element": "H" 
			},
			{
				"x": -0.7922524293,
				"y": 3.3336446834,
				"z": 0.9842292909,
				"element": "H" 
			},
			{
				"x": -1.6533226522,
				"y": 3.8905967247,
				"z": -1.9059341971,
				"element": "H" 
			},
			{
				"x": -2.697269062,
				"y": 3.8966599029,
				"z": -0.4794124131,
				"element": "H" 
			},
			{
				"x": -2.4723589195,
				"y": 1.6175811901,
				"z": -2.0311124954,
				"element": "H" 
			},
			{
				"x": -2.6062852176,
				"y": 1.4722601036,
				"z": -0.2816530009,
				"element": "H" 
			}
		],
		 "valence_orbital": [ 
			{
				"type": "occ",
				"energy": -0.30333,
				"method": "rhf"
			},
			{
				"type": "occ",
				"energy": -0.25164,
				"method": "rhf"
			},
			{
				"type": "occ",
				"energy": -0.23891,
				"method": "rhf"
			},
			{
				"type": "occ",
				"energy": -0.23386,
				"method": "rhf"
			},
			{
				"type": "occ",
				"energy": -0.19559,
				"method": "rhf"
			},
			{
				"type": "unocc",
				"energy": -0.02109,
				"method": "rhf"
			},
			{
				"type": "unocc",
				"energy": 0.01751,
				"method": "rhf"
			},
			{
				"type": "unocc",
				"energy": 0.05924,
				"method": "rhf"
			},
			{
				"type": "unocc",
				"energy": 0.08059,
				"method": "rhf"
			},
			{
				"type": "unocc",
				"energy": 0.0985,
				"method": "rhf"
			}
		],
		"cosmo_sigma_profile": { 
			"-0.025": 0.0,
			"-0.024": 0.0,
			"-0.023": 0.0,
			"-0.022": 0.0,
			"-0.021": 0.0,
			"-0.02": 0.0,
			"-0.019": 0.0,
			"-0.018": 0.0,
			"-0.017": 0.0,
			"-0.016": 0.0,
			"-0.015": 0.0,
			"-0.014": 0.0,
			"-0.013": 0.212247360507,
			"-0.012": 1.11707323838,
			"-0.011": 1.39101484013,
			"-0.01": 1.37708502315,
			"-0.009": 1.96879173633,
			"-0.008": 1.08929229414,
			"-0.007": 2.84527125696,
			"-0.006": 4.98285456703,
			"-0.005": 10.9362706544,
			"-0.004": 22.3704515296,
			"-0.003": 33.1483214177,
			"-0.002": 29.5502242678,
			"-0.001": 21.3728391643,
			"0.0": 16.5922178444,
			"0.001": 10.1246154585,
			"0.002": 8.61769601563,
			"0.003": 10.428070604,
			"0.004": 10.7571518273,
			"0.005": 11.8592129087,
			"0.006": 10.2156195594,
			"0.007": 3.90985866127,
			"0.008": 2.70788810615,
			"0.009": 2.18488021571,
			"0.01": 1.81980853582,
			"0.011": 1.90365351649,
			"0.012": 2.88153151687,
			"0.013": 2.91796507494,
			"0.014": 2.74545477466,
			"0.015": 0.21320089676,
			"0.016": 0.0,
			"0.017": 0.0,
			"0.018": 0.0,
			"0.019": 0.0,
			"0.02": 0.0,
			"0.021": 0.0,
			"0.022": 0.0,
			"0.023": 0.0,
			"0.024": 0.0,
			"0.025": 0.0
		}
	}
}
