{
	 "smiles": "CCOC=O", 
	 "Tm": 192.85, 
	 "num_atms": 11, 
	 "gaussian": { 
		 "optdone": 1, 
		 "sigma_profile": "yes", 
		 "theory": "DFT", 
		 "functional": "B3LYP", 
		 "basiset": "6-31G**", 
		 "properties": { 
			 "R2extent": 953.7045, 
			 "electric_dipole_moment_norm": 1.87797687153, 
			 "electric_quadrupole_moment_norm": 5.34563522137, 
			 "total_energy": -268.385066426, 
			 "HOMO_LUMO_gap": 0.28746, 
			 "cosmo_polarized_energy": -5.74, 
			 "cosmo_cavitation_energy": 14.63, 
			 "cosmo_dispersion_energy": -10.82, 
			 "cosmo_repulsion_energy": 0.97, 
			 "cosmo_total_nonelectrostatic_energy": 4.79, 
			 "SMD_solvation_energy": 4.91 
		},
		"coords": [
			{
				"x": 0.3421831517,
				"y": -1.5953890125,
				"z": 2.569727095,
				"element": "C" 
			},
			{
				"x": 1.6585663993,
				"y": -1.7335378934,
				"z": 1.8206011858,
				"element": "C" 
			},
			{
				"x": 1.9737133011,
				"y": -0.5228999988,
				"z": 1.0829504944,
				"element": "O" 
			},
			{
				"x": 1.4317602939,
				"y": -0.4106178222,
				"z": -0.1400032865,
				"element": "C" 
			},
			{
				"x": 0.7129829276,
				"y": -1.2154485005,
				"z": -0.6824250589,
				"element": "O" 
			},
			{
				"x": 0.3602562055,
				"y": -0.7250998268,
				"z": 3.2321763986,
				"element": "H" 
			},
			{
				"x": 0.1676017961,
				"y": -2.4880888705,
				"z": 3.1794073606,
				"element": "H" 
			},
			{
				"x": -0.4900121496,
				"y": -1.4910425274,
				"z": 1.8693414171,
				"element": "H" 
			},
			{
				"x": 1.6307078148,
				"y": -2.5727649354,
				"z": 1.1214958635,
				"element": "H" 
			},
			{
				"x": 2.5003213182,
				"y": -1.8583483129,
				"z": 2.5053399423,
				"element": "H" 
			},
			{
				"x": 1.7532189416,
				"y": 0.5447377004,
				"z": -0.5842114118,
				"element": "H" 
			}
		],
		 "valence_orbital": [ 
			{
				"type": "occ",
				"energy": -0.38691,
				"method": "rhf"
			},
			{
				"type": "occ",
				"energy": -0.37527,
				"method": "rhf"
			},
			{
				"type": "occ",
				"energy": -0.34529,
				"method": "rhf"
			},
			{
				"type": "occ",
				"energy": -0.30424,
				"method": "rhf"
			},
			{
				"type": "occ",
				"energy": -0.28045,
				"method": "rhf"
			},
			{
				"type": "unocc",
				"energy": 0.00701,
				"method": "rhf"
			},
			{
				"type": "unocc",
				"energy": 0.10562,
				"method": "rhf"
			},
			{
				"type": "unocc",
				"energy": 0.11473,
				"method": "rhf"
			},
			{
				"type": "unocc",
				"energy": 0.1342,
				"method": "rhf"
			},
			{
				"type": "unocc",
				"energy": 0.15053,
				"method": "rhf"
			}
		],
		"cosmo_sigma_profile": { 
			"-0.025": 0.0,
			"-0.024": 0.0,
			"-0.023": 0.0,
			"-0.022": 0.0,
			"-0.021": 0.0,
			"-0.02": 0.0,
			"-0.019": 0.0,
			"-0.018": 0.0,
			"-0.017": 0.0,
			"-0.016": 0.0,
			"-0.015": 0.0,
			"-0.014": 0.0,
			"-0.013": 0.0,
			"-0.012": 0.0,
			"-0.011": 0.0,
			"-0.01": 0.0,
			"-0.009": 1.89963003942,
			"-0.008": 2.72065809096,
			"-0.007": 1.86564951784,
			"-0.006": 3.75465736816,
			"-0.005": 7.11080203761,
			"-0.004": 12.9557838322,
			"-0.003": 14.3913252329,
			"-0.002": 12.1059177535,
			"-0.001": 10.6555569682,
			"0.0": 10.8410929103,
			"0.001": 4.52307918538,
			"0.002": 2.49566924485,
			"0.003": 3.17593592629,
			"0.004": 3.7045750313,
			"0.005": 2.43498145758,
			"0.006": 2.33418288412,
			"0.007": 2.61354117422,
			"0.008": 2.40200127778,
			"0.009": 3.18170821706,
			"0.01": 2.28983456408,
			"0.011": 4.14278107418,
			"0.012": 3.21590440727,
			"0.013": 0.455793095826,
			"0.014": 0.0,
			"0.015": 0.0,
			"0.016": 0.0,
			"0.017": 0.0,
			"0.018": 0.0,
			"0.019": 0.0,
			"0.02": 0.0,
			"0.021": 0.0,
			"0.022": 0.0,
			"0.023": 0.0,
			"0.024": 0.0,
			"0.025": 0.0
		}
	}
}
