{
	 "smiles": "O[C@@H]([C@H](O)C(O)=O)C(O)=O", 
	 "Tm": 443.15, 
	 "num_atms": 16, 
	 "gaussian": { 
		 "optdone": 1, 
		 "sigma_profile": "yes", 
		 "theory": "DFT", 
		 "functional": "B3LYP", 
		 "basiset": "6-31G**", 
		 "properties": { 
			 "R2extent": 1927.8219, 
			 "electric_dipole_moment_norm": 4.20014877117, 
			 "electric_quadrupole_moment_norm": 14.9963032418, 
			 "total_energy": -607.395378049, 
			 "HOMO_LUMO_gap": 0.23678, 
			 "cosmo_polarized_energy": -18.2, 
			 "cosmo_cavitation_energy": 20.72, 
			 "cosmo_dispersion_energy": -15.43, 
			 "cosmo_repulsion_energy": 1.29, 
			 "cosmo_total_nonelectrostatic_energy": 6.57, 
			 "SMD_solvation_energy": 6.18 
		},
		"coords": [
			{
				"x": 1.326725222,
				"y": 1.7309677083,
				"z": -1.0750226816,
				"element": "O" 
			},
			{
				"x": 1.746564194,
				"y": 0.4077557764,
				"z": -0.7793766501,
				"element": "C" 
			},
			{
				"x": 0.5551320671,
				"y": -0.4296755267,
				"z": -0.2713586564,
				"element": "C" 
			},
			{
				"x": -0.5610110668,
				"y": -0.1182048556,
				"z": -1.082006037,
				"element": "O" 
			},
			{
				"x": 0.1974342919,
				"y": -0.1320706775,
				"z": 1.1786013145,
				"element": "C" 
			},
			{
				"x": 1.2197876068,
				"y": -0.309392787,
				"z": 2.0257905997,
				"element": "O" 
			},
			{
				"x": -0.9197306954,
				"y": 0.2049448661,
				"z": 1.5152556922,
				"element": "O" 
			},
			{
				"x": 2.387440872,
				"y": -0.2662183797,
				"z": -2.0120039531,
				"element": "C" 
			},
			{
				"x": 2.6502141588,
				"y": 0.5854702715,
				"z": -3.0114711122,
				"element": "O" 
			},
			{
				"x": 2.6554695119,
				"y": -1.4432948048,
				"z": -2.0432301055,
				"element": "O" 
			},
			{
				"x": 0.3985580527,
				"y": 1.6260940998,
				"z": -1.3605790417,
				"element": "H" 
			},
			{
				"x": 2.5194913024,
				"y": 0.4557285173,
				"z": -0.0056613291,
				"element": "H" 
			},
			{
				"x": 0.8339050709,
				"y": -1.4894101957,
				"z": -0.3515731058,
				"element": "H" 
			},
			{
				"x": -1.304132307,
				"y": 0.0278457305,
				"z": -0.4690828181,
				"element": "H" 
			},
			{
				"x": 0.8931480476,
				"y": -0.1168780408,
				"z": 2.9213593543,
				"element": "H" 
			},
			{
				"x": 2.311903671,
				"y": 1.4558382979,
				"z": -2.71814147,
				"element": "H" 
			}
		],
		 "valence_orbital": [ 
			{
				"type": "occ",
				"energy": -0.34371,
				"method": "rhf"
			},
			{
				"type": "occ",
				"energy": -0.3229,
				"method": "rhf"
			},
			{
				"type": "occ",
				"energy": -0.31559,
				"method": "rhf"
			},
			{
				"type": "occ",
				"energy": -0.31196,
				"method": "rhf"
			},
			{
				"type": "occ",
				"energy": -0.2659,
				"method": "rhf"
			},
			{
				"type": "unocc",
				"energy": -0.02912,
				"method": "rhf"
			},
			{
				"type": "unocc",
				"energy": 0.00541,
				"method": "rhf"
			},
			{
				"type": "unocc",
				"energy": 0.04718,
				"method": "rhf"
			},
			{
				"type": "unocc",
				"energy": 0.06001,
				"method": "rhf"
			},
			{
				"type": "unocc",
				"energy": 0.10818,
				"method": "rhf"
			}
		],
		"cosmo_sigma_profile": { 
			"-0.025": 0.0,
			"-0.024": 0.0,
			"-0.023": 0.0,
			"-0.022": 0.0,
			"-0.021": 0.0,
			"-0.02": 0.534835600696,
			"-0.019": 0.894762159174,
			"-0.018": 0.902163038437,
			"-0.017": 0.908898104131,
			"-0.016": 1.1231660578,
			"-0.015": 0.58414565203,
			"-0.014": 0.898160123908,
			"-0.013": 2.03225168171,
			"-0.012": 2.59883479481,
			"-0.011": 3.78605442474,
			"-0.01": 3.86483213347,
			"-0.009": 5.59341925084,
			"-0.008": 7.78923159596,
			"-0.007": 7.31154004398,
			"-0.006": 6.29116384263,
			"-0.005": 5.82432223886,
			"-0.004": 7.13142837929,
			"-0.003": 7.29402747139,
			"-0.002": 6.31143625726,
			"-0.001": 7.22048261401,
			"0.0": 6.85883993906,
			"0.001": 5.04692070496,
			"0.002": 5.82633066072,
			"0.003": 5.57099183463,
			"0.004": 5.86008818499,
			"0.005": 5.41887660891,
			"0.006": 7.14329636702,
			"0.007": 5.87783710355,
			"0.008": 5.71021328874,
			"0.009": 9.62590112505,
			"0.01": 8.88281048012,
			"0.011": 7.68127776617,
			"0.012": 4.21130998719,
			"0.013": 0.742356611785,
			"0.014": 0.0,
			"0.015": 0.0,
			"0.016": 0.0,
			"0.017": 0.0,
			"0.018": 0.0,
			"0.019": 0.0,
			"0.02": 0.0,
			"0.021": 0.0,
			"0.022": 0.0,
			"0.023": 0.0,
			"0.024": 0.0,
			"0.025": 0.0
		}
	}
}
