{
	 "smiles": "ClC1=C2C=CC=CC2=C(Br)C=N1", 
	 "Tm": 372.15, 
	 "num_atms": 17, 
	 "gaussian": { 
		 "optdone": 1, 
		 "sigma_profile": "yes", 
		 "theory": "DFT", 
		 "functional": "B3LYP", 
		 "basiset": "6-31G**", 
		 "properties": { 
			 "R2extent": 3712.5327, 
			 "electric_dipole_moment_norm": 3.25050255961, 
			 "electric_quadrupole_moment_norm": 11.3068091622, 
			 "total_energy": -3432.32341462, 
			 "HOMO_LUMO_gap": 0.16667, 
			 "cosmo_polarized_energy": -5.78, 
			 "cosmo_cavitation_energy": 25.06, 
			 "cosmo_dispersion_energy": -19.48, 
			 "cosmo_repulsion_energy": 1.52, 
			 "cosmo_total_nonelectrostatic_energy": 7.1, 
			 "SMD_solvation_energy": 1.4 
		},
		"coords": [
			{
				"x": 4.1700197002,
				"y": 0.1886517558,
				"z": -0.2070327416,
				"element": "Cl" 
			},
			{
				"x": 2.4578426777,
				"y": -0.1893014722,
				"z": -0.4197804114,
				"element": "C" 
			},
			{
				"x": 1.5783242922,
				"y": 0.8289884997,
				"z": -0.9038015883,
				"element": "C" 
			},
			{
				"x": 1.9861451962,
				"y": 2.1463280474,
				"z": -1.2323242361,
				"element": "C" 
			},
			{
				"x": 1.0710267653,
				"y": 3.0659835604,
				"z": -1.6927255108,
				"element": "C" 
			},
			{
				"x": -0.2880625821,
				"y": 2.7061175322,
				"z": -1.8433057553,
				"element": "C" 
			},
			{
				"x": -0.7165006042,
				"y": 1.4350323284,
				"z": -1.5330641834,
				"element": "C" 
			},
			{
				"x": 0.1987728689,
				"y": 0.462357207,
				"z": -1.056185032,
				"element": "C" 
			},
			{
				"x": -0.1550590385,
				"y": -0.8735817378,
				"z": -0.7114060707,
				"element": "C" 
			},
			{
				"x": -1.9538591985,
				"y": -1.4898508232,
				"z": -0.867258116,
				"element": "Br" 
			},
			{
				"x": 0.7987181389,
				"y": -1.7505712553,
				"z": -0.2566803372,
				"element": "C" 
			},
			{
				"x": 2.1025109853,
				"y": -1.4013026072,
				"z": -0.1136087962,
				"element": "N" 
			},
			{
				"x": 3.0291153733,
				"y": 2.4149563338,
				"z": -1.1145078869,
				"element": "H" 
			},
			{
				"x": 1.3925775588,
				"y": 4.0724646712,
				"z": -1.9418212779,
				"element": "H" 
			},
			{
				"x": -1.0003494749,
				"y": 3.4404457653,
				"z": -2.2074154867,
				"element": "H" 
			},
			{
				"x": -1.7578969562,
				"y": 1.1578201077,
				"z": -1.6479862299,
				"element": "H" 
			},
			{
				"x": 0.5413742977,
				"y": -2.7706379132,
				"z": 0.0091036605,
				"element": "H" 
			}
		],
		 "valence_orbital": [ 
			{
				"type": "occ",
				"energy": -0.30546,
				"method": "rhf"
			},
			{
				"type": "occ",
				"energy": -0.28514,
				"method": "rhf"
			},
			{
				"type": "occ",
				"energy": -0.28242,
				"method": "rhf"
			},
			{
				"type": "occ",
				"energy": -0.28079,
				"method": "rhf"
			},
			{
				"type": "occ",
				"energy": -0.23856,
				"method": "rhf"
			},
			{
				"type": "unocc",
				"energy": -0.07189,
				"method": "rhf"
			},
			{
				"type": "unocc",
				"energy": -0.04429,
				"method": "rhf"
			},
			{
				"type": "unocc",
				"energy": -0.0028,
				"method": "rhf"
			},
			{
				"type": "unocc",
				"energy": 0.00795,
				"method": "rhf"
			},
			{
				"type": "unocc",
				"energy": 0.02951,
				"method": "rhf"
			}
		],
		"cosmo_sigma_profile": { 
			"-0.025": 0.0,
			"-0.024": 0.0,
			"-0.023": 0.0,
			"-0.022": 0.0,
			"-0.021": 0.0,
			"-0.02": 0.0,
			"-0.019": 0.0,
			"-0.018": 0.0,
			"-0.017": 0.0,
			"-0.016": 0.0,
			"-0.015": 0.0,
			"-0.014": 0.0,
			"-0.013": 0.0,
			"-0.012": 0.0,
			"-0.011": 0.0,
			"-0.01": 0.0,
			"-0.009": 0.0718582646093,
			"-0.008": 1.39739223794,
			"-0.007": 7.32880992755,
			"-0.006": 8.936176574,
			"-0.005": 11.0843332366,
			"-0.004": 8.8719713922,
			"-0.003": 10.374721998,
			"-0.002": 15.8971196468,
			"-0.001": 23.400513132,
			"0.0": 27.766264015,
			"0.001": 23.8739608761,
			"0.002": 22.7736781851,
			"0.003": 19.0636776269,
			"0.004": 13.2633729107,
			"0.005": 4.17038330463,
			"0.006": 2.16195215295,
			"0.007": 0.956710945021,
			"0.008": 1.63276956796,
			"0.009": 1.23588287516,
			"0.01": 1.25790808697,
			"0.011": 0.98181324999,
			"0.012": 0.590200992738,
			"0.013": 1.10351744432,
			"0.014": 0.241840483604,
			"0.015": 0.0,
			"0.016": 0.0,
			"0.017": 0.0,
			"0.018": 0.0,
			"0.019": 0.0,
			"0.02": 0.0,
			"0.021": 0.0,
			"0.022": 0.0,
			"0.023": 0.0,
			"0.024": 0.0,
			"0.025": 0.0
		}
	}
}
