{
	 "smiles": "COC1=CC=C(C=C1)S(=O)(=O)NCCC(O)=O", 
	 "Tm": 399.15, 
	 "num_atms": 30, 
	 "gaussian": { 
		 "optdone": 1, 
		 "sigma_profile": "yes", 
		 "theory": "DFT", 
		 "functional": "B3LYP", 
		 "basiset": "6-31G**", 
		 "properties": { 
			 "R2extent": 6456.5797, 
			 "electric_dipole_moment_norm": 4.00993948458, 
			 "electric_quadrupole_moment_norm": 30.9619206959, 
			 "total_energy": -1217.89310284, 
			 "HOMO_LUMO_gap": 0.20877, 
			 "cosmo_polarized_energy": -21.35, 
			 "cosmo_cavitation_energy": 36.13, 
			 "cosmo_dispersion_energy": -26.06, 
			 "cosmo_repulsion_energy": 2.01, 
			 "cosmo_total_nonelectrostatic_energy": 12.08, 
			 "SMD_solvation_energy": 6.79 
		},
		"coords": [
			{
				"x": -5.1684521859,
				"y": 1.4629514075,
				"z": 2.6568073463,
				"element": "C" 
			},
			{
				"x": -3.8604804449,
				"y": 2.0199907864,
				"z": 2.683228669,
				"element": "O" 
			},
			{
				"x": -2.9613842577,
				"y": 1.6168450932,
				"z": 1.7493866171,
				"element": "C" 
			},
			{
				"x": -3.2295710271,
				"y": 0.6726447373,
				"z": 0.7449310505,
				"element": "C" 
			},
			{
				"x": -2.2305584028,
				"y": 0.3309662748,
				"z": -0.1633068683,
				"element": "C" 
			},
			{
				"x": -0.9713860156,
				"y": 0.9244136312,
				"z": -0.0694630046,
				"element": "C" 
			},
			{
				"x": -0.7003348108,
				"y": 1.8723016844,
				"z": 0.9235030911,
				"element": "C" 
			},
			{
				"x": -1.6930487073,
				"y": 2.2143691236,
				"z": 1.83112882,
				"element": "C" 
			},
			{
				"x": 0.291629221,
				"y": 0.4991773219,
				"z": -1.2563229091,
				"element": "S" 
			},
			{
				"x": 1.4320032636,
				"y": 1.3948433189,
				"z": -1.0082478429,
				"element": "O" 
			},
			{
				"x": -0.3029445849,
				"y": 0.3853680967,
				"z": -2.5923911458,
				"element": "O" 
			},
			{
				"x": 0.6741867929,
				"y": -1.0944292067,
				"z": -0.8398300824,
				"element": "N" 
			},
			{
				"x": 1.6685375239,
				"y": -1.3464818555,
				"z": 0.210056525,
				"element": "C" 
			},
			{
				"x": 3.1259324888,
				"y": -1.1557701483,
				"z": -0.2278870679,
				"element": "C" 
			},
			{
				"x": 4.0898606962,
				"y": -1.4385905091,
				"z": 0.9002513416,
				"element": "C" 
			},
			{
				"x": 5.3761911999,
				"y": -1.4160038881,
				"z": 0.4796996627,
				"element": "O" 
			},
			{
				"x": 3.7820438105,
				"y": -1.6558031673,
				"z": 2.0530152946,
				"element": "O" 
			},
			{
				"x": -5.1463587089,
				"y": 0.3760885006,
				"z": 2.803809945,
				"element": "H" 
			},
			{
				"x": -5.7071922117,
				"y": 1.9267295868,
				"z": 3.4838664219,
				"element": "H" 
			},
			{
				"x": -5.6842493393,
				"y": 1.690959048,
				"z": 1.7159466327,
				"element": "H" 
			},
			{
				"x": -4.2040620279,
				"y": 0.2074438409,
				"z": 0.6617655448,
				"element": "H" 
			},
			{
				"x": -2.4328403223,
				"y": -0.3907507348,
				"z": -0.9474571193,
				"element": "H" 
			},
			{
				"x": 0.2785116702,
				"y": 2.3363944612,
				"z": 0.9664502397,
				"element": "H" 
			},
			{
				"x": -1.5145399556,
				"y": 2.9459325948,
				"z": 2.6117596744,
				"element": "H" 
			},
			{
				"x": 0.8115979297,
				"y": -1.6130994223,
				"z": -1.7039933486,
				"element": "H" 
			},
			{
				"x": 1.5105511522,
				"y": -2.3684869515,
				"z": 0.5675824004,
				"element": "H" 
			},
			{
				"x": 1.4441887701,
				"y": -0.6934155969,
				"z": 1.0568658948,
				"element": "H" 
			},
			{
				"x": 3.378292949,
				"y": -1.808995589,
				"z": -1.0722639098,
				"element": "H" 
			},
			{
				"x": 3.2839629087,
				"y": -0.1287347501,
				"z": -0.5739819256,
				"element": "H" 
			},
			{
				"x": 5.9213126261,
				"y": -1.5872576886,
				"z": 1.2662900525,
				"element": "H" 
			}
		],
		 "valence_orbital": [ 
			{
				"type": "occ",
				"energy": -0.29749,
				"method": "rhf"
			},
			{
				"type": "occ",
				"energy": -0.28106,
				"method": "rhf"
			},
			{
				"type": "occ",
				"energy": -0.27092,
				"method": "rhf"
			},
			{
				"type": "occ",
				"energy": -0.27012,
				"method": "rhf"
			},
			{
				"type": "occ",
				"energy": -0.23726,
				"method": "rhf"
			},
			{
				"type": "unocc",
				"energy": -0.02849,
				"method": "rhf"
			},
			{
				"type": "unocc",
				"energy": -0.01789,
				"method": "rhf"
			},
			{
				"type": "unocc",
				"energy": 0.00665,
				"method": "rhf"
			},
			{
				"type": "unocc",
				"energy": 0.06027,
				"method": "rhf"
			},
			{
				"type": "unocc",
				"energy": 0.07703,
				"method": "rhf"
			}
		],
		"cosmo_sigma_profile": { 
			"-0.025": 0.0,
			"-0.024": 0.0,
			"-0.023": 0.0,
			"-0.022": 0.0,
			"-0.021": 0.0,
			"-0.02": 0.0,
			"-0.019": 0.0,
			"-0.018": 0.568671060871,
			"-0.017": 1.07312998011,
			"-0.016": 0.896499803622,
			"-0.015": 0.570555893518,
			"-0.014": 2.29214303289,
			"-0.013": 2.18857743387,
			"-0.012": 0.883596965491,
			"-0.011": 2.08960098178,
			"-0.01": 2.43019946635,
			"-0.009": 1.57756673273,
			"-0.008": 3.71566379926,
			"-0.007": 11.1670957597,
			"-0.006": 22.3174792233,
			"-0.005": 21.5716159139,
			"-0.004": 22.5554509029,
			"-0.003": 19.7622965924,
			"-0.002": 15.2215110313,
			"-0.001": 12.9115081974,
			"0.0": 13.1423084255,
			"0.001": 16.9869625968,
			"0.002": 19.4198848717,
			"0.003": 18.028599687,
			"0.004": 8.87648142335,
			"0.005": 6.89001380737,
			"0.006": 7.44630648542,
			"0.007": 7.30393129042,
			"0.008": 7.2881071925,
			"0.009": 8.83623062687,
			"0.01": 8.40457731693,
			"0.011": 11.8533095065,
			"0.012": 7.86211281413,
			"0.013": 0.12618636525,
			"0.014": 0.0,
			"0.015": 0.0,
			"0.016": 0.0,
			"0.017": 0.0,
			"0.018": 0.0,
			"0.019": 0.0,
			"0.02": 0.0,
			"0.021": 0.0,
			"0.022": 0.0,
			"0.023": 0.0,
			"0.024": 0.0,
			"0.025": 0.0
		}
	}
}
