{
	 "smiles": "CCS(=O)(=O)C1=CC=C(Br)C=C1", 
	 "Tm": 327.15, 
	 "num_atms": 21, 
	 "gaussian": { 
		 "optdone": 1, 
		 "sigma_profile": "yes", 
		 "theory": "DFT", 
		 "functional": "B3LYP", 
		 "basiset": "6-31G**", 
		 "properties": { 
			 "R2extent": 4724.0272, 
			 "electric_dipole_moment_norm": 4.19751766405, 
			 "electric_quadrupole_moment_norm": 15.5542000807, 
			 "total_energy": -3430.25545912, 
			 "HOMO_LUMO_gap": 0.21307, 
			 "cosmo_polarized_energy": -13.53, 
			 "cosmo_cavitation_energy": 28.45, 
			 "cosmo_dispersion_energy": -21.28, 
			 "cosmo_repulsion_energy": 1.66, 
			 "cosmo_total_nonelectrostatic_energy": 8.83, 
			 "SMD_solvation_energy": 3.08 
		},
		"coords": [
			{
				"x": -1.440157925,
				"y": -1.3369080914,
				"z": -2.6055643389,
				"element": "C" 
			},
			{
				"x": -0.274483539,
				"y": -1.9966875458,
				"z": -1.8785882139,
				"element": "C" 
			},
			{
				"x": -0.480339896,
				"y": -2.0734239325,
				"z": -0.0684475915,
				"element": "S" 
			},
			{
				"x": -1.8478234776,
				"y": -2.5434623143,
				"z": 0.2120110005,
				"element": "O" 
			},
			{
				"x": 0.6977661741,
				"y": -2.7782011872,
				"z": 0.4628811922,
				"element": "O" 
			},
			{
				"x": -0.3767442996,
				"y": -0.357638928,
				"z": 0.4741642745,
				"element": "C" 
			},
			{
				"x": 0.8769123776,
				"y": 0.2075569054,
				"z": 0.7175877305,
				"element": "C" 
			},
			{
				"x": 0.9607140392,
				"y": 1.5328426888,
				"z": 1.1410436716,
				"element": "C" 
			},
			{
				"x": -0.2143032218,
				"y": 2.2656299078,
				"z": 1.3192848537,
				"element": "C" 
			},
			{
				"x": -0.1011310145,
				"y": 4.0793045614,
				"z": 1.8970150285,
				"element": "Br" 
			},
			{
				"x": -1.4693001652,
				"y": 1.699329818,
				"z": 1.0931246986,
				"element": "C" 
			},
			{
				"x": -1.549966853,
				"y": 0.3734336489,
				"z": 0.6676255084,
				"element": "C" 
			},
			{
				"x": -1.2736216052,
				"y": -1.3865741276,
				"z": -3.6857712283,
				"element": "H" 
			},
			{
				"x": -1.5420491994,
				"y": -0.2832123737,
				"z": -2.3302830925,
				"element": "H" 
			},
			{
				"x": -2.3769671231,
				"y": -1.8493748669,
				"z": -2.3753225533,
				"element": "H" 
			},
			{
				"x": 0.6810275567,
				"y": -1.4944267426,
				"z": -2.0541293953,
				"element": "H" 
			},
			{
				"x": -0.1596562201,
				"y": -3.049848322,
				"z": -2.1547759073,
				"element": "H" 
			},
			{
				"x": 1.7737223548,
				"y": -0.3917691811,
				"z": 0.5999986126,
				"element": "H" 
			},
			{
				"x": 1.923437016,
				"y": 1.9893742171,
				"z": 1.3395608621,
				"element": "H" 
			},
			{
				"x": -2.3682555453,
				"y": 2.2831343027,
				"z": 1.2535284837,
				"element": "H" 
			},
			{
				"x": -2.5119794337,
				"y": -0.101078437,
				"z": 0.5067564041,
				"element": "H" 
			}
		],
		 "valence_orbital": [ 
			{
				"type": "occ",
				"energy": -0.30321,
				"method": "rhf"
			},
			{
				"type": "occ",
				"energy": -0.29841,
				"method": "rhf"
			},
			{
				"type": "occ",
				"energy": -0.28711,
				"method": "rhf"
			},
			{
				"type": "occ",
				"energy": -0.28563,
				"method": "rhf"
			},
			{
				"type": "occ",
				"energy": -0.265,
				"method": "rhf"
			},
			{
				"type": "unocc",
				"energy": -0.05193,
				"method": "rhf"
			},
			{
				"type": "unocc",
				"energy": -0.03656,
				"method": "rhf"
			},
			{
				"type": "unocc",
				"energy": -0.00826,
				"method": "rhf"
			},
			{
				"type": "unocc",
				"energy": 0.0643,
				"method": "rhf"
			},
			{
				"type": "unocc",
				"energy": 0.07285,
				"method": "rhf"
			}
		],
		"cosmo_sigma_profile": { 
			"-0.025": 0.0,
			"-0.024": 0.0,
			"-0.023": 0.0,
			"-0.022": 0.0,
			"-0.021": 0.0,
			"-0.02": 0.0,
			"-0.019": 0.0,
			"-0.018": 0.0,
			"-0.017": 0.0,
			"-0.016": 0.0,
			"-0.015": 0.0,
			"-0.014": 0.0,
			"-0.013": 0.0,
			"-0.012": 0.0,
			"-0.011": 0.0,
			"-0.01": 0.0,
			"-0.009": 0.494200503965,
			"-0.008": 8.88066460939,
			"-0.007": 11.9799962342,
			"-0.006": 10.6621609167,
			"-0.005": 14.0879191361,
			"-0.004": 18.4916791263,
			"-0.003": 18.2047909162,
			"-0.002": 15.7177047258,
			"-0.001": 17.2785625301,
			"0.0": 19.2897546534,
			"0.001": 23.6156184327,
			"0.002": 12.2686266578,
			"0.003": 11.765513497,
			"0.004": 12.295505832,
			"0.005": 2.624844754,
			"0.006": 2.5932034211,
			"0.007": 1.87804694147,
			"0.008": 3.36260624133,
			"0.009": 3.15988692218,
			"0.01": 5.00461997458,
			"0.011": 7.52731253603,
			"0.012": 7.96098363257,
			"0.013": 0.969215406178,
			"0.014": 0.0,
			"0.015": 0.0,
			"0.016": 0.0,
			"0.017": 0.0,
			"0.018": 0.0,
			"0.019": 0.0,
			"0.02": 0.0,
			"0.021": 0.0,
			"0.022": 0.0,
			"0.023": 0.0,
			"0.024": 0.0,
			"0.025": 0.0
		}
	}
}
