{
	 "smiles": "COC(=O)C1=C(N)SC(C)=C1C", 
	 "Tm": 398.15, 
	 "num_atms": 23, 
	 "gaussian": { 
		 "optdone": 1, 
		 "sigma_profile": "yes", 
		 "theory": "DFT", 
		 "functional": "B3LYP", 
		 "basiset": "6-31G**", 
		 "properties": { 
			 "R2extent": 2722.9773, 
			 "electric_dipole_moment_norm": 2.60932706651, 
			 "electric_quadrupole_moment_norm": 12.4386595371, 
			 "total_energy": -914.87975093, 
			 "HOMO_LUMO_gap": 0.17451, 
			 "cosmo_polarized_energy": -10.57, 
			 "cosmo_cavitation_energy": 27.43, 
			 "cosmo_dispersion_energy": -20.85, 
			 "cosmo_repulsion_energy": 1.62, 
			 "cosmo_total_nonelectrostatic_energy": 8.21, 
			 "SMD_solvation_energy": 5.87 
		},
		"coords": [
			{
				"x": -0.5760032087,
				"y": 2.2286696046,
				"z": 3.8293722287,
				"element": "C" 
			},
			{
				"x": -0.0655013062,
				"y": 1.6165300389,
				"z": 2.636289744,
				"element": "O" 
			},
			{
				"x": -0.9431284033,
				"y": 0.7660076512,
				"z": 2.0002362356,
				"element": "C" 
			},
			{
				"x": -2.0610208087,
				"y": 0.5799420221,
				"z": 2.4479368334,
				"element": "O" 
			},
			{
				"x": -0.3805983458,
				"y": 0.166031124,
				"z": 0.7914634316,
				"element": "C" 
			},
			{
				"x": 0.9062441609,
				"y": 0.4001591208,
				"z": 0.3133995022,
				"element": "C" 
			},
			{
				"x": 1.9235717567,
				"y": 1.1297894437,
				"z": 0.865881527,
				"element": "N" 
			},
			{
				"x": 1.194194142,
				"y": -0.4749327611,
				"z": -1.1692895038,
				"element": "S" 
			},
			{
				"x": -0.4385868334,
				"y": -1.1584277006,
				"z": -1.1584541075,
				"element": "C" 
			},
			{
				"x": -0.8226966677,
				"y": -2.0652530079,
				"z": -2.2894882048,
				"element": "C" 
			},
			{
				"x": -1.141506966,
				"y": -0.7382203951,
				"z": -0.0679050766,
				"element": "C" 
			},
			{
				"x": -2.5598626739,
				"y": -1.1492552819,
				"z": 0.2274119229,
				"element": "C" 
			},
			{
				"x": -1.4544448171,
				"y": 2.8395588972,
				"z": 3.6069044365,
				"element": "H" 
			},
			{
				"x": 0.2341037193,
				"y": 2.8505084506,
				"z": 4.2122869833,
				"element": "H" 
			},
			{
				"x": -0.8549680418,
				"y": 1.4697621895,
				"z": 4.5641887982,
				"element": "H" 
			},
			{
				"x": 2.6426438858,
				"y": 1.4739170979,
				"z": 0.2479260849,
				"element": "H" 
			},
			{
				"x": 1.6429351721,
				"y": 1.7411630832,
				"z": 1.6205685181,
				"element": "H" 
			},
			{
				"x": -0.7593036548,
				"y": -1.5569252159,
				"z": -3.2594844238,
				"element": "H" 
			},
			{
				"x": -1.8495543215,
				"y": -2.4167067882,
				"z": -2.1707949843,
				"element": "H" 
			},
			{
				"x": -0.1763927411,
				"y": -2.9499838196,
				"z": -2.3420081512,
				"element": "H" 
			},
			{
				"x": -2.9440266516,
				"y": -1.8278379671,
				"z": -0.537006483,
				"element": "H" 
			},
			{
				"x": -3.2194625278,
				"y": -0.2788825322,
				"z": 0.2832905877,
				"element": "H" 
			},
			{
				"x": -2.6313348675,
				"y": -1.6447132541,
				"z": 1.1995741011,
				"element": "H" 
			}
		],
		 "valence_orbital": [ 
			{
				"type": "occ",
				"energy": -0.30025,
				"method": "rhf"
			},
			{
				"type": "occ",
				"energy": -0.29329,
				"method": "rhf"
			},
			{
				"type": "occ",
				"energy": -0.26261,
				"method": "rhf"
			},
			{
				"type": "occ",
				"energy": -0.24127,
				"method": "rhf"
			},
			{
				"type": "occ",
				"energy": -0.19095,
				"method": "rhf"
			},
			{
				"type": "unocc",
				"energy": -0.01644,
				"method": "rhf"
			},
			{
				"type": "unocc",
				"energy": 0.01481,
				"method": "rhf"
			},
			{
				"type": "unocc",
				"energy": 0.02724,
				"method": "rhf"
			},
			{
				"type": "unocc",
				"energy": 0.08322,
				"method": "rhf"
			},
			{
				"type": "unocc",
				"energy": 0.10759,
				"method": "rhf"
			}
		],
		"cosmo_sigma_profile": { 
			"-0.025": 0.0,
			"-0.024": 0.0,
			"-0.023": 0.0,
			"-0.022": 0.0,
			"-0.021": 0.0,
			"-0.02": 0.0,
			"-0.019": 0.0,
			"-0.018": 0.0,
			"-0.017": 0.0,
			"-0.016": 0.0,
			"-0.015": 0.180414785887,
			"-0.014": 1.34127571216,
			"-0.013": 1.41863534616,
			"-0.012": 1.20872872561,
			"-0.011": 1.32183804781,
			"-0.01": 2.90071820451,
			"-0.009": 1.80494586683,
			"-0.008": 1.57703383022,
			"-0.007": 1.76895367037,
			"-0.006": 5.31524586459,
			"-0.005": 10.6962438796,
			"-0.004": 15.8268670165,
			"-0.003": 21.6411515371,
			"-0.002": 17.8075628105,
			"-0.001": 19.0759176105,
			"0.0": 20.0038172351,
			"0.001": 17.9308257037,
			"0.002": 15.0900245784,
			"0.003": 14.6885759913,
			"0.004": 15.4937945661,
			"0.005": 10.8563651165,
			"0.006": 3.7950796197,
			"0.007": 2.94534275802,
			"0.008": 2.21635058667,
			"0.009": 2.49581612074,
			"0.01": 2.42530914762,
			"0.011": 1.44253235408,
			"0.012": 2.8655943595,
			"0.013": 2.86032604252,
			"0.014": 0.0791929957322,
			"0.015": 0.0,
			"0.016": 0.0,
			"0.017": 0.0,
			"0.018": 0.0,
			"0.019": 0.0,
			"0.02": 0.0,
			"0.021": 0.0,
			"0.022": 0.0,
			"0.023": 0.0,
			"0.024": 0.0,
			"0.025": 0.0
		}
	}
}
