{
	 "smiles": "CC1=CC2=C(CCC3=NON=C23)N=N1", 
	 "Tm": 417.15, 
	 "num_atms": 22, 
	 "gaussian": { 
		 "optdone": 1, 
		 "sigma_profile": "yes", 
		 "theory": "DFT", 
		 "functional": "B3LYP", 
		 "basiset": "6-31G**", 
		 "properties": { 
			 "R2extent": 3243.9577, 
			 "electric_dipole_moment_norm": 0.660194213849, 
			 "electric_quadrupole_moment_norm": 20.6550872453, 
			 "total_energy": -641.900769993, 
			 "HOMO_LUMO_gap": 0.15476, 
			 "cosmo_polarized_energy": -13.56, 
			 "cosmo_cavitation_energy": 26.25, 
			 "cosmo_dispersion_energy": -19.81, 
			 "cosmo_repulsion_energy": 1.54, 
			 "cosmo_total_nonelectrostatic_energy": 7.99, 
			 "SMD_solvation_energy": 1.67 
		},
		"coords": [
			{
				"x": 0.5828375525,
				"y": 2.3294352397,
				"z": 2.7759580816,
				"element": "C" 
			},
			{
				"x": 0.0669110615,
				"y": 1.613940694,
				"z": 1.5561845674,
				"element": "C" 
			},
			{
				"x": 0.8273983358,
				"y": 1.5109379791,
				"z": 0.3809656653,
				"element": "C" 
			},
			{
				"x": 0.2720091211,
				"y": 0.827337486,
				"z": -0.6867655581,
				"element": "C" 
			},
			{
				"x": -1.0212759475,
				"y": 0.278261839,
				"z": -0.5113658575,
				"element": "C" 
			},
			{
				"x": -1.6702893607,
				"y": -0.562596257,
				"z": -1.5962186433,
				"element": "C" 
			},
			{
				"x": -1.3347555787,
				"y": -0.0975654003,
				"z": -3.0318409337,
				"element": "C" 
			},
			{
				"x": 0.1318792354,
				"y": 0.1908873167,
				"z": -3.123757903,
				"element": "C" 
			},
			{
				"x": 0.9201285449,
				"y": 0.1249892782,
				"z": -4.1599572303,
				"element": "N" 
			},
			{
				"x": 2.1609873398,
				"y": 0.5322011298,
				"z": -3.696491885,
				"element": "O" 
			},
			{
				"x": 2.1262067428,
				"y": 0.8505876041,
				"z": -2.3626544732,
				"element": "N" 
			},
			{
				"x": 0.8856180859,
				"y": 0.6454257112,
				"z": -1.9971810956,
				"element": "C" 
			},
			{
				"x": -1.7018218152,
				"y": 0.4279198136,
				"z": 0.6249282327,
				"element": "N" 
			},
			{
				"x": -1.1654400503,
				"y": 1.0920196454,
				"z": 1.6516688603,
				"element": "N" 
			},
			{
				"x": -0.1691931328,
				"y": 2.2901739425,
				"z": 3.5652445058,
				"element": "H" 
			},
			{
				"x": 1.5065076419,
				"y": 1.8678766784,
				"z": 3.1421989538,
				"element": "H" 
			},
			{
				"x": 0.8081134809,
				"y": 3.3782328657,
				"z": 2.5529772223,
				"element": "H" 
			},
			{
				"x": 1.8135788245,
				"y": 1.9592870098,
				"z": 0.3060924832,
				"element": "H" 
			},
			{
				"x": -1.3250523375,
				"y": -1.5983352897,
				"z": -1.4707341216,
				"element": "H" 
			},
			{
				"x": -2.7491581752,
				"y": -0.5697051797,
				"z": -1.4271839612,
				"element": "H" 
			},
			{
				"x": -1.6354007589,
				"y": -0.8469027125,
				"z": -3.7682155248,
				"element": "H" 
			},
			{
				"x": -1.8869888104,
				"y": 0.8221906063,
				"z": -3.265251385,
				"element": "H" 
			}
		],
		 "valence_orbital": [ 
			{
				"type": "occ",
				"energy": -0.31658,
				"method": "rhf"
			},
			{
				"type": "occ",
				"energy": -0.31297,
				"method": "rhf"
			},
			{
				"type": "occ",
				"energy": -0.29434,
				"method": "rhf"
			},
			{
				"type": "occ",
				"energy": -0.27582,
				"method": "rhf"
			},
			{
				"type": "occ",
				"energy": -0.24031,
				"method": "rhf"
			},
			{
				"type": "unocc",
				"energy": -0.08555,
				"method": "rhf"
			},
			{
				"type": "unocc",
				"energy": -0.04103,
				"method": "rhf"
			},
			{
				"type": "unocc",
				"energy": -0.03615,
				"method": "rhf"
			},
			{
				"type": "unocc",
				"energy": 0.04206,
				"method": "rhf"
			},
			{
				"type": "unocc",
				"energy": 0.07828,
				"method": "rhf"
			}
		],
		"cosmo_sigma_profile": { 
			"-0.025": 0.0,
			"-0.024": 0.0,
			"-0.023": 0.0,
			"-0.022": 0.0,
			"-0.021": 0.0,
			"-0.02": 0.0,
			"-0.019": 0.0,
			"-0.018": 0.0,
			"-0.017": 0.0,
			"-0.016": 0.0,
			"-0.015": 0.0,
			"-0.014": 0.0,
			"-0.013": 0.0,
			"-0.012": 0.0,
			"-0.011": 0.0,
			"-0.01": 0.0,
			"-0.009": 0.613359862688,
			"-0.008": 2.50556410132,
			"-0.007": 9.26620008505,
			"-0.006": 15.8501987569,
			"-0.005": 20.9309020127,
			"-0.004": 20.2635993548,
			"-0.003": 20.877591757,
			"-0.002": 20.9403286622,
			"-0.001": 16.5995009391,
			"0.0": 8.44306895747,
			"0.001": 6.1273195487,
			"0.002": 5.86063844247,
			"0.003": 4.61229909154,
			"0.004": 7.20696133859,
			"0.005": 10.5513020877,
			"0.006": 7.85447078244,
			"0.007": 5.56751929717,
			"0.008": 5.12161224127,
			"0.009": 3.25210941971,
			"0.01": 4.15800778837,
			"0.011": 3.61232959243,
			"0.012": 2.35121192673,
			"0.013": 2.61783987299,
			"0.014": 2.19306020202,
			"0.015": 2.20225184938,
			"0.016": 0.76504108427,
			"0.017": 0.0,
			"0.018": 0.0,
			"0.019": 0.0,
			"0.02": 0.0,
			"0.021": 0.0,
			"0.022": 0.0,
			"0.023": 0.0,
			"0.024": 0.0,
			"0.025": 0.0
		}
	}
}
