{
	 "smiles": "CC1=NOC(N)=C1S(N)(=O)=O", 
	 "Tm": 405.15, 
	 "num_atms": 18, 
	 "gaussian": { 
		 "optdone": 1, 
		 "sigma_profile": "yes", 
		 "theory": "DFT", 
		 "functional": "B3LYP", 
		 "basiset": "6-31G**", 
		 "properties": { 
			 "R2extent": 2974.4694, 
			 "electric_dipole_moment_norm": 2.87263763291, 
			 "electric_quadrupole_moment_norm": 17.2841604656, 
			 "total_energy": -944.651087322, 
			 "HOMO_LUMO_gap": 0.23702, 
			 "cosmo_polarized_energy": -18.85, 
			 "cosmo_cavitation_energy": 23.63, 
			 "cosmo_dispersion_energy": -18.13, 
			 "cosmo_repulsion_energy": 1.43, 
			 "cosmo_total_nonelectrostatic_energy": 6.93, 
			 "SMD_solvation_energy": 3.92 
		},
		"coords": [
			{
				"x": 1.5735743619,
				"y": -3.3711023235,
				"z": 0.822167794,
				"element": "C" 
			},
			{
				"x": 1.0970097023,
				"y": -2.0321247166,
				"z": 0.36088223,
				"element": "C" 
			},
			{
				"x": 0.8940263917,
				"y": -1.8025750193,
				"z": -0.9112198253,
				"element": "N" 
			},
			{
				"x": 0.4405519471,
				"y": -0.4380193039,
				"z": -0.9854138162,
				"element": "O" 
			},
			{
				"x": 0.3952530315,
				"y": 0.0781538417,
				"z": 0.2444285734,
				"element": "C" 
			},
			{
				"x": 0.0213542234,
				"y": 1.3635484512,
				"z": 0.3871743553,
				"element": "N" 
			},
			{
				"x": 0.8083268856,
				"y": -0.8791367082,
				"z": 1.1593213196,
				"element": "C" 
			},
			{
				"x": 0.8129176781,
				"y": -0.6927334159,
				"z": 2.8831252407,
				"element": "S" 
			},
			{
				"x": 2.447928206,
				"y": -0.8727639663,
				"z": 3.285399469,
				"element": "N" 
			},
			{
				"x": 0.3684463844,
				"y": 0.6939118734,
				"z": 3.1354658292,
				"element": "O" 
			},
			{
				"x": 0.1490413643,
				"y": -1.8154054475,
				"z": 3.5478617348,
				"element": "O" 
			},
			{
				"x": 0.8639952345,
				"y": -3.7980098766,
				"z": 1.5369613116,
				"element": "H" 
			},
			{
				"x": 2.5364451253,
				"y": -3.273201671,
				"z": 1.3330257068,
				"element": "H" 
			},
			{
				"x": 1.6820143709,
				"y": -4.0426337461,
				"z": -0.0311300458,
				"element": "H" 
			},
			{
				"x": -0.4608225166,
				"y": 1.806713316,
				"z": -0.3793224677,
				"element": "H" 
			},
			{
				"x": -0.1660797846,
				"y": 1.6618536159,
				"z": 1.3370116071,
				"element": "H" 
			},
			{
				"x": 2.5060956986,
				"y": -1.2292718137,
				"z": 4.237097105,
				"element": "H" 
			},
			{
				"x": 2.9428216956,
				"y": 0.0120969104,
				"z": 3.1972638783,
				"element": "H" 
			}
		],
		 "valence_orbital": [ 
			{
				"type": "occ",
				"energy": -0.32141,
				"method": "rhf"
			},
			{
				"type": "occ",
				"energy": -0.30649,
				"method": "rhf"
			},
			{
				"type": "occ",
				"energy": -0.30461,
				"method": "rhf"
			},
			{
				"type": "occ",
				"energy": -0.29019,
				"method": "rhf"
			},
			{
				"type": "occ",
				"energy": -0.2381,
				"method": "rhf"
			},
			{
				"type": "unocc",
				"energy": -0.00108,
				"method": "rhf"
			},
			{
				"type": "unocc",
				"energy": 0.01318,
				"method": "rhf"
			},
			{
				"type": "unocc",
				"energy": 0.05357,
				"method": "rhf"
			},
			{
				"type": "unocc",
				"energy": 0.05795,
				"method": "rhf"
			},
			{
				"type": "unocc",
				"energy": 0.07611,
				"method": "rhf"
			}
		],
		"cosmo_sigma_profile": { 
			"-0.025": 0.0,
			"-0.024": 0.0,
			"-0.023": 0.0,
			"-0.022": 0.0,
			"-0.021": 0.0,
			"-0.02": 0.0,
			"-0.019": 0.0,
			"-0.018": 0.0,
			"-0.017": 0.0,
			"-0.016": 1.04009726914,
			"-0.015": 3.12405711026,
			"-0.014": 4.44453800301,
			"-0.013": 3.80043100406,
			"-0.012": 4.37515463363,
			"-0.011": 4.28499961319,
			"-0.01": 3.7257011822,
			"-0.009": 3.39393422053,
			"-0.008": 2.30395981736,
			"-0.007": 2.62061596934,
			"-0.006": 4.91675689934,
			"-0.005": 6.83228016852,
			"-0.004": 10.2141160625,
			"-0.003": 10.8597790597,
			"-0.002": 12.8847938878,
			"-0.001": 12.6565659706,
			"0.0": 9.8747402889,
			"0.001": 8.53952931312,
			"0.002": 8.99102322866,
			"0.003": 7.57372910817,
			"0.004": 5.78736460011,
			"0.005": 5.55822536017,
			"0.006": 5.88665017357,
			"0.007": 8.69994559851,
			"0.008": 6.80552100177,
			"0.009": 5.95576180142,
			"0.01": 6.90192381525,
			"0.011": 9.39463755526,
			"0.012": 3.82048986761,
			"0.013": 1.55541989835,
			"0.014": 0.711649540948,
			"0.015": 0.00956442212365,
			"0.016": 0.0,
			"0.017": 0.0,
			"0.018": 0.0,
			"0.019": 0.0,
			"0.02": 0.0,
			"0.021": 0.0,
			"0.022": 0.0,
			"0.023": 0.0,
			"0.024": 0.0,
			"0.025": 0.0
		}
	}
}
