{
	 "smiles": "[O-][N+](=O)C1=C(S)C=CN=C1", 
	 "Tm": 383.15, 
	 "num_atms": 14, 
	 "gaussian": { 
		 "optdone": 1, 
		 "sigma_profile": "yes", 
		 "theory": "DFT", 
		 "functional": "B3LYP", 
		 "basiset": "6-31G**", 
		 "properties": { 
			 "R2extent": 2588.055, 
			 "electric_dipole_moment_norm": 2.87317930001, 
			 "electric_quadrupole_moment_norm": 6.161035077, 
			 "total_energy": -850.961807914, 
			 "HOMO_LUMO_gap": 0.15431, 
			 "cosmo_polarized_energy": -8.33, 
			 "cosmo_cavitation_energy": 20.47, 
			 "cosmo_dispersion_energy": -16.07, 
			 "cosmo_repulsion_energy": 1.23, 
			 "cosmo_total_nonelectrostatic_energy": 5.63, 
			 "SMD_solvation_energy": 3.61 
		},
		"coords": [
			{
				"x": -2.3661466702,
				"y": -0.8253537889,
				"z": 3.0310221493,
				"element": "O" 
			},
			{
				"x": -1.3086970825,
				"y": -0.2152607001,
				"z": 2.9032407621,
				"element": "N" 
			},
			{
				"x": -1.0212954888,
				"y": 0.7818372022,
				"z": 3.5813336004,
				"element": "O" 
			},
			{
				"x": -0.357530728,
				"y": -0.7015356036,
				"z": 1.8997750816,
				"element": "C" 
			},
			{
				"x": 0.9032271146,
				"y": -0.1180047846,
				"z": 1.6384761062,
				"element": "C" 
			},
			{
				"x": 1.6687472616,
				"y": 1.2793921699,
				"z": 2.3888861384,
				"element": "S" 
			},
			{
				"x": 1.6583185034,
				"y": -0.7486369023,
				"z": 0.6298427008,
				"element": "C" 
			},
			{
				"x": 1.1606749808,
				"y": -1.8581566159,
				"z": -0.0322880156,
				"element": "C" 
			},
			{
				"x": -0.0403924425,
				"y": -2.4095386593,
				"z": 0.2195829161,
				"element": "N" 
			},
			{
				"x": -0.7671530666,
				"y": -1.8309101757,
				"z": 1.1664846526,
				"element": "C" 
			},
			{
				"x": 0.6541583931,
				"y": 1.5493980658,
				"z": 3.2344003419,
				"element": "H" 
			},
			{
				"x": 2.6375209384,
				"y": -0.3574827269,
				"z": 0.3733159075,
				"element": "H" 
			},
			{
				"x": 1.7539506027,
				"y": -2.3355543578,
				"z": -0.8092170577,
				"element": "H" 
			},
			{
				"x": -1.7389823161,
				"y": -2.2595931227,
				"z": 1.3856447164,
				"element": "H" 
			}
		],
		 "valence_orbital": [ 
			{
				"type": "occ",
				"energy": -0.32868,
				"method": "rhf"
			},
			{
				"type": "occ",
				"energy": -0.30617,
				"method": "rhf"
			},
			{
				"type": "occ",
				"energy": -0.30038,
				"method": "rhf"
			},
			{
				"type": "occ",
				"energy": -0.28228,
				"method": "rhf"
			},
			{
				"type": "occ",
				"energy": -0.26284,
				"method": "rhf"
			},
			{
				"type": "unocc",
				"energy": -0.10853,
				"method": "rhf"
			},
			{
				"type": "unocc",
				"energy": -0.05225,
				"method": "rhf"
			},
			{
				"type": "unocc",
				"energy": -0.01939,
				"method": "rhf"
			},
			{
				"type": "unocc",
				"energy": 0.00345,
				"method": "rhf"
			},
			{
				"type": "unocc",
				"energy": 0.06729,
				"method": "rhf"
			}
		],
		"cosmo_sigma_profile": { 
			"-0.025": 0.0,
			"-0.024": 0.0,
			"-0.023": 0.0,
			"-0.022": 0.0,
			"-0.021": 0.0,
			"-0.02": 0.0,
			"-0.019": 0.0,
			"-0.018": 0.0,
			"-0.017": 0.0,
			"-0.016": 0.0,
			"-0.015": 0.0,
			"-0.014": 0.0,
			"-0.013": 0.0,
			"-0.012": 0.0,
			"-0.011": 0.0,
			"-0.01": 0.458003458106,
			"-0.009": 2.57801392101,
			"-0.008": 7.21524080898,
			"-0.007": 9.35373715747,
			"-0.006": 7.96696691115,
			"-0.005": 8.63143778591,
			"-0.004": 9.80439975403,
			"-0.003": 12.1714059105,
			"-0.002": 14.2191664801,
			"-0.001": 13.9149369845,
			"0.0": 13.7427673806,
			"0.001": 8.47242826125,
			"0.002": 7.96957769682,
			"0.003": 7.40189381913,
			"0.004": 7.8470123546,
			"0.005": 6.5481009762,
			"0.006": 7.62200389303,
			"0.007": 6.64540765697,
			"0.008": 5.13315908391,
			"0.009": 4.20688002886,
			"0.01": 2.17398154707,
			"0.011": 0.928770213797,
			"0.012": 0.74591528643,
			"0.013": 0.686993374865,
			"0.014": 1.06491595343,
			"0.015": 0.629613903845,
			"0.016": 0.0329521313768,
			"0.017": 0.0,
			"0.018": 0.0,
			"0.019": 0.0,
			"0.02": 0.0,
			"0.021": 0.0,
			"0.022": 0.0,
			"0.023": 0.0,
			"0.024": 0.0,
			"0.025": 0.0
		}
	}
}
