{
	 "smiles": "COCCN1C(C)=CC(C=O)=C1C", 
	 "Tm": 318.15, 
	 "num_atms": 28, 
	 "gaussian": { 
		 "optdone": 1, 
		 "sigma_profile": "yes", 
		 "theory": "DFT", 
		 "functional": "B3LYP", 
		 "basiset": "6-31G**", 
		 "properties": { 
			 "R2extent": 3446.6852, 
			 "electric_dipole_moment_norm": 7.31986510668, 
			 "electric_quadrupole_moment_norm": 21.8268547019, 
			 "total_energy": -595.281502575, 
			 "HOMO_LUMO_gap": 0.18547, 
			 "cosmo_polarized_energy": -16.16, 
			 "cosmo_cavitation_energy": 30.78, 
			 "cosmo_dispersion_energy": -21.26, 
			 "cosmo_repulsion_energy": 1.67, 
			 "cosmo_total_nonelectrostatic_energy": 11.2, 
			 "SMD_solvation_energy": 6.63 
		},
		"coords": [
			{
				"x": -1.3371102503,
				"y": -1.5081175946,
				"z": -3.1350268542,
				"element": "C" 
			},
			{
				"x": -1.7223287574,
				"y": -1.4438235434,
				"z": -1.7738971161,
				"element": "O" 
			},
			{
				"x": -1.6538519502,
				"y": -0.143175493,
				"z": -1.2191947866,
				"element": "C" 
			},
			{
				"x": -0.2622718017,
				"y": 0.2353410889,
				"z": -0.6811626724,
				"element": "C" 
			},
			{
				"x": 0.0864634955,
				"y": -0.4058114563,
				"z": 0.5806710402,
				"element": "N" 
			},
			{
				"x": 0.7454305092,
				"y": -1.6340430175,
				"z": 0.7192531947,
				"element": "C" 
			},
			{
				"x": 1.2017736211,
				"y": -2.4417677288,
				"z": -0.4525656087,
				"element": "C" 
			},
			{
				"x": 0.8596797742,
				"y": -1.8914263262,
				"z": 2.0586703703,
				"element": "C" 
			},
			{
				"x": 0.2595662677,
				"y": -0.8060767053,
				"z": 2.7718479273,
				"element": "C" 
			},
			{
				"x": 0.1729250518,
				"y": -0.686630548,
				"z": 4.217855305,
				"element": "C" 
			},
			{
				"x": 0.6089523192,
				"y": -1.508195725,
				"z": 5.0114923701,
				"element": "O" 
			},
			{
				"x": -0.2131718129,
				"y": 0.1029651434,
				"z": 1.8254812992,
				"element": "C" 
			},
			{
				"x": -0.9002150326,
				"y": 1.4198942395,
				"z": 2.0104525191,
				"element": "C" 
			},
			{
				"x": -1.9602889688,
				"y": -0.8500761209,
				"z": -3.7594501648,
				"element": "H" 
			},
			{
				"x": -1.4797316485,
				"y": -2.5416998962,
				"z": -3.4581862127,
				"element": "H" 
			},
			{
				"x": -0.2821134785,
				"y": -1.2375223099,
				"z": -3.2923923321,
				"element": "H" 
			},
			{
				"x": -1.9605869082,
				"y": 0.6096375479,
				"z": -1.9634118297,
				"element": "H" 
			},
			{
				"x": -2.3768885743,
				"y": -0.1185240395,
				"z": -0.3974448267,
				"element": "H" 
			},
			{
				"x": 0.5050792084,
				"y": -0.008489805,
				"z": -1.4210075667,
				"element": "H" 
			},
			{
				"x": -0.2256952027,
				"y": 1.3194266132,
				"z": -0.5365552616,
				"element": "H" 
			},
			{
				"x": 0.3621663891,
				"y": -2.7348594366,
				"z": -1.0903346619,
				"element": "H" 
			},
			{
				"x": 1.9285436574,
				"y": -1.9047726254,
				"z": -1.0769136427,
				"element": "H" 
			},
			{
				"x": 1.6917071407,
				"y": -3.3487235539,
				"z": -0.0912231518,
				"element": "H" 
			},
			{
				"x": 1.3207673953,
				"y": -2.7573899864,
				"z": 2.5107136306,
				"element": "H" 
			},
			{
				"x": -0.3342471739,
				"y": 0.2315106289,
				"z": 4.593010224,
				"element": "H" 
			},
			{
				"x": -1.0367030764,
				"y": 1.6250024284,
				"z": 3.0733402525,
				"element": "H" 
			},
			{
				"x": -0.3195629929,
				"y": 2.2520147497,
				"z": 1.5913603296,
				"element": "H" 
			},
			{
				"x": -1.8922872005,
				"y": 1.4467334723,
				"z": 1.5432182261,
				"element": "H" 
			}
		],
		 "valence_orbital": [ 
			{
				"type": "occ",
				"energy": -0.33087,
				"method": "rhf"
			},
			{
				"type": "occ",
				"energy": -0.27605,
				"method": "rhf"
			},
			{
				"type": "occ",
				"energy": -0.2339,
				"method": "rhf"
			},
			{
				"type": "occ",
				"energy": -0.22623,
				"method": "rhf"
			},
			{
				"type": "occ",
				"energy": -0.20486,
				"method": "rhf"
			},
			{
				"type": "unocc",
				"energy": -0.01939,
				"method": "rhf"
			},
			{
				"type": "unocc",
				"energy": 0.03869,
				"method": "rhf"
			},
			{
				"type": "unocc",
				"energy": 0.06409,
				"method": "rhf"
			},
			{
				"type": "unocc",
				"energy": 0.08135,
				"method": "rhf"
			},
			{
				"type": "unocc",
				"energy": 0.089,
				"method": "rhf"
			}
		],
		"cosmo_sigma_profile": { 
			"-0.025": 0.0,
			"-0.024": 0.0,
			"-0.023": 0.0,
			"-0.022": 0.0,
			"-0.021": 0.0,
			"-0.02": 0.0,
			"-0.019": 0.0,
			"-0.018": 0.0,
			"-0.017": 0.0,
			"-0.016": 0.0,
			"-0.015": 0.0,
			"-0.014": 0.0,
			"-0.013": 0.0,
			"-0.012": 0.0,
			"-0.011": 0.0,
			"-0.01": 0.0,
			"-0.009": 0.0,
			"-0.008": 0.0,
			"-0.007": 3.4117611495,
			"-0.006": 15.0142777504,
			"-0.005": 23.464473837,
			"-0.004": 29.3482859362,
			"-0.003": 26.4932144775,
			"-0.002": 28.5089759344,
			"-0.001": 21.4483751447,
			"0.0": 14.4689183995,
			"0.001": 9.57436586492,
			"0.002": 6.74960733454,
			"0.003": 7.05657811687,
			"0.004": 7.14342630018,
			"0.005": 9.3629205115,
			"0.006": 8.16874063555,
			"0.007": 5.58310036709,
			"0.008": 3.5052942642,
			"0.009": 2.70151278392,
			"0.01": 2.76440995302,
			"0.011": 3.43348438928,
			"0.012": 4.27008802186,
			"0.013": 5.99720512185,
			"0.014": 2.83131465612,
			"0.015": 0.497736967784,
			"0.016": 0.0,
			"0.017": 0.0,
			"0.018": 0.0,
			"0.019": 0.0,
			"0.02": 0.0,
			"0.021": 0.0,
			"0.022": 0.0,
			"0.023": 0.0,
			"0.024": 0.0,
			"0.025": 0.0
		}
	}
}
