{
	 "smiles": "CN1C=CC=C1C(O)=O", 
	 "Tm": 410.15, 
	 "num_atms": 16, 
	 "gaussian": { 
		 "optdone": 1, 
		 "sigma_profile": "yes", 
		 "theory": "DFT", 
		 "functional": "B3LYP", 
		 "basiset": "6-31G**", 
		 "properties": { 
			 "R2extent": 1199.2795, 
			 "electric_dipole_moment_norm": 3.8272561921, 
			 "electric_quadrupole_moment_norm": 11.471536466, 
			 "total_energy": -438.054910324, 
			 "HOMO_LUMO_gap": 0.2027, 
			 "cosmo_polarized_energy": -13.27, 
			 "cosmo_cavitation_energy": 19.98, 
			 "cosmo_dispersion_energy": -14.9, 
			 "cosmo_repulsion_energy": 1.2, 
			 "cosmo_total_nonelectrostatic_energy": 6.29, 
			 "SMD_solvation_energy": 5.02 
		},
		"coords": [
			{
				"x": -2.3683864187,
				"y": 0.413161518,
				"z": -0.5545660103,
				"element": "C" 
			},
			{
				"x": -1.0345211934,
				"y": 0.922545981,
				"z": -0.2456082625,
				"element": "N" 
			},
			{
				"x": -0.5594702608,
				"y": 2.133554016,
				"z": -0.6546014414,
				"element": "C" 
			},
			{
				"x": 0.7350445971,
				"y": 2.2991495265,
				"z": -0.1891248965,
				"element": "C" 
			},
			{
				"x": 1.0588069571,
				"y": 1.1329116297,
				"z": 0.5314493388,
				"element": "C" 
			},
			{
				"x": -0.0464722823,
				"y": 0.282512304,
				"z": 0.4875508292,
				"element": "C" 
			},
			{
				"x": -0.2576077798,
				"y": -1.0404529795,
				"z": 1.0849129133,
				"element": "C" 
			},
			{
				"x": 0.8423547295,
				"y": -1.6230805099,
				"z": 1.6375011701,
				"element": "O" 
			},
			{
				"x": -1.323102692,
				"y": -1.6227216965,
				"z": 1.1175140531,
				"element": "O" 
			},
			{
				"x": -2.9427777978,
				"y": 0.2572757272,
				"z": 0.3592415358,
				"element": "H" 
			},
			{
				"x": -2.3041843689,
				"y": -0.5420985472,
				"z": -1.0776562915,
				"element": "H" 
			},
			{
				"x": -2.8686298091,
				"y": 1.1467643851,
				"z": -1.1893070647,
				"element": "H" 
			},
			{
				"x": -1.1778084091,
				"y": 2.7907341265,
				"z": -1.2492182327,
				"element": "H" 
			},
			{
				"x": 1.3624795061,
				"y": 3.1637319043,
				"z": -0.3501892418,
				"element": "H" 
			},
			{
				"x": 1.9905974772,
				"y": 0.9490536813,
				"z": 1.051566242,
				"element": "H" 
			},
			{
				"x": 1.6317777449,
				"y": -1.0994410664,
				"z": 1.4434353591,
				"element": "H" 
			}
		],
		 "valence_orbital": [ 
			{
				"type": "occ",
				"energy": -0.37984,
				"method": "rhf"
			},
			{
				"type": "occ",
				"energy": -0.30888,
				"method": "rhf"
			},
			{
				"type": "occ",
				"energy": -0.26853,
				"method": "rhf"
			},
			{
				"type": "occ",
				"energy": -0.25402,
				"method": "rhf"
			},
			{
				"type": "occ",
				"energy": -0.23078,
				"method": "rhf"
			},
			{
				"type": "unocc",
				"energy": -0.02808,
				"method": "rhf"
			},
			{
				"type": "unocc",
				"energy": 0.0511,
				"method": "rhf"
			},
			{
				"type": "unocc",
				"energy": 0.06464,
				"method": "rhf"
			},
			{
				"type": "unocc",
				"energy": 0.10209,
				"method": "rhf"
			},
			{
				"type": "unocc",
				"energy": 0.10553,
				"method": "rhf"
			}
		],
		"cosmo_sigma_profile": { 
			"-0.025": 0.0,
			"-0.024": 0.0,
			"-0.023": 0.0,
			"-0.022": 0.0,
			"-0.021": 0.0,
			"-0.02": 0.0,
			"-0.019": 0.0,
			"-0.018": 0.351730423536,
			"-0.017": 1.05744911815,
			"-0.016": 0.68598677397,
			"-0.015": 1.63668729719,
			"-0.014": 0.906005697091,
			"-0.013": 0.836304703486,
			"-0.012": 0.470217524479,
			"-0.011": 1.70639610411,
			"-0.01": 1.27142352861,
			"-0.009": 1.41254654117,
			"-0.008": 4.72588309235,
			"-0.007": 5.80904367559,
			"-0.006": 6.46071260425,
			"-0.005": 9.16264827903,
			"-0.004": 10.5686140465,
			"-0.003": 13.5587138904,
			"-0.002": 12.9525656469,
			"-0.001": 8.87555379791,
			"0.0": 8.4034857691,
			"0.001": 7.27153422568,
			"0.002": 7.72770034605,
			"0.003": 7.05746120621,
			"0.004": 6.95294575679,
			"0.005": 7.26588466495,
			"0.006": 6.70598872127,
			"0.007": 3.533468213,
			"0.008": 2.11856834886,
			"0.009": 3.11851640473,
			"0.01": 3.4474132938,
			"0.011": 4.95635938469,
			"0.012": 4.02766678871,
			"0.013": 3.13481811901,
			"0.014": 1.05131107146,
			"0.015": 0.0,
			"0.016": 0.0,
			"0.017": 0.0,
			"0.018": 0.0,
			"0.019": 0.0,
			"0.02": 0.0,
			"0.021": 0.0,
			"0.022": 0.0,
			"0.023": 0.0,
			"0.024": 0.0,
			"0.025": 0.0
		}
	}
}
