{
	 "smiles": "CC1=NC2=C(C(=CS2)C2=CC=CC=C2)C(=O)N1NC(=O)C1=C(Cl)C=C(Cl)C=C1", 
	 "Tm": 564.15, 
	 "num_atms": 41, 
	 "gaussian": { 
		 "optdone": 1, 
		 "sigma_profile": "yes", 
		 "theory": "DFT", 
		 "functional": "B3LYP", 
		 "basiset": "6-31G**", 
		 "properties": { 
			 "R2extent": 12904.9747, 
			 "electric_dipole_moment_norm": 3.02335848189, 
			 "electric_quadrupole_moment_norm": 18.0827589601, 
			 "total_energy": -2403.23256139, 
			 "HOMO_LUMO_gap": 0.16486, 
			 "cosmo_polarized_energy": -17.61, 
			 "cosmo_cavitation_energy": 50.97, 
			 "cosmo_dispersion_energy": -34.59, 
			 "cosmo_repulsion_energy": 2.58, 
			 "cosmo_total_nonelectrostatic_energy": 18.96, 
			 "SMD_solvation_energy": 7.38 
		},
		"coords": [
			{
				"x": 1.0912488798,
				"y": -2.0325829976,
				"z": 3.1829463874,
				"element": "C" 
			},
			{
				"x": 0.1381080112,
				"y": -1.2500640845,
				"z": 2.3313405042,
				"element": "C" 
			},
			{
				"x": -1.0375608811,
				"y": -1.7385466882,
				"z": 2.0582059168,
				"element": "N" 
			},
			{
				"x": -1.8623294446,
				"y": -0.9597361616,
				"z": 1.3098564975,
				"element": "C" 
			},
			{
				"x": -1.6083103466,
				"y": 0.3243432896,
				"z": 0.8255603279,
				"element": "C" 
			},
			{
				"x": -2.7050577331,
				"y": 0.8662968772,
				"z": 0.0494095797,
				"element": "C" 
			},
			{
				"x": -3.7370985194,
				"y": -0.0357332732,
				"z": -0.0125748411,
				"element": "C" 
			},
			{
				"x": -3.439668009,
				"y": -1.5249220078,
				"z": 0.8356481473,
				"element": "S" 
			},
			{
				"x": -2.7859924604,
				"y": 2.186023535,
				"z": -0.6235529515,
				"element": "C" 
			},
			{
				"x": -2.4052195965,
				"y": 3.3745123798,
				"z": 0.02008176,
				"element": "C" 
			},
			{
				"x": -2.5575953592,
				"y": 4.6042308885,
				"z": -0.6173363058,
				"element": "C" 
			},
			{
				"x": -3.089925174,
				"y": 4.6724313042,
				"z": -1.9066940148,
				"element": "C" 
			},
			{
				"x": -3.4676222186,
				"y": 3.4978659239,
				"z": -2.5586625102,
				"element": "C" 
			},
			{
				"x": -3.3158731547,
				"y": 2.266203347,
				"z": -1.9228029057,
				"element": "C" 
			},
			{
				"x": -0.3072180196,
				"y": 0.8908442038,
				"z": 1.1072594212,
				"element": "C" 
			},
			{
				"x": 0.1419311866,
				"y": 1.9837821229,
				"z": 0.7870999839,
				"element": "O" 
			},
			{
				"x": 0.5329723903,
				"y": -0.0054333524,
				"z": 1.8583100674,
				"element": "N" 
			},
			{
				"x": 1.7874224107,
				"y": 0.4804793802,
				"z": 2.2196443377,
				"element": "N" 
			},
			{
				"x": 2.8214142956,
				"y": 0.658609192,
				"z": 1.2897755295,
				"element": "C" 
			},
			{
				"x": 3.735718036,
				"y": 1.4093101357,
				"z": 1.5559217675,
				"element": "O" 
			},
			{
				"x": 2.7850737357,
				"y": -0.158019723,
				"z": 0.0191837925,
				"element": "C" 
			},
			{
				"x": 3.5404207652,
				"y": -1.3289571888,
				"z": -0.1217184805,
				"element": "C" 
			},
			{
				"x": 4.4585655442,
				"y": -1.9681311179,
				"z": 1.2332805995,
				"element": "Cl" 
			},
			{
				"x": 3.5956279597,
				"y": -2.0225749901,
				"z": -1.3297738397,
				"element": "C" 
			},
			{
				"x": 2.8917751067,
				"y": -1.5183993636,
				"z": -2.4217090845,
				"element": "C" 
			},
			{
				"x": 2.9565416835,
				"y": -2.3812504421,
				"z": -3.9460012812,
				"element": "Cl" 
			},
			{
				"x": 2.1461872158,
				"y": -0.3448157583,
				"z": -2.3230259483,
				"element": "C" 
			},
			{
				"x": 2.1014303372,
				"y": 0.3274029745,
				"z": -1.1038467753,
				"element": "C" 
			},
			{
				"x": 0.5981346117,
				"y": -2.9619117043,
				"z": 3.4662519488,
				"element": "H" 
			},
			{
				"x": 2.019497403,
				"y": -2.2549868357,
				"z": 2.6503390805,
				"element": "H" 
			},
			{
				"x": 1.3663956867,
				"y": -1.4733443732,
				"z": 4.0826300486,
				"element": "H" 
			},
			{
				"x": -4.6898506679,
				"y": 0.1149199241,
				"z": -0.5008044987,
				"element": "H" 
			},
			{
				"x": -1.9845536635,
				"y": 3.333825043,
				"z": 1.0173162031,
				"element": "H" 
			},
			{
				"x": -2.2591091843,
				"y": 5.5132607985,
				"z": -0.1032148758,
				"element": "H" 
			},
			{
				"x": -3.2036939638,
				"y": 5.6329815669,
				"z": -2.4008412763,
				"element": "H" 
			},
			{
				"x": -3.8731509039,
				"y": 3.5374810092,
				"z": -3.5656612942,
				"element": "H" 
			},
			{
				"x": -3.5904403238,
				"y": 1.3524642425,
				"z": -2.4419781647,
				"element": "H" 
			},
			{
				"x": 1.7499377158,
				"y": 1.2504043536,
				"z": 2.8825905935,
				"element": "H" 
			},
			{
				"x": 4.1803450734,
				"y": -2.9299487343,
				"z": -1.4157526904,
				"element": "H" 
			},
			{
				"x": 1.6127212687,
				"y": 0.0386158516,
				"z": -3.1849829179,
				"element": "H" 
			},
			{
				"x": 1.5279003063,
				"y": 1.2434704528,
				"z": -1.0121178373,
				"element": "H" 
			}
		],
		 "valence_orbital": [ 
			{
				"type": "occ",
				"energy": -0.27174,
				"method": "rhf"
			},
			{
				"type": "occ",
				"energy": -0.25789,
				"method": "rhf"
			},
			{
				"type": "occ",
				"energy": -0.25307,
				"method": "rhf"
			},
			{
				"type": "occ",
				"energy": -0.25029,
				"method": "rhf"
			},
			{
				"type": "occ",
				"energy": -0.22445,
				"method": "rhf"
			},
			{
				"type": "unocc",
				"energy": -0.05959,
				"method": "rhf"
			},
			{
				"type": "unocc",
				"energy": -0.03947,
				"method": "rhf"
			},
			{
				"type": "unocc",
				"energy": -0.03634,
				"method": "rhf"
			},
			{
				"type": "unocc",
				"energy": -0.03217,
				"method": "rhf"
			},
			{
				"type": "unocc",
				"energy": -0.0134,
				"method": "rhf"
			}
		],
		"cosmo_sigma_profile": { 
			"-0.025": 0.0,
			"-0.024": 0.0,
			"-0.023": 0.0,
			"-0.022": 0.0,
			"-0.021": 0.0,
			"-0.02": 0.0,
			"-0.019": 0.0,
			"-0.018": 0.0,
			"-0.017": 0.0,
			"-0.016": 0.35039470941,
			"-0.015": 1.46139552698,
			"-0.014": 0.768229055626,
			"-0.013": 0.88882085166,
			"-0.012": 1.29254388243,
			"-0.011": 0.824350549172,
			"-0.01": 1.51530092045,
			"-0.009": 4.0663241837,
			"-0.008": 6.71773154311,
			"-0.007": 9.35938658129,
			"-0.006": 15.3166784226,
			"-0.005": 23.0159859222,
			"-0.004": 25.0492349616,
			"-0.003": 28.8285923554,
			"-0.002": 32.755615223,
			"-0.001": 34.111854099,
			"0.0": 42.3102992745,
			"0.001": 43.3497855408,
			"0.002": 33.6963307016,
			"0.003": 32.1144247668,
			"0.004": 23.9082478408,
			"0.005": 14.4554072981,
			"0.006": 9.27015992663,
			"0.007": 4.51585203003,
			"0.008": 3.98515805181,
			"0.009": 4.89672431136,
			"0.01": 5.48013298138,
			"0.011": 8.51214420894,
			"0.012": 4.0656009148,
			"0.013": 0.225052882691,
			"0.014": 0.0,
			"0.015": 0.0,
			"0.016": 0.0,
			"0.017": 0.0,
			"0.018": 0.0,
			"0.019": 0.0,
			"0.02": 0.0,
			"0.021": 0.0,
			"0.022": 0.0,
			"0.023": 0.0,
			"0.024": 0.0,
			"0.025": 0.0
		}
	}
}
