{
	 "smiles": "N1C=CC(=N1)C1=CC=CS1", 
	 "Tm": 371.15, 
	 "num_atms": 16, 
	 "gaussian": { 
		 "optdone": 1, 
		 "sigma_profile": "yes", 
		 "theory": "DFT", 
		 "functional": "B3LYP", 
		 "basiset": "6-31G**", 
		 "properties": { 
			 "R2extent": 2571.7589, 
			 "electric_dipole_moment_norm": 2.13661639514, 
			 "electric_quadrupole_moment_norm": 13.4688240489, 
			 "total_energy": -778.014562808, 
			 "HOMO_LUMO_gap": 0.18097, 
			 "cosmo_polarized_energy": -10.88, 
			 "cosmo_cavitation_energy": 21.93, 
			 "cosmo_dispersion_energy": -17.14, 
			 "cosmo_repulsion_energy": 1.33, 
			 "cosmo_total_nonelectrostatic_energy": 6.12, 
			 "SMD_solvation_energy": 3.24 
		},
		"coords": [
			{
				"x": 0.924393121,
				"y": 1.0874934002,
				"z": -1.417397331,
				"element": "N" 
			},
			{
				"x": -0.2159819075,
				"y": 0.3528899298,
				"z": -1.4958765231,
				"element": "C" 
			},
			{
				"x": -0.5964528057,
				"y": 0.0932385465,
				"z": -0.1971343798,
				"element": "C" 
			},
			{
				"x": 0.3938800288,
				"y": 0.7228740421,
				"z": 0.6076121145,
				"element": "C" 
			},
			{
				"x": 1.3191058094,
				"y": 1.3278640043,
				"z": -0.1519535706,
				"element": "N" 
			},
			{
				"x": 0.4946996837,
				"y": 0.7717711586,
				"z": 2.0615987101,
				"element": "C" 
			},
			{
				"x": 1.4601245467,
				"y": 1.385561826,
				"z": 2.8251259795,
				"element": "C" 
			},
			{
				"x": 1.250643248,
				"y": 1.2350815854,
				"z": 4.2257842081,
				"element": "C" 
			},
			{
				"x": 0.1295850021,
				"y": 0.5092160502,
				"z": 4.5235209312,
				"element": "C" 
			},
			{
				"x": -0.6932965488,
				"y": -0.0051314858,
				"z": 3.0849656828,
				"element": "S" 
			},
			{
				"x": 1.4780739273,
				"y": 1.4530034647,
				"z": -2.1760035932,
				"element": "H" 
			},
			{
				"x": -0.6567966393,
				"y": 0.0791082343,
				"z": -2.4431155997,
				"element": "H" 
			},
			{
				"x": -1.4598729097,
				"y": -0.4671312227,
				"z": 0.1284954139,
				"element": "H" 
			},
			{
				"x": 2.2876120078,
				"y": 1.9238119435,
				"z": 2.3793569933,
				"element": "H" 
			},
			{
				"x": 1.9080135205,
				"y": 1.6503837697,
				"z": 4.9814612923,
				"element": "H" 
			},
			{
				"x": -0.2654300843,
				"y": 0.2438647532,
				"z": 5.4940596717,
				"element": "H" 
			}
		],
		 "valence_orbital": [ 
			{
				"type": "occ",
				"energy": -0.29047,
				"method": "rhf"
			},
			{
				"type": "occ",
				"energy": -0.28524,
				"method": "rhf"
			},
			{
				"type": "occ",
				"energy": -0.25156,
				"method": "rhf"
			},
			{
				"type": "occ",
				"energy": -0.24289,
				"method": "rhf"
			},
			{
				"type": "occ",
				"energy": -0.20422,
				"method": "rhf"
			},
			{
				"type": "unocc",
				"energy": -0.02325,
				"method": "rhf"
			},
			{
				"type": "unocc",
				"energy": 0.02307,
				"method": "rhf"
			},
			{
				"type": "unocc",
				"energy": 0.0362,
				"method": "rhf"
			},
			{
				"type": "unocc",
				"energy": 0.06384,
				"method": "rhf"
			},
			{
				"type": "unocc",
				"energy": 0.076,
				"method": "rhf"
			}
		],
		"cosmo_sigma_profile": { 
			"-0.025": 0.0,
			"-0.024": 0.0,
			"-0.023": 0.0,
			"-0.022": 0.0,
			"-0.021": 0.0,
			"-0.02": 0.0,
			"-0.019": 0.0,
			"-0.018": 0.0,
			"-0.017": 0.667673387491,
			"-0.016": 1.86102846451,
			"-0.015": 1.17314212898,
			"-0.014": 1.00519211402,
			"-0.013": 0.977087542344,
			"-0.012": 1.03823337838,
			"-0.011": 1.09989857876,
			"-0.01": 1.33593773088,
			"-0.009": 3.67779746487,
			"-0.008": 4.0734690034,
			"-0.007": 5.53294738428,
			"-0.006": 9.50277326416,
			"-0.005": 8.39037705219,
			"-0.004": 8.84654742413,
			"-0.003": 9.38932720752,
			"-0.002": 8.4740827093,
			"-0.001": 8.19451837235,
			"0.0": 7.3959845551,
			"0.001": 11.1064445172,
			"0.002": 12.1495962219,
			"0.003": 13.8259600514,
			"0.004": 22.1997023827,
			"0.005": 19.5923646986,
			"0.006": 6.45239005262,
			"0.007": 1.45487613026,
			"0.008": 1.73535650691,
			"0.009": 1.26482226111,
			"0.01": 1.87154138016,
			"0.011": 1.26055633653,
			"0.012": 0.881230937014,
			"0.013": 1.11397697901,
			"0.014": 0.986763617315,
			"0.015": 0.249883436681,
			"0.016": 0.0,
			"0.017": 0.0,
			"0.018": 0.0,
			"0.019": 0.0,
			"0.02": 0.0,
			"0.021": 0.0,
			"0.022": 0.0,
			"0.023": 0.0,
			"0.024": 0.0,
			"0.025": 0.0
		}
	}
}
