{
	 "smiles": "C(CN1CCCCC1)N1CCCCC1", 
	 "Tm": 272.65, 
	 "num_atms": 38, 
	 "gaussian": { 
		 "optdone": 1, 
		 "sigma_profile": "yes", 
		 "theory": "DFT", 
		 "functional": "B3LYP", 
		 "basiset": "6-31G**", 
		 "properties": { 
			 "R2extent": 5230.196, 
			 "electric_dipole_moment_norm": 0.324576354653, 
			 "electric_quadrupole_moment_norm": 4.04949381899, 
			 "total_energy": -581.227412193, 
			 "HOMO_LUMO_gap": 0.27429, 
			 "cosmo_polarized_energy": -4.08, 
			 "cosmo_cavitation_energy": 35.3, 
			 "cosmo_dispersion_energy": -26.08, 
			 "cosmo_repulsion_energy": 2.08, 
			 "cosmo_total_nonelectrostatic_energy": 11.3, 
			 "SMD_solvation_energy": 0.17 
		},
		"coords": [
			{
				"x": -0.0852717958,
				"y": -1.0312947714,
				"z": 0.3045206567,
				"element": "C" 
			},
			{
				"x": -1.3909979418,
				"y": -0.3296559981,
				"z": 0.7120762381,
				"element": "C" 
			},
			{
				"x": -1.7364324909,
				"y": -0.5583937011,
				"z": 2.111126863,
				"element": "N" 
			},
			{
				"x": -2.7451836763,
				"y": 0.3711886464,
				"z": 2.6204066434,
				"element": "C" 
			},
			{
				"x": -2.735051593,
				"y": 0.3724451406,
				"z": 4.1648044308,
				"element": "C" 
			},
			{
				"x": -2.350536519,
				"y": -1.0170229412,
				"z": 4.7180855105,
				"element": "C" 
			},
			{
				"x": -2.8158516916,
				"y": -2.1065055427,
				"z": 3.7472178446,
				"element": "C" 
			},
			{
				"x": -2.1098436633,
				"y": -1.9555058652,
				"z": 2.3824353722,
				"element": "C" 
			},
			{
				"x": 0.2722945797,
				"y": -0.75580098,
				"z": -1.084524237,
				"element": "N" 
			},
			{
				"x": 0.7112408066,
				"y": 0.6352668524,
				"z": -1.2853637982,
				"element": "C" 
			},
			{
				"x": 1.524827888,
				"y": 0.7851177883,
				"z": -2.5731971294,
				"element": "C" 
			},
			{
				"x": 2.8422456783,
				"y": -0.0186925613,
				"z": -2.5005898722,
				"element": "C" 
			},
			{
				"x": 2.6571936739,
				"y": -1.3114079329,
				"z": -1.6685080512,
				"element": "C" 
			},
			{
				"x": 1.1840624413,
				"y": -1.7461402598,
				"z": -1.6879341176,
				"element": "C" 
			},
			{
				"x": 0.7034229031,
				"y": -0.7303726564,
				"z": 1.0224753706,
				"element": "H" 
			},
			{
				"x": -0.216382644,
				"y": -2.1129094938,
				"z": 0.4061795613,
				"element": "H" 
			},
			{
				"x": -1.2732319165,
				"y": 0.7505789342,
				"z": 0.5765326852,
				"element": "H" 
			},
			{
				"x": -2.1913946101,
				"y": -0.6545421771,
				"z": 0.0181580664,
				"element": "H" 
			},
			{
				"x": -2.5143427662,
				"y": 1.3730706818,
				"z": 2.2443100956,
				"element": "H" 
			},
			{
				"x": -3.7583023372,
				"y": 0.1273692011,
				"z": 2.242671725,
				"element": "H" 
			},
			{
				"x": -2.0278442249,
				"y": 1.1238399098,
				"z": 4.53220315,
				"element": "H" 
			},
			{
				"x": -3.7279276045,
				"y": 0.6667010738,
				"z": 4.5266161014,
				"element": "H" 
			},
			{
				"x": -1.2626984398,
				"y": -1.0809584476,
				"z": 4.8328096826,
				"element": "H" 
			},
			{
				"x": -2.7847491022,
				"y": -1.1692523762,
				"z": 5.7124555274,
				"element": "H" 
			},
			{
				"x": -3.902974288,
				"y": -2.0306028547,
				"z": 3.6186513969,
				"element": "H" 
			},
			{
				"x": -2.6231245558,
				"y": -3.1075358233,
				"z": 4.1481197835,
				"element": "H" 
			},
			{
				"x": -2.7639028105,
				"y": -2.3566073354,
				"z": 1.582587686,
				"element": "H" 
			},
			{
				"x": -1.19754646,
				"y": -2.5636636593,
				"z": 2.3776841026,
				"element": "H" 
			},
			{
				"x": -0.1654100914,
				"y": 1.2934499673,
				"z": -1.3220821726,
				"element": "H" 
			},
			{
				"x": 1.3278107756,
				"y": 0.9858300754,
				"z": -0.4327110045,
				"element": "H" 
			},
			{
				"x": 1.7289446452,
				"y": 1.8457256639,
				"z": -2.7550965766,
				"element": "H" 
			},
			{
				"x": 0.9127893702,
				"y": 0.4382652991,
				"z": -3.4142920572,
				"element": "H" 
			},
			{
				"x": 3.6320641849,
				"y": 0.5978121256,
				"z": -2.0556873242,
				"element": "H" 
			},
			{
				"x": 3.1762768188,
				"y": -0.2632774368,
				"z": -3.5155298997,
				"element": "H" 
			},
			{
				"x": 3.2961252231,
				"y": -2.1163499153,
				"z": -2.0498310292,
				"element": "H" 
			},
			{
				"x": 2.9613664961,
				"y": -1.1395789643,
				"z": -0.6286771299,
				"element": "H" 
			},
			{
				"x": 0.881559965,
				"y": -1.9307143092,
				"z": -2.7291710458,
				"element": "H" 
			},
			{
				"x": 1.0550757731,
				"y": -2.6966753566,
				"z": -1.1615330486,
				"element": "H" 
			}
		],
		 "valence_orbital": [ 
			{
				"type": "occ",
				"energy": -0.30748,
				"method": "rhf"
			},
			{
				"type": "occ",
				"energy": -0.30425,
				"method": "rhf"
			},
			{
				"type": "occ",
				"energy": -0.29793,
				"method": "rhf"
			},
			{
				"type": "occ",
				"energy": -0.19943,
				"method": "rhf"
			},
			{
				"type": "occ",
				"energy": -0.19368,
				"method": "rhf"
			},
			{
				"type": "unocc",
				"energy": 0.08061,
				"method": "rhf"
			},
			{
				"type": "unocc",
				"energy": 0.0836,
				"method": "rhf"
			},
			{
				"type": "unocc",
				"energy": 0.10768,
				"method": "rhf"
			},
			{
				"type": "unocc",
				"energy": 0.11203,
				"method": "rhf"
			},
			{
				"type": "unocc",
				"energy": 0.11589,
				"method": "rhf"
			}
		],
		"cosmo_sigma_profile": { 
			"-0.025": 0.0,
			"-0.024": 0.0,
			"-0.023": 0.0,
			"-0.022": 0.0,
			"-0.021": 0.0,
			"-0.02": 0.0,
			"-0.019": 0.0,
			"-0.018": 0.0,
			"-0.017": 0.0,
			"-0.016": 0.0,
			"-0.015": 0.0,
			"-0.014": 0.0,
			"-0.013": 0.0,
			"-0.012": 0.0,
			"-0.011": 0.0,
			"-0.01": 0.0,
			"-0.009": 0.0,
			"-0.008": 0.0,
			"-0.007": 0.0,
			"-0.006": 0.0,
			"-0.005": 0.050147611935,
			"-0.004": 4.51423799608,
			"-0.003": 18.0869760531,
			"-0.002": 41.629446453,
			"-0.001": 68.0403720248,
			"0.0": 66.8895368853,
			"0.001": 39.1762803875,
			"0.002": 9.58258882598,
			"0.003": 3.77514192094,
			"0.004": 1.93850194082,
			"0.005": 1.75427336434,
			"0.006": 2.48293598171,
			"0.007": 1.7713411595,
			"0.008": 1.78469290212,
			"0.009": 1.54133516363,
			"0.01": 1.17120336576,
			"0.011": 1.92229321131,
			"0.012": 0.896858899611,
			"0.013": 0.621821948939,
			"0.014": 0.771962704502,
			"0.015": 0.798401725274,
			"0.016": 0.487544171332,
			"0.017": 0.0401647735806,
			"0.018": 0.0,
			"0.019": 0.0,
			"0.02": 0.0,
			"0.021": 0.0,
			"0.022": 0.0,
			"0.023": 0.0,
			"0.024": 0.0,
			"0.025": 0.0
		}
	}
}
