{
	 "smiles": "CC(C)OC(=O)C1=C2N(OC3=CC=CN=C23)C(Cl)C(Cl)C1Cl", 
	 "Tm": 371.15, 
	 "num_atms": 35, 
	 "gaussian": { 
		 "optdone": 1, 
		 "sigma_profile": "yes", 
		 "theory": "DFT", 
		 "functional": "B3LYP", 
		 "basiset": "6-31G**", 
		 "properties": { 
			 "R2extent": 11803.9229, 
			 "electric_dipole_moment_norm": 5.18623727764, 
			 "electric_quadrupole_moment_norm": 17.8515814031, 
			 "total_energy": -2257.0042248, 
			 "HOMO_LUMO_gap": 0.14513, 
			 "cosmo_polarized_energy": -19.52, 
			 "cosmo_cavitation_energy": 43.01, 
			 "cosmo_dispersion_energy": -29.58, 
			 "cosmo_repulsion_energy": 2.25, 
			 "cosmo_total_nonelectrostatic_energy": 15.67, 
			 "SMD_solvation_energy": 6.13 
		},
		"coords": [
			{
				"x": -0.2121683876,
				"y": -2.4141436245,
				"z": 2.7052963278,
				"element": "C" 
			},
			{
				"x": -1.1517878037,
				"y": -2.1948438288,
				"z": 1.5285445517,
				"element": "C" 
			},
			{
				"x": -2.1199867513,
				"y": -1.0336073173,
				"z": 1.7271183042,
				"element": "C" 
			},
			{
				"x": -0.2847865952,
				"y": -1.9318324131,
				"z": 0.3817761584,
				"element": "O" 
			},
			{
				"x": -0.7858937448,
				"y": -2.1831539204,
				"z": -0.8318584801,
				"element": "C" 
			},
			{
				"x": -1.8924637377,
				"y": -2.6394958301,
				"z": -1.0554509575,
				"element": "O" 
			},
			{
				"x": 0.1840479124,
				"y": -1.9107135476,
				"z": -1.9331090732,
				"element": "C" 
			},
			{
				"x": 0.7855368202,
				"y": -0.7089269458,
				"z": -2.1296727538,
				"element": "C" 
			},
			{
				"x": 1.6330249126,
				"y": -0.4666994471,
				"z": -3.2483940331,
				"element": "N" 
			},
			{
				"x": 1.6594896434,
				"y": 0.9584033178,
				"z": -3.5194209867,
				"element": "O" 
			},
			{
				"x": 1.184594644,
				"y": 1.5339391872,
				"z": -2.3883277271,
				"element": "C" 
			},
			{
				"x": 1.1784362652,
				"y": 2.894461752,
				"z": -2.107907141,
				"element": "C" 
			},
			{
				"x": 0.5929077198,
				"y": 3.246603438,
				"z": -0.8923457292,
				"element": "C" 
			},
			{
				"x": 0.0592655556,
				"y": 2.2553752814,
				"z": -0.0536677839,
				"element": "C" 
			},
			{
				"x": 0.0773331179,
				"y": 0.9472990464,
				"z": -0.333633435,
				"element": "N" 
			},
			{
				"x": 0.651972058,
				"y": 0.6050337606,
				"z": -1.4861309781,
				"element": "C" 
			},
			{
				"x": 1.3087215171,
				"y": -1.2107395977,
				"z": -4.4463485941,
				"element": "C" 
			},
			{
				"x": 2.4508092679,
				"y": -0.8321060768,
				"z": -5.7820389675,
				"element": "Cl" 
			},
			{
				"x": 1.3352298125,
				"y": -2.7009524982,
				"z": -4.0629010269,
				"element": "C" 
			},
			{
				"x": 2.9825213914,
				"y": -3.16656089,
				"z": -3.4923067212,
				"element": "Cl" 
			},
			{
				"x": 0.2366442284,
				"y": -2.9630226426,
				"z": -3.0125322873,
				"element": "C" 
			},
			{
				"x": 0.3892651436,
				"y": -4.659699074,
				"z": -2.3464448511,
				"element": "Cl" 
			},
			{
				"x": 0.3761384741,
				"y": -1.5127147302,
				"z": 2.9030515784,
				"element": "H" 
			},
			{
				"x": 0.4768098117,
				"y": -3.2389464128,
				"z": 2.5042212783,
				"element": "H" 
			},
			{
				"x": -0.7886216041,
				"y": -2.6554463966,
				"z": 3.603808225,
				"element": "H" 
			},
			{
				"x": -1.7118346599,
				"y": -3.107646589,
				"z": 1.3038937915,
				"element": "H" 
			},
			{
				"x": -2.7727397966,
				"y": -0.9247992642,
				"z": 0.8583981819,
				"element": "H" 
			},
			{
				"x": -1.5698393361,
				"y": -0.1005354777,
				"z": 1.8742715761,
				"element": "H" 
			},
			{
				"x": -2.745735862,
				"y": -1.2195979052,
				"z": 2.6064516581,
				"element": "H" 
			},
			{
				"x": 1.5956672652,
				"y": 3.6230490373,
				"z": -2.7936149636,
				"element": "H" 
			},
			{
				"x": 0.5435186437,
				"y": 4.2878676393,
				"z": -0.5909440778,
				"element": "H" 
			},
			{
				"x": -0.4054415719,
				"y": 2.5360002276,
				"z": 0.8882568329,
				"element": "H" 
			},
			{
				"x": 0.3149511643,
				"y": -0.9475056955,
				"z": -4.8310104654,
				"element": "H" 
			},
			{
				"x": 1.1428036785,
				"y": -3.2988505787,
				"z": -4.9539064044,
				"element": "H" 
			},
			{
				"x": -0.7295891967,
				"y": -3.0001919836,
				"z": -3.5240210261,
				"element": "H" 
			}
		],
		 "valence_orbital": [ 
			{
				"type": "occ",
				"energy": -0.29172,
				"method": "rhf"
			},
			{
				"type": "occ",
				"energy": -0.28843,
				"method": "rhf"
			},
			{
				"type": "occ",
				"energy": -0.27694,
				"method": "rhf"
			},
			{
				"type": "occ",
				"energy": -0.27278,
				"method": "rhf"
			},
			{
				"type": "occ",
				"energy": -0.2228,
				"method": "rhf"
			},
			{
				"type": "unocc",
				"energy": -0.07767,
				"method": "rhf"
			},
			{
				"type": "unocc",
				"energy": -0.031,
				"method": "rhf"
			},
			{
				"type": "unocc",
				"energy": -0.02451,
				"method": "rhf"
			},
			{
				"type": "unocc",
				"energy": -0.00492,
				"method": "rhf"
			},
			{
				"type": "unocc",
				"energy": 0.01085,
				"method": "rhf"
			}
		],
		"cosmo_sigma_profile": { 
			"-0.025": 0.0,
			"-0.024": 0.0,
			"-0.023": 0.0,
			"-0.022": 0.0,
			"-0.021": 0.0,
			"-0.02": 0.0,
			"-0.019": 0.0,
			"-0.018": 0.0,
			"-0.017": 0.0,
			"-0.016": 0.0,
			"-0.015": 0.0,
			"-0.014": 0.450543349462,
			"-0.013": 1.67162349077,
			"-0.012": 3.0786066468,
			"-0.011": 5.3597198549,
			"-0.01": 4.88406174682,
			"-0.009": 5.7642204947,
			"-0.008": 7.89491596696,
			"-0.007": 9.86172847724,
			"-0.006": 8.65927539131,
			"-0.005": 10.0414931979,
			"-0.004": 18.6440561189,
			"-0.003": 22.312850792,
			"-0.002": 28.757592236,
			"-0.001": 28.9065298232,
			"0.0": 33.5090386678,
			"0.001": 26.541171076,
			"0.002": 19.4829888979,
			"0.003": 20.9172044199,
			"0.004": 21.9068940454,
			"0.005": 24.1062946642,
			"0.006": 18.1610074976,
			"0.007": 8.79858954109,
			"0.008": 4.52246774294,
			"0.009": 3.12649570126,
			"0.01": 3.27955456659,
			"0.011": 3.35717039678,
			"0.012": 4.01362534033,
			"0.013": 0.0754408852536,
			"0.014": 0.0,
			"0.015": 0.0,
			"0.016": 0.0,
			"0.017": 0.0,
			"0.018": 0.0,
			"0.019": 0.0,
			"0.02": 0.0,
			"0.021": 0.0,
			"0.022": 0.0,
			"0.023": 0.0,
			"0.024": 0.0,
			"0.025": 0.0
		}
	}
}
