{
	 "smiles": "OC1=CC=C(C=CC(=O)C2=CC=C(O)C=C2O)C=C1", 
	 "Tm": 459.15, 
	 "num_atms": 31, 
	 "gaussian": { 
		 "optdone": 1, 
		 "sigma_profile": "yes", 
		 "theory": "DFT", 
		 "functional": "B3LYP", 
		 "basiset": "6-31G**", 
		 "properties": { 
			 "R2extent": 8169.0205, 
			 "electric_dipole_moment_norm": 5.93718776274, 
			 "electric_quadrupole_moment_norm": 25.7065985794, 
			 "total_energy": -879.715083248, 
			 "HOMO_LUMO_gap": 0.1469, 
			 "cosmo_polarized_energy": -20.57, 
			 "cosmo_cavitation_energy": 36.14, 
			 "cosmo_dispersion_energy": -26.55, 
			 "cosmo_repulsion_energy": 2.01, 
			 "cosmo_total_nonelectrostatic_energy": 11.61, 
			 "SMD_solvation_energy": 7.49 
		},
		"coords": [
			{
				"x": -3.0027288494,
				"y": -4.8155208456,
				"z": -3.2008970679,
				"element": "O" 
			},
			{
				"x": -2.4294782384,
				"y": -3.702449073,
				"z": -2.6664550879,
				"element": "C" 
			},
			{
				"x": -1.160579286,
				"y": -3.2444018289,
				"z": -3.0505708537,
				"element": "C" 
			},
			{
				"x": -0.626906811,
				"y": -2.1016739212,
				"z": -2.4695920942,
				"element": "C" 
			},
			{
				"x": -1.3370050043,
				"y": -1.3802500732,
				"z": -1.4909509614,
				"element": "C" 
			},
			{
				"x": -0.8216899459,
				"y": -0.1736376463,
				"z": -0.8451996284,
				"element": "C" 
			},
			{
				"x": 0.32636334,
				"y": 0.4779748366,
				"z": -1.1278348188,
				"element": "C" 
			},
			{
				"x": 0.7525105415,
				"y": 1.7724890878,
				"z": -0.5537627733,
				"element": "C" 
			},
			{
				"x": 1.3459288216,
				"y": 2.5579921154,
				"z": -1.3283353084,
				"element": "O" 
			},
			{
				"x": 0.4953020469,
				"y": 2.1546295513,
				"z": 0.8402027226,
				"element": "C" 
			},
			{
				"x": 0.1125179768,
				"y": 1.2386272035,
				"z": 1.8422634543,
				"element": "C" 
			},
			{
				"x": -0.1367688538,
				"y": 1.6373356078,
				"z": 3.1432802884,
				"element": "C" 
			},
			{
				"x": -0.003685632,
				"y": 2.9988532769,
				"z": 3.4813966907,
				"element": "C" 
			},
			{
				"x": -0.2455594212,
				"y": 3.4532593,
				"z": 4.739758304,
				"element": "O" 
			},
			{
				"x": 0.406060896,
				"y": 3.9306921072,
				"z": 2.5334786436,
				"element": "C" 
			},
			{
				"x": 0.6843727112,
				"y": 3.5213399252,
				"z": 1.224605314,
				"element": "C" 
			},
			{
				"x": 1.1198343556,
				"y": 4.4404416921,
				"z": 0.3583033601,
				"element": "O" 
			},
			{
				"x": -2.6080158176,
				"y": -1.8631106249,
				"z": -1.1209089021,
				"element": "C" 
			},
			{
				"x": -3.1541288297,
				"y": -3.0037801039,
				"z": -1.6940254877,
				"element": "C" 
			},
			{
				"x": -2.4070068255,
				"y": -5.2008514266,
				"z": -3.8569071875,
				"element": "H" 
			},
			{
				"x": -0.5936225837,
				"y": -3.7867076665,
				"z": -3.8043917751,
				"element": "H" 
			},
			{
				"x": 0.3582068798,
				"y": -1.7693249419,
				"z": -2.78104135,
				"element": "H" 
			},
			{
				"x": -1.4715196635,
				"y": 0.2414688589,
				"z": -0.0777002829,
				"element": "H" 
			},
			{
				"x": 0.9578316188,
				"y": 0.1617367784,
				"z": -1.9543709854,
				"element": "H" 
			},
			{
				"x": 0.0423452133,
				"y": 0.1866379279,
				"z": 1.5924094257,
				"element": "H" 
			},
			{
				"x": -0.4167076393,
				"y": 0.9096949657,
				"z": 3.9008940169,
				"element": "H" 
			},
			{
				"x": -0.5093009047,
				"y": 2.712218,
				"z": 5.3009122509,
				"element": "H" 
			},
			{
				"x": 0.5363381275,
				"y": 4.9709728721,
				"z": 2.8069690303,
				"element": "H" 
			},
			{
				"x": 1.3393162787,
				"y": 3.9412655893,
				"z": -0.4782308381,
				"element": "H" 
			},
			{
				"x": -3.1778871152,
				"y": -1.3253206575,
				"z": -0.367479041,
				"element": "H" 
			},
			{
				"x": -4.1340373865,
				"y": -3.3687008865,
				"z": -1.4055190578,
				"element": "H" 
			}
		],
		 "valence_orbital": [ 
			{
				"type": "occ",
				"energy": -0.26849,
				"method": "rhf"
			},
			{
				"type": "occ",
				"energy": -0.25548,
				"method": "rhf"
			},
			{
				"type": "occ",
				"energy": -0.23576,
				"method": "rhf"
			},
			{
				"type": "occ",
				"energy": -0.22449,
				"method": "rhf"
			},
			{
				"type": "occ",
				"energy": -0.21738,
				"method": "rhf"
			},
			{
				"type": "unocc",
				"energy": -0.07048,
				"method": "rhf"
			},
			{
				"type": "unocc",
				"energy": -0.02447,
				"method": "rhf"
			},
			{
				"type": "unocc",
				"energy": -0.01536,
				"method": "rhf"
			},
			{
				"type": "unocc",
				"energy": 0.00638,
				"method": "rhf"
			},
			{
				"type": "unocc",
				"energy": 0.03818,
				"method": "rhf"
			}
		],
		"cosmo_sigma_profile": { 
			"-0.025": 0.0,
			"-0.024": 0.0,
			"-0.023": 0.0,
			"-0.022": 0.0,
			"-0.021": 0.0,
			"-0.02": 0.0,
			"-0.019": 0.101518588895,
			"-0.018": 1.88727252535,
			"-0.017": 2.53213344232,
			"-0.016": 2.10950766022,
			"-0.015": 1.77444315591,
			"-0.014": 2.49737981863,
			"-0.013": 1.70747693329,
			"-0.012": 1.86914208657,
			"-0.011": 1.97095898115,
			"-0.01": 2.6156458719,
			"-0.009": 1.82791255858,
			"-0.008": 3.99988891659,
			"-0.007": 9.37816490555,
			"-0.006": 14.8033536479,
			"-0.005": 15.5411483053,
			"-0.004": 14.5593398192,
			"-0.003": 10.8416768506,
			"-0.002": 15.0310997947,
			"-0.001": 17.3952268899,
			"0.0": 16.1007953264,
			"0.001": 18.5237130436,
			"0.002": 23.3788438601,
			"0.003": 33.8513966232,
			"0.004": 25.3284888222,
			"0.005": 9.61141218283,
			"0.006": 5.66973452044,
			"0.007": 5.65828676024,
			"0.008": 5.74991638456,
			"0.009": 6.57741911882,
			"0.01": 6.00501932504,
			"0.011": 6.25628079279,
			"0.012": 2.6238741149,
			"0.013": 1.47851891113,
			"0.014": 0.214343303073,
			"0.015": 0.0,
			"0.016": 0.0,
			"0.017": 0.0,
			"0.018": 0.0,
			"0.019": 0.0,
			"0.02": 0.0,
			"0.021": 0.0,
			"0.022": 0.0,
			"0.023": 0.0,
			"0.024": 0.0,
			"0.025": 0.0
		}
	}
}
