{
	 "smiles": "NC1(CCOC2=C1C=CC=C2)C(O)=O", 
	 "Tm": 513.15, 
	 "num_atms": 25, 
	 "gaussian": { 
		 "optdone": 1, 
		 "sigma_profile": "yes", 
		 "theory": "DFT", 
		 "functional": "B3LYP", 
		 "basiset": "6-31G**", 
		 "properties": { 
			 "R2extent": 2696.0479, 
			 "electric_dipole_moment_norm": 3.05667104871, 
			 "electric_quadrupole_moment_norm": 10.2612144218, 
			 "total_energy": -668.119204783, 
			 "HOMO_LUMO_gap": 0.21146, 
			 "cosmo_polarized_energy": -14.93, 
			 "cosmo_cavitation_energy": 27.54, 
			 "cosmo_dispersion_energy": -20.26, 
			 "cosmo_repulsion_energy": 1.59, 
			 "cosmo_total_nonelectrostatic_energy": 8.87, 
			 "SMD_solvation_energy": 5.28 
		},
		"coords": [
			{
				"x": -0.3127759113,
				"y": 1.6854247676,
				"z": -2.2195942792,
				"element": "N" 
			},
			{
				"x": -0.5251764443,
				"y": 0.4476118762,
				"z": -1.4618657889,
				"element": "C" 
			},
			{
				"x": -1.6437145807,
				"y": 0.5559243336,
				"z": -0.3821927304,
				"element": "C" 
			},
			{
				"x": -1.6062123392,
				"y": -0.6279589831,
				"z": 0.5740947991,
				"element": "C" 
			},
			{
				"x": -0.3589507856,
				"y": -0.6932618182,
				"z": 1.2693745341,
				"element": "O" 
			},
			{
				"x": 0.7731076216,
				"y": -0.4947544032,
				"z": 0.5267128908,
				"element": "C" 
			},
			{
				"x": 0.7750383124,
				"y": 0.0418835143,
				"z": -0.7726513637,
				"element": "C" 
			},
			{
				"x": 2.0064281584,
				"y": 0.2218262203,
				"z": -1.4178204455,
				"element": "C" 
			},
			{
				"x": 3.2065485216,
				"y": -0.1146229702,
				"z": -0.7986655406,
				"element": "C" 
			},
			{
				"x": 3.1875922992,
				"y": -0.6390916426,
				"z": 0.4977915715,
				"element": "C" 
			},
			{
				"x": 1.9791971,
				"y": -0.8273099142,
				"z": 1.1578527063,
				"element": "C" 
			},
			{
				"x": -0.9731305813,
				"y": -0.6535771508,
				"z": -2.4414205421,
				"element": "C" 
			},
			{
				"x": -1.7217998138,
				"y": -0.1576979298,
				"z": -3.4582825727,
				"element": "O" 
			},
			{
				"x": -0.7745327033,
				"y": -1.8396840653,
				"z": -2.3071286838,
				"element": "O" 
			},
			{
				"x": -1.1678113771,
				"y": 1.9552405925,
				"z": -2.6977227973,
				"element": "H" 
			},
			{
				"x": -0.0605835359,
				"y": 2.4306780043,
				"z": -1.5754104119,
				"element": "H" 
			},
			{
				"x": -2.6273388931,
				"y": 0.6342460926,
				"z": -0.8591822402,
				"element": "H" 
			},
			{
				"x": -1.4743101644,
				"y": 1.4814467787,
				"z": 0.1813416663,
				"element": "H" 
			},
			{
				"x": -2.3690540882,
				"y": -0.5358835644,
				"z": 1.3515278598,
				"element": "H" 
			},
			{
				"x": -1.7676824379,
				"y": -1.570047514,
				"z": 0.0351834886,
				"element": "H" 
			},
			{
				"x": 2.0005639503,
				"y": 0.6493126973,
				"z": -2.4151057372,
				"element": "H" 
			},
			{
				"x": 4.1478255512,
				"y": 0.032571514,
				"z": -1.3191357153,
				"element": "H" 
			},
			{
				"x": 4.1163242005,
				"y": -0.9044741714,
				"z": 0.9950839665,
				"element": "H" 
			},
			{
				"x": 1.935967128,
				"y": -1.2337965844,
				"z": 2.1629978287,
				"element": "H" 
			},
			{
				"x": -1.9921191869,
				"y": -0.9246056797,
				"z": -3.990882463,
				"element": "H" 
			}
		],
		 "valence_orbital": [ 
			{
				"type": "occ",
				"energy": -0.30715,
				"method": "rhf"
			},
			{
				"type": "occ",
				"energy": -0.28089,
				"method": "rhf"
			},
			{
				"type": "occ",
				"energy": -0.24939,
				"method": "rhf"
			},
			{
				"type": "occ",
				"energy": -0.23764,
				"method": "rhf"
			},
			{
				"type": "occ",
				"energy": -0.21196,
				"method": "rhf"
			},
			{
				"type": "unocc",
				"energy": -0.0005,
				"method": "rhf"
			},
			{
				"type": "unocc",
				"energy": 0.00039,
				"method": "rhf"
			},
			{
				"type": "unocc",
				"energy": 0.01915,
				"method": "rhf"
			},
			{
				"type": "unocc",
				"energy": 0.06717,
				"method": "rhf"
			},
			{
				"type": "unocc",
				"energy": 0.09535,
				"method": "rhf"
			}
		],
		"cosmo_sigma_profile": { 
			"-0.025": 0.0,
			"-0.024": 0.0,
			"-0.023": 0.0,
			"-0.022": 0.0,
			"-0.021": 0.0,
			"-0.02": 0.0,
			"-0.019": 0.0746798337508,
			"-0.018": 0.803721723141,
			"-0.017": 1.06689209445,
			"-0.016": 0.739691918737,
			"-0.015": 0.770159733037,
			"-0.014": 0.930666053369,
			"-0.013": 1.03687174099,
			"-0.012": 0.227062063521,
			"-0.011": 0.747995321116,
			"-0.01": 2.61677035414,
			"-0.009": 2.90973767402,
			"-0.008": 3.48833101703,
			"-0.007": 4.1935192983,
			"-0.006": 10.6673213443,
			"-0.005": 17.9134182394,
			"-0.004": 18.92102458,
			"-0.003": 18.1065649539,
			"-0.002": 14.9161874134,
			"-0.001": 11.4238264449,
			"0.0": 9.04466221917,
			"0.001": 8.48727450159,
			"0.002": 9.95673265863,
			"0.003": 12.5239326282,
			"0.004": 11.6643445941,
			"0.005": 12.7111847073,
			"0.006": 11.8776749461,
			"0.007": 5.37724914732,
			"0.008": 4.6638834123,
			"0.009": 4.30870357496,
			"0.01": 4.70426694056,
			"0.011": 5.2037015361,
			"0.012": 3.44588014786,
			"0.013": 0.76466543349,
			"0.014": 0.189367839894,
			"0.015": 0.553145025664,
			"0.016": 0.0804424844425,
			"0.017": 0.0,
			"0.018": 0.0,
			"0.019": 0.0,
			"0.02": 0.0,
			"0.021": 0.0,
			"0.022": 0.0,
			"0.023": 0.0,
			"0.024": 0.0,
			"0.025": 0.0
		}
	}
}
