{
	 "smiles": "FC1=C(CS(Cl)(=O)=O)C=C(Cl)C=C1", 
	 "Tm": 319.15, 
	 "num_atms": 18, 
	 "gaussian": { 
		 "optdone": 1, 
		 "sigma_profile": "yes", 
		 "theory": "DFT", 
		 "functional": "B3LYP", 
		 "basiset": "6-31G**", 
		 "properties": { 
			 "R2extent": 3689.3606, 
			 "electric_dipole_moment_norm": 4.41599137907, 
			 "electric_quadrupole_moment_norm": 8.52459804448, 
			 "total_energy": -1838.54798018, 
			 "HOMO_LUMO_gap": 0.17137, 
			 "cosmo_polarized_energy": -11.47, 
			 "cosmo_cavitation_energy": 28.19, 
			 "cosmo_dispersion_energy": -20.7, 
			 "cosmo_repulsion_energy": 1.58, 
			 "cosmo_total_nonelectrostatic_energy": 9.07, 
			 "SMD_solvation_energy": 3.52 
		},
		"coords": [
			{
				"x": 2.3022824689,
				"y": 1.1741703907,
				"z": 1.1404055549,
				"element": "F" 
			},
			{
				"x": 1.8280617828,
				"y": 0.400047087,
				"z": 0.1444807284,
				"element": "C" 
			},
			{
				"x": 0.5379427941,
				"y": 0.6381259949,
				"z": -0.3389521997,
				"element": "C" 
			},
			{
				"x": -0.2896915153,
				"y": 1.7390563235,
				"z": 0.2414852802,
				"element": "C" 
			},
			{
				"x": -1.6832825293,
				"y": 1.176943069,
				"z": 1.307414442,
				"element": "S" 
			},
			{
				"x": -0.6232333713,
				"y": 0.211299532,
				"z": 2.8777758542,
				"element": "Cl" 
			},
			{
				"x": -2.3189091676,
				"y": 2.3599128906,
				"z": 1.8740573164,
				"element": "O" 
			},
			{
				"x": -2.4515124471,
				"y": 0.1527067541,
				"z": 0.6098778435,
				"element": "O" 
			},
			{
				"x": 0.0631524444,
				"y": -0.1739047531,
				"z": -1.3786697461,
				"element": "C" 
			},
			{
				"x": 0.8728775092,
				"y": -1.1778304103,
				"z": -1.9019566498,
				"element": "C" 
			},
			{
				"x": 0.2668049337,
				"y": -2.1817587201,
				"z": -3.2049143631,
				"element": "Cl" 
			},
			{
				"x": 2.1614927147,
				"y": -1.3965946158,
				"z": -1.4087223395,
				"element": "C" 
			},
			{
				"x": 2.6436267755,
				"y": -0.5967295143,
				"z": -0.3751870041,
				"element": "C" 
			},
			{
				"x": 0.28911101,
				"y": 2.4170452533,
				"z": 0.8687412734,
				"element": "H" 
			},
			{
				"x": -0.8225078471,
				"y": 2.315315976,
				"z": -0.5217150099,
				"element": "H" 
			},
			{
				"x": -0.9394801755,
				"y": -0.0281181565,
				"z": -1.7639664063,
				"element": "H" 
			},
			{
				"x": 2.7786211162,
				"y": -2.1821449944,
				"z": -1.8296198089,
				"element": "H" 
			},
			{
				"x": 3.6384435038,
				"y": -0.7367421066,
				"z": 0.032265234,
				"element": "H" 
			}
		],
		 "valence_orbital": [ 
			{
				"type": "occ",
				"energy": -0.33554,
				"method": "rhf"
			},
			{
				"type": "occ",
				"energy": -0.32922,
				"method": "rhf"
			},
			{
				"type": "occ",
				"energy": -0.3197,
				"method": "rhf"
			},
			{
				"type": "occ",
				"energy": -0.2898,
				"method": "rhf"
			},
			{
				"type": "occ",
				"energy": -0.26224,
				"method": "rhf"
			},
			{
				"type": "unocc",
				"energy": -0.09087,
				"method": "rhf"
			},
			{
				"type": "unocc",
				"energy": -0.0498,
				"method": "rhf"
			},
			{
				"type": "unocc",
				"energy": -0.03209,
				"method": "rhf"
			},
			{
				"type": "unocc",
				"energy": 0.01157,
				"method": "rhf"
			},
			{
				"type": "unocc",
				"energy": 0.04331,
				"method": "rhf"
			}
		],
		"cosmo_sigma_profile": { 
			"-0.025": 0.0,
			"-0.024": 0.0,
			"-0.023": 0.0,
			"-0.022": 0.0,
			"-0.021": 0.0,
			"-0.02": 0.0,
			"-0.019": 0.0,
			"-0.018": 0.0,
			"-0.017": 0.0,
			"-0.016": 0.0,
			"-0.015": 0.0,
			"-0.014": 0.0,
			"-0.013": 0.69044053841,
			"-0.012": 1.95977331297,
			"-0.011": 2.63103487825,
			"-0.01": 3.77766731557,
			"-0.009": 5.09698519404,
			"-0.008": 8.27510823026,
			"-0.007": 8.06578333345,
			"-0.006": 8.52042111256,
			"-0.005": 6.02617359043,
			"-0.004": 7.39514537106,
			"-0.003": 7.23091337527,
			"-0.002": 11.8556568393,
			"-0.001": 17.3556409327,
			"0.0": 20.528438784,
			"0.001": 26.4201881576,
			"0.002": 19.8467161731,
			"0.003": 26.9411607981,
			"0.004": 18.4260575085,
			"0.005": 5.96871946294,
			"0.006": 2.85215789702,
			"0.007": 5.14650656383,
			"0.008": 10.6715693677,
			"0.009": 5.53092385081,
			"0.01": 0.0720508269974,
			"0.011": 0.0,
			"0.012": 0.0,
			"0.013": 0.0,
			"0.014": 0.0,
			"0.015": 0.0,
			"0.016": 0.0,
			"0.017": 0.0,
			"0.018": 0.0,
			"0.019": 0.0,
			"0.02": 0.0,
			"0.021": 0.0,
			"0.022": 0.0,
			"0.023": 0.0,
			"0.024": 0.0,
			"0.025": 0.0
		}
	}
}
