{
	 "smiles": "NCCOCCO", 
	 "Tm": 262.15, 
	 "num_atms": 18, 
	 "gaussian": { 
		 "optdone": 1, 
		 "sigma_profile": "yes", 
		 "theory": "DFT", 
		 "functional": "B3LYP", 
		 "basiset": "6-31G**", 
		 "properties": { 
			 "R2extent": 1285.5414, 
			 "electric_dipole_moment_norm": 2.41406163343, 
			 "electric_quadrupole_moment_norm": 9.66111887413, 
			 "total_energy": -364.220590143, 
			 "HOMO_LUMO_gap": 0.29525, 
			 "cosmo_polarized_energy": -11.21, 
			 "cosmo_cavitation_energy": 20.74, 
			 "cosmo_dispersion_energy": -15.42, 
			 "cosmo_repulsion_energy": 1.37, 
			 "cosmo_total_nonelectrostatic_energy": 6.69, 
			 "SMD_solvation_energy": 2.32 
		},
		"coords": [
			{
				"x": 2.4571200304,
				"y": 1.7658081544,
				"z": -1.1942626552,
				"element": "N" 
			},
			{
				"x": 1.3120808768,
				"y": 2.044918382,
				"z": -0.3298620852,
				"element": "C" 
			},
			{
				"x": 0.1927831589,
				"y": 1.0037347793,
				"z": -0.3670588161,
				"element": "C" 
			},
			{
				"x": 0.7519824089,
				"y": -0.2404083386,
				"z": 0.0321125421,
				"element": "O" 
			},
			{
				"x": -0.0898384576,
				"y": -1.3668601203,
				"z": -0.1399633753,
				"element": "C" 
			},
			{
				"x": -1.0917344177,
				"y": -1.5315606304,
				"z": 1.0026071131,
				"element": "C" 
			},
			{
				"x": -1.8195152555,
				"y": -2.7221947311,
				"z": 0.7338846071,
				"element": "O" 
			},
			{
				"x": 2.1560827931,
				"y": 1.7557459241,
				"z": -2.1672240788,
				"element": "H" 
			},
			{
				"x": 2.7806143557,
				"y": 0.8219256514,
				"z": -0.9928330623,
				"element": "H" 
			},
			{
				"x": 0.8920750662,
				"y": 3.0228070394,
				"z": -0.5949196021,
				"element": "H" 
			},
			{
				"x": 1.6743863505,
				"y": 2.1245104369,
				"z": 0.7022486706,
				"element": "H" 
			},
			{
				"x": -0.6320439879,
				"y": 1.3086852716,
				"z": 0.2974749402,
				"element": "H" 
			},
			{
				"x": -0.2187851511,
				"y": 0.920967298,
				"z": -1.3883266429,
				"element": "H" 
			},
			{
				"x": -0.6313729785,
				"y": -1.3186700228,
				"z": -1.0970553986,
				"element": "H" 
			},
			{
				"x": 0.5592438738,
				"y": -2.2479731155,
				"z": -0.1667552995,
				"element": "H" 
			},
			{
				"x": -0.5387996741,
				"y": -1.587128276,
				"z": 1.9526930451,
				"element": "H" 
			},
			{
				"x": -1.7566754542,
				"y": -0.6551050141,
				"z": 1.0554844157,
				"element": "H" 
			},
			{
				"x": -2.4409035378,
				"y": -2.8673026883,
				"z": 1.4570556821,
				"element": "H" 
			}
		],
		 "valence_orbital": [ 
			{
				"type": "occ",
				"energy": -0.34174,
				"method": "rhf"
			},
			{
				"type": "occ",
				"energy": -0.31454,
				"method": "rhf"
			},
			{
				"type": "occ",
				"energy": -0.27286,
				"method": "rhf"
			},
			{
				"type": "occ",
				"energy": -0.25686,
				"method": "rhf"
			},
			{
				"type": "occ",
				"energy": -0.22975,
				"method": "rhf"
			},
			{
				"type": "unocc",
				"energy": 0.0655,
				"method": "rhf"
			},
			{
				"type": "unocc",
				"energy": 0.08581,
				"method": "rhf"
			},
			{
				"type": "unocc",
				"energy": 0.10913,
				"method": "rhf"
			},
			{
				"type": "unocc",
				"energy": 0.12319,
				"method": "rhf"
			},
			{
				"type": "unocc",
				"energy": 0.13074,
				"method": "rhf"
			}
		],
		"cosmo_sigma_profile": { 
			"-0.025": 0.0,
			"-0.024": 0.0,
			"-0.023": 0.0,
			"-0.022": 0.0,
			"-0.021": 0.0,
			"-0.02": 0.0,
			"-0.019": 0.0,
			"-0.018": 0.0,
			"-0.017": 0.0,
			"-0.016": 0.612512743458,
			"-0.015": 1.16588628174,
			"-0.014": 0.778942471014,
			"-0.013": 0.965684249439,
			"-0.012": 0.711627435559,
			"-0.011": 0.618779451102,
			"-0.01": 0.992048126805,
			"-0.009": 2.30132180188,
			"-0.008": 2.43611573887,
			"-0.007": 4.11439568079,
			"-0.006": 3.81094200041,
			"-0.005": 4.0376070926,
			"-0.004": 16.3396362483,
			"-0.003": 26.9625729676,
			"-0.002": 19.3357757898,
			"-0.001": 13.2691805495,
			"0.0": 8.48828101242,
			"0.001": 6.02308691219,
			"0.002": 4.1771142251,
			"0.003": 4.19409799697,
			"0.004": 4.92195233903,
			"0.005": 3.04488733675,
			"0.006": 3.36322447459,
			"0.007": 4.28382739943,
			"0.008": 2.5878866017,
			"0.009": 2.5098118512,
			"0.01": 2.82954626843,
			"0.011": 3.24333196602,
			"0.012": 2.51260821616,
			"0.013": 2.56888310031,
			"0.014": 2.48972454205,
			"0.015": 0.844637010522,
			"0.016": 0.523362544484,
			"0.017": 0.621078182703,
			"0.018": 0.798911791699,
			"0.019": 0.594815687092,
			"0.02": 0.462778778945,
			"0.021": 0.0435401533548,
			"0.022": 0.0,
			"0.023": 0.0,
			"0.024": 0.0,
			"0.025": 0.0
		}
	}
}
