{
	 "smiles": "N#CC1=CC=C(OCC2=CC3=NON=C3C=C2)C=C1", 
	 "Tm": 434.15, 
	 "num_atms": 28, 
	 "gaussian": { 
		 "optdone": 1, 
		 "sigma_profile": "yes", 
		 "theory": "DFT", 
		 "functional": "B3LYP", 
		 "basiset": "6-31G**", 
		 "properties": { 
			 "R2extent": 6941.2389, 
			 "electric_dipole_moment_norm": 5.65151862246, 
			 "electric_quadrupole_moment_norm": 30.0588308294, 
			 "total_energy": -853.491687387, 
			 "HOMO_LUMO_gap": 0.14647, 
			 "cosmo_polarized_energy": -17.39, 
			 "cosmo_cavitation_energy": 34.91, 
			 "cosmo_dispersion_energy": -24.42, 
			 "cosmo_repulsion_energy": 1.86, 
			 "cosmo_total_nonelectrostatic_energy": 12.35, 
			 "SMD_solvation_energy": 6.64 
		},
		"coords": [
			{
				"x": -0.4996890102,
				"y": 4.7406391316,
				"z": 5.162160928,
				"element": "N" 
			},
			{
				"x": -0.1131392286,
				"y": 4.022270759,
				"z": 4.332206291,
				"element": "C" 
			},
			{
				"x": 0.3647164102,
				"y": 3.1392537692,
				"z": 3.3112091032,
				"element": "C" 
			},
			{
				"x": 1.5241069414,
				"y": 3.4591786232,
				"z": 2.5782154403,
				"element": "C" 
			},
			{
				"x": 1.9847820732,
				"y": 2.6016341902,
				"z": 1.592696984,
				"element": "C" 
			},
			{
				"x": 1.2989816873,
				"y": 1.4075496319,
				"z": 1.3171458871,
				"element": "C" 
			},
			{
				"x": 1.8515425659,
				"y": 0.6368582237,
				"z": 0.3351657131,
				"element": "O" 
			},
			{
				"x": 1.3056848195,
				"y": -0.6513367287,
				"z": 0.0496609305,
				"element": "C" 
			},
			{
				"x": 0.0452533185,
				"y": -0.6100474228,
				"z": -0.7923356154,
				"element": "C" 
			},
			{
				"x": -0.9599868487,
				"y": -1.517204852,
				"z": -0.5773844488,
				"element": "C" 
			},
			{
				"x": -2.0829580649,
				"y": -1.4720544159,
				"z": -1.4541620578,
				"element": "C" 
			},
			{
				"x": -3.1764008391,
				"y": -2.2155170001,
				"z": -1.4812254309,
				"element": "N" 
			},
			{
				"x": -3.9026548857,
				"y": -1.7190165686,
				"z": -2.5289236512,
				"element": "O" 
			},
			{
				"x": -3.2920392645,
				"y": -0.6746489814,
				"z": -3.166032337,
				"element": "N" 
			},
			{
				"x": -2.1559505089,
				"y": -0.5043278465,
				"z": -2.511342737,
				"element": "C" 
			},
			{
				"x": -1.101015193,
				"y": 0.4348686603,
				"z": -2.7121639082,
				"element": "C" 
			},
			{
				"x": -0.034671265,
				"y": 0.3615863691,
				"z": -1.8608646211,
				"element": "C" 
			},
			{
				"x": 0.1408808992,
				"y": 1.0827827539,
				"z": 2.0359199896,
				"element": "C" 
			},
			{
				"x": -0.3174250188,
				"y": 1.9471393483,
				"z": 3.0276195357,
				"element": "C" 
			},
			{
				"x": 2.0566275929,
				"y": 4.3797613163,
				"z": 2.7919670843,
				"element": "H" 
			},
			{
				"x": 2.8793779028,
				"y": 2.8293125554,
				"z": 1.0232425479,
				"element": "H" 
			},
			{
				"x": 2.1030042385,
				"y": -1.1543333648,
				"z": -0.5076927062,
				"element": "H" 
			},
			{
				"x": 1.1389720646,
				"y": -1.2170914757,
				"z": 0.9741461839,
				"element": "H" 
			},
			{
				"x": -0.917223785,
				"y": -2.2506845702,
				"z": 0.2215506015,
				"element": "H" 
			},
			{
				"x": -1.1563382357,
				"y": 1.1678646279,
				"z": -3.5087909632,
				"element": "H" 
			},
			{
				"x": 0.791248669,
				"y": 1.0572637249,
				"z": -1.9670056177,
				"element": "H" 
			},
			{
				"x": -0.4172333886,
				"y": 0.1804527594,
				"z": 1.8219904759,
				"element": "H" 
			},
			{
				"x": -1.2150536463,
				"y": 1.6989467822,
				"z": 3.5840263987,
				"element": "H" 
			}
		],
		 "valence_orbital": [ 
			{
				"type": "occ",
				"energy": -0.32696,
				"method": "rhf"
			},
			{
				"type": "occ",
				"energy": -0.30147,
				"method": "rhf"
			},
			{
				"type": "occ",
				"energy": -0.28247,
				"method": "rhf"
			},
			{
				"type": "occ",
				"energy": -0.26328,
				"method": "rhf"
			},
			{
				"type": "occ",
				"energy": -0.24733,
				"method": "rhf"
			},
			{
				"type": "unocc",
				"energy": -0.10086,
				"method": "rhf"
			},
			{
				"type": "unocc",
				"energy": -0.04615,
				"method": "rhf"
			},
			{
				"type": "unocc",
				"energy": -0.03133,
				"method": "rhf"
			},
			{
				"type": "unocc",
				"energy": -0.01566,
				"method": "rhf"
			},
			{
				"type": "unocc",
				"energy": -0.0074,
				"method": "rhf"
			}
		],
		"cosmo_sigma_profile": { 
			"-0.025": 0.0,
			"-0.024": 0.0,
			"-0.023": 0.0,
			"-0.022": 0.0,
			"-0.021": 0.0,
			"-0.02": 0.0,
			"-0.019": 0.0,
			"-0.018": 0.0,
			"-0.017": 0.0,
			"-0.016": 0.0,
			"-0.015": 0.0,
			"-0.014": 0.0,
			"-0.013": 0.0,
			"-0.012": 0.0,
			"-0.011": 0.0,
			"-0.01": 0.541985042335,
			"-0.009": 3.49605503009,
			"-0.008": 11.4500071695,
			"-0.007": 17.9244637585,
			"-0.006": 18.3645705315,
			"-0.005": 15.1317102086,
			"-0.004": 14.3601714953,
			"-0.003": 14.3673008955,
			"-0.002": 17.5992271086,
			"-0.001": 24.7076721669,
			"0.0": 24.9811780803,
			"0.001": 20.1521447837,
			"0.002": 22.0530327752,
			"0.003": 12.3868925952,
			"0.004": 8.02927981081,
			"0.005": 10.9887308133,
			"0.006": 9.77270658207,
			"0.007": 6.03700514041,
			"0.008": 6.63435695749,
			"0.009": 6.75686717967,
			"0.01": 5.78381388485,
			"0.011": 5.30442031138,
			"0.012": 3.894692194,
			"0.013": 1.91004657969,
			"0.014": 0.40280019109,
			"0.015": 0.0,
			"0.016": 0.0,
			"0.017": 0.0,
			"0.018": 0.0,
			"0.019": 0.0,
			"0.02": 0.0,
			"0.021": 0.0,
			"0.022": 0.0,
			"0.023": 0.0,
			"0.024": 0.0,
			"0.025": 0.0
		}
	}
}
