{
	 "smiles": "OC(=O)COC1=CC2=C(OC3=C2C=CC=C3)C=C1", 
	 "Tm": 406.15, 
	 "num_atms": 28, 
	 "gaussian": { 
		 "optdone": 1, 
		 "sigma_profile": "yes", 
		 "theory": "DFT", 
		 "functional": "B3LYP", 
		 "basiset": "6-31G**", 
		 "properties": { 
			 "R2extent": 6652.4922, 
			 "electric_dipole_moment_norm": 2.52810777856, 
			 "electric_quadrupole_moment_norm": 15.5199447293, 
			 "total_energy": -840.414224846, 
			 "HOMO_LUMO_gap": 0.18314, 
			 "cosmo_polarized_energy": -13.53, 
			 "cosmo_cavitation_energy": 33.29, 
			 "cosmo_dispersion_energy": -24.42, 
			 "cosmo_repulsion_energy": 1.86, 
			 "cosmo_total_nonelectrostatic_energy": 10.74, 
			 "SMD_solvation_energy": 6.93 
		},
		"coords": [
			{
				"x": -0.1727484745,
				"y": -3.5350030018,
				"z": 3.7144696414,
				"element": "O" 
			},
			{
				"x": -1.1588352242,
				"y": -3.261899556,
				"z": 2.8271380953,
				"element": "C" 
			},
			{
				"x": -2.2450040515,
				"y": -2.8419020592,
				"z": 3.1464649139,
				"element": "O" 
			},
			{
				"x": -0.6839732277,
				"y": -3.5786493887,
				"z": 1.4120757304,
				"element": "C" 
			},
			{
				"x": -1.6651776675,
				"y": -3.3269196565,
				"z": 0.433919947,
				"element": "O" 
			},
			{
				"x": -1.7435902339,
				"y": -2.0222040321,
				"z": -0.0392252176,
				"element": "C" 
			},
			{
				"x": -0.8534567877,
				"y": -1.5986183922,
				"z": -1.025607477,
				"element": "C" 
			},
			{
				"x": -0.9939007966,
				"y": -0.2999616353,
				"z": -1.5275978588,
				"element": "C" 
			},
			{
				"x": -2.0247517308,
				"y": 0.520436455,
				"z": -1.0311273608,
				"element": "C" 
			},
			{
				"x": -2.0244932909,
				"y": 1.7578825342,
				"z": -1.6360135952,
				"element": "O" 
			},
			{
				"x": -0.9839313574,
				"y": 1.739050122,
				"z": -2.5358583085,
				"element": "C" 
			},
			{
				"x": -0.3073680891,
				"y": 0.5034359873,
				"z": -2.5231434158,
				"element": "C" 
			},
			{
				"x": 0.7809162343,
				"y": 0.315810936,
				"z": -3.3833299123,
				"element": "C" 
			},
			{
				"x": 1.15596481,
				"y": 1.3630592345,
				"z": -4.2233474294,
				"element": "C" 
			},
			{
				"x": 0.4616175781,
				"y": 2.5847356891,
				"z": -4.2131279033,
				"element": "C" 
			},
			{
				"x": -0.6266258424,
				"y": 2.7944851123,
				"z": -3.363970618,
				"element": "C" 
			},
			{
				"x": -2.9215806375,
				"y": 0.1062662625,
				"z": -0.0555148882,
				"element": "C" 
			},
			{
				"x": -2.765645029,
				"y": -1.1871836876,
				"z": 0.4430958478,
				"element": "C" 
			},
			{
				"x": -0.5289507816,
				"y": -3.3286316,
				"z": 4.5950220016,
				"element": "H" 
			},
			{
				"x": -0.4426059302,
				"y": -4.6465276275,
				"z": 1.3718367987,
				"element": "H" 
			},
			{
				"x": 0.2457932922,
				"y": -3.0244065778,
				"z": 1.2249772491,
				"element": "H" 
			},
			{
				"x": -0.0898661311,
				"y": -2.2759742632,
				"z": -1.3951808833,
				"element": "H" 
			},
			{
				"x": 1.3221133612,
				"y": -0.6256793796,
				"z": -3.3975507813,
				"element": "H" 
			},
			{
				"x": 1.9974686343,
				"y": 1.2349302772,
				"z": -4.897369508,
				"element": "H" 
			},
			{
				"x": 0.7760582537,
				"y": 3.3829630417,
				"z": -4.8787593977,
				"element": "H" 
			},
			{
				"x": -1.1721663143,
				"y": 3.7315263957,
				"z": -3.3456701216,
				"element": "H" 
			},
			{
				"x": -3.7055995958,
				"y": 0.764087494,
				"z": 0.3028943384,
				"element": "H" 
			},
			{
				"x": -3.41606097,
				"y": -1.5737086844,
				"z": 1.2182001133,
				"element": "H" 
			}
		],
		 "valence_orbital": [ 
			{
				"type": "occ",
				"energy": -0.28657,
				"method": "rhf"
			},
			{
				"type": "occ",
				"energy": -0.27689,
				"method": "rhf"
			},
			{
				"type": "occ",
				"energy": -0.2562,
				"method": "rhf"
			},
			{
				"type": "occ",
				"energy": -0.22496,
				"method": "rhf"
			},
			{
				"type": "occ",
				"energy": -0.22001,
				"method": "rhf"
			},
			{
				"type": "unocc",
				"energy": -0.03687,
				"method": "rhf"
			},
			{
				"type": "unocc",
				"energy": -0.00168,
				"method": "rhf"
			},
			{
				"type": "unocc",
				"energy": 0.00314,
				"method": "rhf"
			},
			{
				"type": "unocc",
				"energy": 0.01399,
				"method": "rhf"
			},
			{
				"type": "unocc",
				"energy": 0.03556,
				"method": "rhf"
			}
		],
		"cosmo_sigma_profile": { 
			"-0.025": 0.0,
			"-0.024": 0.0,
			"-0.023": 0.0,
			"-0.022": 0.0,
			"-0.021": 0.0,
			"-0.02": 0.0,
			"-0.019": 0.41290193134,
			"-0.018": 0.891604457497,
			"-0.017": 0.62651777365,
			"-0.016": 0.901726050127,
			"-0.015": 1.26426115591,
			"-0.014": 0.256772921478,
			"-0.013": 0.11855825481,
			"-0.012": 1.04122553317,
			"-0.011": 0.908533019828,
			"-0.01": 0.623162195969,
			"-0.009": 1.12137876361,
			"-0.008": 4.01210062217,
			"-0.007": 10.8751653507,
			"-0.006": 18.3025248878,
			"-0.005": 19.1781949432,
			"-0.004": 17.6235235728,
			"-0.003": 13.7387509553,
			"-0.002": 12.1938937677,
			"-0.001": 12.4507535291,
			"0.0": 15.0227646696,
			"0.001": 20.0459246834,
			"0.002": 22.0911028427,
			"0.003": 26.6494282558,
			"0.004": 20.840350097,
			"0.005": 13.312280823,
			"0.006": 5.81994341662,
			"0.007": 5.54829974339,
			"0.008": 5.7624906036,
			"0.009": 5.29422419479,
			"0.01": 5.04963348618,
			"0.011": 4.58786815625,
			"0.012": 0.75689735236,
			"0.013": 0.0,
			"0.014": 0.0,
			"0.015": 0.0,
			"0.016": 0.0,
			"0.017": 0.0,
			"0.018": 0.0,
			"0.019": 0.0,
			"0.02": 0.0,
			"0.021": 0.0,
			"0.022": 0.0,
			"0.023": 0.0,
			"0.024": 0.0,
			"0.025": 0.0
		}
	}
}
