{
	 "smiles": "CNC1=NC=C(S1)C(=O)OC", 
	 "Tm": 389.15, 
	 "num_atms": 19, 
	 "gaussian": { 
		 "optdone": 1, 
		 "sigma_profile": "yes", 
		 "theory": "DFT", 
		 "functional": "B3LYP", 
		 "basiset": "6-31G**", 
		 "properties": { 
			 "R2extent": 2685.3601, 
			 "electric_dipole_moment_norm": 2.86948748211, 
			 "electric_quadrupole_moment_norm": 19.5935102121, 
			 "total_energy": -891.598710842, 
			 "HOMO_LUMO_gap": 0.17432, 
			 "cosmo_polarized_energy": -12.9, 
			 "cosmo_cavitation_energy": 25.28, 
			 "cosmo_dispersion_energy": -19.22, 
			 "cosmo_repulsion_energy": 1.51, 
			 "cosmo_total_nonelectrostatic_energy": 7.58, 
			 "SMD_solvation_energy": 3.76 
		},
		"coords": [
			{
				"x": 2.6515197328,
				"y": 0.4810128083,
				"z": -2.5271930883,
				"element": "C" 
			},
			{
				"x": 1.6013471248,
				"y": 1.3537377435,
				"z": -2.0429479288,
				"element": "N" 
			},
			{
				"x": 0.8428236922,
				"y": 1.0960064596,
				"z": -0.9506652587,
				"element": "C" 
			},
			{
				"x": -0.196073931,
				"y": 1.8367196677,
				"z": -0.6124722966,
				"element": "N" 
			},
			{
				"x": -0.7498390594,
				"y": 1.3600113827,
				"z": 0.5367708142,
				"element": "C" 
			},
			{
				"x": -0.1689236133,
				"y": 0.2545003963,
				"z": 1.1074523829,
				"element": "C" 
			},
			{
				"x": 1.2018502331,
				"y": -0.2539139394,
				"z": 0.1276441266,
				"element": "S" 
			},
			{
				"x": -0.51689891,
				"y": -0.486817929,
				"z": 2.3127525176,
				"element": "C" 
			},
			{
				"x": 0.0801252551,
				"y": -1.4672303009,
				"z": 2.7231888168,
				"element": "O" 
			},
			{
				"x": -1.5989905156,
				"y": 0.047766589,
				"z": 2.9347188492,
				"element": "O" 
			},
			{
				"x": -2.0029236182,
				"y": -0.6305751858,
				"z": 4.1325672371,
				"element": "C" 
			},
			{
				"x": 3.1320375732,
				"y": 0.9517491767,
				"z": -3.386211204,
				"element": "H" 
			},
			{
				"x": 2.2698777119,
				"y": -0.5025550495,
				"z": -2.8342301671,
				"element": "H" 
			},
			{
				"x": 3.4143114194,
				"y": 0.328662786,
				"z": -1.7546251401,
				"element": "H" 
			},
			{
				"x": 1.2384406794,
				"y": 2.0821264072,
				"z": -2.6406028582,
				"element": "H" 
			},
			{
				"x": -1.6163581476,
				"y": 1.857831071,
				"z": 0.9565029636,
				"element": "H" 
			},
			{
				"x": -1.2000535698,
				"y": -0.6192523395,
				"z": 4.874365387,
				"element": "H" 
			},
			{
				"x": -2.2682201871,
				"y": -1.6694349354,
				"z": 3.9194991932,
				"element": "H" 
			},
			{
				"x": -2.8706518699,
				"y": -0.0830448086,
				"z": 4.5010856538,
				"element": "H" 
			}
		],
		 "valence_orbital": [ 
			{
				"type": "occ",
				"energy": -0.29402,
				"method": "rhf"
			},
			{
				"type": "occ",
				"energy": -0.28825,
				"method": "rhf"
			},
			{
				"type": "occ",
				"energy": -0.27769,
				"method": "rhf"
			},
			{
				"type": "occ",
				"energy": -0.2605,
				"method": "rhf"
			},
			{
				"type": "occ",
				"energy": -0.21152,
				"method": "rhf"
			},
			{
				"type": "unocc",
				"energy": -0.0372,
				"method": "rhf"
			},
			{
				"type": "unocc",
				"energy": 0.01633,
				"method": "rhf"
			},
			{
				"type": "unocc",
				"energy": 0.03528,
				"method": "rhf"
			},
			{
				"type": "unocc",
				"energy": 0.06081,
				"method": "rhf"
			},
			{
				"type": "unocc",
				"energy": 0.10242,
				"method": "rhf"
			}
		],
		"cosmo_sigma_profile": { 
			"-0.025": 0.0,
			"-0.024": 0.0,
			"-0.023": 0.0,
			"-0.022": 0.0,
			"-0.021": 0.0,
			"-0.02": 0.0,
			"-0.019": 0.0,
			"-0.018": 0.0,
			"-0.017": 0.0,
			"-0.016": 0.0358982066774,
			"-0.015": 0.97588838033,
			"-0.014": 1.27198462415,
			"-0.013": 0.967491898018,
			"-0.012": 1.15589343722,
			"-0.011": 0.838004758209,
			"-0.01": 1.15540212383,
			"-0.009": 0.958209494113,
			"-0.008": 2.46572897565,
			"-0.007": 4.26146625028,
			"-0.006": 9.67251792536,
			"-0.005": 14.7169722049,
			"-0.004": 18.7103847896,
			"-0.003": 21.262423379,
			"-0.002": 13.0763249269,
			"-0.001": 8.76974099119,
			"0.0": 13.0424099216,
			"0.001": 15.8650828743,
			"0.002": 16.5734038487,
			"0.003": 13.5533292616,
			"0.004": 8.15209377975,
			"0.005": 4.72163582459,
			"0.006": 5.89967237536,
			"0.007": 3.48985092248,
			"0.008": 3.17368868848,
			"0.009": 2.13734338382,
			"0.01": 2.84546925064,
			"0.011": 3.63799673593,
			"0.012": 5.93106235794,
			"0.013": 2.25878003645,
			"0.014": 0.962797451629,
			"0.015": 0.592631222714,
			"0.016": 0.0193762255059,
			"0.017": 0.0,
			"0.018": 0.0,
			"0.019": 0.0,
			"0.02": 0.0,
			"0.021": 0.0,
			"0.022": 0.0,
			"0.023": 0.0,
			"0.024": 0.0,
			"0.025": 0.0
		}
	}
}
