{
	 "smiles": "COC1=CC=C(SC2=C(Cl)C=C(N)C=C2)C=C1", 
	 "Tm": 378.15, 
	 "num_atms": 29, 
	 "gaussian": { 
		 "optdone": 1, 
		 "sigma_profile": "yes", 
		 "theory": "DFT", 
		 "functional": "B3LYP", 
		 "basiset": "6-31G**", 
		 "properties": { 
			 "R2extent": 6745.9976, 
			 "electric_dipole_moment_norm": 3.28066852638, 
			 "electric_quadrupole_moment_norm": 26.4831789903, 
			 "total_energy": -1490.95677329, 
			 "HOMO_LUMO_gap": 0.18346, 
			 "cosmo_polarized_energy": -14.72, 
			 "cosmo_cavitation_energy": 36.61, 
			 "cosmo_dispersion_energy": -26.37, 
			 "cosmo_repulsion_energy": 2.02, 
			 "cosmo_total_nonelectrostatic_energy": 12.26, 
			 "SMD_solvation_energy": 6.18 
		},
		"coords": [
			{
				"x": -4.538479551,
				"y": 3.4738555905,
				"z": -1.6667157615,
				"element": "C" 
			},
			{
				"x": -4.0889514972,
				"y": 2.2800164625,
				"z": -1.0472912392,
				"element": "O" 
			},
			{
				"x": -2.8387711972,
				"y": 2.2699979033,
				"z": -0.4983066598,
				"element": "C" 
			},
			{
				"x": -2.4476351102,
				"y": 1.0616526843,
				"z": 0.1005303538,
				"element": "C" 
			},
			{
				"x": -1.2004925512,
				"y": 0.9467787766,
				"z": 0.6980795732,
				"element": "C" 
			},
			{
				"x": -0.304671504,
				"y": 2.027357264,
				"z": 0.6885133941,
				"element": "C" 
			},
			{
				"x": 1.2890372012,
				"y": 1.9600936889,
				"z": 1.5172442262,
				"element": "S" 
			},
			{
				"x": 1.9737073438,
				"y": 0.4002201206,
				"z": 0.9785214153,
				"element": "C" 
			},
			{
				"x": 2.4704256325,
				"y": 0.1551498498,
				"z": -0.3153876067,
				"element": "C" 
			},
			{
				"x": 2.379006472,
				"y": 1.3815161782,
				"z": -1.5665871987,
				"element": "Cl" 
			},
			{
				"x": 3.0467347633,
				"y": -1.0629565121,
				"z": -0.6608698685,
				"element": "C" 
			},
			{
				"x": 3.1713971105,
				"y": -2.0885561652,
				"z": 0.2921033349,
				"element": "C" 
			},
			{
				"x": 3.8009774461,
				"y": -3.2821785505,
				"z": -0.0373035914,
				"element": "N" 
			},
			{
				"x": 2.6957758075,
				"y": -1.855015656,
				"z": 1.593833729,
				"element": "C" 
			},
			{
				"x": 2.1089100287,
				"y": -0.6377446063,
				"z": 1.9151648288,
				"element": "C" 
			},
			{
				"x": -0.6928322115,
				"y": 3.222531014,
				"z": 0.0813298903,
				"element": "C" 
			},
			{
				"x": -1.9573063957,
				"y": 3.3558834698,
				"z": -0.5009094129,
				"element": "C" 
			},
			{
				"x": -4.576444891,
				"y": 4.3102010093,
				"z": -0.9565424109,
				"element": "H" 
			},
			{
				"x": -5.5466551892,
				"y": 3.2655163777,
				"z": -2.0285254099,
				"element": "H" 
			},
			{
				"x": -3.9021128513,
				"y": 3.7549588202,
				"z": -2.5159428536,
				"element": "H" 
			},
			{
				"x": -3.1463095091,
				"y": 0.231171939,
				"z": 0.0940766105,
				"element": "H" 
			},
			{
				"x": -0.9136089561,
				"y": 0.0114481938,
				"z": 1.168249513,
				"element": "H" 
			},
			{
				"x": 3.4129354623,
				"y": -1.2104762462,
				"z": -1.6716655819,
				"element": "H" 
			},
			{
				"x": 3.5819808094,
				"y": -4.0741795326,
				"z": 0.5496852719,
				"element": "H" 
			},
			{
				"x": 3.8242111595,
				"y": -3.5176158193,
				"z": -1.0190642711,
				"element": "H" 
			},
			{
				"x": 2.7860658172,
				"y": -2.6306023547,
				"z": 2.3495613965,
				"element": "H" 
			},
			{
				"x": 1.7383452344,
				"y": -0.4714383825,
				"z": 2.9216608717,
				"element": "H" 
			},
			{
				"x": -0.0020347996,
				"y": 4.0595936894,
				"z": 0.0533537264,
				"element": "H" 
			},
			{
				"x": -2.2293040739,
				"y": 4.2975207932,
				"z": -0.9628962697,
				"element": "H" 
			}
		],
		 "valence_orbital": [ 
			{
				"type": "occ",
				"energy": -0.25002,
				"method": "rhf"
			},
			{
				"type": "occ",
				"energy": -0.24663,
				"method": "rhf"
			},
			{
				"type": "occ",
				"energy": -0.24529,
				"method": "rhf"
			},
			{
				"type": "occ",
				"energy": -0.21705,
				"method": "rhf"
			},
			{
				"type": "occ",
				"energy": -0.19594,
				"method": "rhf"
			},
			{
				"type": "unocc",
				"energy": -0.01248,
				"method": "rhf"
			},
			{
				"type": "unocc",
				"energy": -0.00911,
				"method": "rhf"
			},
			{
				"type": "unocc",
				"energy": 0.00057,
				"method": "rhf"
			},
			{
				"type": "unocc",
				"energy": 0.00583,
				"method": "rhf"
			},
			{
				"type": "unocc",
				"energy": 0.035,
				"method": "rhf"
			}
		],
		"cosmo_sigma_profile": { 
			"-0.025": 0.0,
			"-0.024": 0.0,
			"-0.023": 0.0,
			"-0.022": 0.0,
			"-0.021": 0.0,
			"-0.02": 0.0,
			"-0.019": 0.0,
			"-0.018": 0.0,
			"-0.017": 0.0,
			"-0.016": 0.0,
			"-0.015": 0.0,
			"-0.014": 0.161109744988,
			"-0.013": 2.24777049126,
			"-0.012": 3.26450970722,
			"-0.011": 2.8779111429,
			"-0.01": 3.19503818302,
			"-0.009": 3.51672959202,
			"-0.008": 3.24929414062,
			"-0.007": 5.13834854577,
			"-0.006": 14.1997757601,
			"-0.005": 22.6204735578,
			"-0.004": 19.4583606257,
			"-0.003": 18.4614700795,
			"-0.002": 16.0731899,
			"-0.001": 15.0149064032,
			"0.0": 14.5910938403,
			"0.001": 17.5480023981,
			"0.002": 23.2160688362,
			"0.003": 27.0769460053,
			"0.004": 33.1489567803,
			"0.005": 24.5204778002,
			"0.006": 9.27810155338,
			"0.007": 4.94417194732,
			"0.008": 4.36271633461,
			"0.009": 3.35069667799,
			"0.01": 2.39373171642,
			"0.011": 1.01594342744,
			"0.012": 0.568411646064,
			"0.013": 0.430989172289,
			"0.014": 0.0,
			"0.015": 0.0,
			"0.016": 0.0,
			"0.017": 0.0,
			"0.018": 0.0,
			"0.019": 0.0,
			"0.02": 0.0,
			"0.021": 0.0,
			"0.022": 0.0,
			"0.023": 0.0,
			"0.024": 0.0,
			"0.025": 0.0
		}
	}
}
