{
	 "smiles": "COC(CNC(C(O)C1=CC=CC=C1)C1=CC=CC=C1)OC", 
	 "Tm": 418.15, 
	 "num_atms": 45, 
	 "gaussian": { 
		 "optdone": 1, 
		 "sigma_profile": "yes", 
		 "theory": "DFT", 
		 "functional": "B3LYP", 
		 "basiset": "6-31G**", 
		 "properties": { 
			 "R2extent": 7857.3958, 
			 "electric_dipole_moment_norm": 1.36634863413, 
			 "electric_quadrupole_moment_norm": 6.78209119962, 
			 "total_energy": -980.166328253, 
			 "HOMO_LUMO_gap": 0.20477, 
			 "cosmo_polarized_energy": -13.31, 
			 "cosmo_cavitation_energy": 46.97, 
			 "cosmo_dispersion_energy": -29.92, 
			 "cosmo_repulsion_energy": 2.36, 
			 "cosmo_total_nonelectrostatic_energy": 19.41, 
			 "SMD_solvation_energy": 7.39 
		},
		"coords": [
			{
				"x": 3.8361756851,
				"y": 1.1364935483,
				"z": 2.4722099436,
				"element": "C" 
			},
			{
				"x": 4.2863645002,
				"y": 1.0957559092,
				"z": 1.1213502597,
				"element": "O" 
			},
			{
				"x": 3.3074174313,
				"y": 0.7372531528,
				"z": 0.162536421,
				"element": "C" 
			},
			{
				"x": 2.1133548086,
				"y": 1.7062085843,
				"z": 0.118514481,
				"element": "C" 
			},
			{
				"x": 1.2832035133,
				"y": 1.6555839099,
				"z": -1.0799077863,
				"element": "N" 
			},
			{
				"x": 0.3709626382,
				"y": 0.513369956,
				"z": -1.2144413267,
				"element": "C" 
			},
			{
				"x": -0.1640964219,
				"y": 0.5294962855,
				"z": -2.6708162361,
				"element": "C" 
			},
			{
				"x": 1.0037400266,
				"y": 0.5092686194,
				"z": -3.5033575841,
				"element": "O" 
			},
			{
				"x": -1.0881829658,
				"y": -0.6311900685,
				"z": -2.9939416736,
				"element": "C" 
			},
			{
				"x": -0.5560645334,
				"y": -1.8836036985,
				"z": -3.3304827143,
				"element": "C" 
			},
			{
				"x": -1.3982551744,
				"y": -2.9563982472,
				"z": -3.6244809553,
				"element": "C" 
			},
			{
				"x": -2.7845596611,
				"y": -2.7907247784,
				"z": -3.5873279771,
				"element": "C" 
			},
			{
				"x": -3.3227853364,
				"y": -1.545682537,
				"z": -3.2567205897,
				"element": "C" 
			},
			{
				"x": -2.478869609,
				"y": -0.4731909987,
				"z": -2.9649187822,
				"element": "C" 
			},
			{
				"x": -0.7657343232,
				"y": 0.6061691516,
				"z": -0.2053940929,
				"element": "C" 
			},
			{
				"x": -1.406920059,
				"y": 1.8291310909,
				"z": 0.0387094858,
				"element": "C" 
			},
			{
				"x": -2.4708841468,
				"y": 1.9074313583,
				"z": 0.9378960078,
				"element": "C" 
			},
			{
				"x": -2.9068736071,
				"y": 0.7638324779,
				"z": 1.6117561264,
				"element": "C" 
			},
			{
				"x": -2.2683474855,
				"y": -0.4559427698,
				"z": 1.3829619112,
				"element": "C" 
			},
			{
				"x": -1.2043389766,
				"y": -0.531133463,
				"z": 0.4821026734,
				"element": "C" 
			},
			{
				"x": 2.8152816379,
				"y": -0.5682134935,
				"z": 0.3709422525,
				"element": "O" 
			},
			{
				"x": 3.7896588942,
				"y": -1.5851050274,
				"z": 0.1731037681,
				"element": "C" 
			},
			{
				"x": 4.7322241539,
				"y": 1.1815427919,
				"z": 3.0958306246,
				"element": "H" 
			},
			{
				"x": 3.2238161183,
				"y": 2.0246134038,
				"z": 2.6768546379,
				"element": "H" 
			},
			{
				"x": 3.2610290237,
				"y": 0.2407198725,
				"z": 2.732451672,
				"element": "H" 
			},
			{
				"x": 3.8558989265,
				"y": 0.7822672777,
				"z": -0.7923274114,
				"element": "H" 
			},
			{
				"x": 1.475273539,
				"y": 1.5366336065,
				"z": 0.9912853716,
				"element": "H" 
			},
			{
				"x": 2.5301397307,
				"y": 2.7170698938,
				"z": 0.20744317,
				"element": "H" 
			},
			{
				"x": 1.8559722011,
				"y": 1.7046413245,
				"z": -1.9178962961,
				"element": "H" 
			},
			{
				"x": 0.8784953026,
				"y": -0.4518704129,
				"z": -1.0743029732,
				"element": "H" 
			},
			{
				"x": -0.7060891788,
				"y": 1.476928743,
				"z": -2.8111569185,
				"element": "H" 
			},
			{
				"x": 0.7079025778,
				"y": 0.5201437434,
				"z": -4.4228616815,
				"element": "H" 
			},
			{
				"x": 0.5223207617,
				"y": -2.0027316323,
				"z": -3.3724364198,
				"element": "H" 
			},
			{
				"x": -0.9724349887,
				"y": -3.921501934,
				"z": -3.8853488602,
				"element": "H" 
			},
			{
				"x": -3.4406749912,
				"y": -3.6250611441,
				"z": -3.8188593145,
				"element": "H" 
			},
			{
				"x": -4.3999977749,
				"y": -1.4073197233,
				"z": -3.2298745869,
				"element": "H" 
			},
			{
				"x": -2.9017860718,
				"y": 0.4935708258,
				"z": -2.7049634613,
				"element": "H" 
			},
			{
				"x": -1.0449432132,
				"y": 2.7180135396,
				"z": -0.4690211426,
				"element": "H" 
			},
			{
				"x": -2.9571626011,
				"y": 2.8627298833,
				"z": 1.1173283182,
				"element": "H" 
			},
			{
				"x": -3.7329982142,
				"y": 0.8251166607,
				"z": 2.3148616562,
				"element": "H" 
			},
			{
				"x": -2.5945626955,
				"y": -1.349110748,
				"z": 1.9087892185,
				"element": "H" 
			},
			{
				"x": -0.7073838587,
				"y": -1.48174566,
				"z": 0.3084648017,
				"element": "H" 
			},
			{
				"x": 4.6402076143,
				"y": -1.4656572063,
				"z": 0.8536420735,
				"element": "H" 
			},
			{
				"x": 3.2974636336,
				"y": -2.5401260136,
				"z": 0.369338758,
				"element": "H" 
			},
			{
				"x": 4.1642431698,
				"y": -1.580276054,
				"z": -0.8611348484,
				"element": "H" 
			}
		],
		 "valence_orbital": [ 
			{
				"type": "occ",
				"energy": -0.24803,
				"method": "rhf"
			},
			{
				"type": "occ",
				"energy": -0.24096,
				"method": "rhf"
			},
			{
				"type": "occ",
				"energy": -0.23864,
				"method": "rhf"
			},
			{
				"type": "occ",
				"energy": -0.23499,
				"method": "rhf"
			},
			{
				"type": "occ",
				"energy": -0.20792,
				"method": "rhf"
			},
			{
				"type": "unocc",
				"energy": -0.00315,
				"method": "rhf"
			},
			{
				"type": "unocc",
				"energy": 0.00052,
				"method": "rhf"
			},
			{
				"type": "unocc",
				"energy": 0.00588,
				"method": "rhf"
			},
			{
				"type": "unocc",
				"energy": 0.00829,
				"method": "rhf"
			},
			{
				"type": "unocc",
				"energy": 0.08416,
				"method": "rhf"
			}
		],
		"cosmo_sigma_profile": { 
			"-0.025": 0.0,
			"-0.024": 0.0,
			"-0.023": 0.0,
			"-0.022": 0.0,
			"-0.021": 0.0,
			"-0.02": 0.0,
			"-0.019": 0.0,
			"-0.018": 0.0,
			"-0.017": 0.0115240680484,
			"-0.016": 0.516933245958,
			"-0.015": 0.757357660224,
			"-0.014": 1.27067904665,
			"-0.013": 0.511746457589,
			"-0.012": 0.175975397094,
			"-0.011": 0.735860485156,
			"-0.01": 1.06454409413,
			"-0.009": 0.622204995875,
			"-0.008": 2.08711284564,
			"-0.007": 2.663328666,
			"-0.006": 6.56390939426,
			"-0.005": 22.3646711476,
			"-0.004": 38.0158378583,
			"-0.003": 45.9881067934,
			"-0.002": 40.2317745717,
			"-0.001": 30.6201115718,
			"0.0": 23.6468094803,
			"0.001": 21.2684517311,
			"0.002": 22.2501254086,
			"0.003": 20.8348686836,
			"0.004": 22.0672330305,
			"0.005": 21.3935940962,
			"0.006": 20.2561249071,
			"0.007": 6.08994607967,
			"0.008": 4.36859313864,
			"0.009": 3.19882156376,
			"0.01": 2.69753651492,
			"0.011": 2.47666807474,
			"0.012": 2.28821348145,
			"0.013": 1.81152327821,
			"0.014": 0.291848218841,
			"0.015": 0.0,
			"0.016": 0.0,
			"0.017": 0.0,
			"0.018": 0.0,
			"0.019": 0.0,
			"0.02": 0.0,
			"0.021": 0.0,
			"0.022": 0.0,
			"0.023": 0.0,
			"0.024": 0.0,
			"0.025": 0.0
		}
	}
}
