{
	 "smiles": "COC1=C(C=C2C(=O)COC2=C1)C(=O)CCl", 
	 "Tm": 450.15, 
	 "num_atms": 25, 
	 "gaussian": { 
		 "optdone": 1, 
		 "sigma_profile": "yes", 
		 "theory": "DFT", 
		 "functional": "B3LYP", 
		 "basiset": "6-31G**", 
		 "properties": { 
			 "R2extent": 5448.1682, 
			 "electric_dipole_moment_norm": 7.87992415319, 
			 "electric_quadrupole_moment_norm": 17.0181815477, 
			 "total_energy": -1185.65649384, 
			 "HOMO_LUMO_gap": 0.17855, 
			 "cosmo_polarized_energy": -18.8, 
			 "cosmo_cavitation_energy": 31.52, 
			 "cosmo_dispersion_energy": -23.16, 
			 "cosmo_repulsion_energy": 1.8, 
			 "cosmo_total_nonelectrostatic_energy": 10.16, 
			 "SMD_solvation_energy": 7.26 
		},
		"coords": [
			{
				"x": 1.1959194505,
				"y": 3.4688309155,
				"z": 0.4137592733,
				"element": "C" 
			},
			{
				"x": 1.6558933588,
				"y": 2.1481216345,
				"z": 0.6945426805,
				"element": "O" 
			},
			{
				"x": 0.8701308401,
				"y": 1.0858968574,
				"z": 0.3945339205,
				"element": "C" 
			},
			{
				"x": 1.3982251341,
				"y": -0.2085371354,
				"z": 0.7044300023,
				"element": "C" 
			},
			{
				"x": 0.6156612364,
				"y": -1.330641486,
				"z": 0.4090683652,
				"element": "C" 
			},
			{
				"x": -0.6396875753,
				"y": -1.18290463,
				"z": -0.1696178085,
				"element": "C" 
			},
			{
				"x": -1.6645436247,
				"y": -2.1459422751,
				"z": -0.5837924891,
				"element": "C" 
			},
			{
				"x": -1.6800882722,
				"y": -3.35971738,
				"z": -0.525538908,
				"element": "O" 
			},
			{
				"x": -2.7995106177,
				"y": -1.2646951496,
				"z": -1.1474897735,
				"element": "C" 
			},
			{
				"x": -2.3589028421,
				"y": 0.1078928409,
				"z": -1.0209017924,
				"element": "O" 
			},
			{
				"x": -1.1267757463,
				"y": 0.0974831175,
				"z": -0.4600599127,
				"element": "C" 
			},
			{
				"x": -0.393859433,
				"y": 1.247524556,
				"z": -0.1888313288,
				"element": "C" 
			},
			{
				"x": 2.7364655045,
				"y": -0.5037906851,
				"z": 1.3287515955,
				"element": "C" 
			},
			{
				"x": 3.0631338833,
				"y": -1.6572528499,
				"z": 1.5380955909,
				"element": "O" 
			},
			{
				"x": 3.6695362587,
				"y": 0.6544926093,
				"z": 1.6925225538,
				"element": "C" 
			},
			{
				"x": 5.2105174633,
				"y": 0.099680706,
				"z": 2.4242726756,
				"element": "Cl" 
			},
			{
				"x": 0.2799110013,
				"y": 3.6963921623,
				"z": 0.9700091957,
				"element": "H" 
			},
			{
				"x": 1.0203142356,
				"y": 3.6079743512,
				"z": -0.6586496452,
				"element": "H" 
			},
			{
				"x": 1.9952079121,
				"y": 4.1340246874,
				"z": 0.7410173795,
				"element": "H" 
			},
			{
				"x": 1.0146026329,
				"y": -2.3117460735,
				"z": 0.6432740221,
				"element": "H" 
			},
			{
				"x": -2.9888914417,
				"y": -1.4804900026,
				"z": -2.2032334695,
				"element": "H" 
			},
			{
				"x": -3.7267831786,
				"y": -1.3932360138,
				"z": -0.5812184614,
				"element": "H" 
			},
			{
				"x": -0.8027658692,
				"y": 2.2196330722,
				"z": -0.4271449094,
				"element": "H" 
			},
			{
				"x": 3.9102666831,
				"y": 1.2394850884,
				"z": 0.8039858966,
				"element": "H" 
			},
			{
				"x": 3.1819230061,
				"y": 1.3243210823,
				"z": 2.401915347,
				"element": "H" 
			}
		],
		 "valence_orbital": [ 
			{
				"type": "occ",
				"energy": -0.29159,
				"method": "rhf"
			},
			{
				"type": "occ",
				"energy": -0.26855,
				"method": "rhf"
			},
			{
				"type": "occ",
				"energy": -0.26537,
				"method": "rhf"
			},
			{
				"type": "occ",
				"energy": -0.25661,
				"method": "rhf"
			},
			{
				"type": "occ",
				"energy": -0.24669,
				"method": "rhf"
			},
			{
				"type": "unocc",
				"energy": -0.06814,
				"method": "rhf"
			},
			{
				"type": "unocc",
				"energy": -0.05902,
				"method": "rhf"
			},
			{
				"type": "unocc",
				"energy": 0.01349,
				"method": "rhf"
			},
			{
				"type": "unocc",
				"energy": 0.03389,
				"method": "rhf"
			},
			{
				"type": "unocc",
				"energy": 0.04781,
				"method": "rhf"
			}
		],
		"cosmo_sigma_profile": { 
			"-0.025": 0.0,
			"-0.024": 0.0,
			"-0.023": 0.0,
			"-0.022": 0.0,
			"-0.021": 0.0,
			"-0.02": 0.0,
			"-0.019": 0.0,
			"-0.018": 0.0,
			"-0.017": 0.0,
			"-0.016": 0.0,
			"-0.015": 0.0,
			"-0.014": 0.0,
			"-0.013": 0.0,
			"-0.012": 0.0,
			"-0.011": 0.0,
			"-0.01": 0.0,
			"-0.009": 3.9806555247,
			"-0.008": 11.5041483122,
			"-0.007": 15.8043215086,
			"-0.006": 17.8540084108,
			"-0.005": 17.4927046067,
			"-0.004": 16.8185057304,
			"-0.003": 13.916350992,
			"-0.002": 13.866322293,
			"-0.001": 18.2182642891,
			"0.0": 23.0824917542,
			"0.001": 18.576327032,
			"0.002": 9.25678890167,
			"0.003": 6.95689290591,
			"0.004": 7.37634066775,
			"0.005": 8.9543303432,
			"0.006": 11.8996685071,
			"0.007": 6.50061477845,
			"0.008": 4.80286578973,
			"0.009": 5.25064134019,
			"0.01": 4.73888491695,
			"0.011": 8.32839992632,
			"0.012": 6.57963648874,
			"0.013": 2.64976890185,
			"0.014": 0.115880676415,
			"0.015": 0.0,
			"0.016": 0.0,
			"0.017": 0.0,
			"0.018": 0.0,
			"0.019": 0.0,
			"0.02": 0.0,
			"0.021": 0.0,
			"0.022": 0.0,
			"0.023": 0.0,
			"0.024": 0.0,
			"0.025": 0.0
		}
	}
}
