{
	 "smiles": "NC(=S)NC1=CC=C(O)C=C1", 
	 "Tm": 487.15, 
	 "num_atms": 19, 
	 "gaussian": { 
		 "optdone": 1, 
		 "sigma_profile": "yes", 
		 "theory": "DFT", 
		 "functional": "B3LYP", 
		 "basiset": "6-31G**", 
		 "properties": { 
			 "R2extent": 3612.2558, 
			 "electric_dipole_moment_norm": 6.13636126544, 
			 "electric_quadrupole_moment_norm": 27.559419585, 
			 "total_energy": -854.492936356, 
			 "HOMO_LUMO_gap": 0.17618, 
			 "cosmo_polarized_energy": -21.41, 
			 "cosmo_cavitation_energy": 25.09, 
			 "cosmo_dispersion_energy": -19.07, 
			 "cosmo_repulsion_energy": 1.51, 
			 "cosmo_total_nonelectrostatic_energy": 7.52, 
			 "SMD_solvation_energy": 3.81 
		},
		"coords": [
			{
				"x": 3.5832769161,
				"y": -1.0054224376,
				"z": 1.8533037463,
				"element": "N" 
			},
			{
				"x": 3.1650457046,
				"y": -1.9348097667,
				"z": 0.9515826413,
				"element": "C" 
			},
			{
				"x": 4.0622356171,
				"y": -3.3137568026,
				"z": 0.600292281,
				"element": "S" 
			},
			{
				"x": 1.9768090796,
				"y": -1.6893647378,
				"z": 0.3216101816,
				"element": "N" 
			},
			{
				"x": 1.1067552744,
				"y": -0.5739030973,
				"z": 0.4586841622,
				"element": "C" 
			},
			{
				"x": -0.268640192,
				"y": -0.7958180618,
				"z": 0.6284741576,
				"element": "C" 
			},
			{
				"x": -1.1569765025,
				"y": 0.2694931077,
				"z": 0.7118571469,
				"element": "C" 
			},
			{
				"x": -0.6800304473,
				"y": 1.5848561374,
				"z": 0.6487751505,
				"element": "C" 
			},
			{
				"x": -1.5960067704,
				"y": 2.5903376857,
				"z": 0.7525719183,
				"element": "O" 
			},
			{
				"x": 0.6893453342,
				"y": 1.8157155582,
				"z": 0.4826122692,
				"element": "C" 
			},
			{
				"x": 1.5749409419,
				"y": 0.7439839813,
				"z": 0.3710062023,
				"element": "C" 
			},
			{
				"x": 4.3776823928,
				"y": -1.272911034,
				"z": 2.412782159,
				"element": "H" 
			},
			{
				"x": 2.9273550635,
				"y": -0.3439760784,
				"z": 2.2461055107,
				"element": "H" 
			},
			{
				"x": 1.683737543,
				"y": -2.4489594828,
				"z": -0.2770784001,
				"element": "H" 
			},
			{
				"x": -0.6385730169,
				"y": -1.814772748,
				"z": 0.6977431015,
				"element": "H" 
			},
			{
				"x": -2.2213252594,
				"y": 0.1028785781,
				"z": 0.8385629388,
				"element": "H" 
			},
			{
				"x": -1.1472442053,
				"y": 3.4426733501,
				"z": 0.6799144295,
				"element": "H" 
			},
			{
				"x": 1.0662820529,
				"y": 2.8339927362,
				"z": 0.4158093539,
				"element": "H" 
			},
			{
				"x": 2.6296304739,
				"y": 0.9308631124,
				"z": 0.1994910494,
				"element": "H" 
			}
		],
		 "valence_orbital": [ 
			{
				"type": "occ",
				"energy": -0.28858,
				"method": "rhf"
			},
			{
				"type": "occ",
				"energy": -0.2738,
				"method": "rhf"
			},
			{
				"type": "occ",
				"energy": -0.23543,
				"method": "rhf"
			},
			{
				"type": "occ",
				"energy": -0.2047,
				"method": "rhf"
			},
			{
				"type": "occ",
				"energy": -0.20146,
				"method": "rhf"
			},
			{
				"type": "unocc",
				"energy": -0.02528,
				"method": "rhf"
			},
			{
				"type": "unocc",
				"energy": -0.02099,
				"method": "rhf"
			},
			{
				"type": "unocc",
				"energy": 0.01935,
				"method": "rhf"
			},
			{
				"type": "unocc",
				"energy": 0.05597,
				"method": "rhf"
			},
			{
				"type": "unocc",
				"energy": 0.07357,
				"method": "rhf"
			}
		],
		"cosmo_sigma_profile": { 
			"-0.025": 0.0,
			"-0.024": 0.0,
			"-0.023": 0.0,
			"-0.022": 0.0,
			"-0.021": 0.0,
			"-0.02": 0.0,
			"-0.019": 0.0,
			"-0.018": 0.595169186977,
			"-0.017": 1.16912363934,
			"-0.016": 1.22148677627,
			"-0.015": 1.17687341915,
			"-0.014": 3.20835789069,
			"-0.013": 3.65867666995,
			"-0.012": 3.71034433576,
			"-0.011": 4.70874226798,
			"-0.01": 4.39997663006,
			"-0.009": 3.23154845343,
			"-0.008": 4.44307461366,
			"-0.007": 5.69812311593,
			"-0.006": 11.1617014998,
			"-0.005": 10.4635221684,
			"-0.004": 8.82162164104,
			"-0.003": 7.67851845993,
			"-0.002": 7.79966780857,
			"-0.001": 7.70351885497,
			"0.0": 10.6315634119,
			"0.001": 9.46182522568,
			"0.002": 10.5528096624,
			"0.003": 13.0714104705,
			"0.004": 15.0489860821,
			"0.005": 7.99400998087,
			"0.006": 4.77488167505,
			"0.007": 4.90846425097,
			"0.008": 4.31496044868,
			"0.009": 5.36432930993,
			"0.01": 6.6381716677,
			"0.011": 8.59756703797,
			"0.012": 8.15939480371,
			"0.013": 2.00302518762,
			"0.014": 0.0,
			"0.015": 0.0,
			"0.016": 0.0,
			"0.017": 0.0,
			"0.018": 0.0,
			"0.019": 0.0,
			"0.02": 0.0,
			"0.021": 0.0,
			"0.022": 0.0,
			"0.023": 0.0,
			"0.024": 0.0,
			"0.025": 0.0
		}
	}
}
