{
	 "smiles": "OC(=O)C1=CC=C(C=C1)N1CCCCC1", 
	 "Tm": 489.15, 
	 "num_atms": 30, 
	 "gaussian": { 
		 "optdone": 1, 
		 "sigma_profile": "yes", 
		 "theory": "DFT", 
		 "functional": "B3LYP", 
		 "basiset": "6-31G**", 
		 "properties": { 
			 "R2extent": 5138.2404, 
			 "electric_dipole_moment_norm": 7.82625192158, 
			 "electric_quadrupole_moment_norm": 33.2288549336, 
			 "total_energy": -671.527467449, 
			 "HOMO_LUMO_gap": 0.17293, 
			 "cosmo_polarized_energy": -16.41, 
			 "cosmo_cavitation_energy": 31.47, 
			 "cosmo_dispersion_energy": -23.48, 
			 "cosmo_repulsion_energy": 1.82, 
			 "cosmo_total_nonelectrostatic_energy": 9.8, 
			 "SMD_solvation_energy": 5.19 
		},
		"coords": [
			{
				"x": 1.5317319635,
				"y": -3.1135771566,
				"z": 4.7669871422,
				"element": "O" 
			},
			{
				"x": 2.0409412675,
				"y": -1.9300095422,
				"z": 4.3132526685,
				"element": "C" 
			},
			{
				"x": 2.8086383838,
				"y": -1.3074924648,
				"z": 5.0134799525,
				"element": "O" 
			},
			{
				"x": 1.6030400903,
				"y": -1.4822379067,
				"z": 2.9643126116,
				"element": "C" 
			},
			{
				"x": 1.0050542767,
				"y": -2.3172151425,
				"z": 2.0108311997,
				"element": "C" 
			},
			{
				"x": 0.6312034462,
				"y": -1.8427287782,
				"z": 0.7597902361,
				"element": "C" 
			},
			{
				"x": 0.8363344631,
				"y": -0.4875134024,
				"z": 0.3995595263,
				"element": "C" 
			},
			{
				"x": 1.4537419616,
				"y": 0.348218157,
				"z": 1.3667279701,
				"element": "C" 
			},
			{
				"x": 1.831135035,
				"y": -0.1439041852,
				"z": 2.6028469438,
				"element": "C" 
			},
			{
				"x": 0.4258799428,
				"y": -0.0139928171,
				"z": -0.8315142054,
				"element": "N" 
			},
			{
				"x": -0.3344877898,
				"y": -0.8777445099,
				"z": -1.7388643492,
				"element": "C" 
			},
			{
				"x": -0.9145861378,
				"y": -0.0727738298,
				"z": -2.9158212409,
				"element": "C" 
			},
			{
				"x": -1.4077312991,
				"y": 1.2981771921,
				"z": -2.4372038144,
				"element": "C" 
			},
			{
				"x": -0.2288084692,
				"y": 2.1326860241,
				"z": -1.8784186125,
				"element": "C" 
			},
			{
				"x": 0.9295234257,
				"y": 1.2168943082,
				"z": -1.4387816658,
				"element": "C" 
			},
			{
				"x": 0.8121107145,
				"y": -3.4036166027,
				"z": 4.1904024618,
				"element": "H" 
			},
			{
				"x": 0.8620644112,
				"y": -3.3775762756,
				"z": 2.2103056146,
				"element": "H" 
			},
			{
				"x": 0.2051256811,
				"y": -2.5386659571,
				"z": 0.0487448524,
				"element": "H" 
			},
			{
				"x": 1.6189328393,
				"y": 1.3986116077,
				"z": 1.1592787962,
				"element": "H" 
			},
			{
				"x": 2.3045954994,
				"y": 0.5079789027,
				"z": 3.3295663172,
				"element": "H" 
			},
			{
				"x": -1.1610272408,
				"y": -1.3240370955,
				"z": -1.1718546801,
				"element": "H" 
			},
			{
				"x": 0.2835286301,
				"y": -1.7095416578,
				"z": -2.1161987549,
				"element": "H" 
			},
			{
				"x": -0.159836304,
				"y": 0.0558123752,
				"z": -3.7010777449,
				"element": "H" 
			},
			{
				"x": -1.7282093276,
				"y": -0.6523237877,
				"z": -3.364160036,
				"element": "H" 
			},
			{
				"x": -2.1584402671,
				"y": 1.1462759506,
				"z": -1.6525399713,
				"element": "H" 
			},
			{
				"x": -1.9096520603,
				"y": 1.8336140161,
				"z": -3.2494849619,
				"element": "H" 
			},
			{
				"x": -0.5679926593,
				"y": 2.7389415783,
				"z": -1.0319223619,
				"element": "H" 
			},
			{
				"x": 0.1492721427,
				"y": 2.8282583343,
				"z": -2.6370551945,
				"element": "H" 
			},
			{
				"x": 1.5914517007,
				"y": 1.7323298287,
				"z": -0.7460543889,
				"element": "H" 
			},
			{
				"x": 1.5500656799,
				"y": 0.9565528366,
				"z": -2.3097343104,
				"element": "H" 
			}
		],
		 "valence_orbital": [ 
			{
				"type": "occ",
				"energy": -0.30172,
				"method": "rhf"
			},
			{
				"type": "occ",
				"energy": -0.28707,
				"method": "rhf"
			},
			{
				"type": "occ",
				"energy": -0.25888,
				"method": "rhf"
			},
			{
				"type": "occ",
				"energy": -0.25472,
				"method": "rhf"
			},
			{
				"type": "occ",
				"energy": -0.20086,
				"method": "rhf"
			},
			{
				"type": "unocc",
				"energy": -0.02793,
				"method": "rhf"
			},
			{
				"type": "unocc",
				"energy": -0.00772,
				"method": "rhf"
			},
			{
				"type": "unocc",
				"energy": 0.06382,
				"method": "rhf"
			},
			{
				"type": "unocc",
				"energy": 0.06645,
				"method": "rhf"
			},
			{
				"type": "unocc",
				"energy": 0.0759,
				"method": "rhf"
			}
		],
		"cosmo_sigma_profile": { 
			"-0.025": 0.0,
			"-0.024": 0.0,
			"-0.023": 0.0,
			"-0.022": 0.0,
			"-0.021": 0.0,
			"-0.02": 0.0,
			"-0.019": 0.0,
			"-0.018": 0.313715658128,
			"-0.017": 0.686428173985,
			"-0.016": 1.0615283707,
			"-0.015": 1.09607354397,
			"-0.014": 0.911324074052,
			"-0.013": 0.741126827883,
			"-0.012": 0.747075548921,
			"-0.011": 1.48307988057,
			"-0.01": 1.27391840891,
			"-0.009": 0.733594243097,
			"-0.008": 2.02005748912,
			"-0.007": 3.88944815502,
			"-0.006": 4.56066057118,
			"-0.005": 9.56041681007,
			"-0.004": 19.276592662,
			"-0.003": 31.0454731017,
			"-0.002": 33.8705891997,
			"-0.001": 24.8387273902,
			"0.0": 19.3925364615,
			"0.001": 15.0754742633,
			"0.002": 9.47558058107,
			"0.003": 8.82071461017,
			"0.004": 12.7193526037,
			"0.005": 13.0528986617,
			"0.006": 2.94068247759,
			"0.007": 2.83129106175,
			"0.008": 2.25360208914,
			"0.009": 2.97251403274,
			"0.01": 3.27814265216,
			"0.011": 4.64947240627,
			"0.012": 5.59859883699,
			"0.013": 4.82152405361,
			"0.014": 1.56970877123,
			"0.015": 0.0325736518411,
			"0.016": 0.0,
			"0.017": 0.0,
			"0.018": 0.0,
			"0.019": 0.0,
			"0.02": 0.0,
			"0.021": 0.0,
			"0.022": 0.0,
			"0.023": 0.0,
			"0.024": 0.0,
			"0.025": 0.0
		}
	}
}
