{
	 "smiles": "C1CSCSC1", 
	 "Tm": 327.15, 
	 "num_atms": 14, 
	 "gaussian": { 
		 "optdone": 1, 
		 "sigma_profile": "yes", 
		 "theory": "DFT", 
		 "functional": "B3LYP", 
		 "basiset": "6-31G**", 
		 "properties": { 
			 "R2extent": 1008.6634, 
			 "electric_dipole_moment_norm": 1.23482828766, 
			 "electric_quadrupole_moment_norm": 4.68638054259, 
			 "total_energy": -953.61789063, 
			 "HOMO_LUMO_gap": 0.22281, 
			 "cosmo_polarized_energy": -5.28, 
			 "cosmo_cavitation_energy": 18.46, 
			 "cosmo_dispersion_energy": -15.4, 
			 "cosmo_repulsion_energy": 1.2, 
			 "cosmo_total_nonelectrostatic_energy": 4.26, 
			 "SMD_solvation_energy": 1.99 
		},
		"coords": [
			{
				"x": -0.2615940637,
				"y": 0.2421949022,
				"z": -1.0320623893,
				"element": "C" 
			},
			{
				"x": 1.1454838139,
				"y": -0.3295915539,
				"z": -0.7806613611,
				"element": "C" 
			},
			{
				"x": 1.1158909275,
				"y": -2.0434152999,
				"z": -0.1234932118,
				"element": "S" 
			},
			{
				"x": 0.4693689625,
				"y": -1.7056669658,
				"z": 1.5703609005,
				"element": "C" 
			},
			{
				"x": -0.6075082777,
				"y": -0.2169371318,
				"z": 1.7276350114,
				"element": "S" 
			},
			{
				"x": -1.2999925702,
				"y": -0.1670287487,
				"z": 0.0283038011,
				"element": "C" 
			},
			{
				"x": -0.6270308502,
				"y": -0.0911545081,
				"z": -2.0109980405,
				"element": "H" 
			},
			{
				"x": -0.18166959,
				"y": 1.335456311,
				"z": -1.069129192,
				"element": "H" 
			},
			{
				"x": 1.7213837396,
				"y": -0.3786386639,
				"z": -1.7083851133,
				"element": "H" 
			},
			{
				"x": 1.7038007789,
				"y": 0.2949538184,
				"z": -0.0793746815,
				"element": "H" 
			},
			{
				"x": 1.2943559605,
				"y": -1.5511632108,
				"z": 2.269830459,
				"element": "H" 
			},
			{
				"x": -0.0772209413,
				"y": -2.6046772429,
				"z": 1.8648985812,
				"element": "H" 
			},
			{
				"x": -1.7246377,
				"y": -1.1483649242,
				"z": -0.1958447018,
				"element": "H" 
			},
			{
				"x": -2.1257301898,
				"y": 0.5481332183,
				"z": 0.0663199382,
				"element": "H" 
			}
		],
		 "valence_orbital": [ 
			{
				"type": "occ",
				"energy": -0.36552,
				"method": "rhf"
			},
			{
				"type": "occ",
				"energy": -0.3296,
				"method": "rhf"
			},
			{
				"type": "occ",
				"energy": -0.29256,
				"method": "rhf"
			},
			{
				"type": "occ",
				"energy": -0.23675,
				"method": "rhf"
			},
			{
				"type": "occ",
				"energy": -0.21704,
				"method": "rhf"
			},
			{
				"type": "unocc",
				"energy": 0.00577,
				"method": "rhf"
			},
			{
				"type": "unocc",
				"energy": 0.04618,
				"method": "rhf"
			},
			{
				"type": "unocc",
				"energy": 0.0744,
				"method": "rhf"
			},
			{
				"type": "unocc",
				"energy": 0.0851,
				"method": "rhf"
			},
			{
				"type": "unocc",
				"energy": 0.09824,
				"method": "rhf"
			}
		],
		"cosmo_sigma_profile": { 
			"-0.025": 0.0,
			"-0.024": 0.0,
			"-0.023": 0.0,
			"-0.022": 0.0,
			"-0.021": 0.0,
			"-0.02": 0.0,
			"-0.019": 0.0,
			"-0.018": 0.0,
			"-0.017": 0.0,
			"-0.016": 0.0,
			"-0.015": 0.0,
			"-0.014": 0.0,
			"-0.013": 0.0,
			"-0.012": 0.0,
			"-0.011": 0.0,
			"-0.01": 0.0,
			"-0.009": 0.0,
			"-0.008": 0.0,
			"-0.007": 1.31947907821,
			"-0.006": 8.19375463574,
			"-0.005": 9.3723158235,
			"-0.004": 16.0670178488,
			"-0.003": 21.6853389067,
			"-0.002": 19.0270889532,
			"-0.001": 11.5781468181,
			"0.0": 6.83793438258,
			"0.001": 6.17608690541,
			"0.002": 6.18961564498,
			"0.003": 4.85971493187,
			"0.004": 6.05751787197,
			"0.005": 6.36120529743,
			"0.006": 5.77422892918,
			"0.007": 6.25476633536,
			"0.008": 3.70038478896,
			"0.009": 4.54943624949,
			"0.01": 3.3143467971,
			"0.011": 1.00191103538,
			"0.012": 0.0,
			"0.013": 0.0,
			"0.014": 0.0,
			"0.015": 0.0,
			"0.016": 0.0,
			"0.017": 0.0,
			"0.018": 0.0,
			"0.019": 0.0,
			"0.02": 0.0,
			"0.021": 0.0,
			"0.022": 0.0,
			"0.023": 0.0,
			"0.024": 0.0,
			"0.025": 0.0
		}
	}
}
