{
	 "smiles": "OC(=O)C1CCCN(C1)C(=O)C1CC2=C(O1)C=CC(Cl)=C2", 
	 "Tm": 433.15, 
	 "num_atms": 37, 
	 "gaussian": { 
		 "optdone": 1, 
		 "sigma_profile": "yes", 
		 "theory": "DFT", 
		 "functional": "B3LYP", 
		 "basiset": "6-31G**", 
		 "properties": { 
			 "R2extent": 10273.5402, 
			 "electric_dipole_moment_norm": 3.39058739601, 
			 "electric_quadrupole_moment_norm": 30.1242137003, 
			 "total_energy": -1397.1005357, 
			 "HOMO_LUMO_gap": 0.20212, 
			 "cosmo_polarized_energy": -20.55, 
			 "cosmo_cavitation_energy": 41.18, 
			 "cosmo_dispersion_energy": -29.34, 
			 "cosmo_repulsion_energy": 2.23, 
			 "cosmo_total_nonelectrostatic_energy": 14.08, 
			 "SMD_solvation_energy": 6.88 
		},
		"coords": [
			{
				"x": -2.4728338747,
				"y": -4.669607133,
				"z": -0.1165431364,
				"element": "O" 
			},
			{
				"x": -1.769795571,
				"y": -4.2950139017,
				"z": 0.9860627819,
				"element": "C" 
			},
			{
				"x": -1.774705475,
				"y": -4.9900290142,
				"z": 1.9714450228,
				"element": "O" 
			},
			{
				"x": -1.0432714042,
				"y": -2.9564423671,
				"z": 0.8730894926,
				"element": "C" 
			},
			{
				"x": -0.0504165051,
				"y": -2.7414254341,
				"z": 2.0246201054,
				"element": "C" 
			},
			{
				"x": 0.595058581,
				"y": -1.3491048759,
				"z": 1.9496843981,
				"element": "C" 
			},
			{
				"x": -0.4594983236,
				"y": -0.2372133236,
				"z": 1.8350670327,
				"element": "C" 
			},
			{
				"x": -1.375154461,
				"y": -0.5139468838,
				"z": 0.7209490127,
				"element": "N" 
			},
			{
				"x": -2.0681810455,
				"y": -1.7944461696,
				"z": 0.8383151128,
				"element": "C" 
			},
			{
				"x": -1.3748806733,
				"y": 0.106408639,
				"z": -0.499938485,
				"element": "C" 
			},
			{
				"x": -2.0110943034,
				"y": -0.3282130563,
				"z": -1.4578064998,
				"element": "O" 
			},
			{
				"x": -0.5678141923,
				"y": 1.4155897605,
				"z": -0.6203584868,
				"element": "C" 
			},
			{
				"x": -0.7529271666,
				"y": 2.117957518,
				"z": -1.9852384104,
				"element": "C" 
			},
			{
				"x": 0.6734813146,
				"y": 2.3465967902,
				"z": -2.4214981412,
				"element": "C" 
			},
			{
				"x": 1.5198240734,
				"y": 1.7006695833,
				"z": -1.5205794952,
				"element": "C" 
			},
			{
				"x": 0.8509702282,
				"y": 1.0916726837,
				"z": -0.4903923978,
				"element": "O" 
			},
			{
				"x": 2.9006234902,
				"y": 1.6893029105,
				"z": -1.6710545024,
				"element": "C" 
			},
			{
				"x": 3.4389756846,
				"y": 2.3628397674,
				"z": -2.772976245,
				"element": "C" 
			},
			{
				"x": 2.5969056854,
				"y": 3.0141661907,
				"z": -3.6754896216,
				"element": "C" 
			},
			{
				"x": 3.299978326,
				"y": 3.8596154492,
				"z": -5.0508320143,
				"element": "Cl" 
			},
			{
				"x": 1.206043716,
				"y": 3.0132977955,
				"z": -3.5174065041,
				"element": "C" 
			},
			{
				"x": -2.3492900144,
				"y": -4.0294691857,
				"z": -0.8328129901,
				"element": "H" 
			},
			{
				"x": -0.5043018509,
				"y": -2.9401376888,
				"z": -0.0858359308,
				"element": "H" 
			},
			{
				"x": -0.5905417207,
				"y": -2.8630714087,
				"z": 2.9709323601,
				"element": "H" 
			},
			{
				"x": 0.7163112584,
				"y": -3.5221733583,
				"z": 2.0087154402,
				"element": "H" 
			},
			{
				"x": 1.2561741655,
				"y": -1.2808968054,
				"z": 1.0777478135,
				"element": "H" 
			},
			{
				"x": 1.2111950609,
				"y": -1.1711375831,
				"z": 2.8383950589,
				"element": "H" 
			},
			{
				"x": -1.0581090596,
				"y": -0.186951604,
				"z": 2.7548597483,
				"element": "H" 
			},
			{
				"x": 0.0234267213,
				"y": 0.7280801827,
				"z": 1.6960401421,
				"element": "H" 
			},
			{
				"x": -2.7584974539,
				"y": -1.8760649933,
				"z": -0.0006454911,
				"element": "H" 
			},
			{
				"x": -2.6473004364,
				"y": -1.7959959254,
				"z": 1.7705627161,
				"element": "H" 
			},
			{
				"x": -0.822108631,
				"y": 2.0852163323,
				"z": 0.2096512636,
				"element": "H" 
			},
			{
				"x": -1.2959881161,
				"y": 1.4548775267,
				"z": -2.6662711878,
				"element": "H" 
			},
			{
				"x": -1.3269172632,
				"y": 3.0437655009,
				"z": -1.8843132602,
				"element": "H" 
			},
			{
				"x": 3.5381587038,
				"y": 1.1800058621,
				"z": -0.956958118,
				"element": "H" 
			},
			{
				"x": 4.5118609393,
				"y": 2.3843836087,
				"z": -2.9275362675,
				"element": "H" 
			},
			{
				"x": 0.5728395932,
				"y": 3.5210946108,
				"z": -4.2369503163,
				"element": "H" 
			}
		],
		 "valence_orbital": [ 
			{
				"type": "occ",
				"energy": -0.28056,
				"method": "rhf"
			},
			{
				"type": "occ",
				"energy": -0.2724,
				"method": "rhf"
			},
			{
				"type": "occ",
				"energy": -0.26269,
				"method": "rhf"
			},
			{
				"type": "occ",
				"energy": -0.25547,
				"method": "rhf"
			},
			{
				"type": "occ",
				"energy": -0.22329,
				"method": "rhf"
			},
			{
				"type": "unocc",
				"energy": -0.02117,
				"method": "rhf"
			},
			{
				"type": "unocc",
				"energy": -0.01201,
				"method": "rhf"
			},
			{
				"type": "unocc",
				"energy": -0.00215,
				"method": "rhf"
			},
			{
				"type": "unocc",
				"energy": 0.00335,
				"method": "rhf"
			},
			{
				"type": "unocc",
				"energy": 0.02939,
				"method": "rhf"
			}
		],
		"cosmo_sigma_profile": { 
			"-0.025": 0.0,
			"-0.024": 0.0,
			"-0.023": 0.0,
			"-0.022": 0.0,
			"-0.021": 0.0,
			"-0.02": 0.0,
			"-0.019": 0.0278465212901,
			"-0.018": 0.689705020939,
			"-0.017": 0.751932600969,
			"-0.016": 1.54914393973,
			"-0.015": 0.797429814108,
			"-0.014": 0.968973403644,
			"-0.013": 1.49823042737,
			"-0.012": 1.08838876057,
			"-0.011": 1.03645452104,
			"-0.01": 1.19615769671,
			"-0.009": 1.27015092333,
			"-0.008": 3.43182657974,
			"-0.007": 11.394536997,
			"-0.006": 18.5015622899,
			"-0.005": 22.5165112496,
			"-0.004": 25.2919466911,
			"-0.003": 28.9278854754,
			"-0.002": 23.8954985999,
			"-0.001": 19.4739345729,
			"0.0": 19.0502638851,
			"0.001": 17.5138548821,
			"0.002": 21.9103997463,
			"0.003": 23.9466452952,
			"0.004": 21.189935176,
			"0.005": 15.2025812135,
			"0.006": 5.69854426785,
			"0.007": 3.61518101879,
			"0.008": 4.55860648038,
			"0.009": 4.76971935283,
			"0.01": 6.12205504853,
			"0.011": 6.92624958728,
			"0.012": 8.09526385912,
			"0.013": 4.68842761676,
			"0.014": 0.0168496789027,
			"0.015": 0.0,
			"0.016": 0.0,
			"0.017": 0.0,
			"0.018": 0.0,
			"0.019": 0.0,
			"0.02": 0.0,
			"0.021": 0.0,
			"0.022": 0.0,
			"0.023": 0.0,
			"0.024": 0.0,
			"0.025": 0.0
		}
	}
}
