{
	 "smiles": "CC1=NC2=CC=CC=C2N1CCC(=O)NN1C(SCC1=O)C1=C(Cl)C=CC=C1", 
	 "Tm": 523.15, 
	 "num_atms": 47, 
	 "gaussian": { 
		 "optdone": 1, 
		 "sigma_profile": "yes", 
		 "theory": "DFT", 
		 "functional": "B3LYP", 
		 "basiset": "6-31G**", 
		 "properties": { 
			 "R2extent": 15088.6634, 
			 "electric_dipole_moment_norm": 6.11997634146, 
			 "electric_quadrupole_moment_norm": 11.8697555708, 
			 "total_energy": -2001.42221218, 
			 "HOMO_LUMO_gap": 0.16807, 
			 "cosmo_polarized_energy": -25.73, 
			 "cosmo_cavitation_energy": 54.1, 
			 "cosmo_dispersion_energy": -36.01, 
			 "cosmo_repulsion_energy": 2.69, 
			 "cosmo_total_nonelectrostatic_energy": 20.78, 
			 "SMD_solvation_energy": 7.14 
		},
		"coords": [
			{
				"x": 2.3710967568,
				"y": -3.0769955378,
				"z": 3.1736481464,
				"element": "C" 
			},
			{
				"x": 2.5388039935,
				"y": -3.0296100039,
				"z": 1.6892449342,
				"element": "C" 
			},
			{
				"x": 2.7969673474,
				"y": -4.0761764536,
				"z": 0.939366282,
				"element": "N" 
			},
			{
				"x": 2.8780967929,
				"y": -3.5864392076,
				"z": -0.3556563774,
				"element": "C" 
			},
			{
				"x": 3.1359569549,
				"y": -4.2577415899,
				"z": -1.5567895094,
				"element": "C" 
			},
			{
				"x": 3.1646555374,
				"y": -3.5126432762,
				"z": -2.7326515904,
				"element": "C" 
			},
			{
				"x": 2.9446289222,
				"y": -2.1213235415,
				"z": -2.7239253592,
				"element": "C" 
			},
			{
				"x": 2.6866035966,
				"y": -1.4329366854,
				"z": -1.5392267062,
				"element": "C" 
			},
			{
				"x": 2.65780395,
				"y": -2.1886145175,
				"z": -0.3648284488,
				"element": "C" 
			},
			{
				"x": 2.4479515494,
				"y": -1.8481284115,
				"z": 0.9647814287,
				"element": "N" 
			},
			{
				"x": 2.1032133577,
				"y": -0.525438028,
				"z": 1.4609816968,
				"element": "C" 
			},
			{
				"x": 0.6079953708,
				"y": -0.2156449951,
				"z": 1.2984962273,
				"element": "C" 
			},
			{
				"x": 0.2777678258,
				"y": 1.1592639492,
				"z": 1.8518043155,
				"element": "C" 
			},
			{
				"x": 1.0605291898,
				"y": 1.8258054982,
				"z": 2.505528087,
				"element": "O" 
			},
			{
				"x": -0.9781604995,
				"y": 1.6789139507,
				"z": 1.5503500163,
				"element": "N" 
			},
			{
				"x": -2.017110525,
				"y": 0.8893948907,
				"z": 1.0937245413,
				"element": "N" 
			},
			{
				"x": -2.5497894862,
				"y": 1.1577197776,
				"z": -0.2385484448,
				"element": "C" 
			},
			{
				"x": -3.9639230747,
				"y": -0.0441333474,
				"z": -0.4318583925,
				"element": "S" 
			},
			{
				"x": -3.8695407715,
				"y": -0.6246352838,
				"z": 1.3023357878,
				"element": "C" 
			},
			{
				"x": -2.6570951504,
				"y": 0.0162430596,
				"z": 1.9574332544,
				"element": "C" 
			},
			{
				"x": -2.2747392927,
				"y": -0.2121820687,
				"z": 3.0875610526,
				"element": "O" 
			},
			{
				"x": -2.9214623466,
				"y": 2.6022538755,
				"z": -0.5194270064,
				"element": "C" 
			},
			{
				"x": -3.7471855658,
				"y": 3.4116192103,
				"z": 0.2781870447,
				"element": "C" 
			},
			{
				"x": -4.4447237891,
				"y": 2.8168042388,
				"z": 1.7831882469,
				"element": "Cl" 
			},
			{
				"x": -4.0473351157,
				"y": 4.7255923917,
				"z": -0.0786110752,
				"element": "C" 
			},
			{
				"x": -3.5310328422,
				"y": 5.2608927374,
				"z": -1.2580377808,
				"element": "C" 
			},
			{
				"x": -2.7108354005,
				"y": 4.4815436624,
				"z": -2.0718959593,
				"element": "C" 
			},
			{
				"x": -2.4127961536,
				"y": 3.1740033508,
				"z": -1.6954498744,
				"element": "C" 
			},
			{
				"x": 3.1209527833,
				"y": -2.4649822275,
				"z": 3.6883808974,
				"element": "H" 
			},
			{
				"x": 2.4887531839,
				"y": -4.1120856385,
				"z": 3.4952868998,
				"element": "H" 
			},
			{
				"x": 1.3832400174,
				"y": -2.7229787482,
				"z": 3.4904588573,
				"element": "H" 
			},
			{
				"x": 3.3080598394,
				"y": -5.3293708022,
				"z": -1.556391813,
				"element": "H" 
			},
			{
				"x": 3.362237566,
				"y": -4.0100759181,
				"z": -3.6776994604,
				"element": "H" 
			},
			{
				"x": 2.9780563969,
				"y": -1.5718010327,
				"z": -3.6602507698,
				"element": "H" 
			},
			{
				"x": 2.524067828,
				"y": -0.3588910808,
				"z": -1.5394397819,
				"element": "H" 
			},
			{
				"x": 2.7047409771,
				"y": 0.2165252389,
				"z": 0.9281861281,
				"element": "H" 
			},
			{
				"x": 2.3837596999,
				"y": -0.4516029842,
				"z": 2.5123745431,
				"element": "H" 
			},
			{
				"x": 0.0104960954,
				"y": -0.9546813544,
				"z": 1.8446196109,
				"element": "H" 
			},
			{
				"x": 0.3107420155,
				"y": -0.2905246649,
				"z": 0.2467729,
				"element": "H" 
			},
			{
				"x": -1.2480690024,
				"y": 2.4690427093,
				"z": 2.1304726028,
				"element": "H" 
			},
			{
				"x": -1.7973107542,
				"y": 0.8710528489,
				"z": -0.9791227178,
				"element": "H" 
			},
			{
				"x": -3.7646208046,
				"y": -1.7110228406,
				"z": 1.3388270992,
				"element": "H" 
			},
			{
				"x": -4.7603194458,
				"y": -0.3358934918,
				"z": 1.8654897556,
				"element": "H" 
			},
			{
				"x": -4.6851873377,
				"y": 5.3177028557,
				"z": 0.5681684663,
				"element": "H" 
			},
			{
				"x": -3.7708367201,
				"y": 6.283492711,
				"z": -1.5322562537,
				"element": "H" 
			},
			{
				"x": -2.3000147988,
				"y": 4.8878899818,
				"z": -2.9905550744,
				"element": "H" 
			},
			{
				"x": -1.7671886712,
				"y": 2.5694967931,
				"z": -2.3272464266,
				"element": "H" 
			}
		],
		 "valence_orbital": [ 
			{
				"type": "occ",
				"energy": -0.26677,
				"method": "rhf"
			},
			{
				"type": "occ",
				"energy": -0.26026,
				"method": "rhf"
			},
			{
				"type": "occ",
				"energy": -0.24848,
				"method": "rhf"
			},
			{
				"type": "occ",
				"energy": -0.21822,
				"method": "rhf"
			},
			{
				"type": "occ",
				"energy": -0.21465,
				"method": "rhf"
			},
			{
				"type": "unocc",
				"energy": -0.04658,
				"method": "rhf"
			},
			{
				"type": "unocc",
				"energy": -0.03409,
				"method": "rhf"
			},
			{
				"type": "unocc",
				"energy": -0.00872,
				"method": "rhf"
			},
			{
				"type": "unocc",
				"energy": -0.00604,
				"method": "rhf"
			},
			{
				"type": "unocc",
				"energy": -0.0032,
				"method": "rhf"
			}
		],
		"cosmo_sigma_profile": { 
			"-0.025": 0.0,
			"-0.024": 0.0,
			"-0.023": 0.0,
			"-0.022": 0.0,
			"-0.021": 0.0,
			"-0.02": 0.0,
			"-0.019": 0.0,
			"-0.018": 0.0,
			"-0.017": 0.0,
			"-0.016": 0.0,
			"-0.015": 0.0,
			"-0.014": 0.0884080623534,
			"-0.013": 0.752193297712,
			"-0.012": 0.571793618483,
			"-0.011": 0.61246948065,
			"-0.01": 0.872397674964,
			"-0.009": 4.06667402226,
			"-0.008": 9.60116429833,
			"-0.007": 20.3754319078,
			"-0.006": 33.563382712,
			"-0.005": 36.212734054,
			"-0.004": 32.7103470782,
			"-0.003": 29.6326865764,
			"-0.002": 27.6951847037,
			"-0.001": 25.826349856,
			"0.0": 23.2839238129,
			"0.001": 22.1926022231,
			"0.002": 27.4303526786,
			"0.003": 32.368188692,
			"0.004": 22.6022759579,
			"0.005": 18.759673862,
			"0.006": 16.2033206621,
			"0.007": 9.16182832044,
			"0.008": 5.88450846018,
			"0.009": 4.83289763601,
			"0.01": 4.51412515506,
			"0.011": 6.72406664563,
			"0.012": 9.89796361386,
			"0.013": 3.58740497227,
			"0.014": 1.32694315539,
			"0.015": 0.927071828238,
			"0.016": 0.713068356657,
			"0.017": 1.10764517907,
			"0.018": 0.564625059718,
			"0.019": 0.0103277440005,
			"0.02": 0.0,
			"0.021": 0.0,
			"0.022": 0.0,
			"0.023": 0.0,
			"0.024": 0.0,
			"0.025": 0.0
		}
	}
}
