{
	 "smiles": "NC1=CC(=CC=C1)C(=O)NC1=CC(=CC=C1)C#N", 
	 "Tm": 437.15, 
	 "num_atms": 29, 
	 "gaussian": { 
		 "optdone": 1, 
		 "sigma_profile": "yes", 
		 "theory": "DFT", 
		 "functional": "B3LYP", 
		 "basiset": "6-31G**", 
		 "properties": { 
			 "R2extent": 4911.716, 
			 "electric_dipole_moment_norm": 1.80044878294, 
			 "electric_quadrupole_moment_norm": 40.2962519776, 
			 "total_energy": -779.597633769, 
			 "HOMO_LUMO_gap": 0.15602, 
			 "cosmo_polarized_energy": -20.89, 
			 "cosmo_cavitation_energy": 35.14, 
			 "cosmo_dispersion_energy": -23.88, 
			 "cosmo_repulsion_energy": 1.87, 
			 "cosmo_total_nonelectrostatic_energy": 13.13, 
			 "SMD_solvation_energy": 7.89 
		},
		"coords": [
			{
				"x": 0.9236152101,
				"y": 1.3287339238,
				"z": 4.8371644279,
				"element": "N" 
			},
			{
				"x": 1.1428843998,
				"y": 1.0123739007,
				"z": 3.4997369774,
				"element": "C" 
			},
			{
				"x": 0.5260892434,
				"y": 1.7501950203,
				"z": 2.4775559956,
				"element": "C" 
			},
			{
				"x": 0.7732456135,
				"y": 1.4553402409,
				"z": 1.1337176226,
				"element": "C" 
			},
			{
				"x": 1.6716633631,
				"y": 0.4367125542,
				"z": 0.7846723538,
				"element": "C" 
			},
			{
				"x": 2.3005808792,
				"y": -0.2842288837,
				"z": 1.7995608158,
				"element": "C" 
			},
			{
				"x": 2.0369708255,
				"y": -0.0133232645,
				"z": 3.1395192312,
				"element": "C" 
			},
			{
				"x": 0.1175515846,
				"y": 2.3339267181,
				"z": 0.1140949553,
				"element": "C" 
			},
			{
				"x": -0.071331312,
				"y": 3.5267376105,
				"z": 0.3149013973,
				"element": "O" 
			},
			{
				"x": -0.2224466372,
				"y": 1.798540245,
				"z": -1.1275081327,
				"element": "N" 
			},
			{
				"x": -0.5900192111,
				"y": 0.4917624413,
				"z": -1.5106831516,
				"element": "C" 
			},
			{
				"x": -1.1100340889,
				"y": -0.4429540434,
				"z": -0.6067358188,
				"element": "C" 
			},
			{
				"x": -1.4776200556,
				"y": -1.7184677931,
				"z": -1.0593871632,
				"element": "C" 
			},
			{
				"x": -1.3613201544,
				"y": -2.0647758166,
				"z": -2.41566797,
				"element": "C" 
			},
			{
				"x": -0.8679427408,
				"y": -1.1195273454,
				"z": -3.3109356216,
				"element": "C" 
			},
			{
				"x": -0.4773991281,
				"y": 0.1420855041,
				"z": -2.8662499921,
				"element": "C" 
			},
			{
				"x": -1.9996985131,
				"y": -2.6723264831,
				"z": -0.1222300504,
				"element": "C" 
			},
			{
				"x": -2.422093681,
				"y": -3.4483385966,
				"z": 0.63430586,
				"element": "N" 
			},
			{
				"x": 1.0970139173,
				"y": 0.5859280465,
				"z": 5.499281839,
				"element": "H" 
			},
			{
				"x": 0.0702457328,
				"y": 1.831570848,
				"z": 5.0348458375,
				"element": "H" 
			},
			{
				"x": -0.1428154014,
				"y": 2.5713796641,
				"z": 2.7170308706,
				"element": "H" 
			},
			{
				"x": 1.8891040142,
				"y": 0.2243757675,
				"z": -0.2556503123,
				"element": "H" 
			},
			{
				"x": 3.0055812022,
				"y": -1.0703778211,
				"z": 1.5453025284,
				"element": "H" 
			},
			{
				"x": 2.531335741,
				"y": -0.5888533512,
				"z": 3.9181577598,
				"element": "H" 
			},
			{
				"x": -0.4811873042,
				"y": 2.5346639827,
				"z": -1.7742193317,
				"element": "H" 
			},
			{
				"x": -1.234756279,
				"y": -0.1895328355,
				"z": 0.4379685515,
				"element": "H" 
			},
			{
				"x": -1.6577751072,
				"y": -3.052584067,
				"z": -2.7496812588,
				"element": "H" 
			},
			{
				"x": -0.7749626769,
				"y": -1.368775788,
				"z": -4.3633236057,
				"element": "H" 
			},
			{
				"x": -0.0739794359,
				"y": 0.8670396214,
				"z": -3.5676446146,
				"element": "H" 
			}
		],
		 "valence_orbital": [ 
			{
				"type": "occ",
				"energy": -0.27267,
				"method": "rhf"
			},
			{
				"type": "occ",
				"energy": -0.2694,
				"method": "rhf"
			},
			{
				"type": "occ",
				"energy": -0.2517,
				"method": "rhf"
			},
			{
				"type": "occ",
				"energy": -0.24148,
				"method": "rhf"
			},
			{
				"type": "occ",
				"energy": -0.21169,
				"method": "rhf"
			},
			{
				"type": "unocc",
				"energy": -0.05567,
				"method": "rhf"
			},
			{
				"type": "unocc",
				"energy": -0.04566,
				"method": "rhf"
			},
			{
				"type": "unocc",
				"energy": -0.01831,
				"method": "rhf"
			},
			{
				"type": "unocc",
				"energy": 0.0046,
				"method": "rhf"
			},
			{
				"type": "unocc",
				"energy": 0.03574,
				"method": "rhf"
			}
		],
		"cosmo_sigma_profile": { 
			"-0.025": 0.0,
			"-0.024": 0.0,
			"-0.023": 0.0,
			"-0.022": 0.0,
			"-0.021": 0.0,
			"-0.02": 0.0,
			"-0.019": 0.0,
			"-0.018": 0.0,
			"-0.017": 0.0,
			"-0.016": 0.0,
			"-0.015": 0.433750983891,
			"-0.014": 1.33508485514,
			"-0.013": 1.79566407815,
			"-0.012": 4.21373529324,
			"-0.011": 4.62601915147,
			"-0.01": 3.91088738309,
			"-0.009": 5.73345394979,
			"-0.008": 6.09279687411,
			"-0.007": 11.4707402065,
			"-0.006": 15.1355958119,
			"-0.005": 16.4053641394,
			"-0.004": 15.1720301964,
			"-0.003": 14.7058902003,
			"-0.002": 14.5961162065,
			"-0.001": 21.3154169728,
			"0.0": 17.2102179603,
			"0.001": 19.6521094052,
			"0.002": 20.2578839225,
			"0.003": 14.9559234594,
			"0.004": 10.2558606191,
			"0.005": 13.1003797724,
			"0.006": 7.55179321613,
			"0.007": 5.04579573699,
			"0.008": 5.9222946587,
			"0.009": 5.6210458929,
			"0.01": 5.81269292129,
			"0.011": 4.64293389151,
			"0.012": 7.08698968645,
			"0.013": 6.85468781086,
			"0.014": 1.23926691256,
			"0.015": 0.0,
			"0.016": 0.0,
			"0.017": 0.0,
			"0.018": 0.0,
			"0.019": 0.0,
			"0.02": 0.0,
			"0.021": 0.0,
			"0.022": 0.0,
			"0.023": 0.0,
			"0.024": 0.0,
			"0.025": 0.0
		}
	}
}
