{
	 "smiles": "OC1=C(C=C(C=N1)[N+]([O-])=O)C#N", 
	 "Tm": 533.15, 
	 "num_atms": 15, 
	 "gaussian": { 
		 "optdone": 1, 
		 "sigma_profile": "yes", 
		 "theory": "DFT", 
		 "functional": "B3LYP", 
		 "basiset": "6-31G**", 
		 "properties": { 
			 "R2extent": 3379.8766, 
			 "electric_dipole_moment_norm": 3.4948333451, 
			 "electric_quadrupole_moment_norm": 15.2904829992, 
			 "total_energy": -620.247217963, 
			 "HOMO_LUMO_gap": 0.17678, 
			 "cosmo_polarized_energy": -15.29, 
			 "cosmo_cavitation_energy": 22.43, 
			 "cosmo_dispersion_energy": -16.03, 
			 "cosmo_repulsion_energy": 1.28, 
			 "cosmo_total_nonelectrostatic_energy": 7.68, 
			 "SMD_solvation_energy": 6.85 
		},
		"coords": [
			{
				"x": 1.5472138249,
				"y": -1.5319083831,
				"z": 0.60487845,
				"element": "O" 
			},
			{
				"x": 1.3432071255,
				"y": -0.2142270742,
				"z": 0.62948996,
				"element": "C" 
			},
			{
				"x": 2.0530431543,
				"y": 0.5967273011,
				"z": -0.2957656164,
				"element": "C" 
			},
			{
				"x": 1.8251718404,
				"y": 1.9706192055,
				"z": -0.253162759,
				"element": "C" 
			},
			{
				"x": 0.9219448013,
				"y": 2.4596480555,
				"z": 0.6875032426,
				"element": "C" 
			},
			{
				"x": 0.2707211001,
				"y": 1.5854788375,
				"z": 1.5567903023,
				"element": "C" 
			},
			{
				"x": 0.4820726124,
				"y": 0.268909551,
				"z": 1.5237444251,
				"element": "N" 
			},
			{
				"x": 0.655961916,
				"y": 3.8959406572,
				"z": 0.7633471163,
				"element": "N" 
			},
			{
				"x": 1.255790223,
				"y": 4.6237525487,
				"z": -0.0258326142,
				"element": "O" 
			},
			{
				"x": -0.1497189595,
				"y": 4.2763124543,
				"z": 1.6114058237,
				"element": "O" 
			},
			{
				"x": 2.964560116,
				"y": 0.0174582666,
				"z": -1.2315108985,
				"element": "C" 
			},
			{
				"x": 3.7088824309,
				"y": -0.4413010611,
				"z": -1.9977672347,
				"element": "N" 
			},
			{
				"x": 0.9866089263,
				"y": -1.9215778524,
				"z": 1.2966221171,
				"element": "H" 
			},
			{
				"x": 2.3310157041,
				"y": 2.6497750711,
				"z": -0.9283176987,
				"element": "H" 
			},
			{
				"x": -0.4325748156,
				"y": 1.9674924224,
				"z": 2.2891753843,
				"element": "H" 
			}
		],
		 "valence_orbital": [ 
			{
				"type": "occ",
				"energy": -0.33332,
				"method": "rhf"
			},
			{
				"type": "occ",
				"energy": -0.32716,
				"method": "rhf"
			},
			{
				"type": "occ",
				"energy": -0.31551,
				"method": "rhf"
			},
			{
				"type": "occ",
				"energy": -0.31318,
				"method": "rhf"
			},
			{
				"type": "occ",
				"energy": -0.28716,
				"method": "rhf"
			},
			{
				"type": "unocc",
				"energy": -0.11038,
				"method": "rhf"
			},
			{
				"type": "unocc",
				"energy": -0.09189,
				"method": "rhf"
			},
			{
				"type": "unocc",
				"energy": -0.03273,
				"method": "rhf"
			},
			{
				"type": "unocc",
				"energy": 0.01023,
				"method": "rhf"
			},
			{
				"type": "unocc",
				"energy": 0.0516,
				"method": "rhf"
			}
		],
		"cosmo_sigma_profile": { 
			"-0.025": 0.0,
			"-0.024": 0.0,
			"-0.023": 0.0,
			"-0.022": 0.0,
			"-0.021": 0.0,
			"-0.02": 0.230284659152,
			"-0.019": 0.880398880037,
			"-0.018": 0.764901625609,
			"-0.017": 1.09981254114,
			"-0.016": 0.535845390942,
			"-0.015": 0.719010258459,
			"-0.014": 0.581875604821,
			"-0.013": 0.981003481819,
			"-0.012": 0.622718513278,
			"-0.011": 1.20221207877,
			"-0.01": 2.5138293929,
			"-0.009": 4.05743993325,
			"-0.008": 4.44829109424,
			"-0.007": 5.49967447752,
			"-0.006": 9.59378687139,
			"-0.005": 16.1964283049,
			"-0.004": 18.1910187331,
			"-0.003": 10.4416191571,
			"-0.002": 6.15711729116,
			"-0.001": 6.4447969941,
			"0.0": 5.94033637485,
			"0.001": 6.28207768931,
			"0.002": 5.38206877906,
			"0.003": 6.5229249801,
			"0.004": 8.14180624423,
			"0.005": 8.43810910643,
			"0.006": 10.7831368777,
			"0.007": 15.2659217424,
			"0.008": 8.54382674061,
			"0.009": 7.81418177971,
			"0.01": 3.70622503709,
			"0.011": 2.70698430019,
			"0.012": 1.66320396274,
			"0.013": 0.0550929669021,
			"0.014": 0.0,
			"0.015": 0.0,
			"0.016": 0.0,
			"0.017": 0.0,
			"0.018": 0.0,
			"0.019": 0.0,
			"0.02": 0.0,
			"0.021": 0.0,
			"0.022": 0.0,
			"0.023": 0.0,
			"0.024": 0.0,
			"0.025": 0.0
		}
	}
}
