{
	 "smiles": "COC1=C(C)C2=C(C(=O)OC2)C(O)=C1CC=C(C)CCC(O)=O", 
	 "Tm": 414.15, 
	 "num_atms": 43, 
	 "gaussian": { 
		 "optdone": 1, 
		 "sigma_profile": "yes", 
		 "theory": "DFT", 
		 "functional": "B3LYP", 
		 "basiset": "6-31G**", 
		 "properties": { 
			 "R2extent": 9182.9543, 
			 "electric_dipole_moment_norm": 5.26714060378, 
			 "electric_quadrupole_moment_norm": 50.0357796621, 
			 "total_energy": -1111.20243294, 
			 "HOMO_LUMO_gap": 0.19185, 
			 "cosmo_polarized_energy": -29.57, 
			 "cosmo_cavitation_energy": 45.17, 
			 "cosmo_dispersion_energy": -30.41, 
			 "cosmo_repulsion_energy": 2.31, 
			 "cosmo_total_nonelectrostatic_energy": 17.07, 
			 "SMD_solvation_energy": 10.0 
		},
		"coords": [
			{
				"x": -2.1817400182,
				"y": 1.0375513578,
				"z": -0.0217047165,
				"element": "C" 
			},
			{
				"x": -1.2367061924,
				"y": 0.1537974269,
				"z": 0.6011945084,
				"element": "O" 
			},
			{
				"x": -0.1831815648,
				"y": 0.7699588374,
				"z": 1.2497720687,
				"element": "C" 
			},
			{
				"x": -0.3678104333,
				"y": 1.242151464,
				"z": 2.5638830995,
				"element": "C" 
			},
			{
				"x": -1.686569623,
				"y": 1.1148596132,
				"z": 3.2852585023,
				"element": "C" 
			},
			{
				"x": 0.7573052662,
				"y": 1.8052509816,
				"z": 3.1611109325,
				"element": "C" 
			},
			{
				"x": 1.9892923663,
				"y": 1.8948928691,
				"z": 2.5224532994,
				"element": "C" 
			},
			{
				"x": 2.962880865,
				"y": 2.5274847022,
				"z": 3.4388993966,
				"element": "C" 
			},
			{
				"x": 4.1283033756,
				"y": 2.7936077746,
				"z": 3.2989888399,
				"element": "O" 
			},
			{
				"x": 2.2878501405,
				"y": 2.8080079596,
				"z": 4.6160632402,
				"element": "O" 
			},
			{
				"x": 0.9181230625,
				"y": 2.3979064151,
				"z": 4.5370342439,
				"element": "C" 
			},
			{
				"x": 2.1594539076,
				"y": 1.4016287704,
				"z": 1.2228733017,
				"element": "C" 
			},
			{
				"x": 3.3878751618,
				"y": 1.4910449781,
				"z": 0.6559446136,
				"element": "O" 
			},
			{
				"x": 1.0497901031,
				"y": 0.835883439,
				"z": 0.567151433,
				"element": "C" 
			},
			{
				"x": 1.1883292415,
				"y": 0.2553461872,
				"z": -0.8326761445,
				"element": "C" 
			},
			{
				"x": 1.7529911002,
				"y": -1.1497802871,
				"z": -0.8291339855,
				"element": "C" 
			},
			{
				"x": 1.1363304105,
				"y": -2.2849845742,
				"z": -1.1933690084,
				"element": "C" 
			},
			{
				"x": 1.86212099,
				"y": -3.6083563938,
				"z": -1.1162054256,
				"element": "C" 
			},
			{
				"x": -0.2951945039,
				"y": -2.3512143898,
				"z": -1.683614506,
				"element": "C" 
			},
			{
				"x": -1.2619527496,
				"y": -2.9149213767,
				"z": -0.6257655825,
				"element": "C" 
			},
			{
				"x": -2.72292674,
				"y": -2.6880387845,
				"z": -0.99145419,
				"element": "C" 
			},
			{
				"x": -3.6220363128,
				"y": -3.4693392449,
				"z": -0.3368712652,
				"element": "O" 
			},
			{
				"x": -3.1147544037,
				"y": -1.8504688463,
				"z": -1.7688332999,
				"element": "O" 
			},
			{
				"x": -1.677249832,
				"y": 1.7237494666,
				"z": -0.7127737227,
				"element": "H" 
			},
			{
				"x": -2.8705464085,
				"y": 0.4010426237,
				"z": -0.578140313,
				"element": "H" 
			},
			{
				"x": -2.7300525349,
				"y": 1.6251285048,
				"z": 0.7233741594,
				"element": "H" 
			},
			{
				"x": -2.2865745982,
				"y": 0.3104850796,
				"z": 2.8546492061,
				"element": "H" 
			},
			{
				"x": -2.278087363,
				"y": 2.0378960215,
				"z": 3.2318843465,
				"element": "H" 
			},
			{
				"x": -1.5341361025,
				"y": 0.8937793285,
				"z": 4.3468756511,
				"element": "H" 
			},
			{
				"x": 0.7176641722,
				"y": 1.6753407622,
				"z": 5.3386403755,
				"element": "H" 
			},
			{
				"x": 0.2768763052,
				"y": 3.2728044386,
				"z": 4.702038508,
				"element": "H" 
			},
			{
				"x": 3.355440898,
				"y": 1.1503263082,
				"z": -0.247139968,
				"element": "H" 
			},
			{
				"x": 0.2176248305,
				"y": 0.2790996405,
				"z": -1.3250069063,
				"element": "H" 
			},
			{
				"x": 1.8386476744,
				"y": 0.9077265533,
				"z": -1.4380840851,
				"element": "H" 
			},
			{
				"x": 2.7774801491,
				"y": -1.2322391774,
				"z": -0.4635042525,
				"element": "H" 
			},
			{
				"x": 2.8856196872,
				"y": -3.4908466366,
				"z": -0.7505241096,
				"element": "H" 
			},
			{
				"x": 1.9053193384,
				"y": -4.0891673346,
				"z": -2.1022342446,
				"element": "H" 
			},
			{
				"x": 1.3492272057,
				"y": -4.3135880943,
				"z": -0.4492784356,
				"element": "H" 
			},
			{
				"x": -0.3474939701,
				"y": -2.9813118379,
				"z": -2.5810878346,
				"element": "H" 
			},
			{
				"x": -0.6710885348,
				"y": -1.3708945426,
				"z": -1.9767990678,
				"element": "H" 
			},
			{
				"x": -1.1009417473,
				"y": -2.3916003085,
				"z": 0.3250020747,
				"element": "H" 
			},
			{
				"x": -1.0818038294,
				"y": -3.9821140499,
				"z": -0.445370582,
				"element": "H" 
			},
			{
				"x": -3.1617987894,
				"y": -4.0908856248,
				"z": 0.2447798449,
				"element": "H" 
			}
		],
		 "valence_orbital": [ 
			{
				"type": "occ",
				"energy": -0.28019,
				"method": "rhf"
			},
			{
				"type": "occ",
				"energy": -0.25857,
				"method": "rhf"
			},
			{
				"type": "occ",
				"energy": -0.25523,
				"method": "rhf"
			},
			{
				"type": "occ",
				"energy": -0.24553,
				"method": "rhf"
			},
			{
				"type": "occ",
				"energy": -0.22909,
				"method": "rhf"
			},
			{
				"type": "unocc",
				"energy": -0.03724,
				"method": "rhf"
			},
			{
				"type": "unocc",
				"energy": -0.01108,
				"method": "rhf"
			},
			{
				"type": "unocc",
				"energy": 0.00195,
				"method": "rhf"
			},
			{
				"type": "unocc",
				"energy": 0.01464,
				"method": "rhf"
			},
			{
				"type": "unocc",
				"energy": 0.04598,
				"method": "rhf"
			}
		],
		"cosmo_sigma_profile": { 
			"-0.025": 0.0,
			"-0.024": 0.0,
			"-0.023": 0.0,
			"-0.022": 0.0,
			"-0.021": 0.0,
			"-0.02": 0.0,
			"-0.019": 0.390911306854,
			"-0.018": 1.29938915301,
			"-0.017": 1.71168578169,
			"-0.016": 1.60917853713,
			"-0.015": 1.85219215399,
			"-0.014": 1.54447355892,
			"-0.013": 1.55918909815,
			"-0.012": 3.0645996488,
			"-0.011": 2.73892318047,
			"-0.01": 2.01538289677,
			"-0.009": 1.95234048097,
			"-0.008": 3.37919094534,
			"-0.007": 9.20480294973,
			"-0.006": 10.2273268439,
			"-0.005": 20.1648899836,
			"-0.004": 31.0175271051,
			"-0.003": 37.6888369327,
			"-0.002": 30.3057138654,
			"-0.001": 26.3389658263,
			"0.0": 26.171255934,
			"0.001": 21.4199633508,
			"0.002": 21.6634982483,
			"0.003": 15.2729599477,
			"0.004": 11.1659373045,
			"0.005": 8.83266373871,
			"0.006": 6.56038144066,
			"0.007": 5.4492206808,
			"0.008": 6.13075126726,
			"0.009": 6.84615099206,
			"0.01": 9.71484419941,
			"0.011": 10.122537106,
			"0.012": 10.6414611772,
			"0.013": 5.88869791581,
			"0.014": 1.97794033129,
			"0.015": 0.187976724689,
			"0.016": 0.0,
			"0.017": 0.0,
			"0.018": 0.0,
			"0.019": 0.0,
			"0.02": 0.0,
			"0.021": 0.0,
			"0.022": 0.0,
			"0.023": 0.0,
			"0.024": 0.0,
			"0.025": 0.0
		}
	}
}
