{
	 "smiles": "OC(=O)C1=CC=CC(C=O)=C1", 
	 "Tm": 447.15, 
	 "num_atms": 17, 
	 "gaussian": { 
		 "optdone": 1, 
		 "sigma_profile": "yes", 
		 "theory": "DFT", 
		 "functional": "B3LYP", 
		 "basiset": "6-31G**", 
		 "properties": { 
			 "R2extent": 1927.5904, 
			 "electric_dipole_moment_norm": 2.10853015392, 
			 "electric_quadrupole_moment_norm": 15.9899074563, 
			 "total_energy": -534.14784609, 
			 "HOMO_LUMO_gap": 0.1885, 
			 "cosmo_polarized_energy": -12.52, 
			 "cosmo_cavitation_energy": 22.59, 
			 "cosmo_dispersion_energy": -16.43, 
			 "cosmo_repulsion_energy": 1.31, 
			 "cosmo_total_nonelectrostatic_energy": 7.47, 
			 "SMD_solvation_energy": 6.29 
		},
		"coords": [
			{
				"x": -0.7289621308,
				"y": -2.2294354884,
				"z": -0.6364705081,
				"element": "O" 
			},
			{
				"x": -0.7039386932,
				"y": -1.8407535103,
				"z": 0.659607892,
				"element": "C" 
			},
			{
				"x": -1.0758397842,
				"y": -2.5617262849,
				"z": 1.5638929181,
				"element": "O" 
			},
			{
				"x": -0.1772016951,
				"y": -0.4590102796,
				"z": 0.8424561424,
				"element": "C" 
			},
			{
				"x": -0.1064827187,
				"y": 0.0457193336,
				"z": 2.1516355269,
				"element": "C" 
			},
			{
				"x": 0.3771015195,
				"y": 1.3305501505,
				"z": 2.3853692648,
				"element": "C" 
			},
			{
				"x": 0.7929257049,
				"y": 2.1183540006,
				"z": 1.3110805682,
				"element": "C" 
			},
			{
				"x": 0.7254403975,
				"y": 1.6221189965,
				"z": 0.0026743337,
				"element": "C" 
			},
			{
				"x": 1.1691925652,
				"y": 2.4658856283,
				"z": -1.1331948411,
				"element": "C" 
			},
			{
				"x": 1.1469980436,
				"y": 2.1195294851,
				"z": -2.2979789268,
				"element": "O" 
			},
			{
				"x": 0.2386702095,
				"y": 0.3291110994,
				"z": -0.2316250424,
				"element": "C" 
			},
			{
				"x": -1.0843811998,
				"y": -3.1335093301,
				"z": -0.6389480747,
				"element": "H" 
			},
			{
				"x": -0.4365554234,
				"y": -0.5889269357,
				"z": 2.9673592187,
				"element": "H" 
			},
			{
				"x": 0.4296017522,
				"y": 1.715643854,
				"z": 3.3989306384,
				"element": "H" 
			},
			{
				"x": 1.1722491128,
				"y": 3.1232359372,
				"z": 1.4826932156,
				"element": "H" 
			},
			{
				"x": 1.539083341,
				"y": 3.4746388722,
				"z": -0.8432189148,
				"element": "H" 
			},
			{
				"x": 0.1931989989,
				"y": -0.0391255283,
				"z": -1.2501634107,
				"element": "H" 
			}
		],
		 "valence_orbital": [ 
			{
				"type": "occ",
				"energy": -0.32733,
				"method": "rhf"
			},
			{
				"type": "occ",
				"energy": -0.28697,
				"method": "rhf"
			},
			{
				"type": "occ",
				"energy": -0.27951,
				"method": "rhf"
			},
			{
				"type": "occ",
				"energy": -0.27517,
				"method": "rhf"
			},
			{
				"type": "occ",
				"energy": -0.26286,
				"method": "rhf"
			},
			{
				"type": "unocc",
				"energy": -0.07436,
				"method": "rhf"
			},
			{
				"type": "unocc",
				"energy": -0.05707,
				"method": "rhf"
			},
			{
				"type": "unocc",
				"energy": 0.01433,
				"method": "rhf"
			},
			{
				"type": "unocc",
				"energy": 0.06279,
				"method": "rhf"
			},
			{
				"type": "unocc",
				"energy": 0.071,
				"method": "rhf"
			}
		],
		"cosmo_sigma_profile": { 
			"-0.025": 0.0,
			"-0.024": 0.0,
			"-0.023": 0.0,
			"-0.022": 0.0,
			"-0.021": 0.0,
			"-0.02": 0.0,
			"-0.019": 0.163377338701,
			"-0.018": 1.20856884052,
			"-0.017": 0.731520572453,
			"-0.016": 0.728012552079,
			"-0.015": 0.803272116682,
			"-0.014": 0.66666273574,
			"-0.013": 0.62388911812,
			"-0.012": 0.592042369285,
			"-0.011": 0.7396785477,
			"-0.01": 0.484742303449,
			"-0.009": 1.13213323975,
			"-0.008": 4.95637026875,
			"-0.007": 9.49573182247,
			"-0.006": 9.96811065322,
			"-0.005": 8.30744212427,
			"-0.004": 8.70195022184,
			"-0.003": 10.6933153463,
			"-0.002": 12.5562252241,
			"-0.001": 14.0142454454,
			"0.0": 15.2985144085,
			"0.001": 17.6134583387,
			"0.002": 13.5274956791,
			"0.003": 4.42155229303,
			"0.004": 5.67784602244,
			"0.005": 4.61067572737,
			"0.006": 2.89009718863,
			"0.007": 4.95848091245,
			"0.008": 3.72891927087,
			"0.009": 3.88464551733,
			"0.01": 4.39465397781,
			"0.011": 9.07524634279,
			"0.012": 4.40535787297,
			"0.013": 0.331341163144,
			"0.014": 0.0,
			"0.015": 0.0,
			"0.016": 0.0,
			"0.017": 0.0,
			"0.018": 0.0,
			"0.019": 0.0,
			"0.02": 0.0,
			"0.021": 0.0,
			"0.022": 0.0,
			"0.023": 0.0,
			"0.024": 0.0,
			"0.025": 0.0
		}
	}
}
