{
	 "smiles": "N#CC(=C1CCCC1)C1=NC2=C(S1)C=CC=C2", 
	 "Tm": 508.15, 
	 "num_atms": 29, 
	 "gaussian": { 
		 "optdone": 1, 
		 "sigma_profile": "yes", 
		 "theory": "DFT", 
		 "functional": "B3LYP", 
		 "basiset": "6-31G**", 
		 "properties": { 
			 "R2extent": 5983.7017, 
			 "electric_dipole_moment_norm": 3.96959887394, 
			 "electric_quadrupole_moment_norm": 26.6713011709, 
			 "total_energy": -1048.40240072, 
			 "HOMO_LUMO_gap": 0.15765, 
			 "cosmo_polarized_energy": -9.87, 
			 "cosmo_cavitation_energy": 34.4, 
			 "cosmo_dispersion_energy": -25.16, 
			 "cosmo_repulsion_energy": 1.9, 
			 "cosmo_total_nonelectrostatic_energy": 11.15, 
			 "SMD_solvation_energy": 4.75 
		},
		"coords": [
			{
				"x": -3.134015938,
				"y": 1.7518930462,
				"z": 3.3431893635,
				"element": "N" 
			},
			{
				"x": -2.3153486114,
				"y": 1.4640593995,
				"z": 2.567106485,
				"element": "C" 
			},
			{
				"x": -1.3028062004,
				"y": 1.1230298757,
				"z": 1.607542228,
				"element": "C" 
			},
			{
				"x": -0.4734709428,
				"y": 2.1096439553,
				"z": 1.1649831833,
				"element": "C" 
			},
			{
				"x": 0.6510406265,
				"y": 1.9671096009,
				"z": 0.1672757505,
				"element": "C" 
			},
			{
				"x": 1.1253467632,
				"y": 3.4101949574,
				"z": -0.1061543463,
				"element": "C" 
			},
			{
				"x": 0.7976355085,
				"y": 4.162246818,
				"z": 1.1957171101,
				"element": "C" 
			},
			{
				"x": -0.547390349,
				"y": 3.5491571696,
				"z": 1.6318137454,
				"element": "C" 
			},
			{
				"x": -1.2449841811,
				"y": -0.2791278126,
				"z": 1.1768032212,
				"element": "C" 
			},
			{
				"x": -0.3623097445,
				"y": -0.7727083473,
				"z": 0.3587121381,
				"element": "N" 
			},
			{
				"x": -0.5673475485,
				"y": -2.1229216179,
				"z": 0.1472524613,
				"element": "C" 
			},
			{
				"x": -1.6645323278,
				"y": -2.6870867483,
				"z": 0.8451753007,
				"element": "C" 
			},
			{
				"x": -2.4496403741,
				"y": -1.4458024633,
				"z": 1.7945974902,
				"element": "S" 
			},
			{
				"x": -1.9847890003,
				"y": -4.0420121832,
				"z": 0.7245426063,
				"element": "C" 
			},
			{
				"x": -1.1935649103,
				"y": -4.8314456576,
				"z": -0.1055235214,
				"element": "C" 
			},
			{
				"x": -0.1019906973,
				"y": -4.2835599442,
				"z": -0.8035537682,
				"element": "C" 
			},
			{
				"x": 0.2178092262,
				"y": -2.9375135867,
				"z": -0.6842721428,
				"element": "C" 
			},
			{
				"x": 1.4475300792,
				"y": 1.360072565,
				"z": 0.6197203733,
				"element": "H" 
			},
			{
				"x": 0.3442147234,
				"y": 1.408660182,
				"z": -0.720638315,
				"element": "H" 
			},
			{
				"x": 2.1827736091,
				"y": 3.4607262196,
				"z": -0.3797979007,
				"element": "H" 
			},
			{
				"x": 0.5520474181,
				"y": 3.8387269793,
				"z": -0.9373245819,
				"element": "H" 
			},
			{
				"x": 1.5628709464,
				"y": 3.9537668826,
				"z": 1.9532215386,
				"element": "H" 
			},
			{
				"x": 0.7459008578,
				"y": 5.2471157879,
				"z": 1.0700890707,
				"element": "H" 
			},
			{
				"x": -1.377185128,
				"y": 4.0461495854,
				"z": 1.1071150883,
				"element": "H" 
			},
			{
				"x": -0.7616867718,
				"y": 3.6378895354,
				"z": 2.7008002006,
				"element": "H" 
			},
			{
				"x": -2.825646906,
				"y": -4.4695149736,
				"z": 1.2610618651,
				"element": "H" 
			},
			{
				"x": -1.424415019,
				"y": -5.8868657698,
				"z": -0.2143578239,
				"element": "H" 
			},
			{
				"x": 0.4974555878,
				"y": -4.9236955351,
				"z": -1.4437187124,
				"element": "H" 
			},
			{
				"x": 1.0567993041,
				"y": -2.5009879205,
				"z": -1.2160781075,
				"element": "H" 
			}
		],
		 "valence_orbital": [ 
			{
				"type": "occ",
				"energy": -0.30653,
				"method": "rhf"
			},
			{
				"type": "occ",
				"energy": -0.28087,
				"method": "rhf"
			},
			{
				"type": "occ",
				"energy": -0.27905,
				"method": "rhf"
			},
			{
				"type": "occ",
				"energy": -0.23888,
				"method": "rhf"
			},
			{
				"type": "occ",
				"energy": -0.22916,
				"method": "rhf"
			},
			{
				"type": "unocc",
				"energy": -0.07151,
				"method": "rhf"
			},
			{
				"type": "unocc",
				"energy": -0.01437,
				"method": "rhf"
			},
			{
				"type": "unocc",
				"energy": -0.00971,
				"method": "rhf"
			},
			{
				"type": "unocc",
				"energy": 0.00133,
				"method": "rhf"
			},
			{
				"type": "unocc",
				"energy": 0.0327,
				"method": "rhf"
			}
		],
		"cosmo_sigma_profile": { 
			"-0.025": 0.0,
			"-0.024": 0.0,
			"-0.023": 0.0,
			"-0.022": 0.0,
			"-0.021": 0.0,
			"-0.02": 0.0,
			"-0.019": 0.0,
			"-0.018": 0.0,
			"-0.017": 0.0,
			"-0.016": 0.0,
			"-0.015": 0.0,
			"-0.014": 0.0,
			"-0.013": 0.0,
			"-0.012": 0.0,
			"-0.011": 0.0,
			"-0.01": 0.0,
			"-0.009": 0.0,
			"-0.008": 0.336780646009,
			"-0.007": 3.81085960492,
			"-0.006": 10.1253447869,
			"-0.005": 16.4216060119,
			"-0.004": 24.6393584307,
			"-0.003": 31.5501225594,
			"-0.002": 27.2955810236,
			"-0.001": 27.9730404762,
			"0.0": 27.7078337839,
			"0.001": 17.2458946214,
			"0.002": 20.4143402815,
			"0.003": 19.5479534432,
			"0.004": 16.2242688681,
			"0.005": 8.87622950601,
			"0.006": 3.96191503495,
			"0.007": 4.03026823739,
			"0.008": 4.05445369011,
			"0.009": 3.25452801087,
			"0.01": 3.25565742392,
			"0.011": 2.70035343936,
			"0.012": 2.45447990756,
			"0.013": 1.31424310665,
			"0.014": 0.0109272683734,
			"0.015": 0.0,
			"0.016": 0.0,
			"0.017": 0.0,
			"0.018": 0.0,
			"0.019": 0.0,
			"0.02": 0.0,
			"0.021": 0.0,
			"0.022": 0.0,
			"0.023": 0.0,
			"0.024": 0.0,
			"0.025": 0.0
		}
	}
}
