{
	 "smiles": "FC1=CC=CC=C1Br", 
	 "Tm": 265.15, 
	 "num_atms": 12, 
	 "gaussian": { 
		 "optdone": 1, 
		 "sigma_profile": "yes", 
		 "theory": "DFT", 
		 "functional": "B3LYP", 
		 "basiset": "6-31G**", 
		 "properties": { 
			 "R2extent": 3049.7011, 
			 "electric_dipole_moment_norm": 2.43019831701, 
			 "electric_quadrupole_moment_norm": 6.42641916389, 
			 "total_energy": -2902.282982, 
			 "HOMO_LUMO_gap": 0.2227, 
			 "cosmo_polarized_energy": -3.88, 
			 "cosmo_cavitation_energy": 18.83, 
			 "cosmo_dispersion_energy": -14.46, 
			 "cosmo_repulsion_energy": 1.18, 
			 "cosmo_total_nonelectrostatic_energy": 5.55, 
			 "SMD_solvation_energy": 2.69 
		},
		"coords": [
			{
				"x": 0.4540944559,
				"y": -2.7272846805,
				"z": 2.1757158272,
				"element": "F" 
			},
			{
				"x": 0.2029502424,
				"y": -2.0847112873,
				"z": 1.0241749969,
				"element": "C" 
			},
			{
				"x": -1.0929558496,
				"y": -1.6569275129,
				"z": 0.7565639239,
				"element": "C" 
			},
			{
				"x": -1.3588682598,
				"y": -0.9888756593,
				"z": -0.4385492915,
				"element": "C" 
			},
			{
				"x": -0.3309008906,
				"y": -0.7540691827,
				"z": -1.3544216162,
				"element": "C" 
			},
			{
				"x": 0.9666691618,
				"y": -1.1867191679,
				"z": -1.0779384795,
				"element": "C" 
			},
			{
				"x": 1.2360701404,
				"y": -1.8550130781,
				"z": 0.1161256387,
				"element": "C" 
			},
			{
				"x": 2.9942825417,
				"y": -2.4553709119,
				"z": 0.5187099269,
				"element": "Br" 
			},
			{
				"x": -1.8682900499,
				"y": -1.8551273162,
				"z": 1.4888452983,
				"element": "H" 
			},
			{
				"x": -2.3688700977,
				"y": -0.6534008983,
				"z": -0.6511869731,
				"element": "H" 
			},
			{
				"x": -0.5337288829,
				"y": -0.2346519495,
				"z": -2.285387915,
				"element": "H" 
			},
			{
				"x": 1.7731474884,
				"y": -1.0105483554,
				"z": -1.7806513367,
				"element": "H" 
			}
		],
		 "valence_orbital": [ 
			{
				"type": "occ",
				"energy": -0.35728,
				"method": "rhf"
			},
			{
				"type": "occ",
				"energy": -0.31953,
				"method": "rhf"
			},
			{
				"type": "occ",
				"energy": -0.2904,
				"method": "rhf"
			},
			{
				"type": "occ",
				"energy": -0.26266,
				"method": "rhf"
			},
			{
				"type": "occ",
				"energy": -0.24564,
				"method": "rhf"
			},
			{
				"type": "unocc",
				"energy": -0.02294,
				"method": "rhf"
			},
			{
				"type": "unocc",
				"energy": -0.01096,
				"method": "rhf"
			},
			{
				"type": "unocc",
				"energy": 0.00058,
				"method": "rhf"
			},
			{
				"type": "unocc",
				"energy": 0.09703,
				"method": "rhf"
			},
			{
				"type": "unocc",
				"energy": 0.13342,
				"method": "rhf"
			}
		],
		"cosmo_sigma_profile": { 
			"-0.025": 0.0,
			"-0.024": 0.0,
			"-0.023": 0.0,
			"-0.022": 0.0,
			"-0.021": 0.0,
			"-0.02": 0.0,
			"-0.019": 0.0,
			"-0.018": 0.0,
			"-0.017": 0.0,
			"-0.016": 0.0,
			"-0.015": 0.0,
			"-0.014": 0.0,
			"-0.013": 0.0,
			"-0.012": 0.0,
			"-0.011": 0.0,
			"-0.01": 0.0,
			"-0.009": 0.0,
			"-0.008": 1.43627450151,
			"-0.007": 6.71122702022,
			"-0.006": 7.68052072942,
			"-0.005": 10.2787854821,
			"-0.004": 8.00303084344,
			"-0.003": 7.25135588743,
			"-0.002": 7.06342212404,
			"-0.001": 9.88920206664,
			"0.0": 14.1458869601,
			"0.001": 16.1316215517,
			"0.002": 17.3916215181,
			"0.003": 20.9406593661,
			"0.004": 22.0426273266,
			"0.005": 5.68635130626,
			"0.006": 0.492725044398,
			"0.007": 0.0,
			"0.008": 0.0,
			"0.009": 0.0,
			"0.01": 0.0,
			"0.011": 0.0,
			"0.012": 0.0,
			"0.013": 0.0,
			"0.014": 0.0,
			"0.015": 0.0,
			"0.016": 0.0,
			"0.017": 0.0,
			"0.018": 0.0,
			"0.019": 0.0,
			"0.02": 0.0,
			"0.021": 0.0,
			"0.022": 0.0,
			"0.023": 0.0,
			"0.024": 0.0,
			"0.025": 0.0
		}
	}
}
