{
	 "smiles": "FC(F)(F)C1=CC=C(C=O)C=C1", 
	 "Tm": 274.9, 
	 "num_atms": 17, 
	 "gaussian": { 
		 "optdone": 1, 
		 "sigma_profile": "yes", 
		 "theory": "DFT", 
		 "functional": "B3LYP", 
		 "basiset": "6-31G**", 
		 "properties": { 
			 "R2extent": 3523.114, 
			 "electric_dipole_moment_norm": 1.66669354712, 
			 "electric_quadrupole_moment_norm": 12.6397926079, 
			 "total_energy": -682.606585559, 
			 "HOMO_LUMO_gap": 0.18577, 
			 "cosmo_polarized_energy": -7.36, 
			 "cosmo_cavitation_energy": 23.47, 
			 "cosmo_dispersion_energy": -16.57, 
			 "cosmo_repulsion_energy": 1.25, 
			 "cosmo_total_nonelectrostatic_energy": 8.15, 
			 "SMD_solvation_energy": 6.31 
		},
		"coords": [
			{
				"x": -1.2262761153,
				"y": 4.4190529375,
				"z": 1.6289918844,
				"element": "F" 
			},
			{
				"x": -1.7924080198,
				"y": 3.4585645261,
				"z": 0.8676742513,
				"element": "C" 
			},
			{
				"x": -2.8258639723,
				"y": 2.9481798348,
				"z": 1.5747459508,
				"element": "F" 
			},
			{
				"x": -2.3182168841,
				"y": 4.0570362845,
				"z": -0.2226418017,
				"element": "F" 
			},
			{
				"x": -0.8043608056,
				"y": 2.3840926471,
				"z": 0.4904627069,
				"element": "C" 
			},
			{
				"x": 0.300776603,
				"y": 2.1351463169,
				"z": 1.3079257331,
				"element": "C" 
			},
			{
				"x": 1.179361745,
				"y": 1.105561299,
				"z": 0.9776489745,
				"element": "C" 
			},
			{
				"x": 0.955457571,
				"y": 0.3266966264,
				"z": -0.1635914691,
				"element": "C" 
			},
			{
				"x": 1.8965224986,
				"y": -0.7674293774,
				"z": -0.5096593838,
				"element": "C" 
			},
			{
				"x": 1.7807653773,
				"y": -1.4894324904,
				"z": -1.4801292964,
				"element": "O" 
			},
			{
				"x": -0.156031596,
				"y": 0.5840095187,
				"z": -0.9802457918,
				"element": "C" 
			},
			{
				"x": -1.0341495144,
				"y": 1.6096244666,
				"z": -0.6546870138,
				"element": "C" 
			},
			{
				"x": 0.4711521855,
				"y": 2.7473565641,
				"z": 2.1863513428,
				"element": "H" 
			},
			{
				"x": 2.0444036775,
				"y": 0.9055023422,
				"z": 1.605144404,
				"element": "H" 
			},
			{
				"x": 2.7448957052,
				"y": -0.8911666783,
				"z": 0.1991609375,
				"element": "H" 
			},
			{
				"x": -0.3058733195,
				"y": -0.0305110856,
				"z": -1.8619580202,
				"element": "H" 
			},
			{
				"x": -1.891755136,
				"y": 1.821916268,
				"z": -1.2839934087,
				"element": "H" 
			}
		],
		 "valence_orbital": [ 
			{
				"type": "occ",
				"energy": -0.37515,
				"method": "rhf"
			},
			{
				"type": "occ",
				"energy": -0.37228,
				"method": "rhf"
			},
			{
				"type": "occ",
				"energy": -0.2844,
				"method": "rhf"
			},
			{
				"type": "occ",
				"energy": -0.28198,
				"method": "rhf"
			},
			{
				"type": "occ",
				"energy": -0.26807,
				"method": "rhf"
			},
			{
				"type": "unocc",
				"energy": -0.0823,
				"method": "rhf"
			},
			{
				"type": "unocc",
				"energy": -0.03181,
				"method": "rhf"
			},
			{
				"type": "unocc",
				"energy": 0.01476,
				"method": "rhf"
			},
			{
				"type": "unocc",
				"energy": 0.08839,
				"method": "rhf"
			},
			{
				"type": "unocc",
				"energy": 0.10549,
				"method": "rhf"
			}
		],
		"cosmo_sigma_profile": { 
			"-0.025": 0.0,
			"-0.024": 0.0,
			"-0.023": 0.0,
			"-0.022": 0.0,
			"-0.021": 0.0,
			"-0.02": 0.0,
			"-0.019": 0.0,
			"-0.018": 0.0,
			"-0.017": 0.0,
			"-0.016": 0.0,
			"-0.015": 0.0,
			"-0.014": 0.0,
			"-0.013": 0.0,
			"-0.012": 0.0,
			"-0.011": 0.0,
			"-0.01": 0.0,
			"-0.009": 0.547406203505,
			"-0.008": 5.27087719022,
			"-0.007": 9.56479703193,
			"-0.006": 10.540513523,
			"-0.005": 9.65159541354,
			"-0.004": 9.51747754699,
			"-0.003": 9.57726916924,
			"-0.002": 9.15806359408,
			"-0.001": 12.1254838927,
			"0.0": 18.2533167869,
			"0.001": 21.8758417837,
			"0.002": 30.1975579821,
			"0.003": 22.9734388432,
			"0.004": 2.11391531614,
			"0.005": 1.51676679894,
			"0.006": 1.26473437539,
			"0.007": 1.56650879806,
			"0.008": 2.03716864658,
			"0.009": 2.00093592625,
			"0.01": 3.48784890325,
			"0.011": 3.85777810878,
			"0.012": 1.79232414653,
			"0.013": 0.19004643702,
			"0.014": 0.0,
			"0.015": 0.0,
			"0.016": 0.0,
			"0.017": 0.0,
			"0.018": 0.0,
			"0.019": 0.0,
			"0.02": 0.0,
			"0.021": 0.0,
			"0.022": 0.0,
			"0.023": 0.0,
			"0.024": 0.0,
			"0.025": 0.0
		}
	}
}
