{
	 "smiles": "CC1=C(SN=N1)C(O)=O", 
	 "Tm": 458.15, 
	 "num_atms": 13, 
	 "gaussian": { 
		 "optdone": 1, 
		 "sigma_profile": "yes", 
		 "theory": "DFT", 
		 "functional": "B3LYP", 
		 "basiset": "6-31G**", 
		 "properties": { 
			 "R2extent": 2359.7946, 
			 "electric_dipole_moment_norm": 1.3613683337, 
			 "electric_quadrupole_moment_norm": 19.838854315, 
			 "total_energy": -812.934021584, 
			 "HOMO_LUMO_gap": 0.18138, 
			 "cosmo_polarized_energy": -13.22, 
			 "cosmo_cavitation_energy": 19.52, 
			 "cosmo_dispersion_energy": -15.18, 
			 "cosmo_repulsion_energy": 1.19, 
			 "cosmo_total_nonelectrostatic_energy": 5.53, 
			 "SMD_solvation_energy": 2.81 
		},
		"coords": [
			{
				"x": 0.3997249136,
				"y": 0.3834406714,
				"z": -0.8240365576,
				"element": "C" 
			},
			{
				"x": -0.5087531831,
				"y": -0.7768714655,
				"z": -0.5627037648,
				"element": "C" 
			},
			{
				"x": -0.1852655088,
				"y": -2.1236769598,
				"z": -0.5017926573,
				"element": "C" 
			},
			{
				"x": -1.612205174,
				"y": -3.0255402602,
				"z": -0.1724550062,
				"element": "S" 
			},
			{
				"x": -2.5766770348,
				"y": -1.5633664594,
				"z": -0.1296627983,
				"element": "N" 
			},
			{
				"x": -1.8480599548,
				"y": -0.545871939,
				"z": -0.3472947921,
				"element": "N" 
			},
			{
				"x": 1.1850650337,
				"y": -2.6730258719,
				"z": -0.6945488673,
				"element": "C" 
			},
			{
				"x": 1.3421045925,
				"y": -4.0152025305,
				"z": -0.6054018948,
				"element": "O" 
			},
			{
				"x": 2.137497375,
				"y": -1.9648051871,
				"z": -0.9228065157,
				"element": "O" 
			},
			{
				"x": 1.1960942142,
				"y": 0.4327611401,
				"z": -0.0767897669,
				"element": "H" 
			},
			{
				"x": -0.183150469,
				"y": 1.3054241268,
				"z": -0.8013562797,
				"element": "H" 
			},
			{
				"x": 0.8927163138,
				"y": 0.2833982508,
				"z": -1.7946078346,
				"element": "H" 
			},
			{
				"x": 0.5078088818,
				"y": -4.4699635158,
				"z": -0.4199432647,
				"element": "H" 
			}
		],
		 "valence_orbital": [ 
			{
				"type": "occ",
				"energy": -0.34219,
				"method": "rhf"
			},
			{
				"type": "occ",
				"energy": -0.32802,
				"method": "rhf"
			},
			{
				"type": "occ",
				"energy": -0.30176,
				"method": "rhf"
			},
			{
				"type": "occ",
				"energy": -0.28566,
				"method": "rhf"
			},
			{
				"type": "occ",
				"energy": -0.28235,
				"method": "rhf"
			},
			{
				"type": "unocc",
				"energy": -0.10097,
				"method": "rhf"
			},
			{
				"type": "unocc",
				"energy": -0.05092,
				"method": "rhf"
			},
			{
				"type": "unocc",
				"energy": -0.01463,
				"method": "rhf"
			},
			{
				"type": "unocc",
				"energy": 0.05331,
				"method": "rhf"
			},
			{
				"type": "unocc",
				"energy": 0.05799,
				"method": "rhf"
			}
		],
		"cosmo_sigma_profile": { 
			"-0.025": 0.0,
			"-0.024": 0.0,
			"-0.023": 0.0,
			"-0.022": 0.0,
			"-0.021": 0.0,
			"-0.02": 0.0995347055906,
			"-0.019": 0.902124179225,
			"-0.018": 0.96470524685,
			"-0.017": 1.06948663924,
			"-0.016": 1.08468703703,
			"-0.015": 1.39143209032,
			"-0.014": 0.84285494312,
			"-0.013": 0.77707404021,
			"-0.012": 1.42365341041,
			"-0.011": 0.80310189539,
			"-0.01": 1.18136562626,
			"-0.009": 1.22576869047,
			"-0.008": 1.45208332183,
			"-0.007": 1.85631030773,
			"-0.006": 3.49824903639,
			"-0.005": 9.48026289307,
			"-0.004": 12.8546732516,
			"-0.003": 17.6338054103,
			"-0.002": 16.5520412551,
			"-0.001": 14.1283771749,
			"0.0": 8.8889412911,
			"0.001": 4.66864209371,
			"0.002": 4.53677316212,
			"0.003": 4.36214127343,
			"0.004": 3.90667133451,
			"0.005": 5.09976586682,
			"0.006": 4.15809693143,
			"0.007": 5.96260704585,
			"0.008": 6.34038449632,
			"0.009": 8.30851818526,
			"0.01": 6.3547655674,
			"0.011": 5.46497096582,
			"0.012": 1.76118520321,
			"0.013": 0.0,
			"0.014": 0.0,
			"0.015": 0.0,
			"0.016": 0.0,
			"0.017": 0.0,
			"0.018": 0.0,
			"0.019": 0.0,
			"0.02": 0.0,
			"0.021": 0.0,
			"0.022": 0.0,
			"0.023": 0.0,
			"0.024": 0.0,
			"0.025": 0.0
		}
	}
}
