{
	 "smiles": "SC1=NC(C=CC2=CC=CC=C2)=NN1", 
	 "Tm": 551.15, 
	 "num_atms": 23, 
	 "gaussian": { 
		 "optdone": 1, 
		 "sigma_profile": "yes", 
		 "theory": "DFT", 
		 "functional": "B3LYP", 
		 "basiset": "6-31G**", 
		 "properties": { 
			 "R2extent": 4525.9833, 
			 "electric_dipole_moment_norm": 2.02456574356, 
			 "electric_quadrupole_moment_norm": 17.0192404728, 
			 "total_energy": -948.896741088, 
			 "HOMO_LUMO_gap": 0.16319, 
			 "cosmo_polarized_energy": -13.38, 
			 "cosmo_cavitation_energy": 29.58, 
			 "cosmo_dispersion_energy": -22.21, 
			 "cosmo_repulsion_energy": 1.69, 
			 "cosmo_total_nonelectrostatic_energy": 9.06, 
			 "SMD_solvation_energy": 2.79 
		},
		"coords": [
			{
				"x": -0.1529850614,
				"y": 0.8248637871,
				"z": -4.4792092169,
				"element": "S" 
			},
			{
				"x": -0.50758925,
				"y": 1.7599244945,
				"z": -3.0237391741,
				"element": "C" 
			},
			{
				"x": -0.2701301532,
				"y": 1.4122965684,
				"z": -1.7751397301,
				"element": "N" 
			},
			{
				"x": -0.7324575657,
				"y": 2.4856269811,
				"z": -1.0465477319,
				"element": "C" 
			},
			{
				"x": -0.7342820947,
				"y": 2.6693387553,
				"z": 0.3972077585,
				"element": "C" 
			},
			{
				"x": -0.3245430161,
				"y": 1.9334156027,
				"z": 1.4580463409,
				"element": "C" 
			},
			{
				"x": 0.3059050387,
				"y": 0.6236958166,
				"z": 1.6601855515,
				"element": "C" 
			},
			{
				"x": 0.6757367483,
				"y": -0.2821748523,
				"z": 0.6456263316,
				"element": "C" 
			},
			{
				"x": 1.2703783,
				"y": -1.5003798439,
				"z": 0.9684473729,
				"element": "C" 
			},
			{
				"x": 1.5130212008,
				"y": -1.8514328534,
				"z": 2.2984797187,
				"element": "C" 
			},
			{
				"x": 1.1531863297,
				"y": -0.9663134453,
				"z": 3.3164792401,
				"element": "C" 
			},
			{
				"x": 0.5591919125,
				"y": 0.2512505159,
				"z": 2.9982429128,
				"element": "C" 
			},
			{
				"x": -1.2390010962,
				"y": 3.467042484,
				"z": -1.8011654336,
				"element": "N" 
			},
			{
				"x": -1.0856288998,
				"y": 2.9831620475,
				"z": -3.0592333468,
				"element": "N" 
			},
			{
				"x": 0.3638539449,
				"y": -0.2066760406,
				"z": -3.7873880076,
				"element": "H" 
			},
			{
				"x": -1.1742548726,
				"y": 3.6323238047,
				"z": 0.6443205901,
				"element": "H" 
			},
			{
				"x": -0.5062644326,
				"y": 2.4363712571,
				"z": 2.4074729506,
				"element": "H" 
			},
			{
				"x": 0.4928993874,
				"y": -0.0221562475,
				"z": -0.3890444989,
				"element": "H" 
			},
			{
				"x": 1.5478309259,
				"y": -2.1843981026,
				"z": 0.1706524325,
				"element": "H" 
			},
			{
				"x": 1.9772041566,
				"y": -2.8037707753,
				"z": 2.5390343,
				"element": "H" 
			},
			{
				"x": 1.3348586017,
				"y": -1.2238096358,
				"z": 4.3561614322,
				"element": "H" 
			},
			{
				"x": 0.2820606802,
				"y": 0.9349428314,
				"z": 3.7970460389,
				"element": "H" 
			},
			{
				"x": -1.3891907842,
				"y": 3.5281568501,
				"z": -3.8523358314,
				"element": "H" 
			}
		],
		 "valence_orbital": [ 
			{
				"type": "occ",
				"energy": -0.28301,
				"method": "rhf"
			},
			{
				"type": "occ",
				"energy": -0.28254,
				"method": "rhf"
			},
			{
				"type": "occ",
				"energy": -0.25251,
				"method": "rhf"
			},
			{
				"type": "occ",
				"energy": -0.24283,
				"method": "rhf"
			},
			{
				"type": "occ",
				"energy": -0.20835,
				"method": "rhf"
			},
			{
				"type": "unocc",
				"energy": -0.04516,
				"method": "rhf"
			},
			{
				"type": "unocc",
				"energy": -0.00983,
				"method": "rhf"
			},
			{
				"type": "unocc",
				"energy": 0.00418,
				"method": "rhf"
			},
			{
				"type": "unocc",
				"energy": 0.0095,
				"method": "rhf"
			},
			{
				"type": "unocc",
				"energy": 0.03704,
				"method": "rhf"
			}
		],
		"cosmo_sigma_profile": { 
			"-0.025": 0.0,
			"-0.024": 0.0,
			"-0.023": 0.0,
			"-0.022": 0.0,
			"-0.021": 0.0,
			"-0.02": 0.0,
			"-0.019": 0.00776530440736,
			"-0.018": 1.3439208457,
			"-0.017": 1.49459796691,
			"-0.016": 1.64646478515,
			"-0.015": 1.19218879334,
			"-0.014": 1.09665353478,
			"-0.013": 1.06549818074,
			"-0.012": 2.64065510323,
			"-0.011": 2.5703651599,
			"-0.01": 1.83499221985,
			"-0.009": 1.87865414552,
			"-0.008": 2.84497695498,
			"-0.007": 2.80612391796,
			"-0.006": 8.11431876336,
			"-0.005": 14.469908246,
			"-0.004": 13.1123436638,
			"-0.003": 15.7514455181,
			"-0.002": 11.8174577093,
			"-0.001": 13.5433145791,
			"0.0": 13.5414429174,
			"0.001": 17.3100523807,
			"0.002": 17.912190759,
			"0.003": 21.9455458394,
			"0.004": 24.2274081375,
			"0.005": 21.8283177456,
			"0.006": 12.6160580214,
			"0.007": 3.0775874132,
			"0.008": 2.17946745556,
			"0.009": 1.22334648884,
			"0.01": 1.46031048268,
			"0.011": 1.07835786901,
			"0.012": 1.19019609952,
			"0.013": 0.783715722286,
			"0.014": 0.777965606381,
			"0.015": 0.26412348352,
			"0.016": 0.0,
			"0.017": 0.0,
			"0.018": 0.0,
			"0.019": 0.0,
			"0.02": 0.0,
			"0.021": 0.0,
			"0.022": 0.0,
			"0.023": 0.0,
			"0.024": 0.0,
			"0.025": 0.0
		}
	}
}
