{
	 "smiles": "OC(=O)COC1=CC=C(Cl)C(Cl)=C1", 
	 "Tm": 412.15, 
	 "num_atms": 19, 
	 "gaussian": { 
		 "optdone": 1, 
		 "sigma_profile": "yes", 
		 "theory": "DFT", 
		 "functional": "B3LYP", 
		 "basiset": "6-31G**", 
		 "properties": { 
			 "R2extent": 4440.4293, 
			 "electric_dipole_moment_norm": 3.97249134423, 
			 "electric_quadrupole_moment_norm": 25.0972683348, 
			 "total_energy": -1454.50351087, 
			 "HOMO_LUMO_gap": 0.21857, 
			 "cosmo_polarized_energy": -18.34, 
			 "cosmo_cavitation_energy": 27.81, 
			 "cosmo_dispersion_energy": -20.48, 
			 "cosmo_repulsion_energy": 1.64, 
			 "cosmo_total_nonelectrostatic_energy": 8.97, 
			 "SMD_solvation_energy": 5.6 
		},
		"coords": [
			{
				"x": -3.0559384555,
				"y": -2.2655736602,
				"z": 1.9517035691,
				"element": "O" 
			},
			{
				"x": -2.7053948006,
				"y": -1.4313451826,
				"z": 0.9386551905,
				"element": "C" 
			},
			{
				"x": -2.8321021632,
				"y": -0.2414201393,
				"z": 1.0479755842,
				"element": "O" 
			},
			{
				"x": -2.1677546888,
				"y": -2.1481456129,
				"z": -0.3081198794,
				"element": "C" 
			},
			{
				"x": -1.8304756795,
				"y": -1.2642625929,
				"z": -1.3509711125,
				"element": "O" 
			},
			{
				"x": -0.5734823334,
				"y": -0.6852214554,
				"z": -1.290357679,
				"element": "C" 
			},
			{
				"x": -0.4248955353,
				"y": 0.6169222629,
				"z": -0.8113585771,
				"element": "C" 
			},
			{
				"x": 0.8367677321,
				"y": 1.20489964,
				"z": -0.8238060957,
				"element": "C" 
			},
			{
				"x": 1.9479814829,
				"y": 0.5059056129,
				"z": -1.3038254706,
				"element": "C" 
			},
			{
				"x": 3.5089678333,
				"y": 1.2891753344,
				"z": -1.2917230182,
				"element": "Cl" 
			},
			{
				"x": 1.7876693488,
				"y": -0.8011356216,
				"z": -1.7836214289,
				"element": "C" 
			},
			{
				"x": 3.1380083825,
				"y": -1.7197349372,
				"z": -2.4049842342,
				"element": "Cl" 
			},
			{
				"x": 0.5236244288,
				"y": -1.3936245042,
				"z": -1.7802820003,
				"element": "C" 
			},
			{
				"x": -2.8888851095,
				"y": -3.1906857182,
				"z": 1.7173983061,
				"element": "H" 
			},
			{
				"x": -1.3144041752,
				"y": -2.7803312687,
				"z": -0.0173170098,
				"element": "H" 
			},
			{
				"x": -2.9554022427,
				"y": -2.8075521518,
				"z": -0.693206289,
				"element": "H" 
			},
			{
				"x": -1.2911980203,
				"y": 1.13827628,
				"z": -0.4239022002,
				"element": "H" 
			},
			{
				"x": 0.973255718,
				"y": 2.2151102524,
				"z": -0.4543415011,
				"element": "H" 
			},
			{
				"x": 0.3940582777,
				"y": -2.3947565377,
				"z": -2.175416154,
				"element": "H" 
			}
		],
		 "valence_orbital": [ 
			{
				"type": "occ",
				"energy": -0.31611,
				"method": "rhf"
			},
			{
				"type": "occ",
				"energy": -0.31018,
				"method": "rhf"
			},
			{
				"type": "occ",
				"energy": -0.28558,
				"method": "rhf"
			},
			{
				"type": "occ",
				"energy": -0.266,
				"method": "rhf"
			},
			{
				"type": "occ",
				"energy": -0.24799,
				"method": "rhf"
			},
			{
				"type": "unocc",
				"energy": -0.02942,
				"method": "rhf"
			},
			{
				"type": "unocc",
				"energy": -0.02415,
				"method": "rhf"
			},
			{
				"type": "unocc",
				"energy": -0.00745,
				"method": "rhf"
			},
			{
				"type": "unocc",
				"energy": -0.00068,
				"method": "rhf"
			},
			{
				"type": "unocc",
				"energy": 0.03386,
				"method": "rhf"
			}
		],
		"cosmo_sigma_profile": { 
			"-0.025": 0.0,
			"-0.024": 0.218432811659,
			"-0.023": 0.446425096095,
			"-0.022": 0.50849106218,
			"-0.021": 0.174565555234,
			"-0.02": 0.787391026749,
			"-0.019": 1.19992053935,
			"-0.018": 1.4285326898,
			"-0.017": 0.888303880788,
			"-0.016": 0.540266268525,
			"-0.015": 0.980855848831,
			"-0.014": 0.863336513739,
			"-0.013": 1.53505491392,
			"-0.012": 1.21116697511,
			"-0.011": 1.64084933522,
			"-0.01": 2.11499696119,
			"-0.009": 3.43320227953,
			"-0.008": 6.49383271523,
			"-0.007": 8.7910639181,
			"-0.006": 8.37076770158,
			"-0.005": 7.16203377336,
			"-0.004": 7.52639979346,
			"-0.003": 7.96920397033,
			"-0.002": 9.03137993324,
			"-0.001": 11.6425448187,
			"0.0": 18.2307193354,
			"0.001": 25.675686914,
			"0.002": 19.7574413145,
			"0.003": 18.3052907562,
			"0.004": 19.1855978847,
			"0.005": 8.67708947743,
			"0.006": 4.82136934508,
			"0.007": 3.91277621924,
			"0.008": 3.63329910583,
			"0.009": 6.12585592189,
			"0.01": 7.66281068533,
			"0.011": 3.73320505977,
			"0.012": 2.0687424705,
			"0.013": 0.422591635202,
			"0.014": 0.0,
			"0.015": 0.0,
			"0.016": 0.0,
			"0.017": 0.0,
			"0.018": 0.0,
			"0.019": 0.0,
			"0.02": 0.0,
			"0.021": 0.0,
			"0.022": 0.0,
			"0.023": 0.0,
			"0.024": 0.0,
			"0.025": 0.0
		}
	}
}
