{
	 "smiles": "CC1=CC=C(C=C1)C1=NC(C=O)=CO1", 
	 "Tm": 366.15, 
	 "num_atms": 23, 
	 "gaussian": { 
		 "optdone": 1, 
		 "sigma_profile": "yes", 
		 "theory": "DFT", 
		 "functional": "B3LYP", 
		 "basiset": "6-31G**", 
		 "properties": { 
			 "R2extent": 3862.4516, 
			 "electric_dipole_moment_norm": 4.66742678143, 
			 "electric_quadrupole_moment_norm": 19.7928914386, 
			 "total_energy": -629.776170823, 
			 "HOMO_LUMO_gap": 0.17686, 
			 "cosmo_polarized_energy": -13.68, 
			 "cosmo_cavitation_energy": 28.56, 
			 "cosmo_dispersion_energy": -20.78, 
			 "cosmo_repulsion_energy": 1.62, 
			 "cosmo_total_nonelectrostatic_energy": 9.4, 
			 "SMD_solvation_energy": 5.38 
		},
		"coords": [
			{
				"x": 1.5957420182,
				"y": 0.7331501056,
				"z": 4.07389611,
				"element": "C" 
			},
			{
				"x": 0.9968403829,
				"y": 0.5577692457,
				"z": 2.6995185517,
				"element": "C" 
			},
			{
				"x": 1.2957187254,
				"y": -0.5753767346,
				"z": 1.9256962712,
				"element": "C" 
			},
			{
				"x": 0.7319887037,
				"y": -0.7599166981,
				"z": 0.6695146415,
				"element": "C" 
			},
			{
				"x": -0.1544283304,
				"y": 0.1974888387,
				"z": 0.1483388942,
				"element": "C" 
			},
			{
				"x": -0.4588838552,
				"y": 1.3351312921,
				"z": 0.9093876795,
				"element": "C" 
			},
			{
				"x": 0.1139224362,
				"y": 1.5065106277,
				"z": 2.1671969634,
				"element": "C" 
			},
			{
				"x": -0.7316635886,
				"y": -0.0161447137,
				"z": -1.1734866326,
				"element": "C" 
			},
			{
				"x": -0.5449779757,
				"y": -1.0100113111,
				"z": -1.989227753,
				"element": "N" 
			},
			{
				"x": -1.3279301518,
				"y": -0.7167960207,
				"z": -3.0982820874,
				"element": "C" 
			},
			{
				"x": -1.4385175988,
				"y": -1.563591982,
				"z": -4.2934224274,
				"element": "C" 
			},
			{
				"x": -0.8612816937,
				"y": -2.618730182,
				"z": -4.4565987738,
				"element": "O" 
			},
			{
				"x": -1.9651708293,
				"y": 0.4742391179,
				"z": -2.8872733513,
				"element": "C" 
			},
			{
				"x": -1.5991588794,
				"y": 0.9381195539,
				"z": -1.6662565698,
				"element": "O" 
			},
			{
				"x": 2.6497746632,
				"y": 0.438006145,
				"z": 4.091077649,
				"element": "H" 
			},
			{
				"x": 1.5276103052,
				"y": 1.7709059985,
				"z": 4.4118261486,
				"element": "H" 
			},
			{
				"x": 1.0750294163,
				"y": 0.111326643,
				"z": 4.8128182607,
				"element": "H" 
			},
			{
				"x": 1.98256472,
				"y": -1.3221722634,
				"z": 2.3158794413,
				"element": "H" 
			},
			{
				"x": 0.9674949514,
				"y": -1.6364091273,
				"z": 0.0752491339,
				"element": "H" 
			},
			{
				"x": -1.1389265065,
				"y": 2.0824698315,
				"z": 0.5145739869,
				"element": "H" 
			},
			{
				"x": -0.1281032597,
				"y": 2.3941868214,
				"z": 2.7457659264,
				"element": "H" 
			},
			{
				"x": -2.119159585,
				"y": -1.1487710358,
				"z": -5.0706582958,
				"element": "H" 
			},
			{
				"x": -2.6534840686,
				"y": 1.078415848,
				"z": -3.4572337675,
				"element": "H" 
			}
		],
		 "valence_orbital": [ 
			{
				"type": "occ",
				"energy": -0.29859,
				"method": "rhf"
			},
			{
				"type": "occ",
				"energy": -0.28668,
				"method": "rhf"
			},
			{
				"type": "occ",
				"energy": -0.26104,
				"method": "rhf"
			},
			{
				"type": "occ",
				"energy": -0.25474,
				"method": "rhf"
			},
			{
				"type": "occ",
				"energy": -0.2314,
				"method": "rhf"
			},
			{
				"type": "unocc",
				"energy": -0.05454,
				"method": "rhf"
			},
			{
				"type": "unocc",
				"energy": -0.04828,
				"method": "rhf"
			},
			{
				"type": "unocc",
				"energy": -0.01052,
				"method": "rhf"
			},
			{
				"type": "unocc",
				"energy": 0.04451,
				"method": "rhf"
			},
			{
				"type": "unocc",
				"energy": 0.09167,
				"method": "rhf"
			}
		],
		"cosmo_sigma_profile": { 
			"-0.025": 0.0,
			"-0.024": 0.0,
			"-0.023": 0.0,
			"-0.022": 0.0,
			"-0.021": 0.0,
			"-0.02": 0.0,
			"-0.019": 0.0,
			"-0.018": 0.0,
			"-0.017": 0.0,
			"-0.016": 0.0,
			"-0.015": 0.0,
			"-0.014": 0.0,
			"-0.013": 0.0,
			"-0.012": 0.654495449306,
			"-0.011": 2.9579788124,
			"-0.01": 2.0623688592,
			"-0.009": 2.82500700462,
			"-0.008": 2.77236662999,
			"-0.007": 4.92387872216,
			"-0.006": 8.51204414689,
			"-0.005": 13.5745059912,
			"-0.004": 19.7089832612,
			"-0.003": 19.2620210807,
			"-0.002": 20.1622821389,
			"-0.001": 22.6294647453,
			"0.0": 19.299833508,
			"0.001": 13.9458010815,
			"0.002": 13.1361640689,
			"0.003": 13.832479344,
			"0.004": 15.6618611681,
			"0.005": 4.97961391783,
			"0.006": 1.81981763821,
			"0.007": 3.12578455728,
			"0.008": 2.41997666828,
			"0.009": 3.08353953394,
			"0.01": 3.38889329646,
			"0.011": 5.94732242951,
			"0.012": 4.38190964219,
			"0.013": 2.65481972447,
			"0.014": 1.54198579017,
			"0.015": 0.26410178646,
			"0.016": 0.0,
			"0.017": 0.0,
			"0.018": 0.0,
			"0.019": 0.0,
			"0.02": 0.0,
			"0.021": 0.0,
			"0.022": 0.0,
			"0.023": 0.0,
			"0.024": 0.0,
			"0.025": 0.0
		}
	}
}
