{
	 "smiles": "CC1=C(N)C=C(C=C1)S(=O)(=O)NC1=CC(=CC=C1)C(F)(F)F", 
	 "Tm": 390.15, 
	 "num_atms": 35, 
	 "gaussian": { 
		 "optdone": 1, 
		 "sigma_profile": "yes", 
		 "theory": "DFT", 
		 "functional": "B3LYP", 
		 "basiset": "6-31G**", 
		 "properties": { 
			 "R2extent": 11532.2831, 
			 "electric_dipole_moment_norm": 7.67988913331, 
			 "electric_quadrupole_moment_norm": 26.5077148793, 
			 "total_energy": -1498.93114916, 
			 "HOMO_LUMO_gap": 0.18442, 
			 "cosmo_polarized_energy": -21.14, 
			 "cosmo_cavitation_energy": 42.3, 
			 "cosmo_dispersion_energy": -29.73, 
			 "cosmo_repulsion_energy": 2.16, 
			 "cosmo_total_nonelectrostatic_energy": 14.74, 
			 "SMD_solvation_energy": 7.38 
		},
		"coords": [
			{
				"x": 3.4971241691,
				"y": 4.5922336318,
				"z": 0.666207584,
				"element": "C" 
			},
			{
				"x": 3.1678539563,
				"y": 3.1759923526,
				"z": 0.2698305943,
				"element": "C" 
			},
			{
				"x": 2.0510216635,
				"y": 2.9180625819,
				"z": -0.5664365098,
				"element": "C" 
			},
			{
				"x": 1.2866354385,
				"y": 3.9708003966,
				"z": -1.0599781969,
				"element": "N" 
			},
			{
				"x": 1.7637575915,
				"y": 1.5989488849,
				"z": -0.9430105676,
				"element": "C" 
			},
			{
				"x": 2.5770244985,
				"y": 0.5614951669,
				"z": -0.4921955418,
				"element": "C" 
			},
			{
				"x": 3.6821663574,
				"y": 0.7871782085,
				"z": 0.3253558317,
				"element": "C" 
			},
			{
				"x": 3.9558156232,
				"y": 2.1053306616,
				"z": 0.6954641727,
				"element": "C" 
			},
			{
				"x": 2.18509531,
				"y": -1.1107403457,
				"z": -0.9904447896,
				"element": "S" 
			},
			{
				"x": 3.3383150985,
				"y": -1.9656019425,
				"z": -0.6864714564,
				"element": "O" 
			},
			{
				"x": 1.5891973018,
				"y": -1.1097342037,
				"z": -2.3277399908,
				"element": "O" 
			},
			{
				"x": 0.8934254313,
				"y": -1.4345360598,
				"z": 0.1149762234,
				"element": "N" 
			},
			{
				"x": 0.0997434742,
				"y": -2.6068531248,
				"z": -0.0658489421,
				"element": "C" 
			},
			{
				"x": -0.6892956841,
				"y": -2.7578123043,
				"z": -1.2139148061,
				"element": "C" 
			},
			{
				"x": -1.5021141366,
				"y": -3.8824254919,
				"z": -1.3421987408,
				"element": "C" 
			},
			{
				"x": -1.5610792415,
				"y": -4.8503836084,
				"z": -0.3345129187,
				"element": "C" 
			},
			{
				"x": -0.783201489,
				"y": -4.6880865303,
				"z": 0.8089900433,
				"element": "C" 
			},
			{
				"x": 0.0528954827,
				"y": -3.5798798182,
				"z": 0.9403557616,
				"element": "C" 
			},
			{
				"x": -2.3939959602,
				"y": -4.0239097283,
				"z": -2.5477432315,
				"element": "C" 
			},
			{
				"x": -3.6498786687,
				"y": -3.5864652427,
				"z": -2.2864912971,
				"element": "F" 
			},
			{
				"x": -1.942929043,
				"y": -3.3182609558,
				"z": -3.6045437926,
				"element": "F" 
			},
			{
				"x": -2.5070788908,
				"y": -5.3145642331,
				"z": -2.9353622167,
				"element": "F" 
			},
			{
				"x": 3.6351691531,
				"y": 5.22961677,
				"z": -0.2158277061,
				"element": "H" 
			},
			{
				"x": 4.4131047213,
				"y": 4.6331029829,
				"z": 1.2598604813,
				"element": "H" 
			},
			{
				"x": 2.6976643547,
				"y": 5.04532171,
				"z": 1.2695227253,
				"element": "H" 
			},
			{
				"x": 0.3875307529,
				"y": 3.7160206522,
				"z": -1.4434312736,
				"element": "H" 
			},
			{
				"x": 1.2426835239,
				"y": 4.8022124822,
				"z": -0.4891331087,
				"element": "H" 
			},
			{
				"x": 0.9221716683,
				"y": 1.3831353331,
				"z": -1.5935833774,
				"element": "H" 
			},
			{
				"x": 4.312161469,
				"y": -0.036538196,
				"z": 0.6389959193,
				"element": "H" 
			},
			{
				"x": 4.8153827827,
				"y": 2.3113729926,
				"z": 1.3277424338,
				"element": "H" 
			},
			{
				"x": 1.2838984773,
				"y": -1.3880112433,
				"z": 1.0541742517,
				"element": "H" 
			},
			{
				"x": -0.650474578,
				"y": -2.0123920282,
				"z": -1.9966357539,
				"element": "H" 
			},
			{
				"x": -2.2001540793,
				"y": -5.7184887967,
				"z": -0.4516603207,
				"element": "H" 
			},
			{
				"x": -0.812864897,
				"y": -5.4341103529,
				"z": 1.5970661927,
				"element": "H" 
			},
			{
				"x": 0.6751283687,
				"y": -3.469930601,
				"z": 1.8248223239,
				"element": "H" 
			}
		],
		 "valence_orbital": [ 
			{
				"type": "occ",
				"energy": -0.29714,
				"method": "rhf"
			},
			{
				"type": "occ",
				"energy": -0.26811,
				"method": "rhf"
			},
			{
				"type": "occ",
				"energy": -0.26585,
				"method": "rhf"
			},
			{
				"type": "occ",
				"energy": -0.23664,
				"method": "rhf"
			},
			{
				"type": "occ",
				"energy": -0.22356,
				"method": "rhf"
			},
			{
				"type": "unocc",
				"energy": -0.03914,
				"method": "rhf"
			},
			{
				"type": "unocc",
				"energy": -0.02528,
				"method": "rhf"
			},
			{
				"type": "unocc",
				"energy": -0.0158,
				"method": "rhf"
			},
			{
				"type": "unocc",
				"energy": -0.00734,
				"method": "rhf"
			},
			{
				"type": "unocc",
				"energy": 0.05728,
				"method": "rhf"
			}
		],
		"cosmo_sigma_profile": { 
			"-0.025": 0.0,
			"-0.024": 0.0,
			"-0.023": 0.0,
			"-0.022": 0.0,
			"-0.021": 0.0,
			"-0.02": 0.0,
			"-0.019": 0.0,
			"-0.018": 0.0,
			"-0.017": 0.0,
			"-0.016": 0.249259677114,
			"-0.015": 1.30987584886,
			"-0.014": 1.38323866869,
			"-0.013": 2.31736697686,
			"-0.012": 4.04779129454,
			"-0.011": 4.30518786089,
			"-0.01": 5.65535161845,
			"-0.009": 3.17630241706,
			"-0.008": 5.45878925243,
			"-0.007": 8.74424198728,
			"-0.006": 13.8711372208,
			"-0.005": 17.9699287478,
			"-0.004": 18.0330028347,
			"-0.003": 15.3271582588,
			"-0.002": 16.0831679917,
			"-0.001": 20.5686332553,
			"0.0": 21.8775256347,
			"0.001": 25.1217605564,
			"0.002": 40.0736727649,
			"0.003": 51.4299449357,
			"0.004": 17.5898741769,
			"0.005": 5.63171196405,
			"0.006": 4.87952165984,
			"0.007": 4.64936726452,
			"0.008": 4.98589485409,
			"0.009": 4.81206541352,
			"0.01": 8.46131209635,
			"0.011": 7.53211413233,
			"0.012": 1.64425170966,
			"0.013": 0.516405261035,
			"0.014": 0.0281374925996,
			"0.015": 0.0,
			"0.016": 0.0,
			"0.017": 0.0,
			"0.018": 0.0,
			"0.019": 0.0,
			"0.02": 0.0,
			"0.021": 0.0,
			"0.022": 0.0,
			"0.023": 0.0,
			"0.024": 0.0,
			"0.025": 0.0
		}
	}
}
