{
	 "smiles": "COC1=NC(=CC=C1)C#C", 
	 "Tm": 321.15, 
	 "num_atms": 17, 
	 "gaussian": { 
		 "optdone": 1, 
		 "sigma_profile": "yes", 
		 "theory": "DFT", 
		 "functional": "B3LYP", 
		 "basiset": "6-31G**", 
		 "properties": { 
			 "R2extent": 1980.9419, 
			 "electric_dipole_moment_norm": 0.66510102992, 
			 "electric_quadrupole_moment_norm": 6.52349176668, 
			 "total_energy": -438.964908417, 
			 "HOMO_LUMO_gap": 0.18427, 
			 "cosmo_polarized_energy": -7.4, 
			 "cosmo_cavitation_energy": 22.55, 
			 "cosmo_dispersion_energy": -16.03, 
			 "cosmo_repulsion_energy": 1.3, 
			 "cosmo_total_nonelectrostatic_energy": 7.82, 
			 "SMD_solvation_energy": 5.23 
		},
		"coords": [
			{
				"x": 0.274527,
				"y": 1.5505049994,
				"z": -3.7083449743,
				"element": "C" 
			},
			{
				"x": 0.8586082549,
				"y": 0.2517565525,
				"z": -3.5674598968,
				"element": "O" 
			},
			{
				"x": 0.7707919678,
				"y": -0.3336212609,
				"z": -2.3532733619,
				"element": "C" 
			},
			{
				"x": 0.160953618,
				"y": 0.305211108,
				"z": -1.3651192812,
				"element": "N" 
			},
			{
				"x": 0.0925273219,
				"y": -0.3129169831,
				"z": -0.16288602,
				"element": "C" 
			},
			{
				"x": 0.6337570507,
				"y": -1.5812660432,
				"z": 0.0697162534,
				"element": "C" 
			},
			{
				"x": 1.2720159036,
				"y": -2.2321960928,
				"z": -0.9923700922,
				"element": "C" 
			},
			{
				"x": 1.3499942242,
				"y": -1.6126306172,
				"z": -2.2281190095,
				"element": "C" 
			},
			{
				"x": -0.5711166404,
				"y": 0.3931213455,
				"z": 0.8953953805,
				"element": "C" 
			},
			{
				"x": -1.1251218706,
				"y": 0.9658856822,
				"z": 1.8049837856,
				"element": "C" 
			},
			{
				"x": -0.7986778298,
				"y": 1.5251891402,
				"z": -3.4990796433,
				"element": "H" 
			},
			{
				"x": 0.742336406,
				"y": 2.2691918577,
				"z": -3.0294824441,
				"element": "H" 
			},
			{
				"x": 0.4531291935,
				"y": 1.8355519459,
				"z": -4.7459843173,
				"element": "H" 
			},
			{
				"x": 0.5535902453,
				"y": -2.0350877962,
				"z": 1.0503646465,
				"element": "H" 
			},
			{
				"x": 1.7038997966,
				"y": -3.2182008308,
				"z": -0.8479955256,
				"element": "H" 
			},
			{
				"x": 1.8322144936,
				"y": -2.0707912959,
				"z": -3.0837522663,
				"element": "H" 
			},
			{
				"x": -1.6157291352,
				"y": 1.4808982886,
				"z": 2.5981067668,
				"element": "H" 
			}
		],
		 "valence_orbital": [ 
			{
				"type": "occ",
				"energy": -0.30224,
				"method": "rhf"
			},
			{
				"type": "occ",
				"energy": -0.27693,
				"method": "rhf"
			},
			{
				"type": "occ",
				"energy": -0.27064,
				"method": "rhf"
			},
			{
				"type": "occ",
				"energy": -0.27033,
				"method": "rhf"
			},
			{
				"type": "occ",
				"energy": -0.22601,
				"method": "rhf"
			},
			{
				"type": "unocc",
				"energy": -0.04174,
				"method": "rhf"
			},
			{
				"type": "unocc",
				"energy": -0.00483,
				"method": "rhf"
			},
			{
				"type": "unocc",
				"energy": 0.05136,
				"method": "rhf"
			},
			{
				"type": "unocc",
				"energy": 0.09092,
				"method": "rhf"
			},
			{
				"type": "unocc",
				"energy": 0.10075,
				"method": "rhf"
			}
		],
		"cosmo_sigma_profile": { 
			"-0.025": 0.0,
			"-0.024": 0.0,
			"-0.023": 0.0,
			"-0.022": 0.0,
			"-0.021": 0.0,
			"-0.02": 0.0,
			"-0.019": 0.0,
			"-0.018": 0.0,
			"-0.017": 0.0,
			"-0.016": 0.0,
			"-0.015": 0.0,
			"-0.014": 0.0,
			"-0.013": 0.0122263740359,
			"-0.012": 1.1675685247,
			"-0.011": 1.36409728632,
			"-0.01": 1.3605588303,
			"-0.009": 0.611659516828,
			"-0.008": 2.48607187205,
			"-0.007": 5.98404759981,
			"-0.006": 9.19338775781,
			"-0.005": 12.3574196185,
			"-0.004": 11.895413257,
			"-0.003": 14.6705704156,
			"-0.002": 9.93683108717,
			"-0.001": 9.02802879377,
			"0.0": 12.5968546451,
			"0.001": 18.5105930392,
			"0.002": 18.2699398118,
			"0.003": 11.3087726088,
			"0.004": 8.26352323859,
			"0.005": 10.6969924635,
			"0.006": 7.82179581888,
			"0.007": 4.82463164654,
			"0.008": 3.09322596433,
			"0.009": 2.54206843725,
			"0.01": 2.58452712406,
			"0.011": 0.7890540517,
			"0.012": 0.578033912157,
			"0.013": 0.183521823215,
			"0.014": 0.0,
			"0.015": 0.0,
			"0.016": 0.0,
			"0.017": 0.0,
			"0.018": 0.0,
			"0.019": 0.0,
			"0.02": 0.0,
			"0.021": 0.0,
			"0.022": 0.0,
			"0.023": 0.0,
			"0.024": 0.0,
			"0.025": 0.0
		}
	}
}
