{
	 "smiles": "COC1=CC(F)=CC=C1C#N", 
	 "Tm": 349.15, 
	 "num_atms": 17, 
	 "gaussian": { 
		 "optdone": 1, 
		 "sigma_profile": "yes", 
		 "theory": "DFT", 
		 "functional": "B3LYP", 
		 "basiset": "6-31G**", 
		 "properties": { 
			 "R2extent": 1839.63, 
			 "electric_dipole_moment_norm": 4.32870653313, 
			 "electric_quadrupole_moment_norm": 21.0308152557, 
			 "total_energy": -538.246610739, 
			 "HOMO_LUMO_gap": 0.19774, 
			 "cosmo_polarized_energy": -11.16, 
			 "cosmo_cavitation_energy": 23.02, 
			 "cosmo_dispersion_energy": -16.22, 
			 "cosmo_repulsion_energy": 1.29, 
			 "cosmo_total_nonelectrostatic_energy": 8.09, 
			 "SMD_solvation_energy": 6.72 
		},
		"coords": [
			{
				"x": 1.3820936965,
				"y": 2.3727923088,
				"z": 1.3516330536,
				"element": "C" 
			},
			{
				"x": 0.3512483215,
				"y": 1.4002780128,
				"z": 1.487703999,
				"element": "O" 
			},
			{
				"x": -0.0417152762,
				"y": 0.7097098389,
				"z": 0.396358221,
				"element": "C" 
			},
			{
				"x": 0.496578487,
				"y": 0.8794937947,
				"z": -0.8828807636,
				"element": "C" 
			},
			{
				"x": 0.0010478188,
				"y": 0.1020675592,
				"z": -1.9252258875,
				"element": "C" 
			},
			{
				"x": 0.5308827283,
				"y": 0.2792337386,
				"z": -3.1485818129,
				"element": "F" 
			},
			{
				"x": -1.0072951363,
				"y": -0.8397807345,
				"z": -1.7583440359,
				"element": "C" 
			},
			{
				"x": -1.5377765196,
				"y": -1.0028038389,
				"z": -0.4823448865,
				"element": "C" 
			},
			{
				"x": -1.0718595319,
				"y": -0.2430075558,
				"z": 0.600637934,
				"element": "C" 
			},
			{
				"x": -1.6314552103,
				"y": -0.4270497815,
				"z": 1.9034672997,
				"element": "C" 
			},
			{
				"x": -2.1063252532,
				"y": -0.5992834636,
				"z": 2.9515825242,
				"element": "N" 
			},
			{
				"x": 1.5249849144,
				"y": 2.7915981668,
				"z": 2.3476578028,
				"element": "H" 
			},
			{
				"x": 1.0890239969,
				"y": 3.1706166119,
				"z": 0.6588669762,
				"element": "H" 
			},
			{
				"x": 2.3186712957,
				"y": 1.9163302019,
				"z": 1.0098615488,
				"element": "H" 
			},
			{
				"x": 1.2831546595,
				"y": 1.5925865654,
				"z": -1.0901280103,
				"element": "H" 
			},
			{
				"x": -1.3565029011,
				"y": -1.418907136,
				"z": -2.6045277892,
				"element": "H" 
			},
			{
				"x": -2.3261560901,
				"y": -1.7271742887,
				"z": -0.3089361735,
				"element": "H" 
			}
		],
		 "valence_orbital": [ 
			{
				"type": "occ",
				"energy": -0.3506,
				"method": "rhf"
			},
			{
				"type": "occ",
				"energy": -0.33447,
				"method": "rhf"
			},
			{
				"type": "occ",
				"energy": -0.32451,
				"method": "rhf"
			},
			{
				"type": "occ",
				"energy": -0.26984,
				"method": "rhf"
			},
			{
				"type": "occ",
				"energy": -0.24382,
				"method": "rhf"
			},
			{
				"type": "unocc",
				"energy": -0.04608,
				"method": "rhf"
			},
			{
				"type": "unocc",
				"energy": -0.01911,
				"method": "rhf"
			},
			{
				"type": "unocc",
				"energy": 0.03833,
				"method": "rhf"
			},
			{
				"type": "unocc",
				"energy": 0.07212,
				"method": "rhf"
			},
			{
				"type": "unocc",
				"energy": 0.0812,
				"method": "rhf"
			}
		],
		"cosmo_sigma_profile": { 
			"-0.025": 0.0,
			"-0.024": 0.0,
			"-0.023": 0.0,
			"-0.022": 0.0,
			"-0.021": 0.0,
			"-0.02": 0.0,
			"-0.019": 0.0,
			"-0.018": 0.0,
			"-0.017": 0.0,
			"-0.016": 0.0,
			"-0.015": 0.0,
			"-0.014": 0.0,
			"-0.013": 0.0,
			"-0.012": 0.0,
			"-0.011": 0.0,
			"-0.01": 0.0,
			"-0.009": 1.32653595928,
			"-0.008": 6.53387896766,
			"-0.007": 9.82323167508,
			"-0.006": 13.5271770415,
			"-0.005": 12.2664487839,
			"-0.004": 11.9610250317,
			"-0.003": 9.04130006084,
			"-0.002": 8.49471413484,
			"-0.001": 14.6303644369,
			"0.0": 20.1511926899,
			"0.001": 16.442721497,
			"0.002": 9.48353162107,
			"0.003": 11.195913074,
			"0.004": 8.63673815977,
			"0.005": 3.59384113217,
			"0.006": 3.38094309169,
			"0.007": 5.25866139991,
			"0.008": 5.7082450209,
			"0.009": 3.53364084371,
			"0.01": 3.43721699862,
			"0.011": 2.93978091872,
			"0.012": 2.47350806335,
			"0.013": 1.92950913389,
			"0.014": 0.204818775623,
			"0.015": 0.0,
			"0.016": 0.0,
			"0.017": 0.0,
			"0.018": 0.0,
			"0.019": 0.0,
			"0.02": 0.0,
			"0.021": 0.0,
			"0.022": 0.0,
			"0.023": 0.0,
			"0.024": 0.0,
			"0.025": 0.0
		}
	}
}
