{
	 "smiles": "CC(=O)NCC1=CC=C(O1)C(=O)CCl", 
	 "Tm": 399.15, 
	 "num_atms": 24, 
	 "gaussian": { 
		 "optdone": 1, 
		 "sigma_profile": "yes", 
		 "theory": "DFT", 
		 "functional": "B3LYP", 
		 "basiset": "6-31G**", 
		 "properties": { 
			 "R2extent": 4882.5982, 
			 "electric_dipole_moment_norm": 3.1173591147, 
			 "electric_quadrupole_moment_norm": 19.7637926813, 
			 "total_energy": -1089.59400835, 
			 "HOMO_LUMO_gap": 0.16984, 
			 "cosmo_polarized_energy": -16.94, 
			 "cosmo_cavitation_energy": 31.55, 
			 "cosmo_dispersion_energy": -21.67, 
			 "cosmo_repulsion_energy": 1.77, 
			 "cosmo_total_nonelectrostatic_energy": 11.65, 
			 "SMD_solvation_energy": 6.33 
		},
		"coords": [
			{
				"x": 4.0722401135,
				"y": -1.0604776932,
				"z": -0.2493820417,
				"element": "C" 
			},
			{
				"x": 2.8551747654,
				"y": -0.2845280549,
				"z": -0.7230535216,
				"element": "C" 
			},
			{
				"x": 2.9399395836,
				"y": 0.8271135471,
				"z": -1.2299921094,
				"element": "O" 
			},
			{
				"x": 1.6474320179,
				"y": -0.9164067807,
				"z": -0.5532247798,
				"element": "N" 
			},
			{
				"x": 0.4037560693,
				"y": -0.2072954358,
				"z": -0.8406360744,
				"element": "C" 
			},
			{
				"x": -0.0843640989,
				"y": 0.6252494401,
				"z": 0.3033159003,
				"element": "C" 
			},
			{
				"x": 0.1541127354,
				"y": 1.9223725556,
				"z": 0.682855075,
				"element": "C" 
			},
			{
				"x": -0.5381976781,
				"y": 2.1176416845,
				"z": 1.9071963062,
				"element": "C" 
			},
			{
				"x": -1.1536074599,
				"y": 0.9253969579,
				"z": 2.2044125001,
				"element": "C" 
			},
			{
				"x": -0.8782215593,
				"y": 0.007333029,
				"z": 1.2190794568,
				"element": "O" 
			},
			{
				"x": -2.0012925814,
				"y": 0.5312190208,
				"z": 3.3239383171,
				"element": "C" 
			},
			{
				"x": -2.3295078165,
				"y": 1.3296307629,
				"z": 4.1894944585,
				"element": "O" 
			},
			{
				"x": -2.4872699373,
				"y": -0.9177102339,
				"z": 3.3805716378,
				"element": "C" 
			},
			{
				"x": -1.1404890369,
				"y": -2.0341603812,
				"z": 3.8719493753,
				"element": "Cl" 
			},
			{
				"x": 4.8446540127,
				"y": -1.0007452709,
				"z": -1.0190409055,
				"element": "H" 
			},
			{
				"x": 4.4685712444,
				"y": -0.5818095858,
				"z": 0.6517033103,
				"element": "H" 
			},
			{
				"x": 3.8629135375,
				"y": -2.1103778573,
				"z": -0.0273847351,
				"element": "H" 
			},
			{
				"x": 1.6015200661,
				"y": -1.7472520868,
				"z": 0.0183473409,
				"element": "H" 
			},
			{
				"x": 0.6021362791,
				"y": 0.4438360962,
				"z": -1.6936030098,
				"element": "H" 
			},
			{
				"x": -0.3621407926,
				"y": -0.936151321,
				"z": -1.1208166513,
				"element": "H" 
			},
			{
				"x": 0.7687538855,
				"y": 2.6279690676,
				"z": 0.1434921708,
				"element": "H" 
			},
			{
				"x": -0.589971715,
				"y": 3.0115435694,
				"z": 2.5111647901,
				"element": "H" 
			},
			{
				"x": -3.2627546721,
				"y": -0.9913035144,
				"z": 4.1408447204,
				"element": "H" 
			},
			{
				"x": -2.8474869625,
				"y": -1.2693875155,
				"z": 2.4129684691,
				"element": "H" 
			}
		],
		 "valence_orbital": [ 
			{
				"type": "occ",
				"energy": -0.29818,
				"method": "rhf"
			},
			{
				"type": "occ",
				"energy": -0.27391,
				"method": "rhf"
			},
			{
				"type": "occ",
				"energy": -0.26286,
				"method": "rhf"
			},
			{
				"type": "occ",
				"energy": -0.25671,
				"method": "rhf"
			},
			{
				"type": "occ",
				"energy": -0.2428,
				"method": "rhf"
			},
			{
				"type": "unocc",
				"energy": -0.07296,
				"method": "rhf"
			},
			{
				"type": "unocc",
				"energy": 0.00107,
				"method": "rhf"
			},
			{
				"type": "unocc",
				"energy": 0.01911,
				"method": "rhf"
			},
			{
				"type": "unocc",
				"energy": 0.03733,
				"method": "rhf"
			},
			{
				"type": "unocc",
				"energy": 0.06959,
				"method": "rhf"
			}
		],
		"cosmo_sigma_profile": { 
			"-0.025": 0.0,
			"-0.024": 0.0,
			"-0.023": 0.0,
			"-0.022": 0.0,
			"-0.021": 0.0,
			"-0.02": 0.0,
			"-0.019": 0.0,
			"-0.018": 0.0,
			"-0.017": 0.0,
			"-0.016": 0.0,
			"-0.015": 0.256147918797,
			"-0.014": 1.48860587044,
			"-0.013": 1.0180264483,
			"-0.012": 1.36728919706,
			"-0.011": 1.4685923095,
			"-0.01": 1.23899148852,
			"-0.009": 3.06145415041,
			"-0.008": 8.60913895077,
			"-0.007": 11.334022832,
			"-0.006": 13.8692369382,
			"-0.005": 15.6951955651,
			"-0.004": 16.9306199418,
			"-0.003": 15.5194444607,
			"-0.002": 16.3959827074,
			"-0.001": 17.3383220836,
			"0.0": 17.4756474132,
			"0.001": 16.7409667749,
			"0.002": 15.8954707782,
			"0.003": 13.2287330383,
			"0.004": 11.3564342378,
			"0.005": 13.5648179745,
			"0.006": 8.60443002836,
			"0.007": 2.99045664348,
			"0.008": 2.33464293116,
			"0.009": 3.55510971133,
			"0.01": 3.6806877814,
			"0.011": 6.27634792333,
			"0.012": 4.2136074528,
			"0.013": 3.08455270469,
			"0.014": 3.27631479762,
			"0.015": 1.19855587296,
			"0.016": 0.00676758432114,
			"0.017": 0.0,
			"0.018": 0.0,
			"0.019": 0.0,
			"0.02": 0.0,
			"0.021": 0.0,
			"0.022": 0.0,
			"0.023": 0.0,
			"0.024": 0.0,
			"0.025": 0.0
		}
	}
}
