{
	 "smiles": "FC(F)(F)C1=NC2=C(C=CC=C2Cl)C(Cl)=C1", 
	 "Tm": 335.15, 
	 "num_atms": 20, 
	 "gaussian": { 
		 "optdone": 1, 
		 "sigma_profile": "yes", 
		 "theory": "DFT", 
		 "functional": "B3LYP", 
		 "basiset": "6-31G**", 
		 "properties": { 
			 "R2extent": 4785.4866, 
			 "electric_dipole_moment_norm": 4.02932394578, 
			 "electric_quadrupole_moment_norm": 6.81531778203, 
			 "total_energy": -1658.13842851, 
			 "HOMO_LUMO_gap": 0.16144, 
			 "cosmo_polarized_energy": -7.42, 
			 "cosmo_cavitation_energy": 29.87, 
			 "cosmo_dispersion_energy": -21.6, 
			 "cosmo_repulsion_energy": 1.61, 
			 "cosmo_total_nonelectrostatic_energy": 9.88, 
			 "SMD_solvation_energy": 4.52 
		},
		"coords": [
			{
				"x": 1.4128229604,
				"y": -3.306382963,
				"z": 0.3256761696,
				"element": "F" 
			},
			{
				"x": 0.2634219524,
				"y": -3.2282176027,
				"z": -0.3661485079,
				"element": "C" 
			},
			{
				"x": 0.4761045753,
				"y": -3.7878192684,
				"z": -1.5799741034,
				"element": "F" 
			},
			{
				"x": -0.6534369147,
				"y": -3.9750587271,
				"z": 0.2719771981,
				"element": "F" 
			},
			{
				"x": -0.1997449323,
				"y": -1.7859297617,
				"z": -0.5020736266,
				"element": "C" 
			},
			{
				"x": -0.4362644774,
				"y": -1.1656186567,
				"z": 0.6315657531,
				"element": "N" 
			},
			{
				"x": -0.8515363865,
				"y": 0.1217319307,
				"z": 0.5820859943,
				"element": "C" 
			},
			{
				"x": -1.0439242849,
				"y": 0.8361677541,
				"z": -0.6526947167,
				"element": "C" 
			},
			{
				"x": -1.4810965028,
				"y": 2.184461662,
				"z": -0.6313381269,
				"element": "C" 
			},
			{
				"x": -1.721483576,
				"y": 2.8099990558,
				"z": 0.5697183513,
				"element": "C" 
			},
			{
				"x": -1.5396652683,
				"y": 2.1288903446,
				"z": 1.7950455543,
				"element": "C" 
			},
			{
				"x": -1.1159636183,
				"y": 0.8193979119,
				"z": 1.8030071,
				"element": "C" 
			},
			{
				"x": -0.8970984789,
				"y": -0.0049485284,
				"z": 3.3227037164,
				"element": "Cl" 
			},
			{
				"x": -0.768713826,
				"y": 0.1016243143,
				"z": -1.8399373743,
				"element": "C" 
			},
			{
				"x": -0.9633668113,
				"y": 0.8553390025,
				"z": -3.4064827041,
				"element": "Cl" 
			},
			{
				"x": -0.3473092263,
				"y": -1.2057674472,
				"z": -1.7810540586,
				"element": "C" 
			},
			{
				"x": -1.6219686516,
				"y": 2.7107696655,
				"z": -1.5676403738,
				"element": "H" 
			},
			{
				"x": -2.05623505,
				"y": 3.8424080048,
				"z": 0.5864032555,
				"element": "H" 
			},
			{
				"x": -1.7329022571,
				"y": 2.6339857094,
				"z": 2.7347683017,
				"element": "H" 
			},
			{
				"x": -0.1355392255,
				"y": -1.7730324006,
				"z": -2.677207802,
				"element": "H" 
			}
		],
		 "valence_orbital": [ 
			{
				"type": "occ",
				"energy": -0.31935,
				"method": "rhf"
			},
			{
				"type": "occ",
				"energy": -0.29986,
				"method": "rhf"
			},
			{
				"type": "occ",
				"energy": -0.28591,
				"method": "rhf"
			},
			{
				"type": "occ",
				"energy": -0.28445,
				"method": "rhf"
			},
			{
				"type": "occ",
				"energy": -0.24918,
				"method": "rhf"
			},
			{
				"type": "unocc",
				"energy": -0.08774,
				"method": "rhf"
			},
			{
				"type": "unocc",
				"energy": -0.05129,
				"method": "rhf"
			},
			{
				"type": "unocc",
				"energy": -0.00667,
				"method": "rhf"
			},
			{
				"type": "unocc",
				"energy": 0.00364,
				"method": "rhf"
			},
			{
				"type": "unocc",
				"energy": 0.03102,
				"method": "rhf"
			}
		],
		"cosmo_sigma_profile": { 
			"-0.025": 0.0,
			"-0.024": 0.0,
			"-0.023": 0.0,
			"-0.022": 0.0,
			"-0.021": 0.0,
			"-0.02": 0.0,
			"-0.019": 0.0,
			"-0.018": 0.0,
			"-0.017": 0.0,
			"-0.016": 0.0,
			"-0.015": 0.0,
			"-0.014": 0.0,
			"-0.013": 0.0,
			"-0.012": 0.0,
			"-0.011": 0.0,
			"-0.01": 0.00102510377642,
			"-0.009": 0.911973622235,
			"-0.008": 4.2501774616,
			"-0.007": 7.91404040213,
			"-0.006": 7.94856141251,
			"-0.005": 8.23296672332,
			"-0.004": 11.1431941223,
			"-0.003": 13.6213426935,
			"-0.002": 22.8046718192,
			"-0.001": 26.1645247049,
			"0.0": 22.9651234781,
			"0.001": 26.6556617356,
			"0.002": 38.9817890267,
			"0.003": 29.1700788988,
			"0.004": 10.495375783,
			"0.005": 4.69481123406,
			"0.006": 2.72178377393,
			"0.007": 2.02824395506,
			"0.008": 1.47569574431,
			"0.009": 1.12335137994,
			"0.01": 1.48076042345,
			"0.011": 1.09636728447,
			"0.012": 0.525262051521,
			"0.013": 0.0206147147535,
			"0.014": 0.0,
			"0.015": 0.0,
			"0.016": 0.0,
			"0.017": 0.0,
			"0.018": 0.0,
			"0.019": 0.0,
			"0.02": 0.0,
			"0.021": 0.0,
			"0.022": 0.0,
			"0.023": 0.0,
			"0.024": 0.0,
			"0.025": 0.0
		}
	}
}
