{
	 "smiles": "CC(C)CNCC(O)C1=CC=C(F)C=C1", 
	 "Tm": 330.15, 
	 "num_atms": 33, 
	 "gaussian": { 
		 "optdone": 1, 
		 "sigma_profile": "yes", 
		 "theory": "DFT", 
		 "functional": "B3LYP", 
		 "basiset": "6-31G**", 
		 "properties": { 
			 "R2extent": 4044.9073, 
			 "electric_dipole_moment_norm": 1.01975935397, 
			 "electric_quadrupole_moment_norm": 6.00654747089, 
			 "total_energy": -697.93153207, 
			 "HOMO_LUMO_gap": 0.20755, 
			 "cosmo_polarized_energy": -8.68, 
			 "cosmo_cavitation_energy": 35.26, 
			 "cosmo_dispersion_energy": -23.61, 
			 "cosmo_repulsion_energy": 1.85, 
			 "cosmo_total_nonelectrostatic_energy": 13.5, 
			 "SMD_solvation_energy": 5.15 
		},
		"coords": [
			{
				"x": 3.8381624997,
				"y": -0.8870812271,
				"z": -2.0756468785,
				"element": "C" 
			},
			{
				"x": 2.5099710714,
				"y": -0.1124749955,
				"z": -2.0472615874,
				"element": "C" 
			},
			{
				"x": 1.3901825893,
				"y": -0.9012715756,
				"z": -2.7410439494,
				"element": "C" 
			},
			{
				"x": 2.1175077051,
				"y": 0.321729812,
				"z": -0.6225053098,
				"element": "C" 
			},
			{
				"x": 1.8535381461,
				"y": -0.8136945224,
				"z": 0.26547104,
				"element": "N" 
			},
			{
				"x": 1.4537288444,
				"y": -0.4536779188,
				"z": 1.6260675592,
				"element": "C" 
			},
			{
				"x": -0.0560757826,
				"y": -0.6389351981,
				"z": 1.8794129052,
				"element": "C" 
			},
			{
				"x": -0.2207570142,
				"y": -0.4006659709,
				"z": 3.2781896105,
				"element": "O" 
			},
			{
				"x": -0.9416832518,
				"y": 0.2694051856,
				"z": 1.0447937556,
				"element": "C" 
			},
			{
				"x": -1.5173719349,
				"y": -0.185857742,
				"z": -0.1482732994,
				"element": "C" 
			},
			{
				"x": -2.3140218272,
				"y": 0.652630229,
				"z": -0.9293179838,
				"element": "C" 
			},
			{
				"x": -2.5351147655,
				"y": 1.9549944065,
				"z": -0.4957946114,
				"element": "C" 
			},
			{
				"x": -3.3107143846,
				"y": 2.7715918713,
				"z": -1.2412339507,
				"element": "F" 
			},
			{
				"x": -1.9878721297,
				"y": 2.4387171432,
				"z": 0.6877097448,
				"element": "C" 
			},
			{
				"x": -1.191110828,
				"y": 1.5876946512,
				"z": 1.4531173843,
				"element": "C" 
			},
			{
				"x": 4.1602548933,
				"y": -1.0699610079,
				"z": -3.106212381,
				"element": "H" 
			},
			{
				"x": 3.7464293142,
				"y": -1.8682908921,
				"z": -1.5940937699,
				"element": "H" 
			},
			{
				"x": 4.6380909319,
				"y": -0.3339704523,
				"z": -1.5699199161,
				"element": "H" 
			},
			{
				"x": 2.6655865655,
				"y": 0.8210788704,
				"z": -2.6069560111,
				"element": "H" 
			},
			{
				"x": 1.176434865,
				"y": -1.8268934269,
				"z": -2.1983703059,
				"element": "H" 
			},
			{
				"x": 1.6702505633,
				"y": -1.1609128034,
				"z": -3.7679246457,
				"element": "H" 
			},
			{
				"x": 0.4640457696,
				"y": -0.3181636261,
				"z": -2.7804222472,
				"element": "H" 
			},
			{
				"x": 2.909395667,
				"y": 0.984811145,
				"z": -0.2225153011,
				"element": "H" 
			},
			{
				"x": 1.2056748776,
				"y": 0.9257714437,
				"z": -0.6759819093,
				"element": "H" 
			},
			{
				"x": 2.6823297128,
				"y": -1.3959418955,
				"z": 0.3094082588,
				"element": "H" 
			},
			{
				"x": 1.7265254694,
				"y": 0.581202033,
				"z": 1.8868030637,
				"element": "H" 
			},
			{
				"x": 1.9635172281,
				"y": -1.1026759917,
				"z": 2.3466448114,
				"element": "H" 
			},
			{
				"x": -0.2978653602,
				"y": -1.6839131835,
				"z": 1.6307849239,
				"element": "H" 
			},
			{
				"x": -1.1646579314,
				"y": -0.4584445714,
				"z": 3.4761560651,
				"element": "H" 
			},
			{
				"x": -1.3341781248,
				"y": -1.2056706715,
				"z": -0.4734373227,
				"element": "H" 
			},
			{
				"x": -2.7680432148,
				"y": 0.3109356814,
				"z": -1.8534008842,
				"element": "H" 
			},
			{
				"x": -2.1909749849,
				"y": 3.459630955,
				"z": 0.9934611127,
				"element": "H" 
			},
			{
				"x": -0.7613851792,
				"y": 1.9398042454,
				"z": 2.3858920295,
				"element": "H" 
			}
		],
		 "valence_orbital": [ 
			{
				"type": "occ",
				"energy": -0.31346,
				"method": "rhf"
			},
			{
				"type": "occ",
				"energy": -0.27647,
				"method": "rhf"
			},
			{
				"type": "occ",
				"energy": -0.25869,
				"method": "rhf"
			},
			{
				"type": "occ",
				"energy": -0.23723,
				"method": "rhf"
			},
			{
				"type": "occ",
				"energy": -0.21819,
				"method": "rhf"
			},
			{
				"type": "unocc",
				"energy": -0.01064,
				"method": "rhf"
			},
			{
				"type": "unocc",
				"energy": -0.00182,
				"method": "rhf"
			},
			{
				"type": "unocc",
				"energy": 0.07584,
				"method": "rhf"
			},
			{
				"type": "unocc",
				"energy": 0.087,
				"method": "rhf"
			},
			{
				"type": "unocc",
				"energy": 0.09564,
				"method": "rhf"
			}
		],
		"cosmo_sigma_profile": { 
			"-0.025": 0.0,
			"-0.024": 0.0,
			"-0.023": 0.0,
			"-0.022": 0.0,
			"-0.021": 0.0,
			"-0.02": 0.0,
			"-0.019": 0.0,
			"-0.018": 0.0,
			"-0.017": 0.0,
			"-0.016": 0.140576369033,
			"-0.015": 0.689946596588,
			"-0.014": 0.7098752172,
			"-0.013": 0.921125299281,
			"-0.012": 0.956037989723,
			"-0.011": 0.874483847232,
			"-0.01": 0.951142655398,
			"-0.009": 1.36591087161,
			"-0.008": 1.95492539236,
			"-0.007": 4.67862536528,
			"-0.006": 7.25394231872,
			"-0.005": 9.34530719234,
			"-0.004": 14.1778059771,
			"-0.003": 14.8242149286,
			"-0.002": 25.7961276758,
			"-0.001": 37.1391199445,
			"0.0": 35.2456750262,
			"0.001": 33.8768940025,
			"0.002": 26.1842698444,
			"0.003": 15.4360814955,
			"0.004": 15.9599080291,
			"0.005": 9.13687585136,
			"0.006": 2.45389939659,
			"0.007": 2.06761647312,
			"0.008": 2.59887632599,
			"0.009": 1.711746858,
			"0.01": 2.39276380384,
			"0.011": 1.67033671338,
			"0.012": 1.34799834344,
			"0.013": 1.90567424472,
			"0.014": 1.07719130812,
			"0.015": 0.0,
			"0.016": 0.0,
			"0.017": 0.0,
			"0.018": 0.0,
			"0.019": 0.0,
			"0.02": 0.0,
			"0.021": 0.0,
			"0.022": 0.0,
			"0.023": 0.0,
			"0.024": 0.0,
			"0.025": 0.0
		}
	}
}
