{
	 "smiles": "OC1=CC=C(C=C1)C1=NN=CO1", 
	 "Tm": 484.15, 
	 "num_atms": 18, 
	 "gaussian": { 
		 "optdone": 1, 
		 "sigma_profile": "yes", 
		 "theory": "DFT", 
		 "functional": "B3LYP", 
		 "basiset": "6-31G**", 
		 "properties": { 
			 "R2extent": 3458.4291, 
			 "electric_dipole_moment_norm": 4.92335883011, 
			 "electric_quadrupole_moment_norm": 16.9063039612, 
			 "total_energy": -568.380503424, 
			 "HOMO_LUMO_gap": 0.1825, 
			 "cosmo_polarized_energy": -15.51, 
			 "cosmo_cavitation_energy": 23.34, 
			 "cosmo_dispersion_energy": -17.54, 
			 "cosmo_repulsion_energy": 1.37, 
			 "cosmo_total_nonelectrostatic_energy": 7.17, 
			 "SMD_solvation_energy": 3.67 
		},
		"coords": [
			{
				"x": 0.4294529432,
				"y": 1.2443343147,
				"z": 2.3524278382,
				"element": "O" 
			},
			{
				"x": -0.2012720004,
				"y": 0.5041806763,
				"z": 1.4004057013,
				"element": "C" 
			},
			{
				"x": -1.5128600127,
				"y": 0.8711431652,
				"z": 1.0649280943,
				"element": "C" 
			},
			{
				"x": -2.2056355421,
				"y": 0.1541664643,
				"z": 0.10203498,
				"element": "C" 
			},
			{
				"x": -1.6051963916,
				"y": -0.9418652512,
				"z": -0.5449237742,
				"element": "C" 
			},
			{
				"x": -0.2937970049,
				"y": -1.3019529863,
				"z": -0.203667208,
				"element": "C" 
			},
			{
				"x": 0.405073654,
				"y": -0.5848932813,
				"z": 0.7623352716,
				"element": "C" 
			},
			{
				"x": -2.3568418258,
				"y": -1.6759834962,
				"z": -1.551634767,
				"element": "C" 
			},
			{
				"x": -3.5709875866,
				"y": -1.4661299651,
				"z": -1.9745538627,
				"element": "N" 
			},
			{
				"x": -3.8317850547,
				"y": -2.4383047464,
				"z": -2.9422727219,
				"element": "N" 
			},
			{
				"x": -2.7602505207,
				"y": -3.1528653356,
				"z": -3.0250733911,
				"element": "C" 
			},
			{
				"x": -1.7744069585,
				"y": -2.7437304717,
				"z": -2.1824965134,
				"element": "O" 
			},
			{
				"x": 1.3195869804,
				"y": 0.8960828404,
				"z": 2.4944322444,
				"element": "H" 
			},
			{
				"x": -1.9647526931,
				"y": 1.7176989086,
				"z": 1.5705415154,
				"element": "H" 
			},
			{
				"x": -3.2203219028,
				"y": 0.4294854674,
				"z": -0.1648652655,
				"element": "H" 
			},
			{
				"x": 0.1794556705,
				"y": -2.1449971993,
				"z": -0.6956727732,
				"element": "H" 
			},
			{
				"x": 1.4221374812,
				"y": -0.8703916166,
				"z": 1.0216645631,
				"element": "H" 
			},
			{
				"x": -2.5637992355,
				"y": -4.0028774872,
				"z": -3.6600099314,
				"element": "H" 
			}
		],
		 "valence_orbital": [ 
			{
				"type": "occ",
				"energy": -0.32042,
				"method": "rhf"
			},
			{
				"type": "occ",
				"energy": -0.29285,
				"method": "rhf"
			},
			{
				"type": "occ",
				"energy": -0.27562,
				"method": "rhf"
			},
			{
				"type": "occ",
				"energy": -0.26839,
				"method": "rhf"
			},
			{
				"type": "occ",
				"energy": -0.22603,
				"method": "rhf"
			},
			{
				"type": "unocc",
				"energy": -0.04353,
				"method": "rhf"
			},
			{
				"type": "unocc",
				"energy": -0.01704,
				"method": "rhf"
			},
			{
				"type": "unocc",
				"energy": 0.0147,
				"method": "rhf"
			},
			{
				"type": "unocc",
				"energy": 0.05802,
				"method": "rhf"
			},
			{
				"type": "unocc",
				"energy": 0.06481,
				"method": "rhf"
			}
		],
		"cosmo_sigma_profile": { 
			"-0.025": 0.0,
			"-0.024": 0.0,
			"-0.023": 0.0,
			"-0.022": 0.0,
			"-0.021": 0.0,
			"-0.02": 0.0,
			"-0.019": 0.201296503211,
			"-0.018": 1.13971562175,
			"-0.017": 0.889984019762,
			"-0.016": 1.2083366131,
			"-0.015": 1.18769745821,
			"-0.014": 0.848903466822,
			"-0.013": 0.610587366979,
			"-0.012": 3.41804654801,
			"-0.011": 2.89661973755,
			"-0.01": 2.82290351236,
			"-0.009": 2.45236957251,
			"-0.008": 2.38079458241,
			"-0.007": 5.56236736186,
			"-0.006": 8.66363961066,
			"-0.005": 8.41549705681,
			"-0.004": 9.77494165592,
			"-0.003": 10.1439130868,
			"-0.002": 11.6953750166,
			"-0.001": 11.4720683556,
			"0.0": 9.78914996158,
			"0.001": 14.2413657382,
			"0.002": 14.5018166228,
			"0.003": 18.6329114833,
			"0.004": 9.98813763483,
			"0.005": 3.31115538287,
			"0.006": 4.3092944038,
			"0.007": 2.8977873888,
			"0.008": 3.23660960138,
			"0.009": 3.81510455416,
			"0.01": 4.75534071115,
			"0.011": 4.05699993603,
			"0.012": 3.42824745837,
			"0.013": 2.4434115988,
			"0.014": 2.22611475542,
			"0.015": 0.977627274592,
			"0.016": 0.0,
			"0.017": 0.0,
			"0.018": 0.0,
			"0.019": 0.0,
			"0.02": 0.0,
			"0.021": 0.0,
			"0.022": 0.0,
			"0.023": 0.0,
			"0.024": 0.0,
			"0.025": 0.0
		}
	}
}
