{
	 "smiles": "OC(=O)C1=CC2=C(CCC2)N1", 
	 "Tm": 383.15, 
	 "num_atms": 20, 
	 "gaussian": { 
		 "optdone": 1, 
		 "sigma_profile": "yes", 
		 "theory": "DFT", 
		 "functional": "B3LYP", 
		 "basiset": "6-31G**", 
		 "properties": { 
			 "R2extent": 2177.5762, 
			 "electric_dipole_moment_norm": 5.94564593463, 
			 "electric_quadrupole_moment_norm": 18.4479399012, 
			 "total_energy": -515.469670605, 
			 "HOMO_LUMO_gap": 0.18861, 
			 "cosmo_polarized_energy": -18.15, 
			 "cosmo_cavitation_energy": 23.54, 
			 "cosmo_dispersion_energy": -17.82, 
			 "cosmo_repulsion_energy": 1.46, 
			 "cosmo_total_nonelectrostatic_energy": 7.18, 
			 "SMD_solvation_energy": 4.45 
		},
		"coords": [
			{
				"x": -1.0202249893,
				"y": 1.3585447571,
				"z": 3.6316446635,
				"element": "O" 
			},
			{
				"x": -1.186528823,
				"y": 1.9474321704,
				"z": 2.3977915615,
				"element": "C" 
			},
			{
				"x": -1.7660938932,
				"y": 3.0044497046,
				"z": 2.3051933968,
				"element": "O" 
			},
			{
				"x": -0.6054981084,
				"y": 1.2201101734,
				"z": 1.2673097865,
				"element": "C" 
			},
			{
				"x": -0.9145417178,
				"y": 1.3327232484,
				"z": -0.0837570382,
				"element": "C" 
			},
			{
				"x": -0.1175618847,
				"y": 0.3852959216,
				"z": -0.7681472837,
				"element": "C" 
			},
			{
				"x": 0.6638521528,
				"y": -0.2588790326,
				"z": 0.1665856901,
				"element": "C" 
			},
			{
				"x": 1.6423448,
				"y": -1.2330168584,
				"z": -0.4104919819,
				"element": "C" 
			},
			{
				"x": 1.0858781111,
				"y": -1.3655012426,
				"z": -1.867926596,
				"element": "C" 
			},
			{
				"x": 0.2101470751,
				"y": -0.0999516933,
				"z": -2.1556266571,
				"element": "C" 
			},
			{
				"x": 0.3605966865,
				"y": 0.2166019962,
				"z": 1.4105683135,
				"element": "N" 
			},
			{
				"x": -0.8722743383,
				"y": 0.4089099295,
				"z": 3.5176984187,
				"element": "H" 
			},
			{
				"x": -1.6578594456,
				"y": 2.0107655819,
				"z": -0.4783098914,
				"element": "H" 
			},
			{
				"x": 1.6768709351,
				"y": -2.1992678668,
				"z": 0.1059474413,
				"element": "H" 
			},
			{
				"x": 2.6654578256,
				"y": -0.8306503164,
				"z": -0.4033809885,
				"element": "H" 
			},
			{
				"x": 1.8861343779,
				"y": -1.4952370019,
				"z": -2.6014270371,
				"element": "H" 
			},
			{
				"x": 0.4514757222,
				"y": -2.2559647962,
				"z": -1.9192442886,
				"element": "H" 
			},
			{
				"x": -0.6680525382,
				"y": -0.3497327731,
				"z": -2.760770212,
				"element": "H" 
			},
			{
				"x": 0.7745075926,
				"y": 0.656170608,
				"z": -2.7178497693,
				"element": "H" 
			},
			{
				"x": 0.9197704597,
				"y": 0.08319749,
				"z": 2.2398924721,
				"element": "H" 
			}
		],
		 "valence_orbital": [ 
			{
				"type": "occ",
				"energy": -0.34636,
				"method": "rhf"
			},
			{
				"type": "occ",
				"energy": -0.30935,
				"method": "rhf"
			},
			{
				"type": "occ",
				"energy": -0.26627,
				"method": "rhf"
			},
			{
				"type": "occ",
				"energy": -0.25529,
				"method": "rhf"
			},
			{
				"type": "occ",
				"energy": -0.21706,
				"method": "rhf"
			},
			{
				"type": "unocc",
				"energy": -0.02845,
				"method": "rhf"
			},
			{
				"type": "unocc",
				"energy": 0.04371,
				"method": "rhf"
			},
			{
				"type": "unocc",
				"energy": 0.05495,
				"method": "rhf"
			},
			{
				"type": "unocc",
				"energy": 0.08662,
				"method": "rhf"
			},
			{
				"type": "unocc",
				"energy": 0.1003,
				"method": "rhf"
			}
		],
		"cosmo_sigma_profile": { 
			"-0.025": 0.0,
			"-0.024": 0.0,
			"-0.023": 0.0,
			"-0.022": 0.0,
			"-0.021": 0.0,
			"-0.02": 0.0,
			"-0.019": 0.131863671405,
			"-0.018": 1.72309388846,
			"-0.017": 1.91607823205,
			"-0.016": 1.94496859069,
			"-0.015": 1.7998861873,
			"-0.014": 1.81173724145,
			"-0.013": 1.42794161512,
			"-0.012": 2.5571580304,
			"-0.011": 1.56247319249,
			"-0.01": 1.15257793005,
			"-0.009": 1.32821680237,
			"-0.008": 1.51331129197,
			"-0.007": 1.85686250465,
			"-0.006": 2.70302874286,
			"-0.005": 3.64614499578,
			"-0.004": 10.749348912,
			"-0.003": 17.3656818823,
			"-0.002": 20.8910387308,
			"-0.001": 20.3159752097,
			"0.0": 16.7552738543,
			"0.001": 10.2228479811,
			"0.002": 8.12515135337,
			"0.003": 5.52190802296,
			"0.004": 6.71175229755,
			"0.005": 7.30232882796,
			"0.006": 5.67210938988,
			"0.007": 3.18051603916,
			"0.008": 2.73813878499,
			"0.009": 2.05978555907,
			"0.01": 4.12413642955,
			"0.011": 4.63464804873,
			"0.012": 6.54623391482,
			"0.013": 4.8007145213,
			"0.014": 1.22538949824,
			"0.015": 0.0,
			"0.016": 0.0,
			"0.017": 0.0,
			"0.018": 0.0,
			"0.019": 0.0,
			"0.02": 0.0,
			"0.021": 0.0,
			"0.022": 0.0,
			"0.023": 0.0,
			"0.024": 0.0,
			"0.025": 0.0
		}
	}
}
