{
	 "smiles": "OC1=C(F)C=C(C=O)C(F)=C1", 
	 "Tm": 420.15, 
	 "num_atms": 15, 
	 "gaussian": { 
		 "optdone": 1, 
		 "sigma_profile": "yes", 
		 "theory": "DFT", 
		 "functional": "B3LYP", 
		 "basiset": "6-31G**", 
		 "properties": { 
			 "R2extent": 1824.968, 
			 "electric_dipole_moment_norm": 4.18591902812, 
			 "electric_quadrupole_moment_norm": 8.28897621483, 
			 "total_energy": -619.250674284, 
			 "HOMO_LUMO_gap": 0.1834, 
			 "cosmo_polarized_energy": -11.68, 
			 "cosmo_cavitation_energy": 21.15, 
			 "cosmo_dispersion_energy": -15.42, 
			 "cosmo_repulsion_energy": 1.19, 
			 "cosmo_total_nonelectrostatic_energy": 6.93, 
			 "SMD_solvation_energy": 6.08 
		},
		"coords": [
			{
				"x": -2.5995467058,
				"y": -1.150299123,
				"z": -0.2461465091,
				"element": "O" 
			},
			{
				"x": -1.4402079593,
				"y": -0.4573973437,
				"z": -0.2364824334,
				"element": "C" 
			},
			{
				"x": -0.6106731848,
				"y": -0.4178498931,
				"z": -1.3672224428,
				"element": "C" 
			},
			{
				"x": -1.0380683976,
				"y": -1.1092112575,
				"z": -2.4577248393,
				"element": "F" 
			},
			{
				"x": 0.5738389177,
				"y": 0.2823163421,
				"z": -1.3769105472,
				"element": "C" 
			},
			{
				"x": 0.9868926714,
				"y": 0.9875383828,
				"z": -0.2306697013,
				"element": "C" 
			},
			{
				"x": 2.2648050325,
				"y": 1.7269875684,
				"z": -0.2806280563,
				"element": "C" 
			},
			{
				"x": 2.7556183819,
				"y": 2.3795410887,
				"z": 0.6180896348,
				"element": "O" 
			},
			{
				"x": 0.1483313436,
				"y": 0.9416390346,
				"z": 0.897566733,
				"element": "C" 
			},
			{
				"x": 0.4943361456,
				"y": 1.5942310189,
				"z": 2.0117974976,
				"element": "F" 
			},
			{
				"x": -1.0478311302,
				"y": 0.2356941908,
				"z": 0.9101310024,
				"element": "C" 
			},
			{
				"x": -2.6989899456,
				"y": -1.5595087149,
				"z": -1.1194484373,
				"element": "H" 
			},
			{
				"x": 1.1871672771,
				"y": 0.2874225274,
				"z": -2.2730913724,
				"element": "H" 
			},
			{
				"x": 2.7768983689,
				"y": 1.6367453117,
				"z": -1.266559644,
				"element": "H" 
			},
			{
				"x": -1.6694708153,
				"y": 0.2220508666,
				"z": 1.7972991153,
				"element": "H" 
			}
		],
		 "valence_orbital": [ 
			{
				"type": "occ",
				"energy": -0.38109,
				"method": "rhf"
			},
			{
				"type": "occ",
				"energy": -0.34544,
				"method": "rhf"
			},
			{
				"type": "occ",
				"energy": -0.27341,
				"method": "rhf"
			},
			{
				"type": "occ",
				"energy": -0.25529,
				"method": "rhf"
			},
			{
				"type": "occ",
				"energy": -0.2487,
				"method": "rhf"
			},
			{
				"type": "unocc",
				"energy": -0.0653,
				"method": "rhf"
			},
			{
				"type": "unocc",
				"energy": -0.02273,
				"method": "rhf"
			},
			{
				"type": "unocc",
				"energy": 0.03845,
				"method": "rhf"
			},
			{
				"type": "unocc",
				"energy": 0.04714,
				"method": "rhf"
			},
			{
				"type": "unocc",
				"energy": 0.09008,
				"method": "rhf"
			}
		],
		"cosmo_sigma_profile": { 
			"-0.025": 0.0,
			"-0.024": 0.0,
			"-0.023": 0.0,
			"-0.022": 0.0,
			"-0.021": 0.0,
			"-0.02": 0.0,
			"-0.019": 0.0,
			"-0.018": 0.153253991196,
			"-0.017": 0.702011764948,
			"-0.016": 0.70188202587,
			"-0.015": 0.909464579374,
			"-0.014": 0.758050944494,
			"-0.013": 0.160254352463,
			"-0.012": 1.25985044334,
			"-0.011": 1.30149554135,
			"-0.01": 0.813578991668,
			"-0.009": 4.7693007575,
			"-0.008": 6.59475055058,
			"-0.007": 4.87514090148,
			"-0.006": 5.91775836525,
			"-0.005": 5.95034302823,
			"-0.004": 7.04110880335,
			"-0.003": 7.29769544153,
			"-0.002": 10.2041595141,
			"-0.001": 20.2859011496,
			"0.0": 18.8250229982,
			"0.001": 11.8006732393,
			"0.002": 7.56969559735,
			"0.003": 12.4408606095,
			"0.004": 8.98753105967,
			"0.005": 4.01130917215,
			"0.006": 3.39948842713,
			"0.007": 2.99479436346,
			"0.008": 4.11166709646,
			"0.009": 3.84532023234,
			"0.01": 3.53641764308,
			"0.011": 4.85469906198,
			"0.012": 3.75663225798,
			"0.013": 0.82089301706,
			"0.014": 0.0,
			"0.015": 0.0,
			"0.016": 0.0,
			"0.017": 0.0,
			"0.018": 0.0,
			"0.019": 0.0,
			"0.02": 0.0,
			"0.021": 0.0,
			"0.022": 0.0,
			"0.023": 0.0,
			"0.024": 0.0,
			"0.025": 0.0
		}
	}
}
