{
	 "smiles": "[O-][N+](=O)C1=NC=C(Br)C=C1", 
	 "Tm": 422.15, 
	 "num_atms": 13, 
	 "gaussian": { 
		 "optdone": 1, 
		 "sigma_profile": "yes", 
		 "theory": "DFT", 
		 "functional": "B3LYP", 
		 "basiset": "6-31G**", 
		 "properties": { 
			 "R2extent": 3236.9801, 
			 "electric_dipole_moment_norm": 4.49337670466, 
			 "electric_quadrupole_moment_norm": 12.5913195706, 
			 "total_energy": -3023.57793759, 
			 "HOMO_LUMO_gap": 0.1814, 
			 "cosmo_polarized_energy": -10.45, 
			 "cosmo_cavitation_energy": 21.16, 
			 "cosmo_dispersion_energy": -16.16, 
			 "cosmo_repulsion_energy": 1.31, 
			 "cosmo_total_nonelectrostatic_energy": 6.31, 
			 "SMD_solvation_energy": 3.86 
		},
		"coords": [
			{
				"x": -0.8501357363,
				"y": 1.3312030984,
				"z": 3.4986281384,
				"element": "O" 
			},
			{
				"x": -0.9137117375,
				"y": 0.3885787318,
				"z": 2.7264193745,
				"element": "N" 
			},
			{
				"x": -1.0844587167,
				"y": -0.7914436568,
				"z": 3.038291197,
				"element": "O" 
			},
			{
				"x": -0.7746802137,
				"y": 0.6675906593,
				"z": 1.264570983,
				"element": "C" 
			},
			{
				"x": -0.5925162812,
				"y": 1.9339770251,
				"z": 0.9358317666,
				"element": "N" 
			},
			{
				"x": -0.4643011212,
				"y": 2.2197013585,
				"z": -0.3595682102,
				"element": "C" 
			},
			{
				"x": -0.5179514288,
				"y": 1.228966416,
				"z": -1.3477203413,
				"element": "C" 
			},
			{
				"x": -0.3271460012,
				"y": 1.711447146,
				"z": -3.1722689208,
				"element": "Br" 
			},
			{
				"x": -0.7109438286,
				"y": -0.1018846212,
				"z": -0.9801579817,
				"element": "C" 
			},
			{
				"x": -0.8449478625,
				"y": -0.4001249235,
				"z": 0.3740736661,
				"element": "C" 
			},
			{
				"x": -0.3146689778,
				"y": 3.2617242569,
				"z": -0.627030211,
				"element": "H" 
			},
			{
				"x": -0.7552042443,
				"y": -0.8827355582,
				"z": -1.7306868752,
				"element": "H" 
			},
			{
				"x": -0.9970338503,
				"y": -1.4086999321,
				"z": 0.7347174146,
				"element": "H" 
			}
		],
		 "valence_orbital": [ 
			{
				"type": "occ",
				"energy": -0.31698,
				"method": "rhf"
			},
			{
				"type": "occ",
				"energy": -0.3138,
				"method": "rhf"
			},
			{
				"type": "occ",
				"energy": -0.30554,
				"method": "rhf"
			},
			{
				"type": "occ",
				"energy": -0.29103,
				"method": "rhf"
			},
			{
				"type": "occ",
				"energy": -0.28368,
				"method": "rhf"
			},
			{
				"type": "unocc",
				"energy": -0.10228,
				"method": "rhf"
			},
			{
				"type": "unocc",
				"energy": -0.06349,
				"method": "rhf"
			},
			{
				"type": "unocc",
				"energy": -0.0215,
				"method": "rhf"
			},
			{
				"type": "unocc",
				"energy": -0.02046,
				"method": "rhf"
			},
			{
				"type": "unocc",
				"energy": 0.08928,
				"method": "rhf"
			}
		],
		"cosmo_sigma_profile": { 
			"-0.025": 0.0,
			"-0.024": 0.0,
			"-0.023": 0.0,
			"-0.022": 0.0,
			"-0.021": 0.0,
			"-0.02": 0.0,
			"-0.019": 0.0,
			"-0.018": 0.0,
			"-0.017": 0.0,
			"-0.016": 0.0,
			"-0.015": 0.0,
			"-0.014": 0.0,
			"-0.013": 0.0,
			"-0.012": 0.0,
			"-0.011": 0.0,
			"-0.01": 1.15546454955,
			"-0.009": 5.66218139472,
			"-0.008": 5.81078358513,
			"-0.007": 6.59726952981,
			"-0.006": 6.96976346087,
			"-0.005": 8.5415059432,
			"-0.004": 10.3468372495,
			"-0.003": 15.741039,
			"-0.002": 20.7049657492,
			"-0.001": 11.5276953295,
			"0.0": 8.73087569479,
			"0.001": 8.21093502422,
			"0.002": 10.6220839432,
			"0.003": 12.1925529807,
			"0.004": 4.14068120679,
			"0.005": 4.13302665845,
			"0.006": 4.93807996145,
			"0.007": 10.3019143524,
			"0.008": 7.16495983395,
			"0.009": 4.27651711563,
			"0.01": 1.96738699213,
			"0.011": 1.77676704321,
			"0.012": 0.809653132988,
			"0.013": 0.954076331574,
			"0.014": 0.996968763183,
			"0.015": 0.274616610782,
			"0.016": 0.0,
			"0.017": 0.0,
			"0.018": 0.0,
			"0.019": 0.0,
			"0.02": 0.0,
			"0.021": 0.0,
			"0.022": 0.0,
			"0.023": 0.0,
			"0.024": 0.0,
			"0.025": 0.0
		}
	}
}
