{
	 "smiles": "CCOC(=O)NC(=S)NC1=C(C(=O)OCC)C2=C(CCCC2)S1", 
	 "Tm": 461.15, 
	 "num_atms": 43, 
	 "gaussian": { 
		 "optdone": 1, 
		 "sigma_profile": "yes", 
		 "theory": "DFT", 
		 "functional": "B3LYP", 
		 "basiset": "6-31G**", 
		 "properties": { 
			 "R2extent": 11057.3613, 
			 "electric_dipole_moment_norm": 3.91814560347, 
			 "electric_quadrupole_moment_norm": 29.518715457, 
			 "total_energy": -1790.48219667, 
			 "HOMO_LUMO_gap": 0.14359, 
			 "cosmo_polarized_energy": -16.21, 
			 "cosmo_cavitation_energy": 48.21, 
			 "cosmo_dispersion_energy": -32.98, 
			 "cosmo_repulsion_energy": 2.46, 
			 "cosmo_total_nonelectrostatic_energy": 17.69, 
			 "SMD_solvation_energy": 8.16 
		},
		"coords": [
			{
				"x": 3.2390309966,
				"y": 0.7506062268,
				"z": -2.9590912547,
				"element": "C" 
			},
			{
				"x": 2.3280722077,
				"y": 1.5016982085,
				"z": -3.9099821078,
				"element": "C" 
			},
			{
				"x": 1.2722041574,
				"y": 2.1083175605,
				"z": -3.1155232898,
				"element": "O" 
			},
			{
				"x": 0.5850511108,
				"y": 3.1005989439,
				"z": -3.7171436116,
				"element": "C" 
			},
			{
				"x": 0.7359559856,
				"y": 3.4605471135,
				"z": -4.8647224406,
				"element": "O" 
			},
			{
				"x": -0.3468462869,
				"y": 3.7016678597,
				"z": -2.8734724435,
				"element": "N" 
			},
			{
				"x": -0.5504820714,
				"y": 3.6525018425,
				"z": -1.4844027252,
				"element": "C" 
			},
			{
				"x": -1.1414887325,
				"y": 5.012383892,
				"z": -0.7199794405,
				"element": "S" 
			},
			{
				"x": -0.2856216349,
				"y": 2.4536967845,
				"z": -0.9091742699,
				"element": "N" 
			},
			{
				"x": -0.300736693,
				"y": 2.08225783,
				"z": 0.4291585664,
				"element": "C" 
			},
			{
				"x": -0.0910569221,
				"y": 0.7803510482,
				"z": 0.8931488724,
				"element": "C" 
			},
			{
				"x": 0.0608832556,
				"y": -0.4291444038,
				"z": 0.0679573548,
				"element": "C" 
			},
			{
				"x": 0.3760872245,
				"y": -1.5285112984,
				"z": 0.4836541033,
				"element": "O" 
			},
			{
				"x": -0.21894857,
				"y": -0.2216008421,
				"z": -1.2578858288,
				"element": "O" 
			},
			{
				"x": -0.1843436105,
				"y": -1.3944640883,
				"z": -2.1065881334,
				"element": "C" 
			},
			{
				"x": -0.8607081087,
				"y": -1.0377382908,
				"z": -3.4169397047,
				"element": "C" 
			},
			{
				"x": -0.0601989081,
				"y": 0.7140512516,
				"z": 2.3388875322,
				"element": "C" 
			},
			{
				"x": -0.2376428313,
				"y": 1.9386651319,
				"z": 2.9182488929,
				"element": "C" 
			},
			{
				"x": -0.2764010393,
				"y": 2.2234534054,
				"z": 4.3956862792,
				"element": "C" 
			},
			{
				"x": 0.3144416748,
				"y": 1.0354794414,
				"z": 5.1746749164,
				"element": "C" 
			},
			{
				"x": -0.2474817731,
				"y": -0.2914640994,
				"z": 4.6482379177,
				"element": "C" 
			},
			{
				"x": 0.1275188316,
				"y": -0.5322577805,
				"z": 3.1757213848,
				"element": "C" 
			},
			{
				"x": -0.4743352313,
				"y": 3.2135883396,
				"z": 1.7433602957,
				"element": "S" 
			},
			{
				"x": 3.7011556892,
				"y": 1.4330753612,
				"z": -2.2406210144,
				"element": "H" 
			},
			{
				"x": 2.6895713128,
				"y": -0.0138448693,
				"z": -2.4029827558,
				"element": "H" 
			},
			{
				"x": 4.0340604334,
				"y": 0.2578858722,
				"z": -3.52700042,
				"element": "H" 
			},
			{
				"x": 1.8647272723,
				"y": 0.8399701388,
				"z": -4.6486775021,
				"element": "H" 
			},
			{
				"x": 2.8510680628,
				"y": 2.2935935323,
				"z": -4.4500398923,
				"element": "H" 
			},
			{
				"x": -0.7347747643,
				"y": 4.5391120558,
				"z": -3.2890391174,
				"element": "H" 
			},
			{
				"x": -0.0367359171,
				"y": 1.6846728324,
				"z": -1.5285564554,
				"element": "H" 
			},
			{
				"x": 0.8589610363,
				"y": -1.6957232366,
				"z": -2.2501020157,
				"element": "H" 
			},
			{
				"x": -0.6928689356,
				"y": -2.2111667761,
				"z": -1.5890639021,
				"element": "H" 
			},
			{
				"x": -0.8439193377,
				"y": -1.9019542528,
				"z": -4.0881370438,
				"element": "H" 
			},
			{
				"x": -0.3512533651,
				"y": -0.2079606878,
				"z": -3.9150825896,
				"element": "H" 
			},
			{
				"x": -1.903308387,
				"y": -0.7514885571,
				"z": -3.2523295714,
				"element": "H" 
			},
			{
				"x": 0.2737751664,
				"y": 3.1437597872,
				"z": 4.6271708514,
				"element": "H" 
			},
			{
				"x": -1.3134393416,
				"y": 2.3984735094,
				"z": 4.717182417,
				"element": "H" 
			},
			{
				"x": 0.0988536286,
				"y": 1.1519531624,
				"z": 6.2425235745,
				"element": "H" 
			},
			{
				"x": 1.4069089531,
				"y": 1.0378334026,
				"z": 5.0671074344,
				"element": "H" 
			},
			{
				"x": -1.3412699043,
				"y": -0.2795587167,
				"z": 4.7484039878,
				"element": "H" 
			},
			{
				"x": 0.1133523241,
				"y": -1.1279485004,
				"z": 5.2568694417,
				"element": "H" 
			},
			{
				"x": -0.459523489,
				"y": -1.3553971296,
				"z": 2.7606689868,
				"element": "H" 
			},
			{
				"x": 1.1718065312,
				"y": -0.8631710049,
				"z": 3.0992747207,
				"element": "H" 
			}
		],
		 "valence_orbital": [ 
			{
				"type": "occ",
				"energy": -0.27825,
				"method": "rhf"
			},
			{
				"type": "occ",
				"energy": -0.25782,
				"method": "rhf"
			},
			{
				"type": "occ",
				"energy": -0.2447,
				"method": "rhf"
			},
			{
				"type": "occ",
				"energy": -0.22245,
				"method": "rhf"
			},
			{
				"type": "occ",
				"energy": -0.20806,
				"method": "rhf"
			},
			{
				"type": "unocc",
				"energy": -0.06447,
				"method": "rhf"
			},
			{
				"type": "unocc",
				"energy": -0.0123,
				"method": "rhf"
			},
			{
				"type": "unocc",
				"energy": 0.01595,
				"method": "rhf"
			},
			{
				"type": "unocc",
				"energy": 0.02808,
				"method": "rhf"
			},
			{
				"type": "unocc",
				"energy": 0.03997,
				"method": "rhf"
			}
		],
		"cosmo_sigma_profile": { 
			"-0.025": 0.0,
			"-0.024": 0.0,
			"-0.023": 0.0,
			"-0.022": 0.0,
			"-0.021": 0.0,
			"-0.02": 0.0,
			"-0.019": 0.0,
			"-0.018": 0.0,
			"-0.017": 0.0,
			"-0.016": 0.0,
			"-0.015": 0.450533103089,
			"-0.014": 0.676724828381,
			"-0.013": 0.48550955387,
			"-0.012": 0.452572057237,
			"-0.011": 1.20004516865,
			"-0.01": 0.744234547968,
			"-0.009": 0.892193395185,
			"-0.008": 1.12110274364,
			"-0.007": 1.94838079329,
			"-0.006": 4.60416046397,
			"-0.005": 21.3614738352,
			"-0.004": 37.5139731566,
			"-0.003": 46.0575551383,
			"-0.002": 46.9768855535,
			"-0.001": 50.7416788664,
			"0.0": 40.083284114,
			"0.001": 24.689622635,
			"0.002": 16.8719445627,
			"0.003": 15.6522512595,
			"0.004": 10.6543423067,
			"0.005": 9.26886096145,
			"0.006": 8.67640524198,
			"0.007": 9.83097225202,
			"0.008": 10.4010653452,
			"0.009": 6.61510764855,
			"0.01": 3.68243982107,
			"0.011": 7.23921161095,
			"0.012": 5.73885564619,
			"0.013": 0.0813084063818,
			"0.014": 0.0,
			"0.015": 0.0,
			"0.016": 0.0,
			"0.017": 0.0,
			"0.018": 0.0,
			"0.019": 0.0,
			"0.02": 0.0,
			"0.021": 0.0,
			"0.022": 0.0,
			"0.023": 0.0,
			"0.024": 0.0,
			"0.025": 0.0
		}
	}
}
