{
	 "smiles": "OC(=O)C(Br)=C", 
	 "Tm": 341.15, 
	 "num_atms": 9, 
	 "gaussian": { 
		 "optdone": 1, 
		 "sigma_profile": "yes", 
		 "theory": "DFT", 
		 "functional": "B3LYP", 
		 "basiset": "6-31G**", 
		 "properties": { 
			 "R2extent": 2107.6969, 
			 "electric_dipole_moment_norm": 4.44016530098, 
			 "electric_quadrupole_moment_norm": 4.4542850717, 
			 "total_energy": -2837.9502397, 
			 "HOMO_LUMO_gap": 0.20982, 
			 "cosmo_polarized_energy": -13.88, 
			 "cosmo_cavitation_energy": 16.21, 
			 "cosmo_dispersion_energy": -12.23, 
			 "cosmo_repulsion_energy": 1.06, 
			 "cosmo_total_nonelectrostatic_energy": 5.04, 
			 "SMD_solvation_energy": 3.8 
		},
		"coords": [
			{
				"x": 1.2105485652,
				"y": -0.932230495,
				"z": 0.8094848199,
				"element": "O" 
			},
			{
				"x": 0.6185559125,
				"y": -1.1610909517,
				"z": -0.3912958623,
				"element": "C" 
			},
			{
				"x": 1.2207193425,
				"y": -1.0143670347,
				"z": -1.4211268193,
				"element": "O" 
			},
			{
				"x": -0.8338983472,
				"y": -1.5646341248,
				"z": -0.3140680252,
				"element": "C" 
			},
			{
				"x": -1.4362651273,
				"y": -2.6450327079,
				"z": -1.7566450458,
				"element": "Br" 
			},
			{
				"x": -1.6740893733,
				"y": -1.1392022057,
				"z": 0.6325612608,
				"element": "C" 
			},
			{
				"x": 0.6562127089,
				"y": -1.2750209624,
				"z": 1.524891554,
				"element": "H" 
			},
			{
				"x": -2.7251000215,
				"y": -1.401942733,
				"z": 0.6310285294,
				"element": "H" 
			},
			{
				"x": -1.3307836598,
				"y": -0.4707787848,
				"z": 1.4178695885,
				"element": "H" 
			}
		],
		 "valence_orbital": [ 
			{
				"type": "occ",
				"energy": -0.36065,
				"method": "rhf"
			},
			{
				"type": "occ",
				"energy": -0.33031,
				"method": "rhf"
			},
			{
				"type": "occ",
				"energy": -0.29885,
				"method": "rhf"
			},
			{
				"type": "occ",
				"energy": -0.29047,
				"method": "rhf"
			},
			{
				"type": "occ",
				"energy": -0.27708,
				"method": "rhf"
			},
			{
				"type": "unocc",
				"energy": -0.06726,
				"method": "rhf"
			},
			{
				"type": "unocc",
				"energy": -0.01,
				"method": "rhf"
			},
			{
				"type": "unocc",
				"energy": 0.04825,
				"method": "rhf"
			},
			{
				"type": "unocc",
				"energy": 0.05345,
				"method": "rhf"
			},
			{
				"type": "unocc",
				"energy": 0.12554,
				"method": "rhf"
			}
		],
		"cosmo_sigma_profile": { 
			"-0.025": 0.0,
			"-0.024": 0.0,
			"-0.023": 0.0,
			"-0.022": 0.0,
			"-0.021": 0.0,
			"-0.02": 0.0581107013624,
			"-0.019": 0.893455906366,
			"-0.018": 0.510455019157,
			"-0.017": 0.935843328042,
			"-0.016": 1.55575241215,
			"-0.015": 0.72157237964,
			"-0.014": 1.08189604369,
			"-0.013": 1.35430724477,
			"-0.012": 1.24370626948,
			"-0.011": 1.46821766594,
			"-0.01": 1.68096185602,
			"-0.009": 3.16590917082,
			"-0.008": 3.93678578145,
			"-0.007": 3.63524868508,
			"-0.006": 4.19270920493,
			"-0.005": 6.7127389435,
			"-0.004": 6.88027517107,
			"-0.003": 6.24072370984,
			"-0.002": 5.45968119166,
			"-0.001": 7.33881932671,
			"0.0": 9.07709843308,
			"0.001": 7.65434219823,
			"0.002": 6.3574995886,
			"0.003": 9.0784316588,
			"0.004": 10.1122170723,
			"0.005": 3.42291379089,
			"0.006": 2.81866779225,
			"0.007": 3.49456342376,
			"0.008": 3.59271612439,
			"0.009": 5.6003384793,
			"0.01": 4.82888879187,
			"0.011": 6.08476416454,
			"0.012": 2.02733456902,
			"0.013": 0.025337793314,
			"0.014": 0.0,
			"0.015": 0.0,
			"0.016": 0.0,
			"0.017": 0.0,
			"0.018": 0.0,
			"0.019": 0.0,
			"0.02": 0.0,
			"0.021": 0.0,
			"0.022": 0.0,
			"0.023": 0.0,
			"0.024": 0.0,
			"0.025": 0.0
		}
	}
}
