{
	 "smiles": "CC1(C)C2CCC1(C)C(NC(=O)C1=CC=C(C=C1)[N+]([O-])=O)C2NC(=O)C1=CC=C(C=C1)[N+]([O-])=O", 
	 "Tm": 443.15, 
	 "num_atms": 60, 
	 "gaussian": { 
		 "optdone": 1, 
		 "sigma_profile": "yes", 
		 "theory": "DFT", 
		 "functional": "B3LYP", 
		 "basiset": "6-31G**", 
		 "properties": { 
			 "R2extent": 21539.3961, 
			 "electric_dipole_moment_norm": 7.9287281685, 
			 "electric_quadrupole_moment_norm": 27.1512774499, 
			 "total_energy": -1600.41465496, 
			 "HOMO_LUMO_gap": 0.15039, 
			 "cosmo_polarized_energy": -30.04, 
			 "cosmo_cavitation_energy": 62.18, 
			 "cosmo_dispersion_energy": -40.51, 
			 "cosmo_repulsion_energy": 2.97, 
			 "cosmo_total_nonelectrostatic_energy": 24.65, 
			 "SMD_solvation_energy": 15.52 
		},
		"coords": [
			{
				"x": 1.1612741298,
				"y": 0.4588772834,
				"z": 4.794744831,
				"element": "C" 
			},
			{
				"x": 0.2465945168,
				"y": 0.8590054919,
				"z": 3.6210635228,
				"element": "C" 
			},
			{
				"x": -0.6655449532,
				"y": 1.9845730154,
				"z": 4.1519052532,
				"element": "C" 
			},
			{
				"x": -0.510168224,
				"y": -0.347283467,
				"z": 2.982384743,
				"element": "C" 
			},
			{
				"x": 0.6342140979,
				"y": -1.218860616,
				"z": 2.423902442,
				"element": "C" 
			},
			{
				"x": 1.687715004,
				"y": -0.1648526068,
				"z": 1.9672090741,
				"element": "C" 
			},
			{
				"x": 1.0183357627,
				"y": 1.2029273529,
				"z": 2.2873008539,
				"element": "C" 
			},
			{
				"x": 1.9820598954,
				"y": 2.3837106749,
				"z": 2.3137350244,
				"element": "C" 
			},
			{
				"x": -0.1766719141,
				"y": 1.3993269553,
				"z": 1.3039865746,
				"element": "C" 
			},
			{
				"x": 0.2021171296,
				"y": 1.3149697075,
				"z": -0.1052710086,
				"element": "N" 
			},
			{
				"x": -0.3643863948,
				"y": 2.1604412805,
				"z": -1.0340736843,
				"element": "C" 
			},
			{
				"x": -1.3105055859,
				"y": 2.8914162133,
				"z": -0.7679524747,
				"element": "O" 
			},
			{
				"x": 0.2371720952,
				"y": 2.1327919337,
				"z": -2.416546323,
				"element": "C" 
			},
			{
				"x": -0.0270941343,
				"y": 3.2329359923,
				"z": -3.24510599,
				"element": "C" 
			},
			{
				"x": 0.4920454723,
				"y": 3.2898011576,
				"z": -4.533741979,
				"element": "C" 
			},
			{
				"x": 1.2673858986,
				"y": 2.2241216242,
				"z": -4.9876047107,
				"element": "C" 
			},
			{
				"x": 1.5298233882,
				"y": 1.1075766235,
				"z": -4.1979660033,
				"element": "C" 
			},
			{
				"x": 1.0086321525,
				"y": 1.0679955984,
				"z": -2.9073500041,
				"element": "C" 
			},
			{
				"x": 1.8242260154,
				"y": 2.2749263519,
				"z": -6.3527130865,
				"element": "N" 
			},
			{
				"x": 2.5030820257,
				"y": 1.319232507,
				"z": -6.7244563642,
				"element": "O" 
			},
			{
				"x": 1.5755600934,
				"y": 3.2701082843,
				"z": -7.0298472373,
				"element": "O" 
			},
			{
				"x": -1.2360804245,
				"y": 0.3326946467,
				"z": 1.7887831103,
				"element": "C" 
			},
			{
				"x": -1.67300023,
				"y": -0.5460344023,
				"z": 0.7199670061,
				"element": "N" 
			},
			{
				"x": -2.7597503555,
				"y": -1.3553845704,
				"z": 0.8623243102,
				"element": "C" 
			},
			{
				"x": -3.354225466,
				"y": -1.4827974631,
				"z": 1.9304581269,
				"element": "O" 
			},
			{
				"x": -3.1942214872,
				"y": -2.1173514548,
				"z": -0.3653225983,
				"element": "C" 
			},
			{
				"x": -2.9420908653,
				"y": -1.6823380195,
				"z": -1.6750260952,
				"element": "C" 
			},
			{
				"x": -3.3854432676,
				"y": -2.426064175,
				"z": -2.7655034468,
				"element": "C" 
			},
			{
				"x": -4.0826101253,
				"y": -3.6079778883,
				"z": -2.5266437331,
				"element": "C" 
			},
			{
				"x": -4.363343306,
				"y": -4.0565141445,
				"z": -1.2366773781,
				"element": "C" 
			},
			{
				"x": -3.9209933063,
				"y": -3.2983458898,
				"z": -0.1585131064,
				"element": "C" 
			},
			{
				"x": -4.5458006692,
				"y": -4.4040076461,
				"z": -3.6768603451,
				"element": "N" 
			},
			{
				"x": -5.1642586349,
				"y": -5.4402586826,
				"z": -3.4397095769,
				"element": "O" 
			},
			{
				"x": -4.2829061407,
				"y": -3.9838952643,
				"z": -4.8030548938,
				"element": "O" 
			},
			{
				"x": 0.5513363516,
				"y": 0.117556463,
				"z": 5.6380722673,
				"element": "H" 
			},
			{
				"x": 1.7412005619,
				"y": 1.3201927815,
				"z": 5.1437133556,
				"element": "H" 
			},
			{
				"x": 1.8662127701,
				"y": -0.3401104476,
				"z": 4.5599772543,
				"element": "H" 
			},
			{
				"x": -1.2692081936,
				"y": 1.6097872886,
				"z": 4.985307549,
				"element": "H" 
			},
			{
				"x": -1.3566650932,
				"y": 2.4000807489,
				"z": 3.4166090632,
				"element": "H" 
			},
			{
				"x": -0.0631238534,
				"y": 2.8144731032,
				"z": 4.5369280003,
				"element": "H" 
			},
			{
				"x": -1.2032798003,
				"y": -0.8792405609,
				"z": 3.6369142721,
				"element": "H" 
			},
			{
				"x": 0.2894614954,
				"y": -1.8528118036,
				"z": 1.6030383747,
				"element": "H" 
			},
			{
				"x": 1.0375218279,
				"y": -1.8860274499,
				"z": 3.1897973952,
				"element": "H" 
			},
			{
				"x": 2.6268535103,
				"y": -0.257906076,
				"z": 2.5198993906,
				"element": "H" 
			},
			{
				"x": 1.9646284731,
				"y": -0.2786157288,
				"z": 0.912298124,
				"element": "H" 
			},
			{
				"x": 1.4710550629,
				"y": 3.3135759133,
				"z": 2.5848740187,
				"element": "H" 
			},
			{
				"x": 2.4479874979,
				"y": 2.5422166906,
				"z": 1.3340163619,
				"element": "H" 
			},
			{
				"x": 2.790255252,
				"y": 2.2183666173,
				"z": 3.033393697,
				"element": "H" 
			},
			{
				"x": -0.6079437602,
				"y": 2.3943130289,
				"z": 1.4261583409,
				"element": "H" 
			},
			{
				"x": 1.1189961454,
				"y": 0.9484260561,
				"z": -0.3161738378,
				"element": "H" 
			},
			{
				"x": -0.6466698948,
				"y": 4.0329462644,
				"z": -2.8559277294,
				"element": "H" 
			},
			{
				"x": 0.3089891242,
				"y": 4.1328679737,
				"z": -5.1880229254,
				"element": "H" 
			},
			{
				"x": 2.1230642121,
				"y": 0.2966549552,
				"z": -4.6012276956,
				"element": "H" 
			},
			{
				"x": 1.1876607512,
				"y": 0.1852224401,
				"z": -2.3011159087,
				"element": "H" 
			},
			{
				"x": -2.1283850907,
				"y": 0.8407578675,
				"z": 2.1618596867,
				"element": "H" 
			},
			{
				"x": -1.1831786965,
				"y": -0.4885765988,
				"z": -0.1604356074,
				"element": "H" 
			},
			{
				"x": -2.4318953286,
				"y": -0.741354358,
				"z": -1.8567879352,
				"element": "H" 
			},
			{
				"x": -3.2112370338,
				"y": -2.1068969342,
				"z": -3.7852825974,
				"element": "H" 
			},
			{
				"x": -4.9175808028,
				"y": -4.9767136805,
				"z": -1.1011080562,
				"element": "H" 
			},
			{
				"x": -4.1328976809,
				"y": -3.5990509584,
				"z": 0.8614003084,
				"element": "H" 
			}
		],
		 "valence_orbital": [ 
			{
				"type": "occ",
				"energy": -0.28517,
				"method": "rhf"
			},
			{
				"type": "occ",
				"energy": -0.28387,
				"method": "rhf"
			},
			{
				"type": "occ",
				"energy": -0.28158,
				"method": "rhf"
			},
			{
				"type": "occ",
				"energy": -0.26366,
				"method": "rhf"
			},
			{
				"type": "occ",
				"energy": -0.25999,
				"method": "rhf"
			},
			{
				"type": "unocc",
				"energy": -0.1096,
				"method": "rhf"
			},
			{
				"type": "unocc",
				"energy": -0.09852,
				"method": "rhf"
			},
			{
				"type": "unocc",
				"energy": -0.0487,
				"method": "rhf"
			},
			{
				"type": "unocc",
				"energy": -0.04209,
				"method": "rhf"
			},
			{
				"type": "unocc",
				"energy": -0.03536,
				"method": "rhf"
			}
		],
		"cosmo_sigma_profile": { 
			"-0.025": 0.0,
			"-0.024": 0.0,
			"-0.023": 0.0,
			"-0.022": 0.0,
			"-0.021": 0.0,
			"-0.02": 0.0,
			"-0.019": 0.0,
			"-0.018": 0.0,
			"-0.017": 0.0,
			"-0.016": 0.0,
			"-0.015": 0.0,
			"-0.014": 0.663643257846,
			"-0.013": 1.23855932497,
			"-0.012": 1.23724403543,
			"-0.011": 2.63416092605,
			"-0.01": 3.89781811996,
			"-0.009": 4.2292906065,
			"-0.008": 10.2613966761,
			"-0.007": 18.1472203156,
			"-0.006": 19.1879641074,
			"-0.005": 18.5710918337,
			"-0.004": 22.0005086891,
			"-0.003": 40.1239397165,
			"-0.002": 55.5659013492,
			"-0.001": 56.7878934251,
			"0.0": 55.3747618183,
			"0.001": 52.7227797066,
			"0.002": 18.0969172582,
			"0.003": 7.83512712343,
			"0.004": 9.62230370672,
			"0.005": 9.93261577774,
			"0.006": 10.9988102848,
			"0.007": 21.1802377145,
			"0.008": 16.1503012783,
			"0.009": 11.1905803171,
			"0.01": 6.69179660817,
			"0.011": 3.45185141735,
			"0.012": 4.97806157233,
			"0.013": 7.48625062182,
			"0.014": 2.13392748225,
			"0.015": 0.0,
			"0.016": 0.0,
			"0.017": 0.0,
			"0.018": 0.0,
			"0.019": 0.0,
			"0.02": 0.0,
			"0.021": 0.0,
			"0.022": 0.0,
			"0.023": 0.0,
			"0.024": 0.0,
			"0.025": 0.0
		}
	}
}
