{
	 "smiles": "CN1C=C2C(=N1)N=C(C)N(N)C2=O", 
	 "Tm": 421.15, 
	 "num_atms": 22, 
	 "gaussian": { 
		 "optdone": 1, 
		 "sigma_profile": "yes", 
		 "theory": "DFT", 
		 "functional": "B3LYP", 
		 "basiset": "6-31G**", 
		 "properties": { 
			 "R2extent": 3045.4289, 
			 "electric_dipole_moment_norm": 1.97544699752, 
			 "electric_quadrupole_moment_norm": 20.0659591273, 
			 "total_energy": -621.124504607, 
			 "HOMO_LUMO_gap": 0.19634, 
			 "cosmo_polarized_energy": -17.69, 
			 "cosmo_cavitation_energy": 26.28, 
			 "cosmo_dispersion_energy": -19.6, 
			 "cosmo_repulsion_energy": 1.54, 
			 "cosmo_total_nonelectrostatic_energy": 8.22, 
			 "SMD_solvation_energy": 3.54 
		},
		"coords": [
			{
				"x": 3.613650476,
				"y": -0.7691942592,
				"z": 1.1789012767,
				"element": "C" 
			},
			{
				"x": 2.3807952071,
				"y": -0.8577945203,
				"z": 0.4166731351,
				"element": "N" 
			},
			{
				"x": 2.0027910994,
				"y": -1.8497547449,
				"z": -0.4208822995,
				"element": "C" 
			},
			{
				"x": 0.7554282077,
				"y": -1.4778300281,
				"z": -0.9033121871,
				"element": "C" 
			},
			{
				"x": 0.4788859801,
				"y": -0.2286020312,
				"z": -0.2798316641,
				"element": "C" 
			},
			{
				"x": 1.4764986761,
				"y": 0.1484625917,
				"z": 0.5281545765,
				"element": "N" 
			},
			{
				"x": -0.6656280434,
				"y": 0.5035001453,
				"z": -0.477743453,
				"element": "N" 
			},
			{
				"x": -1.530792313,
				"y": -0.0134587231,
				"z": -1.2974780934,
				"element": "C" 
			},
			{
				"x": -2.8122570617,
				"y": 0.7196376712,
				"z": -1.5732533575,
				"element": "C" 
			},
			{
				"x": -1.3402285211,
				"y": -1.2339804016,
				"z": -1.9523926862,
				"element": "N" 
			},
			{
				"x": -2.3589271172,
				"y": -1.6905384187,
				"z": -2.8223188866,
				"element": "N" 
			},
			{
				"x": -0.1929065003,
				"y": -2.0632788765,
				"z": -1.8137206447,
				"element": "C" 
			},
			{
				"x": -0.1195068924,
				"y": -3.1191528529,
				"z": -2.4324506699,
				"element": "O" 
			},
			{
				"x": 4.2218364464,
				"y": -1.6516080299,
				"z": 0.975133998,
				"element": "H" 
			},
			{
				"x": 3.385015929,
				"y": -0.7180721283,
				"z": 2.24607981,
				"element": "H" 
			},
			{
				"x": 4.1621714396,
				"y": 0.1306156128,
				"z": 0.8904182994,
				"element": "H" 
			},
			{
				"x": 2.6195148809,
				"y": -2.7157800886,
				"z": -0.6093689433,
				"element": "H" 
			},
			{
				"x": -2.8012784914,
				"y": 1.6402870377,
				"z": -0.9905061066,
				"element": "H" 
			},
			{
				"x": -2.9154987932,
				"y": 0.9513973675,
				"z": -2.6370271269,
				"element": "H" 
			},
			{
				"x": -3.681668992,
				"y": 0.114743597,
				"z": -1.300836631,
				"element": "H" 
			},
			{
				"x": -2.6159089369,
				"y": -2.623591919,
				"z": -2.4978605328,
				"element": "H" 
			},
			{
				"x": -1.9124866798,
				"y": -1.8540070007,
				"z": -3.7255778129,
				"element": "H" 
			}
		],
		 "valence_orbital": [ 
			{
				"type": "occ",
				"energy": -0.29003,
				"method": "rhf"
			},
			{
				"type": "occ",
				"energy": -0.26523,
				"method": "rhf"
			},
			{
				"type": "occ",
				"energy": -0.25971,
				"method": "rhf"
			},
			{
				"type": "occ",
				"energy": -0.2566,
				"method": "rhf"
			},
			{
				"type": "occ",
				"energy": -0.22556,
				"method": "rhf"
			},
			{
				"type": "unocc",
				"energy": -0.02922,
				"method": "rhf"
			},
			{
				"type": "unocc",
				"energy": -0.0051,
				"method": "rhf"
			},
			{
				"type": "unocc",
				"energy": 0.04509,
				"method": "rhf"
			},
			{
				"type": "unocc",
				"energy": 0.07677,
				"method": "rhf"
			},
			{
				"type": "unocc",
				"energy": 0.08855,
				"method": "rhf"
			}
		],
		"cosmo_sigma_profile": { 
			"-0.025": 0.0,
			"-0.024": 0.0,
			"-0.023": 0.0,
			"-0.022": 0.0,
			"-0.021": 0.0,
			"-0.02": 0.0,
			"-0.019": 0.0,
			"-0.018": 0.0,
			"-0.017": 0.0,
			"-0.016": 0.0,
			"-0.015": 0.0,
			"-0.014": 0.0,
			"-0.013": 0.114709913693,
			"-0.012": 2.06830152739,
			"-0.011": 3.29405790104,
			"-0.01": 5.07941297932,
			"-0.009": 5.45875502856,
			"-0.008": 4.80959816823,
			"-0.007": 7.30682446911,
			"-0.006": 9.92434732088,
			"-0.005": 13.5524835649,
			"-0.004": 19.0740969053,
			"-0.003": 19.2954302076,
			"-0.002": 13.4975417453,
			"-0.001": 14.2227079945,
			"0.0": 12.0658436404,
			"0.001": 12.5851006694,
			"0.002": 6.75911250969,
			"0.003": 5.00858319669,
			"0.004": 6.41862055929,
			"0.005": 4.22776398272,
			"0.006": 3.5638292765,
			"0.007": 4.72127057993,
			"0.008": 3.86108008488,
			"0.009": 3.87010952072,
			"0.01": 4.06188702429,
			"0.011": 4.65357349585,
			"0.012": 7.15491942548,
			"0.013": 7.24949662567,
			"0.014": 2.47415318007,
			"0.015": 2.32163859069,
			"0.016": 0.361910071946,
			"0.017": 0.0,
			"0.018": 0.0,
			"0.019": 0.0,
			"0.02": 0.0,
			"0.021": 0.0,
			"0.022": 0.0,
			"0.023": 0.0,
			"0.024": 0.0,
			"0.025": 0.0
		}
	}
}
