{
	 "smiles": "FC1=CC=C(C=C1)C1=NNC=C1Br", 
	 "Tm": 415.15, 
	 "num_atms": 19, 
	 "gaussian": { 
		 "optdone": 1, 
		 "sigma_profile": "yes", 
		 "theory": "DFT", 
		 "functional": "B3LYP", 
		 "basiset": "6-31G**", 
		 "properties": { 
			 "R2extent": 3993.8454, 
			 "electric_dipole_moment_norm": 3.71408552675, 
			 "electric_quadrupole_moment_norm": 11.2303249428, 
			 "total_energy": -3127.29110021, 
			 "HOMO_LUMO_gap": 0.20145, 
			 "cosmo_polarized_energy": -10.4, 
			 "cosmo_cavitation_energy": 26.36, 
			 "cosmo_dispersion_energy": -19.92, 
			 "cosmo_repulsion_energy": 1.55, 
			 "cosmo_total_nonelectrostatic_energy": 7.99, 
			 "SMD_solvation_energy": 3.39 
		},
		"coords": [
			{
				"x": 0.9820475733,
				"y": -0.7226493518,
				"z": 4.5513865511,
				"element": "F" 
			},
			{
				"x": 0.7367532926,
				"y": -0.7417342266,
				"z": 3.2242623006,
				"element": "C" 
			},
			{
				"x": 0.0429549192,
				"y": -1.817998669,
				"z": 2.6806224203,
				"element": "C" 
			},
			{
				"x": -0.2010993372,
				"y": -1.8340404465,
				"z": 1.3110005575,
				"element": "C" 
			},
			{
				"x": 0.2382734454,
				"y": -0.7855519239,
				"z": 0.4825776484,
				"element": "C" 
			},
			{
				"x": 0.9284556458,
				"y": 0.2878537472,
				"z": 1.0680080176,
				"element": "C" 
			},
			{
				"x": 1.1828963774,
				"y": 0.3133058342,
				"z": 2.4386619091,
				"element": "C" 
			},
			{
				"x": -0.0653268237,
				"y": -0.8356075053,
				"z": -0.9593821189,
				"element": "C" 
			},
			{
				"x": -1.1175263983,
				"y": -1.5496292263,
				"z": -1.3853896897,
				"element": "N" 
			},
			{
				"x": -1.1222981797,
				"y": -1.4256151435,
				"z": -2.7250034622,
				"element": "N" 
			},
			{
				"x": -0.1167854487,
				"y": -0.6502322477,
				"z": -3.1957625499,
				"element": "C" 
			},
			{
				"x": 0.5916154007,
				"y": -0.2498459671,
				"z": -2.0815849619,
				"element": "C" 
			},
			{
				"x": 2.1534235407,
				"y": 0.8077554754,
				"z": -2.1645508959,
				"element": "Br" 
			},
			{
				"x": -0.2888999942,
				"y": -2.62386987,
				"z": 3.3263599078,
				"element": "H" 
			},
			{
				"x": -0.7390539142,
				"y": -2.6634001865,
				"z": 0.8656005032,
				"element": "H" 
			},
			{
				"x": 1.263346666,
				"y": 1.1161374503,
				"z": 0.4557010118,
				"element": "H" 
			},
			{
				"x": 1.7130945599,
				"y": 1.1392861327,
				"z": 2.9001294498,
				"element": "H" 
			},
			{
				"x": -1.8527467185,
				"y": -1.8772291712,
				"z": -3.2531376422,
				"element": "H" 
			},
			{
				"x": 0.0337753935,
				"y": -0.4448347046,
				"z": -4.2442989565,
				"element": "H" 
			}
		],
		 "valence_orbital": [ 
			{
				"type": "occ",
				"energy": -0.28773,
				"method": "rhf"
			},
			{
				"type": "occ",
				"energy": -0.28417,
				"method": "rhf"
			},
			{
				"type": "occ",
				"energy": -0.25643,
				"method": "rhf"
			},
			{
				"type": "occ",
				"energy": -0.24538,
				"method": "rhf"
			},
			{
				"type": "occ",
				"energy": -0.22264,
				"method": "rhf"
			},
			{
				"type": "unocc",
				"energy": -0.02119,
				"method": "rhf"
			},
			{
				"type": "unocc",
				"energy": -0.00669,
				"method": "rhf"
			},
			{
				"type": "unocc",
				"energy": 0.00866,
				"method": "rhf"
			},
			{
				"type": "unocc",
				"energy": 0.01324,
				"method": "rhf"
			},
			{
				"type": "unocc",
				"energy": 0.07518,
				"method": "rhf"
			}
		],
		"cosmo_sigma_profile": { 
			"-0.025": 0.0,
			"-0.024": 0.0,
			"-0.023": 0.0,
			"-0.022": 0.0,
			"-0.021": 0.0,
			"-0.02": 0.0,
			"-0.019": 0.0,
			"-0.018": 0.11879789734,
			"-0.017": 1.87199987178,
			"-0.016": 1.70102466897,
			"-0.015": 1.13569852581,
			"-0.014": 0.926460641527,
			"-0.013": 0.898260604759,
			"-0.012": 1.22002963415,
			"-0.011": 1.5218096691,
			"-0.01": 2.99471829811,
			"-0.009": 2.43083386762,
			"-0.008": 2.00808471475,
			"-0.007": 5.70249377494,
			"-0.006": 5.16843160311,
			"-0.005": 9.71477760062,
			"-0.004": 9.47503352551,
			"-0.003": 8.74608697881,
			"-0.002": 10.5911915627,
			"-0.001": 10.10477343,
			"0.0": 14.6730402901,
			"0.001": 19.2841285501,
			"0.002": 27.5085585018,
			"0.003": 28.7909615284,
			"0.004": 31.1662398947,
			"0.005": 8.65643115633,
			"0.006": 1.82729963115,
			"0.007": 1.82755773198,
			"0.008": 1.29059419609,
			"0.009": 0.690410367919,
			"0.01": 0.830938392818,
			"0.011": 0.849607433096,
			"0.012": 1.07631470888,
			"0.013": 0.7786624095,
			"0.014": 0.418862160605,
			"0.015": 0.00889577399781,
			"0.016": 0.0,
			"0.017": 0.0,
			"0.018": 0.0,
			"0.019": 0.0,
			"0.02": 0.0,
			"0.021": 0.0,
			"0.022": 0.0,
			"0.023": 0.0,
			"0.024": 0.0,
			"0.025": 0.0
		}
	}
}
