{
	 "smiles": "ClC1=CC2=C(NC(=O)CS2)C=C1", 
	 "Tm": 487.15, 
	 "num_atms": 18, 
	 "gaussian": { 
		 "optdone": 1, 
		 "sigma_profile": "yes", 
		 "theory": "DFT", 
		 "functional": "B3LYP", 
		 "basiset": "6-31G**", 
		 "properties": { 
			 "R2extent": 3180.4375, 
			 "electric_dipole_moment_norm": 1.60769698638, 
			 "electric_quadrupole_moment_norm": 14.8393733574, 
			 "total_energy": -1296.84004122, 
			 "HOMO_LUMO_gap": 0.18576, 
			 "cosmo_polarized_energy": -11.89, 
			 "cosmo_cavitation_energy": 25.42, 
			 "cosmo_dispersion_energy": -19.75, 
			 "cosmo_repulsion_energy": 1.52, 
			 "cosmo_total_nonelectrostatic_energy": 7.19, 
			 "SMD_solvation_energy": 4.1 
		},
		"coords": [
			{
				"x": 2.5984898899,
				"y": -2.5444173203,
				"z": -1.0024260161,
				"element": "Cl" 
			},
			{
				"x": 1.3673636757,
				"y": -1.4740679166,
				"z": -0.3518770353,
				"element": "C" 
			},
			{
				"x": 0.0916619339,
				"y": -1.4817919983,
				"z": -0.9102385614,
				"element": "C" 
			},
			{
				"x": -0.8992711781,
				"y": -0.6423348097,
				"z": -0.3921259227,
				"element": "C" 
			},
			{
				"x": -0.5950980238,
				"y": 0.2235379234,
				"z": 0.6768725549,
				"element": "C" 
			},
			{
				"x": -1.5790718867,
				"y": 1.0495297079,
				"z": 1.2433658525,
				"element": "N" 
			},
			{
				"x": -2.762630901,
				"y": 1.477219042,
				"z": 0.6785137849,
				"element": "C" 
			},
			{
				"x": -3.5321215761,
				"y": 2.2045396529,
				"z": 1.2824607891,
				"element": "O" 
			},
			{
				"x": -3.0079276308,
				"y": 1.0273580154,
				"z": -0.7538912304,
				"element": "C" 
			},
			{
				"x": -2.5540695386,
				"y": -0.7239869686,
				"z": -1.0329191533,
				"element": "S" 
			},
			{
				"x": 0.7027166099,
				"y": 0.2318139786,
				"z": 1.2030511965,
				"element": "C" 
			},
			{
				"x": 1.6840013626,
				"y": -0.6198672687,
				"z": 0.7040176622,
				"element": "C" 
			},
			{
				"x": -0.1362055003,
				"y": -2.1388130022,
				"z": -1.7420726635,
				"element": "H" 
			},
			{
				"x": -1.4001714609,
				"y": 1.442782621,
				"z": 2.1587970236,
				"element": "H" 
			},
			{
				"x": -4.0732467039,
				"y": 1.1289222925,
				"z": -0.9602655399,
				"element": "H" 
			},
			{
				"x": -2.4511932801,
				"y": 1.6714709456,
				"z": -1.443607641,
				"element": "H" 
			},
			{
				"x": 0.9419327112,
				"y": 0.9089090025,
				"z": 2.0186652585,
				"element": "H" 
			},
			{
				"x": 2.6834414972,
				"y": -0.6142038974,
				"z": 1.1230796413,
				"element": "H" 
			}
		],
		 "valence_orbital": [ 
			{
				"type": "occ",
				"energy": -0.30981,
				"method": "rhf"
			},
			{
				"type": "occ",
				"energy": -0.302,
				"method": "rhf"
			},
			{
				"type": "occ",
				"energy": -0.27264,
				"method": "rhf"
			},
			{
				"type": "occ",
				"energy": -0.24507,
				"method": "rhf"
			},
			{
				"type": "occ",
				"energy": -0.22522,
				"method": "rhf"
			},
			{
				"type": "unocc",
				"energy": -0.03946,
				"method": "rhf"
			},
			{
				"type": "unocc",
				"energy": -0.03068,
				"method": "rhf"
			},
			{
				"type": "unocc",
				"energy": 0.00889,
				"method": "rhf"
			},
			{
				"type": "unocc",
				"energy": 0.01838,
				"method": "rhf"
			},
			{
				"type": "unocc",
				"energy": 0.032,
				"method": "rhf"
			}
		],
		"cosmo_sigma_profile": { 
			"-0.025": 0.0,
			"-0.024": 0.0,
			"-0.023": 0.0,
			"-0.022": 0.0,
			"-0.021": 0.0,
			"-0.02": 0.0,
			"-0.019": 0.0,
			"-0.018": 0.0,
			"-0.017": 0.0,
			"-0.016": 0.224139982844,
			"-0.015": 1.33759587866,
			"-0.014": 0.937370729987,
			"-0.013": 1.3329510665,
			"-0.012": 1.56146098399,
			"-0.011": 1.15300879734,
			"-0.01": 1.1162554844,
			"-0.009": 1.98985969931,
			"-0.008": 8.46281084006,
			"-0.007": 10.7483430604,
			"-0.006": 9.39157891265,
			"-0.005": 10.3144734531,
			"-0.004": 8.31358768769,
			"-0.003": 7.88383431724,
			"-0.002": 10.7632602722,
			"-0.001": 12.2347053034,
			"0.0": 12.2559354619,
			"0.001": 19.3506570916,
			"0.002": 23.4589748714,
			"0.003": 18.3722295195,
			"0.004": 14.8284535097,
			"0.005": 9.66258550809,
			"0.006": 3.75367440997,
			"0.007": 3.00200752204,
			"0.008": 1.10313616463,
			"0.009": 1.284508622,
			"0.01": 2.10519812649,
			"0.011": 2.07807791324,
			"0.012": 4.96619520688,
			"0.013": 3.78604638778,
			"0.014": 0.373030544816,
			"0.015": 0.0,
			"0.016": 0.0,
			"0.017": 0.0,
			"0.018": 0.0,
			"0.019": 0.0,
			"0.02": 0.0,
			"0.021": 0.0,
			"0.022": 0.0,
			"0.023": 0.0,
			"0.024": 0.0,
			"0.025": 0.0
		}
	}
}
