{
	 "smiles": "BrCC1=CC(Br)=CC(Br)=C1", 
	 "Tm": 367.15, 
	 "num_atms": 15, 
	 "gaussian": { 
		 "optdone": 1, 
		 "sigma_profile": "yes", 
		 "theory": "DFT", 
		 "functional": "B3LYP", 
		 "basiset": "6-31G**", 
		 "properties": { 
			 "R2extent": 7050.3508, 
			 "electric_dipole_moment_norm": 1.75523875584, 
			 "electric_quadrupole_moment_norm": 4.38663783324, 
			 "total_energy": -7983.97442076, 
			 "HOMO_LUMO_gap": 0.19827, 
			 "cosmo_polarized_energy": -6.64, 
			 "cosmo_cavitation_energy": 26.56, 
			 "cosmo_dispersion_energy": -20.36, 
			 "cosmo_repulsion_energy": 1.68, 
			 "cosmo_total_nonelectrostatic_energy": 7.88, 
			 "SMD_solvation_energy": 0.95 
		},
		"coords": [
			{
				"x": -1.3440346911,
				"y": -0.9570490656,
				"z": -2.677870188,
				"element": "Br" 
			},
			{
				"x": 0.0662978538,
				"y": -0.3699708222,
				"z": -1.3880771838,
				"element": "C" 
			},
			{
				"x": -0.5094747449,
				"y": 0.3922567701,
				"z": -0.2360637287,
				"element": "C" 
			},
			{
				"x": -0.9086974815,
				"y": -0.2823368058,
				"z": 0.9247387178,
				"element": "C" 
			},
			{
				"x": -1.4298778872,
				"y": 0.4416718725,
				"z": 1.9932455459,
				"element": "C" 
			},
			{
				"x": -1.9663071105,
				"y": -0.479808297,
				"z": 3.5758884397,
				"element": "Br" 
			},
			{
				"x": -1.5672031348,
				"y": 1.8280873954,
				"z": 1.9401039164,
				"element": "C" 
			},
			{
				"x": -1.1656887211,
				"y": 2.4815085624,
				"z": 0.7757677861,
				"element": "C" 
			},
			{
				"x": -1.3368867078,
				"y": 4.3794322345,
				"z": 0.6757458889,
				"element": "Br" 
			},
			{
				"x": -0.6409813548,
				"y": 1.7848457783,
				"z": -0.3090742877,
				"element": "C" 
			},
			{
				"x": 0.7507461295,
				"y": 0.2302717646,
				"z": -1.9844151129,
				"element": "H" 
			},
			{
				"x": 0.5534277744,
				"y": -1.2917454731,
				"z": -1.0759433806,
				"element": "H" 
			},
			{
				"x": -0.8171584156,
				"y": -1.3606264122,
				"z": 0.9915058502,
				"element": "H" 
			},
			{
				"x": -1.9717440681,
				"y": 2.3806118956,
				"z": 2.778050877,
				"element": "H" 
			},
			{
				"x": -0.3407174403,
				"y": 2.3180506024,
				"z": -1.2041031403,
				"element": "H" 
			}
		],
		 "valence_orbital": [ 
			{
				"type": "occ",
				"energy": -0.29733,
				"method": "rhf"
			},
			{
				"type": "occ",
				"energy": -0.2826,
				"method": "rhf"
			},
			{
				"type": "occ",
				"energy": -0.28092,
				"method": "rhf"
			},
			{
				"type": "occ",
				"energy": -0.26333,
				"method": "rhf"
			},
			{
				"type": "occ",
				"energy": -0.25532,
				"method": "rhf"
			},
			{
				"type": "unocc",
				"energy": -0.05705,
				"method": "rhf"
			},
			{
				"type": "unocc",
				"energy": -0.03495,
				"method": "rhf"
			},
			{
				"type": "unocc",
				"energy": -0.02344,
				"method": "rhf"
			},
			{
				"type": "unocc",
				"energy": 0.01128,
				"method": "rhf"
			},
			{
				"type": "unocc",
				"energy": 0.01641,
				"method": "rhf"
			}
		],
		"cosmo_sigma_profile": { 
			"-0.025": 0.0,
			"-0.024": 0.0,
			"-0.023": 0.0,
			"-0.022": 0.0,
			"-0.021": 0.0,
			"-0.02": 0.0,
			"-0.019": 0.0,
			"-0.018": 0.0,
			"-0.017": 0.0,
			"-0.016": 0.0,
			"-0.015": 0.0,
			"-0.014": 0.0,
			"-0.013": 0.0,
			"-0.012": 0.0,
			"-0.011": 0.0,
			"-0.01": 0.0,
			"-0.009": 2.95114635789,
			"-0.008": 10.1855395757,
			"-0.007": 7.78110255406,
			"-0.006": 7.72728661603,
			"-0.005": 9.22441840017,
			"-0.004": 10.6319538716,
			"-0.003": 10.0430303715,
			"-0.002": 12.0890045629,
			"-0.001": 13.1390932945,
			"0.0": 19.2299387881,
			"0.001": 30.8363024035,
			"0.002": 20.164842475,
			"0.003": 21.0407244122,
			"0.004": 26.6848207486,
			"0.005": 9.44578741597,
			"0.006": 11.0232592934,
			"0.007": 0.845835848835,
			"0.008": 0.0,
			"0.009": 0.0,
			"0.01": 0.0,
			"0.011": 0.0,
			"0.012": 0.0,
			"0.013": 0.0,
			"0.014": 0.0,
			"0.015": 0.0,
			"0.016": 0.0,
			"0.017": 0.0,
			"0.018": 0.0,
			"0.019": 0.0,
			"0.02": 0.0,
			"0.021": 0.0,
			"0.022": 0.0,
			"0.023": 0.0,
			"0.024": 0.0,
			"0.025": 0.0
		}
	}
}
