{
	 "smiles": "CN1C=CC(=C1)S(=O)(=O)N1CCNCC1", 
	 "Tm": 403.15, 
	 "num_atms": 30, 
	 "gaussian": { 
		 "optdone": 1, 
		 "sigma_profile": "yes", 
		 "theory": "DFT", 
		 "functional": "B3LYP", 
		 "basiset": "6-31G**", 
		 "properties": { 
			 "R2extent": 4297.8289, 
			 "electric_dipole_moment_norm": 5.55703436106, 
			 "electric_quadrupole_moment_norm": 17.2271918649, 
			 "total_energy": -1064.7812563, 
			 "HOMO_LUMO_gap": 0.22079, 
			 "cosmo_polarized_energy": -19.62, 
			 "cosmo_cavitation_energy": 33.26, 
			 "cosmo_dispersion_energy": -24.07, 
			 "cosmo_repulsion_energy": 1.85, 
			 "cosmo_total_nonelectrostatic_energy": 11.04, 
			 "SMD_solvation_energy": 1.79 
		},
		"coords": [
			{
				"x": -1.8255048965,
				"y": -2.0192501078,
				"z": -2.6445609213,
				"element": "C" 
			},
			{
				"x": -0.7520338686,
				"y": -1.5403410738,
				"z": -1.7873294468,
				"element": "N" 
			},
			{
				"x": 0.5908617001,
				"y": -1.5525244604,
				"z": -2.1124934079,
				"element": "C" 
			},
			{
				"x": 1.2941462517,
				"y": -0.9500707105,
				"z": -1.095780692,
				"element": "C" 
			},
			{
				"x": 0.3322289711,
				"y": -0.5526170646,
				"z": -0.1240147254,
				"element": "C" 
			},
			{
				"x": -0.9195610341,
				"y": -0.932006265,
				"z": -0.5762550521,
				"element": "C" 
			},
			{
				"x": 0.6992771789,
				"y": 0.1700026195,
				"z": 1.4385482829,
				"element": "S" 
			},
			{
				"x": 0.1704556734,
				"y": -0.6499522365,
				"z": 2.5345138335,
				"element": "O" 
			},
			{
				"x": 2.1315171266,
				"y": 0.5124417839,
				"z": 1.4136406191,
				"element": "O" 
			},
			{
				"x": -0.2790274308,
				"y": 1.5561467067,
				"z": 1.4158638169,
				"element": "N" 
			},
			{
				"x": 0.1485548449,
				"y": 2.6234329085,
				"z": 0.4774334189,
				"element": "C" 
			},
			{
				"x": 0.7515040899,
				"y": 3.8193509598,
				"z": 1.2110270504,
				"element": "C" 
			},
			{
				"x": -0.2570198088,
				"y": 4.4206682528,
				"z": 2.1026086725,
				"element": "N" 
			},
			{
				"x": -1.2319432565,
				"y": 3.450792663,
				"z": 2.6243661004,
				"element": "C" 
			},
			{
				"x": -0.6741264243,
				"y": 2.0319477448,
				"z": 2.7675194867,
				"element": "C" 
			},
			{
				"x": -2.0949555353,
				"y": -1.2747259789,
				"z": -3.4012962093,
				"element": "H" 
			},
			{
				"x": -2.7039416342,
				"y": -2.2391634862,
				"z": -2.0352367812,
				"element": "H" 
			},
			{
				"x": -1.5132465962,
				"y": -2.9381364097,
				"z": -3.1462480445,
				"element": "H" 
			},
			{
				"x": 0.9276209735,
				"y": -1.9915921113,
				"z": -3.0401500655,
				"element": "H" 
			},
			{
				"x": 2.3620009952,
				"y": -0.8098889365,
				"z": -1.0257816421,
				"element": "H" 
			},
			{
				"x": -1.8936373913,
				"y": -0.8105167714,
				"z": -0.1278566625,
				"element": "H" 
			},
			{
				"x": 0.8775862732,
				"y": 2.2132033972,
				"z": -0.2238687047,
				"element": "H" 
			},
			{
				"x": -0.7235271126,
				"y": 2.9426830366,
				"z": -0.1054757011,
				"element": "H" 
			},
			{
				"x": 1.0810842606,
				"y": 4.5653451111,
				"z": 0.4760748504,
				"element": "H" 
			},
			{
				"x": 1.6482757045,
				"y": 3.4693195766,
				"z": 1.7446873061,
				"element": "H" 
			},
			{
				"x": 0.2124137414,
				"y": 4.8795890158,
				"z": 2.8760114932,
				"element": "H" 
			},
			{
				"x": -2.1095227702,
				"y": 3.4187572707,
				"z": 1.9644202826,
				"element": "H" 
			},
			{
				"x": -1.5898637275,
				"y": 3.7967816224,
				"z": 3.5988986374,
				"element": "H" 
			},
			{
				"x": -1.4233856925,
				"y": 1.3483566384,
				"z": 3.1738000188,
				"element": "H" 
			},
			{
				"x": 0.1766693942,
				"y": 2.043066305,
				"z": 3.4632341864,
				"element": "H" 
			}
		],
		 "valence_orbital": [ 
			{
				"type": "occ",
				"energy": -0.28128,
				"method": "rhf"
			},
			{
				"type": "occ",
				"energy": -0.258,
				"method": "rhf"
			},
			{
				"type": "occ",
				"energy": -0.23801,
				"method": "rhf"
			},
			{
				"type": "occ",
				"energy": -0.2253,
				"method": "rhf"
			},
			{
				"type": "occ",
				"energy": -0.21608,
				"method": "rhf"
			},
			{
				"type": "unocc",
				"energy": 0.00471,
				"method": "rhf"
			},
			{
				"type": "unocc",
				"energy": 0.03947,
				"method": "rhf"
			},
			{
				"type": "unocc",
				"energy": 0.06927,
				"method": "rhf"
			},
			{
				"type": "unocc",
				"energy": 0.07853,
				"method": "rhf"
			},
			{
				"type": "unocc",
				"energy": 0.09463,
				"method": "rhf"
			}
		],
		"cosmo_sigma_profile": { 
			"-0.025": 0.0,
			"-0.024": 0.0,
			"-0.023": 0.0,
			"-0.022": 0.0,
			"-0.021": 0.0,
			"-0.02": 0.0,
			"-0.019": 0.0,
			"-0.018": 0.0,
			"-0.017": 0.0,
			"-0.016": 0.0,
			"-0.015": 0.0,
			"-0.014": 0.0,
			"-0.013": 0.0,
			"-0.012": 0.0,
			"-0.011": 0.122878141212,
			"-0.01": 1.6150312667,
			"-0.009": 2.74490599883,
			"-0.008": 6.2418023689,
			"-0.007": 10.8872484153,
			"-0.006": 13.6691539854,
			"-0.005": 20.0021061881,
			"-0.004": 31.3999189672,
			"-0.003": 29.1431044155,
			"-0.002": 21.1129847579,
			"-0.001": 14.1951536702,
			"0.0": 10.7456798249,
			"0.001": 11.652832664,
			"0.002": 9.4583514896,
			"0.003": 12.4387257176,
			"0.004": 10.6006225969,
			"0.005": 9.05510487173,
			"0.006": 6.43700746864,
			"0.007": 3.20453935845,
			"0.008": 4.40675573734,
			"0.009": 3.66503461818,
			"0.01": 5.03896228759,
			"0.011": 9.87275365903,
			"0.012": 8.39674366889,
			"0.013": 2.37411945933,
			"0.014": 0.497768946797,
			"0.015": 0.906726632299,
			"0.016": 0.488142474631,
			"0.017": 0.527141935199,
			"0.018": 0.329984259611,
			"0.019": 0.0693877299472,
			"0.02": 0.0,
			"0.021": 0.0,
			"0.022": 0.0,
			"0.023": 0.0,
			"0.024": 0.0,
			"0.025": 0.0
		}
	}
}
