{
	 "smiles": "ClC1=C(Cl)C=C(CC2=NNN=N2)C=C1", 
	 "Tm": 427.15, 
	 "num_atms": 20, 
	 "gaussian": { 
		 "optdone": 1, 
		 "sigma_profile": "yes", 
		 "theory": "DFT", 
		 "functional": "B3LYP", 
		 "basiset": "6-31G**", 
		 "properties": { 
			 "R2extent": 4910.197, 
			 "electric_dipole_moment_norm": 3.2991734677, 
			 "electric_quadrupole_moment_norm": 13.8489984667, 
			 "total_energy": -1447.80642815, 
			 "HOMO_LUMO_gap": 0.20865, 
			 "cosmo_polarized_energy": -13.25, 
			 "cosmo_cavitation_energy": 28.94, 
			 "cosmo_dispersion_energy": -21.43, 
			 "cosmo_repulsion_energy": 1.7, 
			 "cosmo_total_nonelectrostatic_energy": 9.21, 
			 "SMD_solvation_energy": 1.86 
		},
		"coords": [
			{
				"x": 0.089911884,
				"y": 3.554882845,
				"z": -3.2456426207,
				"element": "Cl" 
			},
			{
				"x": 0.0037633858,
				"y": 2.0998726499,
				"z": -2.2831000771,
				"element": "C" 
			},
			{
				"x": 1.1047790534,
				"y": 1.6332545581,
				"z": -1.556408575,
				"element": "C" 
			},
			{
				"x": 2.6331371055,
				"y": 2.4805589466,
				"z": -1.5664753779,
				"element": "Cl" 
			},
			{
				"x": 0.993330049,
				"y": 0.464238632,
				"z": -0.7983689745,
				"element": "C" 
			},
			{
				"x": -0.203584722,
				"y": -0.2517204814,
				"z": -0.7558490359,
				"element": "C" 
			},
			{
				"x": -0.3008820129,
				"y": -1.5349074361,
				"z": 0.0584896878,
				"element": "C" 
			},
			{
				"x": -1.3695380911,
				"y": -1.4972304943,
				"z": 1.108630231,
				"element": "C" 
			},
			{
				"x": -1.1402900402,
				"y": -1.2792199078,
				"z": 2.4019762763,
				"element": "N" 
			},
			{
				"x": -2.377275173,
				"y": -1.320581432,
				"z": 2.8882138685,
				"element": "N" 
			},
			{
				"x": -3.3254050353,
				"y": -1.5479500464,
				"z": 1.9870526114,
				"element": "N" 
			},
			{
				"x": -2.6958216663,
				"y": -1.6641585447,
				"z": 0.8450929554,
				"element": "N" 
			},
			{
				"x": -1.3017692363,
				"y": 0.2236671494,
				"z": -1.4850811271,
				"element": "C" 
			},
			{
				"x": -1.1980859988,
				"y": 1.387148993,
				"z": -2.2398307279,
				"element": "C" 
			},
			{
				"x": 1.8590952856,
				"y": 0.1222464822,
				"z": -0.2408774325,
				"element": "H" 
			},
			{
				"x": 0.6543450969,
				"y": -1.7396393482,
				"z": 0.5474245184,
				"element": "H" 
			},
			{
				"x": -0.515162451,
				"y": -2.3758929856,
				"z": -0.6109463996,
				"element": "H" 
			},
			{
				"x": -2.5843879681,
				"y": -1.1990250616,
				"z": 3.8705129103,
				"element": "H" 
			},
			{
				"x": -2.2441491297,
				"y": -0.3143988605,
				"z": -1.4520110818,
				"element": "H" 
			},
			{
				"x": -2.0473103354,
				"y": 1.7558543423,
				"z": -2.804501629,
				"element": "H" 
			}
		],
		 "valence_orbital": [ 
			{
				"type": "occ",
				"energy": -0.31005,
				"method": "rhf"
			},
			{
				"type": "occ",
				"energy": -0.30377,
				"method": "rhf"
			},
			{
				"type": "occ",
				"energy": -0.30127,
				"method": "rhf"
			},
			{
				"type": "occ",
				"energy": -0.2634,
				"method": "rhf"
			},
			{
				"type": "occ",
				"energy": -0.24803,
				"method": "rhf"
			},
			{
				"type": "unocc",
				"energy": -0.03938,
				"method": "rhf"
			},
			{
				"type": "unocc",
				"energy": -0.02683,
				"method": "rhf"
			},
			{
				"type": "unocc",
				"energy": -0.02383,
				"method": "rhf"
			},
			{
				"type": "unocc",
				"energy": 0.00129,
				"method": "rhf"
			},
			{
				"type": "unocc",
				"energy": 0.02158,
				"method": "rhf"
			}
		],
		"cosmo_sigma_profile": { 
			"-0.025": 0.0,
			"-0.024": 0.0,
			"-0.023": 0.0,
			"-0.022": 0.0,
			"-0.021": 0.0,
			"-0.02": 0.537643543272,
			"-0.019": 1.72587793894,
			"-0.018": 1.3902851914,
			"-0.017": 1.0268660521,
			"-0.016": 0.941243701162,
			"-0.015": 1.31956011703,
			"-0.014": 0.942721245393,
			"-0.013": 0.34959526675,
			"-0.012": 0.697966557827,
			"-0.011": 0.994929050135,
			"-0.01": 1.07123509065,
			"-0.009": 0.896657859316,
			"-0.008": 4.13923547996,
			"-0.007": 7.56527619297,
			"-0.006": 8.39778213264,
			"-0.005": 9.28787163968,
			"-0.004": 11.235375388,
			"-0.003": 14.6552158406,
			"-0.002": 13.5123176205,
			"-0.001": 13.145504787,
			"0.0": 20.6594924926,
			"0.001": 24.0881268508,
			"0.002": 25.4043402046,
			"0.003": 18.9083082606,
			"0.004": 20.0370267252,
			"0.005": 8.24682064258,
			"0.006": 4.7478935066,
			"0.007": 2.78468726051,
			"0.008": 3.55150347403,
			"0.009": 5.25336511993,
			"0.01": 3.21495125262,
			"0.011": 3.02937872642,
			"0.012": 2.34622930779,
			"0.013": 0.85431709183,
			"0.014": 0.290412759572,
			"0.015": 0.0,
			"0.016": 0.0,
			"0.017": 0.0,
			"0.018": 0.0,
			"0.019": 0.0,
			"0.02": 0.0,
			"0.021": 0.0,
			"0.022": 0.0,
			"0.023": 0.0,
			"0.024": 0.0,
			"0.025": 0.0
		}
	}
}
