{
	 "smiles": "COC1=CC(=CC(OC)=C1OCCN1CCOCC1)C(=O)C1=CC=C(Cl)C=C1", 
	 "Tm": 364.65, 
	 "num_atms": 52, 
	 "gaussian": { 
		 "optdone": 1, 
		 "sigma_profile": "yes", 
		 "theory": "DFT", 
		 "functional": "B3LYP", 
		 "basiset": "6-31G**", 
		 "properties": { 
			 "R2extent": 19180.4418, 
			 "electric_dipole_moment_norm": 1.56089923121, 
			 "electric_quadrupole_moment_norm": 15.4611488199, 
			 "total_energy": -1705.69373433, 
			 "HOMO_LUMO_gap": 0.13181, 
			 "cosmo_polarized_energy": -19.2, 
			 "cosmo_cavitation_energy": 56.18, 
			 "cosmo_dispersion_energy": -38.38, 
			 "cosmo_repulsion_energy": 2.95, 
			 "cosmo_total_nonelectrostatic_energy": 20.76, 
			 "SMD_solvation_energy": 8.61 
		},
		"coords": [
			{
				"x": -3.3290188925,
				"y": 1.7158971206,
				"z": -0.7926678021,
				"element": "C" 
			},
			{
				"x": -2.1103518674,
				"y": 1.1050623081,
				"z": -1.1927305001,
				"element": "O" 
			},
			{
				"x": -1.6723131078,
				"y": 0.0317847075,
				"z": -0.4792063787,
				"element": "C" 
			},
			{
				"x": -2.3073499784,
				"y": -0.478587001,
				"z": 0.6534521861,
				"element": "C" 
			},
			{
				"x": -1.7540883878,
				"y": -1.5689155323,
				"z": 1.3375964225,
				"element": "C" 
			},
			{
				"x": -0.5808868713,
				"y": -2.1782597672,
				"z": 0.8676548437,
				"element": "C" 
			},
			{
				"x": 0.0415754853,
				"y": -1.6877773155,
				"z": -0.2846372687,
				"element": "C" 
			},
			{
				"x": 1.162692176,
				"y": -2.2273994463,
				"z": -0.8445602387,
				"element": "O" 
			},
			{
				"x": 1.7248354998,
				"y": -3.3837401107,
				"z": -0.2433559738,
				"element": "C" 
			},
			{
				"x": -0.4881974711,
				"y": -0.5688844874,
				"z": -0.9585303698,
				"element": "C" 
			},
			{
				"x": 0.0653201455,
				"y": -0.1149412855,
				"z": -2.1199041296,
				"element": "O" 
			},
			{
				"x": 1.3343234518,
				"y": 0.5567927172,
				"z": -2.0275399138,
				"element": "C" 
			},
			{
				"x": 1.1654712952,
				"y": 2.017849186,
				"z": -1.5953672614,
				"element": "C" 
			},
			{
				"x": 2.4651118572,
				"y": 2.6961525164,
				"z": -1.6254321471,
				"element": "N" 
			},
			{
				"x": 2.6945158418,
				"y": 3.6822789856,
				"z": -0.5635705324,
				"element": "C" 
			},
			{
				"x": 2.0251188016,
				"y": 5.0312668458,
				"z": -0.8456666436,
				"element": "C" 
			},
			{
				"x": 2.4479536659,
				"y": 5.5454739872,
				"z": -2.104721228,
				"element": "O" 
			},
			{
				"x": 2.1430744677,
				"y": 4.6409686642,
				"z": -3.1620830605,
				"element": "C" 
			},
			{
				"x": 2.8115332138,
				"y": 3.2808517088,
				"z": -2.9288855075,
				"element": "C" 
			},
			{
				"x": -2.5143482154,
				"y": -2.0868795399,
				"z": 2.5170059496,
				"element": "C" 
			},
			{
				"x": -3.7181966193,
				"y": -1.870144179,
				"z": 2.6206989728,
				"element": "O" 
			},
			{
				"x": -1.8214143634,
				"y": -2.8759033364,
				"z": 3.5925112768,
				"element": "C" 
			},
			{
				"x": -2.5842131276,
				"y": -3.8132467198,
				"z": 4.306889282,
				"element": "C" 
			},
			{
				"x": -2.0280502372,
				"y": -4.5433242072,
				"z": 5.3516056081,
				"element": "C" 
			},
			{
				"x": -0.6970096089,
				"y": -4.3111113054,
				"z": 5.7063939106,
				"element": "C" 
			},
			{
				"x": 0.0134070844,
				"y": -5.2213867424,
				"z": 7.0287356288,
				"element": "Cl" 
			},
			{
				"x": 0.0754052814,
				"y": -3.3642260238,
				"z": 5.0351969927,
				"element": "C" 
			},
			{
				"x": -0.4902687787,
				"y": -2.6544897512,
				"z": 3.9759993979,
				"element": "C" 
			},
			{
				"x": -3.5023045336,
				"y": 2.5270968749,
				"z": -1.5012274011,
				"element": "H" 
			},
			{
				"x": -3.2625372813,
				"y": 2.1289633691,
				"z": 0.2219232288,
				"element": "H" 
			},
			{
				"x": -4.1673888884,
				"y": 1.010036608,
				"z": -0.8368988395,
				"element": "H" 
			},
			{
				"x": -3.2291980929,
				"y": -0.0573629382,
				"z": 1.0321052032,
				"element": "H" 
			},
			{
				"x": -0.1886480887,
				"y": -3.0517637874,
				"z": 1.3700292536,
				"element": "H" 
			},
			{
				"x": 2.05463361,
				"y": -3.1881987083,
				"z": 0.7851811977,
				"element": "H" 
			},
			{
				"x": 2.5900395221,
				"y": -3.647088661,
				"z": -0.8532972695,
				"element": "H" 
			},
			{
				"x": 1.0166281469,
				"y": -4.2217636983,
				"z": -0.2400823778,
				"element": "H" 
			},
			{
				"x": 2.0075257836,
				"y": 0.0316316163,
				"z": -1.3446220073,
				"element": "H" 
			},
			{
				"x": 1.7598089949,
				"y": 0.4966928321,
				"z": -3.0332000179,
				"element": "H" 
			},
			{
				"x": 0.3948542491,
				"y": 2.4874554413,
				"z": -2.2252355544,
				"element": "H" 
			},
			{
				"x": 0.7787155217,
				"y": 2.0377648366,
				"z": -0.5710389077,
				"element": "H" 
			},
			{
				"x": 2.3521389489,
				"y": 3.2720263497,
				"z": 0.3929512693,
				"element": "H" 
			},
			{
				"x": 3.7777572497,
				"y": 3.8470866866,
				"z": -0.4841530431,
				"element": "H" 
			},
			{
				"x": 0.9262681034,
				"y": 4.926241055,
				"z": -0.8284566565,
				"element": "H" 
			},
			{
				"x": 2.3072949638,
				"y": 5.7772976268,
				"z": -0.0953719266,
				"element": "H" 
			},
			{
				"x": 1.0497292632,
				"y": 4.5231175945,
				"z": -3.2524402764,
				"element": "H" 
			},
			{
				"x": 2.5096914826,
				"y": 5.1049961809,
				"z": -4.0834400603,
				"element": "H" 
			},
			{
				"x": 3.9005597487,
				"y": 3.4160882397,
				"z": -2.9650624046,
				"element": "H" 
			},
			{
				"x": 2.5421025209,
				"y": 2.5821607833,
				"z": -3.7283914317,
				"element": "H" 
			},
			{
				"x": -3.6230711505,
				"y": -3.954844762,
				"z": 4.0284144665,
				"element": "H" 
			},
			{
				"x": -2.6139689316,
				"y": -5.2782152916,
				"z": 5.8923974301,
				"element": "H" 
			},
			{
				"x": 1.0998033006,
				"y": -3.1827524216,
				"z": 5.3409439973,
				"element": "H" 
			},
			{
				"x": 0.1041348165,
				"y": -1.9058278229,
				"z": 3.4636906125,
				"element": "H" 
			}
		],
		 "valence_orbital": [ 
			{
				"type": "occ",
				"energy": -0.26033,
				"method": "rhf"
			},
			{
				"type": "occ",
				"energy": -0.24841,
				"method": "rhf"
			},
			{
				"type": "occ",
				"energy": -0.2273,
				"method": "rhf"
			},
			{
				"type": "occ",
				"energy": -0.22093,
				"method": "rhf"
			},
			{
				"type": "occ",
				"energy": -0.19928,
				"method": "rhf"
			},
			{
				"type": "unocc",
				"energy": -0.06747,
				"method": "rhf"
			},
			{
				"type": "unocc",
				"energy": -0.02339,
				"method": "rhf"
			},
			{
				"type": "unocc",
				"energy": -0.01709,
				"method": "rhf"
			},
			{
				"type": "unocc",
				"energy": 0.01063,
				"method": "rhf"
			},
			{
				"type": "unocc",
				"energy": 0.02425,
				"method": "rhf"
			}
		],
		"cosmo_sigma_profile": { 
			"-0.025": 0.0,
			"-0.024": 0.0,
			"-0.023": 0.0,
			"-0.022": 0.0,
			"-0.021": 0.0,
			"-0.02": 0.0,
			"-0.019": 0.0,
			"-0.018": 0.0,
			"-0.017": 0.0,
			"-0.016": 0.0,
			"-0.015": 0.0,
			"-0.014": 0.0,
			"-0.013": 0.0,
			"-0.012": 0.0,
			"-0.011": 0.0,
			"-0.01": 0.0,
			"-0.009": 0.0,
			"-0.008": 1.29246007673,
			"-0.007": 6.45915237944,
			"-0.006": 20.9877294137,
			"-0.005": 38.5997818554,
			"-0.004": 44.8846761524,
			"-0.003": 55.5928241754,
			"-0.002": 40.6877664994,
			"-0.001": 32.011697811,
			"0.0": 26.6874519021,
			"0.001": 30.3896718888,
			"0.002": 36.6544840456,
			"0.003": 25.7901518306,
			"0.004": 21.4209636427,
			"0.005": 10.3154606306,
			"0.006": 8.51772617717,
			"0.007": 6.20732001212,
			"0.008": 5.3128171756,
			"0.009": 6.89133415524,
			"0.01": 7.16988228323,
			"0.011": 6.90769065551,
			"0.012": 7.9700246937,
			"0.013": 3.69567173848,
			"0.014": 1.71806566398,
			"0.015": 0.0909084411802,
			"0.016": 0.0,
			"0.017": 0.0,
			"0.018": 0.0,
			"0.019": 0.0,
			"0.02": 0.0,
			"0.021": 0.0,
			"0.022": 0.0,
			"0.023": 0.0,
			"0.024": 0.0,
			"0.025": 0.0
		}
	}
}
