{
	 "smiles": "COC1=CC=CC(OC)=C1N", 
	 "Tm": 350.15, 
	 "num_atms": 22, 
	 "gaussian": { 
		 "optdone": 1, 
		 "sigma_profile": "yes", 
		 "theory": "DFT", 
		 "functional": "B3LYP", 
		 "basiset": "6-31G**", 
		 "properties": { 
			 "R2extent": 2369.444, 
			 "electric_dipole_moment_norm": 1.74357302686, 
			 "electric_quadrupole_moment_norm": 4.94069244843, 
			 "total_energy": -516.65078362, 
			 "HOMO_LUMO_gap": 0.20808, 
			 "cosmo_polarized_energy": -8.23, 
			 "cosmo_cavitation_energy": 25.31, 
			 "cosmo_dispersion_energy": -18.29, 
			 "cosmo_repulsion_energy": 1.49, 
			 "cosmo_total_nonelectrostatic_energy": 8.51, 
			 "SMD_solvation_energy": 5.73 
		},
		"coords": [
			{
				"x": -3.5495005705,
				"y": -2.2349944209,
				"z": 1.2947780894,
				"element": "C" 
			},
			{
				"x": -2.3950458487,
				"y": -2.5753654202,
				"z": 0.5229047533,
				"element": "O" 
			},
			{
				"x": -1.4419388211,
				"y": -1.5694619734,
				"z": 0.4669823481,
				"element": "C" 
			},
			{
				"x": -0.4267611659,
				"y": -1.4895409867,
				"z": 1.4175166135,
				"element": "C" 
			},
			{
				"x": 0.5535894538,
				"y": -0.5002427813,
				"z": 1.313547655,
				"element": "C" 
			},
			{
				"x": 0.506917142,
				"y": 0.4106356888,
				"z": 0.2558480361,
				"element": "C" 
			},
			{
				"x": -0.5097490695,
				"y": 0.3278552649,
				"z": -0.6928512351,
				"element": "C" 
			},
			{
				"x": -0.5453568429,
				"y": 1.1901513576,
				"z": -1.778485336,
				"element": "O" 
			},
			{
				"x": -1.2756542545,
				"y": 2.3950500277,
				"z": -1.5350708732,
				"element": "C" 
			},
			{
				"x": -1.5063261766,
				"y": -0.661297349,
				"z": -0.6055335411,
				"element": "C" 
			},
			{
				"x": -2.5377472656,
				"y": -0.7269067876,
				"z": -1.541796237,
				"element": "N" 
			},
			{
				"x": -4.2198876094,
				"y": -3.0966715643,
				"z": 1.2524816707,
				"element": "H" 
			},
			{
				"x": -3.282058181,
				"y": -2.0361603623,
				"z": 2.340296094,
				"element": "H" 
			},
			{
				"x": -4.0597698538,
				"y": -1.3548585586,
				"z": 0.8838203472,
				"element": "H" 
			},
			{
				"x": -0.406804524,
				"y": -2.2221053874,
				"z": 2.2185840168,
				"element": "H" 
			},
			{
				"x": 1.350775761,
				"y": -0.4431437395,
				"z": 2.047687671,
				"element": "H" 
			},
			{
				"x": 1.2645772605,
				"y": 1.1794486134,
				"z": 0.1390802562,
				"element": "H" 
			},
			{
				"x": -1.2369957787,
				"y": 2.9769643892,
				"z": -2.4589642782,
				"element": "H" 
			},
			{
				"x": -0.8211054546,
				"y": 2.9760544107,
				"z": -0.722678969,
				"element": "H" 
			},
			{
				"x": -2.3216962417,
				"y": 2.1836906065,
				"z": -1.2800996473,
				"element": "H" 
			},
			{
				"x": -2.9261087166,
				"y": -1.6585703444,
				"z": -1.6225967828,
				"element": "H" 
			},
			{
				"x": -2.2732532424,
				"y": -0.3298306833,
				"z": -2.4349506515,
				"element": "H" 
			}
		],
		 "valence_orbital": [ 
			{
				"type": "occ",
				"energy": -0.30468,
				"method": "rhf"
			},
			{
				"type": "occ",
				"energy": -0.27452,
				"method": "rhf"
			},
			{
				"type": "occ",
				"energy": -0.26664,
				"method": "rhf"
			},
			{
				"type": "occ",
				"energy": -0.22988,
				"method": "rhf"
			},
			{
				"type": "occ",
				"energy": -0.19718,
				"method": "rhf"
			},
			{
				"type": "unocc",
				"energy": 0.0109,
				"method": "rhf"
			},
			{
				"type": "unocc",
				"energy": 0.02015,
				"method": "rhf"
			},
			{
				"type": "unocc",
				"energy": 0.07797,
				"method": "rhf"
			},
			{
				"type": "unocc",
				"energy": 0.10709,
				"method": "rhf"
			},
			{
				"type": "unocc",
				"energy": 0.11703,
				"method": "rhf"
			}
		],
		"cosmo_sigma_profile": { 
			"-0.025": 0.0,
			"-0.024": 0.0,
			"-0.023": 0.0,
			"-0.022": 0.0,
			"-0.021": 0.0,
			"-0.02": 0.0,
			"-0.019": 0.0,
			"-0.018": 0.0,
			"-0.017": 0.0,
			"-0.016": 0.0,
			"-0.015": 0.0,
			"-0.014": 0.0,
			"-0.013": 0.0,
			"-0.012": 0.0149700039131,
			"-0.011": 0.889353744417,
			"-0.01": 1.95692568978,
			"-0.009": 1.93382506711,
			"-0.008": 2.07874928953,
			"-0.007": 1.86051001679,
			"-0.006": 4.81180693136,
			"-0.005": 11.797432063,
			"-0.004": 20.0083991091,
			"-0.003": 25.7838550808,
			"-0.002": 24.8490922148,
			"-0.001": 15.7459329597,
			"0.0": 9.23527107096,
			"0.001": 10.7422214917,
			"0.002": 8.88606812733,
			"0.003": 9.65633561636,
			"0.004": 10.8497177996,
			"0.005": 11.4779787083,
			"0.006": 8.21825884271,
			"0.007": 4.37779643836,
			"0.008": 3.3100123809,
			"0.009": 2.34709960651,
			"0.01": 1.97220502859,
			"0.011": 3.34458320155,
			"0.012": 2.71881045909,
			"0.013": 0.546008357431,
			"0.014": 0.306149517197,
			"0.015": 0.0,
			"0.016": 0.0,
			"0.017": 0.0,
			"0.018": 0.0,
			"0.019": 0.0,
			"0.02": 0.0,
			"0.021": 0.0,
			"0.022": 0.0,
			"0.023": 0.0,
			"0.024": 0.0,
			"0.025": 0.0
		}
	}
}
