{
	 "smiles": "CN(CCOC1=C(F)C=CC=C1)C(=O)CCl", 
	 "Tm": 342.15, 
	 "num_atms": 29, 
	 "gaussian": { 
		 "optdone": 1, 
		 "sigma_profile": "yes", 
		 "theory": "DFT", 
		 "functional": "B3LYP", 
		 "basiset": "6-31G**", 
		 "properties": { 
			 "R2extent": 6210.9522, 
			 "electric_dipole_moment_norm": 4.63308510174, 
			 "electric_quadrupole_moment_norm": 11.7456902305, 
			 "total_energy": -1192.22406812, 
			 "HOMO_LUMO_gap": 0.20939, 
			 "cosmo_polarized_energy": -14.6, 
			 "cosmo_cavitation_energy": 34.69, 
			 "cosmo_dispersion_energy": -24.36, 
			 "cosmo_repulsion_energy": 1.89, 
			 "cosmo_total_nonelectrostatic_energy": 12.22, 
			 "SMD_solvation_energy": 6.86 
		},
		"coords": [
			{
				"x": 0.4221410276,
				"y": 0.4662470466,
				"z": -3.1692761401,
				"element": "C" 
			},
			{
				"x": 0.0367250013,
				"y": -0.5696632403,
				"z": -2.2057800029,
				"element": "N" 
			},
			{
				"x": -0.8645710434,
				"y": -0.1743071774,
				"z": -1.1274183701,
				"element": "C" 
			},
			{
				"x": -0.1654507203,
				"y": 0.3975743222,
				"z": 0.1051912709,
				"element": "C" 
			},
			{
				"x": 0.4737368701,
				"y": 1.6070083317,
				"z": -0.2804513302,
				"element": "O" 
			},
			{
				"x": 1.2920684368,
				"y": 2.2353614647,
				"z": 0.6101485361,
				"element": "C" 
			},
			{
				"x": 2.0609608261,
				"y": 3.2886503537,
				"z": 0.0884134658,
				"element": "C" 
			},
			{
				"x": 1.9427757698,
				"y": 3.5694053195,
				"z": -1.2261767164,
				"element": "F" 
			},
			{
				"x": 2.9245017846,
				"y": 4.0239994082,
				"z": 0.8801395893,
				"element": "C" 
			},
			{
				"x": 3.0420652467,
				"y": 3.7101988142,
				"z": 2.2392996869,
				"element": "C" 
			},
			{
				"x": 2.2921354723,
				"y": 2.6662657534,
				"z": 2.7738834893,
				"element": "C" 
			},
			{
				"x": 1.4180987189,
				"y": 1.9276768579,
				"z": 1.966784401,
				"element": "C" 
			},
			{
				"x": 0.5145983124,
				"y": -1.8406807992,
				"z": -2.3898459706,
				"element": "C" 
			},
			{
				"x": 1.2835774616,
				"y": -2.1490180862,
				"z": -3.2930592019,
				"element": "O" 
			},
			{
				"x": 0.0839775205,
				"y": -2.9289441002,
				"z": -1.3985637897,
				"element": "C" 
			},
			{
				"x": -1.6167704193,
				"y": -3.5067805097,
				"z": -1.6924293444,
				"element": "Cl" 
			},
			{
				"x": 1.1024955982,
				"y": 0.0178689306,
				"z": -3.8905821148,
				"element": "H" 
			},
			{
				"x": 0.9072803951,
				"y": 1.3006285937,
				"z": -2.6588330242,
				"element": "H" 
			},
			{
				"x": -0.4674340671,
				"y": 0.8389074239,
				"z": -3.6916395293,
				"element": "H" 
			},
			{
				"x": -1.4842418229,
				"y": -1.0190487304,
				"z": -0.8200732323,
				"element": "H" 
			},
			{
				"x": -1.5478315777,
				"y": 0.5855456564,
				"z": -1.522264352,
				"element": "H" 
			},
			{
				"x": -0.9119613502,
				"y": 0.5873781384,
				"z": 0.8909006423,
				"element": "H" 
			},
			{
				"x": 0.5761855816,
				"y": -0.3116829249,
				"z": 0.4991955176,
				"element": "H" 
			},
			{
				"x": 3.4957614759,
				"y": 4.8258173584,
				"z": 0.4245475092,
				"element": "H" 
			},
			{
				"x": 3.7183184605,
				"y": 4.2808239464,
				"z": 2.8673032534,
				"element": "H" 
			},
			{
				"x": 2.3784593336,
				"y": 2.4157897972,
				"z": 3.8266331129,
				"element": "H" 
			},
			{
				"x": 0.8370010471,
				"y": 1.1214798926,
				"z": 2.3996251288,
				"element": "H" 
			},
			{
				"x": 0.1356929888,
				"y": -2.6216912442,
				"z": -0.3530891262,
				"element": "H" 
			},
			{
				"x": 0.7353036714,
				"y": -3.7822105971,
				"z": -1.5702833585,
				"element": "H" 
			}
		],
		 "valence_orbital": [ 
			{
				"type": "occ",
				"energy": -0.30805,
				"method": "rhf"
			},
			{
				"type": "occ",
				"energy": -0.25881,
				"method": "rhf"
			},
			{
				"type": "occ",
				"energy": -0.25489,
				"method": "rhf"
			},
			{
				"type": "occ",
				"energy": -0.24707,
				"method": "rhf"
			},
			{
				"type": "occ",
				"energy": -0.23117,
				"method": "rhf"
			},
			{
				"type": "unocc",
				"energy": -0.02178,
				"method": "rhf"
			},
			{
				"type": "unocc",
				"energy": -0.00997,
				"method": "rhf"
			},
			{
				"type": "unocc",
				"energy": -0.00126,
				"method": "rhf"
			},
			{
				"type": "unocc",
				"energy": 0.04537,
				"method": "rhf"
			},
			{
				"type": "unocc",
				"energy": 0.06735,
				"method": "rhf"
			}
		],
		"cosmo_sigma_profile": { 
			"-0.025": 0.0,
			"-0.024": 0.0,
			"-0.023": 0.0,
			"-0.022": 0.0,
			"-0.021": 0.0,
			"-0.02": 0.0,
			"-0.019": 0.0,
			"-0.018": 0.0,
			"-0.017": 0.0,
			"-0.016": 0.0,
			"-0.015": 0.0,
			"-0.014": 0.0,
			"-0.013": 0.0,
			"-0.012": 0.0,
			"-0.011": 0.0,
			"-0.01": 0.763935136876,
			"-0.009": 3.99577440524,
			"-0.008": 4.49678447807,
			"-0.007": 10.3798909555,
			"-0.006": 22.5308962958,
			"-0.005": 22.9833712109,
			"-0.004": 17.8905358368,
			"-0.003": 14.0411734585,
			"-0.002": 15.2978311942,
			"-0.001": 17.2805225064,
			"0.0": 15.6337364143,
			"0.001": 20.6698720511,
			"0.002": 22.7085706881,
			"0.003": 19.8851027472,
			"0.004": 23.7040061621,
			"0.005": 20.5652167303,
			"0.006": 7.16305336065,
			"0.007": 2.60752896328,
			"0.008": 1.55633711927,
			"0.009": 1.51977504048,
			"0.01": 1.40845703928,
			"0.011": 1.65060528639,
			"0.012": 2.49047001418,
			"0.013": 5.03817880331,
			"0.014": 1.61905407354,
			"0.015": 0.00475470319601,
			"0.016": 0.0,
			"0.017": 0.0,
			"0.018": 0.0,
			"0.019": 0.0,
			"0.02": 0.0,
			"0.021": 0.0,
			"0.022": 0.0,
			"0.023": 0.0,
			"0.024": 0.0,
			"0.025": 0.0
		}
	}
}
