{
	 "smiles": "ON=CC1=C(Cl)N=C(Cl)N1C1=CC=CC=C1", 
	 "Tm": 453.15, 
	 "num_atms": 23, 
	 "gaussian": { 
		 "optdone": 1, 
		 "sigma_profile": "yes", 
		 "theory": "DFT", 
		 "functional": "B3LYP", 
		 "basiset": "6-31G**", 
		 "properties": { 
			 "R2extent": 5479.3373, 
			 "electric_dipole_moment_norm": 5.09655665131, 
			 "electric_quadrupole_moment_norm": 17.9781625262, 
			 "total_energy": -1545.06105509, 
			 "HOMO_LUMO_gap": 0.1783, 
			 "cosmo_polarized_energy": -13.27, 
			 "cosmo_cavitation_energy": 32.05, 
			 "cosmo_dispersion_energy": -22.62, 
			 "cosmo_repulsion_energy": 1.8, 
			 "cosmo_total_nonelectrostatic_energy": 11.22, 
			 "SMD_solvation_energy": 3.27 
		},
		"coords": [
			{
				"x": 3.2179021049,
				"y": 0.8423808259,
				"z": -3.265393211,
				"element": "O" 
			},
			{
				"x": 3.0062168265,
				"y": -0.3173482822,
				"z": -2.5265225742,
				"element": "N" 
			},
			{
				"x": 2.3838471876,
				"y": -0.0991452459,
				"z": -1.4231197962,
				"element": "C" 
			},
			{
				"x": 1.9461397331,
				"y": 1.1614038638,
				"z": -0.8377556703,
				"element": "C" 
			},
			{
				"x": 2.5049094547,
				"y": 2.418430601,
				"z": -0.6739876472,
				"element": "C" 
			},
			{
				"x": 4.057413401,
				"y": 2.9609886192,
				"z": -1.1934751593,
				"element": "Cl" 
			},
			{
				"x": 1.7137677249,
				"y": 3.2401914237,
				"z": 0.0707646009,
				"element": "N" 
			},
			{
				"x": 0.6738653591,
				"y": 2.5077208885,
				"z": 0.3778528556,
				"element": "C" 
			},
			{
				"x": -0.6826136141,
				"y": 3.0765888687,
				"z": 1.2756597025,
				"element": "Cl" 
			},
			{
				"x": 0.7393876723,
				"y": 1.2338182863,
				"z": -0.1176296703,
				"element": "N" 
			},
			{
				"x": -0.2432324024,
				"y": 0.1951077328,
				"z": -0.0135001579,
				"element": "C" 
			},
			{
				"x": -0.8927273222,
				"y": -0.2551121279,
				"z": -1.1664496675,
				"element": "C" 
			},
			{
				"x": -1.8386043636,
				"y": -1.2747889819,
				"z": -1.0642588271,
				"element": "C" 
			},
			{
				"x": -2.1395307559,
				"y": -1.8320493317,
				"z": 0.1804215505,
				"element": "C" 
			},
			{
				"x": -1.4877003684,
				"y": -1.3740971373,
				"z": 1.3272544357,
				"element": "C" 
			},
			{
				"x": -0.5308439847,
				"y": -0.3635018631,
				"z": 1.2344288983,
				"element": "C" 
			},
			{
				"x": 3.7165892169,
				"y": 0.5178404533,
				"z": -4.027395496,
				"element": "H" 
			},
			{
				"x": 2.1541842636,
				"y": -1.0087034429,
				"z": -0.8716033559,
				"element": "H" 
			},
			{
				"x": -0.6572524079,
				"y": 0.1948116284,
				"z": -2.1252071256,
				"element": "H" 
			},
			{
				"x": -2.3443995207,
				"y": -1.6279571034,
				"z": -1.9575348145,
				"element": "H" 
			},
			{
				"x": -2.8799862964,
				"y": -2.622515681,
				"z": 0.2563318066,
				"element": "H" 
			},
			{
				"x": -1.7168628211,
				"y": -1.807735218,
				"z": 2.2957493356,
				"element": "H" 
			},
			{
				"x": -0.0083690872,
				"y": -0.0076287766,
				"z": 2.1160699871,
				"element": "H" 
			}
		],
		 "valence_orbital": [ 
			{
				"type": "occ",
				"energy": -0.28522,
				"method": "rhf"
			},
			{
				"type": "occ",
				"energy": -0.27945,
				"method": "rhf"
			},
			{
				"type": "occ",
				"energy": -0.27568,
				"method": "rhf"
			},
			{
				"type": "occ",
				"energy": -0.26283,
				"method": "rhf"
			},
			{
				"type": "occ",
				"energy": -0.22336,
				"method": "rhf"
			},
			{
				"type": "unocc",
				"energy": -0.04506,
				"method": "rhf"
			},
			{
				"type": "unocc",
				"energy": -0.03238,
				"method": "rhf"
			},
			{
				"type": "unocc",
				"energy": -0.02285,
				"method": "rhf"
			},
			{
				"type": "unocc",
				"energy": 0.0153,
				"method": "rhf"
			},
			{
				"type": "unocc",
				"energy": 0.02778,
				"method": "rhf"
			}
		],
		"cosmo_sigma_profile": { 
			"-0.025": 0.0,
			"-0.024": 0.0,
			"-0.023": 0.0,
			"-0.022": 0.0,
			"-0.021": 0.0,
			"-0.02": 0.0,
			"-0.019": 0.0,
			"-0.018": 0.498921201941,
			"-0.017": 1.32386629766,
			"-0.016": 0.71563032041,
			"-0.015": 0.780941981404,
			"-0.014": 0.911105444015,
			"-0.013": 0.727100797226,
			"-0.012": 0.362047197004,
			"-0.011": 0.531715584558,
			"-0.01": 0.700538715305,
			"-0.009": 1.29034737252,
			"-0.008": 3.08481058554,
			"-0.007": 9.36422160771,
			"-0.006": 15.6689715398,
			"-0.005": 16.0150570363,
			"-0.004": 16.4589111413,
			"-0.003": 14.6793308755,
			"-0.002": 15.0543708477,
			"-0.001": 16.9904554699,
			"0.0": 17.6002359253,
			"0.001": 19.5428249554,
			"0.002": 24.7060037507,
			"0.003": 27.2167963759,
			"0.004": 19.52946055,
			"0.005": 9.03866971074,
			"0.006": 6.2617450712,
			"0.007": 6.00987094665,
			"0.008": 4.47794643571,
			"0.009": 4.06682044899,
			"0.01": 2.21477174867,
			"0.011": 1.95399953013,
			"0.012": 2.27408179659,
			"0.013": 1.29769359287,
			"0.014": 0.77037128139,
			"0.015": 0.140290453784,
			"0.016": 0.0,
			"0.017": 0.0,
			"0.018": 0.0,
			"0.019": 0.0,
			"0.02": 0.0,
			"0.021": 0.0,
			"0.022": 0.0,
			"0.023": 0.0,
			"0.024": 0.0,
			"0.025": 0.0
		}
	}
}
