{
	 "smiles": "CCOC(=O)C1=CC2=C(N(C)C1=O)C1=CC=CC=C1OC2=O", 
	 "Tm": 475.15, 
	 "num_atms": 35, 
	 "gaussian": { 
		 "optdone": 1, 
		 "sigma_profile": "yes", 
		 "theory": "DFT", 
		 "functional": "B3LYP", 
		 "basiset": "6-31G**", 
		 "properties": { 
			 "R2extent": 9115.9504, 
			 "electric_dipole_moment_norm": 6.41618785729, 
			 "electric_quadrupole_moment_norm": 28.9589405834, 
			 "total_energy": -1048.44058949, 
			 "HOMO_LUMO_gap": 0.14238, 
			 "cosmo_polarized_energy": -20.62, 
			 "cosmo_cavitation_energy": 39.13, 
			 "cosmo_dispersion_energy": -28.64, 
			 "cosmo_repulsion_energy": 2.14, 
			 "cosmo_total_nonelectrostatic_energy": 12.64, 
			 "SMD_solvation_energy": 9.12 
		},
		"coords": [
			{
				"x": 4.7799486976,
				"y": -2.7423744229,
				"z": -0.0828344974,
				"element": "C" 
			},
			{
				"x": 4.9385092054,
				"y": -1.5491539981,
				"z": -1.0134909281,
				"element": "C" 
			},
			{
				"x": 3.83237812,
				"y": -0.6247755376,
				"z": -0.8785220242,
				"element": "O" 
			},
			{
				"x": 2.7377046155,
				"y": -0.8964619588,
				"z": -1.603188956,
				"element": "C" 
			},
			{
				"x": 2.6292526079,
				"y": -1.8618792152,
				"z": -2.3396278521,
				"element": "O" 
			},
			{
				"x": 1.6286205645,
				"y": 0.0905628299,
				"z": -1.4172597669,
				"element": "C" 
			},
			{
				"x": 0.4287437722,
				"y": -0.2216812533,
				"z": -1.9942810435,
				"element": "C" 
			},
			{
				"x": -0.7146481004,
				"y": 0.5969430626,
				"z": -1.8469179238,
				"element": "C" 
			},
			{
				"x": -0.6421477799,
				"y": 1.7730554638,
				"z": -1.0934698666,
				"element": "C" 
			},
			{
				"x": 0.5874671842,
				"y": 2.1762987715,
				"z": -0.6415888894,
				"element": "N" 
			},
			{
				"x": 0.8671823264,
				"y": 3.5390642056,
				"z": -0.162166341,
				"element": "C" 
			},
			{
				"x": 1.7839980931,
				"y": 1.3533872916,
				"z": -0.7058679787,
				"element": "C" 
			},
			{
				"x": 2.8040379262,
				"y": 1.7989053237,
				"z": -0.2050136108,
				"element": "O" 
			},
			{
				"x": -1.8965866137,
				"y": 2.4786924682,
				"z": -0.8091300724,
				"element": "C" 
			},
			{
				"x": -2.1056212729,
				"y": 3.4530146343,
				"z": 0.1952783557,
				"element": "C" 
			},
			{
				"x": -3.3439309049,
				"y": 4.0486412476,
				"z": 0.3849541843,
				"element": "C" 
			},
			{
				"x": -4.4295508788,
				"y": 3.6891704551,
				"z": -0.4232037703,
				"element": "C" 
			},
			{
				"x": -4.2772717389,
				"y": 2.6954122439,
				"z": -1.3787223513,
				"element": "C" 
			},
			{
				"x": -3.035200172,
				"y": 2.0768153675,
				"z": -1.5455660582,
				"element": "C" 
			},
			{
				"x": -3.0156763676,
				"y": 1.0507632108,
				"z": -2.441328902,
				"element": "O" 
			},
			{
				"x": -1.9323263711,
				"y": 0.1907701338,
				"z": -2.5471751728,
				"element": "C" 
			},
			{
				"x": -2.0559119308,
				"y": -0.7882613103,
				"z": -3.2433041665,
				"element": "O" 
			},
			{
				"x": 3.9098292888,
				"y": -3.3387050707,
				"z": -0.3674237356,
				"element": "H" 
			},
			{
				"x": 4.6632758591,
				"y": -2.4133775655,
				"z": 0.9539117235,
				"element": "H" 
			},
			{
				"x": 5.6683585382,
				"y": -3.3799470322,
				"z": -0.1436193771,
				"element": "H" 
			},
			{
				"x": 5.8155492103,
				"y": -0.9521766925,
				"z": -0.7536193266,
				"element": "H" 
			},
			{
				"x": 5.0085367846,
				"y": -1.8686298273,
				"z": -2.0559219194,
				"element": "H" 
			},
			{
				"x": 0.340501839,
				"y": -1.1378293385,
				"z": -2.5682889298,
				"element": "H" 
			},
			{
				"x": 0.169165543,
				"y": 4.2391852143,
				"z": -0.6157833924,
				"element": "H" 
			},
			{
				"x": 0.8197085286,
				"y": 3.6040136323,
				"z": 0.9286531656,
				"element": "H" 
			},
			{
				"x": 1.8882841878,
				"y": 3.7771813485,
				"z": -0.4545473636,
				"element": "H" 
			},
			{
				"x": -1.3005315419,
				"y": 3.7262359341,
				"z": 0.8601941352,
				"element": "H" 
			},
			{
				"x": -3.4661459326,
				"y": 4.7893957737,
				"z": 1.1682973203,
				"element": "H" 
			},
			{
				"x": -5.3963035489,
				"y": 4.163630551,
				"z": -0.2866765345,
				"element": "H" 
			},
			{
				"x": -5.1036997379,
				"y": 2.3545140589,
				"z": -1.9923481333,
				"element": "H" 
			}
		],
		 "valence_orbital": [ 
			{
				"type": "occ",
				"energy": -0.28651,
				"method": "rhf"
			},
			{
				"type": "occ",
				"energy": -0.27152,
				"method": "rhf"
			},
			{
				"type": "occ",
				"energy": -0.26657,
				"method": "rhf"
			},
			{
				"type": "occ",
				"energy": -0.26069,
				"method": "rhf"
			},
			{
				"type": "occ",
				"energy": -0.23358,
				"method": "rhf"
			},
			{
				"type": "unocc",
				"energy": -0.0912,
				"method": "rhf"
			},
			{
				"type": "unocc",
				"energy": -0.04725,
				"method": "rhf"
			},
			{
				"type": "unocc",
				"energy": -0.02589,
				"method": "rhf"
			},
			{
				"type": "unocc",
				"energy": -0.01307,
				"method": "rhf"
			},
			{
				"type": "unocc",
				"energy": 0.01298,
				"method": "rhf"
			}
		],
		"cosmo_sigma_profile": { 
			"-0.025": 0.0,
			"-0.024": 0.0,
			"-0.023": 0.0,
			"-0.022": 0.0,
			"-0.021": 0.0,
			"-0.02": 0.0,
			"-0.019": 0.0,
			"-0.018": 0.0,
			"-0.017": 0.0,
			"-0.016": 0.0,
			"-0.015": 0.0,
			"-0.014": 0.0,
			"-0.013": 0.0,
			"-0.012": 0.0,
			"-0.011": 0.0,
			"-0.01": 0.00491319558139,
			"-0.009": 1.57259306482,
			"-0.008": 4.31163839009,
			"-0.007": 12.740700218,
			"-0.006": 16.9295875552,
			"-0.005": 23.1281878199,
			"-0.004": 31.4539213836,
			"-0.003": 34.4710615009,
			"-0.002": 28.4375895271,
			"-0.001": 26.8201659563,
			"0.0": 24.2473875611,
			"0.001": 18.6096409435,
			"0.002": 15.0599948823,
			"0.003": 10.9935760537,
			"0.004": 5.84738371819,
			"0.005": 5.20353712767,
			"0.006": 5.13304145098,
			"0.007": 5.63475646064,
			"0.008": 5.45372484499,
			"0.009": 5.43330923501,
			"0.01": 6.16251799488,
			"0.011": 10.3090075364,
			"0.012": 9.30778224902,
			"0.013": 3.16597041683,
			"0.014": 2.01071205982,
			"0.015": 1.31635018664,
			"0.016": 0.0737961808436,
			"0.017": 0.0,
			"0.018": 0.0,
			"0.019": 0.0,
			"0.02": 0.0,
			"0.021": 0.0,
			"0.022": 0.0,
			"0.023": 0.0,
			"0.024": 0.0,
			"0.025": 0.0
		}
	}
}
