{
	 "smiles": "CC(CN1CCCCC1)C(=O)C1=CC=C(C)C=C1", 
	 "Tm": 449.15, 
	 "num_atms": 41, 
	 "gaussian": { 
		 "optdone": 1, 
		 "sigma_profile": "yes", 
		 "theory": "DFT", 
		 "functional": "B3LYP", 
		 "basiset": "6-31G**", 
		 "properties": { 
			 "R2extent": 6205.2227, 
			 "electric_dipole_moment_norm": 3.51956420314, 
			 "electric_quadrupole_moment_norm": 13.9882908427, 
			 "total_energy": -753.537570446, 
			 "HOMO_LUMO_gap": 0.14437, 
			 "cosmo_polarized_energy": -9.71, 
			 "cosmo_cavitation_energy": 40.38, 
			 "cosmo_dispersion_energy": -28.35, 
			 "cosmo_repulsion_energy": 2.22, 
			 "cosmo_total_nonelectrostatic_energy": 14.25, 
			 "SMD_solvation_energy": 4.33 
		},
		"coords": [
			{
				"x": -1.3080301074,
				"y": 2.0495271196,
				"z": 1.9670739243,
				"element": "C" 
			},
			{
				"x": -0.0005427758,
				"y": 1.8870923203,
				"z": 1.1593332159,
				"element": "C" 
			},
			{
				"x": 0.7624081621,
				"y": 0.5887081426,
				"z": 1.5454237629,
				"element": "C" 
			},
			{
				"x": 2.2136577047,
				"y": 0.740685872,
				"z": 1.4853793008,
				"element": "N" 
			},
			{
				"x": 2.9536478719,
				"y": -0.2677712685,
				"z": 2.2719127616,
				"element": "C" 
			},
			{
				"x": 3.5213387827,
				"y": -1.4124702841,
				"z": 1.419915228,
				"element": "C" 
			},
			{
				"x": 4.5388660273,
				"y": -0.8585026942,
				"z": 0.3941300884,
				"element": "C" 
			},
			{
				"x": 4.2158424654,
				"y": 0.6098083753,
				"z": 0.0340059807,
				"element": "C" 
			},
			{
				"x": 2.7112990961,
				"y": 0.8789832878,
				"z": 0.104693888,
				"element": "C" 
			},
			{
				"x": -0.2481051356,
				"y": 2.1131131369,
				"z": -0.34138558,
				"element": "C" 
			},
			{
				"x": 0.2392998833,
				"y": 3.1056805747,
				"z": -0.870064102,
				"element": "O" 
			},
			{
				"x": -1.096121146,
				"y": 1.1884450216,
				"z": -1.1730575564,
				"element": "C" 
			},
			{
				"x": -1.2506598311,
				"y": 1.5156358253,
				"z": -2.5327644713,
				"element": "C" 
			},
			{
				"x": -2.0183070429,
				"y": 0.7258105041,
				"z": -3.3774656971,
				"element": "C" 
			},
			{
				"x": -2.6654799308,
				"y": -0.4265054239,
				"z": -2.9015023875,
				"element": "C" 
			},
			{
				"x": -3.4835919961,
				"y": -1.2907843518,
				"z": -3.8295855996,
				"element": "C" 
			},
			{
				"x": -2.5152848233,
				"y": -0.7514101513,
				"z": -1.5486669817,
				"element": "C" 
			},
			{
				"x": -1.7440993079,
				"y": 0.0387531241,
				"z": -0.6960537338,
				"element": "C" 
			},
			{
				"x": -1.8397488553,
				"y": 2.9594926139,
				"z": 1.6716637309,
				"element": "H" 
			},
			{
				"x": -1.9963788506,
				"y": 1.2092936996,
				"z": 1.8438698795,
				"element": "H" 
			},
			{
				"x": -1.0711917588,
				"y": 2.1331791465,
				"z": 3.0327624691,
				"element": "H" 
			},
			{
				"x": 0.6578163496,
				"y": 2.7157293638,
				"z": 1.4369178349,
				"element": "H" 
			},
			{
				"x": 0.5005444415,
				"y": 0.3606205766,
				"z": 2.584542322,
				"element": "H" 
			},
			{
				"x": 0.4080729002,
				"y": -0.2636476345,
				"z": 0.935618177,
				"element": "H" 
			},
			{
				"x": 2.2892638419,
				"y": -0.6591737604,
				"z": 3.0489186967,
				"element": "H" 
			},
			{
				"x": 3.7827642105,
				"y": 0.2259563449,
				"z": 2.7995610343,
				"element": "H" 
			},
			{
				"x": 3.986690213,
				"y": -2.1683781415,
				"z": 2.0630176703,
				"element": "H" 
			},
			{
				"x": 2.6948766847,
				"y": -1.9134163159,
				"z": 0.9006304815,
				"element": "H" 
			},
			{
				"x": 5.5560417579,
				"y": -0.9214812603,
				"z": 0.7978657196,
				"element": "H" 
			},
			{
				"x": 4.526053883,
				"y": -1.4787100159,
				"z": -0.509694275,
				"element": "H" 
			},
			{
				"x": 4.7226414055,
				"y": 1.293081741,
				"z": 0.7258536351,
				"element": "H" 
			},
			{
				"x": 4.5841730586,
				"y": 0.8528288067,
				"z": -0.9681306933,
				"element": "H" 
			},
			{
				"x": 2.193224714,
				"y": 0.1780073402,
				"z": -0.5812132971,
				"element": "H" 
			},
			{
				"x": 2.487622804,
				"y": 1.8876630793,
				"z": -0.2554820811,
				"element": "H" 
			},
			{
				"x": -0.7529094686,
				"y": 2.4071072119,
				"z": -2.8986203895,
				"element": "H" 
			},
			{
				"x": -2.1227194061,
				"y": 1.0029918344,
				"z": -4.4238750117,
				"element": "H" 
			},
			{
				"x": -2.8387216332,
				"y": -1.8426813882,
				"z": -4.5244047275,
				"element": "H" 
			},
			{
				"x": -4.1661514644,
				"y": -0.6873013966,
				"z": -4.4373784711,
				"element": "H" 
			},
			{
				"x": -4.0783385101,
				"y": -2.0233141502,
				"z": -3.2772458531,
				"element": "H" 
			},
			{
				"x": -3.009389882,
				"y": -1.6355621848,
				"z": -1.1538833225,
				"element": "H" 
			},
			{
				"x": -1.6578743322,
				"y": -0.2555846411,
				"z": 0.3423844294,
				"element": "H" 
			}
		],
		 "valence_orbital": [ 
			{
				"type": "occ",
				"energy": -0.30156,
				"method": "rhf"
			},
			{
				"type": "occ",
				"energy": -0.25565,
				"method": "rhf"
			},
			{
				"type": "occ",
				"energy": -0.24654,
				"method": "rhf"
			},
			{
				"type": "occ",
				"energy": -0.23729,
				"method": "rhf"
			},
			{
				"type": "occ",
				"energy": -0.19497,
				"method": "rhf"
			},
			{
				"type": "unocc",
				"energy": -0.0506,
				"method": "rhf"
			},
			{
				"type": "unocc",
				"energy": -0.00646,
				"method": "rhf"
			},
			{
				"type": "unocc",
				"energy": 0.04184,
				"method": "rhf"
			},
			{
				"type": "unocc",
				"energy": 0.082,
				"method": "rhf"
			},
			{
				"type": "unocc",
				"energy": 0.08794,
				"method": "rhf"
			}
		],
		"cosmo_sigma_profile": { 
			"-0.025": 0.0,
			"-0.024": 0.0,
			"-0.023": 0.0,
			"-0.022": 0.0,
			"-0.021": 0.0,
			"-0.02": 0.0,
			"-0.019": 0.0,
			"-0.018": 0.0,
			"-0.017": 0.0,
			"-0.016": 0.0,
			"-0.015": 0.0,
			"-0.014": 0.0,
			"-0.013": 0.0,
			"-0.012": 0.0,
			"-0.011": 0.0,
			"-0.01": 0.0,
			"-0.009": 0.0,
			"-0.008": 0.0,
			"-0.007": 1.02733295629,
			"-0.006": 4.24129381394,
			"-0.005": 10.9152441249,
			"-0.004": 24.1633943241,
			"-0.003": 28.6345687662,
			"-0.002": 45.1157082977,
			"-0.001": 57.9011854977,
			"0.0": 43.2773168526,
			"0.001": 27.974505641,
			"0.002": 13.0317987624,
			"0.003": 12.7929244998,
			"0.004": 14.5700262643,
			"0.005": 8.03304081023,
			"0.006": 2.6565777759,
			"0.007": 3.49816659939,
			"0.008": 2.02137099051,
			"0.009": 2.10965050279,
			"0.01": 2.4700176329,
			"0.011": 2.62649387063,
			"0.012": 3.88252372132,
			"0.013": 2.33002894514,
			"0.014": 0.784126168001,
			"0.015": 0.350226111993,
			"0.016": 0.216064044297,
			"0.017": 0.0,
			"0.018": 0.0,
			"0.019": 0.0,
			"0.02": 0.0,
			"0.021": 0.0,
			"0.022": 0.0,
			"0.023": 0.0,
			"0.024": 0.0,
			"0.025": 0.0
		}
	}
}
