{
	 "smiles": "NC(=O)NCC1=CC=C(C=C1)C(O)=O", 
	 "Tm": 565.15, 
	 "num_atms": 24, 
	 "gaussian": { 
		 "optdone": 1, 
		 "sigma_profile": "yes", 
		 "theory": "DFT", 
		 "functional": "B3LYP", 
		 "basiset": "6-31G**", 
		 "properties": { 
			 "R2extent": 4168.7817, 
			 "electric_dipole_moment_norm": 5.67426600099, 
			 "electric_quadrupole_moment_norm": 29.0640226983, 
			 "total_energy": -684.191239424, 
			 "HOMO_LUMO_gap": 0.19578, 
			 "cosmo_polarized_energy": -26.05, 
			 "cosmo_cavitation_energy": 28.94, 
			 "cosmo_dispersion_energy": -20.93, 
			 "cosmo_repulsion_energy": 1.67, 
			 "cosmo_total_nonelectrostatic_energy": 9.68, 
			 "SMD_solvation_energy": 6.2 
		},
		"coords": [
			{
				"x": -2.1460835793,
				"y": 0.5692223179,
				"z": -2.0986608593,
				"element": "N" 
			},
			{
				"x": -1.2282214416,
				"y": 1.5769303907,
				"z": -1.8074686502,
				"element": "C" 
			},
			{
				"x": -0.5754558919,
				"y": 2.137373616,
				"z": -2.6755362381,
				"element": "O" 
			},
			{
				"x": -1.0947218926,
				"y": 1.9049515915,
				"z": -0.4664607547,
				"element": "N" 
			},
			{
				"x": -1.3630688149,
				"y": 1.0244948459,
				"z": 0.6703407278,
				"element": "C" 
			},
			{
				"x": -0.2004430296,
				"y": 0.1203757763,
				"z": 1.0498353973,
				"element": "C" 
			},
			{
				"x": 0.4992882442,
				"y": 0.3278134974,
				"z": 2.2426986718,
				"element": "C" 
			},
			{
				"x": 1.5806315129,
				"y": -0.4843094825,
				"z": 2.5860944422,
				"element": "C" 
			},
			{
				"x": 1.9789643911,
				"y": -1.5243344783,
				"z": 1.7373480199,
				"element": "C" 
			},
			{
				"x": 1.2643677086,
				"y": -1.7488109997,
				"z": 0.5509638519,
				"element": "C" 
			},
			{
				"x": 0.1951612875,
				"y": -0.9309306439,
				"z": 0.2067131025,
				"element": "C" 
			},
			{
				"x": 3.1152118545,
				"y": -2.4497766657,
				"z": 2.054690835,
				"element": "C" 
			},
			{
				"x": 4.0464471,
				"y": -1.9950092393,
				"z": 2.9366685814,
				"element": "O" 
			},
			{
				"x": 3.2287540378,
				"y": -3.551157279,
				"z": 1.5709648642,
				"element": "O" 
			},
			{
				"x": -2.9799079147,
				"y": 0.515500138,
				"z": -1.5291882229,
				"element": "H" 
			},
			{
				"x": -2.3340175488,
				"y": 0.5265656968,
				"z": -3.0912789554,
				"element": "H" 
			},
			{
				"x": -0.3220708968,
				"y": 2.5474030325,
				"z": -0.3441279643,
				"element": "H" 
			},
			{
				"x": -2.242896862,
				"y": 0.416798391,
				"z": 0.4434424607,
				"element": "H" 
			},
			{
				"x": -1.6343508884,
				"y": 1.6496208948,
				"z": 1.5279907147,
				"element": "H" 
			},
			{
				"x": 0.1919393862,
				"y": 1.1242381481,
				"z": 2.9159233667,
				"element": "H" 
			},
			{
				"x": 2.0778964592,
				"y": -0.3206348454,
				"z": 3.5393349932,
				"element": "H" 
			},
			{
				"x": 1.566714216,
				"y": -2.5740303101,
				"z": -0.0847729685,
				"element": "H" 
			},
			{
				"x": -0.3450797175,
				"y": -1.1044214637,
				"z": -0.7196882911,
				"element": "H" 
			},
			{
				"x": 3.9169422802,
				"y": -1.0506729293,
				"z": 3.1002728753,
				"element": "H" 
			}
		],
		 "valence_orbital": [ 
			{
				"type": "occ",
				"energy": -0.28078,
				"method": "rhf"
			},
			{
				"type": "occ",
				"energy": -0.27681,
				"method": "rhf"
			},
			{
				"type": "occ",
				"energy": -0.27124,
				"method": "rhf"
			},
			{
				"type": "occ",
				"energy": -0.25958,
				"method": "rhf"
			},
			{
				"type": "occ",
				"energy": -0.25225,
				"method": "rhf"
			},
			{
				"type": "unocc",
				"energy": -0.05647,
				"method": "rhf"
			},
			{
				"type": "unocc",
				"energy": -0.02636,
				"method": "rhf"
			},
			{
				"type": "unocc",
				"energy": 0.03448,
				"method": "rhf"
			},
			{
				"type": "unocc",
				"energy": 0.04529,
				"method": "rhf"
			},
			{
				"type": "unocc",
				"energy": 0.0598,
				"method": "rhf"
			}
		],
		"cosmo_sigma_profile": { 
			"-0.025": 0.0,
			"-0.024": 0.0,
			"-0.023": 0.0,
			"-0.022": 0.0,
			"-0.021": 0.0,
			"-0.02": 0.0,
			"-0.019": 0.106124217532,
			"-0.018": 0.89591331432,
			"-0.017": 0.671584671555,
			"-0.016": 1.33493526568,
			"-0.015": 1.21014267998,
			"-0.014": 1.74438324863,
			"-0.013": 3.48340178753,
			"-0.012": 5.24358225277,
			"-0.011": 4.34744901827,
			"-0.01": 5.50710428418,
			"-0.009": 3.85212607295,
			"-0.008": 5.36554909395,
			"-0.007": 8.24063722463,
			"-0.006": 12.5592231276,
			"-0.005": 11.4748767608,
			"-0.004": 11.4919240703,
			"-0.003": 12.4839214745,
			"-0.002": 11.1149633268,
			"-0.001": 11.5416406689,
			"0.0": 10.1765760542,
			"0.001": 12.3986512999,
			"0.002": 12.7926932727,
			"0.003": 16.0509089332,
			"0.004": 8.98906310946,
			"0.005": 5.76635230091,
			"0.006": 4.44753567144,
			"0.007": 4.03838754146,
			"0.008": 5.08144321426,
			"0.009": 5.37811190872,
			"0.01": 5.25948364499,
			"0.011": 6.81050967863,
			"0.012": 6.63354402384,
			"0.013": 4.12770532914,
			"0.014": 6.40724414661,
			"0.015": 2.67219153365,
			"0.016": 0.0,
			"0.017": 0.0,
			"0.018": 0.0,
			"0.019": 0.0,
			"0.02": 0.0,
			"0.021": 0.0,
			"0.022": 0.0,
			"0.023": 0.0,
			"0.024": 0.0,
			"0.025": 0.0
		}
	}
}
