{
	 "smiles": "COC1=NSC(NC2=CC=C(Cl)C=C2)=N1", 
	 "Tm": 521.15, 
	 "num_atms": 23, 
	 "gaussian": { 
		 "optdone": 1, 
		 "sigma_profile": "yes", 
		 "theory": "DFT", 
		 "functional": "B3LYP", 
		 "basiset": "6-31G**", 
		 "properties": { 
			 "R2extent": 5864.7461, 
			 "electric_dipole_moment_norm": 2.37756691388, 
			 "electric_quadrupole_moment_norm": 25.2894953366, 
			 "total_energy": -1445.62123469, 
			 "HOMO_LUMO_gap": 0.17643, 
			 "cosmo_polarized_energy": -15.52, 
			 "cosmo_cavitation_energy": 31.46, 
			 "cosmo_dispersion_energy": -23.77, 
			 "cosmo_repulsion_energy": 1.8, 
			 "cosmo_total_nonelectrostatic_energy": 9.49, 
			 "SMD_solvation_energy": 3.76 
		},
		"coords": [
			{
				"x": -0.5391109714,
				"y": 0.7208397391,
				"z": -4.720938029,
				"element": "C" 
			},
			{
				"x": -1.5564860445,
				"y": -0.2820046928,
				"z": -4.657361223,
				"element": "O" 
			},
			{
				"x": -1.7799565935,
				"y": -0.8629679969,
				"z": -3.4714338685,
				"element": "C" 
			},
			{
				"x": -2.7106179135,
				"y": -1.7841814316,
				"z": -3.4007708202,
				"element": "N" 
			},
			{
				"x": -2.7513624806,
				"y": -2.3157381914,
				"z": -1.8016312624,
				"element": "S" 
			},
			{
				"x": -1.456598126,
				"y": -1.2051194769,
				"z": -1.3443765123,
				"element": "C" 
			},
			{
				"x": -0.9856917952,
				"y": -1.1428304388,
				"z": -0.0679703357,
				"element": "N" 
			},
			{
				"x": 0.0279073878,
				"y": -0.3326471224,
				"z": 0.4826350621,
				"element": "C" 
			},
			{
				"x": 0.7608763073,
				"y": 0.6041514996,
				"z": -0.2602451056,
				"element": "C" 
			},
			{
				"x": 1.7472130203,
				"y": 1.3646222763,
				"z": 0.3664768417,
				"element": "C" 
			},
			{
				"x": 2.0061367516,
				"y": 1.197081376,
				"z": 1.7250066056,
				"element": "C" 
			},
			{
				"x": 3.2516877098,
				"y": 2.1614789409,
				"z": 2.5035240276,
				"element": "Cl" 
			},
			{
				"x": 1.2837699053,
				"y": 0.2685429141,
				"z": 2.4741718572,
				"element": "C" 
			},
			{
				"x": 0.299597292,
				"y": -0.4910562992,
				"z": 1.851434582,
				"element": "C" 
			},
			{
				"x": -1.0458419897,
				"y": -0.4934379513,
				"z": -2.3668601666,
				"element": "N" 
			},
			{
				"x": -0.771031792,
				"y": 1.5636500823,
				"z": -4.0628619995,
				"element": "H" 
			},
			{
				"x": -0.5268470969,
				"y": 1.0525126889,
				"z": -5.7597215273,
				"element": "H" 
			},
			{
				"x": 0.4385210078,
				"y": 0.3121569373,
				"z": -4.4481874941,
				"element": "H" 
			},
			{
				"x": -1.4266353843,
				"y": -1.7709163132,
				"z": 0.5883516629,
				"element": "H" 
			},
			{
				"x": 0.5546505741,
				"y": 0.7288774217,
				"z": -1.3139642642,
				"element": "H" 
			},
			{
				"x": 2.314753118,
				"y": 2.0893871747,
				"z": -0.2068417549,
				"element": "H" 
			},
			{
				"x": 1.4880677207,
				"y": 0.1408807175,
				"z": 3.5312332687,
				"element": "H" 
			},
			{
				"x": -0.2631006069,
				"y": -1.2147818541,
				"z": 2.4365304557,
				"element": "H" 
			}
		],
		 "valence_orbital": [ 
			{
				"type": "occ",
				"energy": -0.29412,
				"method": "rhf"
			},
			{
				"type": "occ",
				"energy": -0.28439,
				"method": "rhf"
			},
			{
				"type": "occ",
				"energy": -0.27394,
				"method": "rhf"
			},
			{
				"type": "occ",
				"energy": -0.25012,
				"method": "rhf"
			},
			{
				"type": "occ",
				"energy": -0.21507,
				"method": "rhf"
			},
			{
				"type": "unocc",
				"energy": -0.03864,
				"method": "rhf"
			},
			{
				"type": "unocc",
				"energy": -0.02411,
				"method": "rhf"
			},
			{
				"type": "unocc",
				"energy": -0.01706,
				"method": "rhf"
			},
			{
				"type": "unocc",
				"energy": 0.0087,
				"method": "rhf"
			},
			{
				"type": "unocc",
				"energy": 0.0242,
				"method": "rhf"
			}
		],
		"cosmo_sigma_profile": { 
			"-0.025": 0.0,
			"-0.024": 0.0,
			"-0.023": 0.0,
			"-0.022": 0.0,
			"-0.021": 0.0,
			"-0.02": 0.0,
			"-0.019": 0.0,
			"-0.018": 0.232189694073,
			"-0.017": 1.47636394363,
			"-0.016": 1.98938793074,
			"-0.015": 1.20947568108,
			"-0.014": 1.32272728293,
			"-0.013": 1.13870375212,
			"-0.012": 1.71755406019,
			"-0.011": 1.0179271115,
			"-0.01": 1.23789590111,
			"-0.009": 1.67316386604,
			"-0.008": 2.60069099749,
			"-0.007": 6.61585175698,
			"-0.006": 9.12178750731,
			"-0.005": 13.2629440631,
			"-0.004": 14.156464411,
			"-0.003": 15.2490616522,
			"-0.002": 15.8050337055,
			"-0.001": 19.1474251434,
			"0.0": 20.522038498,
			"0.001": 21.8253370701,
			"0.002": 24.7505340631,
			"0.003": 27.7033777381,
			"0.004": 20.139119404,
			"0.005": 11.4907779751,
			"0.006": 3.29844424179,
			"0.007": 2.54091127652,
			"0.008": 2.46556708618,
			"0.009": 1.98146449075,
			"0.01": 3.68939511963,
			"0.011": 2.70706116617,
			"0.012": 1.37833315468,
			"0.013": 1.28545741364,
			"0.014": 1.70709040651,
			"0.015": 1.03857318144,
			"0.016": 0.0894111298855,
			"0.017": 0.0,
			"0.018": 0.0,
			"0.019": 0.0,
			"0.02": 0.0,
			"0.021": 0.0,
			"0.022": 0.0,
			"0.023": 0.0,
			"0.024": 0.0,
			"0.025": 0.0
		}
	}
}
