{
	 "smiles": "FC1=CC(C#N)=C(Cl)C=C1", 
	 "Tm": 357.15, 
	 "num_atms": 13, 
	 "gaussian": { 
		 "optdone": 1, 
		 "sigma_profile": "yes", 
		 "theory": "DFT", 
		 "functional": "B3LYP", 
		 "basiset": "6-31G**", 
		 "properties": { 
			 "R2extent": 2780.0838, 
			 "electric_dipole_moment_norm": 4.30014996948, 
			 "electric_quadrupole_moment_norm": 8.09461937586, 
			 "total_energy": -883.30664318, 
			 "HOMO_LUMO_gap": 0.19387, 
			 "cosmo_polarized_energy": -8.42, 
			 "cosmo_cavitation_energy": 21.16, 
			 "cosmo_dispersion_energy": -15.03, 
			 "cosmo_repulsion_energy": 1.2, 
			 "cosmo_total_nonelectrostatic_energy": 7.33, 
			 "SMD_solvation_energy": 5.27 
		},
		"coords": [
			{
				"x": 1.7665527754,
				"y": -3.1878895275,
				"z": 2.265800494,
				"element": "F" 
			},
			{
				"x": 1.5318695034,
				"y": -2.6910834673,
				"z": 1.0395965511,
				"element": "C" 
			},
			{
				"x": 0.5014556395,
				"y": -1.7792673614,
				"z": 0.8711545726,
				"element": "C" 
			},
			{
				"x": 0.2526098103,
				"y": -1.25718117,
				"z": -0.4098685009,
				"element": "C" 
			},
			{
				"x": -0.8133044626,
				"y": -0.315202326,
				"z": -0.5791485447,
				"element": "C" 
			},
			{
				"x": -1.6857657013,
				"y": 0.4465827889,
				"z": -0.6798244214,
				"element": "N" 
			},
			{
				"x": 1.0532220802,
				"y": -1.670208678,
				"z": -1.4927053315,
				"element": "C" 
			},
			{
				"x": 0.7670444095,
				"y": -1.0387504493,
				"z": -3.0933279551,
				"element": "Cl" 
			},
			{
				"x": 2.0834659338,
				"y": -2.5891703694,
				"z": -1.2942708931,
				"element": "C" 
			},
			{
				"x": 2.3284921864,
				"y": -3.1055239427,
				"z": -0.0236329768,
				"element": "C" 
			},
			{
				"x": -0.1026382141,
				"y": -1.4747098691,
				"z": 1.7173734549,
				"element": "H" 
			},
			{
				"x": 2.691133551,
				"y": -2.8975375455,
				"z": -2.13715787,
				"element": "H" 
			},
			{
				"x": 3.1250624884,
				"y": -3.8206580826,
				"z": 0.1487114208,
				"element": "H" 
			}
		],
		 "valence_orbital": [ 
			{
				"type": "occ",
				"energy": -0.34841,
				"method": "rhf"
			},
			{
				"type": "occ",
				"energy": -0.34645,
				"method": "rhf"
			},
			{
				"type": "occ",
				"energy": -0.33208,
				"method": "rhf"
			},
			{
				"type": "occ",
				"energy": -0.29036,
				"method": "rhf"
			},
			{
				"type": "occ",
				"energy": -0.26604,
				"method": "rhf"
			},
			{
				"type": "unocc",
				"energy": -0.07217,
				"method": "rhf"
			},
			{
				"type": "unocc",
				"energy": -0.0385,
				"method": "rhf"
			},
			{
				"type": "unocc",
				"energy": 0.00682,
				"method": "rhf"
			},
			{
				"type": "unocc",
				"energy": 0.02399,
				"method": "rhf"
			},
			{
				"type": "unocc",
				"energy": 0.06461,
				"method": "rhf"
			}
		],
		"cosmo_sigma_profile": { 
			"-0.025": 0.0,
			"-0.024": 0.0,
			"-0.023": 0.0,
			"-0.022": 0.0,
			"-0.021": 0.0,
			"-0.02": 0.0,
			"-0.019": 0.0,
			"-0.018": 0.0,
			"-0.017": 0.0,
			"-0.016": 0.0,
			"-0.015": 0.0,
			"-0.014": 0.0,
			"-0.013": 0.0,
			"-0.012": 0.0,
			"-0.011": 0.0,
			"-0.01": 1.47395720029,
			"-0.009": 5.10245605807,
			"-0.008": 6.26710113919,
			"-0.007": 5.58943887866,
			"-0.006": 4.80484560195,
			"-0.005": 5.21399071425,
			"-0.004": 5.97809828775,
			"-0.003": 10.3130046129,
			"-0.002": 18.1875112993,
			"-0.001": 23.93040304,
			"0.0": 15.712294644,
			"0.001": 10.0132481361,
			"0.002": 10.3565620099,
			"0.003": 20.0842960851,
			"0.004": 8.66751143509,
			"0.005": 2.49593268105,
			"0.006": 3.1273383835,
			"0.007": 3.11762116118,
			"0.008": 3.38985972138,
			"0.009": 3.17095591045,
			"0.01": 2.93024152154,
			"0.011": 2.44227334183,
			"0.012": 1.94830267295,
			"0.013": 0.306571474702,
			"0.014": 0.0,
			"0.015": 0.0,
			"0.016": 0.0,
			"0.017": 0.0,
			"0.018": 0.0,
			"0.019": 0.0,
			"0.02": 0.0,
			"0.021": 0.0,
			"0.022": 0.0,
			"0.023": 0.0,
			"0.024": 0.0,
			"0.025": 0.0
		}
	}
}
