{
	 "smiles": "CCCCCC(=O)OC", 
	 "Tm": 202.15, 
	 "num_atms": 23, 
	 "gaussian": { 
		 "optdone": 1, 
		 "sigma_profile": "yes", 
		 "theory": "DFT", 
		 "functional": "B3LYP", 
		 "basiset": "6-31G**", 
		 "properties": { 
			 "R2extent": 2667.3427, 
			 "electric_dipole_moment_norm": 1.92129057146, 
			 "electric_quadrupole_moment_norm": 11.073165323, 
			 "total_energy": -425.65358239, 
			 "HOMO_LUMO_gap": 0.27902, 
			 "cosmo_polarized_energy": -6.34, 
			 "cosmo_cavitation_energy": 25.73, 
			 "cosmo_dispersion_energy": -18.43, 
			 "cosmo_repulsion_energy": 1.57, 
			 "cosmo_total_nonelectrostatic_energy": 8.87, 
			 "SMD_solvation_energy": 5.77 
		},
		"coords": [
			{
				"x": 3.1638291507,
				"y": -1.4788515953,
				"z": 0.2216475024,
				"element": "C" 
			},
			{
				"x": 2.096315232,
				"y": -0.5818854605,
				"z": -0.413948181,
				"element": "C" 
			},
			{
				"x": 0.8445786855,
				"y": -0.4339111038,
				"z": 0.4623408772,
				"element": "C" 
			},
			{
				"x": -0.2891587676,
				"y": 0.393814628,
				"z": -0.1631014467,
				"element": "C" 
			},
			{
				"x": 0.063723696,
				"y": 1.8830541481,
				"z": -0.359360217,
				"element": "C" 
			},
			{
				"x": -1.1026644056,
				"y": 2.6837164027,
				"z": -0.8979660014,
				"element": "C" 
			},
			{
				"x": -1.7242389146,
				"y": 3.5277658894,
				"z": -0.289232848,
				"element": "O" 
			},
			{
				"x": -1.3928797858,
				"y": 2.3246065287,
				"z": -2.1726434769,
				"element": "O" 
			},
			{
				"x": -2.5074031579,
				"y": 3.0105172395,
				"z": -2.7638666344,
				"element": "C" 
			},
			{
				"x": 3.4962610874,
				"y": -1.076849178,
				"z": 1.1855725977,
				"element": "H" 
			},
			{
				"x": 4.0450041698,
				"y": -1.5700689808,
				"z": -0.421656442,
				"element": "H" 
			},
			{
				"x": 2.7770314199,
				"y": -2.4883873329,
				"z": 0.4018430939,
				"element": "H" 
			},
			{
				"x": 1.8050901055,
				"y": -0.9928057493,
				"z": -1.3904398365,
				"element": "H" 
			},
			{
				"x": 2.5318581417,
				"y": 0.4047744727,
				"z": -0.6169378614,
				"element": "H" 
			},
			{
				"x": 0.4544824094,
				"y": -1.435170236,
				"z": 0.6897416335,
				"element": "H" 
			},
			{
				"x": 1.1266796074,
				"y": 0.0065033877,
				"z": 1.4293429511,
				"element": "H" 
			},
			{
				"x": -1.1753089146,
				"y": 0.3271298791,
				"z": 0.4802181552,
				"element": "H" 
			},
			{
				"x": -0.5724077921,
				"y": -0.0351687404,
				"z": -1.131543592,
				"element": "H" 
			},
			{
				"x": 0.900768512,
				"y": 1.9807779769,
				"z": -1.0589700863,
				"element": "H" 
			},
			{
				"x": 0.3542437755,
				"y": 2.3372322068,
				"z": 0.5917995399,
				"element": "H" 
			},
			{
				"x": -2.6059835712,
				"y": 2.6026862695,
				"z": -3.7700294325,
				"element": "H" 
			},
			{
				"x": -3.4195670624,
				"y": 2.834819762,
				"z": -2.1877996599,
				"element": "H" 
			},
			{
				"x": -2.321253621,
				"y": 4.0868995857,
				"z": -2.803610635,
				"element": "H" 
			}
		],
		 "valence_orbital": [ 
			{
				"type": "occ",
				"energy": -0.33148,
				"method": "rhf"
			},
			{
				"type": "occ",
				"energy": -0.32475,
				"method": "rhf"
			},
			{
				"type": "occ",
				"energy": -0.31876,
				"method": "rhf"
			},
			{
				"type": "occ",
				"energy": -0.29681,
				"method": "rhf"
			},
			{
				"type": "occ",
				"energy": -0.26348,
				"method": "rhf"
			},
			{
				"type": "unocc",
				"energy": 0.01554,
				"method": "rhf"
			},
			{
				"type": "unocc",
				"energy": 0.08853,
				"method": "rhf"
			},
			{
				"type": "unocc",
				"energy": 0.10877,
				"method": "rhf"
			},
			{
				"type": "unocc",
				"energy": 0.11655,
				"method": "rhf"
			},
			{
				"type": "unocc",
				"energy": 0.12052,
				"method": "rhf"
			}
		],
		"cosmo_sigma_profile": { 
			"-0.025": 0.0,
			"-0.024": 0.0,
			"-0.023": 0.0,
			"-0.022": 0.0,
			"-0.021": 0.0,
			"-0.02": 0.0,
			"-0.019": 0.0,
			"-0.018": 0.0,
			"-0.017": 0.0,
			"-0.016": 0.0,
			"-0.015": 0.0,
			"-0.014": 0.0,
			"-0.013": 0.0,
			"-0.012": 0.0,
			"-0.011": 0.0,
			"-0.01": 0.0,
			"-0.009": 0.0,
			"-0.008": 0.0,
			"-0.007": 0.260398282221,
			"-0.006": 3.32384255909,
			"-0.005": 9.05551075928,
			"-0.004": 12.7423970392,
			"-0.003": 23.5147938497,
			"-0.002": 32.8935785685,
			"-0.001": 31.6455340713,
			"0.0": 25.2540428225,
			"0.001": 19.6759920626,
			"0.002": 10.1560946603,
			"0.003": 3.59928349919,
			"0.004": 3.28784758603,
			"0.005": 2.7144668098,
			"0.006": 2.3211378087,
			"0.007": 2.43026122016,
			"0.008": 2.57871830545,
			"0.009": 2.34197252501,
			"0.01": 1.8122555188,
			"0.011": 2.472087829,
			"0.012": 4.94627848361,
			"0.013": 2.2795980536,
			"0.014": 0.145833098098,
			"0.015": 0.0,
			"0.016": 0.0,
			"0.017": 0.0,
			"0.018": 0.0,
			"0.019": 0.0,
			"0.02": 0.0,
			"0.021": 0.0,
			"0.022": 0.0,
			"0.023": 0.0,
			"0.024": 0.0,
			"0.025": 0.0
		}
	}
}
