{
	 "smiles": "NC(=O)C1=C(N=CC=C1)N1CCNCC1", 
	 "Tm": 419.15, 
	 "num_atms": 29, 
	 "gaussian": { 
		 "optdone": 1, 
		 "sigma_profile": "yes", 
		 "theory": "DFT", 
		 "functional": "B3LYP", 
		 "basiset": "6-31G**", 
		 "properties": { 
			 "R2extent": 3298.4463, 
			 "electric_dipole_moment_norm": 3.20516805332, 
			 "electric_quadrupole_moment_norm": 9.6309497865, 
			 "total_energy": -683.727653132, 
			 "HOMO_LUMO_gap": 0.18021, 
			 "cosmo_polarized_energy": -15.32, 
			 "cosmo_cavitation_energy": 30.42, 
			 "cosmo_dispersion_energy": -22.44, 
			 "cosmo_repulsion_energy": 1.76, 
			 "cosmo_total_nonelectrostatic_energy": 9.74, 
			 "SMD_solvation_energy": 2.05 
		},
		"coords": [
			{
				"x": -0.2118024208,
				"y": -0.8392872585,
				"z": 2.8307708243,
				"element": "N" 
			},
			{
				"x": 0.0169342028,
				"y": -1.7737132401,
				"z": 1.8632976554,
				"element": "C" 
			},
			{
				"x": 0.3948080366,
				"y": -2.9108067814,
				"z": 2.1286992807,
				"element": "O" 
			},
			{
				"x": -0.3320239342,
				"y": -1.3662713036,
				"z": 0.4543325235,
				"element": "C" 
			},
			{
				"x": -0.3835270371,
				"y": -0.042319781,
				"z": -0.0669246061,
				"element": "C" 
			},
			{
				"x": -0.9788852025,
				"y": 0.2313543041,
				"z": -1.2380593256,
				"element": "N" 
			},
			{
				"x": -1.4455203867,
				"y": -0.7776730165,
				"z": -1.9792500037,
				"element": "C" 
			},
			{
				"x": -1.3121929018,
				"y": -2.1184288494,
				"z": -1.6281225583,
				"element": "C" 
			},
			{
				"x": -0.75849675,
				"y": -2.4002582663,
				"z": -0.3818216888,
				"element": "C" 
			},
			{
				"x": 0.1651053005,
				"y": 1.0483451141,
				"z": 0.6232857726,
				"element": "N" 
			},
			{
				"x": -0.1863222426,
				"y": 2.3902360454,
				"z": 0.1181447924,
				"element": "C" 
			},
			{
				"x": 0.5399930378,
				"y": 3.4426084063,
				"z": 0.957066646,
				"element": "C" 
			},
			{
				"x": 2.0077758293,
				"y": 3.3328708975,
				"z": 0.8799116473,
				"element": "N" 
			},
			{
				"x": 2.463477896,
				"y": 1.9925787981,
				"z": 0.4889040212,
				"element": "C" 
			},
			{
				"x": 1.5604862907,
				"y": 0.9363453039,
				"z": 1.1244780287,
				"element": "C" 
			},
			{
				"x": -0.0322063231,
				"y": -1.099987041,
				"z": 3.7878107533,
				"element": "H" 
			},
			{
				"x": -0.4951300382,
				"y": 0.1004918988,
				"z": 2.5948471672,
				"element": "H" 
			},
			{
				"x": -1.937791384,
				"y": -0.4936725766,
				"z": -2.9084068756,
				"element": "H" 
			},
			{
				"x": -1.6664138094,
				"y": -2.9057205507,
				"z": -2.2846631916,
				"element": "H" 
			},
			{
				"x": -0.6817680962,
				"y": -3.4146470872,
				"z": -0.0037772449,
				"element": "H" 
			},
			{
				"x": -1.2712135297,
				"y": 2.5152421204,
				"z": 0.1862342516,
				"element": "H" 
			},
			{
				"x": 0.0743845723,
				"y": 2.4988681276,
				"z": -0.9424182917,
				"element": "H" 
			},
			{
				"x": 0.2189675008,
				"y": 3.3465513914,
				"z": 2.0042157813,
				"element": "H" 
			},
			{
				"x": 0.2341631702,
				"y": 4.4410327666,
				"z": 0.6293143235,
				"element": "H" 
			},
			{
				"x": 2.3727706733,
				"y": 4.0184260004,
				"z": 0.2277072427,
				"element": "H" 
			},
			{
				"x": 3.4895461334,
				"y": 1.8383299932,
				"z": 0.8456084858,
				"element": "H" 
			},
			{
				"x": 2.4744814122,
				"y": 1.8322322307,
				"z": -0.6027456736,
				"element": "H" 
			},
			{
				"x": 1.5896992669,
				"y": 1.0502695529,
				"z": 2.2140839529,
				"element": "H" 
			},
			{
				"x": 1.9415007334,
				"y": -0.0609971992,
				"z": 0.8939763094,
				"element": "H" 
			}
		],
		 "valence_orbital": [ 
			{
				"type": "occ",
				"energy": -0.26572,
				"method": "rhf"
			},
			{
				"type": "occ",
				"energy": -0.26044,
				"method": "rhf"
			},
			{
				"type": "occ",
				"energy": -0.24204,
				"method": "rhf"
			},
			{
				"type": "occ",
				"energy": -0.2222,
				"method": "rhf"
			},
			{
				"type": "occ",
				"energy": -0.21568,
				"method": "rhf"
			},
			{
				"type": "unocc",
				"energy": -0.03547,
				"method": "rhf"
			},
			{
				"type": "unocc",
				"energy": -0.01018,
				"method": "rhf"
			},
			{
				"type": "unocc",
				"energy": 0.05766,
				"method": "rhf"
			},
			{
				"type": "unocc",
				"energy": 0.06737,
				"method": "rhf"
			},
			{
				"type": "unocc",
				"energy": 0.08452,
				"method": "rhf"
			}
		],
		"cosmo_sigma_profile": { 
			"-0.025": 0.0,
			"-0.024": 0.0,
			"-0.023": 0.0,
			"-0.022": 0.0,
			"-0.021": 0.0,
			"-0.02": 0.0,
			"-0.019": 0.0,
			"-0.018": 0.0,
			"-0.017": 0.0,
			"-0.016": 0.0,
			"-0.015": 0.0,
			"-0.014": 0.699820283493,
			"-0.013": 1.08064637828,
			"-0.012": 0.685383524553,
			"-0.011": 1.48012257656,
			"-0.01": 3.30510180773,
			"-0.009": 3.99256847899,
			"-0.008": 2.59183466242,
			"-0.007": 3.99879116467,
			"-0.006": 10.5765264389,
			"-0.005": 12.8735473956,
			"-0.004": 20.1025672944,
			"-0.003": 29.8768618731,
			"-0.002": 24.4868500998,
			"-0.001": 19.1467384766,
			"0.0": 13.8972678757,
			"0.001": 13.0788185888,
			"0.002": 13.906916867,
			"0.003": 14.0871613182,
			"0.004": 7.44100057004,
			"0.005": 5.48407958765,
			"0.006": 3.64668451349,
			"0.007": 3.04054675794,
			"0.008": 4.20194060453,
			"0.009": 2.88815204118,
			"0.01": 2.46552604825,
			"0.011": 2.71016847205,
			"0.012": 3.62308096718,
			"0.013": 4.67293315192,
			"0.014": 5.53863557033,
			"0.015": 1.72631867532,
			"0.016": 0.515239324794,
			"0.017": 0.385794399284,
			"0.018": 0.662667299725,
			"0.019": 0.0272230924361,
			"0.02": 0.0,
			"0.021": 0.0,
			"0.022": 0.0,
			"0.023": 0.0,
			"0.024": 0.0,
			"0.025": 0.0
		}
	}
}
