{
	 "smiles": "CC(C)(C)C1=NNC(=O)C=C1", 
	 "Tm": 437.15, 
	 "num_atms": 23, 
	 "gaussian": { 
		 "optdone": 1, 
		 "sigma_profile": "yes", 
		 "theory": "DFT", 
		 "functional": "B3LYP", 
		 "basiset": "6-31G**", 
		 "properties": { 
			 "R2extent": 3417.4543, 
			 "electric_dipole_moment_norm": 3.74009326622, 
			 "electric_quadrupole_moment_norm": 25.2193810366, 
			 "total_energy": -496.801270021, 
			 "HOMO_LUMO_gap": 0.17404, 
			 "cosmo_polarized_energy": -11.5, 
			 "cosmo_cavitation_energy": 25.56, 
			 "cosmo_dispersion_energy": -18.47, 
			 "cosmo_repulsion_energy": 1.49, 
			 "cosmo_total_nonelectrostatic_energy": 8.59, 
			 "SMD_solvation_energy": 4.87 
		},
		"coords": [
			{
				"x": 0.243266793,
				"y": -0.7236712688,
				"z": -0.6993311933,
				"element": "C" 
			},
			{
				"x": 0.0021506211,
				"y": 0.8025578165,
				"z": -0.6194278288,
				"element": "C" 
			},
			{
				"x": 0.6882749078,
				"y": 1.4953808083,
				"z": -1.8207143295,
				"element": "C" 
			},
			{
				"x": 0.6162338554,
				"y": 1.3387734028,
				"z": 0.6853413945,
				"element": "C" 
			},
			{
				"x": -1.5031942557,
				"y": 1.077367976,
				"z": -0.672746492,
				"element": "C" 
			},
			{
				"x": -2.0536715343,
				"y": 1.6979692099,
				"z": 0.3388962472,
				"element": "N" 
			},
			{
				"x": -3.376154205,
				"y": 1.9325598715,
				"z": 0.2791335525,
				"element": "N" 
			},
			{
				"x": -4.2848218558,
				"y": 1.6033021729,
				"z": -0.7341575666,
				"element": "C" 
			},
			{
				"x": -5.4724784638,
				"y": 1.8906118781,
				"z": -0.6359889138,
				"element": "O" 
			},
			{
				"x": -3.6328813281,
				"y": 0.9147954103,
				"z": -1.8400324561,
				"element": "C" 
			},
			{
				"x": -2.2989302994,
				"y": 0.6662003738,
				"z": -1.8033781371,
				"element": "C" 
			},
			{
				"x": -0.2265520491,
				"y": -1.2401435501,
				"z": 0.1439021236,
				"element": "H" 
			},
			{
				"x": -0.1529869658,
				"y": -1.1573596469,
				"z": -1.6233834827,
				"element": "H" 
			},
			{
				"x": 1.3173178042,
				"y": -0.9361201261,
				"z": -0.670758147,
				"element": "H" 
			},
			{
				"x": 1.7659172294,
				"y": 1.300845991,
				"z": -1.8009979066,
				"element": "H" 
			},
			{
				"x": 0.5392618664,
				"y": 2.5794183658,
				"z": -1.7864482645,
				"element": "H" 
			},
			{
				"x": 0.3064679666,
				"y": 1.1328285751,
				"z": -2.7807764542,
				"element": "H" 
			},
			{
				"x": 0.4742073205,
				"y": 2.418419171,
				"z": 0.7800515241,
				"element": "H" 
			},
			{
				"x": 1.6908381,
				"y": 1.1287734729,
				"z": 0.6965971926,
				"element": "H" 
			},
			{
				"x": 0.163389373,
				"y": 0.8698936144,
				"z": 1.5627463956,
				"element": "H" 
			},
			{
				"x": -3.7616510151,
				"y": 2.415145315,
				"z": 1.0826530516,
				"element": "H" 
			},
			{
				"x": -4.260838262,
				"y": 0.619955239,
				"z": -2.6735777114,
				"element": "H" 
			},
			{
				"x": -1.8192656032,
				"y": 0.1524959277,
				"z": -2.6310025981,
				"element": "H" 
			}
		],
		 "valence_orbital": [ 
			{
				"type": "occ",
				"energy": -0.33694,
				"method": "rhf"
			},
			{
				"type": "occ",
				"energy": -0.31096,
				"method": "rhf"
			},
			{
				"type": "occ",
				"energy": -0.30571,
				"method": "rhf"
			},
			{
				"type": "occ",
				"energy": -0.24656,
				"method": "rhf"
			},
			{
				"type": "occ",
				"energy": -0.23394,
				"method": "rhf"
			},
			{
				"type": "unocc",
				"energy": -0.0599,
				"method": "rhf"
			},
			{
				"type": "unocc",
				"energy": 0.00432,
				"method": "rhf"
			},
			{
				"type": "unocc",
				"energy": 0.07077,
				"method": "rhf"
			},
			{
				"type": "unocc",
				"energy": 0.09342,
				"method": "rhf"
			},
			{
				"type": "unocc",
				"energy": 0.10658,
				"method": "rhf"
			}
		],
		"cosmo_sigma_profile": { 
			"-0.025": 0.0,
			"-0.024": 0.0,
			"-0.023": 0.0,
			"-0.022": 0.0,
			"-0.021": 0.0,
			"-0.02": 0.0,
			"-0.019": 0.0,
			"-0.018": 0.0,
			"-0.017": 0.0,
			"-0.016": 0.369731627748,
			"-0.015": 1.21598821612,
			"-0.014": 1.15622085733,
			"-0.013": 0.365737581138,
			"-0.012": 0.64364180529,
			"-0.011": 0.77405389725,
			"-0.01": 1.58044334056,
			"-0.009": 0.5755039034,
			"-0.008": 3.21148822752,
			"-0.007": 6.1534382389,
			"-0.006": 5.197576276,
			"-0.005": 4.91409843637,
			"-0.004": 6.20485112097,
			"-0.003": 19.4245078282,
			"-0.002": 24.2185614541,
			"-0.001": 26.9596801207,
			"0.0": 29.6802998302,
			"0.001": 23.99056679,
			"0.002": 8.23398811877,
			"0.003": 3.08423025804,
			"0.004": 2.88164561262,
			"0.005": 3.18674144232,
			"0.006": 2.1868803856,
			"0.007": 2.49804883713,
			"0.008": 2.43910818885,
			"0.009": 2.06734015732,
			"0.01": 1.90919938159,
			"0.011": 2.01882799706,
			"0.012": 1.75894398944,
			"0.013": 3.42885584924,
			"0.014": 6.15278252025,
			"0.015": 1.746752761,
			"0.016": 0.0311604690922,
			"0.017": 0.0,
			"0.018": 0.0,
			"0.019": 0.0,
			"0.02": 0.0,
			"0.021": 0.0,
			"0.022": 0.0,
			"0.023": 0.0,
			"0.024": 0.0,
			"0.025": 0.0
		}
	}
}
