{
	 "smiles": "COC(=O)C1=C(N)OC(=N1)C1=CC=CC=C1", 
	 "Tm": 467.15, 
	 "num_atms": 26, 
	 "gaussian": { 
		 "optdone": 1, 
		 "sigma_profile": "yes", 
		 "theory": "DFT", 
		 "functional": "B3LYP", 
		 "basiset": "6-31G**", 
		 "properties": { 
			 "R2extent": 5210.3462, 
			 "electric_dipole_moment_norm": 4.81567523303, 
			 "electric_quadrupole_moment_norm": 20.3774638481, 
			 "total_energy": -760.379939383, 
			 "HOMO_LUMO_gap": 0.16479, 
			 "cosmo_polarized_energy": -17.71, 
			 "cosmo_cavitation_energy": 31.46, 
			 "cosmo_dispersion_energy": -23.21, 
			 "cosmo_repulsion_energy": 1.81, 
			 "cosmo_total_nonelectrostatic_energy": 10.06, 
			 "SMD_solvation_energy": 5.8 
		},
		"coords": [
			{
				"x": 0.405336685,
				"y": 3.6215390288,
				"z": -4.6778789591,
				"element": "C" 
			},
			{
				"x": -0.2553423402,
				"y": 2.9467116441,
				"z": -3.5971425204,
				"element": "O" 
			},
			{
				"x": 0.5324430193,
				"y": 2.0419575602,
				"z": -2.9177929257,
				"element": "C" 
			},
			{
				"x": 1.6877424153,
				"y": 1.8308042976,
				"z": -3.2146732273,
				"element": "O" 
			},
			{
				"x": -0.2273176615,
				"y": 1.4154276372,
				"z": -1.843935658,
				"element": "C" 
			},
			{
				"x": -1.5453383733,
				"y": 1.6333086704,
				"z": -1.4844011385,
				"element": "C" 
			},
			{
				"x": -2.5068488083,
				"y": 2.4966185234,
				"z": -1.9022686014,
				"element": "N" 
			},
			{
				"x": -1.8420971084,
				"y": 0.8123377558,
				"z": -0.4515305738,
				"element": "O" 
			},
			{
				"x": -0.6610301204,
				"y": 0.1029015075,
				"z": -0.2085299961,
				"element": "C" 
			},
			{
				"x": 0.2980978496,
				"y": 0.4380530519,
				"z": -1.0054408548,
				"element": "N" 
			},
			{
				"x": -0.6711061266,
				"y": -0.8831946517,
				"z": 0.8634383572,
				"element": "C" 
			},
			{
				"x": 0.4989440698,
				"y": -1.6187654315,
				"z": 1.1219231692,
				"element": "C" 
			},
			{
				"x": 0.5149042982,
				"y": -2.5661404323,
				"z": 2.1403557025,
				"element": "C" 
			},
			{
				"x": -0.6289985863,
				"y": -2.7937828799,
				"z": 2.912086474,
				"element": "C" 
			},
			{
				"x": -1.7923170123,
				"y": -2.0648498115,
				"z": 2.6579678863,
				"element": "C" 
			},
			{
				"x": -1.8180566927,
				"y": -1.11302629,
				"z": 1.6401260051,
				"element": "C" 
			},
			{
				"x": -0.3338608567,
				"y": 4.3038161901,
				"z": -5.0990780664,
				"element": "H" 
			},
			{
				"x": 1.2729978643,
				"y": 4.1766345024,
				"z": -4.3130741879,
				"element": "H" 
			},
			{
				"x": 0.7400194737,
				"y": 2.9066681527,
				"z": -5.4339087341,
				"element": "H" 
			},
			{
				"x": -2.2955426582,
				"y": 2.9508393239,
				"z": -2.7801865264,
				"element": "H" 
			},
			{
				"x": -3.4662035648,
				"y": 2.2248967356,
				"z": -1.7438260349,
				"element": "H" 
			},
			{
				"x": 1.3789257444,
				"y": -1.4320491569,
				"z": 0.5156710168,
				"element": "H" 
			},
			{
				"x": 1.4226832479,
				"y": -3.1301517351,
				"z": 2.3339803707,
				"element": "H" 
			},
			{
				"x": -0.6124337105,
				"y": -3.5343862991,
				"z": 3.7063100224,
				"element": "H" 
			},
			{
				"x": -2.6837095109,
				"y": -2.2364725338,
				"z": 3.2544179987,
				"element": "H" 
			},
			{
				"x": -2.7218915364,
				"y": -0.54599536,
				"z": 1.4447910021,
				"element": "H" 
			}
		],
		 "valence_orbital": [ 
			{
				"type": "occ",
				"energy": -0.28848,
				"method": "rhf"
			},
			{
				"type": "occ",
				"energy": -0.26738,
				"method": "rhf"
			},
			{
				"type": "occ",
				"energy": -0.26678,
				"method": "rhf"
			},
			{
				"type": "occ",
				"energy": -0.2537,
				"method": "rhf"
			},
			{
				"type": "occ",
				"energy": -0.20234,
				"method": "rhf"
			},
			{
				"type": "unocc",
				"energy": -0.03755,
				"method": "rhf"
			},
			{
				"type": "unocc",
				"energy": -0.01314,
				"method": "rhf"
			},
			{
				"type": "unocc",
				"energy": -0.00206,
				"method": "rhf"
			},
			{
				"type": "unocc",
				"energy": 0.05921,
				"method": "rhf"
			},
			{
				"type": "unocc",
				"energy": 0.07147,
				"method": "rhf"
			}
		],
		"cosmo_sigma_profile": { 
			"-0.025": 0.0,
			"-0.024": 0.0,
			"-0.023": 0.0,
			"-0.022": 0.0,
			"-0.021": 0.0,
			"-0.02": 0.0,
			"-0.019": 0.0,
			"-0.018": 0.0,
			"-0.017": 0.0,
			"-0.016": 0.343744862603,
			"-0.015": 1.21402719246,
			"-0.014": 1.3088485836,
			"-0.013": 1.94618835785,
			"-0.012": 1.78112651814,
			"-0.011": 1.88739566951,
			"-0.01": 2.13105662268,
			"-0.009": 1.8110498489,
			"-0.008": 1.66611221504,
			"-0.007": 2.44902860065,
			"-0.006": 12.54849557,
			"-0.005": 17.4498341463,
			"-0.004": 20.6964155826,
			"-0.003": 21.1429261561,
			"-0.002": 17.4253353053,
			"-0.001": 18.4019355705,
			"0.0": 17.9914841917,
			"0.001": 18.7250691818,
			"0.002": 17.5342179619,
			"0.003": 17.2426539342,
			"0.004": 15.40442962,
			"0.005": 9.7831729915,
			"0.006": 3.55468841953,
			"0.007": 2.72301526949,
			"0.008": 2.98036095473,
			"0.009": 2.37958096543,
			"0.01": 3.25698237675,
			"0.011": 3.30081603273,
			"0.012": 5.38569700832,
			"0.013": 3.73007647072,
			"0.014": 2.60729217695,
			"0.015": 1.26795352874,
			"0.016": 0.0530075812749,
			"0.017": 0.0,
			"0.018": 0.0,
			"0.019": 0.0,
			"0.02": 0.0,
			"0.021": 0.0,
			"0.022": 0.0,
			"0.023": 0.0,
			"0.024": 0.0,
			"0.025": 0.0
		}
	}
}
