{
	 "smiles": "CC1=C(SC2=NC=CN12)C(O)=O", 
	 "Tm": 515.15, 
	 "num_atms": 18, 
	 "gaussian": { 
		 "optdone": 1, 
		 "sigma_profile": "yes", 
		 "theory": "DFT", 
		 "functional": "B3LYP", 
		 "basiset": "6-31G**", 
		 "properties": { 
			 "R2extent": 3758.518, 
			 "electric_dipole_moment_norm": 2.65701684225, 
			 "electric_quadrupole_moment_norm": 23.7867250142, 
			 "total_energy": -928.495716016, 
			 "HOMO_LUMO_gap": 0.16289, 
			 "cosmo_polarized_energy": -13.13, 
			 "cosmo_cavitation_energy": 24.17, 
			 "cosmo_dispersion_energy": -18.57, 
			 "cosmo_repulsion_energy": 1.41, 
			 "cosmo_total_nonelectrostatic_energy": 7.0, 
			 "SMD_solvation_energy": 3.81 
		},
		"coords": [
			{
				"x": -0.1534341044,
				"y": -0.9504845318,
				"z": -0.1250098168,
				"element": "C" 
			},
			{
				"x": -0.1769059505,
				"y": -0.3904844747,
				"z": 1.2587615084,
				"element": "C" 
			},
			{
				"x": 0.3563312314,
				"y": 0.780179789,
				"z": 1.7350759897,
				"element": "C" 
			},
			{
				"x": 0.0725721953,
				"y": 1.025119339,
				"z": 3.4753560003,
				"element": "S" 
			},
			{
				"x": -0.7823676981,
				"y": -0.4971708784,
				"z": 3.5263271252,
				"element": "C" 
			},
			{
				"x": -1.3936663387,
				"y": -1.2023394519,
				"z": 4.4435882151,
				"element": "N" 
			},
			{
				"x": -1.8445630523,
				"y": -2.3161664343,
				"z": 3.7557739904,
				"element": "C" 
			},
			{
				"x": -1.5054388178,
				"y": -2.2834472357,
				"z": 2.42406814,
				"element": "C" 
			},
			{
				"x": -0.8084829331,
				"y": -1.0906413908,
				"z": 2.2713301209,
				"element": "N" 
			},
			{
				"x": 1.0954472071,
				"y": 1.7748083133,
				"z": 0.9527033515,
				"element": "C" 
			},
			{
				"x": 1.4888087923,
				"y": 2.8203143222,
				"z": 1.7211002106,
				"element": "O" 
			},
			{
				"x": 1.3470596166,
				"y": 1.7109523729,
				"z": -0.2373820438,
				"element": "O" 
			},
			{
				"x": 0.3383070119,
				"y": -1.9306515376,
				"z": -0.1290155814,
				"element": "H" 
			},
			{
				"x": -1.1763257982,
				"y": -1.0935885861,
				"z": -0.4934466655,
				"element": "H" 
			},
			{
				"x": 0.3795763776,
				"y": -0.2768362463,
				"z": -0.7927429808,
				"element": "H" 
			},
			{
				"x": -2.3973735712,
				"y": -3.0918891921,
				"z": 4.2677462918,
				"element": "H" 
			},
			{
				"x": -1.6843905364,
				"y": -2.9626020276,
				"z": 1.6068069207,
				"element": "H" 
			},
			{
				"x": 1.9667463686,
				"y": 3.4274278509,
				"z": 1.1327592237,
				"element": "H" 
			}
		],
		 "valence_orbital": [ 
			{
				"type": "occ",
				"energy": -0.32376,
				"method": "rhf"
			},
			{
				"type": "occ",
				"energy": -0.29171,
				"method": "rhf"
			},
			{
				"type": "occ",
				"energy": -0.28175,
				"method": "rhf"
			},
			{
				"type": "occ",
				"energy": -0.24386,
				"method": "rhf"
			},
			{
				"type": "occ",
				"energy": -0.22362,
				"method": "rhf"
			},
			{
				"type": "unocc",
				"energy": -0.06073,
				"method": "rhf"
			},
			{
				"type": "unocc",
				"energy": 0.00688,
				"method": "rhf"
			},
			{
				"type": "unocc",
				"energy": 0.02764,
				"method": "rhf"
			},
			{
				"type": "unocc",
				"energy": 0.05617,
				"method": "rhf"
			},
			{
				"type": "unocc",
				"energy": 0.06371,
				"method": "rhf"
			}
		],
		"cosmo_sigma_profile": { 
			"-0.025": 0.0,
			"-0.024": 0.0,
			"-0.023": 0.0,
			"-0.022": 0.0,
			"-0.021": 0.0,
			"-0.02": 0.0,
			"-0.019": 0.41732872753,
			"-0.018": 1.07682817123,
			"-0.017": 0.802239597138,
			"-0.016": 1.0284137204,
			"-0.015": 0.423687626359,
			"-0.014": 0.485100830148,
			"-0.013": 0.648959271439,
			"-0.012": 1.17745172269,
			"-0.011": 0.812391882495,
			"-0.01": 0.236461514411,
			"-0.009": 1.95541962168,
			"-0.008": 3.4784399088,
			"-0.007": 8.79327876882,
			"-0.006": 10.9810441671,
			"-0.005": 7.14981881202,
			"-0.004": 9.31674695953,
			"-0.003": 13.9790215215,
			"-0.002": 17.9063869289,
			"-0.001": 16.1611445514,
			"0.0": 13.4605648192,
			"0.001": 12.664554947,
			"0.002": 13.4385080608,
			"0.003": 12.6196563766,
			"0.004": 11.2745704193,
			"0.005": 5.61960935611,
			"0.006": 5.51407571609,
			"0.007": 4.10996469522,
			"0.008": 3.09033185999,
			"0.009": 2.8808193861,
			"0.01": 3.39128205111,
			"0.011": 5.21302523822,
			"0.012": 1.83512080523,
			"0.013": 0.881164787713,
			"0.014": 1.16429333254,
			"0.015": 1.21593322601,
			"0.016": 0.970389395112,
			"0.017": 0.27406099001,
			"0.018": 0.0,
			"0.019": 0.0,
			"0.02": 0.0,
			"0.021": 0.0,
			"0.022": 0.0,
			"0.023": 0.0,
			"0.024": 0.0,
			"0.025": 0.0
		}
	}
}
