{
	 "smiles": "CCCCCCCCCCCC[N+](C)(C)[O-]", 
	 "Tm": 405.15, 
	 "num_atms": 47, 
	 "gaussian": { 
		 "optdone": 1, 
		 "sigma_profile": "yes", 
		 "theory": "DFT", 
		 "functional": "B3LYP", 
		 "basiset": "6-31G**", 
		 "properties": { 
			 "R2extent": 9105.113, 
			 "electric_dipole_moment_norm": 4.00024469877, 
			 "electric_quadrupole_moment_norm": 27.8843299179, 
			 "total_energy": -682.085376816, 
			 "HOMO_LUMO_gap": 0.24997, 
			 "cosmo_polarized_energy": -16.78, 
			 "cosmo_cavitation_energy": 44.87, 
			 "cosmo_dispersion_energy": -30.68, 
			 "cosmo_repulsion_energy": 2.45, 
			 "cosmo_total_nonelectrostatic_energy": 16.64, 
			 "SMD_solvation_energy": 7.96 
		},
		"coords": [
			{
				"x": 1.3318023213,
				"y": 4.0166209583,
				"z": -4.8710849072,
				"element": "C" 
			},
			{
				"x": 0.9391858051,
				"y": 2.7216523726,
				"z": -4.1496501853,
				"element": "C" 
			},
			{
				"x": 2.1159007402,
				"y": 1.9819902245,
				"z": -3.4892470652,
				"element": "C" 
			},
			{
				"x": 2.8535713179,
				"y": 2.7497184135,
				"z": -2.3770749745,
				"element": "C" 
			},
			{
				"x": 2.0399289711,
				"y": 3.1615169964,
				"z": -1.134082652,
				"element": "C" 
			},
			{
				"x": 1.5244654647,
				"y": 2.0123642737,
				"z": -0.2392507104,
				"element": "C" 
			},
			{
				"x": 0.1396134285,
				"y": 1.4544452758,
				"z": -0.6095693974,
				"element": "C" 
			},
			{
				"x": -0.4081402187,
				"y": 0.4031298921,
				"z": 0.3728320636,
				"element": "C" 
			},
			{
				"x": 0.3560588076,
				"y": -0.9303086946,
				"z": 0.3662744997,
				"element": "C" 
			},
			{
				"x": -0.12439065,
				"y": -1.9890694035,
				"z": 1.377617866,
				"element": "C" 
			},
			{
				"x": -1.4213530038,
				"y": -2.750367138,
				"z": 1.0445075177,
				"element": "C" 
			},
			{
				"x": -2.714036317,
				"y": -1.964507608,
				"z": 1.2357076114,
				"element": "C" 
			},
			{
				"x": -3.8979277745,
				"y": -2.9034490947,
				"z": 1.5118639623,
				"element": "N" 
			},
			{
				"x": -5.0894941442,
				"y": -2.0604624473,
				"z": 1.8635088243,
				"element": "C" 
			},
			{
				"x": -4.2191390614,
				"y": -3.7143332355,
				"z": 0.2856438103,
				"element": "C" 
			},
			{
				"x": -3.6262010371,
				"y": -3.7352501354,
				"z": 2.5472037451,
				"element": "O" 
			},
			{
				"x": 1.7281114525,
				"y": 4.7668530456,
				"z": -4.178985397,
				"element": "H" 
			},
			{
				"x": 0.4692996925,
				"y": 4.4626214772,
				"z": -5.377395525,
				"element": "H" 
			},
			{
				"x": 2.1010836867,
				"y": 3.8286990428,
				"z": -5.6294085801,
				"element": "H" 
			},
			{
				"x": 0.1686022168,
				"y": 2.9421392305,
				"z": -3.40014105,
				"element": "H" 
			},
			{
				"x": 0.4672226336,
				"y": 2.0418328919,
				"z": -4.8709081681,
				"element": "H" 
			},
			{
				"x": 2.8483433499,
				"y": 1.7285120656,
				"z": -4.268565485,
				"element": "H" 
			},
			{
				"x": 1.7590844636,
				"y": 1.0216058273,
				"z": -3.0971145552,
				"element": "H" 
			},
			{
				"x": 3.7020986218,
				"y": 2.136519667,
				"z": -2.0434694278,
				"element": "H" 
			},
			{
				"x": 3.2988852118,
				"y": 3.656142403,
				"z": -2.8073127295,
				"element": "H" 
			},
			{
				"x": 1.1970451593,
				"y": 3.8025646799,
				"z": -1.4265264452,
				"element": "H" 
			},
			{
				"x": 2.6936788989,
				"y": 3.7997198662,
				"z": -0.5262260825,
				"element": "H" 
			},
			{
				"x": 2.2705253146,
				"y": 1.2067587802,
				"z": -0.2298280853,
				"element": "H" 
			},
			{
				"x": 1.4665247208,
				"y": 2.375890519,
				"z": 0.7959842709,
				"element": "H" 
			},
			{
				"x": -0.567635133,
				"y": 2.2941573511,
				"z": -0.6516976707,
				"element": "H" 
			},
			{
				"x": 0.1560729256,
				"y": 1.0241589347,
				"z": -1.6185945222,
				"element": "H" 
			},
			{
				"x": -1.4625222754,
				"y": 0.2260512531,
				"z": 0.1297415493,
				"element": "H" 
			},
			{
				"x": -0.397455246,
				"y": 0.8198109786,
				"z": 1.3906932005,
				"element": "H" 
			},
			{
				"x": 1.4141221946,
				"y": -0.7281526108,
				"z": 0.5736592009,
				"element": "H" 
			},
			{
				"x": 0.3267745741,
				"y": -1.3594365771,
				"z": -0.6462873219,
				"element": "H" 
			},
			{
				"x": -0.2173793969,
				"y": -1.5316210423,
				"z": 2.3727587097,
				"element": "H" 
			},
			{
				"x": 0.6679773661,
				"y": -2.7419342643,
				"z": 1.4718237802,
				"element": "H" 
			},
			{
				"x": -1.5224013543,
				"y": -3.602317951,
				"z": 1.7269459983,
				"element": "H" 
			},
			{
				"x": -1.3528908669,
				"y": -3.1419874789,
				"z": 0.0211201994,
				"element": "H" 
			},
			{
				"x": -2.6512565236,
				"y": -1.3526874127,
				"z": 2.1384843173,
				"element": "H" 
			},
			{
				"x": -2.974855742,
				"y": -1.3249130871,
				"z": 0.3858551804,
				"element": "H" 
			},
			{
				"x": -5.3412830003,
				"y": -1.3538890996,
				"z": 1.0650145136,
				"element": "H" 
			},
			{
				"x": -5.9145646864,
				"y": -2.745723422,
				"z": 2.0544398742,
				"element": "H" 
			},
			{
				"x": -4.8388855022,
				"y": -1.5376819708,
				"z": 2.7853952586,
				"element": "H" 
			},
			{
				"x": -4.4574194817,
				"y": -3.0791342745,
				"z": -0.5742558935,
				"element": "H" 
			},
			{
				"x": -5.0641567709,
				"y": -4.3484881886,
				"z": 0.5502642844,
				"element": "H" 
			},
			{
				"x": -3.3559911532,
				"y": -4.3426612837,
				"z": 0.0774365928,
				"element": "H" 
			}
		],
		 "valence_orbital": [ 
			{
				"type": "occ",
				"energy": -0.30593,
				"method": "rhf"
			},
			{
				"type": "occ",
				"energy": -0.30214,
				"method": "rhf"
			},
			{
				"type": "occ",
				"energy": -0.29663,
				"method": "rhf"
			},
			{
				"type": "occ",
				"energy": -0.18491,
				"method": "rhf"
			},
			{
				"type": "occ",
				"energy": -0.18301,
				"method": "rhf"
			},
			{
				"type": "unocc",
				"energy": 0.06696,
				"method": "rhf"
			},
			{
				"type": "unocc",
				"energy": 0.07655,
				"method": "rhf"
			},
			{
				"type": "unocc",
				"energy": 0.08453,
				"method": "rhf"
			},
			{
				"type": "unocc",
				"energy": 0.09957,
				"method": "rhf"
			},
			{
				"type": "unocc",
				"energy": 0.10204,
				"method": "rhf"
			}
		],
		"cosmo_sigma_profile": { 
			"-0.025": 0.0,
			"-0.024": 0.0,
			"-0.023": 0.0,
			"-0.022": 0.0,
			"-0.021": 0.0,
			"-0.02": 0.0,
			"-0.019": 0.0,
			"-0.018": 0.0,
			"-0.017": 0.0,
			"-0.016": 0.0,
			"-0.015": 0.0,
			"-0.014": 0.0,
			"-0.013": 0.0,
			"-0.012": 0.0,
			"-0.011": 0.0,
			"-0.01": 0.0,
			"-0.009": 0.383160898817,
			"-0.008": 1.61649631237,
			"-0.007": 2.74158134953,
			"-0.006": 11.5143961884,
			"-0.005": 14.2838885801,
			"-0.004": 16.4582450864,
			"-0.003": 22.613730275,
			"-0.002": 44.4998304704,
			"-0.001": 62.0175382399,
			"0.0": 64.0623372976,
			"0.001": 52.9766043494,
			"0.002": 21.9899675344,
			"0.003": 1.97455786556,
			"0.004": 1.25497517082,
			"0.005": 1.17278831418,
			"0.006": 1.12748805105,
			"0.007": 0.910397334706,
			"0.008": 0.462260534418,
			"0.009": 1.28943621362,
			"0.01": 1.33314520516,
			"0.011": 1.17760598479,
			"0.012": 0.89885624293,
			"0.013": 0.951133155938,
			"0.014": 1.10578240128,
			"0.015": 1.19299566237,
			"0.016": 1.99263011013,
			"0.017": 2.12360069713,
			"0.018": 3.22401924642,
			"0.019": 3.80686460883,
			"0.02": 1.74867371586,
			"0.021": 0.0996049454227,
			"0.022": 0.0,
			"0.023": 0.0,
			"0.024": 0.0,
			"0.025": 0.0
		}
	}
}
