{
	 "smiles": "OC(=O)CC1=CC(OCC2=CC=C(Cl)C=C2)=CC=C1", 
	 "Tm": 400.15, 
	 "num_atms": 32, 
	 "gaussian": { 
		 "optdone": 1, 
		 "sigma_profile": "yes", 
		 "theory": "DFT", 
		 "functional": "B3LYP", 
		 "basiset": "6-31G**", 
		 "properties": { 
			 "R2extent": 8896.6481, 
			 "electric_dipole_moment_norm": 2.03329826145, 
			 "electric_quadrupole_moment_norm": 19.284001704, 
			 "total_energy": -1265.30525877, 
			 "HOMO_LUMO_gap": 0.20325, 
			 "cosmo_polarized_energy": -14.15, 
			 "cosmo_cavitation_energy": 39.01, 
			 "cosmo_dispersion_energy": -27.34, 
			 "cosmo_repulsion_energy": 2.15, 
			 "cosmo_total_nonelectrostatic_energy": 13.81, 
			 "SMD_solvation_energy": 7.44 
		},
		"coords": [
			{
				"x": -3.051729172,
				"y": 3.3678801501,
				"z": -0.8040075422,
				"element": "O" 
			},
			{
				"x": -1.8513353599,
				"y": 3.8500939821,
				"z": -0.4054971577,
				"element": "C" 
			},
			{
				"x": -1.6754040529,
				"y": 4.3517484489,
				"z": 0.683210541,
				"element": "O" 
			},
			{
				"x": -0.7790074967,
				"y": 3.6502328646,
				"z": -1.4608444762,
				"element": "C" 
			},
			{
				"x": -0.0040295137,
				"y": 2.3621527266,
				"z": -1.2194778345,
				"element": "C" 
			},
			{
				"x": 0.7400784396,
				"y": 2.207712733,
				"z": -0.0488651854,
				"element": "C" 
			},
			{
				"x": 1.464982268,
				"y": 1.0324161532,
				"z": 0.1816396337,
				"element": "C" 
			},
			{
				"x": 2.1659626382,
				"y": 1.003520949,
				"z": 1.3604918701,
				"element": "O" 
			},
			{
				"x": 3.0491342698,
				"y": -0.0818958773,
				"z": 1.6200084254,
				"element": "C" 
			},
			{
				"x": 2.3568430778,
				"y": -1.3434124296,
				"z": 2.1010703865,
				"element": "C" 
			},
			{
				"x": 2.9425011603,
				"y": -2.5951834871,
				"z": 1.8824834357,
				"element": "C" 
			},
			{
				"x": 2.3520367805,
				"y": -3.7607851061,
				"z": 2.3714526288,
				"element": "C" 
			},
			{
				"x": 1.1557399888,
				"y": -3.6657839074,
				"z": 3.0806271297,
				"element": "C" 
			},
			{
				"x": 0.3964428668,
				"y": -5.1282301449,
				"z": 3.6947334655,
				"element": "Cl" 
			},
			{
				"x": 0.5494833368,
				"y": -2.4301938679,
				"z": 3.3064184926,
				"element": "C" 
			},
			{
				"x": 1.1572264021,
				"y": -1.2744125281,
				"z": 2.8178479288,
				"element": "C" 
			},
			{
				"x": 1.4425620157,
				"y": -0.0036594886,
				"z": -0.7597405132,
				"element": "C" 
			},
			{
				"x": 0.6948581784,
				"y": 0.1595419213,
				"z": -1.9281429333,
				"element": "C" 
			},
			{
				"x": -0.0262325661,
				"y": 1.3278514137,
				"z": -2.1643570277,
				"element": "C" 
			},
			{
				"x": -3.6581446525,
				"y": 3.5014976109,
				"z": -0.0556759636,
				"element": "H" 
			},
			{
				"x": -1.2384716317,
				"y": 3.6327979953,
				"z": -2.4513855683,
				"element": "H" 
			},
			{
				"x": -0.1082196237,
				"y": 4.5122462217,
				"z": -1.3984392392,
				"element": "H" 
			},
			{
				"x": 0.7642386658,
				"y": 2.9918093203,
				"z": 0.701102956,
				"element": "H" 
			},
			{
				"x": 3.6707428745,
				"y": -0.2945665051,
				"z": 0.7400743547,
				"element": "H" 
			},
			{
				"x": 3.7140362255,
				"y": 0.2976727964,
				"z": 2.4039536052,
				"element": "H" 
			},
			{
				"x": 3.8721990341,
				"y": -2.6683726881,
				"z": 1.3227806715,
				"element": "H" 
			},
			{
				"x": 2.8076674195,
				"y": -4.7295186327,
				"z": 2.1987537273,
				"element": "H" 
			},
			{
				"x": -0.3831749748,
				"y": -2.3754186101,
				"z": 3.8570169168,
				"element": "H" 
			},
			{
				"x": 0.6926555949,
				"y": -0.3080488128,
				"z": 2.9851089985,
				"element": "H" 
			},
			{
				"x": 1.9740115551,
				"y": -0.9311717112,
				"z": -0.5866362634,
				"element": "H" 
			},
			{
				"x": 0.6730007506,
				"y": -0.6447629866,
				"z": -2.6579579211,
				"element": "H" 
			},
			{
				"x": -0.6057544988,
				"y": 1.4379414966,
				"z": -3.0761475419,
				"element": "H" 
			}
		],
		 "valence_orbital": [ 
			{
				"type": "occ",
				"energy": -0.27712,
				"method": "rhf"
			},
			{
				"type": "occ",
				"energy": -0.26725,
				"method": "rhf"
			},
			{
				"type": "occ",
				"energy": -0.24955,
				"method": "rhf"
			},
			{
				"type": "occ",
				"energy": -0.24391,
				"method": "rhf"
			},
			{
				"type": "occ",
				"energy": -0.22423,
				"method": "rhf"
			},
			{
				"type": "unocc",
				"energy": -0.02098,
				"method": "rhf"
			},
			{
				"type": "unocc",
				"energy": -0.01884,
				"method": "rhf"
			},
			{
				"type": "unocc",
				"energy": -0.01088,
				"method": "rhf"
			},
			{
				"type": "unocc",
				"energy": 0.0028,
				"method": "rhf"
			},
			{
				"type": "unocc",
				"energy": 0.02119,
				"method": "rhf"
			}
		],
		"cosmo_sigma_profile": { 
			"-0.025": 0.0,
			"-0.024": 0.0,
			"-0.023": 0.0,
			"-0.022": 0.0,
			"-0.021": 0.0,
			"-0.02": 0.0,
			"-0.019": 0.0,
			"-0.018": 0.65362765699,
			"-0.017": 0.963943818675,
			"-0.016": 0.906798973243,
			"-0.015": 0.990034032529,
			"-0.014": 0.833294366318,
			"-0.013": 0.303478413509,
			"-0.012": 0.387362270608,
			"-0.011": 1.37000737375,
			"-0.01": 0.661776478621,
			"-0.009": 0.177268959277,
			"-0.008": 0.854958244043,
			"-0.007": 10.9647380862,
			"-0.006": 21.1813861205,
			"-0.005": 23.2773072365,
			"-0.004": 23.5056319004,
			"-0.003": 20.393578673,
			"-0.002": 16.7402341617,
			"-0.001": 17.2190701588,
			"0.0": 17.0668765778,
			"0.001": 21.321023745,
			"0.002": 26.0109283746,
			"0.003": 30.5920958811,
			"0.004": 28.6400866887,
			"0.005": 19.9491090412,
			"0.006": 5.64805879098,
			"0.007": 3.77619090722,
			"0.008": 3.7597662004,
			"0.009": 4.19405215638,
			"0.01": 3.18038443857,
			"0.011": 3.424596307,
			"0.012": 4.02259682658,
			"0.013": 0.354369953746,
			"0.014": 0.0,
			"0.015": 0.0,
			"0.016": 0.0,
			"0.017": 0.0,
			"0.018": 0.0,
			"0.019": 0.0,
			"0.02": 0.0,
			"0.021": 0.0,
			"0.022": 0.0,
			"0.023": 0.0,
			"0.024": 0.0,
			"0.025": 0.0
		}
	}
}
