{
	 "smiles": "ClCC(=O)NC1=CC=C(C=C1)S(=O)(=O)N1CCOCC1", 
	 "Tm": 419.15, 
	 "num_atms": 35, 
	 "gaussian": { 
		 "optdone": 1, 
		 "sigma_profile": "yes", 
		 "theory": "DFT", 
		 "functional": "B3LYP", 
		 "basiset": "6-31G**", 
		 "properties": { 
			 "R2extent": 10419.6365, 
			 "electric_dipole_moment_norm": 2.6798118684, 
			 "electric_quadrupole_moment_norm": 20.9460669241, 
			 "total_energy": -1735.0063412, 
			 "HOMO_LUMO_gap": 0.18765, 
			 "cosmo_polarized_energy": -22.9, 
			 "cosmo_cavitation_energy": 40.91, 
			 "cosmo_dispersion_energy": -29.5, 
			 "cosmo_repulsion_energy": 2.24, 
			 "cosmo_total_nonelectrostatic_energy": 13.65, 
			 "SMD_solvation_energy": 5.74 
		},
		"coords": [
			{
				"x": -0.7701058412,
				"y": 3.7600162203,
				"z": -5.0782527676,
				"element": "Cl" 
			},
			{
				"x": 0.6036442738,
				"y": 2.5921379034,
				"z": -4.8829839543,
				"element": "C" 
			},
			{
				"x": 0.123963138,
				"y": 1.1525444297,
				"z": -5.0345575759,
				"element": "C" 
			},
			{
				"x": 0.0236932744,
				"y": 0.6400887963,
				"z": -6.1360951055,
				"element": "O" 
			},
			{
				"x": -0.1431556663,
				"y": 0.4110398746,
				"z": -3.8969242445,
				"element": "N" 
			},
			{
				"x": -0.0863087374,
				"y": 0.7106735588,
				"z": -2.519850747,
				"element": "C" 
			},
			{
				"x": 0.3643525037,
				"y": -0.3001405663,
				"z": -1.6498390203,
				"element": "C" 
			},
			{
				"x": 0.4166538057,
				"y": -0.0811423491,
				"z": -0.2806886405,
				"element": "C" 
			},
			{
				"x": 0.0241331819,
				"y": 1.1598200973,
				"z": 0.2307800212,
				"element": "C" 
			},
			{
				"x": -0.4268681948,
				"y": 2.1692774877,
				"z": -0.6171717406,
				"element": "C" 
			},
			{
				"x": -0.5011346086,
				"y": 1.9413426978,
				"z": -1.9914666034,
				"element": "C" 
			},
			{
				"x": 0.1372065006,
				"y": 1.4630524918,
				"z": 1.9932614927,
				"element": "S" 
			},
			{
				"x": -0.1609048986,
				"y": 2.8866231426,
				"z": 2.2041581109,
				"element": "O" 
			},
			{
				"x": 1.3848393571,
				"y": 0.8750932184,
				"z": 2.4926168018,
				"element": "O" 
			},
			{
				"x": -1.1090394209,
				"y": 0.4913222579,
				"z": 2.5924014388,
				"element": "N" 
			},
			{
				"x": -0.8847949889,
				"y": -0.1848485711,
				"z": 3.8782523441,
				"element": "C" 
			},
			{
				"x": -1.818698686,
				"y": -1.4046053028,
				"z": 3.9309821861,
				"element": "C" 
			},
			{
				"x": -3.0910413692,
				"y": -1.1585281684,
				"z": 3.3305437689,
				"element": "O" 
			},
			{
				"x": -3.4337973339,
				"y": 0.2134203935,
				"z": 3.3150869198,
				"element": "C" 
			},
			{
				"x": -2.4818917875,
				"y": 1.010249807,
				"z": 2.4067342976,
				"element": "C" 
			},
			{
				"x": 1.0742591682,
				"y": 2.8006028875,
				"z": -3.9229325446,
				"element": "H" 
			},
			{
				"x": 1.2939511825,
				"y": 2.7869131568,
				"z": -5.7016841072,
				"element": "H" 
			},
			{
				"x": -0.3097260267,
				"y": -0.5599366603,
				"z": -4.1358066702,
				"element": "H" 
			},
			{
				"x": 0.6891949146,
				"y": -1.2521582336,
				"z": -2.0599562833,
				"element": "H" 
			},
			{
				"x": 0.7769978744,
				"y": -0.8560882899,
				"z": 0.3868165995,
				"element": "H" 
			},
			{
				"x": -0.7289935599,
				"y": 3.1230527627,
				"z": -0.199086201,
				"element": "H" 
			},
			{
				"x": -0.9085393925,
				"y": 2.7082798701,
				"z": -2.6393358254,
				"element": "H" 
			},
			{
				"x": 0.156408567,
				"y": -0.5039036997,
				"z": 3.9327452473,
				"element": "H" 
			},
			{
				"x": -1.0673997615,
				"y": 0.4913716347,
				"z": 4.7257307371,
				"element": "H" 
			},
			{
				"x": -1.9448543985,
				"y": -1.7133226411,
				"z": 4.9804370132,
				"element": "H" 
			},
			{
				"x": -1.3799527245,
				"y": -2.240506601,
				"z": 3.3769877737,
				"element": "H" 
			},
			{
				"x": -3.4376481161,
				"y": 0.6348436493,
				"z": 4.3321012319,
				"element": "H" 
			},
			{
				"x": -4.4539578753,
				"y": 0.2819339475,
				"z": 2.9284571862,
				"element": "H" 
			},
			{
				"x": -2.5461015519,
				"y": 2.0797738412,
				"z": 2.6472889807,
				"element": "H" 
			},
			{
				"x": -2.7603828015,
				"y": 0.8735069565,
				"z": 1.3563498801,
				"element": "H" 
			}
		],
		 "valence_orbital": [ 
			{
				"type": "occ",
				"energy": -0.28545,
				"method": "rhf"
			},
			{
				"type": "occ",
				"energy": -0.27794,
				"method": "rhf"
			},
			{
				"type": "occ",
				"energy": -0.26461,
				"method": "rhf"
			},
			{
				"type": "occ",
				"energy": -0.26159,
				"method": "rhf"
			},
			{
				"type": "occ",
				"energy": -0.24666,
				"method": "rhf"
			},
			{
				"type": "unocc",
				"energy": -0.05901,
				"method": "rhf"
			},
			{
				"type": "unocc",
				"energy": -0.03596,
				"method": "rhf"
			},
			{
				"type": "unocc",
				"energy": -0.02789,
				"method": "rhf"
			},
			{
				"type": "unocc",
				"energy": 0.04129,
				"method": "rhf"
			},
			{
				"type": "unocc",
				"energy": 0.05003,
				"method": "rhf"
			}
		],
		"cosmo_sigma_profile": { 
			"-0.025": 0.0,
			"-0.024": 0.0,
			"-0.023": 0.0,
			"-0.022": 0.0,
			"-0.021": 0.0,
			"-0.02": 0.0,
			"-0.019": 0.0,
			"-0.018": 0.0,
			"-0.017": 0.0,
			"-0.016": 0.34127448989,
			"-0.015": 0.935726924249,
			"-0.014": 1.35796010768,
			"-0.013": 0.713478739445,
			"-0.012": 1.41850539213,
			"-0.011": 1.18972724839,
			"-0.01": 1.69181761076,
			"-0.009": 3.47982958484,
			"-0.008": 7.56296607096,
			"-0.007": 11.7637359593,
			"-0.006": 18.8034642837,
			"-0.005": 32.5571415977,
			"-0.004": 27.7867978717,
			"-0.003": 24.0806106925,
			"-0.002": 20.959976597,
			"-0.001": 17.4034317053,
			"0.0": 18.1567658937,
			"0.001": 20.6635332514,
			"0.002": 18.6843103012,
			"0.003": 11.9714582156,
			"0.004": 12.9639014643,
			"0.005": 12.9791005158,
			"0.006": 5.82816777942,
			"0.007": 5.96777154388,
			"0.008": 5.68961291038,
			"0.009": 6.39092890237,
			"0.01": 9.91336516888,
			"0.011": 11.1053990839,
			"0.012": 10.4895756223,
			"0.013": 3.59072726088,
			"0.014": 0.0904909903215,
			"0.015": 0.0,
			"0.016": 0.0,
			"0.017": 0.0,
			"0.018": 0.0,
			"0.019": 0.0,
			"0.02": 0.0,
			"0.021": 0.0,
			"0.022": 0.0,
			"0.023": 0.0,
			"0.024": 0.0,
			"0.025": 0.0
		}
	}
}
