{
	 "smiles": "CC1=CC(O)=C(Cl)C=C1C", 
	 "Tm": 344.15, 
	 "num_atms": 19, 
	 "gaussian": { 
		 "optdone": 1, 
		 "sigma_profile": "yes", 
		 "theory": "DFT", 
		 "functional": "B3LYP", 
		 "basiset": "6-31G**", 
		 "properties": { 
			 "R2extent": 2073.0207, 
			 "electric_dipole_moment_norm": 1.60687103092, 
			 "electric_quadrupole_moment_norm": 4.74765949916, 
			 "total_energy": -845.704502831, 
			 "HOMO_LUMO_gap": 0.21164, 
			 "cosmo_polarized_energy": -5.6, 
			 "cosmo_cavitation_energy": 23.83, 
			 "cosmo_dispersion_energy": -17.86, 
			 "cosmo_repulsion_energy": 1.44, 
			 "cosmo_total_nonelectrostatic_energy": 7.41, 
			 "SMD_solvation_energy": 4.2 
		},
		"coords": [
			{
				"x": -2.3878369421,
				"y": 0.8676162081,
				"z": 1.8789055953,
				"element": "C" 
			},
			{
				"x": -1.4197974542,
				"y": 0.6628965438,
				"z": 0.7384225375,
				"element": "C" 
			},
			{
				"x": -1.9029947758,
				"y": 0.3659292701,
				"z": -0.5355329951,
				"element": "C" 
			},
			{
				"x": -1.0461559028,
				"y": 0.1674555311,
				"z": -1.6240227,
				"element": "C" 
			},
			{
				"x": -1.5928912131,
				"y": -0.1184406323,
				"z": -2.8334041932,
				"element": "O" 
			},
			{
				"x": 0.3304190545,
				"y": 0.2757165043,
				"z": -1.401167487,
				"element": "C" 
			},
			{
				"x": 1.4293963065,
				"y": 0.0287536077,
				"z": -2.7614691814,
				"element": "Cl" 
			},
			{
				"x": 0.831686795,
				"y": 0.571568367,
				"z": -0.1361348996,
				"element": "C" 
			},
			{
				"x": -0.0253773438,
				"y": 0.7690481179,
				"z": 0.9479768853,
				"element": "C" 
			},
			{
				"x": 0.5394810527,
				"y": 1.0889190412,
				"z": 2.3115594483,
				"element": "C" 
			},
			{
				"x": -2.2126097135,
				"y": 0.1504073322,
				"z": 2.6899516728,
				"element": "H" 
			},
			{
				"x": -3.4219453505,
				"y": 0.7503811339,
				"z": 1.5461341775,
				"element": "H" 
			},
			{
				"x": -2.2876266691,
				"y": 1.8675910154,
				"z": 2.3181137871,
				"element": "H" 
			},
			{
				"x": -2.970132756,
				"y": 0.2801520878,
				"z": -0.7166915548,
				"element": "H" 
			},
			{
				"x": -0.8784280868,
				"y": -0.2273746329,
				"z": -3.479242089,
				"element": "H" 
			},
			{
				"x": 1.9061765124,
				"y": 0.6474316419,
				"z": -0.0018858937,
				"element": "H" 
			},
			{
				"x": 1.6314343751,
				"y": 1.130404134,
				"z": 2.2853401247,
				"element": "H" 
			},
			{
				"x": 0.2530895348,
				"y": 0.3372353885,
				"z": 3.057411929,
				"element": "H" 
			},
			{
				"x": 0.1789125766,
				"y": 2.0552093403,
				"z": 2.6852348363,
				"element": "H" 
			}
		],
		 "valence_orbital": [ 
			{
				"type": "occ",
				"energy": -0.3434,
				"method": "rhf"
			},
			{
				"type": "occ",
				"energy": -0.32464,
				"method": "rhf"
			},
			{
				"type": "occ",
				"energy": -0.31543,
				"method": "rhf"
			},
			{
				"type": "occ",
				"energy": -0.24452,
				"method": "rhf"
			},
			{
				"type": "occ",
				"energy": -0.21764,
				"method": "rhf"
			},
			{
				"type": "unocc",
				"energy": -0.006,
				"method": "rhf"
			},
			{
				"type": "unocc",
				"energy": 0.00755,
				"method": "rhf"
			},
			{
				"type": "unocc",
				"energy": 0.02431,
				"method": "rhf"
			},
			{
				"type": "unocc",
				"energy": 0.09081,
				"method": "rhf"
			},
			{
				"type": "unocc",
				"energy": 0.09312,
				"method": "rhf"
			}
		],
		"cosmo_sigma_profile": { 
			"-0.025": 0.0,
			"-0.024": 0.0,
			"-0.023": 0.0,
			"-0.022": 0.0,
			"-0.021": 0.0,
			"-0.02": 0.0,
			"-0.019": 0.0,
			"-0.018": 0.0,
			"-0.017": 0.0,
			"-0.016": 0.0,
			"-0.015": 0.371574452598,
			"-0.014": 0.362941574237,
			"-0.013": 0.900544421873,
			"-0.012": 0.306224340292,
			"-0.011": 0.512279585217,
			"-0.01": 1.30408637351,
			"-0.009": 0.88272556887,
			"-0.008": 0.933534863967,
			"-0.007": 1.42977993245,
			"-0.006": 4.91751875682,
			"-0.005": 6.93178234944,
			"-0.004": 17.0775904686,
			"-0.003": 14.4429274717,
			"-0.002": 18.3814238581,
			"-0.001": 16.0152179784,
			"0.0": 22.8614683174,
			"0.001": 16.4074929963,
			"0.002": 13.2221556749,
			"0.003": 15.9117273149,
			"0.004": 18.3122091896,
			"0.005": 10.7356320035,
			"0.006": 0.756791516147,
			"0.007": 1.04063726535,
			"0.008": 1.82621680695,
			"0.009": 1.64690283121,
			"0.01": 1.54518954159,
			"0.011": 1.71848612431,
			"0.012": 0.0676358517103,
			"0.013": 0.0,
			"0.014": 0.0,
			"0.015": 0.0,
			"0.016": 0.0,
			"0.017": 0.0,
			"0.018": 0.0,
			"0.019": 0.0,
			"0.02": 0.0,
			"0.021": 0.0,
			"0.022": 0.0,
			"0.023": 0.0,
			"0.024": 0.0,
			"0.025": 0.0
		}
	}
}
