{
	 "smiles": "NS(=O)(=O)C1=CC(NC(=O)CCl)=CC=C1", 
	 "Tm": 439.15, 
	 "num_atms": 24, 
	 "gaussian": { 
		 "optdone": 1, 
		 "sigma_profile": "yes", 
		 "theory": "DFT", 
		 "functional": "B3LYP", 
		 "basiset": "6-31G**", 
		 "properties": { 
			 "R2extent": 4323.034, 
			 "electric_dipole_moment_norm": 4.54392689202, 
			 "electric_quadrupole_moment_norm": 27.7949862858, 
			 "total_energy": -1503.76575654, 
			 "HOMO_LUMO_gap": 0.19834, 
			 "cosmo_polarized_energy": -25.49, 
			 "cosmo_cavitation_energy": 31.83, 
			 "cosmo_dispersion_energy": -22.74, 
			 "cosmo_repulsion_energy": 1.74, 
			 "cosmo_total_nonelectrostatic_energy": 10.84, 
			 "SMD_solvation_energy": 5.51 
		},
		"coords": [
			{
				"x": -1.415331335,
				"y": -2.6626401703,
				"z": -1.3686044562,
				"element": "N" 
			},
			{
				"x": -0.3909766862,
				"y": -1.7997196295,
				"z": -2.3816604848,
				"element": "S" 
			},
			{
				"x": -1.2409132385,
				"y": -0.8385187393,
				"z": -3.0827329083,
				"element": "O" 
			},
			{
				"x": 0.423821908,
				"y": -2.7981387179,
				"z": -3.0699318162,
				"element": "O" 
			},
			{
				"x": 0.7012553239,
				"y": -0.8551012872,
				"z": -1.3036302963,
				"element": "C" 
			},
			{
				"x": 0.2985441718,
				"y": 0.4213492458,
				"z": -0.915265717,
				"element": "C" 
			},
			{
				"x": 1.0848158665,
				"y": 1.1393232479,
				"z": -0.0082561956,
				"element": "C" 
			},
			{
				"x": 0.7473806164,
				"y": 2.4363559865,
				"z": 0.4356971243,
				"element": "N" 
			},
			{
				"x": -0.448622917,
				"y": 3.0563541703,
				"z": 0.7334497464,
				"element": "C" 
			},
			{
				"x": -0.4608735232,
				"y": 4.2327085232,
				"z": 1.0604077101,
				"element": "O" 
			},
			{
				"x": -1.7726377165,
				"y": 2.2975004942,
				"z": 0.6578073198,
				"element": "C" 
			},
			{
				"x": -1.8321449236,
				"y": 0.8023648224,
				"z": 1.6825038109,
				"element": "Cl" 
			},
			{
				"x": 2.2930562372,
				"y": 0.5810890217,
				"z": 0.4394261285,
				"element": "C" 
			},
			{
				"x": 2.701185136,
				"y": -0.676138307,
				"z": 0.0006314392,
				"element": "C" 
			},
			{
				"x": 1.9007306916,
				"y": -1.4183401373,
				"z": -0.8691016364,
				"element": "C" 
			},
			{
				"x": -1.9984784981,
				"y": -2.0638138605,
				"z": -0.7914412812,
				"element": "H" 
			},
			{
				"x": -0.9292116707,
				"y": -3.3763911994,
				"z": -0.8349225552,
				"element": "H" 
			},
			{
				"x": -0.5968328383,
				"y": 0.8422932428,
				"z": -1.3530840254,
				"element": "H" 
			},
			{
				"x": 1.5253080416,
				"y": 3.0507475713,
				"z": 0.6460332422,
				"element": "H" 
			},
			{
				"x": -2.5297530432,
				"y": 2.9772948949,
				"z": 1.0413282011,
				"element": "H" 
			},
			{
				"x": -2.028443839,
				"y": 2.0051044883,
				"z": -0.3612866671,
				"element": "H" 
			},
			{
				"x": 2.9095451205,
				"y": 1.139671216,
				"z": 1.1381852546,
				"element": "H" 
			},
			{
				"x": 3.6461977168,
				"y": -1.0829002741,
				"z": 0.346922174,
				"element": "H" 
			},
			{
				"x": 2.204079399,
				"y": -2.3964546028,
				"z": -1.2250741114,
				"element": "H" 
			}
		],
		 "valence_orbital": [ 
			{
				"type": "occ",
				"energy": -0.31105,
				"method": "rhf"
			},
			{
				"type": "occ",
				"energy": -0.30894,
				"method": "rhf"
			},
			{
				"type": "occ",
				"energy": -0.28161,
				"method": "rhf"
			},
			{
				"type": "occ",
				"energy": -0.28039,
				"method": "rhf"
			},
			{
				"type": "occ",
				"energy": -0.25356,
				"method": "rhf"
			},
			{
				"type": "unocc",
				"energy": -0.05522,
				"method": "rhf"
			},
			{
				"type": "unocc",
				"energy": -0.04848,
				"method": "rhf"
			},
			{
				"type": "unocc",
				"energy": -0.01897,
				"method": "rhf"
			},
			{
				"type": "unocc",
				"energy": 0.03097,
				"method": "rhf"
			},
			{
				"type": "unocc",
				"energy": 0.04255,
				"method": "rhf"
			}
		],
		"cosmo_sigma_profile": { 
			"-0.025": 0.0,
			"-0.024": 0.0,
			"-0.023": 0.0,
			"-0.022": 0.0,
			"-0.021": 0.0,
			"-0.02": 0.0,
			"-0.019": 0.0,
			"-0.018": 0.0,
			"-0.017": 0.0,
			"-0.016": 0.197658550551,
			"-0.015": 2.20261972093,
			"-0.014": 2.96175693136,
			"-0.013": 3.35980620168,
			"-0.012": 5.42315576425,
			"-0.011": 5.46094770355,
			"-0.01": 5.02225662488,
			"-0.009": 5.77388163484,
			"-0.008": 9.31181617788,
			"-0.007": 12.2217228381,
			"-0.006": 14.1408724899,
			"-0.005": 10.0477366828,
			"-0.004": 8.00161118377,
			"-0.003": 9.3841470709,
			"-0.002": 10.3069838124,
			"-0.001": 12.6518766822,
			"0.0": 15.0181658448,
			"0.001": 15.740675635,
			"0.002": 17.3609655714,
			"0.003": 13.4461628614,
			"0.004": 10.2804067876,
			"0.005": 9.97853124007,
			"0.006": 6.37742683867,
			"0.007": 5.53342307281,
			"0.008": 6.1588047555,
			"0.009": 5.78277580809,
			"0.01": 9.37586579081,
			"0.011": 13.5853899909,
			"0.012": 9.10429935299,
			"0.013": 1.65193868087,
			"0.014": 0.0,
			"0.015": 0.0,
			"0.016": 0.0,
			"0.017": 0.0,
			"0.018": 0.0,
			"0.019": 0.0,
			"0.02": 0.0,
			"0.021": 0.0,
			"0.022": 0.0,
			"0.023": 0.0,
			"0.024": 0.0,
			"0.025": 0.0
		}
	}
}
