{
	 "smiles": "COC1=C2C=CC=CC2=C(Cl)N=N1", 
	 "Tm": 373.15, 
	 "num_atms": 20, 
	 "gaussian": { 
		 "optdone": 1, 
		 "sigma_profile": "yes", 
		 "theory": "DFT", 
		 "functional": "B3LYP", 
		 "basiset": "6-31G**", 
		 "properties": { 
			 "R2extent": 3169.9914, 
			 "electric_dipole_moment_norm": 4.58423009457, 
			 "electric_quadrupole_moment_norm": 15.0170829275, 
			 "total_energy": -992.062143135, 
			 "HOMO_LUMO_gap": 0.17802, 
			 "cosmo_polarized_energy": -10.24, 
			 "cosmo_cavitation_energy": 26.04, 
			 "cosmo_dispersion_energy": -19.76, 
			 "cosmo_repulsion_energy": 1.55, 
			 "cosmo_total_nonelectrostatic_energy": 7.83, 
			 "SMD_solvation_energy": 3.44 
		},
		"coords": [
			{
				"x": -0.1700064361,
				"y": -3.4264731891,
				"z": 0.1468338232,
				"element": "C" 
			},
			{
				"x": -0.32149811,
				"y": -2.1786391676,
				"z": -0.5480036908,
				"element": "O" 
			},
			{
				"x": -0.7060358932,
				"y": -1.1164673711,
				"z": 0.1802738155,
				"element": "C" 
			},
			{
				"x": -0.8517460666,
				"y": 0.1227538006,
				"z": -0.5336716545,
				"element": "C" 
			},
			{
				"x": -0.6155028249,
				"y": 0.2619761229,
				"z": -1.9174460912,
				"element": "C" 
			},
			{
				"x": -0.782233293,
				"y": 1.4959809451,
				"z": -2.5161066076,
				"element": "C" 
			},
			{
				"x": -1.1860207884,
				"y": 2.6117727454,
				"z": -1.7519206791,
				"element": "C" 
			},
			{
				"x": -1.4217018324,
				"y": 2.4930119092,
				"z": -0.3954208621,
				"element": "C" 
			},
			{
				"x": -1.2574349078,
				"y": 1.2411324948,
				"z": 0.2374934199,
				"element": "C" 
			},
			{
				"x": -1.4659733954,
				"y": 0.972008893,
				"z": 1.6326120501,
				"element": "C" 
			},
			{
				"x": -1.972245131,
				"y": 2.2863315904,
				"z": 2.6905330748,
				"element": "Cl" 
			},
			{
				"x": -1.3124618205,
				"y": -0.1817573722,
				"z": 2.2055444587,
				"element": "N" 
			},
			{
				"x": -0.9217833775,
				"y": -1.2604371071,
				"z": 1.4648076533,
				"element": "N" 
			},
			{
				"x": -1.1147684927,
				"y": -3.7329872333,
				"z": 0.6025992529,
				"element": "H" 
			},
			{
				"x": 0.5854256865,
				"y": -3.3431230912,
				"z": 0.9320866749,
				"element": "H" 
			},
			{
				"x": 0.1415692486,
				"y": -4.1411870477,
				"z": -0.6152556539,
				"element": "H" 
			},
			{
				"x": -0.3060123156,
				"y": -0.6057052287,
				"z": -2.4883965392,
				"element": "H" 
			},
			{
				"x": -0.6023305818,
				"y": 1.6113062687,
				"z": -3.580665527,
				"element": "H" 
			},
			{
				"x": -1.3127676351,
				"y": 3.5750236597,
				"z": -2.2369008383,
				"element": "H" 
			},
			{
				"x": -1.731772033,
				"y": 3.348778378,
				"z": 0.1925039206,
				"element": "H" 
			}
		],
		 "valence_orbital": [ 
			{
				"type": "occ",
				"energy": -0.31177,
				"method": "rhf"
			},
			{
				"type": "occ",
				"energy": -0.28635,
				"method": "rhf"
			},
			{
				"type": "occ",
				"energy": -0.28117,
				"method": "rhf"
			},
			{
				"type": "occ",
				"energy": -0.24487,
				"method": "rhf"
			},
			{
				"type": "occ",
				"energy": -0.24081,
				"method": "rhf"
			},
			{
				"type": "unocc",
				"energy": -0.06279,
				"method": "rhf"
			},
			{
				"type": "unocc",
				"energy": -0.05044,
				"method": "rhf"
			},
			{
				"type": "unocc",
				"energy": 0.01872,
				"method": "rhf"
			},
			{
				"type": "unocc",
				"energy": 0.03191,
				"method": "rhf"
			},
			{
				"type": "unocc",
				"energy": 0.06677,
				"method": "rhf"
			}
		],
		"cosmo_sigma_profile": { 
			"-0.025": 0.0,
			"-0.024": 0.0,
			"-0.023": 0.0,
			"-0.022": 0.0,
			"-0.021": 0.0,
			"-0.02": 0.0,
			"-0.019": 0.0,
			"-0.018": 0.0,
			"-0.017": 0.0,
			"-0.016": 0.0,
			"-0.015": 0.0,
			"-0.014": 0.0,
			"-0.013": 0.0,
			"-0.012": 0.0,
			"-0.011": 0.0,
			"-0.01": 0.0,
			"-0.009": 0.0,
			"-0.008": 1.13848627917,
			"-0.007": 7.75565016609,
			"-0.006": 12.4748293076,
			"-0.005": 13.6912346046,
			"-0.004": 14.9194921525,
			"-0.003": 17.4555004905,
			"-0.002": 20.1054886772,
			"-0.001": 18.8994553528,
			"0.0": 18.8860132687,
			"0.001": 20.0571833707,
			"0.002": 17.3580507504,
			"0.003": 11.322294048,
			"0.004": 8.77409484043,
			"0.005": 6.53205640025,
			"0.006": 4.23911895443,
			"0.007": 2.00364811488,
			"0.008": 2.2673503763,
			"0.009": 2.45726375605,
			"0.01": 1.63363930068,
			"0.011": 2.16312642092,
			"0.012": 2.71836656368,
			"0.013": 2.50919128592,
			"0.014": 2.12911429088,
			"0.015": 0.462012357278,
			"0.016": 0.0,
			"0.017": 0.0,
			"0.018": 0.0,
			"0.019": 0.0,
			"0.02": 0.0,
			"0.021": 0.0,
			"0.022": 0.0,
			"0.023": 0.0,
			"0.024": 0.0,
			"0.025": 0.0
		}
	}
}
