{
	 "smiles": "CC(=O)NC1=C(C=C(Br)C=C1Br)C(=O)C1=CC=CC=C1", 
	 "Tm": 429.15, 
	 "num_atms": 31, 
	 "gaussian": { 
		 "optdone": 1, 
		 "sigma_profile": "yes", 
		 "theory": "DFT", 
		 "functional": "B3LYP", 
		 "basiset": "6-31G**", 
		 "properties": { 
			 "R2extent": 11465.2875, 
			 "electric_dipole_moment_norm": 3.62039743813, 
			 "electric_quadrupole_moment_norm": 13.8493104402, 
			 "total_energy": -5926.24231586, 
			 "HOMO_LUMO_gap": 0.16996, 
			 "cosmo_polarized_energy": -14.98, 
			 "cosmo_cavitation_energy": 40.74, 
			 "cosmo_dispersion_energy": -27.76, 
			 "cosmo_repulsion_energy": 2.17, 
			 "cosmo_total_nonelectrostatic_energy": 15.15, 
			 "SMD_solvation_energy": 6.36 
		},
		"coords": [
			{
				"x": -2.003766037,
				"y": -0.2418566992,
				"z": 1.7002766327,
				"element": "C" 
			},
			{
				"x": -1.6264004324,
				"y": 0.5238700305,
				"z": 0.4483549114,
				"element": "C" 
			},
			{
				"x": -2.424937752,
				"y": 0.836645318,
				"z": -0.4161883984,
				"element": "O" 
			},
			{
				"x": -0.2829043175,
				"y": 0.8875260856,
				"z": 0.3048455099,
				"element": "N" 
			},
			{
				"x": 0.7342248762,
				"y": 0.7749889266,
				"z": 1.2840300609,
				"element": "C" 
			},
			{
				"x": 1.3843443093,
				"y": -0.4558556807,
				"z": 1.4857369116,
				"element": "C" 
			},
			{
				"x": 2.3424710783,
				"y": -0.6038390527,
				"z": 2.4926376567,
				"element": "C" 
			},
			{
				"x": 2.7070430465,
				"y": 0.500093562,
				"z": 3.2572815499,
				"element": "C" 
			},
			{
				"x": 4.0379677611,
				"y": 0.3142225447,
				"z": 4.6087386867,
				"element": "Br" 
			},
			{
				"x": 2.1188771202,
				"y": 1.7465116969,
				"z": 3.0505218323,
				"element": "C" 
			},
			{
				"x": 1.1310831528,
				"y": 1.8676670155,
				"z": 2.0761118803,
				"element": "C" 
			},
			{
				"x": 0.3058469415,
				"y": 3.5668132431,
				"z": 1.8251266842,
				"element": "Br" 
			},
			{
				"x": 1.0417527773,
				"y": -1.6741317017,
				"z": 0.6478395471,
				"element": "C" 
			},
			{
				"x": 0.4729079053,
				"y": -2.6163497122,
				"z": 1.1830234933,
				"element": "O" 
			},
			{
				"x": 1.4545301237,
				"y": -1.7134075802,
				"z": -0.7827963224,
				"element": "C" 
			},
			{
				"x": 2.2896224901,
				"y": -0.7398890448,
				"z": -1.3523194044,
				"element": "C" 
			},
			{
				"x": 2.6695595475,
				"y": -0.8385799419,
				"z": -2.6896658929,
				"element": "C" 
			},
			{
				"x": 2.2154679777,
				"y": -1.9062282007,
				"z": -3.4673104617,
				"element": "C" 
			},
			{
				"x": 1.3854882189,
				"y": -2.8817425138,
				"z": -2.9052244786,
				"element": "C" 
			},
			{
				"x": 1.010535833,
				"y": -2.789452897,
				"z": -1.5690945294,
				"element": "C" 
			},
			{
				"x": -1.7833619144,
				"y": 0.352351902,
				"z": 2.5935446403,
				"element": "H" 
			},
			{
				"x": -1.4566010874,
				"y": -1.1846824881,
				"z": 1.7858727606,
				"element": "H" 
			},
			{
				"x": -3.0736284496,
				"y": -0.4428695335,
				"z": 1.6555145258,
				"element": "H" 
			},
			{
				"x": -0.1534570401,
				"y": 1.5717958895,
				"z": -0.4318221971,
				"element": "H" 
			},
			{
				"x": 2.8085151492,
				"y": -1.567813659,
				"z": 2.6598265983,
				"element": "H" 
			},
			{
				"x": 2.4093979595,
				"y": 2.602395464,
				"z": 3.6458377702,
				"element": "H" 
			},
			{
				"x": 2.6504865474,
				"y": 0.0861753722,
				"z": -0.7479739496,
				"element": "H" 
			},
			{
				"x": 3.3194279323,
				"y": -0.0853619383,
				"z": -3.1248448316,
				"element": "H" 
			},
			{
				"x": 2.508951026,
				"y": -1.9795702048,
				"z": -4.5105611099,
				"element": "H" 
			},
			{
				"x": 1.0334799601,
				"y": -3.7110916331,
				"z": -3.5113279021,
				"element": "H" 
			},
			{
				"x": 0.3719752963,
				"y": -3.5360345689,
				"z": -1.109192174,
				"element": "H" 
			}
		],
		 "valence_orbital": [ 
			{
				"type": "occ",
				"energy": -0.27005,
				"method": "rhf"
			},
			{
				"type": "occ",
				"energy": -0.26768,
				"method": "rhf"
			},
			{
				"type": "occ",
				"energy": -0.26438,
				"method": "rhf"
			},
			{
				"type": "occ",
				"energy": -0.26028,
				"method": "rhf"
			},
			{
				"type": "occ",
				"energy": -0.24689,
				"method": "rhf"
			},
			{
				"type": "unocc",
				"energy": -0.07693,
				"method": "rhf"
			},
			{
				"type": "unocc",
				"energy": -0.04541,
				"method": "rhf"
			},
			{
				"type": "unocc",
				"energy": -0.04318,
				"method": "rhf"
			},
			{
				"type": "unocc",
				"energy": -0.02788,
				"method": "rhf"
			},
			{
				"type": "unocc",
				"energy": -0.01853,
				"method": "rhf"
			}
		],
		"cosmo_sigma_profile": { 
			"-0.025": 0.0,
			"-0.024": 0.0,
			"-0.023": 0.0,
			"-0.022": 0.0,
			"-0.021": 0.0,
			"-0.02": 0.0,
			"-0.019": 0.0,
			"-0.018": 0.0,
			"-0.017": 0.0,
			"-0.016": 0.0,
			"-0.015": 0.0,
			"-0.014": 0.263696292634,
			"-0.013": 0.627562091852,
			"-0.012": 1.02241722342,
			"-0.011": 0.975183788842,
			"-0.01": 0.734633362235,
			"-0.009": 1.82363799371,
			"-0.008": 4.55917006756,
			"-0.007": 6.98227425133,
			"-0.006": 17.21510575,
			"-0.005": 23.0163585391,
			"-0.004": 24.253604959,
			"-0.003": 20.5186437889,
			"-0.002": 28.6721654961,
			"-0.001": 29.2523040112,
			"0.0": 30.5813445636,
			"0.001": 26.8030748146,
			"0.002": 26.5464391943,
			"0.003": 32.8285333973,
			"0.004": 22.3507339137,
			"0.005": 2.87323338217,
			"0.006": 2.63583440956,
			"0.007": 2.53203541921,
			"0.008": 3.1060200969,
			"0.009": 3.66640263447,
			"0.01": 3.33054173008,
			"0.011": 4.97648203571,
			"0.012": 4.20423615974,
			"0.013": 5.25450625951,
			"0.014": 1.69330878328,
			"0.015": 0.00153490376206,
			"0.016": 0.0,
			"0.017": 0.0,
			"0.018": 0.0,
			"0.019": 0.0,
			"0.02": 0.0,
			"0.021": 0.0,
			"0.022": 0.0,
			"0.023": 0.0,
			"0.024": 0.0,
			"0.025": 0.0
		}
	}
}
