{
	 "smiles": "CCCC(=O)C(C)=O", 
	 "Tm": 243.15, 
	 "num_atms": 18, 
	 "gaussian": { 
		 "optdone": 1, 
		 "sigma_profile": "yes", 
		 "theory": "DFT", 
		 "functional": "B3LYP", 
		 "basiset": "6-31G**", 
		 "properties": { 
			 "R2extent": 1548.7475, 
			 "electric_dipole_moment_norm": 0.35931586383, 
			 "electric_quadrupole_moment_norm": 8.21973059048, 
			 "total_energy": -385.109992361, 
			 "HOMO_LUMO_gap": 0.15433, 
			 "cosmo_polarized_energy": -6.82, 
			 "cosmo_cavitation_energy": 21.91, 
			 "cosmo_dispersion_energy": -15.42, 
			 "cosmo_repulsion_energy": 1.32, 
			 "cosmo_total_nonelectrostatic_energy": 7.81, 
			 "SMD_solvation_energy": 5.23 
		},
		"coords": [
			{
				"x": 3.4239829795,
				"y": 2.1191397714,
				"z": -0.3062537173,
				"element": "C" 
			},
			{
				"x": 2.2080227094,
				"y": 1.1897533842,
				"z": -0.2572637295,
				"element": "C" 
			},
			{
				"x": 1.0387088892,
				"y": 1.8038020171,
				"z": 0.5475279545,
				"element": "C" 
			},
			{
				"x": -0.1668771237,
				"y": 0.8922246408,
				"z": 0.5580389092,
				"element": "C" 
			},
			{
				"x": -1.1183190932,
				"y": 1.0132396004,
				"z": -0.1919928245,
				"element": "O" 
			},
			{
				"x": -0.1554895068,
				"y": -0.2811656439,
				"z": 1.5719663648,
				"element": "C" 
			},
			{
				"x": -1.3468440843,
				"y": -1.2056867056,
				"z": 1.5376620631,
				"element": "C" 
			},
			{
				"x": 0.7837774268,
				"y": -0.4094716782,
				"z": 2.3349468109,
				"element": "O" 
			},
			{
				"x": 3.1733575839,
				"y": 3.077097281,
				"z": -0.7750540764,
				"element": "H" 
			},
			{
				"x": 4.2383672648,
				"y": 1.6681143357,
				"z": -0.882141483,
				"element": "H" 
			},
			{
				"x": 3.8021941147,
				"y": 2.3283121141,
				"z": 0.7003082765,
				"element": "H" 
			},
			{
				"x": 2.4908857079,
				"y": 0.2341866472,
				"z": 0.1978126021,
				"element": "H" 
			},
			{
				"x": 1.8644391155,
				"y": 0.9722192162,
				"z": -1.2759353772,
				"element": "H" 
			},
			{
				"x": 1.3693329549,
				"y": 1.9792564378,
				"z": 1.5763557994,
				"element": "H" 
			},
			{
				"x": 0.731731619,
				"y": 2.7529182872,
				"z": 0.0977763587,
				"element": "H" 
			},
			{
				"x": -2.2682822831,
				"y": -0.6392302498,
				"z": 1.7067535829,
				"element": "H" 
			},
			{
				"x": -1.2318914967,
				"y": -1.9811537888,
				"z": 2.2954080939,
				"element": "H" 
			},
			{
				"x": -1.4446967777,
				"y": -1.6551556669,
				"z": 0.543984392,
				"element": "H" 
			}
		],
		 "valence_orbital": [ 
			{
				"type": "occ",
				"energy": -0.36427,
				"method": "rhf"
			},
			{
				"type": "occ",
				"energy": -0.34278,
				"method": "rhf"
			},
			{
				"type": "occ",
				"energy": -0.33971,
				"method": "rhf"
			},
			{
				"type": "occ",
				"energy": -0.30831,
				"method": "rhf"
			},
			{
				"type": "occ",
				"energy": -0.23926,
				"method": "rhf"
			},
			{
				"type": "unocc",
				"energy": -0.08493,
				"method": "rhf"
			},
			{
				"type": "unocc",
				"energy": 0.03517,
				"method": "rhf"
			},
			{
				"type": "unocc",
				"energy": 0.09652,
				"method": "rhf"
			},
			{
				"type": "unocc",
				"energy": 0.11346,
				"method": "rhf"
			},
			{
				"type": "unocc",
				"energy": 0.13362,
				"method": "rhf"
			}
		],
		"cosmo_sigma_profile": { 
			"-0.025": 0.0,
			"-0.024": 0.0,
			"-0.023": 0.0,
			"-0.022": 0.0,
			"-0.021": 0.0,
			"-0.02": 0.0,
			"-0.019": 0.0,
			"-0.018": 0.0,
			"-0.017": 0.0,
			"-0.016": 0.0,
			"-0.015": 0.0,
			"-0.014": 0.0,
			"-0.013": 0.0,
			"-0.012": 0.0,
			"-0.011": 0.0,
			"-0.01": 0.0,
			"-0.009": 0.0,
			"-0.008": 0.658352045159,
			"-0.007": 4.11651605029,
			"-0.006": 6.79190000155,
			"-0.005": 7.84481135803,
			"-0.004": 13.8108245684,
			"-0.003": 22.8082037728,
			"-0.002": 24.5610530535,
			"-0.001": 22.7554964584,
			"0.0": 14.3877927847,
			"0.001": 11.3509367286,
			"0.002": 4.49324560791,
			"0.003": 3.33073776855,
			"0.004": 3.83043422184,
			"0.005": 4.06613641973,
			"0.006": 2.54228798692,
			"0.007": 2.43373617602,
			"0.008": 3.87155754971,
			"0.009": 4.21758006535,
			"0.01": 7.01705878688,
			"0.011": 5.23637750347,
			"0.012": 1.29893833247,
			"0.013": 0.0162705427652,
			"0.014": 0.0,
			"0.015": 0.0,
			"0.016": 0.0,
			"0.017": 0.0,
			"0.018": 0.0,
			"0.019": 0.0,
			"0.02": 0.0,
			"0.021": 0.0,
			"0.022": 0.0,
			"0.023": 0.0,
			"0.024": 0.0,
			"0.025": 0.0
		}
	}
}
