{
	 "smiles": "CN(C)C1=CC=C(C=C1)N=O", 
	 "Tm": 365.65, 
	 "num_atms": 21, 
	 "gaussian": { 
		 "optdone": 1, 
		 "sigma_profile": "yes", 
		 "theory": "DFT", 
		 "functional": "B3LYP", 
		 "basiset": "6-31G**", 
		 "properties": { 
			 "R2extent": 2244.4482, 
			 "electric_dipole_moment_norm": 7.49504341882, 
			 "electric_quadrupole_moment_norm": 14.2530014288, 
			 "total_energy": -495.51807403, 
			 "HOMO_LUMO_gap": 0.12039, 
			 "cosmo_polarized_energy": -13.53, 
			 "cosmo_cavitation_energy": 24.55, 
			 "cosmo_dispersion_energy": -18.08, 
			 "cosmo_repulsion_energy": 1.43, 
			 "cosmo_total_nonelectrostatic_energy": 7.89, 
			 "SMD_solvation_energy": 4.33 
		},
		"coords": [
			{
				"x": -2.8808980596,
				"y": -0.3075922989,
				"z": -0.0757718933,
				"element": "C" 
			},
			{
				"x": -1.8663176472,
				"y": 0.6002872814,
				"z": -0.590289092,
				"element": "N" 
			},
			{
				"x": -2.2678687466,
				"y": 1.7134517167,
				"z": -1.4383993401,
				"element": "C" 
			},
			{
				"x": -0.5430557321,
				"y": 0.4061508157,
				"z": -0.2772360757,
				"element": "C" 
			},
			{
				"x": 0.4633518039,
				"y": 1.2856588129,
				"z": -0.7743668275,
				"element": "C" 
			},
			{
				"x": 1.792166222,
				"y": 1.0907535539,
				"z": -0.4596999899,
				"element": "C" 
			},
			{
				"x": 2.1817386248,
				"y": 0.0169330568,
				"z": 0.3604086016,
				"element": "C" 
			},
			{
				"x": 1.2029438056,
				"y": -0.8556963169,
				"z": 0.8560530437,
				"element": "C" 
			},
			{
				"x": -0.1345617574,
				"y": -0.6740294218,
				"z": 0.5497986603,
				"element": "C" 
			},
			{
				"x": 3.5213166456,
				"y": -0.259453556,
				"z": 0.7349390885,
				"element": "N" 
			},
			{
				"x": 4.3643502412,
				"y": 0.5196564467,
				"z": 0.2885216491,
				"element": "O" 
			},
			{
				"x": -2.9052322588,
				"y": -0.3103915671,
				"z": 1.021709156,
				"element": "H" 
			},
			{
				"x": -2.7140697919,
				"y": -1.3381044405,
				"z": -0.4151976298,
				"element": "H" 
			},
			{
				"x": -3.8606321706,
				"y": 0.0096335007,
				"z": -0.4330802,
				"element": "H" 
			},
			{
				"x": -1.9960161727,
				"y": 2.6808189028,
				"z": -0.9968411269,
				"element": "H" 
			},
			{
				"x": -3.3504639097,
				"y": 1.6945862274,
				"z": -1.564286315,
				"element": "H" 
			},
			{
				"x": -1.8107839767,
				"y": 1.6526633031,
				"z": -2.4344758996,
				"element": "H" 
			},
			{
				"x": 0.1893133744,
				"y": 2.1199631457,
				"z": -1.4081231537,
				"element": "H" 
			},
			{
				"x": 2.5650475818,
				"y": 1.7545819322,
				"z": -0.8331235419,
				"element": "H" 
			},
			{
				"x": 1.5231182564,
				"y": -1.6792086072,
				"z": 1.4877868712,
				"element": "H" 
			},
			{
				"x": -0.8662463324,
				"y": -1.3650624876,
				"z": 0.948274015,
				"element": "H" 
			}
		],
		 "valence_orbital": [ 
			{
				"type": "occ",
				"energy": -0.33952,
				"method": "rhf"
			},
			{
				"type": "occ",
				"energy": -0.29737,
				"method": "rhf"
			},
			{
				"type": "occ",
				"energy": -0.26266,
				"method": "rhf"
			},
			{
				"type": "occ",
				"energy": -0.20928,
				"method": "rhf"
			},
			{
				"type": "occ",
				"energy": -0.19232,
				"method": "rhf"
			},
			{
				"type": "unocc",
				"energy": -0.07193,
				"method": "rhf"
			},
			{
				"type": "unocc",
				"energy": -0.00768,
				"method": "rhf"
			},
			{
				"type": "unocc",
				"energy": 0.03795,
				"method": "rhf"
			},
			{
				"type": "unocc",
				"energy": 0.0716,
				"method": "rhf"
			},
			{
				"type": "unocc",
				"energy": 0.08975,
				"method": "rhf"
			}
		],
		"cosmo_sigma_profile": { 
			"-0.025": 0.0,
			"-0.024": 0.0,
			"-0.023": 0.0,
			"-0.022": 0.0,
			"-0.021": 0.0,
			"-0.02": 0.0,
			"-0.019": 0.0,
			"-0.018": 0.0,
			"-0.017": 0.0,
			"-0.016": 0.0,
			"-0.015": 0.0,
			"-0.014": 0.0,
			"-0.013": 0.0,
			"-0.012": 0.0,
			"-0.011": 0.0,
			"-0.01": 0.0,
			"-0.009": 0.0,
			"-0.008": 1.10258320844,
			"-0.007": 4.68267298617,
			"-0.006": 13.2350798809,
			"-0.005": 21.5028088313,
			"-0.004": 19.0835115998,
			"-0.003": 19.037472239,
			"-0.002": 17.5171322884,
			"-0.001": 8.96121032523,
			"0.0": 7.50954328532,
			"0.001": 12.6937547564,
			"0.002": 14.7553005743,
			"0.003": 15.4322855308,
			"0.004": 9.37566609285,
			"0.005": 2.73769598907,
			"0.006": 3.07367313461,
			"0.007": 2.41959711529,
			"0.008": 3.35046812751,
			"0.009": 3.68698911953,
			"0.01": 5.37271851493,
			"0.011": 3.30303876012,
			"0.012": 3.3165642725,
			"0.013": 2.40720678594,
			"0.014": 0.553340346737,
			"0.015": 0.0,
			"0.016": 0.0,
			"0.017": 0.0,
			"0.018": 0.0,
			"0.019": 0.0,
			"0.02": 0.0,
			"0.021": 0.0,
			"0.022": 0.0,
			"0.023": 0.0,
			"0.024": 0.0,
			"0.025": 0.0
		}
	}
}
