{
	 "smiles": "CC1=CC=C(C)C(CC#N)=C1", 
	 "Tm": 301.15, 
	 "num_atms": 22, 
	 "gaussian": { 
		 "optdone": 1, 
		 "sigma_profile": "yes", 
		 "theory": "DFT", 
		 "functional": "B3LYP", 
		 "basiset": "6-31G**", 
		 "properties": { 
			 "R2extent": 2082.2953, 
			 "electric_dipole_moment_norm": 3.93003918301, 
			 "electric_quadrupole_moment_norm": 16.9532234398, 
			 "total_energy": -442.443481576, 
			 "HOMO_LUMO_gap": 0.2262, 
			 "cosmo_polarized_energy": -9.83, 
			 "cosmo_cavitation_energy": 25.95, 
			 "cosmo_dispersion_energy": -18.15, 
			 "cosmo_repulsion_energy": 1.46, 
			 "cosmo_total_nonelectrostatic_energy": 9.27, 
			 "SMD_solvation_energy": 5.8 
		},
		"coords": [
			{
				"x": -0.6379902027,
				"y": 3.3811309941,
				"z": -0.2019410907,
				"element": "C" 
			},
			{
				"x": -0.2647784298,
				"y": 1.9274230409,
				"z": -0.0307655266,
				"element": "C" 
			},
			{
				"x": 0.3939853427,
				"y": 1.474778468,
				"z": 1.1164558803,
				"element": "C" 
			},
			{
				"x": 0.759531144,
				"y": 0.1356917052,
				"z": 1.248710961,
				"element": "C" 
			},
			{
				"x": 0.4842503794,
				"y": -0.804400215,
				"z": 0.2497642181,
				"element": "C" 
			},
			{
				"x": 0.8935622872,
				"y": -2.2483413177,
				"z": 0.4228717163,
				"element": "C" 
			},
			{
				"x": -0.1843263713,
				"y": -0.3552924171,
				"z": -0.9065489352,
				"element": "C" 
			},
			{
				"x": -0.5361499793,
				"y": -1.3191436345,
				"z": -2.03354159,
				"element": "C" 
			},
			{
				"x": 0.6300383545,
				"y": -1.7508411331,
				"z": -2.8173817856,
				"element": "C" 
			},
			{
				"x": 1.557120704,
				"y": -2.0911026497,
				"z": -3.4276568378,
				"element": "N" 
			},
			{
				"x": -0.54633938,
				"y": 0.9884050053,
				"z": -1.0301175029,
				"element": "C" 
			},
			{
				"x": 0.1650845719,
				"y": 3.9408869039,
				"z": -0.6974908888,
				"element": "H" 
			},
			{
				"x": -1.5379298843,
				"y": 3.4954488235,
				"z": -0.8138995753,
				"element": "H" 
			},
			{
				"x": -0.8216839396,
				"y": 3.8626199941,
				"z": 0.7631847778,
				"element": "H" 
			},
			{
				"x": 0.6226252366,
				"y": 2.1743088071,
				"z": 1.9167386966,
				"element": "H" 
			},
			{
				"x": 1.2690620519,
				"y": -0.1912919356,
				"z": 2.1515892276,
				"element": "H" 
			},
			{
				"x": 1.3878428662,
				"y": -2.3987559978,
				"z": 1.3858664694,
				"element": "H" 
			},
			{
				"x": 0.0298391485,
				"y": -2.9244877022,
				"z": 0.3884158059,
				"element": "H" 
			},
			{
				"x": 1.5851785244,
				"y": -2.5721854621,
				"z": -0.3628137966,
				"element": "H" 
			},
			{
				"x": -1.0262269637,
				"y": -2.2200641589,
				"z": -1.6437097337,
				"element": "H" 
			},
			{
				"x": -1.247437986,
				"y": -0.8484073621,
				"z": -2.7203959339,
				"element": "H" 
			},
			{
				"x": -1.0634574746,
				"y": 1.3142202435,
				"z": -1.9305345561,
				"element": "H" 
			}
		],
		 "valence_orbital": [ 
			{
				"type": "occ",
				"energy": -0.34443,
				"method": "rhf"
			},
			{
				"type": "occ",
				"energy": -0.3204,
				"method": "rhf"
			},
			{
				"type": "occ",
				"energy": -0.31769,
				"method": "rhf"
			},
			{
				"type": "occ",
				"energy": -0.25451,
				"method": "rhf"
			},
			{
				"type": "occ",
				"energy": -0.23937,
				"method": "rhf"
			},
			{
				"type": "unocc",
				"energy": -0.01317,
				"method": "rhf"
			},
			{
				"type": "unocc",
				"energy": -0.00562,
				"method": "rhf"
			},
			{
				"type": "unocc",
				"energy": 0.03993,
				"method": "rhf"
			},
			{
				"type": "unocc",
				"energy": 0.04261,
				"method": "rhf"
			},
			{
				"type": "unocc",
				"energy": 0.0876,
				"method": "rhf"
			}
		],
		"cosmo_sigma_profile": { 
			"-0.025": 0.0,
			"-0.024": 0.0,
			"-0.023": 0.0,
			"-0.022": 0.0,
			"-0.021": 0.0,
			"-0.02": 0.0,
			"-0.019": 0.0,
			"-0.018": 0.0,
			"-0.017": 0.0,
			"-0.016": 0.0,
			"-0.015": 0.0,
			"-0.014": 0.0,
			"-0.013": 0.0,
			"-0.012": 0.0,
			"-0.011": 0.0,
			"-0.01": 0.0,
			"-0.009": 1.02925264285,
			"-0.008": 5.96144198101,
			"-0.007": 6.53381760547,
			"-0.006": 6.26408297615,
			"-0.005": 14.1858610113,
			"-0.004": 18.2030704502,
			"-0.003": 17.8645933991,
			"-0.002": 17.651501513,
			"-0.001": 19.6459623155,
			"0.0": 20.7891443098,
			"0.001": 13.8658700212,
			"0.002": 9.369541557,
			"0.003": 8.54819043186,
			"0.004": 8.940101233,
			"0.005": 9.44307386803,
			"0.006": 7.55922388,
			"0.007": 2.97880605968,
			"0.008": 2.72098555853,
			"0.009": 3.65258549643,
			"0.01": 3.00030344632,
			"0.011": 3.0955590675,
			"0.012": 2.41508857868,
			"0.013": 2.18486376218,
			"0.014": 0.374029276147,
			"0.015": 0.0,
			"0.016": 0.0,
			"0.017": 0.0,
			"0.018": 0.0,
			"0.019": 0.0,
			"0.02": 0.0,
			"0.021": 0.0,
			"0.022": 0.0,
			"0.023": 0.0,
			"0.024": 0.0,
			"0.025": 0.0
		}
	}
}
