{
	 "smiles": "O=C1N2CCCNC2C2=CC=CC=C12", 
	 "Tm": 404.15, 
	 "num_atms": 26, 
	 "gaussian": { 
		 "optdone": 1, 
		 "sigma_profile": "yes", 
		 "theory": "DFT", 
		 "functional": "B3LYP", 
		 "basiset": "6-31G**", 
		 "properties": { 
			 "R2extent": 3081.5869, 
			 "electric_dipole_moment_norm": 3.48674275937, 
			 "electric_quadrupole_moment_norm": 11.1771522755, 
			 "total_energy": -611.141456684, 
			 "HOMO_LUMO_gap": 0.19307, 
			 "cosmo_polarized_energy": -12.98, 
			 "cosmo_cavitation_energy": 27.9, 
			 "cosmo_dispersion_energy": -20.62, 
			 "cosmo_repulsion_energy": 1.6, 
			 "cosmo_total_nonelectrostatic_energy": 8.89, 
			 "SMD_solvation_energy": 1.53 
		},
		"coords": [
			{
				"x": -1.2126919117,
				"y": 0.9148800276,
				"z": -2.1836895739,
				"element": "O" 
			},
			{
				"x": -1.2212683968,
				"y": 0.0053723827,
				"z": -1.3669433545,
				"element": "C" 
			},
			{
				"x": -1.3636604863,
				"y": 0.1453288143,
				"z": 0.0061170909,
				"element": "N" 
			},
			{
				"x": -1.059598286,
				"y": 1.3886290381,
				"z": 0.6928541075,
				"element": "C" 
			},
			{
				"x": 0.3926130672,
				"y": 1.3669607738,
				"z": 1.2534407385,
				"element": "C" 
			},
			{
				"x": 0.9152720042,
				"y": -0.0857315501,
				"z": 1.3679914904,
				"element": "C" 
			},
			{
				"x": -0.1263755062,
				"y": -1.0497591651,
				"z": 1.7476608835,
				"element": "N" 
			},
			{
				"x": -1.190989687,
				"y": -1.1168772535,
				"z": 0.747763951,
				"element": "C" 
			},
			{
				"x": -0.9652496953,
				"y": -2.111519129,
				"z": -0.3783588737,
				"element": "C" 
			},
			{
				"x": -0.7361510103,
				"y": -3.4815327866,
				"z": -0.319421675,
				"element": "C" 
			},
			{
				"x": -0.5960770094,
				"y": -4.1770334277,
				"z": -1.5254637832,
				"element": "C" 
			},
			{
				"x": -0.6869732263,
				"y": -3.515205273,
				"z": -2.7587610423,
				"element": "C" 
			},
			{
				"x": -0.9114836559,
				"y": -2.1380286923,
				"z": -2.8118401407,
				"element": "C" 
			},
			{
				"x": -1.0491374304,
				"y": -1.4558907914,
				"z": -1.6061937781,
				"element": "C" 
			},
			{
				"x": -1.7839960863,
				"y": 1.5335887908,
				"z": 1.5032831093,
				"element": "H" 
			},
			{
				"x": -1.204312285,
				"y": 2.1950961721,
				"z": -0.0284852933,
				"element": "H" 
			},
			{
				"x": 0.4089665358,
				"y": 1.8533448016,
				"z": 2.2363040246,
				"element": "H" 
			},
			{
				"x": 1.0607934681,
				"y": 1.9439448543,
				"z": 0.6046956876,
				"element": "H" 
			},
			{
				"x": 1.3273386794,
				"y": -0.4137800981,
				"z": 0.4075455067,
				"element": "H" 
			},
			{
				"x": 1.731617514,
				"y": -0.1482987996,
				"z": 2.0940209512,
				"element": "H" 
			},
			{
				"x": -0.5238143517,
				"y": -0.7836411773,
				"z": 2.6444048829,
				"element": "H" 
			},
			{
				"x": -2.1198391582,
				"y": -1.3701407864,
				"z": 1.2800764319,
				"element": "H" 
			},
			{
				"x": -0.6527661196,
				"y": -3.9941760319,
				"z": 0.6343416318,
				"element": "H" 
			},
			{
				"x": -0.4091609861,
				"y": -5.2471200532,
				"z": -1.5077530649,
				"element": "H" 
			},
			{
				"x": -0.5749234467,
				"y": -4.0816518308,
				"z": -3.6787317999,
				"element": "H" 
			},
			{
				"x": -0.9730325335,
				"y": -1.6023588095,
				"z": -3.7540581085,
				"element": "H" 
			}
		],
		 "valence_orbital": [ 
			{
				"type": "occ",
				"energy": -0.26134,
				"method": "rhf"
			},
			{
				"type": "occ",
				"energy": -0.25592,
				"method": "rhf"
			},
			{
				"type": "occ",
				"energy": -0.25401,
				"method": "rhf"
			},
			{
				"type": "occ",
				"energy": -0.24162,
				"method": "rhf"
			},
			{
				"type": "occ",
				"energy": -0.2264,
				"method": "rhf"
			},
			{
				"type": "unocc",
				"energy": -0.03333,
				"method": "rhf"
			},
			{
				"type": "unocc",
				"energy": -0.01193,
				"method": "rhf"
			},
			{
				"type": "unocc",
				"energy": 0.06254,
				"method": "rhf"
			},
			{
				"type": "unocc",
				"energy": 0.07485,
				"method": "rhf"
			},
			{
				"type": "unocc",
				"energy": 0.10017,
				"method": "rhf"
			}
		],
		"cosmo_sigma_profile": { 
			"-0.025": 0.0,
			"-0.024": 0.0,
			"-0.023": 0.0,
			"-0.022": 0.0,
			"-0.021": 0.0,
			"-0.02": 0.0,
			"-0.019": 0.0,
			"-0.018": 0.0,
			"-0.017": 0.0,
			"-0.016": 0.0,
			"-0.015": 0.0,
			"-0.014": 0.0,
			"-0.013": 0.0,
			"-0.012": 0.00699649193199,
			"-0.011": 1.22526713308,
			"-0.01": 1.96102160746,
			"-0.009": 1.46789605725,
			"-0.008": 2.59734229137,
			"-0.007": 4.39821337505,
			"-0.006": 10.6345687574,
			"-0.005": 15.0707017247,
			"-0.004": 21.7334634745,
			"-0.003": 24.9460300072,
			"-0.002": 20.7125517619,
			"-0.001": 18.0116654148,
			"0.0": 14.2031287153,
			"0.001": 11.2374414618,
			"0.002": 11.7663896299,
			"0.003": 11.6553497093,
			"0.004": 14.2615836095,
			"0.005": 6.67607616599,
			"0.006": 2.74868015908,
			"0.007": 2.44617853526,
			"0.008": 2.3930290623,
			"0.009": 2.31900075598,
			"0.01": 2.85597691283,
			"0.011": 2.02768691511,
			"0.012": 2.15679328925,
			"0.013": 5.35966524839,
			"0.014": 4.89926605824,
			"0.015": 0.572598989174,
			"0.016": 0.103741685029,
			"0.017": 0.0,
			"0.018": 0.0,
			"0.019": 0.0,
			"0.02": 0.0,
			"0.021": 0.0,
			"0.022": 0.0,
			"0.023": 0.0,
			"0.024": 0.0,
			"0.025": 0.0
		}
	}
}
