{
	 "smiles": "NC(=O)C1=C(NC(=O)CCC(O)=O)SC=C1", 
	 "Tm": 517.15, 
	 "num_atms": 26, 
	 "gaussian": { 
		 "optdone": 1, 
		 "sigma_profile": "yes", 
		 "theory": "DFT", 
		 "functional": "B3LYP", 
		 "basiset": "6-31G**", 
		 "properties": { 
			 "R2extent": 5311.8277, 
			 "electric_dipole_moment_norm": 3.79141583185, 
			 "electric_quadrupole_moment_norm": 19.026943316, 
			 "total_energy": -1157.60919473, 
			 "HOMO_LUMO_gap": 0.19758, 
			 "cosmo_polarized_energy": -20.94, 
			 "cosmo_cavitation_energy": 32.23, 
			 "cosmo_dispersion_energy": -23.06, 
			 "cosmo_repulsion_energy": 1.77, 
			 "cosmo_total_nonelectrostatic_energy": 10.94, 
			 "SMD_solvation_energy": 7.69 
		},
		"coords": [
			{
				"x": -0.5578603338,
				"y": 3.1207856175,
				"z": -0.2298050868,
				"element": "N" 
			},
			{
				"x": -0.2159857933,
				"y": 2.2760955309,
				"z": -1.2447009098,
				"element": "C" 
			},
			{
				"x": -0.0280474359,
				"y": 2.6609978011,
				"z": -2.3950866683,
				"element": "O" 
			},
			{
				"x": -0.0951229307,
				"y": 0.8136098444,
				"z": -0.9194557316,
				"element": "C" 
			},
			{
				"x": -0.6605416564,
				"y": 0.1145589804,
				"z": 0.1274770926,
				"element": "C" 
			},
			{
				"x": -1.5375973638,
				"y": 0.5794494377,
				"z": 1.1225363428,
				"element": "N" 
			},
			{
				"x": -1.3016371934,
				"y": 0.7172840933,
				"z": 2.4772648141,
				"element": "C" 
			},
			{
				"x": -2.1974801611,
				"y": 1.0682575637,
				"z": 3.2300261447,
				"element": "O" 
			},
			{
				"x": 0.1117499728,
				"y": 0.4272628354,
				"z": 2.9745293535,
				"element": "C" 
			},
			{
				"x": 0.4355095892,
				"y": 1.3074311881,
				"z": 4.1791125032,
				"element": "C" 
			},
			{
				"x": 0.5242526888,
				"y": 2.7682438282,
				"z": 3.8021827327,
				"element": "C" 
			},
			{
				"x": 0.8625886915,
				"y": 3.5405904646,
				"z": 4.8516024419,
				"element": "O" 
			},
			{
				"x": 0.3243899598,
				"y": 3.2319452501,
				"z": 2.6948591339,
				"element": "O" 
			},
			{
				"x": -0.2918418863,
				"y": -1.6003280529,
				"z": 0.0148174208,
				"element": "S" 
			},
			{
				"x": 0.6510411231,
				"y": -1.3458226593,
				"z": -1.4175707323,
				"element": "C" 
			},
			{
				"x": 0.6455184598,
				"y": -0.0376158759,
				"z": -1.8008165325,
				"element": "C" 
			},
			{
				"x": -0.403732813,
				"y": 2.8878310062,
				"z": 0.7438883703,
				"element": "H" 
			},
			{
				"x": -0.521277446,
				"y": 4.1014946175,
				"z": -0.4700007532,
				"element": "H" 
			},
			{
				"x": -2.4824162981,
				"y": 0.831436497,
				"z": 0.8523730625,
				"element": "H" 
			},
			{
				"x": 0.1593629567,
				"y": -0.6270534247,
				"z": 3.2709738597,
				"element": "H" 
			},
			{
				"x": 0.8429174645,
				"y": 0.5679348611,
				"z": 2.1751952686,
				"element": "H" 
			},
			{
				"x": -0.3481720021,
				"y": 1.211658152,
				"z": 4.937312941,
				"element": "H" 
			},
			{
				"x": 1.3792738497,
				"y": 1.0146336575,
				"z": 4.6510493232,
				"element": "H" 
			},
			{
				"x": 0.8815436638,
				"y": 4.4578959028,
				"z": 4.5298488916,
				"element": "H" 
			},
			{
				"x": 1.1581677365,
				"y": -2.1782144358,
				"z": -1.8858144924,
				"element": "H" 
			},
			{
				"x": 1.1476971577,
				"y": 0.351237319,
				"z": -2.6772987905,
				"element": "H" 
			}
		],
		 "valence_orbital": [ 
			{
				"type": "occ",
				"energy": -0.26956,
				"method": "rhf"
			},
			{
				"type": "occ",
				"energy": -0.26484,
				"method": "rhf"
			},
			{
				"type": "occ",
				"energy": -0.26101,
				"method": "rhf"
			},
			{
				"type": "occ",
				"energy": -0.24544,
				"method": "rhf"
			},
			{
				"type": "occ",
				"energy": -0.24191,
				"method": "rhf"
			},
			{
				"type": "unocc",
				"energy": -0.04433,
				"method": "rhf"
			},
			{
				"type": "unocc",
				"energy": -0.00932,
				"method": "rhf"
			},
			{
				"type": "unocc",
				"energy": 0.00134,
				"method": "rhf"
			},
			{
				"type": "unocc",
				"energy": 0.01415,
				"method": "rhf"
			},
			{
				"type": "unocc",
				"energy": 0.02002,
				"method": "rhf"
			}
		],
		"cosmo_sigma_profile": { 
			"-0.025": 0.0,
			"-0.024": 0.0,
			"-0.023": 0.0,
			"-0.022": 0.0,
			"-0.021": 0.0,
			"-0.02": 0.0,
			"-0.019": 0.237898398014,
			"-0.018": 1.11281978324,
			"-0.017": 0.828796124253,
			"-0.016": 0.442522441739,
			"-0.015": 1.3559845082,
			"-0.014": 1.62253221183,
			"-0.013": 3.49839771282,
			"-0.012": 2.79381800306,
			"-0.011": 1.52084272847,
			"-0.01": 2.74800447671,
			"-0.009": 4.29130956327,
			"-0.008": 3.95540804284,
			"-0.007": 9.35270514579,
			"-0.006": 13.8506827341,
			"-0.005": 15.5676138271,
			"-0.004": 15.491415971,
			"-0.003": 16.5331563989,
			"-0.002": 16.2955079243,
			"-0.001": 15.8520931008,
			"0.0": 14.1661632126,
			"0.001": 16.7667570924,
			"0.002": 16.5480444543,
			"0.003": 15.4949475718,
			"0.004": 11.1582351575,
			"0.005": 7.53425645541,
			"0.006": 6.01530054258,
			"0.007": 6.41965782189,
			"0.008": 5.99984440585,
			"0.009": 4.69176212409,
			"0.01": 3.67100488211,
			"0.011": 3.00090455991,
			"0.012": 5.83731907692,
			"0.013": 8.39084912143,
			"0.014": 4.64139998542,
			"0.015": 0.308030119375,
			"0.016": 0.0,
			"0.017": 0.0,
			"0.018": 0.0,
			"0.019": 0.0,
			"0.02": 0.0,
			"0.021": 0.0,
			"0.022": 0.0,
			"0.023": 0.0,
			"0.024": 0.0,
			"0.025": 0.0
		}
	}
}
