{
	 "smiles": "COC1=CC=C(C=C1)C1=CC(=NN1C1=CC=CC=C1)C(O)=O", 
	 "Tm": 472.15, 
	 "num_atms": 36, 
	 "gaussian": { 
		 "optdone": 1, 
		 "sigma_profile": "yes", 
		 "theory": "DFT", 
		 "functional": "B3LYP", 
		 "basiset": "6-31G**", 
		 "properties": { 
			 "R2extent": 8455.5787, 
			 "electric_dipole_moment_norm": 7.79427503556, 
			 "electric_quadrupole_moment_norm": 44.4813193607, 
			 "total_energy": -991.409537137, 
			 "HOMO_LUMO_gap": 0.17771, 
			 "cosmo_polarized_energy": -16.36, 
			 "cosmo_cavitation_energy": 41.23, 
			 "cosmo_dispersion_energy": -28.81, 
			 "cosmo_repulsion_energy": 2.21, 
			 "cosmo_total_nonelectrostatic_energy": 14.63, 
			 "SMD_solvation_energy": 8.26 
		},
		"coords": [
			{
				"x": 3.7839491331,
				"y": 0.7445796945,
				"z": 3.9179099067,
				"element": "C" 
			},
			{
				"x": 2.3710170321,
				"y": 0.7289658975,
				"z": 3.7731286849,
				"element": "O" 
			},
			{
				"x": 1.8482329311,
				"y": 0.7919848187,
				"z": 2.5181174554,
				"element": "C" 
			},
			{
				"x": 2.6029826857,
				"y": 0.8568716318,
				"z": 1.3405683269,
				"element": "C" 
			},
			{
				"x": 1.9523275158,
				"y": 0.914076052,
				"z": 0.107107216,
				"element": "C" 
			},
			{
				"x": 0.554321783,
				"y": 0.909983453,
				"z": 0.0153370457,
				"element": "C" 
			},
			{
				"x": -0.1889007797,
				"y": 0.8524198495,
				"z": 1.2108152,
				"element": "C" 
			},
			{
				"x": 0.4457153566,
				"y": 0.7911279268,
				"z": 2.4415296385,
				"element": "C" 
			},
			{
				"x": -0.0857389753,
				"y": 1.0394980705,
				"z": -1.3038439808,
				"element": "C" 
			},
			{
				"x": 0.2313404797,
				"y": 1.9062160918,
				"z": -2.3376687682,
				"element": "C" 
			},
			{
				"x": -0.7373342423,
				"y": 1.6695858505,
				"z": -3.3303893588,
				"element": "C" 
			},
			{
				"x": -1.6002731956,
				"y": 0.7213718007,
				"z": -2.9603433596,
				"element": "N" 
			},
			{
				"x": -1.199145037,
				"y": 0.3339693198,
				"z": -1.7296822125,
				"element": "N" 
			},
			{
				"x": -1.8944144867,
				"y": -0.7424885077,
				"z": -1.096744082,
				"element": "C" 
			},
			{
				"x": -1.1876424934,
				"y": -1.7957808282,
				"z": -0.5096176045,
				"element": "C" 
			},
			{
				"x": -1.8911872343,
				"y": -2.8428491547,
				"z": 0.0850929153,
				"element": "C" 
			},
			{
				"x": -3.2873552332,
				"y": -2.8494288926,
				"z": 0.0800546367,
				"element": "C" 
			},
			{
				"x": -3.9839894441,
				"y": -1.8003148937,
				"z": -0.5237521542,
				"element": "C" 
			},
			{
				"x": -3.2921783719,
				"y": -0.7416055828,
				"z": -1.1100769723,
				"element": "C" 
			},
			{
				"x": -0.8869979234,
				"y": 2.3239472742,
				"z": -4.6552724754,
				"element": "C" 
			},
			{
				"x": -1.9257450207,
				"y": 1.8642644664,
				"z": -5.3887998952,
				"element": "O" 
			},
			{
				"x": -0.1495027295,
				"y": 3.1943618106,
				"z": -5.0566272342,
				"element": "O" 
			},
			{
				"x": 4.2501675164,
				"y": -0.1189606387,
				"z": 3.4267427026,
				"element": "H" 
			},
			{
				"x": 4.2209860838,
				"y": 1.6669229347,
				"z": 3.515021111,
				"element": "H" 
			},
			{
				"x": 3.9765159433,
				"y": 0.6944243141,
				"z": 4.9903824347,
				"element": "H" 
			},
			{
				"x": 3.6859146787,
				"y": 0.8583666563,
				"z": 1.3689899803,
				"element": "H" 
			},
			{
				"x": 2.5442735721,
				"y": 0.9531517033,
				"z": -0.8024644339,
				"element": "H" 
			},
			{
				"x": -1.2731471985,
				"y": 0.8693586269,
				"z": 1.1738108282,
				"element": "H" 
			},
			{
				"x": -0.1224538935,
				"y": 0.7525496363,
				"z": 3.3649569683,
				"element": "H" 
			},
			{
				"x": 1.0199058542,
				"y": 2.641870239,
				"z": -2.3566028712,
				"element": "H" 
			},
			{
				"x": -0.1039601035,
				"y": -1.7961453392,
				"z": -0.5248943629,
				"element": "H" 
			},
			{
				"x": -1.3432142831,
				"y": -3.6612636901,
				"z": 0.542053399,
				"element": "H" 
			},
			{
				"x": -3.8295383954,
				"y": -3.6700856534,
				"z": 0.5398709897,
				"element": "H" 
			},
			{
				"x": -5.0697531716,
				"y": -1.8011135762,
				"z": -0.5350954029,
				"element": "H" 
			},
			{
				"x": -3.8172391984,
				"y": 0.0800804627,
				"z": -1.5837592543,
				"element": "H" 
			},
			{
				"x": -2.3696391543,
				"y": 1.1660881758,
				"z": -4.8745550176,
				"element": "H" 
			}
		],
		 "valence_orbital": [ 
			{
				"type": "occ",
				"energy": -0.27028,
				"method": "rhf"
			},
			{
				"type": "occ",
				"energy": -0.26356,
				"method": "rhf"
			},
			{
				"type": "occ",
				"energy": -0.26246,
				"method": "rhf"
			},
			{
				"type": "occ",
				"energy": -0.24555,
				"method": "rhf"
			},
			{
				"type": "occ",
				"energy": -0.2226,
				"method": "rhf"
			},
			{
				"type": "unocc",
				"energy": -0.04489,
				"method": "rhf"
			},
			{
				"type": "unocc",
				"energy": -0.024,
				"method": "rhf"
			},
			{
				"type": "unocc",
				"energy": -0.01738,
				"method": "rhf"
			},
			{
				"type": "unocc",
				"energy": -0.01131,
				"method": "rhf"
			},
			{
				"type": "unocc",
				"energy": -0.00987,
				"method": "rhf"
			}
		],
		"cosmo_sigma_profile": { 
			"-0.025": 0.0,
			"-0.024": 0.0,
			"-0.023": 0.0,
			"-0.022": 0.0,
			"-0.021": 0.0,
			"-0.02": 0.0,
			"-0.019": 0.0,
			"-0.018": 0.0,
			"-0.017": 0.0,
			"-0.016": 0.0,
			"-0.015": 0.0968850827739,
			"-0.014": 0.512295720792,
			"-0.013": 0.531134268675,
			"-0.012": 0.220151707162,
			"-0.011": 0.762332157817,
			"-0.01": 1.35661639607,
			"-0.009": 0.376309469332,
			"-0.008": 0.922476920874,
			"-0.007": 6.72032230368,
			"-0.006": 23.1423349386,
			"-0.005": 32.3618086738,
			"-0.004": 30.6165695594,
			"-0.003": 24.4997985632,
			"-0.002": 21.2970250615,
			"-0.001": 19.7015398987,
			"0.0": 18.7804240795,
			"0.001": 24.4587901489,
			"0.002": 23.6872934224,
			"0.003": 27.4608210866,
			"0.004": 26.1065628107,
			"0.005": 9.0814395035,
			"0.006": 4.76720189363,
			"0.007": 4.8317950712,
			"0.008": 4.71233484816,
			"0.009": 4.64831625248,
			"0.01": 7.07394751455,
			"0.011": 4.70752885443,
			"0.012": 5.56851872496,
			"0.013": 1.58370044725,
			"0.014": 0.056943620167,
			"0.015": 0.0,
			"0.016": 0.0,
			"0.017": 0.0,
			"0.018": 0.0,
			"0.019": 0.0,
			"0.02": 0.0,
			"0.021": 0.0,
			"0.022": 0.0,
			"0.023": 0.0,
			"0.024": 0.0,
			"0.025": 0.0
		}
	}
}
