{
	 "smiles": "CC(N1C=CC=N1)C(O)=O", 
	 "Tm": 370.15, 
	 "num_atms": 18, 
	 "gaussian": { 
		 "optdone": 1, 
		 "sigma_profile": "yes", 
		 "theory": "DFT", 
		 "functional": "B3LYP", 
		 "basiset": "6-31G**", 
		 "properties": { 
			 "R2extent": 1613.6359, 
			 "electric_dipole_moment_norm": 2.77469150177, 
			 "electric_quadrupole_moment_norm": 8.94488445929, 
			 "total_energy": -493.396422478, 
			 "HOMO_LUMO_gap": 0.23934, 
			 "cosmo_polarized_energy": -14.52, 
			 "cosmo_cavitation_energy": 22.42, 
			 "cosmo_dispersion_energy": -16.05, 
			 "cosmo_repulsion_energy": 1.32, 
			 "cosmo_total_nonelectrostatic_energy": 7.68, 
			 "SMD_solvation_energy": 5.2 
		},
		"coords": [
			{
				"x": 0.1735888156,
				"y": 0.5014167318,
				"z": 1.3030970575,
				"element": "C" 
			},
			{
				"x": -0.4770001884,
				"y": -0.2875148277,
				"z": 0.1586247241,
				"element": "C" 
			},
			{
				"x": 0.4803536539,
				"y": -1.1406407914,
				"z": -0.5215916989,
				"element": "N" 
			},
			{
				"x": 0.2644284454,
				"y": -2.3852342966,
				"z": -1.0308164428,
				"element": "C" 
			},
			{
				"x": 1.4232972245,
				"y": -2.7567350085,
				"z": -1.681263031,
				"element": "C" 
			},
			{
				"x": 2.2849895266,
				"y": -1.6488053907,
				"z": -1.519020534,
				"element": "C" 
			},
			{
				"x": 1.7115843421,
				"y": -0.6688952566,
				"z": -0.8240246675,
				"element": "N" 
			},
			{
				"x": -1.1943543433,
				"y": 0.6186836994,
				"z": -0.8530507198,
				"element": "C" 
			},
			{
				"x": -2.0475468642,
				"y": 1.4590666112,
				"z": -0.2179204583,
				"element": "O" 
			},
			{
				"x": -1.0687242812,
				"y": 0.5857059416,
				"z": -2.0519967912,
				"element": "O" 
			},
			{
				"x": -0.5778238892,
				"y": 1.1092238919,
				"z": 1.8093591361,
				"element": "H" 
			},
			{
				"x": 0.96399256,
				"y": 1.1458561373,
				"z": 0.9158707033,
				"element": "H" 
			},
			{
				"x": 0.6184780542,
				"y": -0.1925759881,
				"z": 2.0201746007,
				"element": "H" 
			},
			{
				"x": -1.2501016273,
				"y": -0.9449592358,
				"z": 0.5751304124,
				"element": "H" 
			},
			{
				"x": -0.6764435438,
				"y": -2.8974543446,
				"z": -0.8898801474,
				"element": "H" 
			},
			{
				"x": 1.6183194644,
				"y": -3.6884356735,
				"z": -2.1905884155,
				"element": "H" 
			},
			{
				"x": 3.2994157349,
				"y": -1.5268317054,
				"z": -1.8750614801,
				"element": "H" 
			},
			{
				"x": -2.4798530839,
				"y": 1.9820295058,
				"z": -0.9140422476,
				"element": "H" 
			}
		],
		 "valence_orbital": [ 
			{
				"type": "occ",
				"energy": -0.32827,
				"method": "rhf"
			},
			{
				"type": "occ",
				"energy": -0.28563,
				"method": "rhf"
			},
			{
				"type": "occ",
				"energy": -0.28042,
				"method": "rhf"
			},
			{
				"type": "occ",
				"energy": -0.24659,
				"method": "rhf"
			},
			{
				"type": "occ",
				"energy": -0.24026,
				"method": "rhf"
			},
			{
				"type": "unocc",
				"energy": -0.00092,
				"method": "rhf"
			},
			{
				"type": "unocc",
				"energy": 0.02058,
				"method": "rhf"
			},
			{
				"type": "unocc",
				"energy": 0.07,
				"method": "rhf"
			},
			{
				"type": "unocc",
				"energy": 0.07755,
				"method": "rhf"
			},
			{
				"type": "unocc",
				"energy": 0.09344,
				"method": "rhf"
			}
		],
		"cosmo_sigma_profile": { 
			"-0.025": 0.0,
			"-0.024": 0.0,
			"-0.023": 0.0,
			"-0.022": 0.0,
			"-0.021": 0.0,
			"-0.02": 0.0,
			"-0.019": 0.256487116337,
			"-0.018": 1.03468868439,
			"-0.017": 0.941794812347,
			"-0.016": 0.558526137966,
			"-0.015": 1.25142630098,
			"-0.014": 0.409288916981,
			"-0.013": 0.281312030252,
			"-0.012": 1.20568494288,
			"-0.011": 1.35070899232,
			"-0.01": 2.97249886152,
			"-0.009": 4.77970695579,
			"-0.008": 4.04367412535,
			"-0.007": 5.99574008356,
			"-0.006": 7.3654161271,
			"-0.005": 8.56028251377,
			"-0.004": 11.9659190927,
			"-0.003": 14.8951876196,
			"-0.002": 11.4462889691,
			"-0.001": 11.1981383182,
			"0.0": 10.8733186447,
			"0.001": 7.84340855248,
			"0.002": 5.50553347017,
			"0.003": 7.11024841972,
			"0.004": 8.07740673091,
			"0.005": 8.86362735201,
			"0.006": 7.62594967449,
			"0.007": 5.07885940148,
			"0.008": 5.09319337307,
			"0.009": 4.43174132612,
			"0.01": 5.03227451829,
			"0.011": 7.30614678205,
			"0.012": 2.72340718148,
			"0.013": 1.05589467375,
			"0.014": 0.743180568527,
			"0.015": 0.0366376815508,
			"0.016": 0.0,
			"0.017": 0.0,
			"0.018": 0.0,
			"0.019": 0.0,
			"0.02": 0.0,
			"0.021": 0.0,
			"0.022": 0.0,
			"0.023": 0.0,
			"0.024": 0.0,
			"0.025": 0.0
		}
	}
}
