{
	 "smiles": "OC(=O)C1CCN2C1=CC=C2C(=O)C1=CC=CC=C1", 
	 "Tm": 433.15, 
	 "num_atms": 32, 
	 "gaussian": { 
		 "optdone": 1, 
		 "sigma_profile": "yes", 
		 "theory": "DFT", 
		 "functional": "B3LYP", 
		 "basiset": "6-31G**", 
		 "properties": { 
			 "R2extent": 6376.6924, 
			 "electric_dipole_moment_norm": 4.82425166528, 
			 "electric_quadrupole_moment_norm": 18.6413777224, 
			 "total_energy": -859.862198525, 
			 "HOMO_LUMO_gap": 0.16773, 
			 "cosmo_polarized_energy": -17.09, 
			 "cosmo_cavitation_energy": 35.61, 
			 "cosmo_dispersion_energy": -25.73, 
			 "cosmo_repulsion_energy": 1.96, 
			 "cosmo_total_nonelectrostatic_energy": 11.85, 
			 "SMD_solvation_energy": 6.71 
		},
		"coords": [
			{
				"x": 3.5529986337,
				"y": -2.6487887266,
				"z": -0.0595678674,
				"element": "O" 
			},
			{
				"x": 2.8552123227,
				"y": -3.3174251826,
				"z": -0.9989600222,
				"element": "C" 
			},
			{
				"x": 3.4113329648,
				"y": -3.9333701833,
				"z": -1.8747243401,
				"element": "O" 
			},
			{
				"x": 1.3126599855,
				"y": -3.2902927866,
				"z": -0.8732629516,
				"element": "C" 
			},
			{
				"x": 0.631685236,
				"y": -2.9872813075,
				"z": -2.2416972825,
				"element": "C" 
			},
			{
				"x": 0.2997270064,
				"y": -1.4751171756,
				"z": -2.2141212743,
				"element": "C" 
			},
			{
				"x": 0.2336234156,
				"y": -1.2075483919,
				"z": -0.7723218515,
				"element": "N" 
			},
			{
				"x": 0.7729537639,
				"y": -2.1914316704,
				"z": -0.0054432827,
				"element": "C" 
			},
			{
				"x": 0.709348606,
				"y": -1.8004601918,
				"z": 1.3309205097,
				"element": "C" 
			},
			{
				"x": 0.093239372,
				"y": -0.5267234513,
				"z": 1.3427258867,
				"element": "C" 
			},
			{
				"x": -0.2037675689,
				"y": -0.1649040592,
				"z": 0.0225889694,
				"element": "C" 
			},
			{
				"x": -0.7542953857,
				"y": 1.0536961281,
				"z": -0.5803197035,
				"element": "C" 
			},
			{
				"x": -0.6192531606,
				"y": 1.2585494733,
				"z": -1.7892151632,
				"element": "O" 
			},
			{
				"x": -1.4559550502,
				"y": 2.0598513414,
				"z": 0.2798252292,
				"element": "C" 
			},
			{
				"x": -2.2054383939,
				"y": 1.7127312901,
				"z": 1.4142875904,
				"element": "C" 
			},
			{
				"x": -2.8749442429,
				"y": 2.6969017658,
				"z": 2.1426108592,
				"element": "C" 
			},
			{
				"x": -2.796576134,
				"y": 4.0340983529,
				"z": 1.7501488383,
				"element": "C" 
			},
			{
				"x": -2.0618423118,
				"y": 4.3857379114,
				"z": 0.6136273634,
				"element": "C" 
			},
			{
				"x": -1.4064169792,
				"y": 3.4037212844,
				"z": -0.1232860677,
				"element": "C" 
			},
			{
				"x": 2.938231283,
				"y": -2.1550497524,
				"z": 0.5124101806,
				"element": "H" 
			},
			{
				"x": 1.0375490336,
				"y": -4.2875524072,
				"z": -0.5114731831,
				"element": "H" 
			},
			{
				"x": -0.2930609422,
				"y": -3.5653919173,
				"z": -2.3195808917,
				"element": "H" 
			},
			{
				"x": 1.2805972457,
				"y": -3.2663541687,
				"z": -3.0728162077,
				"element": "H" 
			},
			{
				"x": -0.6442309861,
				"y": -1.2255117999,
				"z": -2.6987539993,
				"element": "H" 
			},
			{
				"x": 1.0787054775,
				"y": -0.8557604419,
				"z": -2.6688840168,
				"element": "H" 
			},
			{
				"x": 1.0308363785,
				"y": -2.3743945238,
				"z": 2.1894509645,
				"element": "H" 
			},
			{
				"x": -0.1012925257,
				"y": 0.0810931762,
				"z": 2.2137968655,
				"element": "H" 
			},
			{
				"x": -2.2925194715,
				"y": 0.6721058617,
				"z": 1.7070978579,
				"element": "H" 
			},
			{
				"x": -3.4632808318,
				"y": 2.4179222121,
				"z": 3.0119530622,
				"element": "H" 
			},
			{
				"x": -3.3133445026,
				"y": 4.7995068959,
				"z": 2.3221213095,
				"element": "H" 
			},
			{
				"x": -2.0060945113,
				"y": 5.4246509431,
				"z": 0.3018189849,
				"element": "H" 
			},
			{
				"x": -0.8477877266,
				"y": 3.6535915015,
				"z": -1.0191563662,
				"element": "H" 
			}
		],
		 "valence_orbital": [ 
			{
				"type": "occ",
				"energy": -0.26508,
				"method": "rhf"
			},
			{
				"type": "occ",
				"energy": -0.26262,
				"method": "rhf"
			},
			{
				"type": "occ",
				"energy": -0.26183,
				"method": "rhf"
			},
			{
				"type": "occ",
				"energy": -0.25151,
				"method": "rhf"
			},
			{
				"type": "occ",
				"energy": -0.23242,
				"method": "rhf"
			},
			{
				"type": "unocc",
				"energy": -0.06469,
				"method": "rhf"
			},
			{
				"type": "unocc",
				"energy": -0.01221,
				"method": "rhf"
			},
			{
				"type": "unocc",
				"energy": -0.00387,
				"method": "rhf"
			},
			{
				"type": "unocc",
				"energy": 0.00354,
				"method": "rhf"
			},
			{
				"type": "unocc",
				"energy": 0.03266,
				"method": "rhf"
			}
		],
		"cosmo_sigma_profile": { 
			"-0.025": 0.0,
			"-0.024": 0.0,
			"-0.023": 0.0,
			"-0.022": 0.0,
			"-0.021": 0.0,
			"-0.02": 0.0,
			"-0.019": 0.0,
			"-0.018": 0.0,
			"-0.017": 0.0,
			"-0.016": 0.0,
			"-0.015": 0.0,
			"-0.014": 0.0,
			"-0.013": 0.0503953417125,
			"-0.012": 0.480679006583,
			"-0.011": 1.84785815312,
			"-0.01": 1.64092409333,
			"-0.009": 2.14719230787,
			"-0.008": 6.4233500643,
			"-0.007": 8.24718928304,
			"-0.006": 18.764441716,
			"-0.005": 27.1431903594,
			"-0.004": 25.6874270216,
			"-0.003": 19.4387821304,
			"-0.002": 20.2848841591,
			"-0.001": 18.0481441609,
			"0.0": 15.0517804675,
			"0.001": 15.2857050935,
			"0.002": 14.7400643774,
			"0.003": 16.6421588514,
			"0.004": 19.4988355135,
			"0.005": 10.5911091368,
			"0.006": 4.17440209876,
			"0.007": 4.31845188376,
			"0.008": 4.56136819178,
			"0.009": 5.17833618509,
			"0.01": 6.40058275837,
			"0.011": 6.7536741803,
			"0.012": 7.66641308641,
			"0.013": 3.28685873185,
			"0.014": 0.158135882144,
			"0.015": 0.0,
			"0.016": 0.0,
			"0.017": 0.0,
			"0.018": 0.0,
			"0.019": 0.0,
			"0.02": 0.0,
			"0.021": 0.0,
			"0.022": 0.0,
			"0.023": 0.0,
			"0.024": 0.0,
			"0.025": 0.0
		}
	}
}
