{
	 "smiles": "OC(=O)CN1C(=O)CCC1=O", 
	 "Tm": 365.15, 
	 "num_atms": 18, 
	 "gaussian": { 
		 "optdone": 1, 
		 "sigma_profile": "yes", 
		 "theory": "DFT", 
		 "functional": "B3LYP", 
		 "basiset": "6-31G**", 
		 "properties": { 
			 "R2extent": 2045.7755, 
			 "electric_dipole_moment_norm": 6.30606713729, 
			 "electric_quadrupole_moment_norm": 19.2801818308, 
			 "total_energy": -588.546496396, 
			 "HOMO_LUMO_gap": 0.21653, 
			 "cosmo_polarized_energy": -18.59, 
			 "cosmo_cavitation_energy": 22.27, 
			 "cosmo_dispersion_energy": -16.58, 
			 "cosmo_repulsion_energy": 1.35, 
			 "cosmo_total_nonelectrostatic_energy": 7.04, 
			 "SMD_solvation_energy": 6.15 
		},
		"coords": [
			{
				"x": 0.7803846675,
				"y": 2.5600654501,
				"z": 2.2892665256,
				"element": "O" 
			},
			{
				"x": 0.0317780677,
				"y": 1.5102472569,
				"z": 2.6561356774,
				"element": "C" 
			},
			{
				"x": -0.162037298,
				"y": 1.2273737297,
				"z": 3.8124113872,
				"element": "O" 
			},
			{
				"x": -0.6219445405,
				"y": 0.7094735446,
				"z": 1.5110884397,
				"element": "C" 
			},
			{
				"x": 0.3118600599,
				"y": 0.1850154567,
				"z": 0.5138056706,
				"element": "N" 
			},
			{
				"x": 0.5046351516,
				"y": -1.2000672768,
				"z": 0.3164206941,
				"element": "C" 
			},
			{
				"x": -0.0432606171,
				"y": -2.0612958196,
				"z": 0.9616474438,
				"element": "O" 
			},
			{
				"x": 1.4929073387,
				"y": -1.3652269939,
				"z": -0.8322569306,
				"element": "C" 
			},
			{
				"x": 1.7541264344,
				"y": 0.0585141324,
				"z": -1.3495078924,
				"element": "C" 
			},
			{
				"x": 0.9982251642,
				"y": 0.9660742958,
				"z": -0.394343958,
				"element": "C" 
			},
			{
				"x": 0.9806947533,
				"y": 2.1910794985,
				"z": -0.3992988443,
				"element": "O" 
			},
			{
				"x": 0.8054438176,
				"y": 2.6511742536,
				"z": 1.3096779466,
				"element": "H" 
			},
			{
				"x": -1.3504495641,
				"y": 1.3512580382,
				"z": 1.0015408502,
				"element": "H" 
			},
			{
				"x": -1.1306907487,
				"y": -0.1481164968,
				"z": 1.9487179215,
				"element": "H" 
			},
			{
				"x": 1.0598686389,
				"y": -2.0360886972,
				"z": -1.5783089122,
				"element": "H" 
			},
			{
				"x": 2.3933571222,
				"y": -1.8524055008,
				"z": -0.4464340559,
				"element": "H" 
			},
			{
				"x": 1.3737226942,
				"y": 0.2267940258,
				"z": -2.3617273531,
				"element": "H" 
			},
			{
				"x": 2.8088788582,
				"y": 0.3454311029,
				"z": -1.3529346102,
				"element": "H" 
			}
		],
		 "valence_orbital": [ 
			{
				"type": "occ",
				"energy": -0.32117,
				"method": "rhf"
			},
			{
				"type": "occ",
				"energy": -0.31138,
				"method": "rhf"
			},
			{
				"type": "occ",
				"energy": -0.31026,
				"method": "rhf"
			},
			{
				"type": "occ",
				"energy": -0.2898,
				"method": "rhf"
			},
			{
				"type": "occ",
				"energy": -0.26667,
				"method": "rhf"
			},
			{
				"type": "unocc",
				"energy": -0.05014,
				"method": "rhf"
			},
			{
				"type": "unocc",
				"energy": -0.00824,
				"method": "rhf"
			},
			{
				"type": "unocc",
				"energy": 0.00648,
				"method": "rhf"
			},
			{
				"type": "unocc",
				"energy": 0.06626,
				"method": "rhf"
			},
			{
				"type": "unocc",
				"energy": 0.1027,
				"method": "rhf"
			}
		],
		"cosmo_sigma_profile": { 
			"-0.025": 0.0,
			"-0.024": 0.0,
			"-0.023": 0.0,
			"-0.022": 0.0,
			"-0.021": 0.0,
			"-0.02": 0.0,
			"-0.019": 0.0,
			"-0.018": 0.0,
			"-0.017": 0.0,
			"-0.016": 0.0,
			"-0.015": 0.0,
			"-0.014": 0.0,
			"-0.013": 0.0,
			"-0.012": 0.0,
			"-0.011": 0.158557666446,
			"-0.01": 1.65236257289,
			"-0.009": 4.87260283368,
			"-0.008": 13.785686515,
			"-0.007": 21.0997820207,
			"-0.006": 14.9251431241,
			"-0.005": 12.992458622,
			"-0.004": 10.5938082405,
			"-0.003": 8.72504544306,
			"-0.002": 5.58147696288,
			"-0.001": 4.71397602598,
			"0.0": 5.5182601504,
			"0.001": 4.67717053847,
			"0.002": 3.38457827471,
			"0.003": 3.82540776244,
			"0.004": 4.78440929619,
			"0.005": 4.14025040935,
			"0.006": 5.42083819713,
			"0.007": 4.10911640332,
			"0.008": 5.4708677866,
			"0.009": 7.47142079801,
			"0.01": 9.7773292939,
			"0.011": 12.1626190194,
			"0.012": 6.27225383897,
			"0.013": 1.08957479593,
			"0.014": 0.0,
			"0.015": 0.0,
			"0.016": 0.0,
			"0.017": 0.0,
			"0.018": 0.0,
			"0.019": 0.0,
			"0.02": 0.0,
			"0.021": 0.0,
			"0.022": 0.0,
			"0.023": 0.0,
			"0.024": 0.0,
			"0.025": 0.0
		}
	}
}
