{
	 "smiles": "CC1=C(SC(=N1)C(=NNC1=CC=CC(C)=C1)C#N)N=NC1=CC=CC=C1", 
	 "Tm": 484.15, 
	 "num_atms": 42, 
	 "gaussian": { 
		 "optdone": 1, 
		 "sigma_profile": "yes", 
		 "theory": "DFT", 
		 "functional": "B3LYP", 
		 "basiset": "6-31G**", 
		 "properties": { 
			 "R2extent": 15040.3157, 
			 "electric_dipole_moment_norm": 2.85201841859, 
			 "electric_quadrupole_moment_norm": 42.3164918467, 
			 "total_energy": -1460.2496843, 
			 "HOMO_LUMO_gap": 0.10519, 
			 "cosmo_polarized_energy": -17.12, 
			 "cosmo_cavitation_energy": 50.58, 
			 "cosmo_dispersion_energy": -34.68, 
			 "cosmo_repulsion_energy": 2.59, 
			 "cosmo_total_nonelectrostatic_energy": 18.5, 
			 "SMD_solvation_energy": 5.43 
		},
		"coords": [
			{
				"x": -2.4692743384,
				"y": 2.7958987488,
				"z": 0.984192574,
				"element": "C" 
			},
			{
				"x": -1.6941322636,
				"y": 1.6171623902,
				"z": 0.4797873411,
				"element": "C" 
			},
			{
				"x": -1.6384570903,
				"y": 1.1656694147,
				"z": -0.8333514144,
				"element": "C" 
			},
			{
				"x": -0.7496277826,
				"y": -0.3464159196,
				"z": -0.9213550547,
				"element": "S" 
			},
			{
				"x": -0.4477325048,
				"y": -0.1979901988,
				"z": 0.8015083002,
				"element": "C" 
			},
			{
				"x": -1.0078534379,
				"y": 0.8391515401,
				"z": 1.3729940796,
				"element": "N" 
			},
			{
				"x": 0.3831859463,
				"y": -1.1452557405,
				"z": 1.5225164212,
				"element": "C" 
			},
			{
				"x": 0.8864517609,
				"y": -2.1795324703,
				"z": 0.8933384399,
				"element": "N" 
			},
			{
				"x": 1.6424955168,
				"y": -3.0439566506,
				"z": 1.5351704593,
				"element": "N" 
			},
			{
				"x": 2.2006809793,
				"y": -4.1680527568,
				"z": 0.9043199066,
				"element": "C" 
			},
			{
				"x": 2.9918953401,
				"y": -5.026848996,
				"z": 1.6768203497,
				"element": "C" 
			},
			{
				"x": 3.5617903981,
				"y": -6.1471902691,
				"z": 1.0763329406,
				"element": "C" 
			},
			{
				"x": 3.3486822435,
				"y": -6.4129688783,
				"z": -0.2753435924,
				"element": "C" 
			},
			{
				"x": 2.553528837,
				"y": -5.5561962561,
				"z": -1.0529763904,
				"element": "C" 
			},
			{
				"x": 2.2980807793,
				"y": -5.8585508663,
				"z": -2.5110888269,
				"element": "C" 
			},
			{
				"x": 1.9831566036,
				"y": -4.4305929328,
				"z": -0.454401601,
				"element": "C" 
			},
			{
				"x": 0.6380713921,
				"y": -0.9332218337,
				"z": 2.9200008603,
				"element": "C" 
			},
			{
				"x": 0.9408366407,
				"y": -0.9067964989,
				"z": 4.0444739254,
				"element": "N" 
			},
			{
				"x": -2.3990888032,
				"y": 1.5202002362,
				"z": -1.9575998684,
				"element": "N" 
			},
			{
				"x": -2.5453960832,
				"y": 2.6966751329,
				"z": -2.3759443087,
				"element": "N" 
			},
			{
				"x": -1.7477605472,
				"y": 3.8016944778,
				"z": -1.9525963527,
				"element": "C" 
			},
			{
				"x": -0.3522162332,
				"y": 3.7396368337,
				"z": -1.7986735539,
				"element": "C" 
			},
			{
				"x": 0.3644599156,
				"y": 4.9052398068,
				"z": -1.5380281765,
				"element": "C" 
			},
			{
				"x": -0.2950905609,
				"y": 6.1319860714,
				"z": -1.4137442739,
				"element": "C" 
			},
			{
				"x": -1.6804949708,
				"y": 6.1959028906,
				"z": -1.5829997967,
				"element": "C" 
			},
			{
				"x": -2.401241388,
				"y": 5.0411896818,
				"z": -1.8782610137,
				"element": "C" 
			},
			{
				"x": -3.3725144295,
				"y": 2.9633353688,
				"z": 0.3918838653,
				"element": "H" 
			},
			{
				"x": -1.8718441783,
				"y": 3.7140392789,
				"z": 0.9386168169,
				"element": "H" 
			},
			{
				"x": -2.7500819402,
				"y": 2.6221695494,
				"z": 2.0251886339,
				"element": "H" 
			},
			{
				"x": 1.8325574956,
				"y": -2.9059402431,
				"z": 2.5280670079,
				"element": "H" 
			},
			{
				"x": 3.1604344945,
				"y": -4.8179219687,
				"z": 2.7301281584,
				"element": "H" 
			},
			{
				"x": 4.17931737,
				"y": -6.8141810587,
				"z": 1.6704954516,
				"element": "H" 
			},
			{
				"x": 3.8011796901,
				"y": -7.2883868877,
				"z": -0.7328790546,
				"element": "H" 
			},
			{
				"x": 1.5303279266,
				"y": -6.6339544232,
				"z": -2.6226579386,
				"element": "H" 
			},
			{
				"x": 1.9513649956,
				"y": -4.9728515062,
				"z": -3.0501111166,
				"element": "H" 
			},
			{
				"x": 3.2026603678,
				"y": -6.2261377113,
				"z": -3.0057166182,
				"element": "H" 
			},
			{
				"x": 1.3684106349,
				"y": -3.7504029643,
				"z": -1.0324800657,
				"element": "H" 
			},
			{
				"x": 0.1660063099,
				"y": 2.793588224,
				"z": -1.9079723165,
				"element": "H" 
			},
			{
				"x": 1.4443958372,
				"y": 4.8562787769,
				"z": -1.4333916509,
				"element": "H" 
			},
			{
				"x": 0.2708943865,
				"y": 7.0343603687,
				"z": -1.2030408977,
				"element": "H" 
			},
			{
				"x": -2.1964035139,
				"y": 7.148318624,
				"z": -1.5051509952,
				"element": "H" 
			},
			{
				"x": -3.472355796,
				"y": 5.0741496153,
				"z": -2.0509706532,
				"element": "H" 
			}
		],
		 "valence_orbital": [ 
			{
				"type": "occ",
				"energy": -0.26413,
				"method": "rhf"
			},
			{
				"type": "occ",
				"energy": -0.25785,
				"method": "rhf"
			},
			{
				"type": "occ",
				"energy": -0.2555,
				"method": "rhf"
			},
			{
				"type": "occ",
				"energy": -0.2291,
				"method": "rhf"
			},
			{
				"type": "occ",
				"energy": -0.20226,
				"method": "rhf"
			},
			{
				"type": "unocc",
				"energy": -0.09707,
				"method": "rhf"
			},
			{
				"type": "unocc",
				"energy": -0.0699,
				"method": "rhf"
			},
			{
				"type": "unocc",
				"energy": -0.01729,
				"method": "rhf"
			},
			{
				"type": "unocc",
				"energy": -0.01212,
				"method": "rhf"
			},
			{
				"type": "unocc",
				"energy": -0.00952,
				"method": "rhf"
			}
		],
		"cosmo_sigma_profile": { 
			"-0.025": 0.0,
			"-0.024": 0.0,
			"-0.023": 0.0,
			"-0.022": 0.0,
			"-0.021": 0.0,
			"-0.02": 0.0,
			"-0.019": 0.0,
			"-0.018": 0.0,
			"-0.017": 0.0,
			"-0.016": 0.0,
			"-0.015": 0.303206250047,
			"-0.014": 1.36809699441,
			"-0.013": 1.17312029128,
			"-0.012": 1.42926574589,
			"-0.011": 1.27035493126,
			"-0.01": 1.71655924669,
			"-0.009": 1.90160096221,
			"-0.008": 2.22028005969,
			"-0.007": 4.94574416546,
			"-0.006": 17.5493719447,
			"-0.005": 26.0421406077,
			"-0.004": 33.7409524695,
			"-0.003": 30.4929978156,
			"-0.002": 34.8565998014,
			"-0.001": 37.5739872562,
			"0.0": 41.1853486496,
			"0.001": 32.7549859346,
			"0.002": 31.8698929369,
			"0.003": 28.4297245906,
			"0.004": 20.9662882027,
			"0.005": 14.3055180132,
			"0.006": 7.63521630273,
			"0.007": 6.1738558711,
			"0.008": 5.61731025225,
			"0.009": 5.68204042195,
			"0.01": 5.89678753476,
			"0.011": 6.08519616029,
			"0.012": 3.76851007232,
			"0.013": 1.70775458121,
			"0.014": 0.275547751743,
			"0.015": 0.0,
			"0.016": 0.0,
			"0.017": 0.0,
			"0.018": 0.0,
			"0.019": 0.0,
			"0.02": 0.0,
			"0.021": 0.0,
			"0.022": 0.0,
			"0.023": 0.0,
			"0.024": 0.0,
			"0.025": 0.0
		}
	}
}
