{
	 "smiles": "OC1=C(O)C(=O)C1=O", 
	 "Tm": 566.15, 
	 "num_atms": 10, 
	 "gaussian": { 
		 "optdone": 1, 
		 "sigma_profile": "yes", 
		 "theory": "DFT", 
		 "functional": "B3LYP", 
		 "basiset": "6-31G**", 
		 "properties": { 
			 "R2extent": 1369.1004, 
			 "electric_dipole_moment_norm": 3.25520305665, 
			 "electric_quadrupole_moment_norm": 15.0211814316, 
			 "total_energy": -454.454800239, 
			 "HOMO_LUMO_gap": 0.19144, 
			 "cosmo_polarized_energy": -17.33, 
			 "cosmo_cavitation_energy": 16.51, 
			 "cosmo_dispersion_energy": -11.98, 
			 "cosmo_repulsion_energy": 1.04, 
			 "cosmo_total_nonelectrostatic_energy": 5.57, 
			 "SMD_solvation_energy": 5.86 
		},
		"coords": [
			{
				"x": -1.0425343495,
				"y": 1.9615014321,
				"z": -2.6068218505,
				"element": "O" 
			},
			{
				"x": -0.1800312838,
				"y": 1.4000346122,
				"z": -1.7707686925,
				"element": "C" 
			},
			{
				"x": -0.2916651656,
				"y": 0.7915617462,
				"z": -0.5400646098,
				"element": "C" 
			},
			{
				"x": -1.3041380697,
				"y": 0.535658776,
				"z": 0.2769751876,
				"element": "O" 
			},
			{
				"x": 1.168290296,
				"y": 0.5128166186,
				"z": -0.4446613033,
				"element": "C" 
			},
			{
				"x": 1.8616034292,
				"y": -0.0206035447,
				"z": 0.3891320606,
				"element": "O" 
			},
			{
				"x": 1.2944676866,
				"y": 1.2005392975,
				"z": -1.8364466866,
				"element": "C" 
			},
			{
				"x": 2.1375992161,
				"y": 1.4837478644,
				"z": -2.6545876365,
				"element": "O" 
			},
			{
				"x": -0.5492572479,
				"y": 2.2778446489,
				"z": -3.3819086404,
				"element": "H" 
			},
			{
				"x": -0.9522345114,
				"y": 0.0815985488,
				"z": 1.0606521713,
				"element": "H" 
			}
		],
		 "valence_orbital": [ 
			{
				"type": "occ",
				"energy": -0.4112,
				"method": "rhf"
			},
			{
				"type": "occ",
				"energy": -0.37645,
				"method": "rhf"
			},
			{
				"type": "occ",
				"energy": -0.31882,
				"method": "rhf"
			},
			{
				"type": "occ",
				"energy": -0.26136,
				"method": "rhf"
			},
			{
				"type": "occ",
				"energy": -0.24395,
				"method": "rhf"
			},
			{
				"type": "unocc",
				"energy": -0.05251,
				"method": "rhf"
			},
			{
				"type": "unocc",
				"energy": -0.04999,
				"method": "rhf"
			},
			{
				"type": "unocc",
				"energy": 0.02822,
				"method": "rhf"
			},
			{
				"type": "unocc",
				"energy": 0.04807,
				"method": "rhf"
			},
			{
				"type": "unocc",
				"energy": 0.13676,
				"method": "rhf"
			}
		],
		"cosmo_sigma_profile": { 
			"-0.025": 0.0,
			"-0.024": 0.0,
			"-0.023": 0.0,
			"-0.022": 0.0,
			"-0.021": 0.023201138734,
			"-0.02": 1.25412442195,
			"-0.019": 2.47302590946,
			"-0.018": 1.49414181008,
			"-0.017": 1.59587435925,
			"-0.016": 2.12342188559,
			"-0.015": 1.75300163313,
			"-0.014": 1.61096543039,
			"-0.013": 1.80018573383,
			"-0.012": 1.71745990431,
			"-0.011": 1.57041478047,
			"-0.01": 2.02619286165,
			"-0.009": 1.6039789705,
			"-0.008": 1.99399702817,
			"-0.007": 2.9615836698,
			"-0.006": 6.35321478351,
			"-0.005": 6.76966285092,
			"-0.004": 5.42939498853,
			"-0.003": 6.48033882861,
			"-0.002": 4.93308206596,
			"-0.001": 3.48027464514,
			"0.0": 5.10389423759,
			"0.001": 5.1036889157,
			"0.002": 5.61032396422,
			"0.003": 4.18146165927,
			"0.004": 5.13323068484,
			"0.005": 6.62011044099,
			"0.006": 4.57088280933,
			"0.007": 6.20671099444,
			"0.008": 6.36019148999,
			"0.009": 4.28503498108,
			"0.01": 6.5815500865,
			"0.011": 10.6659131187,
			"0.012": 2.95107134712,
			"0.013": 0.128264290215,
			"0.014": 0.0,
			"0.015": 0.0,
			"0.016": 0.0,
			"0.017": 0.0,
			"0.018": 0.0,
			"0.019": 0.0,
			"0.02": 0.0,
			"0.021": 0.0,
			"0.022": 0.0,
			"0.023": 0.0,
			"0.024": 0.0,
			"0.025": 0.0
		}
	}
}
