{
	 "smiles": "NC(=S)CC1=CN2C=C(Cl)C=C(Cl)C2=N1", 
	 "Tm": 463.15, 
	 "num_atms": 22, 
	 "gaussian": { 
		 "optdone": 1, 
		 "sigma_profile": "yes", 
		 "theory": "DFT", 
		 "functional": "B3LYP", 
		 "basiset": "6-31G**", 
		 "properties": { 
			 "R2extent": 6157.7822, 
			 "electric_dipole_moment_norm": 5.33387146264, 
			 "electric_quadrupole_moment_norm": 21.5861952393, 
			 "total_energy": -1830.00585438, 
			 "HOMO_LUMO_gap": 0.13053, 
			 "cosmo_polarized_energy": -17.17, 
			 "cosmo_cavitation_energy": 32.23, 
			 "cosmo_dispersion_energy": -24.17, 
			 "cosmo_repulsion_energy": 1.86, 
			 "cosmo_total_nonelectrostatic_energy": 9.92, 
			 "SMD_solvation_energy": 3.37 
		},
		"coords": [
			{
				"x": 2.7839613803,
				"y": -0.9236110638,
				"z": -0.261414282,
				"element": "N" 
			},
			{
				"x": 2.3141456604,
				"y": -2.177302673,
				"z": -0.2140376354,
				"element": "C" 
			},
			{
				"x": 3.1365180011,
				"y": -3.5000485072,
				"z": -0.8054096371,
				"element": "S" 
			},
			{
				"x": 0.9671555244,
				"y": -2.3276461617,
				"z": 0.5018803732,
				"element": "C" 
			},
			{
				"x": -0.0606852742,
				"y": -1.2810058794,
				"z": 0.1800523019,
				"element": "C" 
			},
			{
				"x": -1.3337425662,
				"y": -1.4830280618,
				"z": -0.3170098509,
				"element": "C" 
			},
			{
				"x": -1.8964993758,
				"y": -0.2282721029,
				"z": -0.4352560998,
				"element": "N" 
			},
			{
				"x": -3.1397043655,
				"y": 0.1584493374,
				"z": -0.872208308,
				"element": "C" 
			},
			{
				"x": -3.4335395581,
				"y": 1.4937060863,
				"z": -0.889592141,
				"element": "C" 
			},
			{
				"x": -5.0082895174,
				"y": 2.0130455869,
				"z": -1.4408362888,
				"element": "Cl" 
			},
			{
				"x": -2.4902163068,
				"y": 2.4706861194,
				"z": -0.4705949655,
				"element": "C" 
			},
			{
				"x": -1.2525715151,
				"y": 2.0620539113,
				"z": -0.0361185815,
				"element": "C" 
			},
			{
				"x": -0.0587749614,
				"y": 3.2109211131,
				"z": 0.4857845913,
				"element": "Cl" 
			},
			{
				"x": -0.9181782202,
				"y": 0.683855688,
				"z": -0.0040883218,
				"element": "C" 
			},
			{
				"x": 0.1870823422,
				"y": 0.0527652545,
				"z": 0.3719648516,
				"element": "N" 
			},
			{
				"x": 2.2014830821,
				"y": -0.1452176642,
				"z": 0.0411955959,
				"element": "H" 
			},
			{
				"x": 3.6698110192,
				"y": -0.7572905557,
				"z": -0.7162686086,
				"element": "H" 
			},
			{
				"x": 1.1809856064,
				"y": -2.2919057098,
				"z": 1.5794491159,
				"element": "H" 
			},
			{
				"x": 0.5796171892,
				"y": -3.3220672172,
				"z": 0.2838098154,
				"element": "H" 
			},
			{
				"x": -1.8703323028,
				"y": -2.3781361141,
				"z": -0.5893371276,
				"element": "H" 
			},
			{
				"x": -3.8259548827,
				"y": -0.617434291,
				"z": -1.1830086821,
				"element": "H" 
			},
			{
				"x": -2.7495709591,
				"y": 3.5213829051,
				"z": -0.495756115,
				"element": "H" 
			}
		],
		 "valence_orbital": [ 
			{
				"type": "occ",
				"energy": -0.30644,
				"method": "rhf"
			},
			{
				"type": "occ",
				"energy": -0.26312,
				"method": "rhf"
			},
			{
				"type": "occ",
				"energy": -0.2417,
				"method": "rhf"
			},
			{
				"type": "occ",
				"energy": -0.22228,
				"method": "rhf"
			},
			{
				"type": "occ",
				"energy": -0.19966,
				"method": "rhf"
			},
			{
				"type": "unocc",
				"energy": -0.06913,
				"method": "rhf"
			},
			{
				"type": "unocc",
				"energy": -0.03051,
				"method": "rhf"
			},
			{
				"type": "unocc",
				"energy": -0.02246,
				"method": "rhf"
			},
			{
				"type": "unocc",
				"energy": -0.01227,
				"method": "rhf"
			},
			{
				"type": "unocc",
				"energy": 0.02716,
				"method": "rhf"
			}
		],
		"cosmo_sigma_profile": { 
			"-0.025": 0.0,
			"-0.024": 0.0,
			"-0.023": 0.0,
			"-0.022": 0.0,
			"-0.021": 0.0,
			"-0.02": 0.0,
			"-0.019": 0.0,
			"-0.018": 0.0,
			"-0.017": 0.0,
			"-0.016": 0.0,
			"-0.015": 0.355162758681,
			"-0.014": 1.1055431508,
			"-0.013": 1.48621665409,
			"-0.012": 1.90309626919,
			"-0.011": 4.1866381906,
			"-0.01": 5.36207400084,
			"-0.009": 5.64733227101,
			"-0.008": 5.77596971232,
			"-0.007": 9.29274569529,
			"-0.006": 7.79467940263,
			"-0.005": 8.62397737822,
			"-0.004": 12.2771969445,
			"-0.003": 16.3165580102,
			"-0.002": 17.4979628704,
			"-0.001": 23.4656654746,
			"0.0": 24.6267699017,
			"0.001": 19.385275292,
			"0.002": 18.5969841223,
			"0.003": 21.6233623131,
			"0.004": 15.465616442,
			"0.005": 6.56890838788,
			"0.006": 4.76774920773,
			"0.007": 5.60563537159,
			"0.008": 5.52399181633,
			"0.009": 7.23022521367,
			"0.01": 6.59346437301,
			"0.011": 5.18790046922,
			"0.012": 3.53199199557,
			"0.013": 0.717261743571,
			"0.014": 0.0,
			"0.015": 0.0,
			"0.016": 0.0,
			"0.017": 0.0,
			"0.018": 0.0,
			"0.019": 0.0,
			"0.02": 0.0,
			"0.021": 0.0,
			"0.022": 0.0,
			"0.023": 0.0,
			"0.024": 0.0,
			"0.025": 0.0
		}
	}
}
