{
	 "smiles": "CC1=CC(CN2NC=CC2=NC(=O)CCl)=CC=C1", 
	 "Tm": 362.15, 
	 "num_atms": 32, 
	 "gaussian": { 
		 "optdone": 1, 
		 "sigma_profile": "yes", 
		 "theory": "DFT", 
		 "functional": "B3LYP", 
		 "basiset": "6-31G**", 
		 "properties": { 
			 "R2extent": 7586.0003, 
			 "electric_dipole_moment_norm": 8.27732452729, 
			 "electric_quadrupole_moment_norm": 22.423168319, 
			 "total_energy": -1203.46611202, 
			 "HOMO_LUMO_gap": 0.17383, 
			 "cosmo_polarized_energy": -20.45, 
			 "cosmo_cavitation_energy": 38.44, 
			 "cosmo_dispersion_energy": -26.88, 
			 "cosmo_repulsion_energy": 2.12, 
			 "cosmo_total_nonelectrostatic_energy": 13.68, 
			 "SMD_solvation_energy": 6.24 
		},
		"coords": [
			{
				"x": 1.7830696095,
				"y": -2.1771181321,
				"z": 4.5859371504,
				"element": "C" 
			},
			{
				"x": 1.1094046739,
				"y": -1.917893534,
				"z": 3.2585992902,
				"element": "C" 
			},
			{
				"x": 1.0612734321,
				"y": -0.6245969536,
				"z": 2.7191673337,
				"element": "C" 
			},
			{
				"x": 0.4606487757,
				"y": -0.366884713,
				"z": 1.483060735,
				"element": "C" 
			},
			{
				"x": 0.4004786786,
				"y": 1.0480395063,
				"z": 0.9419959242,
				"element": "C" 
			},
			{
				"x": 0.9660397758,
				"y": 1.148932205,
				"z": -0.3978773908,
				"element": "N" 
			},
			{
				"x": 2.3055705231,
				"y": 0.842511783,
				"z": -0.6080735737,
				"element": "N" 
			},
			{
				"x": 2.6162892385,
				"y": 1.2957705973,
				"z": -1.8699707457,
				"element": "C" 
			},
			{
				"x": 1.5815404201,
				"y": 2.0147266038,
				"z": -2.3839717794,
				"element": "C" 
			},
			{
				"x": 0.5062787532,
				"y": 1.9560301288,
				"z": -1.4164246478,
				"element": "C" 
			},
			{
				"x": -0.6952359678,
				"y": 2.491402735,
				"z": -1.3153115947,
				"element": "N" 
			},
			{
				"x": -1.141372812,
				"y": 3.2908583946,
				"z": -2.3311217274,
				"element": "C" 
			},
			{
				"x": -0.5972341543,
				"y": 3.5298017832,
				"z": -3.4114479587,
				"element": "O" 
			},
			{
				"x": -2.5279504938,
				"y": 3.8916355644,
				"z": -2.0842334406,
				"element": "C" 
			},
			{
				"x": -2.6935944956,
				"y": 4.7423424047,
				"z": -0.4878563772,
				"element": "Cl" 
			},
			{
				"x": -0.0985244295,
				"y": -1.430585399,
				"z": 0.7605822254,
				"element": "C" 
			},
			{
				"x": -0.0547126435,
				"y": -2.7224146993,
				"z": 1.2812718242,
				"element": "C" 
			},
			{
				"x": 0.5413636536,
				"y": -2.9634383328,
				"z": 2.5210622035,
				"element": "C" 
			},
			{
				"x": 2.8470841905,
				"y": -2.4097838035,
				"z": 4.4523631427,
				"element": "H" 
			},
			{
				"x": 1.7214995741,
				"y": -1.3051570463,
				"z": 5.2437051336,
				"element": "H" 
			},
			{
				"x": 1.3285801466,
				"y": -3.0260774996,
				"z": 5.1049941735,
				"element": "H" 
			},
			{
				"x": 1.4953715543,
				"y": 0.2010047284,
				"z": 3.2798661722,
				"element": "H" 
			},
			{
				"x": 0.9221007185,
				"y": 1.7396910764,
				"z": 1.6146828146,
				"element": "H" 
			},
			{
				"x": -0.6266999096,
				"y": 1.4055030313,
				"z": 0.82538919,
				"element": "H" 
			},
			{
				"x": 2.57220351,
				"y": -0.0887752541,
				"z": -0.302821032,
				"element": "H" 
			},
			{
				"x": 3.5856941746,
				"y": 1.0660406513,
				"z": -2.2903980603,
				"element": "H" 
			},
			{
				"x": 1.5247421057,
				"y": 2.5582842416,
				"z": -3.3107631309,
				"element": "H" 
			},
			{
				"x": -3.2838935819,
				"y": 3.1029269481,
				"z": -2.088107951,
				"element": "H" 
			},
			{
				"x": -2.7406119837,
				"y": 4.6208766462,
				"z": -2.8633015941,
				"element": "H" 
			},
			{
				"x": -0.5713512223,
				"y": -1.2399887441,
				"z": -0.1990154368,
				"element": "H" 
			},
			{
				"x": -0.4956484404,
				"y": -3.5447931352,
				"z": 0.7250361007,
				"element": "H" 
			},
			{
				"x": 0.563596626,
				"y": -3.974071783,
				"z": 2.9210830274,
				"element": "H" 
			}
		],
		 "valence_orbital": [ 
			{
				"type": "occ",
				"energy": -0.26772,
				"method": "rhf"
			},
			{
				"type": "occ",
				"energy": -0.26059,
				"method": "rhf"
			},
			{
				"type": "occ",
				"energy": -0.25295,
				"method": "rhf"
			},
			{
				"type": "occ",
				"energy": -0.22268,
				"method": "rhf"
			},
			{
				"type": "occ",
				"energy": -0.21376,
				"method": "rhf"
			},
			{
				"type": "unocc",
				"energy": -0.03993,
				"method": "rhf"
			},
			{
				"type": "unocc",
				"energy": -0.02104,
				"method": "rhf"
			},
			{
				"type": "unocc",
				"energy": -0.01604,
				"method": "rhf"
			},
			{
				"type": "unocc",
				"energy": 0.01534,
				"method": "rhf"
			},
			{
				"type": "unocc",
				"energy": 0.05715,
				"method": "rhf"
			}
		],
		"cosmo_sigma_profile": { 
			"-0.025": 0.0,
			"-0.024": 0.0,
			"-0.023": 0.0,
			"-0.022": 0.0,
			"-0.021": 0.0,
			"-0.02": 0.0,
			"-0.019": 0.0,
			"-0.018": 0.0,
			"-0.017": 0.525401112771,
			"-0.016": 0.9010589823,
			"-0.015": 1.12744066259,
			"-0.014": 0.846857187194,
			"-0.013": 1.05651069903,
			"-0.012": 0.968632927842,
			"-0.011": 1.7604903875,
			"-0.01": 3.55863004174,
			"-0.009": 2.79191866312,
			"-0.008": 3.95058047577,
			"-0.007": 6.83265839029,
			"-0.006": 13.7162065256,
			"-0.005": 19.1444942099,
			"-0.004": 26.7021432956,
			"-0.003": 24.6385637266,
			"-0.002": 20.3360033331,
			"-0.001": 21.2740407969,
			"0.0": 22.0369280186,
			"0.001": 20.3476082369,
			"0.002": 20.0596396786,
			"0.003": 18.1798178627,
			"0.004": 15.550153984,
			"0.005": 15.3419995076,
			"0.006": 14.9961604659,
			"0.007": 7.73301389231,
			"0.008": 3.8254345497,
			"0.009": 3.92887773036,
			"0.01": 3.07186337213,
			"0.011": 3.48247588894,
			"0.012": 3.47915880631,
			"0.013": 3.12431273832,
			"0.014": 2.3755800119,
			"0.015": 0.630569027927,
			"0.016": 0.0,
			"0.017": 0.0,
			"0.018": 0.0,
			"0.019": 0.0,
			"0.02": 0.0,
			"0.021": 0.0,
			"0.022": 0.0,
			"0.023": 0.0,
			"0.024": 0.0,
			"0.025": 0.0
		}
	}
}
