{
	 "smiles": "CN(C)C1=C(C#N)C(F)=C(C=O)C=C1", 
	 "Tm": 399.15, 
	 "num_atms": 23, 
	 "gaussian": { 
		 "optdone": 1, 
		 "sigma_profile": "yes", 
		 "theory": "DFT", 
		 "functional": "B3LYP", 
		 "basiset": "6-31G**", 
		 "properties": { 
			 "R2extent": 3029.1548, 
			 "electric_dipole_moment_norm": 8.14876434498, 
			 "electric_quadrupole_moment_norm": 8.41725932653, 
			 "total_energy": -671.009084584, 
			 "HOMO_LUMO_gap": 0.16318, 
			 "cosmo_polarized_energy": -16.98, 
			 "cosmo_cavitation_energy": 28.23, 
			 "cosmo_dispersion_energy": -19.74, 
			 "cosmo_repulsion_energy": 1.51, 
			 "cosmo_total_nonelectrostatic_energy": 10.0, 
			 "SMD_solvation_energy": 7.04 
		},
		"coords": [
			{
				"x": 1.2783243866,
				"y": -2.6163419584,
				"z": -2.498569684,
				"element": "C" 
			},
			{
				"x": 1.1446229852,
				"y": -2.3068894478,
				"z": -1.0811204881,
				"element": "N" 
			},
			{
				"x": 1.9965063942,
				"y": -3.1034724762,
				"z": -0.1954259136,
				"element": "C" 
			},
			{
				"x": 0.5051159355,
				"y": -1.1617099449,
				"z": -0.6806016907,
				"element": "C" 
			},
			{
				"x": 0.0289276084,
				"y": -0.9784403164,
				"z": 0.6598811997,
				"element": "C" 
			},
			{
				"x": 0.0226119915,
				"y": -2.0222298574,
				"z": 1.6351358759,
				"element": "C" 
			},
			{
				"x": -0.0141784324,
				"y": -2.8772933574,
				"z": 2.4239773021,
				"element": "N" 
			},
			{
				"x": -0.5793750925,
				"y": 0.2322150459,
				"z": 1.0213378521,
				"element": "C" 
			},
			{
				"x": -1.0006306607,
				"y": 0.3436232742,
				"z": 2.2803529782,
				"element": "F" 
			},
			{
				"x": -0.7870005154,
				"y": 1.2817126786,
				"z": 0.1204378517,
				"element": "C" 
			},
			{
				"x": -1.4175103519,
				"y": 2.5663098651,
				"z": 0.4747894579,
				"element": "C" 
			},
			{
				"x": -1.8215898979,
				"y": 2.8982315644,
				"z": 1.5715808181,
				"element": "O" 
			},
			{
				"x": -0.3586711078,
				"y": 1.0592376341,
				"z": -1.2006932238,
				"element": "C" 
			},
			{
				"x": 0.2613853644,
				"y": -0.1087677785,
				"z": -1.5995652295,
				"element": "C" 
			},
			{
				"x": 2.1293279238,
				"y": -2.1012966108,
				"z": -2.9692093899,
				"element": "H" 
			},
			{
				"x": 0.365206464,
				"y": -2.3557722412,
				"z": -3.0377901913,
				"element": "H" 
			},
			{
				"x": 1.4320306776,
				"y": -3.6929882702,
				"z": -2.6055720163,
				"element": "H" 
			},
			{
				"x": 2.9314609609,
				"y": -3.3278675559,
				"z": -0.7204325999,
				"element": "H" 
			},
			{
				"x": 1.5233972801,
				"y": -4.0457190738,
				"z": 0.1002662033,
				"element": "H" 
			},
			{
				"x": 2.2477330196,
				"y": -2.5474006757,
				"z": 0.7063935648,
				"element": "H" 
			},
			{
				"x": -1.4990947776,
				"y": 3.2565833129,
				"z": -0.396995613,
				"element": "H" 
			},
			{
				"x": -0.5042132302,
				"y": 1.8552117503,
				"z": -1.9273967012,
				"element": "H" 
			},
			{
				"x": 0.6086130747,
				"y": -0.199035561,
				"z": -2.6203803624,
				"element": "H" 
			}
		],
		 "valence_orbital": [ 
			{
				"type": "occ",
				"energy": -0.33228,
				"method": "rhf"
			},
			{
				"type": "occ",
				"energy": -0.31081,
				"method": "rhf"
			},
			{
				"type": "occ",
				"energy": -0.26868,
				"method": "rhf"
			},
			{
				"type": "occ",
				"energy": -0.25226,
				"method": "rhf"
			},
			{
				"type": "occ",
				"energy": -0.22787,
				"method": "rhf"
			},
			{
				"type": "unocc",
				"energy": -0.06469,
				"method": "rhf"
			},
			{
				"type": "unocc",
				"energy": -0.04969,
				"method": "rhf"
			},
			{
				"type": "unocc",
				"energy": 0.02156,
				"method": "rhf"
			},
			{
				"type": "unocc",
				"energy": 0.02641,
				"method": "rhf"
			},
			{
				"type": "unocc",
				"energy": 0.06873,
				"method": "rhf"
			}
		],
		"cosmo_sigma_profile": { 
			"-0.025": 0.0,
			"-0.024": 0.0,
			"-0.023": 0.0,
			"-0.022": 0.0,
			"-0.021": 0.0,
			"-0.02": 0.0,
			"-0.019": 0.0,
			"-0.018": 0.0,
			"-0.017": 0.0,
			"-0.016": 0.0,
			"-0.015": 0.0,
			"-0.014": 0.0,
			"-0.013": 0.0,
			"-0.012": 0.0,
			"-0.011": 0.0,
			"-0.01": 0.0,
			"-0.009": 0.616275201411,
			"-0.008": 3.86687319556,
			"-0.007": 7.67158890745,
			"-0.006": 16.7908157185,
			"-0.005": 20.7174658002,
			"-0.004": 18.8439357031,
			"-0.003": 23.0117228099,
			"-0.002": 20.0611298445,
			"-0.001": 18.932991527,
			"0.0": 13.9189595683,
			"0.001": 10.2562505809,
			"0.002": 11.456831033,
			"0.003": 9.86370765826,
			"0.004": 5.5254191763,
			"0.005": 4.75311481207,
			"0.006": 3.85841718777,
			"0.007": 4.48635728785,
			"0.008": 4.24095799252,
			"0.009": 5.54275205831,
			"0.01": 5.40639901288,
			"0.011": 6.8776979115,
			"0.012": 6.74564576104,
			"0.013": 2.87594609163,
			"0.014": 0.130782798131,
			"0.015": 0.0,
			"0.016": 0.0,
			"0.017": 0.0,
			"0.018": 0.0,
			"0.019": 0.0,
			"0.02": 0.0,
			"0.021": 0.0,
			"0.022": 0.0,
			"0.023": 0.0,
			"0.024": 0.0,
			"0.025": 0.0
		}
	}
}
