{
	 "smiles": "CN1C=C(C=NNC(N)=S)C=N1", 
	 "Tm": 463.15, 
	 "num_atms": 21, 
	 "gaussian": { 
		 "optdone": 1, 
		 "sigma_profile": "yes", 
		 "theory": "DFT", 
		 "functional": "B3LYP", 
		 "basiset": "6-31G**", 
		 "properties": { 
			 "R2extent": 3884.0813, 
			 "electric_dipole_moment_norm": 7.84971485724, 
			 "electric_quadrupole_moment_norm": 19.1787492243, 
			 "total_energy": -905.94893667, 
			 "HOMO_LUMO_gap": 0.15492, 
			 "cosmo_polarized_energy": -30.72, 
			 "cosmo_cavitation_energy": 27.89, 
			 "cosmo_dispersion_energy": -20.64, 
			 "cosmo_repulsion_energy": 1.63, 
			 "cosmo_total_nonelectrostatic_energy": 8.87, 
			 "SMD_solvation_energy": 3.18 
		},
		"coords": [
			{
				"x": -0.372555226,
				"y": -4.4956868988,
				"z": -1.3658092931,
				"element": "C" 
			},
			{
				"x": -0.1813930338,
				"y": -3.6574538474,
				"z": -0.195368899,
				"element": "N" 
			},
			{
				"x": -0.7481366336,
				"y": -2.4557708931,
				"z": 0.0747051201,
				"element": "C" 
			},
			{
				"x": -0.2775380888,
				"y": -2.0522924236,
				"z": 1.3265837307,
				"element": "C" 
			},
			{
				"x": -0.5827190451,
				"y": -0.8847303525,
				"z": 2.1493014437,
				"element": "C" 
			},
			{
				"x": -0.9937168022,
				"y": 0.2907222845,
				"z": 1.8196407859,
				"element": "N" 
			},
			{
				"x": -1.157450584,
				"y": 0.5608965779,
				"z": 0.4928723911,
				"element": "N" 
			},
			{
				"x": -1.5065754041,
				"y": 1.8309730904,
				"z": 0.0703138581,
				"element": "C" 
			},
			{
				"x": -1.4522722466,
				"y": 1.9385649983,
				"z": -1.3002822304,
				"element": "N" 
			},
			{
				"x": -1.9314458159,
				"y": 3.1041204836,
				"z": 1.0479353831,
				"element": "S" 
			},
			{
				"x": 0.5798033564,
				"y": -3.1201566681,
				"z": 1.7112010618,
				"element": "C" 
			},
			{
				"x": 0.6394979006,
				"y": -4.0771396053,
				"z": 0.793185344,
				"element": "N" 
			},
			{
				"x": -0.789374308,
				"y": -5.4612735731,
				"z": -1.0693951568,
				"element": "H" 
			},
			{
				"x": 0.5844027186,
				"y": -4.6600606147,
				"z": -1.8670235176,
				"element": "H" 
			},
			{
				"x": -1.0609661171,
				"y": -3.9981334645,
				"z": -2.0505449772,
				"element": "H" 
			},
			{
				"x": -1.4779996535,
				"y": -2.0212027389,
				"z": -0.59209591,
				"element": "H" 
			},
			{
				"x": -0.4294020988,
				"y": -1.0067515159,
				"z": 3.2202187651,
				"element": "H" 
			},
			{
				"x": -0.6465133363,
				"y": -0.0186712422,
				"z": -0.1716435583,
				"element": "H" 
			},
			{
				"x": -1.846978265,
				"y": 2.794524599,
				"z": -1.6611931922,
				"element": "H" 
			},
			{
				"x": -1.609361173,
				"y": 1.1148692194,
				"z": -1.8675926711,
				"element": "H" 
			},
			{
				"x": 1.1553938561,
				"y": -3.2084474149,
				"z": 2.6233915219,
				"element": "H" 
			}
		],
		 "valence_orbital": [ 
			{
				"type": "occ",
				"energy": -0.28331,
				"method": "rhf"
			},
			{
				"type": "occ",
				"energy": -0.2755,
				"method": "rhf"
			},
			{
				"type": "occ",
				"energy": -0.23882,
				"method": "rhf"
			},
			{
				"type": "occ",
				"energy": -0.21353,
				"method": "rhf"
			},
			{
				"type": "occ",
				"energy": -0.19781,
				"method": "rhf"
			},
			{
				"type": "unocc",
				"energy": -0.04289,
				"method": "rhf"
			},
			{
				"type": "unocc",
				"energy": -0.0047,
				"method": "rhf"
			},
			{
				"type": "unocc",
				"energy": 0.00672,
				"method": "rhf"
			},
			{
				"type": "unocc",
				"energy": 0.04654,
				"method": "rhf"
			},
			{
				"type": "unocc",
				"energy": 0.07744,
				"method": "rhf"
			}
		],
		"cosmo_sigma_profile": { 
			"-0.025": 0.0,
			"-0.024": 0.0,
			"-0.023": 0.0,
			"-0.022": 0.0,
			"-0.021": 0.0,
			"-0.02": 0.0,
			"-0.019": 0.0,
			"-0.018": 0.238456948333,
			"-0.017": 0.815883411819,
			"-0.016": 1.28544237298,
			"-0.015": 2.20950382202,
			"-0.014": 2.90807371426,
			"-0.013": 3.36758672863,
			"-0.012": 3.14756467346,
			"-0.011": 4.3707712491,
			"-0.01": 5.58006475197,
			"-0.009": 3.62367528467,
			"-0.008": 5.90084647345,
			"-0.007": 12.6189130458,
			"-0.006": 11.4225900513,
			"-0.005": 12.3592867508,
			"-0.004": 12.7541408616,
			"-0.003": 13.638563756,
			"-0.002": 7.62502130442,
			"-0.001": 8.87062839324,
			"0.0": 8.45507020172,
			"0.001": 10.5765325103,
			"0.002": 10.4602013576,
			"0.003": 10.0219143347,
			"0.004": 7.45335898542,
			"0.005": 7.52349737506,
			"0.006": 7.08107097564,
			"0.007": 6.16862473362,
			"0.008": 6.22596259928,
			"0.009": 7.92301788067,
			"0.01": 8.49097264949,
			"0.011": 6.80073152128,
			"0.012": 5.03836770156,
			"0.013": 2.39531690333,
			"0.014": 2.3678643571,
			"0.015": 1.95726191037,
			"0.016": 1.42574266955,
			"0.017": 1.01021913482,
			"0.018": 0.857222773711,
			"0.019": 0.200872316992,
			"0.02": 0.0,
			"0.021": 0.0,
			"0.022": 0.0,
			"0.023": 0.0,
			"0.024": 0.0,
			"0.025": 0.0
		}
	}
}
