{
	 "smiles": "COC(=O)C(=C)NC(C)=O", 
	 "Tm": 323.15, 
	 "num_atms": 19, 
	 "gaussian": { 
		 "optdone": 1, 
		 "sigma_profile": "yes", 
		 "theory": "DFT", 
		 "functional": "B3LYP", 
		 "basiset": "6-31G**", 
		 "properties": { 
			 "R2extent": 1885.3168, 
			 "electric_dipole_moment_norm": 4.77025979796, 
			 "electric_quadrupole_moment_norm": 12.5775127605, 
			 "total_energy": -514.481227781, 
			 "HOMO_LUMO_gap": 0.18633, 
			 "cosmo_polarized_energy": -13.57, 
			 "cosmo_cavitation_energy": 23.61, 
			 "cosmo_dispersion_energy": -16.66, 
			 "cosmo_repulsion_energy": 1.38, 
			 "cosmo_total_nonelectrostatic_energy": 8.32, 
			 "SMD_solvation_energy": 7.36 
		},
		"coords": [
			{
				"x": -1.6150591207,
				"y": 1.929782324,
				"z": -0.0007309975,
				"element": "C" 
			},
			{
				"x": -0.7340342412,
				"y": 0.9870579702,
				"z": 0.6335083816,
				"element": "O" 
			},
			{
				"x": -0.5504589236,
				"y": -0.1670241649,
				"z": -0.0402859019,
				"element": "C" 
			},
			{
				"x": -1.0458251324,
				"y": -0.3985666936,
				"z": -1.1235814875,
				"element": "O" 
			},
			{
				"x": 0.3199575188,
				"y": -1.1301336529,
				"z": 0.7181875502,
				"element": "C" 
			},
			{
				"x": 0.5143525164,
				"y": -0.9942813705,
				"z": 2.0396372479,
				"element": "C" 
			},
			{
				"x": 0.7659663828,
				"y": -2.2647308253,
				"z": 0.0154517519,
				"element": "N" 
			},
			{
				"x": 1.4395249933,
				"y": -2.3716144805,
				"z": -1.1967489896,
				"element": "C" 
			},
			{
				"x": 1.7913965012,
				"y": -1.0987596423,
				"z": -1.9378109318,
				"element": "C" 
			},
			{
				"x": 1.7444863678,
				"y": -3.4795125959,
				"z": -1.6084592777,
				"element": "O" 
			},
			{
				"x": -1.2294073265,
				"y": 2.2131328938,
				"z": -0.982934879,
				"element": "H" 
			},
			{
				"x": -2.6130382688,
				"y": 1.5017620923,
				"z": -0.123638187,
				"element": "H" 
			},
			{
				"x": -1.6465158865,
				"y": 2.7930648288,
				"z": 0.6633818904,
				"element": "H" 
			},
			{
				"x": 0.0623006263,
				"y": -0.1764516278,
				"z": 2.5842844333,
				"element": "H" 
			},
			{
				"x": 1.1035663455,
				"y": -1.7173601526,
				"z": 2.594668894,
				"element": "H" 
			},
			{
				"x": 0.6931419141,
				"y": -3.1576551193,
				"z": 0.4863400279,
				"element": "H" 
			},
			{
				"x": 0.9345160808,
				"y": -0.770256337,
				"z": -2.5308760221,
				"element": "H" 
			},
			{
				"x": 2.6244100014,
				"y": -1.3248367661,
				"z": -2.6037202921,
				"element": "H" 
			},
			{
				"x": 2.0684196512,
				"y": -0.2835166804,
				"z": -1.2627732111,
				"element": "H" 
			}
		],
		 "valence_orbital": [ 
			{
				"type": "occ",
				"energy": -0.31693,
				"method": "rhf"
			},
			{
				"type": "occ",
				"energy": -0.31438,
				"method": "rhf"
			},
			{
				"type": "occ",
				"energy": -0.28802,
				"method": "rhf"
			},
			{
				"type": "occ",
				"energy": -0.25156,
				"method": "rhf"
			},
			{
				"type": "occ",
				"energy": -0.24397,
				"method": "rhf"
			},
			{
				"type": "unocc",
				"energy": -0.05764,
				"method": "rhf"
			},
			{
				"type": "unocc",
				"energy": 0.02531,
				"method": "rhf"
			},
			{
				"type": "unocc",
				"energy": 0.0674,
				"method": "rhf"
			},
			{
				"type": "unocc",
				"energy": 0.09762,
				"method": "rhf"
			},
			{
				"type": "unocc",
				"energy": 0.10315,
				"method": "rhf"
			}
		],
		"cosmo_sigma_profile": { 
			"-0.025": 0.0,
			"-0.024": 0.0,
			"-0.023": 0.0,
			"-0.022": 0.0,
			"-0.021": 0.0,
			"-0.02": 0.0,
			"-0.019": 0.0,
			"-0.018": 0.0,
			"-0.017": 0.0,
			"-0.016": 0.0,
			"-0.015": 0.132299158104,
			"-0.014": 0.885306906493,
			"-0.013": 1.26296601945,
			"-0.012": 0.710327126327,
			"-0.011": 1.02156374998,
			"-0.01": 1.17947310276,
			"-0.009": 0.880744908727,
			"-0.008": 2.21996083054,
			"-0.007": 5.01933365908,
			"-0.006": 11.2296704666,
			"-0.005": 14.3991454722,
			"-0.004": 17.2359291276,
			"-0.003": 19.9033491496,
			"-0.002": 17.2546581708,
			"-0.001": 14.7387398808,
			"0.0": 11.1374952098,
			"0.001": 9.07011334576,
			"0.002": 8.1317618773,
			"0.003": 6.36075248791,
			"0.004": 4.79449990198,
			"0.005": 4.60055622053,
			"0.006": 3.15820506636,
			"0.007": 4.51689312513,
			"0.008": 3.14740640068,
			"0.009": 2.64115186142,
			"0.01": 3.5915186243,
			"0.011": 4.80285610652,
			"0.012": 3.98663303467,
			"0.013": 5.68888617532,
			"0.014": 2.80417603094,
			"0.015": 0.318464998194,
			"0.016": 0.0,
			"0.017": 0.0,
			"0.018": 0.0,
			"0.019": 0.0,
			"0.02": 0.0,
			"0.021": 0.0,
			"0.022": 0.0,
			"0.023": 0.0,
			"0.024": 0.0,
			"0.025": 0.0
		}
	}
}
