{
	 "smiles": "CCC1C(=O)CCC1=O", 
	 "Tm": 447.15, 
	 "num_atms": 19, 
	 "gaussian": { 
		 "optdone": 1, 
		 "sigma_profile": "yes", 
		 "theory": "DFT", 
		 "functional": "B3LYP", 
		 "basiset": "6-31G**", 
		 "properties": { 
			 "R2extent": 1306.1679, 
			 "electric_dipole_moment_norm": 1.90312586552, 
			 "electric_quadrupole_moment_norm": 13.7361164217, 
			 "total_energy": -423.218724539, 
			 "HOMO_LUMO_gap": 0.19769, 
			 "cosmo_polarized_energy": -11.18, 
			 "cosmo_cavitation_energy": 21.84, 
			 "cosmo_dispersion_energy": -15.8, 
			 "cosmo_repulsion_energy": 1.33, 
			 "cosmo_total_nonelectrostatic_energy": 7.37, 
			 "SMD_solvation_energy": 4.75 
		},
		"coords": [
			{
				"x": -2.0566259307,
				"y": -0.2642394886,
				"z": -0.3122606888,
				"element": "C" 
			},
			{
				"x": -0.8082965035,
				"y": -0.90300735,
				"z": 0.3068711741,
				"element": "C" 
			},
			{
				"x": 0.5057241315,
				"y": -0.2526177912,
				"z": -0.1409688323,
				"element": "C" 
			},
			{
				"x": 0.6978476633,
				"y": 1.2217342693,
				"z": 0.2163491322,
				"element": "C" 
			},
			{
				"x": 0.2500213061,
				"y": 1.7710885607,
				"z": 1.1983227591,
				"element": "O" 
			},
			{
				"x": 1.5361447177,
				"y": 1.9129243428,
				"z": -0.8705352035,
				"element": "C" 
			},
			{
				"x": 1.6902421289,
				"y": 0.8961430901,
				"z": -2.0180882436,
				"element": "C" 
			},
			{
				"x": 0.8362700608,
				"y": -0.3202789938,
				"z": -1.6318169391,
				"element": "C" 
			},
			{
				"x": 0.4785318242,
				"y": -1.1902138675,
				"z": -2.3946145615,
				"element": "O" 
			},
			{
				"x": -2.0411713738,
				"y": -0.3424700448,
				"z": -1.4036787919,
				"element": "H" 
			},
			{
				"x": -2.9601676606,
				"y": -0.7689648654,
				"z": 0.0430299289,
				"element": "H" 
			},
			{
				"x": -2.1385096008,
				"y": 0.7920603543,
				"z": -0.0376263274,
				"element": "H" 
			},
			{
				"x": -0.8610880906,
				"y": -0.8374998556,
				"z": 1.3986029549,
				"element": "H" 
			},
			{
				"x": -0.7657113458,
				"y": -1.964782754,
				"z": 0.0426363716,
				"element": "H" 
			},
			{
				"x": 1.3481647181,
				"y": -0.7703280599,
				"z": 0.354101248,
				"element": "H" 
			},
			{
				"x": 2.49188906,
				"y": 2.2259347008,
				"z": -0.4366154407,
				"element": "H" 
			},
			{
				"x": 1.0181121463,
				"y": 2.8289837899,
				"z": -1.1716363864,
				"element": "H" 
			},
			{
				"x": 1.365940371,
				"y": 1.2688660758,
				"z": -2.993403232,
				"element": "H" 
			},
			{
				"x": 2.7265823779,
				"y": 0.5589678871,
				"z": -2.1400689217,
				"element": "H" 
			}
		],
		 "valence_orbital": [ 
			{
				"type": "occ",
				"energy": -0.35142,
				"method": "rhf"
			},
			{
				"type": "occ",
				"energy": -0.34269,
				"method": "rhf"
			},
			{
				"type": "occ",
				"energy": -0.34207,
				"method": "rhf"
			},
			{
				"type": "occ",
				"energy": -0.26773,
				"method": "rhf"
			},
			{
				"type": "occ",
				"energy": -0.24055,
				"method": "rhf"
			},
			{
				"type": "unocc",
				"energy": -0.04286,
				"method": "rhf"
			},
			{
				"type": "unocc",
				"energy": -0.01281,
				"method": "rhf"
			},
			{
				"type": "unocc",
				"energy": 0.08059,
				"method": "rhf"
			},
			{
				"type": "unocc",
				"energy": 0.10326,
				"method": "rhf"
			},
			{
				"type": "unocc",
				"energy": 0.12301,
				"method": "rhf"
			}
		],
		"cosmo_sigma_profile": { 
			"-0.025": 0.0,
			"-0.024": 0.0,
			"-0.023": 0.0,
			"-0.022": 0.0,
			"-0.021": 0.0,
			"-0.02": 0.0,
			"-0.019": 0.0,
			"-0.018": 0.0,
			"-0.017": 0.0,
			"-0.016": 0.0,
			"-0.015": 0.0,
			"-0.014": 0.0,
			"-0.013": 0.0,
			"-0.012": 0.0,
			"-0.011": 0.0575787072691,
			"-0.01": 1.39100706348,
			"-0.009": 2.7105305436,
			"-0.008": 4.15958397162,
			"-0.007": 6.13256907448,
			"-0.006": 14.1644625068,
			"-0.005": 11.5740222092,
			"-0.004": 10.5826055052,
			"-0.003": 15.1904565776,
			"-0.002": 16.8780565812,
			"-0.001": 16.2846943765,
			"0.0": 12.4912567098,
			"0.001": 9.03606782756,
			"0.002": 5.86089180893,
			"0.003": 3.07905903855,
			"0.004": 3.23322729051,
			"0.005": 4.1733364905,
			"0.006": 3.44429232976,
			"0.007": 2.78689160179,
			"0.008": 2.91383224836,
			"0.009": 4.04278276474,
			"0.01": 4.3565550258,
			"0.011": 7.48809327187,
			"0.012": 7.4638803576,
			"0.013": 1.34888443128,
			"0.014": 0.0,
			"0.015": 0.0,
			"0.016": 0.0,
			"0.017": 0.0,
			"0.018": 0.0,
			"0.019": 0.0,
			"0.02": 0.0,
			"0.021": 0.0,
			"0.022": 0.0,
			"0.023": 0.0,
			"0.024": 0.0,
			"0.025": 0.0
		}
	}
}
