{
	 "smiles": "OC(CN(=O)=O)C(Cl)(Cl)Cl", 
	 "Tm": 318.65, 
	 "num_atms": 14, 
	 "gaussian": { 
		 "optdone": 1, 
		 "sigma_profile": "yes", 
		 "theory": "DFT", 
		 "functional": "B3LYP", 
		 "basiset": "6-31G**", 
		 "properties": { 
			 "R2extent": 2333.2114, 
			 "electric_dipole_moment_norm": 2.74428423091, 
			 "electric_quadrupole_moment_norm": 9.36523252568, 
			 "total_energy": -1777.60194623, 
			 "HOMO_LUMO_gap": 0.2123, 
			 "cosmo_polarized_energy": -10.79, 
			 "cosmo_cavitation_energy": 23.15, 
			 "cosmo_dispersion_energy": -17.07, 
			 "cosmo_repulsion_energy": 1.37, 
			 "cosmo_total_nonelectrostatic_energy": 7.46, 
			 "SMD_solvation_energy": 5.03 
		},
		"coords": [
			{
				"x": 1.1898649888,
				"y": 0.7313722487,
				"z": 0.0489520053,
				"element": "O" 
			},
			{
				"x": -0.057317058,
				"y": 0.9664975651,
				"z": 0.61335826,
				"element": "C" 
			},
			{
				"x": -0.3085732151,
				"y": 0.1439482492,
				"z": 1.8948565896,
				"element": "C" 
			},
			{
				"x": -0.1308400084,
				"y": -1.3491785519,
				"z": 1.75094539,
				"element": "N" 
			},
			{
				"x": 0.8632351171,
				"y": -1.7475384141,
				"z": 1.1326220144,
				"element": "O" 
			},
			{
				"x": -0.9481089735,
				"y": -2.0664770357,
				"z": 2.3004918048,
				"element": "O" 
			},
			{
				"x": -1.2029346185,
				"y": 0.8855391158,
				"z": -0.4573493582,
				"element": "C" 
			},
			{
				"x": -2.7676531388,
				"y": 1.3921380362,
				"z": 0.2994898664,
				"element": "Cl" 
			},
			{
				"x": -0.8148090805,
				"y": 2.0234042863,
				"z": -1.7873684494,
				"element": "Cl" 
			},
			{
				"x": -1.3745077247,
				"y": -0.771484553,
				"z": -1.1259769543,
				"element": "Cl" 
			},
			{
				"x": 1.3656802284,
				"y": -0.2252955952,
				"z": 0.1103501396,
				"element": "H" 
			},
			{
				"x": -0.0847309895,
				"y": 2.0141627117,
				"z": 0.9380776664,
				"element": "H" 
			},
			{
				"x": 0.4494887097,
				"y": 0.4382708271,
				"z": 2.6252111448,
				"element": "H" 
			},
			{
				"x": -1.302494237,
				"y": 0.2913411098,
				"z": 2.3088398806,
				"element": "H" 
			}
		],
		 "valence_orbital": [ 
			{
				"type": "occ",
				"energy": -0.3296,
				"method": "rhf"
			},
			{
				"type": "occ",
				"energy": -0.32494,
				"method": "rhf"
			},
			{
				"type": "occ",
				"energy": -0.32404,
				"method": "rhf"
			},
			{
				"type": "occ",
				"energy": -0.31728,
				"method": "rhf"
			},
			{
				"type": "occ",
				"energy": -0.30907,
				"method": "rhf"
			},
			{
				"type": "unocc",
				"energy": -0.09677,
				"method": "rhf"
			},
			{
				"type": "unocc",
				"energy": -0.05143,
				"method": "rhf"
			},
			{
				"type": "unocc",
				"energy": -0.01297,
				"method": "rhf"
			},
			{
				"type": "unocc",
				"energy": -0.00673,
				"method": "rhf"
			},
			{
				"type": "unocc",
				"energy": 0.06228,
				"method": "rhf"
			}
		],
		"cosmo_sigma_profile": { 
			"-0.025": 0.0,
			"-0.024": 0.0,
			"-0.023": 0.0,
			"-0.022": 0.0,
			"-0.021": 0.0,
			"-0.02": 0.0,
			"-0.019": 0.0,
			"-0.018": 0.0,
			"-0.017": 0.0,
			"-0.016": 0.0,
			"-0.015": 0.0,
			"-0.014": 0.0,
			"-0.013": 0.207791096902,
			"-0.012": 1.63429418739,
			"-0.011": 4.64546016287,
			"-0.01": 4.05204078877,
			"-0.009": 5.79249528372,
			"-0.008": 6.56243679445,
			"-0.007": 5.43186624857,
			"-0.006": 4.70772914104,
			"-0.005": 5.48252014487,
			"-0.004": 6.74509158985,
			"-0.003": 9.08051807817,
			"-0.002": 8.88521345543,
			"-0.001": 14.0908769375,
			"0.0": 12.0769603077,
			"0.001": 14.951492503,
			"0.002": 23.0456827793,
			"0.003": 23.3693777405,
			"0.004": 6.12672343191,
			"0.005": 5.16071291986,
			"0.006": 8.14945486612,
			"0.007": 8.06344821792,
			"0.008": 4.90878252018,
			"0.009": 2.81882265153,
			"0.01": 1.40000957227,
			"0.011": 1.86012751694,
			"0.012": 0.913144018279,
			"0.013": 0.0,
			"0.014": 0.0,
			"0.015": 0.0,
			"0.016": 0.0,
			"0.017": 0.0,
			"0.018": 0.0,
			"0.019": 0.0,
			"0.02": 0.0,
			"0.021": 0.0,
			"0.022": 0.0,
			"0.023": 0.0,
			"0.024": 0.0,
			"0.025": 0.0
		}
	}
}
