{
	 "smiles": "COC1=C(CC(O)=O)C=C(Br)C=C1", 
	 "Tm": 406.15, 
	 "num_atms": 22, 
	 "gaussian": { 
		 "optdone": 1, 
		 "sigma_profile": "yes", 
		 "theory": "DFT", 
		 "functional": "B3LYP", 
		 "basiset": "6-31G**", 
		 "properties": { 
			 "R2extent": 6038.5345, 
			 "electric_dipole_moment_norm": 4.51643362068, 
			 "electric_quadrupole_moment_norm": 13.7029761961, 
			 "total_energy": -3145.4566237, 
			 "HOMO_LUMO_gap": 0.19991, 
			 "cosmo_polarized_energy": -15.34, 
			 "cosmo_cavitation_energy": 28.73, 
			 "cosmo_dispersion_energy": -20.76, 
			 "cosmo_repulsion_energy": 1.67, 
			 "cosmo_total_nonelectrostatic_energy": 9.64, 
			 "SMD_solvation_energy": 5.6 
		},
		"coords": [
			{
				"x": -1.5712128128,
				"y": 2.0139501991,
				"z": -0.1714295985,
				"element": "C" 
			},
			{
				"x": -0.6494481279,
				"y": 1.2724515755,
				"z": -0.9613167836,
				"element": "O" 
			},
			{
				"x": -0.8883255331,
				"y": -0.0475337283,
				"z": -1.1836138739,
				"element": "C" 
			},
			{
				"x": 0.0997186579,
				"y": -0.7147499363,
				"z": -1.9454110531,
				"element": "C" 
			},
			{
				"x": 1.3017468355,
				"y": 0.0521486257,
				"z": -2.4426593715,
				"element": "C" 
			},
			{
				"x": 2.3126988628,
				"y": 0.474844443,
				"z": -1.3638265581,
				"element": "C" 
			},
			{
				"x": 2.3662039242,
				"y": -0.3043892618,
				"z": -0.2565992814,
				"element": "O" 
			},
			{
				"x": 3.0590994677,
				"y": 1.4103794807,
				"z": -1.4980702112,
				"element": "O" 
			},
			{
				"x": -0.0655558374,
				"y": -2.0754351667,
				"z": -2.2131100668,
				"element": "C" 
			},
			{
				"x": -1.1851876596,
				"y": -2.763035436,
				"z": -1.7400175777,
				"element": "C" 
			},
			{
				"x": -1.3800698515,
				"y": -4.6236462795,
				"z": -2.1259488046,
				"element": "Br" 
			},
			{
				"x": -2.155631135,
				"y": -2.1041052674,
				"z": -0.9951726647,
				"element": "C" 
			},
			{
				"x": -2.0074326922,
				"y": -0.7426650955,
				"z": -0.7157130686,
				"element": "C" 
			},
			{
				"x": -1.1678625526,
				"y": 3.0251718906,
				"z": -0.1146917232,
				"element": "H" 
			},
			{
				"x": -2.5640015579,
				"y": 2.0431197963,
				"z": -0.6368897603,
				"element": "H" 
			},
			{
				"x": -1.6549742441,
				"y": 1.5987694725,
				"z": 0.840194534,
				"element": "H" 
			},
			{
				"x": 1.0046262723,
				"y": 0.972067971,
				"z": -2.9507833793,
				"element": "H" 
			},
			{
				"x": 1.8543616011,
				"y": -0.5558574837,
				"z": -3.1684761388,
				"element": "H" 
			},
			{
				"x": 1.6807237888,
				"y": -0.9890953534,
				"z": -0.309890776,
				"element": "H" 
			},
			{
				"x": 0.6798971812,
				"y": -2.5997632927,
				"z": -2.8022367545,
				"element": "H" 
			},
			{
				"x": -3.0239478297,
				"y": -2.6408863431,
				"z": -0.6305466651,
				"element": "H" 
			},
			{
				"x": -2.7700267574,
				"y": -0.2394408101,
				"z": -0.133790423,
				"element": "H" 
			}
		],
		 "valence_orbital": [ 
			{
				"type": "occ",
				"energy": -0.30346,
				"method": "rhf"
			},
			{
				"type": "occ",
				"energy": -0.29551,
				"method": "rhf"
			},
			{
				"type": "occ",
				"energy": -0.28571,
				"method": "rhf"
			},
			{
				"type": "occ",
				"energy": -0.25984,
				"method": "rhf"
			},
			{
				"type": "occ",
				"energy": -0.23378,
				"method": "rhf"
			},
			{
				"type": "unocc",
				"energy": -0.03387,
				"method": "rhf"
			},
			{
				"type": "unocc",
				"energy": -0.01869,
				"method": "rhf"
			},
			{
				"type": "unocc",
				"energy": -0.00229,
				"method": "rhf"
			},
			{
				"type": "unocc",
				"energy": 0.01915,
				"method": "rhf"
			},
			{
				"type": "unocc",
				"energy": 0.07916,
				"method": "rhf"
			}
		],
		"cosmo_sigma_profile": { 
			"-0.025": 0.0,
			"-0.024": 0.0,
			"-0.023": 0.0,
			"-0.022": 0.0,
			"-0.021": 0.0,
			"-0.02": 0.0,
			"-0.019": 0.0,
			"-0.018": 0.0,
			"-0.017": 0.0,
			"-0.016": 0.0,
			"-0.015": 0.420173304306,
			"-0.014": 0.567147802051,
			"-0.013": 0.481757699046,
			"-0.012": 0.885467280503,
			"-0.011": 1.92650400778,
			"-0.01": 1.1555360403,
			"-0.009": 2.04450435244,
			"-0.008": 6.48626578788,
			"-0.007": 10.6668712291,
			"-0.006": 15.8274969365,
			"-0.005": 16.641044563,
			"-0.004": 16.8273109512,
			"-0.003": 15.4820612811,
			"-0.002": 11.6133298131,
			"-0.001": 10.975891119,
			"0.0": 11.3222236719,
			"0.001": 13.8763366037,
			"0.002": 17.1838997172,
			"0.003": 18.5261387258,
			"0.004": 15.8056864724,
			"0.005": 12.8745483894,
			"0.006": 3.45120543194,
			"0.007": 2.27987677,
			"0.008": 3.05836819112,
			"0.009": 2.87054417531,
			"0.01": 5.22964995968,
			"0.011": 4.91901620039,
			"0.012": 5.90517890577,
			"0.013": 2.61709879848,
			"0.014": 0.101958190576,
			"0.015": 0.0,
			"0.016": 0.0,
			"0.017": 0.0,
			"0.018": 0.0,
			"0.019": 0.0,
			"0.02": 0.0,
			"0.021": 0.0,
			"0.022": 0.0,
			"0.023": 0.0,
			"0.024": 0.0,
			"0.025": 0.0
		}
	}
}
