{
	 "smiles": "CC(=O)OCC#CCOC(C)=O", 
	 "Tm": 301.15, 
	 "num_atms": 22, 
	 "gaussian": { 
		 "optdone": 1, 
		 "sigma_profile": "yes", 
		 "theory": "DFT", 
		 "functional": "B3LYP", 
		 "basiset": "6-31G**", 
		 "properties": { 
			 "R2extent": 3681.1687, 
			 "electric_dipole_moment_norm": 2.27309468567, 
			 "electric_quadrupole_moment_norm": 11.9080196397, 
			 "total_energy": -611.721609355, 
			 "HOMO_LUMO_gap": 0.27577, 
			 "cosmo_polarized_energy": -12.76, 
			 "cosmo_cavitation_energy": 28.72, 
			 "cosmo_dispersion_energy": -20.03, 
			 "cosmo_repulsion_energy": 1.71, 
			 "cosmo_total_nonelectrostatic_energy": 10.4, 
			 "SMD_solvation_energy": 8.12 
		},
		"coords": [
			{
				"x": 4.4816696264,
				"y": -1.096633906,
				"z": 0.4876576136,
				"element": "C" 
			},
			{
				"x": 3.1215552499,
				"y": -1.7452116717,
				"z": 0.4113005086,
				"element": "C" 
			},
			{
				"x": 2.7170354239,
				"y": -2.6295528932,
				"z": 1.1307737937,
				"element": "O" 
			},
			{
				"x": 2.387006078,
				"y": -1.1902867517,
				"z": -0.5914768806,
				"element": "O" 
			},
			{
				"x": 1.0332890157,
				"y": -1.6809730188,
				"z": -0.7267308012,
				"element": "C" 
			},
			{
				"x": 0.0874311904,
				"y": -0.923457478,
				"z": 0.0860091131,
				"element": "C" 
			},
			{
				"x": -0.7035354003,
				"y": -0.2918320041,
				"z": 0.7472459288,
				"element": "C" 
			},
			{
				"x": -1.6557730519,
				"y": 0.4434976544,
				"z": 1.5720269128,
				"element": "C" 
			},
			{
				"x": -2.2684486241,
				"y": 1.5405612366,
				"z": 0.8536800889,
				"element": "O" 
			},
			{
				"x": -1.6507627044,
				"y": 2.7479252734,
				"z": 0.9681395725,
				"element": "C" 
			},
			{
				"x": -2.363124775,
				"y": 3.782837803,
				"z": 0.1318835106,
				"element": "C" 
			},
			{
				"x": -0.6699019186,
				"y": 2.9420312577,
				"z": 1.6488102812,
				"element": "O" 
			},
			{
				"x": 4.9453926616,
				"y": -1.0588060583,
				"z": -0.5013959702,
				"element": "H" 
			},
			{
				"x": 5.1096559822,
				"y": -1.6535174954,
				"z": 1.1823297649,
				"element": "H" 
			},
			{
				"x": 4.3725890504,
				"y": -0.0654317495,
				"z": 0.8384552629,
				"element": "H" 
			},
			{
				"x": 0.7986647619,
				"y": -1.5750855204,
				"z": -1.7895518595,
				"element": "H" 
			},
			{
				"x": 1.0065765304,
				"y": -2.7395178414,
				"z": -0.4521874815,
				"element": "H" 
			},
			{
				"x": -2.4871052279,
				"y": -0.2017069241,
				"z": 1.8696359784,
				"element": "H" 
			},
			{
				"x": -1.1601386352,
				"y": 0.8333394054,
				"z": 2.4657091134,
				"element": "H" 
			},
			{
				"x": -3.4311911295,
				"y": 3.7921067192,
				"z": 0.3652785359,
				"element": "H" 
			},
			{
				"x": -2.2623566526,
				"y": 3.5304449081,
				"z": -0.928291637,
				"element": "H" 
			},
			{
				"x": -1.9257274513,
				"y": 4.7628690548,
				"z": 0.3192986508,
				"element": "H" 
			}
		],
		 "valence_orbital": [ 
			{
				"type": "occ",
				"energy": -0.30989,
				"method": "rhf"
			},
			{
				"type": "occ",
				"energy": -0.28049,
				"method": "rhf"
			},
			{
				"type": "occ",
				"energy": -0.27904,
				"method": "rhf"
			},
			{
				"type": "occ",
				"energy": -0.26874,
				"method": "rhf"
			},
			{
				"type": "occ",
				"energy": -0.26793,
				"method": "rhf"
			},
			{
				"type": "unocc",
				"energy": 0.00784,
				"method": "rhf"
			},
			{
				"type": "unocc",
				"energy": 0.00928,
				"method": "rhf"
			},
			{
				"type": "unocc",
				"energy": 0.02524,
				"method": "rhf"
			},
			{
				"type": "unocc",
				"energy": 0.02673,
				"method": "rhf"
			},
			{
				"type": "unocc",
				"energy": 0.11178,
				"method": "rhf"
			}
		],
		"cosmo_sigma_profile": { 
			"-0.025": 0.0,
			"-0.024": 0.0,
			"-0.023": 0.0,
			"-0.022": 0.0,
			"-0.021": 0.0,
			"-0.02": 0.0,
			"-0.019": 0.0,
			"-0.018": 0.0,
			"-0.017": 0.0,
			"-0.016": 0.0,
			"-0.015": 0.0,
			"-0.014": 0.0,
			"-0.013": 0.0,
			"-0.012": 0.0,
			"-0.011": 0.0,
			"-0.01": 0.0,
			"-0.009": 1.13258460855,
			"-0.008": 5.26761999408,
			"-0.007": 11.0582825275,
			"-0.006": 17.5340892845,
			"-0.005": 20.8106099485,
			"-0.004": 19.3108746973,
			"-0.003": 19.9815495531,
			"-0.002": 20.9437653133,
			"-0.001": 13.6016900258,
			"0.0": 7.46173313689,
			"0.001": 8.50682121208,
			"0.002": 9.75665969067,
			"0.003": 9.11842194849,
			"0.004": 12.1102706118,
			"0.005": 13.0717542765,
			"0.006": 5.04051778391,
			"0.007": 4.76300396548,
			"0.008": 6.11078539812,
			"0.009": 4.37599310529,
			"0.01": 4.28778276108,
			"0.011": 7.3142157334,
			"0.012": 6.19246959471,
			"0.013": 0.888502027836,
			"0.014": 0.0,
			"0.015": 0.0,
			"0.016": 0.0,
			"0.017": 0.0,
			"0.018": 0.0,
			"0.019": 0.0,
			"0.02": 0.0,
			"0.021": 0.0,
			"0.022": 0.0,
			"0.023": 0.0,
			"0.024": 0.0,
			"0.025": 0.0
		}
	}
}
