{
	 "smiles": "CC1=C(C=C(C=C1)C(C)(C)C)S(N)(=O)=O", 
	 "Tm": 412.15, 
	 "num_atms": 32, 
	 "gaussian": { 
		 "optdone": 1, 
		 "sigma_profile": "yes", 
		 "theory": "DFT", 
		 "functional": "B3LYP", 
		 "basiset": "6-31G**", 
		 "properties": { 
			 "R2extent": 4229.4834, 
			 "electric_dipole_moment_norm": 5.81331276382, 
			 "electric_quadrupole_moment_norm": 19.5954286519, 
			 "total_energy": -1032.7540125, 
			 "HOMO_LUMO_gap": 0.21664, 
			 "cosmo_polarized_energy": -17.56, 
			 "cosmo_cavitation_energy": 34.21, 
			 "cosmo_dispersion_energy": -24.62, 
			 "cosmo_repulsion_energy": 1.87, 
			 "cosmo_total_nonelectrostatic_energy": 11.46, 
			 "SMD_solvation_energy": 5.58 
		},
		"coords": [
			{
				"x": 2.6191121614,
				"y": 0.706239659,
				"z": -0.5128923449,
				"element": "C" 
			},
			{
				"x": 1.1353209872,
				"y": 0.5819315213,
				"z": -0.2582387435,
				"element": "C" 
			},
			{
				"x": 0.4740251358,
				"y": -0.6370469084,
				"z": 0.0005084153,
				"element": "C" 
			},
			{
				"x": -0.8993883834,
				"y": -0.694031331,
				"z": 0.2335385663,
				"element": "C" 
			},
			{
				"x": -1.6952589847,
				"y": 0.4621805003,
				"z": 0.2306627292,
				"element": "C" 
			},
			{
				"x": -1.043142073,
				"y": 1.6739332208,
				"z": -0.0192132773,
				"element": "C" 
			},
			{
				"x": 0.3322798048,
				"y": 1.725378764,
				"z": -0.2566171944,
				"element": "C" 
			},
			{
				"x": -3.2082948417,
				"y": 0.3497767589,
				"z": 0.4869769271,
				"element": "C" 
			},
			{
				"x": -3.4482561408,
				"y": -0.285006847,
				"z": 1.8775579466,
				"element": "C" 
			},
			{
				"x": -3.8467468238,
				"y": -0.5449470502,
				"z": -0.6021810143,
				"element": "C" 
			},
			{
				"x": -3.9049079021,
				"y": 1.7231387276,
				"z": 0.4557824822,
				"element": "C" 
			},
			{
				"x": 1.344220764,
				"y": -2.2235155032,
				"z": 0.0127509161,
				"element": "S" 
			},
			{
				"x": 2.4014888534,
				"y": -2.1993895635,
				"z": 1.3204448372,
				"element": "N" 
			},
			{
				"x": 0.3570625244,
				"y": -3.2550736111,
				"z": 0.3298945824,
				"element": "O" 
			},
			{
				"x": 2.1916673506,
				"y": -2.30452824,
				"z": -1.1776066179,
				"element": "O" 
			},
			{
				"x": 2.8578366564,
				"y": 1.7063805204,
				"z": -0.8824678277,
				"element": "H" 
			},
			{
				"x": 2.9674788575,
				"y": -0.0312044561,
				"z": -1.2389006344,
				"element": "H" 
			},
			{
				"x": 3.1978894697,
				"y": 0.5638601608,
				"z": 0.409991136,
				"element": "H" 
			},
			{
				"x": -1.3382030459,
				"y": -1.6690812487,
				"z": 0.4105119524,
				"element": "H" 
			},
			{
				"x": -1.6016409956,
				"y": 2.6027640927,
				"z": -0.0372996866,
				"element": "H" 
			},
			{
				"x": 0.7978636254,
				"y": 2.6877401755,
				"z": -0.4534857798,
				"element": "H" 
			},
			{
				"x": -3.0121556986,
				"y": 0.3308719834,
				"z": 2.67120694,
				"element": "H" 
			},
			{
				"x": -3.0112847276,
				"y": -1.2852617833,
				"z": 1.9501687161,
				"element": "H" 
			},
			{
				"x": -4.5225177473,
				"y": -0.3774255071,
				"z": 2.0717881882,
				"element": "H" 
			},
			{
				"x": -4.9247021367,
				"y": -0.6400670465,
				"z": -0.4305931387,
				"element": "H" 
			},
			{
				"x": -3.4200700532,
				"y": -1.5521353472,
				"z": -0.6042126693,
				"element": "H" 
			},
			{
				"x": -3.6977845796,
				"y": -0.1166695417,
				"z": -1.5987379855,
				"element": "H" 
			},
			{
				"x": -4.9753744679,
				"y": 1.5963439343,
				"z": 0.6456209141,
				"element": "H" 
			},
			{
				"x": -3.5124404884,
				"y": 2.3982968781,
				"z": 1.2236642541,
				"element": "H" 
			},
			{
				"x": -3.7999377306,
				"y": 2.2124378542,
				"z": -0.518236294,
				"element": "H" 
			},
			{
				"x": 3.169250654,
				"y": -1.5467933935,
				"z": 1.2043429434,
				"element": "H" 
			},
			{
				"x": 1.9252099766,
				"y": -2.1101973729,
				"z": 2.2122707615,
				"element": "H" 
			}
		],
		 "valence_orbital": [ 
			{
				"type": "occ",
				"energy": -0.31061,
				"method": "rhf"
			},
			{
				"type": "occ",
				"energy": -0.30065,
				"method": "rhf"
			},
			{
				"type": "occ",
				"energy": -0.29519,
				"method": "rhf"
			},
			{
				"type": "occ",
				"energy": -0.26382,
				"method": "rhf"
			},
			{
				"type": "occ",
				"energy": -0.25045,
				"method": "rhf"
			},
			{
				"type": "unocc",
				"energy": -0.03381,
				"method": "rhf"
			},
			{
				"type": "unocc",
				"energy": -0.01633,
				"method": "rhf"
			},
			{
				"type": "unocc",
				"energy": 0.05044,
				"method": "rhf"
			},
			{
				"type": "unocc",
				"energy": 0.06971,
				"method": "rhf"
			},
			{
				"type": "unocc",
				"energy": 0.08484,
				"method": "rhf"
			}
		],
		"cosmo_sigma_profile": { 
			"-0.025": 0.0,
			"-0.024": 0.0,
			"-0.023": 0.0,
			"-0.022": 0.0,
			"-0.021": 0.0,
			"-0.02": 0.0,
			"-0.019": 0.0,
			"-0.018": 0.0,
			"-0.017": 0.0,
			"-0.016": 0.0978313839561,
			"-0.015": 1.21939544999,
			"-0.014": 2.27247226205,
			"-0.013": 2.50876273152,
			"-0.012": 3.43624514708,
			"-0.011": 2.95931327393,
			"-0.01": 1.92419932376,
			"-0.009": 1.79547824362,
			"-0.008": 2.49469834876,
			"-0.007": 2.45098145755,
			"-0.006": 7.01458135805,
			"-0.005": 10.1488506781,
			"-0.004": 12.1365369147,
			"-0.003": 25.6046740278,
			"-0.002": 28.3547964784,
			"-0.001": 28.9649021589,
			"0.0": 26.3380169554,
			"0.001": 29.137041069,
			"0.002": 14.6396483987,
			"0.003": 11.3850578026,
			"0.004": 9.85615108682,
			"0.005": 3.78703413654,
			"0.006": 3.34926850623,
			"0.007": 3.42042845228,
			"0.008": 5.81835379725,
			"0.009": 4.22269423537,
			"0.01": 6.42431012845,
			"0.011": 9.34705244735,
			"0.012": 6.75746413592,
			"0.013": 0.145650696079,
			"0.014": 0.0,
			"0.015": 0.0,
			"0.016": 0.0,
			"0.017": 0.0,
			"0.018": 0.0,
			"0.019": 0.0,
			"0.02": 0.0,
			"0.021": 0.0,
			"0.022": 0.0,
			"0.023": 0.0,
			"0.024": 0.0,
			"0.0": 0.0
		}
	}
}
