{
	 "smiles": "CCC(C)N1C(=O)NC(C)=C(Br)C1=O", 
	 "Tm": 431.15, 
	 "num_atms": 27, 
	 "gaussian": { 
		 "optdone": 1, 
		 "sigma_profile": "yes", 
		 "theory": "DFT", 
		 "functional": "B3LYP", 
		 "basiset": "6-31G**", 
		 "properties": { 
			 "R2extent": 5078.3156, 
			 "electric_dipole_moment_norm": 3.69571566141, 
			 "electric_quadrupole_moment_norm": 20.0360057127, 
			 "total_energy": -3182.19634823, 
			 "HOMO_LUMO_gap": 0.19121, 
			 "cosmo_polarized_energy": -15.7, 
			 "cosmo_cavitation_energy": 31.54, 
			 "cosmo_dispersion_energy": -23.01, 
			 "cosmo_repulsion_energy": 1.82, 
			 "cosmo_total_nonelectrostatic_energy": 10.35, 
			 "SMD_solvation_energy": 5.96 
		},
		"coords": [
			{
				"x": 0.1365325783,
				"y": 1.7972492018,
				"z": 3.1106398308,
				"element": "C" 
			},
			{
				"x": 0.2072726582,
				"y": 1.4878050896,
				"z": 1.6105462311,
				"element": "C" 
			},
			{
				"x": 0.8380412582,
				"y": 0.1137924096,
				"z": 1.3142336852,
				"element": "C" 
			},
			{
				"x": 0.015848673,
				"y": -1.0856443922,
				"z": 1.8005507943,
				"element": "C" 
			},
			{
				"x": 1.1779970724,
				"y": -0.0201725494,
				"z": -0.1381485183,
				"element": "N" 
			},
			{
				"x": 2.5324838001,
				"y": -0.1298614489,
				"z": -0.4500038249,
				"element": "C" 
			},
			{
				"x": 3.4403224125,
				"y": -0.1201070991,
				"z": 0.3672322476,
				"element": "O" 
			},
			{
				"x": 2.8086874377,
				"y": -0.2579244053,
				"z": -1.8060090448,
				"element": "N" 
			},
			{
				"x": 1.8827853873,
				"y": -0.2823004769,
				"z": -2.8280396671,
				"element": "C" 
			},
			{
				"x": 2.4538617462,
				"y": -0.4313406739,
				"z": -4.2059944624,
				"element": "C" 
			},
			{
				"x": 0.5723070046,
				"y": -0.1712084605,
				"z": -2.4955088214,
				"element": "C" 
			},
			{
				"x": -0.8123996191,
				"y": -0.1874903211,
				"z": -3.7892424431,
				"element": "Br" 
			},
			{
				"x": 0.1385283926,
				"y": -0.0267299289,
				"z": -1.0975591448,
				"element": "C" 
			},
			{
				"x": -1.0306340363,
				"y": 0.0813550035,
				"z": -0.7622259408,
				"element": "O" 
			},
			{
				"x": -0.2392740813,
				"y": 2.812161607,
				"z": 3.2735394017,
				"element": "H" 
			},
			{
				"x": -0.5347838713,
				"y": 1.1133576207,
				"z": 3.6393838532,
				"element": "H" 
			},
			{
				"x": 1.1238106878,
				"y": 1.7293010498,
				"z": 3.5822680355,
				"element": "H" 
			},
			{
				"x": 0.8192546245,
				"y": 2.2529439927,
				"z": 1.1167949565,
				"element": "H" 
			},
			{
				"x": -0.7892219355,
				"y": 1.5380875463,
				"z": 1.1651134596,
				"element": "H" 
			},
			{
				"x": 1.8141466663,
				"y": 0.0808664551,
				"z": 1.800907032,
				"element": "H" 
			},
			{
				"x": 0.5195705648,
				"y": -2.0232174675,
				"z": 1.5452137033,
				"element": "H" 
			},
			{
				"x": -0.982984717,
				"y": -1.0908156759,
				"z": 1.3623354142,
				"element": "H" 
			},
			{
				"x": -0.0763398519,
				"y": -1.0486794275,
				"z": 2.8897328654,
				"element": "H" 
			},
			{
				"x": 3.7950423244,
				"y": -0.3351046472,
				"z": -2.0117204168,
				"element": "H" 
			},
			{
				"x": 1.6647586779,
				"y": -0.4440364604,
				"z": -4.9550558845,
				"element": "H" 
			},
			{
				"x": 3.0260706321,
				"y": -1.3633078391,
				"z": -4.2807911836,
				"element": "H" 
			},
			{
				"x": 3.1354155134,
				"y": 0.3985212976,
				"z": -4.4260921579,
				"element": "H" 
			}
		],
		 "valence_orbital": [ 
			{
				"type": "occ",
				"energy": -0.29131,
				"method": "rhf"
			},
			{
				"type": "occ",
				"energy": -0.2851,
				"method": "rhf"
			},
			{
				"type": "occ",
				"energy": -0.27163,
				"method": "rhf"
			},
			{
				"type": "occ",
				"energy": -0.26371,
				"method": "rhf"
			},
			{
				"type": "occ",
				"energy": -0.23567,
				"method": "rhf"
			},
			{
				"type": "unocc",
				"energy": -0.04446,
				"method": "rhf"
			},
			{
				"type": "unocc",
				"energy": 0.0011,
				"method": "rhf"
			},
			{
				"type": "unocc",
				"energy": 0.00782,
				"method": "rhf"
			},
			{
				"type": "unocc",
				"energy": 0.06875,
				"method": "rhf"
			},
			{
				"type": "unocc",
				"energy": 0.09531,
				"method": "rhf"
			}
		],
		"cosmo_sigma_profile": { 
			"-0.025": 0.0,
			"-0.024": 0.0,
			"-0.023": 0.0,
			"-0.022": 0.0,
			"-0.021": 0.0,
			"-0.02": 0.0,
			"-0.019": 0.0,
			"-0.018": 0.0,
			"-0.017": 0.576900335864,
			"-0.016": 0.802697505352,
			"-0.015": 1.5649888925,
			"-0.014": 0.554665560625,
			"-0.013": 0.994021864292,
			"-0.012": 1.25722533667,
			"-0.011": 1.45046046561,
			"-0.01": 1.34052838699,
			"-0.009": 1.22505249564,
			"-0.008": 2.14979659387,
			"-0.007": 4.61009448745,
			"-0.006": 5.77629892763,
			"-0.005": 8.10184477965,
			"-0.004": 14.8726784047,
			"-0.003": 29.057524319,
			"-0.002": 32.7698704046,
			"-0.001": 25.8123898653,
			"0.0": 27.0268014492,
			"0.001": 22.3870259419,
			"0.002": 10.7090948248,
			"0.003": 8.65497705349,
			"0.004": 8.8966907214,
			"0.005": 6.08018533904,
			"0.006": 4.53475213144,
			"0.007": 3.6182065995,
			"0.008": 3.10971028017,
			"0.009": 2.85833002202,
			"0.01": 3.52359270428,
			"0.011": 4.29955158356,
			"0.012": 7.33785242803,
			"0.013": 5.2175245733,
			"0.014": 0.479014328089,
			"0.015": 0.0,
			"0.016": 0.0,
			"0.017": 0.0,
			"0.018": 0.0,
			"0.019": 0.0,
			"0.02": 0.0,
			"0.021": 0.0,
			"0.022": 0.0,
			"0.023": 0.0,
			"0.024": 0.0,
			"0.025": 0.0
		}
	}
}
