{
	 "smiles": "OC(=O)C1=CN(N=C1)C1=NC=CC=C1", 
	 "Tm": 460.15, 
	 "num_atms": 21, 
	 "gaussian": { 
		 "optdone": 1, 
		 "sigma_profile": "yes", 
		 "theory": "DFT", 
		 "functional": "B3LYP", 
		 "basiset": "6-31G**", 
		 "properties": { 
			 "R2extent": 3846.4663, 
			 "electric_dipole_moment_norm": 7.58224114428, 
			 "electric_quadrupole_moment_norm": 14.4652852485, 
			 "total_energy": -661.849855262, 
			 "HOMO_LUMO_gap": 0.19299, 
			 "cosmo_polarized_energy": -25.69, 
			 "cosmo_cavitation_energy": 26.74, 
			 "cosmo_dispersion_energy": -19.86, 
			 "cosmo_repulsion_energy": 1.53, 
			 "cosmo_total_nonelectrostatic_energy": 8.42, 
			 "SMD_solvation_energy": 4.27 
		},
		"coords": [
			{
				"x": 2.9338331954,
				"y": -2.3767036847,
				"z": -2.6323626418,
				"element": "O" 
			},
			{
				"x": 3.4203634152,
				"y": -2.1475178632,
				"z": -1.3793801579,
				"element": "C" 
			},
			{
				"x": 4.5360717829,
				"y": -2.5134028591,
				"z": -1.0928736229,
				"element": "O" 
			},
			{
				"x": 2.535017264,
				"y": -1.4525470161,
				"z": -0.4235208355,
				"element": "C" 
			},
			{
				"x": 1.2474187535,
				"y": -0.962863612,
				"z": -0.5530223674,
				"element": "C" 
			},
			{
				"x": 0.9071460314,
				"y": -0.4098232414,
				"z": 0.6477326384,
				"element": "N" 
			},
			{
				"x": 1.9180501578,
				"y": -0.5165746262,
				"z": 1.5596258499,
				"element": "N" 
			},
			{
				"x": 2.8882017526,
				"y": -1.1389690451,
				"z": 0.9188196939,
				"element": "C" 
			},
			{
				"x": -0.3225665942,
				"y": 0.2217731378,
				"z": 1.0010270809,
				"element": "C" 
			},
			{
				"x": -0.4053907171,
				"y": 0.6806049143,
				"z": 2.2449847531,
				"element": "N" 
			},
			{
				"x": -1.5421015005,
				"y": 1.2786986752,
				"z": 2.6134596533,
				"element": "C" 
			},
			{
				"x": -2.6387111124,
				"y": 1.4462701418,
				"z": 1.7690117442,
				"element": "C" 
			},
			{
				"x": -2.5346671046,
				"y": 0.9586064884,
				"z": 0.4663203387,
				"element": "C" 
			},
			{
				"x": -1.3594957809,
				"y": 0.3326666442,
				"z": 0.0629507497,
				"element": "C" 
			},
			{
				"x": 2.0346929974,
				"y": -2.0345859681,
				"z": -2.7225262708,
				"element": "H" 
			},
			{
				"x": 0.5636932129,
				"y": -0.9657198041,
				"z": -1.3880398806,
				"element": "H" 
			},
			{
				"x": 3.8249139161,
				"y": -1.3586540677,
				"z": 1.4115010696,
				"element": "H" 
			},
			{
				"x": -1.5723016766,
				"y": 1.6411467054,
				"z": 3.6390115624,
				"element": "H" 
			},
			{
				"x": -3.5383902044,
				"y": 1.9398930255,
				"z": 2.1200330538,
				"element": "H" 
			},
			{
				"x": -3.3581584337,
				"y": 1.062024854,
				"z": -0.2337222161,
				"element": "H" 
			},
			{
				"x": -1.2680193548,
				"y": -0.0495227987,
				"z": -0.9464301952,
				"element": "H" 
			}
		],
		 "valence_orbital": [ 
			{
				"type": "occ",
				"energy": -0.30521,
				"method": "rhf"
			},
			{
				"type": "occ",
				"energy": -0.27774,
				"method": "rhf"
			},
			{
				"type": "occ",
				"energy": -0.27536,
				"method": "rhf"
			},
			{
				"type": "occ",
				"energy": -0.27085,
				"method": "rhf"
			},
			{
				"type": "occ",
				"energy": -0.25282,
				"method": "rhf"
			},
			{
				"type": "unocc",
				"energy": -0.05983,
				"method": "rhf"
			},
			{
				"type": "unocc",
				"energy": -0.04381,
				"method": "rhf"
			},
			{
				"type": "unocc",
				"energy": -0.01442,
				"method": "rhf"
			},
			{
				"type": "unocc",
				"energy": 0.02111,
				"method": "rhf"
			},
			{
				"type": "unocc",
				"energy": 0.03806,
				"method": "rhf"
			}
		],
		"cosmo_sigma_profile": { 
			"-0.025": 0.0,
			"-0.024": 0.0,
			"-0.023": 0.0,
			"-0.022": 0.0,
			"-0.021": 0.000595559949837,
			"-0.02": 0.778516436379,
			"-0.019": 1.32504580152,
			"-0.018": 1.21657426346,
			"-0.017": 0.655684695492,
			"-0.016": 0.872251794157,
			"-0.015": 1.41944222091,
			"-0.014": 1.4062306229,
			"-0.013": 2.53390995657,
			"-0.012": 1.93843791254,
			"-0.011": 2.65242204159,
			"-0.01": 1.7824907751,
			"-0.009": 2.78412875408,
			"-0.008": 5.51089478155,
			"-0.007": 10.9841821597,
			"-0.006": 11.5013240332,
			"-0.005": 9.66806553919,
			"-0.004": 10.0164029719,
			"-0.003": 10.9773901489,
			"-0.002": 11.053688462,
			"-0.001": 13.3129920616,
			"0.0": 17.7440194423,
			"0.001": 19.7614666952,
			"0.002": 14.5153459977,
			"0.003": 5.44898779874,
			"0.004": 4.67035495297,
			"0.005": 4.59266130598,
			"0.006": 4.68847897339,
			"0.007": 3.96258705906,
			"0.008": 4.12281704364,
			"0.009": 4.98421147732,
			"0.01": 6.40088514184,
			"0.011": 7.08665108258,
			"0.012": 6.05035691421,
			"0.013": 3.24944775488,
			"0.014": 1.44371440478,
			"0.015": 0.897037895137,
			"0.016": 1.27071313027,
			"0.017": 0.873974358553,
			"0.018": 0.998320494085,
			"0.019": 0.726744592777,
			"0.02": 0.17296140175,
			"0.021": 0.0,
			"0.022": 0.0,
			"0.023": 0.0,
			"0.024": 0.0,
			"0.025": 0.0
		}
	}
}
