{
	 "smiles": "COC1=C(OC)C=C(CCN2CCC3=C(NC4=CC=CC=C34)C2=O)C=C1", 
	 "Tm": 479.15, 
	 "num_atms": 48, 
	 "gaussian": { 
		 "optdone": 1, 
		 "sigma_profile": "yes", 
		 "theory": "DFT", 
		 "functional": "B3LYP", 
		 "basiset": "6-31G**", 
		 "properties": { 
			 "R2extent": 11315.1219, 
			 "electric_dipole_moment_norm": 1.52436921381, 
			 "electric_quadrupole_moment_norm": 24.1021467361, 
			 "total_energy": -1148.67401557, 
			 "HOMO_LUMO_gap": 0.16795, 
			 "cosmo_polarized_energy": -17.27, 
			 "cosmo_cavitation_energy": 49.85, 
			 "cosmo_dispersion_energy": -34.51, 
			 "cosmo_repulsion_energy": 2.63, 
			 "cosmo_total_nonelectrostatic_energy": 17.97, 
			 "SMD_solvation_energy": 8.51 
		},
		"coords": [
			{
				"x": -3.8279991536,
				"y": -3.8843632932,
				"z": -0.2785659938,
				"element": "C" 
			},
			{
				"x": -4.130241572,
				"y": -2.5149594404,
				"z": -0.0671750586,
				"element": "O" 
			},
			{
				"x": -3.2476750691,
				"y": -1.7680597993,
				"z": 0.663969302,
				"element": "C" 
			},
			{
				"x": -3.6010780971,
				"y": -0.4189789827,
				"z": 0.8849835969,
				"element": "C" 
			},
			{
				"x": -4.7877387298,
				"y": 0.104340039,
				"z": 0.4280272429,
				"element": "O" 
			},
			{
				"x": -4.9140139166,
				"y": 0.2214086271,
				"z": -0.9901618458,
				"element": "C" 
			},
			{
				"x": -2.7628166239,
				"y": 0.3944809746,
				"z": 1.6411968314,
				"element": "C" 
			},
			{
				"x": -1.5669723962,
				"y": -0.0818889214,
				"z": 2.20036328,
				"element": "C" 
			},
			{
				"x": -0.7331885514,
				"y": 0.8393375411,
				"z": 3.0722791469,
				"element": "C" 
			},
			{
				"x": 0.798985438,
				"y": 0.7318205362,
				"z": 2.9365528034,
				"element": "C" 
			},
			{
				"x": 1.3180577542,
				"y": 0.9077988081,
				"z": 1.5823783937,
				"element": "N" 
			},
			{
				"x": 0.9384914407,
				"y": 2.1267365088,
				"z": 0.8468515401,
				"element": "C" 
			},
			{
				"x": 1.9747794233,
				"y": 2.5646635303,
				"z": -0.2027173682,
				"element": "C" 
			},
			{
				"x": 2.4037644745,
				"y": 1.3704273345,
				"z": -0.9995869825,
				"element": "C" 
			},
			{
				"x": 2.3264601775,
				"y": 0.1246589081,
				"z": -0.4256656906,
				"element": "C" 
			},
			{
				"x": 2.8330309631,
				"y": -0.8305834531,
				"z": -1.2784289768,
				"element": "N" 
			},
			{
				"x": 3.2513605475,
				"y": -0.209561915,
				"z": -2.4331681829,
				"element": "C" 
			},
			{
				"x": 3.8259279387,
				"y": -0.7438088139,
				"z": -3.5933579541,
				"element": "C" 
			},
			{
				"x": 4.1539899011,
				"y": 0.1389430038,
				"z": -4.6140848548,
				"element": "C" 
			},
			{
				"x": 3.9156035261,
				"y": 1.5258748564,
				"z": -4.4939205305,
				"element": "C" 
			},
			{
				"x": 3.3432519639,
				"y": 2.0571531564,
				"z": -3.3474911443,
				"element": "C" 
			},
			{
				"x": 2.9989007697,
				"y": 1.1922578969,
				"z": -2.2914620547,
				"element": "C" 
			},
			{
				"x": 1.8712048202,
				"y": -0.1750129967,
				"z": 0.9346317521,
				"element": "C" 
			},
			{
				"x": 2.0247327293,
				"y": -1.2913796034,
				"z": 1.4417371876,
				"element": "O" 
			},
			{
				"x": -1.2200203035,
				"y": -1.4133674688,
				"z": 1.9570060618,
				"element": "C" 
			},
			{
				"x": -2.0477891259,
				"y": -2.2456220648,
				"z": 1.1968127717,
				"element": "C" 
			},
			{
				"x": -4.660688602,
				"y": -4.2911918566,
				"z": -0.8546738002,
				"element": "H" 
			},
			{
				"x": -2.8981353251,
				"y": -4.0132178133,
				"z": -0.8478490336,
				"element": "H" 
			},
			{
				"x": -3.7442827008,
				"y": -4.4302931836,
				"z": 0.6698056263,
				"element": "H" 
			},
			{
				"x": -5.8815425512,
				"y": 0.6949497454,
				"z": -1.1710718638,
				"element": "H" 
			},
			{
				"x": -4.8886989277,
				"y": -0.7564248001,
				"z": -1.4796779685,
				"element": "H" 
			},
			{
				"x": -4.1197075145,
				"y": 0.8573824793,
				"z": -1.4035749734,
				"element": "H" 
			},
			{
				"x": -3.0796310364,
				"y": 1.4221245383,
				"z": 1.7986072926,
				"element": "H" 
			},
			{
				"x": -1.044695163,
				"y": 1.8741451652,
				"z": 2.8864359569,
				"element": "H" 
			},
			{
				"x": -0.9610619224,
				"y": 0.6554003795,
				"z": 4.1323686351,
				"element": "H" 
			},
			{
				"x": 1.1540723591,
				"y": -0.2430045787,
				"z": 3.2725841434,
				"element": "H" 
			},
			{
				"x": 1.2522013908,
				"y": 1.4908205364,
				"z": 3.5889748274,
				"element": "H" 
			},
			{
				"x": 0.8017846038,
				"y": 2.9237155823,
				"z": 1.5843453452,
				"element": "H" 
			},
			{
				"x": -0.0312461417,
				"y": 1.9675944719,
				"z": 0.3534678443,
				"element": "H" 
			},
			{
				"x": 1.5223363273,
				"y": 3.3397410461,
				"z": -0.8316487864,
				"element": "H" 
			},
			{
				"x": 2.8421685322,
				"y": 3.026857278,
				"z": 0.2905769512,
				"element": "H" 
			},
			{
				"x": 2.9032333774,
				"y": -1.8061701968,
				"z": -1.0338157054,
				"element": "H" 
			},
			{
				"x": 4.0111845988,
				"y": -1.8096586907,
				"z": -3.6900455056,
				"element": "H" 
			},
			{
				"x": 4.6036863569,
				"y": -0.2455570093,
				"z": -5.5248826452,
				"element": "H" 
			},
			{
				"x": 4.1861214354,
				"y": 2.1828836544,
				"z": -5.3151988868,
				"element": "H" 
			},
			{
				"x": 3.1630084731,
				"y": 3.1254231119,
				"z": -3.2645040966,
				"element": "H" 
			},
			{
				"x": -0.2841594841,
				"y": -1.8150429192,
				"z": 2.3304801307,
				"element": "H" 
			},
			{
				"x": -1.7459564149,
				"y": -3.2729919089,
				"z": 1.0294932395,
				"element": "H" 
			}
		],
		 "valence_orbital": [ 
			{
				"type": "occ",
				"energy": -0.23884,
				"method": "rhf"
			},
			{
				"type": "occ",
				"energy": -0.2322,
				"method": "rhf"
			},
			{
				"type": "occ",
				"energy": -0.22241,
				"method": "rhf"
			},
			{
				"type": "occ",
				"energy": -0.20503,
				"method": "rhf"
			},
			{
				"type": "occ",
				"energy": -0.20314,
				"method": "rhf"
			},
			{
				"type": "unocc",
				"energy": -0.03519,
				"method": "rhf"
			},
			{
				"type": "unocc",
				"energy": 0.00868,
				"method": "rhf"
			},
			{
				"type": "unocc",
				"energy": 0.01598,
				"method": "rhf"
			},
			{
				"type": "unocc",
				"energy": 0.02055,
				"method": "rhf"
			},
			{
				"type": "unocc",
				"energy": 0.03288,
				"method": "rhf"
			}
		],
		"cosmo_sigma_profile": { 
			"-0.025": 0.0,
			"-0.024": 0.0,
			"-0.023": 0.0,
			"-0.022": 0.0,
			"-0.021": 0.0,
			"-0.02": 0.0,
			"-0.019": 0.0,
			"-0.018": 0.0,
			"-0.017": 0.0,
			"-0.016": 0.0645294644703,
			"-0.015": 0.667136532552,
			"-0.014": 0.664841610351,
			"-0.013": 0.977500698585,
			"-0.012": 0.832673245443,
			"-0.011": 0.626604981111,
			"-0.01": 1.12206172373,
			"-0.009": 1.27432488472,
			"-0.008": 0.935217466527,
			"-0.007": 1.94833628196,
			"-0.006": 11.0196125222,
			"-0.005": 32.7455129178,
			"-0.004": 43.3913094865,
			"-0.003": 50.1904407922,
			"-0.002": 37.787414889,
			"-0.001": 27.7679419664,
			"0.0": 20.872650443,
			"0.001": 22.4570460222,
			"0.002": 20.6214150547,
			"0.003": 24.2356218246,
			"0.004": 25.747925722,
			"0.005": 21.6027870944,
			"0.006": 17.2347702819,
			"0.007": 6.60996764207,
			"0.008": 3.76427625779,
			"0.009": 2.97541849931,
			"0.01": 3.45662188133,
			"0.011": 4.35730445743,
			"0.012": 3.56880715299,
			"0.013": 2.10280386421,
			"0.014": 3.15667112773,
			"0.015": 0.00450432185482,
			"0.016": 0.0,
			"0.017": 0.0,
			"0.018": 0.0,
			"0.019": 0.0,
			"0.02": 0.0,
			"0.021": 0.0,
			"0.022": 0.0,
			"0.023": 0.0,
			"0.024": 0.0,
			"0.025": 0.0
		}
	}
}
