{
	 "smiles": "CCC1=C(C(=O)SS1)C1=CC=CC=C1", 
	 "Tm": 355.15, 
	 "num_atms": 24, 
	 "gaussian": { 
		 "optdone": 1, 
		 "sigma_profile": "yes", 
		 "theory": "DFT", 
		 "functional": "B3LYP", 
		 "basiset": "6-31G**", 
		 "properties": { 
			 "R2extent": 4284.1074, 
			 "electric_dipole_moment_norm": 4.12992968705, 
			 "electric_quadrupole_moment_norm": 12.7020813263, 
			 "total_energy": -1296.80083024, 
			 "HOMO_LUMO_gap": 0.16563, 
			 "cosmo_polarized_energy": -8.71, 
			 "cosmo_cavitation_energy": 30.48, 
			 "cosmo_dispersion_energy": -22.81, 
			 "cosmo_repulsion_energy": 1.71, 
			 "cosmo_total_nonelectrostatic_energy": 9.38, 
			 "SMD_solvation_energy": 4.5 
		},
		"coords": [
			{
				"x": 2.9197486603,
				"y": 0.8514835311,
				"z": -1.1579778274,
				"element": "C" 
			},
			{
				"x": 1.9290360559,
				"y": 1.1376208586,
				"z": -0.014242688,
				"element": "C" 
			},
			{
				"x": 1.7981628936,
				"y": 0.0170949197,
				"z": 0.9899037101,
				"element": "C" 
			},
			{
				"x": 0.7127023861,
				"y": -0.7812023148,
				"z": 1.1946239355,
				"element": "C" 
			},
			{
				"x": 0.7694021611,
				"y": -1.7604169003,
				"z": 2.2961074919,
				"element": "C" 
			},
			{
				"x": -0.0904211767,
				"y": -2.5237095661,
				"z": 2.6707279015,
				"element": "O" 
			},
			{
				"x": 2.3989588438,
				"y": -1.7497229043,
				"z": 3.1553893232,
				"element": "S" 
			},
			{
				"x": 3.2157490845,
				"y": -0.2051923601,
				"z": 2.0141129486,
				"element": "S" 
			},
			{
				"x": -0.5427350348,
				"y": -0.7310070904,
				"z": 0.3985976817,
				"element": "C" 
			},
			{
				"x": -1.7857363943,
				"y": -0.6147936428,
				"z": 1.0431102531,
				"element": "C" 
			},
			{
				"x": -2.9650021614,
				"y": -0.5637610858,
				"z": 0.3025137846,
				"element": "C" 
			},
			{
				"x": -2.926640324,
				"y": -0.6357343138,
				"z": -1.0918272419,
				"element": "C" 
			},
			{
				"x": -1.6993335128,
				"y": -0.7674243387,
				"z": -1.7422462388,
				"element": "C" 
			},
			{
				"x": -0.5175721577,
				"y": -0.8202994435,
				"z": -1.0025379403,
				"element": "C" 
			},
			{
				"x": 3.932149496,
				"y": 0.6809080065,
				"z": -0.7805709309,
				"element": "H" 
			},
			{
				"x": 2.6235868774,
				"y": -0.0335715304,
				"z": -1.7286389267,
				"element": "H" 
			},
			{
				"x": 2.9539724347,
				"y": 1.7030769362,
				"z": -1.8439399993,
				"element": "H" 
			},
			{
				"x": 2.249245998,
				"y": 2.0421621095,
				"z": 0.5181034818,
				"element": "H" 
			},
			{
				"x": 0.9367168267,
				"y": 1.3438154875,
				"z": -0.4230975645,
				"element": "H" 
			},
			{
				"x": -1.8238741372,
				"y": -0.5696332488,
				"z": 2.1257558571,
				"element": "H" 
			},
			{
				"x": -3.9170564218,
				"y": -0.4692820337,
				"z": 0.8166684094,
				"element": "H" 
			},
			{
				"x": -3.8477373867,
				"y": -0.5980715192,
				"z": -1.6661434735,
				"element": "H" 
			},
			{
				"x": -1.6596782914,
				"y": -0.8404980594,
				"z": -2.825290106,
				"element": "H" 
			},
			{
				"x": 0.4311552805,
				"y": -0.955841497,
				"z": -1.5126018411,
				"element": "H" 
			}
		],
		 "valence_orbital": [ 
			{
				"type": "occ",
				"energy": -0.28782,
				"method": "rhf"
			},
			{
				"type": "occ",
				"energy": -0.26911,
				"method": "rhf"
			},
			{
				"type": "occ",
				"energy": -0.25471,
				"method": "rhf"
			},
			{
				"type": "occ",
				"energy": -0.25262,
				"method": "rhf"
			},
			{
				"type": "occ",
				"energy": -0.22643,
				"method": "rhf"
			},
			{
				"type": "unocc",
				"energy": -0.0608,
				"method": "rhf"
			},
			{
				"type": "unocc",
				"energy": -0.05399,
				"method": "rhf"
			},
			{
				"type": "unocc",
				"energy": -0.0138,
				"method": "rhf"
			},
			{
				"type": "unocc",
				"energy": -0.00663,
				"method": "rhf"
			},
			{
				"type": "unocc",
				"energy": 0.00686,
				"method": "rhf"
			}
		],
		"cosmo_sigma_profile": { 
			"-0.025": 0.0,
			"-0.024": 0.0,
			"-0.023": 0.0,
			"-0.022": 0.0,
			"-0.021": 0.0,
			"-0.02": 0.0,
			"-0.019": 0.0,
			"-0.018": 0.0,
			"-0.017": 0.0,
			"-0.016": 0.0,
			"-0.015": 0.0,
			"-0.014": 0.0,
			"-0.013": 0.0,
			"-0.012": 0.0,
			"-0.011": 0.0,
			"-0.01": 0.0,
			"-0.009": 0.0,
			"-0.008": 0.0,
			"-0.007": 0.627614563473,
			"-0.006": 11.231546475,
			"-0.005": 16.4501026867,
			"-0.004": 23.146291683,
			"-0.003": 24.0094085063,
			"-0.002": 25.0763183303,
			"-0.001": 24.502769503,
			"0.0": 25.0835751888,
			"0.001": 19.5755938744,
			"0.002": 17.4291605238,
			"0.003": 14.0843687637,
			"0.004": 14.2717535057,
			"0.005": 13.0759344272,
			"0.006": 4.12313254384,
			"0.007": 1.88711930367,
			"0.008": 2.02559783495,
			"0.009": 2.36285009792,
			"0.01": 3.65879637688,
			"0.011": 4.83590533137,
			"0.012": 0.545143575913,
			"0.013": 0.0,
			"0.014": 0.0,
			"0.015": 0.0,
			"0.016": 0.0,
			"0.017": 0.0,
			"0.018": 0.0,
			"0.019": 0.0,
			"0.02": 0.0,
			"0.021": 0.0,
			"0.022": 0.0,
			"0.023": 0.0,
			"0.024": 0.0,
			"0.025": 0.0
		}
	}
}
