{
	 "smiles": "NNC1=C(Cl)C=C(C=N1)C(F)(F)F", 
	 "Tm": 364.15, 
	 "num_atms": 18, 
	 "gaussian": { 
		 "optdone": 1, 
		 "sigma_profile": "yes", 
		 "theory": "DFT", 
		 "functional": "B3LYP", 
		 "basiset": "6-31G**", 
		 "properties": { 
			 "R2extent": 3834.2004, 
			 "electric_dipole_moment_norm": 1.58325402889, 
			 "electric_quadrupole_moment_norm": 8.28139445021, 
			 "total_energy": -1155.59444996, 
			 "HOMO_LUMO_gap": 0.18913, 
			 "cosmo_polarized_energy": -7.7, 
			 "cosmo_cavitation_energy": 25.9, 
			 "cosmo_dispersion_energy": -18.85, 
			 "cosmo_repulsion_energy": 1.45, 
			 "cosmo_total_nonelectrostatic_energy": 8.49, 
			 "SMD_solvation_energy": 4.76 
		},
		"coords": [
			{
				"x": -1.7809657787,
				"y": -2.3638923454,
				"z": 2.1213748871,
				"element": "N" 
			},
			{
				"x": -0.4945131722,
				"y": -1.9976865908,
				"z": 1.6927078276,
				"element": "N" 
			},
			{
				"x": -0.1509236275,
				"y": -0.7117161106,
				"z": 1.3943992492,
				"element": "C" 
			},
			{
				"x": 1.1919094607,
				"y": -0.3518927599,
				"z": 1.0936774109,
				"element": "C" 
			},
			{
				"x": 2.4531200737,
				"y": -1.5751134728,
				"z": 1.1193361662,
				"element": "Cl" 
			},
			{
				"x": 1.4929134577,
				"y": 0.9550160414,
				"z": 0.7806136607,
				"element": "C" 
			},
			{
				"x": 0.4570718867,
				"y": 1.9034151647,
				"z": 0.7675791174,
				"element": "C" 
			},
			{
				"x": -0.828113957,
				"y": 1.4700946507,
				"z": 1.076340993,
				"element": "C" 
			},
			{
				"x": -1.1311191008,
				"y": 0.2050198245,
				"z": 1.3821379984,
				"element": "N" 
			},
			{
				"x": 0.7573624091,
				"y": 3.3416439655,
				"z": 0.4768305778,
				"element": "C" 
			},
			{
				"x": 1.647886421,
				"y": 3.467793944,
				"z": -0.5347917561,
				"element": "F" 
			},
			{
				"x": 1.2999545632,
				"y": 3.9731381828,
				"z": 1.5453530987,
				"element": "F" 
			},
			{
				"x": -0.353992284,
				"y": 4.0280203968,
				"z": 0.1344406357,
				"element": "F" 
			},
			{
				"x": -2.0927285369,
				"y": -1.6791467087,
				"z": 2.8108250675,
				"element": "H" 
			},
			{
				"x": -2.4140640659,
				"y": -2.2569560858,
				"z": 1.3296092682,
				"element": "H" 
			},
			{
				"x": 0.2289142046,
				"y": -2.6764133093,
				"z": 1.8707621484,
				"element": "H" 
			},
			{
				"x": 2.5118507085,
				"y": 1.2390396529,
				"z": 0.5417897426,
				"element": "H" 
			},
			{
				"x": -1.6570626621,
				"y": 2.1725355601,
				"z": 1.0734139066,
				"element": "H" 
			}
		],
		 "valence_orbital": [ 
			{
				"type": "occ",
				"energy": -0.33471,
				"method": "rhf"
			},
			{
				"type": "occ",
				"energy": -0.29292,
				"method": "rhf"
			},
			{
				"type": "occ",
				"energy": -0.28816,
				"method": "rhf"
			},
			{
				"type": "occ",
				"energy": -0.27863,
				"method": "rhf"
			},
			{
				"type": "occ",
				"energy": -0.23239,
				"method": "rhf"
			},
			{
				"type": "unocc",
				"energy": -0.04326,
				"method": "rhf"
			},
			{
				"type": "unocc",
				"energy": -0.02623,
				"method": "rhf"
			},
			{
				"type": "unocc",
				"energy": 0.01288,
				"method": "rhf"
			},
			{
				"type": "unocc",
				"energy": 0.08194,
				"method": "rhf"
			},
			{
				"type": "unocc",
				"energy": 0.09976,
				"method": "rhf"
			}
		],
		"cosmo_sigma_profile": { 
			"-0.025": 0.0,
			"-0.024": 0.0,
			"-0.023": 0.0,
			"-0.022": 0.0,
			"-0.021": 0.0,
			"-0.02": 0.0,
			"-0.019": 0.0,
			"-0.018": 0.0,
			"-0.017": 0.0,
			"-0.016": 0.0,
			"-0.015": 0.0,
			"-0.014": 0.0,
			"-0.013": 0.494584268928,
			"-0.012": 0.926106198197,
			"-0.011": 2.15926673765,
			"-0.01": 3.01829296657,
			"-0.009": 3.6502946313,
			"-0.008": 5.83103807682,
			"-0.007": 6.1991440441,
			"-0.006": 5.40943823462,
			"-0.005": 6.59602855547,
			"-0.004": 6.4607480675,
			"-0.003": 9.30709510654,
			"-0.002": 11.2646415344,
			"-0.001": 19.3065739257,
			"0.0": 24.6687592049,
			"0.001": 18.2640132531,
			"0.002": 25.6905629408,
			"0.003": 35.6692273882,
			"0.004": 9.21591340106,
			"0.005": 2.47499948265,
			"0.006": 2.01290846804,
			"0.007": 1.57486875073,
			"0.008": 1.33322437535,
			"0.009": 1.86536574263,
			"0.01": 1.19988425343,
			"0.011": 1.39441776375,
			"0.012": 0.789502815074,
			"0.013": 0.803018146611,
			"0.014": 0.77447842761,
			"0.015": 0.565920794866,
			"0.016": 0.502175719343,
			"0.017": 0.0733037760375,
			"0.018": 0.0,
			"0.019": 0.0,
			"0.02": 0.0,
			"0.021": 0.0,
			"0.022": 0.0,
			"0.023": 0.0,
			"0.024": 0.0,
			"0.025": 0.0
		}
	}
}
