{
	 "smiles": "OC(=O)CCN1C(=O)C=CC1=O", 
	 "Tm": 377.15, 
	 "num_atms": 19, 
	 "gaussian": { 
		 "optdone": 1, 
		 "sigma_profile": "yes", 
		 "theory": "DFT", 
		 "functional": "B3LYP", 
		 "basiset": "6-31G**", 
		 "properties": { 
			 "R2extent": 2633.1841, 
			 "electric_dipole_moment_norm": 2.24641902369, 
			 "electric_quadrupole_moment_norm": 17.8384436788, 
			 "total_energy": -626.628223044, 
			 "HOMO_LUMO_gap": 0.17451, 
			 "cosmo_polarized_energy": -15.68, 
			 "cosmo_cavitation_energy": 25.11, 
			 "cosmo_dispersion_energy": -17.6, 
			 "cosmo_repulsion_energy": 1.42, 
			 "cosmo_total_nonelectrostatic_energy": 8.93, 
			 "SMD_solvation_energy": 7.01 
		},
		"coords": [
			{
				"x": -0.5109159894,
				"y": -0.2214886174,
				"z": 4.480869366,
				"element": "O" 
			},
			{
				"x": -0.7707506423,
				"y": 0.4580740902,
				"z": 3.3401161802,
				"element": "C" 
			},
			{
				"x": -1.5758596839,
				"y": 1.3617626092,
				"z": 3.2812997597,
				"element": "O" 
			},
			{
				"x": 0.059349556,
				"y": -0.0547076653,
				"z": 2.185116143,
				"element": "C" 
			},
			{
				"x": -0.2363398262,
				"y": 0.7149287804,
				"z": 0.8941965335,
				"element": "C" 
			},
			{
				"x": 0.5564050781,
				"y": 0.2313747808,
				"z": -0.2261936424,
				"element": "N" 
			},
			{
				"x": 1.8184641012,
				"y": 0.721088906,
				"z": -0.5785013551,
				"element": "C" 
			},
			{
				"x": 2.4228060883,
				"y": 1.6011434035,
				"z": -0.0002546558,
				"element": "O" 
			},
			{
				"x": 2.2423612769,
				"y": -0.0605862011,
				"z": -1.7909657552,
				"element": "C" 
			},
			{
				"x": 1.2805777263,
				"y": -0.9384416092,
				"z": -2.0925541501,
				"element": "C" 
			},
			{
				"x": 0.1631600029,
				"y": -0.7898136594,
				"z": -1.0975451423,
				"element": "C" 
			},
			{
				"x": -0.8778499201,
				"y": -1.4115226692,
				"z": -1.0352163771,
				"element": "O" 
			},
			{
				"x": -1.0811449711,
				"y": 0.1679389421,
				"z": 5.1652930435,
				"element": "H" 
			},
			{
				"x": 1.1182271605,
				"y": 0.0295904041,
				"z": 2.4548467254,
				"element": "H" 
			},
			{
				"x": -0.1471764148,
				"y": -1.1233815642,
				"z": 2.0572099396,
				"element": "H" 
			},
			{
				"x": -1.2897476574,
				"y": 0.6147976133,
				"z": 0.6262644498,
				"element": "H" 
			},
			{
				"x": -0.0158089489,
				"y": 1.7757508873,
				"z": 1.0264938642,
				"element": "H" 
			},
			{
				"x": 3.189509573,
				"y": 0.1181710798,
				"z": -2.2826109683,
				"element": "H" 
			},
			{
				"x": 1.2376334906,
				"y": -1.6633795109,
				"z": -2.8946639586,
				"element": "H" 
			}
		],
		 "valence_orbital": [ 
			{
				"type": "occ",
				"energy": -0.31177,
				"method": "rhf"
			},
			{
				"type": "occ",
				"energy": -0.30246,
				"method": "rhf"
			},
			{
				"type": "occ",
				"energy": -0.28808,
				"method": "rhf"
			},
			{
				"type": "occ",
				"energy": -0.27733,
				"method": "rhf"
			},
			{
				"type": "occ",
				"energy": -0.27481,
				"method": "rhf"
			},
			{
				"type": "unocc",
				"energy": -0.1003,
				"method": "rhf"
			},
			{
				"type": "unocc",
				"energy": 0.0025,
				"method": "rhf"
			},
			{
				"type": "unocc",
				"energy": 0.04962,
				"method": "rhf"
			},
			{
				"type": "unocc",
				"energy": 0.06156,
				"method": "rhf"
			},
			{
				"type": "unocc",
				"energy": 0.07634,
				"method": "rhf"
			}
		],
		"cosmo_sigma_profile": { 
			"-0.025": 0.0,
			"-0.024": 0.0,
			"-0.023": 0.0,
			"-0.022": 0.0,
			"-0.021": 0.0,
			"-0.02": 0.0,
			"-0.019": 0.0478293945921,
			"-0.018": 0.731708875045,
			"-0.017": 1.39111136144,
			"-0.016": 0.48644785881,
			"-0.015": 0.496341028025,
			"-0.014": 0.954289239044,
			"-0.013": 0.367647817706,
			"-0.012": 1.11356072902,
			"-0.011": 0.687685992544,
			"-0.01": 2.04515136865,
			"-0.009": 4.38543603427,
			"-0.008": 3.81020721251,
			"-0.007": 7.5014084412,
			"-0.006": 10.2565619729,
			"-0.005": 17.7523245752,
			"-0.004": 18.9478293859,
			"-0.003": 18.2815006318,
			"-0.002": 13.5783054224,
			"-0.001": 10.9272759209,
			"0.0": 8.75503074581,
			"0.001": 6.53552642387,
			"0.002": 5.61839978692,
			"0.003": 4.17119980107,
			"0.004": 6.04529655833,
			"0.005": 3.76398842911,
			"0.006": 5.32268321647,
			"0.007": 6.27969252189,
			"0.008": 5.04961040944,
			"0.009": 7.35125538418,
			"0.01": 8.84830297565,
			"0.011": 13.4244436473,
			"0.012": 5.12119695806,
			"0.013": 0.0,
			"0.014": 0.0,
			"0.015": 0.0,
			"0.016": 0.0,
			"0.017": 0.0,
			"0.018": 0.0,
			"0.019": 0.0,
			"0.02": 0.0,
			"0.021": 0.0,
			"0.022": 0.0,
			"0.023": 0.0,
			"0.024": 0.0,
			"0.025": 0.0
		}
	}
}
