{
	 "smiles": "FC(F)(F)C(=O)C(F)(F)F", 
	 "Tm": 146.15, 
	 "num_atms": 10, 
	 "gaussian": { 
		 "optdone": 1, 
		 "sigma_profile": "yes", 
		 "theory": "DFT", 
		 "functional": "B3LYP", 
		 "basiset": "6-31G**", 
		 "properties": { 
			 "R2extent": 1781.2171, 
			 "electric_dipole_moment_norm": 0.550436635772, 
			 "electric_quadrupole_moment_norm": 2.01779378035, 
			 "total_energy": -788.553323477, 
			 "HOMO_LUMO_gap": 0.21547, 
			 "cosmo_polarized_energy": -2.79, 
			 "cosmo_cavitation_energy": 18.12, 
			 "cosmo_dispersion_energy": -12.32, 
			 "cosmo_repulsion_energy": 0.91, 
			 "cosmo_total_nonelectrostatic_energy": 6.71, 
			 "SMD_solvation_energy": 6.45 
		},
		"coords": [
			{
				"x": 2.6160940848,
				"y": -0.0343233009,
				"z": -0.9892136461,
				"element": "F" 
			},
			{
				"x": 1.5521301926,
				"y": -0.1891722166,
				"z": -0.1830589877,
				"element": "C" 
			},
			{
				"x": 1.4953897338,
				"y": -1.4549316167,
				"z": 0.2278314489,
				"element": "F" 
			},
			{
				"x": 1.7034624588,
				"y": 0.6120862501,
				"z": 0.8850266938,
				"element": "F" 
			},
			{
				"x": 0.249685961,
				"y": 0.1951731773,
				"z": -0.9287855125,
				"element": "C" 
			},
			{
				"x": -0.7566884486,
				"y": -0.4486811514,
				"z": -0.8215179927,
				"element": "O" 
			},
			{
				"x": 0.3227376167,
				"y": 1.4594511061,
				"z": -1.821243813,
				"element": "C" 
			},
			{
				"x": 1.0179893348,
				"y": 2.4292128075,
				"z": -1.2031494474,
				"element": "F" 
			},
			{
				"x": -0.902043336,
				"y": 1.9059270376,
				"z": -2.0947025502,
				"element": "F" 
			},
			{
				"x": 0.944842402,
				"y": 1.153157907,
				"z": -2.972286193,
				"element": "F" 
			}
		],
		 "valence_orbital": [ 
			{
				"type": "occ",
				"energy": -0.43671,
				"method": "rhf"
			},
			{
				"type": "occ",
				"energy": -0.43246,
				"method": "rhf"
			},
			{
				"type": "occ",
				"energy": -0.43143,
				"method": "rhf"
			},
			{
				"type": "occ",
				"energy": -0.43054,
				"method": "rhf"
			},
			{
				"type": "occ",
				"energy": -0.31729,
				"method": "rhf"
			},
			{
				"type": "unocc",
				"energy": -0.10182,
				"method": "rhf"
			},
			{
				"type": "unocc",
				"energy": 0.08567,
				"method": "rhf"
			},
			{
				"type": "unocc",
				"energy": 0.13796,
				"method": "rhf"
			},
			{
				"type": "unocc",
				"energy": 0.16095,
				"method": "rhf"
			},
			{
				"type": "unocc",
				"energy": 0.16548,
				"method": "rhf"
			}
		],
		"cosmo_sigma_profile": { 
			"-0.025": 0.0,
			"-0.024": 0.0,
			"-0.023": 0.0,
			"-0.022": 0.0,
			"-0.021": 0.0,
			"-0.02": 0.0,
			"-0.019": 0.0,
			"-0.018": 0.0,
			"-0.017": 0.0,
			"-0.016": 0.0,
			"-0.015": 0.0,
			"-0.014": 0.0,
			"-0.013": 0.0,
			"-0.012": 0.0116644488364,
			"-0.011": 0.663712339701,
			"-0.01": 1.11853133236,
			"-0.009": 1.29410218141,
			"-0.008": 2.56750388473,
			"-0.007": 2.64749627472,
			"-0.006": 2.61513240964,
			"-0.005": 2.55396748195,
			"-0.004": 4.15369551617,
			"-0.003": 5.5067249525,
			"-0.002": 7.62762951385,
			"-0.001": 10.6244390351,
			"0.0": 24.8721087811,
			"0.001": 53.2813962936,
			"0.002": 11.2463516342,
			"0.003": 3.09371651906,
			"0.004": 2.71544124958,
			"0.005": 2.66916420464,
			"0.006": 3.88220022297,
			"0.007": 3.11825006546,
			"0.008": 0.158253704467,
			"0.009": 0.0,
			"0.01": 0.0,
			"0.011": 0.0,
			"0.012": 0.0,
			"0.013": 0.0,
			"0.014": 0.0,
			"0.015": 0.0,
			"0.016": 0.0,
			"0.017": 0.0,
			"0.018": 0.0,
			"0.019": 0.0,
			"0.02": 0.0,
			"0.021": 0.0,
			"0.022": 0.0,
			"0.023": 0.0,
			"0.024": 0.0,
			"0.025": 0.0
		}
	}
}
