{
	 "smiles": "CCCCCCCCCCCC1=C(O)C(=O)C=C(O)C1=O", 
	 "Tm": 415.15, 
	 "num_atms": 47, 
	 "gaussian": { 
		 "optdone": 1, 
		 "sigma_profile": "yes", 
		 "theory": "DFT", 
		 "functional": "B3LYP", 
		 "basiset": "6-31G**", 
		 "properties": { 
			 "R2extent": 10696.7701, 
			 "electric_dipole_moment_norm": 0.69177150852, 
			 "electric_quadrupole_moment_norm": 7.12774788134, 
			 "total_energy": -964.395655533, 
			 "HOMO_LUMO_gap": 0.12495, 
			 "cosmo_polarized_energy": -8.99, 
			 "cosmo_cavitation_energy": 48.68, 
			 "cosmo_dispersion_energy": -32.44, 
			 "cosmo_repulsion_energy": 2.56, 
			 "cosmo_total_nonelectrostatic_energy": 18.8, 
			 "SMD_solvation_energy": 8.75 
		},
		"coords": [
			{
				"x": -3.1507811255,
				"y": 1.6326003153,
				"z": -3.6001321296,
				"element": "C" 
			},
			{
				"x": -1.6649404926,
				"y": 1.5352287582,
				"z": -3.2342099152,
				"element": "C" 
			},
			{
				"x": -0.9243814321,
				"y": 2.884068703,
				"z": -3.221555004,
				"element": "C" 
			},
			{
				"x": -1.4373897505,
				"y": 3.9215182454,
				"z": -2.2049079468,
				"element": "C" 
			},
			{
				"x": -1.3850165594,
				"y": 3.4975878753,
				"z": -0.7265545589,
				"element": "C" 
			},
			{
				"x": 0.0249679265,
				"y": 3.2168504486,
				"z": -0.187558644,
				"element": "C" 
			},
			{
				"x": 0.0364246522,
				"y": 2.8923566661,
				"z": 1.3129878535,
				"element": "C" 
			},
			{
				"x": 1.4366895337,
				"y": 2.6808054283,
				"z": 1.9159092924,
				"element": "C" 
			},
			{
				"x": 2.239824675,
				"y": 1.4922799908,
				"z": 1.3579350348,
				"element": "C" 
			},
			{
				"x": 1.598214678,
				"y": 0.1210830448,
				"z": 1.6068916812,
				"element": "C" 
			},
			{
				"x": 2.4791302285,
				"y": -1.0399973926,
				"z": 1.1000708714,
				"element": "C" 
			},
			{
				"x": 1.8585496258,
				"y": -2.3961310163,
				"z": 1.3147621768,
				"element": "C" 
			},
			{
				"x": 2.1505337823,
				"y": -3.2113950727,
				"z": 2.3657245267,
				"element": "C" 
			},
			{
				"x": 3.0321519268,
				"y": -2.9016898099,
				"z": 3.3127061829,
				"element": "O" 
			},
			{
				"x": 1.5169897694,
				"y": -4.5754494955,
				"z": 2.5847505286,
				"element": "C" 
			},
			{
				"x": 1.9069128752,
				"y": -5.1873592134,
				"z": 3.5841346757,
				"element": "O" 
			},
			{
				"x": 0.5344791723,
				"y": -5.0531105974,
				"z": 1.6441014442,
				"element": "C" 
			},
			{
				"x": 0.2242716153,
				"y": -4.2522768739,
				"z": 0.5952408213,
				"element": "C" 
			},
			{
				"x": -0.6565586414,
				"y": -4.558521477,
				"z": -0.3468798581,
				"element": "O" 
			},
			{
				"x": 0.8653603758,
				"y": -2.8872445027,
				"z": 0.3818035194,
				"element": "C" 
			},
			{
				"x": 0.4736140705,
				"y": -2.2764578317,
				"z": -0.6194926393,
				"element": "O" 
			},
			{
				"x": -3.7171889267,
				"y": 2.2110977684,
				"z": -2.8627957181,
				"element": "H" 
			},
			{
				"x": -3.2867796819,
				"y": 2.1174606923,
				"z": -4.5741613007,
				"element": "H" 
			},
			{
				"x": -3.6086014774,
				"y": 0.6394396784,
				"z": -3.6576856656,
				"element": "H" 
			},
			{
				"x": -1.1631946759,
				"y": 0.8752203434,
				"z": -3.9533787716,
				"element": "H" 
			},
			{
				"x": -1.5603526964,
				"y": 1.0426367999,
				"z": -2.2589167027,
				"element": "H" 
			},
			{
				"x": -0.986377193,
				"y": 3.3281916865,
				"z": -4.2247680225,
				"element": "H" 
			},
			{
				"x": 0.1425120814,
				"y": 2.6974318001,
				"z": -3.0449464597,
				"element": "H" 
			},
			{
				"x": -2.4709526743,
				"y": 4.1933024574,
				"z": -2.4543977712,
				"element": "H" 
			},
			{
				"x": -0.8509698775,
				"y": 4.8425027621,
				"z": -2.3279096162,
				"element": "H" 
			},
			{
				"x": -1.8412325452,
				"y": 4.2943731064,
				"z": -0.1231207457,
				"element": "H" 
			},
			{
				"x": -2.0138169923,
				"y": 2.6105284335,
				"z": -0.5695006862,
				"element": "H" 
			},
			{
				"x": 0.6652052745,
				"y": 4.0919852566,
				"z": -0.3735687909,
				"element": "H" 
			},
			{
				"x": 0.4739029639,
				"y": 2.3876265336,
				"z": -0.7478760426,
				"element": "H" 
			},
			{
				"x": -0.5877180002,
				"y": 2.0073417633,
				"z": 1.4964180842,
				"element": "H" 
			},
			{
				"x": -0.4500524039,
				"y": 3.7144629,
				"z": 1.8554772659,
				"element": "H" 
			},
			{
				"x": 1.336233395,
				"y": 2.5566882757,
				"z": 3.0028844132,
				"element": "H" 
			},
			{
				"x": 2.0244697314,
				"y": 3.5973757093,
				"z": 1.7701561426,
				"element": "H" 
			},
			{
				"x": 3.2380992372,
				"y": 1.5041276861,
				"z": 1.8163370613,
				"element": "H" 
			},
			{
				"x": 2.4044314498,
				"y": 1.623435501,
				"z": 0.2802563762,
				"element": "H" 
			},
			{
				"x": 0.6234271582,
				"y": 0.0629707841,
				"z": 1.1094584825,
				"element": "H" 
			},
			{
				"x": 1.413347871,
				"y": -0.0098269471,
				"z": 2.6814343955,
				"element": "H" 
			},
			{
				"x": 2.658033812,
				"y": -0.906289624,
				"z": 0.0271038383,
				"element": "H" 
			},
			{
				"x": 3.4511654151,
				"y": -1.0095229542,
				"z": 1.6027926813,
				"element": "H" 
			},
			{
				"x": 3.0280678746,
				"y": -3.6856384348,
				"z": 3.9119028951,
				"element": "H" 
			},
			{
				"x": 0.0787942085,
				"y": -6.0238213852,
				"z": 1.7969021364,
				"element": "H" 
			},
			{
				"x": -0.6490002337,
				"y": -3.7775467852,
				"z": -0.950225392,
				"element": "H" 
			}
		],
		 "valence_orbital": [ 
			{
				"type": "occ",
				"energy": -0.2998,
				"method": "rhf"
			},
			{
				"type": "occ",
				"energy": -0.298,
				"method": "rhf"
			},
			{
				"type": "occ",
				"energy": -0.28595,
				"method": "rhf"
			},
			{
				"type": "occ",
				"energy": -0.27851,
				"method": "rhf"
			},
			{
				"type": "occ",
				"energy": -0.24689,
				"method": "rhf"
			},
			{
				"type": "unocc",
				"energy": -0.12194,
				"method": "rhf"
			},
			{
				"type": "unocc",
				"energy": -0.00044,
				"method": "rhf"
			},
			{
				"type": "unocc",
				"energy": 0.01161,
				"method": "rhf"
			},
			{
				"type": "unocc",
				"energy": 0.07144,
				"method": "rhf"
			},
			{
				"type": "unocc",
				"energy": 0.08246,
				"method": "rhf"
			}
		],
		"cosmo_sigma_profile": { 
			"-0.025": 0.0,
			"-0.024": 0.0,
			"-0.023": 0.0,
			"-0.022": 0.0,
			"-0.021": 0.0,
			"-0.02": 0.0,
			"-0.019": 0.0,
			"-0.018": 0.0,
			"-0.017": 0.0,
			"-0.016": 0.0,
			"-0.015": 0.0221072454752,
			"-0.014": 0.795862491061,
			"-0.013": 0.867659027634,
			"-0.012": 0.814684573384,
			"-0.011": 1.45585758062,
			"-0.01": 2.26079072474,
			"-0.009": 1.17741365389,
			"-0.008": 3.33783918401,
			"-0.007": 3.70685548388,
			"-0.006": 7.02809539602,
			"-0.005": 9.41072757806,
			"-0.004": 9.00177342622,
			"-0.003": 12.8491784028,
			"-0.002": 46.2413647273,
			"-0.001": 68.6461794213,
			"0.0": 73.784854387,
			"0.001": 60.7110387393,
			"0.002": 25.7185772281,
			"0.003": 5.10066978417,
			"0.004": 7.40483688987,
			"0.005": 5.56821181765,
			"0.006": 4.20118957158,
			"0.007": 6.28374295547,
			"0.008": 7.12977242345,
			"0.009": 6.18155477655,
			"0.01": 4.42289853172,
			"0.011": 3.11099937896,
			"0.012": 1.05542737585,
			"0.013": 0.0185448411235,
			"0.014": 0.0,
			"0.015": 0.0,
			"0.016": 0.0,
			"0.017": 0.0,
			"0.018": 0.0,
			"0.019": 0.0,
			"0.02": 0.0,
			"0.021": 0.0,
			"0.022": 0.0,
			"0.023": 0.0,
			"0.024": 0.0,
			"0.025": 0.0
		}
	}
}
