{
	 "smiles": "COC(=O)[C@@H]1[C@H]2CC[C@@H](C[C@@H]1OC(=O)C1=CC=CC=C1)N2C", 
	 "Tm": 368.95, 
	 "num_atms": 43, 
	 "gaussian": { 
		 "optdone": 1, 
		 "sigma_profile": "yes", 
		 "theory": "DFT", 
		 "functional": "B3LYP", 
		 "basiset": "6-31G**", 
		 "properties": { 
			 "R2extent": 7827.92, 
			 "electric_dipole_moment_norm": 0.994679516226, 
			 "electric_quadrupole_moment_norm": 15.1009090713, 
			 "total_energy": -1016.12299366, 
			 "HOMO_LUMO_gap": 0.17111, 
			 "cosmo_polarized_energy": -14.4, 
			 "cosmo_cavitation_energy": 44.17, 
			 "cosmo_dispersion_energy": -29.37, 
			 "cosmo_repulsion_energy": 2.25, 
			 "cosmo_total_nonelectrostatic_energy": 17.05, 
			 "SMD_solvation_energy": 7.66 
		},
		"coords": [
			{
				"x": -1.0354317187,
				"y": -3.8868508466,
				"z": 3.0074890729,
				"element": "C" 
			},
			{
				"x": -1.6013132885,
				"y": -3.1793188393,
				"z": 1.8915380316,
				"element": "O" 
			},
			{
				"x": -0.7643251721,
				"y": -2.9691438191,
				"z": 0.8526196259,
				"element": "C" 
			},
			{
				"x": 0.371806037,
				"y": -3.3882827254,
				"z": 0.8161899392,
				"element": "O" 
			},
			{
				"x": -1.4638103819,
				"y": -2.1694311449,
				"z": -0.2440035433,
				"element": "C" 
			},
			{
				"x": -0.5682230521,
				"y": -1.9925243535,
				"z": -1.501761087,
				"element": "C" 
			},
			{
				"x": -1.3705417254,
				"y": -2.2157231126,
				"z": -2.8196439332,
				"element": "C" 
			},
			{
				"x": -1.924725423,
				"y": -0.8037502642,
				"z": -3.1495993573,
				"element": "C" 
			},
			{
				"x": -1.3499543611,
				"y": 0.0934909058,
				"z": -2.0069397171,
				"element": "C" 
			},
			{
				"x": -2.3049579385,
				"y": 0.1905793156,
				"z": -0.7866396163,
				"element": "C" 
			},
			{
				"x": -1.9719514523,
				"y": -0.8231319944,
				"z": 0.3208473572,
				"element": "C" 
			},
			{
				"x": -0.9253536827,
				"y": -0.3160135023,
				"z": 1.1889701296,
				"element": "O" 
			},
			{
				"x": -1.3063737303,
				"y": 0.476181149,
				"z": 2.2143554914,
				"element": "C" 
			},
			{
				"x": -2.4566929546,
				"y": 0.8256344959,
				"z": 2.408794118,
				"element": "O" 
			},
			{
				"x": -0.1511039392,
				"y": 0.86968472,
				"z": 3.0718657109,
				"element": "C" 
			},
			{
				"x": -0.4033879116,
				"y": 1.6989710804,
				"z": 4.1730505928,
				"element": "C" 
			},
			{
				"x": 0.6422876814,
				"y": 2.0898965305,
				"z": 5.0057362078,
				"element": "C" 
			},
			{
				"x": 1.9441518487,
				"y": 1.6545817278,
				"z": 4.7421429702,
				"element": "C" 
			},
			{
				"x": 2.1983841382,
				"y": 0.8280343313,
				"z": 3.6446445977,
				"element": "C" 
			},
			{
				"x": 1.1554725773,
				"y": 0.4339149739,
				"z": 2.8074322914,
				"element": "C" 
			},
			{
				"x": -0.1224949128,
				"y": -0.5895539539,
				"z": -1.558666229,
				"element": "N" 
			},
			{
				"x": 1.035688502,
				"y": -0.3711625137,
				"z": -2.4174832085,
				"element": "C" 
			},
			{
				"x": -0.6812799462,
				"y": -4.8735125176,
				"z": 2.6989509247,
				"element": "H" 
			},
			{
				"x": -0.1980249061,
				"y": -3.3258142422,
				"z": 3.429724438,
				"element": "H" 
			},
			{
				"x": -1.8402475613,
				"y": -3.977909576,
				"z": 3.7366697566,
				"element": "H" 
			},
			{
				"x": -2.3588244628,
				"y": -2.7470482222,
				"z": -0.5083896067,
				"element": "H" 
			},
			{
				"x": 0.2935215074,
				"y": -2.6558492844,
				"z": -1.4092868205,
				"element": "H" 
			},
			{
				"x": -2.1549477827,
				"y": -2.9708974252,
				"z": -2.7115181832,
				"element": "H" 
			},
			{
				"x": -0.7023867252,
				"y": -2.567320428,
				"z": -3.6114410858,
				"element": "H" 
			},
			{
				"x": -1.564725756,
				"y": -0.4605451512,
				"z": -4.1241890827,
				"element": "H" 
			},
			{
				"x": -3.0176521985,
				"y": -0.7723821237,
				"z": -3.1874488341,
				"element": "H" 
			},
			{
				"x": -1.10804895,
				"y": 1.0984302548,
				"z": -2.3644534442,
				"element": "H" 
			},
			{
				"x": -3.3431592116,
				"y": 0.0340931233,
				"z": -1.1017319186,
				"element": "H" 
			},
			{
				"x": -2.2688839012,
				"y": 1.187192068,
				"z": -0.3399756455,
				"element": "H" 
			},
			{
				"x": -2.8491793848,
				"y": -0.9855788615,
				"z": 0.9482936219,
				"element": "H" 
			},
			{
				"x": -1.4228146136,
				"y": 2.0222622507,
				"z": 4.35523269,
				"element": "H" 
			},
			{
				"x": 0.4451344095,
				"y": 2.7327258408,
				"z": 5.8587087996,
				"element": "H" 
			},
			{
				"x": 2.7599621959,
				"y": 1.9595331024,
				"z": 5.3917328247,
				"element": "H" 
			},
			{
				"x": 3.2104072612,
				"y": 0.4905035014,
				"z": 3.4408659059,
				"element": "H" 
			},
			{
				"x": 1.340597026,
				"y": -0.206623044,
				"z": 1.9525870333,
				"element": "H" 
			},
			{
				"x": 1.2982222625,
				"y": 0.6914924928,
				"z": -2.4026934896,
				"element": "H" 
			},
			{
				"x": 1.8874065185,
				"y": -0.931228073,
				"z": -2.0195879936,
				"element": "H" 
			},
			{
				"x": 0.8985750793,
				"y": -0.6691058455,
				"z": -3.4725893351,
				"element": "H" 
			}
		],
		 "valence_orbital": [ 
			{
				"type": "occ",
				"energy": -0.27122,
				"method": "rhf"
			},
			{
				"type": "occ",
				"energy": -0.26652,
				"method": "rhf"
			},
			{
				"type": "occ",
				"energy": -0.25393,
				"method": "rhf"
			},
			{
				"type": "occ",
				"energy": -0.25299,
				"method": "rhf"
			},
			{
				"type": "occ",
				"energy": -0.21051,
				"method": "rhf"
			},
			{
				"type": "unocc",
				"energy": -0.0394,
				"method": "rhf"
			},
			{
				"type": "unocc",
				"energy": -0.00259,
				"method": "rhf"
			},
			{
				"type": "unocc",
				"energy": 0.013,
				"method": "rhf"
			},
			{
				"type": "unocc",
				"energy": 0.06409,
				"method": "rhf"
			},
			{
				"type": "unocc",
				"energy": 0.06585,
				"method": "rhf"
			}
		],
		"cosmo_sigma_profile": { 
			"-0.025": 0.0,
			"-0.024": 0.0,
			"-0.023": 0.0,
			"-0.022": 0.0,
			"-0.021": 0.0,
			"-0.02": 0.0,
			"-0.019": 0.0,
			"-0.018": 0.0,
			"-0.017": 0.0,
			"-0.016": 0.0,
			"-0.015": 0.0,
			"-0.014": 0.0,
			"-0.013": 0.0,
			"-0.012": 0.0,
			"-0.011": 0.0,
			"-0.01": 0.0,
			"-0.009": 0.0,
			"-0.008": 0.0,
			"-0.007": 3.21257124113,
			"-0.006": 17.1210981462,
			"-0.005": 21.9682516515,
			"-0.004": 32.381086765,
			"-0.003": 42.1249474789,
			"-0.002": 38.3803611477,
			"-0.001": 35.3520644104,
			"0.0": 30.6507506754,
			"0.001": 25.0859714753,
			"0.002": 17.8226287947,
			"0.003": 17.1329320848,
			"0.004": 18.0712312131,
			"0.005": 7.77721678815,
			"0.006": 5.32581862009,
			"0.007": 5.15581300612,
			"0.008": 5.06968317557,
			"0.009": 3.78886972448,
			"0.01": 4.19784112321,
			"0.011": 6.79575094713,
			"0.012": 7.86999266978,
			"0.013": 0.926770810655,
			"0.014": 0.585851018843,
			"0.015": 0.397656711911,
			"0.016": 0.0148949087682,
			"0.017": 0.0,
			"0.018": 0.0,
			"0.019": 0.0,
			"0.02": 0.0,
			"0.021": 0.0,
			"0.022": 0.0,
			"0.023": 0.0,
			"0.024": 0.0,
			"0.025": 0.0
		}
	}
}
