{
	 "smiles": "CC1=CC(=O)C(=NN1C1=CC=C(Cl)C=C1)C(O)=O", 
	 "Tm": 290.15, 
	 "num_atms": 27, 
	 "gaussian": { 
		 "optdone": 1, 
		 "sigma_profile": "yes", 
		 "theory": "DFT", 
		 "functional": "B3LYP", 
		 "basiset": "6-31G**", 
		 "properties": { 
			 "R2extent": 6418.6467, 
			 "electric_dipole_moment_norm": 5.01016793331, 
			 "electric_quadrupole_moment_norm": 22.1015883474, 
			 "total_energy": -1258.0371676, 
			 "HOMO_LUMO_gap": 0.17134, 
			 "cosmo_polarized_energy": -22.9, 
			 "cosmo_cavitation_energy": 34.84, 
			 "cosmo_dispersion_energy": -24.6, 
			 "cosmo_repulsion_energy": 1.92, 
			 "cosmo_total_nonelectrostatic_energy": 12.16, 
			 "SMD_solvation_energy": 7.12 
		},
		"coords": [
			{
				"x": -2.2091782484,
				"y": -0.7324571407,
				"z": -1.7396709332,
				"element": "C" 
			},
			{
				"x": -1.1256564917,
				"y": -1.182169438,
				"z": -0.7962856057,
				"element": "C" 
			},
			{
				"x": -0.9140476632,
				"y": -2.4957122485,
				"z": -0.4991325962,
				"element": "C" 
			},
			{
				"x": 0.1777232484,
				"y": -2.9364409937,
				"z": 0.3508918722,
				"element": "C" 
			},
			{
				"x": 0.4288361663,
				"y": -4.1108315061,
				"z": 0.6153407051,
				"element": "O" 
			},
			{
				"x": 0.9995584473,
				"y": -1.7942895176,
				"z": 0.8233076933,
				"element": "C" 
			},
			{
				"x": 0.7818744284,
				"y": -0.5471015276,
				"z": 0.5197503613,
				"element": "N" 
			},
			{
				"x": -0.279741853,
				"y": -0.2287768109,
				"z": -0.2463123914,
				"element": "N" 
			},
			{
				"x": -0.4086879835,
				"y": 1.1856596269,
				"z": -0.4847646408,
				"element": "C" 
			},
			{
				"x": -1.5447245207,
				"y": 1.8767734443,
				"z": -0.0595433152,
				"element": "C" 
			},
			{
				"x": -1.6482435161,
				"y": 3.2493516175,
				"z": -0.2818049929,
				"element": "C" 
			},
			{
				"x": -0.5999026229,
				"y": 3.9189476609,
				"z": -0.9127561784,
				"element": "C" 
			},
			{
				"x": -0.7251015899,
				"y": 5.6452994693,
				"z": -1.1919134145,
				"element": "Cl" 
			},
			{
				"x": 0.5506006605,
				"y": 3.2396890065,
				"z": -1.3171933856,
				"element": "C" 
			},
			{
				"x": 0.6431297347,
				"y": 1.866781198,
				"z": -1.1018110129,
				"element": "C" 
			},
			{
				"x": 2.2316719859,
				"y": -2.0086152127,
				"z": 1.6641922428,
				"element": "C" 
			},
			{
				"x": 1.9920904291,
				"y": -2.8289953682,
				"z": 2.702570436,
				"element": "O" 
			},
			{
				"x": 3.3039534207,
				"y": -1.4913355875,
				"z": 1.445793876,
				"element": "O" 
			},
			{
				"x": -2.6414575579,
				"y": -1.6075156629,
				"z": -2.2274573627,
				"element": "H" 
			},
			{
				"x": -1.8145435259,
				"y": -0.062875867,
				"z": -2.5097381123,
				"element": "H" 
			},
			{
				"x": -3.0137426607,
				"y": -0.1989447234,
				"z": -1.2254651768,
				"element": "H" 
			},
			{
				"x": -1.553742407,
				"y": -3.2564240043,
				"z": -0.932266296,
				"element": "H" 
			},
			{
				"x": -2.3372266249,
				"y": 1.3527400956,
				"z": 0.464007919,
				"element": "H" 
			},
			{
				"x": -2.5250367404,
				"y": 3.7960630749,
				"z": 0.0459137539,
				"element": "H" 
			},
			{
				"x": 1.3608673581,
				"y": 3.7780737067,
				"z": -1.7953880265,
				"element": "H" 
			},
			{
				"x": 1.5325985965,
				"y": 1.3212912667,
				"z": -1.3971770501,
				"element": "H" 
			},
			{
				"x": 2.8390295304,
				"y": -2.9308845582,
				"z": 3.1694116313,
				"element": "H" 
			}
		],
		 "valence_orbital": [ 
			{
				"type": "occ",
				"energy": -0.28806,
				"method": "rhf"
			},
			{
				"type": "occ",
				"energy": -0.27737,
				"method": "rhf"
			},
			{
				"type": "occ",
				"energy": -0.27331,
				"method": "rhf"
			},
			{
				"type": "occ",
				"energy": -0.23602,
				"method": "rhf"
			},
			{
				"type": "occ",
				"energy": -0.23363,
				"method": "rhf"
			},
			{
				"type": "unocc",
				"energy": -0.06229,
				"method": "rhf"
			},
			{
				"type": "unocc",
				"energy": -0.04771,
				"method": "rhf"
			},
			{
				"type": "unocc",
				"energy": -0.038,
				"method": "rhf"
			},
			{
				"type": "unocc",
				"energy": -0.02739,
				"method": "rhf"
			},
			{
				"type": "unocc",
				"energy": 0.01268,
				"method": "rhf"
			}
		],
		"cosmo_sigma_profile": { 
			"-0.025": 0.0,
			"-0.024": 0.0,
			"-0.023": 0.0,
			"-0.022": 0.0,
			"-0.021": 0.0,
			"-0.02": 0.0,
			"-0.019": 0.319698549158,
			"-0.018": 1.40429923954,
			"-0.017": 0.666660978978,
			"-0.016": 0.624804482469,
			"-0.015": 0.868463899859,
			"-0.014": 1.11179811917,
			"-0.013": 0.256249793641,
			"-0.012": 0.399012472973,
			"-0.011": 1.24645409464,
			"-0.01": 0.782588701907,
			"-0.009": 2.71268377661,
			"-0.008": 10.1602187504,
			"-0.007": 14.7494286946,
			"-0.006": 16.4006141011,
			"-0.005": 16.1932628374,
			"-0.004": 16.2987302953,
			"-0.003": 19.6746778732,
			"-0.002": 21.3355971594,
			"-0.001": 15.8520438791,
			"0.0": 19.0848889454,
			"0.001": 23.537257029,
			"0.002": 19.4397088687,
			"0.003": 10.3191608997,
			"0.004": 14.2845280514,
			"0.005": 6.12699999844,
			"0.006": 3.67474909296,
			"0.007": 4.52467586852,
			"0.008": 4.59596033518,
			"0.009": 4.81248525375,
			"0.01": 5.81001885288,
			"0.011": 7.59554258829,
			"0.012": 4.85777730705,
			"0.013": 4.40478201211,
			"0.014": 5.47778117441,
			"0.015": 2.08190501335,
			"0.016": 0.0185127904308,
			"0.017": 0.0,
			"0.018": 0.0,
			"0.019": 0.0,
			"0.02": 0.0,
			"0.021": 0.0,
			"0.022": 0.0,
			"0.023": 0.0,
			"0.024": 0.0,
			"0.025": 0.0
		}
	}
}
