{
	 "smiles": "NC(=NO)C1=CC(CN2CCOCC2)=CC=C1", 
	 "Tm": 429.15, 
	 "num_atms": 34, 
	 "gaussian": { 
		 "optdone": 1, 
		 "sigma_profile": "yes", 
		 "theory": "DFT", 
		 "functional": "B3LYP", 
		 "basiset": "6-31G**", 
		 "properties": { 
			 "R2extent": 5253.7146, 
			 "electric_dipole_moment_norm": 2.50115459938, 
			 "electric_quadrupole_moment_norm": 9.99177716675, 
			 "total_energy": -782.135315044, 
			 "HOMO_LUMO_gap": 0.17292, 
			 "cosmo_polarized_energy": -15.91, 
			 "cosmo_cavitation_energy": 35.83, 
			 "cosmo_dispersion_energy": -25.72, 
			 "cosmo_repulsion_energy": 2.05, 
			 "cosmo_total_nonelectrostatic_energy": 12.15, 
			 "SMD_solvation_energy": 3.61 
		},
		"coords": [
			{
				"x": -0.6784488008,
				"y": 1.6037972384,
				"z": -3.4549610165,
				"element": "N" 
			},
			{
				"x": 0.6649667709,
				"y": 1.5308112836,
				"z": -3.0592005408,
				"element": "C" 
			},
			{
				"x": 1.4221854458,
				"y": 2.4858877751,
				"z": -3.4849878103,
				"element": "N" 
			},
			{
				"x": 2.7122967657,
				"y": 2.4772617965,
				"z": -2.903015999,
				"element": "O" 
			},
			{
				"x": 1.0071771539,
				"y": 0.3959251925,
				"z": -2.1620981806,
				"element": "C" 
			},
			{
				"x": 0.027027103,
				"y": -0.106733236,
				"z": -1.2913719094,
				"element": "C" 
			},
			{
				"x": 0.2785386724,
				"y": -1.2010355705,
				"z": -0.4548638023,
				"element": "C" 
			},
			{
				"x": -0.7820646554,
				"y": -1.6894827616,
				"z": 0.5257865115,
				"element": "C" 
			},
			{
				"x": -0.8435401696,
				"y": -1.0092957629,
				"z": 1.8191607801,
				"element": "N" 
			},
			{
				"x": -1.2834572344,
				"y": 0.3777523801,
				"z": 1.8064333935,
				"element": "C" 
			},
			{
				"x": -1.755700247,
				"y": 0.75299987,
				"z": 3.2250881132,
				"element": "C" 
			},
			{
				"x": -0.9876683862,
				"y": 0.118387575,
				"z": 4.2464553096,
				"element": "O" 
			},
			{
				"x": 0.3269287335,
				"y": -0.1797443539,
				"z": 3.8173316175,
				"element": "C" 
			},
			{
				"x": 0.3203070878,
				"y": -1.2215682885,
				"z": 2.6839679256,
				"element": "C" 
			},
			{
				"x": 1.5371990408,
				"y": -1.8125870494,
				"z": -0.5224952811,
				"element": "C" 
			},
			{
				"x": 2.5205867463,
				"y": -1.3274883068,
				"z": -1.3875362306,
				"element": "C" 
			},
			{
				"x": 2.2671064687,
				"y": -0.2251391644,
				"z": -2.1992593321,
				"element": "C" 
			},
			{
				"x": -1.0500963699,
				"y": 0.7253282851,
				"z": -3.7985833608,
				"element": "H" 
			},
			{
				"x": -0.8299930544,
				"y": 2.3609018009,
				"z": -4.1125017835,
				"element": "H" 
			},
			{
				"x": 3.1044046744,
				"y": 3.2626382026,
				"z": -3.304906095,
				"element": "H" 
			},
			{
				"x": -0.9456065827,
				"y": 0.3756225388,
				"z": -1.269961312,
				"element": "H" 
			},
			{
				"x": -0.6185046829,
				"y": -2.7560207973,
				"z": 0.7276533309,
				"element": "H" 
			},
			{
				"x": -1.7725384995,
				"y": -1.5994967016,
				"z": 0.0626957024,
				"element": "H" 
			},
			{
				"x": -2.1276041764,
				"y": 0.4787641029,
				"z": 1.1147469379,
				"element": "H" 
			},
			{
				"x": -0.5076819815,
				"y": 1.0814895668,
				"z": 1.4541353722,
				"element": "H" 
			},
			{
				"x": -2.7876447188,
				"y": 0.4212899344,
				"z": 3.378455749,
				"element": "H" 
			},
			{
				"x": -1.7232340716,
				"y": 1.8480207133,
				"z": 3.3475770348,
				"element": "H" 
			},
			{
				"x": 0.8643949349,
				"y": -0.5681609427,
				"z": 4.686980973,
				"element": "H" 
			},
			{
				"x": 0.8482669338,
				"y": 0.7349195022,
				"z": 3.4916123893,
				"element": "H" 
			},
			{
				"x": 1.2800620971,
				"y": -1.1418072533,
				"z": 2.1428675572,
				"element": "H" 
			},
			{
				"x": 0.2608592024,
				"y": -2.2376253037,
				"z": 3.0976761321,
				"element": "H" 
			},
			{
				"x": 1.7445478088,
				"y": -2.6813845943,
				"z": 0.0978530572,
				"element": "H" 
			},
			{
				"x": 3.4901670913,
				"y": -1.8154612342,
				"z": -1.4322837325,
				"element": "H" 
			},
			{
				"x": 3.0315608995,
				"y": 0.156933563,
				"z": -2.8629515005,
				"element": "H" 
			}
		],
		 "valence_orbital": [ 
			{
				"type": "occ",
				"energy": -0.25635,
				"method": "rhf"
			},
			{
				"type": "occ",
				"energy": -0.24893,
				"method": "rhf"
			},
			{
				"type": "occ",
				"energy": -0.24103,
				"method": "rhf"
			},
			{
				"type": "occ",
				"energy": -0.20987,
				"method": "rhf"
			},
			{
				"type": "occ",
				"energy": -0.20271,
				"method": "rhf"
			},
			{
				"type": "unocc",
				"energy": -0.02979,
				"method": "rhf"
			},
			{
				"type": "unocc",
				"energy": -0.00615,
				"method": "rhf"
			},
			{
				"type": "unocc",
				"energy": 0.05451,
				"method": "rhf"
			},
			{
				"type": "unocc",
				"energy": 0.07716,
				"method": "rhf"
			},
			{
				"type": "unocc",
				"energy": 0.08337,
				"method": "rhf"
			}
		],
		"cosmo_sigma_profile": { 
			"-0.025": 0.0,
			"-0.024": 0.0,
			"-0.023": 0.0,
			"-0.022": 0.0,
			"-0.021": 0.0,
			"-0.02": 0.0,
			"-0.019": 0.0,
			"-0.018": 0.0,
			"-0.017": 0.167076640924,
			"-0.016": 1.01291255768,
			"-0.015": 0.898391135254,
			"-0.014": 1.04699756746,
			"-0.013": 0.893002154451,
			"-0.012": 2.46674807907,
			"-0.011": 3.2164111034,
			"-0.01": 3.18250072201,
			"-0.009": 2.77846309555,
			"-0.008": 3.04415342883,
			"-0.007": 2.36042675236,
			"-0.006": 4.85153667313,
			"-0.005": 16.9766900165,
			"-0.004": 26.1706867922,
			"-0.003": 34.820319405,
			"-0.002": 29.4397042501,
			"-0.001": 21.5753965824,
			"0.0": 16.1865754083,
			"0.001": 12.0869396754,
			"0.002": 12.8407355928,
			"0.003": 11.5222706416,
			"0.004": 13.6275759968,
			"0.005": 12.9017812243,
			"0.006": 7.50287503488,
			"0.007": 6.26764523216,
			"0.008": 6.77011501436,
			"0.009": 5.22792325515,
			"0.01": 4.21749907638,
			"0.011": 5.33613797589,
			"0.012": 5.07038961373,
			"0.013": 3.58112603747,
			"0.014": 1.98899055754,
			"0.015": 0.285411938922,
			"0.016": 0.0,
			"0.017": 0.0,
			"0.018": 0.0,
			"0.019": 0.0,
			"0.02": 0.0,
			"0.021": 0.0,
			"0.022": 0.0,
			"0.023": 0.0,
			"0.024": 0.0,
			"0.025": 0.0
		}
	}
}
