{
	 "smiles": "CC(C)(C)OC(=O)NCC1=C(Br)SC=C1", 
	 "Tm": 344.65, 
	 "num_atms": 29, 
	 "gaussian": { 
		 "optdone": 1, 
		 "sigma_profile": "yes", 
		 "theory": "DFT", 
		 "functional": "B3LYP", 
		 "basiset": "6-31G**", 
		 "properties": { 
			 "R2extent": 8207.2794, 
			 "electric_dipole_moment_norm": 1.74722092764, 
			 "electric_quadrupole_moment_norm": 7.47907915455, 
			 "total_energy": -3564.31298108, 
			 "HOMO_LUMO_gap": 0.20887, 
			 "cosmo_polarized_energy": -8.75, 
			 "cosmo_cavitation_energy": 35.79, 
			 "cosmo_dispersion_energy": -25.89, 
			 "cosmo_repulsion_energy": 2.01, 
			 "cosmo_total_nonelectrostatic_energy": 11.92, 
			 "SMD_solvation_energy": 5.19 
		},
		"coords": [
			{
				"x": 0.9899609927,
				"y": 3.3836536333,
				"z": -1.183646546,
				"element": "C" 
			},
			{
				"x": 0.9044089512,
				"y": 1.9846295003,
				"z": -1.8028473208,
				"element": "C" 
			},
			{
				"x": -0.5218552724,
				"y": 1.6263045077,
				"z": -2.2339709516,
				"element": "C" 
			},
			{
				"x": 1.8770257911,
				"y": 1.8489542279,
				"z": -2.9773194564,
				"element": "C" 
			},
			{
				"x": 1.4115156495,
				"y": 0.9822048045,
				"z": -0.8521038009,
				"element": "O" 
			},
			{
				"x": 0.8110222882,
				"y": 0.7898692237,
				"z": 0.3456740506,
				"element": "C" 
			},
			{
				"x": -0.1798665705,
				"y": 1.3726454337,
				"z": 0.7648216671,
				"element": "O" 
			},
			{
				"x": 1.499128572,
				"y": -0.1588143554,
				"z": 1.0515535245,
				"element": "N" 
			},
			{
				"x": 0.9868700173,
				"y": -0.6795129461,
				"z": 2.3132174224,
				"element": "C" 
			},
			{
				"x": 0.0254428832,
				"y": -1.8346125082,
				"z": 2.1549486405,
				"element": "C" 
			},
			{
				"x": 0.2869714918,
				"y": -3.1453897478,
				"z": 2.4589464692,
				"element": "C" 
			},
			{
				"x": 1.8911582418,
				"y": -3.8616866048,
				"z": 3.1618190929,
				"element": "Br" 
			},
			{
				"x": -1.0561470972,
				"y": -4.2031933372,
				"z": 2.132129869,
				"element": "S" 
			},
			{
				"x": -2.0004784294,
				"y": -2.8575867884,
				"z": 1.5660287913,
				"element": "C" 
			},
			{
				"x": -1.3069121016,
				"y": -1.6855628687,
				"z": 1.6364077788,
				"element": "C" 
			},
			{
				"x": 0.7175171284,
				"y": 4.1345437571,
				"z": -1.9324622923,
				"element": "H" 
			},
			{
				"x": 0.3161700855,
				"y": 3.4750244353,
				"z": -0.3313504303,
				"element": "H" 
			},
			{
				"x": 2.0125065183,
				"y": 3.5901675821,
				"z": -0.8521028488,
				"element": "H" 
			},
			{
				"x": -0.5546870268,
				"y": 0.6049600229,
				"z": -2.6265300005,
				"element": "H" 
			},
			{
				"x": -0.8470199205,
				"y": 2.3058655879,
				"z": -3.0284685799,
				"element": "H" 
			},
			{
				"x": -1.2148533897,
				"y": 1.7066281532,
				"z": -1.3962603026,
				"element": "H" 
			},
			{
				"x": 2.9013032798,
				"y": 2.0603014094,
				"z": -2.6568164207,
				"element": "H" 
			},
			{
				"x": 1.6092748452,
				"y": 2.5537314658,
				"z": -3.7700923999,
				"element": "H" 
			},
			{
				"x": 1.846605628,
				"y": 0.8360266006,
				"z": -3.3893304272,
				"element": "H" 
			},
			{
				"x": 2.1941425404,
				"y": -0.6896376774,
				"z": 0.5474448129,
				"element": "H" 
			},
			{
				"x": 1.836001381,
				"y": -0.9814891039,
				"z": 2.9306141983,
				"element": "H" 
			},
			{
				"x": 0.4819468896,
				"y": 0.1510748117,
				"z": 2.8120905678,
				"element": "H" 
			},
			{
				"x": -3.0127266551,
				"y": -3.0205910338,
				"z": 1.2226160114,
				"element": "H" 
			},
			{
				"x": -1.7016267117,
				"y": -0.7220081853,
				"z": 1.3350888811,
				"element": "H" 
			}
		],
		 "valence_orbital": [ 
			{
				"type": "occ",
				"energy": -0.28943,
				"method": "rhf"
			},
			{
				"type": "occ",
				"energy": -0.27077,
				"method": "rhf"
			},
			{
				"type": "occ",
				"energy": -0.26059,
				"method": "rhf"
			},
			{
				"type": "occ",
				"energy": -0.2505,
				"method": "rhf"
			},
			{
				"type": "occ",
				"energy": -0.23055,
				"method": "rhf"
			},
			{
				"type": "unocc",
				"energy": -0.02168,
				"method": "rhf"
			},
			{
				"type": "unocc",
				"energy": -0.00475,
				"method": "rhf"
			},
			{
				"type": "unocc",
				"energy": 0.02087,
				"method": "rhf"
			},
			{
				"type": "unocc",
				"energy": 0.03986,
				"method": "rhf"
			},
			{
				"type": "unocc",
				"energy": 0.06058,
				"method": "rhf"
			}
		],
		"cosmo_sigma_profile": { 
			"-0.025": 0.0,
			"-0.024": 0.0,
			"-0.023": 0.0,
			"-0.022": 0.0,
			"-0.021": 0.0,
			"-0.02": 0.0,
			"-0.019": 0.0,
			"-0.018": 0.0,
			"-0.017": 0.0,
			"-0.016": 0.0,
			"-0.015": 0.0,
			"-0.014": 0.533089097844,
			"-0.013": 0.908091688236,
			"-0.012": 1.43208918604,
			"-0.011": 0.392655689189,
			"-0.01": 0.842169802001,
			"-0.009": 2.39829124756,
			"-0.008": 3.22431096944,
			"-0.007": 3.75430035542,
			"-0.006": 3.59209938628,
			"-0.005": 8.11003763733,
			"-0.004": 20.1189707759,
			"-0.003": 25.4442430563,
			"-0.002": 23.3657188482,
			"-0.001": 27.9675660411,
			"0.0": 38.2323613802,
			"0.001": 34.4879275118,
			"0.002": 26.5071601543,
			"0.003": 26.6116561366,
			"0.004": 16.0635355378,
			"0.005": 6.71491129449,
			"0.006": 4.07421997516,
			"0.007": 3.62985116785,
			"0.008": 1.74274442555,
			"0.009": 1.69668997362,
			"0.01": 0.636152416269,
			"0.011": 1.58396853064,
			"0.012": 1.65422879633,
			"0.013": 1.92403875325,
			"0.014": 0.192974206408,
			"0.015": 0.0,
			"0.016": 0.0,
			"0.017": 0.0,
			"0.018": 0.0,
			"0.019": 0.0,
			"0.02": 0.0,
			"0.021": 0.0,
			"0.022": 0.0,
			"0.023": 0.0,
			"0.024": 0.0,
			"0.025": 0.0
		}
	}
}
