{
	 "smiles": "NC1=CC(Cl)=C(C=C1Cl)[N+]([O-])=O", 
	 "Tm": 428.15, 
	 "num_atms": 16, 
	 "gaussian": { 
		 "optdone": 1, 
		 "sigma_profile": "yes", 
		 "theory": "DFT", 
		 "functional": "B3LYP", 
		 "basiset": "6-31G**", 
		 "properties": { 
			 "R2extent": 4814.4926, 
			 "electric_dipole_moment_norm": 6.79296789776, 
			 "electric_quadrupole_moment_norm": 20.2353286808, 
			 "total_energy": -1411.27765927, 
			 "HOMO_LUMO_gap": 0.15914, 
			 "cosmo_polarized_energy": -14.41, 
			 "cosmo_cavitation_energy": 24.65, 
			 "cosmo_dispersion_energy": -18.73, 
			 "cosmo_repulsion_energy": 1.49, 
			 "cosmo_total_nonelectrostatic_energy": 7.41, 
			 "SMD_solvation_energy": 5.89 
		},
		"coords": [
			{
				"x": -1.4253481865,
				"y": 1.6119380303,
				"z": -0.6116502343,
				"element": "N" 
			},
			{
				"x": -1.4894507231,
				"y": 0.2485688715,
				"z": -0.5834237916,
				"element": "C" 
			},
			{
				"x": -0.6059745321,
				"y": -0.5368561,
				"z": -1.3480487603,
				"element": "C" 
			},
			{
				"x": -0.6159456667,
				"y": -1.9261411548,
				"z": -1.2993143292,
				"element": "C" 
			},
			{
				"x": 0.5181140834,
				"y": -2.7405885067,
				"z": -2.3417938262,
				"element": "Cl" 
			},
			{
				"x": -1.5480201321,
				"y": -2.5813004044,
				"z": -0.4710302101,
				"element": "C" 
			},
			{
				"x": -2.4485474568,
				"y": -1.8159015552,
				"z": 0.279374106,
				"element": "C" 
			},
			{
				"x": -2.4197501942,
				"y": -0.4376135298,
				"z": 0.2328829565,
				"element": "C" 
			},
			{
				"x": -3.5581991468,
				"y": 0.4886621664,
				"z": 1.1974645623,
				"element": "Cl" 
			},
			{
				"x": -1.6529614837,
				"y": -4.0336396543,
				"z": -0.3198905277,
				"element": "N" 
			},
			{
				"x": -0.7121309047,
				"y": -4.7335504617,
				"z": -0.6847294441,
				"element": "O" 
			},
			{
				"x": -2.6898843933,
				"y": -4.4684388851,
				"z": 0.1897768446,
				"element": "O" 
			},
			{
				"x": -0.8978290007,
				"y": 2.0599600748,
				"z": -1.3433206701,
				"element": "H" 
			},
			{
				"x": -2.1852196477,
				"y": 2.1397040147,
				"z": -0.2110207122,
				"element": "H" 
			},
			{
				"x": 0.11002714,
				"y": -0.0455802584,
				"z": -1.9978583693,
				"element": "H" 
			},
			{
				"x": -3.1686797551,
				"y": -2.3355226474,
				"z": 0.8975824057,
				"element": "H" 
			}
		],
		 "valence_orbital": [ 
			{
				"type": "occ",
				"energy": -0.30359,
				"method": "rhf"
			},
			{
				"type": "occ",
				"energy": -0.30094,
				"method": "rhf"
			},
			{
				"type": "occ",
				"energy": -0.28138,
				"method": "rhf"
			},
			{
				"type": "occ",
				"energy": -0.26895,
				"method": "rhf"
			},
			{
				"type": "occ",
				"energy": -0.2432,
				"method": "rhf"
			},
			{
				"type": "unocc",
				"energy": -0.08406,
				"method": "rhf"
			},
			{
				"type": "unocc",
				"energy": -0.04088,
				"method": "rhf"
			},
			{
				"type": "unocc",
				"energy": -0.00299,
				"method": "rhf"
			},
			{
				"type": "unocc",
				"energy": 0.00398,
				"method": "rhf"
			},
			{
				"type": "unocc",
				"energy": 0.01991,
				"method": "rhf"
			}
		],
		"cosmo_sigma_profile": { 
			"-0.025": 0.0,
			"-0.024": 0.0,
			"-0.023": 0.0,
			"-0.022": 0.0,
			"-0.021": 0.0,
			"-0.02": 0.0,
			"-0.019": 0.0,
			"-0.018": 0.0,
			"-0.017": 0.0,
			"-0.016": 0.0615992936514,
			"-0.015": 1.5386778194,
			"-0.014": 2.47153431893,
			"-0.013": 2.07642545809,
			"-0.012": 2.690067364,
			"-0.011": 3.41169896255,
			"-0.01": 2.1564972653,
			"-0.009": 2.62281773655,
			"-0.008": 3.84457283643,
			"-0.007": 2.95851577975,
			"-0.006": 5.40275562044,
			"-0.005": 5.88630483119,
			"-0.004": 7.43191468916,
			"-0.003": 9.43777026251,
			"-0.002": 11.6630994238,
			"-0.001": 20.4706079487,
			"0.0": 26.3956764309,
			"0.001": 16.0474489123,
			"0.002": 12.0112246474,
			"0.003": 15.6434934549,
			"0.004": 12.437934893,
			"0.005": 3.99365564865,
			"0.006": 4.31412168645,
			"0.007": 5.37470692313,
			"0.008": 10.923412868,
			"0.009": 6.69426999713,
			"0.01": 3.61519990246,
			"0.011": 0.836085605099,
			"0.012": 0.0,
			"0.013": 0.0,
			"0.014": 0.0,
			"0.015": 0.0,
			"0.016": 0.0,
			"0.017": 0.0,
			"0.018": 0.0,
			"0.019": 0.0,
			"0.02": 0.0,
			"0.021": 0.0,
			"0.022": 0.0,
			"0.023": 0.0,
			"0.024": 0.0,
			"0.025": 0.0
		}
	}
}
