{
	 "smiles": "O=CC1=C2C=CC=CC2=CC=N1", 
	 "Tm": 325.15, 
	 "num_atms": 19, 
	 "gaussian": { 
		 "optdone": 1, 
		 "sigma_profile": "yes", 
		 "theory": "DFT", 
		 "functional": "B3LYP", 
		 "basiset": "6-31G**", 
		 "properties": { 
			 "R2extent": 2038.0108, 
			 "electric_dipole_moment_norm": 5.46262509605, 
			 "electric_quadrupole_moment_norm": 13.0622938732, 
			 "total_energy": -515.240254035, 
			 "HOMO_LUMO_gap": 0.1561, 
			 "cosmo_polarized_energy": -13.54, 
			 "cosmo_cavitation_energy": 23.46, 
			 "cosmo_dispersion_energy": -17.49, 
			 "cosmo_repulsion_energy": 1.36, 
			 "cosmo_total_nonelectrostatic_energy": 7.32, 
			 "SMD_solvation_energy": 3.78 
		},
		"coords": [
			{
				"x": 2.8178685403,
				"y": 0.5665948038,
				"z": -2.705692885,
				"element": "O" 
			},
			{
				"x": 1.6326006775,
				"y": 0.5011339767,
				"z": -2.4627477539,
				"element": "C" 
			},
			{
				"x": 1.0712946107,
				"y": 0.1977271439,
				"z": -1.1014456613,
				"element": "C" 
			},
			{
				"x": -0.344970736,
				"y": 0.1321078434,
				"z": -0.8678177902,
				"element": "C" 
			},
			{
				"x": -1.3454625751,
				"y": 0.3393093109,
				"z": -1.8606356093,
				"element": "C" 
			},
			{
				"x": -2.6817867365,
				"y": 0.2555933256,
				"z": -1.5409902919,
				"element": "C" 
			},
			{
				"x": -3.094699805,
				"y": -0.0384101547,
				"z": -0.2179693477,
				"element": "C" 
			},
			{
				"x": -2.1585720014,
				"y": -0.2444015448,
				"z": 0.7666479003,
				"element": "C" 
			},
			{
				"x": -0.7706269416,
				"y": -0.1651522251,
				"z": 0.4699264444,
				"element": "C" 
			},
			{
				"x": 0.2258147793,
				"y": -0.3699461497,
				"z": 1.4523420169,
				"element": "C" 
			},
			{
				"x": 1.5553142784,
				"y": -0.2787879348,
				"z": 1.0987422903,
				"element": "C" 
			},
			{
				"x": 1.9755647664,
				"y": -0.0004912509,
				"z": -0.1531364255,
				"element": "N" 
			},
			{
				"x": 0.890191242,
				"y": 0.669354593,
				"z": -3.2681615829,
				"element": "H" 
			},
			{
				"x": -1.0650046467,
				"y": 0.5659405011,
				"z": -2.881954504,
				"element": "H" 
			},
			{
				"x": -3.430190771,
				"y": 0.4166305871,
				"z": -2.3111335891,
				"element": "H" 
			},
			{
				"x": -4.1540325796,
				"y": -0.0998369175,
				"z": 0.0128842215,
				"element": "H" 
			},
			{
				"x": -2.463021102,
				"y": -0.4704833538,
				"z": 1.7848973765,
				"element": "H" 
			},
			{
				"x": -0.0605560203,
				"y": -0.5968974771,
				"z": 2.4755415241,
				"element": "H" 
			},
			{
				"x": 2.3383750207,
				"y": -0.4324850769,
				"z": 1.8379036668,
				"element": "H" 
			}
		],
		 "valence_orbital": [ 
			{
				"type": "occ",
				"energy": -0.30677,
				"method": "rhf"
			},
			{
				"type": "occ",
				"energy": -0.27694,
				"method": "rhf"
			},
			{
				"type": "occ",
				"energy": -0.26478,
				"method": "rhf"
			},
			{
				"type": "occ",
				"energy": -0.24968,
				"method": "rhf"
			},
			{
				"type": "occ",
				"energy": -0.24131,
				"method": "rhf"
			},
			{
				"type": "unocc",
				"energy": -0.08521,
				"method": "rhf"
			},
			{
				"type": "unocc",
				"energy": -0.03447,
				"method": "rhf"
			},
			{
				"type": "unocc",
				"energy": -0.02619,
				"method": "rhf"
			},
			{
				"type": "unocc",
				"energy": 0.04321,
				"method": "rhf"
			},
			{
				"type": "unocc",
				"energy": 0.07929,
				"method": "rhf"
			}
		],
		"cosmo_sigma_profile": { 
			"-0.025": 0.0,
			"-0.024": 0.0,
			"-0.023": 0.0,
			"-0.022": 0.0,
			"-0.021": 0.0,
			"-0.02": 0.0,
			"-0.019": 0.0,
			"-0.018": 0.0,
			"-0.017": 0.0,
			"-0.016": 0.0,
			"-0.015": 0.0,
			"-0.014": 0.0,
			"-0.013": 0.0,
			"-0.012": 0.0,
			"-0.011": 0.0,
			"-0.01": 0.426653367219,
			"-0.009": 2.33685894744,
			"-0.008": 4.36878009918,
			"-0.007": 11.892971705,
			"-0.006": 14.8191406632,
			"-0.005": 15.1844539785,
			"-0.004": 12.6484793267,
			"-0.003": 8.94006120904,
			"-0.002": 11.5424538644,
			"-0.001": 10.7265430243,
			"0.0": 15.0685242237,
			"0.001": 18.679462616,
			"0.002": 16.0663893461,
			"0.003": 11.963528848,
			"0.004": 5.1057559943,
			"0.005": 1.92419463593,
			"0.006": 2.08771793935,
			"0.007": 2.30548746944,
			"0.008": 3.00046844239,
			"0.009": 2.08243181514,
			"0.01": 3.45532206924,
			"0.011": 5.24670357548,
			"0.012": 2.85405289926,
			"0.013": 1.92703021233,
			"0.014": 1.34188172507,
			"0.015": 0.983245080765,
			"0.016": 1.13611911626,
			"0.017": 1.00483499422,
			"0.018": 0.584708651661,
			"0.019": 0.00604290039339,
			"0.02": 0.0,
			"0.021": 0.0,
			"0.022": 0.0,
			"0.023": 0.0,
			"0.024": 0.0,
			"0.025": 0.0
		}
	}
}
