{
	 "smiles": "OC(=O)C1=NN(CC2=CC=CC=C2)C(=O)CC1", 
	 "Tm": 453.15, 
	 "num_atms": 29, 
	 "gaussian": { 
		 "optdone": 1, 
		 "sigma_profile": "yes", 
		 "theory": "DFT", 
		 "functional": "B3LYP", 
		 "basiset": "6-31G**", 
		 "properties": { 
			 "R2extent": 5456.2148, 
			 "electric_dipole_moment_norm": 2.53437922379, 
			 "electric_quadrupole_moment_norm": 25.5302131082, 
			 "total_energy": -799.682330642, 
			 "HOMO_LUMO_gap": 0.17438, 
			 "cosmo_polarized_energy": -15.84, 
			 "cosmo_cavitation_energy": 33.42, 
			 "cosmo_dispersion_energy": -23.49, 
			 "cosmo_repulsion_energy": 1.84, 
			 "cosmo_total_nonelectrostatic_energy": 11.76, 
			 "SMD_solvation_energy": 6.55 
		},
		"coords": [
			{
				"x": 2.5487997174,
				"y": 1.779614123,
				"z": 3.7472657084,
				"element": "O" 
			},
			{
				"x": 2.1793552098,
				"y": 0.5745864393,
				"z": 4.2152272323,
				"element": "C" 
			},
			{
				"x": 2.7711114141,
				"y": 0.0076162609,
				"z": 5.1065792742,
				"element": "O" 
			},
			{
				"x": 0.9761885585,
				"y": -0.0280568026,
				"z": 3.5497911186,
				"element": "C" 
			},
			{
				"x": 0.4344370527,
				"y": 0.6791378111,
				"z": 2.6181883195,
				"element": "N" 
			},
			{
				"x": -0.655813255,
				"y": 0.1993416154,
				"z": 1.9492623501,
				"element": "N" 
			},
			{
				"x": -1.0436008099,
				"y": 0.9610920958,
				"z": 0.7472215921,
				"element": "C" 
			},
			{
				"x": -0.2776074532,
				"y": 0.5481080107,
				"z": -0.4929746126,
				"element": "C" 
			},
			{
				"x": -0.6331669362,
				"y": -0.6177247189,
				"z": -1.1862472093,
				"element": "C" 
			},
			{
				"x": 0.0798406416,
				"y": -1.0082683327,
				"z": -2.3192682003,
				"element": "C" 
			},
			{
				"x": 1.1538663929,
				"y": -0.2384241757,
				"z": -2.7737363765,
				"element": "C" 
			},
			{
				"x": 1.5119323005,
				"y": 0.9241908437,
				"z": -2.0902151836,
				"element": "C" 
			},
			{
				"x": 0.79867192,
				"y": 1.3136785796,
				"z": -0.9546690831,
				"element": "C" 
			},
			{
				"x": -1.4210332363,
				"y": -0.888703694,
				"z": 2.374072774,
				"element": "C" 
			},
			{
				"x": -2.3750828651,
				"y": -1.2816867733,
				"z": 1.7224157832,
				"element": "O" 
			},
			{
				"x": -1.0167494636,
				"y": -1.4705227947,
				"z": 3.7178030215,
				"element": "C" 
			},
			{
				"x": 0.4952492914,
				"y": -1.3901056029,
				"z": 3.9484494231,
				"element": "C" 
			},
			{
				"x": 1.9227959491,
				"y": 2.0149361808,
				"z": 3.0364433894,
				"element": "H" 
			},
			{
				"x": -2.1136616336,
				"y": 0.7960835043,
				"z": 0.6143919372,
				"element": "H" 
			},
			{
				"x": -0.8695024244,
				"y": 2.0147403125,
				"z": 0.9778128429,
				"element": "H" 
			},
			{
				"x": -1.46794648,
				"y": -1.2136910461,
				"z": -0.8282893478,
				"element": "H" 
			},
			{
				"x": -0.2053032785,
				"y": -1.9115244312,
				"z": -2.8511768144,
				"element": "H" 
			},
			{
				"x": 1.7062579858,
				"y": -0.542161005,
				"z": -3.6583192241,
				"element": "H" 
			},
			{
				"x": 2.3437161768,
				"y": 1.5288237884,
				"z": -2.4401697128,
				"element": "H" 
			},
			{
				"x": 1.0780129041,
				"y": 2.221537999,
				"z": -0.4255567244,
				"element": "H" 
			},
			{
				"x": -1.3940740348,
				"y": -2.4934220498,
				"z": 3.7623569126,
				"element": "H" 
			},
			{
				"x": -1.5484354927,
				"y": -0.8946429076,
				"z": 4.4875587079,
				"element": "H" 
			},
			{
				"x": 1.0192122599,
				"y": -2.1355947163,
				"z": 3.3326250994,
				"element": "H" 
			},
			{
				"x": 0.7726295886,
				"y": -1.5948585136,
				"z": 4.9843570025,
				"element": "H" 
			}
		],
		 "valence_orbital": [ 
			{
				"type": "occ",
				"energy": -0.2855,
				"method": "rhf"
			},
			{
				"type": "occ",
				"energy": -0.27139,
				"method": "rhf"
			},
			{
				"type": "occ",
				"energy": -0.25861,
				"method": "rhf"
			},
			{
				"type": "occ",
				"energy": -0.25742,
				"method": "rhf"
			},
			{
				"type": "occ",
				"energy": -0.2507,
				"method": "rhf"
			},
			{
				"type": "unocc",
				"energy": -0.07632,
				"method": "rhf"
			},
			{
				"type": "unocc",
				"energy": -0.01508,
				"method": "rhf"
			},
			{
				"type": "unocc",
				"energy": -0.00876,
				"method": "rhf"
			},
			{
				"type": "unocc",
				"energy": 0.00459,
				"method": "rhf"
			},
			{
				"type": "unocc",
				"energy": 0.06097,
				"method": "rhf"
			}
		],
		"cosmo_sigma_profile": { 
			"-0.025": 0.0,
			"-0.024": 0.0,
			"-0.023": 0.0,
			"-0.022": 0.0,
			"-0.021": 0.0,
			"-0.02": 0.0,
			"-0.019": 0.0,
			"-0.018": 0.0,
			"-0.017": 0.0,
			"-0.016": 0.0,
			"-0.015": 0.0,
			"-0.014": 0.235609855932,
			"-0.013": 0.764672825945,
			"-0.012": 0.595399591145,
			"-0.011": 0.438953414028,
			"-0.01": 0.799450490717,
			"-0.009": 0.888315191282,
			"-0.008": 1.80172135088,
			"-0.007": 9.377072566,
			"-0.006": 22.2467414904,
			"-0.005": 25.4176825785,
			"-0.004": 25.3308252274,
			"-0.003": 26.5362118339,
			"-0.002": 16.0153461954,
			"-0.001": 14.2923850521,
			"0.0": 13.0543069381,
			"0.001": 12.2002168824,
			"0.002": 12.7191295688,
			"0.003": 12.8095205059,
			"0.004": 11.4375740623,
			"0.005": 13.4516458537,
			"0.006": 8.74292103245,
			"0.007": 4.23572115973,
			"0.008": 4.11016031778,
			"0.009": 5.50811273474,
			"0.01": 7.01269831414,
			"0.011": 7.85770759409,
			"0.012": 6.21531378425,
			"0.013": 2.06828462401,
			"0.014": 0.0217234778358,
			"0.015": 0.0,
			"0.016": 0.0,
			"0.017": 0.0,
			"0.018": 0.0,
			"0.019": 0.0,
			"0.02": 0.0,
			"0.021": 0.0,
			"0.022": 0.0,
			"0.023": 0.0,
			"0.024": 0.0,
			"0.025": 0.0
		}
	}
}
