{
	 "smiles": "CC1=NC=C(NC(=O)OC(C)(C)C)S1", 
	 "Tm": 421.15, 
	 "num_atms": 28, 
	 "gaussian": { 
		 "optdone": 1, 
		 "sigma_profile": "yes", 
		 "theory": "DFT", 
		 "functional": "B3LYP", 
		 "basiset": "6-31G**", 
		 "properties": { 
			 "R2extent": 4054.7425, 
			 "electric_dipole_moment_norm": 2.23251804248, 
			 "electric_quadrupole_moment_norm": 5.55437974935, 
			 "total_energy": -1009.5614455, 
			 "HOMO_LUMO_gap": 0.19131, 
			 "cosmo_polarized_energy": -11.41, 
			 "cosmo_cavitation_energy": 32.51, 
			 "cosmo_dispersion_energy": -23.31, 
			 "cosmo_repulsion_energy": 1.8, 
			 "cosmo_total_nonelectrostatic_energy": 11.0, 
			 "SMD_solvation_energy": 5.19 
		},
		"coords": [
			{
				"x": -0.4885940948,
				"y": 4.7583205764,
				"z": 1.2136899098,
				"element": "C" 
			},
			{
				"x": -1.1451912814,
				"y": 3.6076348826,
				"z": 0.5144848964,
				"element": "C" 
			},
			{
				"x": -2.2137886511,
				"y": 3.7006864575,
				"z": -0.2181151883,
				"element": "N" 
			},
			{
				"x": -2.5855652625,
				"y": 2.4806337064,
				"z": -0.731285374,
				"element": "C" 
			},
			{
				"x": -1.7916170723,
				"y": 1.4151530573,
				"z": -0.3924834334,
				"element": "C" 
			},
			{
				"x": -1.996396611,
				"y": 0.1010686263,
				"z": -0.8073593053,
				"element": "N" 
			},
			{
				"x": -1.2986027057,
				"y": -1.0655856523,
				"z": -0.5575396942,
				"element": "C" 
			},
			{
				"x": -1.657312339,
				"y": -2.1305800995,
				"z": -1.0292464135,
				"element": "O" 
			},
			{
				"x": -0.2374956955,
				"y": -0.8408674974,
				"z": 0.2344357825,
				"element": "O" 
			},
			{
				"x": 0.6594691094,
				"y": -1.9486214107,
				"z": 0.6356689163,
				"element": "C" 
			},
			{
				"x": -0.1284324785,
				"y": -2.9805211762,
				"z": 1.4475191864,
				"element": "C" 
			},
			{
				"x": 1.6958379618,
				"y": -1.2395861897,
				"z": 1.5093830524,
				"element": "C" 
			},
			{
				"x": 1.3144823014,
				"y": -2.5565130833,
				"z": -0.6078048861,
				"element": "C" 
			},
			{
				"x": -0.4893734661,
				"y": 1.965637362,
				"z": 0.6372046312,
				"element": "S" 
			},
			{
				"x": -1.0629610367,
				"y": 5.6609059168,
				"z": 0.9957901302,
				"element": "H" 
			},
			{
				"x": -0.4615788065,
				"y": 4.6138678582,
				"z": 2.2995034981,
				"element": "H" 
			},
			{
				"x": 0.5419620164,
				"y": 4.9080722123,
				"z": 0.8729305188,
				"element": "H" 
			},
			{
				"x": -3.4640761863,
				"y": 2.4115526559,
				"z": -1.3635666855,
				"element": "H" 
			},
			{
				"x": -2.7976670708,
				"y": -0.0570317149,
				"z": -1.4030978914,
				"element": "H" 
			},
			{
				"x": 0.559103387,
				"y": -3.7389173022,
				"z": 1.8354773247,
				"element": "H" 
			},
			{
				"x": -0.8827608903,
				"y": -3.4714501733,
				"z": 0.8322973369,
				"element": "H" 
			},
			{
				"x": -0.6196879732,
				"y": -2.5001971486,
				"z": 2.2994233976,
				"element": "H" 
			},
			{
				"x": 2.4293371922,
				"y": -1.9639307883,
				"z": 1.8756221363,
				"element": "H" 
			},
			{
				"x": 1.2176139127,
				"y": -0.7648080484,
				"z": 2.3706592077,
				"element": "H" 
			},
			{
				"x": 2.2235196814,
				"y": -0.4703761665,
				"z": 0.9386108661,
				"element": "H" 
			},
			{
				"x": 1.8267411452,
				"y": -1.7811173236,
				"z": -1.185856707,
				"element": "H" 
			},
			{
				"x": 2.0587548757,
				"y": -3.2980818131,
				"z": -0.3003298087,
				"element": "H" 
			},
			{
				"x": 0.5745800385,
				"y": -3.0435477237,
				"z": -1.2433154042,
				"element": "H" 
			}
		],
		 "valence_orbital": [ 
			{
				"type": "occ",
				"energy": -0.30138,
				"method": "rhf"
			},
			{
				"type": "occ",
				"energy": -0.28209,
				"method": "rhf"
			},
			{
				"type": "occ",
				"energy": -0.27125,
				"method": "rhf"
			},
			{
				"type": "occ",
				"energy": -0.26197,
				"method": "rhf"
			},
			{
				"type": "occ",
				"energy": -0.20994,
				"method": "rhf"
			},
			{
				"type": "unocc",
				"energy": -0.01863,
				"method": "rhf"
			},
			{
				"type": "unocc",
				"energy": 0.02193,
				"method": "rhf"
			},
			{
				"type": "unocc",
				"energy": 0.04087,
				"method": "rhf"
			},
			{
				"type": "unocc",
				"energy": 0.06569,
				"method": "rhf"
			},
			{
				"type": "unocc",
				"energy": 0.07926,
				"method": "rhf"
			}
		],
		"cosmo_sigma_profile": { 
			"-0.025": 0.0,
			"-0.024": 0.0,
			"-0.023": 0.0,
			"-0.022": 0.0,
			"-0.021": 0.0,
			"-0.02": 0.0,
			"-0.019": 0.0,
			"-0.018": 0.0,
			"-0.017": 0.00876331132025,
			"-0.016": 0.7681809075,
			"-0.015": 0.83858463652,
			"-0.014": 1.16842733636,
			"-0.013": 0.890322967898,
			"-0.012": 1.1872172087,
			"-0.011": 1.1304604556,
			"-0.01": 0.868189784224,
			"-0.009": 1.24284376903,
			"-0.008": 1.70908210522,
			"-0.007": 2.18484837454,
			"-0.006": 3.60800059341,
			"-0.005": 10.2693613111,
			"-0.004": 22.0829223245,
			"-0.003": 23.8839607904,
			"-0.002": 25.6022539787,
			"-0.001": 30.9539131108,
			"0.0": 32.0597011841,
			"0.001": 23.1640533596,
			"0.002": 17.6262759764,
			"0.003": 12.5383057271,
			"0.004": 11.5175765751,
			"0.005": 5.58221748359,
			"0.006": 3.05922522138,
			"0.007": 3.2584016961,
			"0.008": 2.6467671297,
			"0.009": 2.65178929155,
			"0.01": 2.15257104433,
			"0.011": 3.35914924443,
			"0.012": 4.17166268689,
			"0.013": 3.18640666212,
			"0.014": 1.08794250719,
			"0.015": 0.91919234996,
			"0.016": 0.378851331425,
			"0.017": 0.0,
			"0.018": 0.0,
			"0.019": 0.0,
			"0.02": 0.0,
			"0.021": 0.0,
			"0.022": 0.0,
			"0.023": 0.0,
			"0.024": 0.0,
			"0.025": 0.0
		}
	}
}
