{
	 "smiles": "CC1=CC=C(C=C1)C(=O)C(F)(F)C(F)(F)F", 
	 "Tm": 277.15, 
	 "num_atms": 23, 
	 "gaussian": { 
		 "optdone": 1, 
		 "sigma_profile": "yes", 
		 "theory": "DFT", 
		 "functional": "B3LYP", 
		 "basiset": "6-31G**", 
		 "properties": { 
			 "R2extent": 4954.5228, 
			 "electric_dipole_moment_norm": 4.41283672143, 
			 "electric_quadrupole_moment_norm": 4.34501454888, 
			 "total_energy": -959.700151522, 
			 "HOMO_LUMO_gap": 0.18189, 
			 "cosmo_polarized_energy": -6.23, 
			 "cosmo_cavitation_energy": 29.52, 
			 "cosmo_dispersion_energy": -20.53, 
			 "cosmo_repulsion_energy": 1.5, 
			 "cosmo_total_nonelectrostatic_energy": 10.49, 
			 "SMD_solvation_energy": 7.46 
		},
		"coords": [
			{
				"x": -1.9822333051,
				"y": -1.6538222438,
				"z": 3.2093853099,
				"element": "C" 
			},
			{
				"x": -1.1444696203,
				"y": -1.3738632874,
				"z": 1.9870407563,
				"element": "C" 
			},
			{
				"x": -0.0408144538,
				"y": -0.5060313022,
				"z": 2.0598221474,
				"element": "C" 
			},
			{
				"x": 0.7238189663,
				"y": -0.2305326858,
				"z": 0.9370388328,
				"element": "C" 
			},
			{
				"x": 0.4160442102,
				"y": -0.8188549367,
				"z": -0.3056613343,
				"element": "C" 
			},
			{
				"x": -0.6843283078,
				"y": -1.6892653644,
				"z": -0.3844771075,
				"element": "C" 
			},
			{
				"x": -1.4479289103,
				"y": -1.9550397855,
				"z": 0.7496754196,
				"element": "C" 
			},
			{
				"x": 1.2947742558,
				"y": -0.4516048464,
				"z": -1.4427145026,
				"element": "C" 
			},
			{
				"x": 2.2087836425,
				"y": 0.3454386901,
				"z": -1.3449334141,
				"element": "O" 
			},
			{
				"x": 1.0915911649,
				"y": -1.0781998937,
				"z": -2.8605725984,
				"element": "C" 
			},
			{
				"x": 0.7380113514,
				"y": -2.3959462509,
				"z": -2.7864875298,
				"element": "F" 
			},
			{
				"x": 2.2579169372,
				"y": -0.9979066771,
				"z": -3.5359656039,
				"element": "F" 
			},
			{
				"x": 0.0280149374,
				"y": -0.3557279904,
				"z": -3.7171288445,
				"element": "C" 
			},
			{
				"x": -0.0171297927,
				"y": -0.8799127673,
				"z": -4.9473306644,
				"element": "F" 
			},
			{
				"x": -1.1906799426,
				"y": -0.4787381457,
				"z": -3.1581384774,
				"element": "F" 
			},
			{
				"x": 0.3232845906,
				"y": 0.9472613112,
				"z": -3.8089439539,
				"element": "F" 
			},
			{
				"x": -2.567707711,
				"y": -0.7706659622,
				"z": 3.4924654169,
				"element": "H" 
			},
			{
				"x": -2.68183121,
				"y": -2.4759656285,
				"z": 3.0385310994,
				"element": "H" 
			},
			{
				"x": -1.3553750129,
				"y": -1.9114944377,
				"z": 4.0695945555,
				"element": "H" 
			},
			{
				"x": 0.2152998172,
				"y": -0.045095754,
				"z": 3.010388003,
				"element": "H" 
			},
			{
				"x": 1.573685183,
				"y": 0.4411388673,
				"z": 0.9913596776,
				"element": "H" 
			},
			{
				"x": -0.9517037454,
				"y": -2.1587230028,
				"z": -1.3206468121,
				"element": "H" 
			},
			{
				"x": -2.2957230447,
				"y": -2.630147906,
				"z": 0.6714996245,
				"element": "H" 
			}
		],
		 "valence_orbital": [ 
			{
				"type": "occ",
				"energy": -0.36283,
				"method": "rhf"
			},
			{
				"type": "occ",
				"energy": -0.35348,
				"method": "rhf"
			},
			{
				"type": "occ",
				"energy": -0.27552,
				"method": "rhf"
			},
			{
				"type": "occ",
				"energy": -0.26986,
				"method": "rhf"
			},
			{
				"type": "occ",
				"energy": -0.26316,
				"method": "rhf"
			},
			{
				"type": "unocc",
				"energy": -0.08127,
				"method": "rhf"
			},
			{
				"type": "unocc",
				"energy": -0.01898,
				"method": "rhf"
			},
			{
				"type": "unocc",
				"energy": 0.01429,
				"method": "rhf"
			},
			{
				"type": "unocc",
				"energy": 0.07572,
				"method": "rhf"
			},
			{
				"type": "unocc",
				"energy": 0.08933,
				"method": "rhf"
			}
		],
		"cosmo_sigma_profile": { 
			"-0.025": 0.0,
			"-0.024": 0.0,
			"-0.023": 0.0,
			"-0.022": 0.0,
			"-0.021": 0.0,
			"-0.02": 0.0,
			"-0.019": 0.0,
			"-0.018": 0.0,
			"-0.017": 0.0,
			"-0.016": 0.0,
			"-0.015": 0.0,
			"-0.014": 0.0,
			"-0.013": 0.0,
			"-0.012": 0.0,
			"-0.011": 0.0,
			"-0.01": 0.0,
			"-0.009": 0.0,
			"-0.008": 0.0,
			"-0.007": 1.34170032803,
			"-0.006": 9.05048642632,
			"-0.005": 15.0202285351,
			"-0.004": 15.6912455759,
			"-0.003": 16.4776099565,
			"-0.002": 16.1998028709,
			"-0.001": 22.3609110821,
			"0.0": 26.4642772417,
			"0.001": 42.571724517,
			"0.002": 34.7137669123,
			"0.003": 17.108408901,
			"0.004": 4.47199367938,
			"0.005": 1.62978061774,
			"0.006": 1.79152559005,
			"0.007": 2.24857787343,
			"0.008": 2.22528962273,
			"0.009": 2.91407646149,
			"0.01": 3.63971301871,
			"0.011": 0.764074771716,
			"0.012": 0.0,
			"0.013": 0.0,
			"0.014": 0.0,
			"0.015": 0.0,
			"0.016": 0.0,
			"0.017": 0.0,
			"0.018": 0.0,
			"0.019": 0.0,
			"0.02": 0.0,
			"0.021": 0.0,
			"0.022": 0.0,
			"0.023": 0.0,
			"0.024": 0.0,
			"0.025": 0.0
		}
	}
}
