{
	 "smiles": "COC(=O)C1=CC2=C(C=CO2)N1C", 
	 "Tm": 354.65, 
	 "num_atms": 22, 
	 "gaussian": { 
		 "optdone": 1, 
		 "sigma_profile": "yes", 
		 "theory": "DFT", 
		 "functional": "B3LYP", 
		 "basiset": "6-31G**", 
		 "properties": { 
			 "R2extent": 2825.7289, 
			 "electric_dipole_moment_norm": 4.16206172347, 
			 "electric_quadrupole_moment_norm": 10.0862274979, 
			 "total_energy": -628.765072778, 
			 "HOMO_LUMO_gap": 0.16959, 
			 "cosmo_polarized_energy": -10.5, 
			 "cosmo_cavitation_energy": 26.44, 
			 "cosmo_dispersion_energy": -19.36, 
			 "cosmo_repulsion_energy": 1.51, 
			 "cosmo_total_nonelectrostatic_energy": 8.59, 
			 "SMD_solvation_energy": 6.98 
		},
		"coords": [
			{
				"x": -2.9781635936,
				"y": 0.518067251,
				"z": -3.1804428582,
				"element": "C" 
			},
			{
				"x": -2.1585806083,
				"y": 0.2509116716,
				"z": -2.0327750548,
				"element": "O" 
			},
			{
				"x": -0.9672840282,
				"y": -0.3502576589,
				"z": -2.310242869,
				"element": "C" 
			},
			{
				"x": -0.625022879,
				"y": -0.6386692395,
				"z": -3.4432095904,
				"element": "O" 
			},
			{
				"x": -0.1562863637,
				"y": -0.609583506,
				"z": -1.1242573132,
				"element": "C" 
			},
			{
				"x": 1.1039912514,
				"y": -1.2199107101,
				"z": -1.176154525,
				"element": "C" 
			},
			{
				"x": 1.5266543706,
				"y": -1.2768947753,
				"z": 0.1548543687,
				"element": "C" 
			},
			{
				"x": 0.5573480291,
				"y": -0.7213555624,
				"z": 0.9809964369,
				"element": "C" 
			},
			{
				"x": 1.046604833,
				"y": -0.8090827415,
				"z": 2.3230015413,
				"element": "C" 
			},
			{
				"x": 2.2692126316,
				"y": -1.4097041578,
				"z": 2.1949337568,
				"element": "C" 
			},
			{
				"x": 2.5934386712,
				"y": -1.7079673397,
				"z": 0.8919019965,
				"element": "O" 
			},
			{
				"x": -0.4887317743,
				"y": -0.3043224701,
				"z": 0.206516978,
				"element": "N" 
			},
			{
				"x": -1.6946776309,
				"y": 0.3309112707,
				"z": 0.7220589791,
				"element": "C" 
			},
			{
				"x": -2.46305199,
				"y": 1.1841531226,
				"z": -3.8771714612,
				"element": "H" 
			},
			{
				"x": -3.2264470832,
				"y": -0.4091877667,
				"z": -3.7029332022,
				"element": "H" 
			},
			{
				"x": -3.8803891906,
				"y": 0.9926432673,
				"z": -2.7935856065,
				"element": "H" 
			},
			{
				"x": 1.5837069012,
				"y": -1.5494949255,
				"z": -2.0842955705,
				"element": "H" 
			},
			{
				"x": 0.5926724152,
				"y": -0.4898301752,
				"z": 3.2495407942,
				"element": "H" 
			},
			{
				"x": 3.0125630933,
				"y": -1.6861736271,
				"z": 2.9268614473,
				"element": "H" 
			},
			{
				"x": -1.8204356658,
				"y": 1.3321504462,
				"z": 0.3049843577,
				"element": "H" 
			},
			{
				"x": -1.5971743606,
				"y": 0.4033584944,
				"z": 1.8064652452,
				"element": "H" 
			},
			{
				"x": -2.5826470283,
				"y": -0.2564608677,
				"z": 0.4796521495,
				"element": "H" 
			}
		],
		 "valence_orbital": [ 
			{
				"type": "occ",
				"energy": -0.29599,
				"method": "rhf"
			},
			{
				"type": "occ",
				"energy": -0.28484,
				"method": "rhf"
			},
			{
				"type": "occ",
				"energy": -0.2677,
				"method": "rhf"
			},
			{
				"type": "occ",
				"energy": -0.23147,
				"method": "rhf"
			},
			{
				"type": "occ",
				"energy": -0.20231,
				"method": "rhf"
			},
			{
				"type": "unocc",
				"energy": -0.03272,
				"method": "rhf"
			},
			{
				"type": "unocc",
				"energy": 0.03646,
				"method": "rhf"
			},
			{
				"type": "unocc",
				"energy": 0.09231,
				"method": "rhf"
			},
			{
				"type": "unocc",
				"energy": 0.09895,
				"method": "rhf"
			},
			{
				"type": "unocc",
				"energy": 0.10374,
				"method": "rhf"
			}
		],
		"cosmo_sigma_profile": { 
			"-0.025": 0.0,
			"-0.024": 0.0,
			"-0.023": 0.0,
			"-0.022": 0.0,
			"-0.021": 0.0,
			"-0.02": 0.0,
			"-0.019": 0.0,
			"-0.018": 0.0,
			"-0.017": 0.0,
			"-0.016": 0.0,
			"-0.015": 0.0,
			"-0.014": 0.0,
			"-0.013": 0.0,
			"-0.012": 0.0,
			"-0.011": 0.0,
			"-0.01": 0.111265020355,
			"-0.009": 1.8189701722,
			"-0.008": 3.55407204063,
			"-0.007": 6.79530007207,
			"-0.006": 10.5988473852,
			"-0.005": 16.7160112328,
			"-0.004": 17.2705760188,
			"-0.003": 20.6083317499,
			"-0.002": 17.1670701379,
			"-0.001": 12.5395524686,
			"0.0": 10.2360416346,
			"0.001": 11.3484094628,
			"0.002": 17.0598236528,
			"0.003": 21.5762897172,
			"0.004": 14.762868879,
			"0.005": 5.79006362708,
			"0.006": 3.58037050034,
			"0.007": 3.20461846842,
			"0.008": 3.42215755855,
			"0.009": 2.3500924934,
			"0.01": 1.36334397418,
			"0.011": 2.51304061741,
			"0.012": 4.09931709225,
			"0.013": 3.06257240542,
			"0.014": 0.0,
			"0.015": 0.0,
			"0.016": 0.0,
			"0.017": 0.0,
			"0.018": 0.0,
			"0.019": 0.0,
			"0.02": 0.0,
			"0.021": 0.0,
			"0.022": 0.0,
			"0.023": 0.0,
			"0.024": 0.0,
			"0.025": 0.0
		}
	}
}
