{
	 "smiles": "CCOC1=CC=C(NCC(NC2=CC=C(OCC)C=C2)=NC2=CC=C(OCC)C=C2)C=C1", 
	 "Tm": 386.15, 
	 "num_atms": 63, 
	 "gaussian": { 
		 "optdone": 1, 
		 "sigma_profile": "yes", 
		 "theory": "DFT", 
		 "functional": "B3LYP", 
		 "basiset": "6-31G**", 
		 "properties": { 
			 "R2extent": 24606.1517, 
			 "electric_dipole_moment_norm": 5.45120640409, 
			 "electric_quadrupole_moment_norm": 15.7030163402, 
			 "total_energy": -1399.36301595, 
			 "HOMO_LUMO_gap": 0.17216, 
			 "cosmo_polarized_energy": -21.62, 
			 "cosmo_cavitation_energy": 66.29, 
			 "cosmo_dispersion_energy": -45.68, 
			 "cosmo_repulsion_energy": 3.53, 
			 "cosmo_total_nonelectrostatic_energy": 24.14, 
			 "SMD_solvation_energy": 10.53 
		},
		"coords": [
			{
				"x": 6.8764821096,
				"y": -3.7240698798,
				"z": 2.126189508,
				"element": "C" 
			},
			{
				"x": 6.2500612414,
				"y": -3.1232292542,
				"z": 3.381515015,
				"element": "C" 
			},
			{
				"x": 5.4720934584,
				"y": -1.9590431351,
				"z": 3.1072758976,
				"element": "O" 
			},
			{
				"x": 4.1999610974,
				"y": -2.0917308141,
				"z": 2.61523515,
				"element": "C" 
			},
			{
				"x": 3.5351523464,
				"y": -0.8943516813,
				"z": 2.322732164,
				"element": "C" 
			},
			{
				"x": 2.2311668853,
				"y": -0.8960616889,
				"z": 1.8389924844,
				"element": "C" 
			},
			{
				"x": 1.5483188319,
				"y": -2.1068730639,
				"z": 1.6352962085,
				"element": "C" 
			},
			{
				"x": 0.2369977617,
				"y": -2.1494118142,
				"z": 1.1020877841,
				"element": "N" 
			},
			{
				"x": -0.6619892167,
				"y": -1.0149118797,
				"z": 1.2942690704,
				"element": "C" 
			},
			{
				"x": -0.5670008773,
				"y": 0.0458846661,
				"z": 0.1786189316,
				"element": "C" 
			},
			{
				"x": -0.0211551765,
				"y": -0.4510142672,
				"z": -0.9711593043,
				"element": "N" 
			},
			{
				"x": 0.2213285612,
				"y": 0.1563352223,
				"z": -2.2167892309,
				"element": "C" 
			},
			{
				"x": 0.8598752129,
				"y": -0.615971934,
				"z": -3.1965180065,
				"element": "C" 
			},
			{
				"x": 1.1312835715,
				"y": -0.1033320252,
				"z": -4.4649886375,
				"element": "C" 
			},
			{
				"x": 0.7621923767,
				"y": 1.2104272793,
				"z": -4.7756178804,
				"element": "C" 
			},
			{
				"x": 0.9769207499,
				"y": 1.8187729491,
				"z": -5.9829412007,
				"element": "O" 
			},
			{
				"x": 1.6266435776,
				"y": 1.0791431745,
				"z": -7.0111468952,
				"element": "C" 
			},
			{
				"x": 1.7386498653,
				"y": 1.983410904,
				"z": -8.2267716771,
				"element": "C" 
			},
			{
				"x": 0.1247395961,
				"y": 1.9861752799,
				"z": -3.798812242,
				"element": "C" 
			},
			{
				"x": -0.1461259827,
				"y": 1.4767037436,
				"z": -2.5344617676,
				"element": "C" 
			},
			{
				"x": -0.9601325076,
				"y": 1.2662369534,
				"z": 0.2995380623,
				"element": "N" 
			},
			{
				"x": -1.5914188793,
				"y": 1.7253536765,
				"z": 1.4712417045,
				"element": "C" 
			},
			{
				"x": -2.8796093746,
				"y": 1.3159419754,
				"z": 1.843982789,
				"element": "C" 
			},
			{
				"x": -3.5222071225,
				"y": 1.8509648802,
				"z": 2.9654769863,
				"element": "C" 
			},
			{
				"x": -2.8785397158,
				"y": 2.820465673,
				"z": 3.7407111062,
				"element": "C" 
			},
			{
				"x": -3.4080104075,
				"y": 3.4107687138,
				"z": 4.8576055844,
				"element": "O" 
			},
			{
				"x": -4.7152634159,
				"y": 3.0298910723,
				"z": 5.271768908,
				"element": "C" 
			},
			{
				"x": -5.0549512688,
				"y": 3.8318375779,
				"z": 6.5166224104,
				"element": "C" 
			},
			{
				"x": -1.5956731802,
				"y": 3.2512215109,
				"z": 3.3700840614,
				"element": "C" 
			},
			{
				"x": -0.9698116482,
				"y": 2.721303676,
				"z": 2.2503442831,
				"element": "C" 
			},
			{
				"x": 2.2186736176,
				"y": -3.3010490358,
				"z": 1.9260223998,
				"element": "C" 
			},
			{
				"x": 3.5285094435,
				"y": -3.3026069538,
				"z": 2.4085036725,
				"element": "C" 
			},
			{
				"x": 7.5148706675,
				"y": -4.5730885645,
				"z": 2.3934612858,
				"element": "H" 
			},
			{
				"x": 7.4916093273,
				"y": -2.9767700701,
				"z": 1.6168844318,
				"element": "H" 
			},
			{
				"x": 6.1169722849,
				"y": -4.0754815311,
				"z": 1.4225821859,
				"element": "H" 
			},
			{
				"x": 5.6515238169,
				"y": -3.8650726695,
				"z": 3.9269194268,
				"element": "H" 
			},
			{
				"x": 7.0321570628,
				"y": -2.774809608,
				"z": 4.0624540793,
				"element": "H" 
			},
			{
				"x": 4.0615457728,
				"y": 0.0406727912,
				"z": 2.4842818579,
				"element": "H" 
			},
			{
				"x": 1.7523597552,
				"y": 0.0512485935,
				"z": 1.6158234121,
				"element": "H" 
			},
			{
				"x": -0.2142707232,
				"y": -3.0347943185,
				"z": 1.2890782611,
				"element": "H" 
			},
			{
				"x": -0.4985931472,
				"y": -0.5107702106,
				"z": 2.2543879383,
				"element": "H" 
			},
			{
				"x": -1.6862597619,
				"y": -1.3989040198,
				"z": 1.3104781939,
				"element": "H" 
			},
			{
				"x": 0.312521374,
				"y": -1.4025490141,
				"z": -0.8580154215,
				"element": "H" 
			},
			{
				"x": 1.1529741735,
				"y": -1.638201552,
				"z": -2.9672509232,
				"element": "H" 
			},
			{
				"x": 1.6274680875,
				"y": -0.7347948856,
				"z": -5.1922426212,
				"element": "H" 
			},
			{
				"x": 2.6221485183,
				"y": 0.7561091253,
				"z": -6.672414121,
				"element": "H" 
			},
			{
				"x": 1.0469974831,
				"y": 0.1751337481,
				"z": -7.2499719958,
				"element": "H" 
			},
			{
				"x": 2.3204260928,
				"y": 2.8781720339,
				"z": -7.9881885594,
				"element": "H" 
			},
			{
				"x": 0.7473068631,
				"y": 2.2983342387,
				"z": -8.5645353684,
				"element": "H" 
			},
			{
				"x": 2.2340705061,
				"y": 1.4545702285,
				"z": -9.0469655647,
				"element": "H" 
			},
			{
				"x": -0.154724535,
				"y": 3.0041501429,
				"z": -4.0513696786,
				"element": "H" 
			},
			{
				"x": -0.6322007055,
				"y": 2.0826458634,
				"z": -1.7827343429,
				"element": "H" 
			},
			{
				"x": -3.4001286914,
				"y": 0.5841822185,
				"z": 1.2320145265,
				"element": "H" 
			},
			{
				"x": -4.5199798468,
				"y": 1.5083668509,
				"z": 3.2141477168,
				"element": "H" 
			},
			{
				"x": -4.7451700117,
				"y": 1.9506156026,
				"z": 5.4832537201,
				"element": "H" 
			},
			{
				"x": -5.4394187231,
				"y": 3.2310133992,
				"z": 4.4685253779,
				"element": "H" 
			},
			{
				"x": -4.3367073216,
				"y": 3.6255712146,
				"z": 7.3151793673,
				"element": "H" 
			},
			{
				"x": -6.0562143634,
				"y": 3.5706669305,
				"z": 6.8731419183,
				"element": "H" 
			},
			{
				"x": -5.0310498077,
				"y": 4.9038898127,
				"z": 6.3018313363,
				"element": "H" 
			},
			{
				"x": -1.1113159908,
				"y": 4.0116533194,
				"z": 3.9746135842,
				"element": "H" 
			},
			{
				"x": 0.0159507334,
				"y": 3.0708854468,
				"z": 1.958438621,
				"element": "H" 
			},
			{
				"x": 1.7124923792,
				"y": -4.2517859649,
				"z": 1.7719283447,
				"element": "H" 
			},
			{
				"x": 4.0043771999,
				"y": -4.2529406526,
				"z": 2.619455671,
				"element": "H" 
			}
		],
		 "valence_orbital": [ 
			{
				"type": "occ",
				"energy": -0.23948,
				"method": "rhf"
			},
			{
				"type": "occ",
				"energy": -0.23854,
				"method": "rhf"
			},
			{
				"type": "occ",
				"energy": -0.1964,
				"method": "rhf"
			},
			{
				"type": "occ",
				"energy": -0.18716,
				"method": "rhf"
			},
			{
				"type": "occ",
				"energy": -0.17658,
				"method": "rhf"
			},
			{
				"type": "unocc",
				"energy": -0.00442,
				"method": "rhf"
			},
			{
				"type": "unocc",
				"energy": 0.0016,
				"method": "rhf"
			},
			{
				"type": "unocc",
				"energy": 0.00913,
				"method": "rhf"
			},
			{
				"type": "unocc",
				"energy": 0.01,
				"method": "rhf"
			},
			{
				"type": "unocc",
				"energy": 0.02477,
				"method": "rhf"
			}
		],
		"cosmo_sigma_profile": { 
			"-0.025": 0.0,
			"-0.024": 0.0,
			"-0.023": 0.0,
			"-0.022": 0.0,
			"-0.021": 0.0,
			"-0.02": 0.0,
			"-0.019": 0.0,
			"-0.018": 0.0,
			"-0.017": 0.0,
			"-0.016": 0.0,
			"-0.015": 0.0,
			"-0.014": 0.0350874274447,
			"-0.013": 1.12967011203,
			"-0.012": 1.65570367567,
			"-0.011": 1.56242095418,
			"-0.01": 2.45486193083,
			"-0.009": 2.93631329377,
			"-0.008": 3.55837413795,
			"-0.007": 5.25877971419,
			"-0.006": 14.5433158391,
			"-0.005": 31.7641346995,
			"-0.004": 52.5344001962,
			"-0.003": 59.3013349886,
			"-0.002": 49.0095194142,
			"-0.001": 40.9504453898,
			"0.0": 41.0873468831,
			"0.001": 35.2708240787,
			"0.002": 22.4657086271,
			"0.003": 24.9962806143,
			"0.004": 32.0355039003,
			"0.005": 36.2633682158,
			"0.006": 33.8855317478,
			"0.007": 9.8717151663,
			"0.008": 7.51720700366,
			"0.009": 6.18082481109,
			"0.01": 5.5937339282,
			"0.011": 2.34741250904,
			"0.012": 0.169496846016,
			"0.013": 0.0,
			"0.014": 0.0,
			"0.015": 0.0,
			"0.016": 0.0,
			"0.017": 0.0,
			"0.018": 0.0,
			"0.019": 0.0,
			"0.02": 0.0,
			"0.021": 0.0,
			"0.022": 0.0,
			"0.023": 0.0,
			"0.024": 0.0,
			"0.025": 0.0
		}
	}
}
