{
	 "smiles": "FC(F)(F)C1=CC=CC(C=O)=C1Cl", 
	 "Tm": 317.15, 
	 "num_atms": 17, 
	 "gaussian": { 
		 "optdone": 1, 
		 "sigma_profile": "yes", 
		 "theory": "DFT", 
		 "functional": "B3LYP", 
		 "basiset": "6-31G**", 
		 "properties": { 
			 "R2extent": 3216.5889, 
			 "electric_dipole_moment_norm": 2.16191754699, 
			 "electric_quadrupole_moment_norm": 12.6194471258, 
			 "total_energy": -1142.18727458, 
			 "HOMO_LUMO_gap": 0.18486, 
			 "cosmo_polarized_energy": -6.61, 
			 "cosmo_cavitation_energy": 24.7, 
			 "cosmo_dispersion_energy": -17.84, 
			 "cosmo_repulsion_energy": 1.33, 
			 "cosmo_total_nonelectrostatic_energy": 8.19, 
			 "SMD_solvation_energy": 6.24 
		},
		"coords": [
			{
				"x": -2.4406915818,
				"y": 1.1537213588,
				"z": -2.020060704,
				"element": "F" 
			},
			{
				"x": -2.7404456975,
				"y": 0.2670197708,
				"z": -1.0503992281,
				"element": "C" 
			},
			{
				"x": -3.4025221648,
				"y": -0.7571577734,
				"z": -1.6239961961,
				"element": "F" 
			},
			{
				"x": -3.6053236575,
				"y": 0.8766498942,
				"z": -0.209176209,
				"element": "F" 
			},
			{
				"x": -1.5028554246,
				"y": -0.2030322424,
				"z": -0.3133085576,
				"element": "C" 
			},
			{
				"x": -1.4068993996,
				"y": 0.0339089139,
				"z": 1.0610805335,
				"element": "C" 
			},
			{
				"x": -0.2888575308,
				"y": -0.3781387491,
				"z": 1.7868414686,
				"element": "C" 
			},
			{
				"x": 0.7441938223,
				"y": -1.0335261043,
				"z": 1.1339537291,
				"element": "C" 
			},
			{
				"x": 0.6806962422,
				"y": -1.2878250965,
				"z": -0.2451966456,
				"element": "C" 
			},
			{
				"x": 1.8368431196,
				"y": -1.9985615181,
				"z": -0.8661190087,
				"element": "C" 
			},
			{
				"x": 2.8078017039,
				"y": -2.3531819599,
				"z": -0.2252295472,
				"element": "O" 
			},
			{
				"x": -0.4502704802,
				"y": -0.8678885407,
				"z": -0.9642203283,
				"element": "C" 
			},
			{
				"x": -0.5464854203,
				"y": -1.1777381308,
				"z": -2.6901118115,
				"element": "Cl" 
			},
			{
				"x": -2.2221801464,
				"y": 0.547182327,
				"z": 1.5570371015,
				"element": "H" 
			},
			{
				"x": -0.2335723374,
				"y": -0.1846756743,
				"z": 2.8530717268,
				"element": "H" 
			},
			{
				"x": 1.632320723,
				"y": -1.3715473908,
				"z": 1.6587858491,
				"element": "H" 
			},
			{
				"x": 1.7690482301,
				"y": -2.1885090845,
				"z": -1.9511521726,
				"element": "H" 
			}
		],
		 "valence_orbital": [ 
			{
				"type": "occ",
				"energy": -0.35856,
				"method": "rhf"
			},
			{
				"type": "occ",
				"energy": -0.33656,
				"method": "rhf"
			},
			{
				"type": "occ",
				"energy": -0.29136,
				"method": "rhf"
			},
			{
				"type": "occ",
				"energy": -0.27644,
				"method": "rhf"
			},
			{
				"type": "occ",
				"energy": -0.27076,
				"method": "rhf"
			},
			{
				"type": "unocc",
				"energy": -0.0859,
				"method": "rhf"
			},
			{
				"type": "unocc",
				"energy": -0.05014,
				"method": "rhf"
			},
			{
				"type": "unocc",
				"energy": 0.00828,
				"method": "rhf"
			},
			{
				"type": "unocc",
				"energy": 0.01262,
				"method": "rhf"
			},
			{
				"type": "unocc",
				"energy": 0.09406,
				"method": "rhf"
			}
		],
		"cosmo_sigma_profile": { 
			"-0.025": 0.0,
			"-0.024": 0.0,
			"-0.023": 0.0,
			"-0.022": 0.0,
			"-0.021": 0.0,
			"-0.02": 0.0,
			"-0.019": 0.0,
			"-0.018": 0.0,
			"-0.017": 0.0,
			"-0.016": 0.0,
			"-0.015": 0.0,
			"-0.014": 0.0,
			"-0.013": 0.0,
			"-0.012": 0.0,
			"-0.011": 0.0,
			"-0.01": 0.0,
			"-0.009": 0.161891488109,
			"-0.008": 3.12146393265,
			"-0.007": 7.32544550744,
			"-0.006": 8.80912348419,
			"-0.005": 9.78176116573,
			"-0.004": 11.9350150868,
			"-0.003": 12.0763582753,
			"-0.002": 13.8584867527,
			"-0.001": 22.3050933532,
			"0.0": 20.3250356984,
			"0.001": 17.810165528,
			"0.002": 28.1966655547,
			"0.003": 24.1495921034,
			"0.004": 5.27136282015,
			"0.005": 1.61217475286,
			"0.006": 1.44029884192,
			"0.007": 1.6449190091,
			"0.008": 1.94688797355,
			"0.009": 2.20826714963,
			"0.01": 3.71895865645,
			"0.011": 2.94148295826,
			"0.012": 1.03067580616,
			"0.013": 0.0206033812496,
			"0.014": 0.0,
			"0.015": 0.0,
			"0.016": 0.0,
			"0.017": 0.0,
			"0.018": 0.0,
			"0.019": 0.0,
			"0.02": 0.0,
			"0.021": 0.0,
			"0.022": 0.0,
			"0.023": 0.0,
			"0.024": 0.0,
			"0.025": 0.0
		}
	}
}
