{
	 "smiles": "CC1=NC2=C(C=NN2C(O)=C1CC(O)=O)C#N", 
	 "Tm": 549.15, 
	 "num_atms": 25, 
	 "gaussian": { 
		 "optdone": 1, 
		 "sigma_profile": "yes", 
		 "theory": "DFT", 
		 "functional": "B3LYP", 
		 "basiset": "6-31G**", 
		 "properties": { 
			 "R2extent": 4427.5686, 
			 "electric_dipole_moment_norm": 5.93062719617, 
			 "electric_quadrupole_moment_norm": 32.2596412726, 
			 "total_energy": -830.539660727, 
			 "HOMO_LUMO_gap": 0.17719, 
			 "cosmo_polarized_energy": -24.19, 
			 "cosmo_cavitation_energy": 31.07, 
			 "cosmo_dispersion_energy": -22.08, 
			 "cosmo_repulsion_energy": 1.69, 
			 "cosmo_total_nonelectrostatic_energy": 10.68, 
			 "SMD_solvation_energy": 6.24 
		},
		"coords": [
			{
				"x": 0.6102789297,
				"y": -3.112325459,
				"z": -0.8040948436,
				"element": "C" 
			},
			{
				"x": -0.0809563941,
				"y": -1.7761338562,
				"z": -0.7536593375,
				"element": "C" 
			},
			{
				"x": -1.4020528039,
				"y": -1.7822629292,
				"z": -0.901772857,
				"element": "N" 
			},
			{
				"x": -2.0435328342,
				"y": -0.607396042,
				"z": -0.8408719998,
				"element": "C" 
			},
			{
				"x": -3.3928598791,
				"y": -0.20591319,
				"z": -0.9427279656,
				"element": "C" 
			},
			{
				"x": -3.3734310814,
				"y": 1.196562131,
				"z": -0.758398789,
				"element": "C" 
			},
			{
				"x": -2.1468456894,
				"y": 1.6843854693,
				"z": -0.5554658321,
				"element": "N" 
			},
			{
				"x": -1.3587272496,
				"y": 0.5780286359,
				"z": -0.6131756146,
				"element": "N" 
			},
			{
				"x": -0.0109745086,
				"y": 0.6042614117,
				"z": -0.4610854916,
				"element": "C" 
			},
			{
				"x": 0.5441056897,
				"y": 1.8015142457,
				"z": -0.2179006358,
				"element": "O" 
			},
			{
				"x": 0.6873913292,
				"y": -0.5787580067,
				"z": -0.5494333579,
				"element": "C" 
			},
			{
				"x": 2.1924103385,
				"y": -0.5665981834,
				"z": -0.3839613054,
				"element": "C" 
			},
			{
				"x": 2.6049508482,
				"y": -0.6142899543,
				"z": 1.0945324402,
				"element": "C" 
			},
			{
				"x": 2.3819770181,
				"y": 0.5206933026,
				"z": 1.7976935826,
				"element": "O" 
			},
			{
				"x": 3.0744102013,
				"y": -1.5909756744,
				"z": 1.6217464334,
				"element": "O" 
			},
			{
				"x": -4.5198023869,
				"y": -1.0298978062,
				"z": -1.1765185238,
				"element": "C" 
			},
			{
				"x": -5.4588925711,
				"y": -1.6899120678,
				"z": -1.3695536106,
				"element": "N" 
			},
			{
				"x": -0.1404929047,
				"y": -3.9020914336,
				"z": -0.8245015259,
				"element": "H" 
			},
			{
				"x": 1.2303647432,
				"y": -3.1988032711,
				"z": -1.7050066891,
				"element": "H" 
			},
			{
				"x": 1.2691310336,
				"y": -3.2508753661,
				"z": 0.0590899453,
				"element": "H" 
			},
			{
				"x": -4.2225738756,
				"y": 1.8659634265,
				"z": -0.7668987948,
				"element": "H" 
			},
			{
				"x": -0.1791007282,
				"y": 2.4622542116,
				"z": -0.2098013437,
				"element": "H" 
			},
			{
				"x": 2.6425241362,
				"y": -1.4296719827,
				"z": -0.8722159764,
				"element": "H" 
			},
			{
				"x": 2.6062812622,
				"y": 0.3359904777,
				"z": -0.8479342209,
				"element": "H" 
			},
			{
				"x": 1.9858173769,
				"y": 1.2065519107,
				"z": 1.2359163134,
				"element": "H" 
			}
		],
		 "valence_orbital": [ 
			{
				"type": "occ",
				"energy": -0.32113,
				"method": "rhf"
			},
			{
				"type": "occ",
				"energy": -0.30337,
				"method": "rhf"
			},
			{
				"type": "occ",
				"energy": -0.29677,
				"method": "rhf"
			},
			{
				"type": "occ",
				"energy": -0.27742,
				"method": "rhf"
			},
			{
				"type": "occ",
				"energy": -0.24672,
				"method": "rhf"
			},
			{
				"type": "unocc",
				"energy": -0.06953,
				"method": "rhf"
			},
			{
				"type": "unocc",
				"energy": -0.05133,
				"method": "rhf"
			},
			{
				"type": "unocc",
				"energy": -0.01206,
				"method": "rhf"
			},
			{
				"type": "unocc",
				"energy": -0.00181,
				"method": "rhf"
			},
			{
				"type": "unocc",
				"energy": 0.02563,
				"method": "rhf"
			}
		],
		"cosmo_sigma_profile": { 
			"-0.025": 0.0,
			"-0.024": 0.0,
			"-0.023": 0.0,
			"-0.022": 0.0,
			"-0.021": 0.0,
			"-0.02": 0.0,
			"-0.019": 0.0,
			"-0.018": 0.157003947728,
			"-0.017": 0.662336821423,
			"-0.016": 0.422152636445,
			"-0.015": 0.442625329288,
			"-0.014": 0.946776801717,
			"-0.013": 1.30431230308,
			"-0.012": 1.79276478259,
			"-0.011": 1.72058791763,
			"-0.01": 4.11791233986,
			"-0.009": 5.28467846339,
			"-0.008": 8.53141928813,
			"-0.007": 13.355244853,
			"-0.006": 14.2260501328,
			"-0.005": 15.1387898529,
			"-0.004": 17.01407338,
			"-0.003": 15.9678224772,
			"-0.002": 16.1878673544,
			"-0.001": 18.8957217534,
			"0.0": 12.7135714449,
			"0.001": 9.59846034204,
			"0.002": 8.50019488499,
			"0.003": 7.9667251527,
			"0.004": 8.80042745566,
			"0.005": 7.01850204287,
			"0.006": 7.58779717529,
			"0.007": 7.63428660186,
			"0.008": 8.38315999099,
			"0.009": 7.68684032744,
			"0.01": 9.71756553286,
			"0.011": 8.68972235182,
			"0.012": 7.2084508743,
			"0.013": 2.74159041977,
			"0.014": 0.183265130638,
			"0.015": 0.0,
			"0.016": 0.0,
			"0.017": 0.0,
			"0.018": 0.0,
			"0.019": 0.0,
			"0.02": 0.0,
			"0.021": 0.0,
			"0.022": 0.0,
			"0.023": 0.0,
			"0.024": 0.0,
			"0.025": 0.0
		}
	}
}
