{
	 "smiles": "COC(=O)C1CNC(=O)C1", 
	 "Tm": 332.15, 
	 "num_atms": 19, 
	 "gaussian": { 
		 "optdone": 1, 
		 "sigma_profile": "yes", 
		 "theory": "DFT", 
		 "functional": "B3LYP", 
		 "basiset": "6-31G**", 
		 "properties": { 
			 "R2extent": 1910.848, 
			 "electric_dipole_moment_norm": 5.30053751425, 
			 "electric_quadrupole_moment_norm": 15.4474628807, 
			 "total_energy": -514.506118016, 
			 "HOMO_LUMO_gap": 0.23863, 
			 "cosmo_polarized_energy": -15.8, 
			 "cosmo_cavitation_energy": 22.63, 
			 "cosmo_dispersion_energy": -16.78, 
			 "cosmo_repulsion_energy": 1.4, 
			 "cosmo_total_nonelectrostatic_energy": 7.25, 
			 "SMD_solvation_energy": 5.36 
		},
		"coords": [
			{
				"x": 0.2984288917,
				"y": -0.8599201933,
				"z": -3.508391346,
				"element": "C" 
			},
			{
				"x": 0.2996994775,
				"y": -0.9090990459,
				"z": -2.0704924571,
				"element": "O" 
			},
			{
				"x": -0.9079738945,
				"y": -0.7507955408,
				"z": -1.4848496322,
				"element": "C" 
			},
			{
				"x": -1.9331240837,
				"y": -0.5839111826,
				"z": -2.1072085853,
				"element": "O" 
			},
			{
				"x": -0.7948637768,
				"y": -0.8608008296,
				"z": 0.0352554119,
				"element": "C" 
			},
			{
				"x": 0.2674994889,
				"y": 0.1127013148,
				"z": 0.6249338895,
				"element": "C" 
			},
			{
				"x": -0.5417610894,
				"y": 1.2495507808,
				"z": 1.0301648493,
				"element": "N" 
			},
			{
				"x": -1.8746765047,
				"y": 0.9720761586,
				"z": 1.224148628,
				"element": "C" 
			},
			{
				"x": -2.6975844266,
				"y": 1.7278700398,
				"z": 1.7063391931,
				"element": "O" 
			},
			{
				"x": -2.1055884023,
				"y": -0.4599865387,
				"z": 0.7308485987,
				"element": "C" 
			},
			{
				"x": -0.3370709713,
				"y": -1.648706191,
				"z": -3.9181517963,
				"element": "H" 
			},
			{
				"x": -0.0700529413,
				"y": 0.1071290962,
				"z": -3.8589340977,
				"element": "H" 
			},
			{
				"x": 1.3355357484,
				"y": -1.0075681253,
				"z": -3.8087756367,
				"element": "H" 
			},
			{
				"x": -0.5019352742,
				"y": -1.8951015754,
				"z": 0.2436203783,
				"element": "H" 
			},
			{
				"x": 1.0237139727,
				"y": 0.3901918919,
				"z": -0.1128655204,
				"element": "H" 
			},
			{
				"x": 0.7809702189,
				"y": -0.3513388278,
				"z": 1.4793106693,
				"element": "H" 
			},
			{
				"x": -0.1483599992,
				"y": 2.0941025087,
				"z": 1.4199814164,
				"element": "H" 
			},
			{
				"x": -2.3219027575,
				"y": -1.0917904922,
				"z": 1.5985483115,
				"element": "H" 
			},
			{
				"x": -2.9631536765,
				"y": -0.4975032484,
				"z": 0.0575177257,
				"element": "H" 
			}
		],
		 "valence_orbital": [ 
			{
				"type": "occ",
				"energy": -0.34439,
				"method": "rhf"
			},
			{
				"type": "occ",
				"energy": -0.31259,
				"method": "rhf"
			},
			{
				"type": "occ",
				"energy": -0.28268,
				"method": "rhf"
			},
			{
				"type": "occ",
				"energy": -0.25362,
				"method": "rhf"
			},
			{
				"type": "occ",
				"energy": -0.24046,
				"method": "rhf"
			},
			{
				"type": "unocc",
				"energy": -0.00183,
				"method": "rhf"
			},
			{
				"type": "unocc",
				"energy": 0.03421,
				"method": "rhf"
			},
			{
				"type": "unocc",
				"energy": 0.07985,
				"method": "rhf"
			},
			{
				"type": "unocc",
				"energy": 0.10096,
				"method": "rhf"
			},
			{
				"type": "unocc",
				"energy": 0.10769,
				"method": "rhf"
			}
		],
		"cosmo_sigma_profile": { 
			"-0.025": 0.0,
			"-0.024": 0.0,
			"-0.023": 0.0,
			"-0.022": 0.0,
			"-0.021": 0.0,
			"-0.02": 0.0,
			"-0.019": 0.0,
			"-0.018": 0.0,
			"-0.017": 0.0,
			"-0.016": 0.0,
			"-0.015": 0.00475945745652,
			"-0.014": 1.26360364162,
			"-0.013": 1.05787194468,
			"-0.012": 1.22817350861,
			"-0.011": 0.793580247976,
			"-0.01": 1.14506173646,
			"-0.009": 1.15727364132,
			"-0.008": 1.45993782865,
			"-0.007": 4.97101057891,
			"-0.006": 13.8750315245,
			"-0.005": 20.512327815,
			"-0.004": 18.9529064175,
			"-0.003": 18.7168536614,
			"-0.002": 12.6923982764,
			"-0.001": 9.08269073502,
			"0.0": 7.46073633778,
			"0.001": 6.26490396012,
			"0.002": 5.01730332525,
			"0.003": 4.82326345359,
			"0.004": 5.53979843439,
			"0.005": 4.73073196289,
			"0.006": 3.38165776376,
			"0.007": 2.46645840448,
			"0.008": 3.86040836122,
			"0.009": 3.37472960147,
			"0.01": 2.8560991013,
			"0.011": 5.15000309093,
			"0.012": 4.47959172274,
			"0.013": 4.09582916155,
			"0.014": 5.78061887706,
			"0.015": 1.81040078093,
			"0.016": 0.013821668048,
			"0.017": 0.0,
			"0.018": 0.0,
			"0.019": 0.0,
			"0.02": 0.0,
			"0.021": 0.0,
			"0.022": 0.0,
			"0.023": 0.0,
			"0.024": 0.0,
			"0.025": 0.0
		}
	}
}
