{
	 "smiles": "FC(F)(F)C1=NC(=CC=C1)C#N", 
	 "Tm": 310.15, 
	 "num_atms": 15, 
	 "gaussian": { 
		 "optdone": 1, 
		 "sigma_profile": "yes", 
		 "theory": "DFT", 
		 "functional": "B3LYP", 
		 "basiset": "6-31G**", 
		 "properties": { 
			 "R2extent": 3007.5656, 
			 "electric_dipole_moment_norm": 5.62476685828, 
			 "electric_quadrupole_moment_norm": 16.8696081377, 
			 "total_energy": -677.550457533, 
			 "HOMO_LUMO_gap": 0.21426, 
			 "cosmo_polarized_energy": -11.24, 
			 "cosmo_cavitation_energy": 22.83, 
			 "cosmo_dispersion_energy": -15.72, 
			 "cosmo_repulsion_energy": 1.2, 
			 "cosmo_total_nonelectrostatic_energy": 8.31, 
			 "SMD_solvation_energy": 5.39 
		},
		"coords": [
			{
				"x": 3.5035119503,
				"y": -1.9086190658,
				"z": 1.6175711413,
				"element": "F" 
			},
			{
				"x": 2.7796865217,
				"y": -1.2830699344,
				"z": 0.6616303127,
				"element": "C" 
			},
			{
				"x": 2.1151137293,
				"y": -2.2236553087,
				"z": -0.0304536553,
				"element": "F" 
			},
			{
				"x": 3.6403647592,
				"y": -0.6831286291,
				"z": -0.1775401195,
				"element": "F" 
			},
			{
				"x": 1.8220696262,
				"y": -0.2766665834,
				"z": 1.2762651223,
				"element": "C" 
			},
			{
				"x": 1.07376099,
				"y": 0.3888570469,
				"z": 0.3969851195,
				"element": "N" 
			},
			{
				"x": 0.2105433067,
				"y": 1.2894293504,
				"z": 0.8854433947,
				"element": "C" 
			},
			{
				"x": 0.0610535667,
				"y": 1.5591521709,
				"z": 2.2547988854,
				"element": "C" 
			},
			{
				"x": 0.8542308611,
				"y": 0.8504367906,
				"z": 3.1516020535,
				"element": "C" 
			},
			{
				"x": 1.7577947652,
				"y": -0.0906340078,
				"z": 2.6585296812,
				"element": "C" 
			},
			{
				"x": -0.5962176276,
				"y": 2.0066342195,
				"z": -0.0736445654,
				"element": "C" 
			},
			{
				"x": -1.2630819356,
				"y": 2.6040991753,
				"z": -0.8138855078,
				"element": "N" 
			},
			{
				"x": -0.6557046771,
				"y": 2.3008975768,
				"z": 2.5888368769,
				"element": "H" 
			},
			{
				"x": 0.7704666587,
				"y": 1.0281428424,
				"z": 4.2189303166,
				"element": "H" 
			},
			{
				"x": 2.3953075051,
				"y": -0.6654756435,
				"z": 3.3186309438,
				"element": "H" 
			}
		],
		 "valence_orbital": [ 
			{
				"type": "occ",
				"energy": -0.36944,
				"method": "rhf"
			},
			{
				"type": "occ",
				"energy": -0.34951,
				"method": "rhf"
			},
			{
				"type": "occ",
				"energy": -0.32863,
				"method": "rhf"
			},
			{
				"type": "occ",
				"energy": -0.30493,
				"method": "rhf"
			},
			{
				"type": "occ",
				"energy": -0.29724,
				"method": "rhf"
			},
			{
				"type": "unocc",
				"energy": -0.08298,
				"method": "rhf"
			},
			{
				"type": "unocc",
				"energy": -0.06861,
				"method": "rhf"
			},
			{
				"type": "unocc",
				"energy": 0.01928,
				"method": "rhf"
			},
			{
				"type": "unocc",
				"energy": 0.04719,
				"method": "rhf"
			},
			{
				"type": "unocc",
				"energy": 0.06963,
				"method": "rhf"
			}
		],
		"cosmo_sigma_profile": { 
			"-0.025": 0.0,
			"-0.024": 0.0,
			"-0.023": 0.0,
			"-0.022": 0.0,
			"-0.021": 0.0,
			"-0.02": 0.0,
			"-0.019": 0.0,
			"-0.018": 0.0,
			"-0.017": 0.0,
			"-0.016": 0.0,
			"-0.015": 0.0,
			"-0.014": 0.0,
			"-0.013": 0.0,
			"-0.012": 0.0,
			"-0.011": 0.0,
			"-0.01": 1.5392898731,
			"-0.009": 6.84301227288,
			"-0.008": 7.86010050167,
			"-0.007": 5.87294366498,
			"-0.006": 5.51215049889,
			"-0.005": 7.07430406621,
			"-0.004": 11.3414076103,
			"-0.003": 15.1493036753,
			"-0.002": 12.0644060227,
			"-0.001": 13.5225432472,
			"0.0": 7.58492817196,
			"0.001": 9.84395044209,
			"0.002": 29.4084362103,
			"0.003": 17.2364329175,
			"0.004": 5.71594212515,
			"0.005": 4.7247045409,
			"0.006": 5.11382454028,
			"0.007": 4.37936009271,
			"0.008": 3.63092735048,
			"0.009": 4.17924140902,
			"0.01": 3.42386178937,
			"0.011": 2.60698457574,
			"0.012": 1.42422459404,
			"0.013": 0.0613845683015,
			"0.014": 0.0,
			"0.015": 0.0,
			"0.016": 0.0,
			"0.017": 0.0,
			"0.018": 0.0,
			"0.019": 0.0,
			"0.02": 0.0,
			"0.021": 0.0,
			"0.022": 0.0,
			"0.023": 0.0,
			"0.024": 0.0,
			"0.025": 0.0
		}
	}
}
