{
	 "smiles": "CN1N=CC2=C1C=C(C=C2)[N+]([O-])=O", 
	 "Tm": 398.65, 
	 "num_atms": 20, 
	 "gaussian": { 
		 "optdone": 1, 
		 "sigma_profile": "yes", 
		 "theory": "DFT", 
		 "functional": "B3LYP", 
		 "basiset": "6-31G**", 
		 "properties": { 
			 "R2extent": 3007.9618, 
			 "electric_dipole_moment_norm": 3.64888945023, 
			 "electric_quadrupole_moment_norm": 24.5485298778, 
			 "total_energy": -623.65813507, 
			 "HOMO_LUMO_gap": 0.14811, 
			 "cosmo_polarized_energy": -10.57, 
			 "cosmo_cavitation_energy": 25.1, 
			 "cosmo_dispersion_energy": -18.52, 
			 "cosmo_repulsion_energy": 1.44, 
			 "cosmo_total_nonelectrostatic_energy": 8.02, 
			 "SMD_solvation_energy": 5.74 
		},
		"coords": [
			{
				"x": 0.0753813634,
				"y": 2.4851835388,
				"z": 0.0627403984,
				"element": "C" 
			},
			{
				"x": 0.5159105767,
				"y": 1.1097320868,
				"z": -0.0637062254,
				"element": "N" 
			},
			{
				"x": 1.822837857,
				"y": 0.7898756318,
				"z": 0.1094512598,
				"element": "N" 
			},
			{
				"x": 1.9253885875,
				"y": -0.5176725127,
				"z": -0.0698929394,
				"element": "C" 
			},
			{
				"x": 0.6602377992,
				"y": -1.0990075425,
				"z": -0.3726722616,
				"element": "C" 
			},
			{
				"x": -0.2364246758,
				"y": 0.0048956022,
				"z": -0.3588690791,
				"element": "C" 
			},
			{
				"x": -1.6049214509,
				"y": -0.1369511036,
				"z": -0.6136736728,
				"element": "C" 
			},
			{
				"x": -2.0350426787,
				"y": -1.4272539526,
				"z": -0.8811447916,
				"element": "C" 
			},
			{
				"x": -1.1791754318,
				"y": -2.5509598047,
				"z": -0.904436409,
				"element": "C" 
			},
			{
				"x": 0.1704962271,
				"y": -2.3900501948,
				"z": -0.6502925187,
				"element": "C" 
			},
			{
				"x": -3.4656790027,
				"y": -1.6321497033,
				"z": -1.1559999799,
				"element": "N" 
			},
			{
				"x": -4.2014098125,
				"y": -0.6443065935,
				"z": -1.1328532283,
				"element": "O" 
			},
			{
				"x": -3.8444922124,
				"y": -2.7788525988,
				"z": -1.3931498632,
				"element": "O" 
			},
			{
				"x": -0.6842736951,
				"y": 2.5792311392,
				"z": 0.8453906408,
				"element": "H" 
			},
			{
				"x": 0.9472545642,
				"y": 3.0800565273,
				"z": 0.3320223512,
				"element": "H" 
			},
			{
				"x": -0.3366766429,
				"y": 2.8523909152,
				"z": -0.8829603431,
				"element": "H" 
			},
			{
				"x": 2.8893577272,
				"y": -0.9990693309,
				"z": 0.022102789,
				"element": "H" 
			},
			{
				"x": -2.3095564213,
				"y": 0.6845648776,
				"z": -0.6105127569,
				"element": "H" 
			},
			{
				"x": -1.6068369303,
				"y": -3.5204477639,
				"z": -1.1232926965,
				"element": "H" 
			},
			{
				"x": 0.8369242522,
				"y": -3.2466092177,
				"z": -0.6657506737,
				"element": "H" 
			}
		],
		 "valence_orbital": [ 
			{
				"type": "occ",
				"energy": -0.30566,
				"method": "rhf"
			},
			{
				"type": "occ",
				"energy": -0.30435,
				"method": "rhf"
			},
			{
				"type": "occ",
				"energy": -0.28904,
				"method": "rhf"
			},
			{
				"type": "occ",
				"energy": -0.26721,
				"method": "rhf"
			},
			{
				"type": "occ",
				"energy": -0.23909,
				"method": "rhf"
			},
			{
				"type": "unocc",
				"energy": -0.09098,
				"method": "rhf"
			},
			{
				"type": "unocc",
				"energy": -0.03576,
				"method": "rhf"
			},
			{
				"type": "unocc",
				"energy": 0.00627,
				"method": "rhf"
			},
			{
				"type": "unocc",
				"energy": 0.04503,
				"method": "rhf"
			},
			{
				"type": "unocc",
				"energy": 0.08153,
				"method": "rhf"
			}
		],
		"cosmo_sigma_profile": { 
			"-0.025": 0.0,
			"-0.024": 0.0,
			"-0.023": 0.0,
			"-0.022": 0.0,
			"-0.021": 0.0,
			"-0.02": 0.0,
			"-0.019": 0.0,
			"-0.018": 0.0,
			"-0.017": 0.0,
			"-0.016": 0.0,
			"-0.015": 0.0,
			"-0.014": 0.0,
			"-0.013": 0.0,
			"-0.012": 0.0,
			"-0.011": 0.0,
			"-0.01": 0.0,
			"-0.009": 0.108404855716,
			"-0.008": 3.79209168161,
			"-0.007": 11.1566038386,
			"-0.006": 17.5651505211,
			"-0.005": 14.375944588,
			"-0.004": 14.3864251644,
			"-0.003": 14.1693870774,
			"-0.002": 9.7440342005,
			"-0.001": 12.9284093457,
			"0.0": 17.9695717692,
			"0.001": 16.9212780439,
			"0.002": 14.5279132845,
			"0.003": 7.35022950317,
			"0.004": 5.30917572702,
			"0.005": 5.04884671287,
			"0.006": 5.11773835568,
			"0.007": 8.18653975384,
			"0.008": 9.46254997184,
			"0.009": 6.01533731034,
			"0.01": 3.99632911731,
			"0.011": 1.45615119907,
			"0.012": 0.725830889531,
			"0.013": 1.0084919688,
			"0.014": 0.521063560324,
			"0.015": 0.0148994825481,
			"0.016": 0.0,
			"0.017": 0.0,
			"0.018": 0.0,
			"0.019": 0.0,
			"0.02": 0.0,
			"0.021": 0.0,
			"0.022": 0.0,
			"0.023": 0.0,
			"0.024": 0.0,
			"0.025": 0.0
		}
	}
}
