{
	 "smiles": "CC(C)CC=O", 
	 "Tm": 222.15, 
	 "num_atms": 16, 
	 "gaussian": { 
		 "optdone": 1, 
		 "sigma_profile": "yes", 
		 "theory": "DFT", 
		 "functional": "B3LYP", 
		 "basiset": "6-31G**", 
		 "properties": { 
			 "R2extent": 1696.7011, 
			 "electric_dipole_moment_norm": 2.77534527041, 
			 "electric_quadrupole_moment_norm": 12.494474644, 
			 "total_energy": -271.778741337, 
			 "HOMO_LUMO_gap": 0.22352, 
			 "cosmo_polarized_energy": -5.85, 
			 "cosmo_cavitation_energy": 18.68, 
			 "cosmo_dispersion_energy": -13.36, 
			 "cosmo_repulsion_energy": 1.16, 
			 "cosmo_total_nonelectrostatic_energy": 6.49, 
			 "SMD_solvation_energy": 4.42 
		},
		"coords": [
			{
				"x": -0.4422952462,
				"y": -3.2492210003,
				"z": -0.7750786476,
				"element": "C" 
			},
			{
				"x": 0.4875836769,
				"y": -2.1951190823,
				"z": -0.1582942535,
				"element": "C" 
			},
			{
				"x": -0.1197136301,
				"y": -0.7891696661,
				"z": -0.2844404738,
				"element": "C" 
			},
			{
				"x": 0.8116856577,
				"y": -2.5741905796,
				"z": 1.311754718,
				"element": "C" 
			},
			{
				"x": 1.8509685718,
				"y": -1.6777807592,
				"z": 1.9458335833,
				"element": "C" 
			},
			{
				"x": 2.9952873615,
				"y": -2.0134080925,
				"z": 2.1642733348,
				"element": "O" 
			},
			{
				"x": -1.4034529779,
				"y": -3.2803755931,
				"z": -0.247730161,
				"element": "H" 
			},
			{
				"x": -0.0013000145,
				"y": -4.2502797982,
				"z": -0.7269263618,
				"element": "H" 
			},
			{
				"x": -0.6471888928,
				"y": -3.0215028419,
				"z": -1.8266453932,
				"element": "H" 
			},
			{
				"x": 1.4353572101,
				"y": -2.2117533494,
				"z": -0.7140798744,
				"element": "H" 
			},
			{
				"x": 0.558382925,
				"y": -0.0081347503,
				"z": 0.0733796275,
				"element": "H" 
			},
			{
				"x": -1.0520134922,
				"y": -0.7119244902,
				"z": 0.2883424586,
				"element": "H" 
			},
			{
				"x": -0.3550059555,
				"y": -0.5644833227,
				"z": -1.3300129987,
				"element": "H" 
			},
			{
				"x": 1.1892723594,
				"y": -3.6005714852,
				"z": 1.3569025258,
				"element": "H" 
			},
			{
				"x": -0.1132230497,
				"y": -2.5147470124,
				"z": 1.904036194,
				"element": "H" 
			},
			{
				"x": 1.5089554964,
				"y": -0.6496381767,
				"z": 2.2040857221,
				"element": "H" 
			}
		],
		 "valence_orbital": [ 
			{
				"type": "occ",
				"energy": -0.37449,
				"method": "rhf"
			},
			{
				"type": "occ",
				"energy": -0.34629,
				"method": "rhf"
			},
			{
				"type": "occ",
				"energy": -0.33834,
				"method": "rhf"
			},
			{
				"type": "occ",
				"energy": -0.33191,
				"method": "rhf"
			},
			{
				"type": "occ",
				"energy": -0.24772,
				"method": "rhf"
			},
			{
				"type": "unocc",
				"energy": -0.0242,
				"method": "rhf"
			},
			{
				"type": "unocc",
				"energy": 0.08556,
				"method": "rhf"
			},
			{
				"type": "unocc",
				"energy": 0.11275,
				"method": "rhf"
			},
			{
				"type": "unocc",
				"energy": 0.12219,
				"method": "rhf"
			},
			{
				"type": "unocc",
				"energy": 0.13906,
				"method": "rhf"
			}
		],
		"cosmo_sigma_profile": { 
			"-0.025": 0.0,
			"-0.024": 0.0,
			"-0.023": 0.0,
			"-0.022": 0.0,
			"-0.021": 0.0,
			"-0.02": 0.0,
			"-0.019": 0.0,
			"-0.018": 0.0,
			"-0.017": 0.0,
			"-0.016": 0.0,
			"-0.015": 0.0,
			"-0.014": 0.0,
			"-0.013": 0.0,
			"-0.012": 0.0,
			"-0.011": 0.0,
			"-0.01": 0.0,
			"-0.009": 0.0,
			"-0.008": 0.0,
			"-0.007": 0.0,
			"-0.006": 2.05492618126,
			"-0.005": 9.74441813311,
			"-0.004": 10.4684789536,
			"-0.003": 22.3243503555,
			"-0.002": 21.723006396,
			"-0.001": 19.0155125093,
			"0.0": 15.5214948689,
			"0.001": 16.3680637212,
			"0.002": 4.67579020717,
			"0.003": 1.10167680994,
			"0.004": 1.37102255504,
			"0.005": 1.46682567298,
			"0.006": 1.52959684117,
			"0.007": 1.67867904905,
			"0.008": 1.36232014074,
			"0.009": 2.19786852194,
			"0.01": 2.907022754,
			"0.011": 4.08868777407,
			"0.012": 3.83154672224,
			"0.013": 1.40586143697,
			"0.014": 0.0,
			"0.015": 0.0,
			"0.016": 0.0,
			"0.017": 0.0,
			"0.018": 0.0,
			"0.019": 0.0,
			"0.02": 0.0,
			"0.021": 0.0,
			"0.022": 0.0,
			"0.023": 0.0,
			"0.024": 0.0,
			"0.025": 0.0
		}
	}
}
