{
	 "smiles": "ClC1=CC2=C(C=C1Cl)C(=O)C2=O", 
	 "Tm": 456.15, 
	 "num_atms": 14, 
	 "gaussian": { 
		 "optdone": 1, 
		 "sigma_profile": "yes", 
		 "theory": "DFT", 
		 "functional": "B3LYP", 
		 "basiset": "6-31G**", 
		 "properties": { 
			 "R2extent": 3671.8367, 
			 "electric_dipole_moment_norm": 3.40409620311, 
			 "electric_quadrupole_moment_norm": 19.0824286861, 
			 "total_energy": -1376.82585949, 
			 "HOMO_LUMO_gap": 0.14237, 
			 "cosmo_polarized_energy": -9.86, 
			 "cosmo_cavitation_energy": 23.99, 
			 "cosmo_dispersion_energy": -17.7, 
			 "cosmo_repulsion_energy": 1.42, 
			 "cosmo_total_nonelectrostatic_energy": 7.7, 
			 "SMD_solvation_energy": 5.06 
		},
		"coords": [
			{
				"x": 0.8447046168,
				"y": 1.5177498074,
				"z": 2.2791413514,
				"element": "Cl" 
			},
			{
				"x": -0.3688628924,
				"y": 0.6172632665,
				"z": 1.416341832,
				"element": "C" 
			},
			{
				"x": -1.2360039311,
				"y": -0.194770045,
				"z": 2.1509812676,
				"element": "C" 
			},
			{
				"x": -2.1893022188,
				"y": -0.895528168,
				"z": 1.4207558185,
				"element": "C" 
			},
			{
				"x": -2.2822754966,
				"y": -0.7986727575,
				"z": 0.0256014229,
				"element": "C" 
			},
			{
				"x": -1.4274011542,
				"y": 0.0046210189,
				"z": -0.7207087522,
				"element": "C" 
			},
			{
				"x": -0.4634155663,
				"y": 0.7157692636,
				"z": -0.002355768,
				"element": "C" 
			},
			{
				"x": 0.6338286097,
				"y": 1.7374155519,
				"z": -0.8856915932,
				"element": "Cl" 
			},
			{
				"x": -3.4489744818,
				"y": -1.7568735298,
				"z": -0.0618598985,
				"element": "C" 
			},
			{
				"x": -4.1368978663,
				"y": -2.2202003072,
				"z": -0.9271438088,
				"element": "O" 
			},
			{
				"x": -3.3430481813,
				"y": -1.8672102142,
				"z": 1.5288712311,
				"element": "C" 
			},
			{
				"x": -3.9148704202,
				"y": -2.451488548,
				"z": 2.4053782514,
				"element": "O" 
			},
			{
				"x": -1.1481997102,
				"y": -0.2564240998,
				"z": 3.2297570808,
				"element": "H" 
			},
			{
				"x": -1.4833813073,
				"y": 0.0927487612,
				"z": -1.7997684351,
				"element": "H" 
			}
		],
		 "valence_orbital": [ 
			{
				"type": "occ",
				"energy": -0.33898,
				"method": "rhf"
			},
			{
				"type": "occ",
				"energy": -0.33051,
				"method": "rhf"
			},
			{
				"type": "occ",
				"energy": -0.30004,
				"method": "rhf"
			},
			{
				"type": "occ",
				"energy": -0.28504,
				"method": "rhf"
			},
			{
				"type": "occ",
				"energy": -0.25313,
				"method": "rhf"
			},
			{
				"type": "unocc",
				"energy": -0.11076,
				"method": "rhf"
			},
			{
				"type": "unocc",
				"energy": -0.08231,
				"method": "rhf"
			},
			{
				"type": "unocc",
				"energy": -0.02309,
				"method": "rhf"
			},
			{
				"type": "unocc",
				"energy": -0.01499,
				"method": "rhf"
			},
			{
				"type": "unocc",
				"energy": 0.03026,
				"method": "rhf"
			}
		],
		"cosmo_sigma_profile": { 
			"-0.025": 0.0,
			"-0.024": 0.0,
			"-0.023": 0.0,
			"-0.022": 0.0,
			"-0.021": 0.0,
			"-0.02": 0.0,
			"-0.019": 0.0,
			"-0.018": 0.0,
			"-0.017": 0.0,
			"-0.016": 0.0,
			"-0.015": 0.0,
			"-0.014": 0.0,
			"-0.013": 0.0,
			"-0.012": 0.0,
			"-0.011": 0.175099659623,
			"-0.01": 2.84135588148,
			"-0.009": 3.78365890965,
			"-0.008": 4.76029233871,
			"-0.007": 5.35501389145,
			"-0.006": 6.56490166569,
			"-0.005": 8.24977493046,
			"-0.004": 13.9253612136,
			"-0.003": 22.7165918768,
			"-0.002": 23.8640809126,
			"-0.001": 11.6952471319,
			"0.0": 10.8782343371,
			"0.001": 11.6491535807,
			"0.002": 16.6432995148,
			"0.003": 16.5190864533,
			"0.004": 5.98479048178,
			"0.005": 2.99358650327,
			"0.006": 2.82989926936,
			"0.007": 4.7200061855,
			"0.008": 5.47336259868,
			"0.009": 9.00693279376,
			"0.01": 8.24118200662,
			"0.011": 1.0281849243,
			"0.012": 0.0,
			"0.013": 0.0,
			"0.014": 0.0,
			"0.015": 0.0,
			"0.016": 0.0,
			"0.017": 0.0,
			"0.018": 0.0,
			"0.019": 0.0,
			"0.02": 0.0,
			"0.021": 0.0,
			"0.022": 0.0,
			"0.023": 0.0,
			"0.024": 0.0,
			"0.025": 0.0
		}
	}
}
