{
	 "smiles": "CC(C)CC1=CC=C(C=C1)C(C)C(O)=O", 
	 "Tm": 348.15, 
	 "num_atms": 33, 
	 "gaussian": { 
		 "optdone": 1, 
		 "sigma_profile": "yes", 
		 "theory": "DFT", 
		 "functional": "B3LYP", 
		 "basiset": "6-31G**", 
		 "properties": { 
			 "R2extent": 4750.9954, 
			 "electric_dipole_moment_norm": 4.87439046548, 
			 "electric_quadrupole_moment_norm": 17.9085519945, 
			 "total_energy": -656.715335908, 
			 "HOMO_LUMO_gap": 0.22586, 
			 "cosmo_polarized_energy": -12.21, 
			 "cosmo_cavitation_energy": 35.25, 
			 "cosmo_dispersion_energy": -24.1, 
			 "cosmo_repulsion_energy": 1.92, 
			 "cosmo_total_nonelectrostatic_energy": 13.07, 
			 "SMD_solvation_energy": 7.0 
		},
		"coords": [
			{
				"x": 2.4235857623,
				"y": -2.1697074237,
				"z": -1.7387104311,
				"element": "C" 
			},
			{
				"x": 2.0520426402,
				"y": -2.9544329265,
				"z": -0.47347722,
				"element": "C" 
			},
			{
				"x": 2.9086701516,
				"y": -4.2213578019,
				"z": -0.3407924245,
				"element": "C" 
			},
			{
				"x": 2.1743456814,
				"y": -2.0873884474,
				"z": 0.8058279453,
				"element": "C" 
			},
			{
				"x": 1.2266394223,
				"y": -0.9088495326,
				"z": 0.8619567713,
				"element": "C" 
			},
			{
				"x": -0.1364879157,
				"y": -1.1003923559,
				"z": 1.1417615304,
				"element": "C" 
			},
			{
				"x": -1.0237623569,
				"y": -0.029278982,
				"z": 1.1849883173,
				"element": "C" 
			},
			{
				"x": -0.580688662,
				"y": 1.2840752346,
				"z": 0.9520098666,
				"element": "C" 
			},
			{
				"x": 0.7773716243,
				"y": 1.4771612712,
				"z": 0.6701382226,
				"element": "C" 
			},
			{
				"x": 1.6652030648,
				"y": 0.399029326,
				"z": 0.6277146179,
				"element": "C" 
			},
			{
				"x": -1.5463702781,
				"y": 2.4598140509,
				"z": 1.0126599248,
				"element": "C" 
			},
			{
				"x": -2.1674511539,
				"y": 2.6716980721,
				"z": 2.4008358761,
				"element": "C" 
			},
			{
				"x": -2.6457792252,
				"y": 2.3743568328,
				"z": -0.065117561,
				"element": "C" 
			},
			{
				"x": -2.2468270477,
				"y": 1.8989494299,
				"z": -1.2706722152,
				"element": "O" 
			},
			{
				"x": -3.7820960758,
				"y": 2.7438476227,
				"z": 0.1000964279,
				"element": "O" 
			},
			{
				"x": 2.2960652584,
				"y": -2.7878308686,
				"z": -2.6336435278,
				"element": "H" 
			},
			{
				"x": 1.8044699766,
				"y": -1.275522669,
				"z": -1.8574014181,
				"element": "H" 
			},
			{
				"x": 3.4724138846,
				"y": -1.8489315078,
				"z": -1.7046334017,
				"element": "H" 
			},
			{
				"x": 1.0002334668,
				"y": -3.2627338757,
				"z": -0.5622129003,
				"element": "H" 
			},
			{
				"x": 2.8075571817,
				"y": -4.860180512,
				"z": -1.2245202449,
				"element": "H" 
			},
			{
				"x": 2.6198438739,
				"y": -4.8121858493,
				"z": 0.5354051876,
				"element": "H" 
			},
			{
				"x": 3.9705625136,
				"y": -3.9671524118,
				"z": -0.2360438329,
				"element": "H" 
			},
			{
				"x": 1.9945491157,
				"y": -2.7313259797,
				"z": 1.6763960779,
				"element": "H" 
			},
			{
				"x": 3.2090951229,
				"y": -1.7312301909,
				"z": 0.8922812653,
				"element": "H" 
			},
			{
				"x": -0.5055829403,
				"y": -2.1052423374,
				"z": 1.3331105592,
				"element": "H" 
			},
			{
				"x": -2.0727638552,
				"y": -0.2129367952,
				"z": 1.4037191597,
				"element": "H" 
			},
			{
				"x": 1.1498353451,
				"y": 2.4838823311,
				"z": 0.4941151901,
				"element": "H" 
			},
			{
				"x": 2.7157481777,
				"y": 0.5806510325,
				"z": 0.4155008476,
				"element": "H" 
			},
			{
				"x": -0.976780766,
				"y": 3.3639967729,
				"z": 0.751455724,
				"element": "H" 
			},
			{
				"x": -1.3843207308,
				"y": 2.850084073,
				"z": 3.1426476861,
				"element": "H" 
			},
			{
				"x": -2.7423298918,
				"y": 1.7951988483,
				"z": 2.7124772969,
				"element": "H" 
			},
			{
				"x": -2.8488547735,
				"y": 3.5243070369,
				"z": 2.3824208771,
				"element": "H" 
			},
			{
				"x": -1.335236591,
				"y": 1.5734285324,
				"z": -1.1999941945,
				"element": "H" 
			}
		],
		 "valence_orbital": [ 
			{
				"type": "occ",
				"energy": -0.3276,
				"method": "rhf"
			},
			{
				"type": "occ",
				"energy": -0.30877,
				"method": "rhf"
			},
			{
				"type": "occ",
				"energy": -0.27147,
				"method": "rhf"
			},
			{
				"type": "occ",
				"energy": -0.26359,
				"method": "rhf"
			},
			{
				"type": "occ",
				"energy": -0.24447,
				"method": "rhf"
			},
			{
				"type": "unocc",
				"energy": -0.01861,
				"method": "rhf"
			},
			{
				"type": "unocc",
				"energy": -0.01799,
				"method": "rhf"
			},
			{
				"type": "unocc",
				"energy": 0.01456,
				"method": "rhf"
			},
			{
				"type": "unocc",
				"energy": 0.07935,
				"method": "rhf"
			},
			{
				"type": "unocc",
				"energy": 0.08461,
				"method": "rhf"
			}
		],
		"cosmo_sigma_profile": { 
			"-0.025": 0.0,
			"-0.024": 0.0,
			"-0.023": 0.0,
			"-0.022": 0.0,
			"-0.021": 0.0,
			"-0.02": 0.0,
			"-0.019": 0.0,
			"-0.018": 0.0,
			"-0.017": 0.0,
			"-0.016": 0.0,
			"-0.015": 0.249329225799,
			"-0.014": 0.366922612201,
			"-0.013": 0.618777421787,
			"-0.012": 0.779326309796,
			"-0.011": 1.16000982923,
			"-0.01": 1.59749376087,
			"-0.009": 1.00805938482,
			"-0.008": 1.63990026252,
			"-0.007": 5.77378241532,
			"-0.006": 8.79230448242,
			"-0.005": 11.0224471739,
			"-0.004": 14.5468938878,
			"-0.003": 25.3381408342,
			"-0.002": 34.6493499515,
			"-0.001": 31.7108862554,
			"0.0": 29.7933275497,
			"0.001": 32.523777706,
			"0.002": 19.3832917037,
			"0.003": 9.4479920273,
			"0.004": 7.37307703621,
			"0.005": 7.36791999423,
			"0.006": 3.7727917186,
			"0.007": 2.74292549056,
			"0.008": 2.83838763375,
			"0.009": 3.07803922014,
			"0.01": 4.55781921401,
			"0.011": 5.45424685541,
			"0.012": 5.47765729007,
			"0.013": 2.08581667246,
			"0.014": 0.13995324332,
			"0.015": 0.0,
			"0.016": 0.0,
			"0.017": 0.0,
			"0.018": 0.0,
			"0.019": 0.0,
			"0.02": 0.0,
			"0.021": 0.0,
			"0.022": 0.0,
			"0.023": 0.0,
			"0.024": 0.0,
			"0.025": 0.0
		}
	}
}
