{
	 "smiles": "CCOC(=O)C1=C(C)N(N=C1)C1=CC=C(N)C=C1", 
	 "Tm": 364.65, 
	 "num_atms": 33, 
	 "gaussian": { 
		 "optdone": 1, 
		 "sigma_profile": "yes", 
		 "theory": "DFT", 
		 "functional": "B3LYP", 
		 "basiset": "6-31G**", 
		 "properties": { 
			 "R2extent": 7225.3344, 
			 "electric_dipole_moment_norm": 3.38797989368, 
			 "electric_quadrupole_moment_norm": 21.9484612777, 
			 "total_energy": -819.137193327, 
			 "HOMO_LUMO_gap": 0.18555, 
			 "cosmo_polarized_energy": -15.64, 
			 "cosmo_cavitation_energy": 37.08, 
			 "cosmo_dispersion_energy": -26.65, 
			 "cosmo_repulsion_energy": 2.08, 
			 "cosmo_total_nonelectrostatic_energy": 12.51, 
			 "SMD_solvation_energy": 6.67 
		},
		"coords": [
			{
				"x": 5.8144949089,
				"y": -1.3787035742,
				"z": 2.5549460462,
				"element": "C" 
			},
			{
				"x": 4.5613740122,
				"y": -1.9213076479,
				"z": 3.2271152189,
				"element": "C" 
			},
			{
				"x": 3.4143594966,
				"y": -1.0854985541,
				"z": 2.9587438242,
				"element": "O" 
			},
			{
				"x": 2.7437322147,
				"y": -1.3314985675,
				"z": 1.8030230949,
				"element": "C" 
			},
			{
				"x": 3.0653583756,
				"y": -2.2087760049,
				"z": 1.0169338633,
				"element": "O" 
			},
			{
				"x": 1.6080355408,
				"y": -0.4227783269,
				"z": 1.6479761078,
				"element": "C" 
			},
			{
				"x": 0.6964241482,
				"y": -0.4043693022,
				"z": 0.5888156667,
				"element": "C" 
			},
			{
				"x": 0.6084278105,
				"y": -1.2897459878,
				"z": -0.6122542392,
				"element": "C" 
			},
			{
				"x": -0.1861454767,
				"y": 0.5948449618,
				"z": 0.8813080118,
				"element": "N" 
			},
			{
				"x": 0.0905515166,
				"y": 1.2113920191,
				"z": 2.0750978377,
				"element": "N" 
			},
			{
				"x": 1.1693436504,
				"y": 0.5979502345,
				"z": 2.5289071534,
				"element": "C" 
			},
			{
				"x": -1.3364933886,
				"y": 1.0154574267,
				"z": 0.1514941074,
				"element": "C" 
			},
			{
				"x": -2.5314716579,
				"y": 1.2527621114,
				"z": 0.8391800383,
				"element": "C" 
			},
			{
				"x": -3.6598163862,
				"y": 1.6836710027,
				"z": 0.1540556646,
				"element": "C" 
			},
			{
				"x": -3.6271581629,
				"y": 1.8821121518,
				"z": -1.2390063976,
				"element": "C" 
			},
			{
				"x": -4.7770617197,
				"y": 2.251174002,
				"z": -1.9332806452,
				"element": "N" 
			},
			{
				"x": -2.4186307964,
				"y": 1.648447692,
				"z": -1.9171701611,
				"element": "C" 
			},
			{
				"x": -1.2839867019,
				"y": 1.2305906362,
				"z": -1.2281993589,
				"element": "C" 
			},
			{
				"x": 5.7106838304,
				"y": -1.4146008126,
				"z": 1.4678252734,
				"element": "H" 
			},
			{
				"x": 6.00316176,
				"y": -0.3448411176,
				"z": 2.8591955589,
				"element": "H" 
			},
			{
				"x": 6.6819741266,
				"y": -1.9846043466,
				"z": 2.8380056084,
				"element": "H" 
			},
			{
				"x": 4.345709706,
				"y": -2.9383269513,
				"z": 2.8908672212,
				"element": "H" 
			},
			{
				"x": 4.6566570409,
				"y": -1.9116918173,
				"z": 4.3159204941,
				"element": "H" 
			},
			{
				"x": 1.1281779868,
				"y": -2.2238526886,
				"z": -0.3987290184,
				"element": "H" 
			},
			{
				"x": -0.4320774557,
				"y": -1.4895617265,
				"z": -0.8826850761,
				"element": "H" 
			},
			{
				"x": 1.0996697083,
				"y": -0.8406454757,
				"z": -1.4835765932,
				"element": "H" 
			},
			{
				"x": 1.6120941013,
				"y": 0.8961372955,
				"z": 3.4687989545,
				"element": "H" 
			},
			{
				"x": -2.5579419098,
				"y": 1.1087463496,
				"z": 1.9131765102,
				"element": "H" 
			},
			{
				"x": -4.5834106583,
				"y": 1.8617389978,
				"z": 0.6987862218,
				"element": "H" 
			},
			{
				"x": -5.4812029103,
				"y": 2.7272691551,
				"z": -1.3869695119,
				"element": "H" 
			},
			{
				"x": -4.6226395212,
				"y": 2.6961349917,
				"z": -2.8272203799,
				"element": "H" 
			},
			{
				"x": -2.365479425,
				"y": 1.8081625817,
				"z": -2.9909240275,
				"element": "H" 
			},
			{
				"x": -0.351913764,
				"y": 1.0938112922,
				"z": -1.7650570689,
				"element": "H" 
			}
		],
		 "valence_orbital": [ 
			{
				"type": "occ",
				"energy": -0.26124,
				"method": "rhf"
			},
			{
				"type": "occ",
				"energy": -0.26065,
				"method": "rhf"
			},
			{
				"type": "occ",
				"energy": -0.25642,
				"method": "rhf"
			},
			{
				"type": "occ",
				"energy": -0.23925,
				"method": "rhf"
			},
			{
				"type": "occ",
				"energy": -0.20467,
				"method": "rhf"
			},
			{
				"type": "unocc",
				"energy": -0.01912,
				"method": "rhf"
			},
			{
				"type": "unocc",
				"energy": -0.00831,
				"method": "rhf"
			},
			{
				"type": "unocc",
				"energy": 0.00566,
				"method": "rhf"
			},
			{
				"type": "unocc",
				"energy": 0.03613,
				"method": "rhf"
			},
			{
				"type": "unocc",
				"energy": 0.07323,
				"method": "rhf"
			}
		],
		"cosmo_sigma_profile": { 
			"-0.025": 0.0,
			"-0.024": 0.0,
			"-0.023": 0.0,
			"-0.022": 0.0,
			"-0.021": 0.0,
			"-0.02": 0.0,
			"-0.019": 0.0,
			"-0.018": 0.0,
			"-0.017": 0.0,
			"-0.016": 0.0,
			"-0.015": 0.0,
			"-0.014": 0.0,
			"-0.013": 0.812783413734,
			"-0.012": 2.87324155934,
			"-0.011": 3.2770651819,
			"-0.01": 2.89709744824,
			"-0.009": 3.4521935796,
			"-0.008": 3.73631023026,
			"-0.007": 6.84797743955,
			"-0.006": 11.0882711812,
			"-0.005": 16.8655767667,
			"-0.004": 20.0407358074,
			"-0.003": 23.6107965295,
			"-0.002": 24.3151825886,
			"-0.001": 27.3192634291,
			"0.0": 24.2705343128,
			"0.001": 18.7145682203,
			"0.002": 17.5430769825,
			"0.003": 15.8626363676,
			"0.004": 14.3907202738,
			"0.005": 18.6489144102,
			"0.006": 8.19702921191,
			"0.007": 4.92442475763,
			"0.008": 4.4259418531,
			"0.009": 4.03790431615,
			"0.01": 3.4377960304,
			"0.011": 4.09370372551,
			"0.012": 4.7767261584,
			"0.013": 1.79607837207,
			"0.014": 1.61118165296,
			"0.015": 0.381348521506,
			"0.016": 0.0,
			"0.017": 0.0,
			"0.018": 0.0,
			"0.019": 0.0,
			"0.02": 0.0,
			"0.021": 0.0,
			"0.022": 0.0,
			"0.023": 0.0,
			"0.024": 0.0,
			"0.025": 0.0
		}
	}
}
