{
	 "smiles": "C=CCCCCCCC1CO1", 
	 "Tm": 298.15, 
	 "num_atms": 29, 
	 "gaussian": { 
		 "optdone": 1, 
		 "sigma_profile": "yes", 
		 "theory": "DFT", 
		 "functional": "B3LYP", 
		 "basiset": "6-31G**", 
		 "properties": { 
			 "R2extent": 3506.6302, 
			 "electric_dipole_moment_norm": 1.80236547348, 
			 "electric_quadrupole_moment_norm": 12.8759287502, 
			 "total_energy": -467.077884735, 
			 "HOMO_LUMO_gap": 0.27499, 
			 "cosmo_polarized_energy": -6.09, 
			 "cosmo_cavitation_energy": 30.61, 
			 "cosmo_dispersion_energy": -21.21, 
			 "cosmo_repulsion_energy": 1.73, 
			 "cosmo_total_nonelectrostatic_energy": 11.13, 
			 "SMD_solvation_energy": 4.99 
		},
		"coords": [
			{
				"x": -0.2761598729,
				"y": 0.4796987912,
				"z": -3.9085269938,
				"element": "C" 
			},
			{
				"x": -0.9094118307,
				"y": 1.5393681177,
				"z": -3.403322255,
				"element": "C" 
			},
			{
				"x": -0.6268697225,
				"y": 2.2430399661,
				"z": -2.0972281679,
				"element": "C" 
			},
			{
				"x": 0.3444441071,
				"y": 1.553808427,
				"z": -1.1264758769,
				"element": "C" 
			},
			{
				"x": -0.2463080352,
				"y": 0.3153997486,
				"z": -0.4338319056,
				"element": "C" 
			},
			{
				"x": 0.7543329689,
				"y": -0.4666124046,
				"z": 0.4346909013,
				"element": "C" 
			},
			{
				"x": 1.3720127782,
				"y": 0.3057589755,
				"z": 1.616827927,
				"element": "C" 
			},
			{
				"x": 0.3751990175,
				"y": 0.8470323701,
				"z": 2.6589072949,
				"element": "C" 
			},
			{
				"x": -0.4145663561,
				"y": -0.2286593713,
				"z": 3.3712604926,
				"element": "C" 
			},
			{
				"x": 0.0577085352,
				"y": -0.8345624243,
				"z": 4.6260767794,
				"element": "C" 
			},
			{
				"x": -0.9976425089,
				"y": 0.1341482391,
				"z": 4.6315052117,
				"element": "O" 
			},
			{
				"x": -0.5507227206,
				"y": 0.0698721151,
				"z": -4.8759538868,
				"element": "H" 
			},
			{
				"x": 0.5363551538,
				"y": -0.019354077,
				"z": -3.3882117045,
				"element": "H" 
			},
			{
				"x": -1.7139306486,
				"y": 1.9849420527,
				"z": -3.9902800238,
				"element": "H" 
			},
			{
				"x": -1.5838215569,
				"y": 2.4216146289,
				"z": -1.5844019329,
				"element": "H" 
			},
			{
				"x": -0.2479677953,
				"y": 3.2480434952,
				"z": -2.3372795671,
				"element": "H" 
			},
			{
				"x": 0.6455237729,
				"y": 2.2878274039,
				"z": -0.3693728749,
				"element": "H" 
			},
			{
				"x": 1.2655530115,
				"y": 1.2790644935,
				"z": -1.6582568901,
				"element": "H" 
			},
			{
				"x": -1.1080142242,
				"y": 0.6264983804,
				"z": 0.1727006439,
				"element": "H" 
			},
			{
				"x": -0.649301662,
				"y": -0.3639961068,
				"z": -1.1932832926,
				"element": "H" 
			},
			{
				"x": 0.2613647548,
				"y": -1.3729053946,
				"z": 0.8095630922,
				"element": "H" 
			},
			{
				"x": 1.5742676187,
				"y": -0.8206373964,
				"z": -0.2050433116,
				"element": "H" 
			},
			{
				"x": 2.0882680131,
				"y": -0.353612142,
				"z": 2.1244643302,
				"element": "H" 
			},
			{
				"x": 1.9612101006,
				"y": 1.1479945806,
				"z": 1.2344348188,
				"element": "H" 
			},
			{
				"x": -0.327307923,
				"y": 1.5461873185,
				"z": 2.1873181318,
				"element": "H" 
			},
			{
				"x": 0.9165880687,
				"y": 1.423611969,
				"z": 3.4180631452,
				"element": "H" 
			},
			{
				"x": -1.0778825927,
				"y": -0.8308535029,
				"z": 2.7467563496,
				"element": "H" 
			},
			{
				"x": -0.235540399,
				"y": -1.851548493,
				"z": 4.8880527324,
				"element": "H" 
			},
			{
				"x": 1.0013199477,
				"y": -0.4999697603,
				"z": 5.0592468325,
				"element": "H" 
			}
		],
		 "valence_orbital": [ 
			{
				"type": "occ",
				"energy": -0.31517,
				"method": "rhf"
			},
			{
				"type": "occ",
				"energy": -0.31246,
				"method": "rhf"
			},
			{
				"type": "occ",
				"energy": -0.29343,
				"method": "rhf"
			},
			{
				"type": "occ",
				"energy": -0.25906,
				"method": "rhf"
			},
			{
				"type": "occ",
				"energy": -0.25067,
				"method": "rhf"
			},
			{
				"type": "unocc",
				"energy": 0.02432,
				"method": "rhf"
			},
			{
				"type": "unocc",
				"energy": 0.07118,
				"method": "rhf"
			},
			{
				"type": "unocc",
				"energy": 0.09714,
				"method": "rhf"
			},
			{
				"type": "unocc",
				"energy": 0.10344,
				"method": "rhf"
			},
			{
				"type": "unocc",
				"energy": 0.10907,
				"method": "rhf"
			}
		],
		"cosmo_sigma_profile": { 
			"-0.025": 0.0,
			"-0.024": 0.0,
			"-0.023": 0.0,
			"-0.022": 0.0,
			"-0.021": 0.0,
			"-0.02": 0.0,
			"-0.019": 0.0,
			"-0.018": 0.0,
			"-0.017": 0.0,
			"-0.016": 0.0,
			"-0.015": 0.0,
			"-0.014": 0.0,
			"-0.013": 0.0,
			"-0.012": 0.0,
			"-0.011": 0.0,
			"-0.01": 0.0,
			"-0.009": 0.0,
			"-0.008": 0.0,
			"-0.007": 0.00137200845413,
			"-0.006": 2.30197121896,
			"-0.005": 7.06055819768,
			"-0.004": 13.9978836697,
			"-0.003": 27.4597555114,
			"-0.002": 40.5621269972,
			"-0.001": 39.909950896,
			"0.0": 36.0895019456,
			"0.001": 22.2233773635,
			"0.002": 9.14157087203,
			"0.003": 6.27959501712,
			"0.004": 4.72775790705,
			"0.005": 5.55454118628,
			"0.006": 4.09252335478,
			"0.007": 3.71324864705,
			"0.008": 2.17565687536,
			"0.009": 1.98272599147,
			"0.01": 1.66088174179,
			"0.011": 2.60390452871,
			"0.012": 3.6285555367,
			"0.013": 2.06818794943,
			"0.014": 0.0650207117856,
			"0.015": 0.0,
			"0.016": 0.0,
			"0.017": 0.0,
			"0.018": 0.0,
			"0.019": 0.0,
			"0.02": 0.0,
			"0.021": 0.0,
			"0.022": 0.0,
			"0.023": 0.0,
			"0.024": 0.0,
			"0.025": 0.0
		}
	}
}
