{
	 "smiles": "OC(=O)C=CC1CCCCC1", 
	 "Tm": 328.15, 
	 "num_atms": 25, 
	 "gaussian": { 
		 "optdone": 1, 
		 "sigma_profile": "yes", 
		 "theory": "DFT", 
		 "functional": "B3LYP", 
		 "basiset": "6-31G**", 
		 "properties": { 
			 "R2extent": 4141.5805, 
			 "electric_dipole_moment_norm": 5.00103214947, 
			 "electric_quadrupole_moment_norm": 36.7538983809, 
			 "total_energy": -501.851982912, 
			 "HOMO_LUMO_gap": 0.22521, 
			 "cosmo_polarized_energy": -13.61, 
			 "cosmo_cavitation_energy": 26.89, 
			 "cosmo_dispersion_energy": -19.73, 
			 "cosmo_repulsion_energy": 1.61, 
			 "cosmo_total_nonelectrostatic_energy": 8.78, 
			 "SMD_solvation_energy": 5.09 
		},
		"coords": [
			{
				"x": -3.1315929652,
				"y": -4.6018088984,
				"z": 2.5799629669,
				"element": "O" 
			},
			{
				"x": -2.0237772074,
				"y": -4.4932446602,
				"z": 1.7920731198,
				"element": "C" 
			},
			{
				"x": -1.4475979031,
				"y": -5.4931342104,
				"z": 1.4292146062,
				"element": "O" 
			},
			{
				"x": -1.6175948438,
				"y": -3.1040986747,
				"z": 1.4432252805,
				"element": "C" 
			},
			{
				"x": -0.5448022576,
				"y": -2.8937201578,
				"z": 0.6693277755,
				"element": "C" 
			},
			{
				"x": 0.0209861604,
				"y": -1.5764588088,
				"z": 0.222557568,
				"element": "C" 
			},
			{
				"x": 1.5048649784,
				"y": -1.4585125279,
				"z": 0.6573929362,
				"element": "C" 
			},
			{
				"x": 2.1429060819,
				"y": -0.1568385078,
				"z": 0.1497032118,
				"element": "C" 
			},
			{
				"x": 1.3377320359,
				"y": 1.0756449287,
				"z": 0.5867099365,
				"element": "C" 
			},
			{
				"x": -0.132506596,
				"y": 0.962027287,
				"z": 0.1575526734,
				"element": "C" 
			},
			{
				"x": -0.7736516144,
				"y": -0.3378655693,
				"z": 0.6688048699,
				"element": "C" 
			},
			{
				"x": -3.4814521075,
				"y": -3.7244173441,
				"z": 2.7874013984,
				"element": "H" 
			},
			{
				"x": -2.209113171,
				"y": -2.2747470268,
				"z": 1.8254142622,
				"element": "H" 
			},
			{
				"x": -0.0127035302,
				"y": -3.7842788986,
				"z": 0.333000839,
				"element": "H" 
			},
			{
				"x": 0.0204383455,
				"y": -1.5983397419,
				"z": -0.8809736694,
				"element": "H" 
			},
			{
				"x": 2.0685923986,
				"y": -2.3267415877,
				"z": 0.2957204279,
				"element": "H" 
			},
			{
				"x": 1.5520597735,
				"y": -1.489725037,
				"z": 1.7546046901,
				"element": "H" 
			},
			{
				"x": 3.1762738028,
				"y": -0.0852280677,
				"z": 0.5088037495,
				"element": "H" 
			},
			{
				"x": 2.1954560536,
				"y": -0.1852964031,
				"z": -0.9479352677,
				"element": "H" 
			},
			{
				"x": 1.7844365445,
				"y": 1.9875156745,
				"z": 0.1733160291,
				"element": "H" 
			},
			{
				"x": 1.3885111188,
				"y": 1.1712319245,
				"z": 1.6806996242,
				"element": "H" 
			},
			{
				"x": -0.7030809017,
				"y": 1.8258215969,
				"z": 0.5183632745,
				"element": "H" 
			},
			{
				"x": -0.1927849118,
				"y": 0.9866442141,
				"z": -0.9397477217,
				"element": "H" 
			},
			{
				"x": -1.8104343211,
				"y": -0.4095931157,
				"z": 0.3181008301,
				"element": "H" 
			},
			{
				"x": -0.8117649632,
				"y": -0.3133363879,
				"z": 1.7673065891,
				"element": "H" 
			}
		],
		 "valence_orbital": [ 
			{
				"type": "occ",
				"energy": -0.31509,
				"method": "rhf"
			},
			{
				"type": "occ",
				"energy": -0.31033,
				"method": "rhf"
			},
			{
				"type": "occ",
				"energy": -0.30751,
				"method": "rhf"
			},
			{
				"type": "occ",
				"energy": -0.26998,
				"method": "rhf"
			},
			{
				"type": "occ",
				"energy": -0.2656,
				"method": "rhf"
			},
			{
				"type": "unocc",
				"energy": -0.04039,
				"method": "rhf"
			},
			{
				"type": "unocc",
				"energy": 0.06103,
				"method": "rhf"
			},
			{
				"type": "unocc",
				"energy": 0.07721,
				"method": "rhf"
			},
			{
				"type": "unocc",
				"energy": 0.08941,
				"method": "rhf"
			},
			{
				"type": "unocc",
				"energy": 0.09842,
				"method": "rhf"
			}
		],
		"cosmo_sigma_profile": { 
			"-0.025": 0.0,
			"-0.024": 0.0,
			"-0.023": 0.0,
			"-0.022": 0.0,
			"-0.021": 0.0,
			"-0.02": 0.0,
			"-0.019": 0.468343499493,
			"-0.018": 1.36267721224,
			"-0.017": 0.966013670177,
			"-0.016": 1.47386140664,
			"-0.015": 0.846451060905,
			"-0.014": 0.544105373521,
			"-0.013": 0.684276011079,
			"-0.012": 1.11210462867,
			"-0.011": 1.38444947994,
			"-0.01": 1.28316433543,
			"-0.009": 0.465298066107,
			"-0.008": 1.18073047635,
			"-0.007": 1.54880675598,
			"-0.006": 1.32751864126,
			"-0.005": 3.3258900134,
			"-0.004": 7.67535957367,
			"-0.003": 17.3839600557,
			"-0.002": 33.3659737316,
			"-0.001": 32.9348796146,
			"0.0": 31.1869415024,
			"0.001": 21.9153651439,
			"0.002": 6.46509512822,
			"0.003": 5.07964696017,
			"0.004": 3.11088493393,
			"0.005": 1.98350140046,
			"0.006": 2.21241578367,
			"0.007": 2.48043747075,
			"0.008": 2.66905202415,
			"0.009": 2.9930314394,
			"0.01": 3.61279642547,
			"0.011": 5.1401245968,
			"0.012": 5.80696409356,
			"0.013": 3.82313503222,
			"0.014": 0.854143532064,
			"0.015": 0.0,
			"0.016": 0.0,
			"0.017": 0.0,
			"0.018": 0.0,
			"0.019": 0.0,
			"0.02": 0.0,
			"0.021": 0.0,
			"0.022": 0.0,
			"0.023": 0.0,
			"0.024": 0.0,
			"0.025": 0.0
		}
	}
}
