{
	 "smiles": "CCCCCCCCOC1=CC=C(C=C1)C(=O)OC", 
	 "Tm": 308.15, 
	 "num_atms": 43, 
	 "gaussian": { 
		 "optdone": 1, 
		 "sigma_profile": "yes", 
		 "theory": "DFT", 
		 "functional": "B3LYP", 
		 "basiset": "6-31G**", 
		 "properties": { 
			 "R2extent": 11247.8148, 
			 "electric_dipole_moment_norm": 2.25813967681, 
			 "electric_quadrupole_moment_norm": 17.5780185869, 
			 "total_energy": -849.863429236, 
			 "HOMO_LUMO_gap": 0.19309, 
			 "cosmo_polarized_energy": -9.4, 
			 "cosmo_cavitation_energy": 44.65, 
			 "cosmo_dispersion_energy": -31.3, 
			 "cosmo_repulsion_energy": 2.46, 
			 "cosmo_total_nonelectrostatic_energy": 15.81, 
			 "SMD_solvation_energy": 8.59 
		},
		"coords": [
			{
				"x": 1.7542012033,
				"y": 1.8889915019,
				"z": 5.1793109132,
				"element": "C" 
			},
			{
				"x": 2.6245456909,
				"y": 0.6280570101,
				"z": 5.2329368131,
				"element": "C" 
			},
			{
				"x": 3.7683214123,
				"y": 0.6009218274,
				"z": 4.2044087285,
				"element": "C" 
			},
			{
				"x": 3.3821214746,
				"y": 0.5861879461,
				"z": 2.7123068815,
				"element": "C" 
			},
			{
				"x": 2.6398115467,
				"y": -0.6764267691,
				"z": 2.2177290543,
				"element": "C" 
			},
			{
				"x": 1.1057144591,
				"y": -0.5867545217,
				"z": 2.2693798795,
				"element": "C" 
			},
			{
				"x": 0.3745429665,
				"y": -1.8721513427,
				"z": 1.8458702398,
				"element": "C" 
			},
			{
				"x": 0.5797212112,
				"y": -2.2741503794,
				"z": 0.3832122666,
				"element": "C" 
			},
			{
				"x": 0.1993510197,
				"y": -1.2431805013,
				"z": -0.5378410312,
				"element": "O" 
			},
			{
				"x": -1.1052385839,
				"y": -1.0733528952,
				"z": -0.8823461416,
				"element": "C" 
			},
			{
				"x": -1.3558785456,
				"y": -0.0137158103,
				"z": -1.7722886419,
				"element": "C" 
			},
			{
				"x": -2.6453007716,
				"y": 0.2444587382,
				"z": -2.2098539468,
				"element": "C" 
			},
			{
				"x": -3.7186043432,
				"y": -0.5489459534,
				"z": -1.7690456784,
				"element": "C" 
			},
			{
				"x": -3.4626929494,
				"y": -1.6007700978,
				"z": -0.8822256912,
				"element": "C" 
			},
			{
				"x": -2.1720417509,
				"y": -1.8688439078,
				"z": -0.4346415155,
				"element": "C" 
			},
			{
				"x": -5.1191620209,
				"y": -0.3222753178,
				"z": -2.2002308578,
				"element": "C" 
			},
			{
				"x": -6.0739044376,
				"y": -0.9854433173,
				"z": -1.8385596504,
				"element": "O" 
			},
			{
				"x": -5.2354003868,
				"y": 0.7219047383,
				"z": -3.0586736723,
				"element": "O" 
			},
			{
				"x": -6.5687271374,
				"y": 0.9904614592,
				"z": -3.512753304,
				"element": "C" 
			},
			{
				"x": 2.3623254891,
				"y": 2.7914182731,
				"z": 5.3124933793,
				"element": "H" 
			},
			{
				"x": 1.2286939411,
				"y": 1.9852523927,
				"z": 4.2236767901,
				"element": "H" 
			},
			{
				"x": 0.9969491836,
				"y": 1.880082739,
				"z": 5.9702899278,
				"element": "H" 
			},
			{
				"x": 1.994601854,
				"y": -0.2630934236,
				"z": 5.1171131041,
				"element": "H" 
			},
			{
				"x": 3.0671134493,
				"y": 0.546727546,
				"z": 6.2342898715,
				"element": "H" 
			},
			{
				"x": 4.3969243085,
				"y": -0.2780421189,
				"z": 4.4038276913,
				"element": "H" 
			},
			{
				"x": 4.4106293182,
				"y": 1.474971126,
				"z": 4.3818536624,
				"element": "H" 
			},
			{
				"x": 4.3136232624,
				"y": 0.687300478,
				"z": 2.1417490189,
				"element": "H" 
			},
			{
				"x": 2.7904537104,
				"y": 1.4772990878,
				"z": 2.4641710089,
				"element": "H" 
			},
			{
				"x": 2.9781249413,
				"y": -1.5483898795,
				"z": 2.7969108877,
				"element": "H" 
			},
			{
				"x": 2.9419985614,
				"y": -0.8696759695,
				"z": 1.1812301456,
				"element": "H" 
			},
			{
				"x": 0.780531995,
				"y": -0.333224347,
				"z": 3.2839501743,
				"element": "H" 
			},
			{
				"x": 0.7742167542,
				"y": 0.2383340982,
				"z": 1.6269299007,
				"element": "H" 
			},
			{
				"x": -0.6978082077,
				"y": -1.7543233782,
				"z": 2.0396387741,
				"element": "H" 
			},
			{
				"x": 0.7101817408,
				"y": -2.7153299735,
				"z": 2.4659056567,
				"element": "H" 
			},
			{
				"x": 1.6387609887,
				"y": -2.4429301272,
				"z": 0.172001379,
				"element": "H" 
			},
			{
				"x": 0.0490453125,
				"y": -3.2053198815,
				"z": 0.1508585435,
				"element": "H" 
			},
			{
				"x": -0.5158559767,
				"y": 0.5866171031,
				"z": -2.1056269636,
				"element": "H" 
			},
			{
				"x": -2.8318190049,
				"y": 1.061654223,
				"z": -2.897170118,
				"element": "H" 
			},
			{
				"x": -4.2975289842,
				"y": -2.2064376516,
				"z": -0.5455205564,
				"element": "H" 
			},
			{
				"x": -2.0098941378,
				"y": -2.686923984,
				"z": 0.2563212024,
				"element": "H" 
			},
			{
				"x": -6.485213468,
				"y": 1.8452792229,
				"z": -4.1843187363,
				"element": "H" 
			},
			{
				"x": -7.2241918239,
				"y": 1.2274226352,
				"z": -2.6706121981,
				"element": "H" 
			},
			{
				"x": -6.9789432643,
				"y": 0.126259402,
				"z": -4.0417571908,
				"element": "H" 
			}
		],
		 "valence_orbital": [ 
			{
				"type": "occ",
				"energy": -0.3045,
				"method": "rhf"
			},
			{
				"type": "occ",
				"energy": -0.29327,
				"method": "rhf"
			},
			{
				"type": "occ",
				"energy": -0.26475,
				"method": "rhf"
			},
			{
				"type": "occ",
				"energy": -0.25648,
				"method": "rhf"
			},
			{
				"type": "occ",
				"energy": -0.22429,
				"method": "rhf"
			},
			{
				"type": "unocc",
				"energy": -0.0312,
				"method": "rhf"
			},
			{
				"type": "unocc",
				"energy": -0.00523,
				"method": "rhf"
			},
			{
				"type": "unocc",
				"energy": 0.06891,
				"method": "rhf"
			},
			{
				"type": "unocc",
				"energy": 0.07573,
				"method": "rhf"
			},
			{
				"type": "unocc",
				"energy": 0.08925,
				"method": "rhf"
			}
		],
		"cosmo_sigma_profile": { 
			"-0.025": 0.0,
			"-0.024": 0.0,
			"-0.023": 0.0,
			"-0.022": 0.0,
			"-0.021": 0.0,
			"-0.02": 0.0,
			"-0.019": 0.0,
			"-0.018": 0.0,
			"-0.017": 0.0,
			"-0.016": 0.0,
			"-0.015": 0.0,
			"-0.014": 0.0,
			"-0.013": 0.0,
			"-0.012": 0.0,
			"-0.011": 0.0,
			"-0.01": 0.0,
			"-0.009": 0.0,
			"-0.008": 0.341362109018,
			"-0.007": 2.74314304052,
			"-0.006": 9.84543378004,
			"-0.005": 17.6465575104,
			"-0.004": 19.9419914294,
			"-0.003": 27.8332860224,
			"-0.002": 37.1581903448,
			"-0.001": 50.2456929834,
			"0.0": 49.5247070381,
			"0.001": 44.1729018664,
			"0.002": 27.0356224718,
			"0.003": 17.4763933816,
			"0.004": 15.3955984003,
			"0.005": 6.38937806389,
			"0.006": 5.0067483683,
			"0.007": 2.43873657118,
			"0.008": 1.91540815986,
			"0.009": 2.83499561479,
			"0.01": 2.64779297198,
			"0.011": 2.34251287398,
			"0.012": 4.512029125,
			"0.013": 1.45561262286,
			"0.014": 0.0,
			"0.015": 0.0,
			"0.016": 0.0,
			"0.017": 0.0,
			"0.018": 0.0,
			"0.019": 0.0,
			"0.02": 0.0,
			"0.021": 0.0,
			"0.022": 0.0,
			"0.023": 0.0,
			"0.024": 0.0,
			"0.025": 0.0
		}
	}
}
