{
	 "smiles": "COC(=O)C1=CC(I)=CC(N)=C1", 
	 "Tm": 353.15, 
	 "num_atms": 20, 
	 "gaussian": { 
		 "optdone": 1, 
		 "sigma_profile": "yes", 
		 "theory": "DFT", 
		 "functional": "B3LYP", 
		 "basiset": "6-31G**", 
		 "properties": { 
			 "R2extent": 2779.3432, 
			 "electric_dipole_moment_norm": 4.64147860708, 
			 "electric_quadrupole_moment_norm": 11.1084082028, 
			 "total_energy": -526.271296572, 
			 "HOMO_LUMO_gap": 0.1693, 
			 "cosmo_polarized_energy": -12.69, 
			 "cosmo_cavitation_energy": 27.96, 
			 "cosmo_dispersion_energy": -21.91, 
			 "cosmo_repulsion_energy": 1.73, 
			 "cosmo_total_nonelectrostatic_energy": 7.79, 
			 "SMD_solvation_energy": 5.46 
		},
		"coords": [
			{
				"x": -2.0209171433,
				"y": -2.8252179501,
				"z": -0.5307482752,
				"element": "C" 
			},
			{
				"x": -1.6675614905,
				"y": -1.4386320362,
				"z": -0.4076242993,
				"element": "O" 
			},
			{
				"x": -0.7190936374,
				"y": -1.1682673334,
				"z": 0.5185410283,
				"element": "C" 
			},
			{
				"x": -0.194884619,
				"y": -2.026639491,
				"z": 1.2001321339,
				"element": "O" 
			},
			{
				"x": -0.3986912759,
				"y": 0.2884160894,
				"z": 0.6006602017,
				"element": "C" 
			},
			{
				"x": 0.5764451297,
				"y": 0.675233852,
				"z": 1.5306530427,
				"element": "C" 
			},
			{
				"x": 0.8923165783,
				"y": 2.0268195519,
				"z": 1.6226633642,
				"element": "C" 
			},
			{
				"x": 2.3676797815,
				"y": 2.6559794621,
				"z": 3.0148044073,
				"element": "I" 
			},
			{
				"x": 0.2712327218,
				"y": 2.9850203302,
				"z": 0.8241275686,
				"element": "C" 
			},
			{
				"x": -0.7071178923,
				"y": 2.5905888761,
				"z": -0.1075375879,
				"element": "C" 
			},
			{
				"x": -1.3754212572,
				"y": 3.5430554072,
				"z": -0.8714578672,
				"element": "N" 
			},
			{
				"x": -1.0355319711,
				"y": 1.2294412451,
				"z": -0.2107301891,
				"element": "C" 
			},
			{
				"x": -2.4106703589,
				"y": -3.20819944,
				"z": 0.4156427493,
				"element": "H" 
			},
			{
				"x": -1.1504210969,
				"y": -3.4199661022,
				"z": -0.8186161681,
				"element": "H" 
			},
			{
				"x": -2.7866104759,
				"y": -2.8660196849,
				"z": -1.3054116474,
				"element": "H" 
			},
			{
				"x": 1.0526384362,
				"y": -0.0782901475,
				"z": 2.1440755101,
				"element": "H" 
			},
			{
				"x": 0.5321894344,
				"y": 4.0340880144,
				"z": 0.9175904966,
				"element": "H" 
			},
			{
				"x": -1.7985375244,
				"y": 3.2009954632,
				"z": -1.7226024308,
				"element": "H" 
			},
			{
				"x": -0.8899016133,
				"y": 4.4184463029,
				"z": -1.0073666495,
				"element": "H" 
			},
			{
				"x": -1.788941726,
				"y": 0.9035475908,
				"z": -0.9191953881,
				"element": "H" 
			}
		],
		 "valence_orbital": [ 
			{
				"type": "occ",
				"energy": -0.2876,
				"method": "rhf"
			},
			{
				"type": "occ",
				"energy": -0.27624,
				"method": "rhf"
			},
			{
				"type": "occ",
				"energy": -0.26549,
				"method": "rhf"
			},
			{
				"type": "occ",
				"energy": -0.24408,
				"method": "rhf"
			},
			{
				"type": "occ",
				"energy": -0.21852,
				"method": "rhf"
			},
			{
				"type": "unocc",
				"energy": -0.04922,
				"method": "rhf"
			},
			{
				"type": "unocc",
				"energy": -0.03675,
				"method": "rhf"
			},
			{
				"type": "unocc",
				"energy": -0.00613,
				"method": "rhf"
			},
			{
				"type": "unocc",
				"energy": 0.04479,
				"method": "rhf"
			},
			{
				"type": "unocc",
				"energy": 0.04926,
				"method": "rhf"
			}
		],
		"cosmo_sigma_profile": { 
			"-0.025": 0.0,
			"-0.024": 0.0,
			"-0.023": 0.0,
			"-0.022": 0.0,
			"-0.021": 0.0,
			"-0.02": 0.0,
			"-0.019": 0.0,
			"-0.018": 0.0,
			"-0.017": 0.0,
			"-0.016": 0.0,
			"-0.015": 0.0,
			"-0.014": 0.023896609209,
			"-0.013": 2.02466043383,
			"-0.012": 3.40145578259,
			"-0.011": 3.31332597129,
			"-0.01": 3.56263973905,
			"-0.009": 2.99810693336,
			"-0.008": 3.50886880143,
			"-0.007": 4.68501525415,
			"-0.006": 8.23186902686,
			"-0.005": 13.3697467109,
			"-0.004": 14.1175972378,
			"-0.003": 16.0362409802,
			"-0.002": 11.5489819918,
			"-0.001": 11.9265476492,
			"0.0": 12.6002879147,
			"0.001": 15.2640379999,
			"0.002": 21.9454169062,
			"0.003": 25.3463554246,
			"0.004": 22.4858276057,
			"0.005": 9.6475972477,
			"0.006": 3.2924350808,
			"0.007": 2.87531927682,
			"0.008": 2.20592399522,
			"0.009": 1.77772631459,
			"0.01": 2.64093519164,
			"0.011": 3.93906345267,
			"0.012": 4.44559526072,
			"0.013": 0.656193843791,
			"0.014": 0.115123056174,
			"0.015": 0.0,
			"0.016": 0.0,
			"0.017": 0.0,
			"0.018": 0.0,
			"0.019": 0.0,
			"0.02": 0.0,
			"0.021": 0.0,
			"0.022": 0.0,
			"0.023": 0.0,
			"0.024": 0.0,
			"0.025": 0.0
		}
	}
}
