{
	 "smiles": "COC1=C2N=CC=CC2=CC=C1", 
	 "Tm": 322.65, 
	 "num_atms": 21, 
	 "gaussian": { 
		 "optdone": 1, 
		 "sigma_profile": "yes", 
		 "theory": "DFT", 
		 "functional": "B3LYP", 
		 "basiset": "6-31G**", 
		 "properties": { 
			 "R2extent": 1950.7183, 
			 "electric_dipole_moment_norm": 1.47558287466, 
			 "electric_quadrupole_moment_norm": 7.44103773542, 
			 "total_energy": -516.449994809, 
			 "HOMO_LUMO_gap": 0.15636, 
			 "cosmo_polarized_energy": -5.82, 
			 "cosmo_cavitation_energy": 24.41, 
			 "cosmo_dispersion_energy": -18.41, 
			 "cosmo_repulsion_energy": 1.44, 
			 "cosmo_total_nonelectrostatic_energy": 7.44, 
			 "SMD_solvation_energy": 4.4 
		},
		"coords": [
			{
				"x": -2.3424286746,
				"y": -0.6019448974,
				"z": -1.7963683571,
				"element": "C" 
			},
			{
				"x": -2.2336634596,
				"y": -0.0804748506,
				"z": -0.4709225349,
				"element": "O" 
			},
			{
				"x": -1.0905183128,
				"y": -0.0600299472,
				"z": 0.2592365147,
				"element": "C" 
			},
			{
				"x": 0.2012107227,
				"y": -0.5459920624,
				"z": -0.1448735711,
				"element": "C" 
			},
			{
				"x": 0.3717260636,
				"y": -1.0993394716,
				"z": -1.3794050294,
				"element": "N" 
			},
			{
				"x": 1.5653229893,
				"y": -1.5359907417,
				"z": -1.7229007757,
				"element": "C" 
			},
			{
				"x": 2.7028495933,
				"y": -1.4684671387,
				"z": -0.8824219164,
				"element": "C" 
			},
			{
				"x": 2.5575859463,
				"y": -0.9156967746,
				"z": 0.3658299261,
				"element": "C" 
			},
			{
				"x": 1.2917783681,
				"y": -0.4287597544,
				"z": 0.7877713243,
				"element": "C" 
			},
			{
				"x": 1.0958529952,
				"y": 0.1481931671,
				"z": 2.0643240282,
				"element": "C" 
			},
			{
				"x": -0.1564496755,
				"y": 0.6030652635,
				"z": 2.4169171619,
				"element": "C" 
			},
			{
				"x": -1.236474305,
				"y": 0.4993523028,
				"z": 1.5231797199,
				"element": "C" 
			},
			{
				"x": -2.092380229,
				"y": -1.6639449818,
				"z": -1.8377715395,
				"element": "H" 
			},
			{
				"x": -3.3922700419,
				"y": -0.4525166045,
				"z": -2.0607258356,
				"element": "H" 
			},
			{
				"x": -1.698915123,
				"y": -0.0675391763,
				"z": -2.498085061,
				"element": "H" 
			},
			{
				"x": 1.6535984097,
				"y": -1.9700688437,
				"z": -2.7184825605,
				"element": "H" 
			},
			{
				"x": 3.6591021467,
				"y": -1.8477276706,
				"z": -1.2287035121,
				"element": "H" 
			},
			{
				"x": 3.4012617207,
				"y": -0.8414415741,
				"z": 1.0475606266,
				"element": "H" 
			},
			{
				"x": 1.9362791788,
				"y": 0.224122191,
				"z": 2.7482030748,
				"element": "H" 
			},
			{
				"x": -0.3221980046,
				"y": 1.0484110218,
				"z": 3.3936520125,
				"element": "H" 
			},
			{
				"x": -2.2221703085,
				"y": 0.8574905433,
				"z": 1.8008863045,
				"element": "H" 
			}
		],
		 "valence_orbital": [ 
			{
				"type": "occ",
				"energy": -0.32092,
				"method": "rhf"
			},
			{
				"type": "occ",
				"energy": -0.28603,
				"method": "rhf"
			},
			{
				"type": "occ",
				"energy": -0.2502,
				"method": "rhf"
			},
			{
				"type": "occ",
				"energy": -0.2491,
				"method": "rhf"
			},
			{
				"type": "occ",
				"energy": -0.2024,
				"method": "rhf"
			},
			{
				"type": "unocc",
				"energy": -0.04604,
				"method": "rhf"
			},
			{
				"type": "unocc",
				"energy": -0.01329,
				"method": "rhf"
			},
			{
				"type": "unocc",
				"energy": 0.03018,
				"method": "rhf"
			},
			{
				"type": "unocc",
				"energy": 0.09534,
				"method": "rhf"
			},
			{
				"type": "unocc",
				"energy": 0.09688,
				"method": "rhf"
			}
		],
		"cosmo_sigma_profile": { 
			"-0.025": 0.0,
			"-0.024": 0.0,
			"-0.023": 0.0,
			"-0.022": 0.0,
			"-0.021": 0.0,
			"-0.02": 0.0,
			"-0.019": 0.0,
			"-0.018": 0.0,
			"-0.017": 0.0,
			"-0.016": 0.0,
			"-0.015": 0.0,
			"-0.014": 0.0,
			"-0.013": 0.0,
			"-0.012": 0.0,
			"-0.011": 0.0,
			"-0.01": 0.0,
			"-0.009": 0.0,
			"-0.008": 0.0,
			"-0.007": 3.6116867648,
			"-0.006": 11.3678049348,
			"-0.005": 15.1740502615,
			"-0.004": 16.5626906616,
			"-0.003": 16.1086472132,
			"-0.002": 15.6699299648,
			"-0.001": 11.902564316,
			"0.0": 10.2435862998,
			"0.001": 15.5642276949,
			"0.002": 22.0656101012,
			"0.003": 19.4398291146,
			"0.004": 13.4617466297,
			"0.005": 10.8911463004,
			"0.006": 3.59004219222,
			"0.007": 3.16783947343,
			"0.008": 3.51500184102,
			"0.009": 1.93070906424,
			"0.01": 1.31322325225,
			"0.011": 0.0208937867308,
			"0.012": 0.0,
			"0.013": 0.0,
			"0.014": 0.0,
			"0.015": 0.0,
			"0.016": 0.0,
			"0.017": 0.0,
			"0.018": 0.0,
			"0.019": 0.0,
			"0.02": 0.0,
			"0.021": 0.0,
			"0.022": 0.0,
			"0.023": 0.0,
			"0.024": 0.0,
			"0.025": 0.0
		}
	}
}
