{
	 "smiles": "NC1=C(C=NN1CCO)C#N", 
	 "Tm": 430.15, 
	 "num_atms": 19, 
	 "gaussian": { 
		 "optdone": 1, 
		 "sigma_profile": "yes", 
		 "theory": "DFT", 
		 "functional": "B3LYP", 
		 "basiset": "6-31G**", 
		 "properties": { 
			 "R2extent": 2166.1228, 
			 "electric_dipole_moment_norm": 4.10241435011, 
			 "electric_quadrupole_moment_norm": 22.0167923999, 
			 "total_energy": -527.648388031, 
			 "HOMO_LUMO_gap": 0.23088, 
			 "cosmo_polarized_energy": -18.36, 
			 "cosmo_cavitation_energy": 23.85, 
			 "cosmo_dispersion_energy": -17.24, 
			 "cosmo_repulsion_energy": 1.41, 
			 "cosmo_total_nonelectrostatic_energy": 8.03, 
			 "SMD_solvation_energy": 4.88 
		},
		"coords": [
			{
				"x": 2.0513493239,
				"y": 0.4747342105,
				"z": -0.0852460534,
				"element": "N" 
			},
			{
				"x": 0.7094686153,
				"y": 0.7972390863,
				"z": -0.1279000864,
				"element": "C" 
			},
			{
				"x": -0.0616973698,
				"y": 1.5776055402,
				"z": 0.7474627614,
				"element": "C" 
			},
			{
				"x": -1.3818589751,
				"y": 1.4855712702,
				"z": 0.2335843043,
				"element": "C" 
			},
			{
				"x": -1.4311807988,
				"y": 0.7359562689,
				"z": -0.8524370003,
				"element": "N" 
			},
			{
				"x": -0.1432957742,
				"y": 0.302194806,
				"z": -1.0554456067,
				"element": "N" 
			},
			{
				"x": 0.1704929037,
				"y": -0.5870373004,
				"z": -2.1726990464,
				"element": "C" 
			},
			{
				"x": -0.988811812,
				"y": -1.5417060943,
				"z": -2.4864159732,
				"element": "C" 
			},
			{
				"x": -2.0993876583,
				"y": -0.8858952608,
				"z": -3.0478805507,
				"element": "O" 
			},
			{
				"x": 0.4348462826,
				"y": 2.2915260121,
				"z": 1.8613159904,
				"element": "C" 
			},
			{
				"x": 0.8857370798,
				"y": 2.868320376,
				"z": 2.7684990932,
				"element": "N" 
			},
			{
				"x": 2.5449194608,
				"y": 0.5342527347,
				"z": -0.9671650338,
				"element": "H" 
			},
			{
				"x": 2.5489465645,
				"y": 0.9568509992,
				"z": 0.6532293608,
				"element": "H" 
			},
			{
				"x": -2.2769460869,
				"y": 1.9507931138,
				"z": 0.6223310288,
				"element": "H" 
			},
			{
				"x": 0.3975357483,
				"y": 0.006265748,
				"z": -3.0670593955,
				"element": "H" 
			},
			{
				"x": 1.0616280728,
				"y": -1.1566072814,
				"z": -1.8883522903,
				"element": "H" 
			},
			{
				"x": -1.2455687519,
				"y": -2.0992162495,
				"z": -1.5715083993,
				"element": "H" 
			},
			{
				"x": -0.6322219381,
				"y": -2.2664600459,
				"z": -3.2263901329,
				"element": "H" 
			},
			{
				"x": -2.3748548866,
				"y": -0.2298879336,
				"z": -2.3839229701,
				"element": "H" 
			}
		],
		 "valence_orbital": [ 
			{
				"type": "occ",
				"energy": -0.33484,
				"method": "rhf"
			},
			{
				"type": "occ",
				"energy": -0.30478,
				"method": "rhf"
			},
			{
				"type": "occ",
				"energy": -0.27384,
				"method": "rhf"
			},
			{
				"type": "occ",
				"energy": -0.26404,
				"method": "rhf"
			},
			{
				"type": "occ",
				"energy": -0.239,
				"method": "rhf"
			},
			{
				"type": "unocc",
				"energy": -0.00812,
				"method": "rhf"
			},
			{
				"type": "unocc",
				"energy": 0.00127,
				"method": "rhf"
			},
			{
				"type": "unocc",
				"energy": 0.02092,
				"method": "rhf"
			},
			{
				"type": "unocc",
				"energy": 0.05277,
				"method": "rhf"
			},
			{
				"type": "unocc",
				"energy": 0.09317,
				"method": "rhf"
			}
		],
		"cosmo_sigma_profile": { 
			"-0.025": 0.0,
			"-0.024": 0.0,
			"-0.023": 0.0,
			"-0.022": 0.0,
			"-0.021": 0.0,
			"-0.02": 0.0,
			"-0.019": 0.0,
			"-0.018": 0.0,
			"-0.017": 0.0,
			"-0.016": 0.0,
			"-0.015": 0.48544787332,
			"-0.014": 2.540852664,
			"-0.013": 2.79189809306,
			"-0.012": 3.29590448703,
			"-0.011": 2.50483526058,
			"-0.01": 2.79547727461,
			"-0.009": 3.9450766483,
			"-0.008": 5.10125847545,
			"-0.007": 6.44468409863,
			"-0.006": 11.2446979264,
			"-0.005": 12.6695756028,
			"-0.004": 12.7008947656,
			"-0.003": 9.41925222219,
			"-0.002": 9.49187246772,
			"-0.001": 7.89924179271,
			"0.0": 11.237175362,
			"0.001": 13.6219204036,
			"0.002": 10.6174156548,
			"0.003": 5.69251417495,
			"0.004": 7.05163574069,
			"0.005": 6.28852809074,
			"0.006": 4.98749123026,
			"0.007": 4.84767251232,
			"0.008": 5.24841939253,
			"0.009": 4.91778776739,
			"0.01": 5.27894136226,
			"0.011": 4.31005981234,
			"0.012": 4.78831929279,
			"0.013": 3.57730848503,
			"0.014": 3.08400046434,
			"0.015": 1.31340988061,
			"0.016": 0.0,
			"0.017": 0.0,
			"0.018": 0.0,
			"0.019": 0.0,
			"0.02": 0.0,
			"0.021": 0.0,
			"0.022": 0.0,
			"0.023": 0.0,
			"0.024": 0.0,
			"0.025": 0.0
		}
	}
}
