{
	 "smiles": "[O-][N+](=O)C1=CC=C(NN=C2/CC3=C4C=CC=CC4=CC=C23)C(=C1)[N+]([O-])=O", 
	 "Tm": 547.15, 
	 "num_atms": 38, 
	 "gaussian": { 
		 "optdone": 1, 
		 "sigma_profile": "yes", 
		 "theory": "DFT", 
		 "functional": "B3LYP", 
		 "basiset": "6-31G**", 
		 "properties": { 
			 "R2extent": 16909.3765, 
			 "electric_dipole_moment_norm": 9.40552451807, 
			 "electric_quadrupole_moment_norm": 25.5322961774, 
			 "total_energy": -1212.79879945, 
			 "HOMO_LUMO_gap": 0.11818, 
			 "cosmo_polarized_energy": -16.15, 
			 "cosmo_cavitation_energy": 45.07, 
			 "cosmo_dispersion_energy": -32.39, 
			 "cosmo_repulsion_energy": 2.39, 
			 "cosmo_total_nonelectrostatic_energy": 15.07, 
			 "SMD_solvation_energy": 10.24 
		},
		"coords": [
			{
				"x": -3.8097854601,
				"y": -1.6071449557,
				"z": -6.2728170384,
				"element": "O" 
			},
			{
				"x": -3.3627065675,
				"y": -2.6372263045,
				"z": -5.7631889818,
				"element": "N" 
			},
			{
				"x": -3.4766942538,
				"y": -3.7654960722,
				"z": -6.2439769806,
				"element": "O" 
			},
			{
				"x": -2.6472546617,
				"y": -2.5033217158,
				"z": -4.4982220832,
				"element": "C" 
			},
			{
				"x": -2.4955442816,
				"y": -1.2320559496,
				"z": -3.9161927738,
				"element": "C" 
			},
			{
				"x": -1.8221814955,
				"y": -1.1012689296,
				"z": -2.7242981104,
				"element": "C" 
			},
			{
				"x": -1.2695744206,
				"y": -2.2303306423,
				"z": -2.0584091817,
				"element": "C" 
			},
			{
				"x": -0.6087863881,
				"y": -2.078374942,
				"z": -0.8824889311,
				"element": "N" 
			},
			{
				"x": -0.4607264258,
				"y": -0.8435059985,
				"z": -0.315618125,
				"element": "N" 
			},
			{
				"x": 0.177934452,
				"y": -0.8106497834,
				"z": 0.7946177122,
				"element": "C" 
			},
			{
				"x": 0.8723733232,
				"y": -1.8410939184,
				"z": 1.7340130693,
				"element": "C" 
			},
			{
				"x": 1.1748146666,
				"y": -0.5957749043,
				"z": 2.5709535386,
				"element": "C" 
			},
			{
				"x": 1.7997021673,
				"y": -0.1723835971,
				"z": 3.7584709836,
				"element": "C" 
			},
			{
				"x": 2.460528663,
				"y": -1.0174705842,
				"z": 4.687682293,
				"element": "C" 
			},
			{
				"x": 3.0378513444,
				"y": -0.487206882,
				"z": 5.8202842098,
				"element": "C" 
			},
			{
				"x": 2.9780404547,
				"y": 0.9056306794,
				"z": 6.068966998,
				"element": "C" 
			},
			{
				"x": 2.342583145,
				"y": 1.750103017,
				"z": 5.1833880981,
				"element": "C" 
			},
			{
				"x": 1.7338496506,
				"y": 1.2483314364,
				"z": 4.0037659959,
				"element": "C" 
			},
			{
				"x": 1.072535773,
				"y": 2.1224611114,
				"z": 3.0812145127,
				"element": "C" 
			},
			{
				"x": 0.4702515656,
				"y": 1.6701373545,
				"z": 1.9256349166,
				"element": "C" 
			},
			{
				"x": 0.5434343915,
				"y": 0.2789866578,
				"z": 1.700596005,
				"element": "C" 
			},
			{
				"x": -1.4441770146,
				"y": -3.506942438,
				"z": -2.6813131164,
				"element": "C" 
			},
			{
				"x": -2.1293665148,
				"y": -3.6306645378,
				"z": -3.8916710943,
				"element": "C" 
			},
			{
				"x": -0.927794018,
				"y": -4.7339731046,
				"z": -2.1024315087,
				"element": "N" 
			},
			{
				"x": -0.3086313877,
				"y": -4.6698980485,
				"z": -1.0200609943,
				"element": "O" 
			},
			{
				"x": -1.117373203,
				"y": -5.7917006209,
				"z": -2.6964259058,
				"element": "O" 
			},
			{
				"x": -2.9149603236,
				"y": -0.3701504015,
				"z": -4.4203220073,
				"element": "H" 
			},
			{
				"x": -1.6932832785,
				"y": -0.1339887754,
				"z": -2.2579752814,
				"element": "H" 
			},
			{
				"x": -0.2370282621,
				"y": -2.9266620755,
				"z": -0.4561464618,
				"element": "H" 
			},
			{
				"x": 0.2057276627,
				"y": -2.5829003282,
				"z": 2.1897145676,
				"element": "H" 
			},
			{
				"x": 1.7374765961,
				"y": -2.3590354412,
				"z": 1.3031041052,
				"element": "H" 
			},
			{
				"x": 2.5034422949,
				"y": -2.0850694688,
				"z": 4.4919909775,
				"element": "H" 
			},
			{
				"x": 3.5425981204,
				"y": -1.1369753341,
				"z": 6.5289970773,
				"element": "H" 
			},
			{
				"x": 3.4379924158,
				"y": 1.308666906,
				"z": 6.9663654625,
				"element": "H" 
			},
			{
				"x": 2.3004702353,
				"y": 2.8181320214,
				"z": 5.3805786174,
				"element": "H" 
			},
			{
				"x": 1.0550239126,
				"y": 3.1829399367,
				"z": 3.3189647493,
				"element": "H" 
			},
			{
				"x": -0.0257903722,
				"y": 2.3480623032,
				"z": 1.239458571,
				"element": "H" 
			},
			{
				"x": -2.2483725055,
				"y": -4.6060856698,
				"z": -4.3427038847,
				"element": "H" 
			}
		],
		 "valence_orbital": [ 
			{
				"type": "occ",
				"energy": -0.29252,
				"method": "rhf"
			},
			{
				"type": "occ",
				"energy": -0.28773,
				"method": "rhf"
			},
			{
				"type": "occ",
				"energy": -0.26944,
				"method": "rhf"
			},
			{
				"type": "occ",
				"energy": -0.24395,
				"method": "rhf"
			},
			{
				"type": "occ",
				"energy": -0.21995,
				"method": "rhf"
			},
			{
				"type": "unocc",
				"energy": -0.10177,
				"method": "rhf"
			},
			{
				"type": "unocc",
				"energy": -0.08892,
				"method": "rhf"
			},
			{
				"type": "unocc",
				"energy": -0.06375,
				"method": "rhf"
			},
			{
				"type": "unocc",
				"energy": -0.05175,
				"method": "rhf"
			},
			{
				"type": "unocc",
				"energy": -0.01656,
				"method": "rhf"
			}
		],
		"cosmo_sigma_profile": { 
			"-0.025": 0.0,
			"-0.024": 0.0,
			"-0.023": 0.0,
			"-0.022": 0.0,
			"-0.021": 0.0,
			"-0.02": 0.0,
			"-0.019": 0.0,
			"-0.018": 0.0,
			"-0.017": 0.0,
			"-0.016": 0.0,
			"-0.015": 0.0,
			"-0.014": 0.0,
			"-0.013": 0.0,
			"-0.012": 0.0,
			"-0.011": 0.0,
			"-0.01": 0.253960882875,
			"-0.009": 1.19412491132,
			"-0.008": 3.5072665419,
			"-0.007": 11.121478063,
			"-0.006": 26.7632503473,
			"-0.005": 26.8418101914,
			"-0.004": 28.4124888014,
			"-0.003": 29.4977551221,
			"-0.002": 31.2533682189,
			"-0.001": 24.9891829111,
			"0.0": 22.9183554936,
			"0.001": 22.8190784748,
			"0.002": 22.8521500927,
			"0.003": 27.2065108942,
			"0.004": 22.0632976861,
			"0.005": 10.3802793612,
			"0.006": 7.19167247439,
			"0.007": 14.2327529442,
			"0.008": 15.1012264698,
			"0.009": 8.71024284099,
			"0.01": 6.14370478952,
			"0.011": 0.578279991951,
			"0.012": 0.0,
			"0.013": 0.0,
			"0.014": 0.0,
			"0.015": 0.0,
			"0.016": 0.0,
			"0.017": 0.0,
			"0.018": 0.0,
			"0.019": 0.0,
			"0.02": 0.0,
			"0.021": 0.0,
			"0.022": 0.0,
			"0.023": 0.0,
			"0.024": 0.0,
			"0.025": 0.0
		}
	}
}
