{
	 "smiles": "BrC1=CN2C=CN=C2C(Br)=N1", 
	 "Tm": 426.15, 
	 "num_atms": 14, 
	 "gaussian": { 
		 "optdone": 1, 
		 "sigma_profile": "yes", 
		 "theory": "DFT", 
		 "functional": "B3LYP", 
		 "basiset": "6-31G**", 
		 "properties": { 
			 "R2extent": 4451.4813, 
			 "electric_dipole_moment_norm": 4.40993754264, 
			 "electric_quadrupole_moment_norm": 12.0531805454, 
			 "total_energy": -5537.47978536, 
			 "HOMO_LUMO_gap": 0.17093, 
			 "cosmo_polarized_energy": -12.24, 
			 "cosmo_cavitation_energy": 23.76, 
			 "cosmo_dispersion_energy": -18.71, 
			 "cosmo_repulsion_energy": 1.49, 
			 "cosmo_total_nonelectrostatic_energy": 6.55, 
			 "SMD_solvation_energy": -0.52 
		},
		"coords": [
			{
				"x": -3.7087003871,
				"y": -1.1674885762,
				"z": -2.3193204872,
				"element": "Br" 
			},
			{
				"x": -2.0008201037,
				"y": -0.9634717821,
				"z": -1.4953883598,
				"element": "C" 
			},
			{
				"x": -1.0036075154,
				"y": -1.8350564179,
				"z": -1.831989207,
				"element": "C" 
			},
			{
				"x": 0.2128713116,
				"y": -1.6526715311,
				"z": -1.2144947029,
				"element": "N" 
			},
			{
				"x": 1.4057294527,
				"y": -2.3206005642,
				"z": -1.3079358152,
				"element": "C" 
			},
			{
				"x": 2.2610387368,
				"y": -1.6626039357,
				"z": -0.4363278585,
				"element": "C" 
			},
			{
				"x": 1.6542992499,
				"y": -0.6218198187,
				"z": 0.1896966445,
				"element": "N" 
			},
			{
				"x": 0.4136597685,
				"y": -0.6151793046,
				"z": -0.281063813,
				"element": "C" 
			},
			{
				"x": -0.7113950426,
				"y": 0.2122650674,
				"z": -0.0300868464,
				"element": "C" 
			},
			{
				"x": -0.5090224477,
				"y": 1.6290155386,
				"z": 1.216291334,
				"element": "Br" 
			},
			{
				"x": -1.8665142167,
				"y": 0.047416923,
				"z": -0.6095619905,
				"element": "N" 
			},
			{
				"x": -1.1052705266,
				"y": -2.6453967386,
				"z": -2.5398824125,
				"element": "H" 
			},
			{
				"x": 1.5385497745,
				"y": -3.1706974965,
				"z": -1.958666013,
				"element": "H" 
			},
			{
				"x": 3.2965819458,
				"y": -1.9081113633,
				"z": -0.2413704726,
				"element": "H" 
			}
		],
		 "valence_orbital": [ 
			{
				"type": "occ",
				"energy": -0.2971,
				"method": "rhf"
			},
			{
				"type": "occ",
				"energy": -0.29452,
				"method": "rhf"
			},
			{
				"type": "occ",
				"energy": -0.28559,
				"method": "rhf"
			},
			{
				"type": "occ",
				"energy": -0.2633,
				"method": "rhf"
			},
			{
				"type": "occ",
				"energy": -0.24295,
				"method": "rhf"
			},
			{
				"type": "unocc",
				"energy": -0.07202,
				"method": "rhf"
			},
			{
				"type": "unocc",
				"energy": -0.03141,
				"method": "rhf"
			},
			{
				"type": "unocc",
				"energy": -0.01367,
				"method": "rhf"
			},
			{
				"type": "unocc",
				"energy": 0.00924,
				"method": "rhf"
			},
			{
				"type": "unocc",
				"energy": 0.04,
				"method": "rhf"
			}
		],
		"cosmo_sigma_profile": { 
			"-0.025": 0.0,
			"-0.024": 0.0,
			"-0.023": 0.0,
			"-0.022": 0.0,
			"-0.021": 0.0,
			"-0.02": 0.0,
			"-0.019": 0.0,
			"-0.018": 0.0,
			"-0.017": 0.0,
			"-0.016": 0.0,
			"-0.015": 0.0,
			"-0.014": 0.0,
			"-0.013": 0.262312862067,
			"-0.012": 2.01648607218,
			"-0.011": 3.17635304821,
			"-0.01": 3.6919481321,
			"-0.009": 3.59579365058,
			"-0.008": 4.61234440554,
			"-0.007": 4.43642839249,
			"-0.006": 6.98656812189,
			"-0.005": 10.1717919757,
			"-0.004": 10.4085730549,
			"-0.003": 12.8319523826,
			"-0.002": 14.8411721234,
			"-0.001": 13.1986214833,
			"0.0": 13.0254951706,
			"0.001": 14.5196394355,
			"0.002": 16.7541497391,
			"0.003": 20.5777108698,
			"0.004": 15.825258882,
			"0.005": 5.40349177505,
			"0.006": 5.05950918563,
			"0.007": 3.92780168462,
			"0.008": 3.04695417929,
			"0.009": 2.05561844569,
			"0.01": 2.20927837115,
			"0.011": 2.49494065313,
			"0.012": 1.39127558644,
			"0.013": 0.976859332091,
			"0.014": 1.32846581886,
			"0.015": 0.713674518877,
			"0.016": 0.28362344019,
			"0.017": 0.0,
			"0.018": 0.0,
			"0.019": 0.0,
			"0.02": 0.0,
			"0.021": 0.0,
			"0.022": 0.0,
			"0.023": 0.0,
			"0.024": 0.0,
			"0.025": 0.0
		}
	}
}
