{
	 "smiles": "CCN(C(C)C(C)C)C(=O)SCC1=CC=CC=C1", 
	 "Tm": 298.15, 
	 "num_atms": 41, 
	 "gaussian": { 
		 "optdone": 1, 
		 "sigma_profile": "yes", 
		 "theory": "DFT", 
		 "functional": "B3LYP", 
		 "basiset": "6-31G**", 
		 "properties": { 
			 "R2extent": 8048.2688, 
			 "electric_dipole_moment_norm": 2.27347281708, 
			 "electric_quadrupole_moment_norm": 13.0030655628, 
			 "total_energy": -1113.65826914, 
			 "HOMO_LUMO_gap": 0.22097, 
			 "cosmo_polarized_energy": -9.81, 
			 "cosmo_cavitation_energy": 43.11, 
			 "cosmo_dispersion_energy": -29.51, 
			 "cosmo_repulsion_energy": 2.26, 
			 "cosmo_total_nonelectrostatic_energy": 15.86, 
			 "SMD_solvation_energy": 7.85 
		},
		"coords": [
			{
				"x": -2.4158258307,
				"y": -2.18902398,
				"z": 2.4429478225,
				"element": "C" 
			},
			{
				"x": -1.7170489176,
				"y": -0.9811726884,
				"z": 3.0724591274,
				"element": "C" 
			},
			{
				"x": -0.9144399152,
				"y": -0.1865490361,
				"z": 2.1215352895,
				"element": "N" 
			},
			{
				"x": -1.3450835813,
				"y": 1.1820011324,
				"z": 1.7666565033,
				"element": "C" 
			},
			{
				"x": -1.3184089344,
				"y": 2.096472357,
				"z": 3.0040489327,
				"element": "C" 
			},
			{
				"x": -2.6960055774,
				"y": 1.1737901442,
				"z": 1.0021092104,
				"element": "C" 
			},
			{
				"x": -3.208712122,
				"y": 2.5979973953,
				"z": 0.7305361754,
				"element": "C" 
			},
			{
				"x": -2.5790188995,
				"y": 0.398561099,
				"z": -0.3192826799,
				"element": "C" 
			},
			{
				"x": 0.307445209,
				"y": -0.7116623072,
				"z": 1.8029904799,
				"element": "C" 
			},
			{
				"x": 0.6926094357,
				"y": -1.8024007001,
				"z": 2.2019159344,
				"element": "O" 
			},
			{
				"x": 1.3814115888,
				"y": 0.3036947195,
				"z": 0.7240805408,
				"element": "S" 
			},
			{
				"x": 2.7954736428,
				"y": -0.8861470391,
				"z": 0.6123857798,
				"element": "C" 
			},
			{
				"x": 3.9014629414,
				"y": -0.2776966538,
				"z": -0.2105050271,
				"element": "C" 
			},
			{
				"x": 3.9488470391,
				"y": -0.470585417,
				"z": -1.5978525281,
				"element": "C" 
			},
			{
				"x": 4.9741154025,
				"y": 0.0892917146,
				"z": -2.3604825898,
				"element": "C" 
			},
			{
				"x": 5.9670278197,
				"y": 0.8539522241,
				"z": -1.7449495039,
				"element": "C" 
			},
			{
				"x": 5.9282718978,
				"y": 1.0548649442,
				"z": -0.3636436315,
				"element": "C" 
			},
			{
				"x": 4.901873733,
				"y": 0.4939038864,
				"z": 0.396372115,
				"element": "C" 
			},
			{
				"x": -2.9581261311,
				"y": -2.7458786369,
				"z": 3.2149836883,
				"element": "H" 
			},
			{
				"x": -3.1342498423,
				"y": -1.8871428699,
				"z": 1.6754451425,
				"element": "H" 
			},
			{
				"x": -1.6787189645,
				"y": -2.8580749217,
				"z": 1.9944533199,
				"element": "H" 
			},
			{
				"x": -2.4535087594,
				"y": -0.3103654936,
				"z": 3.5206659236,
				"element": "H" 
			},
			{
				"x": -1.0526113499,
				"y": -1.3242230616,
				"z": 3.8709748903,
				"element": "H" 
			},
			{
				"x": -0.5972555011,
				"y": 1.5674500083,
				"z": 1.0666482205,
				"element": "H" 
			},
			{
				"x": -2.1222759418,
				"y": 1.8627414353,
				"z": 3.710196643,
				"element": "H" 
			},
			{
				"x": -1.4263895442,
				"y": 3.1448613235,
				"z": 2.7159136553,
				"element": "H" 
			},
			{
				"x": -0.3630610165,
				"y": 1.9885608189,
				"z": 3.52509365,
				"element": "H" 
			},
			{
				"x": -3.4392871957,
				"y": 0.6699205302,
				"z": 1.6367505072,
				"element": "H" 
			},
			{
				"x": -2.4674962471,
				"y": 3.1847830571,
				"z": 0.1739853954,
				"element": "H" 
			},
			{
				"x": -3.4485056384,
				"y": 3.1405338619,
				"z": 1.6489579234,
				"element": "H" 
			},
			{
				"x": -4.1189921445,
				"y": 2.5613740001,
				"z": 0.1234576436,
				"element": "H" 
			},
			{
				"x": -3.5556164365,
				"y": 0.3187830788,
				"z": -0.8081408698,
				"element": "H" 
			},
			{
				"x": -1.9018012236,
				"y": 0.9130802932,
				"z": -1.011072763,
				"element": "H" 
			},
			{
				"x": -2.1917695821,
				"y": -0.6116780224,
				"z": -0.1676458784,
				"element": "H" 
			},
			{
				"x": 3.1144630689,
				"y": -1.1088900687,
				"z": 1.6313024556,
				"element": "H" 
			},
			{
				"x": 2.4157940653,
				"y": -1.8080366986,
				"z": 0.1694883184,
				"element": "H" 
			},
			{
				"x": 3.1776966658,
				"y": -1.0662053115,
				"z": -2.0798714391,
				"element": "H" 
			},
			{
				"x": 4.9991244334,
				"y": -0.0738314716,
				"z": -3.4342416148,
				"element": "H" 
			},
			{
				"x": 6.767446975,
				"y": 1.2880051899,
				"z": -2.3373097385,
				"element": "H" 
			},
			{
				"x": 6.6990039952,
				"y": 1.6461291415,
				"z": 0.1227496679,
				"element": "H" 
			},
			{
				"x": 4.8746413835,
				"y": 0.6516120229,
				"z": 1.4715933075,
				"element": "H" 
			}
		],
		 "valence_orbital": [ 
			{
				"type": "occ",
				"energy": -0.25148,
				"method": "rhf"
			},
			{
				"type": "occ",
				"energy": -0.25095,
				"method": "rhf"
			},
			{
				"type": "occ",
				"energy": -0.24541,
				"method": "rhf"
			},
			{
				"type": "occ",
				"energy": -0.24006,
				"method": "rhf"
			},
			{
				"type": "occ",
				"energy": -0.23003,
				"method": "rhf"
			},
			{
				"type": "unocc",
				"energy": -0.00906,
				"method": "rhf"
			},
			{
				"type": "unocc",
				"energy": 6e-05,
				"method": "rhf"
			},
			{
				"type": "unocc",
				"energy": 0.03379,
				"method": "rhf"
			},
			{
				"type": "unocc",
				"energy": 0.03459,
				"method": "rhf"
			},
			{
				"type": "unocc",
				"energy": 0.07497,
				"method": "rhf"
			}
		],
		"cosmo_sigma_profile": { 
			"-0.025": 0.0,
			"-0.024": 0.0,
			"-0.023": 0.0,
			"-0.022": 0.0,
			"-0.021": 0.0,
			"-0.02": 0.0,
			"-0.019": 0.0,
			"-0.018": 0.0,
			"-0.017": 0.0,
			"-0.016": 0.0,
			"-0.015": 0.0,
			"-0.014": 0.0,
			"-0.013": 0.0,
			"-0.012": 0.0,
			"-0.011": 0.0,
			"-0.01": 0.0,
			"-0.009": 0.0,
			"-0.008": 0.0,
			"-0.007": 0.00026913665995,
			"-0.006": 8.79817206653,
			"-0.005": 19.1980820337,
			"-0.004": 23.4300123326,
			"-0.003": 37.6887797428,
			"-0.002": 44.9535576509,
			"-0.001": 40.5562664692,
			"0.0": 38.2049082153,
			"0.001": 33.483568127,
			"0.002": 20.2021256801,
			"0.003": 14.7833581165,
			"0.004": 16.1460312341,
			"0.005": 14.3456481756,
			"0.006": 9.43821824126,
			"0.007": 4.24377847002,
			"0.008": 3.43934525652,
			"0.009": 1.61958737057,
			"0.01": 0.800129947027,
			"0.011": 2.32493909618,
			"0.012": 2.0753439062,
			"0.013": 3.3004659646,
			"0.014": 0.0850703025865,
			"0.015": 0.0,
			"0.016": 0.0,
			"0.017": 0.0,
			"0.018": 0.0,
			"0.019": 0.0,
			"0.02": 0.0,
			"0.021": 0.0,
			"0.022": 0.0,
			"0.023": 0.0,
			"0.024": 0.0,
			"0.025": 0.0
		}
	}
}
