{
	 "smiles": "OC1=CC(NC(=O)C2CC2)=CC=C1", 
	 "Tm": 458.15, 
	 "num_atms": 24, 
	 "gaussian": { 
		 "optdone": 1, 
		 "sigma_profile": "yes", 
		 "theory": "DFT", 
		 "functional": "B3LYP", 
		 "basiset": "6-31G**", 
		 "properties": { 
			 "R2extent": 3730.0415, 
			 "electric_dipole_moment_norm": 3.56637579764, 
			 "electric_quadrupole_moment_norm": 13.2910574056, 
			 "total_energy": -592.880937158, 
			 "HOMO_LUMO_gap": 0.20231, 
			 "cosmo_polarized_energy": -17.16, 
			 "cosmo_cavitation_energy": 27.96, 
			 "cosmo_dispersion_energy": -20.75, 
			 "cosmo_repulsion_energy": 1.64, 
			 "cosmo_total_nonelectrostatic_energy": 8.85, 
			 "SMD_solvation_energy": 5.15 
		},
		"coords": [
			{
				"x": -3.1950560958,
				"y": -2.2558075103,
				"z": 2.8858020749,
				"element": "O" 
			},
			{
				"x": -2.7046316539,
				"y": -2.4368418157,
				"z": 1.6234698631,
				"element": "C" 
			},
			{
				"x": -1.7010300826,
				"y": -1.553917612,
				"z": 1.2119588867,
				"element": "C" 
			},
			{
				"x": -1.1600976707,
				"y": -1.6902447191,
				"z": -0.0706752921,
				"element": "C" 
			},
			{
				"x": -0.1466831961,
				"y": -0.8451180457,
				"z": -0.5669935696,
				"element": "N" 
			},
			{
				"x": 0.4850147354,
				"y": 0.2149169466,
				"z": 0.0485903152,
				"element": "C" 
			},
			{
				"x": 0.2379195528,
				"y": 0.5951999982,
				"z": 1.187809374,
				"element": "O" 
			},
			{
				"x": 1.5226672114,
				"y": 0.8837919236,
				"z": -0.8018901569,
				"element": "C" 
			},
			{
				"x": 2.734661206,
				"y": 1.4521495304,
				"z": -0.0834020182,
				"element": "C" 
			},
			{
				"x": 1.695970308,
				"y": 2.3820525642,
				"z": -0.6192659095,
				"element": "C" 
			},
			{
				"x": -1.6241533373,
				"y": -2.7039572117,
				"z": -0.9293800095,
				"element": "C" 
			},
			{
				"x": -2.6224972535,
				"y": -3.5696098931,
				"z": -0.4981712891,
				"element": "C" 
			},
			{
				"x": -3.1731578906,
				"y": -3.4478611733,
				"z": 0.7779531401,
				"element": "C" 
			},
			{
				"x": -3.8767789321,
				"y": -2.9183409755,
				"z": 3.0561779302,
				"element": "H" 
			},
			{
				"x": -1.3520555352,
				"y": -0.779424526,
				"z": 1.8788319998,
				"element": "H" 
			},
			{
				"x": 0.1529800344,
				"y": -1.0523728037,
				"z": -1.5084663749,
				"element": "H" 
			},
			{
				"x": 1.680667149,
				"y": 0.484629376,
				"z": -1.800825911,
				"element": "H" 
			},
			{
				"x": 3.6913426137,
				"y": 1.3813987251,
				"z": -0.5911513616,
				"element": "H" 
			},
			{
				"x": 2.7588681965,
				"y": 1.2975911546,
				"z": 0.9901272076,
				"element": "H" 
			},
			{
				"x": 1.0272080701,
				"y": 2.8479014805,
				"z": 0.0967497148,
				"element": "H" 
			},
			{
				"x": 1.9194429948,
				"y": 2.9677529604,
				"z": -1.5053076714,
				"element": "H" 
			},
			{
				"x": -1.20243663,
				"y": -2.8083244627,
				"z": -1.9258364835,
				"element": "H" 
			},
			{
				"x": -2.9783627264,
				"y": -4.3508708281,
				"z": -1.1634361482,
				"element": "H" 
			},
			{
				"x": -3.9541010677,
				"y": -4.1271930827,
				"z": 1.1115316889,
				"element": "H" 
			}
		],
		 "valence_orbital": [ 
			{
				"type": "occ",
				"energy": -0.2991,
				"method": "rhf"
			},
			{
				"type": "occ",
				"energy": -0.288,
				"method": "rhf"
			},
			{
				"type": "occ",
				"energy": -0.25223,
				"method": "rhf"
			},
			{
				"type": "occ",
				"energy": -0.22759,
				"method": "rhf"
			},
			{
				"type": "occ",
				"energy": -0.21167,
				"method": "rhf"
			},
			{
				"type": "unocc",
				"energy": -0.00936,
				"method": "rhf"
			},
			{
				"type": "unocc",
				"energy": 0.01231,
				"method": "rhf"
			},
			{
				"type": "unocc",
				"energy": 0.04932,
				"method": "rhf"
			},
			{
				"type": "unocc",
				"energy": 0.06257,
				"method": "rhf"
			},
			{
				"type": "unocc",
				"energy": 0.07693,
				"method": "rhf"
			}
		],
		"cosmo_sigma_profile": { 
			"-0.025": 0.0,
			"-0.024": 0.0,
			"-0.023": 0.0,
			"-0.022": 0.0,
			"-0.021": 0.0,
			"-0.02": 0.0,
			"-0.019": 0.0,
			"-0.018": 0.162007904025,
			"-0.017": 0.978863440945,
			"-0.016": 1.6689274648,
			"-0.015": 1.59276171985,
			"-0.014": 2.09739398452,
			"-0.013": 3.0262430795,
			"-0.012": 2.20753343777,
			"-0.011": 1.83399669203,
			"-0.01": 3.26408693417,
			"-0.009": 2.40955910101,
			"-0.008": 2.79768013979,
			"-0.007": 3.32129716999,
			"-0.006": 7.87388351426,
			"-0.005": 12.7345792002,
			"-0.004": 15.12808845,
			"-0.003": 12.2011510736,
			"-0.002": 11.1065026255,
			"-0.001": 12.1500807277,
			"0.0": 15.2880358397,
			"0.001": 14.61837731,
			"0.002": 15.4098045889,
			"0.003": 15.5183301334,
			"0.004": 17.0987591914,
			"0.005": 15.0601498677,
			"0.006": 9.40828606256,
			"0.007": 3.88391429102,
			"0.008": 3.23177330753,
			"0.009": 2.25576310263,
			"0.01": 3.54565332553,
			"0.011": 3.45500046201,
			"0.012": 3.5027405196,
			"0.013": 2.6095230937,
			"0.014": 0.693432122446,
			"0.015": 0.0,
			"0.016": 0.0,
			"0.017": 0.0,
			"0.018": 0.0,
			"0.019": 0.0,
			"0.02": 0.0,
			"0.021": 0.0,
			"0.022": 0.0,
			"0.023": 0.0,
			"0.024": 0.0,
			"0.025": 0.0
		}
	}
}
