{
	 "smiles": "CC(C)(C1CCCCC1)C(O)=O", 
	 "Tm": 338.15, 
	 "num_atms": 30, 
	 "gaussian": { 
		 "optdone": 1, 
		 "sigma_profile": "yes", 
		 "theory": "DFT", 
		 "functional": "B3LYP", 
		 "basiset": "6-31G**", 
		 "properties": { 
			 "R2extent": 2543.3135, 
			 "electric_dipole_moment_norm": 1.37403862027, 
			 "electric_quadrupole_moment_norm": 7.87341721681, 
			 "total_energy": -542.392919698, 
			 "HOMO_LUMO_gap": 0.27694, 
			 "cosmo_polarized_energy": -7.67, 
			 "cosmo_cavitation_energy": 28.49, 
			 "cosmo_dispersion_energy": -20.75, 
			 "cosmo_repulsion_energy": 1.64, 
			 "cosmo_total_nonelectrostatic_energy": 9.38, 
			 "SMD_solvation_energy": 5.17 
		},
		"coords": [
			{
				"x": -2.2011969429,
				"y": -2.4248126655,
				"z": 0.3737816458,
				"element": "C" 
			},
			{
				"x": -1.7059698635,
				"y": -1.0049509031,
				"z": 0.7457505993,
				"element": "C" 
			},
			{
				"x": -1.021408906,
				"y": -1.0646253591,
				"z": 2.1228022564,
				"element": "C" 
			},
			{
				"x": -0.8293601886,
				"y": -0.4194012828,
				"z": -0.4298949535,
				"element": "C" 
			},
			{
				"x": 0.4337885919,
				"y": -1.2355897005,
				"z": -0.8098871912,
				"element": "C" 
			},
			{
				"x": 1.7139113882,
				"y": -0.8976454812,
				"z": -0.0250160329,
				"element": "C" 
			},
			{
				"x": 2.0128610403,
				"y": 0.6064842375,
				"z": -0.0580883889,
				"element": "C" 
			},
			{
				"x": 0.8192150746,
				"y": 1.4092401194,
				"z": 0.4743806013,
				"element": "C" 
			},
			{
				"x": -0.4693919147,
				"y": 1.0873605806,
				"z": -0.3030023761,
				"element": "C" 
			},
			{
				"x": -2.9685730721,
				"y": -0.131398942,
				"z": 0.7782872098,
				"element": "C" 
			},
			{
				"x": -3.1462287786,
				"y": 0.5496372713,
				"z": 1.9378024919,
				"element": "O" 
			},
			{
				"x": -3.7571911031,
				"y": -0.0331399487,
				"z": -0.1390411478,
				"element": "O" 
			},
			{
				"x": -1.3695957395,
				"y": -3.1336264427,
				"z": 0.3483921194,
				"element": "H" 
			},
			{
				"x": -2.9169372792,
				"y": -2.788800991,
				"z": 1.1186707192,
				"element": "H" 
			},
			{
				"x": -2.6984494867,
				"y": -2.4247280349,
				"z": -0.5989567988,
				"element": "H" 
			},
			{
				"x": -0.1539891883,
				"y": -1.7283724591,
				"z": 2.0856038697,
				"element": "H" 
			},
			{
				"x": -1.7107988585,
				"y": -1.4635538894,
				"z": 2.8730101019,
				"element": "H" 
			},
			{
				"x": -0.6940203056,
				"y": -0.0847538546,
				"z": 2.4720781171,
				"element": "H" 
			},
			{
				"x": -1.508508405,
				"y": -0.4893776992,
				"z": -1.287259268,
				"element": "H" 
			},
			{
				"x": 0.6348526007,
				"y": -1.026730446,
				"z": -1.870017048,
				"element": "H" 
			},
			{
				"x": 0.2331128948,
				"y": -2.31049269,
				"z": -0.7576016797,
				"element": "H" 
			},
			{
				"x": 1.6271157772,
				"y": -1.2235602991,
				"z": 1.0183357509,
				"element": "H" 
			},
			{
				"x": 2.5527781583,
				"y": -1.4610768009,
				"z": -0.4520351599,
				"element": "H" 
			},
			{
				"x": 2.2224616737,
				"y": 0.9114899159,
				"z": -1.0937663446,
				"element": "H" 
			},
			{
				"x": 2.9157063077,
				"y": 0.8309169498,
				"z": 0.5224791188,
				"element": "H" 
			},
			{
				"x": 1.0211927312,
				"y": 2.4848984097,
				"z": 0.3998064709,
				"element": "H" 
			},
			{
				"x": 0.69125171,
				"y": 1.1970899633,
				"z": 1.5424121558,
				"element": "H" 
			},
			{
				"x": -0.3422010437,
				"y": 1.4711715598,
				"z": -1.3245946627,
				"element": "H" 
			},
			{
				"x": -1.3094569517,
				"y": 1.6501297281,
				"z": 0.1196654613,
				"element": "H" 
			},
			{
				"x": -3.9693699206,
				"y": 1.0541191544,
				"z": 1.8191023626,
				"element": "H" 
			}
		],
		 "valence_orbital": [ 
			{
				"type": "occ",
				"energy": -0.31482,
				"method": "rhf"
			},
			{
				"type": "occ",
				"energy": -0.29799,
				"method": "rhf"
			},
			{
				"type": "occ",
				"energy": -0.2943,
				"method": "rhf"
			},
			{
				"type": "occ",
				"energy": -0.29215,
				"method": "rhf"
			},
			{
				"type": "occ",
				"energy": -0.26513,
				"method": "rhf"
			},
			{
				"type": "unocc",
				"energy": 0.01181,
				"method": "rhf"
			},
			{
				"type": "unocc",
				"energy": 0.06667,
				"method": "rhf"
			},
			{
				"type": "unocc",
				"energy": 0.08721,
				"method": "rhf"
			},
			{
				"type": "unocc",
				"energy": 0.09998,
				"method": "rhf"
			},
			{
				"type": "unocc",
				"energy": 0.11532,
				"method": "rhf"
			}
		],
		"cosmo_sigma_profile": { 
			"-0.025": 0.0,
			"-0.024": 0.0,
			"-0.023": 0.0,
			"-0.022": 0.0,
			"-0.021": 0.0,
			"-0.02": 0.0,
			"-0.019": 0.0,
			"-0.018": 0.241985668451,
			"-0.017": 1.15067704848,
			"-0.016": 0.800980972981,
			"-0.015": 0.814097302058,
			"-0.014": 0.469301943192,
			"-0.013": 0.583921943141,
			"-0.012": 0.489908461644,
			"-0.011": 1.41463620048,
			"-0.01": 0.742262628038,
			"-0.009": 0.604134626286,
			"-0.008": 0.477579166046,
			"-0.007": 0.797250673948,
			"-0.006": 0.383288060885,
			"-0.005": 1.24832356353,
			"-0.004": 7.24452825811,
			"-0.003": 16.8006075349,
			"-0.002": 30.7510455119,
			"-0.001": 39.5667207071,
			"0.0": 39.8764736708,
			"0.001": 33.0002738421,
			"0.002": 9.6663886447,
			"0.003": 3.54877025068,
			"0.004": 3.83718507905,
			"0.005": 2.54376094933,
			"0.006": 3.30822589599,
			"0.007": 2.83450814319,
			"0.008": 2.85512740506,
			"0.009": 2.52295749528,
			"0.01": 1.71929252473,
			"0.011": 2.12098209241,
			"0.012": 4.96093830784,
			"0.013": 1.54110439164,
			"0.014": 0.0,
			"0.015": 0.0,
			"0.016": 0.0,
			"0.017": 0.0,
			"0.018": 0.0,
			"0.019": 0.0,
			"0.02": 0.0,
			"0.021": 0.0,
			"0.022": 0.0,
			"0.023": 0.0,
			"0.024": 0.0,
			"0.025": 0.0
		}
	}
}
