{
	 "smiles": "CCCCCCCCCCCCCCCCCCC#C", 
	 "Tm": 309.15, 
	 "num_atms": 58, 
	 "gaussian": { 
		 "optdone": 1, 
		 "sigma_profile": "yes", 
		 "theory": "DFT", 
		 "functional": "B3LYP", 
		 "basiset": "6-31G**", 
		 "properties": { 
			 "R2extent": 10212.7047, 
			 "electric_dipole_moment_norm": 0.706034149316, 
			 "electric_quadrupole_moment_norm": 4.17933240722, 
			 "total_energy": -785.007230426, 
			 "HOMO_LUMO_gap": 0.31006, 
			 "cosmo_polarized_energy": -4.2, 
			 "cosmo_cavitation_energy": 56.61, 
			 "cosmo_dispersion_energy": -34.54, 
			 "cosmo_repulsion_energy": 2.75, 
			 "cosmo_total_nonelectrostatic_energy": 24.82, 
			 "SMD_solvation_energy": 8.29 
		},
		"coords": [
			{
				"x": -2.2520114277,
				"y": 0.9983600923,
				"z": -2.5042941214,
				"element": "C" 
			},
			{
				"x": -3.7114567021,
				"y": 0.8893981658,
				"z": -2.9605020736,
				"element": "C" 
			},
			{
				"x": -4.2294987629,
				"y": -0.5380519473,
				"z": -3.2165606416,
				"element": "C" 
			},
			{
				"x": -4.2470435105,
				"y": -1.4732766065,
				"z": -1.9861274888,
				"element": "C" 
			},
			{
				"x": -2.9949465799,
				"y": -2.3487049006,
				"z": -1.8172930219,
				"element": "C" 
			},
			{
				"x": -3.0407146313,
				"y": -3.2162231232,
				"z": -0.5499035737,
				"element": "C" 
			},
			{
				"x": -1.8336264692,
				"y": -4.1553398772,
				"z": -0.334301836,
				"element": "C" 
			},
			{
				"x": -0.6334793585,
				"y": -3.5639574016,
				"z": 0.4298824902,
				"element": "C" 
			},
			{
				"x": 0.1416514723,
				"y": -2.4495036665,
				"z": -0.28916277,
				"element": "C" 
			},
			{
				"x": 1.4368759387,
				"y": -2.0181384805,
				"z": 0.4192346526,
				"element": "C" 
			},
			{
				"x": 1.2279263259,
				"y": -1.3289153389,
				"z": 1.7758877007,
				"element": "C" 
			},
			{
				"x": 2.5344635174,
				"y": -0.8020859881,
				"z": 2.3852723797,
				"element": "C" 
			},
			{
				"x": 2.3883501308,
				"y": -0.1672177739,
				"z": 3.7787178289,
				"element": "C" 
			},
			{
				"x": 1.51879448,
				"y": 1.1003421051,
				"z": 3.8955967118,
				"element": "C" 
			},
			{
				"x": 2.02912222,
				"y": 2.3458816064,
				"z": 3.1366451301,
				"element": "C" 
			},
			{
				"x": 1.4883184578,
				"y": 2.5137006309,
				"z": 1.7081095101,
				"element": "C" 
			},
			{
				"x": 2.010433206,
				"y": 3.7792369849,
				"z": 1.0188068876,
				"element": "C" 
			},
			{
				"x": 1.4400090188,
				"y": 3.9959971404,
				"z": -0.4011536943,
				"element": "C" 
			},
			{
				"x": -0.0066552517,
				"y": 4.2211660529,
				"z": -0.4261295003,
				"element": "C" 
			},
			{
				"x": -1.199520148,
				"y": 4.4158856741,
				"z": -0.4307283104,
				"element": "C" 
			},
			{
				"x": -1.5741102402,
				"y": 0.5248717231,
				"z": -3.2243425681,
				"element": "H" 
			},
			{
				"x": -1.947460404,
				"y": 2.0446633308,
				"z": -2.3971353277,
				"element": "H" 
			},
			{
				"x": -2.093091241,
				"y": 0.5185744484,
				"z": -1.5332617414,
				"element": "H" 
			},
			{
				"x": -3.8389116125,
				"y": 1.4720105557,
				"z": -3.8825382921,
				"element": "H" 
			},
			{
				"x": -4.3583331866,
				"y": 1.3676834689,
				"z": -2.2116530335,
				"element": "H" 
			},
			{
				"x": -5.2495471313,
				"y": -0.4515148235,
				"z": -3.6116316877,
				"element": "H" 
			},
			{
				"x": -3.6383690512,
				"y": -1.0027064426,
				"z": -4.0187031692,
				"element": "H" 
			},
			{
				"x": -4.3999374963,
				"y": -0.8736458159,
				"z": -1.07694566,
				"element": "H" 
			},
			{
				"x": -5.1190097612,
				"y": -2.1379576179,
				"z": -2.0497569533,
				"element": "H" 
			},
			{
				"x": -2.0990903126,
				"y": -1.7212727161,
				"z": -1.8161953971,
				"element": "H" 
			},
			{
				"x": -2.9000796947,
				"y": -3.0042750481,
				"z": -2.6949755524,
				"element": "H" 
			},
			{
				"x": -3.1582273257,
				"y": -2.5700968185,
				"z": 0.3323795684,
				"element": "H" 
			},
			{
				"x": -3.9547761608,
				"y": -3.824200751,
				"z": -0.5930762387,
				"element": "H" 
			},
			{
				"x": -1.4943331766,
				"y": -4.5421736717,
				"z": -1.3060768828,
				"element": "H" 
			},
			{
				"x": -2.1764114991,
				"y": -5.0318098541,
				"z": 0.230187344,
				"element": "H" 
			},
			{
				"x": 0.0670361084,
				"y": -4.3825473802,
				"z": 0.6494287526,
				"element": "H" 
			},
			{
				"x": -0.9856359988,
				"y": -3.2012725104,
				"z": 1.4049439635,
				"element": "H" 
			},
			{
				"x": 0.3905880292,
				"y": -2.790472491,
				"z": -1.3035151074,
				"element": "H" 
			},
			{
				"x": -0.4983754201,
				"y": -1.5668668706,
				"z": -0.4132612504,
				"element": "H" 
			},
			{
				"x": 2.089709316,
				"y": -2.8931312398,
				"z": 0.5518758707,
				"element": "H" 
			},
			{
				"x": 1.9842802699,
				"y": -1.3315783182,
				"z": -0.2414765903,
				"element": "H" 
			},
			{
				"x": 0.5149314306,
				"y": -0.5034757443,
				"z": 1.6473058525,
				"element": "H" 
			},
			{
				"x": 0.7607122393,
				"y": -2.026193212,
				"z": 2.4841913511,
				"element": "H" 
			},
			{
				"x": 2.9979788863,
				"y": -0.0858908004,
				"z": 1.6934808963,
				"element": "H" 
			},
			{
				"x": 3.2457359095,
				"y": -1.636049689,
				"z": 2.4638191258,
				"element": "H" 
			},
			{
				"x": 1.9813366094,
				"y": -0.9246481106,
				"z": 4.4632439954,
				"element": "H" 
			},
			{
				"x": 3.3915117415,
				"y": 0.0707234296,
				"z": 4.1588017616,
				"element": "H" 
			},
			{
				"x": 0.4875751935,
				"y": 0.8831463612,
				"z": 3.5872636431,
				"element": "H" 
			},
			{
				"x": 1.4582336194,
				"y": 1.3456902222,
				"z": 4.9632983258,
				"element": "H" 
			},
			{
				"x": 1.7515883949,
				"y": 3.2436542987,
				"z": 3.7049904994,
				"element": "H" 
			},
			{
				"x": 3.1286930137,
				"y": 2.3361160253,
				"z": 3.1173767912,
				"element": "H" 
			},
			{
				"x": 1.7470003201,
				"y": 1.6412258164,
				"z": 1.0951537584,
				"element": "H" 
			},
			{
				"x": 0.3918080791,
				"y": 2.5510262758,
				"z": 1.740324192,
				"element": "H" 
			},
			{
				"x": 1.777424427,
				"y": 4.6585516722,
				"z": 1.6322818332,
				"element": "H" 
			},
			{
				"x": 3.1043497096,
				"y": 3.7329372498,
				"z": 0.9399503376,
				"element": "H" 
			},
			{
				"x": 1.6799463637,
				"y": 3.1258423897,
				"z": -1.0274936921,
				"element": "H" 
			},
			{
				"x": 1.9413572615,
				"y": 4.8541085413,
				"z": -0.8673024436,
				"element": "H" 
			},
			{
				"x": -2.2500891356,
				"y": 4.5914007682,
				"z": -0.4354525346,
				"element": "H" 
			}
		],
		 "valence_orbital": [ 
			{
				"type": "occ",
				"energy": -0.29877,
				"method": "rhf"
			},
			{
				"type": "occ",
				"energy": -0.29128,
				"method": "rhf"
			},
			{
				"type": "occ",
				"energy": -0.29032,
				"method": "rhf"
			},
			{
				"type": "occ",
				"energy": -0.25971,
				"method": "rhf"
			},
			{
				"type": "occ",
				"energy": -0.25842,
				"method": "rhf"
			},
			{
				"type": "unocc",
				"energy": 0.05164,
				"method": "rhf"
			},
			{
				"type": "unocc",
				"energy": 0.05905,
				"method": "rhf"
			},
			{
				"type": "unocc",
				"energy": 0.07855,
				"method": "rhf"
			},
			{
				"type": "unocc",
				"energy": 0.08467,
				"method": "rhf"
			},
			{
				"type": "unocc",
				"energy": 0.09834,
				"method": "rhf"
			}
		],
		"cosmo_sigma_profile": { 
			"-0.025": 0.0,
			"-0.024": 0.0,
			"-0.023": 0.0,
			"-0.022": 0.0,
			"-0.021": 0.0,
			"-0.02": 0.0,
			"-0.019": 0.0,
			"-0.018": 0.0,
			"-0.017": 0.0,
			"-0.016": 0.0,
			"-0.015": 0.0,
			"-0.014": 0.0,
			"-0.013": 0.0,
			"-0.012": 0.0,
			"-0.011": 0.605384296726,
			"-0.01": 1.18164008623,
			"-0.009": 1.07402591342,
			"-0.008": 0.860064180021,
			"-0.007": 1.38455961823,
			"-0.006": 1.19127404997,
			"-0.005": 4.26495768857,
			"-0.004": 5.63396108251,
			"-0.003": 11.8671610282,
			"-0.002": 48.4892514946,
			"-0.001": 98.4111500634,
			"0.0": 104.269802386,
			"0.001": 83.6942103168,
			"0.002": 37.7353060943,
			"0.003": 8.87495141234,
			"0.004": 5.92303802801,
			"0.005": 6.18007518315,
			"0.006": 5.41794665424,
			"0.007": 5.61047543794,
			"0.008": 2.05636668978,
			"0.009": 0.0,
			"0.01": 0.0,
			"0.011": 0.0,
			"0.012": 0.0,
			"0.013": 0.0,
			"0.014": 0.0,
			"0.015": 0.0,
			"0.016": 0.0,
			"0.017": 0.0,
			"0.018": 0.0,
			"0.019": 0.0,
			"0.02": 0.0,
			"0.021": 0.0,
			"0.022": 0.0,
			"0.023": 0.0,
			"0.024": 0.0,
			"0.025": 0.0
		}
	}
}
