{
	 "smiles": "CN1N=C2C(CCC3=C2C=CC=C3)C1C1=CC=C(Cl)C=C1", 
	 "Tm": 473.15, 
	 "num_atms": 38, 
	 "gaussian": { 
		 "optdone": 1, 
		 "sigma_profile": "yes", 
		 "theory": "DFT", 
		 "functional": "B3LYP", 
		 "basiset": "6-31G**", 
		 "properties": { 
			 "R2extent": 9873.8162, 
			 "electric_dipole_moment_norm": 2.04341876765, 
			 "electric_quadrupole_moment_norm": 12.0166511916, 
			 "total_energy": -1265.84605914, 
			 "HOMO_LUMO_gap": 0.15951, 
			 "cosmo_polarized_energy": -9.57, 
			 "cosmo_cavitation_energy": 41.88, 
			 "cosmo_dispersion_energy": -29.6, 
			 "cosmo_repulsion_energy": 2.25, 
			 "cosmo_total_nonelectrostatic_energy": 14.53, 
			 "SMD_solvation_energy": 4.5 
		},
		"coords": [
			{
				"x": -2.897474338,
				"y": 0.6128526859,
				"z": 1.5858209068,
				"element": "C" 
			},
			{
				"x": -1.9336300368,
				"y": 0.2454607259,
				"z": 0.5604639768,
				"element": "N" 
			},
			{
				"x": -0.9948001619,
				"y": 1.2516399205,
				"z": 0.3170112508,
				"element": "N" 
			},
			{
				"x": 0.1079851088,
				"y": 0.7039275394,
				"z": -0.0678335228,
				"element": "C" 
			},
			{
				"x": 0.038675796,
				"y": -0.8069533938,
				"z": -0.1120848864,
				"element": "C" 
			},
			{
				"x": 1.368355028,
				"y": -1.431401881,
				"z": 0.3083891773,
				"element": "C" 
			},
			{
				"x": 2.4894955824,
				"y": -0.8644866958,
				"z": -0.5814528411,
				"element": "C" 
			},
			{
				"x": 2.5058861227,
				"y": 0.6557955741,
				"z": -0.6491092429,
				"element": "C" 
			},
			{
				"x": 1.3335357541,
				"y": 1.4135459039,
				"z": -0.4226442114,
				"element": "C" 
			},
			{
				"x": 1.3777593945,
				"y": 2.8166448086,
				"z": -0.5062185621,
				"element": "C" 
			},
			{
				"x": 2.5642922904,
				"y": 3.4680211262,
				"z": -0.8187780361,
				"element": "C" 
			},
			{
				"x": 3.7275029846,
				"y": 2.7239252943,
				"z": -1.0457832175,
				"element": "C" 
			},
			{
				"x": 3.6913994488,
				"y": 1.3334268103,
				"z": -0.9569400948,
				"element": "C" 
			},
			{
				"x": -1.213359614,
				"y": -1.0355417077,
				"z": 0.7642091216,
				"element": "C" 
			},
			{
				"x": -2.0376036578,
				"y": -2.2550826845,
				"z": 0.4161960007,
				"element": "C" 
			},
			{
				"x": -1.9084134927,
				"y": -3.4316922685,
				"z": 1.1632406977,
				"element": "C" 
			},
			{
				"x": -2.6201992515,
				"y": -4.5841196209,
				"z": 0.8271182377,
				"element": "C" 
			},
			{
				"x": -3.4799131091,
				"y": -4.5513076825,
				"z": -0.2688047592,
				"element": "C" 
			},
			{
				"x": -4.3895318246,
				"y": -5.9941236037,
				"z": -0.6997258934,
				"element": "Cl" 
			},
			{
				"x": -3.6367297975,
				"y": -3.3891641902,
				"z": -1.0248503786,
				"element": "C" 
			},
			{
				"x": -2.9134132284,
				"y": -2.2493485118,
				"z": -0.6783807689,
				"element": "C" 
			},
			{
				"x": -2.4422176943,
				"y": 0.6876907461,
				"z": 2.5877130338,
				"element": "H" 
			},
			{
				"x": -3.6901284708,
				"y": -0.1393931078,
				"z": 1.615299253,
				"element": "H" 
			},
			{
				"x": -3.3347472199,
				"y": 1.5789198158,
				"z": 1.3275100823,
				"element": "H" 
			},
			{
				"x": -0.1880416579,
				"y": -1.116832967,
				"z": -1.1451631899,
				"element": "H" 
			},
			{
				"x": 1.5699778428,
				"y": -1.1855709039,
				"z": 1.3589772522,
				"element": "H" 
			},
			{
				"x": 1.3380725166,
				"y": -2.5239093572,
				"z": 0.2285193078,
				"element": "H" 
			},
			{
				"x": 3.4642753865,
				"y": -1.2237777806,
				"z": -0.2332609129,
				"element": "H" 
			},
			{
				"x": 2.3678114403,
				"y": -1.2650237117,
				"z": -1.5990319469,
				"element": "H" 
			},
			{
				"x": 0.4653161443,
				"y": 3.3749111037,
				"z": -0.3229224038,
				"element": "H" 
			},
			{
				"x": 2.5876819192,
				"y": 4.5519504594,
				"z": -0.8849259607,
				"element": "H" 
			},
			{
				"x": 4.6598368931,
				"y": 3.2271821005,
				"z": -1.2856053019,
				"element": "H" 
			},
			{
				"x": 4.5997314508,
				"y": 0.7595869343,
				"z": -1.125953783,
				"element": "H" 
			},
			{
				"x": -0.8930270986,
				"y": -1.1079367858,
				"z": 1.8214863532,
				"element": "H" 
			},
			{
				"x": -1.2451866023,
				"y": -3.4517960089,
				"z": 2.0244158739,
				"element": "H" 
			},
			{
				"x": -2.5152981943,
				"y": -5.492091681,
				"z": 1.4106645144,
				"element": "H" 
			},
			{
				"x": -4.3172038212,
				"y": -3.3785590895,
				"z": -1.8692941238,
				"element": "H" 
			},
			{
				"x": -3.0363718322,
				"y": -1.3344679149,
				"z": -1.2493710019,
				"element": "H" 
			}
		],
		 "valence_orbital": [ 
			{
				"type": "occ",
				"energy": -0.26507,
				"method": "rhf"
			},
			{
				"type": "occ",
				"energy": -0.26355,
				"method": "rhf"
			},
			{
				"type": "occ",
				"energy": -0.24418,
				"method": "rhf"
			},
			{
				"type": "occ",
				"energy": -0.24076,
				"method": "rhf"
			},
			{
				"type": "occ",
				"energy": -0.19644,
				"method": "rhf"
			},
			{
				"type": "unocc",
				"energy": -0.03693,
				"method": "rhf"
			},
			{
				"type": "unocc",
				"energy": -0.01694,
				"method": "rhf"
			},
			{
				"type": "unocc",
				"energy": -0.0161,
				"method": "rhf"
			},
			{
				"type": "unocc",
				"energy": -0.00129,
				"method": "rhf"
			},
			{
				"type": "unocc",
				"energy": 0.02956,
				"method": "rhf"
			}
		],
		"cosmo_sigma_profile": { 
			"-0.025": 0.0,
			"-0.024": 0.0,
			"-0.023": 0.0,
			"-0.022": 0.0,
			"-0.021": 0.0,
			"-0.02": 0.0,
			"-0.019": 0.0,
			"-0.018": 0.0,
			"-0.017": 0.0,
			"-0.016": 0.0,
			"-0.015": 0.0,
			"-0.014": 0.0,
			"-0.013": 0.0,
			"-0.012": 0.0,
			"-0.011": 0.0,
			"-0.01": 0.0,
			"-0.009": 0.0,
			"-0.008": 0.039812743523,
			"-0.007": 3.04033699549,
			"-0.006": 9.68397491784,
			"-0.005": 19.0929231546,
			"-0.004": 33.8700918598,
			"-0.003": 37.9688923989,
			"-0.002": 33.3821608974,
			"-0.001": 34.1687754319,
			"0.0": 23.8103450076,
			"0.001": 20.7606565776,
			"0.002": 23.0889661698,
			"0.003": 26.5635414987,
			"0.004": 28.2338149269,
			"0.005": 21.3246786517,
			"0.006": 7.53301130538,
			"0.007": 2.14709208269,
			"0.008": 2.39553687009,
			"0.009": 1.81745295107,
			"0.01": 2.47788912956,
			"0.011": 1.33460139588,
			"0.012": 0.748659137227,
			"0.013": 0.888870759964,
			"0.014": 0.246567590338,
			"0.015": 0.0,
			"0.016": 0.0,
			"0.017": 0.0,
			"0.018": 0.0,
			"0.019": 0.0,
			"0.02": 0.0,
			"0.021": 0.0,
			"0.022": 0.0,
			"0.023": 0.0,
			"0.024": 0.0,
			"0.025": 0.0
		}
	}
}
