{
	 "smiles": "COC(=O)C1=CC(=CC=C1)S(Cl)(=O)=O", 
	 "Tm": 325.15, 
	 "num_atms": 21, 
	 "gaussian": { 
		 "optdone": 1, 
		 "sigma_profile": "yes", 
		 "theory": "DFT", 
		 "functional": "B3LYP", 
		 "basiset": "6-31G**", 
		 "properties": { 
			 "R2extent": 4784.2307, 
			 "electric_dipole_moment_norm": 6.70059717413, 
			 "electric_quadrupole_moment_norm": 9.54929873656, 
			 "total_energy": -1468.28510046, 
			 "HOMO_LUMO_gap": 0.20037, 
			 "cosmo_polarized_energy": -12.09, 
			 "cosmo_cavitation_energy": 29.8, 
			 "cosmo_dispersion_energy": -22.05, 
			 "cosmo_repulsion_energy": 1.7, 
			 "cosmo_total_nonelectrostatic_energy": 9.45, 
			 "SMD_solvation_energy": 5.46 
		},
		"coords": [
			{
				"x": -1.6848292675,
				"y": 3.9030446815,
				"z": -3.9408452013,
				"element": "C" 
			},
			{
				"x": -1.6981802609,
				"y": 2.9555286157,
				"z": -2.8578309864,
				"element": "O" 
			},
			{
				"x": -0.484922934,
				"y": 2.533716465,
				"z": -2.4482836293,
				"element": "C" 
			},
			{
				"x": 0.560980057,
				"y": 2.9072002833,
				"z": -2.9379950544,
				"element": "O" 
			},
			{
				"x": -0.5769019192,
				"y": 1.5544085944,
				"z": -1.3217691234,
				"element": "C" 
			},
			{
				"x": 0.6230137951,
				"y": 1.0465795001,
				"z": -0.8123301448,
				"element": "C" 
			},
			{
				"x": 0.5626581728,
				"y": 0.1312541715,
				"z": 0.2331808516,
				"element": "C" 
			},
			{
				"x": -0.6456111127,
				"y": -0.2986215761,
				"z": 0.7869145887,
				"element": "C" 
			},
			{
				"x": -1.832466728,
				"y": 0.2164993522,
				"z": 0.2674541199,
				"element": "C" 
			},
			{
				"x": -1.800608656,
				"y": 1.1390079153,
				"z": -0.7792274034,
				"element": "C" 
			},
			{
				"x": 2.0898914967,
				"y": -0.5425418009,
				"z": 0.8792542954,
				"element": "S" 
			},
			{
				"x": 2.5437560041,
				"y": 0.8647902215,
				"z": 2.4169128387,
				"element": "Cl" 
			},
			{
				"x": 1.8068446326,
				"y": -1.8032615602,
				"z": 1.5539383749,
				"element": "O" 
			},
			{
				"x": 3.1407570164,
				"y": -0.4092918969,
				"z": -0.1202907999,
				"element": "O" 
			},
			{
				"x": -2.7307201671,
				"y": 4.133036643,
				"z": -4.1413153236,
				"element": "H" 
			},
			{
				"x": -1.139364533,
				"y": 4.8045850136,
				"z": -3.6523876108,
				"element": "H" 
			},
			{
				"x": -1.2089328573,
				"y": 3.4679003786,
				"z": -4.8227019174,
				"element": "H" 
			},
			{
				"x": 1.5672549644,
				"y": 1.3641682497,
				"z": -1.2398592225,
				"element": "H" 
			},
			{
				"x": -0.6482334232,
				"y": -1.0229122484,
				"z": 1.5936926525,
				"element": "H" 
			},
			{
				"x": -2.7837168316,
				"y": -0.1056301228,
				"z": 0.6785034177,
				"element": "H" 
			},
			{
				"x": -2.7221674486,
				"y": 1.5408391199,
				"z": -1.1838147222,
				"element": "H" 
			}
		],
		 "valence_orbital": [ 
			{
				"type": "occ",
				"energy": -0.32146,
				"method": "rhf"
			},
			{
				"type": "occ",
				"energy": -0.31473,
				"method": "rhf"
			},
			{
				"type": "occ",
				"energy": -0.29643,
				"method": "rhf"
			},
			{
				"type": "occ",
				"energy": -0.29505,
				"method": "rhf"
			},
			{
				"type": "occ",
				"energy": -0.29364,
				"method": "rhf"
			},
			{
				"type": "unocc",
				"energy": -0.09327,
				"method": "rhf"
			},
			{
				"type": "unocc",
				"energy": -0.07312,
				"method": "rhf"
			},
			{
				"type": "unocc",
				"energy": -0.0474,
				"method": "rhf"
			},
			{
				"type": "unocc",
				"energy": 0.02039,
				"method": "rhf"
			},
			{
				"type": "unocc",
				"energy": 0.05603,
				"method": "rhf"
			}
		],
		"cosmo_sigma_profile": { 
			"-0.025": 0.0,
			"-0.024": 0.0,
			"-0.023": 0.0,
			"-0.022": 0.0,
			"-0.021": 0.0,
			"-0.02": 0.0,
			"-0.019": 0.0,
			"-0.018": 0.0,
			"-0.017": 0.0,
			"-0.016": 0.0,
			"-0.015": 0.0,
			"-0.014": 0.0,
			"-0.013": 0.0,
			"-0.012": 0.0,
			"-0.011": 0.0,
			"-0.01": 0.0154805430979,
			"-0.009": 1.48764218272,
			"-0.008": 5.0936544391,
			"-0.007": 9.75751165779,
			"-0.006": 13.1856103736,
			"-0.005": 13.1723863848,
			"-0.004": 19.3145444457,
			"-0.003": 18.3159019359,
			"-0.002": 19.9144015238,
			"-0.001": 23.9888395267,
			"0.0": 20.4609979622,
			"0.001": 14.2996595543,
			"0.002": 13.0511731124,
			"0.003": 17.6623252323,
			"0.004": 10.8294816557,
			"0.005": 5.20378140816,
			"0.006": 4.30895823784,
			"0.007": 8.38905331587,
			"0.008": 11.1246338414,
			"0.009": 4.9924572491,
			"0.01": 1.80879472723,
			"0.011": 4.2643608324,
			"0.012": 1.31310865064,
			"0.013": 0.0,
			"0.014": 0.0,
			"0.015": 0.0,
			"0.016": 0.0,
			"0.017": 0.0,
			"0.018": 0.0,
			"0.019": 0.0,
			"0.02": 0.0,
			"0.021": 0.0,
			"0.022": 0.0,
			"0.023": 0.0,
			"0.024": 0.0,
			"0.025": 0.0
		}
	}
}
