{
	 "smiles": "NC1=CC2=C(C=CO2)C=C1", 
	 "Tm": 325.15, 
	 "num_atms": 17, 
	 "gaussian": { 
		 "optdone": 1, 
		 "sigma_profile": "yes", 
		 "theory": "DFT", 
		 "functional": "B3LYP", 
		 "basiset": "6-31G**", 
		 "properties": { 
			 "R2extent": 1390.6638, 
			 "electric_dipole_moment_norm": 1.56696499961, 
			 "electric_quadrupole_moment_norm": 12.8238854034, 
			 "total_energy": -439.031429831, 
			 "HOMO_LUMO_gap": 0.18182, 
			 "cosmo_polarized_energy": -9.21, 
			 "cosmo_cavitation_energy": 20.91, 
			 "cosmo_dispersion_energy": -15.99, 
			 "cosmo_repulsion_energy": 1.28, 
			 "cosmo_total_nonelectrostatic_energy": 6.2, 
			 "SMD_solvation_energy": 4.26 
		},
		"coords": [
			{
				"x": -1.2076009999,
				"y": 1.9801629464,
				"z": -2.6221483321,
				"element": "N" 
			},
			{
				"x": -0.8500134025,
				"y": 1.1888121483,
				"z": -1.5241743282,
				"element": "C" 
			},
			{
				"x": 0.4985561538,
				"y": 0.921302203,
				"z": -1.2499869114,
				"element": "C" 
			},
			{
				"x": 0.7745632937,
				"y": 0.1808559634,
				"z": -0.10780857,
				"element": "C" 
			},
			{
				"x": -0.2056905019,
				"y": -0.310907236,
				"z": 0.7736998226,
				"element": "C" 
			},
			{
				"x": 0.5224640858,
				"y": -1.016666179,
				"z": 1.8023464332,
				"element": "C" 
			},
			{
				"x": 1.833483526,
				"y": -0.9039106592,
				"z": 1.4796736746,
				"element": "C" 
			},
			{
				"x": 2.0222107896,
				"y": -0.1804664983,
				"z": 0.3207535122,
				"element": "O" 
			},
			{
				"x": -1.5499966403,
				"y": -0.0344120142,
				"z": 0.4831331832,
				"element": "C" 
			},
			{
				"x": -1.8571075399,
				"y": 0.7055767385,
				"z": -0.6509263099,
				"element": "C" 
			},
			{
				"x": -0.5300865698,
				"y": 1.9951005848,
				"z": -3.3724578057,
				"element": "H" 
			},
			{
				"x": -2.141980953,
				"y": 1.8177586576,
				"z": -2.9724070985,
				"element": "H" 
			},
			{
				"x": 1.2943149313,
				"y": 1.2794184281,
				"z": -1.895277437,
				"element": "H" 
			},
			{
				"x": 0.1176253032,
				"y": -1.5335185812,
				"z": 2.6608034608,
				"element": "H" 
			},
			{
				"x": 2.7378648278,
				"y": -1.2634588377,
				"z": 1.9460807058,
				"element": "H" 
			},
			{
				"x": -2.3455916813,
				"y": -0.3920030434,
				"z": 1.1303416475,
				"element": "H" 
			},
			{
				"x": -2.8955146227,
				"y": 0.9311553789,
				"z": -0.8802456472,
				"element": "H" 
			}
		],
		 "valence_orbital": [ 
			{
				"type": "occ",
				"energy": -0.33428,
				"method": "rhf"
			},
			{
				"type": "occ",
				"energy": -0.3055,
				"method": "rhf"
			},
			{
				"type": "occ",
				"energy": -0.2642,
				"method": "rhf"
			},
			{
				"type": "occ",
				"energy": -0.22889,
				"method": "rhf"
			},
			{
				"type": "occ",
				"energy": -0.18715,
				"method": "rhf"
			},
			{
				"type": "unocc",
				"energy": -0.00533,
				"method": "rhf"
			},
			{
				"type": "unocc",
				"energy": 0.0249,
				"method": "rhf"
			},
			{
				"type": "unocc",
				"energy": 0.06683,
				"method": "rhf"
			},
			{
				"type": "unocc",
				"energy": 0.0857,
				"method": "rhf"
			},
			{
				"type": "unocc",
				"energy": 0.11425,
				"method": "rhf"
			}
		],
		"cosmo_sigma_profile": { 
			"-0.025": 0.0,
			"-0.024": 0.0,
			"-0.023": 0.0,
			"-0.022": 0.0,
			"-0.021": 0.0,
			"-0.02": 0.0,
			"-0.019": 0.0,
			"-0.018": 0.0,
			"-0.017": 0.0,
			"-0.016": 0.0,
			"-0.015": 0.0,
			"-0.014": 0.0,
			"-0.013": 0.106297942383,
			"-0.012": 2.29329415873,
			"-0.011": 2.69642300858,
			"-0.01": 2.96791736487,
			"-0.009": 4.68960954904,
			"-0.008": 4.52905326021,
			"-0.007": 6.51588011834,
			"-0.006": 8.72998917242,
			"-0.005": 9.33723800544,
			"-0.004": 9.19425093429,
			"-0.003": 9.78774610439,
			"-0.002": 6.93577787468,
			"-0.001": 7.35776600342,
			"0.0": 6.80530825222,
			"0.001": 6.31128948088,
			"0.002": 10.2228503354,
			"0.003": 14.2577932074,
			"0.004": 13.4003552725,
			"0.005": 16.5026680244,
			"0.006": 12.0762612532,
			"0.007": 3.83970291603,
			"0.008": 2.02337315831,
			"0.009": 2.41426831208,
			"0.01": 1.28459146464,
			"0.011": 0.771072516368,
			"0.012": 0.745656253369,
			"0.013": 0.420157911625,
			"0.014": 0.854560017757,
			"0.015": 0.341957583026,
			"0.016": 0.0,
			"0.017": 0.0,
			"0.018": 0.0,
			"0.019": 0.0,
			"0.02": 0.0,
			"0.021": 0.0,
			"0.022": 0.0,
			"0.023": 0.0,
			"0.024": 0.0,
			"0.025": 0.0
		}
	}
}
