{
	 "smiles": "CCCC1=C(NCC)C=CC(C(C)=O)=C1O", 
	 "Tm": 319.65, 
	 "num_atms": 35, 
	 "gaussian": { 
		 "optdone": 1, 
		 "sigma_profile": "yes", 
		 "theory": "DFT", 
		 "functional": "B3LYP", 
		 "basiset": "6-31G**", 
		 "properties": { 
			 "R2extent": 4728.5571, 
			 "electric_dipole_moment_norm": 5.67031414474, 
			 "electric_quadrupole_moment_norm": 17.0277615167, 
			 "total_energy": -712.04342715, 
			 "HOMO_LUMO_gap": 0.17574, 
			 "cosmo_polarized_energy": -13.52, 
			 "cosmo_cavitation_energy": 35.5, 
			 "cosmo_dispersion_energy": -24.98, 
			 "cosmo_repulsion_energy": 1.95, 
			 "cosmo_total_nonelectrostatic_energy": 12.47, 
			 "SMD_solvation_energy": 5.71 
		},
		"coords": [
			{
				"x": -0.6540612381,
				"y": 3.5170985462,
				"z": 0.4299591715,
				"element": "C" 
			},
			{
				"x": 0.2259996477,
				"y": 2.6226700899,
				"z": 1.3113618707,
				"element": "C" 
			},
			{
				"x": -0.4878142032,
				"y": 1.4227962452,
				"z": 1.9880583777,
				"element": "C" 
			},
			{
				"x": -0.8637794076,
				"y": 0.2401959404,
				"z": 1.1106149878,
				"element": "C" 
			},
			{
				"x": -0.0662719631,
				"y": -0.9287301597,
				"z": 1.085599348,
				"element": "C" 
			},
			{
				"x": 1.1122316857,
				"y": -1.0504827542,
				"z": 1.8578138068,
				"element": "N" 
			},
			{
				"x": 2.3216562412,
				"y": -0.2665199999,
				"z": 1.5521291859,
				"element": "C" 
			},
			{
				"x": 2.8897932052,
				"y": -0.4771040083,
				"z": 0.1439078272,
				"element": "C" 
			},
			{
				"x": -0.5064012106,
				"y": -2.0532355704,
				"z": 0.3600337552,
				"element": "C" 
			},
			{
				"x": -1.7036354235,
				"y": -2.0285543749,
				"z": -0.326399963,
				"element": "C" 
			},
			{
				"x": -2.5282234606,
				"y": -0.8927432264,
				"z": -0.333320932,
				"element": "C" 
			},
			{
				"x": -3.796591038,
				"y": -0.9980846333,
				"z": -1.1272147179,
				"element": "C" 
			},
			{
				"x": -4.7555331894,
				"y": 0.1707332763,
				"z": -1.2493461467,
				"element": "C" 
			},
			{
				"x": -4.0613286119,
				"y": -2.0515315991,
				"z": -1.696299815,
				"element": "O" 
			},
			{
				"x": -2.0890672083,
				"y": 0.2269013493,
				"z": 0.4070569416,
				"element": "C" 
			},
			{
				"x": -2.9221420853,
				"y": 1.3093057959,
				"z": 0.4576182395,
				"element": "O" 
			},
			{
				"x": -1.4822018812,
				"y": 3.9568709416,
				"z": 1.0025236947,
				"element": "H" 
			},
			{
				"x": -0.0730928192,
				"y": 4.3530694359,
				"z": 0.02769767,
				"element": "H" 
			},
			{
				"x": -1.0753749832,
				"y": 2.9732502648,
				"z": -0.4205246813,
				"element": "H" 
			},
			{
				"x": 1.0605405743,
				"y": 2.2529100193,
				"z": 0.705904973,
				"element": "H" 
			},
			{
				"x": 0.6687720832,
				"y": 3.2390822656,
				"z": 2.1042593948,
				"element": "H" 
			},
			{
				"x": 0.1531721325,
				"y": 1.0353489061,
				"z": 2.785881107,
				"element": "H" 
			},
			{
				"x": -1.3811022964,
				"y": 1.8004673203,
				"z": 2.5120515806,
				"element": "H" 
			},
			{
				"x": 1.3645043689,
				"y": -2.0315791753,
				"z": 1.9168581005,
				"element": "H" 
			},
			{
				"x": 2.114201209,
				"y": 0.7919728244,
				"z": 1.7152007602,
				"element": "H" 
			},
			{
				"x": 3.0680312197,
				"y": -0.5482204628,
				"z": 2.3033486764,
				"element": "H" 
			},
			{
				"x": 3.1583126063,
				"y": -1.5265075789,
				"z": -0.0217217429,
				"element": "H" 
			},
			{
				"x": 2.1608443099,
				"y": -0.1936839694,
				"z": -0.6217453645,
				"element": "H" 
			},
			{
				"x": 3.7919260049,
				"y": 0.1269403519,
				"z": -0.0026536207,
				"element": "H" 
			},
			{
				"x": 0.1157589364,
				"y": -2.9443845336,
				"z": 0.3386266732,
				"element": "H" 
			},
			{
				"x": -2.0436500731,
				"y": -2.8869588689,
				"z": -0.8953219098,
				"element": "H" 
			},
			{
				"x": -5.1499284193,
				"y": 0.4558872852,
				"z": -0.2697766777,
				"element": "H" 
			},
			{
				"x": -4.2530934072,
				"y": 1.0573884311,
				"z": -1.6462940167,
				"element": "H" 
			},
			{
				"x": -5.5699965636,
				"y": -0.1315939389,
				"z": -1.9092253563,
				"element": "H" 
			},
			{
				"x": -2.5258547418,
				"y": 1.9979255644,
				"z": 1.0045388022,
				"element": "H" 
			}
		],
		 "valence_orbital": [ 
			{
				"type": "occ",
				"energy": -0.32558,
				"method": "rhf"
			},
			{
				"type": "occ",
				"energy": -0.2736,
				"method": "rhf"
			},
			{
				"type": "occ",
				"energy": -0.23022,
				"method": "rhf"
			},
			{
				"type": "occ",
				"energy": -0.22685,
				"method": "rhf"
			},
			{
				"type": "occ",
				"energy": -0.21062,
				"method": "rhf"
			},
			{
				"type": "unocc",
				"energy": -0.03488,
				"method": "rhf"
			},
			{
				"type": "unocc",
				"energy": 0.0066,
				"method": "rhf"
			},
			{
				"type": "unocc",
				"energy": 0.04881,
				"method": "rhf"
			},
			{
				"type": "unocc",
				"energy": 0.06117,
				"method": "rhf"
			},
			{
				"type": "unocc",
				"energy": 0.07637,
				"method": "rhf"
			}
		],
		"cosmo_sigma_profile": { 
			"-0.025": 0.0,
			"-0.024": 0.0,
			"-0.023": 0.0,
			"-0.022": 0.0,
			"-0.021": 0.0,
			"-0.02": 0.0,
			"-0.019": 0.0,
			"-0.018": 0.0,
			"-0.017": 0.0,
			"-0.016": 0.0,
			"-0.015": 0.0157458761475,
			"-0.014": 0.560038858331,
			"-0.013": 0.809451203892,
			"-0.012": 1.348856142,
			"-0.011": 2.06552451314,
			"-0.01": 2.46192626795,
			"-0.009": 2.95990732122,
			"-0.008": 2.57619389266,
			"-0.007": 2.19445023624,
			"-0.006": 4.88087280632,
			"-0.005": 5.80180404404,
			"-0.004": 15.3034610548,
			"-0.003": 29.882240025,
			"-0.002": 34.8140526204,
			"-0.001": 37.4532016141,
			"0.0": 32.6501476111,
			"0.001": 23.9012316597,
			"0.002": 13.5447152012,
			"0.003": 12.4920023081,
			"0.004": 14.0778382298,
			"0.005": 11.3664341542,
			"0.006": 5.10621773595,
			"0.007": 3.33356670975,
			"0.008": 2.22428108111,
			"0.009": 1.86601341343,
			"0.01": 2.67632549077,
			"0.011": 2.60815337017,
			"0.012": 3.55335586978,
			"0.013": 4.21673011303,
			"0.014": 1.28712122929,
			"0.015": 0.060809541425,
			"0.016": 0.0,
			"0.017": 0.0,
			"0.018": 0.0,
			"0.019": 0.0,
			"0.02": 0.0,
			"0.021": 0.0,
			"0.022": 0.0,
			"0.023": 0.0,
			"0.024": 0.0,
			"0.025": 0.0
		}
	}
}
