{
	 "smiles": "CC(=O)NC1=CC(=CN=C1)C(=O)NN", 
	 "Tm": 503.15, 
	 "num_atms": 24, 
	 "gaussian": { 
		 "optdone": 1, 
		 "sigma_profile": "yes", 
		 "theory": "DFT", 
		 "functional": "B3LYP", 
		 "basiset": "6-31G**", 
		 "properties": { 
			 "R2extent": 3779.454, 
			 "electric_dipole_moment_norm": 2.08803261708, 
			 "electric_quadrupole_moment_norm": 20.2611865082, 
			 "total_energy": -680.310549345, 
			 "HOMO_LUMO_gap": 0.18632, 
			 "cosmo_polarized_energy": -24.42, 
			 "cosmo_cavitation_energy": 29.11, 
			 "cosmo_dispersion_energy": -20.76, 
			 "cosmo_repulsion_energy": 1.66, 
			 "cosmo_total_nonelectrostatic_energy": 10.0, 
			 "SMD_solvation_energy": 5.52 
		},
		"coords": [
			{
				"x": 1.6748283489,
				"y": -1.2302118892,
				"z": -3.0969463109,
				"element": "C" 
			},
			{
				"x": 2.7594295933,
				"y": -0.8906184219,
				"z": -2.0945522924,
				"element": "C" 
			},
			{
				"x": 3.9464839771,
				"y": -0.9561862456,
				"z": -2.3694945419,
				"element": "O" 
			},
			{
				"x": 2.3888768523,
				"y": -0.4721481704,
				"z": -0.8190134085,
				"element": "N" 
			},
			{
				"x": 1.1276525198,
				"y": -0.271402915,
				"z": -0.228655245,
				"element": "C" 
			},
			{
				"x": 0.9235391499,
				"y": 0.8318570906,
				"z": 0.6102408125,
				"element": "C" 
			},
			{
				"x": -0.3250487568,
				"y": 1.0202205567,
				"z": 1.2049943483,
				"element": "C" 
			},
			{
				"x": -1.3407339572,
				"y": 0.0992383429,
				"z": 0.9101738658,
				"element": "C" 
			},
			{
				"x": -1.152173398,
				"y": -0.9766654084,
				"z": 0.1428651701,
				"element": "N" 
			},
			{
				"x": 0.0555353357,
				"y": -1.1641754898,
				"z": -0.3957207428,
				"element": "C" 
			},
			{
				"x": -0.6804879272,
				"y": 2.2166780256,
				"z": 2.0430217718,
				"element": "C" 
			},
			{
				"x": -1.755324925,
				"y": 2.7855652285,
				"z": 1.9063629888,
				"element": "O" 
			},
			{
				"x": 0.2496753969,
				"y": 2.6692801345,
				"z": 2.9571268979,
				"element": "N" 
			},
			{
				"x": 1.2458080697,
				"y": 1.8922260035,
				"z": 3.5845085286,
				"element": "N" 
			},
			{
				"x": 2.0990249611,
				"y": -1.08672926,
				"z": -4.0911791287,
				"element": "H" 
			},
			{
				"x": 0.7757871765,
				"y": -0.6206548403,
				"z": -2.9819769302,
				"element": "H" 
			},
			{
				"x": 1.3884189828,
				"y": -2.2829974087,
				"z": -3.0037671242,
				"element": "H" 
			},
			{
				"x": 3.1964038311,
				"y": -0.1599825064,
				"z": -0.2927120805,
				"element": "H" 
			},
			{
				"x": 1.7246563002,
				"y": 1.5517946324,
				"z": 0.7537839961,
				"element": "H" 
			},
			{
				"x": -2.3338130994,
				"y": 0.2463934721,
				"z": 1.3257544553,
				"element": "H" 
			},
			{
				"x": 0.1843287575,
				"y": -2.0668450172,
				"z": -0.9861112103,
				"element": "H" 
			},
			{
				"x": -0.107217488,
				"y": 3.4176166692,
				"z": 3.5404436515,
				"element": "H" 
			},
			{
				"x": 2.0806155393,
				"y": 1.8614707852,
				"z": 3.0079223729,
				"element": "H" 
			},
			{
				"x": 0.9197347593,
				"y": 0.9407766318,
				"z": 3.7341301557,
				"element": "H" 
			}
		],
		 "valence_orbital": [ 
			{
				"type": "occ",
				"energy": -0.2804,
				"method": "rhf"
			},
			{
				"type": "occ",
				"energy": -0.26985,
				"method": "rhf"
			},
			{
				"type": "occ",
				"energy": -0.26792,
				"method": "rhf"
			},
			{
				"type": "occ",
				"energy": -0.25756,
				"method": "rhf"
			},
			{
				"type": "occ",
				"energy": -0.24769,
				"method": "rhf"
			},
			{
				"type": "unocc",
				"energy": -0.06137,
				"method": "rhf"
			},
			{
				"type": "unocc",
				"energy": -0.04376,
				"method": "rhf"
			},
			{
				"type": "unocc",
				"energy": 0.00855,
				"method": "rhf"
			},
			{
				"type": "unocc",
				"energy": 0.03075,
				"method": "rhf"
			},
			{
				"type": "unocc",
				"energy": 0.04798,
				"method": "rhf"
			}
		],
		"cosmo_sigma_profile": { 
			"-0.025": 0.0,
			"-0.024": 0.0,
			"-0.023": 0.0,
			"-0.022": 0.0,
			"-0.021": 0.0,
			"-0.02": 0.0,
			"-0.019": 0.0,
			"-0.018": 0.0,
			"-0.017": 0.0,
			"-0.016": 0.0,
			"-0.015": 0.531241747888,
			"-0.014": 1.57890576716,
			"-0.013": 2.74807353365,
			"-0.012": 5.87983710896,
			"-0.011": 5.44883806145,
			"-0.01": 6.00178298317,
			"-0.009": 5.6876427249,
			"-0.008": 6.88129188269,
			"-0.007": 8.16662806737,
			"-0.006": 9.58080823311,
			"-0.005": 12.6196047645,
			"-0.004": 13.3353858663,
			"-0.003": 15.3856364931,
			"-0.002": 15.6276567387,
			"-0.001": 15.6520658046,
			"0.0": 14.4284713747,
			"0.001": 10.8725430453,
			"0.002": 7.9182317988,
			"0.003": 6.42264011387,
			"0.004": 6.77165019019,
			"0.005": 5.328635866,
			"0.006": 4.13927288698,
			"0.007": 5.28685304304,
			"0.008": 4.25133720339,
			"0.009": 4.03984455713,
			"0.01": 4.36429712916,
			"0.011": 5.04213800302,
			"0.012": 7.9622275454,
			"0.013": 12.3789220216,
			"0.014": 4.10806425176,
			"0.015": 1.867487266,
			"0.016": 0.581294034469,
			"0.017": 0.0127811085783,
			"0.018": 0.0,
			"0.019": 0.0,
			"0.02": 0.0,
			"0.021": 0.0,
			"0.022": 0.0,
			"0.023": 0.0,
			"0.024": 0.0,
			"0.025": 0.0
		}
	}
}
