{
	 "smiles": "NC1=CC(CN2CCC(CO)CC2)=CC=C1", 
	 "Tm": 363.15, 
	 "num_atms": 36, 
	 "gaussian": { 
		 "optdone": 1, 
		 "sigma_profile": "yes", 
		 "theory": "DFT", 
		 "functional": "B3LYP", 
		 "basiset": "6-31G**", 
		 "properties": { 
			 "R2extent": 5810.9738, 
			 "electric_dipole_moment_norm": 2.00541209231, 
			 "electric_quadrupole_moment_norm": 18.0834593684, 
			 "total_energy": -692.148732467, 
			 "HOMO_LUMO_gap": 0.20348, 
			 "cosmo_polarized_energy": -13.7, 
			 "cosmo_cavitation_energy": 36.51, 
			 "cosmo_dispersion_energy": -26.11, 
			 "cosmo_repulsion_energy": 2.07, 
			 "cosmo_total_nonelectrostatic_energy": 12.48, 
			 "SMD_solvation_energy": 4.09 
		},
		"coords": [
			{
				"x": -2.0081157873,
				"y": -0.9083428017,
				"z": -5.120583688,
				"element": "N" 
			},
			{
				"x": -2.3134761977,
				"y": -0.0652966529,
				"z": -4.046834625,
				"element": "C" 
			},
			{
				"x": -1.9167074498,
				"y": -0.3993896539,
				"z": -2.7428564706,
				"element": "C" 
			},
			{
				"x": -2.1608459728,
				"y": 0.4626408027,
				"z": -1.6709430125,
				"element": "C" 
			},
			{
				"x": -1.7759182768,
				"y": 0.0523824501,
				"z": -0.2596025007,
				"element": "C" 
			},
			{
				"x": -0.5120684737,
				"y": -0.6721938598,
				"z": -0.180669759,
				"element": "N" 
			},
			{
				"x": -0.384071871,
				"y": -1.399013855,
				"z": 1.0864322039,
				"element": "C" 
			},
			{
				"x": 1.036887443,
				"y": -1.938433772,
				"z": 1.2591954576,
				"element": "C" 
			},
			{
				"x": 2.0786463779,
				"y": -0.7910714433,
				"z": 1.3715279057,
				"element": "C" 
			},
			{
				"x": 2.4854784503,
				"y": -0.5564056099,
				"z": 2.8244901691,
				"element": "C" 
			},
			{
				"x": 3.4518131152,
				"y": 0.4866990259,
				"z": 2.8597581312,
				"element": "O" 
			},
			{
				"x": 1.5273834536,
				"y": 0.4956777491,
				"z": 0.7175838804,
				"element": "C" 
			},
			{
				"x": 0.6738524038,
				"y": 0.1554472038,
				"z": -0.5093369764,
				"element": "C" 
			},
			{
				"x": -2.8096724535,
				"y": 1.6816167562,
				"z": -1.9011209614,
				"element": "C" 
			},
			{
				"x": -3.2137005671,
				"y": 2.0172814793,
				"z": -3.194947056,
				"element": "C" 
			},
			{
				"x": -2.9720343539,
				"y": 1.1582807407,
				"z": -4.263210155,
				"element": "C" 
			},
			{
				"x": -2.6196483223,
				"y": -0.8175339587,
				"z": -5.9204788845,
				"element": "H" 
			},
			{
				"x": -1.8636374036,
				"y": -1.8769815913,
				"z": -4.8698572928,
				"element": "H" 
			},
			{
				"x": -1.3942612005,
				"y": -1.3331611611,
				"z": -2.5518088222,
				"element": "H" 
			},
			{
				"x": -2.5538314264,
				"y": -0.617891376,
				"z": 0.1330999024,
				"element": "H" 
			},
			{
				"x": -1.7940951656,
				"y": 0.9473943124,
				"z": 0.3937701123,
				"element": "H" 
			},
			{
				"x": -0.6385802157,
				"y": -0.7654751088,
				"z": 1.9601468589,
				"element": "H" 
			},
			{
				"x": -1.1074960902,
				"y": -2.2245004293,
				"z": 1.086820273,
				"element": "H" 
			},
			{
				"x": 1.0765665634,
				"y": -2.5870631181,
				"z": 2.1431074727,
				"element": "H" 
			},
			{
				"x": 1.2693025672,
				"y": -2.5736203426,
				"z": 0.397305072,
				"element": "H" 
			},
			{
				"x": 2.9864753158,
				"y": -1.0877461549,
				"z": 0.8306557151,
				"element": "H" 
			},
			{
				"x": 2.8927501482,
				"y": -1.4903843377,
				"z": 3.2466327346,
				"element": "H" 
			},
			{
				"x": 1.5913805972,
				"y": -0.2927950396,
				"z": 3.4164940053,
				"element": "H" 
			},
			{
				"x": 3.6653704171,
				"y": 0.6700432777,
				"z": 3.7825774495,
				"element": "H" 
			},
			{
				"x": 2.3503534811,
				"y": 1.1600861068,
				"z": 0.4397885247,
				"element": "H" 
			},
			{
				"x": 0.9186352635,
				"y": 1.0506003277,
				"z": 1.4441206901,
				"element": "H" 
			},
			{
				"x": 1.2959448496,
				"y": -0.3761675053,
				"z": -1.2438584099,
				"element": "H" 
			},
			{
				"x": 0.3343309041,
				"y": 1.0694920941,
				"z": -1.0053797469,
				"element": "H" 
			},
			{
				"x": -2.9974678126,
				"y": 2.3613015385,
				"z": -1.0742777615,
				"element": "H" 
			},
			{
				"x": -3.7184684623,
				"y": 2.9626685666,
				"z": -3.3757999976,
				"element": "H" 
			},
			{
				"x": -3.2798738485,
				"y": 1.4331553406,
				"z": -5.2693404386,
				"element": "H" 
			}
		],
		 "valence_orbital": [ 
			{
				"type": "occ",
				"energy": -0.29353,
				"method": "rhf"
			},
			{
				"type": "occ",
				"energy": -0.26343,
				"method": "rhf"
			},
			{
				"type": "occ",
				"energy": -0.23134,
				"method": "rhf"
			},
			{
				"type": "occ",
				"energy": -0.19566,
				"method": "rhf"
			},
			{
				"type": "occ",
				"energy": -0.19319,
				"method": "rhf"
			},
			{
				"type": "unocc",
				"energy": 0.01029,
				"method": "rhf"
			},
			{
				"type": "unocc",
				"energy": 0.02685,
				"method": "rhf"
			},
			{
				"type": "unocc",
				"energy": 0.07807,
				"method": "rhf"
			},
			{
				"type": "unocc",
				"energy": 0.08303,
				"method": "rhf"
			},
			{
				"type": "unocc",
				"energy": 0.08971,
				"method": "rhf"
			}
		],
		"cosmo_sigma_profile": { 
			"-0.025": 0.0,
			"-0.024": 0.0,
			"-0.023": 0.0,
			"-0.022": 0.0,
			"-0.021": 0.0,
			"-0.02": 0.0,
			"-0.019": 0.0,
			"-0.018": 0.0,
			"-0.017": 0.0,
			"-0.016": 0.19554694575,
			"-0.015": 0.877462006632,
			"-0.014": 1.41329182577,
			"-0.013": 0.742741041313,
			"-0.012": 2.03538744814,
			"-0.011": 4.46336178581,
			"-0.01": 2.92011470118,
			"-0.009": 3.25992473997,
			"-0.008": 3.85658781047,
			"-0.007": 3.36606405888,
			"-0.006": 4.54056303435,
			"-0.005": 7.27469906989,
			"-0.004": 9.46853600925,
			"-0.003": 24.9652686948,
			"-0.002": 44.2076670264,
			"-0.001": 41.5720602996,
			"0.0": 27.1819618127,
			"0.001": 15.7506162292,
			"0.002": 9.36079255272,
			"0.003": 11.1508679642,
			"0.004": 9.49091355814,
			"0.005": 10.0909703547,
			"0.006": 11.3682242663,
			"0.007": 10.8103541138,
			"0.008": 5.30230275248,
			"0.009": 3.1847765624,
			"0.01": 3.21280346739,
			"0.011": 3.09600449134,
			"0.012": 2.7986520425,
			"0.013": 2.01325070434,
			"0.014": 1.86654975989,
			"0.015": 1.03958338076,
			"0.016": 0.0,
			"0.017": 0.0,
			"0.018": 0.0,
			"0.019": 0.0,
			"0.02": 0.0,
			"0.021": 0.0,
			"0.022": 0.0,
			"0.023": 0.0,
			"0.024": 0.0,
			"0.025": 0.0
		}
	}
}
