{
	 "smiles": "CC(CN)C(O)=O", 
	 "Tm": 452.15, 
	 "num_atms": 16, 
	 "gaussian": { 
		 "optdone": 1, 
		 "sigma_profile": "yes", 
		 "theory": "DFT", 
		 "functional": "B3LYP", 
		 "basiset": "6-31G**", 
		 "properties": { 
			 "R2extent": 1054.9625, 
			 "electric_dipole_moment_norm": 6.43477914928, 
			 "electric_quadrupole_moment_norm": 17.3026725782, 
			 "total_energy": -363.069380371, 
			 "HOMO_LUMO_gap": 0.273, 
			 "cosmo_polarized_energy": -15.78, 
			 "cosmo_cavitation_energy": 18.56, 
			 "cosmo_dispersion_energy": -14.0, 
			 "cosmo_repulsion_energy": 1.21, 
			 "cosmo_total_nonelectrostatic_energy": 5.76, 
			 "SMD_solvation_energy": 4.28 
		},
		"coords": [
			{
				"x": -0.7048619135,
				"y": 0.2693043821,
				"z": 1.4057748888,
				"element": "C" 
			},
			{
				"x": -0.3760884607,
				"y": 0.5646615141,
				"z": -0.0596514837,
				"element": "C" 
			},
			{
				"x": 0.7759097771,
				"y": -0.3239996432,
				"z": -0.5699389024,
				"element": "C" 
			},
			{
				"x": 0.969441919,
				"y": -0.1547664106,
				"z": -2.0250191506,
				"element": "N" 
			},
			{
				"x": -0.1095103598,
				"y": 2.0728393392,
				"z": -0.2687815656,
				"element": "C" 
			},
			{
				"x": 0.4978868156,
				"y": 2.4051637294,
				"z": -1.4173685272,
				"element": "O" 
			},
			{
				"x": -0.4524858686,
				"y": 2.909899513,
				"z": 0.5363535185,
				"element": "O" 
			},
			{
				"x": 0.1683513918,
				"y": 0.4406545035,
				"z": 2.0437909792,
				"element": "H" 
			},
			{
				"x": -1.0250813888,
				"y": -0.7700136219,
				"z": 1.5322158596,
				"element": "H" 
			},
			{
				"x": -1.4969073805,
				"y": 0.9321712087,
				"z": 1.7558972832,
				"element": "H" 
			},
			{
				"x": -1.2634432021,
				"y": 0.3328590581,
				"z": -0.6711687135,
				"element": "H" 
			},
			{
				"x": 0.5781523291,
				"y": -1.3677414481,
				"z": -0.2874101477,
				"element": "H" 
			},
			{
				"x": 1.7086986496,
				"y": -0.0303310041,
				"z": -0.0752548927,
				"element": "H" 
			},
			{
				"x": 0.236107789,
				"y": -0.6333525102,
				"z": -2.5430951193,
				"element": "H" 
			},
			{
				"x": 1.8567911871,
				"y": -0.5469716528,
				"z": -2.3269579778,
				"element": "H" 
			},
			{
				"x": 0.7388387157,
				"y": 1.5705230428,
				"z": -1.9079860488,
				"element": "H" 
			}
		],
		 "valence_orbital": [ 
			{
				"type": "occ",
				"energy": -0.35176,
				"method": "rhf"
			},
			{
				"type": "occ",
				"energy": -0.34262,
				"method": "rhf"
			},
			{
				"type": "occ",
				"energy": -0.2866,
				"method": "rhf"
			},
			{
				"type": "occ",
				"energy": -0.28013,
				"method": "rhf"
			},
			{
				"type": "occ",
				"energy": -0.24642,
				"method": "rhf"
			},
			{
				"type": "unocc",
				"energy": 0.02658,
				"method": "rhf"
			},
			{
				"type": "unocc",
				"energy": 0.05583,
				"method": "rhf"
			},
			{
				"type": "unocc",
				"energy": 0.09697,
				"method": "rhf"
			},
			{
				"type": "unocc",
				"energy": 0.10309,
				"method": "rhf"
			},
			{
				"type": "unocc",
				"energy": 0.13696,
				"method": "rhf"
			}
		],
		"cosmo_sigma_profile": { 
			"-0.025": 0.0,
			"-0.024": 0.0,
			"-0.023": 0.0,
			"-0.022": 0.0,
			"-0.021": 0.0,
			"-0.02": 0.0,
			"-0.019": 0.0,
			"-0.018": 0.0,
			"-0.017": 0.0,
			"-0.016": 0.0,
			"-0.015": 0.0,
			"-0.014": 0.0,
			"-0.013": 0.0,
			"-0.012": 1.43681291512,
			"-0.011": 3.05410603729,
			"-0.01": 3.65719146234,
			"-0.009": 3.71292151287,
			"-0.008": 3.76004552224,
			"-0.007": 2.62890574845,
			"-0.006": 7.00850789379,
			"-0.005": 9.2510370394,
			"-0.004": 13.1535241663,
			"-0.003": 13.7371333093,
			"-0.002": 12.8112976737,
			"-0.001": 10.5696405962,
			"0.0": 9.1341913411,
			"0.001": 7.68075431151,
			"0.002": 3.16062874262,
			"0.003": 2.69186628618,
			"0.004": 2.10548620658,
			"0.005": 2.51969481301,
			"0.006": 2.72637947574,
			"0.007": 1.97454415262,
			"0.008": 2.15002992289,
			"0.009": 2.66459935849,
			"0.01": 3.04243887709,
			"0.011": 3.83497111944,
			"0.012": 5.95071981483,
			"0.013": 6.79687406931,
			"0.014": 2.41200875304,
			"0.015": 0.408408957511,
			"0.016": 0.0,
			"0.017": 0.0,
			"0.018": 0.0,
			"0.019": 0.0,
			"0.02": 0.0,
			"0.021": 0.0,
			"0.022": 0.0,
			"0.023": 0.0,
			"0.024": 0.0,
			"0.025": 0.0
		}
	}
}
