{
	 "smiles": "SC1=NN=C(O1)C1=NN(CC2=CC=CC=C2)C(=O)C2=C1C=CC=C2", 
	 "Tm": 513.15, 
	 "num_atms": 36, 
	 "gaussian": { 
		 "optdone": 1, 
		 "sigma_profile": "yes", 
		 "theory": "DFT", 
		 "functional": "B3LYP", 
		 "basiset": "6-31G**", 
		 "properties": { 
			 "R2extent": 10979.9284, 
			 "electric_dipole_moment_norm": 4.49046780859, 
			 "electric_quadrupole_moment_norm": 23.3158977599, 
			 "total_energy": -1422.63456477, 
			 "HOMO_LUMO_gap": 0.15845, 
			 "cosmo_polarized_energy": -19.6, 
			 "cosmo_cavitation_energy": 43.71, 
			 "cosmo_dispersion_energy": -31.14, 
			 "cosmo_repulsion_energy": 2.29, 
			 "cosmo_total_nonelectrostatic_energy": 14.87, 
			 "SMD_solvation_energy": 4.54 
		},
		"coords": [
			{
				"x": -1.894680535,
				"y": 6.5872231998,
				"z": 0.8249260941,
				"element": "S" 
			},
			{
				"x": -1.5353845484,
				"y": 4.9466906306,
				"z": 1.3357843731,
				"element": "C" 
			},
			{
				"x": -1.220291899,
				"y": 4.5590261055,
				"z": 2.5305051895,
				"element": "N" 
			},
			{
				"x": -0.9299541982,
				"y": 3.1981056542,
				"z": 2.4316550941,
				"element": "N" 
			},
			{
				"x": -1.1151104204,
				"y": 2.8634173573,
				"z": 1.1912836491,
				"element": "C" 
			},
			{
				"x": -1.4931354269,
				"y": 3.9386266481,
				"z": 0.4180921634,
				"element": "O" 
			},
			{
				"x": -1.0193871856,
				"y": 1.5292268794,
				"z": 0.5826507506,
				"element": "C" 
			},
			{
				"x": -1.3847008715,
				"y": 0.5667437808,
				"z": 1.388696653,
				"element": "N" 
			},
			{
				"x": -1.3220719564,
				"y": -0.7052603152,
				"z": 0.9770844802,
				"element": "N" 
			},
			{
				"x": -1.7034624163,
				"y": -1.7105944123,
				"z": 1.9935268761,
				"element": "C" 
			},
			{
				"x": -0.5284647245,
				"y": -2.1558933268,
				"z": 2.8397215228,
				"element": "C" 
			},
			{
				"x": 0.1870546951,
				"y": -3.3134871676,
				"z": 2.5090121608,
				"element": "C" 
			},
			{
				"x": 1.2743533045,
				"y": -3.7152310918,
				"z": 3.2864732835,
				"element": "C" 
			},
			{
				"x": 1.6582597062,
				"y": -2.961181157,
				"z": 4.3970356135,
				"element": "C" 
			},
			{
				"x": 0.9530035886,
				"y": -1.8016811252,
				"z": 4.7273966499,
				"element": "C" 
			},
			{
				"x": -0.1358509096,
				"y": -1.400909033,
				"z": 3.9527438844,
				"element": "C" 
			},
			{
				"x": -0.8914564,
				"y": -1.1414910636,
				"z": -0.2835127842,
				"element": "C" 
			},
			{
				"x": -0.8671959486,
				"y": -2.336380214,
				"z": -0.5640023073,
				"element": "O" 
			},
			{
				"x": -0.4902930634,
				"y": -0.0577403688,
				"z": -1.191608417,
				"element": "C" 
			},
			{
				"x": -0.5374800282,
				"y": 1.2907308389,
				"z": -0.7684339182,
				"element": "C" 
			},
			{
				"x": -0.0975410767,
				"y": 2.2930496004,
				"z": -1.6593272735,
				"element": "C" 
			},
			{
				"x": 0.3528795368,
				"y": 1.9501342372,
				"z": -2.925419874,
				"element": "C" 
			},
			{
				"x": 0.3821301832,
				"y": 0.6085998407,
				"z": -3.3415381406,
				"element": "C" 
			},
			{
				"x": -0.0339349913,
				"y": -0.3904047965,
				"z": -2.476019797,
				"element": "C" 
			},
			{
				"x": -2.6104613329,
				"y": 6.2177885602,
				"z": -0.255732568,
				"element": "H" 
			},
			{
				"x": -2.1351383113,
				"y": -2.5523809377,
				"z": 1.451992472,
				"element": "H" 
			},
			{
				"x": -2.4708578457,
				"y": -1.2344190065,
				"z": 2.6055693291,
				"element": "H" 
			},
			{
				"x": -0.1053382295,
				"y": -3.8867106381,
				"z": 1.6343219984,
				"element": "H" 
			},
			{
				"x": 1.8213933641,
				"y": -4.6164574498,
				"z": 3.0242689877,
				"element": "H" 
			},
			{
				"x": 2.5034363305,
				"y": -3.2753317593,
				"z": 5.0030503046,
				"element": "H" 
			},
			{
				"x": 1.2484391789,
				"y": -1.2105501828,
				"z": 5.5894945333,
				"element": "H" 
			},
			{
				"x": -0.6797107294,
				"y": -0.4945904232,
				"z": 4.2050920474,
				"element": "H" 
			},
			{
				"x": -0.1131938352,
				"y": 3.3323879984,
				"z": -1.3576156804,
				"element": "H" 
			},
			{
				"x": 0.6893831679,
				"y": 2.7312460916,
				"z": -3.6007596855,
				"element": "H" 
			},
			{
				"x": 0.7362508886,
				"y": 0.3568539465,
				"z": -4.3364681779,
				"element": "H" 
			},
			{
				"x": -0.0146870604,
				"y": -1.4382569002,
				"z": -2.7546394869,
				"element": "H" 
			}
		],
		 "valence_orbital": [ 
			{
				"type": "occ",
				"energy": -0.26608,
				"method": "rhf"
			},
			{
				"type": "occ",
				"energy": -0.26492,
				"method": "rhf"
			},
			{
				"type": "occ",
				"energy": -0.24676,
				"method": "rhf"
			},
			{
				"type": "occ",
				"energy": -0.24475,
				"method": "rhf"
			},
			{
				"type": "occ",
				"energy": -0.23245,
				"method": "rhf"
			},
			{
				"type": "unocc",
				"energy": -0.074,
				"method": "rhf"
			},
			{
				"type": "unocc",
				"energy": -0.05623,
				"method": "rhf"
			},
			{
				"type": "unocc",
				"energy": -0.03042,
				"method": "rhf"
			},
			{
				"type": "unocc",
				"energy": -0.00813,
				"method": "rhf"
			},
			{
				"type": "unocc",
				"energy": -0.00339,
				"method": "rhf"
			}
		],
		"cosmo_sigma_profile": { 
			"-0.025": 0.0,
			"-0.024": 0.0,
			"-0.023": 0.0,
			"-0.022": 0.0,
			"-0.021": 0.0,
			"-0.02": 0.0,
			"-0.019": 0.0,
			"-0.018": 0.0,
			"-0.017": 0.0,
			"-0.016": 0.0,
			"-0.015": 0.0,
			"-0.014": 0.230507771157,
			"-0.013": 2.33621816813,
			"-0.012": 1.79136502318,
			"-0.011": 1.84540978373,
			"-0.01": 1.23828407163,
			"-0.009": 1.59984275722,
			"-0.008": 2.11738985301,
			"-0.007": 9.44691945284,
			"-0.006": 20.3070711575,
			"-0.005": 26.2831112134,
			"-0.004": 29.7537193738,
			"-0.003": 31.2515896419,
			"-0.002": 24.0585197787,
			"-0.001": 23.5634086534,
			"0.0": 23.975736832,
			"0.001": 28.0754182389,
			"0.002": 29.6715916297,
			"0.003": 20.020929485,
			"0.004": 16.4367283563,
			"0.005": 16.1417476113,
			"0.006": 8.69751505913,
			"0.007": 4.5373805363,
			"0.008": 4.51038928011,
			"0.009": 3.87439379339,
			"0.01": 5.9848950298,
			"0.011": 5.32732441536,
			"0.012": 6.61774359832,
			"0.013": 4.17911994308,
			"0.014": 1.5145540001,
			"0.015": 0.100870655633,
			"0.016": 0.0,
			"0.017": 0.0,
			"0.018": 0.0,
			"0.019": 0.0,
			"0.02": 0.0,
			"0.021": 0.0,
			"0.022": 0.0,
			"0.023": 0.0,
			"0.024": 0.0,
			"0.025": 0.0
		}
	}
}
