{
	 "smiles": "CN1C(=O)OC2=C1C=CC(=C2)C(=O)CCl", 
	 "Tm": 433.15, 
	 "num_atms": 23, 
	 "gaussian": { 
		 "optdone": 1, 
		 "sigma_profile": "yes", 
		 "theory": "DFT", 
		 "functional": "B3LYP", 
		 "basiset": "6-31G**", 
		 "properties": { 
			 "R2extent": 4429.0419, 
			 "electric_dipole_moment_norm": 3.38845573234, 
			 "electric_quadrupole_moment_norm": 23.4729958137, 
			 "total_energy": -1126.51999169, 
			 "HOMO_LUMO_gap": 0.16182, 
			 "cosmo_polarized_energy": -14.95, 
			 "cosmo_cavitation_energy": 29.74, 
			 "cosmo_dispersion_energy": -21.79, 
			 "cosmo_repulsion_energy": 1.69, 
			 "cosmo_total_nonelectrostatic_energy": 9.63, 
			 "SMD_solvation_energy": 6.73 
		},
		"coords": [
			{
				"x": -0.1144287147,
				"y": -1.4377787176,
				"z": -3.6805017199,
				"element": "C" 
			},
			{
				"x": -0.4956422646,
				"y": -1.3137467041,
				"z": -2.2859754364,
				"element": "N" 
			},
			{
				"x": -1.5892144503,
				"y": -1.9815189872,
				"z": -1.7410263869,
				"element": "C" 
			},
			{
				"x": -2.3620897755,
				"y": -2.7247542302,
				"z": -2.2875574537,
				"element": "O" 
			},
			{
				"x": -1.6514892494,
				"y": -1.6357308257,
				"z": -0.3971597043,
				"element": "O" 
			},
			{
				"x": -0.612367806,
				"y": -0.772276201,
				"z": -0.1323199623,
				"element": "C" 
			},
			{
				"x": 0.1235700854,
				"y": -0.558375975,
				"z": -1.3053322019,
				"element": "C" 
			},
			{
				"x": 1.2353206577,
				"y": 0.2802689827,
				"z": -1.3090819327,
				"element": "C" 
			},
			{
				"x": 1.5710377427,
				"y": 0.8894967279,
				"z": -0.1001889259,
				"element": "C" 
			},
			{
				"x": 0.8319795193,
				"y": 0.6740810966,
				"z": 1.0786834388,
				"element": "C" 
			},
			{
				"x": -0.2926655035,
				"y": -0.1818600073,
				"z": 1.0687160267,
				"element": "C" 
			},
			{
				"x": 1.2721639083,
				"y": 1.4017185331,
				"z": 2.3000481435,
				"element": "C" 
			},
			{
				"x": 2.2116922614,
				"y": 2.18207152,
				"z": 2.2840357918,
				"element": "O" 
			},
			{
				"x": 0.512751418,
				"y": 1.2138194964,
				"z": 3.617500275,
				"element": "C" 
			},
			{
				"x": 0.7737498274,
				"y": -0.4397728167,
				"z": 4.3212923435,
				"element": "Cl" 
			},
			{
				"x": -0.826762439,
				"y": -2.114241622,
				"z": -4.1535444981,
				"element": "H" 
			},
			{
				"x": -0.1510711506,
				"y": -0.4641090173,
				"z": -4.1791061462,
				"element": "H" 
			},
			{
				"x": 0.8948197316,
				"y": -1.8518133232,
				"z": -3.7697016359,
				"element": "H" 
			},
			{
				"x": 1.815600338,
				"y": 0.4554149055,
				"z": -2.2084086758,
				"element": "H" 
			},
			{
				"x": 2.4232933553,
				"y": 1.5570395832,
				"z": -0.0404709514,
				"element": "H" 
			},
			{
				"x": -0.875820735,
				"y": -0.3915626336,
				"z": 1.9565872116,
				"element": "H" 
			},
			{
				"x": 0.9039775223,
				"y": 1.9337755019,
				"z": 4.3335040099,
				"element": "H" 
			},
			{
				"x": -0.5647042788,
				"y": 1.3439547134,
				"z": 3.4983083904,
				"element": "H" 
			}
		],
		 "valence_orbital": [ 
			{
				"type": "occ",
				"energy": -0.30903,
				"method": "rhf"
			},
			{
				"type": "occ",
				"energy": -0.30477,
				"method": "rhf"
			},
			{
				"type": "occ",
				"energy": -0.27155,
				"method": "rhf"
			},
			{
				"type": "occ",
				"energy": -0.26535,
				"method": "rhf"
			},
			{
				"type": "occ",
				"energy": -0.23806,
				"method": "rhf"
			},
			{
				"type": "unocc",
				"energy": -0.07624,
				"method": "rhf"
			},
			{
				"type": "unocc",
				"energy": -0.027,
				"method": "rhf"
			},
			{
				"type": "unocc",
				"energy": -0.00038,
				"method": "rhf"
			},
			{
				"type": "unocc",
				"energy": 0.03239,
				"method": "rhf"
			},
			{
				"type": "unocc",
				"energy": 0.05013,
				"method": "rhf"
			}
		],
		"cosmo_sigma_profile": { 
			"-0.025": 0.0,
			"-0.024": 0.0,
			"-0.023": 0.0,
			"-0.022": 0.0,
			"-0.021": 0.0,
			"-0.02": 0.0,
			"-0.019": 0.0,
			"-0.018": 0.0,
			"-0.017": 0.0,
			"-0.016": 0.0,
			"-0.015": 0.0,
			"-0.014": 0.0,
			"-0.013": 0.0,
			"-0.012": 0.0,
			"-0.011": 0.0112310145563,
			"-0.01": 1.33099737308,
			"-0.009": 3.7808978799,
			"-0.008": 6.50924982572,
			"-0.007": 13.0546121881,
			"-0.006": 17.4715880912,
			"-0.005": 17.7601657118,
			"-0.004": 18.7147024271,
			"-0.003": 15.7347349777,
			"-0.002": 10.2370382646,
			"-0.001": 13.8084160795,
			"0.0": 16.9904206685,
			"0.001": 15.0927719782,
			"0.002": 17.3508574088,
			"0.003": 12.7210350863,
			"0.004": 9.66757645856,
			"0.005": 11.9963755527,
			"0.006": 6.55367824566,
			"0.007": 5.05354534786,
			"0.008": 3.18286397103,
			"0.009": 5.0313253412,
			"0.01": 4.73868426748,
			"0.011": 9.66590999952,
			"0.012": 4.21622886712,
			"0.013": 0.171606283741,
			"0.014": 0.0,
			"0.015": 0.0,
			"0.016": 0.0,
			"0.017": 0.0,
			"0.018": 0.0,
			"0.019": 0.0,
			"0.02": 0.0,
			"0.021": 0.0,
			"0.022": 0.0,
			"0.023": 0.0,
			"0.024": 0.0,
			"0.025": 0.0
		}
	}
}
