{
	 "smiles": "CC(=O)C1=CN(CC2=CC=CC=C2)N=C1", 
	 "Tm": 335.15, 
	 "num_atms": 27, 
	 "gaussian": { 
		 "optdone": 1, 
		 "sigma_profile": "yes", 
		 "theory": "DFT", 
		 "functional": "B3LYP", 
		 "basiset": "6-31G**", 
		 "properties": { 
			 "R2extent": 4317.3294, 
			 "electric_dipole_moment_norm": 2.37738418225, 
			 "electric_quadrupole_moment_norm": 16.7563921582, 
			 "total_energy": -649.220016464, 
			 "HOMO_LUMO_gap": 0.20766, 
			 "cosmo_polarized_energy": -12.8, 
			 "cosmo_cavitation_energy": 31.81, 
			 "cosmo_dispersion_energy": -22.38, 
			 "cosmo_repulsion_energy": 1.75, 
			 "cosmo_total_nonelectrostatic_energy": 11.19, 
			 "SMD_solvation_energy": 5.57 
		},
		"coords": [
			{
				"x": -1.9515117853,
				"y": 4.571953562,
				"z": 0.9912720088,
				"element": "C" 
			},
			{
				"x": -1.7278420747,
				"y": 3.1929094815,
				"z": 1.588412566,
				"element": "C" 
			},
			{
				"x": -1.4906652411,
				"y": 3.043726675,
				"z": 2.780110862,
				"element": "O" 
			},
			{
				"x": -1.8056489222,
				"y": 2.0374463739,
				"z": 0.6779018295,
				"element": "C" 
			},
			{
				"x": -1.6234708673,
				"y": 0.7092667895,
				"z": 1.0514216142,
				"element": "C" 
			},
			{
				"x": -1.7926090244,
				"y": -0.0401077846,
				"z": -0.05650904,
				"element": "N" 
			},
			{
				"x": -1.6336154411,
				"y": -1.4866823865,
				"z": -0.2004384299,
				"element": "C" 
			},
			{
				"x": -0.2003768071,
				"y": -1.9198723144,
				"z": -0.4497285739,
				"element": "C" 
			},
			{
				"x": 0.4145037604,
				"y": -2.8471199251,
				"z": 0.3971080324,
				"element": "C" 
			},
			{
				"x": 1.7257102947,
				"y": -3.2659753166,
				"z": 0.1585091827,
				"element": "C" 
			},
			{
				"x": 2.4337845848,
				"y": -2.7537177193,
				"z": -0.92825152,
				"element": "C" 
			},
			{
				"x": 1.8258267965,
				"y": -1.8237450229,
				"z": -1.7766133584,
				"element": "C" 
			},
			{
				"x": 0.5156093611,
				"y": -1.4104729112,
				"z": -1.541855411,
				"element": "C" 
			},
			{
				"x": -2.0676580531,
				"y": 0.7123529869,
				"z": -1.157418298,
				"element": "N" 
			},
			{
				"x": -2.0768532525,
				"y": 1.9648134767,
				"z": -0.7140017148,
				"element": "C" 
			},
			{
				"x": -1.2164377938,
				"y": 4.7764115823,
				"z": 0.2044327055,
				"element": "H" 
			},
			{
				"x": -2.9446740854,
				"y": 4.6382232857,
				"z": 0.5324327876,
				"element": "H" 
			},
			{
				"x": -1.8624609601,
				"y": 5.3225823448,
				"z": 1.7773247617,
				"element": "H" 
			},
			{
				"x": -1.3920297739,
				"y": 0.2844819199,
				"z": 2.0167210808,
				"element": "H" 
			},
			{
				"x": -2.2810685623,
				"y": -1.7719410874,
				"z": -1.0337969601,
				"element": "H" 
			},
			{
				"x": -2.0221916796,
				"y": -1.9593785495,
				"z": 0.7057803778,
				"element": "H" 
			},
			{
				"x": -0.1332926764,
				"y": -3.2464030155,
				"z": 1.247602702,
				"element": "H" 
			},
			{
				"x": 2.1920577269,
				"y": -3.9866902606,
				"z": 0.8240110484,
				"element": "H" 
			},
			{
				"x": 3.4543847553,
				"y": -3.0754038434,
				"z": -1.1144227391,
				"element": "H" 
			},
			{
				"x": 2.3737100494,
				"y": -1.4219670079,
				"z": -2.6241922264,
				"element": "H" 
			},
			{
				"x": 0.0413070146,
				"y": -0.6847549691,
				"z": -2.1963277425,
				"element": "H" 
			},
			{
				"x": -2.2866873434,
				"y": 2.7717636358,
				"z": -1.4036855454,
				"element": "H" 
			}
		],
		 "valence_orbital": [ 
			{
				"type": "occ",
				"energy": -0.26663,
				"method": "rhf"
			},
			{
				"type": "occ",
				"energy": -0.25772,
				"method": "rhf"
			},
			{
				"type": "occ",
				"energy": -0.2532,
				"method": "rhf"
			},
			{
				"type": "occ",
				"energy": -0.25012,
				"method": "rhf"
			},
			{
				"type": "occ",
				"energy": -0.23979,
				"method": "rhf"
			},
			{
				"type": "unocc",
				"energy": -0.03213,
				"method": "rhf"
			},
			{
				"type": "unocc",
				"energy": -0.01485,
				"method": "rhf"
			},
			{
				"type": "unocc",
				"energy": -0.00805,
				"method": "rhf"
			},
			{
				"type": "unocc",
				"energy": 0.01332,
				"method": "rhf"
			},
			{
				"type": "unocc",
				"energy": 0.08454,
				"method": "rhf"
			}
		],
		"cosmo_sigma_profile": { 
			"-0.025": 0.0,
			"-0.024": 0.0,
			"-0.023": 0.0,
			"-0.022": 0.0,
			"-0.021": 0.0,
			"-0.02": 0.0,
			"-0.019": 0.0,
			"-0.018": 0.0,
			"-0.017": 0.0,
			"-0.016": 0.0,
			"-0.015": 0.0,
			"-0.014": 0.0,
			"-0.013": 0.0,
			"-0.012": 0.0,
			"-0.011": 0.0,
			"-0.01": 0.802918137943,
			"-0.009": 2.33920638263,
			"-0.008": 4.49882559498,
			"-0.007": 7.92458470308,
			"-0.006": 15.4546403989,
			"-0.005": 22.2857845015,
			"-0.004": 23.1480148831,
			"-0.003": 19.6801634916,
			"-0.002": 16.2647532114,
			"-0.001": 18.1745071212,
			"0.0": 15.5183806161,
			"0.001": 15.2670647109,
			"0.002": 18.4676232459,
			"0.003": 15.934785371,
			"0.004": 12.757956267,
			"0.005": 13.1634889603,
			"0.006": 7.14434965164,
			"0.007": 2.77245898951,
			"0.008": 2.84400559975,
			"0.009": 2.99779378906,
			"0.01": 2.4757369342,
			"0.011": 3.32338748813,
			"0.012": 4.93082747401,
			"0.013": 4.04191977598,
			"0.014": 1.63241569547,
			"0.015": 0.159524263784,
			"0.016": 0.0,
			"0.017": 0.0,
			"0.018": 0.0,
			"0.019": 0.0,
			"0.02": 0.0,
			"0.021": 0.0,
			"0.022": 0.0,
			"0.023": 0.0,
			"0.024": 0.0,
			"0.025": 0.0
		}
	}
}
