{
	 "smiles": "CCC(C)(C)C(C)C", 
	 "Tm": 172.15, 
	 "num_atms": 26, 
	 "gaussian": { 
		 "optdone": 1, 
		 "sigma_profile": "yes", 
		 "theory": "DFT", 
		 "functional": "B3LYP", 
		 "basiset": "6-31G**", 
		 "properties": { 
			 "R2extent": 1761.7681, 
			 "electric_dipole_moment_norm": 0.0644418342383, 
			 "electric_quadrupole_moment_norm": 0.276198696594, 
			 "total_energy": -315.723126682, 
			 "HOMO_LUMO_gap": 0.36706, 
			 "cosmo_polarized_energy": -0.78, 
			 "cosmo_cavitation_energy": 24.69, 
			 "cosmo_dispersion_energy": -17.69, 
			 "cosmo_repulsion_energy": 1.43, 
			 "cosmo_total_nonelectrostatic_energy": 8.43, 
			 "SMD_solvation_energy": 4.48 
		},
		"coords": [
			{
				"x": 2.7529662212,
				"y": 0.0807762849,
				"z": -1.9581541504,
				"element": "C" 
			},
			{
				"x": 1.4090598274,
				"y": -0.10837104,
				"z": -2.6735688743,
				"element": "C" 
			},
			{
				"x": 0.1244007582,
				"y": -0.0675909726,
				"z": -1.7951258364,
				"element": "C" 
			},
			{
				"x": -0.0153711533,
				"y": 1.3449375575,
				"z": -1.1840420449,
				"element": "C" 
			},
			{
				"x": -1.0777140269,
				"y": -0.3063881299,
				"z": -2.7336301594,
				"element": "C" 
			},
			{
				"x": 0.1870211084,
				"y": -1.1373322159,
				"z": -0.6484487674,
				"element": "C" 
			},
			{
				"x": 0.4495723084,
				"y": -2.5713359788,
				"z": -1.143590965,
				"element": "C" 
			},
			{
				"x": -1.050111015,
				"y": -1.1414795735,
				"z": 0.2692153731,
				"element": "C" 
			},
			{
				"x": 2.7969985164,
				"y": 1.0278805399,
				"z": -1.410950992,
				"element": "H" 
			},
			{
				"x": 2.9601284473,
				"y": -0.7237937345,
				"z": -1.245344891,
				"element": "H" 
			},
			{
				"x": 3.571404114,
				"y": 0.0876489881,
				"z": -2.6858892616,
				"element": "H" 
			},
			{
				"x": 1.3065845341,
				"y": 0.6759871684,
				"z": -3.4356178444,
				"element": "H" 
			},
			{
				"x": 1.4332117856,
				"y": -1.0531488087,
				"z": -3.2300612832,
				"element": "H" 
			},
			{
				"x": 0.0841116948,
				"y": 2.1107272149,
				"z": -1.9618608999,
				"element": "H" 
			},
			{
				"x": -0.9918984081,
				"y": 1.4889758895,
				"z": -0.7126293378,
				"element": "H" 
			},
			{
				"x": 0.7491818328,
				"y": 1.5406554816,
				"z": -0.4245592925,
				"element": "H" 
			},
			{
				"x": -1.1003468005,
				"y": 0.4550243038,
				"z": -3.5216154563,
				"element": "H" 
			},
			{
				"x": -1.0252928818,
				"y": -1.2826929807,
				"z": -3.226546159,
				"element": "H" 
			},
			{
				"x": -2.0312705805,
				"y": -0.2493033381,
				"z": -2.1996200275,
				"element": "H" 
			},
			{
				"x": 1.0411673539,
				"y": -0.8538441744,
				"z": -0.0174633939,
				"element": "H" 
			},
			{
				"x": 1.3803044119,
				"y": -2.6574298593,
				"z": -1.7110519399,
				"element": "H" 
			},
			{
				"x": -0.3647698218,
				"y": -2.9359540284,
				"z": -1.7795518801,
				"element": "H" 
			},
			{
				"x": 0.5235262839,
				"y": -3.2555480128,
				"z": -0.2912731771,
				"element": "H" 
			},
			{
				"x": -1.248533835,
				"y": -0.1615076834,
				"z": 0.7113593367,
				"element": "H" 
			},
			{
				"x": -1.9522531684,
				"y": -1.4581805135,
				"z": -0.2655564941,
				"element": "H" 
			},
			{
				"x": -0.9010775071,
				"y": -1.8463123841,
				"z": 1.0944784182,
				"element": "H" 
			}
		],
		 "valence_orbital": [ 
			{
				"type": "occ",
				"energy": -0.33658,
				"method": "rhf"
			},
			{
				"type": "occ",
				"energy": -0.32805,
				"method": "rhf"
			},
			{
				"type": "occ",
				"energy": -0.30282,
				"method": "rhf"
			},
			{
				"type": "occ",
				"energy": -0.29689,
				"method": "rhf"
			},
			{
				"type": "occ",
				"energy": -0.29181,
				"method": "rhf"
			},
			{
				"type": "unocc",
				"energy": 0.07525,
				"method": "rhf"
			},
			{
				"type": "unocc",
				"energy": 0.11015,
				"method": "rhf"
			},
			{
				"type": "unocc",
				"energy": 0.12042,
				"method": "rhf"
			},
			{
				"type": "unocc",
				"energy": 0.1271,
				"method": "rhf"
			},
			{
				"type": "unocc",
				"energy": 0.13438,
				"method": "rhf"
			}
		],
		"cosmo_sigma_profile": { 
			"-0.025": 0.0,
			"-0.024": 0.0,
			"-0.023": 0.0,
			"-0.022": 0.0,
			"-0.021": 0.0,
			"-0.02": 0.0,
			"-0.019": 0.0,
			"-0.018": 0.0,
			"-0.017": 0.0,
			"-0.016": 0.0,
			"-0.015": 0.0,
			"-0.014": 0.0,
			"-0.013": 0.0,
			"-0.012": 0.0,
			"-0.011": 0.0,
			"-0.01": 0.0,
			"-0.009": 0.0,
			"-0.008": 0.0,
			"-0.007": 0.0,
			"-0.006": 0.0,
			"-0.005": 0.0,
			"-0.004": 0.0,
			"-0.003": 3.09165735215,
			"-0.002": 31.1746035536,
			"-0.001": 41.7694411519,
			"0.0": 39.2874577773,
			"0.001": 37.5021015905,
			"0.002": 31.9925388578,
			"0.003": 3.7190623458,
			"0.004": 0.0,
			"0.005": 0.0,
			"0.006": 0.0,
			"0.007": 0.0,
			"0.008": 0.0,
			"0.009": 0.0,
			"0.01": 0.0,
			"0.011": 0.0,
			"0.012": 0.0,
			"0.013": 0.0,
			"0.014": 0.0,
			"0.015": 0.0,
			"0.016": 0.0,
			"0.017": 0.0,
			"0.018": 0.0,
			"0.019": 0.0,
			"0.02": 0.0,
			"0.021": 0.0,
			"0.022": 0.0,
			"0.023": 0.0,
			"0.024": 0.0,
			"0.025": 0.0
		}
	}
}
