{
	 "smiles": "FC(F)(F)C(C(=O)NC1=CC=C(Br)C=C1)C(F)(F)F", 
	 "Tm": 459.15, 
	 "num_atms": 25, 
	 "gaussian": { 
		 "optdone": 1, 
		 "sigma_profile": "yes", 
		 "theory": "DFT", 
		 "functional": "B3LYP", 
		 "basiset": "6-31G**", 
		 "properties": { 
			 "R2extent": 8460.5569, 
			 "electric_dipole_moment_norm": 3.59971273715, 
			 "electric_quadrupole_moment_norm": 15.8986299495, 
			 "total_energy": -3685.11896737, 
			 "HOMO_LUMO_gap": 0.20555, 
			 "cosmo_polarized_energy": -12.76, 
			 "cosmo_cavitation_energy": 34.64, 
			 "cosmo_dispersion_energy": -23.76, 
			 "cosmo_repulsion_energy": 1.74, 
			 "cosmo_total_nonelectrostatic_energy": 12.61, 
			 "SMD_solvation_energy": 7.37 
		},
		"coords": [
			{
				"x": -3.4411456164,
				"y": 0.5832215478,
				"z": -0.1858901288,
				"element": "F" 
			},
			{
				"x": -3.0379155534,
				"y": -0.6244662342,
				"z": -0.6606628717,
				"element": "C" 
			},
			{
				"x": -4.028576797,
				"y": -1.4940821479,
				"z": -0.4524157421,
				"element": "F" 
			},
			{
				"x": -2.8655400391,
				"y": -0.4946018379,
				"z": -1.9892621998,
				"element": "F" 
			},
			{
				"x": -1.7280035021,
				"y": -1.0222783161,
				"z": 0.0233229647,
				"element": "C" 
			},
			{
				"x": -1.8870841784,
				"y": -0.9912350067,
				"z": 1.5548982038,
				"element": "C" 
			},
			{
				"x": -2.6521923081,
				"y": -1.7506325559,
				"z": 2.1210252778,
				"element": "O" 
			},
			{
				"x": -1.1004846536,
				"y": -0.1094102379,
				"z": 2.2572597213,
				"element": "N" 
			},
			{
				"x": -0.1880145695,
				"y": 0.8900341636,
				"z": 1.8204448531,
				"element": "C" 
			},
			{
				"x": -0.5722019391,
				"y": 1.8905753271,
				"z": 0.9178385052,
				"element": "C" 
			},
			{
				"x": 0.3394057856,
				"y": 2.8711261714,
				"z": 0.5265933183,
				"element": "C" 
			},
			{
				"x": 1.6236251966,
				"y": 2.8711485042,
				"z": 1.0678555439,
				"element": "C" 
			},
			{
				"x": 2.8646393024,
				"y": 4.223522594,
				"z": 0.5490994764,
				"element": "Br" 
			},
			{
				"x": 2.0116077855,
				"y": 1.8984532366,
				"z": 1.9895156748,
				"element": "C" 
			},
			{
				"x": 1.1065352674,
				"y": 0.9052856327,
				"z": 2.3561020783,
				"element": "C" 
			},
			{
				"x": -1.2237304157,
				"y": -2.4019035893,
				"z": -0.4165455442,
				"element": "C" 
			},
			{
				"x": -0.0959598053,
				"y": -2.6975695913,
				"z": 0.2667133331,
				"element": "F" 
			},
			{
				"x": -2.1066096645,
				"y": -3.3824719188,
				"z": -0.2092763504,
				"element": "F" 
			},
			{
				"x": -0.9139583167,
				"y": -2.3916113547,
				"z": -1.728361982,
				"element": "F" 
			},
			{
				"x": -0.9742535371,
				"y": -0.3104134618,
				"z": -0.3158429532,
				"element": "H" 
			},
			{
				"x": -1.1844742413,
				"y": -0.2531610175,
				"z": 3.2573529684,
				"element": "H" 
			},
			{
				"x": -1.5856822893,
				"y": 1.910238891,
				"z": 0.5332690079,
				"element": "H" 
			},
			{
				"x": 0.0434257098,
				"y": 3.6408646214,
				"z": -0.1767528049,
				"element": "H" 
			},
			{
				"x": 3.0123903275,
				"y": 1.9089126958,
				"z": 2.4055132852,
				"element": "H" 
			},
			{
				"x": 1.406798052,
				"y": 0.1298538841,
				"z": 3.054506365,
				"element": "H" 
			}
		],
		 "valence_orbital": [ 
			{
				"type": "occ",
				"energy": -0.30205,
				"method": "rhf"
			},
			{
				"type": "occ",
				"energy": -0.29684,
				"method": "rhf"
			},
			{
				"type": "occ",
				"energy": -0.28758,
				"method": "rhf"
			},
			{
				"type": "occ",
				"energy": -0.28291,
				"method": "rhf"
			},
			{
				"type": "occ",
				"energy": -0.25031,
				"method": "rhf"
			},
			{
				"type": "unocc",
				"energy": -0.04476,
				"method": "rhf"
			},
			{
				"type": "unocc",
				"energy": -0.03906,
				"method": "rhf"
			},
			{
				"type": "unocc",
				"energy": -0.00954,
				"method": "rhf"
			},
			{
				"type": "unocc",
				"energy": -0.00467,
				"method": "rhf"
			},
			{
				"type": "unocc",
				"energy": 0.07365,
				"method": "rhf"
			}
		],
		"cosmo_sigma_profile": { 
			"-0.025": 0.0,
			"-0.024": 0.0,
			"-0.023": 0.0,
			"-0.022": 0.0,
			"-0.021": 0.0,
			"-0.02": 0.0,
			"-0.019": 0.0,
			"-0.018": 0.0,
			"-0.017": 0.0,
			"-0.016": 0.375666368819,
			"-0.015": 1.45431620826,
			"-0.014": 0.420796057142,
			"-0.013": 1.15491312432,
			"-0.012": 1.16762336473,
			"-0.011": 1.55230901467,
			"-0.01": 3.10960003767,
			"-0.009": 2.90655594078,
			"-0.008": 5.53479090062,
			"-0.007": 9.82591392799,
			"-0.006": 9.01864629908,
			"-0.005": 9.91968818904,
			"-0.004": 10.2513147097,
			"-0.003": 12.1001020056,
			"-0.002": 12.736711252,
			"-0.001": 18.5291852002,
			"0.0": 21.2609061374,
			"0.001": 39.6493571747,
			"0.002": 66.2577650328,
			"0.003": 17.8593910259,
			"0.004": 13.7224930111,
			"0.005": 5.21666826417,
			"0.006": 1.69450081838,
			"0.007": 1.81291946834,
			"0.008": 1.81485069988,
			"0.009": 2.38954047259,
			"0.01": 2.04384515734,
			"0.011": 4.04018613514,
			"0.012": 3.44371274157,
			"0.013": 0.214227230049,
			"0.014": 0.0,
			"0.015": 0.0,
			"0.016": 0.0,
			"0.017": 0.0,
			"0.018": 0.0,
			"0.019": 0.0,
			"0.02": 0.0,
			"0.021": 0.0,
			"0.022": 0.0,
			"0.023": 0.0,
			"0.024": 0.0,
			"0.025": 0.0
		}
	}
}
