{
	 "smiles": "COC1=CC2=C(NN=C2N)C=C1", 
	 "Tm": 433.15, 
	 "num_atms": 21, 
	 "gaussian": { 
		 "optdone": 1, 
		 "sigma_profile": "yes", 
		 "theory": "DFT", 
		 "functional": "B3LYP", 
		 "basiset": "6-31G**", 
		 "properties": { 
			 "R2extent": 2385.667, 
			 "electric_dipole_moment_norm": 1.37009635063, 
			 "electric_quadrupole_moment_norm": 14.9387870846, 
			 "total_energy": -549.726147112, 
			 "HOMO_LUMO_gap": 0.1677, 
			 "cosmo_polarized_energy": -14.1, 
			 "cosmo_cavitation_energy": 24.97, 
			 "cosmo_dispersion_energy": -18.84, 
			 "cosmo_repulsion_energy": 1.51, 
			 "cosmo_total_nonelectrostatic_energy": 7.64, 
			 "SMD_solvation_energy": 3.78 
		},
		"coords": [
			{
				"x": 0.6319106751,
				"y": 3.2304508952,
				"z": 0.2808375452,
				"element": "C" 
			},
			{
				"x": 1.3226353252,
				"y": 1.9964909825,
				"z": 0.2185864113,
				"element": "O" 
			},
			{
				"x": 0.587090737,
				"y": 0.8645161534,
				"z": -0.0205491715,
				"element": "C" 
			},
			{
				"x": -0.7879988183,
				"y": 0.8367005034,
				"z": -0.2116786333,
				"element": "C" 
			},
			{
				"x": -1.3944006154,
				"y": -0.4143198604,
				"z": -0.4453600197,
				"element": "C" 
			},
			{
				"x": -0.6235365515,
				"y": -1.5984465347,
				"z": -0.4700202556,
				"element": "C" 
			},
			{
				"x": -1.503206302,
				"y": -2.619819567,
				"z": -0.6939982706,
				"element": "N" 
			},
			{
				"x": -2.7911349433,
				"y": -2.175458232,
				"z": -0.8379627549,
				"element": "N" 
			},
			{
				"x": -2.7367187272,
				"y": -0.8630741402,
				"z": -0.68283762,
				"element": "C" 
			},
			{
				"x": -3.8899010369,
				"y": -0.0730462768,
				"z": -0.6913071536,
				"element": "N" 
			},
			{
				"x": 0.7689903527,
				"y": -1.5652331168,
				"z": -0.2752435789,
				"element": "C" 
			},
			{
				"x": 1.3526220218,
				"y": -0.3321454383,
				"z": -0.0567970323,
				"element": "C" 
			},
			{
				"x": 1.3872890965,
				"y": 3.9932859698,
				"z": 0.4771491449,
				"element": "H" 
			},
			{
				"x": 0.1251381175,
				"y": 3.4606480095,
				"z": -0.6664101141,
				"element": "H" 
			},
			{
				"x": -0.1099603993,
				"y": 3.240397314,
				"z": 1.0908744653,
				"element": "H" 
			},
			{
				"x": -1.3885590422,
				"y": 1.7374767914,
				"z": -0.1700277812,
				"element": "H" 
			},
			{
				"x": -1.319389715,
				"y": -3.6058736488,
				"z": -0.7632102489,
				"element": "H" 
			},
			{
				"x": -3.7963446998,
				"y": 0.7553064813,
				"z": -1.2684472239,
				"element": "H" 
			},
			{
				"x": -4.6970695367,
				"y": -0.6126562967,
				"z": -0.9837531643,
				"element": "H" 
			},
			{
				"x": 1.3702089607,
				"y": -2.4690816864,
				"z": -0.2941087952,
				"element": "H" 
			},
			{
				"x": 2.422835101,
				"y": -0.2446183022,
				"z": 0.0994642511,
				"element": "H" 
			}
		],
		 "valence_orbital": [ 
			{
				"type": "occ",
				"energy": -0.29892,
				"method": "rhf"
			},
			{
				"type": "occ",
				"energy": -0.28298,
				"method": "rhf"
			},
			{
				"type": "occ",
				"energy": -0.25481,
				"method": "rhf"
			},
			{
				"type": "occ",
				"energy": -0.21596,
				"method": "rhf"
			},
			{
				"type": "occ",
				"energy": -0.18579,
				"method": "rhf"
			},
			{
				"type": "unocc",
				"energy": -0.01809,
				"method": "rhf"
			},
			{
				"type": "unocc",
				"energy": 0.03561,
				"method": "rhf"
			},
			{
				"type": "unocc",
				"energy": 0.0741,
				"method": "rhf"
			},
			{
				"type": "unocc",
				"energy": 0.08623,
				"method": "rhf"
			},
			{
				"type": "unocc",
				"energy": 0.09626,
				"method": "rhf"
			}
		],
		"cosmo_sigma_profile": { 
			"-0.025": 0.0,
			"-0.024": 0.0,
			"-0.023": 0.0,
			"-0.022": 0.0,
			"-0.021": 0.0,
			"-0.02": 0.0,
			"-0.019": 0.0,
			"-0.018": 0.0,
			"-0.017": 0.0,
			"-0.016": 0.503874082377,
			"-0.015": 1.34099338567,
			"-0.014": 1.47580940707,
			"-0.013": 0.979249210744,
			"-0.012": 2.24582548066,
			"-0.011": 3.58621914307,
			"-0.01": 4.0136905928,
			"-0.009": 3.28666349301,
			"-0.008": 4.12013734236,
			"-0.007": 5.61013191617,
			"-0.006": 9.55792822766,
			"-0.005": 14.8357502718,
			"-0.004": 14.1282878177,
			"-0.003": 14.210564222,
			"-0.002": 9.36755874381,
			"-0.001": 8.11119668446,
			"0.0": 6.66303138201,
			"0.001": 7.7988508942,
			"0.002": 7.86060914058,
			"0.003": 11.0471804097,
			"0.004": 17.8411570879,
			"0.005": 16.7744196315,
			"0.006": 7.58186926645,
			"0.007": 3.99186603099,
			"0.008": 3.4652391879,
			"0.009": 3.63623332016,
			"0.01": 3.84033129637,
			"0.011": 2.75770468366,
			"0.012": 1.97390456515,
			"0.013": 1.31698399023,
			"0.014": 1.76978678498,
			"0.015": 1.6019615514,
			"0.016": 1.04983786276,
			"0.017": 0.0439527005484,
			"0.018": 0.0,
			"0.019": 0.0,
			"0.02": 0.0,
			"0.021": 0.0,
			"0.022": 0.0,
			"0.023": 0.0,
			"0.024": 0.0,
			"0.025": 0.0
		}
	}
}
