{
	 "smiles": "CC1=CC=C(C(Cl)=O)C(F)=C1", 
	 "Tm": 318.15, 
	 "num_atms": 17, 
	 "gaussian": { 
		 "optdone": 1, 
		 "sigma_profile": "yes", 
		 "theory": "DFT", 
		 "functional": "B3LYP", 
		 "basiset": "6-31G**", 
		 "properties": { 
			 "R2extent": 3302.8345, 
			 "electric_dipole_moment_norm": 5.58157416953, 
			 "electric_quadrupole_moment_norm": 15.6370185448, 
			 "total_energy": -943.728901406, 
			 "HOMO_LUMO_gap": 0.18971, 
			 "cosmo_polarized_energy": -7.42, 
			 "cosmo_cavitation_energy": 23.76, 
			 "cosmo_dispersion_energy": -17.51, 
			 "cosmo_repulsion_energy": 1.39, 
			 "cosmo_total_nonelectrostatic_energy": 7.63, 
			 "SMD_solvation_energy": 5.22 
		},
		"coords": [
			{
				"x": 0.0421783956,
				"y": -1.3827466678,
				"z": 1.803411319,
				"element": "C" 
			},
			{
				"x": 0.1614882895,
				"y": -0.7233640682,
				"z": 0.4527927236,
				"element": "C" 
			},
			{
				"x": 1.1327591206,
				"y": 0.2630337862,
				"z": 0.2142003445,
				"element": "C" 
			},
			{
				"x": 1.2251409433,
				"y": 0.8912608783,
				"z": -1.0192251382,
				"element": "C" 
			},
			{
				"x": 0.3544344109,
				"y": 0.5632407737,
				"z": -2.0748384554,
				"element": "C" 
			},
			{
				"x": 0.4061422461,
				"y": 1.1941576995,
				"z": -3.4086016705,
				"element": "C" 
			},
			{
				"x": 1.7252943095,
				"y": 2.4775835593,
				"z": -3.5942025474,
				"element": "Cl" 
			},
			{
				"x": -0.291751325,
				"y": 0.9701203817,
				"z": -4.3476126097,
				"element": "O" 
			},
			{
				"x": -0.6118050098,
				"y": -0.4303190285,
				"z": -1.8197206724,
				"element": "C" 
			},
			{
				"x": -1.4736262587,
				"y": -0.8006998357,
				"z": -2.7724208533,
				"element": "F" 
			},
			{
				"x": -0.7093136988,
				"y": -1.0623521485,
				"z": -0.5870258541,
				"element": "C" 
			},
			{
				"x": -0.4311741417,
				"y": -2.365407514,
				"z": 1.7313544305,
				"element": "H" 
			},
			{
				"x": -0.5690773859,
				"y": -0.7710328103,
				"z": 2.4783952269,
				"element": "H" 
			},
			{
				"x": 1.0220351003,
				"y": -1.5047504559,
				"z": 2.2738718792,
				"element": "H" 
			},
			{
				"x": 1.823368563,
				"y": 0.5379062408,
				"z": 1.0057831902,
				"element": "H" 
			},
			{
				"x": 1.9804895293,
				"y": 1.64857086,
				"z": -1.1861868845,
				"element": "H" 
			},
			{
				"x": -1.4745830881,
				"y": -1.8210016507,
				"z": -0.4594744285,
				"element": "H" 
			}
		],
		 "valence_orbital": [ 
			{
				"type": "occ",
				"energy": -0.31631,
				"method": "rhf"
			},
			{
				"type": "occ",
				"energy": -0.31512,
				"method": "rhf"
			},
			{
				"type": "occ",
				"energy": -0.2875,
				"method": "rhf"
			},
			{
				"type": "occ",
				"energy": -0.27893,
				"method": "rhf"
			},
			{
				"type": "occ",
				"energy": -0.26707,
				"method": "rhf"
			},
			{
				"type": "unocc",
				"energy": -0.07736,
				"method": "rhf"
			},
			{
				"type": "unocc",
				"energy": -0.02346,
				"method": "rhf"
			},
			{
				"type": "unocc",
				"energy": 0.01578,
				"method": "rhf"
			},
			{
				"type": "unocc",
				"energy": 0.02218,
				"method": "rhf"
			},
			{
				"type": "unocc",
				"energy": 0.08189,
				"method": "rhf"
			}
		],
		"cosmo_sigma_profile": { 
			"-0.025": 0.0,
			"-0.024": 0.0,
			"-0.023": 0.0,
			"-0.022": 0.0,
			"-0.021": 0.0,
			"-0.02": 0.0,
			"-0.019": 0.0,
			"-0.018": 0.0,
			"-0.017": 0.0,
			"-0.016": 0.0,
			"-0.015": 0.0,
			"-0.014": 0.0,
			"-0.013": 0.0,
			"-0.012": 0.0,
			"-0.011": 0.0,
			"-0.01": 0.0,
			"-0.009": 0.0,
			"-0.008": 0.982529993406,
			"-0.007": 4.46965785672,
			"-0.006": 7.97151126894,
			"-0.005": 12.204200735,
			"-0.004": 14.1332840732,
			"-0.003": 14.9500534802,
			"-0.002": 17.1103223599,
			"-0.001": 22.2511626055,
			"0.0": 18.1128412743,
			"0.001": 15.4045605195,
			"0.002": 15.1387535158,
			"0.003": 13.0706425063,
			"0.004": 10.3462942418,
			"0.005": 9.46011275438,
			"0.006": 4.83753100487,
			"0.007": 2.95797361174,
			"0.008": 5.12745139804,
			"0.009": 4.15021587681,
			"0.01": 0.331400567699,
			"0.011": 0.0,
			"0.012": 0.0,
			"0.013": 0.0,
			"0.014": 0.0,
			"0.015": 0.0,
			"0.016": 0.0,
			"0.017": 0.0,
			"0.018": 0.0,
			"0.019": 0.0,
			"0.02": 0.0,
			"0.021": 0.0,
			"0.022": 0.0,
			"0.023": 0.0,
			"0.024": 0.0,
			"0.025": 0.0
		}
	}
}
