{
	 "smiles": "ClC1=C2CCC(=O)C2=CC=C1", 
	 "Tm": 358.15, 
	 "num_atms": 18, 
	 "gaussian": { 
		 "optdone": 1, 
		 "sigma_profile": "yes", 
		 "theory": "DFT", 
		 "functional": "B3LYP", 
		 "basiset": "6-31G**", 
		 "properties": { 
			 "R2extent": 2712.621, 
			 "electric_dipole_moment_norm": 1.68786169161, 
			 "electric_quadrupole_moment_norm": 15.4187437316, 
			 "total_energy": -882.602770724, 
			 "HOMO_LUMO_gap": 0.18533, 
			 "cosmo_polarized_energy": -7.93, 
			 "cosmo_cavitation_energy": 23.52, 
			 "cosmo_dispersion_energy": -17.63, 
			 "cosmo_repulsion_energy": 1.41, 
			 "cosmo_total_nonelectrostatic_energy": 7.3, 
			 "SMD_solvation_energy": 3.92 
		},
		"coords": [
			{
				"x": 0.5650501851,
				"y": -0.1593362628,
				"z": -3.3054867672,
				"element": "Cl" 
			},
			{
				"x": 1.3002942305,
				"y": 0.7712875904,
				"z": -2.007080448,
				"element": "C" 
			},
			{
				"x": 0.7612282159,
				"y": 0.7228302433,
				"z": -0.7227572256,
				"element": "C" 
			},
			{
				"x": -0.4360595803,
				"y": -0.0477988532,
				"z": -0.2093361528,
				"element": "C" 
			},
			{
				"x": -0.5153591945,
				"y": 0.3168613759,
				"z": 1.2925213369,
				"element": "C" 
			},
			{
				"x": 0.6475146022,
				"y": 1.2847096827,
				"z": 1.5667614224,
				"element": "C" 
			},
			{
				"x": 0.9192893685,
				"y": 1.7952502423,
				"z": 2.6357596294,
				"element": "O" 
			},
			{
				"x": 1.3736645491,
				"y": 1.4767681552,
				"z": 0.2841006691,
				"element": "C" 
			},
			{
				"x": 2.4979315063,
				"y": 2.2699632428,
				"z": 0.0477698382,
				"element": "C" 
			},
			{
				"x": 3.0192255134,
				"y": 2.3030068142,
				"z": -1.2430117296,
				"element": "C" 
			},
			{
				"x": 2.4240016547,
				"y": 1.5565911011,
				"z": -2.2698268282,
				"element": "C" 
			},
			{
				"x": -1.3425117679,
				"y": 0.2342824131,
				"z": -0.7562041571,
				"element": "H" 
			},
			{
				"x": -0.3039251721,
				"y": -1.1231860086,
				"z": -0.3717395097,
				"element": "H" 
			},
			{
				"x": -1.4566779514,
				"y": 0.8055555377,
				"z": 1.5632938525,
				"element": "H" 
			},
			{
				"x": -0.4160051634,
				"y": -0.5539354592,
				"z": 1.9483121153,
				"element": "H" 
			},
			{
				"x": 2.9384692498,
				"y": 2.8376040555,
				"z": 0.861349995,
				"element": "H" 
			},
			{
				"x": 3.8925820476,
				"y": 2.9072721981,
				"z": -1.4686883685,
				"element": "H" 
			},
			{
				"x": 2.8309877063,
				"y": 1.5830739313,
				"z": -3.2751376722,
				"element": "H" 
			}
		],
		 "valence_orbital": [ 
			{
				"type": "occ",
				"energy": -0.33613,
				"method": "rhf"
			},
			{
				"type": "occ",
				"energy": -0.32209,
				"method": "rhf"
			},
			{
				"type": "occ",
				"energy": -0.26758,
				"method": "rhf"
			},
			{
				"type": "occ",
				"energy": -0.25634,
				"method": "rhf"
			},
			{
				"type": "occ",
				"energy": -0.2483,
				"method": "rhf"
			},
			{
				"type": "unocc",
				"energy": -0.06297,
				"method": "rhf"
			},
			{
				"type": "unocc",
				"energy": -0.02265,
				"method": "rhf"
			},
			{
				"type": "unocc",
				"energy": 0.0242,
				"method": "rhf"
			},
			{
				"type": "unocc",
				"energy": 0.03594,
				"method": "rhf"
			},
			{
				"type": "unocc",
				"energy": 0.09473,
				"method": "rhf"
			}
		],
		"cosmo_sigma_profile": { 
			"-0.025": 0.0,
			"-0.024": 0.0,
			"-0.023": 0.0,
			"-0.022": 0.0,
			"-0.021": 0.0,
			"-0.02": 0.0,
			"-0.019": 0.0,
			"-0.018": 0.0,
			"-0.017": 0.0,
			"-0.016": 0.0,
			"-0.015": 0.0,
			"-0.014": 0.0,
			"-0.013": 0.0,
			"-0.012": 0.0,
			"-0.011": 0.0,
			"-0.01": 0.0,
			"-0.009": 0.0,
			"-0.008": 0.926218100288,
			"-0.007": 5.136334991,
			"-0.006": 11.2901600719,
			"-0.005": 18.2812571359,
			"-0.004": 16.4114444788,
			"-0.003": 13.5277840888,
			"-0.002": 14.6259865823,
			"-0.001": 13.3149146105,
			"0.0": 13.2053079493,
			"0.001": 17.7533937291,
			"0.002": 17.8673179631,
			"0.003": 14.0334688368,
			"0.004": 10.6210471816,
			"0.005": 4.58034465019,
			"0.006": 1.96876559877,
			"0.007": 1.17117115351,
			"0.008": 1.35207681934,
			"0.009": 1.94944113341,
			"0.01": 2.13617735506,
			"0.011": 3.04534887379,
			"0.012": 5.08119919287,
			"0.013": 1.8949263068,
			"0.014": 0.129988635825,
			"0.015": 0.0,
			"0.016": 0.0,
			"0.017": 0.0,
			"0.018": 0.0,
			"0.019": 0.0,
			"0.02": 0.0,
			"0.021": 0.0,
			"0.022": 0.0,
			"0.023": 0.0,
			"0.024": 0.0,
			"0.025": 0.0
		}
	}
}
