{
	 "smiles": "ClCN1N=NC2=C(C=NN2C2=CC=CC=C2)C1=O", 
	 "Tm": 453.15, 
	 "num_atms": 26, 
	 "gaussian": { 
		 "optdone": 1, 
		 "sigma_profile": "yes", 
		 "theory": "DFT", 
		 "functional": "B3LYP", 
		 "basiset": "6-31G**", 
		 "properties": { 
			 "R2extent": 6292.4386, 
			 "electric_dipole_moment_norm": 3.42757516767, 
			 "electric_quadrupole_moment_norm": 7.13499492852, 
			 "total_energy": -1233.09947379, 
			 "HOMO_LUMO_gap": 0.15371, 
			 "cosmo_polarized_energy": -11.85, 
			 "cosmo_cavitation_energy": 33.2, 
			 "cosmo_dispersion_energy": -24.54, 
			 "cosmo_repulsion_energy": 1.86, 
			 "cosmo_total_nonelectrostatic_energy": 10.52, 
			 "SMD_solvation_energy": 4.21 
		},
		"coords": [
			{
				"x": -3.8386421382,
				"y": 3.7064860775,
				"z": 0.9136372658,
				"element": "Cl" 
			},
			{
				"x": -2.4919041531,
				"y": 3.3233311877,
				"z": 2.0739863521,
				"element": "C" 
			},
			{
				"x": -1.4920262997,
				"y": 2.4694292263,
				"z": 1.489039177,
				"element": "N" 
			},
			{
				"x": -1.7524724595,
				"y": 1.1375957441,
				"z": 1.6463377545,
				"element": "N" 
			},
			{
				"x": -0.9727702251,
				"y": 0.2639914005,
				"z": 1.1429048957,
				"element": "N" 
			},
			{
				"x": 0.110732992,
				"y": 0.7218104641,
				"z": 0.4413511212,
				"element": "C" 
			},
			{
				"x": 0.4568059264,
				"y": 2.0587478234,
				"z": 0.2416830797,
				"element": "C" 
			},
			{
				"x": 1.6515822391,
				"y": 2.0159511771,
				"z": -0.5075371475,
				"element": "C" 
			},
			{
				"x": 2.0080459147,
				"y": 0.7624184421,
				"z": -0.7511066478,
				"element": "N" 
			},
			{
				"x": 1.067394011,
				"y": -0.0390399095,
				"z": -0.1732916453,
				"element": "N" 
			},
			{
				"x": 1.209565237,
				"y": -1.4593278202,
				"z": -0.256218027,
				"element": "C" 
			},
			{
				"x": 0.1072239295,
				"y": -2.3019669743,
				"z": -0.0766898533,
				"element": "C" 
			},
			{
				"x": 0.287974959,
				"y": -3.6819965003,
				"z": -0.1679789182,
				"element": "C" 
			},
			{
				"x": 1.5446499088,
				"y": -4.2200739018,
				"z": -0.4469513155,
				"element": "C" 
			},
			{
				"x": 2.6341490326,
				"y": -3.3663147924,
				"z": -0.632282316,
				"element": "C" 
			},
			{
				"x": 2.4758597878,
				"y": -1.9860679435,
				"z": -0.5351524456,
				"element": "C" 
			},
			{
				"x": -0.3900741448,
				"y": 3.0823426141,
				"z": 0.7908925998,
				"element": "C" 
			},
			{
				"x": -0.2762770387,
				"y": 4.2931717819,
				"z": 0.7423154977,
				"element": "O" 
			},
			{
				"x": -2.9386140445,
				"y": 2.812051252,
				"z": 2.9222241487,
				"element": "H" 
			},
			{
				"x": -2.0302193269,
				"y": 4.270184317,
				"z": 2.3397888739,
				"element": "H" 
			},
			{
				"x": 2.250709424,
				"y": 2.8355720961,
				"z": -0.8775605801,
				"element": "H" 
			},
			{
				"x": -0.8683723552,
				"y": -1.8885083739,
				"z": 0.1420470688,
				"element": "H" 
			},
			{
				"x": -0.5668337291,
				"y": -4.3362387127,
				"z": -0.026330672,
				"element": "H" 
			},
			{
				"x": 1.6743648834,
				"y": -5.2954742362,
				"z": -0.5204705023,
				"element": "H" 
			},
			{
				"x": 3.6168604034,
				"y": -3.7738387686,
				"z": -0.8494421384,
				"element": "H" 
			},
			{
				"x": 3.311787266,
				"y": -1.3129356707,
				"z": -0.6772956258,
				"element": "H" 
			}
		],
		 "valence_orbital": [ 
			{
				"type": "occ",
				"energy": -0.30176,
				"method": "rhf"
			},
			{
				"type": "occ",
				"energy": -0.27663,
				"method": "rhf"
			},
			{
				"type": "occ",
				"energy": -0.26977,
				"method": "rhf"
			},
			{
				"type": "occ",
				"energy": -0.26608,
				"method": "rhf"
			},
			{
				"type": "occ",
				"energy": -0.2467,
				"method": "rhf"
			},
			{
				"type": "unocc",
				"energy": -0.09299,
				"method": "rhf"
			},
			{
				"type": "unocc",
				"energy": -0.0419,
				"method": "rhf"
			},
			{
				"type": "unocc",
				"energy": -0.02556,
				"method": "rhf"
			},
			{
				"type": "unocc",
				"energy": -0.01609,
				"method": "rhf"
			},
			{
				"type": "unocc",
				"energy": 0.02192,
				"method": "rhf"
			}
		],
		"cosmo_sigma_profile": { 
			"-0.025": 0.0,
			"-0.024": 0.0,
			"-0.023": 0.0,
			"-0.022": 0.0,
			"-0.021": 0.0,
			"-0.02": 0.0,
			"-0.019": 0.0,
			"-0.018": 0.0,
			"-0.017": 0.0,
			"-0.016": 0.0,
			"-0.015": 0.0,
			"-0.014": 0.0,
			"-0.013": 0.0,
			"-0.012": 0.0,
			"-0.011": 0.12182858416,
			"-0.01": 2.83111716139,
			"-0.009": 5.45352533986,
			"-0.008": 5.90287331904,
			"-0.007": 9.67752337227,
			"-0.006": 15.1893574459,
			"-0.005": 16.6571601638,
			"-0.004": 20.6335885434,
			"-0.003": 17.3690634881,
			"-0.002": 17.8236527436,
			"-0.001": 17.4395814458,
			"0.0": 15.8129861473,
			"0.001": 17.6512021536,
			"0.002": 15.3627725211,
			"0.003": 21.6501157885,
			"0.004": 22.4174987607,
			"0.005": 16.4804031928,
			"0.006": 7.86453800525,
			"0.007": 5.87454217948,
			"0.008": 5.03372460037,
			"0.009": 3.68307199654,
			"0.01": 3.70518736792,
			"0.011": 4.73894804861,
			"0.012": 1.55060143689,
			"0.013": 0.0132913965699,
			"0.014": 0.0,
			"0.015": 0.0,
			"0.016": 0.0,
			"0.017": 0.0,
			"0.018": 0.0,
			"0.019": 0.0,
			"0.02": 0.0,
			"0.021": 0.0,
			"0.022": 0.0,
			"0.023": 0.0,
			"0.024": 0.0,
			"0.025": 0.0
		}
	}
}
