{
	 "smiles": "CCC1CCC2=C(C1)C=C(C#N)C(=O)N2", 
	 "Tm": 498.15, 
	 "num_atms": 29, 
	 "gaussian": { 
		 "optdone": 1, 
		 "sigma_profile": "yes", 
		 "theory": "DFT", 
		 "functional": "B3LYP", 
		 "basiset": "6-31G**", 
		 "properties": { 
			 "R2extent": 5175.5486, 
			 "electric_dipole_moment_norm": 9.4252091181, 
			 "electric_quadrupole_moment_norm": 42.4188963337, 
			 "total_energy": -650.456721294, 
			 "HOMO_LUMO_gap": 0.1549, 
			 "cosmo_polarized_energy": -21.01, 
			 "cosmo_cavitation_energy": 31.95, 
			 "cosmo_dispersion_energy": -22.76, 
			 "cosmo_repulsion_energy": 1.78, 
			 "cosmo_total_nonelectrostatic_energy": 10.97, 
			 "SMD_solvation_energy": 6.69 
		},
		"coords": [
			{
				"x": 1.3857300603,
				"y": -2.7289169327,
				"z": -0.7477048017,
				"element": "C" 
			},
			{
				"x": 1.0785767921,
				"y": -1.4375100325,
				"z": -1.5181647071,
				"element": "C" 
			},
			{
				"x": -0.002542154,
				"y": -0.5186215791,
				"z": -0.912028491,
				"element": "C" 
			},
			{
				"x": -1.3675035193,
				"y": -1.208630254,
				"z": -0.7473437237,
				"element": "C" 
			},
			{
				"x": -2.4562013158,
				"y": -0.1939215456,
				"z": -0.3710830571,
				"element": "C" 
			},
			{
				"x": -2.0041005249,
				"y": 0.7422354141,
				"z": 0.720897236,
				"element": "C" 
			},
			{
				"x": -0.6862566004,
				"y": 0.9003263813,
				"z": 1.0893269893,
				"element": "C" 
			},
			{
				"x": 0.4228169653,
				"y": 0.1046199244,
				"z": 0.4297115195,
				"element": "C" 
			},
			{
				"x": -0.4043315716,
				"y": 1.832087647,
				"z": 2.1230882656,
				"element": "C" 
			},
			{
				"x": -1.3840363936,
				"y": 2.5707077422,
				"z": 2.7517037736,
				"element": "C" 
			},
			{
				"x": -1.0579974365,
				"y": 3.4997273262,
				"z": 3.784932248,
				"element": "C" 
			},
			{
				"x": -0.7587807215,
				"y": 4.2485658148,
				"z": 4.6238943472,
				"element": "N" 
			},
			{
				"x": -2.7906886817,
				"y": 2.425251704,
				"z": 2.3744517622,
				"element": "C" 
			},
			{
				"x": -3.7505921281,
				"y": 3.0164039108,
				"z": 2.8475583219,
				"element": "O" 
			},
			{
				"x": -2.9708828956,
				"y": 1.4784808725,
				"z": 1.3464435581,
				"element": "N" 
			},
			{
				"x": 0.5086947531,
				"y": -3.3800212428,
				"z": -0.6737657365,
				"element": "H" 
			},
			{
				"x": 2.1698073433,
				"y": -3.2969075902,
				"z": -1.2580993822,
				"element": "H" 
			},
			{
				"x": 1.7399319405,
				"y": -2.5308748945,
				"z": 0.2691438821,
				"element": "H" 
			},
			{
				"x": 2.0034002056,
				"y": -0.8558396202,
				"z": -1.6268567739,
				"element": "H" 
			},
			{
				"x": 0.767677765,
				"y": -1.700162227,
				"z": -2.5377530804,
				"element": "H" 
			},
			{
				"x": -0.1436660961,
				"y": 0.3105310262,
				"z": -1.6220263151,
				"element": "H" 
			},
			{
				"x": -1.3038421607,
				"y": -1.9764551776,
				"z": 0.0333018431,
				"element": "H" 
			},
			{
				"x": -1.6538207897,
				"y": -1.7210782886,
				"z": -1.6727886405,
				"element": "H" 
			},
			{
				"x": -2.7298281851,
				"y": 0.4064426321,
				"z": -1.2510852885,
				"element": "H" 
			},
			{
				"x": -3.3732106175,
				"y": -0.7081279692,
				"z": -0.0554225333,
				"element": "H" 
			},
			{
				"x": 0.7561648407,
				"y": -0.6859991075,
				"z": 1.116514197,
				"element": "H" 
			},
			{
				"x": 1.2933440528,
				"y": 0.7543176767,
				"z": 0.2742063289,
				"element": "H" 
			},
			{
				"x": 0.6289490653,
				"y": 1.9729016294,
				"z": 2.4309771778,
				"element": "H" 
			},
			{
				"x": -3.9413119918,
				"y": 1.3622667598,
				"z": 1.0765710808,
				"element": "H" 
			}
		],
		 "valence_orbital": [ 
			{
				"type": "occ",
				"energy": -0.33128,
				"method": "rhf"
			},
			{
				"type": "occ",
				"energy": -0.31987,
				"method": "rhf"
			},
			{
				"type": "occ",
				"energy": -0.29711,
				"method": "rhf"
			},
			{
				"type": "occ",
				"energy": -0.26337,
				"method": "rhf"
			},
			{
				"type": "occ",
				"energy": -0.22496,
				"method": "rhf"
			},
			{
				"type": "unocc",
				"energy": -0.07006,
				"method": "rhf"
			},
			{
				"type": "unocc",
				"energy": -0.00143,
				"method": "rhf"
			},
			{
				"type": "unocc",
				"energy": 0.04245,
				"method": "rhf"
			},
			{
				"type": "unocc",
				"energy": 0.05593,
				"method": "rhf"
			},
			{
				"type": "unocc",
				"energy": 0.06518,
				"method": "rhf"
			}
		],
		"cosmo_sigma_profile": { 
			"-0.025": 0.0,
			"-0.024": 0.0,
			"-0.023": 0.0,
			"-0.022": 0.0,
			"-0.021": 0.0,
			"-0.02": 0.0,
			"-0.019": 0.0,
			"-0.018": 0.0,
			"-0.017": 0.0,
			"-0.016": 0.614792120551,
			"-0.015": 1.23457245308,
			"-0.014": 0.930556868223,
			"-0.013": 1.27293121848,
			"-0.012": 1.15738622184,
			"-0.011": 1.40908914214,
			"-0.01": 1.12834277602,
			"-0.009": 2.14119286111,
			"-0.008": 3.102773012,
			"-0.007": 4.77547160987,
			"-0.006": 6.75006847554,
			"-0.005": 8.09056666117,
			"-0.004": 15.1648474823,
			"-0.003": 29.0966061422,
			"-0.002": 40.3658881896,
			"-0.001": 34.0842131286,
			"0.0": 23.8805849678,
			"0.001": 17.0827044958,
			"0.002": 5.91086588346,
			"0.003": 2.926670292,
			"0.004": 3.51930178052,
			"0.005": 2.50644012894,
			"0.006": 4.22517970807,
			"0.007": 3.91877602797,
			"0.008": 5.22660832085,
			"0.009": 5.66059796928,
			"0.01": 4.88188528886,
			"0.011": 4.22300597166,
			"0.012": 5.44246774471,
			"0.013": 7.79016411989,
			"0.014": 3.2666351485,
			"0.015": 0.0,
			"0.016": 0.0,
			"0.017": 0.0,
			"0.018": 0.0,
			"0.019": 0.0,
			"0.02": 0.0,
			"0.021": 0.0,
			"0.022": 0.0,
			"0.023": 0.0,
			"0.024": 0.0,
			"0.025": 0.0
		}
	}
}
