{
	 "smiles": "CC(=O)NC1=C(N)C=C(Cl)C=C1", 
	 "Tm": 415.15, 
	 "num_atms": 21, 
	 "gaussian": { 
		 "optdone": 1, 
		 "sigma_profile": "yes", 
		 "theory": "DFT", 
		 "functional": "B3LYP", 
		 "basiset": "6-31G**", 
		 "properties": { 
			 "R2extent": 3312.918, 
			 "electric_dipole_moment_norm": 2.0446841003, 
			 "electric_quadrupole_moment_norm": 22.2447651887, 
			 "total_energy": -955.216568901, 
			 "HOMO_LUMO_gap": 0.19637, 
			 "cosmo_polarized_energy": -14.74, 
			 "cosmo_cavitation_energy": 27.1, 
			 "cosmo_dispersion_energy": -19.51, 
			 "cosmo_repulsion_energy": 1.58, 
			 "cosmo_total_nonelectrostatic_energy": 9.17, 
			 "SMD_solvation_energy": 5.52 
		},
		"coords": [
			{
				"x": 2.0454594848,
				"y": 1.4010265651,
				"z": 1.0366149353,
				"element": "C" 
			},
			{
				"x": 1.9289849394,
				"y": 0.3679605927,
				"z": 2.1434191834,
				"element": "C" 
			},
			{
				"x": 2.5082550882,
				"y": 0.483198034,
				"z": 3.2128394464,
				"element": "O" 
			},
			{
				"x": 1.1427665298,
				"y": -0.7458137311,
				"z": 1.8939938348,
				"element": "N" 
			},
			{
				"x": 0.2850572156,
				"y": -1.0071378164,
				"z": 0.7883950797,
				"element": "C" 
			},
			{
				"x": 0.5105247064,
				"y": -2.1797971997,
				"z": 0.0272709654,
				"element": "C" 
			},
			{
				"x": 1.532139621,
				"y": -3.0478513301,
				"z": 0.3838244217,
				"element": "N" 
			},
			{
				"x": -0.3466418079,
				"y": -2.464850694,
				"z": -1.0480870507,
				"element": "C" 
			},
			{
				"x": -1.3879806452,
				"y": -1.5946226034,
				"z": -1.3525034101,
				"element": "C" 
			},
			{
				"x": -2.435769765,
				"y": -1.9733591818,
				"z": -2.7133759003,
				"element": "Cl" 
			},
			{
				"x": -1.6217115893,
				"y": -0.4355900627,
				"z": -0.6135421166,
				"element": "C" 
			},
			{
				"x": -0.7815445943,
				"y": -0.1663481883,
				"z": 0.4659356995,
				"element": "C" 
			},
			{
				"x": 1.2300266787,
				"y": 2.1278816855,
				"z": 1.1127257635,
				"element": "H" 
			},
			{
				"x": 2.9859502117,
				"y": 1.9340067466,
				"z": 1.180020038,
				"element": "H" 
			},
			{
				"x": 2.0059820164,
				"y": 0.9605346926,
				"z": 0.0378314946,
				"element": "H" 
			},
			{
				"x": 1.1115761821,
				"y": -1.3851997237,
				"z": 2.6817772789,
				"element": "H" 
			},
			{
				"x": 2.2995062719,
				"y": -2.6162175124,
				"z": 0.8817933953,
				"element": "H" 
			},
			{
				"x": 1.8317847225,
				"y": -3.6944734353,
				"z": -0.331725698,
				"element": "H" 
			},
			{
				"x": -0.1929272565,
				"y": -3.3581492771,
				"z": -1.6443865492,
				"element": "H" 
			},
			{
				"x": -2.4443587204,
				"y": 0.2233902477,
				"z": -0.8628990421,
				"element": "H" 
			},
			{
				"x": -0.9571792899,
				"y": 0.7113121918,
				"z": 1.0800782305,
				"element": "H" 
			}
		],
		 "valence_orbital": [ 
			{
				"type": "occ",
				"energy": -0.31449,
				"method": "rhf"
			},
			{
				"type": "occ",
				"energy": -0.27936,
				"method": "rhf"
			},
			{
				"type": "occ",
				"energy": -0.25341,
				"method": "rhf"
			},
			{
				"type": "occ",
				"energy": -0.24722,
				"method": "rhf"
			},
			{
				"type": "occ",
				"energy": -0.21906,
				"method": "rhf"
			},
			{
				"type": "unocc",
				"energy": -0.02269,
				"method": "rhf"
			},
			{
				"type": "unocc",
				"energy": -0.00611,
				"method": "rhf"
			},
			{
				"type": "unocc",
				"energy": 0.02523,
				"method": "rhf"
			},
			{
				"type": "unocc",
				"energy": 0.0262,
				"method": "rhf"
			},
			{
				"type": "unocc",
				"energy": 0.06842,
				"method": "rhf"
			}
		],
		"cosmo_sigma_profile": { 
			"-0.025": 0.0,
			"-0.024": 0.0,
			"-0.023": 0.0,
			"-0.022": 0.0,
			"-0.021": 0.0,
			"-0.02": 0.0,
			"-0.019": 0.0,
			"-0.018": 0.0,
			"-0.017": 0.0,
			"-0.016": 0.0,
			"-0.015": 0.0,
			"-0.014": 0.227847884387,
			"-0.013": 2.18409128298,
			"-0.012": 3.13392641275,
			"-0.011": 3.37530738484,
			"-0.01": 3.63258067336,
			"-0.009": 4.04891717656,
			"-0.008": 3.90653555819,
			"-0.007": 7.47377517754,
			"-0.006": 10.4705713418,
			"-0.005": 11.7587817837,
			"-0.004": 13.4919097348,
			"-0.003": 11.3154232861,
			"-0.002": 13.990590352,
			"-0.001": 14.9300630425,
			"0.0": 12.3165209056,
			"0.001": 11.9538041899,
			"0.002": 15.7477352928,
			"0.003": 16.2531561132,
			"0.004": 18.9522298431,
			"0.005": 12.2745638133,
			"0.006": 2.18859704835,
			"0.007": 2.90556408948,
			"0.008": 1.86376177878,
			"0.009": 1.2409598426,
			"0.01": 2.48669910541,
			"0.011": 1.10967467531,
			"0.012": 3.32436307562,
			"0.013": 4.65025513046,
			"0.014": 5.01381719895,
			"0.015": 0.951133258552,
			"0.016": 0.0,
			"0.017": 0.0,
			"0.018": 0.0,
			"0.019": 0.0,
			"0.02": 0.0,
			"0.021": 0.0,
			"0.022": 0.0,
			"0.023": 0.0,
			"0.024": 0.0,
			"0.025": 0.0
		}
	}
}
