{
	 "smiles": "COC1=C(F)C(=CC=C1)C(O)=O", 
	 "Tm": 431.15, 
	 "num_atms": 19, 
	 "gaussian": { 
		 "optdone": 1, 
		 "sigma_profile": "yes", 
		 "theory": "DFT", 
		 "functional": "B3LYP", 
		 "basiset": "6-31G**", 
		 "properties": { 
			 "R2extent": 2325.0124, 
			 "electric_dipole_moment_norm": 1.59240857194, 
			 "electric_quadrupole_moment_norm": 9.94917399888, 
			 "total_energy": -634.567907699, 
			 "HOMO_LUMO_gap": 0.17812, 
			 "cosmo_polarized_energy": -10.15, 
			 "cosmo_cavitation_energy": 23.89, 
			 "cosmo_dispersion_energy": -17.85, 
			 "cosmo_repulsion_energy": 1.41, 
			 "cosmo_total_nonelectrostatic_energy": 7.44, 
			 "SMD_solvation_energy": 6.53 
		},
		"coords": [
			{
				"x": -2.3867227364,
				"y": -0.2037307498,
				"z": -2.0812522489,
				"element": "C" 
			},
			{
				"x": -1.7192290326,
				"y": -1.1678467102,
				"z": -1.2625660964,
				"element": "O" 
			},
			{
				"x": -0.9608185979,
				"y": -0.815504837,
				"z": -0.1920749062,
				"element": "C" 
			},
			{
				"x": -0.7118009126,
				"y": 0.4859575726,
				"z": 0.2755287594,
				"element": "C" 
			},
			{
				"x": -1.2637083546,
				"y": 1.5281666326,
				"z": -0.3759331654,
				"element": "F" 
			},
			{
				"x": 0.0956699363,
				"y": 0.7206449599,
				"z": 1.4012109495,
				"element": "C" 
			},
			{
				"x": 0.6639682045,
				"y": -0.3746727995,
				"z": 2.0702008263,
				"element": "C" 
			},
			{
				"x": 0.4256084145,
				"y": -1.6685216182,
				"z": 1.6181961368,
				"element": "C" 
			},
			{
				"x": -0.3761716952,
				"y": -1.8842662426,
				"z": 0.5019608706,
				"element": "C" 
			},
			{
				"x": 0.3424729443,
				"y": 2.1113848317,
				"z": 1.8741015514,
				"element": "C" 
			},
			{
				"x": 1.1460068096,
				"y": 2.137512387,
				"z": 2.9730013533,
				"element": "O" 
			},
			{
				"x": -0.0901438835,
				"y": 3.1320204,
				"z": 1.3821544615,
				"element": "O" 
			},
			{
				"x": -2.9010403895,
				"y": -0.7931436804,
				"z": -2.8418821667,
				"element": "H" 
			},
			{
				"x": -3.1169637863,
				"y": 0.3762066213,
				"z": -1.5105810851,
				"element": "H" 
			},
			{
				"x": -1.6801991708,
				"y": 0.4785696175,
				"z": -2.5614107883,
				"element": "H" 
			},
			{
				"x": 1.2857473671,
				"y": -0.1927038755,
				"z": 2.9371192694,
				"element": "H" 
			},
			{
				"x": 0.8649321568,
				"y": -2.5154171451,
				"z": 2.1354610462,
				"element": "H" 
			},
			{
				"x": -0.5760270369,
				"y": -2.8843282466,
				"z": 0.1311548712,
				"element": "H" 
			},
			{
				"x": 1.241619763,
				"y": 3.0780728822,
				"z": 3.1948103614,
				"element": "H" 
			}
		],
		 "valence_orbital": [ 
			{
				"type": "occ",
				"energy": -0.33,
				"method": "rhf"
			},
			{
				"type": "occ",
				"energy": -0.31686,
				"method": "rhf"
			},
			{
				"type": "occ",
				"energy": -0.27165,
				"method": "rhf"
			},
			{
				"type": "occ",
				"energy": -0.26081,
				"method": "rhf"
			},
			{
				"type": "occ",
				"energy": -0.22801,
				"method": "rhf"
			},
			{
				"type": "unocc",
				"energy": -0.04989,
				"method": "rhf"
			},
			{
				"type": "unocc",
				"energy": -0.00015,
				"method": "rhf"
			},
			{
				"type": "unocc",
				"energy": 0.05656,
				"method": "rhf"
			},
			{
				"type": "unocc",
				"energy": 0.06848,
				"method": "rhf"
			},
			{
				"type": "unocc",
				"energy": 0.08739,
				"method": "rhf"
			}
		],
		"cosmo_sigma_profile": { 
			"-0.025": 0.0,
			"-0.024": 0.0,
			"-0.023": 0.0,
			"-0.022": 0.0,
			"-0.021": 0.0,
			"-0.02": 0.0,
			"-0.019": 0.0222015306088,
			"-0.018": 0.630995260807,
			"-0.017": 1.23117647669,
			"-0.016": 0.524684699072,
			"-0.015": 0.571622837018,
			"-0.014": 0.864824585136,
			"-0.013": 0.549336297108,
			"-0.012": 0.41045934172,
			"-0.011": 1.27004138305,
			"-0.01": 0.623603853299,
			"-0.009": 0.870118305996,
			"-0.008": 0.498132242149,
			"-0.007": 3.33284695201,
			"-0.006": 8.67086881869,
			"-0.005": 15.1363414401,
			"-0.004": 13.9265182154,
			"-0.003": 15.0534381885,
			"-0.002": 12.8473907327,
			"-0.001": 13.3737872908,
			"0.0": 14.6853570467,
			"0.001": 14.9952017724,
			"0.002": 15.2083251296,
			"0.003": 14.3158193601,
			"0.004": 8.03782427686,
			"0.005": 5.65420849176,
			"0.006": 4.55533821316,
			"0.007": 4.81776374599,
			"0.008": 3.23136359869,
			"0.009": 3.26093198895,
			"0.01": 2.99114614864,
			"0.011": 4.33175724263,
			"0.012": 4.46564030372,
			"0.013": 0.127721602972,
			"0.014": 0.0,
			"0.015": 0.0,
			"0.016": 0.0,
			"0.017": 0.0,
			"0.018": 0.0,
			"0.019": 0.0,
			"0.02": 0.0,
			"0.021": 0.0,
			"0.022": 0.0,
			"0.023": 0.0,
			"0.024": 0.0,
			"0.025": 0.0
		}
	}
}
