{
	 "smiles": "CSC1=NC(N)=NC(=N1)C1=CC=CS1", 
	 "Tm": 449.15, 
	 "num_atms": 22, 
	 "gaussian": { 
		 "optdone": 1, 
		 "sigma_profile": "yes", 
		 "theory": "DFT", 
		 "functional": "B3LYP", 
		 "basiset": "6-31G**", 
		 "properties": { 
			 "R2extent": 4446.2682, 
			 "electric_dipole_moment_norm": 2.57072792415, 
			 "electric_quadrupole_moment_norm": 17.0460400387, 
			 "total_energy": -1325.07356795, 
			 "HOMO_LUMO_gap": 0.17216, 
			 "cosmo_polarized_energy": -13.0, 
			 "cosmo_cavitation_energy": 30.17, 
			 "cosmo_dispersion_energy": -23.35, 
			 "cosmo_repulsion_energy": 1.77, 
			 "cosmo_total_nonelectrostatic_energy": 8.6, 
			 "SMD_solvation_energy": 1.8 
		},
		"coords": [
			{
				"x": 2.8890927653,
				"y": 1.3270750141,
				"z": -3.1566147292,
				"element": "C" 
			},
			{
				"x": 1.8548114702,
				"y": -0.0597676127,
				"z": -2.578335838,
				"element": "S" 
			},
			{
				"x": 0.804660461,
				"y": 0.7446275154,
				"z": -1.4034469271,
				"element": "C" 
			},
			{
				"x": 0.9470287142,
				"y": 2.0510809531,
				"z": -1.1827046276,
				"element": "N" 
			},
			{
				"x": 0.0859434268,
				"y": 2.5428754499,
				"z": -0.265641972,
				"element": "C" 
			},
			{
				"x": 0.1617030872,
				"y": 3.8658038049,
				"z": 0.0021147227,
				"element": "N" 
			},
			{
				"x": -0.8429903813,
				"y": 1.8319769096,
				"z": 0.3962190165,
				"element": "N" 
			},
			{
				"x": -0.8772840229,
				"y": 0.529186368,
				"z": 0.0784283211,
				"element": "C" 
			},
			{
				"x": -0.0767951376,
				"y": -0.0745856485,
				"z": -0.8172726965,
				"element": "N" 
			},
			{
				"x": -1.8621311117,
				"y": -0.3028666703,
				"z": 0.7595566834,
				"element": "C" 
			},
			{
				"x": -2.080593256,
				"y": -1.6533453628,
				"z": 0.5987109627,
				"element": "C" 
			},
			{
				"x": -3.1248234426,
				"y": -2.1465985768,
				"z": 1.4254542277,
				"element": "C" 
			},
			{
				"x": -3.6857914618,
				"y": -1.1644961972,
				"z": 2.2034464803,
				"element": "C" 
			},
			{
				"x": -2.9515482223,
				"y": 0.3787938852,
				"z": 1.9417821687,
				"element": "S" 
			},
			{
				"x": 3.5695553156,
				"y": 0.9006627663,
				"z": -3.8969420747,
				"element": "H" 
			},
			{
				"x": 3.4586470459,
				"y": 1.7559166303,
				"z": -2.331667801,
				"element": "H" 
			},
			{
				"x": 2.275598556,
				"y": 2.1014987197,
				"z": -3.6177943763,
				"element": "H" 
			},
			{
				"x": 0.8875730269,
				"y": 4.4141923332,
				"z": -0.4270447549,
				"element": "H" 
			},
			{
				"x": -0.4215016957,
				"y": 4.252614063,
				"z": 0.7250505908,
				"element": "H" 
			},
			{
				"x": -1.498287386,
				"y": -2.2470702176,
				"z": -0.0947598711,
				"element": "H" 
			},
			{
				"x": -3.4464898836,
				"y": -3.181529558,
				"z": 1.4437767303,
				"element": "H" 
			},
			{
				"x": -4.4923778676,
				"y": -1.2634445688,
				"z": 2.917485764,
				"element": "H" 
			}
		],
		 "valence_orbital": [ 
			{
				"type": "occ",
				"energy": -0.2623,
				"method": "rhf"
			},
			{
				"type": "occ",
				"energy": -0.257,
				"method": "rhf"
			},
			{
				"type": "occ",
				"energy": -0.25109,
				"method": "rhf"
			},
			{
				"type": "occ",
				"energy": -0.23351,
				"method": "rhf"
			},
			{
				"type": "occ",
				"energy": -0.22954,
				"method": "rhf"
			},
			{
				"type": "unocc",
				"energy": -0.05738,
				"method": "rhf"
			},
			{
				"type": "unocc",
				"energy": -0.01256,
				"method": "rhf"
			},
			{
				"type": "unocc",
				"energy": 0.0216,
				"method": "rhf"
			},
			{
				"type": "unocc",
				"energy": 0.03827,
				"method": "rhf"
			},
			{
				"type": "unocc",
				"energy": 0.04086,
				"method": "rhf"
			}
		],
		"cosmo_sigma_profile": { 
			"-0.025": 0.0,
			"-0.024": 0.0,
			"-0.023": 0.0,
			"-0.022": 0.0,
			"-0.021": 0.0,
			"-0.02": 0.0,
			"-0.019": 0.0,
			"-0.018": 0.0,
			"-0.017": 0.0,
			"-0.016": 0.0,
			"-0.015": 0.582270810111,
			"-0.014": 2.51543192226,
			"-0.013": 2.0134889659,
			"-0.012": 1.903049786,
			"-0.011": 1.90774588724,
			"-0.01": 2.31061012862,
			"-0.009": 3.44097586116,
			"-0.008": 3.61686670749,
			"-0.007": 6.98182954428,
			"-0.006": 10.5670754629,
			"-0.005": 11.0163551724,
			"-0.004": 12.6623029715,
			"-0.003": 14.3546684564,
			"-0.002": 14.9465115273,
			"-0.001": 14.8342971005,
			"0.0": 16.1926505835,
			"0.001": 16.4156761396,
			"0.002": 20.3711895282,
			"0.003": 26.0886134184,
			"0.004": 21.7458623328,
			"0.005": 12.0573739086,
			"0.006": 9.18129971268,
			"0.007": 7.76189156197,
			"0.008": 5.23917081174,
			"0.009": 3.63973496172,
			"0.01": 3.14130065635,
			"0.011": 0.642056497322,
			"0.012": 0.0,
			"0.013": 0.0,
			"0.014": 0.0,
			"0.015": 0.0,
			"0.016": 0.0,
			"0.017": 0.0,
			"0.018": 0.0,
			"0.019": 0.0,
			"0.02": 0.0,
			"0.021": 0.0,
			"0.022": 0.0,
			"0.023": 0.0,
			"0.024": 0.0,
			"0.025": 0.0
		}
	}
}
