{
	 "smiles": "NCC1=C(OC(F)F)C=C2OCOC2=C1", 
	 "Tm": 313.15, 
	 "num_atms": 24, 
	 "gaussian": { 
		 "optdone": 1, 
		 "sigma_profile": "yes", 
		 "theory": "DFT", 
		 "functional": "B3LYP", 
		 "basiset": "6-31G**", 
		 "properties": { 
			 "R2extent": 3745.2404, 
			 "electric_dipole_moment_norm": 2.03606666148, 
			 "electric_quadrupole_moment_norm": 13.9833431543, 
			 "total_energy": -828.442458343, 
			 "HOMO_LUMO_gap": 0.1989, 
			 "cosmo_polarized_energy": -10.43, 
			 "cosmo_cavitation_energy": 28.79, 
			 "cosmo_dispersion_energy": -21.33, 
			 "cosmo_repulsion_energy": 1.66, 
			 "cosmo_total_nonelectrostatic_energy": 9.12, 
			 "SMD_solvation_energy": 5.95 
		},
		"coords": [
			{
				"x": 2.2317812841,
				"y": 2.6349636217,
				"z": -1.5613876451,
				"element": "N" 
			},
			{
				"x": 1.7550123178,
				"y": 2.1074117889,
				"z": -0.2786977771,
				"element": "C" 
			},
			{
				"x": 0.421479548,
				"y": 1.3948776703,
				"z": -0.4263680207,
				"element": "C" 
			},
			{
				"x": -0.0055332571,
				"y": 0.4736529012,
				"z": 0.5388908131,
				"element": "C" 
			},
			{
				"x": 0.8420922023,
				"y": 0.2822323119,
				"z": 1.6327773015,
				"element": "O" 
			},
			{
				"x": 0.9958117261,
				"y": -0.9955805534,
				"z": 2.1019298012,
				"element": "C" 
			},
			{
				"x": 0.0050295156,
				"y": -1.3085021766,
				"z": 2.9908489486,
				"element": "F" 
			},
			{
				"x": 2.1605642112,
				"y": -1.0312883253,
				"z": 2.7776614637,
				"element": "F" 
			},
			{
				"x": -1.2418950973,
				"y": -0.1956212962,
				"z": 0.4681751358,
				"element": "C" 
			},
			{
				"x": -2.0234733552,
				"y": 0.0886717168,
				"z": -0.6339594422,
				"element": "C" 
			},
			{
				"x": -3.2461041227,
				"y": -0.4406758097,
				"z": -0.9660686312,
				"element": "O" 
			},
			{
				"x": -3.6931725566,
				"y": 0.3217433471,
				"z": -2.0963484211,
				"element": "C" 
			},
			{
				"x": -2.5810366358,
				"y": 1.0720333948,
				"z": -2.5916242247,
				"element": "O" 
			},
			{
				"x": -1.62188929,
				"y": 0.9999563579,
				"z": -1.6048322379,
				"element": "C" 
			},
			{
				"x": -0.4176115758,
				"y": 1.6679157242,
				"z": -1.5258481065,
				"element": "C" 
			},
			{
				"x": 2.5512587663,
				"y": 1.8707882604,
				"z": -2.1524522649,
				"element": "H" 
			},
			{
				"x": 3.0353131117,
				"y": 3.2366690703,
				"z": -1.40479457,
				"element": "H" 
			},
			{
				"x": 2.4611610628,
				"y": 1.4301621391,
				"z": 0.2238157338,
				"element": "H" 
			},
			{
				"x": 1.6291850482,
				"y": 2.9612868722,
				"z": 0.4007711002,
				"element": "H" 
			},
			{
				"x": 0.9920344896,
				"y": -1.7490254678,
				"z": 1.3052585509,
				"element": "H" 
			},
			{
				"x": -1.5675539305,
				"y": -0.8729999726,
				"z": 1.2464722222,
				"element": "H" 
			},
			{
				"x": -4.0511179132,
				"y": -0.3591277643,
				"z": -2.874015667,
				"element": "H" 
			},
			{
				"x": -4.4915609746,
				"y": 1.0087418723,
				"z": -1.7789201911,
				"element": "H" 
			},
			{
				"x": -0.0945745748,
				"y": 2.3779143166,
				"z": -2.2772838716,
				"element": "H" 
			}
		],
		 "valence_orbital": [ 
			{
				"type": "occ",
				"energy": -0.33974,
				"method": "rhf"
			},
			{
				"type": "occ",
				"energy": -0.29731,
				"method": "rhf"
			},
			{
				"type": "occ",
				"energy": -0.25055,
				"method": "rhf"
			},
			{
				"type": "occ",
				"energy": -0.24035,
				"method": "rhf"
			},
			{
				"type": "occ",
				"energy": -0.20367,
				"method": "rhf"
			},
			{
				"type": "unocc",
				"energy": -0.00477,
				"method": "rhf"
			},
			{
				"type": "unocc",
				"energy": 0.00784,
				"method": "rhf"
			},
			{
				"type": "unocc",
				"energy": 0.08231,
				"method": "rhf"
			},
			{
				"type": "unocc",
				"energy": 0.09511,
				"method": "rhf"
			},
			{
				"type": "unocc",
				"energy": 0.10631,
				"method": "rhf"
			}
		],
		"cosmo_sigma_profile": { 
			"-0.025": 0.0,
			"-0.024": 0.0,
			"-0.023": 0.0,
			"-0.022": 0.0,
			"-0.021": 0.0,
			"-0.02": 0.0,
			"-0.019": 0.0,
			"-0.018": 0.0,
			"-0.017": 0.0,
			"-0.016": 0.0,
			"-0.015": 0.0,
			"-0.014": 0.0,
			"-0.013": 0.0,
			"-0.012": 0.0,
			"-0.011": 0.137722386024,
			"-0.01": 3.84229247716,
			"-0.009": 5.64756613262,
			"-0.008": 6.66799089538,
			"-0.007": 11.9558017214,
			"-0.006": 12.0603969781,
			"-0.005": 11.3468039218,
			"-0.004": 11.2986116899,
			"-0.003": 12.1078301275,
			"-0.002": 14.3735722266,
			"-0.001": 11.6288266056,
			"0.0": 10.9061796011,
			"0.001": 13.1991883205,
			"0.002": 18.7188922653,
			"0.003": 28.4556386254,
			"0.004": 25.3724296657,
			"0.005": 6.79448065543,
			"0.006": 6.21283887369,
			"0.007": 4.12945253173,
			"0.008": 4.08901323408,
			"0.009": 4.29359238214,
			"0.01": 2.30266726917,
			"0.011": 0.799717976145,
			"0.012": 0.553472303872,
			"0.013": 0.291258574081,
			"0.014": 0.780038762417,
			"0.015": 0.604705095906,
			"0.016": 0.273957549709,
			"0.017": 0.0912723236845,
			"0.018": 0.0,
			"0.019": 0.0,
			"0.02": 0.0,
			"0.021": 0.0,
			"0.022": 0.0,
			"0.023": 0.0,
			"0.024": 0.0,
			"0.025": 0.0
		}
	}
}
