{
	 "smiles": "CN(C1CCCCC1)S(=O)(=O)C1=CN=C(S)C=C1", 
	 "Tm": 449.15, 
	 "num_atms": 36, 
	 "gaussian": { 
		 "optdone": 1, 
		 "sigma_profile": "yes", 
		 "theory": "DFT", 
		 "functional": "B3LYP", 
		 "basiset": "6-31G**", 
		 "properties": { 
			 "R2extent": 6565.7793, 
			 "electric_dipole_moment_norm": 3.66485366966, 
			 "electric_quadrupole_moment_norm": 15.4385915831, 
			 "total_energy": -1524.36705767, 
			 "HOMO_LUMO_gap": 0.19016, 
			 "cosmo_polarized_energy": -13.86, 
			 "cosmo_cavitation_energy": 39.12, 
			 "cosmo_dispersion_energy": -28.48, 
			 "cosmo_repulsion_energy": 2.09, 
			 "cosmo_total_nonelectrostatic_energy": 12.73, 
			 "SMD_solvation_energy": 3.23 
		},
		"coords": [
			{
				"x": -0.9750155901,
				"y": 1.4896781389,
				"z": 1.6600379757,
				"element": "C" 
			},
			{
				"x": -0.931682974,
				"y": 1.1736830961,
				"z": 0.223948452,
				"element": "N" 
			},
			{
				"x": -1.0092945661,
				"y": 2.2845036382,
				"z": -0.8045660626,
				"element": "C" 
			},
			{
				"x": 0.0255298521,
				"y": 2.050767606,
				"z": -1.9172617389,
				"element": "C" 
			},
			{
				"x": 1.481346666,
				"y": 2.0646878695,
				"z": -1.4024268653,
				"element": "C" 
			},
			{
				"x": 1.6871519403,
				"y": 3.0327745709,
				"z": -0.2137506411,
				"element": "C" 
			},
			{
				"x": 0.6774716862,
				"y": 4.1887829435,
				"z": -0.246087293,
				"element": "C" 
			},
			{
				"x": -0.7961639133,
				"y": 3.7027885479,
				"z": -0.2147119224,
				"element": "C" 
			},
			{
				"x": -1.9155206591,
				"y": -0.1661933117,
				"z": -0.1376316034,
				"element": "S" 
			},
			{
				"x": -3.1375947434,
				"y": -0.159722284,
				"z": 0.6808077514,
				"element": "O" 
			},
			{
				"x": -2.0089346779,
				"y": -0.2535127103,
				"z": -1.5979105256,
				"element": "O" 
			},
			{
				"x": -0.9176528974,
				"y": -1.5357559587,
				"z": 0.4482152086,
				"element": "C" 
			},
			{
				"x": 0.2607055108,
				"y": -1.8871336163,
				"z": -0.2130155338,
				"element": "C" 
			},
			{
				"x": 1.0213003756,
				"y": -2.9188446695,
				"z": 0.1613999322,
				"element": "N" 
			},
			{
				"x": 0.618457916,
				"y": -3.644453569,
				"z": 1.2126514552,
				"element": "C" 
			},
			{
				"x": 1.6405412174,
				"y": -5.0141003167,
				"z": 1.7094972901,
				"element": "S" 
			},
			{
				"x": -0.5593140247,
				"y": -3.3804062398,
				"z": 1.9305625231,
				"element": "C" 
			},
			{
				"x": -1.3418428308,
				"y": -2.3033053178,
				"z": 1.5352867319,
				"element": "C" 
			},
			{
				"x": -0.1608905413,
				"y": 2.1721415694,
				"z": 1.9027246549,
				"element": "H" 
			},
			{
				"x": -1.9283770463,
				"y": 1.9215791623,
				"z": 1.9868982865,
				"element": "H" 
			},
			{
				"x": -0.8039581983,
				"y": 0.5715555974,
				"z": 2.2279371179,
				"element": "H" 
			},
			{
				"x": -2.0096470721,
				"y": 2.2603674952,
				"z": -1.2468035137,
				"element": "H" 
			},
			{
				"x": -0.1947368815,
				"y": 1.1205231114,
				"z": -2.4436821675,
				"element": "H" 
			},
			{
				"x": -0.1162968179,
				"y": 2.8588746584,
				"z": -2.6472656996,
				"element": "H" 
			},
			{
				"x": 1.7814235315,
				"y": 1.0559970149,
				"z": -1.1004870443,
				"element": "H" 
			},
			{
				"x": 2.1402088453,
				"y": 2.344953256,
				"z": -2.2326876514,
				"element": "H" 
			},
			{
				"x": 1.5825707887,
				"y": 2.4835630853,
				"z": 0.7288415204,
				"element": "H" 
			},
			{
				"x": 2.7089560416,
				"y": 3.4285293422,
				"z": -0.2173707527,
				"element": "H" 
			},
			{
				"x": 0.8580712718,
				"y": 4.8782603092,
				"z": 0.5861873815,
				"element": "H" 
			},
			{
				"x": 0.845563645,
				"y": 4.7711555895,
				"z": -1.1606835466,
				"element": "H" 
			},
			{
				"x": -1.2116547575,
				"y": 3.7753227754,
				"z": 0.7927423674,
				"element": "H" 
			},
			{
				"x": -1.4030538823,
				"y": 4.381696688,
				"z": -0.8232635549,
				"element": "H" 
			},
			{
				"x": 0.6007047626,
				"y": -1.3217380782,
				"z": -1.0765860601,
				"element": "H" 
			},
			{
				"x": 2.549411475,
				"y": -4.8234245286,
				"z": 0.7345393161,
				"element": "H" 
			},
			{
				"x": -0.8507932164,
				"y": -4.0048685478,
				"z": 2.7683346156,
				"element": "H" 
			},
			{
				"x": -2.2685902357,
				"y": -2.0551269172,
				"z": 2.0417795964,
				"element": "H" 
			}
		],
		 "valence_orbital": [ 
			{
				"type": "occ",
				"energy": -0.30486,
				"method": "rhf"
			},
			{
				"type": "occ",
				"energy": -0.29678,
				"method": "rhf"
			},
			{
				"type": "occ",
				"energy": -0.27805,
				"method": "rhf"
			},
			{
				"type": "occ",
				"energy": -0.25434,
				"method": "rhf"
			},
			{
				"type": "occ",
				"energy": -0.24092,
				"method": "rhf"
			},
			{
				"type": "unocc",
				"energy": -0.05076,
				"method": "rhf"
			},
			{
				"type": "unocc",
				"energy": -0.04456,
				"method": "rhf"
			},
			{
				"type": "unocc",
				"energy": 0.00541,
				"method": "rhf"
			},
			{
				"type": "unocc",
				"energy": 0.05243,
				"method": "rhf"
			},
			{
				"type": "unocc",
				"energy": 0.06617,
				"method": "rhf"
			}
		],
		"cosmo_sigma_profile": { 
			"-0.025": 0.0,
			"-0.024": 0.0,
			"-0.023": 0.0,
			"-0.022": 0.0,
			"-0.021": 0.0,
			"-0.02": 0.0,
			"-0.019": 0.0,
			"-0.018": 0.0,
			"-0.017": 0.0,
			"-0.016": 0.0,
			"-0.015": 0.0,
			"-0.014": 0.0,
			"-0.013": 0.0,
			"-0.012": 0.011509669834,
			"-0.011": 1.3437016932,
			"-0.01": 1.13799166442,
			"-0.009": 2.94095705528,
			"-0.008": 5.68360043334,
			"-0.007": 6.80330096247,
			"-0.006": 6.41623212141,
			"-0.005": 12.8964851316,
			"-0.004": 21.0625488543,
			"-0.003": 29.3252799825,
			"-0.002": 37.9790750984,
			"-0.001": 36.1090207674,
			"0.0": 38.6695303848,
			"0.001": 29.6242739193,
			"0.002": 12.3344434835,
			"0.003": 11.0530523124,
			"0.004": 8.03437816178,
			"0.005": 8.44518065555,
			"0.006": 6.01900525263,
			"0.007": 6.56890740093,
			"0.008": 3.58899828671,
			"0.009": 5.45883871926,
			"0.01": 5.72126881369,
			"0.011": 8.35233038495,
			"0.012": 4.33727477831,
			"0.013": 0.289818685069,
			"0.014": 0.0,
			"0.015": 0.0,
			"0.016": 0.0,
			"0.017": 0.0,
			"0.018": 0.0,
			"0.019": 0.0,
			"0.02": 0.0,
			"0.021": 0.0,
			"0.022": 0.0,
			"0.023": 0.0,
			"0.024": 0.0,
			"0.025": 0.0
		}
	}
}
