{
	 "smiles": "NNC(=O)C(=O)NCC1=CC=CO1", 
	 "Tm": 432.15, 
	 "num_atms": 22, 
	 "gaussian": { 
		 "optdone": 1, 
		 "sigma_profile": "yes", 
		 "theory": "DFT", 
		 "functional": "B3LYP", 
		 "basiset": "6-31G**", 
		 "properties": { 
			 "R2extent": 2990.2335, 
			 "electric_dipole_moment_norm": 3.81995498534, 
			 "electric_quadrupole_moment_norm": 9.17777781928, 
			 "total_energy": -662.047248019, 
			 "HOMO_LUMO_gap": 0.19717, 
			 "cosmo_polarized_energy": -16.18, 
			 "cosmo_cavitation_energy": 27.39, 
			 "cosmo_dispersion_energy": -19.37, 
			 "cosmo_repulsion_energy": 1.58, 
			 "cosmo_total_nonelectrostatic_energy": 9.6, 
			 "SMD_solvation_energy": 6.88 
		},
		"coords": [
			{
				"x": -3.7717961171,
				"y": -1.6062178462,
				"z": -1.3353164206,
				"element": "N" 
			},
			{
				"x": -2.514045141,
				"y": -1.9018446016,
				"z": -1.9038462341,
				"element": "N" 
			},
			{
				"x": -1.3423358798,
				"y": -2.1853257706,
				"z": -1.2770272182,
				"element": "C" 
			},
			{
				"x": -0.3336809498,
				"y": -2.5158895409,
				"z": -1.896072667,
				"element": "O" 
			},
			{
				"x": -1.374639388,
				"y": -2.1630686988,
				"z": 0.2647330029,
				"element": "C" 
			},
			{
				"x": -2.3409403037,
				"y": -2.6203895157,
				"z": 0.8760646374,
				"element": "O" 
			},
			{
				"x": -0.2670559855,
				"y": -1.7128333529,
				"z": 0.9073094213,
				"element": "N" 
			},
			{
				"x": 0.8795344804,
				"y": -0.9787845163,
				"z": 0.3618872371,
				"element": "C" 
			},
			{
				"x": 0.7780382221,
				"y": 0.4971185403,
				"z": 0.5672769178,
				"element": "C" 
			},
			{
				"x": 1.5069962598,
				"y": 1.3998871211,
				"z": 1.2843925074,
				"element": "C" 
			},
			{
				"x": 0.9000154729,
				"y": 2.681734829,
				"z": 1.06746544,
				"element": "C" 
			},
			{
				"x": -0.1566411084,
				"y": 2.4613384242,
				"z": 0.2397484488,
				"element": "C" 
			},
			{
				"x": -0.247033824,
				"y": 1.1369599681,
				"z": -0.0775335252,
				"element": "O" 
			},
			{
				"x": -3.8786640425,
				"y": -2.2067557039,
				"z": -0.5196561339,
				"element": "H" 
			},
			{
				"x": -3.7554449688,
				"y": -0.6452254111,
				"z": -0.9962965794,
				"element": "H" 
			},
			{
				"x": -2.5114366548,
				"y": -2.0536655402,
				"z": -2.9050385889,
				"element": "H" 
			},
			{
				"x": -0.3733463921,
				"y": -1.7273939513,
				"z": 1.9153396178,
				"element": "H" 
			},
			{
				"x": 0.9573047032,
				"y": -1.2349837894,
				"z": -0.6954889786,
				"element": "H" 
			},
			{
				"x": 1.7889674464,
				"y": -1.3372815978,
				"z": 0.8535628039,
				"element": "H" 
			},
			{
				"x": 2.37463276,
				"y": 1.1812066843,
				"z": 1.890858303,
				"element": "H" 
			},
			{
				"x": 1.2106512246,
				"y": 3.6324733353,
				"z": 1.4759440727,
				"element": "H" 
			},
			{
				"x": -0.9063798138,
				"y": 3.1021409345,
				"z": -0.1978060642,
				"element": "H" 
			}
		],
		 "valence_orbital": [ 
			{
				"type": "occ",
				"energy": -0.2865,
				"method": "rhf"
			},
			{
				"type": "occ",
				"energy": -0.26934,
				"method": "rhf"
			},
			{
				"type": "occ",
				"energy": -0.25897,
				"method": "rhf"
			},
			{
				"type": "occ",
				"energy": -0.23645,
				"method": "rhf"
			},
			{
				"type": "occ",
				"energy": -0.23228,
				"method": "rhf"
			},
			{
				"type": "unocc",
				"energy": -0.03511,
				"method": "rhf"
			},
			{
				"type": "unocc",
				"energy": 0.0021,
				"method": "rhf"
			},
			{
				"type": "unocc",
				"energy": 0.05914,
				"method": "rhf"
			},
			{
				"type": "unocc",
				"energy": 0.06825,
				"method": "rhf"
			},
			{
				"type": "unocc",
				"energy": 0.08888,
				"method": "rhf"
			}
		],
		"cosmo_sigma_profile": { 
			"-0.025": 0.0,
			"-0.024": 0.0,
			"-0.023": 0.0,
			"-0.022": 0.0,
			"-0.021": 0.0,
			"-0.02": 0.0,
			"-0.019": 0.0,
			"-0.018": 0.0,
			"-0.017": 0.0,
			"-0.016": 0.0,
			"-0.015": 0.369680194008,
			"-0.014": 2.28303197509,
			"-0.013": 1.82695558711,
			"-0.012": 2.8109464503,
			"-0.011": 3.3123266566,
			"-0.01": 3.58728909803,
			"-0.009": 2.98195522089,
			"-0.008": 6.49377595441,
			"-0.007": 11.7512029741,
			"-0.006": 11.4696952054,
			"-0.005": 10.2264096864,
			"-0.004": 11.9477709519,
			"-0.003": 11.1803623919,
			"-0.002": 11.9059537506,
			"-0.001": 12.4604235439,
			"0.0": 13.1123973702,
			"0.001": 12.8920160133,
			"0.002": 11.7091361245,
			"0.003": 14.6985880627,
			"0.004": 11.507182093,
			"0.005": 10.6006412879,
			"0.006": 7.14834940524,
			"0.007": 2.89473580694,
			"0.008": 2.59973470462,
			"0.009": 3.0611848001,
			"0.01": 4.08048647507,
			"0.011": 4.67097126754,
			"0.012": 7.55795917433,
			"0.013": 4.80281607136,
			"0.014": 0.792415463017,
			"0.015": 0.509987172321,
			"0.016": 0.526135639971,
			"0.017": 0.0582782172617,
			"0.018": 0.0,
			"0.019": 0.0,
			"0.02": 0.0,
			"0.021": 0.0,
			"0.022": 0.0,
			"0.023": 0.0,
			"0.024": 0.0,
			"0.025": 0.0
		}
	}
}
