{
	 "smiles": "NC1CCCCCCC1", 
	 "Tm": 225.15, 
	 "num_atms": 26, 
	 "gaussian": { 
		 "optdone": 1, 
		 "sigma_profile": "yes", 
		 "theory": "DFT", 
		 "functional": "B3LYP", 
		 "basiset": "6-31G**", 
		 "properties": { 
			 "R2extent": 1791.6924, 
			 "electric_dipole_moment_norm": 1.28007827104, 
			 "electric_quadrupole_moment_norm": 6.41745593207, 
			 "total_energy": -369.852722022, 
			 "HOMO_LUMO_gap": 0.30548, 
			 "cosmo_polarized_energy": -4.9, 
			 "cosmo_cavitation_energy": 24.3, 
			 "cosmo_dispersion_energy": -18.59, 
			 "cosmo_repulsion_energy": 1.53, 
			 "cosmo_total_nonelectrostatic_energy": 7.23, 
			 "SMD_solvation_energy": 2.06 
		},
		"coords": [
			{
				"x": -1.7852851325,
				"y": -1.7418480682,
				"z": 2.005625556,
				"element": "N" 
			},
			{
				"x": -1.0120742506,
				"y": -1.5186729994,
				"z": 0.7679607892,
				"element": "C" 
			},
			{
				"x": 0.4745313691,
				"y": -1.6487219595,
				"z": 1.1347763107,
				"element": "C" 
			},
			{
				"x": 1.5171491729,
				"y": -1.5358965855,
				"z": 0.0045287788,
				"element": "C" 
			},
			{
				"x": 1.1924711724,
				"y": -2.2933273234,
				"z": -1.3061660065,
				"element": "C" 
			},
			{
				"x": 0.6100817897,
				"y": -1.4384319439,
				"z": -2.4482481439,
				"element": "C" 
			},
			{
				"x": -0.7685924585,
				"y": -0.777358632,
				"z": -2.256751994,
				"element": "C" 
			},
			{
				"x": -0.852223171,
				"y": 0.2968213516,
				"z": -1.1449198607,
				"element": "C" 
			},
			{
				"x": -1.4494683262,
				"y": -0.1587664701,
				"z": 0.2016793104,
				"element": "C" 
			},
			{
				"x": -1.5803271692,
				"y": -2.6684749331,
				"z": 2.3745246045,
				"element": "H" 
			},
			{
				"x": -2.7808705718,
				"y": -1.7378304694,
				"z": 1.7922228134,
				"element": "H" 
			},
			{
				"x": -1.2378280043,
				"y": -2.2861758843,
				"z": 0.0079095265,
				"element": "H" 
			},
			{
				"x": 0.5950760718,
				"y": -2.6369919359,
				"z": 1.6033645733,
				"element": "H" 
			},
			{
				"x": 0.6995157425,
				"y": -0.9164737352,
				"z": 1.9202685345,
				"element": "H" 
			},
			{
				"x": 2.4620399338,
				"y": -1.9182538986,
				"z": 0.4091793235,
				"element": "H" 
			},
			{
				"x": 1.7128782678,
				"y": -0.4834221754,
				"z": -0.2282575669,
				"element": "H" 
			},
			{
				"x": 0.5277685219,
				"y": -3.1423055794,
				"z": -1.096778423,
				"element": "H" 
			},
			{
				"x": 2.1190275183,
				"y": -2.7382534279,
				"z": -1.6896659021,
				"element": "H" 
			},
			{
				"x": 1.336161602,
				"y": -0.6461023243,
				"z": -2.6825629046,
				"element": "H" 
			},
			{
				"x": 0.558517825,
				"y": -2.0683609975,
				"z": -3.3463955329,
				"element": "H" 
			},
			{
				"x": -1.0259103458,
				"y": -0.3077812884,
				"z": -3.2142649715,
				"element": "H" 
			},
			{
				"x": -1.5347928816,
				"y": -1.5477460693,
				"z": -2.096023103,
				"element": "H" 
			},
			{
				"x": 0.1411570032,
				"y": 0.7327154541,
				"z": -0.9920041735,
				"element": "H" 
			},
			{
				"x": -1.4751440558,
				"y": 1.1263816863,
				"z": -1.5006350447,
				"element": "H" 
			},
			{
				"x": -1.2654840668,
				"y": 0.606617718,
				"z": 0.9659709489,
				"element": "H" 
			},
			{
				"x": -2.5423755563,
				"y": -0.2069395094,
				"z": 0.0833625577,
				"element": "H" 
			}
		],
		 "valence_orbital": [ 
			{
				"type": "occ",
				"energy": -0.32114,
				"method": "rhf"
			},
			{
				"type": "occ",
				"energy": -0.30871,
				"method": "rhf"
			},
			{
				"type": "occ",
				"energy": -0.29728,
				"method": "rhf"
			},
			{
				"type": "occ",
				"energy": -0.28564,
				"method": "rhf"
			},
			{
				"type": "occ",
				"energy": -0.22605,
				"method": "rhf"
			},
			{
				"type": "unocc",
				"energy": 0.07943,
				"method": "rhf"
			},
			{
				"type": "unocc",
				"energy": 0.08852,
				"method": "rhf"
			},
			{
				"type": "unocc",
				"energy": 0.10182,
				"method": "rhf"
			},
			{
				"type": "unocc",
				"energy": 0.11689,
				"method": "rhf"
			},
			{
				"type": "unocc",
				"energy": 0.12436,
				"method": "rhf"
			}
		],
		"cosmo_sigma_profile": { 
			"-0.025": 0.0,
			"-0.024": 0.0,
			"-0.023": 0.0,
			"-0.022": 0.0,
			"-0.021": 0.0,
			"-0.02": 0.0,
			"-0.019": 0.0,
			"-0.018": 0.0,
			"-0.017": 0.0,
			"-0.016": 0.0,
			"-0.015": 0.0,
			"-0.014": 0.0,
			"-0.013": 0.0,
			"-0.012": 0.0,
			"-0.011": 0.0,
			"-0.01": 0.0,
			"-0.009": 1.26829190676,
			"-0.008": 2.36071370642,
			"-0.007": 2.95545917965,
			"-0.006": 3.30790938796,
			"-0.005": 3.40024529339,
			"-0.004": 3.05301596123,
			"-0.003": 4.73644538507,
			"-0.002": 24.8763294061,
			"-0.001": 38.2597951592,
			"0.0": 40.7807247249,
			"0.001": 31.9856125792,
			"0.002": 12.9659648712,
			"0.003": 1.73411394443,
			"0.004": 1.16634588545,
			"0.005": 1.45502590322,
			"0.006": 1.03110059513,
			"0.007": 0.879669251986,
			"0.008": 0.661971535896,
			"0.009": 1.16561920015,
			"0.01": 0.796747317673,
			"0.011": 0.759572079509,
			"0.012": 0.571141129764,
			"0.013": 0.72255102903,
			"0.014": 0.606941373068,
			"0.015": 0.461689768481,
			"0.016": 0.514009378183,
			"0.017": 0.822849961789,
			"0.018": 0.438144095216,
			"0.019": 0.546280713336,
			"0.02": 0.336407343919,
			"0.021": 0.177754093694,
			"0.022": 0.0,
			"0.023": 0.0,
			"0.024": 0.0,
			"0.025": 0.0
		}
	}
}
