{
	 "smiles": "COC1=C(C=C(C=C1)C(O)=O)S(=O)(=O)CC1=CC(C)=NO1", 
	 "Tm": 491.15, 
	 "num_atms": 34, 
	 "gaussian": { 
		 "optdone": 1, 
		 "sigma_profile": "yes", 
		 "theory": "DFT", 
		 "functional": "B3LYP", 
		 "basiset": "6-31G**", 
		 "properties": { 
			 "R2extent": 7233.1871, 
			 "electric_dipole_moment_norm": 2.47410870012, 
			 "electric_quadrupole_moment_norm": 20.2291600231, 
			 "total_energy": -1407.38727669, 
			 "HOMO_LUMO_gap": 0.19471, 
			 "cosmo_polarized_energy": -23.31, 
			 "cosmo_cavitation_energy": 40.54, 
			 "cosmo_dispersion_energy": -27.78, 
			 "cosmo_repulsion_energy": 2.09, 
			 "cosmo_total_nonelectrostatic_energy": 14.85, 
			 "SMD_solvation_energy": 8.11 
		},
		"coords": [
			{
				"x": 1.6087013491,
				"y": 2.2737340982,
				"z": 0.3175926344,
				"element": "C" 
			},
			{
				"x": 1.019659026,
				"y": 0.9675532621,
				"z": 0.2327291889,
				"element": "O" 
			},
			{
				"x": 0.6458616828,
				"y": 0.5461429617,
				"z": -1.0047146293,
				"element": "C" 
			},
			{
				"x": -0.7182455759,
				"y": 0.3979352685,
				"z": -1.3147053673,
				"element": "C" 
			},
			{
				"x": -1.1214813351,
				"y": -0.1087602046,
				"z": -2.549784185,
				"element": "C" 
			},
			{
				"x": -0.1584197685,
				"y": -0.4681383831,
				"z": -3.4977147617,
				"element": "C" 
			},
			{
				"x": 1.2029495259,
				"y": -0.3142748817,
				"z": -3.1963745264,
				"element": "C" 
			},
			{
				"x": 1.6019313836,
				"y": 0.1868880719,
				"z": -1.9645645298,
				"element": "C" 
			},
			{
				"x": -0.5237519317,
				"y": -1.0115582719,
				"z": -4.8323086339,
				"element": "C" 
			},
			{
				"x": -1.8613210509,
				"y": -1.130316164,
				"z": -5.0060705137,
				"element": "O" 
			},
			{
				"x": 0.2767182911,
				"y": -1.3236607098,
				"z": -5.691480937,
				"element": "O" 
			},
			{
				"x": -2.0122887612,
				"y": 0.9518405871,
				"z": -0.18382153,
				"element": "S" 
			},
			{
				"x": -1.62334816,
				"y": 2.2367604717,
				"z": 0.4152170879,
				"element": "O" 
			},
			{
				"x": -3.2870499021,
				"y": 0.8252888804,
				"z": -0.9093121169,
				"element": "O" 
			},
			{
				"x": -2.1240575472,
				"y": -0.3194300971,
				"z": 1.1554018051,
				"element": "C" 
			},
			{
				"x": -0.9941081041,
				"y": -0.3847628484,
				"z": 2.1081660298,
				"element": "C" 
			},
			{
				"x": -0.6603292476,
				"y": 0.3277622742,
				"z": 3.2192745279,
				"element": "C" 
			},
			{
				"x": 0.563969418,
				"y": -0.263960005,
				"z": 3.6515728538,
				"element": "C" 
			},
			{
				"x": 1.4099983553,
				"y": 0.0969281286,
				"z": 4.8332247988,
				"element": "C" 
			},
			{
				"x": 0.9248636029,
				"y": -1.2535636855,
				"z": 2.8612362114,
				"element": "N" 
			},
			{
				"x": -0.0628691666,
				"y": -1.3361396215,
				"z": 1.8785405269,
				"element": "O" 
			},
			{
				"x": 0.8486964818,
				"y": 3.0368167778,
				"z": 0.1258370074,
				"element": "H" 
			},
			{
				"x": 2.4426339694,
				"y": 2.3811713816,
				"z": -0.3851403606,
				"element": "H" 
			},
			{
				"x": 1.9800491275,
				"y": 2.368899002,
				"z": 1.3382920218,
				"element": "H" 
			},
			{
				"x": -2.178959987,
				"y": -0.1985348281,
				"z": -2.767643791,
				"element": "H" 
			},
			{
				"x": 1.9335264486,
				"y": -0.6054972631,
				"z": -3.9435602251,
				"element": "H" 
			},
			{
				"x": 2.6538299723,
				"y": 0.2829653209,
				"z": -1.7162862717,
				"element": "H" 
			},
			{
				"x": -1.985718305,
				"y": -1.4854980828,
				"z": -5.9014208808,
				"element": "H" 
			},
			{
				"x": -3.0534788482,
				"y": -0.0286784177,
				"z": 1.6524977046,
				"element": "H" 
			},
			{
				"x": -2.2786265556,
				"y": -1.2731088534,
				"z": 0.6459894558,
				"element": "H" 
			},
			{
				"x": -1.1946638239,
				"y": 1.1568100523,
				"z": 3.6572048704,
				"element": "H" 
			},
			{
				"x": 0.8468162851,
				"y": -0.0133059708,
				"z": 5.7657993012,
				"element": "H" 
			},
			{
				"x": 1.7453354423,
				"y": 1.1375169355,
				"z": 4.772164529,
				"element": "H" 
			},
			{
				"x": 2.2871777089,
				"y": -0.5516251859,
				"z": 4.876762705,
				"element": "H" 
			}
		],
		 "valence_orbital": [ 
			{
				"type": "occ",
				"energy": -0.28927,
				"method": "rhf"
			},
			{
				"type": "occ",
				"energy": -0.28604,
				"method": "rhf"
			},
			{
				"type": "occ",
				"energy": -0.28309,
				"method": "rhf"
			},
			{
				"type": "occ",
				"energy": -0.26344,
				"method": "rhf"
			},
			{
				"type": "occ",
				"energy": -0.25771,
				"method": "rhf"
			},
			{
				"type": "unocc",
				"energy": -0.063,
				"method": "rhf"
			},
			{
				"type": "unocc",
				"energy": -0.04535,
				"method": "rhf"
			},
			{
				"type": "unocc",
				"energy": -0.02596,
				"method": "rhf"
			},
			{
				"type": "unocc",
				"energy": 0.03115,
				"method": "rhf"
			},
			{
				"type": "unocc",
				"energy": 0.03848,
				"method": "rhf"
			}
		],
		"cosmo_sigma_profile": { 
			"-0.025": 0.0,
			"-0.024": 0.0,
			"-0.023": 0.0,
			"-0.022": 0.0,
			"-0.021": 0.0,
			"-0.02": 0.0,
			"-0.019": 0.202569433591,
			"-0.018": 1.09501173477,
			"-0.017": 0.718116002069,
			"-0.016": 1.0815372617,
			"-0.015": 0.74393155108,
			"-0.014": 0.558910589687,
			"-0.013": 0.24538424549,
			"-0.012": 0.771235893982,
			"-0.011": 1.82751312683,
			"-0.01": 4.78451359299,
			"-0.009": 4.384849737,
			"-0.008": 9.43794736081,
			"-0.007": 11.1343905474,
			"-0.006": 15.8059162296,
			"-0.005": 19.0201427204,
			"-0.004": 23.0730039115,
			"-0.003": 27.3901857798,
			"-0.002": 24.9759694846,
			"-0.001": 25.9478072943,
			"0.0": 24.9222169163,
			"0.001": 18.0967486839,
			"0.002": 10.7569460567,
			"0.003": 9.08441525966,
			"0.004": 9.72602008114,
			"0.005": 8.18503012716,
			"0.006": 8.43740455633,
			"0.007": 9.39680352783,
			"0.008": 10.8158188711,
			"0.009": 8.93256953384,
			"0.01": 10.2190144815,
			"0.011": 13.1928948061,
			"0.012": 6.10895949631,
			"0.013": 1.12663079369,
			"0.014": 1.08192609872,
			"0.015": 0.218296782068,
			"0.016": 0.0,
			"0.017": 0.0,
			"0.018": 0.0,
			"0.019": 0.0,
			"0.02": 0.0,
			"0.021": 0.0,
			"0.022": 0.0,
			"0.023": 0.0,
			"0.024": 0.0,
			"0.025": 0.0
		}
	}
}
