{
	 "smiles": "OC(=O)CNS(=O)(=O)C=CC1=CC=CC=C1", 
	 "Tm": 354.15, 
	 "num_atms": 27, 
	 "gaussian": { 
		 "optdone": 1, 
		 "sigma_profile": "yes", 
		 "theory": "DFT", 
		 "functional": "B3LYP", 
		 "basiset": "6-31G**", 
		 "properties": { 
			 "R2extent": 4301.6066, 
			 "electric_dipole_moment_norm": 7.5564542783, 
			 "electric_quadrupole_moment_norm": 9.12334226586, 
			 "total_energy": -1141.4393593, 
			 "HOMO_LUMO_gap": 0.17325, 
			 "cosmo_polarized_energy": -20.35, 
			 "cosmo_cavitation_energy": 32.2, 
			 "cosmo_dispersion_energy": -23.29, 
			 "cosmo_repulsion_energy": 1.76, 
			 "cosmo_total_nonelectrostatic_energy": 10.67, 
			 "SMD_solvation_energy": 5.56 
		},
		"coords": [
			{
				"x": -1.6689044524,
				"y": 2.4204261863,
				"z": -0.9619045243,
				"element": "O" 
			},
			{
				"x": -0.5051227762,
				"y": 3.087474903,
				"z": -1.0047041626,
				"element": "C" 
			},
			{
				"x": -0.4095572129,
				"y": 4.2211015666,
				"z": -0.5974809198,
				"element": "O" 
			},
			{
				"x": 0.7253236064,
				"y": 2.3771414568,
				"z": -1.602926949,
				"element": "C" 
			},
			{
				"x": 0.8746938164,
				"y": 0.936862253,
				"z": -1.338291375,
				"element": "N" 
			},
			{
				"x": 0.0817882462,
				"y": -0.1167990321,
				"z": -2.3898839655,
				"element": "S" 
			},
			{
				"x": -1.3759294041,
				"y": -0.1189760254,
				"z": -2.0898621246,
				"element": "O" 
			},
			{
				"x": 0.4996275833,
				"y": 0.2280266405,
				"z": -3.7476366304,
				"element": "O" 
			},
			{
				"x": 0.7976683724,
				"y": -1.6945899709,
				"z": -1.9863334481,
				"element": "C" 
			},
			{
				"x": 0.9076940834,
				"y": -2.3138607198,
				"z": -0.799175892,
				"element": "C" 
			},
			{
				"x": 0.4822414845,
				"y": -1.9552800802,
				"z": 0.5612766909,
				"element": "C" 
			},
			{
				"x": 1.246828294,
				"y": -2.4634635578,
				"z": 1.6298302698,
				"element": "C" 
			},
			{
				"x": 0.9265524585,
				"y": -2.1547456446,
				"z": 2.9488410456,
				"element": "C" 
			},
			{
				"x": -0.1808984851,
				"y": -1.3506618941,
				"z": 3.2283283331,
				"element": "C" 
			},
			{
				"x": -0.9684172567,
				"y": -0.8671446539,
				"z": 2.181132556,
				"element": "C" 
			},
			{
				"x": -0.6467205597,
				"y": -1.1648858562,
				"z": 0.8572755884,
				"element": "C" 
			},
			{
				"x": -1.640799958,
				"y": 1.5443856563,
				"z": -1.4049766676,
				"element": "H" 
			},
			{
				"x": 1.6027937835,
				"y": 2.8914206399,
				"z": -1.2066012798,
				"element": "H" 
			},
			{
				"x": 0.73071069,
				"y": 2.5187892368,
				"z": -2.6889921985,
				"element": "H" 
			},
			{
				"x": 0.7024288249,
				"y": 0.6731992616,
				"z": -0.3691164642,
				"element": "H" 
			},
			{
				"x": 1.2139150821,
				"y": -2.1304362192,
				"z": -2.8884280973,
				"element": "H" 
			},
			{
				"x": 1.4681521909,
				"y": -3.2477804876,
				"z": -0.8489490816,
				"element": "H" 
			},
			{
				"x": 2.1065833169,
				"y": -3.0930667231,
				"z": 1.4165724339,
				"element": "H" 
			},
			{
				"x": 1.5357520161,
				"y": -2.5460852496,
				"z": 3.7579178936,
				"element": "H" 
			},
			{
				"x": -0.4367993815,
				"y": -1.1137234933,
				"z": 4.2566157498,
				"element": "H" 
			},
			{
				"x": -1.845480538,
				"y": -0.2631775864,
				"z": 2.3929247837,
				"element": "H" 
			},
			{
				"x": -1.2935238251,
				"y": -0.8226506067,
				"z": 0.0573484354,
				"element": "H" 
			}
		],
		 "valence_orbital": [ 
			{
				"type": "occ",
				"energy": -0.30678,
				"method": "rhf"
			},
			{
				"type": "occ",
				"energy": -0.29363,
				"method": "rhf"
			},
			{
				"type": "occ",
				"energy": -0.28151,
				"method": "rhf"
			},
			{
				"type": "occ",
				"energy": -0.2686,
				"method": "rhf"
			},
			{
				"type": "occ",
				"energy": -0.25722,
				"method": "rhf"
			},
			{
				"type": "unocc",
				"energy": -0.08397,
				"method": "rhf"
			},
			{
				"type": "unocc",
				"energy": -0.03363,
				"method": "rhf"
			},
			{
				"type": "unocc",
				"energy": -0.00267,
				"method": "rhf"
			},
			{
				"type": "unocc",
				"energy": 0.00932,
				"method": "rhf"
			},
			{
				"type": "unocc",
				"energy": 0.04074,
				"method": "rhf"
			}
		],
		"cosmo_sigma_profile": { 
			"-0.025": 0.0,
			"-0.024": 0.0,
			"-0.023": 0.0,
			"-0.022": 0.0,
			"-0.021": 0.0,
			"-0.02": 0.0,
			"-0.019": 0.0,
			"-0.018": 0.0,
			"-0.017": 0.0,
			"-0.016": 0.0,
			"-0.015": 0.173673709822,
			"-0.014": 0.762547379148,
			"-0.013": 1.2867898062,
			"-0.012": 1.47650124847,
			"-0.011": 1.7337701365,
			"-0.01": 3.49025138306,
			"-0.009": 7.4779198045,
			"-0.008": 9.70759184851,
			"-0.007": 12.4762447952,
			"-0.006": 15.7801955742,
			"-0.005": 17.1954423601,
			"-0.004": 16.1904143903,
			"-0.003": 15.3560150347,
			"-0.002": 13.0257434786,
			"-0.001": 12.1077100588,
			"0.0": 15.5744983815,
			"0.001": 14.1109167521,
			"0.002": 15.2414831262,
			"0.003": 15.1626109397,
			"0.004": 11.4980861493,
			"0.005": 4.90764862104,
			"0.006": 4.93859483617,
			"0.007": 5.63790334268,
			"0.008": 5.67986114451,
			"0.009": 8.18634489454,
			"0.01": 11.9189843874,
			"0.011": 9.08338485289,
			"0.012": 5.42221298193,
			"0.013": 2.14772716668,
			"0.014": 0.0883086032488,
			"0.015": 0.0,
			"0.016": 0.0,
			"0.017": 0.0,
			"0.018": 0.0,
			"0.019": 0.0,
			"0.02": 0.0,
			"0.021": 0.0,
			"0.022": 0.0,
			"0.023": 0.0,
			"0.024": 0.0,
			"0.025": 0.0
		}
	}
}
