{
	 "smiles": "CC1=CC2=C(C=C1)N(CC1=C(Cl)C=CC=C1)C(S)=N2", 
	 "Tm": 463.15, 
	 "num_atms": 32, 
	 "gaussian": { 
		 "optdone": 1, 
		 "sigma_profile": "yes", 
		 "theory": "DFT", 
		 "functional": "B3LYP", 
		 "basiset": "6-31G**", 
		 "properties": { 
			 "R2extent": 7637.7926, 
			 "electric_dipole_moment_norm": 3.51397802213, 
			 "electric_quadrupole_moment_norm": 17.0244992502, 
			 "total_energy": -1547.32522666, 
			 "HOMO_LUMO_gap": 0.17575, 
			 "cosmo_polarized_energy": -12.54, 
			 "cosmo_cavitation_energy": 38.26, 
			 "cosmo_dispersion_energy": -27.59, 
			 "cosmo_repulsion_energy": 2.06, 
			 "cosmo_total_nonelectrostatic_energy": 12.74, 
			 "SMD_solvation_energy": 3.71 
		},
		"coords": [
			{
				"x": -1.1038264761,
				"y": 2.2467978631,
				"z": 4.4934186595,
				"element": "C" 
			},
			{
				"x": -1.1410071829,
				"y": 1.6164210771,
				"z": 3.119114818,
				"element": "C" 
			},
			{
				"x": -2.3550287156,
				"y": 1.3392460115,
				"z": 2.4916506136,
				"element": "C" 
			},
			{
				"x": -2.3449221759,
				"y": 0.7528912788,
				"z": 1.2200807898,
				"element": "C" 
			},
			{
				"x": -1.1209875826,
				"y": 0.441953067,
				"z": 0.5913211047,
				"element": "C" 
			},
			{
				"x": 0.1057488123,
				"y": 0.7115464378,
				"z": 1.1997199452,
				"element": "C" 
			},
			{
				"x": 0.070437777,
				"y": 1.3002637662,
				"z": 2.4608611594,
				"element": "C" 
			},
			{
				"x": -1.4702625696,
				"y": -0.1192050891,
				"z": -0.6400212817,
				"element": "N" 
			},
			{
				"x": -0.552939647,
				"y": -0.4494332962,
				"z": -1.7310140216,
				"element": "C" 
			},
			{
				"x": -0.582156283,
				"y": -1.8909062278,
				"z": -2.2104070977,
				"element": "C" 
			},
			{
				"x": -0.1257037088,
				"y": -2.9711530458,
				"z": -1.4389058456,
				"element": "C" 
			},
			{
				"x": 0.5110741873,
				"y": -2.7037515134,
				"z": 0.1775956839,
				"element": "Cl" 
			},
			{
				"x": -0.139508456,
				"y": -4.277576665,
				"z": -1.9257541234,
				"element": "C" 
			},
			{
				"x": -0.6064108961,
				"y": -4.52812555,
				"z": -3.2158251114,
				"element": "C" 
			},
			{
				"x": -1.0499499316,
				"y": -3.4734064983,
				"z": -4.012002086,
				"element": "C" 
			},
			{
				"x": -1.0332998327,
				"y": -2.1740775341,
				"z": -3.5071526748,
				"element": "C" 
			},
			{
				"x": -2.8543424416,
				"y": -0.0868915575,
				"z": -0.6747907782,
				"element": "C" 
			},
			{
				"x": -3.7645159028,
				"y": -0.6477188897,
				"z": -2.0887769365,
				"element": "S" 
			},
			{
				"x": -3.4119583799,
				"y": 0.4046572731,
				"z": 0.4025002553,
				"element": "N" 
			},
			{
				"x": -0.5362647963,
				"y": 3.184821107,
				"z": 4.4901209479,
				"element": "H" 
			},
			{
				"x": -2.1111318711,
				"y": 2.4687648494,
				"z": 4.856290239,
				"element": "H" 
			},
			{
				"x": -0.6252664744,
				"y": 1.5853225788,
				"z": 5.2255554825,
				"element": "H" 
			},
			{
				"x": -3.3015181355,
				"y": 1.5731286778,
				"z": 2.9698061007,
				"element": "H" 
			},
			{
				"x": 1.0530274927,
				"y": 0.4732225198,
				"z": 0.7271085029,
				"element": "H" 
			},
			{
				"x": 1.0101151621,
				"y": 1.5230507277,
				"z": 2.96009523,
				"element": "H" 
			},
			{
				"x": 0.4486448734,
				"y": -0.1957663714,
				"z": -1.37608712,
				"element": "H" 
			},
			{
				"x": -0.7690171335,
				"y": 0.2041097209,
				"z": -2.5836062071,
				"element": "H" 
			},
			{
				"x": 0.2194605056,
				"y": -5.0844560695,
				"z": -1.2965906462,
				"element": "H" 
			},
			{
				"x": -0.6166372628,
				"y": -5.5460914502,
				"z": -3.5933266751,
				"element": "H" 
			},
			{
				"x": -1.4093666513,
				"y": -3.6581806345,
				"z": -5.0193493254,
				"element": "H" 
			},
			{
				"x": -1.3816439638,
				"y": -1.3522353015,
				"z": -4.1264329104,
				"element": "H" 
			},
			{
				"x": -4.9088423394,
				"y": -0.101921262,
				"z": -1.6363966912,
				"element": "H" 
			}
		],
		 "valence_orbital": [ 
			{
				"type": "occ",
				"energy": -0.27067,
				"method": "rhf"
			},
			{
				"type": "occ",
				"energy": -0.26818,
				"method": "rhf"
			},
			{
				"type": "occ",
				"energy": -0.25456,
				"method": "rhf"
			},
			{
				"type": "occ",
				"energy": -0.21563,
				"method": "rhf"
			},
			{
				"type": "occ",
				"energy": -0.20508,
				"method": "rhf"
			},
			{
				"type": "unocc",
				"energy": -0.02933,
				"method": "rhf"
			},
			{
				"type": "unocc",
				"energy": -0.02307,
				"method": "rhf"
			},
			{
				"type": "unocc",
				"energy": -0.00769,
				"method": "rhf"
			},
			{
				"type": "unocc",
				"energy": 0.01961,
				"method": "rhf"
			},
			{
				"type": "unocc",
				"energy": 0.02426,
				"method": "rhf"
			}
		],
		"cosmo_sigma_profile": { 
			"-0.025": 0.0,
			"-0.024": 0.0,
			"-0.023": 0.0,
			"-0.022": 0.0,
			"-0.021": 0.0,
			"-0.02": 0.0,
			"-0.019": 0.0,
			"-0.018": 0.0,
			"-0.017": 0.0,
			"-0.016": 0.0,
			"-0.015": 0.0,
			"-0.014": 0.0,
			"-0.013": 0.0,
			"-0.012": 0.54189591996,
			"-0.011": 1.26645702043,
			"-0.01": 1.52499256682,
			"-0.009": 1.30091540278,
			"-0.008": 4.41941404224,
			"-0.007": 10.5416407107,
			"-0.006": 15.2365490562,
			"-0.005": 20.0972244616,
			"-0.004": 20.8181068678,
			"-0.003": 21.7228993808,
			"-0.002": 21.1578084347,
			"-0.001": 19.8738796131,
			"0.0": 25.8771577294,
			"0.001": 26.8089154268,
			"0.002": 23.5247837068,
			"0.003": 25.3124996858,
			"0.004": 25.5012550071,
			"0.005": 19.3021196946,
			"0.006": 11.4750382101,
			"0.007": 4.07568315057,
			"0.008": 1.79892672875,
			"0.009": 0.879114228414,
			"0.01": 0.621084676975,
			"0.011": 1.56278528529,
			"0.012": 0.923429621804,
			"0.013": 1.0963803777,
			"0.014": 0.865358364865,
			"0.015": 0.900349098138,
			"0.016": 0.741587922169,
			"0.017": 0.19581330055,
			"0.018": 0.0,
			"0.019": 0.0,
			"0.02": 0.0,
			"0.021": 0.0,
			"0.022": 0.0,
			"0.023": 0.0,
			"0.024": 0.0,
			"0.025": 0.0
		}
	}
}
