{
	 "smiles": "NS(=O)(=O)NCC1=CN=CC=C1", 
	 "Tm": 403.15, 
	 "num_atms": 21, 
	 "gaussian": { 
		 "optdone": 1, 
		 "sigma_profile": "yes", 
		 "theory": "DFT", 
		 "functional": "B3LYP", 
		 "basiset": "6-31G**", 
		 "properties": { 
			 "R2extent": 3872.7338, 
			 "electric_dipole_moment_norm": 6.35944033544, 
			 "electric_quadrupole_moment_norm": 22.4923377882, 
			 "total_energy": -946.869024226, 
			 "HOMO_LUMO_gap": 0.2228, 
			 "cosmo_polarized_energy": -21.8, 
			 "cosmo_cavitation_energy": 26.44, 
			 "cosmo_dispersion_energy": -19.92, 
			 "cosmo_repulsion_energy": 1.54, 
			 "cosmo_total_nonelectrostatic_energy": 8.06, 
			 "SMD_solvation_energy": 2.02 
		},
		"coords": [
			{
				"x": -0.7828094676,
				"y": -2.9490010945,
				"z": 3.3401264587,
				"element": "N" 
			},
			{
				"x": -1.4419677896,
				"y": -2.6507137787,
				"z": 1.8306190537,
				"element": "S" 
			},
			{
				"x": -2.8858527955,
				"y": -2.5745740564,
				"z": 2.0097889044,
				"element": "O" 
			},
			{
				"x": -0.7824833358,
				"y": -3.6071901516,
				"z": 0.943388884,
				"element": "O" 
			},
			{
				"x": -0.9771111806,
				"y": -1.0746960753,
				"z": 1.414557931,
				"element": "N" 
			},
			{
				"x": 0.1492936848,
				"y": -0.8608875949,
				"z": 0.4808005615,
				"element": "C" 
			},
			{
				"x": -0.2760126095,
				"y": -0.5672761459,
				"z": -0.9430312395,
				"element": "C" 
			},
			{
				"x": -0.783163807,
				"y": -1.5754835033,
				"z": -1.7792780524,
				"element": "C" 
			},
			{
				"x": -1.1807522693,
				"y": -1.3690761711,
				"z": -3.0388829629,
				"element": "N" 
			},
			{
				"x": -1.0873302211,
				"y": -0.1225844677,
				"z": -3.5215877409,
				"element": "C" 
			},
			{
				"x": -0.5985264763,
				"y": 0.9544956094,
				"z": -2.7830568993,
				"element": "C" 
			},
			{
				"x": -0.1855212531,
				"y": 0.7231097734,
				"z": -1.4715162701,
				"element": "C" 
			},
			{
				"x": -1.0461389321,
				"y": -2.2396129807,
				"z": 4.0173730062,
				"element": "H" 
			},
			{
				"x": 0.2217890314,
				"y": -3.0876487773,
				"z": 3.2931391826,
				"element": "H" 
			},
			{
				"x": -1.8200057085,
				"y": -0.5604253161,
				"z": 1.1737360768,
				"element": "H" 
			},
			{
				"x": 0.7477661986,
				"y": -0.0262666271,
				"z": 0.863184608,
				"element": "H" 
			},
			{
				"x": 0.7759366097,
				"y": -1.7560647765,
				"z": 0.5125830322,
				"element": "H" 
			},
			{
				"x": -0.867722971,
				"y": -2.5939752572,
				"z": -1.4044581649,
				"element": "H" 
			},
			{
				"x": -1.4167999694,
				"y": 0.0189845453,
				"z": -4.549472349,
				"element": "H" 
			},
			{
				"x": -0.541119632,
				"y": 1.9445919717,
				"z": -3.2244040884,
				"element": "H" 
			},
			{
				"x": 0.2076328937,
				"y": 1.5357948746,
				"z": -0.8645099316,
				"element": "H" 
			}
		],
		 "valence_orbital": [ 
			{
				"type": "occ",
				"energy": -0.31286,
				"method": "rhf"
			},
			{
				"type": "occ",
				"energy": -0.29307,
				"method": "rhf"
			},
			{
				"type": "occ",
				"energy": -0.27787,
				"method": "rhf"
			},
			{
				"type": "occ",
				"energy": -0.26101,
				"method": "rhf"
			},
			{
				"type": "occ",
				"energy": -0.25332,
				"method": "rhf"
			},
			{
				"type": "unocc",
				"energy": -0.03052,
				"method": "rhf"
			},
			{
				"type": "unocc",
				"energy": -0.02429,
				"method": "rhf"
			},
			{
				"type": "unocc",
				"energy": 0.04392,
				"method": "rhf"
			},
			{
				"type": "unocc",
				"energy": 0.0751,
				"method": "rhf"
			},
			{
				"type": "unocc",
				"energy": 0.08481,
				"method": "rhf"
			}
		],
		"cosmo_sigma_profile": { 
			"-0.025": 0.0,
			"-0.024": 0.0,
			"-0.023": 0.0,
			"-0.022": 0.0,
			"-0.021": 0.0,
			"-0.02": 0.0,
			"-0.019": 0.0,
			"-0.018": 0.0,
			"-0.017": 0.0,
			"-0.016": 0.174416373929,
			"-0.015": 2.58839248821,
			"-0.014": 2.8111293502,
			"-0.013": 3.44922417121,
			"-0.012": 4.26906693505,
			"-0.011": 2.45437181549,
			"-0.01": 3.21085300873,
			"-0.009": 2.54196153959,
			"-0.008": 3.39868802236,
			"-0.007": 8.73841025294,
			"-0.006": 13.5190867028,
			"-0.005": 14.1650002117,
			"-0.004": 10.3792461326,
			"-0.003": 11.9582747855,
			"-0.002": 10.322133105,
			"-0.001": 9.46842907335,
			"0.0": 10.4971107169,
			"0.001": 10.7784818897,
			"0.002": 13.3092087224,
			"0.003": 9.75072914639,
			"0.004": 5.93611748883,
			"0.005": 6.42224029727,
			"0.006": 5.24456272136,
			"0.007": 5.59271219785,
			"0.008": 6.9624432054,
			"0.009": 5.86081666734,
			"0.01": 9.29562210343,
			"0.011": 10.0315481452,
			"0.012": 3.08970239089,
			"0.013": 0.775215847634,
			"0.014": 1.05621242437,
			"0.015": 1.04562301592,
			"0.016": 0.630467414836,
			"0.017": 0.542631842646,
			"0.018": 0.0,
			"0.019": 0.0,
			"0.02": 0.0,
			"0.021": 0.0,
			"0.022": 0.0,
			"0.023": 0.0,
			"0.024": 0.0,
			"0.025": 0.0
		}
	}
}
