{
	 "smiles": "OC(=O)C1=C(CSC2=NCCS2)C2=C(O1)C=CC=C2", 
	 "Tm": 464.15, 
	 "num_atms": 30, 
	 "gaussian": { 
		 "optdone": 1, 
		 "sigma_profile": "yes", 
		 "theory": "DFT", 
		 "functional": "B3LYP", 
		 "basiset": "6-31G**", 
		 "properties": { 
			 "R2extent": 7258.4124, 
			 "electric_dipole_moment_norm": 4.07121670389, 
			 "electric_quadrupole_moment_norm": 15.2206835687, 
			 "total_energy": -1578.80414716, 
			 "HOMO_LUMO_gap": 0.16753, 
			 "cosmo_polarized_energy": -16.29, 
			 "cosmo_cavitation_energy": 37.33, 
			 "cosmo_dispersion_energy": -27.26, 
			 "cosmo_repulsion_energy": 2.04, 
			 "cosmo_total_nonelectrostatic_energy": 12.11, 
			 "SMD_solvation_energy": 5.12 
		},
		"coords": [
			{
				"x": -3.2609898089,
				"y": -0.7392689535,
				"z": -2.6715230481,
				"element": "O" 
			},
			{
				"x": -2.5606510039,
				"y": -0.9726283421,
				"z": -1.5363448078,
				"element": "C" 
			},
			{
				"x": -2.9391005657,
				"y": -1.7793521803,
				"z": -0.7166906247,
				"element": "O" 
			},
			{
				"x": -1.3198509838,
				"y": -0.1863977523,
				"z": -1.3960524869,
				"element": "C" 
			},
			{
				"x": -0.4239191575,
				"y": -0.06253495,
				"z": -0.3711415773,
				"element": "C" 
			},
			{
				"x": -0.4988126359,
				"y": -0.7540949938,
				"z": 0.9514641002,
				"element": "C" 
			},
			{
				"x": -0.4535425098,
				"y": 0.3645612111,
				"z": 2.4228439618,
				"element": "S" 
			},
			{
				"x": -2.0921660248,
				"y": 1.0266710923,
				"z": 2.404764803,
				"element": "C" 
			},
			{
				"x": -2.9357682441,
				"y": 0.887491194,
				"z": 1.4669358066,
				"element": "N" 
			},
			{
				"x": -4.2364701778,
				"y": 1.458849461,
				"z": 1.8139972314,
				"element": "C" 
			},
			{
				"x": -4.0736303381,
				"y": 2.5027575643,
				"z": 2.9450552499,
				"element": "C" 
			},
			{
				"x": -2.5845461518,
				"y": 1.9531248696,
				"z": 3.8780915421,
				"element": "S" 
			},
			{
				"x": 0.5954506071,
				"y": 0.8443790954,
				"z": -0.8520542103,
				"element": "C" 
			},
			{
				"x": 0.2125378008,
				"y": 1.2033486599,
				"z": -2.1569961104,
				"element": "C" 
			},
			{
				"x": -0.9578448861,
				"y": 0.5788241382,
				"z": -2.4939780594,
				"element": "O" 
			},
			{
				"x": 0.9405001928,
				"y": 2.0643635482,
				"z": -2.9699227073,
				"element": "C" 
			},
			{
				"x": 2.1125927091,
				"y": 2.5824444719,
				"z": -2.4234977951,
				"element": "C" 
			},
			{
				"x": 2.5261721373,
				"y": 2.2454121212,
				"z": -1.1192094467,
				"element": "C" 
			},
			{
				"x": 1.7809599413,
				"y": 1.3829043103,
				"z": -0.3232818699,
				"element": "C" 
			},
			{
				"x": -2.8004695498,
				"y": -0.0718528273,
				"z": -3.2047439727,
				"element": "H" 
			},
			{
				"x": 0.3771413433,
				"y": -1.3938572122,
				"z": 1.1039590778,
				"element": "H" 
			},
			{
				"x": -1.3990711539,
				"y": -1.365258941,
				"z": 1.0056141953,
				"element": "H" 
			},
			{
				"x": -4.6901014152,
				"y": 1.914318326,
				"z": 0.9279997734,
				"element": "H" 
			},
			{
				"x": -4.8934255441,
				"y": 0.6383645721,
				"z": 2.1325996916,
				"element": "H" 
			},
			{
				"x": -3.8921449153,
				"y": 3.5060911301,
				"z": 2.550960962,
				"element": "H" 
			},
			{
				"x": -4.9330459308,
				"y": 2.531594762,
				"z": 3.6169953849,
				"element": "H" 
			},
			{
				"x": 0.6089550075,
				"y": 2.3132339614,
				"z": -3.9718889262,
				"element": "H" 
			},
			{
				"x": 2.7192439477,
				"y": 3.2608627898,
				"z": -3.0154485038,
				"element": "H" 
			},
			{
				"x": 3.4450845464,
				"y": 2.6724110349,
				"z": -0.7295895563,
				"element": "H" 
			},
			{
				"x": 2.1024127639,
				"y": 1.1389378389,
				"z": 0.6834819233,
				"element": "H" 
			}
		],
		 "valence_orbital": [ 
			{
				"type": "occ",
				"energy": -0.26817,
				"method": "rhf"
			},
			{
				"type": "occ",
				"energy": -0.2551,
				"method": "rhf"
			},
			{
				"type": "occ",
				"energy": -0.24626,
				"method": "rhf"
			},
			{
				"type": "occ",
				"energy": -0.23722,
				"method": "rhf"
			},
			{
				"type": "occ",
				"energy": -0.23094,
				"method": "rhf"
			},
			{
				"type": "unocc",
				"energy": -0.06341,
				"method": "rhf"
			},
			{
				"type": "unocc",
				"energy": -0.0064,
				"method": "rhf"
			},
			{
				"type": "unocc",
				"energy": -0.00291,
				"method": "rhf"
			},
			{
				"type": "unocc",
				"energy": 0.00015,
				"method": "rhf"
			},
			{
				"type": "unocc",
				"energy": 0.00938,
				"method": "rhf"
			}
		],
		"cosmo_sigma_profile": { 
			"-0.025": 0.0,
			"-0.024": 0.0,
			"-0.023": 0.0,
			"-0.022": 0.0,
			"-0.021": 0.0,
			"-0.02": 0.0,
			"-0.019": 0.0,
			"-0.018": 0.0,
			"-0.017": 0.318116349851,
			"-0.016": 0.436193045391,
			"-0.015": 0.387480668956,
			"-0.014": 0.662317181987,
			"-0.013": 1.16269269125,
			"-0.012": 0.522401102528,
			"-0.011": 0.891038886578,
			"-0.01": 0.966761676959,
			"-0.009": 1.57526716056,
			"-0.008": 5.48387186356,
			"-0.007": 8.7615782064,
			"-0.006": 18.5258541434,
			"-0.005": 24.4361999648,
			"-0.004": 22.3840700328,
			"-0.003": 22.1045508118,
			"-0.002": 17.6440031883,
			"-0.001": 17.0196207979,
			"0.0": 20.5803569541,
			"0.001": 19.6106858523,
			"0.002": 22.8202566619,
			"0.003": 23.0346674261,
			"0.004": 20.4309254513,
			"0.005": 12.878041469,
			"0.006": 8.1258917577,
			"0.007": 6.52366833141,
			"0.008": 5.71688908146,
			"0.009": 5.10229531561,
			"0.01": 6.05944100424,
			"0.011": 4.99747157133,
			"0.012": 2.82762558409,
			"0.013": 0.950192126362,
			"0.014": 0.0,
			"0.015": 0.0,
			"0.016": 0.0,
			"0.017": 0.0,
			"0.018": 0.0,
			"0.019": 0.0,
			"0.02": 0.0,
			"0.021": 0.0,
			"0.022": 0.0,
			"0.023": 0.0,
			"0.024": 0.0,
			"0.025": 0.0
		}
	}
}
