{
	 "smiles": "CCN1CCC2=C(C1)C(C(O)=O)=C1C=CC=CC1=N2", 
	 "Tm": 552.15, 
	 "num_atms": 35, 
	 "gaussian": { 
		 "optdone": 1, 
		 "sigma_profile": "yes", 
		 "theory": "DFT", 
		 "functional": "B3LYP", 
		 "basiset": "6-31G**", 
		 "properties": { 
			 "R2extent": 5831.5, 
			 "electric_dipole_moment_norm": 1.18237213262, 
			 "electric_quadrupole_moment_norm": 13.3172139425, 
			 "total_energy": -841.209993575, 
			 "HOMO_LUMO_gap": 0.14136, 
			 "cosmo_polarized_energy": -12.21, 
			 "cosmo_cavitation_energy": 36.58, 
			 "cosmo_dispersion_energy": -26.77, 
			 "cosmo_repulsion_energy": 2.04, 
			 "cosmo_total_nonelectrostatic_energy": 11.85, 
			 "SMD_solvation_energy": 2.65 
		},
		"coords": [
			{
				"x": -1.8348335099,
				"y": -2.5258928965,
				"z": -3.1100239653,
				"element": "C" 
			},
			{
				"x": -1.1167659918,
				"y": -2.8485225968,
				"z": -1.7870256173,
				"element": "C" 
			},
			{
				"x": -1.1774786256,
				"y": -1.8417736692,
				"z": -0.7262862047,
				"element": "N" 
			},
			{
				"x": -2.5143410367,
				"y": -1.5723481326,
				"z": -0.2099584955,
				"element": "C" 
			},
			{
				"x": -2.3777714212,
				"y": -0.9186387001,
				"z": 1.1639552255,
				"element": "C" 
			},
			{
				"x": -1.3938964851,
				"y": 0.2314951371,
				"z": 1.1644510411,
				"element": "C" 
			},
			{
				"x": -0.4373534055,
				"y": 0.3671049211,
				"z": 0.1081343215,
				"element": "C" 
			},
			{
				"x": -0.4759856564,
				"y": -0.6076778164,
				"z": -1.058550766,
				"element": "C" 
			},
			{
				"x": 0.4781320747,
				"y": 1.4113615961,
				"z": 0.1883779446,
				"element": "C" 
			},
			{
				"x": 1.4817998441,
				"y": 1.5606145945,
				"z": -0.9135342642,
				"element": "C" 
			},
			{
				"x": 2.7326515248,
				"y": 1.8453127179,
				"z": -0.4756388581,
				"element": "O" 
			},
			{
				"x": 1.2420777057,
				"y": 1.4127139663,
				"z": -2.0950459408,
				"element": "O" 
			},
			{
				"x": 0.4239011515,
				"y": 2.3298514223,
				"z": 1.2876140144,
				"element": "C" 
			},
			{
				"x": 1.2684823047,
				"y": 3.4633729732,
				"z": 1.4544889112,
				"element": "C" 
			},
			{
				"x": 1.1119619967,
				"y": 4.3053057302,
				"z": 2.5332755757,
				"element": "C" 
			},
			{
				"x": 0.1092328773,
				"y": 4.0664962322,
				"z": 3.5033169407,
				"element": "C" 
			},
			{
				"x": -0.7286393098,
				"y": 2.9851314916,
				"z": 3.3692093095,
				"element": "C" 
			},
			{
				"x": -0.5969725058,
				"y": 2.1009093065,
				"z": 2.2649204537,
				"element": "C" 
			},
			{
				"x": -1.468424014,
				"y": 1.0600076077,
				"z": 2.1870429696,
				"element": "N" 
			},
			{
				"x": -2.9070787904,
				"y": -2.3630001784,
				"z": -2.9596174786,
				"element": "H" 
			},
			{
				"x": -1.4228290454,
				"y": -1.6352874005,
				"z": -3.5945278085,
				"element": "H" 
			},
			{
				"x": -1.7224743008,
				"y": -3.3624392534,
				"z": -3.8079499793,
				"element": "H" 
			},
			{
				"x": -1.5287447976,
				"y": -3.7774110914,
				"z": -1.3728089955,
				"element": "H" 
			},
			{
				"x": -0.0562982424,
				"y": -3.0441185112,
				"z": -1.9912507892,
				"element": "H" 
			},
			{
				"x": -3.1080202773,
				"y": -0.9220546552,
				"z": -0.8814019993,
				"element": "H" 
			},
			{
				"x": -3.0581286199,
				"y": -2.5188119377,
				"z": -0.1200904738,
				"element": "H" 
			},
			{
				"x": -2.0200276916,
				"y": -1.6695814755,
				"z": 1.8796409428,
				"element": "H" 
			},
			{
				"x": -3.3398541888,
				"y": -0.5539389103,
				"z": 1.5374191434,
				"element": "H" 
			},
			{
				"x": -0.9250228686,
				"y": -0.0767982771,
				"z": -1.9181973611,
				"element": "H" 
			},
			{
				"x": 0.5405154812,
				"y": -0.8636878015,
				"z": -1.3723841054,
				"element": "H" 
			},
			{
				"x": 3.2811578677,
				"y": 1.9092515098,
				"z": -1.2765986662,
				"element": "H" 
			},
			{
				"x": 2.0468736044,
				"y": 3.6609145014,
				"z": 0.7294966873,
				"element": "H" 
			},
			{
				"x": 1.7676723674,
				"y": 5.1646321917,
				"z": 2.639951893,
				"element": "H" 
			},
			{
				"x": 0.0037398511,
				"y": 4.7408360097,
				"z": 4.3481275423,
				"element": "H" 
			},
			{
				"x": -1.5141578668,
				"y": 2.7697713946,
				"z": 4.0859688526,
				"element": "H" 
			}
		],
		 "valence_orbital": [ 
			{
				"type": "occ",
				"energy": -0.28555,
				"method": "rhf"
			},
			{
				"type": "occ",
				"energy": -0.2517,
				"method": "rhf"
			},
			{
				"type": "occ",
				"energy": -0.24333,
				"method": "rhf"
			},
			{
				"type": "occ",
				"energy": -0.23052,
				"method": "rhf"
			},
			{
				"type": "occ",
				"energy": -0.20872,
				"method": "rhf"
			},
			{
				"type": "unocc",
				"energy": -0.06736,
				"method": "rhf"
			},
			{
				"type": "unocc",
				"energy": -0.01461,
				"method": "rhf"
			},
			{
				"type": "unocc",
				"energy": -0.00751,
				"method": "rhf"
			},
			{
				"type": "unocc",
				"energy": 0.03941,
				"method": "rhf"
			},
			{
				"type": "unocc",
				"energy": 0.07109,
				"method": "rhf"
			}
		],
		"cosmo_sigma_profile": { 
			"-0.025": 0.0,
			"-0.024": 0.0,
			"-0.023": 0.0,
			"-0.022": 0.0,
			"-0.021": 0.0,
			"-0.02": 0.0,
			"-0.019": 0.0497039428224,
			"-0.018": 0.948876707056,
			"-0.017": 1.01802802847,
			"-0.016": 0.890988806339,
			"-0.015": 0.768448035841,
			"-0.014": 0.723242482581,
			"-0.013": 0.348191463972,
			"-0.012": 0.75604587999,
			"-0.011": 1.32952197727,
			"-0.01": 0.635285691974,
			"-0.009": 0.333651140759,
			"-0.008": 0.744450941471,
			"-0.007": 1.59732441582,
			"-0.006": 6.96265617764,
			"-0.005": 12.3629079737,
			"-0.004": 21.9932015955,
			"-0.003": 30.5471851594,
			"-0.002": 36.8793958083,
			"-0.001": 29.4359632389,
			"0.0": 25.0943712993,
			"0.001": 24.1468166454,
			"0.002": 19.0582115596,
			"0.003": 16.0810139946,
			"0.004": 15.9603843499,
			"0.005": 7.11230161665,
			"0.006": 5.42306097767,
			"0.007": 5.09662019203,
			"0.008": 4.39158667091,
			"0.009": 4.16399279789,
			"0.01": 3.71506495007,
			"0.011": 5.17961231762,
			"0.012": 1.74512607609,
			"0.013": 1.62416298779,
			"0.014": 1.06305954537,
			"0.015": 0.440800198439,
			"0.016": 0.204519461821,
			"0.017": 0.0,
			"0.018": 0.0,
			"0.019": 0.0,
			"0.02": 0.0,
			"0.021": 0.0,
			"0.022": 0.0,
			"0.023": 0.0,
			"0.024": 0.0,
			"0.0": 0.0
		}
	}
}
