{
	 "smiles": "N1C2=C(C=C1C1=CC=CC=C1)C=CC=C2", 
	 "Tm": 463.15, 
	 "num_atms": 26, 
	 "gaussian": { 
		 "optdone": 1, 
		 "sigma_profile": "yes", 
		 "theory": "DFT", 
		 "functional": "B3LYP", 
		 "basiset": "6-31G**", 
		 "properties": { 
			 "R2extent": 4353.8162, 
			 "electric_dipole_moment_norm": 1.93980568357, 
			 "electric_quadrupole_moment_norm": 8.8325572288, 
			 "total_energy": -594.885720566, 
			 "HOMO_LUMO_gap": 0.16025, 
			 "cosmo_polarized_energy": -9.4, 
			 "cosmo_cavitation_energy": 29.78, 
			 "cosmo_dispersion_energy": -22.18, 
			 "cosmo_repulsion_energy": 1.69, 
			 "cosmo_total_nonelectrostatic_energy": 9.3, 
			 "SMD_solvation_energy": 4.42 
		},
		"coords": [
			{
				"x": 0.7686100924,
				"y": -0.5394420575,
				"z": 0.8971793219,
				"element": "N" 
			},
			{
				"x": -0.2759377074,
				"y": 0.2416880176,
				"z": 1.3483158317,
				"element": "C" 
			},
			{
				"x": -0.4812555326,
				"y": 1.2693006246,
				"z": 0.3845460325,
				"element": "C" 
			},
			{
				"x": 0.5035685567,
				"y": 1.0802753288,
				"z": -0.6382505497,
				"element": "C" 
			},
			{
				"x": 1.262009039,
				"y": -0.0208638379,
				"z": -0.2964630951,
				"element": "C" 
			},
			{
				"x": 2.385571967,
				"y": -0.6482181735,
				"z": -0.9954598122,
				"element": "C" 
			},
			{
				"x": 2.6827671947,
				"y": -2.0131371162,
				"z": -0.8281985291,
				"element": "C" 
			},
			{
				"x": 3.7574841881,
				"y": -2.5974988953,
				"z": -1.4966850952,
				"element": "C" 
			},
			{
				"x": 4.55244787,
				"y": -1.8347484568,
				"z": -2.3536601689,
				"element": "C" 
			},
			{
				"x": 4.2635289422,
				"y": -0.4793040841,
				"z": -2.5340795637,
				"element": "C" 
			},
			{
				"x": 3.1976871711,
				"y": 0.1094284352,
				"z": -1.8592107347,
				"element": "C" 
			},
			{
				"x": -1.5190345481,
				"y": 2.1962868216,
				"z": 0.5929373194,
				"element": "C" 
			},
			{
				"x": -2.2978528443,
				"y": 2.0898963193,
				"z": 1.7377458832,
				"element": "C" 
			},
			{
				"x": -2.0666057778,
				"y": 1.0709291853,
				"z": 2.685619867,
				"element": "C" 
			},
			{
				"x": -1.0555747859,
				"y": 0.1333825808,
				"z": 2.5041846016,
				"element": "C" 
			},
			{
				"x": 1.2429146635,
				"y": -1.2380400017,
				"z": 1.4464207737,
				"element": "H" 
			},
			{
				"x": 0.6104978813,
				"y": 1.6583270862,
				"z": -1.5451212635,
				"element": "H" 
			},
			{
				"x": 2.0486913407,
				"y": -2.630543664,
				"z": -0.1977208537,
				"element": "H" 
			},
			{
				"x": 3.9662045363,
				"y": -3.6542927576,
				"z": -1.3560107486,
				"element": "H" 
			},
			{
				"x": 5.3882267995,
				"y": -2.2907399401,
				"z": -2.8759788792,
				"element": "H" 
			},
			{
				"x": 4.879288053,
				"y": 0.1246918115,
				"z": -3.1945037025,
				"element": "H" 
			},
			{
				"x": 2.9978602796,
				"y": 1.1695139114,
				"z": -1.9806618182,
				"element": "H" 
			},
			{
				"x": -1.7035486699,
				"y": 2.9859314324,
				"z": -0.1302078858,
				"element": "H" 
			},
			{
				"x": -3.0993101479,
				"y": 2.8022762779,
				"z": 1.9106797339,
				"element": "H" 
			},
			{
				"x": -2.6914884788,
				"y": 1.0154095743,
				"z": 3.5721977005,
				"element": "H" 
			},
			{
				"x": -0.8816500824,
				"y": -0.6540084224,
				"z": 3.2323856351,
				"element": "H" 
			}
		],
		 "valence_orbital": [ 
			{
				"type": "occ",
				"energy": -0.27894,
				"method": "rhf"
			},
			{
				"type": "occ",
				"energy": -0.26016,
				"method": "rhf"
			},
			{
				"type": "occ",
				"energy": -0.25512,
				"method": "rhf"
			},
			{
				"type": "occ",
				"energy": -0.21341,
				"method": "rhf"
			},
			{
				"type": "occ",
				"energy": -0.19381,
				"method": "rhf"
			},
			{
				"type": "unocc",
				"energy": -0.03356,
				"method": "rhf"
			},
			{
				"type": "unocc",
				"energy": -0.00606,
				"method": "rhf"
			},
			{
				"type": "unocc",
				"energy": 0.01699,
				"method": "rhf"
			},
			{
				"type": "unocc",
				"energy": 0.03308,
				"method": "rhf"
			},
			{
				"type": "unocc",
				"energy": 0.07538,
				"method": "rhf"
			}
		],
		"cosmo_sigma_profile": { 
			"-0.025": 0.0,
			"-0.024": 0.0,
			"-0.023": 0.0,
			"-0.022": 0.0,
			"-0.021": 0.0,
			"-0.02": 0.0,
			"-0.019": 0.0,
			"-0.018": 0.0,
			"-0.017": 0.0,
			"-0.016": 0.00112754914557,
			"-0.015": 0.643850542035,
			"-0.014": 1.5463271647,
			"-0.013": 0.778383631889,
			"-0.012": 1.46502465339,
			"-0.011": 1.31699285993,
			"-0.01": 1.74318737613,
			"-0.009": 1.23563434232,
			"-0.008": 1.61989235889,
			"-0.007": 1.83847218917,
			"-0.006": 9.43131370501,
			"-0.005": 19.3204805939,
			"-0.004": 20.8288375005,
			"-0.003": 19.3454787876,
			"-0.002": 15.9911378315,
			"-0.001": 13.4120951151,
			"0.0": 13.1292595939,
			"0.001": 12.6085325643,
			"0.002": 14.1200375328,
			"0.003": 17.3406330534,
			"0.004": 21.0798705196,
			"0.005": 23.5876702688,
			"0.006": 17.8662067864,
			"0.007": 8.38078686265,
			"0.008": 0.567886514972,
			"0.009": 0.0,
			"0.01": 0.0,
			"0.011": 0.0,
			"0.012": 0.0,
			"0.013": 0.0,
			"0.014": 0.0,
			"0.015": 0.0,
			"0.016": 0.0,
			"0.017": 0.0,
			"0.018": 0.0,
			"0.019": 0.0,
			"0.02": 0.0,
			"0.021": 0.0,
			"0.022": 0.0,
			"0.023": 0.0,
			"0.024": 0.0,
			"0.025": 0.0
		}
	}
}
