{
	 "smiles": "COC(=O)C1=C(N)C(=NS1)C1=CC=CC=C1", 
	 "Tm": 388.15, 
	 "num_atms": 26, 
	 "gaussian": { 
		 "optdone": 1, 
		 "sigma_profile": "yes", 
		 "theory": "DFT", 
		 "functional": "B3LYP", 
		 "basiset": "6-31G**", 
		 "properties": { 
			 "R2extent": 5363.394, 
			 "electric_dipole_moment_norm": 4.94290246212, 
			 "electric_quadrupole_moment_norm": 18.4925980238, 
			 "total_energy": -1083.33695839, 
			 "HOMO_LUMO_gap": 0.15486, 
			 "cosmo_polarized_energy": -12.98, 
			 "cosmo_cavitation_energy": 31.98, 
			 "cosmo_dispersion_energy": -24.11, 
			 "cosmo_repulsion_energy": 1.83, 
			 "cosmo_total_nonelectrostatic_energy": 9.7, 
			 "SMD_solvation_energy": 5.4 
		},
		"coords": [
			{
				"x": -1.3758107199,
				"y": -4.1489938432,
				"z": -3.6844263898,
				"element": "C" 
			},
			{
				"x": -0.9035044109,
				"y": -3.1020828104,
				"z": -2.8183184065,
				"element": "O" 
			},
			{
				"x": -0.4757006077,
				"y": -1.9744878122,
				"z": -3.4594565863,
				"element": "C" 
			},
			{
				"x": -0.4938797117,
				"y": -1.8573117933,
				"z": -4.6704754382,
				"element": "O" 
			},
			{
				"x": -0.0129836139,
				"y": -0.9483744119,
				"z": -2.5334012513,
				"element": "C" 
			},
			{
				"x": 0.0564933128,
				"y": -0.9353727398,
				"z": -1.1460260029,
				"element": "C" 
			},
			{
				"x": -0.2687490091,
				"y": -1.9750365186,
				"z": -0.3053763944,
				"element": "N" 
			},
			{
				"x": 0.5510054199,
				"y": 0.3526227485,
				"z": -0.691274488,
				"element": "C" 
			},
			{
				"x": 0.8123314994,
				"y": 1.2290060032,
				"z": -1.6455797676,
				"element": "N" 
			},
			{
				"x": 0.5216405588,
				"y": 0.58821324,
				"z": -3.1532773048,
				"element": "S" 
			},
			{
				"x": 0.7387094925,
				"y": 0.7523412509,
				"z": 0.7230074985,
				"element": "C" 
			},
			{
				"x": 1.2055199623,
				"y": -0.1505670779,
				"z": 1.6942110281,
				"element": "C" 
			},
			{
				"x": 1.3905434123,
				"y": 0.2635482998,
				"z": 3.0145186693,
				"element": "C" 
			},
			{
				"x": 1.115880567,
				"y": 1.5803023827,
				"z": 3.384006985,
				"element": "C" 
			},
			{
				"x": 0.6635134058,
				"y": 2.4880037732,
				"z": 2.4219159292,
				"element": "C" 
			},
			{
				"x": 0.4775582027,
				"y": 2.0799998742,
				"z": 1.104036782,
				"element": "C" 
			},
			{
				"x": -2.233476162,
				"y": -3.8069063584,
				"z": -4.2684645482,
				"element": "H" 
			},
			{
				"x": -0.5853355728,
				"y": -4.4645494263,
				"z": -4.3690382095,
				"element": "H" 
			},
			{
				"x": -1.6622683384,
				"y": -4.9687400411,
				"z": -3.0256012778,
				"element": "H" 
			},
			{
				"x": -0.793585882,
				"y": -2.7228658811,
				"z": -0.7383502557,
				"element": "H" 
			},
			{
				"x": -0.5673156692,
				"y": -1.714240238,
				"z": 0.6237971688,
				"element": "H" 
			},
			{
				"x": 1.457447939,
				"y": -1.167363874,
				"z": 1.4103439207,
				"element": "H" 
			},
			{
				"x": 1.7605338936,
				"y": -0.4437308714,
				"z": 3.7513465209,
				"element": "H" 
			},
			{
				"x": 1.2576811041,
				"y": 1.8999206391,
				"z": 4.4123235404,
				"element": "H" 
			},
			{
				"x": 0.4530912283,
				"y": 3.5164646742,
				"z": 2.7011113719,
				"element": "H" 
			},
			{
				"x": 0.1309596994,
				"y": 2.780000812,
				"z": 0.3512469064,
				"element": "H" 
			}
		],
		 "valence_orbital": [ 
			{
				"type": "occ",
				"energy": -0.28479,
				"method": "rhf"
			},
			{
				"type": "occ",
				"energy": -0.28152,
				"method": "rhf"
			},
			{
				"type": "occ",
				"energy": -0.25757,
				"method": "rhf"
			},
			{
				"type": "occ",
				"energy": -0.24454,
				"method": "rhf"
			},
			{
				"type": "occ",
				"energy": -0.21515,
				"method": "rhf"
			},
			{
				"type": "unocc",
				"energy": -0.06029,
				"method": "rhf"
			},
			{
				"type": "unocc",
				"energy": -0.0214,
				"method": "rhf"
			},
			{
				"type": "unocc",
				"energy": -0.00943,
				"method": "rhf"
			},
			{
				"type": "unocc",
				"energy": 0.01976,
				"method": "rhf"
			},
			{
				"type": "unocc",
				"energy": 0.04805,
				"method": "rhf"
			}
		],
		"cosmo_sigma_profile": { 
			"-0.025": 0.0,
			"-0.024": 0.0,
			"-0.023": 0.0,
			"-0.022": 0.0,
			"-0.021": 0.0,
			"-0.02": 0.0,
			"-0.019": 0.0,
			"-0.018": 0.0,
			"-0.017": 0.0,
			"-0.016": 0.0,
			"-0.015": 0.0,
			"-0.014": 0.0,
			"-0.013": 0.376012829389,
			"-0.012": 1.03274572048,
			"-0.011": 1.89024364265,
			"-0.01": 2.21184769982,
			"-0.009": 2.0639392505,
			"-0.008": 2.07094681217,
			"-0.007": 3.47416780531,
			"-0.006": 12.6785494002,
			"-0.005": 19.237081163,
			"-0.004": 22.2520200927,
			"-0.003": 18.7516735479,
			"-0.002": 17.0226941959,
			"-0.001": 19.8963818639,
			"0.0": 20.1678323433,
			"0.001": 22.7691329235,
			"0.002": 18.5058164767,
			"0.003": 19.0619644876,
			"0.004": 15.4219883616,
			"0.005": 13.1380902581,
			"0.006": 3.66271382349,
			"0.007": 3.7480694242,
			"0.008": 3.27947449237,
			"0.009": 3.2141199389,
			"0.01": 2.89737490245,
			"0.011": 4.44380407847,
			"0.012": 4.58102021918,
			"0.013": 0.764522098793,
			"0.014": 0.0764746463556,
			"0.015": 0.0,
			"0.016": 0.0,
			"0.017": 0.0,
			"0.018": 0.0,
			"0.019": 0.0,
			"0.02": 0.0,
			"0.021": 0.0,
			"0.022": 0.0,
			"0.023": 0.0,
			"0.024": 0.0,
			"0.025": 0.0
		}
	}
}
