{
	 "smiles": "COC1=CC(=CC(OC)=C1OC)C1=NN=C2SC(=NN12)C1=CC=CN=C1", 
	 "Tm": 448.0, 
	 "num_atms": 41, 
	 "gaussian": { 
		 "optdone": 1, 
		 "sigma_profile": "yes", 
		 "theory": "DFT", 
		 "functional": "B3LYP", 
		 "basiset": "6-31G**", 
		 "properties": { 
			 "R2extent": 14600.6518, 
			 "electric_dipole_moment_norm": 2.89522120226, 
			 "electric_quadrupole_moment_norm": 37.8813734767, 
			 "total_energy": -1554.35232985, 
			 "HOMO_LUMO_gap": 0.12688, 
			 "cosmo_polarized_energy": -20.06, 
			 "cosmo_cavitation_energy": 47.9, 
			 "cosmo_dispersion_energy": -34.29, 
			 "cosmo_repulsion_energy": 2.52, 
			 "cosmo_total_nonelectrostatic_energy": 16.14, 
			 "SMD_solvation_energy": 6.15 
		},
		"coords": [
			{
				"x": -4.1661625013,
				"y": -1.9711405699,
				"z": -0.6939395303,
				"element": "C" 
			},
			{
				"x": -3.033453635,
				"y": -1.7876488449,
				"z": -1.5327966871,
				"element": "O" 
			},
			{
				"x": -1.9171823787,
				"y": -1.2275817233,
				"z": -0.985897482,
				"element": "C" 
			},
			{
				"x": -1.815371712,
				"y": -0.8003263003,
				"z": 0.3352284232,
				"element": "C" 
			},
			{
				"x": -0.6151401076,
				"y": -0.2296858542,
				"z": 0.7982064085,
				"element": "C" 
			},
			{
				"x": 0.4796230794,
				"y": -0.1009771895,
				"z": -0.0613298551,
				"element": "C" 
			},
			{
				"x": 0.3723206229,
				"y": -0.5226889315,
				"z": -1.3901743056,
				"element": "C" 
			},
			{
				"x": 1.4443747865,
				"y": -0.3148877755,
				"z": -2.2219430308,
				"element": "O" 
			},
			{
				"x": 2.0850012492,
				"y": -1.4929918685,
				"z": -2.7231386578,
				"element": "C" 
			},
			{
				"x": -0.8192900936,
				"y": -1.0850624337,
				"z": -1.8665450416,
				"element": "C" 
			},
			{
				"x": -0.8959532903,
				"y": -1.526982433,
				"z": -3.163038755,
				"element": "O" 
			},
			{
				"x": -1.6565338611,
				"y": -0.691408889,
				"z": -4.043127543,
				"element": "C" 
			},
			{
				"x": -0.5682209746,
				"y": 0.2022472739,
				"z": 2.1944044795,
				"element": "C" 
			},
			{
				"x": -1.559254041,
				"y": 0.0902555504,
				"z": 3.0671017854,
				"element": "N" 
			},
			{
				"x": -1.1761574921,
				"y": 0.5987659216,
				"z": 4.2979037502,
				"element": "N" 
			},
			{
				"x": 0.0515554631,
				"y": 1.0111882695,
				"z": 4.134615367,
				"element": "C" 
			},
			{
				"x": 1.3264459848,
				"y": 1.7680293056,
				"z": 5.0607254715,
				"element": "S" 
			},
			{
				"x": 2.3370461204,
				"y": 1.6924526058,
				"z": 3.5776032273,
				"element": "C" 
			},
			{
				"x": 1.7668517151,
				"y": 1.169686827,
				"z": 2.532615726,
				"element": "N" 
			},
			{
				"x": 0.4960605505,
				"y": 0.7971797109,
				"z": 2.8479785642,
				"element": "N" 
			},
			{
				"x": 3.7088567627,
				"y": 2.206604514,
				"z": 3.559122896,
				"element": "C" 
			},
			{
				"x": 4.3967793371,
				"y": 2.5431578781,
				"z": 4.7324268896,
				"element": "C" 
			},
			{
				"x": 5.6982731875,
				"y": 3.0245473117,
				"z": 4.6355046709,
				"element": "C" 
			},
			{
				"x": 6.2706539598,
				"y": 3.1492570383,
				"z": 3.3689656034,
				"element": "C" 
			},
			{
				"x": 5.6297808948,
				"y": 2.8347397611,
				"z": 2.2343624713,
				"element": "N" 
			},
			{
				"x": 4.3817890462,
				"y": 2.378707148,
				"z": 2.3332729463,
				"element": "C" 
			},
			{
				"x": -4.5448639647,
				"y": -1.0155362417,
				"z": -0.310490336,
				"element": "H" 
			},
			{
				"x": -3.9367943565,
				"y": -2.6305116453,
				"z": 0.1519664976,
				"element": "H" 
			},
			{
				"x": -4.9283783933,
				"y": -2.4378036322,
				"z": -1.3195274776,
				"element": "H" 
			},
			{
				"x": -2.6408336145,
				"y": -0.8931255856,
				"z": 1.0281551224,
				"element": "H" 
			},
			{
				"x": 1.4147275827,
				"y": 0.3337434978,
				"z": 0.2674206896,
				"element": "H" 
			},
			{
				"x": 2.4758814045,
				"y": -2.1034898629,
				"z": -1.8987866912,
				"element": "H" 
			},
			{
				"x": 2.9184293531,
				"y": -1.1450739272,
				"z": -3.3370814646,
				"element": "H" 
			},
			{
				"x": 1.4012977587,
				"y": -2.0910667373,
				"z": -3.3312540072,
				"element": "H" 
			},
			{
				"x": -2.7014291326,
				"y": -0.6313881381,
				"z": -3.7234092538,
				"element": "H" 
			},
			{
				"x": -1.6038534158,
				"y": -1.159388239,
				"z": -5.0282601111,
				"element": "H" 
			},
			{
				"x": -1.2242931063,
				"y": 0.315017123,
				"z": -4.0947138223,
				"element": "H" 
			},
			{
				"x": 3.9303818776,
				"y": 2.4216101134,
				"z": 5.7062188217,
				"element": "H" 
			},
			{
				"x": 6.261200226,
				"y": 3.2929250024,
				"z": 5.5232762394,
				"element": "H" 
			},
			{
				"x": 7.2882425798,
				"y": 3.5182290189,
				"z": 3.2579409645,
				"element": "H" 
			},
			{
				"x": 3.8723925285,
				"y": 2.1372229515,
				"z": 1.4042370362,
				"element": "H" 
			}
		],
		 "valence_orbital": [ 
			{
				"type": "occ",
				"energy": -0.26192,
				"method": "rhf"
			},
			{
				"type": "occ",
				"energy": -0.26134,
				"method": "rhf"
			},
			{
				"type": "occ",
				"energy": -0.25462,
				"method": "rhf"
			},
			{
				"type": "occ",
				"energy": -0.22509,
				"method": "rhf"
			},
			{
				"type": "occ",
				"energy": -0.21113,
				"method": "rhf"
			},
			{
				"type": "unocc",
				"energy": -0.08425,
				"method": "rhf"
			},
			{
				"type": "unocc",
				"energy": -0.04541,
				"method": "rhf"
			},
			{
				"type": "unocc",
				"energy": -0.03103,
				"method": "rhf"
			},
			{
				"type": "unocc",
				"energy": -0.01853,
				"method": "rhf"
			},
			{
				"type": "unocc",
				"energy": 0.00521,
				"method": "rhf"
			}
		],
		"cosmo_sigma_profile": { 
			"-0.025": 0.0,
			"-0.024": 0.0,
			"-0.023": 0.0,
			"-0.022": 0.0,
			"-0.021": 0.0,
			"-0.02": 0.0,
			"-0.019": 0.0,
			"-0.018": 0.0,
			"-0.017": 0.0,
			"-0.016": 0.0,
			"-0.015": 0.0,
			"-0.014": 0.0,
			"-0.013": 0.0,
			"-0.012": 0.0,
			"-0.011": 0.0,
			"-0.01": 0.402238049404,
			"-0.009": 2.20708089396,
			"-0.008": 4.61580211478,
			"-0.007": 9.48866388027,
			"-0.006": 18.5124714541,
			"-0.005": 28.8749206818,
			"-0.004": 33.6861856989,
			"-0.003": 40.4365289951,
			"-0.002": 38.0497860237,
			"-0.001": 34.1813184405,
			"0.0": 31.7732919026,
			"0.001": 29.4449343279,
			"0.002": 22.2617609281,
			"0.003": 20.86174341,
			"0.004": 11.8649707466,
			"0.005": 8.14315591867,
			"0.006": 6.30401140577,
			"0.007": 6.46092200685,
			"0.008": 5.42885912194,
			"0.009": 6.41296713943,
			"0.01": 5.79887117421,
			"0.011": 6.86756092087,
			"0.012": 5.08094414667,
			"0.013": 4.29913259942,
			"0.014": 3.37669338833,
			"0.015": 2.22901871544,
			"0.016": 0.502634970758,
			"0.017": 0.0,
			"0.018": 0.0,
			"0.019": 0.0,
			"0.02": 0.0,
			"0.021": 0.0,
			"0.022": 0.0,
			"0.023": 0.0,
			"0.024": 0.0,
			"0.025": 0.0
		}
	}
}
