{
	 "smiles": "CC(NC1=CC(C)=CC=N1)=C(C#N)C(=O)C1=CC=CC=C1", 
	 "Tm": 375.15, 
	 "num_atms": 36, 
	 "gaussian": { 
		 "optdone": 1, 
		 "sigma_profile": "yes", 
		 "theory": "DFT", 
		 "functional": "B3LYP", 
		 "basiset": "6-31G**", 
		 "properties": { 
			 "R2extent": 7681.2695, 
			 "electric_dipole_moment_norm": 2.03270660205, 
			 "electric_quadrupole_moment_norm": 15.8618525992, 
			 "total_energy": -896.312722524, 
			 "HOMO_LUMO_gap": 0.15401, 
			 "cosmo_polarized_energy": -17.8, 
			 "cosmo_cavitation_energy": 40.89, 
			 "cosmo_dispersion_energy": -28.11, 
			 "cosmo_repulsion_energy": 2.15, 
			 "cosmo_total_nonelectrostatic_energy": 14.92, 
			 "SMD_solvation_energy": 6.78 
		},
		"coords": [
			{
				"x": 2.5981333396,
				"y": 0.7592145288,
				"z": 0.4064958373,
				"element": "C" 
			},
			{
				"x": 1.2383490826,
				"y": 0.1825228425,
				"z": 0.0900733875,
				"element": "C" 
			},
			{
				"x": 1.2502719073,
				"y": -0.5860201939,
				"z": -1.037035084,
				"element": "N" 
			},
			{
				"x": 0.2600342397,
				"y": -0.9732239142,
				"z": -1.9673958247,
				"element": "C" 
			},
			{
				"x": -0.9213971449,
				"y": -0.258407992,
				"z": -2.1821616313,
				"element": "C" 
			},
			{
				"x": -1.8047199253,
				"y": -0.7054532983,
				"z": -3.1679714874,
				"element": "C" 
			},
			{
				"x": -3.1185758205,
				"y": -0.0023944469,
				"z": -3.3924835845,
				"element": "C" 
			},
			{
				"x": -1.4333204973,
				"y": -1.8310433402,
				"z": -3.9131524813,
				"element": "C" 
			},
			{
				"x": -0.208360627,
				"y": -2.4404092627,
				"z": -3.6507187261,
				"element": "C" 
			},
			{
				"x": 0.6335502576,
				"y": -2.0313101988,
				"z": -2.6975628622,
				"element": "N" 
			},
			{
				"x": 0.1290931482,
				"y": 0.3848388004,
				"z": 0.9069098548,
				"element": "C" 
			},
			{
				"x": -1.0347457892,
				"y": -0.421655684,
				"z": 0.7605097027,
				"element": "C" 
			},
			{
				"x": -1.9875297265,
				"y": -1.0857607644,
				"z": 0.6501932429,
				"element": "N" 
			},
			{
				"x": 0.1454384911,
				"y": 1.4528989915,
				"z": 1.9487076752,
				"element": "C" 
			},
			{
				"x": 0.9005808541,
				"y": 2.4179584159,
				"z": 1.8353389288,
				"element": "O" 
			},
			{
				"x": -0.7659397344,
				"y": 1.3716711306,
				"z": 3.1373900463,
				"element": "C" 
			},
			{
				"x": -1.1890587065,
				"y": 0.1625231514,
				"z": 3.7094223366,
				"element": "C" 
			},
			{
				"x": -1.975871733,
				"y": 0.1684547159,
				"z": 4.8613390537,
				"element": "C" 
			},
			{
				"x": -2.3558494177,
				"y": 1.3774319952,
				"z": 5.44597886,
				"element": "C" 
			},
			{
				"x": -1.9325352024,
				"y": 2.5865996161,
				"z": 4.8861030064,
				"element": "C" 
			},
			{
				"x": -1.13309606,
				"y": 2.5825744845,
				"z": 3.7473395825,
				"element": "C" 
			},
			{
				"x": 2.717130358,
				"y": 1.7316691311,
				"z": -0.08015326,
				"element": "H" 
			},
			{
				"x": 3.3786257961,
				"y": 0.0907700751,
				"z": 0.0255491343,
				"element": "H" 
			},
			{
				"x": 2.7434600039,
				"y": 0.9149546007,
				"z": 1.4730293729,
				"element": "H" 
			},
			{
				"x": 2.1539289183,
				"y": -0.9499989536,
				"z": -1.3156242166,
				"element": "H" 
			},
			{
				"x": -1.1496790983,
				"y": 0.6270232391,
				"z": -1.6025211947,
				"element": "H" 
			},
			{
				"x": -3.0018292422,
				"y": 1.0849544004,
				"z": -3.3498393537,
				"element": "H" 
			},
			{
				"x": -3.5558376275,
				"y": -0.2654121192,
				"z": -4.3591149768,
				"element": "H" 
			},
			{
				"x": -3.8333316642,
				"y": -0.2825283869,
				"z": -2.6098918396,
				"element": "H" 
			},
			{
				"x": -2.0807146018,
				"y": -2.219089025,
				"z": -4.6932661805,
				"element": "H" 
			},
			{
				"x": 0.1169444684,
				"y": -3.2990096924,
				"z": -4.2348859143,
				"element": "H" 
			},
			{
				"x": -0.8981184466,
				"y": -0.7842516533,
				"z": 3.2695784657,
				"element": "H" 
			},
			{
				"x": -2.2920549669,
				"y": -0.7729820916,
				"z": 5.300601928,
				"element": "H" 
			},
			{
				"x": -2.9767295534,
				"y": 1.3784023904,
				"z": 6.3374952217,
				"element": "H" 
			},
			{
				"x": -2.2223509894,
				"y": 3.5290656235,
				"z": 5.3417047194,
				"element": "H" 
			},
			{
				"x": -0.7759942899,
				"y": 3.5092228842,
				"z": 3.3108182608,
				"element": "H" 
			}
		],
		 "valence_orbital": [ 
			{
				"type": "occ",
				"energy": -0.26397,
				"method": "rhf"
			},
			{
				"type": "occ",
				"energy": -0.25818,
				"method": "rhf"
			},
			{
				"type": "occ",
				"energy": -0.25182,
				"method": "rhf"
			},
			{
				"type": "occ",
				"energy": -0.24477,
				"method": "rhf"
			},
			{
				"type": "occ",
				"energy": -0.22316,
				"method": "rhf"
			},
			{
				"type": "unocc",
				"energy": -0.06915,
				"method": "rhf"
			},
			{
				"type": "unocc",
				"energy": -0.02947,
				"method": "rhf"
			},
			{
				"type": "unocc",
				"energy": -0.02616,
				"method": "rhf"
			},
			{
				"type": "unocc",
				"energy": -0.0024,
				"method": "rhf"
			},
			{
				"type": "unocc",
				"energy": 0.00547,
				"method": "rhf"
			}
		],
		"cosmo_sigma_profile": { 
			"-0.025": 0.0,
			"-0.024": 0.0,
			"-0.023": 0.0,
			"-0.022": 0.0,
			"-0.021": 0.0,
			"-0.02": 0.0,
			"-0.019": 0.0,
			"-0.018": 0.0,
			"-0.017": 0.0,
			"-0.016": 0.04606320436,
			"-0.015": 0.91064159512,
			"-0.014": 0.979759770358,
			"-0.013": 1.21168448136,
			"-0.012": 1.04168244677,
			"-0.011": 1.03029830181,
			"-0.01": 1.09366138382,
			"-0.009": 1.43848145732,
			"-0.008": 1.73782547428,
			"-0.007": 4.48812488362,
			"-0.006": 18.437280636,
			"-0.005": 27.6833944885,
			"-0.004": 30.0880775157,
			"-0.003": 28.4801702679,
			"-0.002": 27.7352189555,
			"-0.001": 28.1547023398,
			"0.0": 20.5514955745,
			"0.001": 17.6286631808,
			"0.002": 21.2793438619,
			"0.003": 19.760914015,
			"0.004": 18.8362675364,
			"0.005": 10.1597427681,
			"0.006": 6.41366524668,
			"0.007": 5.92080156563,
			"0.008": 4.9001993557,
			"0.009": 4.32694286598,
			"0.01": 5.84277569316,
			"0.011": 5.192373234,
			"0.012": 6.0739805016,
			"0.013": 4.20748818063,
			"0.014": 1.75163525164,
			"0.015": 0.0477833141076,
			"0.016": 0.0,
			"0.017": 0.0,
			"0.018": 0.0,
			"0.019": 0.0,
			"0.02": 0.0,
			"0.021": 0.0,
			"0.022": 0.0,
			"0.023": 0.0,
			"0.024": 0.0,
			"0.025": 0.0
		}
	}
}
