{
	 "smiles": "CNCC(O)C1=CC=CC(NS(C)(=O)=O)=C1", 
	 "Tm": 432.15, 
	 "num_atms": 32, 
	 "gaussian": { 
		 "optdone": 1, 
		 "sigma_profile": "yes", 
		 "theory": "DFT", 
		 "functional": "B3LYP", 
		 "basiset": "6-31G**", 
		 "properties": { 
			 "R2extent": 5098.4667, 
			 "electric_dipole_moment_norm": 4.11084636298, 
			 "electric_quadrupole_moment_norm": 18.8766265861, 
			 "total_energy": -1123.98550782, 
			 "HOMO_LUMO_gap": 0.19019, 
			 "cosmo_polarized_energy": -22.02, 
			 "cosmo_cavitation_energy": 36.16, 
			 "cosmo_dispersion_energy": -24.69, 
			 "cosmo_repulsion_energy": 1.89, 
			 "cosmo_total_nonelectrostatic_energy": 13.36, 
			 "SMD_solvation_energy": 3.68 
		},
		"coords": [
			{
				"x": -2.0483407535,
				"y": 1.7353414895,
				"z": -0.7068610101,
				"element": "C" 
			},
			{
				"x": -1.4135855905,
				"y": 3.0341978131,
				"z": -0.5311560705,
				"element": "N" 
			},
			{
				"x": -0.8197728386,
				"y": 3.3206920126,
				"z": 0.7639051815,
				"element": "C" 
			},
			{
				"x": 0.6411408988,
				"y": 2.8636995667,
				"z": 1.0032404502,
				"element": "C" 
			},
			{
				"x": 0.9820206742,
				"y": 3.4155120222,
				"z": 2.2745882777,
				"element": "O" 
			},
			{
				"x": 0.8574817588,
				"y": 1.3606760483,
				"z": 0.9707282022,
				"element": "C" 
			},
			{
				"x": 0.5110852428,
				"y": 0.5736897986,
				"z": 2.0782744554,
				"element": "C" 
			},
			{
				"x": 0.7090237083,
				"y": -0.8052560021,
				"z": 2.0420247376,
				"element": "C" 
			},
			{
				"x": 1.2370198476,
				"y": -1.4156177393,
				"z": 0.9042394921,
				"element": "C" 
			},
			{
				"x": 1.6047350674,
				"y": -0.6325890543,
				"z": -0.1981524015,
				"element": "C" 
			},
			{
				"x": 2.2099765374,
				"y": -1.2570001918,
				"z": -1.3229456586,
				"element": "N" 
			},
			{
				"x": 1.7417088554,
				"y": -0.9934767667,
				"z": -2.9277540324,
				"element": "S" 
			},
			{
				"x": -0.0062229126,
				"y": -1.4424914038,
				"z": -2.9983542608,
				"element": "C" 
			},
			{
				"x": 1.8296840703,
				"y": 0.4398852523,
				"z": -3.2020829178,
				"element": "O" 
			},
			{
				"x": 2.5053825607,
				"y": -1.9776004744,
				"z": -3.6930218297,
				"element": "O" 
			},
			{
				"x": 1.4273063911,
				"y": 0.7574685321,
				"z": -0.1544934854,
				"element": "C" 
			},
			{
				"x": -2.4968495447,
				"y": 1.6928125482,
				"z": -1.7050818066,
				"element": "H" 
			},
			{
				"x": -2.8630924044,
				"y": 1.6322381545,
				"z": 0.0191939616,
				"element": "H" 
			},
			{
				"x": -1.3900237005,
				"y": 0.8590340364,
				"z": -0.5880824767,
				"element": "H" 
			},
			{
				"x": -0.7686338192,
				"y": 3.2355528672,
				"z": -1.2886183522,
				"element": "H" 
			},
			{
				"x": -0.8173820773,
				"y": 4.4054247547,
				"z": 0.9317244631,
				"element": "H" 
			},
			{
				"x": -1.4533564395,
				"y": 2.8846828201,
				"z": 1.5446803373,
				"element": "H" 
			},
			{
				"x": 1.2614799285,
				"y": 3.3157307918,
				"z": 0.2102075727,
				"element": "H" 
			},
			{
				"x": 1.8833978306,
				"y": 3.1385846744,
				"z": 2.4858424461,
				"element": "H" 
			},
			{
				"x": 0.1055276109,
				"y": 1.0527243759,
				"z": 2.9635577276,
				"element": "H" 
			},
			{
				"x": 0.4431193957,
				"y": -1.4158804361,
				"z": 2.9001372138,
				"element": "H" 
			},
			{
				"x": 1.377507326,
				"y": -2.4933452236,
				"z": 0.8747424365,
				"element": "H" 
			},
			{
				"x": 2.4872113701,
				"y": -2.2246909502,
				"z": -1.1976830964,
				"element": "H" 
			},
			{
				"x": -0.1082162526,
				"y": -2.5069151315,
				"z": -2.7835115842,
				"element": "H" 
			},
			{
				"x": -0.5572324718,
				"y": -0.838677691,
				"z": -2.2757346869,
				"element": "H" 
			},
			{
				"x": -0.3472995955,
				"y": -1.2242908249,
				"z": -4.0118058092,
				"element": "H" 
			},
			{
				"x": 1.7453993262,
				"y": 1.3575843312,
				"z": -0.9996474763,
				"element": "H" 
			}
		],
		 "valence_orbital": [ 
			{
				"type": "occ",
				"energy": -0.30788,
				"method": "rhf"
			},
			{
				"type": "occ",
				"energy": -0.28227,
				"method": "rhf"
			},
			{
				"type": "occ",
				"energy": -0.26018,
				"method": "rhf"
			},
			{
				"type": "occ",
				"energy": -0.23879,
				"method": "rhf"
			},
			{
				"type": "occ",
				"energy": -0.21131,
				"method": "rhf"
			},
			{
				"type": "unocc",
				"energy": -0.02112,
				"method": "rhf"
			},
			{
				"type": "unocc",
				"energy": -0.01803,
				"method": "rhf"
			},
			{
				"type": "unocc",
				"energy": 0.05456,
				"method": "rhf"
			},
			{
				"type": "unocc",
				"energy": 0.06169,
				"method": "rhf"
			},
			{
				"type": "unocc",
				"energy": 0.07107,
				"method": "rhf"
			}
		],
		"cosmo_sigma_profile": { 
			"-0.025": 0.0,
			"-0.024": 0.0,
			"-0.023": 0.0,
			"-0.022": 0.0,
			"-0.021": 0.0,
			"-0.02": 0.0,
			"-0.019": 0.0,
			"-0.018": 0.0,
			"-0.017": 0.0,
			"-0.016": 0.28444866719,
			"-0.015": 2.20953629253,
			"-0.014": 1.63790179081,
			"-0.013": 1.81293325974,
			"-0.012": 2.75016132295,
			"-0.011": 2.19975587669,
			"-0.01": 2.91132453769,
			"-0.009": 6.12033079505,
			"-0.008": 7.63467017051,
			"-0.007": 7.56454327124,
			"-0.006": 12.1355804608,
			"-0.005": 15.3407212173,
			"-0.004": 23.4093830136,
			"-0.003": 25.1095953376,
			"-0.002": 22.2038032878,
			"-0.001": 17.3399330378,
			"0.0": 16.5406048766,
			"0.001": 13.4829249627,
			"0.002": 11.9045603929,
			"0.003": 12.2304055621,
			"0.004": 14.7148397628,
			"0.005": 10.6512721668,
			"0.006": 5.95993667736,
			"0.007": 5.91696336671,
			"0.008": 4.43157450506,
			"0.009": 5.95911234037,
			"0.01": 9.12393421572,
			"0.011": 11.9232552861,
			"0.012": 4.8559907118,
			"0.013": 2.24784897543,
			"0.014": 1.18680439878,
			"0.015": 1.01913228708,
			"0.016": 0.392695790315,
			"0.017": 0.504614696318,
			"0.018": 0.263780275657,
			"0.019": 0.0,
			"0.02": 0.0,
			"0.021": 0.0,
			"0.022": 0.0,
			"0.023": 0.0,
			"0.024": 0.0,
			"0.025": 0.0
		}
	}
}
