{
	 "smiles": "CN(C)C(=O)C1=CC=CC=C1", 
	 "Tm": 317.15, 
	 "num_atms": 22, 
	 "gaussian": { 
		 "optdone": 1, 
		 "sigma_profile": "yes", 
		 "theory": "DFT", 
		 "functional": "B3LYP", 
		 "basiset": "6-31G**", 
		 "properties": { 
			 "R2extent": 2289.1576, 
			 "electric_dipole_moment_norm": 3.41410963649, 
			 "electric_quadrupole_moment_norm": 13.6185593309, 
			 "total_energy": -479.571169162, 
			 "HOMO_LUMO_gap": 0.20627, 
			 "cosmo_polarized_energy": -10.09, 
			 "cosmo_cavitation_energy": 25.1, 
			 "cosmo_dispersion_energy": -18.26, 
			 "cosmo_repulsion_energy": 1.47, 
			 "cosmo_total_nonelectrostatic_energy": 8.3, 
			 "SMD_solvation_energy": 4.93 
		},
		"coords": [
			{
				"x": 3.5714327427,
				"y": 1.0125244143,
				"z": -0.748090192,
				"element": "C" 
			},
			{
				"x": 2.5311031411,
				"y": 0.31535851,
				"z": -0.0031180326,
				"element": "N" 
			},
			{
				"x": 2.7693371091,
				"y": -1.1076194455,
				"z": 0.1961483517,
				"element": "C" 
			},
			{
				"x": 1.3047626992,
				"y": 0.9355385048,
				"z": 0.1179540766,
				"element": "C" 
			},
			{
				"x": 1.0647773822,
				"y": 2.009022475,
				"z": -0.4317076342,
				"element": "O" 
			},
			{
				"x": 0.2576485239,
				"y": 0.298979957,
				"z": 0.9945607995,
				"element": "C" 
			},
			{
				"x": 0.5422474753,
				"y": -0.2291073234,
				"z": 2.261774655,
				"element": "C" 
			},
			{
				"x": -0.4868823624,
				"y": -0.7101240628,
				"z": 3.0727933921,
				"element": "C" 
			},
			{
				"x": -1.8073834703,
				"y": -0.676323689,
				"z": 2.6216078034,
				"element": "C" 
			},
			{
				"x": -2.0991022576,
				"y": -0.1397714973,
				"z": 1.3646072698,
				"element": "C" 
			},
			{
				"x": -1.0745960928,
				"y": 0.3589876327,
				"z": 0.562951359,
				"element": "C" 
			},
			{
				"x": 3.3436498036,
				"y": 2.0768112443,
				"z": -0.7618480541,
				"element": "H" 
			},
			{
				"x": 3.631084723,
				"y": 0.6542821089,
				"z": -1.7853932694,
				"element": "H" 
			},
			{
				"x": 4.5414213948,
				"y": 0.8416688483,
				"z": -0.2680789544,
				"element": "H" 
			},
			{
				"x": 3.0385400096,
				"y": -1.5811523076,
				"z": -0.758159431,
				"element": "H" 
			},
			{
				"x": 1.8788072307,
				"y": -1.6003122985,
				"z": 0.5806711538,
				"element": "H" 
			},
			{
				"x": 3.5958440142,
				"y": -1.2747944521,
				"z": 0.8986715196,
				"element": "H" 
			},
			{
				"x": 1.5659566612,
				"y": -0.2418731281,
				"z": 2.6239905969,
				"element": "H" 
			},
			{
				"x": -0.257231707,
				"y": -1.1057469548,
				"z": 4.0580593446,
				"element": "H" 
			},
			{
				"x": -2.6071547276,
				"y": -1.0569089046,
				"z": 3.2505429111,
				"element": "H" 
			},
			{
				"x": -3.1267264681,
				"y": -0.1008384669,
				"z": 1.0148238756,
				"element": "H" 
			},
			{
				"x": -1.2898358248,
				"y": 0.8101988353,
				"z": -0.4000615409,
				"element": "H" 
			}
		],
		 "valence_orbital": [ 
			{
				"type": "occ",
				"energy": -0.34331,
				"method": "rhf"
			},
			{
				"type": "occ",
				"energy": -0.2619,
				"method": "rhf"
			},
			{
				"type": "occ",
				"energy": -0.25496,
				"method": "rhf"
			},
			{
				"type": "occ",
				"energy": -0.24175,
				"method": "rhf"
			},
			{
				"type": "occ",
				"energy": -0.23218,
				"method": "rhf"
			},
			{
				"type": "unocc",
				"energy": -0.02591,
				"method": "rhf"
			},
			{
				"type": "unocc",
				"energy": -0.00547,
				"method": "rhf"
			},
			{
				"type": "unocc",
				"energy": 0.05218,
				"method": "rhf"
			},
			{
				"type": "unocc",
				"energy": 0.08638,
				"method": "rhf"
			},
			{
				"type": "unocc",
				"energy": 0.09955,
				"method": "rhf"
			}
		],
		"cosmo_sigma_profile": { 
			"-0.025": 0.0,
			"-0.024": 0.0,
			"-0.023": 0.0,
			"-0.022": 0.0,
			"-0.021": 0.0,
			"-0.02": 0.0,
			"-0.019": 0.0,
			"-0.018": 0.0,
			"-0.017": 0.0,
			"-0.016": 0.0,
			"-0.015": 0.0,
			"-0.014": 0.0,
			"-0.013": 0.0,
			"-0.012": 0.0,
			"-0.011": 0.0,
			"-0.01": 0.0,
			"-0.009": 0.0,
			"-0.008": 0.0,
			"-0.007": 0.361750080387,
			"-0.006": 6.97213538903,
			"-0.005": 16.2905735816,
			"-0.004": 26.8019895431,
			"-0.003": 23.8522466064,
			"-0.002": 27.331704275,
			"-0.001": 16.8738074459,
			"0.0": 9.55810540548,
			"0.001": 10.8168575578,
			"0.002": 9.27978996969,
			"0.003": 10.3232331059,
			"0.004": 9.9048753188,
			"0.005": 10.1228907339,
			"0.006": 1.8733428251,
			"0.007": 2.16678300324,
			"0.008": 1.52027466648,
			"0.009": 1.08155336618,
			"0.01": 1.79849987466,
			"0.011": 1.52978894744,
			"0.012": 2.02412923987,
			"0.013": 3.07215048327,
			"0.014": 4.54941214266,
			"0.015": 1.00871496606,
			"0.016": 0.0,
			"0.017": 0.0,
			"0.018": 0.0,
			"0.019": 0.0,
			"0.02": 0.0,
			"0.021": 0.0,
			"0.022": 0.0,
			"0.023": 0.0,
			"0.024": 0.0,
			"0.025": 0.0
		}
	}
}
