{
	 "smiles": "CSCC(=O)NC1=CC=C(O)C=C1", 
	 "Tm": 381.15, 
	 "num_atms": 24, 
	 "gaussian": { 
		 "optdone": 1, 
		 "sigma_profile": "yes", 
		 "theory": "DFT", 
		 "functional": "B3LYP", 
		 "basiset": "6-31G**", 
		 "properties": { 
			 "R2extent": 3962.5029, 
			 "electric_dipole_moment_norm": 3.48764512243, 
			 "electric_quadrupole_moment_norm": 19.6085666633, 
			 "total_energy": -952.982430962, 
			 "HOMO_LUMO_gap": 0.19759, 
			 "cosmo_polarized_energy": -15.68, 
			 "cosmo_cavitation_energy": 29.3, 
			 "cosmo_dispersion_energy": -21.65, 
			 "cosmo_repulsion_energy": 1.68, 
			 "cosmo_total_nonelectrostatic_energy": 9.33, 
			 "SMD_solvation_energy": 6.06 
		},
		"coords": [
			{
				"x": -3.6129720061,
				"y": 0.3646750928,
				"z": -1.3906368712,
				"element": "C" 
			},
			{
				"x": -2.1553498937,
				"y": 1.3887598814,
				"z": -0.9776103943,
				"element": "S" 
			},
			{
				"x": -1.2752210493,
				"y": 0.2731737011,
				"z": 0.192865702,
				"element": "C" 
			},
			{
				"x": -0.7465472614,
				"y": -0.9815761199,
				"z": -0.4841374169,
				"element": "C" 
			},
			{
				"x": -1.4869275405,
				"y": -1.9280826404,
				"z": -0.7328363003,
				"element": "O" 
			},
			{
				"x": 0.5911959778,
				"y": -1.044355737,
				"z": -0.8027290333,
				"element": "N" 
			},
			{
				"x": 1.6275015829,
				"y": -0.0819787228,
				"z": -0.6420356874,
				"element": "C" 
			},
			{
				"x": 2.8037191454,
				"y": -0.4464936054,
				"z": 0.0232485068,
				"element": "C" 
			},
			{
				"x": 3.8562046969,
				"y": 0.4576099481,
				"z": 0.1531201345,
				"element": "C" 
			},
			{
				"x": 3.7349031722,
				"y": 1.7515495048,
				"z": -0.3655984832,
				"element": "C" 
			},
			{
				"x": 4.7227148926,
				"y": 2.6877309207,
				"z": -0.2597976157,
				"element": "O" 
			},
			{
				"x": 2.5611293661,
				"y": 2.1237361979,
				"z": -1.0308081347,
				"element": "C" 
			},
			{
				"x": 1.5247541847,
				"y": 1.2081560395,
				"z": -1.1831661623,
				"element": "C" 
			},
			{
				"x": -4.272155488,
				"y": 0.2621779343,
				"z": -0.5248214903,
				"element": "H" 
			},
			{
				"x": -3.3004808571,
				"y": -0.6209020635,
				"z": -1.7368471463,
				"element": "H" 
			},
			{
				"x": -4.1433489675,
				"y": 0.8918390558,
				"z": -2.1867507623,
				"element": "H" 
			},
			{
				"x": -0.4873077584,
				"y": 0.8791554418,
				"z": 0.6427477233,
				"element": "H" 
			},
			{
				"x": -1.9726551396,
				"y": -0.0450568213,
				"z": 0.9714195259,
				"element": "H" 
			},
			{
				"x": 0.8449596743,
				"y": -1.946611236,
				"z": -1.1877830693,
				"element": "H" 
			},
			{
				"x": 2.8919647638,
				"y": -1.4434083813,
				"z": 0.4455080328,
				"element": "H" 
			},
			{
				"x": 4.7661985366,
				"y": 0.1591597093,
				"z": 0.6692133888,
				"element": "H" 
			},
			{
				"x": 5.4741723496,
				"y": 2.3075598852,
				"z": 0.2132499281,
				"element": "H" 
			},
			{
				"x": 2.4854352539,
				"y": 3.1254100144,
				"z": -1.4403394898,
				"element": "H" 
			},
			{
				"x": 0.6309123646,
				"y": 1.4866720004,
				"z": -1.732274885,
				"element": "H" 
			}
		],
		 "valence_orbital": [ 
			{
				"type": "occ",
				"energy": -0.27571,
				"method": "rhf"
			},
			{
				"type": "occ",
				"energy": -0.26461,
				"method": "rhf"
			},
			{
				"type": "occ",
				"energy": -0.25766,
				"method": "rhf"
			},
			{
				"type": "occ",
				"energy": -0.22544,
				"method": "rhf"
			},
			{
				"type": "occ",
				"energy": -0.21449,
				"method": "rhf"
			},
			{
				"type": "unocc",
				"energy": -0.0169,
				"method": "rhf"
			},
			{
				"type": "unocc",
				"energy": -0.01013,
				"method": "rhf"
			},
			{
				"type": "unocc",
				"energy": 0.01574,
				"method": "rhf"
			},
			{
				"type": "unocc",
				"energy": 0.05184,
				"method": "rhf"
			},
			{
				"type": "unocc",
				"energy": 0.06228,
				"method": "rhf"
			}
		],
		"cosmo_sigma_profile": { 
			"-0.025": 0.0,
			"-0.024": 0.0,
			"-0.023": 0.0,
			"-0.022": 0.0,
			"-0.021": 0.0,
			"-0.02": 0.0,
			"-0.019": 0.0,
			"-0.018": 0.351613074434,
			"-0.017": 1.21227233905,
			"-0.016": 1.19872321285,
			"-0.015": 0.87266518211,
			"-0.014": 1.58099583651,
			"-0.013": 2.46458116535,
			"-0.012": 1.78215202835,
			"-0.011": 1.80899154852,
			"-0.01": 2.30551485717,
			"-0.009": 2.26075645969,
			"-0.008": 1.90496019375,
			"-0.007": 4.62176271544,
			"-0.006": 13.2782464531,
			"-0.005": 14.9420138046,
			"-0.004": 16.8505944787,
			"-0.003": 15.0126473543,
			"-0.002": 14.9694225984,
			"-0.001": 16.6262310138,
			"0.0": 13.7465574715,
			"0.001": 12.7660937313,
			"0.002": 14.4352569835,
			"0.003": 15.55491593,
			"0.004": 16.3018736028,
			"0.005": 10.0280675398,
			"0.006": 6.670960534,
			"0.007": 4.81071468616,
			"0.008": 5.13182276613,
			"0.009": 3.96949320137,
			"0.01": 3.27039137281,
			"0.011": 4.26502072819,
			"0.012": 2.45488699107,
			"0.013": 3.74536451421,
			"0.014": 2.99343542221,
			"0.015": 0.04177123573,
			"0.016": 0.0,
			"0.017": 0.0,
			"0.018": 0.0,
			"0.019": 0.0,
			"0.02": 0.0,
			"0.021": 0.0,
			"0.022": 0.0,
			"0.023": 0.0,
			"0.024": 0.0,
			"0.025": 0.0
		}
	}
}
