{
	 "smiles": "OC(=O)CCOC1=C(Cl)C=C(Cl)C=C1", 
	 "Tm": 367.15, 
	 "num_atms": 22, 
	 "gaussian": { 
		 "optdone": 1, 
		 "sigma_profile": "yes", 
		 "theory": "DFT", 
		 "functional": "B3LYP", 
		 "basiset": "6-31G**", 
		 "properties": { 
			 "R2extent": 5337.5745, 
			 "electric_dipole_moment_norm": 4.54213584341, 
			 "electric_quadrupole_moment_norm": 12.6260663356, 
			 "total_energy": -1493.83005506, 
			 "HOMO_LUMO_gap": 0.21358, 
			 "cosmo_polarized_energy": -16.09, 
			 "cosmo_cavitation_energy": 30.45, 
			 "cosmo_dispersion_energy": -22.16, 
			 "cosmo_repulsion_energy": 1.78, 
			 "cosmo_total_nonelectrostatic_energy": 10.07, 
			 "SMD_solvation_energy": 5.92 
		},
		"coords": [
			{
				"x": 1.2048216618,
				"y": -2.8772022728,
				"z": 3.21204745,
				"element": "O" 
			},
			{
				"x": 0.9079137351,
				"y": -1.6883531158,
				"z": 2.6347398095,
				"element": "C" 
			},
			{
				"x": 1.7037364616,
				"y": -0.7817439927,
				"z": 2.6745334324,
				"element": "O" 
			},
			{
				"x": -0.4815418012,
				"y": -1.5800712764,
				"z": 2.0104145734,
				"element": "C" 
			},
			{
				"x": -0.5662091186,
				"y": -0.4448079305,
				"z": 1.0040294791,
				"element": "C" 
			},
			{
				"x": 0.1602050669,
				"y": -0.8461569742,
				"z": -0.164740254,
				"element": "O" 
			},
			{
				"x": 0.8141343212,
				"y": 0.1286909611,
				"z": -0.8695424921,
				"element": "C" 
			},
			{
				"x": 0.4792305988,
				"y": 0.3524427904,
				"z": -2.2131224419,
				"element": "C" 
			},
			{
				"x": -0.8269413843,
				"y": -0.552482603,
				"z": -2.948293571,
				"element": "Cl" 
			},
			{
				"x": 1.1740447669,
				"y": 1.2877299444,
				"z": -2.980157145,
				"element": "C" 
			},
			{
				"x": 2.2039454938,
				"y": 2.0135542808,
				"z": -2.385734876,
				"element": "C" 
			},
			{
				"x": 3.0759605161,
				"y": 3.2000137438,
				"z": -3.3441359377,
				"element": "Cl" 
			},
			{
				"x": 2.5543846079,
				"y": 1.8113186756,
				"z": -1.0508607932,
				"element": "C" 
			},
			{
				"x": 1.8604285483,
				"y": 0.8645841811,
				"z": -0.3013459864,
				"element": "C" 
			},
			{
				"x": 0.4854461963,
				"y": -3.509736199,
				"z": 3.0745635669,
				"element": "H" 
			},
			{
				"x": -1.2005897877,
				"y": -1.4081150004,
				"z": 2.8225955716,
				"element": "H" 
			},
			{
				"x": -0.7639871786,
				"y": -2.5209756796,
				"z": 1.5234766964,
				"element": "H" 
			},
			{
				"x": -0.1363882747,
				"y": 0.4639233115,
				"z": 1.4346181052,
				"element": "H" 
			},
			{
				"x": -1.6104541266,
				"y": -0.2513207267,
				"z": 0.7284937282,
				"element": "H" 
			},
			{
				"x": 0.9067514153,
				"y": 1.4483365744,
				"z": -4.0173086986,
				"element": "H" 
			},
			{
				"x": 3.3669280466,
				"y": 2.3761832582,
				"z": -0.6084435642,
				"element": "H" 
			},
			{
				"x": 2.1316802352,
				"y": 0.6641880496,
				"z": 0.7306733475,
				"element": "H" 
			}
		],
		 "valence_orbital": [ 
			{
				"type": "occ",
				"energy": -0.31219,
				"method": "rhf"
			},
			{
				"type": "occ",
				"energy": -0.29653,
				"method": "rhf"
			},
			{
				"type": "occ",
				"energy": -0.28867,
				"method": "rhf"
			},
			{
				"type": "occ",
				"energy": -0.25952,
				"method": "rhf"
			},
			{
				"type": "occ",
				"energy": -0.23615,
				"method": "rhf"
			},
			{
				"type": "unocc",
				"energy": -0.02257,
				"method": "rhf"
			},
			{
				"type": "unocc",
				"energy": -0.01593,
				"method": "rhf"
			},
			{
				"type": "unocc",
				"energy": -0.00514,
				"method": "rhf"
			},
			{
				"type": "unocc",
				"energy": 0.01003,
				"method": "rhf"
			},
			{
				"type": "unocc",
				"energy": 0.0434,
				"method": "rhf"
			}
		],
		"cosmo_sigma_profile": { 
			"-0.025": 0.0,
			"-0.024": 0.0,
			"-0.023": 0.0,
			"-0.022": 0.0,
			"-0.021": 0.0,
			"-0.02": 0.0,
			"-0.019": 0.92284988292,
			"-0.018": 1.11260067557,
			"-0.017": 1.05520449369,
			"-0.016": 1.79105896762,
			"-0.015": 0.989290944764,
			"-0.014": 0.584816943364,
			"-0.013": 1.24811992823,
			"-0.012": 1.22895356499,
			"-0.011": 1.51317787436,
			"-0.01": 0.973538716927,
			"-0.009": 1.98288531559,
			"-0.008": 7.09029216669,
			"-0.007": 7.82484836382,
			"-0.006": 10.2869427753,
			"-0.005": 13.4448660168,
			"-0.004": 12.7975438054,
			"-0.003": 11.5441912695,
			"-0.002": 11.3953827364,
			"-0.001": 11.4758410924,
			"0.0": 16.4926664122,
			"0.001": 25.0037298443,
			"0.002": 25.5423931439,
			"0.003": 19.1732953131,
			"0.004": 21.6869260885,
			"0.005": 11.2964264155,
			"0.006": 3.64903933127,
			"0.007": 4.0038560361,
			"0.008": 3.90824504442,
			"0.009": 4.78405618407,
			"0.01": 6.0933751341,
			"0.011": 3.56227130406,
			"0.012": 2.16691932915,
			"0.013": 1.03138247595,
			"0.014": 0.0,
			"0.015": 0.0,
			"0.016": 0.0,
			"0.017": 0.0,
			"0.018": 0.0,
			"0.019": 0.0,
			"0.02": 0.0,
			"0.021": 0.0,
			"0.022": 0.0,
			"0.023": 0.0,
			"0.024": 0.0,
			"0.025": 0.0
		}
	}
}
