{
	 "smiles": "CCOC(=O)CN1C(=O)SC2=CC=CC(Cl)=C12", 
	 "Tm": 352.35, 
	 "num_atms": 27, 
	 "gaussian": { 
		 "optdone": 1, 
		 "sigma_profile": "yes", 
		 "theory": "DFT", 
		 "functional": "B3LYP", 
		 "basiset": "6-31G**", 
		 "properties": { 
			 "R2extent": 5215.4384, 
			 "electric_dipole_moment_norm": 4.13181784811, 
			 "electric_quadrupole_moment_norm": 10.2650479536, 
			 "total_energy": -1564.02865574, 
			 "HOMO_LUMO_gap": 0.20126, 
			 "cosmo_polarized_energy": -11.46, 
			 "cosmo_cavitation_energy": 34.47, 
			 "cosmo_dispersion_energy": -24.21, 
			 "cosmo_repulsion_energy": 1.83, 
			 "cosmo_total_nonelectrostatic_energy": 12.1, 
			 "SMD_solvation_energy": 6.88 
		},
		"coords": [
			{
				"x": -3.5453178237,
				"y": -0.3473837825,
				"z": 1.2935796999,
				"element": "C" 
			},
			{
				"x": -3.2633055326,
				"y": -0.7339186968,
				"z": -0.149347026,
				"element": "C" 
			},
			{
				"x": -2.1872586537,
				"y": 0.0669584295,
				"z": -0.706605454,
				"element": "O" 
			},
			{
				"x": -2.5357657628,
				"y": 1.2439455974,
				"z": -1.248784578,
				"element": "C" 
			},
			{
				"x": -3.6606448857,
				"y": 1.687313263,
				"z": -1.3087490518,
				"element": "O" 
			},
			{
				"x": -1.3466622037,
				"y": 1.984661627,
				"z": -1.8545635868,
				"element": "C" 
			},
			{
				"x": -0.028940971,
				"y": 1.4410539664,
				"z": -1.5458541388,
				"element": "N" 
			},
			{
				"x": 0.5617705215,
				"y": 0.6546107128,
				"z": -2.5363018632,
				"element": "C" 
			},
			{
				"x": 0.1039644323,
				"y": 0.4423125445,
				"z": -3.6373126144,
				"element": "O" 
			},
			{
				"x": 2.1307587037,
				"y": 0.0114755942,
				"z": -1.9358426112,
				"element": "S" 
			},
			{
				"x": 1.8943656775,
				"y": 0.7995657402,
				"z": -0.3802311078,
				"element": "C" 
			},
			{
				"x": 2.7692308933,
				"y": 0.7448490311,
				"z": 0.6987671711,
				"element": "C" 
			},
			{
				"x": 2.4358532233,
				"y": 1.4254130739,
				"z": 1.8680369623,
				"element": "C" 
			},
			{
				"x": 1.2443260315,
				"y": 2.1441518536,
				"z": 1.9401515123,
				"element": "C" 
			},
			{
				"x": 0.3694654098,
				"y": 2.198253721,
				"z": 0.8524724788,
				"element": "C" 
			},
			{
				"x": -1.1010006547,
				"y": 3.1406876143,
				"z": 1.0694539224,
				"element": "Cl" 
			},
			{
				"x": 0.677838159,
				"y": 1.5210458122,
				"z": -0.3386730175,
				"element": "C" 
			},
			{
				"x": -4.3071285292,
				"y": -1.0141984477,
				"z": 1.7109701348,
				"element": "H" 
			},
			{
				"x": -3.9172579658,
				"y": 0.678205905,
				"z": 1.3522517827,
				"element": "H" 
			},
			{
				"x": -2.6418743338,
				"y": -0.4318188788,
				"z": 1.9042134041,
				"element": "H" 
			},
			{
				"x": -2.9012256762,
				"y": -1.761150424,
				"z": -0.2296690222,
				"element": "H" 
			},
			{
				"x": -4.1495904995,
				"y": -0.6085541239,
				"z": -0.7753712865,
				"element": "H" 
			},
			{
				"x": -1.4513369648,
				"y": 1.9156701438,
				"z": -2.9406616118,
				"element": "H" 
			},
			{
				"x": -1.4178559382,
				"y": 3.0335782286,
				"z": -1.5735233197,
				"element": "H" 
			},
			{
				"x": 3.6926218972,
				"y": 0.1800787778,
				"z": 0.6251781093,
				"element": "H" 
			},
			{
				"x": 3.1010833253,
				"y": 1.398826022,
				"z": 2.7246514949,
				"element": "H" 
			},
			{
				"x": 0.9756881209,
				"y": 2.6773666955,
				"z": 2.8448636169,
				"element": "H" 
			}
		],
		 "valence_orbital": [ 
			{
				"type": "occ",
				"energy": -0.30607,
				"method": "rhf"
			},
			{
				"type": "occ",
				"energy": -0.28677,
				"method": "rhf"
			},
			{
				"type": "occ",
				"energy": -0.28038,
				"method": "rhf"
			},
			{
				"type": "occ",
				"energy": -0.24733,
				"method": "rhf"
			},
			{
				"type": "occ",
				"energy": -0.2322,
				"method": "rhf"
			},
			{
				"type": "unocc",
				"energy": -0.03094,
				"method": "rhf"
			},
			{
				"type": "unocc",
				"energy": -0.02363,
				"method": "rhf"
			},
			{
				"type": "unocc",
				"energy": -0.01203,
				"method": "rhf"
			},
			{
				"type": "unocc",
				"energy": 0.00624,
				"method": "rhf"
			},
			{
				"type": "unocc",
				"energy": 0.01483,
				"method": "rhf"
			}
		],
		"cosmo_sigma_profile": { 
			"-0.025": 0.0,
			"-0.024": 0.0,
			"-0.023": 0.0,
			"-0.022": 0.0,
			"-0.021": 0.0,
			"-0.02": 0.0,
			"-0.019": 0.0,
			"-0.018": 0.0,
			"-0.017": 0.0,
			"-0.016": 0.0,
			"-0.015": 0.0,
			"-0.014": 0.0,
			"-0.013": 0.0,
			"-0.012": 0.0,
			"-0.011": 0.0,
			"-0.01": 0.0,
			"-0.009": 0.366221847441,
			"-0.008": 4.71206014126,
			"-0.007": 10.5810610686,
			"-0.006": 13.2883892101,
			"-0.005": 16.2771816917,
			"-0.004": 20.1086491061,
			"-0.003": 21.6730631192,
			"-0.002": 20.438160424,
			"-0.001": 22.3121577923,
			"0.0": 28.83207459,
			"0.001": 31.0270356546,
			"0.002": 24.0931912328,
			"0.003": 21.7471701285,
			"0.004": 11.4914020128,
			"0.005": 4.23884688226,
			"0.006": 3.02435029842,
			"0.007": 1.78124064767,
			"0.008": 3.03021413644,
			"0.009": 3.63472764782,
			"0.01": 4.1408421013,
			"0.011": 8.60218153769,
			"0.012": 4.20477622679,
			"0.013": 0.104068839219,
			"0.014": 0.0,
			"0.015": 0.0,
			"0.016": 0.0,
			"0.017": 0.0,
			"0.018": 0.0,
			"0.019": 0.0,
			"0.02": 0.0,
			"0.021": 0.0,
			"0.022": 0.0,
			"0.023": 0.0,
			"0.024": 0.0,
			"0.025": 0.0
		}
	}
}
