{
	 "smiles": "CC(=O)NC1=CC(CCNC(=O)C2=CC=CC=C2)=CC(NC(C)=O)=C1CCNC(=O)C1=CC=CC=C1", 
	 "Tm": 541.15, 
	 "num_atms": 66, 
	 "gaussian": { 
		 "optdone": 1, 
		 "sigma_profile": "yes", 
		 "theory": "DFT", 
		 "functional": "B3LYP", 
		 "basiset": "6-31G**", 
		 "properties": { 
			 "R2extent": 17183.4622, 
			 "electric_dipole_moment_norm": 9.43064953755, 
			 "electric_quadrupole_moment_norm": 26.4782038473, 
			 "total_energy": -1605.05176281, 
			 "HOMO_LUMO_gap": 0.17149, 
			 "cosmo_polarized_energy": -37.24, 
			 "cosmo_cavitation_energy": 67.86, 
			 "cosmo_dispersion_energy": -40.81, 
			 "cosmo_repulsion_energy": 3.02, 
			 "cosmo_total_nonelectrostatic_energy": 30.07, 
			 "SMD_solvation_energy": 12.01 
		},
		"coords": [
			{
				"x": 0.6193208722,
				"y": 5.1654476641,
				"z": 2.27974852,
				"element": "C" 
			},
			{
				"x": 0.1626851126,
				"y": 4.0570097602,
				"z": 3.2178861225,
				"element": "C" 
			},
			{
				"x": -0.2869331895,
				"y": 4.3101446613,
				"z": 4.3258368734,
				"element": "O" 
			},
			{
				"x": 0.2993552954,
				"y": 2.7439411839,
				"z": 2.8026851643,
				"element": "N" 
			},
			{
				"x": 0.6911896038,
				"y": 2.2595425375,
				"z": 1.5290071668,
				"element": "C" 
			},
			{
				"x": 0.0344298956,
				"y": 2.7274706351,
				"z": 0.3832765064,
				"element": "C" 
			},
			{
				"x": 0.3944018797,
				"y": 2.3001259765,
				"z": -0.8958537759,
				"element": "C" 
			},
			{
				"x": -0.3793290738,
				"y": 2.7952986517,
				"z": -2.097810168,
				"element": "C" 
			},
			{
				"x": -1.594471624,
				"y": 1.9099204334,
				"z": -2.4682282389,
				"element": "C" 
			},
			{
				"x": -1.24632803,
				"y": 0.6910646828,
				"z": -3.1877160555,
				"element": "N" 
			},
			{
				"x": -1.3309765007,
				"y": -0.5582376648,
				"z": -2.6392498704,
				"element": "C" 
			},
			{
				"x": -1.6365525218,
				"y": -0.7451071677,
				"z": -1.4607036565,
				"element": "O" 
			},
			{
				"x": -1.0382670264,
				"y": -1.7078812299,
				"z": -3.5650157396,
				"element": "C" 
			},
			{
				"x": -1.5443121252,
				"y": -2.9647120826,
				"z": -3.2066832587,
				"element": "C" 
			},
			{
				"x": -1.3193688285,
				"y": -4.0740560266,
				"z": -4.0185576917,
				"element": "C" 
			},
			{
				"x": -0.5717096026,
				"y": -3.9437392706,
				"z": -5.1916568618,
				"element": "C" 
			},
			{
				"x": -0.0462894955,
				"y": -2.6999163271,
				"z": -5.5466556365,
				"element": "C" 
			},
			{
				"x": -0.2787949099,
				"y": -1.5867339285,
				"z": -4.7386052161,
				"element": "C" 
			},
			{
				"x": 1.4471912665,
				"y": 1.3908230203,
				"z": -1.0211606092,
				"element": "C" 
			},
			{
				"x": 2.0753187782,
				"y": 0.8684714194,
				"z": 0.115061551,
				"element": "C" 
			},
			{
				"x": 3.1497264175,
				"y": -0.0509092778,
				"z": -0.0247779678,
				"element": "N" 
			},
			{
				"x": 3.2484772172,
				"y": -1.2331929808,
				"z": -0.7376481693,
				"element": "C" 
			},
			{
				"x": 2.0337172009,
				"y": -1.7153954243,
				"z": -1.5063167855,
				"element": "C" 
			},
			{
				"x": 4.2960785342,
				"y": -1.8651376491,
				"z": -0.71523474,
				"element": "O" 
			},
			{
				"x": 1.7061267404,
				"y": 1.2829766173,
				"z": 1.4120438147,
				"element": "C" 
			},
			{
				"x": 2.3322763728,
				"y": 0.6604583425,
				"z": 2.639514739,
				"element": "C" 
			},
			{
				"x": 1.8895156145,
				"y": -0.8081555216,
				"z": 2.8942465602,
				"element": "C" 
			},
			{
				"x": 0.4714680139,
				"y": -1.0623546276,
				"z": 2.6734520719,
				"element": "N" 
			},
			{
				"x": -0.4970968875,
				"y": -0.4957740346,
				"z": 3.4418139739,
				"element": "C" 
			},
			{
				"x": -0.2100750887,
				"y": 0.2393236834,
				"z": 4.3955361788,
				"element": "O" 
			},
			{
				"x": -1.9176753899,
				"y": -0.8011778733,
				"z": 3.0743241112,
				"element": "C" 
			},
			{
				"x": -2.3187769256,
				"y": -1.0632478926,
				"z": 1.756200208,
				"element": "C" 
			},
			{
				"x": -3.6622070169,
				"y": -1.3119798675,
				"z": 1.47301062,
				"element": "C" 
			},
			{
				"x": -4.608382247,
				"y": -1.3082064023,
				"z": 2.499332616,
				"element": "C" 
			},
			{
				"x": -4.2132581305,
				"y": -1.0326300175,
				"z": 3.8119242703,
				"element": "C" 
			},
			{
				"x": -2.8759754307,
				"y": -0.7677097874,
				"z": 4.0968611738,
				"element": "C" 
			},
			{
				"x": 0.9608561617,
				"y": 5.9924451055,
				"z": 2.9041249667,
				"element": "H" 
			},
			{
				"x": -0.2249544003,
				"y": 5.5285000274,
				"z": 1.6843463122,
				"element": "H" 
			},
			{
				"x": 1.4119925439,
				"y": 4.8591119791,
				"z": 1.5942864686,
				"element": "H" 
			},
			{
				"x": 0.0610993975,
				"y": 2.063974223,
				"z": 3.5264701982,
				"element": "H" 
			},
			{
				"x": -0.787837557,
				"y": 3.4251288767,
				"z": 0.5062613315,
				"element": "H" 
			},
			{
				"x": 0.2777668565,
				"y": 2.8810989346,
				"z": -2.9717222972,
				"element": "H" 
			},
			{
				"x": -0.7592549735,
				"y": 3.8027916168,
				"z": -1.8918750638,
				"element": "H" 
			},
			{
				"x": -2.1306654502,
				"y": 1.6082315987,
				"z": -1.565795261,
				"element": "H" 
			},
			{
				"x": -2.2810502588,
				"y": 2.4900303121,
				"z": -3.0957282908,
				"element": "H" 
			},
			{
				"x": -1.1362263171,
				"y": 0.7583610281,
				"z": -4.1879207048,
				"element": "H" 
			},
			{
				"x": -2.1113916468,
				"y": -3.0464129932,
				"z": -2.2858071248,
				"element": "H" 
			},
			{
				"x": -1.7238893089,
				"y": -5.0414980257,
				"z": -3.7360207008,
				"element": "H" 
			},
			{
				"x": -0.3917803092,
				"y": -4.8093103731,
				"z": -5.8224371691,
				"element": "H" 
			},
			{
				"x": 0.5517022203,
				"y": -2.597288791,
				"z": -6.4472698622,
				"element": "H" 
			},
			{
				"x": 0.1677759718,
				"y": -0.6349191238,
				"z": -5.0138789669,
				"element": "H" 
			},
			{
				"x": 1.7890431868,
				"y": 1.0839248469,
				"z": -2.003828008,
				"element": "H" 
			},
			{
				"x": 3.9856102266,
				"y": 0.1225000192,
				"z": 0.5210173268,
				"element": "H" 
			},
			{
				"x": 2.0817676467,
				"y": -2.8047366068,
				"z": -1.5426887887,
				"element": "H" 
			},
			{
				"x": 1.0827131058,
				"y": -1.3918645111,
				"z": -1.0789530714,
				"element": "H" 
			},
			{
				"x": 2.0773463772,
				"y": -1.3539343664,
				"z": -2.5388187784,
				"element": "H" 
			},
			{
				"x": 3.4278757199,
				"y": 0.6590961582,
				"z": 2.5725401923,
				"element": "H" 
			},
			{
				"x": 2.0808773749,
				"y": 1.2577594497,
				"z": 3.5150156075,
				"element": "H" 
			},
			{
				"x": 2.435037024,
				"y": -1.4840425939,
				"z": 2.232929855,
				"element": "H" 
			},
			{
				"x": 2.145320018,
				"y": -1.0663601936,
				"z": 3.9273587922,
				"element": "H" 
			},
			{
				"x": 0.1990838577,
				"y": -1.6840091066,
				"z": 1.9283587424,
				"element": "H" 
			},
			{
				"x": -1.6162740421,
				"y": -1.0231140495,
				"z": 0.9294695096,
				"element": "H" 
			},
			{
				"x": -3.9601763357,
				"y": -1.4914365039,
				"z": 0.444513793,
				"element": "H" 
			},
			{
				"x": -5.6534519059,
				"y": -1.5057798793,
				"z": 2.2771130158,
				"element": "H" 
			},
			{
				"x": -4.9494724088,
				"y": -1.0168653707,
				"z": 4.6103962817,
				"element": "H" 
			},
			{
				"x": -2.5516415457,
				"y": -0.5281459026,
				"z": 5.1040538936,
				"element": "H" 
			}
		],
		 "valence_orbital": [ 
			{
				"type": "occ",
				"energy": -0.24977,
				"method": "rhf"
			},
			{
				"type": "occ",
				"energy": -0.24392,
				"method": "rhf"
			},
			{
				"type": "occ",
				"energy": -0.23386,
				"method": "rhf"
			},
			{
				"type": "occ",
				"energy": -0.23059,
				"method": "rhf"
			},
			{
				"type": "occ",
				"energy": -0.22237,
				"method": "rhf"
			},
			{
				"type": "unocc",
				"energy": -0.05088,
				"method": "rhf"
			},
			{
				"type": "unocc",
				"energy": -0.03098,
				"method": "rhf"
			},
			{
				"type": "unocc",
				"energy": -0.02405,
				"method": "rhf"
			},
			{
				"type": "unocc",
				"energy": -0.02018,
				"method": "rhf"
			},
			{
				"type": "unocc",
				"energy": -0.01619,
				"method": "rhf"
			}
		],
		"cosmo_sigma_profile": { 
			"-0.025": 0.0,
			"-0.024": 0.0,
			"-0.023": 0.0,
			"-0.022": 0.0,
			"-0.021": 0.0,
			"-0.02": 0.0,
			"-0.019": 0.0,
			"-0.018": 0.0,
			"-0.017": 0.0,
			"-0.016": 0.0,
			"-0.015": 0.254360222758,
			"-0.014": 1.26218692581,
			"-0.013": 3.04520931443,
			"-0.012": 3.54626428104,
			"-0.011": 3.69173599424,
			"-0.01": 4.07824052354,
			"-0.009": 4.1144954631,
			"-0.008": 4.33137621489,
			"-0.007": 9.82219316636,
			"-0.006": 27.3198971859,
			"-0.005": 40.8429828982,
			"-0.004": 47.7841347663,
			"-0.003": 44.4265503573,
			"-0.002": 43.353238998,
			"-0.001": 41.4780888834,
			"0.0": 36.8913120527,
			"0.001": 32.879168108,
			"0.002": 31.933959446,
			"0.003": 33.0960584422,
			"0.004": 34.8423265676,
			"0.005": 20.4848400246,
			"0.006": 7.77114366863,
			"0.007": 9.55842543954,
			"0.008": 8.8153650387,
			"0.009": 3.9307845493,
			"0.01": 4.07420948315,
			"0.011": 3.63583969186,
			"0.012": 6.45485093152,
			"0.013": 9.76837872111,
			"0.014": 11.473596315,
			"0.015": 2.91850067295,
			"0.016": 0.0135455328402,
			"0.017": 0.0,
			"0.018": 0.0,
			"0.019": 0.0,
			"0.02": 0.0,
			"0.021": 0.0,
			"0.022": 0.0,
			"0.023": 0.0,
			"0.024": 0.0,
			"0.025": 0.0
		}
	}
}
