{
	 "smiles": "NC1=CC(=CC=C1)C1=NC=CC=N1", 
	 "Tm": 373.15, 
	 "num_atms": 22, 
	 "gaussian": { 
		 "optdone": 1, 
		 "sigma_profile": "yes", 
		 "theory": "DFT", 
		 "functional": "B3LYP", 
		 "basiset": "6-31G**", 
		 "properties": { 
			 "R2extent": 3175.4277, 
			 "electric_dipole_moment_norm": 1.7355311406, 
			 "electric_quadrupole_moment_norm": 19.1032853151, 
			 "total_energy": -550.747084054, 
			 "HOMO_LUMO_gap": 0.15217, 
			 "cosmo_polarized_energy": -12.17, 
			 "cosmo_cavitation_energy": 26.3, 
			 "cosmo_dispersion_energy": -19.79, 
			 "cosmo_repulsion_energy": 1.55, 
			 "cosmo_total_nonelectrostatic_energy": 8.06, 
			 "SMD_solvation_energy": 2.47 
		},
		"coords": [
			{
				"x": 1.2862207627,
				"y": -0.1669061747,
				"z": 3.9276263778,
				"element": "N" 
			},
			{
				"x": 0.574324631,
				"y": -0.4554209708,
				"z": 2.7592826753,
				"element": "C" 
			},
			{
				"x": 1.2244068683,
				"y": -0.4853411661,
				"z": 1.5177740433,
				"element": "C" 
			},
			{
				"x": 0.5303902303,
				"y": -0.830566768,
				"z": 0.3514896214,
				"element": "C" 
			},
			{
				"x": -0.8347596225,
				"y": -1.1507228978,
				"z": 0.4180941933,
				"element": "C" 
			},
			{
				"x": -1.4812834159,
				"y": -1.1200885793,
				"z": 1.6515434648,
				"element": "C" 
			},
			{
				"x": -0.7931933165,
				"y": -0.7777763959,
				"z": 2.8140908831,
				"element": "C" 
			},
			{
				"x": 1.2421524562,
				"y": -0.8522546062,
				"z": -0.9513921862,
				"element": "C" 
			},
			{
				"x": 2.5500671372,
				"y": -0.5271479345,
				"z": -0.9552932153,
				"element": "N" 
			},
			{
				"x": 3.1773093058,
				"y": -0.5528519555,
				"z": -2.1318972625,
				"element": "C" 
			},
			{
				"x": 2.5341005595,
				"y": -0.8960691642,
				"z": -3.3194893171,
				"element": "C" 
			},
			{
				"x": 1.1816510735,
				"y": -1.2140566811,
				"z": -3.2078144307,
				"element": "C" 
			},
			{
				"x": 0.5319112604,
				"y": -1.1959749095,
				"z": -2.0435700436,
				"element": "N" 
			},
			{
				"x": 0.7301619854,
				"y": 0.2043668847,
				"z": 4.6857707246,
				"element": "H" 
			},
			{
				"x": 2.1317063063,
				"y": 0.3690226754,
				"z": 3.7868733706,
				"element": "H" 
			},
			{
				"x": 2.2795677142,
				"y": -0.243255266,
				"z": 1.444765253,
				"element": "H" 
			},
			{
				"x": -1.36268175,
				"y": -1.4145850201,
				"z": -0.4897556409,
				"element": "H" 
			},
			{
				"x": -2.5382112231,
				"y": -1.3644615439,
				"z": 1.7125344498,
				"element": "H" 
			},
			{
				"x": -1.3097133368,
				"y": -0.7629506948,
				"z": 3.7710359715,
				"element": "H" 
			},
			{
				"x": 4.2341663788,
				"y": -0.2886138745,
				"z": -2.122377046,
				"element": "H" 
			},
			{
				"x": 3.0533487358,
				"y": -0.9142709278,
				"z": -4.2711120161,
				"element": "H" 
			},
			{
				"x": 0.5968572594,
				"y": -1.4936740295,
				"z": -4.0833798701,
				"element": "H" 
			}
		],
		 "valence_orbital": [ 
			{
				"type": "occ",
				"energy": -0.30103,
				"method": "rhf"
			},
			{
				"type": "occ",
				"energy": -0.28247,
				"method": "rhf"
			},
			{
				"type": "occ",
				"energy": -0.24356,
				"method": "rhf"
			},
			{
				"type": "occ",
				"energy": -0.23184,
				"method": "rhf"
			},
			{
				"type": "occ",
				"energy": -0.19787,
				"method": "rhf"
			},
			{
				"type": "unocc",
				"energy": -0.0457,
				"method": "rhf"
			},
			{
				"type": "unocc",
				"energy": -0.03574,
				"method": "rhf"
			},
			{
				"type": "unocc",
				"energy": 0.02044,
				"method": "rhf"
			},
			{
				"type": "unocc",
				"energy": 0.04022,
				"method": "rhf"
			},
			{
				"type": "unocc",
				"energy": 0.08616,
				"method": "rhf"
			}
		],
		"cosmo_sigma_profile": { 
			"-0.025": 0.0,
			"-0.024": 0.0,
			"-0.023": 0.0,
			"-0.022": 0.0,
			"-0.021": 0.0,
			"-0.02": 0.0,
			"-0.019": 0.0,
			"-0.018": 0.0,
			"-0.017": 0.0,
			"-0.016": 0.0,
			"-0.015": 0.0,
			"-0.014": 0.0,
			"-0.013": 0.222264037356,
			"-0.012": 2.33357378632,
			"-0.011": 2.99712820516,
			"-0.01": 2.99727730858,
			"-0.009": 2.53387022455,
			"-0.008": 5.69752050844,
			"-0.007": 11.033581027,
			"-0.006": 11.1044890318,
			"-0.005": 11.3377085479,
			"-0.004": 10.5874683703,
			"-0.003": 10.8377279248,
			"-0.002": 11.3700008976,
			"-0.001": 11.6466101202,
			"0.0": 17.1869094232,
			"0.001": 14.7166989742,
			"0.002": 9.8586254128,
			"0.003": 12.2123556541,
			"0.004": 12.9338136506,
			"0.005": 15.0068760523,
			"0.006": 14.3159956221,
			"0.007": 4.90793124959,
			"0.008": 2.7058102903,
			"0.009": 3.99461926013,
			"0.01": 2.96766599752,
			"0.011": 2.89726803748,
			"0.012": 1.20448659845,
			"0.013": 0.161798109447,
			"0.014": 1.07886450294,
			"0.015": 0.161900726783,
			"0.016": 0.0,
			"0.017": 0.0,
			"0.018": 0.0,
			"0.019": 0.0,
			"0.02": 0.0,
			"0.021": 0.0,
			"0.022": 0.0,
			"0.023": 0.0,
			"0.024": 0.0,
			"0.025": 0.0
		}
	}
}
