{
	 "smiles": "O=C(N1CCCNCC1)C1=CSC=C1", 
	 "Tm": 372.15, 
	 "num_atms": 28, 
	 "gaussian": { 
		 "optdone": 1, 
		 "sigma_profile": "yes", 
		 "theory": "DFT", 
		 "functional": "B3LYP", 
		 "basiset": "6-31G**", 
		 "properties": { 
			 "R2extent": 4810.7582, 
			 "electric_dipole_moment_norm": 3.34892072316, 
			 "electric_quadrupole_moment_norm": 12.7289729731, 
			 "total_energy": -972.397931156, 
			 "HOMO_LUMO_gap": 0.19213, 
			 "cosmo_polarized_energy": -13.62, 
			 "cosmo_cavitation_energy": 30.61, 
			 "cosmo_dispersion_energy": -23.14, 
			 "cosmo_repulsion_energy": 1.75, 
			 "cosmo_total_nonelectrostatic_energy": 9.22, 
			 "SMD_solvation_energy": 2.55 
		},
		"coords": [
			{
				"x": -1.9260549778,
				"y": 2.046212103,
				"z": -2.249808524,
				"element": "O" 
			},
			{
				"x": -1.2875620694,
				"y": 1.7328711168,
				"z": -1.2447929867,
				"element": "C" 
			},
			{
				"x": -1.2852398796,
				"y": 0.4300667891,
				"z": -0.7904504751,
				"element": "N" 
			},
			{
				"x": -2.1312242511,
				"y": -0.4861011022,
				"z": -1.5778202712,
				"element": "C" 
			},
			{
				"x": -2.3134295253,
				"y": -1.8843943085,
				"z": -0.9794775032,
				"element": "C" 
			},
			{
				"x": -2.7191091366,
				"y": -1.9402927185,
				"z": 0.5099974138,
				"element": "C" 
			},
			{
				"x": -1.6280348796,
				"y": -1.846972105,
				"z": 1.4789665387,
				"element": "N" 
			},
			{
				"x": -0.8806372167,
				"y": -0.5966298831,
				"z": 1.4786624775,
				"element": "C" 
			},
			{
				"x": -0.2897580531,
				"y": -0.1145509392,
				"z": 0.1335075992,
				"element": "C" 
			},
			{
				"x": -0.5151867943,
				"y": 2.786591713,
				"z": -0.5033668353,
				"element": "C" 
			},
			{
				"x": 0.065886036,
				"y": 3.8099351314,
				"z": -1.2123327471,
				"element": "C" 
			},
			{
				"x": 0.8207559198,
				"y": 4.970973473,
				"z": -0.1839665007,
				"element": "S" 
			},
			{
				"x": 0.3357307596,
				"y": 4.0981470578,
				"z": 1.2353440537,
				"element": "C" 
			},
			{
				"x": -0.3592651231,
				"y": 2.9668777659,
				"z": 0.9141871187,
				"element": "C" 
			},
			{
				"x": -3.1056231006,
				"y": -0.0006839639,
				"z": -1.6847050907,
				"element": "H" 
			},
			{
				"x": -1.7303708905,
				"y": -0.5700925058,
				"z": -2.5969464381,
				"element": "H" 
			},
			{
				"x": -3.0912361692,
				"y": -2.3701612067,
				"z": -1.5825115902,
				"element": "H" 
			},
			{
				"x": -1.4103518917,
				"y": -2.4934057736,
				"z": -1.1194259132,
				"element": "H" 
			},
			{
				"x": -3.2364257077,
				"y": -2.8878991586,
				"z": 0.6999917586,
				"element": "H" 
			},
			{
				"x": -3.4410749564,
				"y": -1.1422031042,
				"z": 0.729017826,
				"element": "H" 
			},
			{
				"x": -0.9888417901,
				"y": -2.625510927,
				"z": 1.3363664923,
				"element": "H" 
			},
			{
				"x": -1.5392572003,
				"y": 0.1929130141,
				"z": 1.8640699478,
				"element": "H" 
			},
			{
				"x": -0.057817836,
				"y": -0.7051558985,
				"z": 2.1963663885,
				"element": "H" 
			},
			{
				"x": 0.4562133855,
				"y": 0.6589236836,
				"z": 0.3235598997,
				"element": "H" 
			},
			{
				"x": 0.2447183354,
				"y": -0.943081534,
				"z": -0.3517326278,
				"element": "H" 
			},
			{
				"x": 0.0613943621,
				"y": 3.9313250241,
				"z": -2.2859052791,
				"element": "H" 
			},
			{
				"x": 0.5813985445,
				"y": 4.476175561,
				"z": 2.2179328393,
				"element": "H" 
			},
			{
				"x": -0.7752958938,
				"y": 2.303222696,
				"z": 1.6617724285,
				"element": "H" 
			}
		],
		 "valence_orbital": [ 
			{
				"type": "occ",
				"energy": -0.25925,
				"method": "rhf"
			},
			{
				"type": "occ",
				"energy": -0.25096,
				"method": "rhf"
			},
			{
				"type": "occ",
				"energy": -0.24057,
				"method": "rhf"
			},
			{
				"type": "occ",
				"energy": -0.23331,
				"method": "rhf"
			},
			{
				"type": "occ",
				"energy": -0.21792,
				"method": "rhf"
			},
			{
				"type": "unocc",
				"energy": -0.02579,
				"method": "rhf"
			},
			{
				"type": "unocc",
				"energy": 0.01275,
				"method": "rhf"
			},
			{
				"type": "unocc",
				"energy": 0.03015,
				"method": "rhf"
			},
			{
				"type": "unocc",
				"energy": 0.07388,
				"method": "rhf"
			},
			{
				"type": "unocc",
				"energy": 0.09006,
				"method": "rhf"
			}
		],
		"cosmo_sigma_profile": { 
			"-0.025": 0.0,
			"-0.024": 0.0,
			"-0.023": 0.0,
			"-0.022": 0.0,
			"-0.021": 0.0,
			"-0.02": 0.0,
			"-0.019": 0.0,
			"-0.018": 0.0,
			"-0.017": 0.0,
			"-0.016": 0.0,
			"-0.015": 0.0,
			"-0.014": 0.0,
			"-0.013": 0.0,
			"-0.012": 0.0,
			"-0.011": 0.0,
			"-0.01": 0.393446712895,
			"-0.009": 2.81670915394,
			"-0.008": 5.14797705646,
			"-0.007": 5.75491128368,
			"-0.006": 8.59917890654,
			"-0.005": 12.7480814253,
			"-0.004": 22.7983455414,
			"-0.003": 30.3488104513,
			"-0.002": 27.2835574934,
			"-0.001": 20.35132021,
			"0.0": 18.9070857777,
			"0.001": 13.0812895615,
			"0.002": 13.3200806751,
			"0.003": 16.1280505838,
			"0.004": 11.5749683768,
			"0.005": 4.72629450899,
			"0.006": 2.08423631167,
			"0.007": 2.2706603175,
			"0.008": 2.9637790151,
			"0.009": 2.56832536561,
			"0.01": 1.8700335628,
			"0.011": 2.14966443923,
			"0.012": 2.60197900043,
			"0.013": 2.53801300811,
			"0.014": 5.43592344629,
			"0.015": 2.73665070964,
			"0.016": 0.543790067589,
			"0.017": 0.559245428765,
			"0.018": 0.38612281685,
			"0.019": 0.0495710347042,
			"0.02": 0.0,
			"0.021": 0.0,
			"0.022": 0.0,
			"0.023": 0.0,
			"0.024": 0.0,
			"0.025": 0.0
		}
	}
}
