{
	 "smiles": "CC1=C(C=CC(CNC(=O)OC(C)(C)C)=N1)C(O)=O", 
	 "Tm": 437.15, 
	 "num_atms": 37, 
	 "gaussian": { 
		 "optdone": 1, 
		 "sigma_profile": "yes", 
		 "theory": "DFT", 
		 "functional": "B3LYP", 
		 "basiset": "6-31G**", 
		 "properties": { 
			 "R2extent": 8454.591, 
			 "electric_dipole_moment_norm": 3.56566596024, 
			 "electric_quadrupole_moment_norm": 19.8298559334, 
			 "total_energy": -916.684871678, 
			 "HOMO_LUMO_gap": 0.19564, 
			 "cosmo_polarized_energy": -18.98, 
			 "cosmo_cavitation_energy": 40.33, 
			 "cosmo_dispersion_energy": -28.23, 
			 "cosmo_repulsion_energy": 2.21, 
			 "cosmo_total_nonelectrostatic_energy": 14.31, 
			 "SMD_solvation_energy": 6.94 
		},
		"coords": [
			{
				"x": -0.0358198973,
				"y": 4.4373991598,
				"z": 2.8997466134,
				"element": "C" 
			},
			{
				"x": 0.4232101166,
				"y": 3.0492650647,
				"z": 2.5346848029,
				"element": "C" 
			},
			{
				"x": 0.147790014,
				"y": 1.910191979,
				"z": 3.3273975444,
				"element": "C" 
			},
			{
				"x": 0.6073600723,
				"y": 0.663641082,
				"z": 2.8782187792,
				"element": "C" 
			},
			{
				"x": 1.3221766117,
				"y": 0.570752277,
				"z": 1.6922727677,
				"element": "C" 
			},
			{
				"x": 1.5665631436,
				"y": 1.7520845631,
				"z": 0.9821571975,
				"element": "C" 
			},
			{
				"x": 2.3346972188,
				"y": 1.728967776,
				"z": -0.3296994389,
				"element": "C" 
			},
			{
				"x": 1.5864482195,
				"y": 1.1412399537,
				"z": -1.4315479849,
				"element": "N" 
			},
			{
				"x": 1.6234753583,
				"y": -0.200945832,
				"z": -1.6884646289,
				"element": "C" 
			},
			{
				"x": 2.3383453775,
				"y": -0.9933285515,
				"z": -1.0882959005,
				"element": "O" 
			},
			{
				"x": 0.7718690947,
				"y": -0.4897786523,
				"z": -2.6986692185,
				"element": "O" 
			},
			{
				"x": 0.6290635359,
				"y": -1.8659401572,
				"z": -3.2029114188,
				"element": "C" 
			},
			{
				"x": -0.4145421877,
				"y": -1.7054439013,
				"z": -4.3113198012,
				"element": "C" 
			},
			{
				"x": 0.1054193802,
				"y": -2.7811600591,
				"z": -2.0910242359,
				"element": "C" 
			},
			{
				"x": 1.963443014,
				"y": -2.3533391432,
				"z": -3.7769626734,
				"element": "C" 
			},
			{
				"x": 1.1299608411,
				"y": 2.949428004,
				"z": 1.3964794097,
				"element": "N" 
			},
			{
				"x": -0.6531283717,
				"y": 2.0155251209,
				"z": 4.5889199723,
				"element": "C" 
			},
			{
				"x": -0.3590214909,
				"y": 1.1038735877,
				"z": 5.5586638296,
				"element": "O" 
			},
			{
				"x": -1.5267138253,
				"y": 2.8283438296,
				"z": 4.7797399634,
				"element": "O" 
			},
			{
				"x": 0.4348362858,
				"y": 5.1504360423,
				"z": 2.2216833542,
				"element": "H" 
			},
			{
				"x": -1.1236558534,
				"y": 4.5172986064,
				"z": 2.8202651806,
				"element": "H" 
			},
			{
				"x": 0.2111040489,
				"y": 4.6903391008,
				"z": 3.9346800503,
				"element": "H" 
			},
			{
				"x": 0.3789240345,
				"y": -0.2394597388,
				"z": 3.4395467227,
				"element": "H" 
			},
			{
				"x": 1.6811926556,
				"y": -0.3781896237,
				"z": 1.3084594192,
				"element": "H" 
			},
			{
				"x": 3.2504413835,
				"y": 1.1427577735,
				"z": -0.218991612,
				"element": "H" 
			},
			{
				"x": 2.5980986307,
				"y": 2.7566246855,
				"z": -0.5893291343,
				"element": "H" 
			},
			{
				"x": 0.8693194534,
				"y": 1.6834072494,
				"z": -1.8897548709,
				"element": "H" 
			},
			{
				"x": -0.0573311717,
				"y": -1.0152355542,
				"z": -5.0810376636,
				"element": "H" 
			},
			{
				"x": -1.3524257253,
				"y": -1.3147733347,
				"z": -3.9058786593,
				"element": "H" 
			},
			{
				"x": -0.6161020647,
				"y": -2.6731892361,
				"z": -4.7799643812,
				"element": "H" 
			},
			{
				"x": -0.8222784448,
				"y": -2.378091243,
				"z": -1.6723823913,
				"element": "H" 
			},
			{
				"x": -0.1111580186,
				"y": -3.7720998748,
				"z": -2.502996761,
				"element": "H" 
			},
			{
				"x": 0.8398854589,
				"y": -2.8852849993,
				"z": -1.2920897932,
				"element": "H" 
			},
			{
				"x": 1.8246613688,
				"y": -3.3307837101,
				"z": -4.2502673206,
				"element": "H" 
			},
			{
				"x": 2.7157658104,
				"y": -2.4449628277,
				"z": -2.9931361403,
				"element": "H" 
			},
			{
				"x": 2.3265434163,
				"y": -1.6559827318,
				"z": -4.5385082763,
				"element": "H" 
			},
			{
				"x": 0.4597825066,
				"y": 0.6376133155,
				"z": 5.3400166979,
				"element": "H" 
			}
		],
		 "valence_orbital": [ 
			{
				"type": "occ",
				"energy": -0.27938,
				"method": "rhf"
			},
			{
				"type": "occ",
				"energy": -0.27708,
				"method": "rhf"
			},
			{
				"type": "occ",
				"energy": -0.26961,
				"method": "rhf"
			},
			{
				"type": "occ",
				"energy": -0.26198,
				"method": "rhf"
			},
			{
				"type": "occ",
				"energy": -0.25335,
				"method": "rhf"
			},
			{
				"type": "unocc",
				"energy": -0.05771,
				"method": "rhf"
			},
			{
				"type": "unocc",
				"energy": -0.03425,
				"method": "rhf"
			},
			{
				"type": "unocc",
				"energy": 0.02998,
				"method": "rhf"
			},
			{
				"type": "unocc",
				"energy": 0.04806,
				"method": "rhf"
			},
			{
				"type": "unocc",
				"energy": 0.06622,
				"method": "rhf"
			}
		],
		"cosmo_sigma_profile": { 
			"-0.025": 0.0,
			"-0.024": 0.0,
			"-0.023": 0.0,
			"-0.022": 0.0,
			"-0.021": 0.0,
			"-0.02": 0.0,
			"-0.019": 0.10478630411,
			"-0.018": 1.07592844513,
			"-0.017": 0.921431438383,
			"-0.016": 1.13640430494,
			"-0.015": 1.27331417507,
			"-0.014": 1.55074196027,
			"-0.013": 2.30700737398,
			"-0.012": 1.94532315111,
			"-0.011": 2.19970400544,
			"-0.01": 1.96716700951,
			"-0.009": 2.587635407,
			"-0.008": 3.42549473182,
			"-0.007": 3.55164195472,
			"-0.006": 6.41909749329,
			"-0.005": 10.809516619,
			"-0.004": 21.9611075686,
			"-0.003": 27.7371569219,
			"-0.002": 27.9926554253,
			"-0.001": 31.1863467682,
			"0.0": 45.9382206722,
			"0.001": 32.4002560948,
			"0.002": 13.4067434027,
			"0.003": 9.64696874015,
			"0.004": 8.64463562948,
			"0.005": 7.45131663639,
			"0.006": 7.2249441201,
			"0.007": 6.95759437527,
			"0.008": 6.16277680791,
			"0.009": 5.36767839762,
			"0.01": 6.91591873925,
			"0.011": 7.24779589892,
			"0.012": 5.37580262594,
			"0.013": 3.91037730331,
			"0.014": 0.387388719198,
			"0.015": 0.0,
			"0.016": 0.0,
			"0.017": 0.0,
			"0.018": 0.0,
			"0.019": 0.0,
			"0.02": 0.0,
			"0.021": 0.0,
			"0.022": 0.0,
			"0.023": 0.0,
			"0.024": 0.0,
			"0.025": 0.0
		}
	}
}
