{
	 "smiles": "NC1=CC(Cl)=C(I)C=C1", 
	 "Tm": 341.15, 
	 "num_atms": 14, 
	 "gaussian": { 
		 "optdone": 1, 
		 "sigma_profile": "no", 
		 "theory": "DFT", 
		 "functional": "B3LYP", 
		 "basiset": "6-31G**", 
		 "properties": { 
			 "R2extent": 2998.3847, 
			 "electric_dipole_moment_norm": 4.33788370176, 
			 "electric_quadrupole_moment_norm": 18.4449713003, 
			 "total_energy": -757.980270486, 
			 "HOMO_LUMO_gap": 0.1732, 
			 "cosmo_polarized_energy": -91574.44, 
			 "cosmo_cavitation_energy": 22.86, 
			 "cosmo_dispersion_energy": -18.62, 
			 "cosmo_repulsion_energy": 1.49, 
			 "cosmo_total_nonelectrostatic_energy": 5.73, 
			 "SMD_solvation_energy": 2.79 
		},
		"coords": [
			{
				"x": -3.6371579838,
				"y": 0.341261238,
				"z": -0.3138547465,
				"element": "N" 
			},
			{
				"x": -2.5227433271,
				"y": -0.488899762,
				"z": -0.3275832456,
				"element": "C" 
			},
			{
				"x": -2.5377039314,
				"y": -1.7159754502,
				"z": 0.3531302124,
				"element": "C" 
			},
			{
				"x": -1.4028640809,
				"y": -2.5255412457,
				"z": 0.3874091124,
				"element": "C" 
			},
			{
				"x": -1.5251149286,
				"y": -4.0396203429,
				"z": 1.2605509451,
				"element": "Cl" 
			},
			{
				"x": -0.2219269443,
				"y": -2.1356275814,
				"z": -0.2566633752,
				"element": "C" 
			},
			{
				"x": 1.5341679412,
				"y": -3.3074891955,
				"z": -0.2554680841,
				"element": "I" 
			},
			{
				"x": -0.2113237763,
				"y": -0.9106204591,
				"z": -0.9344372062,
				"element": "C" 
			},
			{
				"x": -1.3367187427,
				"y": -0.097538749,
				"z": -0.9735036,
				"element": "C" 
			},
			{
				"x": -3.6929082043,
				"y": 1.0161544036,
				"z": -1.0631410258,
				"element": "H" 
			},
			{
				"x": -4.5227581201,
				"y": -0.1078171354,
				"z": -0.1290265383,
				"element": "H" 
			},
			{
				"x": -3.435225514,
				"y": -2.0457867948,
				"z": 0.8659063913,
				"element": "H" 
			},
			{
				"x": 0.6926853336,
				"y": -0.5908532504,
				"z": -1.440692438,
				"element": "H" 
			},
			{
				"x": -1.2962077213,
				"y": 0.8498543248,
				"z": -1.5038264016,
				"element": "H" 
			}
		],
		 "valence_orbital": [ 
			{
				"type": "occ",
				"energy": -0.31789,
				"method": "rhf"
			},
			{
				"type": "occ",
				"energy": -0.27031,
				"method": "rhf"
			},
			{
				"type": "occ",
				"energy": -0.26023,
				"method": "rhf"
			},
			{
				"type": "occ",
				"energy": -0.25422,
				"method": "rhf"
			},
			{
				"type": "occ",
				"energy": -0.2129,
				"method": "rhf"
			},
			{
				"type": "unocc",
				"energy": -0.0397,
				"method": "rhf"
			},
			{
				"type": "unocc",
				"energy": -0.01851,
				"method": "rhf"
			},
			{
				"type": "unocc",
				"energy": -0.0062,
				"method": "rhf"
			},
			{
				"type": "unocc",
				"energy": 0.03413,
				"method": "rhf"
			},
			{
				"type": "unocc",
				"energy": 0.05493,
				"method": "rhf"
			}
		],
		"cosmo_sigma_profile": { 
			"0.0": 0.0,
			"0.0": 0.0,
			"0.0": 0.0,
			"0.0": 0.0,
			"0.0": 0.0,
			"0.0": 0.0,
			"0.0": 0.0,
			"0.0": 0.0,
			"0.0": 0.0,
			"0.0": 0.0,
			"0.0": 0.0,
			"0.0": 0.0,
			"0.0": 0.0,
			"0.0": 0.0,
			"0.0": 0.0,
			"0.0": 0.0,
			"0.0": 0.0,
			"0.0": 0.0,
			"0.0": 0.0,
			"0.0": 0.0,
			"0.0": 0.0,
			"0.0": 0.0,
			"0.0": 0.0,
			"0.0": 0.0,
			"0.0": 0.0,
			"0.0": 0.0,
			"0.0": 0.0,
			"0.0": 0.0,
			"0.0": 0.0,
			"0.0": 0.0,
			"0.0": 0.0,
			"0.0": 0.0,
			"0.0": 0.0,
			"0.0": 0.0,
			"0.0": 0.0,
			"0.0": 0.0,
			"0.0": 0.0,
			"0.0": 0.0,
			"0.0": 0.0,
			"0.0": 0.0,
			"0.0": 0.0,
			"0.0": 0.0,
			"0.0": 0.0,
			"0.0": 0.0,
			"0.0": 0.0,
			"0.0": 0.0,
			"0.0": 0.0,
			"0.0": 0.0,
			"0.0": 0.0,
			"0.0": 0.0,
			"0.0": 0.0
		}
	}
}
