{
	 "smiles": "CC1=CC(C=O)=C(C)N1C1=CC=C(Cl)C=C1", 
	 "Tm": 397.15, 
	 "num_atms": 28, 
	 "gaussian": { 
		 "optdone": 1, 
		 "sigma_profile": "yes", 
		 "theory": "DFT", 
		 "functional": "B3LYP", 
		 "basiset": "6-31G**", 
		 "properties": { 
			 "R2extent": 6007.0915, 
			 "electric_dipole_moment_norm": 4.66690890098, 
			 "electric_quadrupole_moment_norm": 29.1871867526, 
			 "total_energy": -1092.78047466, 
			 "HOMO_LUMO_gap": 0.17333, 
			 "cosmo_polarized_energy": -13.24, 
			 "cosmo_cavitation_energy": 34.26, 
			 "cosmo_dispersion_energy": -23.55, 
			 "cosmo_repulsion_energy": 1.85, 
			 "cosmo_total_nonelectrostatic_energy": 12.56, 
			 "SMD_solvation_energy": 6.83 
		},
		"coords": [
			{
				"x": -1.3378200659,
				"y": 0.1310021205,
				"z": -1.4446705098,
				"element": "C" 
			},
			{
				"x": -1.5378306065,
				"y": -0.1910373079,
				"z": 0.0011772136,
				"element": "C" 
			},
			{
				"x": -2.6002107963,
				"y": 0.0443350418,
				"z": 0.8297231626,
				"element": "C" 
			},
			{
				"x": -2.2670182927,
				"y": -0.4470064751,
				"z": 2.1336118473,
				"element": "C" 
			},
			{
				"x": -3.1300158239,
				"y": -0.3946676262,
				"z": 3.3038347076,
				"element": "C" 
			},
			{
				"x": -4.2550443256,
				"y": 0.0826695953,
				"z": 3.314253732,
				"element": "O" 
			},
			{
				"x": -0.981041112,
				"y": -0.9789424297,
				"z": 2.0681968149,
				"element": "C" 
			},
			{
				"x": -0.1366853829,
				"y": -1.6400381547,
				"z": 3.1110730942,
				"element": "C" 
			},
			{
				"x": -0.5428953316,
				"y": -0.8202138609,
				"z": 0.7685309936,
				"element": "N" 
			},
			{
				"x": 0.731895975,
				"y": -1.2370860757,
				"z": 0.2726216133,
				"element": "C" 
			},
			{
				"x": 1.8686941457,
				"y": -0.4611563882,
				"z": 0.5199803854,
				"element": "C" 
			},
			{
				"x": 3.1139857049,
				"y": -0.864736964,
				"z": 0.0399497071,
				"element": "C" 
			},
			{
				"x": 3.2093320681,
				"y": -2.0464172301,
				"z": -0.6956705192,
				"element": "C" 
			},
			{
				"x": 4.7728346562,
				"y": -2.5575620554,
				"z": -1.3060703748,
				"element": "Cl" 
			},
			{
				"x": 2.0835093806,
				"y": -2.8287323548,
				"z": -0.9549109005,
				"element": "C" 
			},
			{
				"x": 0.8439062762,
				"y": -2.4202519119,
				"z": -0.4644790507,
				"element": "C" 
			},
			{
				"x": -1.190023637,
				"y": -0.7648828937,
				"z": -2.0593493665,
				"element": "H" 
			},
			{
				"x": -2.2209753693,
				"y": 0.651712061,
				"z": -1.821267618,
				"element": "H" 
			},
			{
				"x": -0.4691563905,
				"y": 0.7801279437,
				"z": -1.6080222878,
				"element": "H" 
			},
			{
				"x": -3.5321584724,
				"y": 0.5207734428,
				"z": 0.5623698896,
				"element": "H" 
			},
			{
				"x": -2.7006179652,
				"y": -0.8284814729,
				"z": 4.2349603238,
				"element": "H" 
			},
			{
				"x": 0.1656024949,
				"y": -2.6488817761,
				"z": 2.8067870704,
				"element": "H" 
			},
			{
				"x": 0.7815957091,
				"y": -1.0776703893,
				"z": 3.3165846026,
				"element": "H" 
			},
			{
				"x": -0.690198078,
				"y": -1.7250980077,
				"z": 4.0474546046,
				"element": "H" 
			},
			{
				"x": 1.7728028279,
				"y": 0.461229423,
				"z": 1.0838644807,
				"element": "H" 
			},
			{
				"x": 3.9994581536,
				"y": -0.2682040687,
				"z": 0.2283226163,
				"element": "H" 
			},
			{
				"x": 2.1776270817,
				"y": -3.7448586696,
				"z": -1.5269643019,
				"element": "H" 
			},
			{
				"x": -0.0415528242,
				"y": -3.0205235157,
				"z": -0.6476919301,
				"element": "H" 
			}
		],
		 "valence_orbital": [ 
			{
				"type": "occ",
				"energy": -0.28621,
				"method": "rhf"
			},
			{
				"type": "occ",
				"energy": -0.26811,
				"method": "rhf"
			},
			{
				"type": "occ",
				"energy": -0.24496,
				"method": "rhf"
			},
			{
				"type": "occ",
				"energy": -0.23217,
				"method": "rhf"
			},
			{
				"type": "occ",
				"energy": -0.21276,
				"method": "rhf"
			},
			{
				"type": "unocc",
				"energy": -0.03943,
				"method": "rhf"
			},
			{
				"type": "unocc",
				"energy": -0.03752,
				"method": "rhf"
			},
			{
				"type": "unocc",
				"energy": -0.02389,
				"method": "rhf"
			},
			{
				"type": "unocc",
				"energy": 0.01357,
				"method": "rhf"
			},
			{
				"type": "unocc",
				"energy": 0.03288,
				"method": "rhf"
			}
		],
		"cosmo_sigma_profile": { 
			"-0.025": 0.0,
			"-0.024": 0.0,
			"-0.023": 0.0,
			"-0.022": 0.0,
			"-0.021": 0.0,
			"-0.02": 0.0,
			"-0.019": 0.0,
			"-0.018": 0.0,
			"-0.017": 0.0,
			"-0.016": 0.0,
			"-0.015": 0.0,
			"-0.014": 0.0,
			"-0.013": 0.0,
			"-0.012": 0.0,
			"-0.011": 0.0,
			"-0.01": 0.0,
			"-0.009": 0.0,
			"-0.008": 3.01685370922,
			"-0.007": 9.78774340952,
			"-0.006": 11.4328579225,
			"-0.005": 19.3800234096,
			"-0.004": 21.4074403316,
			"-0.003": 24.4211179563,
			"-0.002": 25.3575514431,
			"-0.001": 27.3020759703,
			"0.0": 22.7371321793,
			"0.001": 21.1532684861,
			"0.002": 22.2097317993,
			"0.003": 13.0049712203,
			"0.004": 16.7909028128,
			"0.005": 10.3902228095,
			"0.006": 5.93419820758,
			"0.007": 2.95143853161,
			"0.008": 1.48444398007,
			"0.009": 2.06241228812,
			"0.01": 1.9381208763,
			"0.011": 1.90060189816,
			"0.012": 3.7223297278,
			"0.013": 5.05973447231,
			"0.014": 2.05876864637,
			"0.015": 0.245070781293,
			"0.016": 0.0,
			"0.017": 0.0,
			"0.018": 0.0,
			"0.019": 0.0,
			"0.02": 0.0,
			"0.021": 0.0,
			"0.022": 0.0,
			"0.023": 0.0,
			"0.024": 0.0,
			"0.0": 0.0
		}
	}
}
