{
	 "smiles": "OC1=C(C=CC(F)=C1)C(F)(F)F", 
	 "Tm": 323.15, 
	 "num_atms": 16, 
	 "gaussian": { 
		 "optdone": 1, 
		 "sigma_profile": "yes", 
		 "theory": "DFT", 
		 "functional": "B3LYP", 
		 "basiset": "6-31G**", 
		 "properties": { 
			 "R2extent": 2913.5016, 
			 "electric_dipole_moment_norm": 2.49538958882, 
			 "electric_quadrupole_moment_norm": 8.82549889808, 
			 "total_energy": -743.734179455, 
			 "HOMO_LUMO_gap": 0.22019, 
			 "cosmo_polarized_energy": -9.19, 
			 "cosmo_cavitation_energy": 22.39, 
			 "cosmo_dispersion_energy": -16.07, 
			 "cosmo_repulsion_energy": 1.2, 
			 "cosmo_total_nonelectrostatic_energy": 7.52, 
			 "SMD_solvation_energy": 5.95 
		},
		"coords": [
			{
				"x": 0.5293772361,
				"y": -0.1428086185,
				"z": 0.8126777554,
				"element": "O" 
			},
			{
				"x": 0.8406195083,
				"y": -1.0646946809,
				"z": -0.1336239073,
				"element": "C" 
			},
			{
				"x": 0.3132018012,
				"y": -0.8850256531,
				"z": -1.4274308389,
				"element": "C" 
			},
			{
				"x": 0.6155082135,
				"y": -1.816562982,
				"z": -2.4217910452,
				"element": "C" 
			},
			{
				"x": 1.4268459027,
				"y": -2.9203152864,
				"z": -2.1651178357,
				"element": "C" 
			},
			{
				"x": 1.9312222664,
				"y": -3.0690456137,
				"z": -0.8795755006,
				"element": "C" 
			},
			{
				"x": 2.7178433923,
				"y": -4.1242254967,
				"z": -0.5994651638,
				"element": "F" 
			},
			{
				"x": 1.6559251363,
				"y": -2.1660677245,
				"z": 0.1405003948,
				"element": "C" 
			},
			{
				"x": -0.565155236,
				"y": 0.2998905743,
				"z": -1.7262081876,
				"element": "C" 
			},
			{
				"x": -1.6778551322,
				"y": 0.3121424274,
				"z": -0.9611133568,
				"element": "F" 
			},
			{
				"x": -0.9720750342,
				"y": 0.2980003168,
				"z": -3.0178855731,
				"element": "F" 
			},
			{
				"x": 0.0734490389,
				"y": 1.4707992941,
				"z": -1.5145482849,
				"element": "F" 
			},
			{
				"x": 0.9503148325,
				"y": -0.3797861251,
				"z": 1.6492296002,
				"element": "H" 
			},
			{
				"x": 0.2048535507,
				"y": -1.6693840245,
				"z": -3.4136444998,
				"element": "H" 
			},
			{
				"x": 1.6665213591,
				"y": -3.6480739579,
				"z": -2.9308931948,
				"element": "H" 
			},
			{
				"x": 2.0754031644,
				"y": -2.3284424492,
				"z": 1.128589638,
				"element": "H" 
			}
		],
		 "valence_orbital": [ 
			{
				"type": "occ",
				"energy": -0.37124,
				"method": "rhf"
			},
			{
				"type": "occ",
				"energy": -0.36381,
				"method": "rhf"
			},
			{
				"type": "occ",
				"energy": -0.34841,
				"method": "rhf"
			},
			{
				"type": "occ",
				"energy": -0.26946,
				"method": "rhf"
			},
			{
				"type": "occ",
				"energy": -0.24543,
				"method": "rhf"
			},
			{
				"type": "unocc",
				"energy": -0.02524,
				"method": "rhf"
			},
			{
				"type": "unocc",
				"energy": -0.01244,
				"method": "rhf"
			},
			{
				"type": "unocc",
				"energy": 0.0519,
				"method": "rhf"
			},
			{
				"type": "unocc",
				"energy": 0.0813,
				"method": "rhf"
			},
			{
				"type": "unocc",
				"energy": 0.1239,
				"method": "rhf"
			}
		],
		"cosmo_sigma_profile": { 
			"-0.025": 0.0,
			"-0.024": 0.0,
			"-0.023": 0.0,
			"-0.022": 0.0,
			"-0.021": 0.0,
			"-0.02": 0.0182300673148,
			"-0.019": 0.767657390331,
			"-0.018": 1.42287532718,
			"-0.017": 0.93439951138,
			"-0.016": 1.10925994,
			"-0.015": 1.3366543599,
			"-0.014": 0.508547565425,
			"-0.013": 0.672612736707,
			"-0.012": 1.30269563013,
			"-0.011": 1.68524558735,
			"-0.01": 0.923325228029,
			"-0.009": 1.59368701084,
			"-0.008": 2.0612282189,
			"-0.007": 5.08079787932,
			"-0.006": 5.63089468713,
			"-0.005": 4.58878250763,
			"-0.004": 4.37834604414,
			"-0.003": 5.6345634806,
			"-0.002": 6.5390760525,
			"-0.001": 8.70805610347,
			"0.0": 14.3342535072,
			"0.001": 21.2886379291,
			"0.002": 24.7320582639,
			"0.003": 35.2157682503,
			"0.004": 16.6561661084,
			"0.005": 2.89375950655,
			"0.006": 2.56253517844,
			"0.007": 2.36307634603,
			"0.008": 2.92241056754,
			"0.009": 2.12324034919,
			"0.01": 0.0,
			"0.011": 0.0,
			"0.012": 0.0,
			"0.013": 0.0,
			"0.014": 0.0,
			"0.015": 0.0,
			"0.016": 0.0,
			"0.017": 0.0,
			"0.018": 0.0,
			"0.019": 0.0,
			"0.02": 0.0,
			"0.021": 0.0,
			"0.022": 0.0,
			"0.023": 0.0,
			"0.024": 0.0,
			"0.025": 0.0
		}
	}
}
