{
	 "smiles": "CCOC(=O)C1=C(Cl)C2=C(N=C1)C(OC)=CC(Cl)=C2OC", 
	 "Tm": 426.15, 
	 "num_atms": 34, 
	 "gaussian": { 
		 "optdone": 1, 
		 "sigma_profile": "yes", 
		 "theory": "DFT", 
		 "functional": "B3LYP", 
		 "basiset": "6-31G**", 
		 "properties": { 
			 "R2extent": 8299.5737, 
			 "electric_dipole_moment_norm": 2.16840593524, 
			 "electric_quadrupole_moment_norm": 17.3447359187, 
			 "total_energy": -1817.32309276, 
			 "HOMO_LUMO_gap": 0.14805, 
			 "cosmo_polarized_energy": -11.37, 
			 "cosmo_cavitation_energy": 41.5, 
			 "cosmo_dispersion_energy": -29.36, 
			 "cosmo_repulsion_energy": 2.26, 
			 "cosmo_total_nonelectrostatic_energy": 14.4, 
			 "SMD_solvation_energy": 8.35 
		},
		"coords": [
			{
				"x": -3.5131190648,
				"y": 3.0977663416,
				"z": 2.9706153022,
				"element": "C" 
			},
			{
				"x": -2.023427744,
				"y": 3.0516765235,
				"z": 3.2489521337,
				"element": "C" 
			},
			{
				"x": -1.4382980388,
				"y": 2.103341129,
				"z": 2.3213280594,
				"element": "O" 
			},
			{
				"x": -0.1138052754,
				"y": 1.9260788589,
				"z": 2.4277262226,
				"element": "C" 
			},
			{
				"x": 0.57927799,
				"y": 2.4630271409,
				"z": 3.2696344341,
				"element": "O" 
			},
			{
				"x": 0.438691672,
				"y": 0.9136066007,
				"z": 1.4681137379,
				"element": "C" 
			},
			{
				"x": 0.1081442947,
				"y": 0.7495286133,
				"z": 0.1308882223,
				"element": "C" 
			},
			{
				"x": -0.9758124176,
				"y": 1.9057710681,
				"z": -0.6075558881,
				"element": "Cl" 
			},
			{
				"x": 0.7197630353,
				"y": -0.2968287898,
				"z": -0.6393225139,
				"element": "C" 
			},
			{
				"x": 1.7413930103,
				"y": -1.0571144415,
				"z": 0.0433665515,
				"element": "C" 
			},
			{
				"x": 2.0789679842,
				"y": -0.8550940797,
				"z": 1.3445759462,
				"element": "N" 
			},
			{
				"x": 1.4490243127,
				"y": 0.0769930293,
				"z": 2.0132604146,
				"element": "C" 
			},
			{
				"x": 2.4502814187,
				"y": -2.0864818791,
				"z": -0.6573456322,
				"element": "C" 
			},
			{
				"x": 3.3826210623,
				"y": -2.8720655651,
				"z": -0.0504910937,
				"element": "O" 
			},
			{
				"x": 4.5746296492,
				"y": -2.2424367728,
				"z": 0.4429512506,
				"element": "C" 
			},
			{
				"x": 2.1377167271,
				"y": -2.3635744014,
				"z": -1.9694538218,
				"element": "C" 
			},
			{
				"x": 1.1171954649,
				"y": -1.6492822474,
				"z": -2.6200984816,
				"element": "C" 
			},
			{
				"x": 0.7673984891,
				"y": -2.0579105648,
				"z": -4.2863060967,
				"element": "Cl" 
			},
			{
				"x": 0.3997997712,
				"y": -0.6368415801,
				"z": -1.9986379142,
				"element": "C" 
			},
			{
				"x": -0.5633295504,
				"y": 0.0245153353,
				"z": -2.7034643435,
				"element": "O" 
			},
			{
				"x": -1.8667492567,
				"y": -0.5722179779,
				"z": -2.6711890291,
				"element": "C" 
			},
			{
				"x": -3.7101290685,
				"y": 3.42300815,
				"z": 1.9454231324,
				"element": "H" 
			},
			{
				"x": -3.9940223503,
				"y": 3.8033213097,
				"z": 3.6551764779,
				"element": "H" 
			},
			{
				"x": -3.9688529324,
				"y": 2.1140296142,
				"z": 3.1144920425,
				"element": "H" 
			},
			{
				"x": -1.5440895016,
				"y": 4.0244699977,
				"z": 3.1027425514,
				"element": "H" 
			},
			{
				"x": -1.8017515223,
				"y": 2.7242403733,
				"z": 4.2692995363,
				"element": "H" 
			},
			{
				"x": 1.7293063651,
				"y": 0.2298913441,
				"z": 3.0525592492,
				"element": "H" 
			},
			{
				"x": 5.21659279,
				"y": -3.0571590857,
				"z": 0.7825723455,
				"element": "H" 
			},
			{
				"x": 5.0815000923,
				"y": -1.6954202789,
				"z": -0.3618683662,
				"element": "H" 
			},
			{
				"x": 4.3499744227,
				"y": -1.5699682839,
				"z": 1.2720860603,
				"element": "H" 
			},
			{
				"x": 2.6765234667,
				"y": -3.1465873905,
				"z": -2.4889973642,
				"element": "H" 
			},
			{
				"x": -2.2678713842,
				"y": -0.5872509425,
				"z": -1.6514665923,
				"element": "H" 
			},
			{
				"x": -1.8443676256,
				"y": -1.589464978,
				"z": -3.0758110256,
				"element": "H" 
			},
			{
				"x": -2.5007762858,
				"y": 0.0555338297,
				"z": -3.2989555076,
				"element": "H" 
			}
		],
		 "valence_orbital": [ 
			{
				"type": "occ",
				"energy": -0.28523,
				"method": "rhf"
			},
			{
				"type": "occ",
				"energy": -0.27599,
				"method": "rhf"
			},
			{
				"type": "occ",
				"energy": -0.2665,
				"method": "rhf"
			},
			{
				"type": "occ",
				"energy": -0.26257,
				"method": "rhf"
			},
			{
				"type": "occ",
				"energy": -0.22683,
				"method": "rhf"
			},
			{
				"type": "unocc",
				"energy": -0.07878,
				"method": "rhf"
			},
			{
				"type": "unocc",
				"energy": -0.04832,
				"method": "rhf"
			},
			{
				"type": "unocc",
				"energy": 0.00071,
				"method": "rhf"
			},
			{
				"type": "unocc",
				"energy": 0.01051,
				"method": "rhf"
			},
			{
				"type": "unocc",
				"energy": 0.02096,
				"method": "rhf"
			}
		],
		"cosmo_sigma_profile": { 
			"-0.025": 0.0,
			"-0.024": 0.0,
			"-0.023": 0.0,
			"-0.022": 0.0,
			"-0.021": 0.0,
			"-0.02": 0.0,
			"-0.019": 0.0,
			"-0.018": 0.0,
			"-0.017": 0.0,
			"-0.016": 0.0,
			"-0.015": 0.0,
			"-0.014": 0.0,
			"-0.013": 0.0,
			"-0.012": 0.0,
			"-0.011": 0.0,
			"-0.01": 0.0,
			"-0.009": 0.0431646771168,
			"-0.008": 1.46629936561,
			"-0.007": 2.25343845164,
			"-0.006": 8.99386007442,
			"-0.005": 21.8669723756,
			"-0.004": 31.913638769,
			"-0.003": 40.1885814972,
			"-0.002": 41.5592069328,
			"-0.001": 33.0337483506,
			"0.0": 30.5642536225,
			"0.001": 23.5414625756,
			"0.002": 18.7093767765,
			"0.003": 17.0075681795,
			"0.004": 15.8406999906,
			"0.005": 8.09676099794,
			"0.006": 7.76783610311,
			"0.007": 5.79129863335,
			"0.008": 5.49483726302,
			"0.009": 5.70212260941,
			"0.01": 6.49457264616,
			"0.011": 6.99542225349,
			"0.012": 1.69930768683,
			"0.013": 0.0,
			"0.014": 0.0,
			"0.015": 0.0,
			"0.016": 0.0,
			"0.017": 0.0,
			"0.018": 0.0,
			"0.019": 0.0,
			"0.02": 0.0,
			"0.021": 0.0,
			"0.022": 0.0,
			"0.023": 0.0,
			"0.024": 0.0,
			"0.025": 0.0
		}
	}
}
