{
	 "smiles": "NNC(=O)OCC1=CC=CC=C1", 
	 "Tm": 341.15, 
	 "num_atms": 22, 
	 "gaussian": { 
		 "optdone": 1, 
		 "sigma_profile": "yes", 
		 "theory": "DFT", 
		 "functional": "B3LYP", 
		 "basiset": "6-31G**", 
		 "properties": { 
			 "R2extent": 3261.599, 
			 "electric_dipole_moment_norm": 1.42496188019, 
			 "electric_quadrupole_moment_norm": 5.38588896933, 
			 "total_energy": -570.813956491, 
			 "HOMO_LUMO_gap": 0.23698, 
			 "cosmo_polarized_energy": -11.94, 
			 "cosmo_cavitation_energy": 26.82, 
			 "cosmo_dispersion_energy": -19.59, 
			 "cosmo_repulsion_energy": 1.6, 
			 "cosmo_total_nonelectrostatic_energy": 8.83, 
			 "SMD_solvation_energy": 6.18 
		},
		"coords": [
			{
				"x": 3.0764981374,
				"y": 4.2342927849,
				"z": -1.3416565544,
				"element": "N" 
			},
			{
				"x": 2.6678626758,
				"y": 2.9843292513,
				"z": -0.8432400644,
				"element": "N" 
			},
			{
				"x": 1.3612368334,
				"y": 2.5871412855,
				"z": -0.9421837596,
				"element": "C" 
			},
			{
				"x": 0.4412342731,
				"y": 3.3100663444,
				"z": -1.280470804,
				"element": "O" 
			},
			{
				"x": 1.2488775047,
				"y": 1.2786473951,
				"z": -0.5968206686,
				"element": "O" 
			},
			{
				"x": -0.0931001581,
				"y": 0.7452955081,
				"z": -0.6390947872,
				"element": "C" 
			},
			{
				"x": -0.1101936418,
				"y": -0.5774468723,
				"z": 0.0827296764,
				"element": "C" 
			},
			{
				"x": 0.4317482321,
				"y": -0.6967050795,
				"z": 1.3698534582,
				"element": "C" 
			},
			{
				"x": 0.3783364602,
				"y": -1.9124404273,
				"z": 2.0490628156,
				"element": "C" 
			},
			{
				"x": -0.2253545726,
				"y": -3.023986635,
				"z": 1.454206355,
				"element": "C" 
			},
			{
				"x": -0.768290367,
				"y": -2.9131939695,
				"z": 0.174306062,
				"element": "C" 
			},
			{
				"x": -0.7048278527,
				"y": -1.696459823,
				"z": -0.5087593562,
				"element": "C" 
			},
			{
				"x": 2.7632026306,
				"y": 4.9467157642,
				"z": -0.6847467401,
				"element": "H" 
			},
			{
				"x": 2.56863505,
				"y": 4.4119827686,
				"z": -2.2083365039,
				"element": "H" 
			},
			{
				"x": 3.386895843,
				"y": 2.2780989996,
				"z": -0.7871274956,
				"element": "H" 
			},
			{
				"x": -0.4031542932,
				"y": 0.6302307034,
				"z": -1.6830032066,
				"element": "H" 
			},
			{
				"x": -0.7685419254,
				"y": 1.4722910944,
				"z": -0.1763327602,
				"element": "H" 
			},
			{
				"x": 0.9054870452,
				"y": 0.1652898332,
				"z": 1.830318127,
				"element": "H" 
			},
			{
				"x": 0.8055004607,
				"y": -1.9936478433,
				"z": 3.0446347127,
				"element": "H" 
			},
			{
				"x": -0.2685826003,
				"y": -3.9704242238,
				"z": 1.9855055863,
				"element": "H" 
			},
			{
				"x": -1.2340538583,
				"y": -3.7736130978,
				"z": -0.2975985993,
				"element": "H" 
			},
			{
				"x": -1.120315877,
				"y": -1.6167637613,
				"z": -1.5103454931,
				"element": "H" 
			}
		],
		 "valence_orbital": [ 
			{
				"type": "occ",
				"energy": -0.28326,
				"method": "rhf"
			},
			{
				"type": "occ",
				"energy": -0.27922,
				"method": "rhf"
			},
			{
				"type": "occ",
				"energy": -0.26045,
				"method": "rhf"
			},
			{
				"type": "occ",
				"energy": -0.25323,
				"method": "rhf"
			},
			{
				"type": "occ",
				"energy": -0.24643,
				"method": "rhf"
			},
			{
				"type": "unocc",
				"energy": -0.00945,
				"method": "rhf"
			},
			{
				"type": "unocc",
				"energy": -0.00356,
				"method": "rhf"
			},
			{
				"type": "unocc",
				"energy": 0.04815,
				"method": "rhf"
			},
			{
				"type": "unocc",
				"energy": 0.08816,
				"method": "rhf"
			},
			{
				"type": "unocc",
				"energy": 0.09102,
				"method": "rhf"
			}
		],
		"cosmo_sigma_profile": { 
			"-0.025": 0.0,
			"-0.024": 0.0,
			"-0.023": 0.0,
			"-0.022": 0.0,
			"-0.021": 0.0,
			"-0.02": 0.0,
			"-0.019": 0.0,
			"-0.018": 0.0,
			"-0.017": 0.0,
			"-0.016": 0.0,
			"-0.015": 0.0320934158729,
			"-0.014": 0.925127660951,
			"-0.013": 1.02678373714,
			"-0.012": 0.88004108789,
			"-0.011": 3.54540660395,
			"-0.01": 3.3956345764,
			"-0.009": 2.71514554327,
			"-0.008": 2.76114763027,
			"-0.007": 3.21925364705,
			"-0.006": 11.7729506244,
			"-0.005": 17.299623452,
			"-0.004": 17.9756047293,
			"-0.003": 16.371582117,
			"-0.002": 13.619242609,
			"-0.001": 13.519039066,
			"0.0": 10.873817424,
			"0.001": 10.1526318851,
			"0.002": 11.3410006081,
			"0.003": 11.8497022774,
			"0.004": 11.9966542684,
			"0.005": 14.1612043991,
			"0.006": 9.5627687385,
			"0.007": 3.32138691541,
			"0.008": 2.66447056927,
			"0.009": 1.74671517404,
			"0.01": 2.00422012499,
			"0.011": 2.78792943362,
			"0.012": 3.15462378384,
			"0.013": 5.37614121675,
			"0.014": 0.954393811356,
			"0.015": 0.69867826289,
			"0.016": 0.527469535261,
			"0.017": 0.1314971063,
			"0.018": 0.0,
			"0.019": 0.0,
			"0.02": 0.0,
			"0.021": 0.0,
			"0.022": 0.0,
			"0.023": 0.0,
			"0.024": 0.0,
			"0.025": 0.0
		}
	}
}
