{
	 "smiles": "NC1=NC=C(Cl)C(Cl)=C1", 
	 "Tm": 414.15, 
	 "num_atms": 13, 
	 "gaussian": { 
		 "optdone": 1, 
		 "sigma_profile": "yes", 
		 "theory": "DFT", 
		 "functional": "B3LYP", 
		 "basiset": "6-31G**", 
		 "properties": { 
			 "R2extent": 3965.2253, 
			 "electric_dipole_moment_norm": 2.40526800586, 
			 "electric_quadrupole_moment_norm": 10.5762901081, 
			 "total_energy": -1222.81155458, 
			 "HOMO_LUMO_gap": 0.21943, 
			 "cosmo_polarized_energy": -11.18, 
			 "cosmo_cavitation_energy": 21.11, 
			 "cosmo_dispersion_energy": -16.1, 
			 "cosmo_repulsion_energy": 1.33, 
			 "cosmo_total_nonelectrostatic_energy": 6.35, 
			 "SMD_solvation_energy": 1.64 
		},
		"coords": [
			{
				"x": -0.7009538255,
				"y": 1.3728482658,
				"z": -0.3876051083,
				"element": "N" 
			},
			{
				"x": 0.3147461367,
				"y": 0.9522993921,
				"z": 0.5307703791,
				"element": "C" 
			},
			{
				"x": 0.4034858468,
				"y": -0.3640718469,
				"z": 0.7509328385,
				"element": "N" 
			},
			{
				"x": 1.3337397184,
				"y": -0.8037994646,
				"z": 1.5979185828,
				"element": "C" 
			},
			{
				"x": 2.2289779283,
				"y": 0.0295871378,
				"z": 2.2756137329,
				"element": "C" 
			},
			{
				"x": 3.4013526617,
				"y": -0.6658460272,
				"z": 3.3584692997,
				"element": "Cl" 
			},
			{
				"x": 2.1377925252,
				"y": 1.4073037119,
				"z": 2.0466438446,
				"element": "C" 
			},
			{
				"x": 3.19801334,
				"y": 2.5433389602,
				"z": 2.8328764634,
				"element": "Cl" 
			},
			{
				"x": 1.1666904497,
				"y": 1.870327212,
				"z": 1.1620383191,
				"element": "C" 
			},
			{
				"x": -1.3514269737,
				"y": 2.0099220332,
				"z": 0.0649788219,
				"element": "H" 
			},
			{
				"x": -0.2901252139,
				"y": 1.87466378,
				"z": -1.1706815697,
				"element": "H" 
			},
			{
				"x": 1.3875017849,
				"y": -1.8777194239,
				"z": 1.7615372137,
				"element": "H" 
			},
			{
				"x": 1.0776056214,
				"y": 2.9338462694,
				"z": 0.9692071824,
				"element": "H" 
			}
		],
		 "valence_orbital": [ 
			{
				"type": "occ",
				"energy": -0.32518,
				"method": "rhf"
			},
			{
				"type": "occ",
				"energy": -0.28575,
				"method": "rhf"
			},
			{
				"type": "occ",
				"energy": -0.27573,
				"method": "rhf"
			},
			{
				"type": "occ",
				"energy": -0.26479,
				"method": "rhf"
			},
			{
				"type": "occ",
				"energy": -0.26417,
				"method": "rhf"
			},
			{
				"type": "unocc",
				"energy": -0.04474,
				"method": "rhf"
			},
			{
				"type": "unocc",
				"energy": -0.03568,
				"method": "rhf"
			},
			{
				"type": "unocc",
				"energy": -0.00654,
				"method": "rhf"
			},
			{
				"type": "unocc",
				"energy": 0.05227,
				"method": "rhf"
			},
			{
				"type": "unocc",
				"energy": 0.07766,
				"method": "rhf"
			}
		],
		"cosmo_sigma_profile": { 
			"-0.025": 0.0,
			"-0.024": 0.0,
			"-0.023": 0.0,
			"-0.022": 0.0,
			"-0.021": 0.0,
			"-0.02": 0.0,
			"-0.019": 0.0,
			"-0.018": 0.0,
			"-0.017": 0.0,
			"-0.016": 0.0,
			"-0.015": 0.0,
			"-0.014": 0.0,
			"-0.013": 0.0,
			"-0.012": 2.05068079608,
			"-0.011": 3.49750900525,
			"-0.01": 2.65290403543,
			"-0.009": 4.66725818789,
			"-0.008": 7.12081279499,
			"-0.007": 5.62446068868,
			"-0.006": 4.84831502373,
			"-0.005": 4.2946681999,
			"-0.004": 4.86260367102,
			"-0.003": 8.40957032459,
			"-0.002": 12.8940180376,
			"-0.001": 21.5614518111,
			"0.0": 16.1545128247,
			"0.001": 11.336690251,
			"0.002": 13.5620567559,
			"0.003": 18.6788525338,
			"0.004": 10.7532509823,
			"0.005": 2.66720946192,
			"0.006": 1.85071033959,
			"0.007": 1.57317435836,
			"0.008": 1.00954515589,
			"0.009": 1.01937120357,
			"0.01": 1.27928400994,
			"0.011": 1.86800385733,
			"0.012": 0.917514350475,
			"0.013": 1.2285105028,
			"0.014": 1.23154347386,
			"0.015": 1.52306067698,
			"0.016": 1.13528886755,
			"0.017": 1.66952450859,
			"0.018": 1.02300563081,
			"0.019": 0.723525614429,
			"0.02": 0.0,
			"0.021": 0.0,
			"0.022": 0.0,
			"0.023": 0.0,
			"0.024": 0.0,
			"0.025": 0.0
		}
	}
}
