{
	 "smiles": "C1CC2=CC=C3CCCC4=C3C2=C(C1)C=C4", 
	 "Tm": 406.15, 
	 "num_atms": 32, 
	 "gaussian": { 
		 "optdone": 1, 
		 "sigma_profile": "yes", 
		 "theory": "DFT", 
		 "functional": "B3LYP", 
		 "basiset": "6-31G**", 
		 "properties": { 
			 "R2extent": 3496.2369, 
			 "electric_dipole_moment_norm": 0.0461558230346, 
			 "electric_quadrupole_moment_norm": 6.88586970978, 
			 "total_energy": -619.394460717, 
			 "HOMO_LUMO_gap": 0.16741, 
			 "cosmo_polarized_energy": -4.16, 
			 "cosmo_cavitation_energy": 31.49, 
			 "cosmo_dispersion_energy": -23.97, 
			 "cosmo_repulsion_energy": 1.83, 
			 "cosmo_total_nonelectrostatic_energy": 9.36, 
			 "SMD_solvation_energy": 3.45 
		},
		"coords": [
			{
				"x": 1.5266826895,
				"y": 1.510470789,
				"z": 3.3493071947,
				"element": "C" 
			},
			{
				"x": 2.5059609642,
				"y": 1.5706925684,
				"z": 2.1716213667,
				"element": "C" 
			},
			{
				"x": 1.878710345,
				"y": 1.0672801888,
				"z": 0.8877938756,
				"element": "C" 
			},
			{
				"x": 2.2969749656,
				"y": 1.5353883331,
				"z": -0.3406604912,
				"element": "C" 
			},
			{
				"x": 1.7293092122,
				"y": 1.0580724276,
				"z": -1.5407483879,
				"element": "C" 
			},
			{
				"x": 0.7330110493,
				"y": 0.1038605001,
				"z": -1.5343979255,
				"element": "C" 
			},
			{
				"x": 0.1412238599,
				"y": -0.4177116977,
				"z": -2.8277865086,
				"element": "C" 
			},
			{
				"x": -1.3106469565,
				"y": -0.8757607048,
				"z": -2.6494227347,
				"element": "C" 
			},
			{
				"x": -1.3928080969,
				"y": -1.9004501893,
				"z": -1.512411614,
				"element": "C" 
			},
			{
				"x": -0.7913405623,
				"y": -1.3692781483,
				"z": -0.2274438239,
				"element": "C" 
			},
			{
				"x": 0.2581522924,
				"y": -0.3980419533,
				"z": -0.281298179,
				"element": "C" 
			},
			{
				"x": 0.8363977462,
				"y": 0.0883266123,
				"z": 0.9413295727,
				"element": "C" 
			},
			{
				"x": 0.3542051152,
				"y": -0.4056838021,
				"z": 2.1947601956,
				"element": "C" 
			},
			{
				"x": 0.9715709327,
				"y": 0.0883516602,
				"z": 3.4869963557,
				"element": "C" 
			},
			{
				"x": -0.6692456708,
				"y": -1.3307084048,
				"z": 2.2023376346,
				"element": "C" 
			},
			{
				"x": -1.2367915701,
				"y": -1.8081523553,
				"z": 1.0022460558,
				"element": "C" 
			},
			{
				"x": 0.7009508146,
				"y": 2.2121965883,
				"z": 3.1769005488,
				"element": "H" 
			},
			{
				"x": 2.0242124601,
				"y": 1.8176974851,
				"z": 4.2758879221,
				"element": "H" 
			},
			{
				"x": 3.3856490803,
				"y": 0.9547728329,
				"z": 2.4140551639,
				"element": "H" 
			},
			{
				"x": 2.8800159269,
				"y": 2.5904026803,
				"z": 2.0247822529,
				"element": "H" 
			},
			{
				"x": 3.0761269095,
				"y": 2.293010388,
				"z": -0.3865558335,
				"element": "H" 
			},
			{
				"x": 2.0812568951,
				"y": 1.4565768135,
				"z": -2.4896985107,
				"element": "H" 
			},
			{
				"x": 0.7379711113,
				"y": -1.2714758749,
				"z": -3.1841150138,
				"element": "H" 
			},
			{
				"x": 0.2167792497,
				"y": 0.3513534179,
				"z": -3.6050366092,
				"element": "H" 
			},
			{
				"x": -1.9422462591,
				"y": -0.010779922,
				"z": -2.4109643317,
				"element": "H" 
			},
			{
				"x": -1.6920938961,
				"y": -1.3077781415,
				"z": -3.5812684326,
				"element": "H" 
			},
			{
				"x": -0.8537408334,
				"y": -2.8100117868,
				"z": -1.8191741989,
				"element": "H" 
			},
			{
				"x": -2.4300890267,
				"y": -2.2070905928,
				"z": -1.3354703186,
				"element": "H" 
			},
			{
				"x": 1.7936116323,
				"y": -0.5832086038,
				"z": 3.7789700288,
				"element": "H" 
			},
			{
				"x": 0.232389451,
				"y": 0.0327066125,
				"z": 4.2943401225,
				"element": "H" 
			},
			{
				"x": -1.0521825358,
				"y": -1.6958971464,
				"z": 3.1526919049,
				"element": "H" 
			},
			{
				"x": -2.0467772954,
				"y": -2.532630574,
				"z": 1.0495327185,
				"element": "H" 
			}
		],
		 "valence_orbital": [ 
			{
				"type": "occ",
				"energy": -0.30459,
				"method": "rhf"
			},
			{
				"type": "occ",
				"energy": -0.29326,
				"method": "rhf"
			},
			{
				"type": "occ",
				"energy": -0.25162,
				"method": "rhf"
			},
			{
				"type": "occ",
				"energy": -0.23308,
				"method": "rhf"
			},
			{
				"type": "occ",
				"energy": -0.19283,
				"method": "rhf"
			},
			{
				"type": "unocc",
				"energy": -0.02542,
				"method": "rhf"
			},
			{
				"type": "unocc",
				"energy": -0.00171,
				"method": "rhf"
			},
			{
				"type": "unocc",
				"energy": 0.03584,
				"method": "rhf"
			},
			{
				"type": "unocc",
				"energy": 0.09813,
				"method": "rhf"
			},
			{
				"type": "unocc",
				"energy": 0.1007,
				"method": "rhf"
			}
		],
		"cosmo_sigma_profile": { 
			"-0.025": 0.0,
			"-0.024": 0.0,
			"-0.023": 0.0,
			"-0.022": 0.0,
			"-0.021": 0.0,
			"-0.02": 0.0,
			"-0.019": 0.0,
			"-0.018": 0.0,
			"-0.017": 0.0,
			"-0.016": 0.0,
			"-0.015": 0.0,
			"-0.014": 0.0,
			"-0.013": 0.0,
			"-0.012": 0.0,
			"-0.011": 0.0,
			"-0.01": 0.0,
			"-0.009": 0.0,
			"-0.008": 0.0,
			"-0.007": 0.0,
			"-0.006": 0.0,
			"-0.005": 4.52439489529,
			"-0.004": 14.0073524909,
			"-0.003": 36.5752623874,
			"-0.002": 34.6419206218,
			"-0.001": 38.0281795647,
			"0.0": 36.3486405711,
			"0.001": 19.2652939495,
			"0.002": 10.7214875523,
			"0.003": 9.27545763823,
			"0.004": 11.2393118988,
			"0.005": 16.4944412005,
			"0.006": 13.7606457972,
			"0.007": 2.39535826033,
			"0.008": 0.0,
			"0.009": 0.0,
			"0.01": 0.0,
			"0.011": 0.0,
			"0.012": 0.0,
			"0.013": 0.0,
			"0.014": 0.0,
			"0.015": 0.0,
			"0.016": 0.0,
			"0.017": 0.0,
			"0.018": 0.0,
			"0.019": 0.0,
			"0.02": 0.0,
			"0.021": 0.0,
			"0.022": 0.0,
			"0.023": 0.0,
			"0.024": 0.0,
			"0.025": 0.0
		}
	}
}
