{
	 "smiles": "CN1C(S)=NC=C1C1=CC=C(Cl)C=C1", 
	 "Tm": 519.15, 
	 "num_atms": 23, 
	 "gaussian": { 
		 "optdone": 1, 
		 "sigma_profile": "yes", 
		 "theory": "DFT", 
		 "functional": "B3LYP", 
		 "basiset": "6-31G**", 
		 "properties": { 
			 "R2extent": 5468.7916, 
			 "electric_dipole_moment_norm": 2.04434480947, 
			 "electric_quadrupole_moment_norm": 12.4182825161, 
			 "total_energy": -1354.36634505, 
			 "HOMO_LUMO_gap": 0.17083, 
			 "cosmo_polarized_energy": -10.77, 
			 "cosmo_cavitation_energy": 30.5, 
			 "cosmo_dispersion_energy": -22.85, 
			 "cosmo_repulsion_energy": 1.74, 
			 "cosmo_total_nonelectrostatic_energy": 9.39, 
			 "SMD_solvation_energy": 2.64 
		},
		"coords": [
			{
				"x": 2.181160175,
				"y": 1.9208015638,
				"z": 1.0267467761,
				"element": "C" 
			},
			{
				"x": 1.571638585,
				"y": 1.1404425468,
				"z": 2.0938788168,
				"element": "N" 
			},
			{
				"x": 1.9401430281,
				"y": 1.1617300152,
				"z": 3.4130974236,
				"element": "C" 
			},
			{
				"x": 3.3547204554,
				"y": 2.0779334288,
				"z": 3.9672108587,
				"element": "S" 
			},
			{
				"x": 1.1449983422,
				"y": 0.4484842576,
				"z": 4.1817822823,
				"element": "N" 
			},
			{
				"x": 0.1985630972,
				"y": -0.0588487931,
				"z": 3.3267943339,
				"element": "C" 
			},
			{
				"x": 0.4256654993,
				"y": 0.3369781684,
				"z": 2.025895593,
				"element": "C" 
			},
			{
				"x": -0.3085473245,
				"y": 0.0110051699,
				"z": 0.8006676506,
				"element": "C" 
			},
			{
				"x": -1.7150652058,
				"y": -0.0297277362,
				"z": 0.8296949179,
				"element": "C" 
			},
			{
				"x": -2.4527826367,
				"y": -0.3864948037,
				"z": -0.2958074614,
				"element": "C" 
			},
			{
				"x": -1.7840618009,
				"y": -0.6928078642,
				"z": -1.4810323156,
				"element": "C" 
			},
			{
				"x": -2.707388989,
				"y": -1.1260157355,
				"z": -2.9119031613,
				"element": "Cl" 
			},
			{
				"x": -0.3917293638,
				"y": -0.6595059591,
				"z": -1.5447981571,
				"element": "C" 
			},
			{
				"x": 0.335769472,
				"y": -0.3174963358,
				"z": -0.4065994453,
				"element": "C" 
			},
			{
				"x": 3.0459043097,
				"y": 1.4069246776,
				"z": 0.5932524093,
				"element": "H" 
			},
			{
				"x": 2.5078737962,
				"y": 2.885270662,
				"z": 1.4237951568,
				"element": "H" 
			},
			{
				"x": 1.4447373246,
				"y": 2.0979281762,
				"z": 0.2427051311,
				"element": "H" 
			},
			{
				"x": 3.061766248,
				"y": 1.8754799437,
				"z": 5.264410275,
				"element": "H" 
			},
			{
				"x": -0.5826654762,
				"y": -0.717186762,
				"z": 3.6814778903,
				"element": "H" 
			},
			{
				"x": -2.2329774067,
				"y": 0.2367345516,
				"z": 1.7455577651,
				"element": "H" 
			},
			{
				"x": -3.5363218528,
				"y": -0.4124800894,
				"z": -0.260482244,
				"element": "H" 
			},
			{
				"x": 0.1162747272,
				"y": -0.9141626427,
				"z": -2.4684403458,
				"element": "H" 
			},
			{
				"x": 1.4198249965,
				"y": -0.3378864396,
				"z": -0.45400415,
				"element": "H" 
			}
		],
		 "valence_orbital": [ 
			{
				"type": "occ",
				"energy": -0.27797,
				"method": "rhf"
			},
			{
				"type": "occ",
				"energy": -0.27394,
				"method": "rhf"
			},
			{
				"type": "occ",
				"energy": -0.27068,
				"method": "rhf"
			},
			{
				"type": "occ",
				"energy": -0.25791,
				"method": "rhf"
			},
			{
				"type": "occ",
				"energy": -0.20367,
				"method": "rhf"
			},
			{
				"type": "unocc",
				"energy": -0.03284,
				"method": "rhf"
			},
			{
				"type": "unocc",
				"energy": -0.02164,
				"method": "rhf"
			},
			{
				"type": "unocc",
				"energy": 0.00911,
				"method": "rhf"
			},
			{
				"type": "unocc",
				"energy": 0.02537,
				"method": "rhf"
			},
			{
				"type": "unocc",
				"energy": 0.03169,
				"method": "rhf"
			}
		],
		"cosmo_sigma_profile": { 
			"-0.025": 0.0,
			"-0.024": 0.0,
			"-0.023": 0.0,
			"-0.022": 0.0,
			"-0.021": 0.0,
			"-0.02": 0.0,
			"-0.019": 0.0,
			"-0.018": 0.0,
			"-0.017": 0.0,
			"-0.016": 0.0,
			"-0.015": 0.0,
			"-0.014": 0.0,
			"-0.013": 0.0,
			"-0.012": 0.547893393328,
			"-0.011": 1.44526501869,
			"-0.01": 1.1445014704,
			"-0.009": 1.2805011266,
			"-0.008": 2.00698626848,
			"-0.007": 9.47340733461,
			"-0.006": 17.0911479909,
			"-0.005": 18.3891253408,
			"-0.004": 18.5243438327,
			"-0.003": 17.4416162989,
			"-0.002": 11.4888852415,
			"-0.001": 13.3386920138,
			"0.0": 14.7802369941,
			"0.001": 19.112917188,
			"0.002": 23.2220364138,
			"0.003": 26.4635902937,
			"0.004": 21.2547683547,
			"0.005": 12.1083368925,
			"0.006": 4.85875200514,
			"0.007": 3.86727797834,
			"0.008": 1.9431669226,
			"0.009": 1.51403436807,
			"0.01": 1.44478465641,
			"0.011": 1.02370670897,
			"0.012": 0.921031068857,
			"0.013": 1.36123196258,
			"0.014": 0.927959146206,
			"0.015": 0.710460435734,
			"0.016": 1.32025846212,
			"0.017": 0.359872817602,
			"0.018": 0.0,
			"0.019": 0.0,
			"0.02": 0.0,
			"0.021": 0.0,
			"0.022": 0.0,
			"0.023": 0.0,
			"0.024": 0.0,
			"0.025": 0.0
		}
	}
}
