{
	 "smiles": "CCC=CC(C)(C)C", 
	 "Tm": 136.15, 
	 "num_atms": 24, 
	 "gaussian": { 
		 "optdone": 1, 
		 "sigma_profile": "yes", 
		 "theory": "DFT", 
		 "functional": "B3LYP", 
		 "basiset": "6-31G**", 
		 "properties": { 
			 "R2extent": 2426.5147, 
			 "electric_dipole_moment_norm": 0.0206526027415, 
			 "electric_quadrupole_moment_norm": 1.54837963691, 
			 "total_energy": -314.497459762, 
			 "HOMO_LUMO_gap": 0.26737, 
			 "cosmo_polarized_energy": -1.48, 
			 "cosmo_cavitation_energy": 25.31, 
			 "cosmo_dispersion_energy": -17.72, 
			 "cosmo_repulsion_energy": 1.51, 
			 "cosmo_total_nonelectrostatic_energy": 9.09, 
			 "SMD_solvation_energy": 4.65 
		},
		"coords": [
			{
				"x": -3.8820186603,
				"y": -0.3313607175,
				"z": -3.7125854728,
				"element": "C" 
			},
			{
				"x": -3.7694215717,
				"y": -1.0554720729,
				"z": -2.3600816207,
				"element": "C" 
			},
			{
				"x": -2.6747307469,
				"y": -0.498973646,
				"z": -1.4880436337,
				"element": "C" 
			},
			{
				"x": -1.6215588966,
				"y": -1.1935960524,
				"z": -1.0495508897,
				"element": "C" 
			},
			{
				"x": -0.4749628326,
				"y": -0.709913985,
				"z": -0.1788812434,
				"element": "C" 
			},
			{
				"x": -0.447293668,
				"y": -1.5663946839,
				"z": 1.1087584329,
				"element": "C" 
			},
			{
				"x": -0.6052352572,
				"y": 0.7742331223,
				"z": 0.201012492,
				"element": "C" 
			},
			{
				"x": 0.8470495428,
				"y": -0.9253226507,
				"z": -0.9521310969,
				"element": "C" 
			},
			{
				"x": -4.706336183,
				"y": -0.7349308654,
				"z": -4.310007691,
				"element": "H" 
			},
			{
				"x": -2.9583603659,
				"y": -0.4370386539,
				"z": -4.2907800595,
				"element": "H" 
			},
			{
				"x": -4.0648252988,
				"y": 0.7401308185,
				"z": -3.5733157555,
				"element": "H" 
			},
			{
				"x": -3.6009946431,
				"y": -2.1266327894,
				"z": -2.5253493851,
				"element": "H" 
			},
			{
				"x": -4.7322711982,
				"y": -0.9700251269,
				"z": -1.8352774262,
				"element": "H" 
			},
			{
				"x": -2.7756257675,
				"y": 0.554206777,
				"z": -1.2250409697,
				"element": "H" 
			},
			{
				"x": -1.5490760434,
				"y": -2.2465991833,
				"z": -1.3345561653,
				"element": "H" 
			},
			{
				"x": 0.4034097513,
				"y": -1.2891895565,
				"z": 1.7421720474,
				"element": "H" 
			},
			{
				"x": -0.3553111755,
				"y": -2.6326502836,
				"z": 0.8732235466,
				"element": "H" 
			},
			{
				"x": -1.3648366786,
				"y": -1.4300802942,
				"z": 1.6905049821,
				"element": "H" 
			},
			{
				"x": -1.5240181122,
				"y": 0.9640641584,
				"z": 0.7658679998,
				"element": "H" 
			},
			{
				"x": -0.6139907383,
				"y": 1.4156213304,
				"z": -0.6865633766,
				"element": "H" 
			},
			{
				"x": 0.2399591692,
				"y": 1.0815486589,
				"z": 0.8262489913,
				"element": "H" 
			},
			{
				"x": 1.708584265,
				"y": -0.6421961083,
				"z": -0.3362507983,
				"element": "H" 
			},
			{
				"x": 0.9716050263,
				"y": -1.9757090067,
				"z": -1.2385288256,
				"element": "H" 
			},
			{
				"x": 0.8689600833,
				"y": -0.324019189,
				"z": -1.8669440823,
				"element": "H" 
			}
		],
		 "valence_orbital": [ 
			{
				"type": "occ",
				"energy": -0.33369,
				"method": "rhf"
			},
			{
				"type": "occ",
				"energy": -0.32672,
				"method": "rhf"
			},
			{
				"type": "occ",
				"energy": -0.31755,
				"method": "rhf"
			},
			{
				"type": "occ",
				"energy": -0.30791,
				"method": "rhf"
			},
			{
				"type": "occ",
				"energy": -0.23589,
				"method": "rhf"
			},
			{
				"type": "unocc",
				"energy": 0.03148,
				"method": "rhf"
			},
			{
				"type": "unocc",
				"energy": 0.08919,
				"method": "rhf"
			},
			{
				"type": "unocc",
				"energy": 0.11288,
				"method": "rhf"
			},
			{
				"type": "unocc",
				"energy": 0.11908,
				"method": "rhf"
			},
			{
				"type": "unocc",
				"energy": 0.13795,
				"method": "rhf"
			}
		],
		"cosmo_sigma_profile": { 
			"-0.025": 0.0,
			"-0.024": 0.0,
			"-0.023": 0.0,
			"-0.022": 0.0,
			"-0.021": 0.0,
			"-0.02": 0.0,
			"-0.019": 0.0,
			"-0.018": 0.0,
			"-0.017": 0.0,
			"-0.016": 0.0,
			"-0.015": 0.0,
			"-0.014": 0.0,
			"-0.013": 0.0,
			"-0.012": 0.0,
			"-0.011": 0.0,
			"-0.01": 0.0,
			"-0.009": 0.0,
			"-0.008": 0.0,
			"-0.007": 0.0,
			"-0.006": 0.0,
			"-0.005": 0.0,
			"-0.004": 0.208219925614,
			"-0.003": 13.6435839998,
			"-0.002": 39.6715884836,
			"-0.001": 33.2562587213,
			"0.0": 32.7626196333,
			"0.001": 35.6598905052,
			"0.002": 23.6257750665,
			"0.003": 5.08554159922,
			"0.004": 3.56966001412,
			"0.005": 3.48152264272,
			"0.006": 2.13734616447,
			"0.007": 1.46985794175,
			"0.008": 0.222647714464,
			"0.009": 0.0,
			"0.01": 0.0,
			"0.011": 0.0,
			"0.012": 0.0,
			"0.013": 0.0,
			"0.014": 0.0,
			"0.015": 0.0,
			"0.016": 0.0,
			"0.017": 0.0,
			"0.018": 0.0,
			"0.019": 0.0,
			"0.02": 0.0,
			"0.021": 0.0,
			"0.022": 0.0,
			"0.023": 0.0,
			"0.024": 0.0,
			"0.025": 0.0
		}
	}
}
