{
	 "smiles": "CC1=CC(C)=C(C=C1)N1N=C(C=C1N)C1=CC=CC=C1", 
	 "Tm": 400.15, 
	 "num_atms": 37, 
	 "gaussian": { 
		 "optdone": 1, 
		 "sigma_profile": "yes", 
		 "theory": "DFT", 
		 "functional": "B3LYP", 
		 "basiset": "6-31G**", 
		 "properties": { 
			 "R2extent": 7864.9338, 
			 "electric_dipole_moment_norm": 4.00500138077, 
			 "electric_quadrupole_moment_norm": 10.3027294165, 
			 "total_energy": -822.311372698, 
			 "HOMO_LUMO_gap": 0.17976, 
			 "cosmo_polarized_energy": -14.6, 
			 "cosmo_cavitation_energy": 40.32, 
			 "cosmo_dispersion_energy": -28.57, 
			 "cosmo_repulsion_energy": 2.19, 
			 "cosmo_total_nonelectrostatic_energy": 13.94, 
			 "SMD_solvation_energy": 6.38 
		},
		"coords": [
			{
				"x": 1.3780455791,
				"y": 5.518735237,
				"z": -1.3390748272,
				"element": "C" 
			},
			{
				"x": 1.1843072283,
				"y": 4.0838238902,
				"z": -0.9085440382,
				"element": "C" 
			},
			{
				"x": 1.7860114827,
				"y": 3.5951425242,
				"z": 0.2562132817,
				"element": "C" 
			},
			{
				"x": 1.6189274064,
				"y": 2.2763927658,
				"z": 0.6997955596,
				"element": "C" 
			},
			{
				"x": 2.3418503609,
				"y": 1.7757180846,
				"z": 1.9262200278,
				"element": "C" 
			},
			{
				"x": 0.786058625,
				"y": 1.4373526072,
				"z": -0.062801626,
				"element": "C" 
			},
			{
				"x": 0.1887248605,
				"y": 1.8984778589,
				"z": -1.2399645484,
				"element": "C" 
			},
			{
				"x": 0.3892147576,
				"y": 3.2086626802,
				"z": -1.6612342181,
				"element": "C" 
			},
			{
				"x": 0.5618804312,
				"y": 0.0824675991,
				"z": 0.3267972983,
				"element": "N" 
			},
			{
				"x": 0.9561266898,
				"y": -0.9444572365,
				"z": -0.4889403013,
				"element": "N" 
			},
			{
				"x": 0.5141042868,
				"y": -2.0513757564,
				"z": 0.1105927605,
				"element": "C" 
			},
			{
				"x": -0.1897663519,
				"y": -1.7490790981,
				"z": 1.3088149719,
				"element": "C" 
			},
			{
				"x": -0.1507034328,
				"y": -0.3708530948,
				"z": 1.4055148537,
				"element": "C" 
			},
			{
				"x": -0.6457187533,
				"y": 0.4975568225,
				"z": 2.3767841271,
				"element": "N" 
			},
			{
				"x": 0.7755818262,
				"y": -3.3734812103,
				"z": -0.4842558141,
				"element": "C" 
			},
			{
				"x": 0.3593463844,
				"y": -4.5528150329,
				"z": 0.1529117059,
				"element": "C" 
			},
			{
				"x": 0.6089438218,
				"y": -5.7999470936,
				"z": -0.4193984463,
				"element": "C" 
			},
			{
				"x": 1.2806814747,
				"y": -5.8921312383,
				"z": -1.6391769599,
				"element": "C" 
			},
			{
				"x": 1.7012301738,
				"y": -4.7238568561,
				"z": -2.281305348,
				"element": "C" 
			},
			{
				"x": 1.4522841059,
				"y": -3.478066145,
				"z": -1.7120512779,
				"element": "C" 
			},
			{
				"x": 1.4682551459,
				"y": 5.6008109918,
				"z": -2.4267938235,
				"element": "H" 
			},
			{
				"x": 2.2756062112,
				"y": 5.9540036411,
				"z": -0.8906236994,
				"element": "H" 
			},
			{
				"x": 0.5262430024,
				"y": 6.1413977146,
				"z": -1.0377531619,
				"element": "H" 
			},
			{
				"x": 2.4292329942,
				"y": 4.255734333,
				"z": 0.8334449429,
				"element": "H" 
			},
			{
				"x": 2.8595688001,
				"y": 0.8346675085,
				"z": 1.7143475382,
				"element": "H" 
			},
			{
				"x": 1.6487202507,
				"y": 1.5784135924,
				"z": 2.7509293258,
				"element": "H" 
			},
			{
				"x": 3.080779069,
				"y": 2.5074413511,
				"z": 2.262704587,
				"element": "H" 
			},
			{
				"x": -0.4188209645,
				"y": 1.2105442257,
				"z": -1.8186375923,
				"element": "H" 
			},
			{
				"x": -0.0761298975,
				"y": 3.5552802739,
				"z": -2.5802812396,
				"element": "H" 
			},
			{
				"x": -0.670457034,
				"y": -2.4265466393,
				"z": 1.9980095379,
				"element": "H" 
			},
			{
				"x": -0.9317378122,
				"y": 1.3968518167,
				"z": 2.0053243325,
				"element": "H" 
			},
			{
				"x": -1.3883873369,
				"y": 0.0821641343,
				"z": 2.9239200198,
				"element": "H" 
			},
			{
				"x": -0.1606579558,
				"y": -4.4982998386,
				"z": 1.1046465697,
				"element": "H" 
			},
			{
				"x": 0.2786330105,
				"y": -6.7008442326,
				"z": 0.0905063074,
				"element": "H" 
			},
			{
				"x": 1.4757320248,
				"y": -6.8634192118,
				"z": -2.0848820385,
				"element": "H" 
			},
			{
				"x": 2.225987967,
				"y": -4.7847950472,
				"z": -3.2309421233,
				"element": "H" 
			},
			{
				"x": 1.777001568,
				"y": -2.5682719214,
				"z": -2.2053166642,
				"element": "H" 
			}
		],
		 "valence_orbital": [ 
			{
				"type": "occ",
				"energy": -0.24912,
				"method": "rhf"
			},
			{
				"type": "occ",
				"energy": -0.24263,
				"method": "rhf"
			},
			{
				"type": "occ",
				"energy": -0.23739,
				"method": "rhf"
			},
			{
				"type": "occ",
				"energy": -0.21207,
				"method": "rhf"
			},
			{
				"type": "occ",
				"energy": -0.19663,
				"method": "rhf"
			},
			{
				"type": "unocc",
				"energy": -0.01687,
				"method": "rhf"
			},
			{
				"type": "unocc",
				"energy": -0.00542,
				"method": "rhf"
			},
			{
				"type": "unocc",
				"energy": -0.00224,
				"method": "rhf"
			},
			{
				"type": "unocc",
				"energy": 0.01278,
				"method": "rhf"
			},
			{
				"type": "unocc",
				"energy": 0.05493,
				"method": "rhf"
			}
		],
		"cosmo_sigma_profile": { 
			"-0.025": 0.0,
			"-0.024": 0.0,
			"-0.023": 0.0,
			"-0.022": 0.0,
			"-0.021": 0.0,
			"-0.02": 0.0,
			"-0.019": 0.0,
			"-0.018": 0.0,
			"-0.017": 0.0,
			"-0.016": 0.0,
			"-0.015": 0.0,
			"-0.014": 0.23145987797,
			"-0.013": 1.70732419584,
			"-0.012": 2.14782173735,
			"-0.011": 2.83855867171,
			"-0.01": 2.54760234125,
			"-0.009": 2.60822505707,
			"-0.008": 1.74874929499,
			"-0.007": 4.84894956887,
			"-0.006": 9.38691622053,
			"-0.005": 19.6090424279,
			"-0.004": 27.2359763984,
			"-0.003": 26.3310525217,
			"-0.002": 24.3043182454,
			"-0.001": 27.070001897,
			"0.0": 28.956808478,
			"0.001": 20.5642476913,
			"0.002": 16.8400209788,
			"0.003": 17.8221215453,
			"0.004": 23.7961811183,
			"0.005": 26.2223241053,
			"0.006": 17.425828719,
			"0.007": 4.56171210126,
			"0.008": 2.63443250093,
			"0.009": 2.65008477539,
			"0.01": 2.45532148891,
			"0.011": 1.12460606726,
			"0.012": 1.25979647677,
			"0.013": 1.08973339936,
			"0.014": 0.751324516906,
			"0.015": 0.159280928224,
			"0.016": 0.0,
			"0.017": 0.0,
			"0.018": 0.0,
			"0.019": 0.0,
			"0.02": 0.0,
			"0.021": 0.0,
			"0.022": 0.0,
			"0.023": 0.0,
			"0.024": 0.0,
			"0.025": 0.0
		}
	}
}
