{
	 "smiles": "CC1=C2NC(=O)C=CC2=C(Cl)C=C1", 
	 "Tm": 528.15, 
	 "num_atms": 21, 
	 "gaussian": { 
		 "optdone": 1, 
		 "sigma_profile": "yes", 
		 "theory": "DFT", 
		 "functional": "B3LYP", 
		 "basiset": "6-31G**", 
		 "properties": { 
			 "R2extent": 2997.7724, 
			 "electric_dipole_moment_norm": 3.6851441288, 
			 "electric_quadrupole_moment_norm": 21.7974956938, 
			 "total_energy": -976.083920731, 
			 "HOMO_LUMO_gap": 0.16429, 
			 "cosmo_polarized_energy": -11.78, 
			 "cosmo_cavitation_energy": 26.42, 
			 "cosmo_dispersion_energy": -19.86, 
			 "cosmo_repulsion_energy": 1.54, 
			 "cosmo_total_nonelectrostatic_energy": 8.1, 
			 "SMD_solvation_energy": 4.7 
		},
		"coords": [
			{
				"x": -3.1016817807,
				"y": 1.0795031128,
				"z": 2.1033030462,
				"element": "C" 
			},
			{
				"x": -2.1810732879,
				"y": 0.3155051828,
				"z": 1.1848646672,
				"element": "C" 
			},
			{
				"x": -1.1726451344,
				"y": 0.9831137379,
				"z": 0.4503383188,
				"element": "C" 
			},
			{
				"x": -1.0146505844,
				"y": 2.3500992605,
				"z": 0.5631808867,
				"element": "N" 
			},
			{
				"x": -0.0680506731,
				"y": 3.1443794501,
				"z": -0.0955109114,
				"element": "C" 
			},
			{
				"x": -0.0340205438,
				"y": 4.3549376062,
				"z": 0.0932624188,
				"element": "O" 
			},
			{
				"x": 0.8150252043,
				"y": 2.3898133501,
				"z": -0.9809587494,
				"element": "C" 
			},
			{
				"x": 0.7026029121,
				"y": 1.04775921,
				"z": -1.1279932954,
				"element": "C" 
			},
			{
				"x": -0.2948402785,
				"y": 0.2842544568,
				"z": -0.4200373285,
				"element": "C" 
			},
			{
				"x": -0.4618261213,
				"y": -1.113487409,
				"z": -0.5307186958,
				"element": "C" 
			},
			{
				"x": 0.5912578438,
				"y": -2.0415708501,
				"z": -1.5911079239,
				"element": "Cl" 
			},
			{
				"x": -1.441005932,
				"y": -1.786547373,
				"z": 0.1781113659,
				"element": "C" 
			},
			{
				"x": -2.2881745092,
				"y": -1.0612367289,
				"z": 1.0273231285,
				"element": "C" 
			},
			{
				"x": -3.6840433053,
				"y": 1.8371667124,
				"z": 1.5630288953,
				"element": "H" 
			},
			{
				"x": -2.5504193494,
				"y": 1.5963269191,
				"z": 2.8995999768,
				"element": "H" 
			},
			{
				"x": -3.8131596277,
				"y": 0.4053934489,
				"z": 2.5852789142,
				"element": "H" 
			},
			{
				"x": -1.6270734334,
				"y": 2.8718477589,
				"z": 1.1764476594,
				"element": "H" 
			},
			{
				"x": 1.5637420657,
				"y": 2.9659924165,
				"z": -1.5118810614,
				"element": "H" 
			},
			{
				"x": 1.3738024819,
				"y": 0.5154744669,
				"z": -1.7932953431,
				"element": "H" 
			},
			{
				"x": -1.5473116315,
				"y": -2.8597831957,
				"z": 0.0745956314,
				"element": "H" 
			},
			{
				"x": -3.0554543153,
				"y": -1.594641533,
				"z": 1.5816683997,
				"element": "H" 
			}
		],
		 "valence_orbital": [ 
			{
				"type": "occ",
				"energy": -0.31673,
				"method": "rhf"
			},
			{
				"type": "occ",
				"energy": -0.31247,
				"method": "rhf"
			},
			{
				"type": "occ",
				"energy": -0.25561,
				"method": "rhf"
			},
			{
				"type": "occ",
				"energy": -0.24382,
				"method": "rhf"
			},
			{
				"type": "occ",
				"energy": -0.22695,
				"method": "rhf"
			},
			{
				"type": "unocc",
				"energy": -0.06266,
				"method": "rhf"
			},
			{
				"type": "unocc",
				"energy": -0.01857,
				"method": "rhf"
			},
			{
				"type": "unocc",
				"energy": 0.00766,
				"method": "rhf"
			},
			{
				"type": "unocc",
				"energy": 0.02194,
				"method": "rhf"
			},
			{
				"type": "unocc",
				"energy": 0.06937,
				"method": "rhf"
			}
		],
		"cosmo_sigma_profile": { 
			"-0.025": 0.0,
			"-0.024": 0.0,
			"-0.023": 0.0,
			"-0.022": 0.0,
			"-0.021": 0.0,
			"-0.02": 0.0,
			"-0.019": 0.0,
			"-0.018": 0.0,
			"-0.017": 0.0,
			"-0.016": 0.0,
			"-0.015": 0.0,
			"-0.014": 0.42158346533,
			"-0.013": 0.751369147054,
			"-0.012": 1.22004523314,
			"-0.011": 1.21245427603,
			"-0.01": 1.18675670431,
			"-0.009": 1.43637325971,
			"-0.008": 2.06243902865,
			"-0.007": 7.83376766672,
			"-0.006": 12.3320444272,
			"-0.005": 12.3164703322,
			"-0.004": 11.3501174986,
			"-0.003": 11.4907903073,
			"-0.002": 14.4431305152,
			"-0.001": 21.2870465877,
			"0.0": 22.2628253076,
			"0.001": 23.4381046182,
			"0.002": 20.6261842825,
			"0.003": 14.0868230215,
			"0.004": 10.0740129054,
			"0.005": 4.43954854346,
			"0.006": 1.00609559473,
			"0.007": 0.758303647235,
			"0.008": 1.34516070399,
			"0.009": 0.763834289896,
			"0.01": 1.35525947688,
			"0.011": 1.70885691306,
			"0.012": 1.78980676762,
			"0.013": 3.94146467563,
			"0.014": 5.58657793363,
			"0.015": 1.32658525059,
			"0.016": 0.0,
			"0.017": 0.0,
			"0.018": 0.0,
			"0.019": 0.0,
			"0.02": 0.0,
			"0.021": 0.0,
			"0.022": 0.0,
			"0.023": 0.0,
			"0.024": 0.0,
			"0.025": 0.0
		}
	}
}
