{
	 "smiles": "S=C1NC2=C(C=CC=C2)C2CC=NN12", 
	 "Tm": 523.15, 
	 "num_atms": 23, 
	 "gaussian": { 
		 "optdone": 1, 
		 "sigma_profile": "yes", 
		 "theory": "DFT", 
		 "functional": "B3LYP", 
		 "basiset": "6-31G**", 
		 "properties": { 
			 "R2extent": 3422.2208, 
			 "electric_dipole_moment_norm": 6.76333599121, 
			 "electric_quadrupole_moment_norm": 28.9811138718, 
			 "total_energy": -948.90511284, 
			 "HOMO_LUMO_gap": 0.16033, 
			 "cosmo_polarized_energy": -21.18, 
			 "cosmo_cavitation_energy": 27.88, 
			 "cosmo_dispersion_energy": -21.3, 
			 "cosmo_repulsion_energy": 1.6, 
			 "cosmo_total_nonelectrostatic_energy": 8.18, 
			 "SMD_solvation_energy": 2.28 
		},
		"coords": [
			{
				"x": -1.8523094452,
				"y": 3.8177651936,
				"z": -0.3480762933,
				"element": "S" 
			},
			{
				"x": -1.1794064902,
				"y": 2.3167193287,
				"z": -0.0824208125,
				"element": "C" 
			},
			{
				"x": -1.9693536811,
				"y": 1.1819694066,
				"z": 0.0232258692,
				"element": "N" 
			},
			{
				"x": -1.5675236942,
				"y": -0.0185273361,
				"z": 0.6258620533,
				"element": "C" 
			},
			{
				"x": -0.1946588977,
				"y": -0.3156311348,
				"z": 0.6821022285,
				"element": "C" 
			},
			{
				"x": 0.2275317663,
				"y": -1.4927368905,
				"z": 1.2972855561,
				"element": "C" 
			},
			{
				"x": -0.701683674,
				"y": -2.3825843753,
				"z": 1.8411698982,
				"element": "C" 
			},
			{
				"x": -2.0647730644,
				"y": -2.0878492355,
				"z": 1.7660141237,
				"element": "C" 
			},
			{
				"x": -2.5030614507,
				"y": -0.9084250718,
				"z": 1.1667922811,
				"element": "C" 
			},
			{
				"x": 0.7108732622,
				"y": 0.6555825635,
				"z": -0.0261335769,
				"element": "C" 
			},
			{
				"x": 2.1413776012,
				"y": 0.8839145164,
				"z": 0.4955707611,
				"element": "C" 
			},
			{
				"x": 2.2416280242,
				"y": 2.3888432525,
				"z": 0.3641043701,
				"element": "C" 
			},
			{
				"x": 1.1277390739,
				"y": 2.9911091424,
				"z": 0.1563750129,
				"element": "N" 
			},
			{
				"x": 0.1441624187,
				"y": 2.0284702519,
				"z": 0.0711857749,
				"element": "N" 
			},
			{
				"x": -2.9576132802,
				"y": 1.3864425679,
				"z": -0.0370947358,
				"element": "H" 
			},
			{
				"x": 1.2881135313,
				"y": -1.7251983718,
				"z": 1.3388197703,
				"element": "H" 
			},
			{
				"x": -0.3644596226,
				"y": -3.299906988,
				"z": 2.31273425,
				"element": "H" 
			},
			{
				"x": -2.7939269731,
				"y": -2.7752665391,
				"z": 2.184208267,
				"element": "H" 
			},
			{
				"x": -3.5624519124,
				"y": -0.6705537911,
				"z": 1.1254837886,
				"element": "H" 
			},
			{
				"x": 0.7542510824,
				"y": 0.4001019612,
				"z": -1.0982276029,
				"element": "H" 
			},
			{
				"x": 2.2539737452,
				"y": 0.5878213242,
				"z": 1.5479244531,
				"element": "H" 
			},
			{
				"x": 2.8946393529,
				"y": 0.3463935068,
				"z": -0.0856866659,
				"element": "H" 
			},
			{
				"x": 3.1474323274,
				"y": 2.9706467184,
				"z": 0.4910812292,
				"element": "H" 
			}
		],
		 "valence_orbital": [ 
			{
				"type": "occ",
				"energy": -0.28887,
				"method": "rhf"
			},
			{
				"type": "occ",
				"energy": -0.26661,
				"method": "rhf"
			},
			{
				"type": "occ",
				"energy": -0.22959,
				"method": "rhf"
			},
			{
				"type": "occ",
				"energy": -0.20884,
				"method": "rhf"
			},
			{
				"type": "occ",
				"energy": -0.20042,
				"method": "rhf"
			},
			{
				"type": "unocc",
				"energy": -0.04009,
				"method": "rhf"
			},
			{
				"type": "unocc",
				"energy": -0.02216,
				"method": "rhf"
			},
			{
				"type": "unocc",
				"energy": -0.01255,
				"method": "rhf"
			},
			{
				"type": "unocc",
				"energy": 0.02556,
				"method": "rhf"
			},
			{
				"type": "unocc",
				"energy": 0.07242,
				"method": "rhf"
			}
		],
		"cosmo_sigma_profile": { 
			"-0.025": 0.0,
			"-0.024": 0.0,
			"-0.023": 0.0,
			"-0.022": 0.0,
			"-0.021": 0.0,
			"-0.02": 0.0,
			"-0.019": 0.0,
			"-0.018": 0.0,
			"-0.017": 0.0,
			"-0.016": 0.0329407773317,
			"-0.015": 0.699694315124,
			"-0.014": 0.984495846842,
			"-0.013": 0.594194612888,
			"-0.012": 1.58195379034,
			"-0.011": 1.05367866716,
			"-0.01": 1.34800660755,
			"-0.009": 2.9704050991,
			"-0.008": 3.56025872952,
			"-0.007": 14.3707110999,
			"-0.006": 22.0936545508,
			"-0.005": 19.3299155996,
			"-0.004": 17.3143379651,
			"-0.003": 11.2688882824,
			"-0.002": 11.0924792638,
			"-0.001": 10.070767154,
			"0.0": 9.3745882307,
			"0.001": 10.0932467173,
			"0.002": 10.5988317643,
			"0.003": 11.529861259,
			"0.004": 13.0373118318,
			"0.005": 10.6509724817,
			"0.006": 4.44332055186,
			"0.007": 3.37929151231,
			"0.008": 4.86136336829,
			"0.009": 5.77260172759,
			"0.01": 7.19742820716,
			"0.011": 7.26107227585,
			"0.012": 2.48815646014,
			"0.013": 2.25961667136,
			"0.014": 1.28307764204,
			"0.015": 1.55347329583,
			"0.016": 1.19664742958,
			"0.017": 0.666216247765,
			"0.018": 0.0,
			"0.019": 0.0,
			"0.02": 0.0,
			"0.021": 0.0,
			"0.022": 0.0,
			"0.023": 0.0,
			"0.024": 0.0,
			"0.025": 0.0
		}
	}
}
