{
	 "smiles": "CC=CC1=NN(C(O)=N1)C1=CC=CC=C1", 
	 "Tm": 461.15, 
	 "num_atms": 26, 
	 "gaussian": { 
		 "optdone": 1, 
		 "sigma_profile": "yes", 
		 "theory": "DFT", 
		 "functional": "B3LYP", 
		 "basiset": "6-31G**", 
		 "properties": { 
			 "R2extent": 4940.4451, 
			 "electric_dipole_moment_norm": 0.871268437395, 
			 "electric_quadrupole_moment_norm": 10.7125668563, 
			 "total_energy": -665.257275392, 
			 "HOMO_LUMO_gap": 0.17896, 
			 "cosmo_polarized_energy": -10.63, 
			 "cosmo_cavitation_energy": 30.75, 
			 "cosmo_dispersion_energy": -22.77, 
			 "cosmo_repulsion_energy": 1.78, 
			 "cosmo_total_nonelectrostatic_energy": 9.76, 
			 "SMD_solvation_energy": 3.65 
		},
		"coords": [
			{
				"x": -3.2620511424,
				"y": 2.6477602657,
				"z": 0.10126806,
				"element": "C" 
			},
			{
				"x": -2.1360795999,
				"y": 1.7287685222,
				"z": -0.2602513447,
				"element": "C" 
			},
			{
				"x": -1.058741447,
				"y": 1.5063070958,
				"z": 0.5047488662,
				"element": "C" 
			},
			{
				"x": 0.0414234534,
				"y": 0.6122233947,
				"z": 0.1578087974,
				"element": "C" 
			},
			{
				"x": 0.1047320205,
				"y": -0.09059132,
				"z": -0.9636748869,
				"element": "N" 
			},
			{
				"x": 1.2976585066,
				"y": -0.7696580272,
				"z": -0.8491159364,
				"element": "N" 
			},
			{
				"x": 1.8598825169,
				"y": -0.4181118918,
				"z": 0.3406210156,
				"element": "C" 
			},
			{
				"x": 3.0371557546,
				"y": -0.9077880084,
				"z": 0.7588522538,
				"element": "O" 
			},
			{
				"x": 1.1161882241,
				"y": 0.4375746314,
				"z": 1.0003632692,
				"element": "N" 
			},
			{
				"x": 1.7277129433,
				"y": -1.6496104988,
				"z": -1.882333163,
				"element": "C" 
			},
			{
				"x": 2.9365605367,
				"y": -2.3524111751,
				"z": -1.7921989417,
				"element": "C" 
			},
			{
				"x": 3.3113744881,
				"y": -3.2022520809,
				"z": -2.8331245119,
				"element": "C" 
			},
			{
				"x": 2.5012602617,
				"y": -3.3602271314,
				"z": -3.9573437228,
				"element": "C" 
			},
			{
				"x": 1.2989105843,
				"y": -2.6547706322,
				"z": -4.0360635041,
				"element": "C" 
			},
			{
				"x": 0.9065616514,
				"y": -1.8015140614,
				"z": -3.0079632863,
				"element": "C" 
			},
			{
				"x": -3.3826985739,
				"y": 3.4388257736,
				"z": -0.6502090354,
				"element": "H" 
			},
			{
				"x": -4.2168087094,
				"y": 2.1071931611,
				"z": 0.137035661,
				"element": "H" 
			},
			{
				"x": -3.1019960953,
				"y": 3.1225043852,
				"z": 1.073871548,
				"element": "H" 
			},
			{
				"x": -2.2092531671,
				"y": 1.2100637306,
				"z": -1.2151863553,
				"element": "H" 
			},
			{
				"x": -0.94681381,
				"y": 2.0040470601,
				"z": 1.4651462747,
				"element": "H" 
			},
			{
				"x": 3.200633882,
				"y": -0.4994066783,
				"z": 1.6226832232,
				"element": "H" 
			},
			{
				"x": 3.5755463686,
				"y": -2.2407727371,
				"z": -0.9274332027,
				"element": "H" 
			},
			{
				"x": 4.2497517923,
				"y": -3.743939105,
				"z": -2.7566559419,
				"element": "H" 
			},
			{
				"x": 2.8024487385,
				"y": -4.0241909023,
				"z": -4.7617659234,
				"element": "H" 
			},
			{
				"x": 0.6563152578,
				"y": -2.7663795178,
				"z": -4.9046471914,
				"element": "H" 
			},
			{
				"x": -0.0227744357,
				"y": -1.2493442528,
				"z": -3.057232021,
				"element": "H" 
			}
		],
		 "valence_orbital": [ 
			{
				"type": "occ",
				"energy": -0.27596,
				"method": "rhf"
			},
			{
				"type": "occ",
				"energy": -0.26956,
				"method": "rhf"
			},
			{
				"type": "occ",
				"energy": -0.25463,
				"method": "rhf"
			},
			{
				"type": "occ",
				"energy": -0.24708,
				"method": "rhf"
			},
			{
				"type": "occ",
				"energy": -0.21113,
				"method": "rhf"
			},
			{
				"type": "unocc",
				"energy": -0.03217,
				"method": "rhf"
			},
			{
				"type": "unocc",
				"energy": -0.00495,
				"method": "rhf"
			},
			{
				"type": "unocc",
				"energy": 0.00453,
				"method": "rhf"
			},
			{
				"type": "unocc",
				"energy": 0.05966,
				"method": "rhf"
			},
			{
				"type": "unocc",
				"energy": 0.06007,
				"method": "rhf"
			}
		],
		"cosmo_sigma_profile": { 
			"-0.025": 0.0,
			"-0.024": 0.0,
			"-0.023": 0.0,
			"-0.022": 0.0,
			"-0.021": 0.0,
			"-0.02": 0.171572604115,
			"-0.019": 1.09125859846,
			"-0.018": 0.672424505476,
			"-0.017": 0.847104393301,
			"-0.016": 0.613651375116,
			"-0.015": 0.88565887895,
			"-0.014": 0.308050902228,
			"-0.013": 0.866820124161,
			"-0.012": 0.948714840032,
			"-0.011": 0.637372078006,
			"-0.01": 0.459920409348,
			"-0.009": 0.556462846255,
			"-0.008": 0.930301738177,
			"-0.007": 1.25362562865,
			"-0.006": 7.09994979187,
			"-0.005": 13.1456989779,
			"-0.004": 19.9914120222,
			"-0.003": 20.6572537104,
			"-0.002": 22.1587026168,
			"-0.001": 18.5203032258,
			"0.0": 20.9965331084,
			"0.001": 18.9729228842,
			"0.002": 19.4497771904,
			"0.003": 18.9172444933,
			"0.004": 20.056739538,
			"0.005": 16.8475605008,
			"0.006": 5.25128451671,
			"0.007": 2.87591776156,
			"0.008": 2.6985455976,
			"0.009": 2.29136442103,
			"0.01": 1.41855610327,
			"0.011": 1.57950618385,
			"0.012": 0.732500775622,
			"0.013": 0.641658908679,
			"0.014": 1.13686418155,
			"0.015": 0.455774451472,
			"0.016": 0.130519439144,
			"0.017": 0.0,
			"0.018": 0.0,
			"0.019": 0.0,
			"0.02": 0.0,
			"0.021": 0.0,
			"0.022": 0.0,
			"0.023": 0.0,
			"0.024": 0.0,
			"0.025": 0.0
		}
	}
}
