{
	 "smiles": "BrC1=CC=C(NCC2=CSC=C2)C=C1", 
	 "Tm": 318.15, 
	 "num_atms": 24, 
	 "gaussian": { 
		 "optdone": 1, 
		 "sigma_profile": "yes", 
		 "theory": "DFT", 
		 "functional": "B3LYP", 
		 "basiset": "6-31G**", 
		 "properties": { 
			 "R2extent": 10005.5306, 
			 "electric_dipole_moment_norm": 3.38509925999, 
			 "electric_quadrupole_moment_norm": 13.9092688489, 
			 "total_energy": -3449.52392148, 
			 "HOMO_LUMO_gap": 0.18091, 
			 "cosmo_polarized_energy": -8.91, 
			 "cosmo_cavitation_energy": 32.09, 
			 "cosmo_dispersion_energy": -24.55, 
			 "cosmo_repulsion_energy": 1.88, 
			 "cosmo_total_nonelectrostatic_energy": 9.42, 
			 "SMD_solvation_energy": 3.54 
		},
		"coords": [
			{
				"x": 4.3910847158,
				"y": -4.6574234874,
				"z": 2.3228112356,
				"element": "Br" 
			},
			{
				"x": 3.1197800853,
				"y": -3.3077076965,
				"z": 1.8479514209,
				"element": "C" 
			},
			{
				"x": 3.0634850648,
				"y": -2.1204362976,
				"z": 2.5796791586,
				"element": "C" 
			},
			{
				"x": 2.140003542,
				"y": -1.1425124236,
				"z": 2.2326494632,
				"element": "C" 
			},
			{
				"x": 1.2521232193,
				"y": -1.3258186708,
				"z": 1.1527120719,
				"element": "C" 
			},
			{
				"x": 0.3725266341,
				"y": -0.3010766838,
				"z": 0.8141316108,
				"element": "N" 
			},
			{
				"x": -0.7565659193,
				"y": -0.5245308068,
				"z": -0.0755913728,
				"element": "C" 
			},
			{
				"x": -1.5458334672,
				"y": 0.7456085938,
				"z": -0.2815129465,
				"element": "C" 
			},
			{
				"x": -0.9989941258,
				"y": 2.0030798954,
				"z": -0.3245711436,
				"element": "C" 
			},
			{
				"x": -2.196721135,
				"y": 3.2212426984,
				"z": -0.6146388731,
				"element": "S" 
			},
			{
				"x": -3.4557925156,
				"y": 2.0318927073,
				"z": -0.6828608377,
				"element": "C" 
			},
			{
				"x": -2.9642794799,
				"y": 0.7719958578,
				"z": -0.4864665641,
				"element": "C" 
			},
			{
				"x": 1.3209442953,
				"y": -2.5348018561,
				"z": 0.4366507434,
				"element": "C" 
			},
			{
				"x": 2.2531866101,
				"y": -3.5148575901,
				"z": 0.7801448279,
				"element": "C" 
			},
			{
				"x": 3.7372320492,
				"y": -1.9614514407,
				"z": 3.4142526704,
				"element": "H" 
			},
			{
				"x": 2.1051481875,
				"y": -0.2154999563,
				"z": 2.7998669866,
				"element": "H" 
			},
			{
				"x": 0.1592072431,
				"y": 0.330255508,
				"z": 1.5753068765,
				"element": "H" 
			},
			{
				"x": -0.3707796531,
				"y": -0.8731361025,
				"z": -1.0432562595,
				"element": "H" 
			},
			{
				"x": -1.4289385116,
				"y": -1.3188729623,
				"z": 0.2918740702,
				"element": "H" 
			},
			{
				"x": 0.0419694747,
				"y": 2.2733363374,
				"z": -0.2171685638,
				"element": "H" 
			},
			{
				"x": -4.4803397433,
				"y": 2.3330400903,
				"z": -0.8508485914,
				"element": "H" 
			},
			{
				"x": -3.5861072757,
				"y": -0.1168353524,
				"z": -0.4813822601,
				"element": "H" 
			},
			{
				"x": 0.6491650573,
				"y": -2.723472786,
				"z": -0.3927834368,
				"element": "H" 
			},
			{
				"x": 2.2946956479,
				"y": -4.4408175758,
				"z": 0.2173497135,
				"element": "H" 
			}
		],
		 "valence_orbital": [ 
			{
				"type": "occ",
				"energy": -0.27324,
				"method": "rhf"
			},
			{
				"type": "occ",
				"energy": -0.25771,
				"method": "rhf"
			},
			{
				"type": "occ",
				"energy": -0.2542,
				"method": "rhf"
			},
			{
				"type": "occ",
				"energy": -0.24066,
				"method": "rhf"
			},
			{
				"type": "occ",
				"energy": -0.20064,
				"method": "rhf"
			},
			{
				"type": "unocc",
				"energy": -0.01973,
				"method": "rhf"
			},
			{
				"type": "unocc",
				"energy": -0.00813,
				"method": "rhf"
			},
			{
				"type": "unocc",
				"energy": 0.00615,
				"method": "rhf"
			},
			{
				"type": "unocc",
				"energy": 0.01624,
				"method": "rhf"
			},
			{
				"type": "unocc",
				"energy": 0.02626,
				"method": "rhf"
			}
		],
		"cosmo_sigma_profile": { 
			"-0.025": 0.0,
			"-0.024": 0.0,
			"-0.023": 0.0,
			"-0.022": 0.0,
			"-0.021": 0.0,
			"-0.02": 0.0,
			"-0.019": 0.0,
			"-0.018": 0.0,
			"-0.017": 0.0,
			"-0.016": 0.0,
			"-0.015": 0.0,
			"-0.014": 0.0,
			"-0.013": 0.0670045678461,
			"-0.012": 0.667581284107,
			"-0.011": 1.17034472278,
			"-0.01": 1.53862375255,
			"-0.009": 1.05740739062,
			"-0.008": 3.94042841817,
			"-0.007": 7.65075986032,
			"-0.006": 14.8136306861,
			"-0.005": 17.5752277809,
			"-0.004": 18.5837219621,
			"-0.003": 17.9402558302,
			"-0.002": 15.6834949907,
			"-0.001": 15.14346548,
			"0.0": 13.0524554623,
			"0.001": 16.2490654063,
			"0.002": 20.0304679291,
			"0.003": 22.3870806061,
			"0.004": 30.8957812088,
			"0.005": 34.68130452,
			"0.006": 6.93846026445,
			"0.007": 0.978908251839,
			"0.008": 0.623609243262,
			"0.009": 0.483418969,
			"0.01": 0.145686551421,
			"0.011": 0.0,
			"0.012": 0.0,
			"0.013": 0.0,
			"0.014": 0.0,
			"0.015": 0.0,
			"0.016": 0.0,
			"0.017": 0.0,
			"0.018": 0.0,
			"0.019": 0.0,
			"0.02": 0.0,
			"0.021": 0.0,
			"0.022": 0.0,
			"0.023": 0.0,
			"0.024": 0.0,
			"0.025": 0.0
		}
	}
}
