{
	 "smiles": "NS(=O)(=O)C1=CC=C(SCC(O)=O)C=C1", 
	 "Tm": 431.15, 
	 "num_atms": 24, 
	 "gaussian": { 
		 "optdone": 1, 
		 "sigma_profile": "yes", 
		 "theory": "DFT", 
		 "functional": "B3LYP", 
		 "basiset": "6-31G**", 
		 "properties": { 
			 "R2extent": 5560.954, 
			 "electric_dipole_moment_norm": 6.2173375411, 
			 "electric_quadrupole_moment_norm": 25.5658128478, 
			 "total_energy": -1462.22910296, 
			 "HOMO_LUMO_gap": 0.19523, 
			 "cosmo_polarized_energy": -26.99, 
			 "cosmo_cavitation_energy": 31.83, 
			 "cosmo_dispersion_energy": -23.91, 
			 "cosmo_repulsion_energy": 1.8, 
			 "cosmo_total_nonelectrostatic_energy": 9.71, 
			 "SMD_solvation_energy": 5.94 
		},
		"coords": [
			{
				"x": 2.1916001551,
				"y": -2.5955999564,
				"z": -2.2206240291,
				"element": "N" 
			},
			{
				"x": 1.7469803739,
				"y": -2.8241380093,
				"z": -0.6192268198,
				"element": "S" 
			},
			{
				"x": 2.9445932203,
				"y": -2.5410171866,
				"z": 0.1676906727,
				"element": "O" 
			},
			{
				"x": 1.0438077482,
				"y": -4.1042793206,
				"z": -0.5827205092,
				"element": "O" 
			},
			{
				"x": 0.5386182383,
				"y": -1.5458255706,
				"z": -0.2262920405,
				"element": "C" 
			},
			{
				"x": -0.8199884312,
				"y": -1.8073394977,
				"z": -0.4092387023,
				"element": "C" 
			},
			{
				"x": -1.752170055,
				"y": -0.8138751979,
				"z": -0.1119847616,
				"element": "C" 
			},
			{
				"x": -1.3244960568,
				"y": 0.4368907761,
				"z": 0.3530292402,
				"element": "C" 
			},
			{
				"x": -2.5791154813,
				"y": 1.6888886648,
				"z": 0.6556554387,
				"element": "S" 
			},
			{
				"x": -2.266631362,
				"y": 2.1540054468,
				"z": 2.4071291119,
				"element": "C" 
			},
			{
				"x": -1.1657799721,
				"y": 3.1915497496,
				"z": 2.6707152433,
				"element": "C" 
			},
			{
				"x": -0.7257395113,
				"y": 3.8955899325,
				"z": 1.6084183227,
				"element": "O" 
			},
			{
				"x": -0.7412217004,
				"y": 3.3768581468,
				"z": 3.7826042588,
				"element": "O" 
			},
			{
				"x": 0.0441764111,
				"y": 0.6894867795,
				"z": 0.5270702157,
				"element": "C" 
			},
			{
				"x": 0.9767912137,
				"y": -0.3091900477,
				"z": 0.253344206,
				"element": "C" 
			},
			{
				"x": 1.4366667981,
				"y": -2.7583430985,
				"z": -2.8785942838,
				"element": "H" 
			},
			{
				"x": 2.6963188835,
				"y": -1.7303511751,
				"z": -2.3817747875,
				"element": "H" 
			},
			{
				"x": -1.1407527112,
				"y": -2.7877762383,
				"z": -0.7449481707,
				"element": "H" 
			},
			{
				"x": -2.8129600073,
				"y": -1.0122164233,
				"z": -0.2251390066,
				"element": "H" 
			},
			{
				"x": -3.2108864824,
				"y": 2.5759027195,
				"z": 2.7672266329,
				"element": "H" 
			},
			{
				"x": -2.0570273172,
				"y": 1.2662689265,
				"z": 3.0056146938,
				"element": "H" 
			},
			{
				"x": -1.2062163657,
				"y": 3.594562168,
				"z": 0.8126244411,
				"element": "H" 
			},
			{
				"x": 0.3858234746,
				"y": 1.658889905,
				"z": 0.8737805635,
				"element": "H" 
			},
			{
				"x": 2.0351089371,
				"y": -0.1367414931,
				"z": 0.4185400699,
				"element": "H" 
			}
		],
		 "valence_orbital": [ 
			{
				"type": "occ",
				"energy": -0.31301,
				"method": "rhf"
			},
			{
				"type": "occ",
				"energy": -0.3086,
				"method": "rhf"
			},
			{
				"type": "occ",
				"energy": -0.29196,
				"method": "rhf"
			},
			{
				"type": "occ",
				"energy": -0.28101,
				"method": "rhf"
			},
			{
				"type": "occ",
				"energy": -0.26141,
				"method": "rhf"
			},
			{
				"type": "unocc",
				"energy": -0.06618,
				"method": "rhf"
			},
			{
				"type": "unocc",
				"energy": -0.04473,
				"method": "rhf"
			},
			{
				"type": "unocc",
				"energy": -0.0058,
				"method": "rhf"
			},
			{
				"type": "unocc",
				"energy": 0.00943,
				"method": "rhf"
			},
			{
				"type": "unocc",
				"energy": 0.03031,
				"method": "rhf"
			}
		],
		"cosmo_sigma_profile": { 
			"-0.025": 0.0,
			"-0.024": 0.0,
			"-0.023": 0.0,
			"-0.022": 0.0,
			"-0.021": 0.0,
			"-0.02": 0.0,
			"-0.019": 0.0,
			"-0.018": 0.0,
			"-0.017": 0.0,
			"-0.016": 0.228567477319,
			"-0.015": 2.55134244544,
			"-0.014": 3.13019617211,
			"-0.013": 3.28409465841,
			"-0.012": 4.89890413189,
			"-0.011": 3.01531242667,
			"-0.01": 6.65867193686,
			"-0.009": 6.41422592748,
			"-0.008": 8.30239810763,
			"-0.007": 13.1409714949,
			"-0.006": 14.5146194072,
			"-0.005": 12.6786251341,
			"-0.004": 9.62015191163,
			"-0.003": 12.1581398273,
			"-0.002": 11.3414956702,
			"-0.001": 10.7758041221,
			"0.0": 13.3381501054,
			"0.001": 17.333992649,
			"0.002": 14.5648677585,
			"0.003": 9.00355728038,
			"0.004": 6.3614188106,
			"0.005": 6.32183192057,
			"0.006": 6.43330392888,
			"0.007": 6.76454378904,
			"0.008": 8.60097460692,
			"0.009": 7.66344292002,
			"0.01": 12.7472394627,
			"0.011": 15.3018845254,
			"0.012": 8.23591059124,
			"0.013": 0.563454433123,
			"0.014": 0.0,
			"0.015": 0.0,
			"0.016": 0.0,
			"0.017": 0.0,
			"0.018": 0.0,
			"0.019": 0.0,
			"0.02": 0.0,
			"0.021": 0.0,
			"0.022": 0.0,
			"0.023": 0.0,
			"0.024": 0.0,
			"0.025": 0.0
		}
	}
}
