{
	 "smiles": "FC(F)(F)C1=C(Cl)C=CC(Br)=C1", 
	 "Tm": 252.15, 
	 "num_atms": 15, 
	 "gaussian": { 
		 "optdone": 1, 
		 "sigma_profile": "yes", 
		 "theory": "DFT", 
		 "functional": "B3LYP", 
		 "basiset": "6-31G**", 
		 "properties": { 
			 "R2extent": 4965.4265, 
			 "electric_dipole_moment_norm": 2.24527250239, 
			 "electric_quadrupole_moment_norm": 7.61178087178, 
			 "total_energy": -3599.67057281, 
			 "HOMO_LUMO_gap": 0.20564, 
			 "cosmo_polarized_energy": -4.18, 
			 "cosmo_cavitation_energy": 24.89, 
			 "cosmo_dispersion_energy": -18.48, 
			 "cosmo_repulsion_energy": 1.41, 
			 "cosmo_total_nonelectrostatic_energy": 7.82, 
			 "SMD_solvation_energy": 4.0 
		},
		"coords": [
			{
				"x": 0.7406803309,
				"y": 2.3494438388,
				"z": -0.8050215192,
				"element": "F" 
			},
			{
				"x": 0.419976739,
				"y": 2.0312773979,
				"z": 0.4682008454,
				"element": "C" 
			},
			{
				"x": 1.4753366626,
				"y": 1.3782831412,
				"z": 0.9929695199,
				"element": "F" 
			},
			{
				"x": 0.2791709252,
				"y": 3.188402223,
				"z": 1.14405892,
				"element": "F" 
			},
			{
				"x": -0.8403845067,
				"y": 1.1938594334,
				"z": 0.5233963112,
				"element": "C" 
			},
			{
				"x": -1.3816218811,
				"y": 0.7360889124,
				"z": 1.734963119,
				"element": "C" 
			},
			{
				"x": -0.6351679539,
				"y": 1.1020228014,
				"z": 3.2744028417,
				"element": "Cl" 
			},
			{
				"x": -2.5452344929,
				"y": -0.0331553643,
				"z": 1.7405867153,
				"element": "C" 
			},
			{
				"x": -3.1826703148,
				"y": -0.355473772,
				"z": 0.5443373024,
				"element": "C" 
			},
			{
				"x": -2.6450642525,
				"y": 0.0989782584,
				"z": -0.657206713,
				"element": "C" 
			},
			{
				"x": -3.5052611788,
				"y": -0.3334728022,
				"z": -2.3012180873,
				"element": "Br" 
			},
			{
				"x": -1.4845472276,
				"y": 0.8671276678,
				"z": -0.6734443389,
				"element": "C" 
			},
			{
				"x": -2.9500279295,
				"y": -0.3785830408,
				"z": 2.6852117849,
				"element": "H" 
			},
			{
				"x": -4.0867294265,
				"y": -0.9533056365,
				"z": 0.5511205758,
				"element": "H" 
			},
			{
				"x": -1.0727554936,
				"y": 1.2167069416,
				"z": -1.6108572771,
				"element": "H" 
			}
		],
		 "valence_orbital": [ 
			{
				"type": "occ",
				"energy": -0.32778,
				"method": "rhf"
			},
			{
				"type": "occ",
				"energy": -0.31666,
				"method": "rhf"
			},
			{
				"type": "occ",
				"energy": -0.30382,
				"method": "rhf"
			},
			{
				"type": "occ",
				"energy": -0.29374,
				"method": "rhf"
			},
			{
				"type": "occ",
				"energy": -0.25695,
				"method": "rhf"
			},
			{
				"type": "unocc",
				"energy": -0.05131,
				"method": "rhf"
			},
			{
				"type": "unocc",
				"energy": -0.04073,
				"method": "rhf"
			},
			{
				"type": "unocc",
				"energy": -0.01169,
				"method": "rhf"
			},
			{
				"type": "unocc",
				"energy": 0.01719,
				"method": "rhf"
			},
			{
				"type": "unocc",
				"energy": 0.09956,
				"method": "rhf"
			}
		],
		"cosmo_sigma_profile": { 
			"-0.025": 0.0,
			"-0.024": 0.0,
			"-0.023": 0.0,
			"-0.022": 0.0,
			"-0.021": 0.0,
			"-0.02": 0.0,
			"-0.019": 0.0,
			"-0.018": 0.0,
			"-0.017": 0.0,
			"-0.016": 0.0,
			"-0.015": 0.0,
			"-0.014": 0.0,
			"-0.013": 0.0,
			"-0.012": 0.0,
			"-0.011": 0.0,
			"-0.01": 0.0,
			"-0.009": 1.2993284754,
			"-0.008": 5.21128089826,
			"-0.007": 4.72105178713,
			"-0.006": 5.08114555923,
			"-0.005": 6.3817285541,
			"-0.004": 8.31925168823,
			"-0.003": 10.2757589387,
			"-0.002": 12.0267232166,
			"-0.001": 20.2632312578,
			"0.0": 27.2413944385,
			"0.001": 23.1764211081,
			"0.002": 32.9140553105,
			"0.003": 32.1813660382,
			"0.004": 17.033678979,
			"0.005": 0.277829942237,
			"0.006": 0.0,
			"0.007": 0.0,
			"0.008": 0.0,
			"0.009": 0.0,
			"0.01": 0.0,
			"0.011": 0.0,
			"0.012": 0.0,
			"0.013": 0.0,
			"0.014": 0.0,
			"0.015": 0.0,
			"0.016": 0.0,
			"0.017": 0.0,
			"0.018": 0.0,
			"0.019": 0.0,
			"0.02": 0.0,
			"0.021": 0.0,
			"0.022": 0.0,
			"0.023": 0.0,
			"0.024": 0.0,
			"0.025": 0.0
		}
	}
}
