{
	 "smiles": "CC1=C(CC2=CC=CC=C12)C#N", 
	 "Tm": 336.45, 
	 "num_atms": 21, 
	 "gaussian": { 
		 "optdone": 1, 
		 "sigma_profile": "yes", 
		 "theory": "DFT", 
		 "functional": "B3LYP", 
		 "basiset": "6-31G**", 
		 "properties": { 
			 "R2extent": 2399.8972, 
			 "electric_dipole_moment_norm": 4.53832825829, 
			 "electric_quadrupole_moment_norm": 22.5793994513, 
			 "total_energy": -479.336002241, 
			 "HOMO_LUMO_gap": 0.17073, 
			 "cosmo_polarized_energy": -9.46, 
			 "cosmo_cavitation_energy": 25.52, 
			 "cosmo_dispersion_energy": -18.13, 
			 "cosmo_repulsion_energy": 1.44, 
			 "cosmo_total_nonelectrostatic_energy": 8.83, 
			 "SMD_solvation_energy": 5.3 
		},
		"coords": [
			{
				"x": 0.1140841785,
				"y": 1.3802125583,
				"z": 2.7450303328,
				"element": "C" 
			},
			{
				"x": 0.0252950862,
				"y": 1.3548270946,
				"z": 1.2532229371,
				"element": "C" 
			},
			{
				"x": 0.4773496086,
				"y": 2.3029938501,
				"z": 0.3831909918,
				"element": "C" 
			},
			{
				"x": 0.199181815,
				"y": 1.9107347309,
				"z": -1.0566055396,
				"element": "C" 
			},
			{
				"x": -0.4898985827,
				"y": 0.5782920153,
				"z": -0.8961143898,
				"element": "C" 
			},
			{
				"x": -0.9950041719,
				"y": -0.2944451642,
				"z": -1.8514949745,
				"element": "C" 
			},
			{
				"x": -1.5963015973,
				"y": -1.4849153695,
				"z": -1.4243256527,
				"element": "C" 
			},
			{
				"x": -1.6886149128,
				"y": -1.7932568289,
				"z": -0.0619356411,
				"element": "C" 
			},
			{
				"x": -1.1825334092,
				"y": -0.9194954707,
				"z": 0.902527123,
				"element": "C" 
			},
			{
				"x": -0.5821436773,
				"y": 0.2690327629,
				"z": 0.4772987509,
				"element": "C" 
			},
			{
				"x": 1.1276777909,
				"y": 3.5108845675,
				"z": 0.7444926735,
				"element": "C" 
			},
			{
				"x": 1.6632919378,
				"y": 4.5070016803,
				"z": 1.0280607111,
				"element": "N" 
			},
			{
				"x": 0.6742057161,
				"y": 0.5130629673,
				"z": 3.1147418882,
				"element": "H" 
			},
			{
				"x": 0.6066629147,
				"y": 2.2871762979,
				"z": 3.1019080396,
				"element": "H" 
			},
			{
				"x": -0.8851493331,
				"y": 1.3289288733,
				"z": 3.1936686444,
				"element": "H" 
			},
			{
				"x": 1.1250636322,
				"y": 1.8374139555,
				"z": -1.6422163116,
				"element": "H" 
			},
			{
				"x": -0.4323513126,
				"y": 2.6523315528,
				"z": -1.5633287124,
				"element": "H" 
			},
			{
				"x": -0.9278889751,
				"y": -0.0635577231,
				"z": -2.911288988,
				"element": "H" 
			},
			{
				"x": -1.9960008186,
				"y": -2.1776337333,
				"z": -2.1591500383,
				"element": "H" 
			},
			{
				"x": -2.1590176024,
				"y": -2.7221455648,
				"z": 0.2470208938,
				"element": "H" 
			},
			{
				"x": -1.2559082869,
				"y": -1.1619430521,
				"z": 1.958797262,
				"element": "H" 
			}
		],
		 "valence_orbital": [ 
			{
				"type": "occ",
				"energy": -0.3446,
				"method": "rhf"
			},
			{
				"type": "occ",
				"energy": -0.31975,
				"method": "rhf"
			},
			{
				"type": "occ",
				"energy": -0.29434,
				"method": "rhf"
			},
			{
				"type": "occ",
				"energy": -0.2588,
				"method": "rhf"
			},
			{
				"type": "occ",
				"energy": -0.22972,
				"method": "rhf"
			},
			{
				"type": "unocc",
				"energy": -0.05899,
				"method": "rhf"
			},
			{
				"type": "unocc",
				"energy": -0.01448,
				"method": "rhf"
			},
			{
				"type": "unocc",
				"energy": 0.02196,
				"method": "rhf"
			},
			{
				"type": "unocc",
				"energy": 0.03474,
				"method": "rhf"
			},
			{
				"type": "unocc",
				"energy": 0.0877,
				"method": "rhf"
			}
		],
		"cosmo_sigma_profile": { 
			"-0.025": 0.0,
			"-0.024": 0.0,
			"-0.023": 0.0,
			"-0.022": 0.0,
			"-0.021": 0.0,
			"-0.02": 0.0,
			"-0.019": 0.0,
			"-0.018": 0.0,
			"-0.017": 0.0,
			"-0.016": 0.0,
			"-0.015": 0.0,
			"-0.014": 0.0,
			"-0.013": 0.0,
			"-0.012": 0.0,
			"-0.011": 0.0,
			"-0.01": 0.0,
			"-0.009": 0.0,
			"-0.008": 0.0,
			"-0.007": 1.53475048073,
			"-0.006": 12.5814175879,
			"-0.005": 19.8811712373,
			"-0.004": 22.9206110857,
			"-0.003": 21.3945162601,
			"-0.002": 17.0664881192,
			"-0.001": 17.409998568,
			"0.0": 13.1031911943,
			"0.001": 14.7239471314,
			"0.002": 9.10592813026,
			"0.003": 9.31830507874,
			"0.004": 10.944890209,
			"0.005": 10.6203398221,
			"0.006": 3.1184390626,
			"0.007": 2.96030481899,
			"0.008": 2.31170143517,
			"0.009": 3.58605196857,
			"0.01": 3.24091350209,
			"0.011": 3.35112057901,
			"0.012": 2.68800302717,
			"0.013": 2.43324175555,
			"0.014": 0.708102475112,
			"0.015": 0.0,
			"0.016": 0.0,
			"0.017": 0.0,
			"0.018": 0.0,
			"0.019": 0.0,
			"0.02": 0.0,
			"0.021": 0.0,
			"0.022": 0.0,
			"0.023": 0.0,
			"0.024": 0.0,
			"0.025": 0.0
		}
	}
}
