{
	 "smiles": "CC(C)(C)NCCO", 
	 "Tm": 317.15, 
	 "num_atms": 23, 
	 "gaussian": { 
		 "optdone": 1, 
		 "sigma_profile": "yes", 
		 "theory": "DFT", 
		 "functional": "B3LYP", 
		 "basiset": "6-31G**", 
		 "properties": { 
			 "R2extent": 1448.4291, 
			 "electric_dipole_moment_norm": 3.01558324375, 
			 "electric_quadrupole_moment_norm": 8.90504195218, 
			 "total_energy": -367.651168015, 
			 "HOMO_LUMO_gap": 0.29002, 
			 "cosmo_polarized_energy": -7.08, 
			 "cosmo_cavitation_energy": 23.53, 
			 "cosmo_dispersion_energy": -16.86, 
			 "cosmo_repulsion_energy": 1.39, 
			 "cosmo_total_nonelectrostatic_energy": 8.06, 
			 "SMD_solvation_energy": 3.9 
		},
		"coords": [
			{
				"x": 2.1756245525,
				"y": 0.6879777108,
				"z": -0.7382182868,
				"element": "C" 
			},
			{
				"x": 1.1466641034,
				"y": -0.2815400324,
				"z": -1.3614207298,
				"element": "C" 
			},
			{
				"x": 1.5047386399,
				"y": -1.7309775687,
				"z": -0.9955083779,
				"element": "C" 
			},
			{
				"x": 1.1623850862,
				"y": -0.1253139228,
				"z": -2.8917927194,
				"element": "C" 
			},
			{
				"x": -0.2409238997,
				"y": 0.0203569777,
				"z": -0.9310556073,
				"element": "N" 
			},
			{
				"x": -0.6039016209,
				"y": -0.103331077,
				"z": 0.4923405381,
				"element": "C" 
			},
			{
				"x": -1.4355967768,
				"y": -1.3775771433,
				"z": 0.7137804936,
				"element": "C" 
			},
			{
				"x": -2.4721884118,
				"y": -1.4559018779,
				"z": -0.2427329551,
				"element": "O" 
			},
			{
				"x": 3.1889176621,
				"y": 0.4662342785,
				"z": -1.090322703,
				"element": "H" 
			},
			{
				"x": 1.9464988701,
				"y": 1.7247187822,
				"z": -1.0109501135,
				"element": "H" 
			},
			{
				"x": 2.1859591923,
				"y": 0.6206051327,
				"z": 0.3543379403,
				"element": "H" 
			},
			{
				"x": 2.4936553794,
				"y": -1.9850269582,
				"z": -1.3902464342,
				"element": "H" 
			},
			{
				"x": 0.7751764033,
				"y": -2.4281273501,
				"z": -1.418353951,
				"element": "H" 
			},
			{
				"x": 1.5357374165,
				"y": -1.8823103774,
				"z": 0.0878528196,
				"element": "H" 
			},
			{
				"x": 0.8975699719,
				"y": 0.8978023524,
				"z": -3.18524615,
				"element": "H" 
			},
			{
				"x": 0.442746303,
				"y": -0.8069013172,
				"z": -3.3544941518,
				"element": "H" 
			},
			{
				"x": 2.1567477355,
				"y": -0.3383642197,
				"z": -3.2966282839,
				"element": "H" 
			},
			{
				"x": -0.4698526099,
				"y": 0.9543861302,
				"z": -1.2558764199,
				"element": "H" 
			},
			{
				"x": -1.2263339233,
				"y": 0.7582686516,
				"z": 0.7575513894,
				"element": "H" 
			},
			{
				"x": 0.2652461127,
				"y": -0.0892600861,
				"z": 1.1651568644,
				"element": "H" 
			},
			{
				"x": -1.893995632,
				"y": -1.3562458502,
				"z": 1.7095156046,
				"element": "H" 
			},
			{
				"x": -0.7836042321,
				"y": -2.2656654217,
				"z": 0.6725295059,
				"element": "H" 
			},
			{
				"x": -2.0376703223,
				"y": -1.1694068135,
				"z": -1.0660182722,
				"element": "H" 
			}
		],
		 "valence_orbital": [ 
			{
				"type": "occ",
				"energy": -0.33928,
				"method": "rhf"
			},
			{
				"type": "occ",
				"energy": -0.33009,
				"method": "rhf"
			},
			{
				"type": "occ",
				"energy": -0.30849,
				"method": "rhf"
			},
			{
				"type": "occ",
				"energy": -0.25032,
				"method": "rhf"
			},
			{
				"type": "occ",
				"energy": -0.22869,
				"method": "rhf"
			},
			{
				"type": "unocc",
				"energy": 0.06133,
				"method": "rhf"
			},
			{
				"type": "unocc",
				"energy": 0.09914,
				"method": "rhf"
			},
			{
				"type": "unocc",
				"energy": 0.11299,
				"method": "rhf"
			},
			{
				"type": "unocc",
				"energy": 0.12185,
				"method": "rhf"
			},
			{
				"type": "unocc",
				"energy": 0.1296,
				"method": "rhf"
			}
		],
		"cosmo_sigma_profile": { 
			"-0.025": 0.0,
			"-0.024": 0.0,
			"-0.023": 0.0,
			"-0.022": 0.0,
			"-0.021": 0.0,
			"-0.02": 0.0,
			"-0.019": 0.0,
			"-0.018": 0.0,
			"-0.017": 0.0,
			"-0.016": 0.0,
			"-0.015": 0.0,
			"-0.014": 0.0,
			"-0.013": 0.0,
			"-0.012": 0.0,
			"-0.011": 0.0,
			"-0.01": 0.564654826356,
			"-0.009": 1.19616744537,
			"-0.008": 1.57497424622,
			"-0.007": 2.34459860316,
			"-0.006": 2.02297871978,
			"-0.005": 2.92517249174,
			"-0.004": 9.96153817419,
			"-0.003": 22.9448740322,
			"-0.002": 28.0976185621,
			"-0.001": 25.3612586254,
			"0.0": 22.1803569979,
			"0.001": 24.87975982,
			"0.002": 12.1393657174,
			"0.003": 2.89614615439,
			"0.004": 2.74393972973,
			"0.005": 2.03235441959,
			"0.006": 2.04231707728,
			"0.007": 1.13898290543,
			"0.008": 1.13073234573,
			"0.009": 0.778595606245,
			"0.01": 1.48976974554,
			"0.011": 1.80884703353,
			"0.012": 0.903035785822,
			"0.013": 1.68394035764,
			"0.014": 1.66456047012,
			"0.015": 2.93499364751,
			"0.016": 0.806140023637,
			"0.017": 0.0,
			"0.018": 0.0,
			"0.019": 0.0,
			"0.02": 0.0,
			"0.021": 0.0,
			"0.022": 0.0,
			"0.023": 0.0,
			"0.024": 0.0,
			"0.025": 0.0
		}
	}
}
