{
	 "smiles": "CCS(=O)(=O)C1=C(C=CC=C1)N1CCC(N)CC1", 
	 "Tm": 393.15, 
	 "num_atms": 38, 
	 "gaussian": { 
		 "optdone": 1, 
		 "sigma_profile": "yes", 
		 "theory": "DFT", 
		 "functional": "B3LYP", 
		 "basiset": "6-31G**", 
		 "properties": { 
			 "R2extent": 5560.4484, 
			 "electric_dipole_moment_norm": 5.73824344029, 
			 "electric_quadrupole_moment_norm": 18.3225145589, 
			 "total_energy": -1165.50137306, 
			 "HOMO_LUMO_gap": 0.18099, 
			 "cosmo_polarized_energy": -17.7, 
			 "cosmo_cavitation_energy": 38.82, 
			 "cosmo_dispersion_energy": -27.24, 
			 "cosmo_repulsion_energy": 2.06, 
			 "cosmo_total_nonelectrostatic_energy": 13.64, 
			 "SMD_solvation_energy": 4.56 
		},
		"coords": [
			{
				"x": -2.2648866026,
				"y": 2.7620231973,
				"z": 0.9412795935,
				"element": "C" 
			},
			{
				"x": -0.7411292241,
				"y": 2.7803990948,
				"z": 0.8979305059,
				"element": "C" 
			},
			{
				"x": 0.0337332478,
				"y": 1.9134646376,
				"z": 2.2980569848,
				"element": "S" 
			},
			{
				"x": 1.4874319422,
				"y": 2.1409615374,
				"z": 2.2079605903,
				"element": "O" 
			},
			{
				"x": -0.6764019357,
				"y": 2.3154616256,
				"z": 3.527259021,
				"element": "O" 
			},
			{
				"x": -0.3722133808,
				"y": 0.1656471169,
				"z": 2.0144593351,
				"element": "C" 
			},
			{
				"x": -0.0306137675,
				"y": -0.5443561879,
				"z": 0.8330472251,
				"element": "C" 
			},
			{
				"x": -0.5694538267,
				"y": -1.838257463,
				"z": 0.6975504666,
				"element": "C" 
			},
			{
				"x": -1.3501823461,
				"y": -2.4177420539,
				"z": 1.6954838083,
				"element": "C" 
			},
			{
				"x": -1.6280375592,
				"y": -1.7228183188,
				"z": 2.8712898925,
				"element": "C" 
			},
			{
				"x": -1.1457976413,
				"y": -0.4244245363,
				"z": 3.0177170618,
				"element": "C" 
			},
			{
				"x": 0.774277253,
				"y": 0.0349679242,
				"z": -0.175528598,
				"element": "N" 
			},
			{
				"x": 0.5061605869,
				"y": -0.3794974432,
				"z": -1.5621838126,
				"element": "C" 
			},
			{
				"x": 1.4882450214,
				"y": 0.3230902021,
				"z": -2.5010975704,
				"element": "C" 
			},
			{
				"x": 2.9361328421,
				"y": -0.1939967959,
				"z": -2.2805717636,
				"element": "C" 
			},
			{
				"x": 3.9888836163,
				"y": 0.7477368455,
				"z": -2.6811186031,
				"element": "N" 
			},
			{
				"x": 3.1150646418,
				"y": -0.5969237152,
				"z": -0.7973533398,
				"element": "C" 
			},
			{
				"x": 2.2246164205,
				"y": 0.2329391231,
				"z": 0.1320889318,
				"element": "C" 
			},
			{
				"x": -2.6553129115,
				"y": 1.7441540408,
				"z": 0.8535978613,
				"element": "H" 
			},
			{
				"x": -2.6620209798,
				"y": 3.3485959803,
				"z": 0.1069497914,
				"element": "H" 
			},
			{
				"x": -2.6310922408,
				"y": 3.1930990618,
				"z": 1.8756156634,
				"element": "H" 
			},
			{
				"x": -0.3265019733,
				"y": 2.3102144555,
				"z": 0.0029711086,
				"element": "H" 
			},
			{
				"x": -0.3359301151,
				"y": 3.7936263549,
				"z": 0.9845262289,
				"element": "H" 
			},
			{
				"x": -0.3517607035,
				"y": -2.4120243046,
				"z": -0.1953677375,
				"element": "H" 
			},
			{
				"x": -1.7314701513,
				"y": -3.4251785578,
				"z": 1.5530314604,
				"element": "H" 
			},
			{
				"x": -2.229518937,
				"y": -2.1730232343,
				"z": 3.654423121,
				"element": "H" 
			},
			{
				"x": -1.3831115625,
				"y": 0.1662535873,
				"z": 3.8954571923,
				"element": "H" 
			},
			{
				"x": -0.5314771722,
				"y": -0.1239999943,
				"z": -1.8044165791,
				"element": "H" 
			},
			{
				"x": 0.6088107239,
				"y": -1.4671265643,
				"z": -1.7172762542,
				"element": "H" 
			},
			{
				"x": 1.4534112209,
				"y": 1.4034742286,
				"z": -2.3094545131,
				"element": "H" 
			},
			{
				"x": 1.1800451599,
				"y": 0.1742957842,
				"z": -3.5421762047,
				"element": "H" 
			},
			{
				"x": 3.0760029953,
				"y": -1.0910759086,
				"z": -2.8971489111,
				"element": "H" 
			},
			{
				"x": 3.8460056589,
				"y": 1.0353434202,
				"z": -3.6476997744,
				"element": "H" 
			},
			{
				"x": 3.915031072,
				"y": 1.5983106592,
				"z": -2.1240023745,
				"element": "H" 
			},
			{
				"x": 4.1657241681,
				"y": -0.4655512915,
				"z": -0.5192624141,
				"element": "H" 
			},
			{
				"x": 2.8832124292,
				"y": -1.660146259,
				"z": -0.6656580656,
				"element": "H" 
			},
			{
				"x": 2.3966972445,
				"y": -0.033405171,
				"z": 1.1749035411,
				"element": "H" 
			},
			{
				"x": 2.4730267863,
				"y": 1.2958889221,
				"z": 0.0524171308,
				"element": "H" 
			}
		],
		 "valence_orbital": [ 
			{
				"type": "occ",
				"energy": -0.27828,
				"method": "rhf"
			},
			{
				"type": "occ",
				"energy": -0.27415,
				"method": "rhf"
			},
			{
				"type": "occ",
				"energy": -0.26418,
				"method": "rhf"
			},
			{
				"type": "occ",
				"energy": -0.23695,
				"method": "rhf"
			},
			{
				"type": "occ",
				"energy": -0.21382,
				"method": "rhf"
			},
			{
				"type": "unocc",
				"energy": -0.03283,
				"method": "rhf"
			},
			{
				"type": "unocc",
				"energy": -0.01257,
				"method": "rhf"
			},
			{
				"type": "unocc",
				"energy": 0.0607,
				"method": "rhf"
			},
			{
				"type": "unocc",
				"energy": 0.06561,
				"method": "rhf"
			},
			{
				"type": "unocc",
				"energy": 0.08159,
				"method": "rhf"
			}
		],
		"cosmo_sigma_profile": { 
			"-0.025": 0.0,
			"-0.024": 0.0,
			"-0.023": 0.0,
			"-0.022": 0.0,
			"-0.021": 0.0,
			"-0.02": 0.0,
			"-0.019": 0.0,
			"-0.018": 0.0,
			"-0.017": 0.0,
			"-0.016": 0.0,
			"-0.015": 0.0,
			"-0.014": 0.0,
			"-0.013": 0.0,
			"-0.012": 0.0,
			"-0.011": 0.0,
			"-0.01": 0.20681290775,
			"-0.009": 1.57020065115,
			"-0.008": 3.3930676975,
			"-0.007": 7.61968185297,
			"-0.006": 12.7150133855,
			"-0.005": 16.7656685027,
			"-0.004": 26.2286870065,
			"-0.003": 39.1023510466,
			"-0.002": 40.2117717523,
			"-0.001": 33.5845104139,
			"0.0": 23.9688531984,
			"0.001": 14.4744467963,
			"0.002": 12.567095983,
			"0.003": 12.4290859568,
			"0.004": 11.768362127,
			"0.005": 4.86655161884,
			"0.006": 3.2747935416,
			"0.007": 3.81685724524,
			"0.008": 3.53212761269,
			"0.009": 3.76824098859,
			"0.01": 4.46130240448,
			"0.011": 7.11009282094,
			"0.012": 7.31294052713,
			"0.013": 4.62653503363,
			"0.014": 0.820538553001,
			"0.015": 0.571917793368,
			"0.016": 0.511567856878,
			"0.017": 0.546787283896,
			"0.018": 0.661857347592,
			"0.019": 0.557030721554,
			"0.02": 0.278962858378,
			"0.021": 0.0,
			"0.022": 0.0,
			"0.023": 0.0,
			"0.024": 0.0,
			"0.025": 0.0
		}
	}
}
