{
	 "smiles": "OC(=O)C1=C(O)C=C(NC(=O)C2=CC(Cl)=CC(Cl)=C2)C=C1", 
	 "Tm": 542.15, 
	 "num_atms": 30, 
	 "gaussian": { 
		 "optdone": 1, 
		 "sigma_profile": "yes", 
		 "theory": "DFT", 
		 "functional": "B3LYP", 
		 "basiset": "6-31G**", 
		 "properties": { 
			 "R2extent": 10654.765, 
			 "electric_dipole_moment_norm": 3.47915510002, 
			 "electric_quadrupole_moment_norm": 19.6428357879, 
			 "total_energy": -1814.96810292, 
			 "HOMO_LUMO_gap": 0.16938, 
			 "cosmo_polarized_energy": -23.4, 
			 "cosmo_cavitation_energy": 39.98, 
			 "cosmo_dispersion_energy": -28.2, 
			 "cosmo_repulsion_energy": 2.19, 
			 "cosmo_total_nonelectrostatic_energy": 13.98, 
			 "SMD_solvation_energy": 8.39 
		},
		"coords": [
			{
				"x": -0.9228023538,
				"y": -1.7499708609,
				"z": 4.3135416314,
				"element": "O" 
			},
			{
				"x": -0.3952417496,
				"y": -1.726522358,
				"z": 3.0708991832,
				"element": "C" 
			},
			{
				"x": 0.1289643032,
				"y": -2.7113621291,
				"z": 2.5808500069,
				"element": "O" 
			},
			{
				"x": -0.5047009529,
				"y": -0.4229605111,
				"z": 2.3635279669,
				"element": "C" 
			},
			{
				"x": -1.0925403635,
				"y": 0.7580905943,
				"z": 2.871222858,
				"element": "C" 
			},
			{
				"x": -1.6339920829,
				"y": 0.7654799202,
				"z": 4.113440486,
				"element": "O" 
			},
			{
				"x": -1.1233190139,
				"y": 1.9118249807,
				"z": 2.0779225648,
				"element": "C" 
			},
			{
				"x": -0.5682574384,
				"y": 1.927181876,
				"z": 0.7945990274,
				"element": "C" 
			},
			{
				"x": -0.5959609476,
				"y": 3.1463167368,
				"z": 0.0818586281,
				"element": "N" 
			},
			{
				"x": -0.5242108786,
				"y": 3.4136144198,
				"z": -1.277801248,
				"element": "C" 
			},
			{
				"x": -0.1078645858,
				"y": 4.4981765706,
				"z": -1.6613231636,
				"element": "O" 
			},
			{
				"x": -1.0484847125,
				"y": 2.4022918002,
				"z": -2.2578523182,
				"element": "C" 
			},
			{
				"x": -0.4677072931,
				"y": 2.3956636954,
				"z": -3.5316400375,
				"element": "C" 
			},
			{
				"x": -0.9691652851,
				"y": 1.5321344881,
				"z": -4.5006103477,
				"element": "C" 
			},
			{
				"x": -0.2322103027,
				"y": 1.4968135434,
				"z": -6.0909376383,
				"element": "Cl" 
			},
			{
				"x": -2.0557408669,
				"y": 0.695606394,
				"z": -4.2418276946,
				"element": "C" 
			},
			{
				"x": -2.635118758,
				"y": 0.7411341726,
				"z": -2.9739800503,
				"element": "C" 
			},
			{
				"x": -4.0185190417,
				"y": -0.2821986996,
				"z": -2.6356886005,
				"element": "Cl" 
			},
			{
				"x": -2.1443059229,
				"y": 1.5778616569,
				"z": -1.974208664,
				"element": "C" 
			},
			{
				"x": 0.0348512065,
				"y": 0.7646166327,
				"z": 0.2895419249,
				"element": "C" 
			},
			{
				"x": 0.0450693247,
				"y": -0.3792202264,
				"z": 1.071947211,
				"element": "C" 
			},
			{
				"x": -0.7724787877,
				"y": -2.6558806146,
				"z": 4.6325197175,
				"element": "H" 
			},
			{
				"x": -1.9898388218,
				"y": 1.6451912328,
				"z": 4.2971840753,
				"element": "H" 
			},
			{
				"x": -1.6010365625,
				"y": 2.8107116112,
				"z": 2.4622189555,
				"element": "H" 
			},
			{
				"x": -0.3962858214,
				"y": 3.980328761,
				"z": 0.622259,
				"element": "H" 
			},
			{
				"x": 0.3532781055,
				"y": 3.0678831855,
				"z": -3.7489013542,
				"element": "H" 
			},
			{
				"x": -2.443029434,
				"y": 0.0336742649,
				"z": -5.0064576923,
				"element": "H" 
			},
			{
				"x": -2.6193874344,
				"y": 1.5926718116,
				"z": -1.0015409883,
				"element": "H" 
			},
			{
				"x": 0.5024668993,
				"y": 0.7650493741,
				"z": -0.6869044044,
				"element": "H" 
			},
			{
				"x": 0.5073695723,
				"y": -1.2893023228,
				"z": 0.7060409649,
				"element": "H" 
			}
		],
		 "valence_orbital": [ 
			{
				"type": "occ",
				"energy": -0.27659,
				"method": "rhf"
			},
			{
				"type": "occ",
				"energy": -0.27144,
				"method": "rhf"
			},
			{
				"type": "occ",
				"energy": -0.26238,
				"method": "rhf"
			},
			{
				"type": "occ",
				"energy": -0.25731,
				"method": "rhf"
			},
			{
				"type": "occ",
				"energy": -0.23951,
				"method": "rhf"
			},
			{
				"type": "unocc",
				"energy": -0.07013,
				"method": "rhf"
			},
			{
				"type": "unocc",
				"energy": -0.0476,
				"method": "rhf"
			},
			{
				"type": "unocc",
				"energy": -0.03527,
				"method": "rhf"
			},
			{
				"type": "unocc",
				"energy": -0.01228,
				"method": "rhf"
			},
			{
				"type": "unocc",
				"energy": -0.00106,
				"method": "rhf"
			}
		],
		"cosmo_sigma_profile": { 
			"-0.025": 0.0,
			"-0.024": 0.0,
			"-0.023": 0.0,
			"-0.022": 0.0,
			"-0.021": 0.0,
			"-0.02": 0.0,
			"-0.019": 0.349390987152,
			"-0.018": 2.06130226582,
			"-0.017": 1.73077224044,
			"-0.016": 2.39496089028,
			"-0.015": 2.76721701956,
			"-0.014": 1.99840038006,
			"-0.013": 1.87100571989,
			"-0.012": 3.07402081358,
			"-0.011": 3.93765391159,
			"-0.01": 3.10162192553,
			"-0.009": 4.042297139,
			"-0.008": 4.82622703738,
			"-0.007": 8.41466306606,
			"-0.006": 11.8409595296,
			"-0.005": 11.5538838522,
			"-0.004": 12.1410059847,
			"-0.003": 14.6574316912,
			"-0.002": 18.6230354239,
			"-0.001": 23.6428344797,
			"0.0": 37.1501104206,
			"0.001": 30.9286221803,
			"0.002": 27.4340235381,
			"0.003": 23.8436083194,
			"0.004": 22.1675667008,
			"0.005": 5.74232156625,
			"0.006": 4.15578443807,
			"0.007": 3.68023841403,
			"0.008": 5.0687789861,
			"0.009": 4.00106475153,
			"0.01": 4.73190256868,
			"0.011": 6.68028057898,
			"0.012": 11.8411504729,
			"0.013": 3.62790913705,
			"0.014": 1.20498984596,
			"0.015": 0.0134952287064,
			"0.016": 0.0,
			"0.017": 0.0,
			"0.018": 0.0,
			"0.019": 0.0,
			"0.02": 0.0,
			"0.021": 0.0,
			"0.022": 0.0,
			"0.023": 0.0,
			"0.024": 0.0,
			"0.025": 0.0
		}
	}
}
