{
	 "smiles": "CC(=NO)C1=CN=CC=C1", 
	 "Tm": 377.15, 
	 "num_atms": 18, 
	 "gaussian": { 
		 "optdone": 1, 
		 "sigma_profile": "yes", 
		 "theory": "DFT", 
		 "functional": "B3LYP", 
		 "basiset": "6-31G**", 
		 "properties": { 
			 "R2extent": 1647.4585, 
			 "electric_dipole_moment_norm": 1.99560211966, 
			 "electric_quadrupole_moment_norm": 5.74254050051, 
			 "total_energy": -456.232547731, 
			 "HOMO_LUMO_gap": 0.18753, 
			 "cosmo_polarized_energy": -9.36, 
			 "cosmo_cavitation_energy": 22.08, 
			 "cosmo_dispersion_energy": -16.53, 
			 "cosmo_repulsion_energy": 1.34, 
			 "cosmo_total_nonelectrostatic_energy": 6.9, 
			 "SMD_solvation_energy": 2.83 
		},
		"coords": [
			{
				"x": -0.9848823038,
				"y": 2.2788227509,
				"z": 0.4403584308,
				"element": "C" 
			},
			{
				"x": -0.2232259235,
				"y": 1.1621003,
				"z": -0.2258255526,
				"element": "C" 
			},
			{
				"x": 0.4129455984,
				"y": 1.2778733263,
				"z": -1.340257895,
				"element": "N" 
			},
			{
				"x": 0.3320038121,
				"y": 2.5620655704,
				"z": -1.8896163221,
				"element": "O" 
			},
			{
				"x": -0.1725543236,
				"y": -0.1811710731,
				"z": 0.4050978022,
				"element": "C" 
			},
			{
				"x": -0.8215922281,
				"y": -0.4416386271,
				"z": 1.622537505,
				"element": "C" 
			},
			{
				"x": -0.8165870251,
				"y": -1.6269892932,
				"z": 2.2451519801,
				"element": "N" 
			},
			{
				"x": -0.1463557847,
				"y": -2.6254464064,
				"z": 1.6625346084,
				"element": "C" 
			},
			{
				"x": 0.5376382751,
				"y": -2.4850118483,
				"z": 0.4509823795,
				"element": "C" 
			},
			{
				"x": 0.5244246966,
				"y": -1.2509016162,
				"z": -0.1839047312,
				"element": "C" 
			},
			{
				"x": -0.5819708541,
				"y": 2.4773817699,
				"z": 1.439335967,
				"element": "H" 
			},
			{
				"x": -2.0387910964,
				"y": 2.0067114288,
				"z": 0.5624082393,
				"element": "H" 
			},
			{
				"x": -0.9241902346,
				"y": 3.1908726261,
				"z": -0.1497036554,
				"element": "H" 
			},
			{
				"x": 0.851258642,
				"y": 2.4670943267,
				"z": -2.6987912223,
				"element": "H" 
			},
			{
				"x": -1.3772401302,
				"y": 0.3443872703,
				"z": 2.1278215866,
				"element": "H" 
			},
			{
				"x": -0.1548897946,
				"y": -3.5806232026,
				"z": 2.1849537483,
				"element": "H" 
			},
			{
				"x": 1.0673847411,
				"y": -3.3288517282,
				"z": 0.0195787624,
				"element": "H" 
			},
			{
				"x": 1.0402239332,
				"y": -1.0943755742,
				"z": -1.124561631,
				"element": "H" 
			}
		],
		 "valence_orbital": [ 
			{
				"type": "occ",
				"energy": -0.30304,
				"method": "rhf"
			},
			{
				"type": "occ",
				"energy": -0.27837,
				"method": "rhf"
			},
			{
				"type": "occ",
				"energy": -0.27549,
				"method": "rhf"
			},
			{
				"type": "occ",
				"energy": -0.25317,
				"method": "rhf"
			},
			{
				"type": "occ",
				"energy": -0.23349,
				"method": "rhf"
			},
			{
				"type": "unocc",
				"energy": -0.04596,
				"method": "rhf"
			},
			{
				"type": "unocc",
				"energy": -0.01854,
				"method": "rhf"
			},
			{
				"type": "unocc",
				"energy": 0.03911,
				"method": "rhf"
			},
			{
				"type": "unocc",
				"energy": 0.07134,
				"method": "rhf"
			},
			{
				"type": "unocc",
				"energy": 0.1042,
				"method": "rhf"
			}
		],
		"cosmo_sigma_profile": { 
			"-0.025": 0.0,
			"-0.024": 0.0,
			"-0.023": 0.0,
			"-0.022": 0.0,
			"-0.021": 0.0,
			"-0.02": 0.0,
			"-0.019": 0.0,
			"-0.018": 0.179861162027,
			"-0.017": 0.904318432131,
			"-0.016": 1.05128401654,
			"-0.015": 0.993984685982,
			"-0.014": 0.65962745283,
			"-0.013": 0.755539704196,
			"-0.012": 0.263258621012,
			"-0.011": 0.902868050859,
			"-0.01": 0.720529267504,
			"-0.009": 0.627189014956,
			"-0.008": 0.773864587761,
			"-0.007": 3.15194364265,
			"-0.006": 12.3448612528,
			"-0.005": 14.2505865809,
			"-0.004": 10.0529968487,
			"-0.003": 11.5668994222,
			"-0.002": 10.3984168661,
			"-0.001": 13.3826793823,
			"0.0": 11.2831904864,
			"0.001": 12.2424195901,
			"0.002": 18.7345262242,
			"0.003": 11.2361513609,
			"0.004": 6.55569170592,
			"0.005": 6.801127081,
			"0.006": 5.14823545146,
			"0.007": 4.67052632199,
			"0.008": 5.99977243215,
			"0.009": 3.35101032034,
			"0.01": 1.11209763887,
			"0.011": 1.1499421139,
			"0.012": 1.1862841477,
			"0.013": 0.727882899464,
			"0.014": 1.0503827676,
			"0.015": 0.904680435542,
			"0.016": 0.713020157708,
			"0.017": 0.282751441272,
			"0.018": 0.0,
			"0.019": 0.0,
			"0.02": 0.0,
			"0.021": 0.0,
			"0.022": 0.0,
			"0.023": 0.0,
			"0.024": 0.0,
			"0.025": 0.0
		}
	}
}
