{
	 "smiles": "OC(=O)C1=C2N=CC(Cl)=CC2=CC=C1Cl", 
	 "Tm": 547.15, 
	 "num_atms": 20, 
	 "gaussian": { 
		 "optdone": 1, 
		 "sigma_profile": "yes", 
		 "theory": "DFT", 
		 "functional": "B3LYP", 
		 "basiset": "6-31G**", 
		 "properties": { 
			 "R2extent": 4703.0613, 
			 "electric_dipole_moment_norm": 2.96664670967, 
			 "electric_quadrupole_moment_norm": 14.0643000537, 
			 "total_energy": -1509.67045451, 
			 "HOMO_LUMO_gap": 0.16886, 
			 "cosmo_polarized_energy": -13.52, 
			 "cosmo_cavitation_energy": 29.46, 
			 "cosmo_dispersion_energy": -21.43, 
			 "cosmo_repulsion_energy": 1.68, 
			 "cosmo_total_nonelectrostatic_energy": 9.71, 
			 "SMD_solvation_energy": 4.3 
		},
		"coords": [
			{
				"x": 0.1826717524,
				"y": -0.1349197852,
				"z": -3.8560782543,
				"element": "O" 
			},
			{
				"x": -0.3800288829,
				"y": 0.8747925741,
				"z": -3.1650425163,
				"element": "C" 
			},
			{
				"x": -0.3744095444,
				"y": 2.0273830129,
				"z": -3.5253693826,
				"element": "O" 
			},
			{
				"x": -1.0263430021,
				"y": 0.3863526054,
				"z": -1.8952467311,
				"element": "C" 
			},
			{
				"x": -0.2111690035,
				"y": 0.2178606677,
				"z": -0.7380130874,
				"element": "C" 
			},
			{
				"x": 1.1238207565,
				"y": 0.4663722453,
				"z": -0.8579492328,
				"element": "N" 
			},
			{
				"x": 1.8870632491,
				"y": 0.3192753,
				"z": 0.2013792787,
				"element": "C" 
			},
			{
				"x": 1.3845590801,
				"y": -0.0875711909,
				"z": 1.4659112462,
				"element": "C" 
			},
			{
				"x": 2.4963979255,
				"y": -0.2508717276,
				"z": 2.8063200792,
				"element": "Cl" 
			},
			{
				"x": 0.0441962276,
				"y": -0.3440612606,
				"z": 1.6181326663,
				"element": "C" 
			},
			{
				"x": -0.8058219073,
				"y": -0.1936049057,
				"z": 0.4938030558,
				"element": "C" 
			},
			{
				"x": -2.204008632,
				"y": -0.4302942066,
				"z": 0.5421740005,
				"element": "C" 
			},
			{
				"x": -2.9780759964,
				"y": -0.2659774166,
				"z": -0.5812183553,
				"element": "C" 
			},
			{
				"x": -2.3809679068,
				"y": 0.1449944213,
				"z": -1.7981201546,
				"element": "C" 
			},
			{
				"x": -3.4196266742,
				"y": 0.3265834284,
				"z": -3.1971858878,
				"element": "Cl" 
			},
			{
				"x": 0.5897122501,
				"y": 0.2665133551,
				"z": -4.6434514373,
				"element": "H" 
			},
			{
				"x": 2.9498604995,
				"y": 0.5227155767,
				"z": 0.0887650797,
				"element": "H" 
			},
			{
				"x": -0.3625189288,
				"y": -0.6541956251,
				"z": 2.575333828,
				"element": "H" 
			},
			{
				"x": -2.6591173711,
				"y": -0.7438029823,
				"z": 1.477221002,
				"element": "H" 
			},
			{
				"x": -4.0465938913,
				"y": -0.4466440864,
				"z": -0.554665197,
				"element": "H" 
			}
		],
		 "valence_orbital": [ 
			{
				"type": "occ",
				"energy": -0.30748,
				"method": "rhf"
			},
			{
				"type": "occ",
				"energy": -0.28735,
				"method": "rhf"
			},
			{
				"type": "occ",
				"energy": -0.27926,
				"method": "rhf"
			},
			{
				"type": "occ",
				"energy": -0.26769,
				"method": "rhf"
			},
			{
				"type": "occ",
				"energy": -0.24844,
				"method": "rhf"
			},
			{
				"type": "unocc",
				"energy": -0.07958,
				"method": "rhf"
			},
			{
				"type": "unocc",
				"energy": -0.04339,
				"method": "rhf"
			},
			{
				"type": "unocc",
				"energy": -0.01191,
				"method": "rhf"
			},
			{
				"type": "unocc",
				"energy": 0.00367,
				"method": "rhf"
			},
			{
				"type": "unocc",
				"energy": 0.01396,
				"method": "rhf"
			}
		],
		"cosmo_sigma_profile": { 
			"-0.025": 0.0,
			"-0.024": 0.0,
			"-0.023": 0.0,
			"-0.022": 0.0,
			"-0.021": 0.0,
			"-0.02": 0.00616203804023,
			"-0.019": 0.570106036785,
			"-0.018": 1.02155981401,
			"-0.017": 0.968405388373,
			"-0.016": 0.788568145001,
			"-0.015": 0.460648861861,
			"-0.014": 0.77123998636,
			"-0.013": 0.6319132885,
			"-0.012": 0.50359130592,
			"-0.011": 1.15085707468,
			"-0.01": 1.51807094121,
			"-0.009": 4.76654901462,
			"-0.008": 7.99749856105,
			"-0.007": 7.62408031963,
			"-0.006": 7.34428283298,
			"-0.005": 6.93797226945,
			"-0.004": 7.77562265957,
			"-0.003": 9.96708123824,
			"-0.002": 17.4508719347,
			"-0.001": 26.8780749459,
			"0.0": 25.2262208387,
			"0.001": 20.4847699974,
			"0.002": 19.3219803999,
			"0.003": 19.5357046101,
			"0.004": 15.2334105575,
			"0.005": 5.29560732473,
			"0.006": 5.55265468391,
			"0.007": 5.48929405347,
			"0.008": 5.40923761318,
			"0.009": 3.92545568019,
			"0.01": 4.63945132675,
			"0.011": 5.90474645385,
			"0.012": 0.972327190484,
			"0.013": 0.0,
			"0.014": 0.0,
			"0.015": 0.0,
			"0.016": 0.0,
			"0.017": 0.0,
			"0.018": 0.0,
			"0.019": 0.0,
			"0.02": 0.0,
			"0.021": 0.0,
			"0.022": 0.0,
			"0.023": 0.0,
			"0.024": 0.0,
			"0.025": 0.0
		}
	}
}
