{
	 "smiles": "COC1=CC2=C(C=C1OC)C(Cl)=NC=N2", 
	 "Tm": 458.65, 
	 "num_atms": 24, 
	 "gaussian": { 
		 "optdone": 1, 
		 "sigma_profile": "yes", 
		 "theory": "DFT", 
		 "functional": "B3LYP", 
		 "basiset": "6-31G**", 
		 "properties": { 
			 "R2extent": 4085.4098, 
			 "electric_dipole_moment_norm": 4.57444533687, 
			 "electric_quadrupole_moment_norm": 6.7895124361, 
			 "total_energy": -1106.60555859, 
			 "HOMO_LUMO_gap": 0.16914, 
			 "cosmo_polarized_energy": -10.26, 
			 "cosmo_cavitation_energy": 29.96, 
			 "cosmo_dispersion_energy": -22.1, 
			 "cosmo_repulsion_energy": 1.72, 
			 "cosmo_total_nonelectrostatic_energy": 9.58, 
			 "SMD_solvation_energy": 3.58 
		},
		"coords": [
			{
				"x": 3.4324275007,
				"y": 1.5404504465,
				"z": 0.0557499025,
				"element": "C" 
			},
			{
				"x": 2.5559564046,
				"y": 1.6125089802,
				"z": -1.0765283155,
				"element": "O" 
			},
			{
				"x": 1.443622389,
				"y": 0.8235219501,
				"z": -1.048946619,
				"element": "C" 
			},
			{
				"x": 1.308488691,
				"y": -0.1700249129,
				"z": -1.9895026576,
				"element": "C" 
			},
			{
				"x": 0.1387627857,
				"y": -0.9686242201,
				"z": -2.047462412,
				"element": "C" 
			},
			{
				"x": -0.9009608947,
				"y": -0.7283237989,
				"z": -1.0967657397,
				"element": "C" 
			},
			{
				"x": -0.7604625122,
				"y": 0.3013697155,
				"z": -0.1339018354,
				"element": "C" 
			},
			{
				"x": 0.3827571479,
				"y": 1.0738006764,
				"z": -0.1075414848,
				"element": "C" 
			},
			{
				"x": 0.6032156022,
				"y": 2.1046386237,
				"z": 0.7482568046,
				"element": "O" 
			},
			{
				"x": -0.4245895714,
				"y": 2.43992727,
				"z": 1.6738513018,
				"element": "C" 
			},
			{
				"x": -2.0210275779,
				"y": -1.5910259085,
				"z": -1.2364180081,
				"element": "C" 
			},
			{
				"x": -3.3893588343,
				"y": -1.4145464202,
				"z": -0.1327760146,
				"element": "Cl" 
			},
			{
				"x": -2.1175249508,
				"y": -2.5255576884,
				"z": -2.1389096864,
				"element": "N" 
			},
			{
				"x": -1.0610177483,
				"y": -2.6580595692,
				"z": -2.9868815581,
				"element": "C" 
			},
			{
				"x": 0.0424045495,
				"y": -1.9456567237,
				"z": -2.9929337437,
				"element": "N" 
			},
			{
				"x": 3.8072990975,
				"y": 0.517998718,
				"z": 0.1877911002,
				"element": "H" 
			},
			{
				"x": 2.9372207724,
				"y": 1.8746830328,
				"z": 0.9706110682,
				"element": "H" 
			},
			{
				"x": 4.2682554501,
				"y": 2.2034694993,
				"z": -0.173162461,
				"element": "H" 
			},
			{
				"x": 2.1030285317,
				"y": -0.3459918074,
				"z": -2.7051192041,
				"element": "H" 
			},
			{
				"x": -1.5686739434,
				"y": 0.4734754066,
				"z": 0.5636358451,
				"element": "H" 
			},
			{
				"x": -0.0514163504,
				"y": 3.295508207,
				"z": 2.2374173868,
				"element": "H" 
			},
			{
				"x": -1.3496304003,
				"y": 2.7188308417,
				"z": 1.1554154934,
				"element": "H" 
			},
			{
				"x": -0.6306421368,
				"y": 1.6106356847,
				"z": 2.3615083525,
				"element": "H" 
			},
			{
				"x": -1.1579340018,
				"y": -3.4429080031,
				"z": -3.7331875151,
				"element": "H" 
			}
		],
		 "valence_orbital": [ 
			{
				"type": "occ",
				"energy": -0.30114,
				"method": "rhf"
			},
			{
				"type": "occ",
				"energy": -0.29268,
				"method": "rhf"
			},
			{
				"type": "occ",
				"energy": -0.26006,
				"method": "rhf"
			},
			{
				"type": "occ",
				"energy": -0.25218,
				"method": "rhf"
			},
			{
				"type": "occ",
				"energy": -0.23582,
				"method": "rhf"
			},
			{
				"type": "unocc",
				"energy": -0.06668,
				"method": "rhf"
			},
			{
				"type": "unocc",
				"energy": -0.03163,
				"method": "rhf"
			},
			{
				"type": "unocc",
				"energy": 0.01066,
				"method": "rhf"
			},
			{
				"type": "unocc",
				"energy": 0.02897,
				"method": "rhf"
			},
			{
				"type": "unocc",
				"energy": 0.07312,
				"method": "rhf"
			}
		],
		"cosmo_sigma_profile": { 
			"-0.025": 0.0,
			"-0.024": 0.0,
			"-0.023": 0.0,
			"-0.022": 0.0,
			"-0.021": 0.0,
			"-0.02": 0.0,
			"-0.019": 0.0,
			"-0.018": 0.0,
			"-0.017": 0.0,
			"-0.016": 0.0,
			"-0.015": 0.0,
			"-0.014": 0.0,
			"-0.013": 0.0,
			"-0.012": 0.0,
			"-0.011": 0.0,
			"-0.01": 0.0,
			"-0.009": 0.0,
			"-0.008": 1.45969244809,
			"-0.007": 7.05639493659,
			"-0.006": 13.6389667272,
			"-0.005": 15.255415779,
			"-0.004": 19.6030997884,
			"-0.003": 23.823078574,
			"-0.002": 20.539712187,
			"-0.001": 23.7925946859,
			"0.0": 21.6615637802,
			"0.001": 21.7394882285,
			"0.002": 14.9544226888,
			"0.003": 11.8427327157,
			"0.004": 10.4670390671,
			"0.005": 6.72164056418,
			"0.006": 5.27307914467,
			"0.007": 4.21459935704,
			"0.008": 4.64420565196,
			"0.009": 5.60539150477,
			"0.01": 2.87738353113,
			"0.011": 2.2415089004,
			"0.012": 2.22046038165,
			"0.013": 1.44179989951,
			"0.014": 1.12543061337,
			"0.015": 0.451065809801,
			"0.016": 0.0,
			"0.017": 0.0,
			"0.018": 0.0,
			"0.019": 0.0,
			"0.02": 0.0,
			"0.021": 0.0,
			"0.022": 0.0,
			"0.023": 0.0,
			"0.024": 0.0,
			"0.025": 0.0
		}
	}
}
