{
	 "smiles": "OC1=CC=C(O)C=C1", 
	 "Tm": 446.15, 
	 "num_atms": 14, 
	 "gaussian": { 
		 "optdone": 1, 
		 "sigma_profile": "yes", 
		 "theory": "DFT", 
		 "functional": "B3LYP", 
		 "basiset": "6-31G**", 
		 "properties": { 
			 "R2extent": 1380.5405, 
			 "electric_dipole_moment_norm": 2.63937767476, 
			 "electric_quadrupole_moment_norm": 7.55841120144, 
			 "total_energy": -382.688677559, 
			 "HOMO_LUMO_gap": 0.19639, 
			 "cosmo_polarized_energy": -12.37, 
			 "cosmo_cavitation_energy": 18.07, 
			 "cosmo_dispersion_energy": -13.78, 
			 "cosmo_repulsion_energy": 1.15, 
			 "cosmo_total_nonelectrostatic_energy": 5.44, 
			 "SMD_solvation_energy": 3.81 
		},
		"coords": [
			{
				"x": 1.6944049731,
				"y": 0.6392259116,
				"z": -0.6873664936,
				"element": "O" 
			},
			{
				"x": 0.9074348832,
				"y": -0.3772217409,
				"z": -0.2087066957,
				"element": "C" 
			},
			{
				"x": 0.9161351642,
				"y": -0.7824768461,
				"z": 1.1271560913,
				"element": "C" 
			},
			{
				"x": 0.0893879413,
				"y": -1.8259714658,
				"z": 1.5516431882,
				"element": "C" 
			},
			{
				"x": -0.7515176643,
				"y": -2.4711206594,
				"z": 0.6430747093,
				"element": "C" 
			},
			{
				"x": -1.585737425,
				"y": -3.5009494955,
				"z": 0.9968252257,
				"element": "O" 
			},
			{
				"x": -0.759031252,
				"y": -2.0634598188,
				"z": -0.6962646962,
				"element": "C" 
			},
			{
				"x": 0.0635058109,
				"y": -1.0252743775,
				"z": -1.1185910691,
				"element": "C" 
			},
			{
				"x": 2.2222341907,
				"y": 0.9956942895,
				"z": 0.0382149489,
				"element": "H" 
			},
			{
				"x": 1.5672660236,
				"y": -0.2872074265,
				"z": 1.8446057244,
				"element": "H" 
			},
			{
				"x": 0.1049115263,
				"y": -2.1329803662,
				"z": 2.5954355274,
				"element": "H" 
			},
			{
				"x": -1.4816381633,
				"y": -3.6792290006,
				"z": 1.9399680126,
				"element": "H" 
			},
			{
				"x": -1.416193102,
				"y": -2.5713623839,
				"z": -1.394486876,
				"element": "H" 
			},
			{
				"x": 0.0642370932,
				"y": -0.7027666199,
				"z": -2.1546075974,
				"element": "H" 
			}
		],
		 "valence_orbital": [ 
			{
				"type": "occ",
				"energy": -0.3571,
				"method": "rhf"
			},
			{
				"type": "occ",
				"energy": -0.33628,
				"method": "rhf"
			},
			{
				"type": "occ",
				"energy": -0.30206,
				"method": "rhf"
			},
			{
				"type": "occ",
				"energy": -0.25153,
				"method": "rhf"
			},
			{
				"type": "occ",
				"energy": -0.19895,
				"method": "rhf"
			},
			{
				"type": "unocc",
				"energy": -0.00256,
				"method": "rhf"
			},
			{
				"type": "unocc",
				"energy": 0.02966,
				"method": "rhf"
			},
			{
				"type": "unocc",
				"energy": 0.07112,
				"method": "rhf"
			},
			{
				"type": "unocc",
				"energy": 0.07498,
				"method": "rhf"
			},
			{
				"type": "unocc",
				"energy": 0.09801,
				"method": "rhf"
			}
		],
		"cosmo_sigma_profile": { 
			"-0.025": 0.0,
			"-0.024": 0.0,
			"-0.023": 0.0,
			"-0.022": 0.0,
			"-0.021": 0.0,
			"-0.02": 0.0,
			"-0.019": 0.0,
			"-0.018": 0.153310540986,
			"-0.017": 1.70359619839,
			"-0.016": 2.2925904389,
			"-0.015": 2.5154056525,
			"-0.014": 2.0172246165,
			"-0.013": 1.83327826976,
			"-0.012": 1.72671826142,
			"-0.011": 1.56353875578,
			"-0.01": 1.83168801602,
			"-0.009": 3.04321256273,
			"-0.008": 2.18579730163,
			"-0.007": 2.75325192169,
			"-0.006": 5.42604108767,
			"-0.005": 8.05334947943,
			"-0.004": 7.21560517587,
			"-0.003": 6.94199930733,
			"-0.002": 5.42131646718,
			"-0.001": 4.33096595912,
			"0.0": 6.07151099737,
			"0.001": 5.78115295246,
			"0.002": 5.88089851445,
			"0.003": 8.12216924076,
			"0.004": 12.5303302941,
			"0.005": 14.70475871,
			"0.006": 10.3165999884,
			"0.007": 3.38188658419,
			"0.008": 2.70354926267,
			"0.009": 2.67783905246,
			"0.01": 3.10714645625,
			"0.011": 3.63730379186,
			"0.012": 3.58890354051,
			"0.013": 0.09831279653,
			"0.014": 0.0,
			"0.015": 0.0,
			"0.016": 0.0,
			"0.017": 0.0,
			"0.018": 0.0,
			"0.019": 0.0,
			"0.02": 0.0,
			"0.021": 0.0,
			"0.022": 0.0,
			"0.023": 0.0,
			"0.024": 0.0,
			"0.025": 0.0
		}
	}
}
