{
	 "smiles": "CCCCC(C)CCO", 
	 "Tm": 183.15, 
	 "num_atms": 27, 
	 "gaussian": { 
		 "optdone": 1, 
		 "sigma_profile": "yes", 
		 "theory": "DFT", 
		 "functional": "B3LYP", 
		 "basiset": "6-31G**", 
		 "properties": { 
			 "R2extent": 1894.3645, 
			 "electric_dipole_moment_norm": 1.50695967431, 
			 "electric_quadrupole_moment_norm": 4.88363820527, 
			 "total_energy": -390.930867863, 
			 "HOMO_LUMO_gap": 0.3321, 
			 "cosmo_polarized_energy": -5.22, 
			 "cosmo_cavitation_energy": 26.88, 
			 "cosmo_dispersion_energy": -19.2, 
			 "cosmo_repulsion_energy": 1.62, 
			 "cosmo_total_nonelectrostatic_energy": 9.3, 
			 "SMD_solvation_energy": 4.39 
		},
		"coords": [
			{
				"x": -2.3614405918,
				"y": 2.8334808289,
				"z": 1.3368484622,
				"element": "C" 
			},
			{
				"x": -0.9305335778,
				"y": 2.4683718686,
				"z": 0.9285421185,
				"element": "C" 
			},
			{
				"x": -0.8679584273,
				"y": 1.3948197963,
				"z": -0.1660926227,
				"element": "C" 
			},
			{
				"x": 0.5734083109,
				"y": 1.0784336325,
				"z": -0.6024471836,
				"element": "C" 
			},
			{
				"x": 0.7724591193,
				"y": -0.0961906274,
				"z": -1.5955696964,
				"element": "C" 
			},
			{
				"x": -0.2640097273,
				"y": -0.1033967812,
				"z": -2.7319689444,
				"element": "C" 
			},
			{
				"x": 0.9226049497,
				"y": -1.4798028164,
				"z": -0.9114192983,
				"element": "C" 
			},
			{
				"x": -0.121909481,
				"y": -1.9057642455,
				"z": 0.1155284198,
				"element": "C" 
			},
			{
				"x": -1.405179374,
				"y": -1.9901099359,
				"z": -0.5007062131,
				"element": "O" 
			},
			{
				"x": -2.3738893297,
				"y": 3.598253896,
				"z": 2.1206501964,
				"element": "H" 
			},
			{
				"x": -2.9296046232,
				"y": 3.2221405348,
				"z": 0.4839414556,
				"element": "H" 
			},
			{
				"x": -2.90034541,
				"y": 1.958199173,
				"z": 1.717997711,
				"element": "H" 
			},
			{
				"x": -0.3760226906,
				"y": 2.1202923082,
				"z": 1.8113350425,
				"element": "H" 
			},
			{
				"x": -0.4077931525,
				"y": 3.3709995373,
				"z": 0.5826780508,
				"element": "H" 
			},
			{
				"x": -1.3788545737,
				"y": 0.4878710387,
				"z": 0.1764275285,
				"element": "H" 
			},
			{
				"x": -1.4410797034,
				"y": 1.7417757976,
				"z": -1.0357363228,
				"element": "H" 
			},
			{
				"x": 0.988194424,
				"y": 1.9870242673,
				"z": -1.060674289,
				"element": "H" 
			},
			{
				"x": 1.1896880966,
				"y": 0.8946021686,
				"z": 0.2900827684,
				"element": "H" 
			},
			{
				"x": 1.749361951,
				"y": 0.0791309185,
				"z": -2.0692456322,
				"element": "H" 
			},
			{
				"x": -1.2627111694,
				"y": -0.3470244974,
				"z": -2.3650434856,
				"element": "H" 
			},
			{
				"x": 0.0016169312,
				"y": -0.8527555996,
				"z": -3.4859658227,
				"element": "H" 
			},
			{
				"x": -0.3019569105,
				"y": 0.8708660773,
				"z": -3.2335507233,
				"element": "H" 
			},
			{
				"x": 1.8887348835,
				"y": -1.5032574527,
				"z": -0.388447994,
				"element": "H" 
			},
			{
				"x": 0.9746274554,
				"y": -2.252393033,
				"z": -1.6894710124,
				"element": "H" 
			},
			{
				"x": -0.1343602642,
				"y": -1.1930563313,
				"z": 0.9547222226,
				"element": "H" 
			},
			{
				"x": 0.1742765394,
				"y": -2.8836851488,
				"z": 0.5283970724,
				"element": "H" 
			},
			{
				"x": -2.0433236546,
				"y": -2.2611253744,
				"z": 0.1707881917,
				"element": "H" 
			}
		],
		 "valence_orbital": [ 
			{
				"type": "occ",
				"energy": -0.31686,
				"method": "rhf"
			},
			{
				"type": "occ",
				"energy": -0.30609,
				"method": "rhf"
			},
			{
				"type": "occ",
				"energy": -0.29673,
				"method": "rhf"
			},
			{
				"type": "occ",
				"energy": -0.28917,
				"method": "rhf"
			},
			{
				"type": "occ",
				"energy": -0.26502,
				"method": "rhf"
			},
			{
				"type": "unocc",
				"energy": 0.06708,
				"method": "rhf"
			},
			{
				"type": "unocc",
				"energy": 0.09433,
				"method": "rhf"
			},
			{
				"type": "unocc",
				"energy": 0.1021,
				"method": "rhf"
			},
			{
				"type": "unocc",
				"energy": 0.12271,
				"method": "rhf"
			},
			{
				"type": "unocc",
				"energy": 0.13987,
				"method": "rhf"
			}
		],
		"cosmo_sigma_profile": { 
			"-0.025": 0.0,
			"-0.024": 0.0,
			"-0.023": 0.0,
			"-0.022": 0.0,
			"-0.021": 0.0,
			"-0.02": 0.0,
			"-0.019": 0.0,
			"-0.018": 0.0,
			"-0.017": 0.0,
			"-0.016": 0.0535947294382,
			"-0.015": 0.791054274603,
			"-0.014": 1.28928547369,
			"-0.013": 1.00323223327,
			"-0.012": 0.242536184363,
			"-0.011": 0.992023558958,
			"-0.01": 1.01863010046,
			"-0.009": 0.917484259073,
			"-0.008": 1.17903336875,
			"-0.007": 0.92045741136,
			"-0.006": 0.527266623909,
			"-0.005": 0.973452477962,
			"-0.004": 1.22958733367,
			"-0.003": 7.29974103254,
			"-0.002": 27.9146599627,
			"-0.001": 41.7688412533,
			"0.0": 41.7143464041,
			"0.001": 32.6334488332,
			"0.002": 21.3722998784,
			"0.003": 4.87539903264,
			"0.004": 2.92675101426,
			"0.005": 1.15381608273,
			"0.006": 1.47696201479,
			"0.007": 1.23996675869,
			"0.008": 2.03270463944,
			"0.009": 2.33586724177,
			"0.01": 1.54565583689,
			"0.011": 1.04160367854,
			"0.012": 1.04063350269,
			"0.013": 0.776120374799,
			"0.014": 0.788498909255,
			"0.015": 0.225347221723,
			"0.016": 0.0,
			"0.017": 0.0,
			"0.018": 0.0,
			"0.019": 0.0,
			"0.02": 0.0,
			"0.021": 0.0,
			"0.022": 0.0,
			"0.023": 0.0,
			"0.024": 0.0,
			"0.025": 0.0
		}
	}
}
