{
	 "smiles": "CCC(C)C1=CC=C(O)C=C1", 
	 "Tm": 334.65, 
	 "num_atms": 25, 
	 "gaussian": { 
		 "optdone": 1, 
		 "sigma_profile": "yes", 
		 "theory": "DFT", 
		 "functional": "B3LYP", 
		 "basiset": "6-31G**", 
		 "properties": { 
			 "R2extent": 2612.2527, 
			 "electric_dipole_moment_norm": 1.34786839491, 
			 "electric_quadrupole_moment_norm": 9.02277578631, 
			 "total_energy": -464.737949516, 
			 "HOMO_LUMO_gap": 0.21256, 
			 "cosmo_polarized_energy": -7.69, 
			 "cosmo_cavitation_energy": 27.26, 
			 "cosmo_dispersion_energy": -19.32, 
			 "cosmo_repulsion_energy": 1.57, 
			 "cosmo_total_nonelectrostatic_energy": 9.51, 
			 "SMD_solvation_energy": 5.03 
		},
		"coords": [
			{
				"x": 1.865139162,
				"y": -1.0942427542,
				"z": -0.6135208842,
				"element": "C" 
			},
			{
				"x": 0.5418471914,
				"y": -1.4695144466,
				"z": 0.0595006877,
				"element": "C" 
			},
			{
				"x": 0.1411315717,
				"y": -0.5430525536,
				"z": 1.2306477743,
				"element": "C" 
			},
			{
				"x": -1.0985469801,
				"y": -1.0923503852,
				"z": 1.9625332293,
				"element": "C" 
			},
			{
				"x": -0.0608245294,
				"y": 0.903263298,
				"z": 0.7960610282,
				"element": "C" 
			},
			{
				"x": 0.7361639903,
				"y": 1.9330229208,
				"z": 1.3160722848,
				"element": "C" 
			},
			{
				"x": 0.5592143968,
				"y": 3.263163574,
				"z": 0.941007923,
				"element": "C" 
			},
			{
				"x": -0.437299738,
				"y": 3.5954708682,
				"z": 0.0193869668,
				"element": "C" 
			},
			{
				"x": -0.5752771632,
				"y": 4.9136736818,
				"z": -0.3205490046,
				"element": "O" 
			},
			{
				"x": -1.2453778691,
				"y": 2.586409836,
				"z": -0.5150683642,
				"element": "C" 
			},
			{
				"x": -1.053836498,
				"y": 1.2609268708,
				"z": -0.12660595,
				"element": "C" 
			},
			{
				"x": 1.8257209786,
				"y": -0.084914445,
				"z": -1.034431438,
				"element": "H" 
			},
			{
				"x": 2.6942998502,
				"y": -1.1219621924,
				"z": 0.1031416998,
				"element": "H" 
			},
			{
				"x": 2.1056289428,
				"y": -1.7887392262,
				"z": -1.4251794538,
				"element": "H" 
			},
			{
				"x": -0.2635863021,
				"y": -1.4742934106,
				"z": -0.6874003675,
				"element": "H" 
			},
			{
				"x": 0.6051190191,
				"y": -2.497311728,
				"z": 0.4409179303,
				"element": "H" 
			},
			{
				"x": 0.9750770232,
				"y": -0.5490564451,
				"z": 1.9467538745,
				"element": "H" 
			},
			{
				"x": -1.3660348621,
				"y": -0.4606715898,
				"z": 2.8152123787,
				"element": "H" 
			},
			{
				"x": -0.9153061588,
				"y": -2.1072109396,
				"z": 2.3328194097,
				"element": "H" 
			},
			{
				"x": -1.9672722868,
				"y": -1.1345950662,
				"z": 1.2959426402,
				"element": "H" 
			},
			{
				"x": 1.5154714124,
				"y": 1.6889410929,
				"z": 2.0341956516,
				"element": "H" 
			},
			{
				"x": 1.1817284814,
				"y": 4.0524037188,
				"z": 1.3498825374,
				"element": "H" 
			},
			{
				"x": -1.2943848235,
				"y": 4.9997400118,
				"z": -0.9595059846,
				"element": "H" 
			},
			{
				"x": -2.0239302041,
				"y": 2.8365911392,
				"z": -1.2336011904,
				"element": "H" 
			},
			{
				"x": -1.6958646047,
				"y": 0.49570817,
				"z": -0.5552133792,
				"element": "H" 
			}
		],
		 "valence_orbital": [ 
			{
				"type": "occ",
				"energy": -0.31886,
				"method": "rhf"
			},
			{
				"type": "occ",
				"energy": -0.31579,
				"method": "rhf"
			},
			{
				"type": "occ",
				"energy": -0.31052,
				"method": "rhf"
			},
			{
				"type": "occ",
				"energy": -0.24724,
				"method": "rhf"
			},
			{
				"type": "occ",
				"energy": -0.21184,
				"method": "rhf"
			},
			{
				"type": "unocc",
				"energy": 0.00072,
				"method": "rhf"
			},
			{
				"type": "unocc",
				"energy": 0.01829,
				"method": "rhf"
			},
			{
				"type": "unocc",
				"energy": 0.0731,
				"method": "rhf"
			},
			{
				"type": "unocc",
				"energy": 0.08873,
				"method": "rhf"
			},
			{
				"type": "unocc",
				"energy": 0.11053,
				"method": "rhf"
			}
		],
		"cosmo_sigma_profile": { 
			"-0.025": 0.0,
			"-0.024": 0.0,
			"-0.023": 0.0,
			"-0.022": 0.0,
			"-0.021": 0.0,
			"-0.02": 0.0,
			"-0.019": 0.0,
			"-0.018": 0.202782909101,
			"-0.017": 1.04275353066,
			"-0.016": 1.12994300825,
			"-0.015": 0.995489523211,
			"-0.014": 0.731369894944,
			"-0.013": 1.05130947778,
			"-0.012": 0.671940339223,
			"-0.011": 0.712346963366,
			"-0.01": 1.30871468594,
			"-0.009": 1.43688838247,
			"-0.008": 0.980101142894,
			"-0.007": 1.14982195447,
			"-0.006": 2.70265529269,
			"-0.005": 6.27755374547,
			"-0.004": 10.1105866175,
			"-0.003": 15.650144527,
			"-0.002": 22.4493645495,
			"-0.001": 25.173604388,
			"0.0": 24.0285792172,
			"0.001": 26.0093877087,
			"0.002": 19.1467521992,
			"0.003": 9.79378598076,
			"0.004": 9.86664970266,
			"0.005": 10.3230056516,
			"0.006": 9.45125881418,
			"0.007": 2.74866007057,
			"0.008": 1.57221730842,
			"0.009": 1.64986772593,
			"0.01": 0.929372533245,
			"0.011": 2.23374517833,
			"0.012": 1.44896555884,
			"0.013": 0.0,
			"0.014": 0.0,
			"0.015": 0.0,
			"0.016": 0.0,
			"0.017": 0.0,
			"0.018": 0.0,
			"0.019": 0.0,
			"0.02": 0.0,
			"0.021": 0.0,
			"0.022": 0.0,
			"0.023": 0.0,
			"0.024": 0.0,
			"0.025": 0.0
		}
	}
}
