{
	 "smiles": "CC1=C(C(O)=O)C(=NO1)C1=CC(Br)=CC=C1", 
	 "Tm": 443.15, 
	 "num_atms": 24, 
	 "gaussian": { 
		 "optdone": 1, 
		 "sigma_profile": "yes", 
		 "theory": "DFT", 
		 "functional": "B3LYP", 
		 "basiset": "6-31G**", 
		 "properties": { 
			 "R2extent": 7984.6232, 
			 "electric_dipole_moment_norm": 4.56419942706, 
			 "electric_quadrupole_moment_norm": 20.8755719673, 
			 "total_energy": -3275.79365308, 
			 "HOMO_LUMO_gap": 0.19282, 
			 "cosmo_polarized_energy": -12.29, 
			 "cosmo_cavitation_energy": 31.57, 
			 "cosmo_dispersion_energy": -23.51, 
			 "cosmo_repulsion_energy": 1.83, 
			 "cosmo_total_nonelectrostatic_energy": 9.89, 
			 "SMD_solvation_energy": 5.42 
		},
		"coords": [
			{
				"x": -5.0202609208,
				"y": 0.5862275014,
				"z": 0.7528710007,
				"element": "C" 
			},
			{
				"x": -3.6605901707,
				"y": 1.1307032501,
				"z": 0.4796212924,
				"element": "C" 
			},
			{
				"x": -2.4478183321,
				"y": 0.5809334761,
				"z": 0.1204770401,
				"element": "C" 
			},
			{
				"x": -2.1636297239,
				"y": -0.84601982,
				"z": -0.0592464101,
				"element": "C" 
			},
			{
				"x": -3.2541778562,
				"y": -1.618465489,
				"z": 0.2027116464,
				"element": "O" 
			},
			{
				"x": -1.1055022848,
				"y": -1.3407291955,
				"z": -0.3953876097,
				"element": "O" 
			},
			{
				"x": -1.5578644018,
				"y": 1.7178934447,
				"z": 0.0435869635,
				"element": "C" 
			},
			{
				"x": -2.2045244159,
				"y": 2.8301127416,
				"z": 0.3265748487,
				"element": "N" 
			},
			{
				"x": -3.5247778054,
				"y": 2.455050343,
				"z": 0.6014504539,
				"element": "O" 
			},
			{
				"x": -0.1130548347,
				"y": 1.8335122568,
				"z": -0.2600004297,
				"element": "C" 
			},
			{
				"x": 0.6168337024,
				"y": 2.8452297548,
				"z": 0.3884810982,
				"element": "C" 
			},
			{
				"x": 1.9630103745,
				"y": 3.0178806328,
				"z": 0.0891906496,
				"element": "C" 
			},
			{
				"x": 2.9508378245,
				"y": 4.3887471779,
				"z": 0.9861917336,
				"element": "Br" 
			},
			{
				"x": 2.609963509,
				"y": 2.2116924674,
				"z": -0.8463143432,
				"element": "C" 
			},
			{
				"x": 1.8780251498,
				"y": 1.2135339176,
				"z": -1.4894184368,
				"element": "C" 
			},
			{
				"x": 0.5273822049,
				"y": 1.018901864,
				"z": -1.2040501687,
				"element": "C" 
			},
			{
				"x": -5.3777185976,
				"y": -0.0041524764,
				"z": -0.094140914,
				"element": "H" 
			},
			{
				"x": -5.0015200039,
				"y": -0.0783536982,
				"z": 1.6210638139,
				"element": "H" 
			},
			{
				"x": -5.7102400325,
				"y": 1.410312841,
				"z": 0.942929764,
				"element": "H" 
			},
			{
				"x": -2.9631734033,
				"y": -2.5340145043,
				"z": 0.0564541507,
				"element": "H" 
			},
			{
				"x": 0.1274856241,
				"y": 3.4817199801,
				"z": 1.114850194,
				"element": "H" 
			},
			{
				"x": 3.6617767946,
				"y": 2.3601792925,
				"z": -1.0624845154,
				"element": "H" 
			},
			{
				"x": 2.3689601599,
				"y": 0.579222461,
				"z": -2.2212276605,
				"element": "H" 
			},
			{
				"x": -0.0221225601,
				"y": 0.2296817806,
				"z": -1.6979841618,
				"element": "H" 
			}
		],
		 "valence_orbital": [ 
			{
				"type": "occ",
				"energy": -0.29043,
				"method": "rhf"
			},
			{
				"type": "occ",
				"energy": -0.28414,
				"method": "rhf"
			},
			{
				"type": "occ",
				"energy": -0.27607,
				"method": "rhf"
			},
			{
				"type": "occ",
				"energy": -0.25493,
				"method": "rhf"
			},
			{
				"type": "occ",
				"energy": -0.24001,
				"method": "rhf"
			},
			{
				"type": "unocc",
				"energy": -0.04719,
				"method": "rhf"
			},
			{
				"type": "unocc",
				"energy": -0.04359,
				"method": "rhf"
			},
			{
				"type": "unocc",
				"energy": -0.01185,
				"method": "rhf"
			},
			{
				"type": "unocc",
				"energy": 0.00817,
				"method": "rhf"
			},
			{
				"type": "unocc",
				"energy": 0.01877,
				"method": "rhf"
			}
		],
		"cosmo_sigma_profile": { 
			"-0.025": 0.0,
			"-0.024": 0.0,
			"-0.023": 0.0,
			"-0.022": 0.0,
			"-0.021": 0.0,
			"-0.02": 0.0,
			"-0.019": 0.11727374348,
			"-0.018": 0.811056434706,
			"-0.017": 1.11574194966,
			"-0.016": 0.486717361173,
			"-0.015": 0.459048094813,
			"-0.014": 0.988852258998,
			"-0.013": 0.569687857752,
			"-0.012": 1.08927116027,
			"-0.011": 0.766510006496,
			"-0.01": 0.6893814097,
			"-0.009": 0.161314684,
			"-0.008": 0.960904088092,
			"-0.007": 6.37241098831,
			"-0.006": 12.2124786177,
			"-0.005": 13.4181532839,
			"-0.004": 17.2011920754,
			"-0.003": 23.9318146334,
			"-0.002": 23.3027550015,
			"-0.001": 17.6071449234,
			"0.0": 13.9643081854,
			"0.001": 18.01782283,
			"0.002": 23.8368190741,
			"0.003": 21.5401711596,
			"0.004": 18.8708839616,
			"0.005": 11.2627741446,
			"0.006": 4.47210577069,
			"0.007": 5.93728101928,
			"0.008": 3.43673083772,
			"0.009": 2.89768172093,
			"0.01": 3.51547150297,
			"0.011": 3.95994432394,
			"0.012": 2.45532327097,
			"0.013": 0.460915208324,
			"0.014": 0.0,
			"0.015": 0.0,
			"0.016": 0.0,
			"0.017": 0.0,
			"0.018": 0.0,
			"0.019": 0.0,
			"0.02": 0.0,
			"0.021": 0.0,
			"0.022": 0.0,
			"0.023": 0.0,
			"0.024": 0.0,
			"0.025": 0.0
		}
	}
}
