{
	 "smiles": "NC1=C2C(=O)C3=CC=CC=C3C(=O)C2=C(O)C=C1OC1CC=C(C=C1)N1CCCCCC1=O", 
	 "Tm": 437.15, 
	 "num_atms": 57, 
	 "gaussian": { 
		 "optdone": 1, 
		 "sigma_profile": "yes", 
		 "theory": "DFT", 
		 "functional": "B3LYP", 
		 "basiset": "6-31G**", 
		 "properties": { 
			 "R2extent": 20644.4717, 
			 "electric_dipole_moment_norm": 9.96422187679, 
			 "electric_quadrupole_moment_norm": 16.3188528335, 
			 "total_energy": -1490.8439978, 
			 "HOMO_LUMO_gap": 0.10341, 
			 "cosmo_polarized_energy": -29.57, 
			 "cosmo_cavitation_energy": 57.1, 
			 "cosmo_dispersion_energy": -40.43, 
			 "cosmo_repulsion_energy": 2.94, 
			 "cosmo_total_nonelectrostatic_energy": 19.61, 
			 "SMD_solvation_energy": 9.38 
		},
		"coords": [
			{
				"x": 0.9334951746,
				"y": -1.3699625438,
				"z": 0.4272623898,
				"element": "N" 
			},
			{
				"x": 1.4807971503,
				"y": -1.7203305599,
				"z": -0.7558056592,
				"element": "C" 
			},
			{
				"x": 1.5641091124,
				"y": -3.0644109222,
				"z": -1.227298968,
				"element": "C" 
			},
			{
				"x": 0.9967329258,
				"y": -4.1369226449,
				"z": -0.3985082478,
				"element": "C" 
			},
			{
				"x": 0.4481440234,
				"y": -3.923902312,
				"z": 0.6977086681,
				"element": "O" 
			},
			{
				"x": 1.0811960607,
				"y": -5.5385958628,
				"z": -0.8895359985,
				"element": "C" 
			},
			{
				"x": 0.5513067269,
				"y": -6.5708074346,
				"z": -0.1019316789,
				"element": "C" 
			},
			{
				"x": 0.620746864,
				"y": -7.8887539583,
				"z": -0.5401886733,
				"element": "C" 
			},
			{
				"x": 1.2201653361,
				"y": -8.1893028415,
				"z": -1.7709227716,
				"element": "C" 
			},
			{
				"x": 1.7466397435,
				"y": -7.169599013,
				"z": -2.5566429127,
				"element": "C" 
			},
			{
				"x": 1.6805980018,
				"y": -5.8395558268,
				"z": -2.1208467057,
				"element": "C" 
			},
			{
				"x": 2.2524487754,
				"y": -4.7678123372,
				"z": -2.9893443083,
				"element": "C" 
			},
			{
				"x": 2.7592643885,
				"y": -5.0713344185,
				"z": -4.0668001005,
				"element": "O" 
			},
			{
				"x": 2.1729351294,
				"y": -3.367799818,
				"z": -2.4962664779,
				"element": "C" 
			},
			{
				"x": 2.6949111747,
				"y": -2.3215447867,
				"z": -3.2707860795,
				"element": "C" 
			},
			{
				"x": 3.2885952876,
				"y": -2.5620145782,
				"z": -4.4714515597,
				"element": "O" 
			},
			{
				"x": 2.6136923493,
				"y": -0.9962036399,
				"z": -2.7971959313,
				"element": "C" 
			},
			{
				"x": 2.0250728182,
				"y": -0.6935128853,
				"z": -1.5913830816,
				"element": "C" 
			},
			{
				"x": 1.9996298753,
				"y": 0.5935359674,
				"z": -1.1105632238,
				"element": "O" 
			},
			{
				"x": 1.1990858535,
				"y": 1.5743561941,
				"z": -1.8361609942,
				"element": "C" 
			},
			{
				"x": 1.5943934323,
				"y": 2.9416281896,
				"z": -1.279522306,
				"element": "C" 
			},
			{
				"x": 0.9922966445,
				"y": 3.2131632249,
				"z": 0.0732640664,
				"element": "C" 
			},
			{
				"x": -0.1758319737,
				"y": 2.6467785947,
				"z": 0.4203772803,
				"element": "C" 
			},
			{
				"x": -0.8787290741,
				"y": 1.7668542641,
				"z": -0.524044566,
				"element": "C" 
			},
			{
				"x": -0.2685301807,
				"y": 1.2916198307,
				"z": -1.6205911488,
				"element": "C" 
			},
			{
				"x": -0.7820617198,
				"y": 2.8793090899,
				"z": 1.6975857583,
				"element": "N" 
			},
			{
				"x": -1.1887842589,
				"y": 4.2300970423,
				"z": 2.1108055017,
				"element": "C" 
			},
			{
				"x": -2.7144455102,
				"y": 4.456555429,
				"z": 2.0504996281,
				"element": "C" 
			},
			{
				"x": -3.5379393964,
				"y": 3.2310845527,
				"z": 2.4766685856,
				"element": "C" 
			},
			{
				"x": -3.1154166935,
				"y": 2.5726179337,
				"z": 3.8006575734,
				"element": "C" 
			},
			{
				"x": -1.6493264553,
				"y": 2.0470822793,
				"z": 3.8586935875,
				"element": "C" 
			},
			{
				"x": -0.9859296445,
				"y": 1.7805716725,
				"z": 2.510339985,
				"element": "C" 
			},
			{
				"x": -0.6270353121,
				"y": 0.6556021663,
				"z": 2.1708772086,
				"element": "O" 
			},
			{
				"x": 0.5033292176,
				"y": -2.1083601083,
				"z": 0.9704439023,
				"element": "H" 
			},
			{
				"x": 0.7873064255,
				"y": -0.3996062584,
				"z": 0.6655352555,
				"element": "H" 
			},
			{
				"x": 0.0938149886,
				"y": -6.3087175866,
				"z": 0.8456584381,
				"element": "H" 
			},
			{
				"x": 0.2099721896,
				"y": -8.6861038085,
				"z": 0.072865453,
				"element": "H" 
			},
			{
				"x": 1.2736097456,
				"y": -9.2195587253,
				"z": -2.1116165233,
				"element": "H" 
			},
			{
				"x": 2.2159172092,
				"y": -7.3689371288,
				"z": -3.5139573509,
				"element": "H" 
			},
			{
				"x": 3.5929945172,
				"y": -1.7187318376,
				"z": -4.8325208843,
				"element": "H" 
			},
			{
				"x": 3.0451408317,
				"y": -0.1901608162,
				"z": -3.3871972197,
				"element": "H" 
			},
			{
				"x": 1.4595012772,
				"y": 1.5193092982,
				"z": -2.8993512226,
				"element": "H" 
			},
			{
				"x": 1.2710326752,
				"y": 3.7134763172,
				"z": -1.9960169255,
				"element": "H" 
			},
			{
				"x": 2.6866590979,
				"y": 2.9955681119,
				"z": -1.2307392083,
				"element": "H" 
			},
			{
				"x": 1.5166490785,
				"y": 3.8714487127,
				"z": 0.7599015097,
				"element": "H" 
			},
			{
				"x": -1.9076820217,
				"y": 1.5037710456,
				"z": -0.2987318899,
				"element": "H" 
			},
			{
				"x": -0.7817100664,
				"y": 0.6213310303,
				"z": -2.3031370141,
				"element": "H" 
			},
			{
				"x": -0.6750789341,
				"y": 4.9389790796,
				"z": 1.459262909,
				"element": "H" 
			},
			{
				"x": -0.8223755354,
				"y": 4.417894774,
				"z": 3.1250448736,
				"element": "H" 
			},
			{
				"x": -2.9529637175,
				"y": 5.3170869847,
				"z": 2.6886923061,
				"element": "H" 
			},
			{
				"x": -3.0049722236,
				"y": 4.7346697091,
				"z": 1.0303686446,
				"element": "H" 
			},
			{
				"x": -4.5923113211,
				"y": 3.522040411,
				"z": 2.5479942755,
				"element": "H" 
			},
			{
				"x": -3.4910964263,
				"y": 2.4783997076,
				"z": 1.6803394314,
				"element": "H" 
			},
			{
				"x": -3.7910209589,
				"y": 1.7302126817,
				"z": 3.9817674164,
				"element": "H" 
			},
			{
				"x": -3.2734124858,
				"y": 3.2733696536,
				"z": 4.6291907588,
				"element": "H" 
			},
			{
				"x": -1.0194348817,
				"y": 2.7522542322,
				"z": 4.4138590524,
				"element": "H" 
			},
			{
				"x": -1.6067953101,
				"y": 1.0989744728,
				"z": 4.3968951733,
				"element": "H" 
			}
		],
		 "valence_orbital": [ 
			{
				"type": "occ",
				"energy": -0.24123,
				"method": "rhf"
			},
			{
				"type": "occ",
				"energy": -0.23916,
				"method": "rhf"
			},
			{
				"type": "occ",
				"energy": -0.22844,
				"method": "rhf"
			},
			{
				"type": "occ",
				"energy": -0.22335,
				"method": "rhf"
			},
			{
				"type": "occ",
				"energy": -0.17889,
				"method": "rhf"
			},
			{
				"type": "unocc",
				"energy": -0.07548,
				"method": "rhf"
			},
			{
				"type": "unocc",
				"energy": -0.04631,
				"method": "rhf"
			},
			{
				"type": "unocc",
				"energy": -0.0253,
				"method": "rhf"
			},
			{
				"type": "unocc",
				"energy": -0.00304,
				"method": "rhf"
			},
			{
				"type": "unocc",
				"energy": 0.00969,
				"method": "rhf"
			}
		],
		"cosmo_sigma_profile": { 
			"-0.025": 0.0,
			"-0.024": 0.0,
			"-0.023": 0.0,
			"-0.022": 0.0,
			"-0.021": 0.0,
			"-0.02": 0.0,
			"-0.019": 0.132829857049,
			"-0.018": 1.42473680926,
			"-0.017": 1.01661832179,
			"-0.016": 1.37101305221,
			"-0.015": 1.18434069305,
			"-0.014": 0.748015691083,
			"-0.013": 0.41834267138,
			"-0.012": 1.16395484433,
			"-0.011": 1.3536342699,
			"-0.01": 1.55546590557,
			"-0.009": 1.47677812515,
			"-0.008": 2.37102690993,
			"-0.007": 5.27300215254,
			"-0.006": 18.2088419091,
			"-0.005": 30.0476518481,
			"-0.004": 35.2213291371,
			"-0.003": 47.0603023408,
			"-0.002": 45.9304189523,
			"-0.001": 39.2469348319,
			"0.0": 34.5459468918,
			"0.001": 31.8971610858,
			"0.002": 35.1689776596,
			"0.003": 27.3436768235,
			"0.004": 17.4172902312,
			"0.005": 11.4822139283,
			"0.006": 9.43468814532,
			"0.007": 9.23945956645,
			"0.008": 7.14960812044,
			"0.009": 5.98073770602,
			"0.01": 4.77108595045,
			"0.011": 6.62853438167,
			"0.012": 5.32623114506,
			"0.013": 5.00066368797,
			"0.014": 2.38082608154,
			"0.015": 1.69078645163,
			"0.016": 1.30338382343,
			"0.017": 0.825842212296,
			"0.018": 0.011167524932,
			"0.019": 0.0,
			"0.02": 0.0,
			"0.021": 0.0,
			"0.022": 0.0,
			"0.023": 0.0,
			"0.024": 0.0,
			"0.025": 0.0
		}
	}
}
