{
	 "smiles": "COC1=CC(OC)=C(OC)C=C1C=C/C", 
	 "Tm": 335.65, 
	 "num_atms": 31, 
	 "gaussian": { 
		 "optdone": 1, 
		 "sigma_profile": "yes", 
		 "theory": "DFT", 
		 "functional": "B3LYP", 
		 "basiset": "6-31G**", 
		 "properties": { 
			 "R2extent": 4170.6573, 
			 "electric_dipole_moment_norm": 1.26632713388, 
			 "electric_quadrupole_moment_norm": 6.22229605773, 
			 "total_energy": -692.531006385, 
			 "HOMO_LUMO_gap": 0.18137, 
			 "cosmo_polarized_energy": -8.05, 
			 "cosmo_cavitation_energy": 33.76, 
			 "cosmo_dispersion_energy": -23.9, 
			 "cosmo_repulsion_energy": 1.92, 
			 "cosmo_total_nonelectrostatic_energy": 11.78, 
			 "SMD_solvation_energy": 8.1 
		},
		"coords": [
			{
				"x": -3.0641250588,
				"y": -1.3838590987,
				"z": 1.8579320554,
				"element": "C" 
			},
			{
				"x": -2.1758923215,
				"y": -1.3489888158,
				"z": 0.753980635,
				"element": "O" 
			},
			{
				"x": -1.3890140579,
				"y": -0.2432545028,
				"z": 0.5850306798,
				"element": "C" 
			},
			{
				"x": -1.4583031415,
				"y": 0.8832435533,
				"z": 1.4074013281,
				"element": "C" 
			},
			{
				"x": -0.62436414,
				"y": 1.9818338298,
				"z": 1.1784158216,
				"element": "C" 
			},
			{
				"x": -0.71238108,
				"y": 3.0523661521,
				"z": 2.0398501632,
				"element": "O" 
			},
			{
				"x": -1.1581837707,
				"y": 4.2761861461,
				"z": 1.4428158381,
				"element": "C" 
			},
			{
				"x": 0.3040667458,
				"y": 1.9424542088,
				"z": 0.1281788144,
				"element": "C" 
			},
			{
				"x": 1.1594794732,
				"y": 2.9983479044,
				"z": -0.1242279013,
				"element": "O" 
			},
			{
				"x": 2.2037266191,
				"y": 3.1532967821,
				"z": 0.8418928514,
				"element": "C" 
			},
			{
				"x": 0.3547296184,
				"y": 0.8162840829,
				"z": -0.6929336945,
				"element": "C" 
			},
			{
				"x": -0.4892983762,
				"y": -0.2877841175,
				"z": -0.5093764802,
				"element": "C" 
			},
			{
				"x": -0.4245507932,
				"y": -1.4971861108,
				"z": -1.3470933627,
				"element": "C" 
			},
			{
				"x": -0.1823643687,
				"y": -1.5855270425,
				"z": -2.6663602737,
				"element": "C" 
			},
			{
				"x": 0.0114514733,
				"y": -0.4734823256,
				"z": -3.6585045975,
				"element": "C" 
			},
			{
				"x": -3.8226352413,
				"y": -0.5929699912,
				"z": 1.7926426977,
				"element": "H" 
			},
			{
				"x": -2.5303084287,
				"y": -1.2885514813,
				"z": 2.8123861888,
				"element": "H" 
			},
			{
				"x": -3.5576778549,
				"y": -2.3562592898,
				"z": 1.8170525172,
				"element": "H" 
			},
			{
				"x": -2.1534052053,
				"y": 0.9490942181,
				"z": 2.2348551109,
				"element": "H" 
			},
			{
				"x": -0.4849875548,
				"y": 4.5993507847,
				"z": 0.6435629608,
				"element": "H" 
			},
			{
				"x": -1.1685931825,
				"y": 5.0192910196,
				"z": 2.2430105651,
				"element": "H" 
			},
			{
				"x": -2.1732829822,
				"y": 4.1632970682,
				"z": 1.0413235462,
				"element": "H" 
			},
			{
				"x": 2.8419912414,
				"y": 2.2609438781,
				"z": 0.8732168773,
				"element": "H" 
			},
			{
				"x": 1.7981230391,
				"y": 3.3427953249,
				"z": 1.84142815,
				"element": "H" 
			},
			{
				"x": 2.7989542529,
				"y": 4.0102850868,
				"z": 0.518491243,
				"element": "H" 
			},
			{
				"x": 1.1043979007,
				"y": 0.8013635582,
				"z": -1.4755916541,
				"element": "H" 
			},
			{
				"x": -0.6238936095,
				"y": -2.4245757456,
				"z": -0.8154415784,
				"element": "H" 
			},
			{
				"x": -0.1492112271,
				"y": -2.5902786156,
				"z": -3.0869124106,
				"element": "H" 
			},
			{
				"x": -0.3323332206,
				"y": 0.4903060055,
				"z": -3.2757261092,
				"element": "H" 
			},
			{
				"x": 1.0667414642,
				"y": -0.3628462076,
				"z": -3.9444948773,
				"element": "H" 
			},
			{
				"x": -0.537456213,
				"y": -0.6907762586,
				"z": -4.5824051043,
				"element": "H" 
			}
		],
		 "valence_orbital": [ 
			{
				"type": "occ",
				"energy": -0.28722,
				"method": "rhf"
			},
			{
				"type": "occ",
				"energy": -0.26498,
				"method": "rhf"
			},
			{
				"type": "occ",
				"energy": -0.25545,
				"method": "rhf"
			},
			{
				"type": "occ",
				"energy": -0.2264,
				"method": "rhf"
			},
			{
				"type": "occ",
				"energy": -0.19581,
				"method": "rhf"
			},
			{
				"type": "unocc",
				"energy": -0.01444,
				"method": "rhf"
			},
			{
				"type": "unocc",
				"energy": 0.01579,
				"method": "rhf"
			},
			{
				"type": "unocc",
				"energy": 0.05953,
				"method": "rhf"
			},
			{
				"type": "unocc",
				"energy": 0.09041,
				"method": "rhf"
			},
			{
				"type": "unocc",
				"energy": 0.10442,
				"method": "rhf"
			}
		],
		"cosmo_sigma_profile": { 
			"-0.025": 0.0,
			"-0.024": 0.0,
			"-0.023": 0.0,
			"-0.022": 0.0,
			"-0.021": 0.0,
			"-0.02": 0.0,
			"-0.019": 0.0,
			"-0.018": 0.0,
			"-0.017": 0.0,
			"-0.016": 0.0,
			"-0.015": 0.0,
			"-0.014": 0.0,
			"-0.013": 0.0,
			"-0.012": 0.0,
			"-0.011": 0.0,
			"-0.01": 0.0,
			"-0.009": 0.0,
			"-0.008": 0.0,
			"-0.007": 0.511896551338,
			"-0.006": 6.53096618019,
			"-0.005": 16.8182626977,
			"-0.004": 26.3069003227,
			"-0.003": 35.8915421083,
			"-0.002": 33.6347839806,
			"-0.001": 22.9317413363,
			"0.0": 22.3077480257,
			"0.001": 15.7222732,
			"0.002": 14.0654132946,
			"0.003": 16.0311627056,
			"0.004": 19.7116523968,
			"0.005": 9.86470575116,
			"0.006": 7.26283240523,
			"0.007": 5.7149567631,
			"0.008": 3.98429294217,
			"0.009": 2.98141457309,
			"0.01": 2.41994247248,
			"0.011": 1.99590842272,
			"0.012": 1.74011191369,
			"0.013": 0.0776497345997,
			"0.014": 0.0,
			"0.015": 0.0,
			"0.016": 0.0,
			"0.017": 0.0,
			"0.018": 0.0,
			"0.019": 0.0,
			"0.02": 0.0,
			"0.021": 0.0,
			"0.022": 0.0,
			"0.023": 0.0,
			"0.024": 0.0,
			"0.025": 0.0
		}
	}
}
