{
	 "smiles": "O=C1OCCOC(=O)C2=C(C=CC=C2)C(=O)OCCOC(=O)C2=C1C=CC=C2", 
	 "Tm": 465.15, 
	 "num_atms": 44, 
	 "gaussian": { 
		 "optdone": 1, 
		 "sigma_profile": "yes", 
		 "theory": "DFT", 
		 "functional": "B3LYP", 
		 "basiset": "6-31G**", 
		 "properties": { 
			 "R2extent": 10355.7484, 
			 "electric_dipole_moment_norm": 4.52524408513, 
			 "electric_quadrupole_moment_norm": 20.2271774153, 
			 "total_energy": -1373.57929002, 
			 "HOMO_LUMO_gap": 0.20131, 
			 "cosmo_polarized_energy": -21.94, 
			 "cosmo_cavitation_energy": 48.09, 
			 "cosmo_dispersion_energy": -31.98, 
			 "cosmo_repulsion_energy": 2.36, 
			 "cosmo_total_nonelectrostatic_energy": 18.47, 
			 "SMD_solvation_energy": 11.07 
		},
		"coords": [
			{
				"x": 2.6843166206,
				"y": 0.5141837434,
				"z": -3.1847546451,
				"element": "O" 
			},
			{
				"x": 2.0238794799,
				"y": 1.1076343772,
				"z": -2.3696918264,
				"element": "C" 
			},
			{
				"x": 0.720286836,
				"y": 1.3933435097,
				"z": -2.6298149637,
				"element": "O" 
			},
			{
				"x": -0.2057364193,
				"y": 1.598538823,
				"z": -1.5514929994,
				"element": "C" 
			},
			{
				"x": -1.2628369158,
				"y": 0.5018816104,
				"z": -1.6484515288,
				"element": "C" 
			},
			{
				"x": -1.8188932203,
				"y": 0.3579717549,
				"z": -0.3302866578,
				"element": "O" 
			},
			{
				"x": -2.9158382038,
				"y": -0.4260404898,
				"z": -0.2238360177,
				"element": "C" 
			},
			{
				"x": -3.5166709169,
				"y": -0.8853327953,
				"z": -1.17082799,
				"element": "O" 
			},
			{
				"x": -3.3328053283,
				"y": -0.5663365501,
				"z": 1.2052892291,
				"element": "C" 
			},
			{
				"x": -2.4261326836,
				"y": -0.7713869567,
				"z": 2.264353129,
				"element": "C" 
			},
			{
				"x": -2.8991662753,
				"y": -0.7471990524,
				"z": 3.5819723742,
				"element": "C" 
			},
			{
				"x": -4.2549111464,
				"y": -0.5629729714,
				"z": 3.8495627918,
				"element": "C" 
			},
			{
				"x": -5.1574131836,
				"y": -0.4081750337,
				"z": 2.7967474578,
				"element": "C" 
			},
			{
				"x": -4.6947268074,
				"y": -0.4084303275,
				"z": 1.4815421159,
				"element": "C" 
			},
			{
				"x": -0.9772698567,
				"y": -1.1227284574,
				"z": 2.1011357915,
				"element": "C" 
			},
			{
				"x": -0.11693969,
				"y": -0.7993477117,
				"z": 2.892176674,
				"element": "O" 
			},
			{
				"x": -0.7696697837,
				"y": -1.9451995151,
				"z": 1.0412486484,
				"element": "O" 
			},
			{
				"x": 0.531199418,
				"y": -2.5610455504,
				"z": 0.9261275827,
				"element": "C" 
			},
			{
				"x": 1.1858465762,
				"y": -2.2307487499,
				"z": -0.4027469821,
				"element": "C" 
			},
			{
				"x": 1.5891026955,
				"y": -0.849126294,
				"z": -0.4956511081,
				"element": "O" 
			},
			{
				"x": 2.7518845149,
				"y": -0.5220811797,
				"z": 0.1270696373,
				"element": "C" 
			},
			{
				"x": 3.4060339746,
				"y": -1.3104040573,
				"z": 0.7766645086,
				"element": "O" 
			},
			{
				"x": 3.0830925373,
				"y": 0.9224197126,
				"z": -0.0366447224,
				"element": "C" 
			},
			{
				"x": 2.641469259,
				"y": 1.7006718267,
				"z": -1.1233101017,
				"element": "C" 
			},
			{
				"x": 2.9369996013,
				"y": 3.0688130023,
				"z": -1.1474828199,
				"element": "C" 
			},
			{
				"x": 3.6755516016,
				"y": 3.6545588906,
				"z": -0.1188408383,
				"element": "C" 
			},
			{
				"x": 4.13427275,
				"y": 2.8758893645,
				"z": 0.9448938366,
				"element": "C" 
			},
			{
				"x": 3.8381474997,
				"y": 1.5159155836,
				"z": 0.9826543273,
				"element": "C" 
			},
			{
				"x": 0.2924141084,
				"y": 1.532861937,
				"z": -0.5830847394,
				"element": "H" 
			},
			{
				"x": -0.6413538122,
				"y": 2.5961166118,
				"z": -1.6585084191,
				"element": "H" 
			},
			{
				"x": -2.0534348225,
				"y": 0.7319170762,
				"z": -2.3661200402,
				"element": "H" 
			},
			{
				"x": -0.7901900762,
				"y": -0.4371568136,
				"z": -1.9476897068,
				"element": "H" 
			},
			{
				"x": -2.187802122,
				"y": -0.8928602852,
				"z": 4.38771218,
				"element": "H" 
			},
			{
				"x": -4.6053162512,
				"y": -0.5523271706,
				"z": 4.8771962042,
				"element": "H" 
			},
			{
				"x": -6.2165285632,
				"y": -0.2779268928,
				"z": 2.9973513134,
				"element": "H" 
			},
			{
				"x": -5.3788035722,
				"y": -0.2693525426,
				"z": 0.6508897153,
				"element": "H" 
			},
			{
				"x": 0.3654465625,
				"y": -3.6427575139,
				"z": 0.9729334481,
				"element": "H" 
			},
			{
				"x": 1.1589421708,
				"y": -2.2514015992,
				"z": 1.7610706015,
				"element": "H" 
			},
			{
				"x": 0.4927206876,
				"y": -2.3807053936,
				"z": -1.2324828733,
				"element": "H" 
			},
			{
				"x": 2.0613227562,
				"y": -2.872508097,
				"z": -0.532380475,
				"element": "H" 
			},
			{
				"x": 2.6051325206,
				"y": 3.6706219749,
				"z": -1.9884657631,
				"element": "H" 
			},
			{
				"x": 3.8992625085,
				"y": 4.71658792,
				"z": -0.1552645327,
				"element": "H" 
			},
			{
				"x": 4.7143805126,
				"y": 3.3270360433,
				"z": 1.7437942573,
				"element": "H" 
			},
			{
				"x": 4.1731344586,
				"y": 0.8908882389,
				"z": 1.803343927,
				"element": "H" 
			}
		],
		 "valence_orbital": [ 
			{
				"type": "occ",
				"energy": -0.2858,
				"method": "rhf"
			},
			{
				"type": "occ",
				"energy": -0.27221,
				"method": "rhf"
			},
			{
				"type": "occ",
				"energy": -0.26888,
				"method": "rhf"
			},
			{
				"type": "occ",
				"energy": -0.26661,
				"method": "rhf"
			},
			{
				"type": "occ",
				"energy": -0.26202,
				"method": "rhf"
			},
			{
				"type": "unocc",
				"energy": -0.06071,
				"method": "rhf"
			},
			{
				"type": "unocc",
				"energy": -0.05889,
				"method": "rhf"
			},
			{
				"type": "unocc",
				"energy": -0.03299,
				"method": "rhf"
			},
			{
				"type": "unocc",
				"energy": -0.02874,
				"method": "rhf"
			},
			{
				"type": "unocc",
				"energy": 0.00406,
				"method": "rhf"
			}
		],
		"cosmo_sigma_profile": { 
			"-0.025": 0.0,
			"-0.024": 0.0,
			"-0.023": 0.0,
			"-0.022": 0.0,
			"-0.021": 0.0,
			"-0.02": 0.0,
			"-0.019": 0.0,
			"-0.018": 0.0,
			"-0.017": 0.0,
			"-0.016": 0.0,
			"-0.015": 0.0,
			"-0.014": 0.0,
			"-0.013": 0.0,
			"-0.012": 0.0,
			"-0.011": 0.0,
			"-0.01": 0.0,
			"-0.009": 0.0223884777497,
			"-0.008": 7.45880402545,
			"-0.007": 28.0744715704,
			"-0.006": 31.5793628915,
			"-0.005": 28.3756087952,
			"-0.004": 27.6816520861,
			"-0.003": 25.0919987944,
			"-0.002": 21.8905052181,
			"-0.001": 22.0461293932,
			"0.0": 23.5267336577,
			"0.001": 28.6776378843,
			"0.002": 38.5786995014,
			"0.003": 20.312957868,
			"0.004": 9.95571823927,
			"0.005": 8.92350241309,
			"0.006": 6.91597030574,
			"0.007": 5.60451008678,
			"0.008": 7.18940215256,
			"0.009": 8.42019355743,
			"0.01": 10.5529709327,
			"0.011": 16.9399474037,
			"0.012": 6.4990673433,
			"0.013": 0.313942222708,
			"0.014": 0.0,
			"0.015": 0.0,
			"0.016": 0.0,
			"0.017": 0.0,
			"0.018": 0.0,
			"0.019": 0.0,
			"0.02": 0.0,
			"0.021": 0.0,
			"0.022": 0.0,
			"0.023": 0.0,
			"0.024": 0.0,
			"0.025": 0.0
		}
	}
}
