{
	 "smiles": "CC1=CC=C2CC(=O)C2=C1", 
	 "Tm": 319.15, 
	 "num_atms": 18, 
	 "gaussian": { 
		 "optdone": 1, 
		 "sigma_profile": "yes", 
		 "theory": "DFT", 
		 "functional": "B3LYP", 
		 "basiset": "6-31G**", 
		 "properties": { 
			 "R2extent": 2354.2763, 
			 "electric_dipole_moment_norm": 3.78476696509, 
			 "electric_quadrupole_moment_norm": 14.2213764429, 
			 "total_energy": -422.967999311, 
			 "HOMO_LUMO_gap": 0.18909, 
			 "cosmo_polarized_energy": -7.34, 
			 "cosmo_cavitation_energy": 22.09, 
			 "cosmo_dispersion_energy": -16.32, 
			 "cosmo_repulsion_energy": 1.34, 
			 "cosmo_total_nonelectrostatic_energy": 7.11, 
			 "SMD_solvation_energy": 4.28 
		},
		"coords": [
			{
				"x": -0.7600458748,
				"y": -1.4635588277,
				"z": 1.2922638711,
				"element": "C" 
			},
			{
				"x": -0.717805469,
				"y": -0.8147991884,
				"z": -0.0731128028,
				"element": "C" 
			},
			{
				"x": 0.1279132819,
				"y": -1.3487249488,
				"z": -1.0726016333,
				"element": "C" 
			},
			{
				"x": 0.2295443477,
				"y": -0.8113460084,
				"z": -2.3619259906,
				"element": "C" 
			},
			{
				"x": -0.5582165288,
				"y": 0.3011596543,
				"z": -2.6268029225,
				"element": "C" 
			},
			{
				"x": -0.9303577107,
				"y": 1.3162121734,
				"z": -3.704130484,
				"element": "C" 
			},
			{
				"x": -1.8716188745,
				"y": 1.9064085373,
				"z": -2.5843252578,
				"element": "C" 
			},
			{
				"x": -2.6386092197,
				"y": 2.8346367706,
				"z": -2.5418071014,
				"element": "O" 
			},
			{
				"x": -1.3990496271,
				"y": 0.8381437701,
				"z": -1.6453124385,
				"element": "C" 
			},
			{
				"x": -1.5051659838,
				"y": 0.3088514894,
				"z": -0.3609635709,
				"element": "C" 
			},
			{
				"x": -1.460956999,
				"y": -0.9496954025,
				"z": 1.9552356198,
				"element": "H" 
			},
			{
				"x": -1.0701405731,
				"y": -2.5126653581,
				"z": 1.2262396836,
				"element": "H" 
			},
			{
				"x": 0.2254477105,
				"y": -1.4486825935,
				"z": 1.771708337,
				"element": "H" 
			},
			{
				"x": 0.727281987,
				"y": -2.2211560379,
				"z": -0.8208439719,
				"element": "H" 
			},
			{
				"x": 0.8941332999,
				"y": -1.2574580611,
				"z": -3.0960047405,
				"element": "H" 
			},
			{
				"x": -0.1381981146,
				"y": 1.996775967,
				"z": -4.035775355,
				"element": "H" 
			},
			{
				"x": -1.4582866481,
				"y": 0.9312199437,
				"z": -4.583758894,
				"element": "H" 
			},
			{
				"x": -2.1623690038,
				"y": 0.7361781206,
				"z": 0.3910176519,
				"element": "H" 
			}
		],
		 "valence_orbital": [ 
			{
				"type": "occ",
				"energy": -0.35438,
				"method": "rhf"
			},
			{
				"type": "occ",
				"energy": -0.33544,
				"method": "rhf"
			},
			{
				"type": "occ",
				"energy": -0.26506,
				"method": "rhf"
			},
			{
				"type": "occ",
				"energy": -0.24825,
				"method": "rhf"
			},
			{
				"type": "occ",
				"energy": -0.24528,
				"method": "rhf"
			},
			{
				"type": "unocc",
				"energy": -0.05619,
				"method": "rhf"
			},
			{
				"type": "unocc",
				"energy": -0.01146,
				"method": "rhf"
			},
			{
				"type": "unocc",
				"energy": 0.04566,
				"method": "rhf"
			},
			{
				"type": "unocc",
				"energy": 0.09422,
				"method": "rhf"
			},
			{
				"type": "unocc",
				"energy": 0.1158,
				"method": "rhf"
			}
		],
		"cosmo_sigma_profile": { 
			"-0.025": 0.0,
			"-0.024": 0.0,
			"-0.023": 0.0,
			"-0.022": 0.0,
			"-0.021": 0.0,
			"-0.02": 0.0,
			"-0.019": 0.0,
			"-0.018": 0.0,
			"-0.017": 0.0,
			"-0.016": 0.0,
			"-0.015": 0.0,
			"-0.014": 0.0,
			"-0.013": 0.0,
			"-0.012": 0.0,
			"-0.011": 0.0,
			"-0.01": 0.0,
			"-0.009": 0.0,
			"-0.008": 0.0,
			"-0.007": 1.53057355279,
			"-0.006": 9.20438034296,
			"-0.005": 13.8515595422,
			"-0.004": 17.8713789658,
			"-0.003": 17.049929489,
			"-0.002": 17.5864356149,
			"-0.001": 18.8301214019,
			"0.0": 15.2220496756,
			"0.001": 13.4488535852,
			"0.002": 9.29294190963,
			"0.003": 11.3577949683,
			"0.004": 9.79504519777,
			"0.005": 1.71130161932,
			"0.006": 1.37721553346,
			"0.007": 1.79255551603,
			"0.008": 1.92658549569,
			"0.009": 1.64745815942,
			"0.01": 3.22779327276,
			"0.011": 4.83494719803,
			"0.012": 4.22143254949,
			"0.013": 0.760285759725,
			"0.014": 0.0,
			"0.015": 0.0,
			"0.016": 0.0,
			"0.017": 0.0,
			"0.018": 0.0,
			"0.019": 0.0,
			"0.02": 0.0,
			"0.021": 0.0,
			"0.022": 0.0,
			"0.023": 0.0,
			"0.024": 0.0,
			"0.025": 0.0
		}
	}
}
