{
	 "smiles": "CCCCCCCCSCCCCCCCC", 
	 "Tm": 273.65, 
	 "num_atms": 51, 
	 "gaussian": { 
		 "optdone": 1, 
		 "sigma_profile": "yes", 
		 "theory": "DFT", 
		 "functional": "B3LYP", 
		 "basiset": "6-31G**", 
		 "properties": { 
			 "R2extent": 7626.9739, 
			 "electric_dipole_moment_norm": 1.71807959362, 
			 "electric_quadrupole_moment_norm": 9.40522410791, 
			 "total_energy": -1028.42783007, 
			 "HOMO_LUMO_gap": 0.25477, 
			 "cosmo_polarized_energy": -4.92, 
			 "cosmo_cavitation_energy": 51.05, 
			 "cosmo_dispersion_energy": -31.82, 
			 "cosmo_repulsion_energy": 2.53, 
			 "cosmo_total_nonelectrostatic_energy": 21.76, 
			 "SMD_solvation_energy": 6.33 
		},
		"coords": [
			{
				"x": 0.3849085216,
				"y": -0.6854079883,
				"z": -3.637224237,
				"element": "C" 
			},
			{
				"x": -1.0810828825,
				"y": -0.7165419408,
				"z": -3.1943835034,
				"element": "C" 
			},
			{
				"x": -1.4062747547,
				"y": -1.8748808713,
				"z": -2.241727024,
				"element": "C" 
			},
			{
				"x": -2.8787691797,
				"y": -1.9034355973,
				"z": -1.8095546516,
				"element": "C" 
			},
			{
				"x": -3.2682929388,
				"y": -3.08990831,
				"z": -0.9115019288,
				"element": "C" 
			},
			{
				"x": -2.6703346324,
				"y": -3.1116058627,
				"z": 0.5083313567,
				"element": "C" 
			},
			{
				"x": -3.0948315479,
				"y": -1.9290966552,
				"z": 1.4141479265,
				"element": "C" 
			},
			{
				"x": -2.0320814233,
				"y": -0.8282083423,
				"z": 1.5246131608,
				"element": "C" 
			},
			{
				"x": -2.7039897526,
				"y": 0.6089882146,
				"z": 2.4626070065,
				"element": "S" 
			},
			{
				"x": -1.2167718586,
				"y": 1.3558018432,
				"z": 3.2508529767,
				"element": "C" 
			},
			{
				"x": -0.4204644535,
				"y": 2.366473822,
				"z": 2.4121444912,
				"element": "C" 
			},
			{
				"x": 0.4324211626,
				"y": 1.7920499583,
				"z": 1.2697721451,
				"element": "C" 
			},
			{
				"x": 1.6084301887,
				"y": 0.9192507802,
				"z": 1.731094335,
				"element": "C" 
			},
			{
				"x": 2.4902478937,
				"y": 0.4176700644,
				"z": 0.5795290057,
				"element": "C" 
			},
			{
				"x": 3.6872806929,
				"y": -0.4164588727,
				"z": 1.0578212588,
				"element": "C" 
			},
			{
				"x": 4.63169905,
				"y": -0.8923092249,
				"z": -0.058643623,
				"element": "C" 
			},
			{
				"x": 4.0138454941,
				"y": -1.9109172301,
				"z": -1.0239183185,
				"element": "C" 
			},
			{
				"x": 0.5793623817,
				"y": 0.1454881962,
				"z": -4.323354631,
				"element": "H" 
			},
			{
				"x": 1.0556962834,
				"y": -0.5684674821,
				"z": -2.777922739,
				"element": "H" 
			},
			{
				"x": 0.6647676826,
				"y": -1.612860469,
				"z": -4.1499020425,
				"element": "H" 
			},
			{
				"x": -1.7289209127,
				"y": -0.7858667286,
				"z": -4.0788915232,
				"element": "H" 
			},
			{
				"x": -1.3366846652,
				"y": 0.2347359423,
				"z": -2.7077600262,
				"element": "H" 
			},
			{
				"x": -1.1550275653,
				"y": -2.8274949703,
				"z": -2.7304360855,
				"element": "H" 
			},
			{
				"x": -0.7530897727,
				"y": -1.8079778327,
				"z": -1.3607564472,
				"element": "H" 
			},
			{
				"x": -3.5041391777,
				"y": -1.9376112222,
				"z": -2.7120907216,
				"element": "H" 
			},
			{
				"x": -3.1341357136,
				"y": -0.9578289759,
				"z": -1.3116809769,
				"element": "H" 
			},
			{
				"x": -4.3625610257,
				"y": -3.1110778117,
				"z": -0.8182330428,
				"element": "H" 
			},
			{
				"x": -2.9919630215,
				"y": -4.0230163592,
				"z": -1.4218140696,
				"element": "H" 
			},
			{
				"x": -2.9855183005,
				"y": -4.0487236209,
				"z": 0.9825375268,
				"element": "H" 
			},
			{
				"x": -1.5746550267,
				"y": -3.164572108,
				"z": 0.4573030108,
				"element": "H" 
			},
			{
				"x": -3.3160229142,
				"y": -2.287291711,
				"z": 2.4252519672,
				"element": "H" 
			},
			{
				"x": -4.031509634,
				"y": -1.4975983397,
				"z": 1.0372844099,
				"element": "H" 
			},
			{
				"x": -1.1543487552,
				"y": -1.2081593213,
				"z": 2.0587718803,
				"element": "H" 
			},
			{
				"x": -1.7057296272,
				"y": -0.5028813964,
				"z": 0.5332941636,
				"element": "H" 
			},
			{
				"x": -1.6257868805,
				"y": 1.8639659959,
				"z": 4.1301105128,
				"element": "H" 
			},
			{
				"x": -0.58355369,
				"y": 0.5455789437,
				"z": 3.6271491445,
				"element": "H" 
			},
			{
				"x": -1.1224463555,
				"y": 3.1033483418,
				"z": 2.0052781703,
				"element": "H" 
			},
			{
				"x": 0.2404416163,
				"y": 2.9156918357,
				"z": 3.0996323076,
				"element": "H" 
			},
			{
				"x": 0.8298006479,
				"y": 2.632471591,
				"z": 0.6849849662,
				"element": "H" 
			},
			{
				"x": -0.205599339,
				"y": 1.225497158,
				"z": 0.5798127359,
				"element": "H" 
			},
			{
				"x": 1.2389290095,
				"y": 0.0530631374,
				"z": 2.2968135105,
				"element": "H" 
			},
			{
				"x": 2.2269155487,
				"y": 1.4955628223,
				"z": 2.4345878087,
				"element": "H" 
			},
			{
				"x": 2.8579105623,
				"y": 1.2784023614,
				"z": 0.0022432934,
				"element": "H" 
			},
			{
				"x": 1.8737181487,
				"y": -0.1710212948,
				"z": -0.1129233504,
				"element": "H" 
			},
			{
				"x": 3.3209131633,
				"y": -1.2900798293,
				"z": 1.6165928454,
				"element": "H" 
			},
			{
				"x": 4.2643848077,
				"y": 0.1809421026,
				"z": 1.7769102252,
				"element": "H" 
			},
			{
				"x": 5.5223815729,
				"y": -1.3372734501,
				"z": 0.4032374386,
				"element": "H" 
			},
			{
				"x": 4.9885829022,
				"y": -0.0209467141,
				"z": -0.6249323692,
				"element": "H" 
			},
			{
				"x": 3.6538979541,
				"y": -2.795644223,
				"z": -0.4854838536,
				"element": "H" 
			},
			{
				"x": 4.7478860906,
				"y": -2.2489575907,
				"z": -1.7628342584,
				"element": "H" 
			},
			{
				"x": 3.165664426,
				"y": -1.4921607645,
				"z": -1.5751401572,
				"element": "H" 
			}
		],
		 "valence_orbital": [ 
			{
				"type": "occ",
				"energy": -0.30803,
				"method": "rhf"
			},
			{
				"type": "occ",
				"energy": -0.30326,
				"method": "rhf"
			},
			{
				"type": "occ",
				"energy": -0.30253,
				"method": "rhf"
			},
			{
				"type": "occ",
				"energy": -0.29062,
				"method": "rhf"
			},
			{
				"type": "occ",
				"energy": -0.21233,
				"method": "rhf"
			},
			{
				"type": "unocc",
				"energy": 0.04244,
				"method": "rhf"
			},
			{
				"type": "unocc",
				"energy": 0.05747,
				"method": "rhf"
			},
			{
				"type": "unocc",
				"energy": 0.07396,
				"method": "rhf"
			},
			{
				"type": "unocc",
				"energy": 0.07887,
				"method": "rhf"
			},
			{
				"type": "unocc",
				"energy": 0.09068,
				"method": "rhf"
			}
		],
		"cosmo_sigma_profile": { 
			"-0.025": 0.0,
			"-0.024": 0.0,
			"-0.023": 0.0,
			"-0.022": 0.0,
			"-0.021": 0.0,
			"-0.02": 0.0,
			"-0.019": 0.0,
			"-0.018": 0.0,
			"-0.017": 0.0,
			"-0.016": 0.0,
			"-0.015": 0.0,
			"-0.014": 0.0,
			"-0.013": 0.0,
			"-0.012": 0.0,
			"-0.011": 0.0,
			"-0.01": 0.0,
			"-0.009": 0.0,
			"-0.008": 0.0,
			"-0.007": 0.0,
			"-0.006": 0.00919954312644,
			"-0.005": 3.58240856738,
			"-0.004": 7.80886659941,
			"-0.003": 17.6774111757,
			"-0.002": 64.9508164981,
			"-0.001": 89.2489461699,
			"0.0": 83.7537240168,
			"0.001": 68.0903555363,
			"0.002": 30.4329478101,
			"0.003": 4.04400996464,
			"0.004": 3.12646753447,
			"0.005": 1.96606091624,
			"0.006": 3.18583921113,
			"0.007": 4.04562929078,
			"0.008": 3.0225893832,
			"0.009": 1.8870684175,
			"0.01": 2.54645910254,
			"0.011": 1.80611246007,
			"0.012": 1.35441616057,
			"0.013": 0.0382543090641,
			"0.014": 0.0,
			"0.015": 0.0,
			"0.016": 0.0,
			"0.017": 0.0,
			"0.018": 0.0,
			"0.019": 0.0,
			"0.02": 0.0,
			"0.021": 0.0,
			"0.022": 0.0,
			"0.023": 0.0,
			"0.024": 0.0,
			"0.025": 0.0
		}
	}
}
