{
	 "smiles": "CC1=C2SC(N)=NC2=C(C)C=C1", 
	 "Tm": 425.15, 
	 "num_atms": 22, 
	 "gaussian": { 
		 "optdone": 1, 
		 "sigma_profile": "yes", 
		 "theory": "DFT", 
		 "functional": "B3LYP", 
		 "basiset": "6-31G**", 
		 "properties": { 
			 "R2extent": 2559.4603, 
			 "electric_dipole_moment_norm": 1.90950119403, 
			 "electric_quadrupole_moment_norm": 9.90054971151, 
			 "total_energy": -856.705220917, 
			 "HOMO_LUMO_gap": 0.19594, 
			 "cosmo_polarized_energy": -10.41, 
			 "cosmo_cavitation_energy": 26.8, 
			 "cosmo_dispersion_energy": -20.36, 
			 "cosmo_repulsion_energy": 1.58, 
			 "cosmo_total_nonelectrostatic_energy": 8.03, 
			 "SMD_solvation_energy": 2.78 
		},
		"coords": [
			{
				"x": 2.3568733793,
				"y": 2.4061041841,
				"z": 0.0751325665,
				"element": "C" 
			},
			{
				"x": 1.4663830854,
				"y": 1.6638048528,
				"z": -0.8881637664,
				"element": "C" 
			},
			{
				"x": 0.4502985918,
				"y": 0.8097522967,
				"z": -0.4447903858,
				"element": "C" 
			},
			{
				"x": 0.0043751668,
				"y": 0.4340835899,
				"z": 1.2224838762,
				"element": "S" 
			},
			{
				"x": -1.2596818192,
				"y": -0.6487623271,
				"z": 0.5717288195,
				"element": "C" 
			},
			{
				"x": -2.1082347928,
				"y": -1.2945544789,
				"z": 1.4365409088,
				"element": "N" 
			},
			{
				"x": -1.3466632327,
				"y": -0.7170117757,
				"z": -0.7180185498,
				"element": "N" 
			},
			{
				"x": -0.3995281214,
				"y": 0.0997691923,
				"z": -1.3228100025,
				"element": "C" 
			},
			{
				"x": -0.2466114068,
				"y": 0.237697279,
				"z": -2.7162525661,
				"element": "C" 
			},
			{
				"x": -1.1481181803,
				"y": -0.5136502619,
				"z": -3.660881128,
				"element": "C" 
			},
			{
				"x": 0.7642736634,
				"y": 1.0898861517,
				"z": -3.1606364614,
				"element": "C" 
			},
			{
				"x": 1.5993254702,
				"y": 1.7848490392,
				"z": -2.2741775973,
				"element": "C" 
			},
			{
				"x": 1.7756558185,
				"y": 3.0666696068,
				"z": 0.7304210004,
				"element": "H" 
			},
			{
				"x": 3.0872756023,
				"y": 3.0209030084,
				"z": -0.4572461195,
				"element": "H" 
			},
			{
				"x": 2.9088725974,
				"y": 1.7152127758,
				"z": 0.7244368169,
				"element": "H" 
			},
			{
				"x": -1.7453886493,
				"y": -1.5399552862,
				"z": 2.3461093198,
				"element": "H" 
			},
			{
				"x": -2.6575043999,
				"y": -2.0192181446,
				"z": 0.9934879174,
				"element": "H" 
			},
			{
				"x": -2.1993440656,
				"y": -0.2526704904,
				"z": -3.4970991583,
				"element": "H" 
			},
			{
				"x": -0.8962619991,
				"y": -0.2935918665,
				"z": -4.7020043238,
				"element": "H" 
			},
			{
				"x": -1.0693176456,
				"y": -1.5955323071,
				"z": -3.507698241,
				"element": "H" 
			},
			{
				"x": 0.9083281146,
				"y": 1.2189187607,
				"z": -4.2303514064,
				"element": "H" 
			},
			{
				"x": 2.3722928228,
				"y": 2.4375962011,
				"z": -2.6713115191,
				"element": "H" 
			}
		],
		 "valence_orbital": [ 
			{
				"type": "occ",
				"energy": -0.29098,
				"method": "rhf"
			},
			{
				"type": "occ",
				"energy": -0.28255,
				"method": "rhf"
			},
			{
				"type": "occ",
				"energy": -0.2701,
				"method": "rhf"
			},
			{
				"type": "occ",
				"energy": -0.21731,
				"method": "rhf"
			},
			{
				"type": "occ",
				"energy": -0.20495,
				"method": "rhf"
			},
			{
				"type": "unocc",
				"energy": -0.00901,
				"method": "rhf"
			},
			{
				"type": "unocc",
				"energy": 0.00876,
				"method": "rhf"
			},
			{
				"type": "unocc",
				"energy": 0.01002,
				"method": "rhf"
			},
			{
				"type": "unocc",
				"energy": 0.05434,
				"method": "rhf"
			},
			{
				"type": "unocc",
				"energy": 0.06952,
				"method": "rhf"
			}
		],
		"cosmo_sigma_profile": { 
			"-0.025": 0.0,
			"-0.024": 0.0,
			"-0.023": 0.0,
			"-0.022": 0.0,
			"-0.021": 0.0,
			"-0.02": 0.0,
			"-0.019": 0.0,
			"-0.018": 0.0,
			"-0.017": 0.0,
			"-0.016": 0.0,
			"-0.015": 0.44294454556,
			"-0.014": 2.22366578107,
			"-0.013": 2.48926357693,
			"-0.012": 3.28237717658,
			"-0.011": 2.4069012204,
			"-0.01": 1.99274884275,
			"-0.009": 1.86711519279,
			"-0.008": 2.00171463183,
			"-0.007": 1.72697644611,
			"-0.006": 2.05194256514,
			"-0.005": 7.17046619207,
			"-0.004": 14.2019723203,
			"-0.003": 18.1070145812,
			"-0.002": 16.7541930365,
			"-0.001": 17.8899835511,
			"0.0": 20.3710308742,
			"0.001": 17.2869729625,
			"0.002": 15.5540509971,
			"0.003": 14.9078076278,
			"0.004": 15.0894019565,
			"0.005": 13.1409895801,
			"0.006": 9.58973447468,
			"0.007": 3.42074807176,
			"0.008": 2.58974326847,
			"0.009": 2.14216572002,
			"0.01": 1.77120137564,
			"0.011": 1.48238717936,
			"0.012": 1.32388872272,
			"0.013": 0.733586236672,
			"0.014": 0.482858041371,
			"0.015": 0.0531336837194,
			"0.016": 0.0,
			"0.017": 0.0,
			"0.018": 0.0,
			"0.019": 0.0,
			"0.02": 0.0,
			"0.021": 0.0,
			"0.022": 0.0,
			"0.023": 0.0,
			"0.024": 0.0,
			"0.025": 0.0
		}
	}
}
