{
	 "smiles": "OC1=CC(O)=C(C(O)=C1)[N+]([O-])=O", 
	 "Tm": 462.15, 
	 "num_atms": 17, 
	 "gaussian": { 
		 "optdone": 1, 
		 "sigma_profile": "yes", 
		 "theory": "DFT", 
		 "functional": "B3LYP", 
		 "basiset": "6-31G**", 
		 "properties": { 
			 "R2extent": 2332.8633, 
			 "electric_dipole_moment_norm": 6.2161744739, 
			 "electric_quadrupole_moment_norm": 9.6853330268, 
			 "total_energy": -662.410103563, 
			 "HOMO_LUMO_gap": 0.15589, 
			 "cosmo_polarized_energy": -20.72, 
			 "cosmo_cavitation_energy": 22.04, 
			 "cosmo_dispersion_energy": -17.07, 
			 "cosmo_repulsion_energy": 1.35, 
			 "cosmo_total_nonelectrostatic_energy": 6.31, 
			 "SMD_solvation_energy": 7.06 
		},
		"coords": [
			{
				"x": -2.327909118,
				"y": -1.0799455115,
				"z": 1.5060432276,
				"element": "O" 
			},
			{
				"x": -1.510574573,
				"y": -0.5833330967,
				"z": 0.5468503002,
				"element": "C" 
			},
			{
				"x": -1.4935109129,
				"y": -1.2405452584,
				"z": -0.6775130752,
				"element": "C" 
			},
			{
				"x": -0.6714296732,
				"y": -0.7757074059,
				"z": -1.7045961224,
				"element": "C" 
			},
			{
				"x": -0.6944357698,
				"y": -1.4428006102,
				"z": -2.8552846672,
				"element": "O" 
			},
			{
				"x": 0.1562268194,
				"y": 0.3797129676,
				"z": -1.4982349165,
				"element": "C" 
			},
			{
				"x": 0.1196870874,
				"y": 1.0355571299,
				"z": -0.2328205227,
				"element": "C" 
			},
			{
				"x": 0.8882994036,
				"y": 2.1231011291,
				"z": -0.0152185838,
				"element": "O" 
			},
			{
				"x": -0.7107976591,
				"y": 0.5476166129,
				"z": 0.7719354792,
				"element": "C" 
			},
			{
				"x": 0.9982540123,
				"y": 0.8517120329,
				"z": -2.5586604489,
				"element": "N" 
			},
			{
				"x": 0.9795414925,
				"y": 0.2220933032,
				"z": -3.6548975522,
				"element": "O" 
			},
			{
				"x": 1.7104092172,
				"y": 1.8336174335,
				"z": -2.4022193602,
				"element": "O" 
			},
			{
				"x": -2.2571398884,
				"y": -0.5463340457,
				"z": 2.3085008074,
				"element": "H" 
			},
			{
				"x": -2.1114530372,
				"y": -2.1125342132,
				"z": -0.848329018,
				"element": "H" 
			},
			{
				"x": -0.0544760732,
				"y": -0.9687634034,
				"z": -3.4548146405,
				"element": "H" 
			},
			{
				"x": 0.7348684489,
				"y": 2.4317221795,
				"z": 0.8887050295,
				"element": "H" 
			},
			{
				"x": -0.7335597764,
				"y": 1.0524307563,
				"z": 1.7353540637,
				"element": "H" 
			}
		],
		 "valence_orbital": [ 
			{
				"type": "occ",
				"energy": -0.30797,
				"method": "rhf"
			},
			{
				"type": "occ",
				"energy": -0.3059,
				"method": "rhf"
			},
			{
				"type": "occ",
				"energy": -0.28749,
				"method": "rhf"
			},
			{
				"type": "occ",
				"energy": -0.25488,
				"method": "rhf"
			},
			{
				"type": "occ",
				"energy": -0.23894,
				"method": "rhf"
			},
			{
				"type": "unocc",
				"energy": -0.08305,
				"method": "rhf"
			},
			{
				"type": "unocc",
				"energy": -0.0067,
				"method": "rhf"
			},
			{
				"type": "unocc",
				"energy": 0.01047,
				"method": "rhf"
			},
			{
				"type": "unocc",
				"energy": 0.03912,
				"method": "rhf"
			},
			{
				"type": "unocc",
				"energy": 0.04807,
				"method": "rhf"
			}
		],
		"cosmo_sigma_profile": { 
			"-0.025": 0.0,
			"-0.024": 0.0,
			"-0.023": 0.0,
			"-0.022": 0.0,
			"-0.021": 0.0,
			"-0.02": 0.201911792853,
			"-0.019": 1.93669819913,
			"-0.018": 2.8612210749,
			"-0.017": 2.61502420879,
			"-0.016": 2.1309123909,
			"-0.015": 1.24467758325,
			"-0.014": 1.53458936085,
			"-0.013": 1.74631334605,
			"-0.012": 2.76544760044,
			"-0.011": 2.82797646353,
			"-0.01": 2.13304152748,
			"-0.009": 1.9174746199,
			"-0.008": 2.33210443887,
			"-0.007": 3.67401148135,
			"-0.006": 4.88833140397,
			"-0.005": 6.72973590152,
			"-0.004": 6.93191605995,
			"-0.003": 7.26584171268,
			"-0.002": 8.04553510103,
			"-0.001": 9.62775909558,
			"0.0": 10.7083254759,
			"0.001": 12.6735634809,
			"0.002": 13.0141923436,
			"0.003": 8.92740822597,
			"0.004": 6.59906502423,
			"0.005": 4.98460027756,
			"0.006": 5.62533928741,
			"0.007": 7.02145901702,
			"0.008": 8.79504398269,
			"0.009": 9.85841118195,
			"0.01": 8.92480805893,
			"0.011": 3.25322198816,
			"0.012": 1.48844464727,
			"0.013": 0.995388735368,
			"0.014": 0.0,
			"0.015": 0.0,
			"0.016": 0.0,
			"0.017": 0.0,
			"0.018": 0.0,
			"0.019": 0.0,
			"0.02": 0.0,
			"0.021": 0.0,
			"0.022": 0.0,
			"0.023": 0.0,
			"0.024": 0.0,
			"0.025": 0.0
		}
	}
}
