{
	 "smiles": "O[C@@H]1CCNC1", 
	 "Tm": 289.15, 
	 "num_atms": 15, 
	 "gaussian": { 
		 "optdone": 1, 
		 "sigma_profile": "yes", 
		 "theory": "DFT", 
		 "functional": "B3LYP", 
		 "basiset": "6-31G**", 
		 "properties": { 
			 "R2extent": 669.9972, 
			 "electric_dipole_moment_norm": 2.48388082444, 
			 "electric_quadrupole_moment_norm": 4.52757701536, 
			 "total_energy": -287.806704001, 
			 "HOMO_LUMO_gap": 0.30098, 
			 "cosmo_polarized_energy": -6.59, 
			 "cosmo_cavitation_energy": 16.52, 
			 "cosmo_dispersion_energy": -13.0, 
			 "cosmo_repulsion_energy": 1.13, 
			 "cosmo_total_nonelectrostatic_energy": 4.64, 
			 "SMD_solvation_energy": 0.79 
		},
		"coords": [
			{
				"x": -0.0979781024,
				"y": -0.1792387321,
				"z": -2.059510336,
				"element": "O" 
			},
			{
				"x": -0.2989838363,
				"y": -0.5528647403,
				"z": -0.7037867788,
				"element": "C" 
			},
			{
				"x": -1.801564549,
				"y": -0.5436417298,
				"z": -0.3147045383,
				"element": "C" 
			},
			{
				"x": -2.0299598822,
				"y": 0.8513688461,
				"z": 0.331962835,
				"element": "C" 
			},
			{
				"x": -0.7514182349,
				"y": 1.5484174503,
				"z": 0.1032046199,
				"element": "N" 
			},
			{
				"x": 0.2807416107,
				"y": 0.5132586912,
				"z": 0.2358172048,
				"element": "C" 
			},
			{
				"x": -0.352204156,
				"y": 0.7562638877,
				"z": -2.1005607371,
				"element": "H" 
			},
			{
				"x": 0.1638631259,
				"y": -1.5355534169,
				"z": -0.5815862206,
				"element": "H" 
			},
			{
				"x": -2.4071800386,
				"y": -0.7047834191,
				"z": -1.2096005559,
				"element": "H" 
			},
			{
				"x": -2.0330657235,
				"y": -1.3441545806,
				"z": 0.3945832025,
				"element": "H" 
			},
			{
				"x": -2.2627927059,
				"y": 0.7351306402,
				"z": 1.4039315259,
				"element": "H" 
			},
			{
				"x": -2.8549509653,
				"y": 1.4074235937,
				"z": -0.1250750905,
				"element": "H" 
			},
			{
				"x": -0.6155896079,
				"y": 2.3341328815,
				"z": 0.7315928337,
				"element": "H" 
			},
			{
				"x": 0.3853766665,
				"y": 0.1150187284,
				"z": 1.2626311575,
				"element": "H" 
			},
			{
				"x": 1.256306399,
				"y": 0.8735218998,
				"z": -0.1031991221,
				"element": "H" 
			}
		],
		 "valence_orbital": [ 
			{
				"type": "occ",
				"energy": -0.35549,
				"method": "rhf"
			},
			{
				"type": "occ",
				"energy": -0.34476,
				"method": "rhf"
			},
			{
				"type": "occ",
				"energy": -0.31348,
				"method": "rhf"
			},
			{
				"type": "occ",
				"energy": -0.25644,
				"method": "rhf"
			},
			{
				"type": "occ",
				"energy": -0.22655,
				"method": "rhf"
			},
			{
				"type": "unocc",
				"energy": 0.07443,
				"method": "rhf"
			},
			{
				"type": "unocc",
				"energy": 0.11299,
				"method": "rhf"
			},
			{
				"type": "unocc",
				"energy": 0.12693,
				"method": "rhf"
			},
			{
				"type": "unocc",
				"energy": 0.13442,
				"method": "rhf"
			},
			{
				"type": "unocc",
				"energy": 0.14614,
				"method": "rhf"
			}
		],
		"cosmo_sigma_profile": { 
			"-0.025": 0.0,
			"-0.024": 0.0,
			"-0.023": 0.0,
			"-0.022": 0.0,
			"-0.021": 0.0,
			"-0.02": 0.0,
			"-0.019": 0.0,
			"-0.018": 0.0,
			"-0.017": 0.0,
			"-0.016": 0.0,
			"-0.015": 0.0,
			"-0.014": 0.0,
			"-0.013": 0.0,
			"-0.012": 0.0,
			"-0.011": 0.477482889703,
			"-0.01": 2.205770306,
			"-0.009": 1.50786324119,
			"-0.008": 1.58929054475,
			"-0.007": 1.62132626852,
			"-0.006": 1.88532809144,
			"-0.005": 2.22139565864,
			"-0.004": 6.97192488932,
			"-0.003": 15.52611498,
			"-0.002": 26.582673234,
			"-0.001": 18.9383731526,
			"0.0": 13.9957008141,
			"0.001": 5.69701350416,
			"0.002": 3.17656702875,
			"0.003": 2.35824104801,
			"0.004": 2.92414955557,
			"0.005": 1.76923514615,
			"0.006": 1.00143348837,
			"0.007": 1.66470329373,
			"0.008": 1.36663798791,
			"0.009": 2.51784685241,
			"0.01": 1.95734820604,
			"0.011": 1.29128909575,
			"0.012": 1.905294109,
			"0.013": 1.70445091085,
			"0.014": 2.20492176566,
			"0.015": 2.18866753239,
			"0.016": 0.0514677969513,
			"0.017": 0.0,
			"0.018": 0.0,
			"0.019": 0.0,
			"0.02": 0.0,
			"0.021": 0.0,
			"0.022": 0.0,
			"0.023": 0.0,
			"0.024": 0.0,
			"0.025": 0.0
		}
	}
}
