{
	 "smiles": "ClS(=O)(=O)C1=CC2=C(NC(=O)C2)C=C1", 
	 "Tm": 433.15, 
	 "num_atms": 20, 
	 "gaussian": { 
		 "optdone": 1, 
		 "sigma_profile": "yes", 
		 "theory": "DFT", 
		 "functional": "B3LYP", 
		 "basiset": "6-31G**", 
		 "properties": { 
			 "R2extent": 4584.2637, 
			 "electric_dipole_moment_norm": 4.26788532414, 
			 "electric_quadrupole_moment_norm": 24.2464284706, 
			 "total_energy": -1447.2237792, 
			 "HOMO_LUMO_gap": 0.16535, 
			 "cosmo_polarized_energy": -17.83, 
			 "cosmo_cavitation_energy": 28.29, 
			 "cosmo_dispersion_energy": -21.44, 
			 "cosmo_repulsion_energy": 1.65, 
			 "cosmo_total_nonelectrostatic_energy": 8.5, 
			 "SMD_solvation_energy": 3.92 
		},
		"coords": [
			{
				"x": -2.2116023475,
				"y": -1.6536158622,
				"z": 3.441667577,
				"element": "Cl" 
			},
			{
				"x": -1.1365321621,
				"y": -2.6593890311,
				"z": 1.8858315191,
				"element": "S" 
			},
			{
				"x": 0.008154435,
				"y": -3.284780478,
				"z": 2.5376905115,
				"element": "O" 
			},
			{
				"x": -2.1318792526,
				"y": -3.4284673248,
				"z": 1.1485537373,
				"element": "O" 
			},
			{
				"x": -0.5782618209,
				"y": -1.2987287307,
				"z": 0.8902379707,
				"element": "C" 
			},
			{
				"x": 0.6543658561,
				"y": -0.7000511612,
				"z": 1.1996195167,
				"element": "C" 
			},
			{
				"x": 1.0726688349,
				"y": 0.3532063002,
				"z": 0.4100892544,
				"element": "C" 
			},
			{
				"x": 0.2659750727,
				"y": 0.7923112195,
				"z": -0.6635047638,
				"element": "C" 
			},
			{
				"x": 0.8957249992,
				"y": 1.8512692195,
				"z": -1.3034302824,
				"element": "N" 
			},
			{
				"x": 2.1238238644,
				"y": 2.1798143175,
				"z": -0.7231686079,
				"element": "C" 
			},
			{
				"x": 2.8604185741,
				"y": 3.0639890575,
				"z": -1.098052757,
				"element": "O" 
			},
			{
				"x": 2.3161354163,
				"y": 1.2032694681,
				"z": 0.4490610322,
				"element": "C" 
			},
			{
				"x": -0.956473757,
				"y": 0.1950256942,
				"z": -0.9672426408,
				"element": "C" 
			},
			{
				"x": -1.3805742988,
				"y": -0.8674921045,
				"z": -0.1685290276,
				"element": "C" 
			},
			{
				"x": 1.250420694,
				"y": -1.0711276692,
				"z": 2.0263287594,
				"element": "H" 
			},
			{
				"x": 0.5364864814,
				"y": 2.3522431099,
				"z": -2.10351537,
				"element": "H" 
			},
			{
				"x": 2.4325437875,
				"y": 1.7705835513,
				"z": 1.3789619106,
				"element": "H" 
			},
			{
				"x": 3.2413985517,
				"y": 0.6358158096,
				"z": 0.3005205758,
				"element": "H" 
			},
			{
				"x": -1.5631846082,
				"y": 0.537268656,
				"z": -1.7989924568,
				"element": "H" 
			},
			{
				"x": -2.3212083203,
				"y": -1.3676440418,
				"z": -0.3694264584,
				"element": "H" 
			}
		],
		 "valence_orbital": [ 
			{
				"type": "occ",
				"energy": -0.32433,
				"method": "rhf"
			},
			{
				"type": "occ",
				"energy": -0.31165,
				"method": "rhf"
			},
			{
				"type": "occ",
				"energy": -0.29303,
				"method": "rhf"
			},
			{
				"type": "occ",
				"energy": -0.28386,
				"method": "rhf"
			},
			{
				"type": "occ",
				"energy": -0.25499,
				"method": "rhf"
			},
			{
				"type": "unocc",
				"energy": -0.08964,
				"method": "rhf"
			},
			{
				"type": "unocc",
				"energy": -0.04906,
				"method": "rhf"
			},
			{
				"type": "unocc",
				"energy": -0.04291,
				"method": "rhf"
			},
			{
				"type": "unocc",
				"energy": -0.00064,
				"method": "rhf"
			},
			{
				"type": "unocc",
				"energy": 0.05391,
				"method": "rhf"
			}
		],
		"cosmo_sigma_profile": { 
			"-0.025": 0.0,
			"-0.024": 0.0,
			"-0.023": 0.0,
			"-0.022": 0.0,
			"-0.021": 0.0,
			"-0.02": 0.0,
			"-0.019": 0.0,
			"-0.018": 0.0,
			"-0.017": 0.380658943132,
			"-0.016": 1.490410868,
			"-0.015": 1.33057710188,
			"-0.014": 1.56541830906,
			"-0.013": 1.10249485993,
			"-0.012": 1.13789334978,
			"-0.011": 1.18034161075,
			"-0.01": 1.08035480842,
			"-0.009": 3.00306424695,
			"-0.008": 9.72157542337,
			"-0.007": 11.2441545138,
			"-0.006": 12.6784730214,
			"-0.005": 12.6706610268,
			"-0.004": 10.1341059348,
			"-0.003": 9.57876286127,
			"-0.002": 11.649925052,
			"-0.001": 15.7735671138,
			"0.0": 18.2074776493,
			"0.001": 18.4564481444,
			"0.002": 11.7964594271,
			"0.003": 12.0739933612,
			"0.004": 14.9687575407,
			"0.005": 5.74577985593,
			"0.006": 4.25101999551,
			"0.007": 6.18443052578,
			"0.008": 11.0951320313,
			"0.009": 8.08709999406,
			"0.01": 1.92505447758,
			"0.011": 2.77384694833,
			"0.012": 6.28007543325,
			"0.013": 2.30091388579,
			"0.014": 0.0472152236515,
			"0.015": 0.0,
			"0.016": 0.0,
			"0.017": 0.0,
			"0.018": 0.0,
			"0.019": 0.0,
			"0.02": 0.0,
			"0.021": 0.0,
			"0.022": 0.0,
			"0.023": 0.0,
			"0.024": 0.0,
			"0.025": 0.0
		}
	}
}
