{
	 "smiles": "CC(C)(C)C1=CC=C(C=C1)C(N)=O", 
	 "Tm": 446.15, 
	 "num_atms": 28, 
	 "gaussian": { 
		 "optdone": 1, 
		 "sigma_profile": "yes", 
		 "theory": "DFT", 
		 "functional": "B3LYP", 
		 "basiset": "6-31G**", 
		 "properties": { 
			 "R2extent": 3387.2464, 
			 "electric_dipole_moment_norm": 3.7142248828, 
			 "electric_quadrupole_moment_norm": 13.545476724, 
			 "total_energy": -558.221131808, 
			 "HOMO_LUMO_gap": 0.20891, 
			 "cosmo_polarized_energy": -12.88, 
			 "cosmo_cavitation_energy": 29.99, 
			 "cosmo_dispersion_energy": -21.51, 
			 "cosmo_repulsion_energy": 1.69, 
			 "cosmo_total_nonelectrostatic_energy": 10.18, 
			 "SMD_solvation_energy": 6.04 
		},
		"coords": [
			{
				"x": -2.8268102741,
				"y": -0.7150682814,
				"z": 1.8190466694,
				"element": "C" 
			},
			{
				"x": -1.9697435643,
				"y": 0.5442874785,
				"z": 2.0920517813,
				"element": "C" 
			},
			{
				"x": -2.8992045281,
				"y": 1.7725401915,
				"z": 2.0702505168,
				"element": "C" 
			},
			{
				"x": -1.3399642742,
				"y": 0.4403814168,
				"z": 3.5019388904,
				"element": "C" 
			},
			{
				"x": -0.8502187574,
				"y": 0.6372643389,
				"z": 1.0401467408,
				"element": "C" 
			},
			{
				"x": 0.090419148,
				"y": -0.4031161425,
				"z": 0.9218627495,
				"element": "C" 
			},
			{
				"x": 1.1141953063,
				"y": -0.3578607604,
				"z": -0.0159859394,
				"element": "C" 
			},
			{
				"x": 1.2490353371,
				"y": 0.7432881273,
				"z": -0.8719226915,
				"element": "C" 
			},
			{
				"x": 0.314668603,
				"y": 1.7795313851,
				"z": -0.7746585975,
				"element": "C" 
			},
			{
				"x": -0.7157493523,
				"y": 1.7246402894,
				"z": 0.1657546251,
				"element": "C" 
			},
			{
				"x": 2.3801848415,
				"y": 0.7266779528,
				"z": -1.8576395084,
				"element": "C" 
			},
			{
				"x": 2.6986267843,
				"y": 1.9316776677,
				"z": -2.4424601574,
				"element": "N" 
			},
			{
				"x": 2.9771598003,
				"y": -0.3038997178,
				"z": -2.1460161286,
				"element": "O" 
			},
			{
				"x": -3.2899359139,
				"y": -0.6666879554,
				"z": 0.8281192795,
				"element": "H" 
			},
			{
				"x": -2.231455597,
				"y": -1.6315756772,
				"z": 1.8645651633,
				"element": "H" 
			},
			{
				"x": -3.6258446713,
				"y": -0.7993575657,
				"z": 2.5641803838,
				"element": "H" 
			},
			{
				"x": -2.3563279557,
				"y": 2.6991879827,
				"z": 2.2841276743,
				"element": "H" 
			},
			{
				"x": -3.4041236703,
				"y": 1.8855308532,
				"z": 1.1052293873,
				"element": "H" 
			},
			{
				"x": -3.6740297771,
				"y": 1.6610657267,
				"z": 2.8355161958,
				"element": "H" 
			},
			{
				"x": -0.732044119,
				"y": 1.3231267016,
				"z": 3.7259608982,
				"element": "H" 
			},
			{
				"x": -2.1242420792,
				"y": 0.3657745026,
				"z": 4.2635725276,
				"element": "H" 
			},
			{
				"x": -0.6980759612,
				"y": -0.4401179047,
				"z": 3.5981038273,
				"element": "H" 
			},
			{
				"x": 0.0209787343,
				"y": -1.2688331511,
				"z": 1.5737949823,
				"element": "H" 
			},
			{
				"x": 1.8280238852,
				"y": -1.1696997089,
				"z": -0.107382112,
				"element": "H" 
			},
			{
				"x": 0.3576289976,
				"y": 2.625604306,
				"z": -1.4549888715,
				"element": "H" 
			},
			{
				"x": -1.4232367532,
				"y": 2.5448143827,
				"z": 0.2020093511,
				"element": "H" 
			},
			{
				"x": 3.5389191685,
				"y": 1.9259292061,
				"z": -3.0026814645,
				"element": "H" 
			},
			{
				"x": 2.4673666421,
				"y": 2.7968943555,
				"z": -1.979896173,
				"element": "H" 
			}
		],
		 "valence_orbital": [ 
			{
				"type": "occ",
				"energy": -0.31962,
				"method": "rhf"
			},
			{
				"type": "occ",
				"energy": -0.26885,
				"method": "rhf"
			},
			{
				"type": "occ",
				"energy": -0.25417,
				"method": "rhf"
			},
			{
				"type": "occ",
				"energy": -0.24884,
				"method": "rhf"
			},
			{
				"type": "occ",
				"energy": -0.24184,
				"method": "rhf"
			},
			{
				"type": "unocc",
				"energy": -0.03293,
				"method": "rhf"
			},
			{
				"type": "unocc",
				"energy": -0.00505,
				"method": "rhf"
			},
			{
				"type": "unocc",
				"energy": 0.06086,
				"method": "rhf"
			},
			{
				"type": "unocc",
				"energy": 0.07721,
				"method": "rhf"
			},
			{
				"type": "unocc",
				"energy": 0.08453,
				"method": "rhf"
			}
		],
		"cosmo_sigma_profile": { 
			"-0.025": 0.0,
			"-0.024": 0.0,
			"-0.023": 0.0,
			"-0.022": 0.0,
			"-0.021": 0.0,
			"-0.02": 0.0,
			"-0.019": 0.0,
			"-0.018": 0.0,
			"-0.017": 0.0,
			"-0.016": 0.0,
			"-0.015": 0.0,
			"-0.014": 0.911764515356,
			"-0.013": 2.41861186692,
			"-0.012": 2.31010744917,
			"-0.011": 2.65761623231,
			"-0.01": 2.40771203603,
			"-0.009": 1.97588446857,
			"-0.008": 2.92295282908,
			"-0.007": 2.43455966966,
			"-0.006": 3.95804292324,
			"-0.005": 8.73964174795,
			"-0.004": 10.8121741149,
			"-0.003": 21.9126413311,
			"-0.002": 27.4966433723,
			"-0.001": 22.6005836087,
			"0.0": 21.4642244572,
			"0.001": 29.7881716108,
			"0.002": 14.388693115,
			"0.003": 10.5278469532,
			"0.004": 11.4816202715,
			"0.005": 11.2072736553,
			"0.006": 2.62070300526,
			"0.007": 1.40541036594,
			"0.008": 2.16260282759,
			"0.009": 1.97647790132,
			"0.01": 1.64622036069,
			"0.011": 1.52107053543,
			"0.012": 1.91739672619,
			"0.013": 4.14394242899,
			"0.014": 4.57325679301,
			"0.015": 0.549338296373,
			"0.016": 0.0,
			"0.017": 0.0,
			"0.018": 0.0,
			"0.019": 0.0,
			"0.02": 0.0,
			"0.021": 0.0,
			"0.022": 0.0,
			"0.023": 0.0,
			"0.024": 0.0,
			"0.025": 0.0
		}
	}
}
