{
	 "smiles": "NNC(=O)C1=C(Br)C=C(F)C=C1", 
	 "Tm": 425.15, 
	 "num_atms": 18, 
	 "gaussian": { 
		 "optdone": 1, 
		 "sigma_profile": "yes", 
		 "theory": "DFT", 
		 "functional": "B3LYP", 
		 "basiset": "6-31G**", 
		 "properties": { 
			 "R2extent": 4642.4874, 
			 "electric_dipole_moment_norm": 2.79544281108, 
			 "electric_quadrupole_moment_norm": 5.15828563672, 
			 "total_energy": -3126.29986316, 
			 "HOMO_LUMO_gap": 0.21311, 
			 "cosmo_polarized_energy": -13.43, 
			 "cosmo_cavitation_energy": 25.7, 
			 "cosmo_dispersion_energy": -18.91, 
			 "cosmo_repulsion_energy": 1.51, 
			 "cosmo_total_nonelectrostatic_energy": 8.29, 
			 "SMD_solvation_energy": 4.94 
		},
		"coords": [
			{
				"x": -2.1061511341,
				"y": 0.8214775077,
				"z": -1.1590007619,
				"element": "N" 
			},
			{
				"x": -1.0738124228,
				"y": 0.3001771849,
				"z": -0.3499779041,
				"element": "N" 
			},
			{
				"x": -0.0856182476,
				"y": -0.4790215155,
				"z": -0.9077284674,
				"element": "C" 
			},
			{
				"x": 0.0107250577,
				"y": -0.6338909486,
				"z": -2.1167836646,
				"element": "O" 
			},
			{
				"x": 0.8699783494,
				"y": -1.0658674512,
				"z": 0.0962960666,
				"element": "C" 
			},
			{
				"x": 1.3012106311,
				"y": -2.4022736224,
				"z": 0.0542325381,
				"element": "C" 
			},
			{
				"x": 0.612570955,
				"y": -3.6435938427,
				"z": -1.2173410686,
				"element": "Br" 
			},
			{
				"x": 2.2256597652,
				"y": -2.8897924281,
				"z": 0.9758845943,
				"element": "C" 
			},
			{
				"x": 2.7301912038,
				"y": -2.0244727473,
				"z": 1.9400498679,
				"element": "C" 
			},
			{
				"x": 3.6275008728,
				"y": -2.498317754,
				"z": 2.8220713328,
				"element": "F" 
			},
			{
				"x": 2.3346207863,
				"y": -0.6952489515,
				"z": 2.0200532389,
				"element": "C" 
			},
			{
				"x": 1.4025618599,
				"y": -0.2335882303,
				"z": 1.0945487714,
				"element": "C" 
			},
			{
				"x": -2.2393178667,
				"y": 0.1592860843,
				"z": -1.9254923408,
				"element": "H" 
			},
			{
				"x": -1.7493992911,
				"y": 1.6700120828,
				"z": -1.5973129416,
				"element": "H" 
			},
			{
				"x": -1.3381536587,
				"y": 0.1436263174,
				"z": 0.6129048894,
				"element": "H" 
			},
			{
				"x": 2.5499996881,
				"y": -3.9226180514,
				"z": 0.9531909691,
				"element": "H" 
			},
			{
				"x": 2.7542998836,
				"y": -0.0487606105,
				"z": 2.7822128794,
				"element": "H" 
			},
			{
				"x": 1.0899335683,
				"y": 0.8052669765,
				"z": 1.125292001,
				"element": "H" 
			}
		],
		 "valence_orbital": [ 
			{
				"type": "occ",
				"energy": -0.28787,
				"method": "rhf"
			},
			{
				"type": "occ",
				"energy": -0.27372,
				"method": "rhf"
			},
			{
				"type": "occ",
				"energy": -0.26136,
				"method": "rhf"
			},
			{
				"type": "occ",
				"energy": -0.26062,
				"method": "rhf"
			},
			{
				"type": "occ",
				"energy": -0.25386,
				"method": "rhf"
			},
			{
				"type": "unocc",
				"energy": -0.04075,
				"method": "rhf"
			},
			{
				"type": "unocc",
				"energy": -0.03421,
				"method": "rhf"
			},
			{
				"type": "unocc",
				"energy": -0.00113,
				"method": "rhf"
			},
			{
				"type": "unocc",
				"energy": 0.03141,
				"method": "rhf"
			},
			{
				"type": "unocc",
				"energy": 0.08671,
				"method": "rhf"
			}
		],
		"cosmo_sigma_profile": { 
			"-0.025": 0.0,
			"-0.024": 0.0,
			"-0.023": 0.0,
			"-0.022": 0.0,
			"-0.021": 0.0,
			"-0.02": 0.0,
			"-0.019": 0.0,
			"-0.018": 0.0,
			"-0.017": 0.0,
			"-0.016": 0.0,
			"-0.015": 0.27179835026,
			"-0.014": 0.831020983166,
			"-0.013": 1.20038074387,
			"-0.012": 1.28914066264,
			"-0.011": 2.73257902172,
			"-0.01": 3.10954669721,
			"-0.009": 4.08070983292,
			"-0.008": 8.00538904433,
			"-0.007": 7.51815735889,
			"-0.006": 9.10569497714,
			"-0.005": 7.89899631121,
			"-0.004": 9.690130847,
			"-0.003": 9.16462914766,
			"-0.002": 11.3866871911,
			"-0.001": 15.5932575987,
			"0.0": 19.7376244873,
			"0.001": 21.1574874138,
			"0.002": 13.2577743693,
			"0.003": 16.8812991936,
			"0.004": 15.5858477526,
			"0.005": 2.3842132015,
			"0.006": 3.27734197616,
			"0.007": 3.0091893971,
			"0.008": 2.04593764637,
			"0.009": 2.48197211427,
			"0.01": 2.33373421653,
			"0.011": 2.42031470217,
			"0.012": 4.29870556427,
			"0.013": 4.94974178566,
			"0.014": 1.69994875202,
			"0.015": 0.495299696884,
			"0.016": 0.474565919947,
			"0.017": 0.171107398646,
			"0.018": 0.0,
			"0.019": 0.0,
			"0.02": 0.0,
			"0.021": 0.0,
			"0.022": 0.0,
			"0.023": 0.0,
			"0.024": 0.0,
			"0.025": 0.0
		}
	}
}
