{
	 "smiles": "OC1(CC2=CC=C(F)C=C2)CCNC1", 
	 "Tm": 347.15, 
	 "num_atms": 28, 
	 "gaussian": { 
		 "optdone": 1, 
		 "sigma_profile": "yes", 
		 "theory": "DFT", 
		 "functional": "B3LYP", 
		 "basiset": "6-31G**", 
		 "properties": { 
			 "R2extent": 5123.8703, 
			 "electric_dipole_moment_norm": 3.6968769847, 
			 "electric_quadrupole_moment_norm": 10.735525486, 
			 "total_energy": -657.410144494, 
			 "HOMO_LUMO_gap": 0.22669, 
			 "cosmo_polarized_energy": -8.4, 
			 "cosmo_cavitation_energy": 30.11, 
			 "cosmo_dispersion_energy": -21.68, 
			 "cosmo_repulsion_energy": 1.68, 
			 "cosmo_total_nonelectrostatic_energy": 10.11, 
			 "SMD_solvation_energy": 3.48 
		},
		"coords": [
			{
				"x": -0.5280099839,
				"y": -0.8565588791,
				"z": -0.16266657,
				"element": "O" 
			},
			{
				"x": -0.4113219558,
				"y": 0.0164362044,
				"z": 0.9623493526,
				"element": "C" 
			},
			{
				"x": -1.8004248187,
				"y": 0.127901661,
				"z": 1.6035865035,
				"element": "C" 
			},
			{
				"x": -2.8375872781,
				"y": 0.8663945545,
				"z": 0.7795363221,
				"element": "C" 
			},
			{
				"x": -3.3172072508,
				"y": 0.3368528121,
				"z": -0.4297720185,
				"element": "C" 
			},
			{
				"x": -4.2744470388,
				"y": 1.0145657523,
				"z": -1.1829218533,
				"element": "C" 
			},
			{
				"x": -4.7572688826,
				"y": 2.2330109524,
				"z": -0.717180468,
				"element": "C" 
			},
			{
				"x": -5.6882726497,
				"y": 2.891924854,
				"z": -1.4427516275,
				"element": "F" 
			},
			{
				"x": -4.3109755412,
				"y": 2.7887746766,
				"z": 0.4740557168,
				"element": "C" 
			},
			{
				"x": -3.3506386069,
				"y": 2.095476186,
				"z": 1.2141066841,
				"element": "C" 
			},
			{
				"x": 0.2323605466,
				"y": 1.3675586048,
				"z": 0.5352072036,
				"element": "C" 
			},
			{
				"x": 1.7572715221,
				"y": 1.163779516,
				"z": 0.7484252854,
				"element": "C" 
			},
			{
				"x": 1.8687900539,
				"y": -0.2641869571,
				"z": 1.1029296566,
				"element": "N" 
			},
			{
				"x": 0.6722508406,
				"y": -0.554835479,
				"z": 1.8987555207,
				"element": "C" 
			},
			{
				"x": 0.3878267006,
				"y": -1.0516252554,
				"z": -0.4209857017,
				"element": "H" 
			},
			{
				"x": -2.144196748,
				"y": -0.893894729,
				"z": 1.8064135413,
				"element": "H" 
			},
			{
				"x": -1.6909943887,
				"y": 0.6269541116,
				"z": 2.5731543132,
				"element": "H" 
			},
			{
				"x": -2.9199952125,
				"y": -0.6070608417,
				"z": -0.7859147978,
				"element": "H" 
			},
			{
				"x": -4.6498616952,
				"y": 0.6130021702,
				"z": -2.118287066,
				"element": "H" 
			},
			{
				"x": -4.7127004148,
				"y": 3.739340241,
				"z": 0.8084018556,
				"element": "H" 
			},
			{
				"x": -3.000706251,
				"y": 2.5203712324,
				"z": 2.1517839056,
				"element": "H" 
			},
			{
				"x": -0.0305187328,
				"y": 1.5814158405,
				"z": -0.5025642665,
				"element": "H" 
			},
			{
				"x": -0.1398068718,
				"y": 2.194398563,
				"z": 1.1472406232,
				"element": "H" 
			},
			{
				"x": 2.349787669,
				"y": 1.3812601762,
				"z": -0.1460092155,
				"element": "H" 
			},
			{
				"x": 2.1171436718,
				"y": 1.8264548447,
				"z": 1.5528628833,
				"element": "H" 
			},
			{
				"x": 2.7356560136,
				"y": -0.4841756423,
				"z": 1.5834179181,
				"element": "H" 
			},
			{
				"x": 0.6531082826,
				"y": -0.0424544173,
				"z": 2.8787166394,
				"element": "H" 
			},
			{
				"x": 0.5487390205,
				"y": -1.6299807527,
				"z": 2.0589096596,
				"element": "H" 
			}
		],
		 "valence_orbital": [ 
			{
				"type": "occ",
				"energy": -0.31383,
				"method": "rhf"
			},
			{
				"type": "occ",
				"energy": -0.26193,
				"method": "rhf"
			},
			{
				"type": "occ",
				"energy": -0.24989,
				"method": "rhf"
			},
			{
				"type": "occ",
				"energy": -0.23235,
				"method": "rhf"
			},
			{
				"type": "occ",
				"energy": -0.22875,
				"method": "rhf"
			},
			{
				"type": "unocc",
				"energy": -0.00206,
				"method": "rhf"
			},
			{
				"type": "unocc",
				"energy": 0.00989,
				"method": "rhf"
			},
			{
				"type": "unocc",
				"energy": 0.0677,
				"method": "rhf"
			},
			{
				"type": "unocc",
				"energy": 0.09501,
				"method": "rhf"
			},
			{
				"type": "unocc",
				"energy": 0.10701,
				"method": "rhf"
			}
		],
		"cosmo_sigma_profile": { 
			"-0.025": 0.0,
			"-0.024": 0.0,
			"-0.023": 0.0,
			"-0.022": 0.0,
			"-0.021": 0.0,
			"-0.02": 0.0,
			"-0.019": 0.0,
			"-0.018": 0.0,
			"-0.017": 0.0,
			"-0.016": 0.0,
			"-0.015": 0.0,
			"-0.014": 0.0,
			"-0.013": 0.0,
			"-0.012": 0.0,
			"-0.011": 0.309130243933,
			"-0.01": 1.89286717285,
			"-0.009": 2.04482414196,
			"-0.008": 1.26045685037,
			"-0.007": 3.67571177057,
			"-0.006": 6.69743768216,
			"-0.005": 8.70342664022,
			"-0.004": 16.3228634051,
			"-0.003": 25.73273042,
			"-0.002": 30.2028685488,
			"-0.001": 23.7023856519,
			"0.0": 19.862044425,
			"0.001": 15.2770960057,
			"0.002": 14.8747654107,
			"0.003": 13.4804175453,
			"0.004": 18.5650902537,
			"0.005": 17.4176418413,
			"0.006": 2.88698789938,
			"0.007": 2.34241338885,
			"0.008": 1.81953794109,
			"0.009": 2.6502825082,
			"0.01": 2.29025010607,
			"0.011": 1.87877037381,
			"0.012": 0.978434835109,
			"0.013": 0.868988743128,
			"0.014": 0.223004551731,
			"0.015": 0.0,
			"0.016": 0.0,
			"0.017": 0.0,
			"0.018": 0.0,
			"0.019": 0.0,
			"0.02": 0.0,
			"0.021": 0.0,
			"0.022": 0.0,
			"0.023": 0.0,
			"0.024": 0.0,
			"0.025": 0.0
		}
	}
}
