{
	 "smiles": "CS(=O)(=O)C1=CC(Cl)=C(C(O)=O)C(Cl)=C1", 
	 "Tm": 418.15, 
	 "num_atms": 21, 
	 "gaussian": { 
		 "optdone": 1, 
		 "sigma_profile": "yes", 
		 "theory": "DFT", 
		 "functional": "B3LYP", 
		 "basiset": "6-31G**", 
		 "properties": { 
			 "R2extent": 4865.2193, 
			 "electric_dipole_moment_norm": 6.27439053455, 
			 "electric_quadrupole_moment_norm": 15.9404358607, 
			 "total_energy": -1927.85997862, 
			 "HOMO_LUMO_gap": 0.20398, 
			 "cosmo_polarized_energy": -23.74, 
			 "cosmo_cavitation_energy": 31.53, 
			 "cosmo_dispersion_energy": -22.79, 
			 "cosmo_repulsion_energy": 1.76, 
			 "cosmo_total_nonelectrostatic_energy": 10.5, 
			 "SMD_solvation_energy": 5.72 
		},
		"coords": [
			{
				"x": 3.2413441423,
				"y": -1.6059995481,
				"z": -0.8473521601,
				"element": "C" 
			},
			{
				"x": 1.7860079476,
				"y": -1.2499100656,
				"z": -1.8591317114,
				"element": "S" 
			},
			{
				"x": 2.1025291389,
				"y": -0.0950662904,
				"z": -2.7094883215,
				"element": "O" 
			},
			{
				"x": 1.3092470849,
				"y": -2.5200562756,
				"z": -2.4220976553,
				"element": "O" 
			},
			{
				"x": 0.5569008065,
				"y": -0.7048904779,
				"z": -0.6454142012,
				"element": "C" 
			},
			{
				"x": -0.292405158,
				"y": -1.6500873467,
				"z": -0.0768226724,
				"element": "C" 
			},
			{
				"x": -1.2316253892,
				"y": -1.2145308031,
				"z": 0.8559507219,
				"element": "C" 
			},
			{
				"x": -2.3010545169,
				"y": -2.3991379143,
				"z": 1.5802274029,
				"element": "Cl" 
			},
			{
				"x": -1.3444350323,
				"y": 0.137318295,
				"z": 1.2180562378,
				"element": "C" 
			},
			{
				"x": -2.4339192885,
				"y": 0.6120594151,
				"z": 2.1632271209,
				"element": "C" 
			},
			{
				"x": -2.2328653859,
				"y": 0.342367839,
				"z": 3.47141915,
				"element": "O" 
			},
			{
				"x": -3.4121939043,
				"y": 1.1950357433,
				"z": 1.7822926507,
				"element": "O" 
			},
			{
				"x": -0.4741090917,
				"y": 1.0556654285,
				"z": 0.6071636239,
				"element": "C" 
			},
			{
				"x": -0.5587548001,
				"y": 2.7499483252,
				"z": 1.0251772938,
				"element": "Cl" 
			},
			{
				"x": 0.4795900069,
				"y": 0.6478280302,
				"z": -0.3237094078,
				"element": "C" 
			},
			{
				"x": 3.0016526231,
				"y": -2.3983310397,
				"z": -0.1369877177,
				"element": "H" 
			},
			{
				"x": 4.0152697795,
				"y": -1.9403787191,
				"z": -1.5415613024,
				"element": "H" 
			},
			{
				"x": 3.5579088558,
				"y": -0.6952528544,
				"z": -0.3372614779,
				"element": "H" 
			},
			{
				"x": -0.2389020946,
				"y": -2.6913362045,
				"z": -0.3724132847,
				"element": "H" 
			},
			{
				"x": -1.4044165866,
				"y": -0.1433573505,
				"z": 3.5960575538,
				"element": "H" 
			},
			{
				"x": 1.1298308626,
				"y": 1.3686118137,
				"z": -0.8055318432,
				"element": "H" 
			}
		],
		 "valence_orbital": [ 
			{
				"type": "occ",
				"energy": -0.3173,
				"method": "rhf"
			},
			{
				"type": "occ",
				"energy": -0.31451,
				"method": "rhf"
			},
			{
				"type": "occ",
				"energy": -0.30579,
				"method": "rhf"
			},
			{
				"type": "occ",
				"energy": -0.28876,
				"method": "rhf"
			},
			{
				"type": "occ",
				"energy": -0.28436,
				"method": "rhf"
			},
			{
				"type": "unocc",
				"energy": -0.08038,
				"method": "rhf"
			},
			{
				"type": "unocc",
				"energy": -0.06059,
				"method": "rhf"
			},
			{
				"type": "unocc",
				"energy": -0.02305,
				"method": "rhf"
			},
			{
				"type": "unocc",
				"energy": -0.0159,
				"method": "rhf"
			},
			{
				"type": "unocc",
				"energy": 0.0219,
				"method": "rhf"
			}
		],
		"cosmo_sigma_profile": { 
			"-0.025": 0.0,
			"-0.024": 0.0,
			"-0.023": 0.0,
			"-0.022": 0.0,
			"-0.021": 0.0,
			"-0.02": 0.353719164374,
			"-0.019": 1.50418027487,
			"-0.018": 0.252989706266,
			"-0.017": 1.24091451812,
			"-0.016": 1.19238828379,
			"-0.015": 0.825291520406,
			"-0.014": 0.598400437204,
			"-0.013": 1.33949348271,
			"-0.012": 0.742373678703,
			"-0.011": 0.716574445789,
			"-0.01": 2.37816292369,
			"-0.009": 9.16821536731,
			"-0.008": 9.26551907665,
			"-0.007": 10.60160103,
			"-0.006": 10.2090914594,
			"-0.005": 10.7688604431,
			"-0.004": 12.6316232401,
			"-0.003": 17.0434387564,
			"-0.002": 20.4033833715,
			"-0.001": 16.9485721981,
			"0.0": 13.4455692083,
			"0.001": 15.6511195708,
			"0.002": 18.6225992931,
			"0.003": 14.6681344129,
			"0.004": 5.98533180736,
			"0.005": 5.05689085201,
			"0.006": 5.04908619589,
			"0.007": 5.57888255203,
			"0.008": 7.79970363543,
			"0.009": 8.82846625621,
			"0.01": 12.5909496205,
			"0.011": 12.6493923548,
			"0.012": 3.14061080217,
			"0.013": 0.0,
			"0.014": 0.0,
			"0.015": 0.0,
			"0.016": 0.0,
			"0.017": 0.0,
			"0.018": 0.0,
			"0.019": 0.0,
			"0.02": 0.0,
			"0.021": 0.0,
			"0.022": 0.0,
			"0.023": 0.0,
			"0.024": 0.0,
			"0.025": 0.0
		}
	}
}
