{
	 "smiles": "OC(=O)C1=C(OCC(=O)NC2=CC=C(Br)C=C2)C=CC=C1", 
	 "Tm": 515.15, 
	 "num_atms": 33, 
	 "gaussian": { 
		 "optdone": 1, 
		 "sigma_profile": "yes", 
		 "theory": "DFT", 
		 "functional": "B3LYP", 
		 "basiset": "6-31G**", 
		 "properties": { 
			 "R2extent": 20816.4443, 
			 "electric_dipole_moment_norm": 5.16303047541, 
			 "electric_quadrupole_moment_norm": 40.4935123047, 
			 "total_energy": -3505.89436479, 
			 "HOMO_LUMO_gap": 0.18974, 
			 "cosmo_polarized_energy": -24.44, 
			 "cosmo_cavitation_energy": 40.7, 
			 "cosmo_dispersion_energy": -30.12, 
			 "cosmo_repulsion_energy": 2.27, 
			 "cosmo_total_nonelectrostatic_energy": 12.85, 
			 "SMD_solvation_energy": 7.41 
		},
		"coords": [
			{
				"x": 2.5973101503,
				"y": -1.457909255,
				"z": -0.2015840887,
				"element": "O" 
			},
			{
				"x": 2.8768594926,
				"y": -0.4634171509,
				"z": -1.0662089466,
				"element": "C" 
			},
			{
				"x": 4.0150648764,
				"y": -0.2622873055,
				"z": -1.429555973,
				"element": "O" 
			},
			{
				"x": 1.7248031951,
				"y": 0.3808078182,
				"z": -1.5564615272,
				"element": "C" 
			},
			{
				"x": 0.3632910565,
				"y": 0.1656899562,
				"z": -1.2678219373,
				"element": "C" 
			},
			{
				"x": 0.0325718772,
				"y": -0.8925713951,
				"z": -0.4237644102,
				"element": "O" 
			},
			{
				"x": -1.0347254302,
				"y": -1.7651376454,
				"z": -0.7929745453,
				"element": "C" 
			},
			{
				"x": -2.2771635425,
				"y": -1.5089038737,
				"z": 0.0745732034,
				"element": "C" 
			},
			{
				"x": -2.7570321559,
				"y": -0.3884600235,
				"z": 0.1744341817,
				"element": "O" 
			},
			{
				"x": -2.7848241985,
				"y": -2.6372131987,
				"z": 0.6629048287,
				"element": "N" 
			},
			{
				"x": -3.9493505339,
				"y": -2.7745533517,
				"z": 1.4534431898,
				"element": "C" 
			},
			{
				"x": -4.7782322735,
				"y": -1.6956578631,
				"z": 1.7944273524,
				"element": "C" 
			},
			{
				"x": -5.9112610143,
				"y": -1.9180737913,
				"z": 2.5763026322,
				"element": "C" 
			},
			{
				"x": -6.2182133595,
				"y": -3.2026914027,
				"z": 3.0189569785,
				"element": "C" 
			},
			{
				"x": -7.7722605017,
				"y": -3.4921393714,
				"z": 4.0893678935,
				"element": "Br" 
			},
			{
				"x": -5.3995491078,
				"y": -4.281445898,
				"z": 2.6882773073,
				"element": "C" 
			},
			{
				"x": -4.2695424684,
				"y": -4.0629640033,
				"z": 1.9067973926,
				"element": "C" 
			},
			{
				"x": -0.6280070364,
				"y": 1.0055926999,
				"z": -1.7765402385,
				"element": "C" 
			},
			{
				"x": -0.2664347258,
				"y": 2.0674128033,
				"z": -2.6048357102,
				"element": "C" 
			},
			{
				"x": 1.0761680854,
				"y": 2.2985779962,
				"z": -2.9127694103,
				"element": "C" 
			},
			{
				"x": 2.0549482774,
				"y": 1.4632778418,
				"z": -2.3855236651,
				"element": "C" 
			},
			{
				"x": 1.6375835841,
				"y": -1.4567931933,
				"z": -0.0196687997,
				"element": "H" 
			},
			{
				"x": -0.6585654533,
				"y": -2.7892891194,
				"z": -0.6865565743,
				"element": "H" 
			},
			{
				"x": -1.3094892649,
				"y": -1.6066651543,
				"z": -1.8415146649,
				"element": "H" 
			},
			{
				"x": -2.261492467,
				"y": -3.4907646207,
				"z": 0.5283749555,
				"element": "H" 
			},
			{
				"x": -4.5322435584,
				"y": -0.7009362488,
				"z": 1.451589473,
				"element": "H" 
			},
			{
				"x": -6.5524557973,
				"y": -1.084971429,
				"z": 2.8407278943,
				"element": "H" 
			},
			{
				"x": -5.6400623303,
				"y": -5.2796766534,
				"z": 3.0350625762,
				"element": "H" 
			},
			{
				"x": -3.6321215699,
				"y": -4.9053195604,
				"z": 1.6477222427,
				"element": "H" 
			},
			{
				"x": -1.6586528275,
				"y": 0.8424047379,
				"z": -1.4809257441,
				"element": "H" 
			},
			{
				"x": -1.0391832784,
				"y": 2.7228351694,
				"z": -2.9958470095,
				"element": "H" 
			},
			{
				"x": 1.3569194365,
				"y": 3.1284266814,
				"z": -3.5535800671,
				"element": "H" 
			},
			{
				"x": 3.1065428639,
				"y": 1.6127158044,
				"z": -2.6045287897,
				"element": "H" 
			}
		],
		 "valence_orbital": [ 
			{
				"type": "occ",
				"energy": -0.27841,
				"method": "rhf"
			},
			{
				"type": "occ",
				"energy": -0.26638,
				"method": "rhf"
			},
			{
				"type": "occ",
				"energy": -0.26271,
				"method": "rhf"
			},
			{
				"type": "occ",
				"energy": -0.25244,
				"method": "rhf"
			},
			{
				"type": "occ",
				"energy": -0.23854,
				"method": "rhf"
			},
			{
				"type": "unocc",
				"energy": -0.0488,
				"method": "rhf"
			},
			{
				"type": "unocc",
				"energy": -0.04466,
				"method": "rhf"
			},
			{
				"type": "unocc",
				"energy": -0.02857,
				"method": "rhf"
			},
			{
				"type": "unocc",
				"energy": -0.01334,
				"method": "rhf"
			},
			{
				"type": "unocc",
				"energy": -0.00129,
				"method": "rhf"
			}
		],
		"cosmo_sigma_profile": { 
			"-0.025": 0.0,
			"-0.024": 0.0,
			"-0.023": 0.0,
			"-0.022": 0.0,
			"-0.021": 0.0,
			"-0.02": 0.0,
			"-0.019": 0.0,
			"-0.018": 0.0,
			"-0.017": 0.629900781259,
			"-0.016": 2.19344696084,
			"-0.015": 1.16055078728,
			"-0.014": 2.08810792277,
			"-0.013": 1.47863851293,
			"-0.012": 1.86189625088,
			"-0.011": 1.44570180183,
			"-0.01": 2.78558042487,
			"-0.009": 6.15658050802,
			"-0.008": 7.45430850183,
			"-0.007": 13.055356829,
			"-0.006": 18.2550838951,
			"-0.005": 18.0697856584,
			"-0.004": 16.8826855556,
			"-0.003": 16.995825515,
			"-0.002": 14.3307676262,
			"-0.001": 17.5806459417,
			"0.0": 20.6093165925,
			"0.001": 24.4735487997,
			"0.002": 30.6680978274,
			"0.003": 36.2903106283,
			"0.004": 22.4064584404,
			"0.005": 11.9143849844,
			"0.006": 5.35400317871,
			"0.007": 4.66751208773,
			"0.008": 4.10085108157,
			"0.009": 4.62112516055,
			"0.01": 5.89825777172,
			"0.011": 7.85433832397,
			"0.012": 6.05404104028,
			"0.013": 2.67994612134,
			"0.014": 0.615732323121,
			"0.015": 0.0,
			"0.016": 0.0,
			"0.017": 0.0,
			"0.018": 0.0,
			"0.019": 0.0,
			"0.02": 0.0,
			"0.021": 0.0,
			"0.022": 0.0,
			"0.023": 0.0,
			"0.024": 0.0,
			"0.0": 0.0
		}
	}
}
