{
	 "smiles": "C(N(CC1=CC=CC=C1)C1=CC=CC=C1)C1=CC=CC=C1", 
	 "Tm": 342.65, 
	 "num_atms": 40, 
	 "gaussian": { 
		 "optdone": 1, 
		 "sigma_profile": "yes", 
		 "theory": "DFT", 
		 "functional": "B3LYP", 
		 "basiset": "6-31G**", 
		 "properties": { 
			 "R2extent": 6745.0192, 
			 "electric_dipole_moment_norm": 1.10237143015, 
			 "electric_quadrupole_moment_norm": 5.43057956944, 
			 "total_energy": -828.325665078, 
			 "HOMO_LUMO_gap": 0.18484, 
			 "cosmo_polarized_energy": -8.93, 
			 "cosmo_cavitation_energy": 42.69, 
			 "cosmo_dispersion_energy": -28.83, 
			 "cosmo_repulsion_energy": 2.22, 
			 "cosmo_total_nonelectrostatic_energy": 16.08, 
			 "SMD_solvation_energy": 6.98 
		},
		"coords": [
			{
				"x": 0.0231140226,
				"y": 1.4230359953,
				"z": -0.2832335526,
				"element": "C" 
			},
			{
				"x": 0.8348928359,
				"y": 0.4533167276,
				"z": 0.4499391551,
				"element": "N" 
			},
			{
				"x": 2.2371056817,
				"y": 0.4504853008,
				"z": 0.0060640998,
				"element": "C" 
			},
			{
				"x": 2.45296631,
				"y": -0.2415031121,
				"z": -1.3283209824,
				"element": "C" 
			},
			{
				"x": 1.9201857725,
				"y": -1.5158794991,
				"z": -1.5680902263,
				"element": "C" 
			},
			{
				"x": 2.1591646683,
				"y": -2.1704687251,
				"z": -2.7754145683,
				"element": "C" 
			},
			{
				"x": 2.9353996956,
				"y": -1.5598138675,
				"z": -3.7646094225,
				"element": "C" 
			},
			{
				"x": 3.4678714434,
				"y": -0.2909223899,
				"z": -3.537501824,
				"element": "C" 
			},
			{
				"x": 3.2244615955,
				"y": 0.3628357027,
				"z": -2.3269261343,
				"element": "C" 
			},
			{
				"x": 0.58841867,
				"y": 0.2677662903,
				"z": 1.8322709562,
				"element": "C" 
			},
			{
				"x": 1.2138708912,
				"y": -0.7950096217,
				"z": 2.5170198219,
				"element": "C" 
			},
			{
				"x": 0.9837416238,
				"y": -1.0099620495,
				"z": 3.8720554021,
				"element": "C" 
			},
			{
				"x": 0.1073087928,
				"y": -0.1884603473,
				"z": 4.5860958112,
				"element": "C" 
			},
			{
				"x": -0.5347515001,
				"y": 0.8491863794,
				"z": 3.9137481223,
				"element": "C" 
			},
			{
				"x": -0.2991886525,
				"y": 1.0826263902,
				"z": 2.5573471355,
				"element": "C" 
			},
			{
				"x": -1.4489727445,
				"y": 1.0700489317,
				"z": -0.4110762496,
				"element": "C" 
			},
			{
				"x": -2.4083550626,
				"y": 2.089269057,
				"z": -0.4451681604,
				"element": "C" 
			},
			{
				"x": -3.7594274922,
				"y": 1.7942585053,
				"z": -0.6350554913,
				"element": "C" 
			},
			{
				"x": -4.1700922747,
				"y": 0.4692656651,
				"z": -0.7874319799,
				"element": "C" 
			},
			{
				"x": -3.2202786032,
				"y": -0.5540058476,
				"z": -0.7510062938,
				"element": "C" 
			},
			{
				"x": -1.8700547452,
				"y": -0.2558775598,
				"z": -0.5668072736,
				"element": "C" 
			},
			{
				"x": 0.1237001847,
				"y": 2.4407544831,
				"z": 0.1338799103,
				"element": "H" 
			},
			{
				"x": 0.4484849834,
				"y": 1.4683684676,
				"z": -1.292550659,
				"element": "H" 
			},
			{
				"x": 2.8358321778,
				"y": -0.0448866498,
				"z": 0.7732986787,
				"element": "H" 
			},
			{
				"x": 2.6229830074,
				"y": 1.4822841551,
				"z": -0.0553562269,
				"element": "H" 
			},
			{
				"x": 1.3113781495,
				"y": -1.9874257493,
				"z": -0.8018867422,
				"element": "H" 
			},
			{
				"x": 1.7396143561,
				"y": -3.1579920477,
				"z": -2.9465616488,
				"element": "H" 
			},
			{
				"x": 3.1192439922,
				"y": -2.0692437526,
				"z": -4.7062128803,
				"element": "H" 
			},
			{
				"x": 4.0670171319,
				"y": 0.1945798741,
				"z": -4.3027597921,
				"element": "H" 
			},
			{
				"x": 3.6388243565,
				"y": 1.3538508693,
				"z": -2.1556057124,
				"element": "H" 
			},
			{
				"x": 1.8673801639,
				"y": -1.4726345438,
				"z": 1.9760080182,
				"element": "H" 
			},
			{
				"x": 1.4824737699,
				"y": -1.837669004,
				"z": 4.3691830252,
				"element": "H" 
			},
			{
				"x": -0.0773652239,
				"y": -0.3625362451,
				"z": 5.6416380312,
				"element": "H" 
			},
			{
				"x": -1.226841282,
				"y": 1.4964460631,
				"z": 4.4457935444,
				"element": "H" 
			},
			{
				"x": -0.819221489,
				"y": 1.8970549319,
				"z": 2.0694619454,
				"element": "H" 
			},
			{
				"x": -2.0950548786,
				"y": 3.1238885544,
				"z": -0.3213637604,
				"element": "H" 
			},
			{
				"x": -4.4898513465,
				"y": 2.5983250683,
				"z": -0.6569823393,
				"element": "H" 
			},
			{
				"x": -5.2213381859,
				"y": 0.2353415246,
				"z": -0.9295222522,
				"element": "H" 
			},
			{
				"x": -3.5319456798,
				"y": -1.5885951087,
				"z": -0.8658687516,
				"element": "H" 
			},
			{
				"x": -1.1317951159,
				"y": -1.0503028162,
				"z": -0.5351907331,
				"element": "H" 
			}
		],
		 "valence_orbital": [ 
			{
				"type": "occ",
				"energy": -0.24759,
				"method": "rhf"
			},
			{
				"type": "occ",
				"energy": -0.24425,
				"method": "rhf"
			},
			{
				"type": "occ",
				"energy": -0.24128,
				"method": "rhf"
			},
			{
				"type": "occ",
				"energy": -0.2343,
				"method": "rhf"
			},
			{
				"type": "occ",
				"energy": -0.19505,
				"method": "rhf"
			},
			{
				"type": "unocc",
				"energy": -0.01021,
				"method": "rhf"
			},
			{
				"type": "unocc",
				"energy": -0.00243,
				"method": "rhf"
			},
			{
				"type": "unocc",
				"energy": 0.00236,
				"method": "rhf"
			},
			{
				"type": "unocc",
				"energy": 0.00382,
				"method": "rhf"
			},
			{
				"type": "unocc",
				"energy": 0.01153,
				"method": "rhf"
			}
		],
		"cosmo_sigma_profile": { 
			"-0.025": 0.0,
			"-0.024": 0.0,
			"-0.023": 0.0,
			"-0.022": 0.0,
			"-0.021": 0.0,
			"-0.02": 0.0,
			"-0.019": 0.0,
			"-0.018": 0.0,
			"-0.017": 0.0,
			"-0.016": 0.0,
			"-0.015": 0.0,
			"-0.014": 0.0,
			"-0.013": 0.0,
			"-0.012": 0.0,
			"-0.011": 0.0,
			"-0.01": 0.0,
			"-0.009": 0.0,
			"-0.008": 0.0,
			"-0.007": 0.0539061948495,
			"-0.006": 6.44507180653,
			"-0.005": 30.4179786197,
			"-0.004": 37.8405395215,
			"-0.003": 44.9781230273,
			"-0.002": 31.3996791634,
			"-0.001": 24.8163845089,
			"0.0": 19.8035151171,
			"0.001": 20.0012695666,
			"0.002": 22.4527867586,
			"0.003": 20.0534122283,
			"0.004": 23.284737843,
			"0.005": 22.048695307,
			"0.006": 26.0992689209,
			"0.007": 10.2945525801,
			"0.008": 0.352167076114,
			"0.009": 0.0,
			"0.01": 0.0,
			"0.011": 0.0,
			"0.012": 0.0,
			"0.013": 0.0,
			"0.014": 0.0,
			"0.015": 0.0,
			"0.016": 0.0,
			"0.017": 0.0,
			"0.018": 0.0,
			"0.019": 0.0,
			"0.02": 0.0,
			"0.021": 0.0,
			"0.022": 0.0,
			"0.023": 0.0,
			"0.024": 0.0,
			"0.025": 0.0
		}
	}
}
