{
	 "smiles": "COC1=C(O)C=C2OC(=O)C=CC2=C1", 
	 "Tm": 477.15, 
	 "num_atms": 22, 
	 "gaussian": { 
		 "optdone": 1, 
		 "sigma_profile": "yes", 
		 "theory": "DFT", 
		 "functional": "B3LYP", 
		 "basiset": "6-31G**", 
		 "properties": { 
			 "R2extent": 4173.1813, 
			 "electric_dipole_moment_norm": 7.67384158619, 
			 "electric_quadrupole_moment_norm": 20.5272166209, 
			 "total_energy": -686.768205536, 
			 "HOMO_LUMO_gap": 0.15345, 
			 "cosmo_polarized_energy": -15.47, 
			 "cosmo_cavitation_energy": 26.67, 
			 "cosmo_dispersion_energy": -20.1, 
			 "cosmo_repulsion_energy": 1.56, 
			 "cosmo_total_nonelectrostatic_energy": 8.13, 
			 "SMD_solvation_energy": 6.82 
		},
		"coords": [
			{
				"x": 2.9406850825,
				"y": -0.9832459467,
				"z": -0.7573403867,
				"element": "C" 
			},
			{
				"x": 1.901319443,
				"y": -1.7942422929,
				"z": -0.2284553326,
				"element": "O" 
			},
			{
				"x": 0.9751483585,
				"y": -1.2024950198,
				"z": 0.5943146073,
				"element": "C" 
			},
			{
				"x": -0.0158827649,
				"y": -2.1072808605,
				"z": 1.0624896257,
				"element": "C" 
			},
			{
				"x": 0.0303027534,
				"y": -3.4050318406,
				"z": 0.6816809562,
				"element": "O" 
			},
			{
				"x": -1.0261312391,
				"y": -1.6665630862,
				"z": 1.904887748,
				"element": "C" 
			},
			{
				"x": -1.0542340445,
				"y": -0.3225306608,
				"z": 2.2850999767,
				"element": "C" 
			},
			{
				"x": -2.0644509526,
				"y": 0.0673058538,
				"z": 3.1137605576,
				"element": "O" 
			},
			{
				"x": -2.2091267354,
				"y": 1.3831627885,
				"z": 3.569879176,
				"element": "C" 
			},
			{
				"x": -3.1403276673,
				"y": 1.6243112509,
				"z": 4.3022288813,
				"element": "O" 
			},
			{
				"x": -1.2050195637,
				"y": 2.3297975617,
				"z": 3.1036780495,
				"element": "C" 
			},
			{
				"x": -0.1983057507,
				"y": 1.9498568144,
				"z": 2.280198202,
				"element": "C" 
			},
			{
				"x": -0.0835077898,
				"y": 0.5895309925,
				"z": 1.8335079442,
				"element": "C" 
			},
			{
				"x": 0.9399204897,
				"y": 0.1249014728,
				"z": 0.9752654788,
				"element": "C" 
			},
			{
				"x": 3.5558380936,
				"y": -1.6389639385,
				"z": -1.3746605634,
				"element": "H" 
			},
			{
				"x": 2.5358327093,
				"y": -0.1736991556,
				"z": -1.3772003607,
				"element": "H" 
			},
			{
				"x": 3.5557905732,
				"y": -0.5543059859,
				"z": 0.0433867109,
				"element": "H" 
			},
			{
				"x": 0.801453401,
				"y": -3.507424158,
				"z": 0.1013720116,
				"element": "H" 
			},
			{
				"x": -1.7817612519,
				"y": -2.3557519942,
				"z": 2.2620327535,
				"element": "H" 
			},
			{
				"x": -1.3181324253,
				"y": 3.3472986789,
				"z": 3.4573209861,
				"element": "H" 
			},
			{
				"x": 0.54002608,
				"y": 2.6748267004,
				"z": 1.9450633923,
				"element": "H" 
			},
			{
				"x": 1.6887632012,
				"y": 0.8271428258,
				"z": 0.6264895856,
				"element": "H" 
			}
		],
		 "valence_orbital": [ 
			{
				"type": "occ",
				"energy": -0.33805,
				"method": "rhf"
			},
			{
				"type": "occ",
				"energy": -0.2837,
				"method": "rhf"
			},
			{
				"type": "occ",
				"energy": -0.26569,
				"method": "rhf"
			},
			{
				"type": "occ",
				"energy": -0.24684,
				"method": "rhf"
			},
			{
				"type": "occ",
				"energy": -0.21246,
				"method": "rhf"
			},
			{
				"type": "unocc",
				"energy": -0.05901,
				"method": "rhf"
			},
			{
				"type": "unocc",
				"energy": -0.00386,
				"method": "rhf"
			},
			{
				"type": "unocc",
				"energy": 0.01107,
				"method": "rhf"
			},
			{
				"type": "unocc",
				"energy": 0.06163,
				"method": "rhf"
			},
			{
				"type": "unocc",
				"energy": 0.07985,
				"method": "rhf"
			}
		],
		"cosmo_sigma_profile": { 
			"-0.025": 0.0,
			"-0.024": 0.0,
			"-0.023": 0.0,
			"-0.022": 0.0,
			"-0.021": 0.0,
			"-0.02": 0.0,
			"-0.019": 0.0,
			"-0.018": 0.0,
			"-0.017": 0.0,
			"-0.016": 0.0,
			"-0.015": 0.406358940989,
			"-0.014": 0.576142425321,
			"-0.013": 0.405742751,
			"-0.012": 0.452660817917,
			"-0.011": 1.02010692421,
			"-0.01": 0.707700184372,
			"-0.009": 1.13861689694,
			"-0.008": 6.15952882595,
			"-0.007": 9.81630899099,
			"-0.006": 15.0763818077,
			"-0.005": 14.3916723561,
			"-0.004": 14.698607906,
			"-0.003": 13.8258211912,
			"-0.002": 11.5498427262,
			"-0.001": 11.8344155079,
			"0.0": 15.4464236629,
			"0.001": 23.5171590699,
			"0.002": 20.0295294171,
			"0.003": 10.1200680899,
			"0.004": 4.57741935643,
			"0.005": 4.59810910136,
			"0.006": 3.69427518923,
			"0.007": 2.31267385657,
			"0.008": 3.62888786468,
			"0.009": 5.07484912919,
			"0.01": 3.76074872958,
			"0.011": 4.44043142273,
			"0.012": 5.65656654407,
			"0.013": 4.40782309115,
			"0.014": 0.501766499426,
			"0.015": 0.0,
			"0.016": 0.0,
			"0.017": 0.0,
			"0.018": 0.0,
			"0.019": 0.0,
			"0.02": 0.0,
			"0.021": 0.0,
			"0.022": 0.0,
			"0.023": 0.0,
			"0.024": 0.0,
			"0.025": 0.0
		}
	}
}
