{
	 "smiles": "CC1=NN(CCCl)C(C)=C1C(O)=O", 
	 "Tm": 413.15, 
	 "num_atms": 24, 
	 "gaussian": { 
		 "optdone": 1, 
		 "sigma_profile": "yes", 
		 "theory": "DFT", 
		 "functional": "B3LYP", 
		 "basiset": "6-31G**", 
		 "properties": { 
			 "R2extent": 3410.8029, 
			 "electric_dipole_moment_norm": 2.3965068433, 
			 "electric_quadrupole_moment_norm": 14.4229899192, 
			 "total_energy": -1031.6478698, 
			 "HOMO_LUMO_gap": 0.22773, 
			 "cosmo_polarized_energy": -13.46, 
			 "cosmo_cavitation_energy": 29.3, 
			 "cosmo_dispersion_energy": -21.0, 
			 "cosmo_repulsion_energy": 1.69, 
			 "cosmo_total_nonelectrostatic_energy": 10.0, 
			 "SMD_solvation_energy": 5.03 
		},
		"coords": [
			{
				"x": -1.0741259976,
				"y": 0.3959420761,
				"z": 2.0454899773,
				"element": "C" 
			},
			{
				"x": -0.1614005237,
				"y": 0.3599147539,
				"z": 0.8592967997,
				"element": "C" 
			},
			{
				"x": 0.4878293986,
				"y": -0.7572255024,
				"z": 0.5622998896,
				"element": "N" 
			},
			{
				"x": 1.2248929273,
				"y": -0.4653537063,
				"z": -0.5504996796,
				"element": "N" 
			},
			{
				"x": 2.0323610593,
				"y": -1.5274531382,
				"z": -1.1210148121,
				"element": "C" 
			},
			{
				"x": 1.1972186768,
				"y": -2.6645181418,
				"z": -1.6988486559,
				"element": "C" 
			},
			{
				"x": 0.3032705491,
				"y": -2.1696674583,
				"z": -3.1969346926,
				"element": "Cl" 
			},
			{
				"x": 1.0631012547,
				"y": 0.8107730492,
				"z": -0.9762453282,
				"element": "C" 
			},
			{
				"x": 1.7541512861,
				"y": 1.3800141094,
				"z": -2.1735959384,
				"element": "C" 
			},
			{
				"x": 0.1628360875,
				"y": 1.3926808285,
				"z": -0.076663559,
				"element": "C" 
			},
			{
				"x": -0.3070292451,
				"y": 2.7739757259,
				"z": -0.1332840428,
				"element": "C" 
			},
			{
				"x": -1.1877376231,
				"y": 3.0719518067,
				"z": 0.8611035454,
				"element": "O" 
			},
			{
				"x": 0.0177945373,
				"y": 3.6155925735,
				"z": -0.9559568108,
				"element": "O" 
			},
			{
				"x": -2.0969623691,
				"y": 0.6465646886,
				"z": 1.7494292307,
				"element": "H" 
			},
			{
				"x": -1.0710066171,
				"y": -0.5813640239,
				"z": 2.532628584,
				"element": "H" 
			},
			{
				"x": -0.7591409946,
				"y": 1.1573612185,
				"z": 2.7649829518,
				"element": "H" 
			},
			{
				"x": 2.6544464922,
				"y": -1.9452222223,
				"z": -0.320903804,
				"element": "H" 
			},
			{
				"x": 2.6893766039,
				"y": -1.1013937514,
				"z": -1.8807832507,
				"element": "H" 
			},
			{
				"x": 0.4504098224,
				"y": -2.9901369644,
				"z": -0.9750825676,
				"element": "H" 
			},
			{
				"x": 1.8389669136,
				"y": -3.5020651826,
				"z": -1.9766095681,
				"element": "H" 
			},
			{
				"x": 1.4464277577,
				"y": 2.4179153558,
				"z": -2.2947105373,
				"element": "H" 
			},
			{
				"x": 1.4963487778,
				"y": 0.8225529425,
				"z": -3.0800868373,
				"element": "H" 
			},
			{
				"x": 2.8441755176,
				"y": 1.3506890975,
				"z": -2.0575183529,
				"element": "H" 
			},
			{
				"x": -1.4257042916,
				"y": 4.0030718655,
				"z": 0.7189074589,
				"element": "H" 
			}
		],
		 "valence_orbital": [ 
			{
				"type": "occ",
				"energy": -0.30476,
				"method": "rhf"
			},
			{
				"type": "occ",
				"energy": -0.29675,
				"method": "rhf"
			},
			{
				"type": "occ",
				"energy": -0.26712,
				"method": "rhf"
			},
			{
				"type": "occ",
				"energy": -0.25033,
				"method": "rhf"
			},
			{
				"type": "occ",
				"energy": -0.2469,
				"method": "rhf"
			},
			{
				"type": "unocc",
				"energy": -0.01917,
				"method": "rhf"
			},
			{
				"type": "unocc",
				"energy": 0.01602,
				"method": "rhf"
			},
			{
				"type": "unocc",
				"energy": 0.01794,
				"method": "rhf"
			},
			{
				"type": "unocc",
				"energy": 0.08519,
				"method": "rhf"
			},
			{
				"type": "unocc",
				"energy": 0.08962,
				"method": "rhf"
			}
		],
		"cosmo_sigma_profile": { 
			"-0.025": 0.0,
			"-0.024": 0.0,
			"-0.023": 0.0,
			"-0.022": 0.0,
			"-0.021": 0.0,
			"-0.02": 0.0,
			"-0.019": 0.0,
			"-0.018": 0.299815594267,
			"-0.017": 0.998815408217,
			"-0.016": 0.567557247883,
			"-0.015": 0.898443541528,
			"-0.014": 0.779530431057,
			"-0.013": 0.354281267677,
			"-0.012": 0.571148873288,
			"-0.011": 1.16991416248,
			"-0.01": 0.941689475336,
			"-0.009": 0.505928376361,
			"-0.008": 6.91435373818,
			"-0.007": 11.0768173187,
			"-0.006": 11.0553231615,
			"-0.005": 12.0637520738,
			"-0.004": 13.5911242533,
			"-0.003": 12.0470249443,
			"-0.002": 14.5201231989,
			"-0.001": 19.3022027011,
			"0.0": 21.7859147838,
			"0.001": 17.1102281671,
			"0.002": 15.9851111675,
			"0.003": 13.9509021098,
			"0.004": 9.87092540104,
			"0.005": 10.8585144707,
			"0.006": 14.0012751304,
			"0.007": 4.94432978675,
			"0.008": 2.32896097246,
			"0.009": 2.22889293879,
			"0.01": 2.61329306758,
			"0.011": 3.45534492344,
			"0.012": 4.33048449045,
			"0.013": 1.65769357853,
			"0.014": 0.736266620331,
			"0.015": 0.233338240427,
			"0.016": 0.0,
			"0.017": 0.0,
			"0.018": 0.0,
			"0.019": 0.0,
			"0.02": 0.0,
			"0.021": 0.0,
			"0.022": 0.0,
			"0.023": 0.0,
			"0.024": 0.0,
			"0.025": 0.0
		}
	}
}
