{
	 "smiles": "C=CC(=O)N1CCN(CC1)C(=O)C=C", 
	 "Tm": 366.15, 
	 "num_atms": 28, 
	 "gaussian": { 
		 "optdone": 1, 
		 "sigma_profile": "yes", 
		 "theory": "DFT", 
		 "functional": "B3LYP", 
		 "basiset": "6-31G**", 
		 "properties": { 
			 "R2extent": 4182.2312, 
			 "electric_dipole_moment_norm": 5.14469382762, 
			 "electric_quadrupole_moment_norm": 11.7695126552, 
			 "total_energy": -649.419197742, 
			 "HOMO_LUMO_gap": 0.19629, 
			 "cosmo_polarized_energy": -17.47, 
			 "cosmo_cavitation_energy": 30.92, 
			 "cosmo_dispersion_energy": -21.74, 
			 "cosmo_repulsion_energy": 1.7, 
			 "cosmo_total_nonelectrostatic_energy": 10.88, 
			 "SMD_solvation_energy": 6.85 
		},
		"coords": [
			{
				"x": -5.1526974836,
				"y": 0.5183714723,
				"z": -1.1128571752,
				"element": "C" 
			},
			{
				"x": -4.1735423783,
				"y": 0.4748203786,
				"z": -0.2065687873,
				"element": "C" 
			},
			{
				"x": -3.2163533292,
				"y": -0.6774157766,
				"z": -0.2071892198,
				"element": "C" 
			},
			{
				"x": -3.4123782423,
				"y": -1.653108292,
				"z": -0.9302159982,
				"element": "O" 
			},
			{
				"x": -2.1235697133,
				"y": -0.6224575739,
				"z": 0.63782801,
				"element": "N" 
			},
			{
				"x": -1.6837793127,
				"y": 0.5095379088,
				"z": 1.4462869347,
				"element": "C" 
			},
			{
				"x": -0.2363530573,
				"y": 0.889661241,
				"z": 1.0966861513,
				"element": "C" 
			},
			{
				"x": 0.6363407993,
				"y": -0.2753030976,
				"z": 1.2052432319,
				"element": "N" 
			},
			{
				"x": 0.2084426172,
				"y": -1.3972660283,
				"z": 0.3663360419,
				"element": "C" 
			},
			{
				"x": -1.2317086136,
				"y": -1.782383165,
				"z": 0.7125282448,
				"element": "C" 
			},
			{
				"x": 1.9202789414,
				"y": -0.2791837332,
				"z": 1.7084288639,
				"element": "C" 
			},
			{
				"x": 2.7189754574,
				"y": -1.1772228504,
				"z": 1.4554537299,
				"element": "O" 
			},
			{
				"x": 2.3478643163,
				"y": 0.8106364115,
				"z": 2.6465993413,
				"element": "C" 
			},
			{
				"x": 1.688203617,
				"y": 1.1945016968,
				"z": 3.7421148592,
				"element": "C" 
			},
			{
				"x": -5.2421802867,
				"y": -0.2711587757,
				"z": -1.8523153957,
				"element": "H" 
			},
			{
				"x": -5.8760400945,
				"y": 1.3273048775,
				"z": -1.1309678524,
				"element": "H" 
			},
			{
				"x": -4.0968056607,
				"y": 1.2561464021,
				"z": 0.5416305979,
				"element": "H" 
			},
			{
				"x": -1.7401127481,
				"y": 0.2449421142,
				"z": 2.5127337931,
				"element": "H" 
			},
			{
				"x": -2.3222179934,
				"y": 1.3751791723,
				"z": 1.2790311913,
				"element": "H" 
			},
			{
				"x": -0.2154129073,
				"y": 1.2664292208,
				"z": 0.0620192006,
				"element": "H" 
			},
			{
				"x": 0.1164074886,
				"y": 1.6824766039,
				"z": 1.7544979482,
				"element": "H" 
			},
			{
				"x": 0.2718933694,
				"y": -1.1154967621,
				"z": -0.694856039,
				"element": "H" 
			},
			{
				"x": 0.8929748259,
				"y": -2.2275011691,
				"z": 0.5398910667,
				"element": "H" 
			},
			{
				"x": -1.2622638729,
				"y": -2.1894338794,
				"z": 1.7330971917,
				"element": "H" 
			},
			{
				"x": -1.6121780047,
				"y": -2.5323609489,
				"z": 0.0198839989,
				"element": "H" 
			},
			{
				"x": 3.356880135,
				"y": 1.1684342722,
				"z": 2.4572253955,
				"element": "H" 
			},
			{
				"x": 2.1256428943,
				"y": 1.8933197482,
				"z": 4.4490091685,
				"element": "H" 
			},
			{
				"x": 0.705489237,
				"y": 0.8024305323,
				"z": 3.9900455064,
				"element": "H" 
			}
		],
		 "valence_orbital": [ 
			{
				"type": "occ",
				"energy": -0.27798,
				"method": "rhf"
			},
			{
				"type": "occ",
				"energy": -0.26098,
				"method": "rhf"
			},
			{
				"type": "occ",
				"energy": -0.25226,
				"method": "rhf"
			},
			{
				"type": "occ",
				"energy": -0.25047,
				"method": "rhf"
			},
			{
				"type": "occ",
				"energy": -0.2345,
				"method": "rhf"
			},
			{
				"type": "unocc",
				"energy": -0.03821,
				"method": "rhf"
			},
			{
				"type": "unocc",
				"energy": -0.02958,
				"method": "rhf"
			},
			{
				"type": "unocc",
				"energy": 0.04606,
				"method": "rhf"
			},
			{
				"type": "unocc",
				"energy": 0.07259,
				"method": "rhf"
			},
			{
				"type": "unocc",
				"energy": 0.08885,
				"method": "rhf"
			}
		],
		"cosmo_sigma_profile": { 
			"-0.025": 0.0,
			"-0.024": 0.0,
			"-0.023": 0.0,
			"-0.022": 0.0,
			"-0.021": 0.0,
			"-0.02": 0.0,
			"-0.019": 0.0,
			"-0.018": 0.0,
			"-0.017": 0.0,
			"-0.016": 0.0,
			"-0.015": 0.0,
			"-0.014": 0.0,
			"-0.013": 0.0,
			"-0.012": 0.0,
			"-0.011": 0.0,
			"-0.01": 0.207504691486,
			"-0.009": 1.27301001263,
			"-0.008": 2.2379716484,
			"-0.007": 4.37901272036,
			"-0.006": 13.0336680752,
			"-0.005": 28.3618315803,
			"-0.004": 31.9474164024,
			"-0.003": 27.0650573677,
			"-0.002": 22.7421338139,
			"-0.001": 15.430496128,
			"0.0": 13.4571340479,
			"0.001": 13.1114395338,
			"0.002": 9.54532591012,
			"0.003": 8.24320243513,
			"0.004": 8.46223887922,
			"0.005": 5.75573564524,
			"0.006": 3.84091108165,
			"0.007": 2.98549335881,
			"0.008": 3.13037575647,
			"0.009": 3.36497791987,
			"0.01": 2.854298559,
			"0.011": 2.65011614897,
			"0.012": 4.04064452215,
			"0.013": 6.65947654257,
			"0.014": 8.82595177404,
			"0.015": 1.06245532565,
			"0.016": 0.0,
			"0.017": 0.0,
			"0.018": 0.0,
			"0.019": 0.0,
			"0.02": 0.0,
			"0.021": 0.0,
			"0.022": 0.0,
			"0.023": 0.0,
			"0.024": 0.0,
			"0.025": 0.0
		}
	}
}
