{
	 "smiles": "COC(=O)C1=C(C=CC(O)=C1)[N+]([O-])=O", 
	 "Tm": 375.15, 
	 "num_atms": 21, 
	 "gaussian": { 
		 "optdone": 1, 
		 "sigma_profile": "yes", 
		 "theory": "DFT", 
		 "functional": "B3LYP", 
		 "basiset": "6-31G**", 
		 "properties": { 
			 "R2extent": 3110.9975, 
			 "electric_dipole_moment_norm": 4.27330889827, 
			 "electric_quadrupole_moment_norm": 12.8300187997, 
			 "total_energy": -739.834963218, 
			 "HOMO_LUMO_gap": 0.1705, 
			 "cosmo_polarized_energy": -16.62, 
			 "cosmo_cavitation_energy": 27.01, 
			 "cosmo_dispersion_energy": -19.32, 
			 "cosmo_repulsion_energy": 1.53, 
			 "cosmo_total_nonelectrostatic_energy": 9.22, 
			 "SMD_solvation_energy": 8.67 
		},
		"coords": [
			{
				"x": -0.2311623837,
				"y": -1.0189745878,
				"z": 2.8329999921,
				"element": "C" 
			},
			{
				"x": -0.4481486444,
				"y": -1.1158120817,
				"z": 1.4134509279,
				"element": "O" 
			},
			{
				"x": -0.3722790862,
				"y": 0.0428061934,
				"z": 0.7411726024,
				"element": "C" 
			},
			{
				"x": -0.2808884362,
				"y": 1.1373746157,
				"z": 1.2521191845,
				"element": "O" 
			},
			{
				"x": -0.5472315968,
				"y": -0.1664993713,
				"z": -0.7390483555,
				"element": "C" 
			},
			{
				"x": 0.1974755698,
				"y": -1.063414748,
				"z": -1.5178421462,
				"element": "C" 
			},
			{
				"x": -0.0920759666,
				"y": -1.2553364337,
				"z": -2.8704838397,
				"element": "C" 
			},
			{
				"x": -1.11268454,
				"y": -0.5353315494,
				"z": -3.4726044072,
				"element": "C" 
			},
			{
				"x": -1.8448073245,
				"y": 0.390546652,
				"z": -2.7162208593,
				"element": "C" 
			},
			{
				"x": -2.8210876982,
				"y": 1.0825437445,
				"z": -3.3529697392,
				"element": "O" 
			},
			{
				"x": -1.5591351629,
				"y": 0.567135997,
				"z": -1.3565742762,
				"element": "C" 
			},
			{
				"x": 1.3625148961,
				"y": -1.7588560546,
				"z": -0.9678689841,
				"element": "N" 
			},
			{
				"x": 1.9232090437,
				"y": -1.2549514632,
				"z": 0.0060282723,
				"element": "O" 
			},
			{
				"x": 1.7330509827,
				"y": -2.7862539027,
				"z": -1.5366638496,
				"element": "O" 
			},
			{
				"x": -0.378168487,
				"y": -2.0267994398,
				"z": 3.2195118418,
				"element": "H" 
			},
			{
				"x": 0.7872994715,
				"y": -0.6771857157,
				"z": 3.0320081132,
				"element": "H" 
			},
			{
				"x": -0.9411979013,
				"y": -0.3221954233,
				"z": 3.2840404382,
				"element": "H" 
			},
			{
				"x": 0.5065190156,
				"y": -1.9599817742,
				"z": -3.434519549,
				"element": "H" 
			},
			{
				"x": -1.346370602,
				"y": -0.660809876,
				"z": -4.5238328689,
				"element": "H" 
			},
			{
				"x": -3.2412295887,
				"y": 1.6993766001,
				"z": -2.7385115758,
				"element": "H" 
			},
			{
				"x": -2.1275015609,
				"y": 1.2748186187,
				"z": -0.7592909217,
				"element": "H" 
			}
		],
		 "valence_orbital": [ 
			{
				"type": "occ",
				"energy": -0.30223,
				"method": "rhf"
			},
			{
				"type": "occ",
				"energy": -0.2974,
				"method": "rhf"
			},
			{
				"type": "occ",
				"energy": -0.29143,
				"method": "rhf"
			},
			{
				"type": "occ",
				"energy": -0.27615,
				"method": "rhf"
			},
			{
				"type": "occ",
				"energy": -0.25722,
				"method": "rhf"
			},
			{
				"type": "unocc",
				"energy": -0.08672,
				"method": "rhf"
			},
			{
				"type": "unocc",
				"energy": -0.0463,
				"method": "rhf"
			},
			{
				"type": "unocc",
				"energy": -0.00726,
				"method": "rhf"
			},
			{
				"type": "unocc",
				"energy": 0.02466,
				"method": "rhf"
			},
			{
				"type": "unocc",
				"energy": 0.04641,
				"method": "rhf"
			}
		],
		"cosmo_sigma_profile": { 
			"-0.025": 0.0,
			"-0.024": 0.0,
			"-0.023": 0.0,
			"-0.022": 0.0,
			"-0.021": 0.0,
			"-0.02": 0.0382771878615,
			"-0.019": 1.2129133799,
			"-0.018": 1.32753437149,
			"-0.017": 1.18313845394,
			"-0.016": 1.50117447056,
			"-0.015": 0.725155139361,
			"-0.014": 0.69633965959,
			"-0.013": 1.33844200727,
			"-0.012": 1.10589498886,
			"-0.011": 1.24578959908,
			"-0.01": 0.922090541495,
			"-0.009": 1.31719839292,
			"-0.008": 4.48784821317,
			"-0.007": 7.72598571099,
			"-0.006": 10.7951882152,
			"-0.005": 12.2768997392,
			"-0.004": 14.2174072099,
			"-0.003": 14.1730179932,
			"-0.002": 11.0313377345,
			"-0.001": 13.5031057389,
			"0.0": 19.3007019328,
			"0.001": 14.8348403598,
			"0.002": 9.73563713877,
			"0.003": 7.55996048222,
			"0.004": 7.30781210795,
			"0.005": 8.44995362034,
			"0.006": 7.56194916057,
			"0.007": 10.3260199049,
			"0.008": 10.0049140264,
			"0.009": 7.60690764904,
			"0.01": 6.01999234663,
			"0.011": 4.83780709532,
			"0.012": 1.48664050929,
			"0.013": 0.0119132743231,
			"0.014": 0.0,
			"0.015": 0.0,
			"0.016": 0.0,
			"0.017": 0.0,
			"0.018": 0.0,
			"0.019": 0.0,
			"0.02": 0.0,
			"0.021": 0.0,
			"0.022": 0.0,
			"0.023": 0.0,
			"0.024": 0.0,
			"0.025": 0.0
		}
	}
}
