{
	 "smiles": "OC(=O)C1COC2=C1C=CC=C2", 
	 "Tm": 375.15, 
	 "num_atms": 20, 
	 "gaussian": { 
		 "optdone": 1, 
		 "sigma_profile": "yes", 
		 "theory": "DFT", 
		 "functional": "B3LYP", 
		 "basiset": "6-31G**", 
		 "properties": { 
			 "R2extent": 2755.2306, 
			 "electric_dipole_moment_norm": 2.00945976322, 
			 "electric_quadrupole_moment_norm": 10.2549511798, 
			 "total_energy": -573.455026678, 
			 "HOMO_LUMO_gap": 0.20227, 
			 "cosmo_polarized_energy": -10.61, 
			 "cosmo_cavitation_energy": 23.89, 
			 "cosmo_dispersion_energy": -17.92, 
			 "cosmo_repulsion_energy": 1.43, 
			 "cosmo_total_nonelectrostatic_energy": 7.41, 
			 "SMD_solvation_energy": 5.44 
		},
		"coords": [
			{
				"x": -0.9201475771,
				"y": 3.9341866143,
				"z": -0.9448491842,
				"element": "O" 
			},
			{
				"x": -0.5349786155,
				"y": 3.6976285292,
				"z": 0.3318608194,
				"element": "C" 
			},
			{
				"x": 0.1818551969,
				"y": 4.4521210918,
				"z": 0.9495095742,
				"element": "O" 
			},
			{
				"x": -1.108738103,
				"y": 2.38255456,
				"z": 0.8354134818,
				"element": "C" 
			},
			{
				"x": -0.9250216738,
				"y": 2.2021331537,
				"z": 2.363034157,
				"element": "C" 
			},
			{
				"x": -0.4051519373,
				"y": 0.8681241218,
				"z": 2.5837483458,
				"element": "O" 
			},
			{
				"x": -0.0136423924,
				"y": 0.3655248212,
				"z": 1.3797660021,
				"element": "C" 
			},
			{
				"x": -0.3634819287,
				"y": 1.1708687931,
				"z": 0.2933454003,
				"element": "C" 
			},
			{
				"x": -0.048960008,
				"y": 0.7794233988,
				"z": -1.0023733932,
				"element": "C" 
			},
			{
				"x": 0.6285091866,
				"y": -0.4316080648,
				"z": -1.1925797042,
				"element": "C" 
			},
			{
				"x": 0.972975678,
				"y": -1.2274493014,
				"z": -0.0950958531,
				"element": "C" 
			},
			{
				"x": 0.6577890424,
				"y": -0.8419944396,
				"z": 1.2120794412,
				"element": "C" 
			},
			{
				"x": -0.4883419171,
				"y": 4.7636208342,
				"z": -1.2114895118,
				"element": "H" 
			},
			{
				"x": -2.163010748,
				"y": 2.3492072502,
				"z": 0.5335258799,
				"element": "H" 
			},
			{
				"x": -0.2023129121,
				"y": 2.9296594274,
				"z": 2.7440242439,
				"element": "H" 
			},
			{
				"x": -1.8601638168,
				"y": 2.2903547227,
				"z": 2.9199724802,
				"element": "H" 
			},
			{
				"x": -0.3202145735,
				"y": 1.4053685146,
				"z": -1.8469513109,
				"element": "H" 
			},
			{
				"x": 0.8870689749,
				"y": -0.7531412316,
				"z": -2.1965601144,
				"element": "H" 
			},
			{
				"x": 1.4986131796,
				"y": -2.1642759889,
				"z": -0.2566965178,
				"element": "H" 
			},
			{
				"x": 0.9223549447,
				"y": -1.4511068068,
				"z": 2.0694157639,
				"element": "H" 
			}
		],
		 "valence_orbital": [ 
			{
				"type": "occ",
				"energy": -0.32705,
				"method": "rhf"
			},
			{
				"type": "occ",
				"energy": -0.31523,
				"method": "rhf"
			},
			{
				"type": "occ",
				"energy": -0.29092,
				"method": "rhf"
			},
			{
				"type": "occ",
				"energy": -0.24965,
				"method": "rhf"
			},
			{
				"type": "occ",
				"energy": -0.2153,
				"method": "rhf"
			},
			{
				"type": "unocc",
				"energy": -0.01303,
				"method": "rhf"
			},
			{
				"type": "unocc",
				"energy": 0.00182,
				"method": "rhf"
			},
			{
				"type": "unocc",
				"energy": 0.01582,
				"method": "rhf"
			},
			{
				"type": "unocc",
				"energy": 0.06829,
				"method": "rhf"
			},
			{
				"type": "unocc",
				"energy": 0.09888,
				"method": "rhf"
			}
		],
		"cosmo_sigma_profile": { 
			"-0.025": 0.0,
			"-0.024": 0.0,
			"-0.023": 0.0,
			"-0.022": 0.0,
			"-0.021": 0.0,
			"-0.02": 0.0,
			"-0.019": 0.141693791951,
			"-0.018": 1.08568964889,
			"-0.017": 0.721876925338,
			"-0.016": 1.21313236822,
			"-0.015": 0.554243886618,
			"-0.014": 0.295904576175,
			"-0.013": 0.401922477154,
			"-0.012": 1.32081200255,
			"-0.011": 1.22535214149,
			"-0.01": 0.523834588178,
			"-0.009": 0.256208171771,
			"-0.008": 1.05300862456,
			"-0.007": 6.97296193468,
			"-0.006": 12.0368187081,
			"-0.005": 11.3067691551,
			"-0.004": 13.7221902386,
			"-0.003": 14.6930363092,
			"-0.002": 12.2880614201,
			"-0.001": 11.2915537377,
			"0.0": 11.7500054882,
			"0.001": 10.9229220975,
			"0.002": 11.1073230196,
			"0.003": 12.0751452224,
			"0.004": 11.7458690125,
			"0.005": 12.1000353224,
			"0.006": 7.9331591374,
			"0.007": 3.68758974302,
			"0.008": 3.26978427968,
			"0.009": 3.16463392439,
			"0.01": 4.37425420135,
			"0.011": 6.1102084535,
			"0.012": 1.05964414058,
			"0.013": 0.0,
			"0.014": 0.0,
			"0.015": 0.0,
			"0.016": 0.0,
			"0.017": 0.0,
			"0.018": 0.0,
			"0.019": 0.0,
			"0.02": 0.0,
			"0.021": 0.0,
			"0.022": 0.0,
			"0.023": 0.0,
			"0.024": 0.0,
			"0.025": 0.0
		}
	}
}
