{
	 "smiles": "CC1=CC(NC(=O)CSCC(O)=O)=CC=C1", 
	 "Tm": 476.15, 
	 "num_atms": 29, 
	 "gaussian": { 
		 "optdone": 1, 
		 "sigma_profile": "yes", 
		 "theory": "DFT", 
		 "functional": "B3LYP", 
		 "basiset": "6-31G**", 
		 "properties": { 
			 "R2extent": 6479.4144, 
			 "electric_dipole_moment_norm": 2.91550922825, 
			 "electric_quadrupole_moment_norm": 17.0055885429, 
			 "total_energy": -1105.64786727, 
			 "HOMO_LUMO_gap": 0.20245, 
			 "cosmo_polarized_energy": -16.68, 
			 "cosmo_cavitation_energy": 34.97, 
			 "cosmo_dispersion_energy": -25.1, 
			 "cosmo_repulsion_energy": 1.95, 
			 "cosmo_total_nonelectrostatic_energy": 11.83, 
			 "SMD_solvation_energy": 7.3 
		},
		"coords": [
			{
				"x": -1.4446057775,
				"y": -2.6217618686,
				"z": -1.1752979725,
				"element": "C" 
			},
			{
				"x": -1.8840809037,
				"y": -1.4882708934,
				"z": -0.278190309,
				"element": "C" 
			},
			{
				"x": -1.0390142313,
				"y": -0.393939781,
				"z": -0.0551763174,
				"element": "C" 
			},
			{
				"x": -1.4150953775,
				"y": 0.6454808458,
				"z": 0.8052708229,
				"element": "C" 
			},
			{
				"x": -0.5807205482,
				"y": 1.7703210397,
				"z": 1.0274313613,
				"element": "N" 
			},
			{
				"x": 0.7677561243,
				"y": 1.8700861697,
				"z": 1.3019472183,
				"element": "C" 
			},
			{
				"x": 1.277622395,
				"y": 2.9765994988,
				"z": 1.4285468458,
				"element": "O" 
			},
			{
				"x": 1.5654689785,
				"y": 0.5758042685,
				"z": 1.4386596619,
				"element": "C" 
			},
			{
				"x": 2.8692830588,
				"y": 0.6514988689,
				"z": 2.7229766308,
				"element": "S" 
			},
			{
				"x": 4.1026902633,
				"y": 1.7415392498,
				"z": 1.8982069715,
				"element": "C" 
			},
			{
				"x": 4.7918991575,
				"y": 1.0242826321,
				"z": 0.7622580606,
				"element": "C" 
			},
			{
				"x": 6.0878335104,
				"y": 0.7554732709,
				"z": 1.0363043223,
				"element": "O" 
			},
			{
				"x": 4.2658188497,
				"y": 0.7006010941,
				"z": -0.2842353887,
				"element": "O" 
			},
			{
				"x": -2.6746591161,
				"y": 0.6122196695,
				"z": 1.4194401464,
				"element": "C" 
			},
			{
				"x": -3.5309715972,
				"y": -0.4592262059,
				"z": 1.178880941,
				"element": "C" 
			},
			{
				"x": -3.137930319,
				"y": -1.5071254398,
				"z": 0.345266736,
				"element": "C" 
			},
			{
				"x": -2.3002643343,
				"y": -3.1069886015,
				"z": -1.6537136379,
				"element": "H" 
			},
			{
				"x": -0.9100524084,
				"y": -3.3912910153,
				"z": -0.6045029516,
				"element": "H" 
			},
			{
				"x": -0.7683334448,
				"y": -2.2726556207,
				"z": -1.9612191079,
				"element": "H" 
			},
			{
				"x": -0.088772121,
				"y": -0.3385756004,
				"z": -0.5768914354,
				"element": "H" 
			},
			{
				"x": -1.0318313649,
				"y": 2.6774233915,
				"z": 1.052477706,
				"element": "H" 
			},
			{
				"x": 2.0485375092,
				"y": 0.3442358328,
				"z": 0.4840814043,
				"element": "H" 
			},
			{
				"x": 0.9302789709,
				"y": -0.268267695,
				"z": 1.7123721874,
				"element": "H" 
			},
			{
				"x": 4.8176311502,
				"y": 2.0293322198,
				"z": 2.6697722395,
				"element": "H" 
			},
			{
				"x": 3.5683349439,
				"y": 2.6181400899,
				"z": 1.5291467441,
				"element": "H" 
			},
			{
				"x": 6.4360744465,
				"y": 0.2794212545,
				"z": 0.2629764979,
				"element": "H" 
			},
			{
				"x": -2.9692529543,
				"y": 1.4193760632,
				"z": 2.083986571,
				"element": "H" 
			},
			{
				"x": -4.5085730875,
				"y": -0.4807084023,
				"z": 1.6517119911,
				"element": "H" 
			},
			{
				"x": -3.8121717725,
				"y": -2.3409243357,
				"z": 0.1694120602,
				"element": "H" 
			}
		],
		 "valence_orbital": [ 
			{
				"type": "occ",
				"energy": -0.28193,
				"method": "rhf"
			},
			{
				"type": "occ",
				"energy": -0.26263,
				"method": "rhf"
			},
			{
				"type": "occ",
				"energy": -0.25519,
				"method": "rhf"
			},
			{
				"type": "occ",
				"energy": -0.23568,
				"method": "rhf"
			},
			{
				"type": "occ",
				"energy": -0.22292,
				"method": "rhf"
			},
			{
				"type": "unocc",
				"energy": -0.02047,
				"method": "rhf"
			},
			{
				"type": "unocc",
				"energy": -0.01349,
				"method": "rhf"
			},
			{
				"type": "unocc",
				"energy": -0.00865,
				"method": "rhf"
			},
			{
				"type": "unocc",
				"energy": 0.01907,
				"method": "rhf"
			},
			{
				"type": "unocc",
				"energy": 0.05229,
				"method": "rhf"
			}
		],
		"cosmo_sigma_profile": { 
			"-0.025": 0.0,
			"-0.024": 0.0,
			"-0.023": 0.0,
			"-0.022": 0.0,
			"-0.021": 0.0,
			"-0.02": 0.0,
			"-0.019": 0.108658684604,
			"-0.018": 0.85173094357,
			"-0.017": 0.784892506828,
			"-0.016": 1.20604697361,
			"-0.015": 0.938676868071,
			"-0.014": 1.26629099066,
			"-0.013": 1.48504350539,
			"-0.012": 1.86315556122,
			"-0.011": 1.97739914777,
			"-0.01": 1.23780670423,
			"-0.009": 2.28549447653,
			"-0.008": 4.50014288659,
			"-0.007": 7.61459764449,
			"-0.006": 13.2915930335,
			"-0.005": 16.412139037,
			"-0.004": 23.3949136842,
			"-0.003": 20.1699176785,
			"-0.002": 17.4212148763,
			"-0.001": 19.5293224577,
			"0.0": 20.5246206211,
			"0.001": 17.7861890331,
			"0.002": 15.4018575755,
			"0.003": 14.0354900742,
			"0.004": 15.2669191334,
			"0.005": 14.3423383037,
			"0.006": 8.95465329453,
			"0.007": 5.59364348334,
			"0.008": 6.31201478854,
			"0.009": 6.18274359654,
			"0.01": 4.59897181995,
			"0.011": 5.91776025301,
			"0.012": 4.49247543316,
			"0.013": 2.99001889724,
			"0.014": 0.503861677948,
			"0.015": 0.0,
			"0.016": 0.0,
			"0.017": 0.0,
			"0.018": 0.0,
			"0.019": 0.0,
			"0.02": 0.0,
			"0.021": 0.0,
			"0.022": 0.0,
			"0.023": 0.0,
			"0.024": 0.0,
			"0.025": 0.0
		}
	}
}
