{
	 "smiles": "CN1C=C(C=C1C(=O)C(Cl)(Cl)Cl)C#N", 
	 "Tm": 420.15, 
	 "num_atms": 19, 
	 "gaussian": { 
		 "optdone": 1, 
		 "sigma_profile": "yes", 
		 "theory": "DFT", 
		 "functional": "B3LYP", 
		 "basiset": "6-31G**", 
		 "properties": { 
			 "R2extent": 4829.0002, 
			 "electric_dipole_moment_norm": 4.11704819258, 
			 "electric_quadrupole_moment_norm": 32.7299672132, 
			 "total_energy": -1873.11706137, 
			 "HOMO_LUMO_gap": 0.17053, 
			 "cosmo_polarized_energy": -13.28, 
			 "cosmo_cavitation_energy": 29.97, 
			 "cosmo_dispersion_energy": -21.14, 
			 "cosmo_repulsion_energy": 1.67, 
			 "cosmo_total_nonelectrostatic_energy": 10.5, 
			 "SMD_solvation_energy": 6.48 
		},
		"coords": [
			{
				"x": 1.6429460873,
				"y": 1.8392883146,
				"z": -0.2765100565,
				"element": "C" 
			},
			{
				"x": 1.2701069592,
				"y": 0.8822836527,
				"z": -1.3207134232,
				"element": "N" 
			},
			{
				"x": 1.7578085169,
				"y": 0.9293914712,
				"z": -2.578253877,
				"element": "C" 
			},
			{
				"x": 1.2080272837,
				"y": -0.1170470477,
				"z": -3.3242086156,
				"element": "C" 
			},
			{
				"x": 0.3451127833,
				"y": -0.8256293658,
				"z": -2.4611391749,
				"element": "C" 
			},
			{
				"x": 0.3866102628,
				"y": -0.2009663779,
				"z": -1.216237697,
				"element": "C" 
			},
			{
				"x": -0.288517976,
				"y": -0.4874192568,
				"z": 0.0424828932,
				"element": "C" 
			},
			{
				"x": -0.1307904544,
				"y": 0.176403345,
				"z": 1.0500190392,
				"element": "O" 
			},
			{
				"x": -1.2773842347,
				"y": -1.7214918151,
				"z": 0.1097205639,
				"element": "C" 
			},
			{
				"x": -2.6192238133,
				"y": -1.4852848067,
				"z": -1.0746123746,
				"element": "Cl" 
			},
			{
				"x": -0.3763422405,
				"y": -3.2390879653,
				"z": -0.2697574459,
				"element": "Cl" 
			},
			{
				"x": -1.9664606669,
				"y": -1.8520357161,
				"z": 1.7456316291,
				"element": "Cl" 
			},
			{
				"x": 1.4810710766,
				"y": -0.3949740997,
				"z": -4.690846959,
				"element": "C" 
			},
			{
				"x": 1.7053530192,
				"y": -0.6216836402,
				"z": -5.8099089626,
				"element": "N" 
			},
			{
				"x": 2.3509493257,
				"y": 2.5457111066,
				"z": -0.7122220044,
				"element": "H" 
			},
			{
				"x": 2.1043363396,
				"y": 1.325494953,
				"z": 0.5670865511,
				"element": "H" 
			},
			{
				"x": 0.763880717,
				"y": 2.3723941145,
				"z": 0.0862308096,
				"element": "H" 
			},
			{
				"x": 2.4612154869,
				"y": 1.690778436,
				"z": -2.8816607511,
				"element": "H" 
			},
			{
				"x": -0.2380984726,
				"y": -1.6930253023,
				"z": -2.7241001444,
				"element": "H" 
			}
		],
		 "valence_orbital": [ 
			{
				"type": "occ",
				"energy": -0.32838,
				"method": "rhf"
			},
			{
				"type": "occ",
				"energy": -0.31786,
				"method": "rhf"
			},
			{
				"type": "occ",
				"energy": -0.29289,
				"method": "rhf"
			},
			{
				"type": "occ",
				"energy": -0.28039,
				"method": "rhf"
			},
			{
				"type": "occ",
				"energy": -0.2613,
				"method": "rhf"
			},
			{
				"type": "unocc",
				"energy": -0.09077,
				"method": "rhf"
			},
			{
				"type": "unocc",
				"energy": -0.05187,
				"method": "rhf"
			},
			{
				"type": "unocc",
				"energy": -0.02753,
				"method": "rhf"
			},
			{
				"type": "unocc",
				"energy": -0.00928,
				"method": "rhf"
			},
			{
				"type": "unocc",
				"energy": -0.00843,
				"method": "rhf"
			}
		],
		"cosmo_sigma_profile": { 
			"-0.025": 0.0,
			"-0.024": 0.0,
			"-0.023": 0.0,
			"-0.022": 0.0,
			"-0.021": 0.0,
			"-0.02": 0.0,
			"-0.019": 0.0,
			"-0.018": 0.0,
			"-0.017": 0.0,
			"-0.016": 0.0,
			"-0.015": 0.0,
			"-0.014": 0.0,
			"-0.013": 0.0,
			"-0.012": 0.22868103777,
			"-0.011": 3.02064061835,
			"-0.01": 2.6081568729,
			"-0.009": 3.0319394055,
			"-0.008": 3.96289088002,
			"-0.007": 5.80415514225,
			"-0.006": 9.02200854611,
			"-0.005": 13.0554933392,
			"-0.004": 21.079564144,
			"-0.003": 17.6213855798,
			"-0.002": 16.1922535074,
			"-0.001": 20.4712673317,
			"0.0": 22.2905518874,
			"0.001": 22.891172824,
			"0.002": 28.4837286925,
			"0.003": 16.0783382851,
			"0.004": 4.29046800092,
			"0.005": 3.96608303037,
			"0.006": 5.10262169507,
			"0.007": 4.53321262798,
			"0.008": 5.3502451283,
			"0.009": 5.83444263556,
			"0.01": 5.63082542751,
			"0.011": 3.48065485877,
			"0.012": 2.37717632351,
			"0.013": 1.77606097897,
			"0.014": 0.0758385619481,
			"0.015": 0.0,
			"0.016": 0.0,
			"0.017": 0.0,
			"0.018": 0.0,
			"0.019": 0.0,
			"0.02": 0.0,
			"0.021": 0.0,
			"0.022": 0.0,
			"0.023": 0.0,
			"0.024": 0.0,
			"0.025": 0.0
		}
	}
}
