{
	 "smiles": "CC1=CN2C(C=C1)=NC=C(C(O)=O)C2=O", 
	 "Tm": 533.15, 
	 "num_atms": 23, 
	 "gaussian": { 
		 "optdone": 1, 
		 "sigma_profile": "yes", 
		 "theory": "DFT", 
		 "functional": "B3LYP", 
		 "basiset": "6-31G**", 
		 "properties": { 
			 "R2extent": 4571.026, 
			 "electric_dipole_moment_norm": 9.63178710365, 
			 "electric_quadrupole_moment_norm": 25.3078832795, 
			 "total_energy": -721.093011392, 
			 "HOMO_LUMO_gap": 0.15173, 
			 "cosmo_polarized_energy": -17.87, 
			 "cosmo_cavitation_energy": 27.55, 
			 "cosmo_dispersion_energy": -20.81, 
			 "cosmo_repulsion_energy": 1.58, 
			 "cosmo_total_nonelectrostatic_energy": 8.31, 
			 "SMD_solvation_energy": 5.26 
		},
		"coords": [
			{
				"x": -1.3033003603,
				"y": -3.4957108037,
				"z": -1.1564289367,
				"element": "C" 
			},
			{
				"x": -1.1077255644,
				"y": -2.059555986,
				"z": -0.7460687038,
				"element": "C" 
			},
			{
				"x": -0.8737917714,
				"y": -1.0819375269,
				"z": -1.6711199235,
				"element": "C" 
			},
			{
				"x": -0.6929976322,
				"y": 0.2382967175,
				"z": -1.3072687571,
				"element": "N" 
			},
			{
				"x": -0.7392860898,
				"y": 0.6454780167,
				"z": 0.0240647483,
				"element": "C" 
			},
			{
				"x": -0.9825959521,
				"y": -0.3671469544,
				"z": 0.9941473055,
				"element": "C" 
			},
			{
				"x": -1.1607352604,
				"y": -1.6721641917,
				"z": 0.6271966915,
				"element": "C" 
			},
			{
				"x": -0.5680198689,
				"y": 1.9127265665,
				"z": 0.4007521695,
				"element": "N" 
			},
			{
				"x": -0.3434088867,
				"y": 2.8120049551,
				"z": -0.563389577,
				"element": "C" 
			},
			{
				"x": -0.2750230384,
				"y": 2.5285016934,
				"z": -1.922474744,
				"element": "C" 
			},
			{
				"x": -0.0153694404,
				"y": 3.6463049326,
				"z": -2.8879060383,
				"element": "C" 
			},
			{
				"x": 0.0384293594,
				"y": 3.3086849754,
				"z": -4.1846052383,
				"element": "O" 
			},
			{
				"x": 0.1368786839,
				"y": 4.7905630743,
				"z": -2.5128099092,
				"element": "O" 
			},
			{
				"x": -0.4521662815,
				"y": 1.1886205776,
				"z": -2.3697897454,
				"element": "C" 
			},
			{
				"x": -0.4210516341,
				"y": 0.7720174301,
				"z": -3.5374647781,
				"element": "O" 
			},
			{
				"x": -0.5491761619,
				"y": -4.1418458455,
				"z": -0.6934789201,
				"element": "H" 
			},
			{
				"x": -1.231663871,
				"y": -3.6154632805,
				"z": -2.2398448755,
				"element": "H" 
			},
			{
				"x": -2.2852589729,
				"y": -3.8638454323,
				"z": -0.8390040099,
				"element": "H" 
			},
			{
				"x": -0.811260944,
				"y": -1.2490284516,
				"z": -2.738233378,
				"element": "H" 
			},
			{
				"x": -1.0164333161,
				"y": -0.0388059276,
				"z": 2.0258382185,
				"element": "H" 
			},
			{
				"x": -1.3452572643,
				"y": -2.4282622619,
				"z": 1.3852858655,
				"element": "H" 
			},
			{
				"x": -0.2039667229,
				"y": 3.8449145626,
				"z": -0.2546799207,
				"element": "H" 
			},
			{
				"x": -0.1102190095,
				"y": 2.3376531603,
				"z": -4.2715175432,
				"element": "H" 
			}
		],
		 "valence_orbital": [ 
			{
				"type": "occ",
				"energy": -0.29749,
				"method": "rhf"
			},
			{
				"type": "occ",
				"energy": -0.29337,
				"method": "rhf"
			},
			{
				"type": "occ",
				"energy": -0.28617,
				"method": "rhf"
			},
			{
				"type": "occ",
				"energy": -0.2581,
				"method": "rhf"
			},
			{
				"type": "occ",
				"energy": -0.24147,
				"method": "rhf"
			},
			{
				"type": "unocc",
				"energy": -0.08974,
				"method": "rhf"
			},
			{
				"type": "unocc",
				"energy": -0.06754,
				"method": "rhf"
			},
			{
				"type": "unocc",
				"energy": -0.01042,
				"method": "rhf"
			},
			{
				"type": "unocc",
				"energy": 0.01684,
				"method": "rhf"
			},
			{
				"type": "unocc",
				"energy": 0.07299,
				"method": "rhf"
			}
		],
		"cosmo_sigma_profile": { 
			"-0.025": 0.0,
			"-0.024": 0.0,
			"-0.023": 0.0,
			"-0.022": 0.0,
			"-0.021": 0.0,
			"-0.02": 0.0,
			"-0.019": 0.0,
			"-0.018": 0.0,
			"-0.017": 0.0,
			"-0.016": 0.0,
			"-0.015": 0.0,
			"-0.014": 0.0,
			"-0.013": 0.0,
			"-0.012": 0.0,
			"-0.011": 0.0,
			"-0.01": 0.0,
			"-0.009": 1.78180756055,
			"-0.008": 5.97581656813,
			"-0.007": 9.78316725888,
			"-0.006": 12.0144350109,
			"-0.005": 19.491067462,
			"-0.004": 19.852230859,
			"-0.003": 19.9898229467,
			"-0.002": 23.5472028872,
			"-0.001": 25.8094773439,
			"0.0": 12.3854272393,
			"0.001": 6.83801090696,
			"0.002": 6.09617278553,
			"0.003": 5.19858307844,
			"0.004": 4.03208792669,
			"0.005": 3.6853285283,
			"0.006": 5.36236392623,
			"0.007": 4.98662881956,
			"0.008": 4.23217007627,
			"0.009": 5.23192696396,
			"0.01": 7.15074359596,
			"0.011": 5.64395041168,
			"0.012": 6.72738774299,
			"0.013": 4.27889266118,
			"0.014": 1.62068454009,
			"0.015": 0.0886561515128,
			"0.016": 0.0,
			"0.017": 0.0,
			"0.018": 0.0,
			"0.019": 0.0,
			"0.02": 0.0,
			"0.021": 0.0,
			"0.022": 0.0,
			"0.023": 0.0,
			"0.024": 0.0,
			"0.025": 0.0
		}
	}
}
