{
	 "smiles": "OC(=O)CSC1=NC=CN1C1=CC=C(Br)C=C1", 
	 "Tm": 477.15, 
	 "num_atms": 26, 
	 "gaussian": { 
		 "optdone": 1, 
		 "sigma_profile": "yes", 
		 "theory": "DFT", 
		 "functional": "B3LYP", 
		 "basiset": "6-31G**", 
		 "properties": { 
			 "R2extent": 11369.0041, 
			 "electric_dipole_moment_norm": 7.32975394607, 
			 "electric_quadrupole_moment_norm": 33.4672183, 
			 "total_energy": -3654.14055222, 
			 "HOMO_LUMO_gap": 0.18058, 
			 "cosmo_polarized_energy": -16.45, 
			 "cosmo_cavitation_energy": 34.83, 
			 "cosmo_dispersion_energy": -25.71, 
			 "cosmo_repulsion_energy": 1.96, 
			 "cosmo_total_nonelectrostatic_energy": 11.08, 
			 "SMD_solvation_energy": 5.85 
		},
		"coords": [
			{
				"x": -0.853893808,
				"y": 3.644370252,
				"z": -2.3611666634,
				"element": "O" 
			},
			{
				"x": 0.4059113022,
				"y": 3.3464919454,
				"z": -2.6756905417,
				"element": "C" 
			},
			{
				"x": 1.0870075014,
				"y": 4.0459916214,
				"z": -3.3909437247,
				"element": "O" 
			},
			{
				"x": 0.9572646046,
				"y": 2.0247697635,
				"z": -2.115758299,
				"element": "C" 
			},
			{
				"x": 1.1909112979,
				"y": 1.9600926032,
				"z": -0.2868417129,
				"element": "S" 
			},
			{
				"x": -0.457598778,
				"y": 1.5730651522,
				"z": 0.2151689466,
				"element": "C" 
			},
			{
				"x": -1.5489022491,
				"y": 1.8096787533,
				"z": -0.4915743467,
				"element": "N" 
			},
			{
				"x": -2.6113598293,
				"y": 1.4024680802,
				"z": 0.2893455176,
				"element": "C" 
			},
			{
				"x": -2.1561546655,
				"y": 0.9305223162,
				"z": 1.485926479,
				"element": "C" 
			},
			{
				"x": -0.7665562419,
				"y": 1.0286011174,
				"z": 1.437855694,
				"element": "N" 
			},
			{
				"x": 0.1227527064,
				"y": 0.6571579775,
				"z": 2.4945194854,
				"element": "C" 
			},
			{
				"x": 1.1144510145,
				"y": -0.3041676003,
				"z": 2.279327186,
				"element": "C" 
			},
			{
				"x": 1.962926487,
				"y": -0.6706174691,
				"z": 3.3223664063,
				"element": "C" 
			},
			{
				"x": 1.8004101499,
				"y": -0.083554072,
				"z": 4.5772782582,
				"element": "C" 
			},
			{
				"x": 2.9529640318,
				"y": -0.5937848965,
				"z": 6.0074853605,
				"element": "Br" 
			},
			{
				"x": 0.8075703346,
				"y": 0.8693134623,
				"z": 4.8032384061,
				"element": "C" 
			},
			{
				"x": -0.0292680111,
				"y": 1.2445998951,
				"z": 3.7536631476,
				"element": "C" 
			},
			{
				"x": -1.248439894,
				"y": 2.9572078665,
				"z": -1.7531201266,
				"element": "H" 
			},
			{
				"x": 0.3241616437,
				"y": 1.1805243498,
				"z": -2.4024971584,
				"element": "H" 
			},
			{
				"x": 1.9584022107,
				"y": 1.8873579518,
				"z": -2.5245266414,
				"element": "H" 
			},
			{
				"x": -3.6296521454,
				"y": 1.4799222064,
				"z": -0.0620302576,
				"element": "H" 
			},
			{
				"x": -2.6555706759,
				"y": 0.5151758785,
				"z": 2.3466404783,
				"element": "H" 
			},
			{
				"x": 1.2194667992,
				"y": -0.7646116519,
				"z": 1.3034934625,
				"element": "H" 
			},
			{
				"x": 2.7354771757,
				"y": -1.4137683606,
				"z": 3.1635084873,
				"element": "H" 
			},
			{
				"x": 0.6954656968,
				"y": 1.320234458,
				"z": 5.7822569529,
				"element": "H" 
			},
			{
				"x": -0.7935466581,
				"y": 1.9995583998,
				"z": 3.907075204,
				"element": "H" 
			}
		],
		 "valence_orbital": [ 
			{
				"type": "occ",
				"energy": -0.29078,
				"method": "rhf"
			},
			{
				"type": "occ",
				"energy": -0.29063,
				"method": "rhf"
			},
			{
				"type": "occ",
				"energy": -0.26326,
				"method": "rhf"
			},
			{
				"type": "occ",
				"energy": -0.25416,
				"method": "rhf"
			},
			{
				"type": "occ",
				"energy": -0.22897,
				"method": "rhf"
			},
			{
				"type": "unocc",
				"energy": -0.04839,
				"method": "rhf"
			},
			{
				"type": "unocc",
				"energy": -0.04319,
				"method": "rhf"
			},
			{
				"type": "unocc",
				"energy": -0.01394,
				"method": "rhf"
			},
			{
				"type": "unocc",
				"energy": -0.01162,
				"method": "rhf"
			},
			{
				"type": "unocc",
				"energy": 0.00534,
				"method": "rhf"
			}
		],
		"cosmo_sigma_profile": { 
			"-0.025": 0.0,
			"-0.024": 0.0,
			"-0.023": 0.0,
			"-0.022": 0.0,
			"-0.021": 0.0,
			"-0.02": 0.0,
			"-0.019": 0.0,
			"-0.018": 0.0,
			"-0.017": 0.0,
			"-0.016": 0.0,
			"-0.015": 0.0,
			"-0.014": 0.0,
			"-0.013": 0.0,
			"-0.012": 0.0,
			"-0.011": 0.0,
			"-0.01": 0.411693991725,
			"-0.009": 2.9070071011,
			"-0.008": 11.4749319383,
			"-0.007": 16.4813251579,
			"-0.006": 14.7504564676,
			"-0.005": 16.7601296778,
			"-0.004": 15.8519889771,
			"-0.003": 14.9280080081,
			"-0.002": 17.3960376604,
			"-0.001": 20.4561647609,
			"0.0": 20.8109349009,
			"0.001": 28.7852834493,
			"0.002": 27.7056381045,
			"0.003": 19.1461642468,
			"0.004": 19.5853797613,
			"0.005": 6.87947410616,
			"0.006": 2.89659567283,
			"0.007": 2.74219101479,
			"0.008": 2.47523580621,
			"0.009": 2.84761678111,
			"0.01": 3.55060651359,
			"0.011": 5.80183726318,
			"0.012": 6.78693057335,
			"0.013": 3.49483408626,
			"0.014": 0.460094886727,
			"0.015": 0.0,
			"0.016": 0.0,
			"0.017": 0.0,
			"0.018": 0.0,
			"0.019": 0.0,
			"0.02": 0.0,
			"0.021": 0.0,
			"0.022": 0.0,
			"0.023": 0.0,
			"0.024": 0.0,
			"0.025": 0.0
		}
	}
}
