{
	 "smiles": "COC1=CC(NCC(=O)NN)=CC=C1", 
	 "Tm": 383.15, 
	 "num_atms": 27, 
	 "gaussian": { 
		 "optdone": 1, 
		 "sigma_profile": "yes", 
		 "theory": "DFT", 
		 "functional": "B3LYP", 
		 "basiset": "6-31G**", 
		 "properties": { 
			 "R2extent": 3247.6602, 
			 "electric_dipole_moment_norm": 2.03392925639, 
			 "electric_quadrupole_moment_norm": 14.8534679341, 
			 "total_energy": -665.462908447, 
			 "HOMO_LUMO_gap": 0.20894, 
			 "cosmo_polarized_energy": -16.8, 
			 "cosmo_cavitation_energy": 30.78, 
			 "cosmo_dispersion_energy": -21.54, 
			 "cosmo_repulsion_energy": 1.72, 
			 "cosmo_total_nonelectrostatic_energy": 10.97, 
			 "SMD_solvation_energy": 6.67 
		},
		"coords": [
			{
				"x": -2.7675733036,
				"y": 0.2142861179,
				"z": -1.5576592737,
				"element": "C" 
			},
			{
				"x": -1.9225185864,
				"y": -0.4622971891,
				"z": -2.4749840472,
				"element": "O" 
			},
			{
				"x": -0.6062016513,
				"y": -0.6248070748,
				"z": -2.1540228022,
				"element": "C" 
			},
			{
				"x": -0.0336751689,
				"y": -0.1580321265,
				"z": -0.9643168528,
				"element": "C" 
			},
			{
				"x": 1.3352696483,
				"y": -0.3702502047,
				"z": -0.7207456431,
				"element": "C" 
			},
			{
				"x": 1.9320234931,
				"y": 0.0491495935,
				"z": 0.4822637973,
				"element": "N" 
			},
			{
				"x": 1.3080014211,
				"y": 1.0798192702,
				"z": 1.2975913456,
				"element": "C" 
			},
			{
				"x": 0.2336229183,
				"y": 0.5553183262,
				"z": 2.261322754,
				"element": "C" 
			},
			{
				"x": -0.6726172595,
				"y": 1.2716139705,
				"z": 2.6728462801,
				"element": "O" 
			},
			{
				"x": 0.3990701389,
				"y": -0.7379296172,
				"z": 2.6489907929,
				"element": "N" 
			},
			{
				"x": -0.5559646255,
				"y": -1.3951277105,
				"z": 3.4509975173,
				"element": "N" 
			},
			{
				"x": 2.1134438829,
				"y": -1.0472254411,
				"z": -1.672059562,
				"element": "C" 
			},
			{
				"x": 1.5228162995,
				"y": -1.5027402461,
				"z": -2.8497676357,
				"element": "C" 
			},
			{
				"x": 0.1704220074,
				"y": -1.3007893095,
				"z": -3.1046201175,
				"element": "C" 
			},
			{
				"x": -2.4376369284,
				"y": 1.2468368925,
				"z": -1.3860539614,
				"element": "H" 
			},
			{
				"x": -2.821604508,
				"y": -0.3073068826,
				"z": -0.5935006665,
				"element": "H" 
			},
			{
				"x": -3.758526081,
				"y": 0.2261022336,
				"z": -2.0142440388,
				"element": "H" 
			},
			{
				"x": -0.6405124112,
				"y": 0.3624858443,
				"z": -0.235737208,
				"element": "H" 
			},
			{
				"x": 2.9357737646,
				"y": 0.1385796613,
				"z": 0.4077909442,
				"element": "H" 
			},
			{
				"x": 0.8395476273,
				"y": 1.8770337208,
				"z": 0.7058877833,
				"element": "H" 
			},
			{
				"x": 2.0835248844,
				"y": 1.5482661009,
				"z": 1.9127588771,
				"element": "H" 
			},
			{
				"x": 1.0293690019,
				"y": -1.3283433603,
				"z": 2.1236813459,
				"element": "H" 
			},
			{
				"x": -1.4740640648,
				"y": -1.0660579881,
				"z": 3.148695633,
				"element": "H" 
			},
			{
				"x": -0.4491893482,
				"y": -1.0412787446,
				"z": 4.4015201556,
				"element": "H" 
			},
			{
				"x": 3.1710359935,
				"y": -1.2148144132,
				"z": -1.4854956294,
				"element": "H" 
			},
			{
				"x": 2.1322464362,
				"y": -2.023163563,
				"z": -3.5832934279,
				"element": "H" 
			},
			{
				"x": -0.3009835806,
				"y": -1.6495278603,
				"z": -4.0164463603,
				"element": "H" 
			}
		],
		 "valence_orbital": [ 
			{
				"type": "occ",
				"energy": -0.28193,
				"method": "rhf"
			},
			{
				"type": "occ",
				"energy": -0.257,
				"method": "rhf"
			},
			{
				"type": "occ",
				"energy": -0.25266,
				"method": "rhf"
			},
			{
				"type": "occ",
				"energy": -0.22937,
				"method": "rhf"
			},
			{
				"type": "occ",
				"energy": -0.1999,
				"method": "rhf"
			},
			{
				"type": "unocc",
				"energy": 0.00904,
				"method": "rhf"
			},
			{
				"type": "unocc",
				"energy": 0.01382,
				"method": "rhf"
			},
			{
				"type": "unocc",
				"energy": 0.02384,
				"method": "rhf"
			},
			{
				"type": "unocc",
				"energy": 0.0754,
				"method": "rhf"
			},
			{
				"type": "unocc",
				"energy": 0.08303,
				"method": "rhf"
			}
		],
		"cosmo_sigma_profile": { 
			"-0.025": 0.0,
			"-0.024": 0.0,
			"-0.023": 0.0,
			"-0.022": 0.0,
			"-0.021": 0.0,
			"-0.02": 0.0,
			"-0.019": 0.0,
			"-0.018": 0.0,
			"-0.017": 0.0,
			"-0.016": 0.0,
			"-0.015": 0.0,
			"-0.014": 0.135205665016,
			"-0.013": 1.37971344182,
			"-0.012": 2.12708618075,
			"-0.011": 3.20900380577,
			"-0.01": 5.16212756275,
			"-0.009": 4.39342551969,
			"-0.008": 5.85053013803,
			"-0.007": 5.84760389017,
			"-0.006": 8.98426719635,
			"-0.005": 19.6433371494,
			"-0.004": 21.7626757683,
			"-0.003": 22.2006200205,
			"-0.002": 17.4542017973,
			"-0.001": 11.5939042306,
			"0.0": 10.6025908573,
			"0.001": 12.0528594505,
			"0.002": 10.1774683413,
			"0.003": 9.72354156018,
			"0.004": 11.5849113783,
			"0.005": 11.7512376444,
			"0.006": 12.2931991572,
			"0.007": 8.07939495218,
			"0.008": 3.20605721544,
			"0.009": 2.86111404696,
			"0.01": 3.45313775091,
			"0.011": 2.74483175027,
			"0.012": 2.53325401057,
			"0.013": 4.08435321502,
			"0.014": 5.33621299127,
			"0.015": 1.52132628507,
			"0.016": 0.580939119354,
			"0.017": 0.288936538209,
			"0.018": 0.0,
			"0.019": 0.0,
			"0.02": 0.0,
			"0.021": 0.0,
			"0.022": 0.0,
			"0.023": 0.0,
			"0.024": 0.0,
			"0.025": 0.0
		}
	}
}
