{
	 "smiles": "NC1=C(Cl)C=C(Br)C=C1", 
	 "Tm": 343.15, 
	 "num_atms": 14, 
	 "gaussian": { 
		 "optdone": 1, 
		 "sigma_profile": "yes", 
		 "theory": "DFT", 
		 "functional": "B3LYP", 
		 "basiset": "6-31G**", 
		 "properties": { 
			 "R2extent": 3283.2593, 
			 "electric_dipole_moment_norm": 3.15542489373, 
			 "electric_quadrupole_moment_norm": 13.4536877435, 
			 "total_energy": -3318.00355661, 
			 "HOMO_LUMO_gap": 0.19257, 
			 "cosmo_polarized_energy": -7.73, 
			 "cosmo_cavitation_energy": 22.05, 
			 "cosmo_dispersion_energy": -17.2, 
			 "cosmo_repulsion_energy": 1.41, 
			 "cosmo_total_nonelectrostatic_energy": 6.27, 
			 "SMD_solvation_energy": 2.3 
		},
		"coords": [
			{
				"x": -0.9718266191,
				"y": 3.2320072594,
				"z": 3.0959566489,
				"element": "N" 
			},
			{
				"x": -0.4897531405,
				"y": 2.1103107925,
				"z": 2.444427475,
				"element": "C" 
			},
			{
				"x": -1.287939828,
				"y": 0.9692776643,
				"z": 2.2306313183,
				"element": "C" 
			},
			{
				"x": -2.9252638492,
				"y": 0.9353487239,
				"z": 2.8839544191,
				"element": "Cl" 
			},
			{
				"x": -0.8268019189,
				"y": -0.1390037341,
				"z": 1.5260704402,
				"element": "C" 
			},
			{
				"x": 0.4677239058,
				"y": -0.1254601698,
				"z": 1.0148185266,
				"element": "C" 
			},
			{
				"x": 1.113929833,
				"y": -1.6409532047,
				"z": 0.0473765754,
				"element": "Br" 
			},
			{
				"x": 1.2918401217,
				"y": 0.9826411599,
				"z": 1.2064483286,
				"element": "C" 
			},
			{
				"x": 0.813643679,
				"y": 2.0804432593,
				"z": 1.9123509266,
				"element": "C" 
			},
			{
				"x": -1.77678679,
				"y": 3.0896299879,
				"z": 3.6892426241,
				"element": "H" 
			},
			{
				"x": -0.2750999253,
				"y": 3.8434685275,
				"z": 3.4950870992,
				"element": "H" 
			},
			{
				"x": -1.472990397,
				"y": -0.9965859619,
				"z": 1.3861525769,
				"element": "H" 
			},
			{
				"x": 2.2999989462,
				"y": 0.9886633773,
				"z": 0.8084731074,
				"element": "H" 
			},
			{
				"x": 1.4557259824,
				"y": 2.9456123185,
				"z": 2.0549099338,
				"element": "H" 
			}
		],
		 "valence_orbital": [ 
			{
				"type": "occ",
				"energy": -0.3239,
				"method": "rhf"
			},
			{
				"type": "occ",
				"energy": -0.28606,
				"method": "rhf"
			},
			{
				"type": "occ",
				"energy": -0.28529,
				"method": "rhf"
			},
			{
				"type": "occ",
				"energy": -0.2582,
				"method": "rhf"
			},
			{
				"type": "occ",
				"energy": -0.21217,
				"method": "rhf"
			},
			{
				"type": "unocc",
				"energy": -0.0196,
				"method": "rhf"
			},
			{
				"type": "unocc",
				"energy": -0.00367,
				"method": "rhf"
			},
			{
				"type": "unocc",
				"energy": -0.00263,
				"method": "rhf"
			},
			{
				"type": "unocc",
				"energy": 0.04191,
				"method": "rhf"
			},
			{
				"type": "unocc",
				"energy": 0.07744,
				"method": "rhf"
			}
		],
		"cosmo_sigma_profile": { 
			"-0.025": 0.0,
			"-0.024": 0.0,
			"-0.023": 0.0,
			"-0.022": 0.0,
			"-0.021": 0.0,
			"-0.02": 0.0,
			"-0.019": 0.0,
			"-0.018": 0.0,
			"-0.017": 0.0,
			"-0.016": 0.0,
			"-0.015": 0.0,
			"-0.014": 0.334479702196,
			"-0.013": 1.48279299286,
			"-0.012": 2.0754603769,
			"-0.011": 2.86613238551,
			"-0.01": 2.37212255679,
			"-0.009": 2.50344667839,
			"-0.008": 2.87384844702,
			"-0.007": 6.59520093229,
			"-0.006": 6.81455136496,
			"-0.005": 6.1686734341,
			"-0.004": 7.31877527727,
			"-0.003": 6.94430050535,
			"-0.002": 9.8492903966,
			"-0.001": 8.77458113502,
			"0.0": 11.5575658677,
			"0.001": 15.0786422581,
			"0.002": 20.0711550113,
			"0.003": 26.2500704238,
			"0.004": 23.1529388026,
			"0.005": 13.3384947785,
			"0.006": 1.51897332863,
			"0.007": 0.696525347827,
			"0.008": 0.994813855776,
			"0.009": 0.539504098357,
			"0.01": 0.441132632611,
			"0.011": 0.612272700836,
			"0.012": 0.748027819565,
			"0.013": 0.105172774234,
			"0.014": 0.0,
			"0.015": 0.0,
			"0.016": 0.0,
			"0.017": 0.0,
			"0.018": 0.0,
			"0.019": 0.0,
			"0.02": 0.0,
			"0.021": 0.0,
			"0.022": 0.0,
			"0.023": 0.0,
			"0.024": 0.0,
			"0.025": 0.0
		}
	}
}
