{
	 "smiles": "ClC1=NC2=CC=CC=C2N1", 
	 "Tm": 473.15, 
	 "num_atms": 15, 
	 "gaussian": { 
		 "optdone": 1, 
		 "sigma_profile": "yes", 
		 "theory": "DFT", 
		 "functional": "B3LYP", 
		 "basiset": "6-31G**", 
		 "properties": { 
			 "R2extent": 3324.4053, 
			 "electric_dipole_moment_norm": 3.37293372748, 
			 "electric_quadrupole_moment_norm": 13.2819765863, 
			 "total_energy": -839.457969679, 
			 "HOMO_LUMO_gap": 0.20849, 
			 "cosmo_polarized_energy": -11.0, 
			 "cosmo_cavitation_energy": 21.13, 
			 "cosmo_dispersion_energy": -16.36, 
			 "cosmo_repulsion_energy": 1.32, 
			 "cosmo_total_nonelectrostatic_energy": 6.09, 
			 "SMD_solvation_energy": 1.16 
		},
		"coords": [
			{
				"x": 4.8223807442,
				"y": -2.615068815,
				"z": -0.0573270497,
				"element": "Cl" 
			},
			{
				"x": 3.2038163487,
				"y": -2.0102773018,
				"z": -0.0771040256,
				"element": "C" 
			},
			{
				"x": 2.5821669531,
				"y": -1.5560763328,
				"z": -1.1214771466,
				"element": "N" 
			},
			{
				"x": 1.327355533,
				"y": -1.1945423054,
				"z": -0.6349341321,
				"element": "C" 
			},
			{
				"x": 0.2339649103,
				"y": -0.6437533612,
				"z": -1.3128949819,
				"element": "C" 
			},
			{
				"x": -0.9176402635,
				"y": -0.3732289218,
				"z": -0.5799391085,
				"element": "C" 
			},
			{
				"x": -0.9904038841,
				"y": -0.6417510165,
				"z": 0.8013476164,
				"element": "C" 
			},
			{
				"x": 0.0857320152,
				"y": -1.1897820869,
				"z": 1.4963328048,
				"element": "C" 
			},
			{
				"x": 1.2358676021,
				"y": -1.4576826474,
				"z": 0.7536365195,
				"element": "C" 
			},
			{
				"x": 2.4742897757,
				"y": -1.9887389873,
				"z": 1.08780838,
				"element": "N" 
			},
			{
				"x": 0.2974492267,
				"y": -0.4397389119,
				"z": -2.3765225552,
				"element": "H" 
			},
			{
				"x": -1.7814869011,
				"y": 0.0542900819,
				"z": -1.0798729695,
				"element": "H" 
			},
			{
				"x": -1.9069800703,
				"y": -0.4164820211,
				"z": 1.3381674109,
				"element": "H" 
			},
			{
				"x": 0.0263594869,
				"y": -1.395466184,
				"z": 2.560651238,
				"element": "H" 
			},
			{
				"x": 2.7934285231,
				"y": -2.3005011888,
				"z": 1.9916279995,
				"element": "H" 
			}
		],
		 "valence_orbital": [ 
			{
				"type": "occ",
				"energy": -0.33273,
				"method": "rhf"
			},
			{
				"type": "occ",
				"energy": -0.313,
				"method": "rhf"
			},
			{
				"type": "occ",
				"energy": -0.28791,
				"method": "rhf"
			},
			{
				"type": "occ",
				"energy": -0.2362,
				"method": "rhf"
			},
			{
				"type": "occ",
				"energy": -0.23042,
				"method": "rhf"
			},
			{
				"type": "unocc",
				"energy": -0.02193,
				"method": "rhf"
			},
			{
				"type": "unocc",
				"energy": 0.01358,
				"method": "rhf"
			},
			{
				"type": "unocc",
				"energy": 0.02644,
				"method": "rhf"
			},
			{
				"type": "unocc",
				"energy": 0.04416,
				"method": "rhf"
			},
			{
				"type": "unocc",
				"energy": 0.07329,
				"method": "rhf"
			}
		],
		"cosmo_sigma_profile": { 
			"-0.025": 0.0,
			"-0.024": 0.0,
			"-0.023": 0.0,
			"-0.022": 0.0,
			"-0.021": 0.0,
			"-0.02": 0.0,
			"-0.019": 0.0,
			"-0.018": 0.240439580248,
			"-0.017": 1.43541680814,
			"-0.016": 1.29095675588,
			"-0.015": 0.981966886075,
			"-0.014": 1.4815079414,
			"-0.013": 0.731280671673,
			"-0.012": 1.48528386678,
			"-0.011": 1.22891652819,
			"-0.01": 0.97397115683,
			"-0.009": 1.36382147839,
			"-0.008": 1.3316473764,
			"-0.007": 3.10376662551,
			"-0.006": 6.71748194692,
			"-0.005": 8.26289055417,
			"-0.004": 10.6075791726,
			"-0.003": 10.2939400114,
			"-0.002": 10.1316401682,
			"-0.001": 11.8308930078,
			"0.0": 11.55725202,
			"0.001": 13.074413823,
			"0.002": 15.2711950013,
			"0.003": 18.0242277388,
			"0.004": 13.2634649559,
			"0.005": 11.2113999128,
			"0.006": 5.24330791475,
			"0.007": 1.8049730251,
			"0.008": 1.82810460022,
			"0.009": 1.23937725972,
			"0.01": 0.614121033216,
			"0.011": 0.868137993225,
			"0.012": 1.5259996911,
			"0.013": 1.04033304696,
			"0.014": 0.958376056273,
			"0.015": 0.946272146679,
			"0.016": 0.762233751329,
			"0.017": 0.0257935109958,
			"0.018": 0.0,
			"0.019": 0.0,
			"0.02": 0.0,
			"0.021": 0.0,
			"0.022": 0.0,
			"0.023": 0.0,
			"0.024": 0.0,
			"0.025": 0.0
		}
	}
}
