{
	 "smiles": "[O-][N+](=O)C1=CC(Cl)=C(CCl)C=C1", 
	 "Tm": 324.15, 
	 "num_atms": 17, 
	 "gaussian": { 
		 "optdone": 1, 
		 "sigma_profile": "yes", 
		 "theory": "DFT", 
		 "functional": "B3LYP", 
		 "basiset": "6-31G**", 
		 "properties": { 
			 "R2extent": 4869.887, 
			 "electric_dipole_moment_norm": 3.44205145952, 
			 "electric_quadrupole_moment_norm": 13.4634157631, 
			 "total_energy": -1395.24270374, 
			 "HOMO_LUMO_gap": 0.173, 
			 "cosmo_polarized_energy": -10.07, 
			 "cosmo_cavitation_energy": 25.81, 
			 "cosmo_dispersion_energy": -18.91, 
			 "cosmo_repulsion_energy": 1.51, 
			 "cosmo_total_nonelectrostatic_energy": 8.41, 
			 "SMD_solvation_energy": 6.1 
		},
		"coords": [
			{
				"x": 0.4471424503,
				"y": -1.8451743867,
				"z": 2.6377639297,
				"element": "O" 
			},
			{
				"x": -0.3756885499,
				"y": -1.0573224599,
				"z": 2.1759260104,
				"element": "N" 
			},
			{
				"x": -1.5929299122,
				"y": -1.2277660768,
				"z": 2.1714838663,
				"element": "O" 
			},
			{
				"x": 0.1406498028,
				"y": 0.1891727692,
				"z": 1.5801105628,
				"element": "C" 
			},
			{
				"x": -0.7689594993,
				"y": 1.0964637918,
				"z": 1.0470821403,
				"element": "C" 
			},
			{
				"x": -0.2764297745,
				"y": 2.2705777017,
				"z": 0.4842709416,
				"element": "C" 
			},
			{
				"x": -1.4324236046,
				"y": 3.4063216017,
				"z": -0.1818570459,
				"element": "Cl" 
			},
			{
				"x": 1.1029334336,
				"y": 2.5442278786,
				"z": 0.4429276253,
				"element": "C" 
			},
			{
				"x": 1.6599533867,
				"y": 3.7988973206,
				"z": -0.1623795606,
				"element": "C" 
			},
			{
				"x": 1.7329217171,
				"y": 5.160405644,
				"z": 1.0536961821,
				"element": "Cl" 
			},
			{
				"x": 1.9769899686,
				"y": 1.5954726116,
				"z": 0.9952813602,
				"element": "C" 
			},
			{
				"x": 1.513765846,
				"y": 0.4158596159,
				"z": 1.5666251725,
				"element": "C" 
			},
			{
				"x": -1.8290617638,
				"y": 0.8824046233,
				"z": 1.0758215329,
				"element": "H" 
			},
			{
				"x": 2.6839083203,
				"y": 3.6464109334,
				"z": -0.5019896974,
				"element": "H" 
			},
			{
				"x": 1.0497216956,
				"y": 4.1647648229,
				"z": -0.9860780562,
				"element": "H" 
			},
			{
				"x": 3.0439761905,
				"y": 1.7960968634,
				"z": 0.9757853131,
				"element": "H" 
			},
			{
				"x": 2.1844302927,
				"y": -0.3190132547,
				"z": 1.992629723,
				"element": "H" 
			}
		],
		 "valence_orbital": [ 
			{
				"type": "occ",
				"energy": -0.31532,
				"method": "rhf"
			},
			{
				"type": "occ",
				"energy": -0.30987,
				"method": "rhf"
			},
			{
				"type": "occ",
				"energy": -0.30442,
				"method": "rhf"
			},
			{
				"type": "occ",
				"energy": -0.2955,
				"method": "rhf"
			},
			{
				"type": "occ",
				"energy": -0.27962,
				"method": "rhf"
			},
			{
				"type": "unocc",
				"energy": -0.10662,
				"method": "rhf"
			},
			{
				"type": "unocc",
				"energy": -0.04764,
				"method": "rhf"
			},
			{
				"type": "unocc",
				"energy": -0.03453,
				"method": "rhf"
			},
			{
				"type": "unocc",
				"energy": 0.00474,
				"method": "rhf"
			},
			{
				"type": "unocc",
				"energy": 0.02683,
				"method": "rhf"
			}
		],
		"cosmo_sigma_profile": { 
			"-0.025": 0.0,
			"-0.024": 0.0,
			"-0.023": 0.0,
			"-0.022": 0.0,
			"-0.021": 0.0,
			"-0.02": 0.0,
			"-0.019": 0.0,
			"-0.018": 0.0,
			"-0.017": 0.0,
			"-0.016": 0.0,
			"-0.015": 0.0,
			"-0.014": 0.0,
			"-0.013": 0.0,
			"-0.012": 0.0,
			"-0.011": 0.0,
			"-0.01": 0.72195396433,
			"-0.009": 4.18456244819,
			"-0.008": 8.11485334139,
			"-0.007": 10.3672744684,
			"-0.006": 9.38313915454,
			"-0.005": 10.9235699732,
			"-0.004": 9.63646464716,
			"-0.003": 10.8486311438,
			"-0.002": 15.5548200551,
			"-0.001": 20.243181821,
			"0.0": 17.3450911422,
			"0.001": 13.7378514899,
			"0.002": 11.1946773602,
			"0.003": 14.1637546049,
			"0.004": 10.8409074126,
			"0.005": 11.6008664769,
			"0.006": 12.9527686833,
			"0.007": 10.0349261376,
			"0.008": 5.10073892818,
			"0.009": 3.85050009882,
			"0.01": 1.01911579541,
			"0.011": 0.0,
			"0.012": 0.0,
			"0.013": 0.0,
			"0.014": 0.0,
			"0.015": 0.0,
			"0.016": 0.0,
			"0.017": 0.0,
			"0.018": 0.0,
			"0.019": 0.0,
			"0.02": 0.0,
			"0.021": 0.0,
			"0.022": 0.0,
			"0.023": 0.0,
			"0.024": 0.0,
			"0.025": 0.0
		}
	}
}
