{
	 "smiles": "CCN(CC)C(=O)C(C)OC(=O)C1=CC=CC=C1", 
	 "Tm": 326.65, 
	 "num_atms": 37, 
	 "gaussian": { 
		 "optdone": 1, 
		 "sigma_profile": "yes", 
		 "theory": "DFT", 
		 "functional": "B3LYP", 
		 "basiset": "6-31G**", 
		 "properties": { 
			 "R2extent": 6676.0051, 
			 "electric_dipole_moment_norm": 5.03708908498, 
			 "electric_quadrupole_moment_norm": 16.4574787149, 
			 "total_energy": -825.398494819, 
			 "HOMO_LUMO_gap": 0.18867, 
			 "cosmo_polarized_energy": -13.45, 
			 "cosmo_cavitation_energy": 39.26, 
			 "cosmo_dispersion_energy": -26.49, 
			 "cosmo_repulsion_energy": 2.03, 
			 "cosmo_total_nonelectrostatic_energy": 14.8, 
			 "SMD_solvation_energy": 7.87 
		},
		"coords": [
			{
				"x": -2.1744107816,
				"y": -0.1879417375,
				"z": -1.9363547878,
				"element": "C" 
			},
			{
				"x": -0.6790465171,
				"y": 0.0708136834,
				"z": -1.7257321647,
				"element": "C" 
			},
			{
				"x": 0.148597354,
				"y": -1.1245738869,
				"z": -1.8996964398,
				"element": "N" 
			},
			{
				"x": 0.2700806211,
				"y": -1.6682671985,
				"z": -3.2640299237,
				"element": "C" 
			},
			{
				"x": -0.4871189844,
				"y": -2.9817380817,
				"z": -3.4772973639,
				"element": "C" 
			},
			{
				"x": 0.9267358405,
				"y": -1.7195855312,
				"z": -0.9448057135,
				"element": "C" 
			},
			{
				"x": 1.6803464744,
				"y": -2.6523809788,
				"z": -1.2226489295,
				"element": "O" 
			},
			{
				"x": 0.9744171272,
				"y": -1.2165037202,
				"z": 0.5097335125,
				"element": "C" 
			},
			{
				"x": 1.917642804,
				"y": -0.0253069591,
				"z": 0.6864220681,
				"element": "C" 
			},
			{
				"x": -0.3486208593,
				"y": -0.9066082103,
				"z": 1.0263189682,
				"element": "O" 
			},
			{
				"x": -0.5340852156,
				"y": -1.1399526551,
				"z": 2.3543872406,
				"element": "C" 
			},
			{
				"x": 0.3345913577,
				"y": -1.5804964776,
				"z": 3.0810944856,
				"element": "O" 
			},
			{
				"x": -1.9088335325,
				"y": -0.7964786895,
				"z": 2.8174672322,
				"element": "C" 
			},
			{
				"x": -2.2218091744,
				"y": -1.0607556978,
				"z": 4.1586795365,
				"element": "C" 
			},
			{
				"x": -3.4883319325,
				"y": -0.7609559635,
				"z": 4.653316228,
				"element": "C" 
			},
			{
				"x": -4.4496084185,
				"y": -0.1919600479,
				"z": 3.8134351867,
				"element": "C" 
			},
			{
				"x": -4.1407660378,
				"y": 0.0763648289,
				"z": 2.4778206917,
				"element": "C" 
			},
			{
				"x": -2.8745870572,
				"y": -0.2245988495,
				"z": 1.9781243501,
				"element": "C" 
			},
			{
				"x": -2.5364882872,
				"y": -0.9436829501,
				"z": -1.2335539863,
				"element": "H" 
			},
			{
				"x": -2.7411749409,
				"y": 0.7365263725,
				"z": -1.7801712426,
				"element": "H" 
			},
			{
				"x": -2.387107267,
				"y": -0.5376387173,
				"z": -2.9509992319,
				"element": "H" 
			},
			{
				"x": -0.5197210427,
				"y": 0.4701564393,
				"z": -0.726987098,
				"element": "H" 
			},
			{
				"x": -0.3339600799,
				"y": 0.8329282571,
				"z": -2.4384804683,
				"element": "H" 
			},
			{
				"x": 1.3326741858,
				"y": -1.8271350986,
				"z": -3.4681689802,
				"element": "H" 
			},
			{
				"x": -0.0953888171,
				"y": -0.8977969115,
				"z": -3.9505885815,
				"element": "H" 
			},
			{
				"x": -1.5588985278,
				"y": -2.8654578946,
				"z": -3.2904689245,
				"element": "H" 
			},
			{
				"x": -0.0949417675,
				"y": -3.7502593963,
				"z": -2.8082443084,
				"element": "H" 
			},
			{
				"x": -0.3553868075,
				"y": -3.3254491951,
				"z": -4.5089971566,
				"element": "H" 
			},
			{
				"x": 1.3603778655,
				"y": -2.0632359718,
				"z": 1.0759894697,
				"element": "H" 
			},
			{
				"x": 2.8998933194,
				"y": -0.282207095,
				"z": 0.2796264401,
				"element": "H" 
			},
			{
				"x": 2.031753422,
				"y": 0.1980011515,
				"z": 1.7498044037,
				"element": "H" 
			},
			{
				"x": 1.5515454012,
				"y": 0.8680127409,
				"z": 0.1724513441,
				"element": "H" 
			},
			{
				"x": -1.4585365851,
				"y": -1.5009455321,
				"z": 4.7911069326,
				"element": "H" 
			},
			{
				"x": -3.7271442301,
				"y": -0.969311884,
				"z": 5.6919733645,
				"element": "H" 
			},
			{
				"x": -5.4375830502,
				"y": 0.0426970677,
				"z": 4.1993739791,
				"element": "H" 
			},
			{
				"x": -4.8870897302,
				"y": 0.5201155249,
				"z": 1.8254389759,
				"element": "H" 
			},
			{
				"x": -2.6311161287,
				"y": -0.0158907345,
				"z": 0.9437608914,
				"element": "H" 
			}
		],
		 "valence_orbital": [ 
			{
				"type": "occ",
				"energy": -0.27958,
				"method": "rhf"
			},
			{
				"type": "occ",
				"energy": -0.26436,
				"method": "rhf"
			},
			{
				"type": "occ",
				"energy": -0.2623,
				"method": "rhf"
			},
			{
				"type": "occ",
				"energy": -0.24285,
				"method": "rhf"
			},
			{
				"type": "occ",
				"energy": -0.23894,
				"method": "rhf"
			},
			{
				"type": "unocc",
				"energy": -0.05027,
				"method": "rhf"
			},
			{
				"type": "unocc",
				"energy": -0.01229,
				"method": "rhf"
			},
			{
				"type": "unocc",
				"energy": 0.01894,
				"method": "rhf"
			},
			{
				"type": "unocc",
				"energy": 0.05373,
				"method": "rhf"
			},
			{
				"type": "unocc",
				"energy": 0.07129,
				"method": "rhf"
			}
		],
		"cosmo_sigma_profile": { 
			"-0.025": 0.0,
			"-0.024": 0.0,
			"-0.023": 0.0,
			"-0.022": 0.0,
			"-0.021": 0.0,
			"-0.02": 0.0,
			"-0.019": 0.0,
			"-0.018": 0.0,
			"-0.017": 0.0,
			"-0.016": 0.0,
			"-0.015": 0.0,
			"-0.014": 0.0,
			"-0.013": 0.0,
			"-0.012": 0.0,
			"-0.011": 0.0,
			"-0.01": 0.0,
			"-0.009": 0.0,
			"-0.008": 0.0,
			"-0.007": 1.51255673904,
			"-0.006": 8.03117396436,
			"-0.005": 17.8499794451,
			"-0.004": 30.6137947998,
			"-0.003": 40.4866581724,
			"-0.002": 37.848101457,
			"-0.001": 35.17752117,
			"0.0": 29.7802864346,
			"0.001": 25.9055460985,
			"0.002": 18.8305027841,
			"0.003": 14.5370627146,
			"0.004": 14.6394649604,
			"0.005": 4.7137581242,
			"0.006": 2.6712982112,
			"0.007": 2.28467438799,
			"0.008": 2.45974268792,
			"0.009": 2.81829628762,
			"0.01": 4.03500201706,
			"0.011": 4.23681751598,
			"0.012": 3.46047197019,
			"0.013": 2.9213925933,
			"0.014": 4.01477908129,
			"0.015": 0.864891852436,
			"0.016": 0.0,
			"0.017": 0.0,
			"0.018": 0.0,
			"0.019": 0.0,
			"0.02": 0.0,
			"0.021": 0.0,
			"0.022": 0.0,
			"0.023": 0.0,
			"0.024": 0.0,
			"0.025": 0.0
		}
	}
}
