{
	 "smiles": "COC1=CC2=C(C=C1OC)C(=O)CC2", 
	 "Tm": 392.15, 
	 "num_atms": 26, 
	 "gaussian": { 
		 "optdone": 1, 
		 "sigma_profile": "yes", 
		 "theory": "DFT", 
		 "functional": "B3LYP", 
		 "basiset": "6-31G**", 
		 "properties": { 
			 "R2extent": 3177.515, 
			 "electric_dipole_moment_norm": 3.67489641351, 
			 "electric_quadrupole_moment_norm": 17.8719899396, 
			 "total_energy": -652.049431453, 
			 "HOMO_LUMO_gap": 0.18592, 
			 "cosmo_polarized_energy": -10.57, 
			 "cosmo_cavitation_energy": 29.28, 
			 "cosmo_dispersion_energy": -21.23, 
			 "cosmo_repulsion_energy": 1.69, 
			 "cosmo_total_nonelectrostatic_energy": 9.74, 
			 "SMD_solvation_energy": 6.68 
		},
		"coords": [
			{
				"x": -2.042342679,
				"y": -1.2876511721,
				"z": 2.2429003531,
				"element": "C" 
			},
			{
				"x": -2.0441457416,
				"y": -0.3308206745,
				"z": 1.1729062516,
				"element": "O" 
			},
			{
				"x": -0.8086713201,
				"y": 0.0299627867,
				"z": 0.6973018042,
				"element": "C" 
			},
			{
				"x": -0.4005110416,
				"y": 1.3564556776,
				"z": 0.8580616035,
				"element": "C" 
			},
			{
				"x": 0.8376006661,
				"y": 1.7544732626,
				"z": 0.3552644984,
				"element": "C" 
			},
			{
				"x": 1.6533304493,
				"y": 0.8220526743,
				"z": -0.2912156189,
				"element": "C" 
			},
			{
				"x": 1.2526933534,
				"y": -0.5051932091,
				"z": -0.4742921143,
				"element": "C" 
			},
			{
				"x": 0.0138615943,
				"y": -0.9031512726,
				"z": 0.0118537729,
				"element": "C" 
			},
			{
				"x": -0.3894210849,
				"y": -2.2107206361,
				"z": -0.1459946439,
				"element": "O" 
			},
			{
				"x": -1.4367947589,
				"y": -2.3996377366,
				"z": -1.106038468,
				"element": "C" 
			},
			{
				"x": 2.91562776,
				"y": 1.4580247708,
				"z": -0.7288444518,
				"element": "C" 
			},
			{
				"x": 3.8376749214,
				"y": 0.9275976424,
				"z": -1.3208090101,
				"element": "O" 
			},
			{
				"x": 2.85340215,
				"y": 2.934427057,
				"z": -0.2963034722,
				"element": "C" 
			},
			{
				"x": 1.4909656618,
				"y": 3.1230014125,
				"z": 0.4137754222,
				"element": "C" 
			},
			{
				"x": -1.5342416315,
				"y": -0.8761068139,
				"z": 3.1236594093,
				"element": "H" 
			},
			{
				"x": -3.0907397698,
				"y": -1.4712061427,
				"z": 2.4848006782,
				"element": "H" 
			},
			{
				"x": -1.5588652895,
				"y": -2.2211461474,
				"z": 1.9431012803,
				"element": "H" 
			},
			{
				"x": -1.0652423605,
				"y": 2.0397542018,
				"z": 1.3785378887,
				"element": "H" 
			},
			{
				"x": 1.8904583725,
				"y": -1.215962232,
				"z": -0.9902814969,
				"element": "H" 
			},
			{
				"x": -1.1105274994,
				"y": -2.0793176794,
				"z": -2.1032107602,
				"element": "H" 
			},
			{
				"x": -1.6472690804,
				"y": -3.4707969416,
				"z": -1.1221911254,
				"element": "H" 
			},
			{
				"x": -2.3403641863,
				"y": -1.8497328234,
				"z": -0.8234862494,
				"element": "H" 
			},
			{
				"x": 2.9647179629,
				"y": 3.5692847909,
				"z": -1.1811908133,
				"element": "H" 
			},
			{
				"x": 3.7076787101,
				"y": 3.1512044529,
				"z": 0.353063269,
				"element": "H" 
			},
			{
				"x": 0.8691499348,
				"y": 3.8762209744,
				"z": -0.0837966264,
				"element": "H" 
			},
			{
				"x": 1.6108749068,
				"y": 3.4575837774,
				"z": 1.4507286196,
				"element": "H" 
			}
		],
		 "valence_orbital": [ 
			{
				"type": "occ",
				"energy": -0.30132,
				"method": "rhf"
			},
			{
				"type": "occ",
				"energy": -0.27182,
				"method": "rhf"
			},
			{
				"type": "occ",
				"energy": -0.25173,
				"method": "rhf"
			},
			{
				"type": "occ",
				"energy": -0.23705,
				"method": "rhf"
			},
			{
				"type": "occ",
				"energy": -0.23495,
				"method": "rhf"
			},
			{
				"type": "unocc",
				"energy": -0.04903,
				"method": "rhf"
			},
			{
				"type": "unocc",
				"energy": -0.00906,
				"method": "rhf"
			},
			{
				"type": "unocc",
				"energy": 0.04894,
				"method": "rhf"
			},
			{
				"type": "unocc",
				"energy": 0.08351,
				"method": "rhf"
			},
			{
				"type": "unocc",
				"energy": 0.10009,
				"method": "rhf"
			}
		],
		"cosmo_sigma_profile": { 
			"-0.025": 0.0,
			"-0.024": 0.0,
			"-0.023": 0.0,
			"-0.022": 0.0,
			"-0.021": 0.0,
			"-0.02": 0.0,
			"-0.019": 0.0,
			"-0.018": 0.0,
			"-0.017": 0.0,
			"-0.016": 0.0,
			"-0.015": 0.0,
			"-0.014": 0.0,
			"-0.013": 0.0,
			"-0.012": 0.0,
			"-0.011": 0.0,
			"-0.01": 0.0,
			"-0.009": 0.0,
			"-0.008": 0.0,
			"-0.007": 0.911524353615,
			"-0.006": 7.34789493962,
			"-0.005": 19.8255357635,
			"-0.004": 28.5638946634,
			"-0.003": 32.0900411488,
			"-0.002": 26.2675243236,
			"-0.001": 21.2465429332,
			"0.0": 12.7286898176,
			"0.001": 13.0147208217,
			"0.002": 16.9963646498,
			"0.003": 12.4033594642,
			"0.004": 4.78578886857,
			"0.005": 4.22918088623,
			"0.006": 4.31993676269,
			"0.007": 2.70841778838,
			"0.008": 2.72510244413,
			"0.009": 3.87607724082,
			"0.01": 4.06040452009,
			"0.011": 4.50458716223,
			"0.012": 4.92123145167,
			"0.013": 3.88254076419,
			"0.014": 0.66806289393,
			"0.015": 0.0,
			"0.016": 0.0,
			"0.017": 0.0,
			"0.018": 0.0,
			"0.019": 0.0,
			"0.02": 0.0,
			"0.021": 0.0,
			"0.022": 0.0,
			"0.023": 0.0,
			"0.024": 0.0,
			"0.025": 0.0
		}
	}
}
