{
	 "smiles": "O=CC1=CSC(=N1)C1=CC=CC=C1", 
	 "Tm": 324.65, 
	 "num_atms": 20, 
	 "gaussian": { 
		 "optdone": 1, 
		 "sigma_profile": "yes", 
		 "theory": "DFT", 
		 "functional": "B3LYP", 
		 "basiset": "6-31G**", 
		 "properties": { 
			 "R2extent": 3431.7432, 
			 "electric_dipole_moment_norm": 3.88626262237, 
			 "electric_quadrupole_moment_norm": 11.0733549699, 
			 "total_energy": -913.431500119, 
			 "HOMO_LUMO_gap": 0.1632, 
			 "cosmo_polarized_energy": -8.73, 
			 "cosmo_cavitation_energy": 26.79, 
			 "cosmo_dispersion_energy": -20.2, 
			 "cosmo_repulsion_energy": 1.53, 
			 "cosmo_total_nonelectrostatic_energy": 8.12, 
			 "SMD_solvation_energy": 4.34 
		},
		"coords": [
			{
				"x": 4.8273495359,
				"y": -0.155591741,
				"z": -0.0705272637,
				"element": "O" 
			},
			{
				"x": 3.6697937662,
				"y": -0.4748819605,
				"z": 0.1241654164,
				"element": "C" 
			},
			{
				"x": 2.508230953,
				"y": 0.2973868942,
				"z": -0.3614308235,
				"element": "C" 
			},
			{
				"x": 2.5972251214,
				"y": 1.461101685,
				"z": -1.0861181474,
				"element": "C" 
			},
			{
				"x": 1.0241556061,
				"y": 2.0452490808,
				"z": -1.4567217777,
				"element": "S" 
			},
			{
				"x": 0.3282079648,
				"y": 0.6533166713,
				"z": -0.5910911952,
				"element": "C" 
			},
			{
				"x": 1.2332966017,
				"y": -0.1423267508,
				"z": -0.0920790841,
				"element": "N" 
			},
			{
				"x": -1.1209361146,
				"y": 0.447671923,
				"z": -0.4680757569,
				"element": "C" 
			},
			{
				"x": -2.0515430174,
				"y": 1.3383087066,
				"z": -1.0265979855,
				"element": "C" 
			},
			{
				"x": -3.4188316341,
				"y": 1.1095575544,
				"z": -0.8888068692,
				"element": "C" 
			},
			{
				"x": -3.8762813387,
				"y": -0.0106739084,
				"z": -0.1920556331,
				"element": "C" 
			},
			{
				"x": -2.9565025167,
				"y": -0.9021432797,
				"z": 0.3669238619,
				"element": "C" 
			},
			{
				"x": -1.5896230193,
				"y": -0.6783550629,
				"z": 0.2322303324,
				"element": "C" 
			},
			{
				"x": 3.3944491941,
				"y": -1.3874144057,
				"z": 0.6916770455,
				"element": "H" 
			},
			{
				"x": 3.4983085009,
				"y": 1.9686230231,
				"z": -1.3989741694,
				"element": "H" 
			},
			{
				"x": -1.7120227771,
				"y": 2.2148650725,
				"z": -1.5718260472,
				"element": "H" 
			},
			{
				"x": -4.1269402068,
				"y": 1.8070196242,
				"z": -1.3260964435,
				"element": "H" 
			},
			{
				"x": -4.9423933586,
				"y": -0.1878406315,
				"z": -0.0853610285,
				"element": "H" 
			},
			{
				"x": -3.3062351506,
				"y": -1.7752361296,
				"z": 0.9099820668,
				"element": "H" 
			},
			{
				"x": -0.8663081103,
				"y": -1.362636365,
				"z": 0.661383502,
				"element": "H" 
			}
		],
		 "valence_orbital": [ 
			{
				"type": "occ",
				"energy": -0.2913,
				"method": "rhf"
			},
			{
				"type": "occ",
				"energy": -0.28936,
				"method": "rhf"
			},
			{
				"type": "occ",
				"energy": -0.26472,
				"method": "rhf"
			},
			{
				"type": "occ",
				"energy": -0.258,
				"method": "rhf"
			},
			{
				"type": "occ",
				"energy": -0.23536,
				"method": "rhf"
			},
			{
				"type": "unocc",
				"energy": -0.07216,
				"method": "rhf"
			},
			{
				"type": "unocc",
				"energy": -0.05138,
				"method": "rhf"
			},
			{
				"type": "unocc",
				"energy": -0.01387,
				"method": "rhf"
			},
			{
				"type": "unocc",
				"energy": 0.0055,
				"method": "rhf"
			},
			{
				"type": "unocc",
				"energy": 0.03112,
				"method": "rhf"
			}
		],
		"cosmo_sigma_profile": { 
			"-0.025": 0.0,
			"-0.024": 0.0,
			"-0.023": 0.0,
			"-0.022": 0.0,
			"-0.021": 0.0,
			"-0.02": 0.0,
			"-0.019": 0.0,
			"-0.018": 0.0,
			"-0.017": 0.0,
			"-0.016": 0.0,
			"-0.015": 0.0,
			"-0.014": 0.0,
			"-0.013": 0.0,
			"-0.012": 0.0,
			"-0.011": 0.191074049227,
			"-0.01": 1.70147737344,
			"-0.009": 1.67470802309,
			"-0.008": 1.37643333994,
			"-0.007": 5.52824167623,
			"-0.006": 13.1863776802,
			"-0.005": 15.1955548782,
			"-0.004": 16.6259627796,
			"-0.003": 13.2105724051,
			"-0.002": 14.913140206,
			"-0.001": 19.8154870794,
			"0.0": 22.6892001115,
			"0.001": 18.3873956752,
			"0.002": 15.8160689858,
			"0.003": 14.0517681666,
			"0.004": 15.082827154,
			"0.005": 5.48439398673,
			"0.006": 4.01802860774,
			"0.007": 2.75590153121,
			"0.008": 2.82508527239,
			"0.009": 3.87051556118,
			"0.01": 3.0789551094,
			"0.011": 4.68774889134,
			"0.012": 2.09171046759,
			"0.013": 0.426414038855,
			"0.014": 0.0,
			"0.015": 0.0,
			"0.016": 0.0,
			"0.017": 0.0,
			"0.018": 0.0,
			"0.019": 0.0,
			"0.02": 0.0,
			"0.021": 0.0,
			"0.022": 0.0,
			"0.023": 0.0,
			"0.024": 0.0,
			"0.025": 0.0
		}
	}
}
