{
	 "smiles": "CC1=C(C)C(Cl)=C(C=C1)C(O)=O", 
	 "Tm": 427.15, 
	 "num_atms": 21, 
	 "gaussian": { 
		 "optdone": 1, 
		 "sigma_profile": "yes", 
		 "theory": "DFT", 
		 "functional": "B3LYP", 
		 "basiset": "6-31G**", 
		 "properties": { 
			 "R2extent": 2590.0378, 
			 "electric_dipole_moment_norm": 3.46790197237, 
			 "electric_quadrupole_moment_norm": 9.05654622635, 
			 "total_energy": -959.045221246, 
			 "HOMO_LUMO_gap": 0.19708, 
			 "cosmo_polarized_energy": -10.36, 
			 "cosmo_cavitation_energy": 26.08, 
			 "cosmo_dispersion_energy": -19.46, 
			 "cosmo_repulsion_energy": 1.53, 
			 "cosmo_total_nonelectrostatic_energy": 8.16, 
			 "SMD_solvation_energy": 5.47 
		},
		"coords": [
			{
				"x": 3.658680307,
				"y": 0.3794394698,
				"z": -0.1709931661,
				"element": "C" 
			},
			{
				"x": 2.2125405147,
				"y": -0.019571321,
				"z": 0.0183631704,
				"element": "C" 
			},
			{
				"x": 1.3465915233,
				"y": 0.7107174671,
				"z": 0.8615465867,
				"element": "C" 
			},
			{
				"x": 1.8297777228,
				"y": 1.9233803952,
				"z": 1.6221821024,
				"element": "C" 
			},
			{
				"x": 0.0106028071,
				"y": 0.2850774597,
				"z": 0.9856623346,
				"element": "C" 
			},
			{
				"x": -1.021404499,
				"y": 1.2044651951,
				"z": 2.0677823554,
				"element": "Cl" 
			},
			{
				"x": -0.484721567,
				"y": -0.8442069653,
				"z": 0.3021908073,
				"element": "C" 
			},
			{
				"x": 0.4072585181,
				"y": -1.5517554043,
				"z": -0.5174274793,
				"element": "C" 
			},
			{
				"x": 1.7244886462,
				"y": -1.1432473366,
				"z": -0.6575099359,
				"element": "C" 
			},
			{
				"x": -1.9023147937,
				"y": -1.3047509572,
				"z": 0.3793815508,
				"element": "C" 
			},
			{
				"x": -2.0465713955,
				"y": -2.5700614306,
				"z": -0.1069548322,
				"element": "O" 
			},
			{
				"x": -2.8552887532,
				"y": -0.6802297642,
				"z": 0.7923737773,
				"element": "O" 
			},
			{
				"x": 4.2119797536,
				"y": 0.3683555773,
				"z": 0.774644234,
				"element": "H" 
			},
			{
				"x": 4.1597816803,
				"y": -0.3088917687,
				"z": -0.8558984688,
				"element": "H" 
			},
			{
				"x": 3.751832568,
				"y": 1.3886222926,
				"z": -0.5874573754,
				"element": "H" 
			},
			{
				"x": 1.7219064837,
				"y": 1.7790634534,
				"z": 2.7022692472,
				"element": "H" 
			},
			{
				"x": 2.8764011777,
				"y": 2.1423065641,
				"z": 1.413528553,
				"element": "H" 
			},
			{
				"x": 1.239727268,
				"y": 2.8092913071,
				"z": 1.3662745615,
				"element": "H" 
			},
			{
				"x": 0.0463237476,
				"y": -2.4238164653,
				"z": -1.0478828621,
				"element": "H" 
			},
			{
				"x": 2.3919903844,
				"y": -1.7055706268,
				"z": -1.3039932798,
				"element": "H" 
			},
			{
				"x": -2.9974820941,
				"y": -2.7564171415,
				"z": -0.0437818812,
				"element": "H" 
			}
		],
		 "valence_orbital": [ 
			{
				"type": "occ",
				"energy": -0.3178,
				"method": "rhf"
			},
			{
				"type": "occ",
				"energy": -0.30915,
				"method": "rhf"
			},
			{
				"type": "occ",
				"energy": -0.26469,
				"method": "rhf"
			},
			{
				"type": "occ",
				"energy": -0.25488,
				"method": "rhf"
			},
			{
				"type": "occ",
				"energy": -0.24622,
				"method": "rhf"
			},
			{
				"type": "unocc",
				"energy": -0.04914,
				"method": "rhf"
			},
			{
				"type": "unocc",
				"energy": -0.01556,
				"method": "rhf"
			},
			{
				"type": "unocc",
				"energy": 0.03716,
				"method": "rhf"
			},
			{
				"type": "unocc",
				"energy": 0.0513,
				"method": "rhf"
			},
			{
				"type": "unocc",
				"energy": 0.08349,
				"method": "rhf"
			}
		],
		"cosmo_sigma_profile": { 
			"-0.025": 0.0,
			"-0.024": 0.0,
			"-0.023": 0.0,
			"-0.022": 0.0,
			"-0.021": 0.0,
			"-0.02": 0.0,
			"-0.019": 0.0840632987325,
			"-0.018": 0.57172039703,
			"-0.017": 0.777701169078,
			"-0.016": 1.17505969713,
			"-0.015": 0.889689056817,
			"-0.014": 0.362338328216,
			"-0.013": 0.162857694636,
			"-0.012": 0.362590796458,
			"-0.011": 1.19277561673,
			"-0.01": 0.929221893088,
			"-0.009": 0.678122695052,
			"-0.008": 0.390456358383,
			"-0.007": 1.54407326038,
			"-0.006": 5.47858124447,
			"-0.005": 11.4692519198,
			"-0.004": 16.3545096231,
			"-0.003": 14.6807177866,
			"-0.002": 18.3488575729,
			"-0.001": 26.4086088945,
			"0.0": 19.9548180095,
			"0.001": 16.2471723212,
			"0.002": 17.4731824081,
			"0.003": 16.1403067604,
			"0.004": 9.70457812332,
			"0.005": 5.0664971935,
			"0.006": 3.78173618631,
			"0.007": 2.68894385152,
			"0.008": 3.11481067338,
			"0.009": 1.71473546803,
			"0.01": 2.70345255685,
			"0.011": 3.3265498867,
			"0.012": 4.99331157479,
			"0.013": 0.399775016253,
			"0.014": 0.0,
			"0.015": 0.0,
			"0.016": 0.0,
			"0.017": 0.0,
			"0.018": 0.0,
			"0.019": 0.0,
			"0.02": 0.0,
			"0.021": 0.0,
			"0.022": 0.0,
			"0.023": 0.0,
			"0.024": 0.0,
			"0.025": 0.0
		}
	}
}
