{
	 "smiles": "OC(=O)CCSC1=CC=CC=C1", 
	 "Tm": 333.15, 
	 "num_atms": 22, 
	 "gaussian": { 
		 "optdone": 1, 
		 "sigma_profile": "yes", 
		 "theory": "DFT", 
		 "functional": "B3LYP", 
		 "basiset": "6-31G**", 
		 "properties": { 
			 "R2extent": 3480.636, 
			 "electric_dipole_moment_norm": 4.01593132411, 
			 "electric_quadrupole_moment_norm": 21.9116039682, 
			 "total_energy": -897.626808212, 
			 "HOMO_LUMO_gap": 0.20326, 
			 "cosmo_polarized_energy": -16.22, 
			 "cosmo_cavitation_energy": 28.1, 
			 "cosmo_dispersion_energy": -20.22, 
			 "cosmo_repulsion_energy": 1.6, 
			 "cosmo_total_nonelectrostatic_energy": 9.48, 
			 "SMD_solvation_energy": 5.38 
		},
		"coords": [
			{
				"x": -2.1563245417,
				"y": -1.0375966042,
				"z": 4.2230443998,
				"element": "O" 
			},
			{
				"x": -0.9460436783,
				"y": -0.4486093295,
				"z": 4.0231913594,
				"element": "C" 
			},
			{
				"x": -0.051344294,
				"y": -0.6215316415,
				"z": 4.8121310364,
				"element": "O" 
			},
			{
				"x": -0.8387224382,
				"y": 0.4090504837,
				"z": 2.7676048939,
				"element": "C" 
			},
			{
				"x": 0.5436867611,
				"y": 1.0394900787,
				"z": 2.6185741794,
				"element": "C" 
			},
			{
				"x": 0.71461058,
				"y": 2.0883422127,
				"z": 1.1179328275,
				"element": "S" 
			},
			{
				"x": 0.6167771894,
				"y": 0.8622382016,
				"z": -0.1917261162,
				"element": "C" 
			},
			{
				"x": -0.4104161527,
				"y": 0.9513173965,
				"z": -1.1406313254,
				"element": "C" 
			},
			{
				"x": -0.4690753824,
				"y": 0.0424116724,
				"z": -2.199679109,
				"element": "C" 
			},
			{
				"x": 0.4839466733,
				"y": -0.9708782916,
				"z": -2.3087649048,
				"element": "C" 
			},
			{
				"x": 1.5076282585,
				"y": -1.0650404885,
				"z": -1.3621958106,
				"element": "C" 
			},
			{
				"x": 1.5838467144,
				"y": -0.1462722237,
				"z": -0.3157953673,
				"element": "C" 
			},
			{
				"x": -2.7646705469,
				"y": -0.8066587582,
				"z": 3.5064911223,
				"element": "H" 
			},
			{
				"x": -1.6115411829,
				"y": 1.1880031975,
				"z": 2.7993321097,
				"element": "H" 
			},
			{
				"x": -1.0658577676,
				"y": -0.2158198891,
				"z": 1.8937933538,
				"element": "H" 
			},
			{
				"x": 1.3188299134,
				"y": 0.2707462896,
				"z": 2.6254573806,
				"element": "H" 
			},
			{
				"x": 0.7530149969,
				"y": 1.7085621008,
				"z": 3.4570029022,
				"element": "H" 
			},
			{
				"x": -1.1579318205,
				"y": 1.7327611816,
				"z": -1.0455435026,
				"element": "H" 
			},
			{
				"x": -1.2664012204,
				"y": 0.1227360261,
				"z": -2.9331304096,
				"element": "H" 
			},
			{
				"x": 0.4333161095,
				"y": -1.6815477296,
				"z": -3.128434296,
				"element": "H" 
			},
			{
				"x": 2.2580245937,
				"y": -1.8458865322,
				"z": -1.4471617231,
				"element": "H" 
			},
			{
				"x": 2.3983472353,
				"y": -0.2040173532,
				"z": 0.4000069998,
				"element": "H" 
			}
		],
		 "valence_orbital": [ 
			{
				"type": "occ",
				"energy": -0.3192,
				"method": "rhf"
			},
			{
				"type": "occ",
				"energy": -0.27853,
				"method": "rhf"
			},
			{
				"type": "occ",
				"energy": -0.26783,
				"method": "rhf"
			},
			{
				"type": "occ",
				"energy": -0.26266,
				"method": "rhf"
			},
			{
				"type": "occ",
				"energy": -0.22739,
				"method": "rhf"
			},
			{
				"type": "unocc",
				"energy": -0.02413,
				"method": "rhf"
			},
			{
				"type": "unocc",
				"energy": -0.01395,
				"method": "rhf"
			},
			{
				"type": "unocc",
				"energy": 0.00668,
				"method": "rhf"
			},
			{
				"type": "unocc",
				"energy": 0.04267,
				"method": "rhf"
			},
			{
				"type": "unocc",
				"energy": 0.05161,
				"method": "rhf"
			}
		],
		"cosmo_sigma_profile": { 
			"-0.025": 0.0,
			"-0.024": 0.0,
			"-0.023": 0.0,
			"-0.022": 0.0,
			"-0.021": 0.0,
			"-0.02": 0.0176557904144,
			"-0.019": 0.664832429912,
			"-0.018": 1.248726009,
			"-0.017": 0.913709606577,
			"-0.016": 1.21984233185,
			"-0.015": 1.36759754534,
			"-0.014": 0.959104184575,
			"-0.013": 1.02493023924,
			"-0.012": 1.0706664031,
			"-0.011": 1.24032979076,
			"-0.01": 1.36507276964,
			"-0.009": 1.26277550277,
			"-0.008": 2.13063097085,
			"-0.007": 4.21428846721,
			"-0.006": 17.063751658,
			"-0.005": 17.6576465801,
			"-0.004": 17.3331955254,
			"-0.003": 13.389366936,
			"-0.002": 12.4322042248,
			"-0.001": 11.9724388742,
			"0.0": 12.6074427271,
			"0.001": 13.3658355523,
			"0.002": 10.7677120173,
			"0.003": 12.7096898603,
			"0.004": 14.8720579426,
			"0.005": 14.3139947673,
			"0.006": 5.75254147603,
			"0.007": 4.42654950503,
			"0.008": 4.73310326554,
			"0.009": 5.45868223229,
			"0.01": 5.17384649123,
			"0.011": 5.52626343478,
			"0.012": 5.1175408599,
			"0.013": 1.52531059016,
			"0.014": 0.0355339503915,
			"0.015": 0.0,
			"0.016": 0.0,
			"0.017": 0.0,
			"0.018": 0.0,
			"0.019": 0.0,
			"0.02": 0.0,
			"0.021": 0.0,
			"0.022": 0.0,
			"0.023": 0.0,
			"0.024": 0.0,
			"0.0": 0.0
		}
	}
}
