{
	 "smiles": "C=CCSCC=C", 
	 "Tm": 189.15, 
	 "num_atms": 17, 
	 "gaussian": { 
		 "optdone": 1, 
		 "sigma_profile": "yes", 
		 "theory": "DFT", 
		 "functional": "B3LYP", 
		 "basiset": "6-31G**", 
		 "properties": { 
			 "R2extent": 1720.5559, 
			 "electric_dipole_moment_norm": 1.52747148582, 
			 "electric_quadrupole_moment_norm": 6.28465024643, 
			 "total_energy": -632.804127573, 
			 "HOMO_LUMO_gap": 0.2271, 
			 "cosmo_polarized_energy": -4.55, 
			 "cosmo_cavitation_energy": 21.73, 
			 "cosmo_dispersion_energy": -15.58, 
			 "cosmo_repulsion_energy": 1.28, 
			 "cosmo_total_nonelectrostatic_energy": 7.43, 
			 "SMD_solvation_energy": 4.53 
		},
		"coords": [
			{
				"x": 1.7838820719,
				"y": -1.8425678898,
				"z": -1.6572754141,
				"element": "C" 
			},
			{
				"x": 1.2077183572,
				"y": -0.8826855151,
				"z": -2.3850273578,
				"element": "C" 
			},
			{
				"x": 0.185936599,
				"y": 0.0757366157,
				"z": -1.8571268774,
				"element": "C" 
			},
			{
				"x": 0.7887129169,
				"y": 1.826787662,
				"z": -1.8384534542,
				"element": "S" 
			},
			{
				"x": 2.1169267194,
				"y": 1.7032197501,
				"z": -0.5830564392,
				"element": "C" 
			},
			{
				"x": 1.6961976308,
				"y": 1.6012564733,
				"z": 0.8630366003,
				"element": "C" 
			},
			{
				"x": 0.4717089371,
				"y": 1.7613349241,
				"z": 1.3626422607,
				"element": "C" 
			},
			{
				"x": 1.5215211499,
				"y": -2.0004847134,
				"z": -0.6137149699,
				"element": "H" 
			},
			{
				"x": 2.5277783603,
				"y": -2.5106555361,
				"z": -2.0810400754,
				"element": "H" 
			},
			{
				"x": 1.4964303262,
				"y": -0.7443594233,
				"z": -3.4261878836,
				"element": "H" 
			},
			{
				"x": -0.1391521897,
				"y": -0.1986014691,
				"z": -0.8499576849,
				"element": "H" 
			},
			{
				"x": -0.697094117,
				"y": 0.1124589552,
				"z": -2.5039481216,
				"element": "H" 
			},
			{
				"x": 2.7300840622,
				"y": 2.6007722002,
				"z": -0.7321153483,
				"element": "H" 
			},
			{
				"x": 2.7543005905,
				"y": 0.8510349046,
				"z": -0.8473045909,
				"element": "H" 
			},
			{
				"x": 2.5204589151,
				"y": 1.3771428567,
				"z": 1.5426078749,
				"element": "H" 
			},
			{
				"x": -0.3763821737,
				"y": 1.9909660019,
				"z": 0.7241074335,
				"element": "H" 
			},
			{
				"x": 0.286271844,
				"y": 1.6769442031,
				"z": 2.4290140478,
				"element": "H" 
			}
		],
		 "valence_orbital": [ 
			{
				"type": "occ",
				"energy": -0.35413,
				"method": "rhf"
			},
			{
				"type": "occ",
				"energy": -0.30585,
				"method": "rhf"
			},
			{
				"type": "occ",
				"energy": -0.26205,
				"method": "rhf"
			},
			{
				"type": "occ",
				"energy": -0.25744,
				"method": "rhf"
			},
			{
				"type": "occ",
				"energy": -0.22328,
				"method": "rhf"
			},
			{
				"type": "unocc",
				"energy": 0.00382,
				"method": "rhf"
			},
			{
				"type": "unocc",
				"energy": 0.01801,
				"method": "rhf"
			},
			{
				"type": "unocc",
				"energy": 0.04841,
				"method": "rhf"
			},
			{
				"type": "unocc",
				"energy": 0.0916,
				"method": "rhf"
			},
			{
				"type": "unocc",
				"energy": 0.10436,
				"method": "rhf"
			}
		],
		"cosmo_sigma_profile": { 
			"-0.025": 0.0,
			"-0.024": 0.0,
			"-0.023": 0.0,
			"-0.022": 0.0,
			"-0.021": 0.0,
			"-0.02": 0.0,
			"-0.019": 0.0,
			"-0.018": 0.0,
			"-0.017": 0.0,
			"-0.016": 0.0,
			"-0.015": 0.0,
			"-0.014": 0.0,
			"-0.013": 0.0,
			"-0.012": 0.0,
			"-0.011": 0.0,
			"-0.01": 0.0,
			"-0.009": 0.0,
			"-0.008": 0.0,
			"-0.007": 0.319087577177,
			"-0.006": 5.14943216608,
			"-0.005": 12.452039958,
			"-0.004": 17.0724073777,
			"-0.003": 19.795799465,
			"-0.002": 17.5132425202,
			"-0.001": 17.1529019383,
			"0.0": 14.8466320692,
			"0.001": 12.7880044257,
			"0.002": 11.000060725,
			"0.003": 10.3158807874,
			"0.004": 8.58670894945,
			"0.005": 8.61558511645,
			"0.006": 7.19824607063,
			"0.007": 4.0960656135,
			"0.008": 2.24756627007,
			"0.009": 2.49266200925,
			"0.01": 1.14650801634,
			"0.011": 0.623077990441,
			"0.012": 0.0615895392947,
			"0.013": 0.0,
			"0.014": 0.0,
			"0.015": 0.0,
			"0.016": 0.0,
			"0.017": 0.0,
			"0.018": 0.0,
			"0.019": 0.0,
			"0.02": 0.0,
			"0.021": 0.0,
			"0.022": 0.0,
			"0.023": 0.0,
			"0.024": 0.0,
			"0.025": 0.0
		}
	}
}
