{
	 "smiles": "NS(=O)(=O)C1=CC(Cl)=CC=C1", 
	 "Tm": 419.15, 
	 "num_atms": 17, 
	 "gaussian": { 
		 "optdone": 1, 
		 "sigma_profile": "yes", 
		 "theory": "DFT", 
		 "functional": "B3LYP", 
		 "basiset": "6-31G**", 
		 "properties": { 
			 "R2extent": 3032.751, 
			 "electric_dipole_moment_norm": 3.49791498038, 
			 "electric_quadrupole_moment_norm": 13.0529439197, 
			 "total_energy": -1295.76318228, 
			 "HOMO_LUMO_gap": 0.21561, 
			 "cosmo_polarized_energy": -14.17, 
			 "cosmo_cavitation_energy": 24.68, 
			 "cosmo_dispersion_energy": -18.95, 
			 "cosmo_repulsion_energy": 1.49, 
			 "cosmo_total_nonelectrostatic_energy": 7.22, 
			 "SMD_solvation_energy": 3.62 
		},
		"coords": [
			{
				"x": -1.3349266843,
				"y": 1.7122318709,
				"z": 2.5289291679,
				"element": "N" 
			},
			{
				"x": -0.7415455649,
				"y": 0.1282436665,
				"z": 2.446702166,
				"element": "S" 
			},
			{
				"x": 0.2119115726,
				"y": -0.044835706,
				"z": 3.5458219678,
				"element": "O" 
			},
			{
				"x": -1.9010999624,
				"y": -0.748041857,
				"z": 2.2616859419,
				"element": "O" 
			},
			{
				"x": 0.1946973337,
				"y": 0.1201787705,
				"z": 0.9135968922,
				"element": "C" 
			},
			{
				"x": 1.5584673877,
				"y": 0.4085520113,
				"z": 0.9607627166,
				"element": "C" 
			},
			{
				"x": 2.2701821989,
				"y": 0.4047183538,
				"z": -0.2374637833,
				"element": "C" 
			},
			{
				"x": 3.9874996453,
				"y": 0.7631021448,
				"z": -0.2150620771,
				"element": "Cl" 
			},
			{
				"x": 1.6454799843,
				"y": 0.1153606472,
				"z": -1.4516176573,
				"element": "C" 
			},
			{
				"x": 0.2816171104,
				"y": -0.1815722912,
				"z": -1.4654103279,
				"element": "C" 
			},
			{
				"x": -0.456421831,
				"y": -0.1836102481,
				"z": -0.2821201587,
				"element": "C" 
			},
			{
				"x": -0.9289149014,
				"y": 2.1883605257,
				"z": 3.3301971245,
				"element": "H" 
			},
			{
				"x": -2.3496702245,
				"y": 1.6861764909,
				"z": 2.5853573496,
				"element": "H" 
			},
			{
				"x": 2.0482700907,
				"y": 0.6112048865,
				"z": 1.9055592352,
				"element": "H" 
			},
			{
				"x": 2.2232861676,
				"y": 0.1159086489,
				"z": -2.3691251212,
				"element": "H" 
			},
			{
				"x": -0.2044671978,
				"y": -0.418508341,
				"z": -2.4066521264,
				"element": "H" 
			},
			{
				"x": -1.5115651251,
				"y": -0.4317695738,
				"z": -0.2765613098,
				"element": "H" 
			}
		],
		 "valence_orbital": [ 
			{
				"type": "occ",
				"energy": -0.31906,
				"method": "rhf"
			},
			{
				"type": "occ",
				"energy": -0.31284,
				"method": "rhf"
			},
			{
				"type": "occ",
				"energy": -0.30784,
				"method": "rhf"
			},
			{
				"type": "occ",
				"energy": -0.27874,
				"method": "rhf"
			},
			{
				"type": "occ",
				"energy": -0.26425,
				"method": "rhf"
			},
			{
				"type": "unocc",
				"energy": -0.04864,
				"method": "rhf"
			},
			{
				"type": "unocc",
				"energy": -0.03232,
				"method": "rhf"
			},
			{
				"type": "unocc",
				"energy": 0.01277,
				"method": "rhf"
			},
			{
				"type": "unocc",
				"energy": 0.05478,
				"method": "rhf"
			},
			{
				"type": "unocc",
				"energy": 0.07875,
				"method": "rhf"
			}
		],
		"cosmo_sigma_profile": { 
			"-0.025": 0.0,
			"-0.024": 0.0,
			"-0.023": 0.0,
			"-0.022": 0.0,
			"-0.021": 0.0,
			"-0.02": 0.0,
			"-0.019": 0.0,
			"-0.018": 0.0,
			"-0.017": 0.0,
			"-0.016": 0.0,
			"-0.015": 1.62746493454,
			"-0.014": 2.36244568757,
			"-0.013": 1.977566472,
			"-0.012": 3.18123785103,
			"-0.011": 2.01404707521,
			"-0.01": 1.64589928779,
			"-0.009": 1.92591071569,
			"-0.008": 5.83095735965,
			"-0.007": 9.55490433154,
			"-0.006": 9.00018000307,
			"-0.005": 8.70179885985,
			"-0.004": 7.9049886294,
			"-0.003": 8.85922290824,
			"-0.002": 9.71838219476,
			"-0.001": 11.5304403099,
			"0.0": 13.7012649703,
			"0.001": 22.4279902563,
			"0.002": 16.8005780556,
			"0.003": 10.3606966183,
			"0.004": 12.3553032834,
			"0.005": 5.35769825228,
			"0.006": 2.75094260416,
			"0.007": 3.03479570462,
			"0.008": 3.171243829,
			"0.009": 5.0329270069,
			"0.01": 8.63754537386,
			"0.011": 8.64698094569,
			"0.012": 1.85821878072,
			"0.013": 0.039804606667,
			"0.014": 0.0,
			"0.015": 0.0,
			"0.016": 0.0,
			"0.017": 0.0,
			"0.018": 0.0,
			"0.019": 0.0,
			"0.02": 0.0,
			"0.021": 0.0,
			"0.022": 0.0,
			"0.023": 0.0,
			"0.024": 0.0,
			"0.025": 0.0
		}
	}
}
