{
	 "smiles": "COC(=O)C(N)C1=CN=CC=C1", 
	 "Tm": 335.15, 
	 "num_atms": 22, 
	 "gaussian": { 
		 "optdone": 1, 
		 "sigma_profile": "yes", 
		 "theory": "DFT", 
		 "functional": "B3LYP", 
		 "basiset": "6-31G**", 
		 "properties": { 
			 "R2extent": 2555.0204, 
			 "electric_dipole_moment_norm": 3.87104629396, 
			 "electric_quadrupole_moment_norm": 8.07336940441, 
			 "total_energy": -570.821146013, 
			 "HOMO_LUMO_gap": 0.2217, 
			 "cosmo_polarized_energy": -12.78, 
			 "cosmo_cavitation_energy": 26.1, 
			 "cosmo_dispersion_energy": -18.79, 
			 "cosmo_repulsion_energy": 1.52, 
			 "cosmo_total_nonelectrostatic_energy": 8.83, 
			 "SMD_solvation_energy": 3.84 
		},
		"coords": [
			{
				"x": 1.220581354,
				"y": -0.8811529133,
				"z": -2.0495058626,
				"element": "C" 
			},
			{
				"x": 1.0050075768,
				"y": -0.3088030323,
				"z": -0.7467958753,
				"element": "O" 
			},
			{
				"x": 0.229786711,
				"y": 0.7960530035,
				"z": -0.720735207,
				"element": "C" 
			},
			{
				"x": -0.2439904558,
				"y": 1.3087069233,
				"z": -1.7118420241,
				"element": "O" 
			},
			{
				"x": 0.0094576946,
				"y": 1.3009335272,
				"z": 0.7151455596,
				"element": "C" 
			},
			{
				"x": 1.1586391947,
				"y": 1.1450109304,
				"z": 1.602568195,
				"element": "N" 
			},
			{
				"x": -1.2431709351,
				"y": 0.6390433233,
				"z": 1.300926378,
				"element": "C" 
			},
			{
				"x": -2.4224339976,
				"y": 0.5237732754,
				"z": 0.5494444001,
				"element": "C" 
			},
			{
				"x": -3.5538996757,
				"y": -0.0219047449,
				"z": 1.0088415227,
				"element": "N" 
			},
			{
				"x": -3.5497705217,
				"y": -0.4829360453,
				"z": 2.2663116945,
				"element": "C" 
			},
			{
				"x": -2.4373875224,
				"y": -0.4127406735,
				"z": 3.1036209977,
				"element": "C" 
			},
			{
				"x": -1.2650056535,
				"y": 0.1607394944,
				"z": 2.6128013619,
				"element": "C" 
			},
			{
				"x": 1.70762761,
				"y": -0.1590963938,
				"z": -2.7090992646,
				"element": "H" 
			},
			{
				"x": 1.8606592363,
				"y": -1.7482015363,
				"z": -1.8883814608,
				"element": "H" 
			},
			{
				"x": 0.2696107164,
				"y": -1.1820371368,
				"z": -2.4954310874,
				"element": "H" 
			},
			{
				"x": -0.1919302822,
				"y": 2.3729146252,
				"z": 0.6075157102,
				"element": "H" 
			},
			{
				"x": 1.9170642528,
				"y": 1.7444783366,
				"z": 1.289195612,
				"element": "H" 
			},
			{
				"x": 1.5023773284,
				"y": 0.1892319132,
				"z": 1.54144913,
				"element": "H" 
			},
			{
				"x": -2.4523614292,
				"y": 0.8940646153,
				"z": -0.4735478592,
				"element": "H" 
			},
			{
				"x": -4.4803131072,
				"y": -0.9249527216,
				"z": 2.6186596537,
				"element": "H" 
			},
			{
				"x": -2.4886370519,
				"y": -0.7950145422,
				"z": 4.1186817298,
				"element": "H" 
			},
			{
				"x": -0.3786110427,
				"y": 0.2554897721,
				"z": 3.2303766958,
				"element": "H" 
			}
		],
		 "valence_orbital": [ 
			{
				"type": "occ",
				"energy": -0.30303,
				"method": "rhf"
			},
			{
				"type": "occ",
				"energy": -0.28028,
				"method": "rhf"
			},
			{
				"type": "occ",
				"energy": -0.25806,
				"method": "rhf"
			},
			{
				"type": "occ",
				"energy": -0.24793,
				"method": "rhf"
			},
			{
				"type": "occ",
				"energy": -0.24348,
				"method": "rhf"
			},
			{
				"type": "unocc",
				"energy": -0.02178,
				"method": "rhf"
			},
			{
				"type": "unocc",
				"energy": -0.01158,
				"method": "rhf"
			},
			{
				"type": "unocc",
				"energy": 0.00556,
				"method": "rhf"
			},
			{
				"type": "unocc",
				"energy": 0.07553,
				"method": "rhf"
			},
			{
				"type": "unocc",
				"energy": 0.10698,
				"method": "rhf"
			}
		],
		"cosmo_sigma_profile": { 
			"-0.025": 0.0,
			"-0.024": 0.0,
			"-0.023": 0.0,
			"-0.022": 0.0,
			"-0.021": 0.0,
			"-0.02": 0.0,
			"-0.019": 0.0,
			"-0.018": 0.0,
			"-0.017": 0.0,
			"-0.016": 0.0,
			"-0.015": 0.0,
			"-0.014": 0.0,
			"-0.013": 0.0,
			"-0.012": 0.219117946866,
			"-0.011": 1.69733795335,
			"-0.01": 2.29898230044,
			"-0.009": 2.03335999487,
			"-0.008": 3.51650760574,
			"-0.007": 6.88598376564,
			"-0.006": 13.5671303524,
			"-0.005": 17.5543405667,
			"-0.004": 18.089921526,
			"-0.003": 16.8972931468,
			"-0.002": 14.0925734913,
			"-0.001": 11.6550250275,
			"0.0": 12.0475779264,
			"0.001": 11.8003333964,
			"0.002": 16.1585166318,
			"0.003": 13.9352727755,
			"0.004": 5.81037434177,
			"0.005": 5.55315392313,
			"0.006": 3.82187646327,
			"0.007": 4.33584859427,
			"0.008": 2.7988055649,
			"0.009": 2.91250726525,
			"0.01": 4.08448219496,
			"0.011": 4.6657978187,
			"0.012": 4.91178128697,
			"0.013": 1.6954686838,
			"0.014": 1.38689417636,
			"0.015": 1.2725147006,
			"0.016": 0.904139335731,
			"0.017": 0.396889561503,
			"0.018": 0.0,
			"0.019": 0.0,
			"0.02": 0.0,
			"0.021": 0.0,
			"0.022": 0.0,
			"0.023": 0.0,
			"0.024": 0.0,
			"0.025": 0.0
		}
	}
}
