{
	 "smiles": "CCC(CO)NC(=O)C1CN(C)C2CC3=CN(C)C4=CC=CC(=C34)C2=C1", 
	 "Tm": 468.15, 
	 "num_atms": 53, 
	 "gaussian": { 
		 "optdone": 1, 
		 "sigma_profile": "yes", 
		 "theory": "DFT", 
		 "functional": "B3LYP", 
		 "basiset": "6-31G**", 
		 "properties": { 
			 "R2extent": 12292.3905, 
			 "electric_dipole_moment_norm": 2.43538782538, 
			 "electric_quadrupole_moment_norm": 20.3923265186, 
			 "total_energy": -1131.20052696, 
			 "HOMO_LUMO_gap": 0.16447, 
			 "cosmo_polarized_energy": -23.98, 
			 "cosmo_cavitation_energy": 52.07, 
			 "cosmo_dispersion_energy": -35.68, 
			 "cosmo_repulsion_energy": 2.71, 
			 "cosmo_total_nonelectrostatic_energy": 19.09, 
			 "SMD_solvation_energy": 6.7 
		},
		"coords": [
			{
				"x": 4.1136163884,
				"y": 0.8183081471,
				"z": 3.8860180742,
				"element": "C" 
			},
			{
				"x": 3.2637685854,
				"y": 1.7163514456,
				"z": 4.7905769505,
				"element": "C" 
			},
			{
				"x": 1.7333929703,
				"y": 1.5978550261,
				"z": 4.6269096973,
				"element": "C" 
			},
			{
				"x": 1.1687546233,
				"y": 0.2423891069,
				"z": 5.074659659,
				"element": "C" 
			},
			{
				"x": 1.3620538116,
				"y": 0.1886838973,
				"z": 6.4886872678,
				"element": "O" 
			},
			{
				"x": 1.2589977186,
				"y": 1.9855356263,
				"z": 3.2906100442,
				"element": "N" 
			},
			{
				"x": 1.1281370516,
				"y": 1.1695631801,
				"z": 2.1983292318,
				"element": "C" 
			},
			{
				"x": 1.3843538603,
				"y": -0.0267734704,
				"z": 2.2119453275,
				"element": "O" 
			},
			{
				"x": 0.5948230473,
				"y": 1.9007640708,
				"z": 0.9406109484,
				"element": "C" 
			},
			{
				"x": -0.915234378,
				"y": 2.1699709644,
				"z": 1.0437225581,
				"element": "C" 
			},
			{
				"x": -1.669968812,
				"y": 0.9282447968,
				"z": 0.9288672815,
				"element": "N" 
			},
			{
				"x": -3.0736989694,
				"y": 1.1547624561,
				"z": 1.2503463339,
				"element": "C" 
			},
			{
				"x": -1.4972865905,
				"y": 0.2531981069,
				"z": -0.367382654,
				"element": "C" 
			},
			{
				"x": -1.8934454683,
				"y": -1.2529933374,
				"z": -0.2354086751,
				"element": "C" 
			},
			{
				"x": -1.6621184118,
				"y": -1.9532356537,
				"z": -1.5425147222,
				"element": "C" 
			},
			{
				"x": -2.1790947948,
				"y": -3.0518986507,
				"z": -2.1806574912,
				"element": "C" 
			},
			{
				"x": -1.5162241516,
				"y": -3.2555485871,
				"z": -3.395895421,
				"element": "N" 
			},
			{
				"x": -1.8099336789,
				"y": -4.2974568919,
				"z": -4.3565906349,
				"element": "C" 
			},
			{
				"x": -0.5631775827,
				"y": -2.2643013747,
				"z": -3.5489685281,
				"element": "C" 
			},
			{
				"x": 0.3784174837,
				"y": -1.9754798479,
				"z": -4.5458933367,
				"element": "C" 
			},
			{
				"x": 1.2005030549,
				"y": -0.865291988,
				"z": -4.3349214716,
				"element": "C" 
			},
			{
				"x": 1.1067808921,
				"y": -0.0499142352,
				"z": -3.1866887105,
				"element": "C" 
			},
			{
				"x": 0.1721400269,
				"y": -0.3358734877,
				"z": -2.1883811587,
				"element": "C" 
			},
			{
				"x": -0.649248742,
				"y": -1.448862643,
				"z": -2.403743651,
				"element": "C" 
			},
			{
				"x": -0.0748965189,
				"y": 0.4013099586,
				"z": -0.930335631,
				"element": "C" 
			},
			{
				"x": 0.8701461711,
				"y": 1.1219273943,
				"z": -0.3106090553,
				"element": "C" 
			},
			{
				"x": 3.9166516268,
				"y": -0.242950329,
				"z": 4.06149918,
				"element": "H" 
			},
			{
				"x": 3.9234268597,
				"y": 1.0121135217,
				"z": 2.8271763321,
				"element": "H" 
			},
			{
				"x": 5.1780274754,
				"y": 0.9939755603,
				"z": 4.0752772509,
				"element": "H" 
			},
			{
				"x": 3.4830084489,
				"y": 1.5020649233,
				"z": 5.8425063389,
				"element": "H" 
			},
			{
				"x": 3.5404007396,
				"y": 2.7659381477,
				"z": 4.6221268876,
				"element": "H" 
			},
			{
				"x": 1.2852319136,
				"y": 2.3261433387,
				"z": 5.3150823651,
				"element": "H" 
			},
			{
				"x": 0.1013303245,
				"y": 0.1982382981,
				"z": 4.8134215494,
				"element": "H" 
			},
			{
				"x": 1.6678271173,
				"y": -0.582241451,
				"z": 4.5595871675,
				"element": "H" 
			},
			{
				"x": 1.2430675218,
				"y": -0.7265147057,
				"z": 6.7677156282,
				"element": "H" 
			},
			{
				"x": 1.1036903995,
				"y": 2.972507408,
				"z": 3.1478278704,
				"element": "H" 
			},
			{
				"x": 1.103058029,
				"y": 2.8750143242,
				"z": 0.8798239047,
				"element": "H" 
			},
			{
				"x": -1.1552014831,
				"y": 2.6194200917,
				"z": 2.0138061671,
				"element": "H" 
			},
			{
				"x": -1.195518139,
				"y": 2.9092524188,
				"z": 0.2666905282,
				"element": "H" 
			},
			{
				"x": -3.6265947745,
				"y": 0.2132172626,
				"z": 1.2656063529,
				"element": "H" 
			},
			{
				"x": -3.1516972143,
				"y": 1.5965771518,
				"z": 2.2487624617,
				"element": "H" 
			},
			{
				"x": -3.579241024,
				"y": 1.8332196719,
				"z": 0.5354554178,
				"element": "H" 
			},
			{
				"x": -2.1773224153,
				"y": 0.7009395043,
				"z": -1.1226090256,
				"element": "H" 
			},
			{
				"x": -1.2705330816,
				"y": -1.6781647942,
				"z": 0.5618924774,
				"element": "H" 
			},
			{
				"x": -2.9352615517,
				"y": -1.3398132365,
				"z": 0.0868478813,
				"element": "H" 
			},
			{
				"x": -2.9652297231,
				"y": -3.7341449766,
				"z": -1.8859017447,
				"element": "H" 
			},
			{
				"x": -2.2490929267,
				"y": -3.8894121067,
				"z": -5.2753981283,
				"element": "H" 
			},
			{
				"x": -0.9006235577,
				"y": -4.8483503117,
				"z": -4.6213243537,
				"element": "H" 
			},
			{
				"x": -2.519631327,
				"y": -5.0009452921,
				"z": -3.9169336238,
				"element": "H" 
			},
			{
				"x": 0.4744349144,
				"y": -2.5741982594,
				"z": -5.446593904,
				"element": "H" 
			},
			{
				"x": 1.9352539979,
				"y": -0.6103643171,
				"z": -5.0936107067,
				"element": "H" 
			},
			{
				"x": 1.7552952351,
				"y": 0.8169846549,
				"z": -3.0988409196,
				"element": "H" 
			},
			{
				"x": 1.8811850277,
				"y": 1.1409594926,
				"z": -0.7090855875,
				"element": "H" 
			}
		],
		 "valence_orbital": [ 
			{
				"type": "occ",
				"energy": -0.23626,
				"method": "rhf"
			},
			{
				"type": "occ",
				"energy": -0.2273,
				"method": "rhf"
			},
			{
				"type": "occ",
				"energy": -0.21143,
				"method": "rhf"
			},
			{
				"type": "occ",
				"energy": -0.20717,
				"method": "rhf"
			},
			{
				"type": "occ",
				"energy": -0.18251,
				"method": "rhf"
			},
			{
				"type": "unocc",
				"energy": -0.01804,
				"method": "rhf"
			},
			{
				"type": "unocc",
				"energy": 0.02129,
				"method": "rhf"
			},
			{
				"type": "unocc",
				"energy": 0.03409,
				"method": "rhf"
			},
			{
				"type": "unocc",
				"energy": 0.05531,
				"method": "rhf"
			},
			{
				"type": "unocc",
				"energy": 0.06949,
				"method": "rhf"
			}
		],
		"cosmo_sigma_profile": { 
			"-0.025": 0.0,
			"-0.024": 0.0,
			"-0.023": 0.0,
			"-0.022": 0.0,
			"-0.021": 0.0,
			"-0.02": 0.0,
			"-0.019": 0.0,
			"-0.018": 0.0,
			"-0.017": 0.0,
			"-0.016": 0.335623198487,
			"-0.015": 0.944019012675,
			"-0.014": 1.91775470195,
			"-0.013": 2.18432058463,
			"-0.012": 1.91391100138,
			"-0.011": 2.46472115754,
			"-0.01": 2.61338217735,
			"-0.009": 2.1386763223,
			"-0.008": 3.97719029038,
			"-0.007": 6.30385551774,
			"-0.006": 9.76659202766,
			"-0.005": 22.4560271054,
			"-0.004": 31.7985059391,
			"-0.003": 38.2851882213,
			"-0.002": 48.6384459013,
			"-0.001": 41.3266683495,
			"0.0": 35.4533777734,
			"0.001": 28.911443704,
			"0.002": 17.6883790269,
			"0.003": 14.4331518627,
			"0.004": 15.5915090244,
			"0.005": 19.1685230889,
			"0.006": 16.124859609,
			"0.007": 11.3223449852,
			"0.008": 3.8038314705,
			"0.009": 3.83408289978,
			"0.01": 3.65618946129,
			"0.011": 4.35515122176,
			"0.012": 4.11220548156,
			"0.013": 5.28124255304,
			"0.014": 4.3290127113,
			"0.015": 1.64530967322,
			"0.016": 0.135147809226,
			"0.017": 0.0,
			"0.018": 0.0,
			"0.019": 0.0,
			"0.02": 0.0,
			"0.021": 0.0,
			"0.022": 0.0,
			"0.023": 0.0,
			"0.024": 0.0,
			"0.025": 0.0
		}
	}
}
