{
	 "smiles": "CCCC", 
	 "Tm": 135.15, 
	 "num_atms": 14, 
	 "gaussian": { 
		 "optdone": 1, 
		 "sigma_profile": "yes", 
		 "theory": "DFT", 
		 "functional": "B3LYP", 
		 "basiset": "6-31G**", 
		 "properties": { 
			 "R2extent": 744.4496, 
			 "electric_dipole_moment_norm": 0.0, 
			 "electric_quadrupole_moment_norm": 0.624688762505, 
			 "total_energy": -158.468970298, 
			 "HOMO_LUMO_gap": 0.41241, 
			 "cosmo_polarized_energy": -0.41, 
			 "cosmo_cavitation_energy": 15.76, 
			 "cosmo_dispersion_energy": -11.81, 
			 "cosmo_repulsion_energy": 1.09, 
			 "cosmo_total_nonelectrostatic_energy": 5.04, 
			 "SMD_solvation_energy": 2.9 
		},
		"coords": [
			{
				"x": 0.1408686314,
				"y": -1.5015323346,
				"z": 1.7559390654,
				"element": "C" 
			},
			{
				"x": 1.4408809972,
				"y": -1.1864757891,
				"z": 1.0075878091,
				"element": "C" 
			},
			{
				"x": 1.2088297121,
				"y": -0.5518072105,
				"z": -0.3701878911,
				"element": "C" 
			},
			{
				"x": 2.5088548572,
				"y": -0.2367566685,
				"z": -1.1185391844,
				"element": "C" 
			},
			{
				"x": -0.449872699,
				"y": -0.5935180029,
				"z": 1.9229133091,
				"element": "H" 
			},
			{
				"x": -0.4832547579,
				"y": -2.2011866889,
				"z": 1.1882189028,
				"element": "H" 
			},
			{
				"x": 0.3396568781,
				"y": -1.9525392391,
				"z": 2.7338133106,
				"element": "H" 
			},
			{
				"x": 2.0592915335,
				"y": -0.512031313,
				"z": 1.6155348549,
				"element": "H" 
			},
			{
				"x": 2.0261443142,
				"y": -2.1081964653,
				"z": 0.8858803011,
				"element": "H" 
			},
			{
				"x": 0.5904203972,
				"y": -1.2262460426,
				"z": -0.9781402196,
				"element": "H" 
			},
			{
				"x": 0.6235784484,
				"y": 0.369921419,
				"z": -0.2484860649,
				"element": "H" 
			},
			{
				"x": 3.0995804949,
				"y": -1.1447792183,
				"z": -1.2855097208,
				"element": "H" 
			},
			{
				"x": 2.3100557631,
				"y": 0.2142477435,
				"z": -2.0964118054,
				"element": "H" 
			},
			{
				"x": 3.1329654298,
				"y": 0.4628998103,
				"z": -0.5508126668,
				"element": "H" 
			}
		],
		 "valence_orbital": [ 
			{
				"type": "occ",
				"energy": -0.3638,
				"method": "rhf"
			},
			{
				"type": "occ",
				"energy": -0.34622,
				"method": "rhf"
			},
			{
				"type": "occ",
				"energy": -0.32847,
				"method": "rhf"
			},
			{
				"type": "occ",
				"energy": -0.31839,
				"method": "rhf"
			},
			{
				"type": "occ",
				"energy": -0.31743,
				"method": "rhf"
			},
			{
				"type": "unocc",
				"energy": 0.09498,
				"method": "rhf"
			},
			{
				"type": "unocc",
				"energy": 0.12096,
				"method": "rhf"
			},
			{
				"type": "unocc",
				"energy": 0.13624,
				"method": "rhf"
			},
			{
				"type": "unocc",
				"energy": 0.14629,
				"method": "rhf"
			},
			{
				"type": "unocc",
				"energy": 0.17069,
				"method": "rhf"
			}
		],
		"cosmo_sigma_profile": { 
			"-0.025": 0.0,
			"-0.024": 0.0,
			"-0.023": 0.0,
			"-0.022": 0.0,
			"-0.021": 0.0,
			"-0.02": 0.0,
			"-0.019": 0.0,
			"-0.018": 0.0,
			"-0.017": 0.0,
			"-0.016": 0.0,
			"-0.015": 0.0,
			"-0.014": 0.0,
			"-0.013": 0.0,
			"-0.012": 0.0,
			"-0.011": 0.0,
			"-0.01": 0.0,
			"-0.009": 0.0,
			"-0.008": 0.0,
			"-0.007": 0.0,
			"-0.006": 0.0,
			"-0.005": 0.0,
			"-0.004": 0.0,
			"-0.003": 2.74064512933,
			"-0.002": 17.0505693566,
			"-0.001": 25.1338359038,
			"0.0": 27.628598354,
			"0.001": 30.0628059965,
			"0.002": 17.7052248241,
			"0.003": 0.733711765613,
			"0.004": 0.0,
			"0.005": 0.0,
			"0.006": 0.0,
			"0.007": 0.0,
			"0.008": 0.0,
			"0.009": 0.0,
			"0.01": 0.0,
			"0.011": 0.0,
			"0.012": 0.0,
			"0.013": 0.0,
			"0.014": 0.0,
			"0.015": 0.0,
			"0.016": 0.0,
			"0.017": 0.0,
			"0.018": 0.0,
			"0.019": 0.0,
			"0.02": 0.0,
			"0.021": 0.0,
			"0.022": 0.0,
			"0.023": 0.0,
			"0.024": 0.0,
			"0.025": 0.0
		}
	}
}
