{
	 "smiles": "FC1=CC=C(NC(=S)NC2=CC(Cl)=CC(Cl)=C2)C=C1", 
	 "Tm": 437.15, 
	 "num_atms": 28, 
	 "gaussian": { 
		 "optdone": 1, 
		 "sigma_profile": "yes", 
		 "theory": "DFT", 
		 "functional": "B3LYP", 
		 "basiset": "6-31G**", 
		 "properties": { 
			 "R2extent": 7990.6691, 
			 "electric_dipole_moment_norm": 2.01604103629, 
			 "electric_quadrupole_moment_norm": 16.4054773283, 
			 "total_energy": -2028.72552557, 
			 "HOMO_LUMO_gap": 0.158, 
			 "cosmo_polarized_energy": -15.81, 
			 "cosmo_cavitation_energy": 38.94, 
			 "cosmo_dispersion_energy": -26.64, 
			 "cosmo_repulsion_energy": 2.03, 
			 "cosmo_total_nonelectrostatic_energy": 14.34, 
			 "SMD_solvation_energy": 5.62 
		},
		"coords": [
			{
				"x": -2.8410148028,
				"y": 3.2366489637,
				"z": -3.073713603,
				"element": "F" 
			},
			{
				"x": -2.2849217395,
				"y": 2.6195635323,
				"z": -2.0127411438,
				"element": "C" 
			},
			{
				"x": -1.8901296678,
				"y": 3.3794004839,
				"z": -0.9175262318,
				"element": "C" 
			},
			{
				"x": -1.3053346342,
				"y": 2.735251208,
				"z": 0.170276615,
				"element": "C" 
			},
			{
				"x": -1.1350090185,
				"y": 1.3444748012,
				"z": 0.1668903401,
				"element": "C" 
			},
			{
				"x": -0.5898076023,
				"y": 0.7380418316,
				"z": 1.3355211005,
				"element": "N" 
			},
			{
				"x": 0.0450461075,
				"y": -0.4677559622,
				"z": 1.4751567443,
				"element": "C" 
			},
			{
				"x": -0.0752702534,
				"y": -1.3542121128,
				"z": 2.8917277982,
				"element": "S" 
			},
			{
				"x": 0.7847311888,
				"y": -0.9441930977,
				"z": 0.4132576718,
				"element": "N" 
			},
			{
				"x": 1.5546895036,
				"y": -0.2418483943,
				"z": -0.5433234543,
				"element": "C" 
			},
			{
				"x": 1.9717471979,
				"y": 1.0819825241,
				"z": -0.3531427904,
				"element": "C" 
			},
			{
				"x": 2.7611461227,
				"y": 1.6820867522,
				"z": -1.3302670004,
				"element": "C" 
			},
			{
				"x": 3.2801806493,
				"y": 3.3412760059,
				"z": -1.0945198316,
				"element": "Cl" 
			},
			{
				"x": 3.1693630337,
				"y": 1.0088719423,
				"z": -2.4807821122,
				"element": "C" 
			},
			{
				"x": 2.7534619921,
				"y": -0.3131470964,
				"z": -2.632634899,
				"element": "C" 
			},
			{
				"x": 3.2454679784,
				"y": -1.2000246292,
				"z": -4.0633698121,
				"element": "Cl" 
			},
			{
				"x": 1.9485997818,
				"y": -0.9455447909,
				"z": -1.6905206437,
				"element": "C" 
			},
			{
				"x": -1.5575621493,
				"y": 0.5976000848,
				"z": -0.9406432312,
				"element": "C" 
			},
			{
				"x": -2.1244074608,
				"y": 1.2386589983,
				"z": -2.0401791331,
				"element": "C" 
			},
			{
				"x": -2.0306226981,
				"y": 4.4544570693,
				"z": -0.9291555752,
				"element": "H" 
			},
			{
				"x": -0.9751974232,
				"y": 3.3139334986,
				"z": 1.0280821929,
				"element": "H" 
			},
			{
				"x": -0.9940298639,
				"y": 1.0440964556,
				"z": 2.2116603391,
				"element": "H" 
			},
			{
				"x": 1.0635267072,
				"y": -1.9052541186,
				"z": 0.5644899607,
				"element": "H" 
			},
			{
				"x": 1.7004559747,
				"y": 1.627707979,
				"z": 0.5398028702,
				"element": "H" 
			},
			{
				"x": 3.787016542,
				"y": 1.4929245021,
				"z": -3.2259865073,
				"element": "H" 
			},
			{
				"x": 1.6254385007,
				"y": -1.9688753665,
				"z": -1.8455076795,
				"element": "H" 
			},
			{
				"x": -1.4499874123,
				"y": -0.4805761041,
				"z": -0.9418288982,
				"element": "H" 
			},
			{
				"x": -2.4555765546,
				"y": 0.6784550398,
				"z": -2.9076230859,
				"element": "H" 
			}
		],
		 "valence_orbital": [ 
			{
				"type": "occ",
				"energy": -0.27279,
				"method": "rhf"
			},
			{
				"type": "occ",
				"energy": -0.26318,
				"method": "rhf"
			},
			{
				"type": "occ",
				"energy": -0.2453,
				"method": "rhf"
			},
			{
				"type": "occ",
				"energy": -0.23211,
				"method": "rhf"
			},
			{
				"type": "occ",
				"energy": -0.2177,
				"method": "rhf"
			},
			{
				"type": "unocc",
				"energy": -0.0597,
				"method": "rhf"
			},
			{
				"type": "unocc",
				"energy": -0.03829,
				"method": "rhf"
			},
			{
				"type": "unocc",
				"energy": -0.0312,
				"method": "rhf"
			},
			{
				"type": "unocc",
				"energy": -0.01786,
				"method": "rhf"
			},
			{
				"type": "unocc",
				"energy": -0.00413,
				"method": "rhf"
			}
		],
		"cosmo_sigma_profile": { 
			"-0.025": 0.0,
			"-0.024": 0.0,
			"-0.023": 0.0,
			"-0.022": 0.0,
			"-0.021": 0.0,
			"-0.02": 0.0,
			"-0.019": 0.0,
			"-0.018": 0.0,
			"-0.017": 0.0,
			"-0.016": 0.121719571497,
			"-0.015": 1.2931999911,
			"-0.014": 2.05695210638,
			"-0.013": 2.3125557487,
			"-0.012": 1.88124299405,
			"-0.011": 2.0259639371,
			"-0.01": 2.38947419777,
			"-0.009": 3.90660013561,
			"-0.008": 6.56925732113,
			"-0.007": 12.0509214766,
			"-0.006": 11.9767169881,
			"-0.005": 14.8590362791,
			"-0.004": 13.5998027712,
			"-0.003": 15.3279291353,
			"-0.002": 17.4388901357,
			"-0.001": 18.528651705,
			"0.0": 26.4931824095,
			"0.001": 37.80660617,
			"0.002": 31.3041643317,
			"0.003": 29.1265300172,
			"0.004": 32.1800116309,
			"0.005": 7.14331683622,
			"0.006": 4.01316975785,
			"0.007": 3.31549991414,
			"0.008": 4.82402810209,
			"0.009": 6.73078890062,
			"0.01": 6.29497543071,
			"0.011": 3.76724870604,
			"0.012": 1.03941483374,
			"0.013": 0.0,
			"0.014": 0.0,
			"0.015": 0.0,
			"0.016": 0.0,
			"0.017": 0.0,
			"0.018": 0.0,
			"0.019": 0.0,
			"0.02": 0.0,
			"0.021": 0.0,
			"0.022": 0.0,
			"0.023": 0.0,
			"0.024": 0.0,
			"0.025": 0.0
		}
	}
}
