{
	 "smiles": "CC(C)(C)N(NC(=O)C1=CC=CC=C1)C(=O)C1=C(F)C=CC=C1Cl", 
	 "Tm": 483.15, 
	 "num_atms": 42, 
	 "gaussian": { 
		 "optdone": 1, 
		 "sigma_profile": "yes", 
		 "theory": "DFT", 
		 "functional": "B3LYP", 
		 "basiset": "6-31G**", 
		 "properties": { 
			 "R2extent": 8195.1816, 
			 "electric_dipole_moment_norm": 5.81279164688, 
			 "electric_quadrupole_moment_norm": 16.9196762974, 
			 "total_energy": -1516.74195982, 
			 "HOMO_LUMO_gap": 0.2001, 
			 "cosmo_polarized_energy": -18.64, 
			 "cosmo_cavitation_energy": 46.63, 
			 "cosmo_dispersion_energy": -30.0, 
			 "cosmo_repulsion_energy": 2.25, 
			 "cosmo_total_nonelectrostatic_energy": 18.88, 
			 "SMD_solvation_energy": 9.26 
		},
		"coords": [
			{
				"x": -0.3283108154,
				"y": 2.9787650409,
				"z": 0.7838174882,
				"element": "C" 
			},
			{
				"x": 1.0933194629,
				"y": 2.4026552256,
				"z": 0.8475387403,
				"element": "C" 
			},
			{
				"x": 2.0101635259,
				"y": 3.2147798664,
				"z": -0.086990524,
				"element": "C" 
			},
			{
				"x": 1.5913491142,
				"y": 2.4432513979,
				"z": 2.3040286911,
				"element": "C" 
			},
			{
				"x": 1.0633391232,
				"y": 0.9600680049,
				"z": 0.3793389642,
				"element": "N" 
			},
			{
				"x": -0.1327588372,
				"y": 0.3752236791,
				"z": 0.0070463618,
				"element": "N" 
			},
			{
				"x": -0.9847116831,
				"y": -0.2081247078,
				"z": 0.9244008235,
				"element": "C" 
			},
			{
				"x": -0.7891153077,
				"y": -0.1487959389,
				"z": 2.1296735901,
				"element": "O" 
			},
			{
				"x": -2.1834613801,
				"y": -0.8895101565,
				"z": 0.3296417249,
				"element": "C" 
			},
			{
				"x": -3.2841790232,
				"y": -1.0892787836,
				"z": 1.1740090721,
				"element": "C" 
			},
			{
				"x": -4.4331725397,
				"y": -1.7146426076,
				"z": 0.696715655,
				"element": "C" 
			},
			{
				"x": -4.4899299036,
				"y": -2.1579584197,
				"z": -0.6272585606,
				"element": "C" 
			},
			{
				"x": -3.3907008667,
				"y": -1.9795653958,
				"z": -1.4692021832,
				"element": "C" 
			},
			{
				"x": -2.2403486906,
				"y": -1.3487333634,
				"z": -0.9951015735,
				"element": "C" 
			},
			{
				"x": 2.2028245281,
				"y": 0.1862344893,
				"z": 0.3342229359,
				"element": "C" 
			},
			{
				"x": 3.3116071064,
				"y": 0.6034052241,
				"z": 0.6321153028,
				"element": "O" 
			},
			{
				"x": 2.0508086565,
				"y": -1.2481332328,
				"z": -0.1408200699,
				"element": "C" 
			},
			{
				"x": 1.694983835,
				"y": -1.5424481586,
				"z": -1.4580167302,
				"element": "C" 
			},
			{
				"x": 1.301248735,
				"y": -0.5149991604,
				"z": -2.2596355318,
				"element": "F" 
			},
			{
				"x": 1.6981584037,
				"y": -2.8209391836,
				"z": -1.9937417924,
				"element": "C" 
			},
			{
				"x": 2.0762521227,
				"y": -3.878063648,
				"z": -1.1664802406,
				"element": "C" 
			},
			{
				"x": 2.4320150106,
				"y": -3.6430463203,
				"z": 0.1603620051,
				"element": "C" 
			},
			{
				"x": 2.4269090535,
				"y": -2.3387840154,
				"z": 0.6591796608,
				"element": "C" 
			},
			{
				"x": 2.8670765223,
				"y": -2.0967156027,
				"z": 2.3344025123,
				"element": "Cl" 
			},
			{
				"x": -1.0090423901,
				"y": 2.4524242657,
				"z": 1.4560865725,
				"element": "H" 
			},
			{
				"x": -0.7392720935,
				"y": 2.9587519212,
				"z": -0.2299637748,
				"element": "H" 
			},
			{
				"x": -0.2825247309,
				"y": 4.0242373408,
				"z": 1.1017612891,
				"element": "H" 
			},
			{
				"x": 2.0221597359,
				"y": 4.2612684453,
				"z": 0.2345560415,
				"element": "H" 
			},
			{
				"x": 1.6402424587,
				"y": 3.1819612218,
				"z": -1.117675358,
				"element": "H" 
			},
			{
				"x": 3.0309489303,
				"y": 2.8335294064,
				"z": -0.066919257,
				"element": "H" 
			},
			{
				"x": 2.6163156884,
				"y": 2.0789748746,
				"z": 2.3778512718,
				"element": "H" 
			},
			{
				"x": 0.9473115186,
				"y": 1.8225598587,
				"z": 2.9317972213,
				"element": "H" 
			},
			{
				"x": 1.5604507495,
				"y": 3.4743193537,
				"z": 2.6720912039,
				"element": "H" 
			},
			{
				"x": -0.3619191866,
				"y": 0.4077705004,
				"z": -0.9755474897,
				"element": "H" 
			},
			{
				"x": -3.2118484423,
				"y": -0.748404967,
				"z": 2.201204927,
				"element": "H" 
			},
			{
				"x": -5.2837871092,
				"y": -1.8592870348,
				"z": 1.3562097997,
				"element": "H" 
			},
			{
				"x": -5.3849740371,
				"y": -2.6478746414,
				"z": -0.9996609558,
				"element": "H" 
			},
			{
				"x": -3.4247801815,
				"y": -2.3388498816,
				"z": -2.4934763019,
				"element": "H" 
			},
			{
				"x": -1.3836549542,
				"y": -1.2503264548,
				"z": -1.6554117523,
				"element": "H" 
			},
			{
				"x": 1.4138996653,
				"y": -2.9686588006,
				"z": -3.0294290901,
				"element": "H" 
			},
			{
				"x": 2.08934955,
				"y": -4.890955089,
				"z": -1.5559393523,
				"element": "H" 
			},
			{
				"x": 2.716258676,
				"y": -4.4600845522,
				"z": 0.8130186833,
				"element": "H" 
			}
		],
		 "valence_orbital": [ 
			{
				"type": "occ",
				"energy": -0.26729,
				"method": "rhf"
			},
			{
				"type": "occ",
				"energy": -0.26036,
				"method": "rhf"
			},
			{
				"type": "occ",
				"energy": -0.25484,
				"method": "rhf"
			},
			{
				"type": "occ",
				"energy": -0.25421,
				"method": "rhf"
			},
			{
				"type": "occ",
				"energy": -0.2464,
				"method": "rhf"
			},
			{
				"type": "unocc",
				"energy": -0.0463,
				"method": "rhf"
			},
			{
				"type": "unocc",
				"energy": -0.03627,
				"method": "rhf"
			},
			{
				"type": "unocc",
				"energy": -0.01868,
				"method": "rhf"
			},
			{
				"type": "unocc",
				"energy": -0.01666,
				"method": "rhf"
			},
			{
				"type": "unocc",
				"energy": 0.01589,
				"method": "rhf"
			}
		],
		"cosmo_sigma_profile": { 
			"-0.025": 0.0,
			"-0.024": 0.0,
			"-0.023": 0.0,
			"-0.022": 0.0,
			"-0.021": 0.0,
			"-0.02": 0.0,
			"-0.019": 0.0,
			"-0.018": 0.0,
			"-0.017": 0.0,
			"-0.016": 0.0,
			"-0.015": 0.0,
			"-0.014": 0.00023424102636,
			"-0.013": 0.905349230176,
			"-0.012": 0.928160216545,
			"-0.011": 0.855027967433,
			"-0.01": 1.04654847603,
			"-0.009": 1.48308377408,
			"-0.008": 5.21793708025,
			"-0.007": 9.74477169905,
			"-0.006": 16.5710977106,
			"-0.005": 19.3956896321,
			"-0.004": 25.5108381586,
			"-0.003": 27.1732362608,
			"-0.002": 27.0754082676,
			"-0.001": 33.6461087249,
			"0.0": 40.1070265843,
			"0.001": 41.272295569,
			"0.002": 27.5959717608,
			"0.003": 28.560029867,
			"0.004": 24.7666980865,
			"0.005": 8.35501110789,
			"0.006": 4.78349074596,
			"0.007": 4.44107956914,
			"0.008": 4.51808669854,
			"0.009": 3.19932599344,
			"0.01": 3.39957879968,
			"0.011": 4.27655350049,
			"0.012": 4.84804767124,
			"0.013": 3.52875067043,
			"0.014": 0.118082880665,
			"0.015": 0.0,
			"0.016": 0.0,
			"0.017": 0.0,
			"0.018": 0.0,
			"0.019": 0.0,
			"0.02": 0.0,
			"0.021": 0.0,
			"0.022": 0.0,
			"0.023": 0.0,
			"0.024": 0.0,
			"0.025": 0.0
		}
	}
}
