{
	 "smiles": "CC1=CC(=NO1)C(O)=O", 
	 "Tm": 450.15, 
	 "num_atms": 14, 
	 "gaussian": { 
		 "optdone": 1, 
		 "sigma_profile": "yes", 
		 "theory": "DFT", 
		 "functional": "B3LYP", 
		 "basiset": "6-31G**", 
		 "properties": { 
			 "R2extent": 1978.414, 
			 "electric_dipole_moment_norm": 4.67672740065, 
			 "electric_quadrupole_moment_norm": 15.8025035124, 
			 "total_energy": -473.928420715, 
			 "HOMO_LUMO_gap": 0.22049, 
			 "cosmo_polarized_energy": -11.02, 
			 "cosmo_cavitation_energy": 19.26, 
			 "cosmo_dispersion_energy": -14.45, 
			 "cosmo_repulsion_energy": 1.2, 
			 "cosmo_total_nonelectrostatic_energy": 6.02, 
			 "SMD_solvation_energy": 5.16 
		},
		"coords": [
			{
				"x": 1.2248524103,
				"y": 1.2622166139,
				"z": 1.6145861503,
				"element": "C" 
			},
			{
				"x": 1.1660258306,
				"y": 0.266623493,
				"z": 0.5100331615,
				"element": "C" 
			},
			{
				"x": 1.8494001984,
				"y": 0.1035606464,
				"z": -0.6587877928,
				"element": "C" 
			},
			{
				"x": 1.2706502836,
				"y": -1.0622167444,
				"z": -1.2251800031,
				"element": "C" 
			},
			{
				"x": 0.319296705,
				"y": -1.5608386856,
				"z": -0.4643758463,
				"element": "N" 
			},
			{
				"x": 0.2461248182,
				"y": -0.7266351459,
				"z": 0.6358096607,
				"element": "O" 
			},
			{
				"x": 1.6109592858,
				"y": -1.7364474614,
				"z": -2.5147002687,
				"element": "C" 
			},
			{
				"x": 0.8793549993,
				"y": -2.8346333181,
				"z": -2.7867078298,
				"element": "O" 
			},
			{
				"x": 2.4715278431,
				"y": -1.3269191471,
				"z": -3.2555100784,
				"element": "O" 
			},
			{
				"x": 0.2641952179,
				"y": 1.7746251639,
				"z": 1.7294308449,
				"element": "H" 
			},
			{
				"x": 1.9949833667,
				"y": 2.0066467051,
				"z": 1.4053149937,
				"element": "H" 
			},
			{
				"x": 1.4580274178,
				"y": 0.7749945494,
				"z": 2.5668783607,
				"element": "H" 
			},
			{
				"x": 2.6428028227,
				"y": 0.7068100973,
				"z": -1.0696650161,
				"element": "H" 
			},
			{
				"x": 0.2466988006,
				"y": -2.9823867665,
				"z": -2.0611263365,
				"element": "H" 
			}
		],
		 "valence_orbital": [ 
			{
				"type": "occ",
				"energy": -0.33694,
				"method": "rhf"
			},
			{
				"type": "occ",
				"energy": -0.32827,
				"method": "rhf"
			},
			{
				"type": "occ",
				"energy": -0.31316,
				"method": "rhf"
			},
			{
				"type": "occ",
				"energy": -0.28471,
				"method": "rhf"
			},
			{
				"type": "occ",
				"energy": -0.28013,
				"method": "rhf"
			},
			{
				"type": "unocc",
				"energy": -0.05964,
				"method": "rhf"
			},
			{
				"type": "unocc",
				"energy": -0.00142,
				"method": "rhf"
			},
			{
				"type": "unocc",
				"energy": 0.06244,
				"method": "rhf"
			},
			{
				"type": "unocc",
				"energy": 0.0954,
				"method": "rhf"
			},
			{
				"type": "unocc",
				"energy": 0.10277,
				"method": "rhf"
			}
		],
		"cosmo_sigma_profile": { 
			"-0.025": 0.0,
			"-0.024": 0.0,
			"-0.023": 0.0,
			"-0.022": 0.0,
			"-0.021": 0.0,
			"-0.02": 0.0,
			"-0.019": 0.0,
			"-0.018": 0.0,
			"-0.017": 0.0,
			"-0.016": 0.445633027455,
			"-0.015": 0.31729803633,
			"-0.014": 0.755865974624,
			"-0.013": 0.786852617174,
			"-0.012": 0.653655456146,
			"-0.011": 0.758609230058,
			"-0.01": 0.71918706553,
			"-0.009": 1.8818839275,
			"-0.008": 3.10838214562,
			"-0.007": 7.19218039845,
			"-0.006": 10.5530033868,
			"-0.005": 9.82143513968,
			"-0.004": 9.90291388378,
			"-0.003": 13.4754957751,
			"-0.002": 13.8202563502,
			"-0.001": 11.6022196635,
			"0.0": 8.31463156269,
			"0.001": 7.10354059526,
			"0.002": 3.56915800005,
			"0.003": 4.21240645034,
			"0.004": 4.70033884739,
			"0.005": 4.38049056275,
			"0.006": 7.56304915829,
			"0.007": 5.57242446487,
			"0.008": 4.82951917796,
			"0.009": 6.41692565071,
			"0.01": 4.57525682502,
			"0.011": 5.39882795642,
			"0.012": 1.84318143656,
			"0.013": 0.105508379767,
			"0.014": 0.0,
			"0.015": 0.0,
			"0.016": 0.0,
			"0.017": 0.0,
			"0.018": 0.0,
			"0.019": 0.0,
			"0.02": 0.0,
			"0.021": 0.0,
			"0.022": 0.0,
			"0.023": 0.0,
			"0.024": 0.0,
			"0.025": 0.0
		}
	}
}
