{
	 "smiles": "FC1=CC(F)=C(C=C1)C#N", 
	 "Tm": 319.15, 
	 "num_atms": 13, 
	 "gaussian": { 
		 "optdone": 1, 
		 "sigma_profile": "yes", 
		 "theory": "DFT", 
		 "functional": "B3LYP", 
		 "basiset": "6-31G**", 
		 "properties": { 
			 "R2extent": 1569.5306, 
			 "electric_dipole_moment_norm": 3.9522460222, 
			 "electric_quadrupole_moment_norm": 13.9053645781, 
			 "total_energy": -522.950564681, 
			 "HOMO_LUMO_gap": 0.20929, 
			 "cosmo_polarized_energy": -8.33, 
			 "cosmo_cavitation_energy": 19.94, 
			 "cosmo_dispersion_energy": -13.87, 
			 "cosmo_repulsion_energy": 1.08, 
			 "cosmo_total_nonelectrostatic_energy": 7.15, 
			 "SMD_solvation_energy": 5.9 
		},
		"coords": [
			{
				"x": 2.7797790188,
				"y": 1.6157235535,
				"z": 0.252053764,
				"element": "F" 
			},
			{
				"x": 1.7801594809,
				"y": 0.7579382018,
				"z": 0.5042184152,
				"element": "C" 
			},
			{
				"x": 0.5568516567,
				"y": 0.9625561658,
				"z": -0.1255223435,
				"element": "C" 
			},
			{
				"x": -0.4653369834,
				"y": 0.0653377819,
				"z": 0.1473584311,
				"element": "C" 
			},
			{
				"x": -1.6535678696,
				"y": 0.2362586382,
				"z": -0.4434986967,
				"element": "F" 
			},
			{
				"x": -0.2929681691,
				"y": -1.0170464189,
				"z": 1.0242181532,
				"element": "C" 
			},
			{
				"x": 0.9620485749,
				"y": -1.1839541786,
				"z": 1.6380711393,
				"element": "C" 
			},
			{
				"x": 2.0039595617,
				"y": -0.3002819585,
				"z": 1.3830072473,
				"element": "C" 
			},
			{
				"x": -1.3710825311,
				"y": -1.9199042118,
				"z": 1.279596453,
				"element": "C" 
			},
			{
				"x": -2.2373148878,
				"y": -2.6641618205,
				"z": 1.4989085482,
				"element": "N" 
			},
			{
				"x": 0.4034758826,
				"y": 1.7914108625,
				"z": -0.8053423877,
				"element": "H" 
			},
			{
				"x": 1.1058695269,
				"y": -2.0168683716,
				"z": 2.3171833684,
				"element": "H" 
			},
			{
				"x": 2.9756267385,
				"y": -0.4161082439,
				"z": 1.8482479082,
				"element": "H" 
			}
		],
		 "valence_orbital": [ 
			{
				"type": "occ",
				"energy": -0.3654,
				"method": "rhf"
			},
			{
				"type": "occ",
				"energy": -0.35125,
				"method": "rhf"
			},
			{
				"type": "occ",
				"energy": -0.33961,
				"method": "rhf"
			},
			{
				"type": "occ",
				"energy": -0.28877,
				"method": "rhf"
			},
			{
				"type": "occ",
				"energy": -0.26931,
				"method": "rhf"
			},
			{
				"type": "unocc",
				"energy": -0.06002,
				"method": "rhf"
			},
			{
				"type": "unocc",
				"energy": -0.03715,
				"method": "rhf"
			},
			{
				"type": "unocc",
				"energy": 0.02392,
				"method": "rhf"
			},
			{
				"type": "unocc",
				"energy": 0.06023,
				"method": "rhf"
			},
			{
				"type": "unocc",
				"energy": 0.06775,
				"method": "rhf"
			}
		],
		"cosmo_sigma_profile": { 
			"-0.025": 0.0,
			"-0.024": 0.0,
			"-0.023": 0.0,
			"-0.022": 0.0,
			"-0.021": 0.0,
			"-0.02": 0.0,
			"-0.019": 0.0,
			"-0.018": 0.0,
			"-0.017": 0.0,
			"-0.016": 0.0,
			"-0.015": 0.0,
			"-0.014": 0.0,
			"-0.013": 0.0,
			"-0.012": 0.0,
			"-0.011": 0.0,
			"-0.01": 1.00603293555,
			"-0.009": 4.63140918239,
			"-0.008": 6.04430619943,
			"-0.007": 6.44030814453,
			"-0.006": 4.4909835409,
			"-0.005": 4.71970889719,
			"-0.004": 7.0630619019,
			"-0.003": 8.7491534494,
			"-0.002": 19.951365794,
			"-0.001": 19.2879262114,
			"0.0": 13.385000757,
			"0.001": 9.23234174966,
			"0.002": 11.3798658811,
			"0.003": 18.961341891,
			"0.004": 3.68705982065,
			"0.005": 2.72528897685,
			"0.006": 2.64795492492,
			"0.007": 3.14777747792,
			"0.008": 3.21905830605,
			"0.009": 3.2985666051,
			"0.01": 3.01186613207,
			"0.011": 2.57165845801,
			"0.012": 2.33933002738,
			"0.013": 0.754313708578,
			"0.014": 0.0,
			"0.015": 0.0,
			"0.016": 0.0,
			"0.017": 0.0,
			"0.018": 0.0,
			"0.019": 0.0,
			"0.02": 0.0,
			"0.021": 0.0,
			"0.022": 0.0,
			"0.023": 0.0,
			"0.024": 0.0,
			"0.025": 0.0
		}
	}
}
