{
	 "smiles": "NC1=C(C=CC=C1)C(=O)NC1=NC=C(Cl)C=C1", 
	 "Tm": 432.15, 
	 "num_atms": 27, 
	 "gaussian": { 
		 "optdone": 1, 
		 "sigma_profile": "yes", 
		 "theory": "DFT", 
		 "functional": "B3LYP", 
		 "basiset": "6-31G**", 
		 "properties": { 
			 "R2extent": 6182.479, 
			 "electric_dipole_moment_norm": 2.92894812177, 
			 "electric_quadrupole_moment_norm": 7.91298501957, 
			 "total_energy": -1162.99601324, 
			 "HOMO_LUMO_gap": 0.15779, 
			 "cosmo_polarized_energy": -11.96, 
			 "cosmo_cavitation_energy": 33.11, 
			 "cosmo_dispersion_energy": -24.28, 
			 "cosmo_repulsion_energy": 1.89, 
			 "cosmo_total_nonelectrostatic_energy": 10.72, 
			 "SMD_solvation_energy": 4.3 
		},
		"coords": [
			{
				"x": -0.5357186052,
				"y": -3.6629598241,
				"z": 0.8431765003,
				"element": "N" 
			},
			{
				"x": 0.4197556441,
				"y": -2.7225777449,
				"z": 0.5473706315,
				"element": "C" 
			},
			{
				"x": 0.4967243606,
				"y": -1.4862481443,
				"z": 1.2540300402,
				"element": "C" 
			},
			{
				"x": 1.518198998,
				"y": -0.5729341937,
				"z": 0.9306600344,
				"element": "C" 
			},
			{
				"x": 2.4209977412,
				"y": -0.8178409427,
				"z": -0.0934772286,
				"element": "C" 
			},
			{
				"x": 2.30398924,
				"y": -2.0077211335,
				"z": -0.8258011163,
				"element": "C" 
			},
			{
				"x": 1.3263669025,
				"y": -2.9392679756,
				"z": -0.5141623045,
				"element": "C" 
			},
			{
				"x": -0.4171129577,
				"y": -1.2316732588,
				"z": 2.3932651243,
				"element": "C" 
			},
			{
				"x": -0.8840121779,
				"y": -2.138265438,
				"z": 3.0879009808,
				"element": "O" 
			},
			{
				"x": -0.7096701768,
				"y": 0.0805343923,
				"z": 2.7661754001,
				"element": "N" 
			},
			{
				"x": -0.9228526368,
				"y": 1.2611501188,
				"z": 2.0397625997,
				"element": "C" 
			},
			{
				"x": -1.1420985905,
				"y": 2.3268967447,
				"z": 2.8232158413,
				"element": "N" 
			},
			{
				"x": -1.3888908441,
				"y": 3.5065545711,
				"z": 2.2511933102,
				"element": "C" 
			},
			{
				"x": -1.4225307179,
				"y": 3.6779625015,
				"z": 0.8689168167,
				"element": "C" 
			},
			{
				"x": -1.7364502651,
				"y": 5.2586985078,
				"z": 0.1813962251,
				"element": "Cl" 
			},
			{
				"x": -1.2179362247,
				"y": 2.5681770242,
				"z": 0.0488789925,
				"element": "C" 
			},
			{
				"x": -0.97236005,
				"y": 1.3337947716,
				"z": 0.6363703609,
				"element": "C" 
			},
			{
				"x": -0.4024963238,
				"y": -4.584181426,
				"z": 0.4555427977,
				"element": "H" 
			},
			{
				"x": -0.9129411669,
				"y": -3.6142957077,
				"z": 1.7820867591,
				"element": "H" 
			},
			{
				"x": 1.6046800287,
				"y": 0.3371074461,
				"z": 1.5148168087,
				"element": "H" 
			},
			{
				"x": 3.2058955395,
				"y": -0.1035127996,
				"z": -0.3179295074,
				"element": "H" 
			},
			{
				"x": 2.9952205841,
				"y": -2.2156212036,
				"z": -1.6380472723,
				"element": "H" 
			},
			{
				"x": 1.2579903416,
				"y": -3.8675644798,
				"z": -1.0758151126,
				"element": "H" 
			},
			{
				"x": -1.1008727613,
				"y": 0.1297083652,
				"z": 3.7007723988,
				"element": "H" 
			},
			{
				"x": -1.5664601594,
				"y": 4.3481895121,
				"z": 2.9161599439,
				"element": "H" 
			},
			{
				"x": -1.2642510645,
				"y": 2.6655681215,
				"z": -1.0304409992,
				"element": "H" 
			},
			{
				"x": -0.8321646576,
				"y": 0.4532221954,
				"z": 0.0242819749,
				"element": "H" 
			}
		],
		 "valence_orbital": [ 
			{
				"type": "occ",
				"energy": -0.27997,
				"method": "rhf"
			},
			{
				"type": "occ",
				"energy": -0.27085,
				"method": "rhf"
			},
			{
				"type": "occ",
				"energy": -0.25826,
				"method": "rhf"
			},
			{
				"type": "occ",
				"energy": -0.23131,
				"method": "rhf"
			},
			{
				"type": "occ",
				"energy": -0.21081,
				"method": "rhf"
			},
			{
				"type": "unocc",
				"energy": -0.05302,
				"method": "rhf"
			},
			{
				"type": "unocc",
				"energy": -0.03878,
				"method": "rhf"
			},
			{
				"type": "unocc",
				"energy": -0.01205,
				"method": "rhf"
			},
			{
				"type": "unocc",
				"energy": 0.00616,
				"method": "rhf"
			},
			{
				"type": "unocc",
				"energy": 0.02595,
				"method": "rhf"
			}
		],
		"cosmo_sigma_profile": { 
			"-0.025": 0.0,
			"-0.024": 0.0,
			"-0.023": 0.0,
			"-0.022": 0.0,
			"-0.021": 0.0,
			"-0.02": 0.0,
			"-0.019": 0.0,
			"-0.018": 0.0,
			"-0.017": 0.0,
			"-0.016": 0.0,
			"-0.015": 0.0,
			"-0.014": 0.272174541962,
			"-0.013": 1.40102528607,
			"-0.012": 2.20919479299,
			"-0.011": 2.41540814238,
			"-0.01": 2.15914816256,
			"-0.009": 2.51953981371,
			"-0.008": 6.03189386658,
			"-0.007": 7.35157115559,
			"-0.006": 12.8174839092,
			"-0.005": 14.3860910087,
			"-0.004": 16.6068881976,
			"-0.003": 15.2326467932,
			"-0.002": 15.6395572363,
			"-0.001": 18.6397835483,
			"0.0": 23.509075597,
			"0.001": 25.8212657535,
			"0.002": 19.3037777798,
			"0.003": 19.0112140434,
			"0.004": 22.5797325552,
			"0.005": 13.2028382789,
			"0.006": 4.55352944943,
			"0.007": 3.49586006466,
			"0.008": 2.45266619814,
			"0.009": 4.18627900823,
			"0.01": 3.00475106226,
			"0.011": 3.3864858518,
			"0.012": 3.69615840194,
			"0.013": 1.8046410287,
			"0.014": 0.228053398894,
			"0.015": 0.0,
			"0.016": 0.0,
			"0.017": 0.0,
			"0.018": 0.0,
			"0.019": 0.0,
			"0.02": 0.0,
			"0.021": 0.0,
			"0.022": 0.0,
			"0.023": 0.0,
			"0.024": 0.0,
			"0.025": 0.0
		}
	}
}
