{
	 "smiles": "CC(=O)OC(C(Cl)=O)C1=CC=CC=C1", 
	 "Tm": 309.15, 
	 "num_atms": 23, 
	 "gaussian": { 
		 "optdone": 1, 
		 "sigma_profile": "yes", 
		 "theory": "DFT", 
		 "functional": "B3LYP", 
		 "basiset": "6-31G**", 
		 "properties": { 
			 "R2extent": 3521.2939, 
			 "electric_dipole_moment_norm": 4.16751895137, 
			 "electric_quadrupole_moment_norm": 14.3247485074, 
			 "total_energy": -1072.36433353, 
			 "HOMO_LUMO_gap": 0.20921, 
			 "cosmo_polarized_energy": -9.72, 
			 "cosmo_cavitation_energy": 30.01, 
			 "cosmo_dispersion_energy": -20.68, 
			 "cosmo_repulsion_energy": 1.66, 
			 "cosmo_total_nonelectrostatic_energy": 10.99, 
			 "SMD_solvation_energy": 6.64 
		},
		"coords": [
			{
				"x": -2.044782098,
				"y": 1.6945223949,
				"z": 2.6689462493,
				"element": "C" 
			},
			{
				"x": -0.9016488318,
				"y": 0.7653437908,
				"z": 2.3625681559,
				"element": "C" 
			},
			{
				"x": -0.0669706058,
				"y": 0.3668504826,
				"z": 3.1404554947,
				"element": "O" 
			},
			{
				"x": -0.9186270104,
				"y": 0.3922068139,
				"z": 1.0467959201,
				"element": "O" 
			},
			{
				"x": 0.1217746816,
				"y": -0.4926178319,
				"z": 0.6500918586,
				"element": "C" 
			},
			{
				"x": -0.0054599265,
				"y": -1.8954354731,
				"z": 1.2761764571,
				"element": "C" 
			},
			{
				"x": -1.7196105471,
				"y": -2.4348349388,
				"z": 1.5571967902,
				"element": "Cl" 
			},
			{
				"x": 0.9102456367,
				"y": -2.6202977404,
				"z": 1.4882080443,
				"element": "O" 
			},
			{
				"x": 0.1257833404,
				"y": -0.6220488921,
				"z": -0.8617496794,
				"element": "C" 
			},
			{
				"x": 1.3042432712,
				"y": -1.0259748852,
				"z": -1.5012680233,
				"element": "C" 
			},
			{
				"x": 1.3319210835,
				"y": -1.1807994248,
				"z": -2.8864373263,
				"element": "C" 
			},
			{
				"x": 0.1833325322,
				"y": -0.9323146225,
				"z": -3.6410556766,
				"element": "C" 
			},
			{
				"x": -0.9926899521,
				"y": -0.5327638024,
				"z": -3.0042938951,
				"element": "C" 
			},
			{
				"x": -1.0269335392,
				"y": -0.3825619669,
				"z": -1.617273046,
				"element": "C" 
			},
			{
				"x": -2.9878742165,
				"y": 1.1450411104,
				"z": 2.5859269855,
				"element": "H" 
			},
			{
				"x": -1.9348630229,
				"y": 2.0809356447,
				"z": 3.6814722876,
				"element": "H" 
			},
			{
				"x": -2.076085461,
				"y": 2.5151712553,
				"z": 1.9475759618,
				"element": "H" 
			},
			{
				"x": 1.0845362258,
				"y": -0.1247680562,
				"z": 1.016467359,
				"element": "H" 
			},
			{
				"x": 2.1967759143,
				"y": -1.2231544135,
				"z": -0.9138297168,
				"element": "H" 
			},
			{
				"x": 2.2506013934,
				"y": -1.4908094053,
				"z": -3.3753638053,
				"element": "H" 
			},
			{
				"x": 0.2056971319,
				"y": -1.0488039799,
				"z": -4.7206105943,
				"element": "H" 
			},
			{
				"x": -1.8884834662,
				"y": -0.3388642026,
				"z": -3.5869278376,
				"element": "H" 
			},
			{
				"x": -1.9382825336,
				"y": -0.0702218571,
				"z": -1.1206719635,
				"element": "H" 
			}
		],
		 "valence_orbital": [ 
			{
				"type": "occ",
				"energy": -0.32199,
				"method": "rhf"
			},
			{
				"type": "occ",
				"energy": -0.29528,
				"method": "rhf"
			},
			{
				"type": "occ",
				"energy": -0.29177,
				"method": "rhf"
			},
			{
				"type": "occ",
				"energy": -0.26329,
				"method": "rhf"
			},
			{
				"type": "occ",
				"energy": -0.25994,
				"method": "rhf"
			},
			{
				"type": "unocc",
				"energy": -0.05073,
				"method": "rhf"
			},
			{
				"type": "unocc",
				"energy": -0.01639,
				"method": "rhf"
			},
			{
				"type": "unocc",
				"energy": -0.01154,
				"method": "rhf"
			},
			{
				"type": "unocc",
				"energy": -0.00234,
				"method": "rhf"
			},
			{
				"type": "unocc",
				"energy": 0.02031,
				"method": "rhf"
			}
		],
		"cosmo_sigma_profile": { 
			"-0.025": 0.0,
			"-0.024": 0.0,
			"-0.023": 0.0,
			"-0.022": 0.0,
			"-0.021": 0.0,
			"-0.02": 0.0,
			"-0.019": 0.0,
			"-0.018": 0.0,
			"-0.017": 0.0,
			"-0.016": 0.0,
			"-0.015": 0.0,
			"-0.014": 0.0,
			"-0.013": 0.0,
			"-0.012": 0.0,
			"-0.011": 0.0,
			"-0.01": 0.158796028555,
			"-0.009": 1.80032135337,
			"-0.008": 2.30344214477,
			"-0.007": 6.2863459311,
			"-0.006": 16.42045805,
			"-0.005": 19.0878890534,
			"-0.004": 18.4038129036,
			"-0.003": 17.6482348966,
			"-0.002": 16.5039172033,
			"-0.001": 13.5059773506,
			"0.0": 15.3589799581,
			"0.001": 18.6094753991,
			"0.002": 19.9636856644,
			"0.003": 21.9616059593,
			"0.004": 20.7893667484,
			"0.005": 10.0631161787,
			"0.006": 3.77641984876,
			"0.007": 5.25251003312,
			"0.008": 5.21006215093,
			"0.009": 2.47009766464,
			"0.01": 2.9098643439,
			"0.011": 2.62242115352,
			"0.012": 0.742818438606,
			"0.013": 0.0,
			"0.014": 0.0,
			"0.015": 0.0,
			"0.016": 0.0,
			"0.017": 0.0,
			"0.018": 0.0,
			"0.019": 0.0,
			"0.02": 0.0,
			"0.021": 0.0,
			"0.022": 0.0,
			"0.023": 0.0,
			"0.024": 0.0,
			"0.025": 0.0
		}
	}
}
