{
	 "smiles": "OCC1=C(O)C(Cl)=CC(Cl)=C1", 
	 "Tm": 355.65, 
	 "num_atms": 17, 
	 "gaussian": { 
		 "optdone": 1, 
		 "sigma_profile": "yes", 
		 "theory": "DFT", 
		 "functional": "B3LYP", 
		 "basiset": "6-31G**", 
		 "properties": { 
			 "R2extent": 2895.2263, 
			 "electric_dipole_moment_norm": 2.06656648574, 
			 "electric_quadrupole_moment_norm": 5.72754961742, 
			 "total_energy": -1341.18150372, 
			 "HOMO_LUMO_gap": 0.20672, 
			 "cosmo_polarized_energy": -9.39, 
			 "cosmo_cavitation_energy": 24.67, 
			 "cosmo_dispersion_energy": -18.73, 
			 "cosmo_repulsion_energy": 1.52, 
			 "cosmo_total_nonelectrostatic_energy": 7.46, 
			 "SMD_solvation_energy": 4.0 
		},
		"coords": [
			{
				"x": 0.7634990119,
				"y": -2.7457498633,
				"z": -2.99072194,
				"element": "O" 
			},
			{
				"x": 1.2802031657,
				"y": -2.7893590092,
				"z": -1.671996488,
				"element": "C" 
			},
			{
				"x": 0.9132884765,
				"y": -1.5730498453,
				"z": -0.8382177402,
				"element": "C" 
			},
			{
				"x": 1.1190151201,
				"y": -1.6015710596,
				"z": 0.5524689637,
				"element": "C" 
			},
			{
				"x": 1.645418607,
				"y": -2.7323250917,
				"z": 1.0910086446,
				"element": "O" 
			},
			{
				"x": 0.776480253,
				"y": -0.4754209524,
				"z": 1.3112826688,
				"element": "C" 
			},
			{
				"x": 1.031289578,
				"y": -0.5338454287,
				"z": 3.0546244859,
				"element": "Cl" 
			},
			{
				"x": 0.2436711583,
				"y": 0.6722396779,
				"z": 0.7282032344,
				"element": "C" 
			},
			{
				"x": 0.0559444973,
				"y": 0.6807785167,
				"z": -0.6502699908,
				"element": "C" 
			},
			{
				"x": -0.6104216052,
				"y": 2.1157108005,
				"z": -1.4157371399,
				"element": "Cl" 
			},
			{
				"x": 0.38769193,
				"y": -0.4268289469,
				"z": -1.4307979565,
				"element": "C" 
			},
			{
				"x": -0.1959281539,
				"y": -2.8481773793,
				"z": -2.9359820481,
				"element": "H" 
			},
			{
				"x": 2.3697624689,
				"y": -2.8461894616,
				"z": -1.7776051755,
				"element": "H" 
			},
			{
				"x": 0.9735989346,
				"y": -3.700824761,
				"z": -1.1399697142,
				"element": "H" 
			},
			{
				"x": 1.7186920163,
				"y": -2.6198175774,
				"z": 2.0512810366,
				"element": "H" 
			},
			{
				"x": -0.0136601901,
				"y": 1.529693969,
				"z": 1.3373918081,
				"element": "H" 
			},
			{
				"x": 0.2460547316,
				"y": -0.4117635876,
				"z": -2.5048626491,
				"element": "H" 
			}
		],
		 "valence_orbital": [ 
			{
				"type": "occ",
				"energy": -0.31713,
				"method": "rhf"
			},
			{
				"type": "occ",
				"energy": -0.31388,
				"method": "rhf"
			},
			{
				"type": "occ",
				"energy": -0.2879,
				"method": "rhf"
			},
			{
				"type": "occ",
				"energy": -0.26181,
				"method": "rhf"
			},
			{
				"type": "occ",
				"energy": -0.23248,
				"method": "rhf"
			},
			{
				"type": "unocc",
				"energy": -0.02576,
				"method": "rhf"
			},
			{
				"type": "unocc",
				"energy": -0.01246,
				"method": "rhf"
			},
			{
				"type": "unocc",
				"energy": -0.00106,
				"method": "rhf"
			},
			{
				"type": "unocc",
				"energy": 0.044,
				"method": "rhf"
			},
			{
				"type": "unocc",
				"energy": 0.07068,
				"method": "rhf"
			}
		],
		"cosmo_sigma_profile": { 
			"-0.025": 0.0,
			"-0.024": 0.0,
			"-0.023": 0.0,
			"-0.022": 0.0,
			"-0.021": 0.0,
			"-0.02": 0.0,
			"-0.019": 0.0,
			"-0.018": 0.0,
			"-0.017": 0.0553857919362,
			"-0.016": 0.844446683392,
			"-0.015": 1.91914578954,
			"-0.014": 1.6045851345,
			"-0.013": 0.88488717483,
			"-0.012": 1.79425997543,
			"-0.011": 2.15382178959,
			"-0.01": 1.55147583097,
			"-0.009": 1.96329748517,
			"-0.008": 3.32891457623,
			"-0.007": 3.53478310916,
			"-0.006": 7.35609868806,
			"-0.005": 7.36852944722,
			"-0.004": 9.41305624141,
			"-0.003": 8.59308165198,
			"-0.002": 11.9771589086,
			"-0.001": 12.6935237469,
			"0.0": 17.8281212879,
			"0.001": 23.004307967,
			"0.002": 23.3652496201,
			"0.003": 18.87408665,
			"0.004": 15.8111415607,
			"0.005": 8.5953218836,
			"0.006": 3.05520453312,
			"0.007": 2.50974379216,
			"0.008": 2.89473302326,
			"0.009": 2.18130380325,
			"0.01": 0.680005349606,
			"0.011": 0.753922748106,
			"0.012": 1.99684797594,
			"0.013": 1.70374535899,
			"0.014": 0.846217705335,
			"0.015": 0.0,
			"0.016": 0.0,
			"0.017": 0.0,
			"0.018": 0.0,
			"0.019": 0.0,
			"0.02": 0.0,
			"0.021": 0.0,
			"0.022": 0.0,
			"0.023": 0.0,
			"0.024": 0.0,
			"0.025": 0.0
		}
	}
}
