{
	 "smiles": "CN(C)CCC1=CNC2=CC=CC(O)=C12", 
	 "Tm": 447.15, 
	 "num_atms": 31, 
	 "gaussian": { 
		 "optdone": 1, 
		 "sigma_profile": "yes", 
		 "theory": "DFT", 
		 "functional": "B3LYP", 
		 "basiset": "6-31G**", 
		 "properties": { 
			 "R2extent": 3803.2647, 
			 "electric_dipole_moment_norm": 2.83157094737, 
			 "electric_quadrupole_moment_norm": 13.2412456978, 
			 "total_energy": -651.63518485, 
			 "HOMO_LUMO_gap": 0.18907, 
			 "cosmo_polarized_energy": -12.74, 
			 "cosmo_cavitation_energy": 32.41, 
			 "cosmo_dispersion_energy": -23.15, 
			 "cosmo_repulsion_energy": 1.81, 
			 "cosmo_total_nonelectrostatic_energy": 11.08, 
			 "SMD_solvation_energy": 3.16 
		},
		"coords": [
			{
				"x": -1.3583188176,
				"y": 0.7715207471,
				"z": -1.9887794388,
				"element": "C" 
			},
			{
				"x": -1.5157208401,
				"y": 1.6155396737,
				"z": -0.8069270451,
				"element": "N" 
			},
			{
				"x": -1.8069166007,
				"y": 2.990157554,
				"z": -1.1975888102,
				"element": "C" 
			},
			{
				"x": -0.377958687,
				"y": 1.5313641688,
				"z": 0.1107452545,
				"element": "C" 
			},
			{
				"x": -0.4982434495,
				"y": 0.3985322073,
				"z": 1.1593579987,
				"element": "C" 
			},
			{
				"x": -0.3951297907,
				"y": -1.0212823269,
				"z": 0.6692502698,
				"element": "C" 
			},
			{
				"x": -1.4382625506,
				"y": -1.9114634833,
				"z": 0.616692492,
				"element": "C" 
			},
			{
				"x": -1.0065555511,
				"y": -3.1227462144,
				"z": 0.1105971547,
				"element": "N" 
			},
			{
				"x": 0.3413198345,
				"y": -3.048579045,
				"z": -0.1722404867,
				"element": "C" 
			},
			{
				"x": 1.2008183925,
				"y": -4.0220372291,
				"z": -0.6970410832,
				"element": "C" 
			},
			{
				"x": 2.5283825143,
				"y": -3.6560572812,
				"z": -0.8775713985,
				"element": "C" 
			},
			{
				"x": 2.9918511058,
				"y": -2.3709666575,
				"z": -0.5432084721,
				"element": "C" 
			},
			{
				"x": 2.1288174499,
				"y": -1.4144704355,
				"z": -0.0191462141,
				"element": "C" 
			},
			{
				"x": 2.6566294492,
				"y": -0.1866254916,
				"z": 0.2863570882,
				"element": "O" 
			},
			{
				"x": 0.7659041749,
				"y": -1.7346823859,
				"z": 0.1706032464,
				"element": "C" 
			},
			{
				"x": -0.5280264032,
				"y": 1.1020778786,
				"z": -2.6428812053,
				"element": "H" 
			},
			{
				"x": -2.2809178934,
				"y": 0.793780922,
				"z": -2.5787933447,
				"element": "H" 
			},
			{
				"x": -1.1676861571,
				"y": -0.2605341352,
				"z": -1.6937972346,
				"element": "H" 
			},
			{
				"x": -2.7059957673,
				"y": 3.0084105567,
				"z": -1.8226550853,
				"element": "H" 
			},
			{
				"x": -0.991010747,
				"y": 3.4707161775,
				"z": -1.772052698,
				"element": "H" 
			},
			{
				"x": -2.0031426686,
				"y": 3.6008226949,
				"z": -0.3104610489,
				"element": "H" 
			},
			{
				"x": 0.5798504755,
				"y": 1.4501829569,
				"z": -0.4384772389,
				"element": "H" 
			},
			{
				"x": -0.3305674596,
				"y": 2.4719952248,
				"z": 0.6710289597,
				"element": "H" 
			},
			{
				"x": 0.2639752494,
				"y": 0.5827829012,
				"z": 1.9344846416,
				"element": "H" 
			},
			{
				"x": -1.4624327132,
				"y": 0.5288081635,
				"z": 1.6621621204,
				"element": "H" 
			},
			{
				"x": -2.471172365,
				"y": -1.7659562119,
				"z": 0.9001055875,
				"element": "H" 
			},
			{
				"x": -1.5808967348,
				"y": -3.9394999796,
				"z": -0.0159781417,
				"element": "H" 
			},
			{
				"x": 0.8448687354,
				"y": -5.0157416592,
				"z": -0.9508281858,
				"element": "H" 
			},
			{
				"x": 3.2317521533,
				"y": -4.3780109264,
				"z": -1.2821356546,
				"element": "H" 
			},
			{
				"x": 4.0337252606,
				"y": -2.1026311761,
				"z": -0.6822008528,
				"element": "H" 
			},
			{
				"x": 1.9864604012,
				"y": 0.3490928119,
				"z": 0.7258788258,
				"element": "H" 
			}
		],
		 "valence_orbital": [ 
			{
				"type": "occ",
				"energy": -0.30613,
				"method": "rhf"
			},
			{
				"type": "occ",
				"energy": -0.25253,
				"method": "rhf"
			},
			{
				"type": "occ",
				"energy": -0.21636,
				"method": "rhf"
			},
			{
				"type": "occ",
				"energy": -0.2078,
				"method": "rhf"
			},
			{
				"type": "occ",
				"energy": -0.18422,
				"method": "rhf"
			},
			{
				"type": "unocc",
				"energy": 0.00485,
				"method": "rhf"
			},
			{
				"type": "unocc",
				"energy": 0.03429,
				"method": "rhf"
			},
			{
				"type": "unocc",
				"energy": 0.05852,
				"method": "rhf"
			},
			{
				"type": "unocc",
				"energy": 0.07892,
				"method": "rhf"
			},
			{
				"type": "unocc",
				"energy": 0.08241,
				"method": "rhf"
			}
		],
		"cosmo_sigma_profile": { 
			"-0.025": 0.0,
			"-0.024": 0.0,
			"-0.023": 0.0,
			"-0.022": 0.0,
			"-0.021": 0.0,
			"-0.02": 0.0,
			"-0.019": 0.0,
			"-0.018": 0.0,
			"-0.017": 0.0,
			"-0.016": 0.135529394346,
			"-0.015": 1.44455779246,
			"-0.014": 1.54771229109,
			"-0.013": 2.12770545093,
			"-0.012": 2.22832270163,
			"-0.011": 2.63609559664,
			"-0.01": 1.47970931772,
			"-0.009": 2.57919071208,
			"-0.008": 2.93812732772,
			"-0.007": 4.75258130816,
			"-0.006": 5.20222839026,
			"-0.005": 7.90262615819,
			"-0.004": 15.7630177919,
			"-0.003": 21.7422318767,
			"-0.002": 20.9285828285,
			"-0.001": 29.2495842608,
			"0.0": 30.1654794717,
			"0.001": 16.0753999732,
			"0.002": 10.8564552352,
			"0.003": 11.9616200933,
			"0.004": 10.7294670386,
			"0.005": 13.8189783842,
			"0.006": 14.3575321153,
			"0.007": 9.29435301514,
			"0.008": 4.21340308525,
			"0.009": 2.39675287536,
			"0.01": 2.2655839711,
			"0.011": 2.66725445121,
			"0.012": 1.78450354577,
			"0.013": 0.482428130723,
			"0.014": 0.529741727168,
			"0.015": 0.492585926352,
			"0.016": 0.244685354366,
			"0.017": 0.0,
			"0.018": 0.0,
			"0.019": 0.0,
			"0.02": 0.0,
			"0.021": 0.0,
			"0.022": 0.0,
			"0.023": 0.0,
			"0.024": 0.0,
			"0.025": 0.0
		}
	}
}
