{
	 "smiles": "CC(C)N1C(C)=NC2=C(NN=C2C)C1=O", 
	 "Tm": 417.15, 
	 "num_atms": 29, 
	 "gaussian": { 
		 "optdone": 1, 
		 "sigma_profile": "yes", 
		 "theory": "DFT", 
		 "functional": "B3LYP", 
		 "basiset": "6-31G**", 
		 "properties": { 
			 "R2extent": 4127.1787, 
			 "electric_dipole_moment_norm": 3.03120041733, 
			 "electric_quadrupole_moment_norm": 3.52331212072, 
			 "total_energy": -683.747874698, 
			 "HOMO_LUMO_gap": 0.18837, 
			 "cosmo_polarized_energy": -13.09, 
			 "cosmo_cavitation_energy": 31.25, 
			 "cosmo_dispersion_energy": -22.71, 
			 "cosmo_repulsion_energy": 1.77, 
			 "cosmo_total_nonelectrostatic_energy": 10.31, 
			 "SMD_solvation_energy": 3.69 
		},
		"coords": [
			{
				"x": 2.1187645985,
				"y": 0.9537856876,
				"z": -0.2635484457,
				"element": "C" 
			},
			{
				"x": 0.9148025806,
				"y": 0.9743499356,
				"z": -1.21414394,
				"element": "C" 
			},
			{
				"x": 1.2507556188,
				"y": 0.5684538311,
				"z": -2.6550767591,
				"element": "C" 
			},
			{
				"x": -0.303352569,
				"y": 0.2684581542,
				"z": -0.7018545603,
				"element": "N" 
			},
			{
				"x": -0.3433730466,
				"y": -1.0789627792,
				"z": -0.3109736921,
				"element": "C" 
			},
			{
				"x": 0.9209665165,
				"y": -1.901978081,
				"z": -0.2978141444,
				"element": "C" 
			},
			{
				"x": -1.4203479067,
				"y": -1.6997669313,
				"z": 0.0860512062,
				"element": "N" 
			},
			{
				"x": -2.5731391096,
				"y": -0.9632383001,
				"z": 0.1173141303,
				"element": "C" 
			},
			{
				"x": -2.6250642367,
				"y": 0.3729968571,
				"z": -0.2514570955,
				"element": "C" 
			},
			{
				"x": -3.9134175793,
				"y": 0.7712031167,
				"z": -0.1023171237,
				"element": "N" 
			},
			{
				"x": -4.7000867146,
				"y": -0.2342749326,
				"z": 0.3462786241,
				"element": "N" 
			},
			{
				"x": -3.9099107122,
				"y": -1.3004004195,
				"z": 0.4870759501,
				"element": "C" 
			},
			{
				"x": -4.4422760775,
				"y": -2.6113534228,
				"z": 0.9692063147,
				"element": "C" 
			},
			{
				"x": -1.4743647252,
				"y": 1.0921068999,
				"z": -0.7097654534,
				"element": "C" 
			},
			{
				"x": -1.4659675367,
				"y": 2.266718282,
				"z": -1.0739441514,
				"element": "O" 
			},
			{
				"x": 2.6994488558,
				"y": 0.0307780923,
				"z": -0.3077402574,
				"element": "H" 
			},
			{
				"x": 1.8064843128,
				"y": 1.1229027961,
				"z": 0.7712646104,
				"element": "H" 
			},
			{
				"x": 2.7901532096,
				"y": 1.7718030669,
				"z": -0.5438131473,
				"element": "H" 
			},
			{
				"x": 0.5678764489,
				"y": 2.0072091892,
				"z": -1.25659334,
				"element": "H" 
			},
			{
				"x": 1.6021496347,
				"y": -0.4633167233,
				"z": -2.7425937855,
				"element": "H" 
			},
			{
				"x": 2.0429406647,
				"y": 1.2203032185,
				"z": -3.0376927833,
				"element": "H" 
			},
			{
				"x": 0.3758127347,
				"y": 0.6898181267,
				"z": -3.2995634587,
				"element": "H" 
			},
			{
				"x": 0.6181039956,
				"y": -2.9411721882,
				"z": -0.1737485058,
				"element": "H" 
			},
			{
				"x": 1.5612645404,
				"y": -1.6312726571,
				"z": 0.5471706575,
				"element": "H" 
			},
			{
				"x": 1.511820851,
				"y": -1.8085076813,
				"z": -1.2101792086,
				"element": "H" 
			},
			{
				"x": -4.3038523248,
				"y": 1.6826766549,
				"z": -0.2830077659,
				"element": "H" 
			},
			{
				"x": -3.9390327559,
				"y": -2.9270264288,
				"z": 1.8893259548,
				"element": "H" 
			},
			{
				"x": -5.5133331056,
				"y": -2.5290830093,
				"z": 1.1652005924,
				"element": "H" 
			},
			{
				"x": -4.2796261623,
				"y": -3.3999103542,
				"z": 0.2267395776,
				"element": "H" 
			}
		],
		 "valence_orbital": [ 
			{
				"type": "occ",
				"energy": -0.28757,
				"method": "rhf"
			},
			{
				"type": "occ",
				"energy": -0.27184,
				"method": "rhf"
			},
			{
				"type": "occ",
				"energy": -0.26225,
				"method": "rhf"
			},
			{
				"type": "occ",
				"energy": -0.25433,
				"method": "rhf"
			},
			{
				"type": "occ",
				"energy": -0.21997,
				"method": "rhf"
			},
			{
				"type": "unocc",
				"energy": -0.0316,
				"method": "rhf"
			},
			{
				"type": "unocc",
				"energy": -0.01006,
				"method": "rhf"
			},
			{
				"type": "unocc",
				"energy": 0.05906,
				"method": "rhf"
			},
			{
				"type": "unocc",
				"energy": 0.0768,
				"method": "rhf"
			},
			{
				"type": "unocc",
				"energy": 0.09013,
				"method": "rhf"
			}
		],
		"cosmo_sigma_profile": { 
			"-0.025": 0.0,
			"-0.024": 0.0,
			"-0.023": 0.0,
			"-0.022": 0.0,
			"-0.021": 0.0,
			"-0.02": 0.0,
			"-0.019": 0.0,
			"-0.018": 0.0,
			"-0.017": 0.492986891494,
			"-0.016": 1.34667379588,
			"-0.015": 1.07301893971,
			"-0.014": 0.751866083309,
			"-0.013": 0.850532352648,
			"-0.012": 0.372080377064,
			"-0.011": 1.22985400402,
			"-0.01": 0.950578593373,
			"-0.009": 0.435772577704,
			"-0.008": 0.740941976584,
			"-0.007": 1.1071628494,
			"-0.006": 4.6654865594,
			"-0.005": 11.0703270505,
			"-0.004": 26.3248776069,
			"-0.003": 26.7654716342,
			"-0.002": 31.2040678238,
			"-0.001": 31.0169989864,
			"0.0": 26.1010620384,
			"0.001": 15.7289030888,
			"0.002": 9.79241523943,
			"0.003": 7.31503505311,
			"0.004": 5.2667085443,
			"0.005": 5.55056472332,
			"0.006": 5.01116205086,
			"0.007": 3.32630879936,
			"0.008": 3.77199826345,
			"0.009": 3.80304999996,
			"0.01": 3.38354603957,
			"0.011": 3.73604093801,
			"0.012": 5.50076106439,
			"0.013": 5.82333472221,
			"0.014": 1.5551557953,
			"0.015": 0.69912242862,
			"0.016": 0.029992853471,
			"0.017": 0.0,
			"0.018": 0.0,
			"0.019": 0.0,
			"0.02": 0.0,
			"0.021": 0.0,
			"0.022": 0.0,
			"0.023": 0.0,
			"0.024": 0.0,
			"0.025": 0.0
		}
	}
}
