{
	 "smiles": "NC(=S)NCC(F)(F)F", 
	 "Tm": 428.15, 
	 "num_atms": 14, 
	 "gaussian": { 
		 "optdone": 1, 
		 "sigma_profile": "yes", 
		 "theory": "DFT", 
		 "functional": "B3LYP", 
		 "basiset": "6-31G**", 
		 "properties": { 
			 "R2extent": 1944.1008, 
			 "electric_dipole_moment_norm": 4.38911361211, 
			 "electric_quadrupole_moment_norm": 13.0362548514, 
			 "total_energy": -924.564539892, 
			 "HOMO_LUMO_gap": 0.20352, 
			 "cosmo_polarized_energy": -18.09, 
			 "cosmo_cavitation_energy": 21.37, 
			 "cosmo_dispersion_energy": -15.6, 
			 "cosmo_repulsion_energy": 1.22, 
			 "cosmo_total_nonelectrostatic_energy": 6.99, 
			 "SMD_solvation_energy": 3.82 
		},
		"coords": [
			{
				"x": 1.5690116244,
				"y": -0.1493693496,
				"z": 2.0955987686,
				"element": "N" 
			},
			{
				"x": 0.9292368763,
				"y": -0.0158804679,
				"z": 0.8956815899,
				"element": "C" 
			},
			{
				"x": 1.6861320769,
				"y": 0.6756188963,
				"z": -0.4332478355,
				"element": "S" 
			},
			{
				"x": -0.3621661256,
				"y": -0.4590190278,
				"z": 0.9094251953,
				"element": "N" 
			},
			{
				"x": -1.2583905214,
				"y": -0.4088195845,
				"z": -0.2199632036,
				"element": "C" 
			},
			{
				"x": -1.9250668873,
				"y": -1.7550633728,
				"z": -0.4374389702,
				"element": "C" 
			},
			{
				"x": -2.5637682596,
				"y": -2.1592125317,
				"z": 0.6927167967,
				"element": "F" 
			},
			{
				"x": -2.8435832086,
				"y": -1.6701261418,
				"z": -1.4176043919,
				"element": "F" 
			},
			{
				"x": -1.0465437965,
				"y": -2.7170295757,
				"z": -0.7639322677,
				"element": "F" 
			},
			{
				"x": 1.2590604494,
				"y": -0.8413898409,
				"z": 2.7649191358,
				"element": "H" 
			},
			{
				"x": 2.5566914788,
				"y": 0.0535025811,
				"z": 2.0835756758,
				"element": "H" 
			},
			{
				"x": -0.7720737808,
				"y": -0.7252497453,
				"z": 1.7946712737,
				"element": "H" 
			},
			{
				"x": -2.0500390543,
				"y": 0.3374281256,
				"z": -0.0823870488,
				"element": "H" 
			},
			{
				"x": -0.6763008718,
				"y": -0.138889965,
				"z": -1.1036147181,
				"element": "H" 
			}
		],
		 "valence_orbital": [ 
			{
				"type": "occ",
				"energy": -0.38573,
				"method": "rhf"
			},
			{
				"type": "occ",
				"energy": -0.37136,
				"method": "rhf"
			},
			{
				"type": "occ",
				"energy": -0.28472,
				"method": "rhf"
			},
			{
				"type": "occ",
				"energy": -0.22597,
				"method": "rhf"
			},
			{
				"type": "occ",
				"energy": -0.21467,
				"method": "rhf"
			},
			{
				"type": "unocc",
				"energy": -0.01115,
				"method": "rhf"
			},
			{
				"type": "unocc",
				"energy": 0.04542,
				"method": "rhf"
			},
			{
				"type": "unocc",
				"energy": 0.07927,
				"method": "rhf"
			},
			{
				"type": "unocc",
				"energy": 0.09492,
				"method": "rhf"
			},
			{
				"type": "unocc",
				"energy": 0.11599,
				"method": "rhf"
			}
		],
		"cosmo_sigma_profile": { 
			"-0.025": 0.0,
			"-0.024": 0.0,
			"-0.023": 0.0,
			"-0.022": 0.0,
			"-0.021": 0.0,
			"-0.02": 0.0,
			"-0.019": 0.00149215630447,
			"-0.018": 0.56324472633,
			"-0.017": 1.45169910723,
			"-0.016": 1.96013179906,
			"-0.015": 2.03100322766,
			"-0.014": 2.86837900379,
			"-0.013": 2.59115020764,
			"-0.012": 3.34964005134,
			"-0.011": 3.29623689846,
			"-0.01": 2.12309458677,
			"-0.009": 2.96276806636,
			"-0.008": 5.84689079779,
			"-0.007": 5.41169117144,
			"-0.006": 5.43718735575,
			"-0.005": 4.88060708627,
			"-0.004": 3.73517552455,
			"-0.003": 4.44444528162,
			"-0.002": 5.03917057409,
			"-0.001": 5.98154963132,
			"0.0": 6.40177676639,
			"0.001": 9.88695439853,
			"0.002": 22.245857809,
			"0.003": 27.4194380518,
			"0.004": 4.30659139526,
			"0.005": 4.87768905846,
			"0.006": 3.85419824977,
			"0.007": 4.67009558678,
			"0.008": 4.21306046844,
			"0.009": 5.43350243321,
			"0.01": 6.06931532771,
			"0.011": 6.57791627205,
			"0.012": 2.22275003209,
			"0.013": 0.00427193777909,
			"0.014": 0.0,
			"0.015": 0.0,
			"0.016": 0.0,
			"0.017": 0.0,
			"0.018": 0.0,
			"0.019": 0.0,
			"0.02": 0.0,
			"0.021": 0.0,
			"0.022": 0.0,
			"0.023": 0.0,
			"0.024": 0.0,
			"0.025": 0.0
		}
	}
}
