{
	 "smiles": "CC1=NC(=C(CC(O)=O)S1)C1=CC=CS1", 
	 "Tm": 433.15, 
	 "num_atms": 24, 
	 "gaussian": { 
		 "optdone": 1, 
		 "sigma_profile": "yes", 
		 "theory": "DFT", 
		 "functional": "B3LYP", 
		 "basiset": "6-31G**", 
		 "properties": { 
			 "R2extent": 4286.5031, 
			 "electric_dipole_moment_norm": 1.10566029593, 
			 "electric_quadrupole_moment_norm": 14.3754303254, 
			 "total_energy": -1388.06577937, 
			 "HOMO_LUMO_gap": 0.1664, 
			 "cosmo_polarized_energy": -13.64, 
			 "cosmo_cavitation_energy": 31.67, 
			 "cosmo_dispersion_energy": -23.71, 
			 "cosmo_repulsion_energy": 1.79, 
			 "cosmo_total_nonelectrostatic_energy": 9.75, 
			 "SMD_solvation_energy": 4.95 
		},
		"coords": [
			{
				"x": 1.175238273,
				"y": 0.0339598225,
				"z": 3.4184260702,
				"element": "C" 
			},
			{
				"x": 0.9348265315,
				"y": 0.2725658355,
				"z": 1.9592533245,
				"element": "C" 
			},
			{
				"x": 0.314874413,
				"y": -0.5579634067,
				"z": 1.1770869056,
				"element": "N" 
			},
			{
				"x": 0.2087073946,
				"y": -0.0810104445,
				"z": -0.1211815349,
				"element": "C" 
			},
			{
				"x": 0.7956227801,
				"y": 1.1492093755,
				"z": -0.3396765744,
				"element": "C" 
			},
			{
				"x": 0.9625196558,
				"y": 1.9161741218,
				"z": -1.6212807936,
				"element": "C" 
			},
			{
				"x": -0.0234532443,
				"y": 3.0734474543,
				"z": -1.7294796245,
				"element": "C" 
			},
			{
				"x": -0.9349528328,
				"y": 2.8764359941,
				"z": -2.7129116836,
				"element": "O" 
			},
			{
				"x": -0.0181141956,
				"y": 4.0565527527,
				"z": -1.0260438979,
				"element": "O" 
			},
			{
				"x": 1.4580566652,
				"y": 1.7488976503,
				"z": 1.159288884,
				"element": "S" 
			},
			{
				"x": -0.4657485885,
				"y": -0.930373618,
				"z": -1.0993193389,
				"element": "C" 
			},
			{
				"x": -1.1113348379,
				"y": -0.6107308299,
				"z": -2.2755187043,
				"element": "C" 
			},
			{
				"x": -1.6338568846,
				"y": -1.7484645477,
				"z": -2.956032811,
				"element": "C" 
			},
			{
				"x": -1.3926353548,
				"y": -2.9205994601,
				"z": -2.2918351594,
				"element": "C" 
			},
			{
				"x": -0.5273045358,
				"y": -2.659071337,
				"z": -0.8155552873,
				"element": "S" 
			},
			{
				"x": 0.807734303,
				"y": -0.9623623052,
				"z": 3.6705389345,
				"element": "H" 
			},
			{
				"x": 2.2401325802,
				"y": 0.0937279915,
				"z": 3.6660969923,
				"element": "H" 
			},
			{
				"x": 0.6483480737,
				"y": 0.7695382364,
				"z": 4.0356651858,
				"element": "H" 
			},
			{
				"x": 1.9644701974,
				"y": 2.3572229739,
				"z": -1.6664374033,
				"element": "H" 
			},
			{
				"x": 0.8468987351,
				"y": 1.2393418533,
				"z": -2.4696919049,
				"element": "H" 
			},
			{
				"x": -1.5329410343,
				"y": 3.6435299823,
				"z": -2.6912639254,
				"element": "H" 
			},
			{
				"x": -1.2504320073,
				"y": 0.4055371867,
				"z": -2.623296511,
				"element": "H" 
			},
			{
				"x": -2.1781478698,
				"y": -1.6907326471,
				"z": -3.891905183,
				"element": "H" 
			},
			{
				"x": -1.6871082167,
				"y": -3.9218326348,
				"z": -2.5753259595,
				"element": "H" 
			}
		],
		 "valence_orbital": [ 
			{
				"type": "occ",
				"energy": -0.28446,
				"method": "rhf"
			},
			{
				"type": "occ",
				"energy": -0.27347,
				"method": "rhf"
			},
			{
				"type": "occ",
				"energy": -0.26161,
				"method": "rhf"
			},
			{
				"type": "occ",
				"energy": -0.2464,
				"method": "rhf"
			},
			{
				"type": "occ",
				"energy": -0.20842,
				"method": "rhf"
			},
			{
				"type": "unocc",
				"energy": -0.04202,
				"method": "rhf"
			},
			{
				"type": "unocc",
				"energy": -0.01075,
				"method": "rhf"
			},
			{
				"type": "unocc",
				"energy": 0.00291,
				"method": "rhf"
			},
			{
				"type": "unocc",
				"energy": 0.01089,
				"method": "rhf"
			},
			{
				"type": "unocc",
				"energy": 0.04241,
				"method": "rhf"
			}
		],
		"cosmo_sigma_profile": { 
			"-0.025": 0.0,
			"-0.024": 0.0,
			"-0.023": 0.0,
			"-0.022": 0.0,
			"-0.021": 0.0,
			"-0.02": 0.0,
			"-0.019": 0.210062564227,
			"-0.018": 1.06162687773,
			"-0.017": 1.00766294479,
			"-0.016": 1.11248895232,
			"-0.015": 0.493862983131,
			"-0.014": 0.523469228269,
			"-0.013": 0.309018873224,
			"-0.012": 0.764037195903,
			"-0.011": 1.15318520366,
			"-0.01": 0.757505563382,
			"-0.009": 0.649598183089,
			"-0.008": 4.85334345442,
			"-0.007": 6.46607121401,
			"-0.006": 13.2729821727,
			"-0.005": 16.7146200998,
			"-0.004": 18.2715667775,
			"-0.003": 16.9791846923,
			"-0.002": 18.5656644122,
			"-0.001": 16.3411302157,
			"0.0": 16.6319111064,
			"0.001": 18.7023406261,
			"0.002": 18.6551479355,
			"0.003": 19.1758226312,
			"0.004": 20.2951696243,
			"0.005": 13.6550582002,
			"0.006": 6.20604579773,
			"0.007": 4.99327803131,
			"0.008": 3.88251720873,
			"0.009": 2.97467575702,
			"0.01": 3.79559324801,
			"0.011": 6.11576289967,
			"0.012": 2.89784104061,
			"0.013": 0.259698014941,
			"0.014": 0.0,
			"0.015": 0.0,
			"0.016": 0.0,
			"0.017": 0.0,
			"0.018": 0.0,
			"0.019": 0.0,
			"0.02": 0.0,
			"0.021": 0.0,
			"0.022": 0.0,
			"0.023": 0.0,
			"0.024": 0.0,
			"0.025": 0.0
		}
	}
}
