{
	 "smiles": "COC1=C(OC)C(=CC(=C1)S(Cl)(=O)=O)C(O)=O", 
	 "Tm": 433.15, 
	 "num_atms": 26, 
	 "gaussian": { 
		 "optdone": 1, 
		 "sigma_profile": "yes", 
		 "theory": "DFT", 
		 "functional": "B3LYP", 
		 "basiset": "6-31G**", 
		 "properties": { 
			 "R2extent": 6097.1664, 
			 "electric_dipole_moment_norm": 4.43427267768, 
			 "electric_quadrupole_moment_norm": 32.6751325393, 
			 "total_energy": -1658.0158159, 
			 "HOMO_LUMO_gap": 0.16207, 
			 "cosmo_polarized_energy": -16.27, 
			 "cosmo_cavitation_energy": 34.49, 
			 "cosmo_dispersion_energy": -24.86, 
			 "cosmo_repulsion_energy": 1.92, 
			 "cosmo_total_nonelectrostatic_energy": 11.55, 
			 "SMD_solvation_energy": 7.41 
		},
		"coords": [
			{
				"x": 0.0845918741,
				"y": 4.2034680129,
				"z": 0.5916521629,
				"element": "C" 
			},
			{
				"x": 0.8440777554,
				"y": 3.0173380996,
				"z": 0.3781778111,
				"element": "O" 
			},
			{
				"x": 0.1900110484,
				"y": 1.901863439,
				"z": -0.025223343,
				"element": "C" 
			},
			{
				"x": 1.0023600713,
				"y": 0.7445612619,
				"z": -0.1829105988,
				"element": "C" 
			},
			{
				"x": 2.3077114898,
				"y": 0.8093274931,
				"z": 0.1693910192,
				"element": "O" 
			},
			{
				"x": 3.2097078621,
				"y": 1.3935941777,
				"z": -0.7855421317,
				"element": "C" 
			},
			{
				"x": 0.4192427111,
				"y": -0.4664924362,
				"z": -0.5926371717,
				"element": "C" 
			},
			{
				"x": -0.965630849,
				"y": -0.5464773156,
				"z": -0.8123069805,
				"element": "C" 
			},
			{
				"x": -1.7257991624,
				"y": 0.60030898,
				"z": -0.6521759857,
				"element": "C" 
			},
			{
				"x": -1.1796607446,
				"y": 1.8296183504,
				"z": -0.2653819826,
				"element": "C" 
			},
			{
				"x": -3.4836772944,
				"y": 0.5164215971,
				"z": -0.9413949584,
				"element": "S" 
			},
			{
				"x": -3.6007270056,
				"y": 1.0667161827,
				"z": -3.0050252199,
				"element": "Cl" 
			},
			{
				"x": -4.1435852233,
				"y": 1.5893433324,
				"z": -0.2062590221,
				"element": "O" 
			},
			{
				"x": -3.9277127082,
				"y": -0.8690566225,
				"z": -0.8670500618,
				"element": "O" 
			},
			{
				"x": 1.2727487914,
				"y": -1.6686627758,
				"z": -0.836894672,
				"element": "C" 
			},
			{
				"x": 0.5680796997,
				"y": -2.8182577429,
				"z": -0.7028968441,
				"element": "O" 
			},
			{
				"x": 2.4428877072,
				"y": -1.6571385567,
				"z": -1.1530295275,
				"element": "O" 
			},
			{
				"x": 0.7995053559,
				"y": 4.9579204928,
				"z": 0.9201480918,
				"element": "H" 
			},
			{
				"x": -0.6729619112,
				"y": 4.0562660678,
				"z": 1.3705919853,
				"element": "H" 
			},
			{
				"x": -0.4019518554,
				"y": 4.5400580659,
				"z": -0.3319077675,
				"element": "H" 
			},
			{
				"x": 2.8941786739,
				"y": 2.4063902923,
				"z": -1.0535211866,
				"element": "H" 
			},
			{
				"x": 3.276926616,
				"y": 0.7554189589,
				"z": -1.6706320772,
				"element": "H" 
			},
			{
				"x": 4.1797398637,
				"y": 1.432422751,
				"z": -0.2888299752,
				"element": "H" 
			},
			{
				"x": -1.4222731961,
				"y": -1.4830858095,
				"z": -1.104652481,
				"element": "H" 
			},
			{
				"x": -1.8279517718,
				"y": 2.6866164173,
				"z": -0.1377489023,
				"element": "H" 
			},
			{
				"x": 1.182062202,
				"y": -3.5371827135,
				"z": -0.9276401807,
				"element": "H" 
			}
		],
		 "valence_orbital": [ 
			{
				"type": "occ",
				"energy": -0.31354,
				"method": "rhf"
			},
			{
				"type": "occ",
				"energy": -0.30255,
				"method": "rhf"
			},
			{
				"type": "occ",
				"energy": -0.28348,
				"method": "rhf"
			},
			{
				"type": "occ",
				"energy": -0.28259,
				"method": "rhf"
			},
			{
				"type": "occ",
				"energy": -0.25379,
				"method": "rhf"
			},
			{
				"type": "unocc",
				"energy": -0.09172,
				"method": "rhf"
			},
			{
				"type": "unocc",
				"energy": -0.06491,
				"method": "rhf"
			},
			{
				"type": "unocc",
				"energy": -0.03795,
				"method": "rhf"
			},
			{
				"type": "unocc",
				"energy": 0.02305,
				"method": "rhf"
			},
			{
				"type": "unocc",
				"energy": 0.0533,
				"method": "rhf"
			}
		],
		"cosmo_sigma_profile": { 
			"-0.025": 0.0,
			"-0.024": 0.0,
			"-0.023": 0.0,
			"-0.022": 0.0,
			"-0.021": 0.0,
			"-0.02": 0.0,
			"-0.019": 0.258894767271,
			"-0.018": 1.13240988288,
			"-0.017": 0.795545570377,
			"-0.016": 0.548125944412,
			"-0.015": 1.09156824775,
			"-0.014": 0.524196145989,
			"-0.013": 1.00035621926,
			"-0.012": 0.666711958905,
			"-0.011": 0.741901392629,
			"-0.01": 0.334152700173,
			"-0.009": 1.74789424746,
			"-0.008": 3.70059184174,
			"-0.007": 8.42327587927,
			"-0.006": 14.8801510373,
			"-0.005": 15.1217453521,
			"-0.004": 21.8056724308,
			"-0.003": 24.5397543345,
			"-0.002": 21.8515238916,
			"-0.001": 24.0233240669,
			"0.0": 17.8684957077,
			"0.001": 12.2951236294,
			"0.002": 13.453972233,
			"0.003": 19.9472221856,
			"0.004": 14.1281074822,
			"0.005": 7.27108921921,
			"0.006": 7.13649124915,
			"0.007": 10.808829414,
			"0.008": 13.5065127425,
			"0.009": 8.13136673277,
			"0.01": 6.03118002282,
			"0.011": 3.7065386124,
			"0.012": 0.630111021999,
			"0.013": 0.0,
			"0.014": 0.0,
			"0.015": 0.0,
			"0.016": 0.0,
			"0.017": 0.0,
			"0.018": 0.0,
			"0.019": 0.0,
			"0.02": 0.0,
			"0.021": 0.0,
			"0.022": 0.0,
			"0.023": 0.0,
			"0.024": 0.0,
			"0.025": 0.0
		}
	}
}
