{
	 "smiles": "COC(=O)C1=CC(=C(C=C1)C(=O)OC)S(Cl)(=O)=O", 
	 "Tm": 338.15, 
	 "num_atms": 27, 
	 "gaussian": { 
		 "optdone": 1, 
		 "sigma_profile": "yes", 
		 "theory": "DFT", 
		 "functional": "B3LYP", 
		 "basiset": "6-31G**", 
		 "properties": { 
			 "R2extent": 6751.8945, 
			 "electric_dipole_moment_norm": 7.5834578729, 
			 "electric_quadrupole_moment_norm": 19.1954736923, 
			 "total_energy": -1696.14685938, 
			 "HOMO_LUMO_gap": 0.18985, 
			 "cosmo_polarized_energy": -16.63, 
			 "cosmo_cavitation_energy": 36.02, 
			 "cosmo_dispersion_energy": -26.02, 
			 "cosmo_repulsion_energy": 1.99, 
			 "cosmo_total_nonelectrostatic_energy": 11.98, 
			 "SMD_solvation_energy": 7.95 
		},
		"coords": [
			{
				"x": 4.4088174498,
				"y": 3.2644894718,
				"z": -1.5619596298,
				"element": "C" 
			},
			{
				"x": 3.5610685025,
				"y": 2.2073387244,
				"z": -1.0766435523,
				"element": "O" 
			},
			{
				"x": 2.3662930692,
				"y": 2.101080119,
				"z": -1.6914513159,
				"element": "C" 
			},
			{
				"x": 2.0009919374,
				"y": 2.8278750405,
				"z": -2.5918640253,
				"element": "O" 
			},
			{
				"x": 1.5430234579,
				"y": 0.9838493144,
				"z": -1.133348039,
				"element": "C" 
			},
			{
				"x": 0.2802818553,
				"y": 0.7680803334,
				"z": -1.6963236128,
				"element": "C" 
			},
			{
				"x": -0.5284725766,
				"y": -0.2513434033,
				"z": -1.2051696232,
				"element": "C" 
			},
			{
				"x": -0.1016999977,
				"y": -1.0867923252,
				"z": -0.1553664302,
				"element": "C" 
			},
			{
				"x": 1.1781175784,
				"y": -0.8729983916,
				"z": 0.3707880836,
				"element": "C" 
			},
			{
				"x": 1.9918111368,
				"y": 0.154291179,
				"z": -0.1019808837,
				"element": "C" 
			},
			{
				"x": -0.9748549729,
				"y": -2.1263921472,
				"z": 0.4922574131,
				"element": "C" 
			},
			{
				"x": -2.1314141809,
				"y": -1.9517422766,
				"z": 0.7979489725,
				"element": "O" 
			},
			{
				"x": -0.2778951787,
				"y": -3.2488254787,
				"z": 0.7476872448,
				"element": "O" 
			},
			{
				"x": -1.0245099481,
				"y": -4.2900259877,
				"z": 1.4091782298,
				"element": "C" 
			},
			{
				"x": -2.0646399201,
				"y": -0.5258792001,
				"z": -2.1195229784,
				"element": "S" 
			},
			{
				"x": -3.5016298246,
				"y": 0.4633907117,
				"z": -0.9298012805,
				"element": "Cl" 
			},
			{
				"x": -1.9879347676,
				"y": 0.2422804024,
				"z": -3.3565520064,
				"element": "O" 
			},
			{
				"x": -2.3775912087,
				"y": -1.9481443443,
				"z": -2.1293985306,
				"element": "O" 
			},
			{
				"x": 4.6326019919,
				"y": 3.1178360586,
				"z": -2.6211351893,
				"element": "H" 
			},
			{
				"x": 5.3179612832,
				"y": 3.2079570583,
				"z": -0.9643445515,
				"element": "H" 
			},
			{
				"x": 3.921227244,
				"y": 4.2335855261,
				"z": -1.4333226028,
				"element": "H" 
			},
			{
				"x": -0.0480407991,
				"y": 1.3895715841,
				"z": -2.5210425838,
				"element": "H" 
			},
			{
				"x": 1.5264658338,
				"y": -1.5212800732,
				"z": 1.1665673328,
				"element": "H" 
			},
			{
				"x": 2.9752952328,
				"y": 0.3127285244,
				"z": 0.3244380326,
				"element": "H" 
			},
			{
				"x": -0.3287657112,
				"y": -5.120780007,
				"z": 1.5201162076,
				"element": "H" 
			},
			{
				"x": -1.8834673967,
				"y": -4.5812138708,
				"z": 0.8010230709,
				"element": "H" 
			},
			{
				"x": -1.3774400901,
				"y": -3.9462365425,
				"z": 2.3843222477,
				"element": "H" 
			}
		],
		 "valence_orbital": [ 
			{
				"type": "occ",
				"energy": -0.30826,
				"method": "rhf"
			},
			{
				"type": "occ",
				"energy": -0.30096,
				"method": "rhf"
			},
			{
				"type": "occ",
				"energy": -0.29736,
				"method": "rhf"
			},
			{
				"type": "occ",
				"energy": -0.29606,
				"method": "rhf"
			},
			{
				"type": "occ",
				"energy": -0.28592,
				"method": "rhf"
			},
			{
				"type": "unocc",
				"energy": -0.09607,
				"method": "rhf"
			},
			{
				"type": "unocc",
				"energy": -0.07649,
				"method": "rhf"
			},
			{
				"type": "unocc",
				"energy": -0.04942,
				"method": "rhf"
			},
			{
				"type": "unocc",
				"energy": -0.00791,
				"method": "rhf"
			},
			{
				"type": "unocc",
				"energy": 0.03119,
				"method": "rhf"
			}
		],
		"cosmo_sigma_profile": { 
			"-0.025": 0.0,
			"-0.024": 0.0,
			"-0.023": 0.0,
			"-0.022": 0.0,
			"-0.021": 0.0,
			"-0.02": 0.0,
			"-0.019": 0.0,
			"-0.018": 0.0,
			"-0.017": 0.0,
			"-0.016": 0.0,
			"-0.015": 0.0,
			"-0.014": 0.0,
			"-0.013": 0.0,
			"-0.012": 0.0,
			"-0.011": 0.0,
			"-0.01": 0.0,
			"-0.009": 1.25024335217,
			"-0.008": 4.47138374821,
			"-0.007": 9.20846673166,
			"-0.006": 17.8474292361,
			"-0.005": 21.9216053093,
			"-0.004": 28.873861695,
			"-0.003": 26.0349751352,
			"-0.002": 28.3599707352,
			"-0.001": 22.6431770318,
			"0.0": 15.4425516351,
			"0.001": 14.1034480388,
			"0.002": 13.4575271125,
			"0.003": 16.5544007212,
			"0.004": 11.4141040315,
			"0.005": 7.56632944958,
			"0.006": 8.74992208169,
			"0.007": 8.87678584637,
			"0.008": 11.8859308203,
			"0.009": 8.19350265783,
			"0.01": 6.48288402246,
			"0.011": 6.84554744715,
			"0.012": 0.8928305178,
			"0.013": 0.0,
			"0.014": 0.0,
			"0.015": 0.0,
			"0.016": 0.0,
			"0.017": 0.0,
			"0.018": 0.0,
			"0.019": 0.0,
			"0.02": 0.0,
			"0.021": 0.0,
			"0.022": 0.0,
			"0.023": 0.0,
			"0.024": 0.0,
			"0.025": 0.0
		}
	}
}
