{
	 "smiles": "ClC1=C(Cl)C=C2N=NNC2=C1", 
	 "Tm": 523.15, 
	 "num_atms": 14, 
	 "gaussian": { 
		 "optdone": 1, 
		 "sigma_profile": "yes", 
		 "theory": "DFT", 
		 "functional": "B3LYP", 
		 "basiset": "6-31G**", 
		 "properties": { 
			 "R2extent": 2339.3004, 
			 "electric_dipole_moment_norm": 3.26561804411, 
			 "electric_quadrupole_moment_norm": 15.0473030713, 
			 "total_energy": -1315.04075454, 
			 "HOMO_LUMO_gap": 0.18861, 
			 "cosmo_polarized_energy": -13.05, 
			 "cosmo_cavitation_energy": 22.44, 
			 "cosmo_dispersion_energy": -17.36, 
			 "cosmo_repulsion_energy": 1.38, 
			 "cosmo_total_nonelectrostatic_energy": 6.46, 
			 "SMD_solvation_energy": 1.66 
		},
		"coords": [
			{
				"x": -1.3085333996,
				"y": -2.5290128323,
				"z": -1.2492686589,
				"element": "Cl" 
			},
			{
				"x": -0.4722539035,
				"y": -1.1207348245,
				"z": -0.6456030605,
				"element": "C" 
			},
			{
				"x": -1.2048015025,
				"y": 0.0052057489,
				"z": -0.1684972527,
				"element": "C" 
			},
			{
				"x": -2.9521220984,
				"y": -0.0057410066,
				"z": -0.1800802634,
				"element": "Cl" 
			},
			{
				"x": -0.5530623934,
				"y": 1.1292174014,
				"z": 0.3132422839,
				"element": "C" 
			},
			{
				"x": 0.8479130716,
				"y": 1.120314326,
				"z": 0.3149788291,
				"element": "C" 
			},
			{
				"x": 1.7503125646,
				"y": 2.080813421,
				"z": 0.7279627246,
				"element": "N" 
			},
			{
				"x": 2.9438510566,
				"y": 1.6287300635,
				"z": 0.5401949361,
				"element": "N" 
			},
			{
				"x": 2.8621646562,
				"y": 0.3745846362,
				"z": 0.004989242,
				"element": "N" 
			},
			{
				"x": 1.560363122,
				"y": 0.0019669178,
				"z": -0.1589914122,
				"element": "C" 
			},
			{
				"x": 0.9162319086,
				"y": -1.1395755501,
				"z": -0.6481828202,
				"element": "C" 
			},
			{
				"x": -1.1093766253,
				"y": 1.985074073,
				"z": 0.6758757737,
				"element": "H" 
			},
			{
				"x": 3.7134841426,
				"y": -0.124564567,
				"z": -0.2044614229,
				"element": "H" 
			},
			{
				"x": 1.4510294005,
				"y": -2.0069778075,
				"z": -1.0158588985,
				"element": "H" 
			}
		],
		 "valence_orbital": [ 
			{
				"type": "occ",
				"energy": -0.33437,
				"method": "rhf"
			},
			{
				"type": "occ",
				"energy": -0.31729,
				"method": "rhf"
			},
			{
				"type": "occ",
				"energy": -0.28601,
				"method": "rhf"
			},
			{
				"type": "occ",
				"energy": -0.2611,
				"method": "rhf"
			},
			{
				"type": "occ",
				"energy": -0.25488,
				"method": "rhf"
			},
			{
				"type": "unocc",
				"energy": -0.06627,
				"method": "rhf"
			},
			{
				"type": "unocc",
				"energy": -0.01754,
				"method": "rhf"
			},
			{
				"type": "unocc",
				"energy": -0.00693,
				"method": "rhf"
			},
			{
				"type": "unocc",
				"energy": 0.01307,
				"method": "rhf"
			},
			{
				"type": "unocc",
				"energy": 0.04838,
				"method": "rhf"
			}
		],
		"cosmo_sigma_profile": { 
			"-0.025": 0.0,
			"-0.024": 0.0,
			"-0.023": 0.0,
			"-0.022": 0.0,
			"-0.021": 0.0,
			"-0.02": 0.0,
			"-0.019": 0.164986496437,
			"-0.018": 2.09577922472,
			"-0.017": 1.50838956259,
			"-0.016": 1.10095808485,
			"-0.015": 1.74930465174,
			"-0.014": 0.948589697906,
			"-0.013": 1.11393882397,
			"-0.012": 1.32784897247,
			"-0.011": 0.740907717775,
			"-0.01": 1.96021735218,
			"-0.009": 4.24309408799,
			"-0.008": 2.9229866189,
			"-0.007": 3.60721536937,
			"-0.006": 3.38705893988,
			"-0.005": 3.99413799098,
			"-0.004": 4.17033285628,
			"-0.003": 7.46507622663,
			"-0.002": 11.6329361785,
			"-0.001": 19.4372566694,
			"0.0": 25.0643166586,
			"0.001": 16.1799271347,
			"0.002": 12.0023381501,
			"0.003": 16.55191454,
			"0.004": 15.4286188421,
			"0.005": 6.07697123976,
			"0.006": 2.07617066011,
			"0.007": 2.14841305885,
			"0.008": 2.67547870896,
			"0.009": 3.43369652748,
			"0.01": 2.84543018809,
			"0.011": 3.08521953558,
			"0.012": 2.05220356709,
			"0.013": 1.48787823227,
			"0.014": 1.0171862986,
			"0.015": 0.40783167729,
			"0.016": 0.0,
			"0.017": 0.0,
			"0.018": 0.0,
			"0.019": 0.0,
			"0.02": 0.0,
			"0.021": 0.0,
			"0.022": 0.0,
			"0.023": 0.0,
			"0.024": 0.0,
			"0.025": 0.0
		}
	}
}
