{
	 "smiles": "OC(=O)C1=C(C=CC=C1)S(O)(=O)=O", 
	 "Tm": 415.15, 
	 "num_atms": 19, 
	 "gaussian": { 
		 "optdone": 1, 
		 "sigma_profile": "yes", 
		 "theory": "DFT", 
		 "functional": "B3LYP", 
		 "basiset": "6-31G**", 
		 "properties": { 
			 "R2extent": 3111.1286, 
			 "electric_dipole_moment_norm": 4.05577976473, 
			 "electric_quadrupole_moment_norm": 16.4183778483, 
			 "total_energy": -1044.60025121, 
			 "HOMO_LUMO_gap": 0.21043, 
			 "cosmo_polarized_energy": -19.68, 
			 "cosmo_cavitation_energy": 25.32, 
			 "cosmo_dispersion_energy": -19.18, 
			 "cosmo_repulsion_energy": 1.47, 
			 "cosmo_total_nonelectrostatic_energy": 7.61, 
			 "SMD_solvation_energy": 4.81 
		},
		"coords": [
			{
				"x": -0.5539954835,
				"y": 0.3788872552,
				"z": 2.1828743367,
				"element": "O" 
			},
			{
				"x": -0.1118636299,
				"y": 0.8890547113,
				"z": 1.0200581678,
				"element": "C" 
			},
			{
				"x": -0.0683191952,
				"y": 2.0760533103,
				"z": 0.7790591235,
				"element": "O" 
			},
			{
				"x": 0.2419835252,
				"y": -0.1756709551,
				"z": 0.0258275878,
				"element": "C" 
			},
			{
				"x": 0.8110711698,
				"y": -1.4283832646,
				"z": 0.3279610123,
				"element": "C" 
			},
			{
				"x": 1.0421418854,
				"y": -2.3607978108,
				"z": -0.6863158018,
				"element": "C" 
			},
			{
				"x": 0.7229481366,
				"y": -2.0497578737,
				"z": -2.0086669249,
				"element": "C" 
			},
			{
				"x": 0.1950130312,
				"y": -0.7991470513,
				"z": -2.3246243933,
				"element": "C" 
			},
			{
				"x": -0.0336218319,
				"y": 0.1297258516,
				"z": -1.3124710744,
				"element": "C" 
			},
			{
				"x": 1.3066312022,
				"y": -1.870416428,
				"z": 2.0126798006,
				"element": "S" 
			},
			{
				"x": 2.42335804,
				"y": -3.0410352371,
				"z": 1.6983463343,
				"element": "O" 
			},
			{
				"x": 0.2175734241,
				"y": -2.5404130171,
				"z": 2.6997834467,
				"element": "O" 
			},
			{
				"x": 2.0535381415,
				"y": -0.7585050908,
				"z": 2.5990366943,
				"element": "O" 
			},
			{
				"x": -0.69763199,
				"y": 1.1226070783,
				"z": 2.7915581482,
				"element": "H" 
			},
			{
				"x": 1.4889439146,
				"y": -3.3165052742,
				"z": -0.442950685,
				"element": "H" 
			},
			{
				"x": 0.902884877,
				"y": -2.7838546707,
				"z": -2.7878997752,
				"element": "H" 
			},
			{
				"x": -0.0376391156,
				"y": -0.5457917135,
				"z": -3.3541488755,
				"element": "H" 
			},
			{
				"x": -0.4389639601,
				"y": 1.1109762376,
				"z": -1.5339453863,
				"element": "H" 
			},
			{
				"x": 3.2928478587,
				"y": -2.6176260573,
				"z": 1.796838264,
				"element": "H" 
			}
		],
		 "valence_orbital": [ 
			{
				"type": "occ",
				"energy": -0.32124,
				"method": "rhf"
			},
			{
				"type": "occ",
				"energy": -0.31506,
				"method": "rhf"
			},
			{
				"type": "occ",
				"energy": -0.2977,
				"method": "rhf"
			},
			{
				"type": "occ",
				"energy": -0.28346,
				"method": "rhf"
			},
			{
				"type": "occ",
				"energy": -0.27915,
				"method": "rhf"
			},
			{
				"type": "unocc",
				"energy": -0.06872,
				"method": "rhf"
			},
			{
				"type": "unocc",
				"energy": -0.04221,
				"method": "rhf"
			},
			{
				"type": "unocc",
				"energy": 0.02503,
				"method": "rhf"
			},
			{
				"type": "unocc",
				"energy": 0.0294,
				"method": "rhf"
			},
			{
				"type": "unocc",
				"energy": 0.04814,
				"method": "rhf"
			}
		],
		"cosmo_sigma_profile": { 
			"-0.025": 0.0,
			"-0.024": 0.0,
			"-0.023": 0.0,
			"-0.022": 0.0,
			"-0.021": 0.0244603757022,
			"-0.02": 0.688248176491,
			"-0.019": 1.64154066642,
			"-0.018": 2.07223458231,
			"-0.017": 1.59980799254,
			"-0.016": 1.53712218845,
			"-0.015": 0.752967900158,
			"-0.014": 1.94155455139,
			"-0.013": 1.95356794381,
			"-0.012": 1.73558538816,
			"-0.011": 1.24526912631,
			"-0.01": 0.826576869377,
			"-0.009": 1.52232579631,
			"-0.008": 6.09133216931,
			"-0.007": 10.3372350606,
			"-0.006": 10.1110174221,
			"-0.005": 8.47588012659,
			"-0.004": 8.883297825,
			"-0.003": 9.00194222029,
			"-0.002": 10.0001292376,
			"-0.001": 11.1187789821,
			"0.0": 15.9986350391,
			"0.001": 16.6453322997,
			"0.002": 9.52560309895,
			"0.003": 4.72949661258,
			"0.004": 5.1351101421,
			"0.005": 5.39147291239,
			"0.006": 5.54618379972,
			"0.007": 7.21709554067,
			"0.008": 7.37167611253,
			"0.009": 12.5395472385,
			"0.01": 14.058346684,
			"0.011": 6.47371767109,
			"0.012": 0.652008238699,
			"0.013": 0.0,
			"0.014": 0.0,
			"0.015": 0.0,
			"0.016": 0.0,
			"0.017": 0.0,
			"0.018": 0.0,
			"0.019": 0.0,
			"0.02": 0.0,
			"0.021": 0.0,
			"0.022": 0.0,
			"0.023": 0.0,
			"0.024": 0.0,
			"0.025": 0.0
		}
	}
}
