{
	 "smiles": "CC(=O)NC1=CC=CC(N)=C1C(O)=O", 
	 "Tm": 457.15, 
	 "num_atms": 24, 
	 "gaussian": { 
		 "optdone": 1, 
		 "sigma_profile": "yes", 
		 "theory": "DFT", 
		 "functional": "B3LYP", 
		 "basiset": "6-31G**", 
		 "properties": { 
			 "R2extent": 3184.4177, 
			 "electric_dipole_moment_norm": 8.48228319145, 
			 "electric_quadrupole_moment_norm": 20.929894671, 
			 "total_energy": -684.193777221, 
			 "HOMO_LUMO_gap": 0.17295, 
			 "cosmo_polarized_energy": -22.34, 
			 "cosmo_cavitation_energy": 27.59, 
			 "cosmo_dispersion_energy": -20.57, 
			 "cosmo_repulsion_energy": 1.61, 
			 "cosmo_total_nonelectrostatic_energy": 8.63, 
			 "SMD_solvation_energy": 6.79 
		},
		"coords": [
			{
				"x": -3.1961635327,
				"y": 0.1171123971,
				"z": 0.8696164018,
				"element": "C" 
			},
			{
				"x": -2.4791430003,
				"y": -1.1468975875,
				"z": 1.309600862,
				"element": "C" 
			},
			{
				"x": -3.0423041823,
				"y": -1.9812702458,
				"z": 1.9994818507,
				"element": "O" 
			},
			{
				"x": -1.1432688928,
				"y": -1.3545860224,
				"z": 0.9707042848,
				"element": "N" 
			},
			{
				"x": -0.2478947775,
				"y": -0.6386676781,
				"z": 0.1829245248,
				"element": "C" 
			},
			{
				"x": -0.6837477471,
				"y": 0.1300066772,
				"z": -0.9130196386,
				"element": "C" 
			},
			{
				"x": 0.2207199291,
				"y": 0.8425670295,
				"z": -1.6867687693,
				"element": "C" 
			},
			{
				"x": 1.5880414896,
				"y": 0.7733967299,
				"z": -1.4307165157,
				"element": "C" 
			},
			{
				"x": 2.0500837732,
				"y": -0.0131196478,
				"z": -0.376863636,
				"element": "C" 
			},
			{
				"x": 3.4562659545,
				"y": -0.0800417759,
				"z": -0.1127398312,
				"element": "N" 
			},
			{
				"x": 1.1521623824,
				"y": -0.7115848747,
				"z": 0.4669309287,
				"element": "C" 
			},
			{
				"x": 1.6316957229,
				"y": -1.4823004627,
				"z": 1.6680594681,
				"element": "C" 
			},
			{
				"x": 2.8270775219,
				"y": -1.1581823359,
				"z": 2.1798186004,
				"element": "O" 
			},
			{
				"x": 0.9732456609,
				"y": -2.3613396502,
				"z": 2.2019234333,
				"element": "O" 
			},
			{
				"x": -3.6517615618,
				"y": -0.0205512972,
				"z": -0.1170040139,
				"element": "H" 
			},
			{
				"x": -2.5430702249,
				"y": 0.9915855055,
				"z": 0.8282208388,
				"element": "H" 
			},
			{
				"x": -4.0022005265,
				"y": 0.2856570532,
				"z": 1.5846600004,
				"element": "H" 
			},
			{
				"x": -0.7044165831,
				"y": -2.0896588272,
				"z": 1.5291144831,
				"element": "H" 
			},
			{
				"x": -1.7310578547,
				"y": 0.1382625199,
				"z": -1.1786946157,
				"element": "H" 
			},
			{
				"x": -0.1411630958,
				"y": 1.4290347171,
				"z": -2.5260624241,
				"element": "H" 
			},
			{
				"x": 2.2978878425,
				"y": 1.2979050135,
				"z": -2.0639796772,
				"element": "H" 
			},
			{
				"x": 3.8437910059,
				"y": -1.001897299,
				"z": -0.3036227851,
				"element": "H" 
			},
			{
				"x": 3.9701596779,
				"y": 0.603527919,
				"z": -0.6585484949,
				"element": "H" 
			},
			{
				"x": 3.2625610187,
				"y": -0.4840578577,
				"z": 1.6035647248,
				"element": "H" 
			}
		],
		 "valence_orbital": [ 
			{
				"type": "occ",
				"energy": -0.29883,
				"method": "rhf"
			},
			{
				"type": "occ",
				"energy": -0.27649,
				"method": "rhf"
			},
			{
				"type": "occ",
				"energy": -0.25955,
				"method": "rhf"
			},
			{
				"type": "occ",
				"energy": -0.25033,
				"method": "rhf"
			},
			{
				"type": "occ",
				"energy": -0.22811,
				"method": "rhf"
			},
			{
				"type": "unocc",
				"energy": -0.05516,
				"method": "rhf"
			},
			{
				"type": "unocc",
				"energy": -0.02299,
				"method": "rhf"
			},
			{
				"type": "unocc",
				"energy": 0.03365,
				"method": "rhf"
			},
			{
				"type": "unocc",
				"energy": 0.0421,
				"method": "rhf"
			},
			{
				"type": "unocc",
				"energy": 0.0531,
				"method": "rhf"
			}
		],
		"cosmo_sigma_profile": { 
			"-0.025": 0.0,
			"-0.024": 0.0,
			"-0.023": 0.0,
			"-0.022": 0.0,
			"-0.021": 0.0,
			"-0.02": 0.0,
			"-0.019": 0.0,
			"-0.018": 0.0,
			"-0.017": 0.0,
			"-0.016": 0.0,
			"-0.015": 0.0,
			"-0.014": 1.22875930709,
			"-0.013": 3.63489656061,
			"-0.012": 3.56670999876,
			"-0.011": 3.8346629049,
			"-0.01": 2.96967341773,
			"-0.009": 2.66736501123,
			"-0.008": 4.6700903717,
			"-0.007": 8.15007379908,
			"-0.006": 10.8307849583,
			"-0.005": 13.6898306317,
			"-0.004": 12.9795725578,
			"-0.003": 14.7952872552,
			"-0.002": 16.5766777763,
			"-0.001": 14.9294718404,
			"0.0": 12.3961520222,
			"0.001": 12.9353702142,
			"0.002": 12.3659903356,
			"0.003": 13.6895648518,
			"0.004": 8.79999792356,
			"0.005": 3.03267300854,
			"0.006": 2.52691011004,
			"0.007": 3.17743657328,
			"0.008": 3.9047121188,
			"0.009": 4.55499104964,
			"0.01": 4.63319390534,
			"0.011": 6.75859405553,
			"0.012": 6.46702486011,
			"0.013": 7.02305519218,
			"0.014": 2.86923155691,
			"0.015": 0.0612421475176,
			"0.016": 0.0,
			"0.017": 0.0,
			"0.018": 0.0,
			"0.019": 0.0,
			"0.02": 0.0,
			"0.021": 0.0,
			"0.022": 0.0,
			"0.023": 0.0,
			"0.024": 0.0,
			"0.025": 0.0
		}
	}
}
