{
	 "smiles": "ClCC(=O)NC1=C(Br)C=CC=C1", 
	 "Tm": 352.15, 
	 "num_atms": 19, 
	 "gaussian": { 
		 "optdone": 1, 
		 "sigma_profile": "yes", 
		 "theory": "DFT", 
		 "functional": "B3LYP", 
		 "basiset": "6-31G**", 
		 "properties": { 
			 "R2extent": 6746.9567, 
			 "electric_dipole_moment_norm": 5.46532235646, 
			 "electric_quadrupole_moment_norm": 16.6988156293, 
			 "total_energy": -3470.64763366, 
			 "HOMO_LUMO_gap": 0.2054, 
			 "cosmo_polarized_energy": -13.82, 
			 "cosmo_cavitation_energy": 27.33, 
			 "cosmo_dispersion_energy": -20.41, 
			 "cosmo_repulsion_energy": 1.65, 
			 "cosmo_total_nonelectrostatic_energy": 8.57, 
			 "SMD_solvation_energy": 3.96 
		},
		"coords": [
			{
				"x": 1.0509161738,
				"y": -4.481813959,
				"z": 2.4814827612,
				"element": "Cl" 
			},
			{
				"x": 0.8624883188,
				"y": -2.8709390143,
				"z": 1.7184453488,
				"element": "C" 
			},
			{
				"x": 2.107377565,
				"y": -2.0000968232,
				"z": 1.9204995933,
				"element": "C" 
			},
			{
				"x": 3.2121333884,
				"y": -2.4600923347,
				"z": 2.1300659977,
				"element": "O" 
			},
			{
				"x": 1.9288572841,
				"y": -0.6252562109,
				"z": 1.8528142075,
				"element": "N" 
			},
			{
				"x": 0.7757130816,
				"y": 0.1622100306,
				"z": 1.684583576,
				"element": "C" 
			},
			{
				"x": 0.5880576515,
				"y": 1.3226720137,
				"z": 2.4608219434,
				"element": "C" 
			},
			{
				"x": 1.8921941479,
				"y": 1.8167459627,
				"z": 3.7691249038,
				"element": "Br" 
			},
			{
				"x": -0.528795509,
				"y": 2.1366353151,
				"z": 2.2926831962,
				"element": "C" 
			},
			{
				"x": -1.4977789254,
				"y": 1.8018491166,
				"z": 1.3471695792,
				"element": "C" 
			},
			{
				"x": -1.3246820598,
				"y": 0.6661894958,
				"z": 0.5566255326,
				"element": "C" 
			},
			{
				"x": -0.1924528332,
				"y": -0.1304913231,
				"z": 0.7103140416,
				"element": "C" 
			},
			{
				"x": -0.0303415164,
				"y": -2.4048014422,
				"z": 2.1352741005,
				"element": "H" 
			},
			{
				"x": 0.7017593567,
				"y": -3.0423132345,
				"z": 0.6515859681,
				"element": "H" 
			},
			{
				"x": 2.7651081654,
				"y": -0.135035398,
				"z": 2.1520545207,
				"element": "H" 
			},
			{
				"x": -0.6380407097,
				"y": 3.0219724171,
				"z": 2.9085386955,
				"element": "H" 
			},
			{
				"x": -2.372412866,
				"y": 2.4325956473,
				"z": 1.2258011126,
				"element": "H" 
			},
			{
				"x": -2.058638254,
				"y": 0.4083280125,
				"z": -0.2003754744,
				"element": "H" 
			},
			{
				"x": -0.0364624597,
				"y": -0.9748582717,
				"z": 0.0487903958,
				"element": "H" 
			}
		],
		 "valence_orbital": [ 
			{
				"type": "occ",
				"energy": -0.30241,
				"method": "rhf"
			},
			{
				"type": "occ",
				"energy": -0.29926,
				"method": "rhf"
			},
			{
				"type": "occ",
				"energy": -0.2734,
				"method": "rhf"
			},
			{
				"type": "occ",
				"energy": -0.26674,
				"method": "rhf"
			},
			{
				"type": "occ",
				"energy": -0.2439,
				"method": "rhf"
			},
			{
				"type": "unocc",
				"energy": -0.0385,
				"method": "rhf"
			},
			{
				"type": "unocc",
				"energy": -0.03348,
				"method": "rhf"
			},
			{
				"type": "unocc",
				"energy": -0.01091,
				"method": "rhf"
			},
			{
				"type": "unocc",
				"energy": 0.00397,
				"method": "rhf"
			},
			{
				"type": "unocc",
				"energy": 0.03247,
				"method": "rhf"
			}
		],
		"cosmo_sigma_profile": { 
			"-0.025": 0.0,
			"-0.024": 0.0,
			"-0.023": 0.0,
			"-0.022": 0.0,
			"-0.021": 0.0,
			"-0.02": 0.0,
			"-0.019": 0.0,
			"-0.018": 0.0,
			"-0.017": 0.0,
			"-0.016": 0.0,
			"-0.015": 0.0,
			"-0.014": 0.0,
			"-0.013": 0.088272469963,
			"-0.012": 1.17318506729,
			"-0.011": 2.31447697108,
			"-0.01": 3.61233794176,
			"-0.009": 3.38237676555,
			"-0.008": 5.93894833965,
			"-0.007": 10.1775663524,
			"-0.006": 12.8973675954,
			"-0.005": 12.7587429535,
			"-0.004": 12.7528748691,
			"-0.003": 9.83853227122,
			"-0.002": 11.0408481584,
			"-0.001": 14.0161568087,
			"0.0": 14.5559381229,
			"0.001": 18.433890819,
			"0.002": 19.7093272988,
			"0.003": 20.8442911015,
			"0.004": 15.4990585084,
			"0.005": 8.38272800968,
			"0.006": 6.87310329186,
			"0.007": 2.15093325716,
			"0.008": 1.87923264774,
			"0.009": 1.95473332562,
			"0.01": 2.01581064821,
			"0.011": 2.68478523271,
			"0.012": 5.60881068457,
			"0.013": 3.08219296868,
			"0.014": 0.762930935165,
			"0.015": 0.0,
			"0.016": 0.0,
			"0.017": 0.0,
			"0.018": 0.0,
			"0.019": 0.0,
			"0.02": 0.0,
			"0.021": 0.0,
			"0.022": 0.0,
			"0.023": 0.0,
			"0.024": 0.0,
			"0.0": 0.0
		}
	}
}
