{
	 "smiles": "OC(=O)CCC(=O)N1CCOCC1", 
	 "Tm": 336.15, 
	 "num_atms": 26, 
	 "gaussian": { 
		 "optdone": 1, 
		 "sigma_profile": "yes", 
		 "theory": "DFT", 
		 "functional": "B3LYP", 
		 "basiset": "6-31G**", 
		 "properties": { 
			 "R2extent": 3913.8663, 
			 "electric_dipole_moment_norm": 1.41832036931, 
			 "electric_quadrupole_moment_norm": 7.72424694258, 
			 "total_energy": -668.351324367, 
			 "HOMO_LUMO_gap": 0.24399, 
			 "cosmo_polarized_energy": -16.35, 
			 "cosmo_cavitation_energy": 28.8, 
			 "cosmo_dispersion_energy": -21.2, 
			 "cosmo_repulsion_energy": 1.71, 
			 "cosmo_total_nonelectrostatic_energy": 9.31, 
			 "SMD_solvation_energy": 6.02 
		},
		"coords": [
			{
				"x": 0.5966938547,
				"y": 2.4404293059,
				"z": 4.090719806,
				"element": "O" 
			},
			{
				"x": 0.6064140468,
				"y": 2.0233495259,
				"z": 2.8021775272,
				"element": "C" 
			},
			{
				"x": 1.0195787986,
				"y": 2.7186966799,
				"z": 1.8977830773,
				"element": "O" 
			},
			{
				"x": 0.0319391732,
				"y": 0.6332645103,
				"z": 2.6640942749,
				"element": "C" 
			},
			{
				"x": 0.2631413624,
				"y": 0.0514275534,
				"z": 1.2722198763,
				"element": "C" 
			},
			{
				"x": -0.55495741,
				"y": -1.222855815,
				"z": 1.0606464461,
				"element": "C" 
			},
			{
				"x": -1.345568004,
				"y": -1.6181091319,
				"z": 1.914638696,
				"element": "O" 
			},
			{
				"x": -0.3756716328,
				"y": -1.8964846416,
				"z": -0.1239245156,
				"element": "N" 
			},
			{
				"x": 0.548146368,
				"y": -1.535316646,
				"z": -1.1964537961,
				"element": "C" 
			},
			{
				"x": -0.1832940106,
				"y": -1.58103407,
				"z": -2.5430273454,
				"element": "C" 
			},
			{
				"x": -0.800771635,
				"y": -2.8401556823,
				"z": -2.7545526311,
				"element": "O" 
			},
			{
				"x": -1.7524418637,
				"y": -3.1232202403,
				"z": -1.7331289909,
				"element": "C" 
			},
			{
				"x": -1.093058897,
				"y": -3.1514621415,
				"z": -0.3557524229,
				"element": "C" 
			},
			{
				"x": 0.9556033675,
				"y": 3.3437306647,
				"z": 4.084080458,
				"element": "H" 
			},
			{
				"x": -1.0407140616,
				"y": 0.6780415586,
				"z": 2.8820860313,
				"element": "H" 
			},
			{
				"x": 0.4517826,
				"y": -0.0062044318,
				"z": 3.4462182559,
				"element": "H" 
			},
			{
				"x": 1.3294359921,
				"y": -0.1533546899,
				"z": 1.1226462379,
				"element": "H" 
			},
			{
				"x": -0.0027141326,
				"y": 0.8019446675,
				"z": 0.5192157313,
				"element": "H" 
			},
			{
				"x": 0.95623385,
				"y": -0.5375163215,
				"z": -1.0342812284,
				"element": "H" 
			},
			{
				"x": 1.3861925787,
				"y": -2.2479209697,
				"z": -1.2196034516,
				"element": "H" 
			},
			{
				"x": 0.5239986839,
				"y": -1.4344737911,
				"z": -3.3647186797,
				"element": "H" 
			},
			{
				"x": -0.9349662291,
				"y": -0.7746666323,
				"z": -2.5768929711,
				"element": "H" 
			},
			{
				"x": -2.5560297747,
				"y": -2.36892762,
				"z": -1.7451188457,
				"element": "H" 
			},
			{
				"x": -2.1850889026,
				"y": -4.098575071,
				"z": -1.9732106257,
				"element": "H" 
			},
			{
				"x": -1.8279202946,
				"y": -3.2683728557,
				"z": 0.4414498317,
				"element": "H" 
			},
			{
				"x": -0.3842638277,
				"y": -3.9908337146,
				"z": -0.3094107457,
				"element": "H" 
			}
		],
		 "valence_orbital": [ 
			{
				"type": "occ",
				"energy": -0.31963,
				"method": "rhf"
			},
			{
				"type": "occ",
				"energy": -0.27871,
				"method": "rhf"
			},
			{
				"type": "occ",
				"energy": -0.27623,
				"method": "rhf"
			},
			{
				"type": "occ",
				"energy": -0.25138,
				"method": "rhf"
			},
			{
				"type": "occ",
				"energy": -0.23555,
				"method": "rhf"
			},
			{
				"type": "unocc",
				"energy": 0.00844,
				"method": "rhf"
			},
			{
				"type": "unocc",
				"energy": 0.02387,
				"method": "rhf"
			},
			{
				"type": "unocc",
				"energy": 0.07828,
				"method": "rhf"
			},
			{
				"type": "unocc",
				"energy": 0.08624,
				"method": "rhf"
			},
			{
				"type": "unocc",
				"energy": 0.10195,
				"method": "rhf"
			}
		],
		"cosmo_sigma_profile": { 
			"-0.025": 0.0,
			"-0.024": 0.0,
			"-0.023": 0.0,
			"-0.022": 0.0,
			"-0.021": 0.0,
			"-0.02": 0.0,
			"-0.019": 0.0394799869542,
			"-0.018": 0.727467454982,
			"-0.017": 0.928019937164,
			"-0.016": 0.828456143639,
			"-0.015": 0.475767004021,
			"-0.014": 0.898144287978,
			"-0.013": 0.665771580367,
			"-0.012": 0.559990555811,
			"-0.011": 0.835351677286,
			"-0.01": 0.432116077827,
			"-0.009": 0.690835741308,
			"-0.008": 0.804236344291,
			"-0.007": 4.17748618568,
			"-0.006": 13.6327840518,
			"-0.005": 23.5389918045,
			"-0.004": 32.6811432967,
			"-0.003": 25.4746352222,
			"-0.002": 16.884453974,
			"-0.001": 11.024182805,
			"0.0": 9.33029117251,
			"0.001": 8.05553923578,
			"0.002": 6.3111870813,
			"0.003": 4.99485244356,
			"0.004": 6.1249830782,
			"0.005": 5.63373007304,
			"0.006": 4.55454450628,
			"0.007": 5.28962779068,
			"0.008": 6.66072810672,
			"0.009": 4.25642748135,
			"0.01": 4.69551104788,
			"0.011": 6.44854644264,
			"0.012": 8.17749760342,
			"0.013": 4.8817265942,
			"0.014": 4.11477207094,
			"0.015": 0.118298772904,
			"0.016": 0.0,
			"0.017": 0.0,
			"0.018": 0.0,
			"0.019": 0.0,
			"0.02": 0.0,
			"0.021": 0.0,
			"0.022": 0.0,
			"0.023": 0.0,
			"0.024": 0.0,
			"0.025": 0.0
		}
	}
}
