{
	 "smiles": "FC(F)(F)C1=CC(C#N)=C(C=C1)N1CCOCC1", 
	 "Tm": 327.15, 
	 "num_atms": 29, 
	 "gaussian": { 
		 "optdone": 1, 
		 "sigma_profile": "yes", 
		 "theory": "DFT", 
		 "functional": "B3LYP", 
		 "basiset": "6-31G**", 
		 "properties": { 
			 "R2extent": 5808.3061, 
			 "electric_dipole_moment_norm": 4.35031469781, 
			 "electric_quadrupole_moment_norm": 12.5636033513, 
			 "total_energy": -948.121561708, 
			 "HOMO_LUMO_gap": 0.16187, 
			 "cosmo_polarized_energy": -12.84, 
			 "cosmo_cavitation_energy": 33.9, 
			 "cosmo_dispersion_energy": -23.57, 
			 "cosmo_repulsion_energy": 1.74, 
			 "cosmo_total_nonelectrostatic_energy": 12.07, 
			 "SMD_solvation_energy": 7.06 
		},
		"coords": [
			{
				"x": -1.8847232295,
				"y": -2.3824571672,
				"z": 2.6050857566,
				"element": "F" 
			},
			{
				"x": -0.8022712461,
				"y": -1.6437767496,
				"z": 2.9417362843,
				"element": "C" 
			},
			{
				"x": -1.0864987369,
				"y": -1.0007713218,
				"z": 4.0946542938,
				"element": "F" 
			},
			{
				"x": 0.1931082716,
				"y": -2.5215291376,
				"z": 3.2136517242,
				"element": "F" 
			},
			{
				"x": -0.4232941414,
				"y": -0.6922131475,
				"z": 1.8450774896,
				"element": "C" 
			},
			{
				"x": 0.0404088644,
				"y": 0.5840626008,
				"z": 2.1346493298,
				"element": "C" 
			},
			{
				"x": 0.4354714369,
				"y": 1.4595845063,
				"z": 1.1107623584,
				"element": "C" 
			},
			{
				"x": 0.7663846441,
				"y": 2.7986171276,
				"z": 1.4904705833,
				"element": "C" 
			},
			{
				"x": 1.014379506,
				"y": 3.8854814269,
				"z": 1.8271884548,
				"element": "N" 
			},
			{
				"x": 0.4103677417,
				"y": 1.0456695608,
				"z": -0.2573332938,
				"element": "C" 
			},
			{
				"x": -0.0858548939,
				"y": -0.2547928725,
				"z": -0.514133135,
				"element": "C" 
			},
			{
				"x": -0.4952266332,
				"y": -1.097596123,
				"z": 0.5063839871,
				"element": "C" 
			},
			{
				"x": 0.8009810941,
				"y": 1.8896906077,
				"z": -1.2828601523,
				"element": "N" 
			},
			{
				"x": 2.0246717468,
				"y": 2.7046707486,
				"z": -1.2302505974,
				"element": "C" 
			},
			{
				"x": 3.0949599988,
				"y": 2.096501701,
				"z": -2.1449828506,
				"element": "C" 
			},
			{
				"x": 2.6259774567,
				"y": 1.9430020354,
				"z": -3.478156044,
				"element": "O" 
			},
			{
				"x": 1.4788458585,
				"y": 1.1069365277,
				"z": -3.5326771798,
				"element": "C" 
			},
			{
				"x": 0.3585126554,
				"y": 1.6864263689,
				"z": -2.6644824343,
				"element": "C" 
			},
			{
				"x": 0.07015358,
				"y": 0.9331497697,
				"z": 3.1603951495,
				"element": "H" 
			},
			{
				"x": -0.1156419159,
				"y": -0.6232902799,
				"z": -1.5319973892,
				"element": "H" 
			},
			{
				"x": -0.8604174639,
				"y": -2.0904176124,
				"z": 0.2640026864,
				"element": "H" 
			},
			{
				"x": 1.790186653,
				"y": 3.7238314886,
				"z": -1.5613736521,
				"element": "H" 
			},
			{
				"x": 2.4039701442,
				"y": 2.7675477239,
				"z": -0.2118096314,
				"element": "H" 
			},
			{
				"x": 3.4141391001,
				"y": 1.1219090044,
				"z": -1.7389419608,
				"element": "H" 
			},
			{
				"x": 3.9675738961,
				"y": 2.7544602702,
				"z": -2.1958638306,
				"element": "H" 
			},
			{
				"x": 1.1728438001,
				"y": 1.0626714705,
				"z": -4.5823105227,
				"element": "H" 
			},
			{
				"x": 1.7324644214,
				"y": 0.0868182225,
				"z": -3.1984274338,
				"element": "H" 
			},
			{
				"x": 0.085657984,
				"y": 2.6704463,
				"z": -3.069212003,
				"element": "H" 
			},
			{
				"x": -0.5380305928,
				"y": 1.0645669501,
				"z": -2.688545987,
				"element": "H" 
			}
		],
		 "valence_orbital": [ 
			{
				"type": "occ",
				"energy": -0.32915,
				"method": "rhf"
			},
			{
				"type": "occ",
				"energy": -0.31251,
				"method": "rhf"
			},
			{
				"type": "occ",
				"energy": -0.27964,
				"method": "rhf"
			},
			{
				"type": "occ",
				"energy": -0.2747,
				"method": "rhf"
			},
			{
				"type": "occ",
				"energy": -0.21996,
				"method": "rhf"
			},
			{
				"type": "unocc",
				"energy": -0.05809,
				"method": "rhf"
			},
			{
				"type": "unocc",
				"energy": -0.0322,
				"method": "rhf"
			},
			{
				"type": "unocc",
				"energy": 0.02873,
				"method": "rhf"
			},
			{
				"type": "unocc",
				"energy": 0.05706,
				"method": "rhf"
			},
			{
				"type": "unocc",
				"energy": 0.0728,
				"method": "rhf"
			}
		],
		"cosmo_sigma_profile": { 
			"-0.025": 0.0,
			"-0.024": 0.0,
			"-0.023": 0.0,
			"-0.022": 0.0,
			"-0.021": 0.0,
			"-0.02": 0.0,
			"-0.019": 0.0,
			"-0.018": 0.0,
			"-0.017": 0.0,
			"-0.016": 0.0,
			"-0.015": 0.0,
			"-0.014": 0.0,
			"-0.013": 0.0,
			"-0.012": 0.0,
			"-0.011": 0.0,
			"-0.01": 0.0,
			"-0.009": 0.672232113359,
			"-0.008": 4.68385012715,
			"-0.007": 8.05676918505,
			"-0.006": 13.6761208155,
			"-0.005": 24.278486278,
			"-0.004": 28.49876688,
			"-0.003": 17.9517624589,
			"-0.002": 16.0152138694,
			"-0.001": 14.9397721439,
			"0.0": 18.7966644407,
			"0.001": 21.8313717495,
			"0.002": 26.3791171665,
			"0.003": 33.9045384316,
			"0.004": 6.84904840099,
			"0.005": 3.33924925818,
			"0.006": 2.92876251527,
			"0.007": 4.03856591864,
			"0.008": 4.02975777794,
			"0.009": 3.54989009993,
			"0.01": 4.66653347653,
			"0.011": 3.74962999718,
			"0.012": 4.03252456434,
			"0.013": 3.53779749047,
			"0.014": 0.135062349017,
			"0.015": 0.0,
			"0.016": 0.0,
			"0.017": 0.0,
			"0.018": 0.0,
			"0.019": 0.0,
			"0.02": 0.0,
			"0.021": 0.0,
			"0.022": 0.0,
			"0.023": 0.0,
			"0.024": 0.0,
			"0.025": 0.0
		}
	}
}
