{
	 "smiles": "CCC(C)N1N=C(C=C1C)C(O)=O", 
	 "Tm": 377.15, 
	 "num_atms": 27, 
	 "gaussian": { 
		 "optdone": 1, 
		 "sigma_profile": "yes", 
		 "theory": "DFT", 
		 "functional": "B3LYP", 
		 "basiset": "6-31G**", 
		 "properties": { 
			 "R2extent": 2773.2807, 
			 "electric_dipole_moment_norm": 4.34979549634, 
			 "electric_quadrupole_moment_norm": 10.1277588735, 
			 "total_energy": -611.363693097, 
			 "HOMO_LUMO_gap": 0.22128, 
			 "cosmo_polarized_energy": -15.09, 
			 "cosmo_cavitation_energy": 30.54, 
			 "cosmo_dispersion_energy": -20.86, 
			 "cosmo_repulsion_energy": 1.69, 
			 "cosmo_total_nonelectrostatic_energy": 11.37, 
			 "SMD_solvation_energy": 6.23 
		},
		"coords": [
			{
				"x": 0.7278916975,
				"y": 0.1502103391,
				"z": 3.1817569997,
				"element": "C" 
			},
			{
				"x": 0.1005876462,
				"y": -1.1536881771,
				"z": 2.6822256411,
				"element": "C" 
			},
			{
				"x": 0.6289231308,
				"y": -1.6209824649,
				"z": 1.3156059617,
				"element": "C" 
			},
			{
				"x": 0.0477869139,
				"y": -2.9763714552,
				"z": 0.8963393471,
				"element": "C" 
			},
			{
				"x": 0.3492959219,
				"y": -0.6123410996,
				"z": 0.2783653751,
				"element": "N" 
			},
			{
				"x": -0.9235235019,
				"y": -0.250840459,
				"z": 0.0613582801,
				"element": "N" 
			},
			{
				"x": -0.861573639,
				"y": 0.6402079672,
				"z": -0.935149566,
				"element": "C" 
			},
			{
				"x": 0.4708090673,
				"y": 0.8465506535,
				"z": -1.3613429838,
				"element": "C" 
			},
			{
				"x": 1.2357359974,
				"y": 0.0212759613,
				"z": -0.5588573626,
				"element": "C" 
			},
			{
				"x": 2.7154947394,
				"y": -0.2019562203,
				"z": -0.531717076,
				"element": "C" 
			},
			{
				"x": -2.0980431133,
				"y": 1.2643156847,
				"z": -1.4421798009,
				"element": "C" 
			},
			{
				"x": -1.8279814098,
				"y": 2.1376088624,
				"z": -2.4523819866,
				"element": "O" 
			},
			{
				"x": -3.2248627741,
				"y": 1.0592419013,
				"z": -1.04507584,
				"element": "O" 
			},
			{
				"x": 1.8164992915,
				"y": 0.0613911823,
				"z": 3.2802965536,
				"element": "H" 
			},
			{
				"x": 0.5154546189,
				"y": 0.9787351119,
				"z": 2.4994519563,
				"element": "H" 
			},
			{
				"x": 0.3289267972,
				"y": 0.4202765478,
				"z": 4.1641901152,
				"element": "H" 
			},
			{
				"x": -0.9860870205,
				"y": -1.042928647,
				"z": 2.6071028477,
				"element": "H" 
			},
			{
				"x": 0.2928231339,
				"y": -1.9599146306,
				"z": 3.4007206624,
				"element": "H" 
			},
			{
				"x": 1.7203748783,
				"y": -1.6947472579,
				"z": 1.3653002767,
				"element": "H" 
			},
			{
				"x": -1.0383227055,
				"y": -2.9045782588,
				"z": 0.7973652033,
				"element": "H" 
			},
			{
				"x": 0.2840368321,
				"y": -3.7373627009,
				"z": 1.646368134,
				"element": "H" 
			},
			{
				"x": 0.4589144376,
				"y": -3.3001782966,
				"z": -0.0645481568,
				"element": "H" 
			},
			{
				"x": 0.8180926243,
				"y": 1.5058565701,
				"z": -2.1416589936,
				"element": "H" 
			},
			{
				"x": 3.1881154863,
				"y": 0.4147821467,
				"z": -1.2991522998,
				"element": "H" 
			},
			{
				"x": 2.9812461453,
				"y": -1.2457896978,
				"z": -0.7346499924,
				"element": "H" 
			},
			{
				"x": 3.1577905424,
				"y": 0.0715008363,
				"z": 0.4330074735,
				"element": "H" 
			},
			{
				"x": -2.690205738,
				"y": 2.4952256008,
				"z": -2.720340769,
				"element": "H" 
			}
		],
		 "valence_orbital": [ 
			{
				"type": "occ",
				"energy": -0.30593,
				"method": "rhf"
			},
			{
				"type": "occ",
				"energy": -0.28893,
				"method": "rhf"
			},
			{
				"type": "occ",
				"energy": -0.26287,
				"method": "rhf"
			},
			{
				"type": "occ",
				"energy": -0.25113,
				"method": "rhf"
			},
			{
				"type": "occ",
				"energy": -0.24262,
				"method": "rhf"
			},
			{
				"type": "unocc",
				"energy": -0.02134,
				"method": "rhf"
			},
			{
				"type": "unocc",
				"energy": 0.02992,
				"method": "rhf"
			},
			{
				"type": "unocc",
				"energy": 0.07211,
				"method": "rhf"
			},
			{
				"type": "unocc",
				"energy": 0.09042,
				"method": "rhf"
			},
			{
				"type": "unocc",
				"energy": 0.10766,
				"method": "rhf"
			}
		],
		"cosmo_sigma_profile": { 
			"-0.025": 0.0,
			"-0.024": 0.0,
			"-0.023": 0.0,
			"-0.022": 0.0,
			"-0.021": 0.0,
			"-0.02": 0.0,
			"-0.019": 0.0,
			"-0.018": 0.584916633419,
			"-0.017": 0.877048655309,
			"-0.016": 0.816742193721,
			"-0.015": 1.12893187034,
			"-0.014": 0.840936524862,
			"-0.013": 0.392440664349,
			"-0.012": 0.077070550612,
			"-0.011": 0.724647311573,
			"-0.01": 1.17725174992,
			"-0.009": 0.439064120057,
			"-0.008": 0.392941229367,
			"-0.007": 1.9394308153,
			"-0.006": 6.81644640539,
			"-0.005": 14.5942003422,
			"-0.004": 20.2456617025,
			"-0.003": 22.025254543,
			"-0.002": 26.3261060082,
			"-0.001": 28.4755565646,
			"0.0": 27.0847916344,
			"0.001": 17.7660292492,
			"0.002": 11.2871372701,
			"0.003": 9.8348063645,
			"0.004": 7.88738903748,
			"0.005": 4.49801556341,
			"0.006": 3.97896142097,
			"0.007": 4.21447483907,
			"0.008": 3.99064023112,
			"0.009": 2.83523374248,
			"0.01": 2.24556646336,
			"0.011": 3.80586233238,
			"0.012": 5.91961955507,
			"0.013": 2.93164011376,
			"0.014": 1.66585366502,
			"0.015": 1.48698286023,
			"0.016": 0.187333652672,
			"0.017": 0.0,
			"0.018": 0.0,
			"0.019": 0.0,
			"0.02": 0.0,
			"0.021": 0.0,
			"0.022": 0.0,
			"0.023": 0.0,
			"0.024": 0.0,
			"0.025": 0.0
		}
	}
}
