{
	 "smiles": "NCC1=CC(OCC(N)=O)=CC=C1", 
	 "Tm": 363.15, 
	 "num_atms": 25, 
	 "gaussian": { 
		 "optdone": 1, 
		 "sigma_profile": "yes", 
		 "theory": "DFT", 
		 "functional": "B3LYP", 
		 "basiset": "6-31G**", 
		 "properties": { 
			 "R2extent": 3262.3275, 
			 "electric_dipole_moment_norm": 3.78670657696, 
			 "electric_quadrupole_moment_norm": 10.1206275882, 
			 "total_energy": -610.142123023, 
			 "HOMO_LUMO_gap": 0.21734, 
			 "cosmo_polarized_energy": -15.89, 
			 "cosmo_cavitation_energy": 28.73, 
			 "cosmo_dispersion_energy": -20.93, 
			 "cosmo_repulsion_energy": 1.72, 
			 "cosmo_total_nonelectrostatic_energy": 9.51, 
			 "SMD_solvation_energy": 5.01 
		},
		"coords": [
			{
				"x": -1.4789039914,
				"y": 3.1252286388,
				"z": -1.4518373356,
				"element": "N" 
			},
			{
				"x": -0.2408207505,
				"y": 3.0957468657,
				"z": -0.6698204557,
				"element": "C" 
			},
			{
				"x": -0.0420623323,
				"y": 1.7677434572,
				"z": 0.0395440412,
				"element": "C" 
			},
			{
				"x": -0.5664351245,
				"y": 0.5909377984,
				"z": -0.4945628188,
				"element": "C" 
			},
			{
				"x": -0.3546171115,
				"y": -0.6349619399,
				"z": 0.147083014,
				"element": "C" 
			},
			{
				"x": -0.9186656369,
				"y": -1.7277305845,
				"z": -0.4776883983,
				"element": "O" 
			},
			{
				"x": -0.902022666,
				"y": -2.9775841031,
				"z": 0.1997147809,
				"element": "C" 
			},
			{
				"x": 0.4242453992,
				"y": -3.7427873701,
				"z": 0.0912712003,
				"element": "C" 
			},
			{
				"x": 1.1823242379,
				"y": -3.4027370122,
				"z": -0.9842176331,
				"element": "N" 
			},
			{
				"x": 0.7093416622,
				"y": -4.6197343972,
				"z": 0.89345491,
				"element": "O" 
			},
			{
				"x": 0.3918748886,
				"y": -0.7000239112,
				"z": 1.3280318057,
				"element": "C" 
			},
			{
				"x": 0.9103928926,
				"y": 0.4848597889,
				"z": 1.8596928798,
				"element": "C" 
			},
			{
				"x": 0.6953064592,
				"y": 1.7082371719,
				"z": 1.2316806751,
				"element": "C" 
			},
			{
				"x": -1.5354758446,
				"y": 3.9912000524,
				"z": -1.9805732958,
				"element": "H" 
			},
			{
				"x": -2.2825964346,
				"y": 3.1066398321,
				"z": -0.8283713884,
				"element": "H" 
			},
			{
				"x": 0.5898811918,
				"y": 3.2484100776,
				"z": -1.3731783222,
				"element": "H" 
			},
			{
				"x": -0.1559347007,
				"y": 3.9037464825,
				"z": 0.077610973,
				"element": "H" 
			},
			{
				"x": -1.153373477,
				"y": 0.6236371688,
				"z": -1.4057112213,
				"element": "H" 
			},
			{
				"x": -1.155130075,
				"y": -2.8784156663,
				"z": 1.2594468931,
				"element": "H" 
			},
			{
				"x": -1.6786041891,
				"y": -3.5823061656,
				"z": -0.2795334637,
				"element": "H" 
			},
			{
				"x": 2.085452744,
				"y": -3.8370971901,
				"z": -1.0945521262,
				"element": "H" 
			},
			{
				"x": 0.9306948669,
				"y": -2.6108064081,
				"z": -1.5549933351,
				"element": "H" 
			},
			{
				"x": 0.5811035695,
				"y": -1.6417978996,
				"z": 1.8299255687,
				"element": "H" 
			},
			{
				"x": 1.4858850192,
				"y": 0.4421014016,
				"z": 2.7801125071,
				"element": "H" 
			},
			{
				"x": 1.0979394027,
				"y": 2.6203939118,
				"z": 1.6644705451,
				"element": "H" 
			}
		],
		 "valence_orbital": [ 
			{
				"type": "occ",
				"energy": -0.26866,
				"method": "rhf"
			},
			{
				"type": "occ",
				"energy": -0.25143,
				"method": "rhf"
			},
			{
				"type": "occ",
				"energy": -0.25005,
				"method": "rhf"
			},
			{
				"type": "occ",
				"energy": -0.2359,
				"method": "rhf"
			},
			{
				"type": "occ",
				"energy": -0.22001,
				"method": "rhf"
			},
			{
				"type": "unocc",
				"energy": -0.00267,
				"method": "rhf"
			},
			{
				"type": "unocc",
				"energy": 0.00948,
				"method": "rhf"
			},
			{
				"type": "unocc",
				"energy": 0.02659,
				"method": "rhf"
			},
			{
				"type": "unocc",
				"energy": 0.08405,
				"method": "rhf"
			},
			{
				"type": "unocc",
				"energy": 0.08552,
				"method": "rhf"
			}
		],
		"cosmo_sigma_profile": { 
			"-0.025": 0.0,
			"-0.024": 0.0,
			"-0.023": 0.0,
			"-0.022": 0.0,
			"-0.021": 0.0,
			"-0.02": 0.0,
			"-0.019": 0.0,
			"-0.018": 0.0,
			"-0.017": 0.0,
			"-0.016": 0.0,
			"-0.015": 0.128492858223,
			"-0.014": 1.04239555365,
			"-0.013": 1.85588396952,
			"-0.012": 1.80247211805,
			"-0.011": 2.18367006215,
			"-0.01": 3.82364593826,
			"-0.009": 4.3451289696,
			"-0.008": 6.17956618806,
			"-0.007": 7.11798740757,
			"-0.006": 10.9907975954,
			"-0.005": 14.2696314278,
			"-0.004": 17.3606299747,
			"-0.003": 17.4415668361,
			"-0.002": 16.05018476,
			"-0.001": 13.0047978101,
			"0.0": 11.902941516,
			"0.001": 10.7211362863,
			"0.002": 10.7914867699,
			"0.003": 12.2812948389,
			"0.004": 12.8870506378,
			"0.005": 12.0211158109,
			"0.006": 8.74703549895,
			"0.007": 3.42885953307,
			"0.008": 2.75025628298,
			"0.009": 2.75314231046,
			"0.01": 2.8438737921,
			"0.011": 2.25093230678,
			"0.012": 2.2460333686,
			"0.013": 5.49195087812,
			"0.014": 5.17173459299,
			"0.015": 1.41462812055,
			"0.016": 0.567003844606,
			"0.017": 0.339680819872,
			"0.018": 0.0,
			"0.019": 0.0,
			"0.02": 0.0,
			"0.021": 0.0,
			"0.022": 0.0,
			"0.023": 0.0,
			"0.024": 0.0,
			"0.025": 0.0
		}
	}
}
