{
	 "smiles": "O=C1CCC2=C(C1)C1=C(N2)C=CC=C1", 
	 "Tm": 403.15, 
	 "num_atms": 25, 
	 "gaussian": { 
		 "optdone": 1, 
		 "sigma_profile": "yes", 
		 "theory": "DFT", 
		 "functional": "B3LYP", 
		 "basiset": "6-31G**", 
		 "properties": { 
			 "R2extent": 3363.5603, 
			 "electric_dipole_moment_norm": 3.77455381734, 
			 "electric_quadrupole_moment_norm": 11.7079811368, 
			 "total_energy": -593.894431215, 
			 "HOMO_LUMO_gap": 0.18161, 
			 "cosmo_polarized_energy": -13.1, 
			 "cosmo_cavitation_energy": 27.88, 
			 "cosmo_dispersion_energy": -20.86, 
			 "cosmo_repulsion_energy": 1.63, 
			 "cosmo_total_nonelectrostatic_energy": 8.65, 
			 "SMD_solvation_energy": 4.29 
		},
		"coords": [
			{
				"x": -0.5302017772,
				"y": 0.9414962504,
				"z": 2.8282229778,
				"element": "O" 
			},
			{
				"x": -0.4414815511,
				"y": 0.8248499109,
				"z": 1.6218980911,
				"element": "C" 
			},
			{
				"x": -1.5714442449,
				"y": 1.252455074,
				"z": 0.68702247,
				"element": "C" 
			},
			{
				"x": -1.9488169966,
				"y": 0.1614853053,
				"z": -0.3397654047,
				"element": "C" 
			},
			{
				"x": -0.6986359894,
				"y": -0.4055881291,
				"z": -0.9335740915,
				"element": "C" 
			},
			{
				"x": 0.5522496731,
				"y": -0.3539273901,
				"z": -0.3704945878,
				"element": "C" 
			},
			{
				"x": 0.8285394154,
				"y": 0.2848706256,
				"z": 0.9601816737,
				"element": "C" 
			},
			{
				"x": 1.4513768086,
				"y": -1.0274864861,
				"z": -1.2711581962,
				"element": "C" 
			},
			{
				"x": 0.6709046089,
				"y": -1.4699426067,
				"z": -2.3769915559,
				"element": "C" 
			},
			{
				"x": -0.6346578111,
				"y": -1.0782304183,
				"z": -2.1422491219,
				"element": "N" 
			},
			{
				"x": 1.2293973597,
				"y": -2.1648768059,
				"z": -3.4532001624,
				"element": "C" 
			},
			{
				"x": 2.5968765958,
				"y": -2.4198268277,
				"z": -3.4141542266,
				"element": "C" 
			},
			{
				"x": 3.3885975684,
				"y": -1.9931374092,
				"z": -2.329289993,
				"element": "C" 
			},
			{
				"x": 2.8294718704,
				"y": -1.3014477769,
				"z": -1.2608776933,
				"element": "C" 
			},
			{
				"x": -2.4262973211,
				"y": 1.5484191918,
				"z": 1.2990218483,
				"element": "H" 
			},
			{
				"x": -1.2188794525,
				"y": 2.1382277273,
				"z": 0.1404299102,
				"element": "H" 
			},
			{
				"x": -2.59848174,
				"y": 0.5895548233,
				"z": -1.1139065607,
				"element": "H" 
			},
			{
				"x": -2.5364601648,
				"y": -0.6250843658,
				"z": 0.1548318605,
				"element": "H" 
			},
			{
				"x": 1.3010951521,
				"y": -0.4028650461,
				"z": 1.671326441,
				"element": "H" 
			},
			{
				"x": 1.524512576,
				"y": 1.1334458216,
				"z": 0.8581188098,
				"element": "H" 
			},
			{
				"x": -1.4134612573,
				"y": -1.2399573464,
				"z": -2.7598333357,
				"element": "H" 
			},
			{
				"x": 0.6202670344,
				"y": -2.4954470882,
				"z": -4.290072636,
				"element": "H" 
			},
			{
				"x": 3.0614427167,
				"y": -2.9586167671,
				"z": -4.234768857,
				"element": "H" 
			},
			{
				"x": 4.4527344553,
				"y": -2.2103690405,
				"z": -2.3310341282,
				"element": "H" 
			},
			{
				"x": 3.4495524715,
				"y": -0.9784012261,
				"z": -0.4290835314,
				"element": "H" 
			}
		],
		 "valence_orbital": [ 
			{
				"type": "occ",
				"energy": -0.32698,
				"method": "rhf"
			},
			{
				"type": "occ",
				"energy": -0.27012,
				"method": "rhf"
			},
			{
				"type": "occ",
				"energy": -0.24109,
				"method": "rhf"
			},
			{
				"type": "occ",
				"energy": -0.2188,
				"method": "rhf"
			},
			{
				"type": "occ",
				"energy": -0.19969,
				"method": "rhf"
			},
			{
				"type": "unocc",
				"energy": -0.01808,
				"method": "rhf"
			},
			{
				"type": "unocc",
				"energy": -0.00672,
				"method": "rhf"
			},
			{
				"type": "unocc",
				"energy": 0.02754,
				"method": "rhf"
			},
			{
				"type": "unocc",
				"energy": 0.06437,
				"method": "rhf"
			},
			{
				"type": "unocc",
				"energy": 0.07866,
				"method": "rhf"
			}
		],
		"cosmo_sigma_profile": { 
			"-0.025": 0.0,
			"-0.024": 0.0,
			"-0.023": 0.0,
			"-0.022": 0.0,
			"-0.021": 0.0,
			"-0.02": 0.0,
			"-0.019": 0.0,
			"-0.018": 0.0,
			"-0.017": 0.0,
			"-0.016": 0.0279396007112,
			"-0.015": 1.12721284172,
			"-0.014": 1.38730883315,
			"-0.013": 1.36786364021,
			"-0.012": 1.10417153292,
			"-0.011": 1.30175512852,
			"-0.01": 1.27210717412,
			"-0.009": 1.55810413365,
			"-0.008": 1.17056346269,
			"-0.007": 2.45444532311,
			"-0.006": 8.97361618906,
			"-0.005": 18.3848841639,
			"-0.004": 22.7959194278,
			"-0.003": 24.6268694598,
			"-0.002": 20.7626089848,
			"-0.001": 12.7985684908,
			"0.0": 10.0201421972,
			"0.001": 8.72379378519,
			"0.002": 7.75884565419,
			"0.003": 8.40525765535,
			"0.004": 10.6940362736,
			"0.005": 14.226833484,
			"0.006": 12.5350879464,
			"0.007": 9.6553276533,
			"0.008": 3.57795673061,
			"0.009": 2.04199015137,
			"0.01": 1.86871666547,
			"0.011": 3.38681894755,
			"0.012": 4.5729016126,
			"0.013": 2.4785497498,
			"0.014": 0.198620329429,
			"0.015": 0.0,
			"0.016": 0.0,
			"0.017": 0.0,
			"0.018": 0.0,
			"0.019": 0.0,
			"0.02": 0.0,
			"0.021": 0.0,
			"0.022": 0.0,
			"0.023": 0.0,
			"0.024": 0.0,
			"0.025": 0.0
		}
	}
}
