{
	 "smiles": "CC1=NC2=C(O1)C=C(C=C2)[N+]([O-])=O", 
	 "Tm": 428.15, 
	 "num_atms": 19, 
	 "gaussian": { 
		 "optdone": 1, 
		 "sigma_profile": "yes", 
		 "theory": "DFT", 
		 "functional": "B3LYP", 
		 "basiset": "6-31G**", 
		 "properties": { 
			 "R2extent": 4004.2946, 
			 "electric_dipole_moment_norm": 4.94317205952, 
			 "electric_quadrupole_moment_norm": 14.3424745187, 
			 "total_energy": -643.547729074, 
			 "HOMO_LUMO_gap": 0.17181, 
			 "cosmo_polarized_energy": -10.03, 
			 "cosmo_cavitation_energy": 24.59, 
			 "cosmo_dispersion_energy": -18.49, 
			 "cosmo_repulsion_energy": 1.45, 
			 "cosmo_total_nonelectrostatic_energy": 7.55, 
			 "SMD_solvation_energy": 5.04 
		},
		"coords": [
			{
				"x": 3.0864924894,
				"y": 5.1937827019,
				"z": -1.702103538,
				"element": "C" 
			},
			{
				"x": 2.2593710713,
				"y": 3.9842685675,
				"z": -1.4603903357,
				"element": "C" 
			},
			{
				"x": 1.0247178012,
				"y": 3.7767443141,
				"z": -1.7989280709,
				"element": "N" 
			},
			{
				"x": 0.7473123235,
				"y": 2.4939547215,
				"z": -1.3340575107,
				"element": "C" 
			},
			{
				"x": 1.8974592903,
				"y": 1.9821949448,
				"z": -0.7101714883,
				"element": "C" 
			},
			{
				"x": 2.870614607,
				"y": 2.9449284615,
				"z": -0.793024524,
				"element": "O" 
			},
			{
				"x": 1.9754979783,
				"y": 0.7290595854,
				"z": -0.1347619487,
				"element": "C" 
			},
			{
				"x": 0.7965993989,
				"y": -0.0165918217,
				"z": -0.2184892586,
				"element": "C" 
			},
			{
				"x": -0.3778487097,
				"y": 0.4504993609,
				"z": -0.831243902,
				"element": "C" 
			},
			{
				"x": -0.4154653493,
				"y": 1.7198403585,
				"z": -1.3996950963,
				"element": "C" 
			},
			{
				"x": 0.7928873205,
				"y": -1.3636194446,
				"z": 0.3695813399,
				"element": "N" 
			},
			{
				"x": -0.2460315416,
				"y": -2.0193732286,
				"z": 0.2953320405,
				"element": "O" 
			},
			{
				"x": 1.8315556193,
				"y": -1.7561454638,
				"z": 0.9024441295,
				"element": "O" 
			},
			{
				"x": 3.4348627555,
				"y": 5.6181426391,
				"z": -0.7549011174,
				"element": "H" 
			},
			{
				"x": 2.4891859418,
				"y": 5.9341942959,
				"z": -2.2337085187,
				"element": "H" 
			},
			{
				"x": 3.9708765232,
				"y": 4.9434164692,
				"z": -2.296933317,
				"element": "H" 
			},
			{
				"x": 2.8594157974,
				"y": 0.3325280592,
				"z": 0.3461195112,
				"element": "H" 
			},
			{
				"x": -1.2421931094,
				"y": -0.2008034184,
				"z": -0.846819734,
				"element": "H" 
			},
			{
				"x": -1.3114102073,
				"y": 2.0996788976,
				"z": -1.8774486608,
				"element": "H" 
			}
		],
		 "valence_orbital": [ 
			{
				"type": "occ",
				"energy": -0.30921,
				"method": "rhf"
			},
			{
				"type": "occ",
				"energy": -0.30728,
				"method": "rhf"
			},
			{
				"type": "occ",
				"energy": -0.29022,
				"method": "rhf"
			},
			{
				"type": "occ",
				"energy": -0.27209,
				"method": "rhf"
			},
			{
				"type": "occ",
				"energy": -0.26296,
				"method": "rhf"
			},
			{
				"type": "unocc",
				"energy": -0.09115,
				"method": "rhf"
			},
			{
				"type": "unocc",
				"energy": -0.0354,
				"method": "rhf"
			},
			{
				"type": "unocc",
				"energy": -0.00929,
				"method": "rhf"
			},
			{
				"type": "unocc",
				"energy": 0.02893,
				"method": "rhf"
			},
			{
				"type": "unocc",
				"energy": 0.0807,
				"method": "rhf"
			}
		],
		"cosmo_sigma_profile": { 
			"-0.025": 0.0,
			"-0.024": 0.0,
			"-0.023": 0.0,
			"-0.022": 0.0,
			"-0.021": 0.0,
			"-0.02": 0.0,
			"-0.019": 0.0,
			"-0.018": 0.0,
			"-0.017": 0.0,
			"-0.016": 0.0,
			"-0.015": 0.0,
			"-0.014": 0.0,
			"-0.013": 0.0,
			"-0.012": 0.0,
			"-0.011": 0.0,
			"-0.01": 0.0581705841348,
			"-0.009": 0.805954940216,
			"-0.008": 3.78304340707,
			"-0.007": 9.31561598929,
			"-0.006": 12.4982730426,
			"-0.005": 13.7461727186,
			"-0.004": 14.3093051631,
			"-0.003": 16.7994253372,
			"-0.002": 16.8566761376,
			"-0.001": 19.5281827992,
			"0.0": 16.7639591485,
			"0.001": 12.3883708389,
			"0.002": 7.78092195635,
			"0.003": 5.12371457212,
			"0.004": 5.32166557705,
			"0.005": 6.04997460035,
			"0.006": 6.00055113503,
			"0.007": 8.65497814645,
			"0.008": 8.98738860718,
			"0.009": 5.19780372621,
			"0.01": 3.55665554843,
			"0.011": 1.55185624475,
			"0.012": 1.06044141117,
			"0.013": 0.508743239283,
			"0.014": 1.03217392346,
			"0.015": 0.55395997024,
			"0.016": 0.0122796655125,
			"0.017": 0.0,
			"0.018": 0.0,
			"0.019": 0.0,
			"0.02": 0.0,
			"0.021": 0.0,
			"0.022": 0.0,
			"0.023": 0.0,
			"0.024": 0.0,
			"0.025": 0.0
		}
	}
}
