{
	 "smiles": "OC(=O)C1=NC=CN2C=CN=C12", 
	 "Tm": 441.15, 
	 "num_atms": 17, 
	 "gaussian": { 
		 "optdone": 1, 
		 "sigma_profile": "yes", 
		 "theory": "DFT", 
		 "functional": "B3LYP", 
		 "basiset": "6-31G**", 
		 "properties": { 
			 "R2extent": 2250.0551, 
			 "electric_dipole_moment_norm": 8.04230695945, 
			 "electric_quadrupole_moment_norm": 8.38783826442, 
			 "total_energy": -584.447259464, 
			 "HOMO_LUMO_gap": 0.16192, 
			 "cosmo_polarized_energy": -21.45, 
			 "cosmo_cavitation_energy": 22.18, 
			 "cosmo_dispersion_energy": -16.83, 
			 "cosmo_repulsion_energy": 1.31, 
			 "cosmo_total_nonelectrostatic_energy": 6.66, 
			 "SMD_solvation_energy": 3.81 
		},
		"coords": [
			{
				"x": -3.1006642089,
				"y": -0.8189360154,
				"z": 1.7106251085,
				"element": "O" 
			},
			{
				"x": -1.8838564725,
				"y": -0.9272889036,
				"z": 1.1496619646,
				"element": "C" 
			},
			{
				"x": -1.4857827535,
				"y": -1.9339662677,
				"z": 0.6192062089,
				"element": "O" 
			},
			{
				"x": -1.0787464964,
				"y": 0.3545351867,
				"z": 1.2619085753,
				"element": "C" 
			},
			{
				"x": -1.6888538653,
				"y": 1.3522399462,
				"z": 1.8794888953,
				"element": "N" 
			},
			{
				"x": -1.0491951378,
				"y": 2.5443339058,
				"z": 2.0307051327,
				"element": "C" 
			},
			{
				"x": 0.2170072162,
				"y": 2.7690793921,
				"z": 1.5681337187,
				"element": "C" 
			},
			{
				"x": 0.8610325482,
				"y": 1.7434006757,
				"z": 0.9260301548,
				"element": "N" 
			},
			{
				"x": 2.1028723366,
				"y": 1.6482676455,
				"z": 0.3597694371,
				"element": "C" 
			},
			{
				"x": 2.1790769523,
				"y": 0.3548514689,
				"z": -0.1344991164,
				"element": "C" 
			},
			{
				"x": 1.0458230152,
				"y": -0.3540158179,
				"z": 0.0982713429,
				"element": "N" 
			},
			{
				"x": 0.2375048582,
				"y": 0.4793642433,
				"z": 0.7421882936,
				"element": "C" 
			},
			{
				"x": -3.1613170006,
				"y": 0.0939650715,
				"z": 2.0628414543,
				"element": "H" 
			},
			{
				"x": -1.5905639668,
				"y": 3.3315415419,
				"z": 2.5436790718,
				"element": "H" 
			},
			{
				"x": 0.7462551196,
				"y": 3.707745813,
				"z": 1.6762192013,
				"element": "H" 
			},
			{
				"x": 2.7986435342,
				"y": 2.4726964923,
				"z": 0.3557742205,
				"element": "H" 
			},
			{
				"x": 3.0191643212,
				"y": -0.088414378,
				"z": -0.6528036638,
				"element": "H" 
			}
		],
		 "valence_orbital": [ 
			{
				"type": "occ",
				"energy": -0.30524,
				"method": "rhf"
			},
			{
				"type": "occ",
				"energy": -0.29509,
				"method": "rhf"
			},
			{
				"type": "occ",
				"energy": -0.27398,
				"method": "rhf"
			},
			{
				"type": "occ",
				"energy": -0.25824,
				"method": "rhf"
			},
			{
				"type": "occ",
				"energy": -0.24959,
				"method": "rhf"
			},
			{
				"type": "unocc",
				"energy": -0.08767,
				"method": "rhf"
			},
			{
				"type": "unocc",
				"energy": -0.03203,
				"method": "rhf"
			},
			{
				"type": "unocc",
				"energy": 0.03403,
				"method": "rhf"
			},
			{
				"type": "unocc",
				"energy": 0.04342,
				"method": "rhf"
			},
			{
				"type": "unocc",
				"energy": 0.07525,
				"method": "rhf"
			}
		],
		"cosmo_sigma_profile": { 
			"-0.025": 0.0,
			"-0.024": 0.0,
			"-0.023": 0.0,
			"-0.022": 0.0,
			"-0.021": 0.0,
			"-0.02": 0.0,
			"-0.019": 0.0,
			"-0.018": 0.0,
			"-0.017": 0.0,
			"-0.016": 0.0,
			"-0.015": 0.0,
			"-0.014": 0.0,
			"-0.013": 0.206164206726,
			"-0.012": 1.56322208121,
			"-0.011": 4.37048448206,
			"-0.01": 4.71637247643,
			"-0.009": 5.62598670771,
			"-0.008": 8.17212943376,
			"-0.007": 7.17071152437,
			"-0.006": 6.96436480913,
			"-0.005": 10.9505873757,
			"-0.004": 12.5767041633,
			"-0.003": 13.0976592067,
			"-0.002": 11.6975846884,
			"-0.001": 10.4169274777,
			"0.0": 10.9299128888,
			"0.001": 8.82829850619,
			"0.002": 9.02131839604,
			"0.003": 5.65305096688,
			"0.004": 4.3822834082,
			"0.005": 3.29178707618,
			"0.006": 3.5409650907,
			"0.007": 3.5692743845,
			"0.008": 3.67253207993,
			"0.009": 4.1579441757,
			"0.01": 6.15011821182,
			"0.011": 5.23059538104,
			"0.012": 4.85823232874,
			"0.013": 2.6809235546,
			"0.014": 1.39078787926,
			"0.015": 1.55790080652,
			"0.016": 0.996105836777,
			"0.017": 1.60544778316,
			"0.018": 0.759953610991,
			"0.019": 0.0163839798919,
			"0.02": 0.0,
			"0.021": 0.0,
			"0.022": 0.0,
			"0.023": 0.0,
			"0.024": 0.0,
			"0.025": 0.0
		}
	}
}
