{
	 "smiles": "NC(=S)C1=C(Cl)C=CC=C1", 
	 "Tm": 342.15, 
	 "num_atms": 16, 
	 "gaussian": { 
		 "optdone": 1, 
		 "sigma_profile": "yes", 
		 "theory": "DFT", 
		 "functional": "B3LYP", 
		 "basiset": "6-31G**", 
		 "properties": { 
			 "R2extent": 1949.8296, 
			 "electric_dipole_moment_norm": 4.0227952098, 
			 "electric_quadrupole_moment_norm": 11.4979931845, 
			 "total_energy": -1183.49641907, 
			 "HOMO_LUMO_gap": 0.14972, 
			 "cosmo_polarized_energy": -13.07, 
			 "cosmo_cavitation_energy": 23.42, 
			 "cosmo_dispersion_energy": -17.88, 
			 "cosmo_repulsion_energy": 1.41, 
			 "cosmo_total_nonelectrostatic_energy": 6.95, 
			 "SMD_solvation_energy": 2.86 
		},
		"coords": [
			{
				"x": -1.8092617756,
				"y": 1.3069815479,
				"z": 0.4004984535,
				"element": "N" 
			},
			{
				"x": -1.4055025885,
				"y": 0.0944422155,
				"z": -0.0218316096,
				"element": "C" 
			},
			{
				"x": -2.4741464025,
				"y": -1.0201503925,
				"z": -0.6528089226,
				"element": "S" 
			},
			{
				"x": 0.050403928,
				"y": -0.2163092208,
				"z": 0.1519309473,
				"element": "C" 
			},
			{
				"x": 1.1117075556,
				"y": 0.6397552344,
				"z": -0.1988276285,
				"element": "C" 
			},
			{
				"x": 0.8391833131,
				"y": 2.2135038295,
				"z": -0.9563792035,
				"element": "Cl" 
			},
			{
				"x": 2.443876016,
				"y": 0.2669123404,
				"z": -0.011390088,
				"element": "C" 
			},
			{
				"x": 2.7458272944,
				"y": -0.9707996483,
				"z": 0.5502150215,
				"element": "C" 
			},
			{
				"x": 1.7140244133,
				"y": -1.840992472,
				"z": 0.9060844373,
				"element": "C" 
			},
			{
				"x": 0.3916974709,
				"y": -1.4679215069,
				"z": 0.6970520244,
				"element": "C" 
			},
			{
				"x": -2.7710158671,
				"y": 1.5715282017,
				"z": 0.2424496383,
				"element": "H" 
			},
			{
				"x": -1.1565026108,
				"y": 2.0102591363,
				"z": 0.7130065441,
				"element": "H" 
			},
			{
				"x": 3.2316159634,
				"y": 0.9479572171,
				"z": -0.3132285779,
				"element": "H" 
			},
			{
				"x": 3.7836177468,
				"y": -1.2528727128,
				"z": 0.6992119429,
				"element": "H" 
			},
			{
				"x": 1.937760005,
				"y": -2.8109030051,
				"z": 1.3387270408,
				"element": "H" 
			},
			{
				"x": -0.4188844621,
				"y": -2.1426907643,
				"z": 0.9480899799,
				"element": "H" 
			}
		],
		 "valence_orbital": [ 
			{
				"type": "occ",
				"energy": -0.32555,
				"method": "rhf"
			},
			{
				"type": "occ",
				"energy": -0.27613,
				"method": "rhf"
			},
			{
				"type": "occ",
				"energy": -0.26058,
				"method": "rhf"
			},
			{
				"type": "occ",
				"energy": -0.23287,
				"method": "rhf"
			},
			{
				"type": "occ",
				"energy": -0.21066,
				"method": "rhf"
			},
			{
				"type": "unocc",
				"energy": -0.06094,
				"method": "rhf"
			},
			{
				"type": "unocc",
				"energy": -0.02392,
				"method": "rhf"
			},
			{
				"type": "unocc",
				"energy": 0.00071,
				"method": "rhf"
			},
			{
				"type": "unocc",
				"energy": 0.01512,
				"method": "rhf"
			},
			{
				"type": "unocc",
				"energy": 0.078,
				"method": "rhf"
			}
		],
		"cosmo_sigma_profile": { 
			"-0.025": 0.0,
			"-0.024": 0.0,
			"-0.023": 0.0,
			"-0.022": 0.0,
			"-0.021": 0.0,
			"-0.02": 0.0,
			"-0.019": 0.0,
			"-0.018": 0.0,
			"-0.017": 0.0,
			"-0.016": 0.0718339412609,
			"-0.015": 1.3878030374,
			"-0.014": 1.85743764863,
			"-0.013": 3.12168036431,
			"-0.012": 2.08052767777,
			"-0.011": 2.03207557505,
			"-0.01": 1.60905038541,
			"-0.009": 1.94579559248,
			"-0.008": 2.142551852,
			"-0.007": 7.74070045059,
			"-0.006": 9.28877016893,
			"-0.005": 10.0373607552,
			"-0.004": 7.52576389952,
			"-0.003": 8.59213259963,
			"-0.002": 9.1930226235,
			"-0.001": 11.0600820058,
			"0.0": 14.3477736816,
			"0.001": 15.386881736,
			"0.002": 18.1924177059,
			"0.003": 19.7851897019,
			"0.004": 10.6044658898,
			"0.005": 5.2766076404,
			"0.006": 3.96040894503,
			"0.007": 5.09681002607,
			"0.008": 6.29281282045,
			"0.009": 5.84241217055,
			"0.01": 4.20247659056,
			"0.011": 2.92906662905,
			"0.012": 1.1143708173,
			"0.013": 0.0,
			"0.014": 0.0,
			"0.015": 0.0,
			"0.016": 0.0,
			"0.017": 0.0,
			"0.018": 0.0,
			"0.019": 0.0,
			"0.02": 0.0,
			"0.021": 0.0,
			"0.022": 0.0,
			"0.023": 0.0,
			"0.024": 0.0,
			"0.025": 0.0
		}
	}
}
