{
	 "smiles": "O=C1C2=CC=CC=C2C(=O)C2=CC3=C(C=CC=C3)C=C12", 
	 "Tm": 564.15, 
	 "num_atms": 30, 
	 "gaussian": { 
		 "optdone": 1, 
		 "sigma_profile": "yes", 
		 "theory": "DFT", 
		 "functional": "B3LYP", 
		 "basiset": "6-31G**", 
		 "properties": { 
			 "R2extent": 6524.1059, 
			 "electric_dipole_moment_norm": 1.10875993795, 
			 "electric_quadrupole_moment_norm": 27.6896470745, 
			 "total_energy": -842.422340101, 
			 "HOMO_LUMO_gap": 0.13504, 
			 "cosmo_polarized_energy": -10.97, 
			 "cosmo_cavitation_energy": 34.39, 
			 "cosmo_dispersion_energy": -25.52, 
			 "cosmo_repulsion_energy": 1.85, 
			 "cosmo_total_nonelectrostatic_energy": 10.73, 
			 "SMD_solvation_energy": 6.04 
		},
		"coords": [
			{
				"x": 0.0615469513,
				"y": -0.3532537522,
				"z": 2.108078619,
				"element": "O" 
			},
			{
				"x": -0.2978716717,
				"y": -0.5662301373,
				"z": 0.9539741382,
				"element": "C" 
			},
			{
				"x": -1.7211513395,
				"y": -0.8827628888,
				"z": 0.6350131655,
				"element": "C" 
			},
			{
				"x": -2.6515915489,
				"y": -0.9340869181,
				"z": 1.6804445703,
				"element": "C" 
			},
			{
				"x": -3.9865882008,
				"y": -1.2265824803,
				"z": 1.4164533706,
				"element": "C" 
			},
			{
				"x": -4.405476366,
				"y": -1.471110077,
				"z": 0.1026687737,
				"element": "C" 
			},
			{
				"x": -3.488059121,
				"y": -1.4223579067,
				"z": -0.9429991999,
				"element": "C" 
			},
			{
				"x": -2.1427732497,
				"y": -1.1288809034,
				"z": -0.6873471567,
				"element": "C" 
			},
			{
				"x": -1.1862454547,
				"y": -1.0848517183,
				"z": -1.8322380711,
				"element": "C" 
			},
			{
				"x": -1.5611629657,
				"y": -1.3001651526,
				"z": -2.9809654307,
				"element": "O" 
			},
			{
				"x": 0.2368075636,
				"y": -0.7697294902,
				"z": -1.5234889198,
				"element": "C" 
			},
			{
				"x": 1.1514244647,
				"y": -0.7200917179,
				"z": -2.5568153975,
				"element": "C" 
			},
			{
				"x": 2.5161155907,
				"y": -0.4251048878,
				"z": -2.3178851226,
				"element": "C" 
			},
			{
				"x": 2.9456325639,
				"y": -0.1744396702,
				"z": -0.9707878328,
				"element": "C" 
			},
			{
				"x": 4.3139001,
				"y": 0.1215956375,
				"z": -0.7285415989,
				"element": "C" 
			},
			{
				"x": 5.2157798396,
				"y": 0.1678930427,
				"z": -1.7682151602,
				"element": "C" 
			},
			{
				"x": 4.7918097542,
				"y": -0.0795060796,
				"z": -3.0979004731,
				"element": "C" 
			},
			{
				"x": 3.4726688226,
				"y": -0.3693017574,
				"z": -3.3668695786,
				"element": "C" 
			},
			{
				"x": 1.9900398866,
				"y": -0.2306522592,
				"z": 0.0733215389,
				"element": "C" 
			},
			{
				"x": 0.6643520638,
				"y": -0.5201795211,
				"z": -0.1825635717,
				"element": "C" 
			},
			{
				"x": -2.3000209999,
				"y": -0.7406184365,
				"z": 2.6882672801,
				"element": "H" 
			},
			{
				"x": -4.7039986658,
				"y": -1.2650885878,
				"z": 2.2310100059,
				"element": "H" 
			},
			{
				"x": -5.4476187562,
				"y": -1.699192524,
				"z": -0.1012410193,
				"element": "H" 
			},
			{
				"x": -3.7851797678,
				"y": -1.6076123442,
				"z": -1.9697112171,
				"element": "H" 
			},
			{
				"x": 0.8010353659,
				"y": -0.9135057271,
				"z": -3.5663146932,
				"element": "H" 
			},
			{
				"x": 4.6357317188,
				"y": 0.31076299,
				"z": 0.2918211131,
				"element": "H" 
			},
			{
				"x": 6.2596102062,
				"y": 0.3950303396,
				"z": -1.5728607384,
				"element": "H" 
			},
			{
				"x": 5.5154906912,
				"y": -0.0391777156,
				"z": -3.9066017124,
				"element": "H" 
			},
			{
				"x": 3.144509638,
				"y": -0.5594283808,
				"z": -4.385037715,
				"element": "H" 
			},
			{
				"x": 2.2890828864,
				"y": -0.0449709759,
				"z": 1.1006320336,
				"element": "H" 
			}
		],
		 "valence_orbital": [ 
			{
				"type": "occ",
				"energy": -0.26508,
				"method": "rhf"
			},
			{
				"type": "occ",
				"energy": -0.26443,
				"method": "rhf"
			},
			{
				"type": "occ",
				"energy": -0.25887,
				"method": "rhf"
			},
			{
				"type": "occ",
				"energy": -0.25358,
				"method": "rhf"
			},
			{
				"type": "occ",
				"energy": -0.23155,
				"method": "rhf"
			},
			{
				"type": "unocc",
				"energy": -0.09651,
				"method": "rhf"
			},
			{
				"type": "unocc",
				"energy": -0.07426,
				"method": "rhf"
			},
			{
				"type": "unocc",
				"energy": -0.02707,
				"method": "rhf"
			},
			{
				"type": "unocc",
				"energy": -0.02401,
				"method": "rhf"
			},
			{
				"type": "unocc",
				"energy": 0.01409,
				"method": "rhf"
			}
		],
		"cosmo_sigma_profile": { 
			"-0.025": 0.0,
			"-0.024": 0.0,
			"-0.023": 0.0,
			"-0.022": 0.0,
			"-0.021": 0.0,
			"-0.02": 0.0,
			"-0.019": 0.0,
			"-0.018": 0.0,
			"-0.017": 0.0,
			"-0.016": 0.0,
			"-0.015": 0.0,
			"-0.014": 0.0,
			"-0.013": 0.0,
			"-0.012": 0.0,
			"-0.011": 0.0,
			"-0.01": 0.0,
			"-0.009": 0.0,
			"-0.008": 0.676916197135,
			"-0.007": 12.4127036885,
			"-0.006": 19.6069571084,
			"-0.005": 21.4032418087,
			"-0.004": 17.1627884658,
			"-0.003": 17.6487850867,
			"-0.002": 16.4968197842,
			"-0.001": 16.6511192691,
			"0.0": 23.2854845131,
			"0.001": 38.4142087426,
			"0.002": 35.2988952655,
			"0.003": 18.8088358346,
			"0.004": 7.61060351836,
			"0.005": 4.42419694108,
			"0.006": 2.6565853848,
			"0.007": 2.85499377494,
			"0.008": 3.08457902114,
			"0.009": 4.11687093184,
			"0.01": 4.58871578651,
			"0.011": 6.94377887998,
			"0.012": 4.29572328089,
			"0.013": 0.0,
			"0.014": 0.0,
			"0.015": 0.0,
			"0.016": 0.0,
			"0.017": 0.0,
			"0.018": 0.0,
			"0.019": 0.0,
			"0.02": 0.0,
			"0.021": 0.0,
			"0.022": 0.0,
			"0.023": 0.0,
			"0.024": 0.0,
			"0.025": 0.0
		}
	}
}
