{
	 "smiles": "CC(N)C1=CC=C(C=C1)N1CCOCC1", 
	 "Tm": 335.15, 
	 "num_atms": 33, 
	 "gaussian": { 
		 "optdone": 1, 
		 "sigma_profile": "yes", 
		 "theory": "DFT", 
		 "functional": "B3LYP", 
		 "basiset": "6-31G**", 
		 "properties": { 
			 "R2extent": 5857.0494, 
			 "electric_dipole_moment_norm": 1.6256919819, 
			 "electric_quadrupole_moment_norm": 18.8855058751, 
			 "total_energy": -652.827012565, 
			 "HOMO_LUMO_gap": 0.18846, 
			 "cosmo_polarized_energy": -11.12, 
			 "cosmo_cavitation_energy": 33.71, 
			 "cosmo_dispersion_energy": -24.73, 
			 "cosmo_repulsion_energy": 1.95, 
			 "cosmo_total_nonelectrostatic_energy": 10.92, 
			 "SMD_solvation_energy": 3.43 
		},
		"coords": [
			{
				"x": -0.5774420744,
				"y": -4.2842702857,
				"z": 1.8564318506,
				"element": "C" 
			},
			{
				"x": 0.6235388057,
				"y": -3.6175270567,
				"z": 1.1708995562,
				"element": "C" 
			},
			{
				"x": 1.8588018734,
				"y": -4.2254814698,
				"z": 1.6985306723,
				"element": "N" 
			},
			{
				"x": 0.5614677531,
				"y": -2.0946319821,
				"z": 1.2602204352,
				"element": "C" 
			},
			{
				"x": 0.7211967751,
				"y": -1.4169683051,
				"z": 2.4767102975,
				"element": "C" 
			},
			{
				"x": 0.6569679958,
				"y": -0.0303374936,
				"z": 2.5631684364,
				"element": "C" 
			},
			{
				"x": 0.4350424226,
				"y": 0.7588541045,
				"z": 1.4116351673,
				"element": "C" 
			},
			{
				"x": 0.2798118727,
				"y": 0.0814397742,
				"z": 0.1837722559,
				"element": "C" 
			},
			{
				"x": 0.3394112515,
				"y": -1.3095305203,
				"z": 0.1243734029,
				"element": "C" 
			},
			{
				"x": 0.3734185917,
				"y": 2.1445122387,
				"z": 1.4878788947,
				"element": "N" 
			},
			{
				"x": 0.8390681947,
				"y": 2.8712161444,
				"z": 2.6624766332,
				"element": "C" 
			},
			{
				"x": 1.2933121893,
				"y": 4.2728145496,
				"z": 2.2585383581,
				"element": "C" 
			},
			{
				"x": 0.2705585374,
				"y": 5.0404074972,
				"z": 1.6331868797,
				"element": "O" 
			},
			{
				"x": -0.6920906345,
				"y": 4.2683860648,
				"z": 0.9225718564,
				"element": "C" 
			},
			{
				"x": -0.1374399094,
				"y": 2.9499592045,
				"z": 0.3862870238,
				"element": "C" 
			},
			{
				"x": -1.5191514431,
				"y": -3.9300639058,
				"z": 1.4275086413,
				"element": "H" 
			},
			{
				"x": -0.5940822717,
				"y": -4.0505072233,
				"z": 2.9279467507,
				"element": "H" 
			},
			{
				"x": -0.5192904387,
				"y": -5.3710136017,
				"z": 1.7459273189,
				"element": "H" 
			},
			{
				"x": 0.5842832937,
				"y": -3.8790712716,
				"z": 0.1048555355,
				"element": "H" 
			},
			{
				"x": 2.6649602425,
				"y": -3.7420779164,
				"z": 1.3071515153,
				"element": "H" 
			},
			{
				"x": 1.9078882092,
				"y": -4.0738016413,
				"z": 2.7047918421,
				"element": "H" 
			},
			{
				"x": 0.8933335677,
				"y": -1.982121148,
				"z": 3.3907186944,
				"element": "H" 
			},
			{
				"x": 0.7545769114,
				"y": 0.4393982706,
				"z": 3.5355343005,
				"element": "H" 
			},
			{
				"x": 0.1408266234,
				"y": 0.6397605105,
				"z": -0.7351543892,
				"element": "H" 
			},
			{
				"x": 0.2202258698,
				"y": -1.7952506269,
				"z": -0.8422853386,
				"element": "H" 
			},
			{
				"x": 0.0651978255,
				"y": 2.9391975866,
				"z": 3.4448965466,
				"element": "H" 
			},
			{
				"x": 1.6975197395,
				"y": 2.3499054973,
				"z": 3.1014497578,
				"element": "H" 
			},
			{
				"x": 1.6113489466,
				"y": 4.8295668945,
				"z": 3.1463807873,
				"element": "H" 
			},
			{
				"x": 2.1624480568,
				"y": 4.1852216797,
				"z": 1.5880057087,
				"element": "H" 
			},
			{
				"x": -1.046234591,
				"y": 4.8868928353,
				"z": 0.0910058771,
				"element": "H" 
			},
			{
				"x": -1.5546898338,
				"y": 4.0528361675,
				"z": 1.5721130836,
				"element": "H" 
			},
			{
				"x": -0.9547633767,
				"y": 2.4151895397,
				"z": -0.1110558834,
				"element": "H" 
			},
			{
				"x": 0.6322790243,
				"y": 3.1495958887,
				"z": -0.3777724687,
				"element": "H" 
			}
		],
		 "valence_orbital": [ 
			{
				"type": "occ",
				"energy": -0.27837,
				"method": "rhf"
			},
			{
				"type": "occ",
				"energy": -0.25289,
				"method": "rhf"
			},
			{
				"type": "occ",
				"energy": -0.24342,
				"method": "rhf"
			},
			{
				"type": "occ",
				"energy": -0.23059,
				"method": "rhf"
			},
			{
				"type": "occ",
				"energy": -0.18452,
				"method": "rhf"
			},
			{
				"type": "unocc",
				"energy": 0.00394,
				"method": "rhf"
			},
			{
				"type": "unocc",
				"energy": 0.02011,
				"method": "rhf"
			},
			{
				"type": "unocc",
				"energy": 0.07811,
				"method": "rhf"
			},
			{
				"type": "unocc",
				"energy": 0.08626,
				"method": "rhf"
			},
			{
				"type": "unocc",
				"energy": 0.10712,
				"method": "rhf"
			}
		],
		"cosmo_sigma_profile": { 
			"-0.025": 0.0,
			"-0.024": 0.0,
			"-0.023": 0.0,
			"-0.022": 0.0,
			"-0.021": 0.0,
			"-0.02": 0.0,
			"-0.019": 0.0,
			"-0.018": 0.0,
			"-0.017": 0.0,
			"-0.016": 0.0,
			"-0.015": 0.0,
			"-0.014": 0.0,
			"-0.013": 0.0,
			"-0.012": 0.0,
			"-0.011": 0.0,
			"-0.01": 0.0610016636372,
			"-0.009": 1.82369996388,
			"-0.008": 2.80979894774,
			"-0.007": 3.2913852925,
			"-0.006": 5.24924611423,
			"-0.005": 20.1717791562,
			"-0.004": 30.5191907126,
			"-0.003": 39.977375355,
			"-0.002": 25.1994081197,
			"-0.001": 21.2381785134,
			"0.0": 16.6067697877,
			"0.001": 16.5314236666,
			"0.002": 12.4586906278,
			"0.003": 10.0560969441,
			"0.004": 9.84716056749,
			"0.005": 8.36746207725,
			"0.006": 9.0024193378,
			"0.007": 9.38422873481,
			"0.008": 5.03036100053,
			"0.009": 2.17104693349,
			"0.01": 1.96750393974,
			"0.011": 1.79961852661,
			"0.012": 2.16378631866,
			"0.013": 2.30735394799,
			"0.014": 1.35763751109,
			"0.015": 0.619057867341,
			"0.016": 0.463096969402,
			"0.017": 0.75876312915,
			"0.018": 0.717933981266,
			"0.019": 0.455265814283,
			"0.02": 0.373465029066,
			"0.021": 0.0,
			"0.022": 0.0,
			"0.023": 0.0,
			"0.024": 0.0,
			"0.025": 0.0
		}
	}
}
