{
	 "smiles": "CCP(=O)(CC)CC", 
	 "Tm": 325.65, 
	 "num_atms": 23, 
	 "gaussian": { 
		 "optdone": 1, 
		 "sigma_profile": "yes", 
		 "theory": "DFT", 
		 "functional": "B3LYP", 
		 "basiset": "6-31G**", 
		 "properties": { 
			 "R2extent": 1959.8994, 
			 "electric_dipole_moment_norm": 4.26555234524, 
			 "electric_quadrupole_moment_norm": 18.3586712618, 
			 "total_energy": -654.298612552, 
			 "HOMO_LUMO_gap": 0.30086, 
			 "cosmo_polarized_energy": -13.91, 
			 "cosmo_cavitation_energy": 25.41, 
			 "cosmo_dispersion_energy": -18.0, 
			 "cosmo_repulsion_energy": 1.46, 
			 "cosmo_total_nonelectrostatic_energy": 8.86, 
			 "SMD_solvation_energy": 5.58 
		},
		"coords": [
			{
				"x": -0.727900673,
				"y": 0.5378492927,
				"z": 2.6927100168,
				"element": "C" 
			},
			{
				"x": -0.5214790591,
				"y": -0.2830835402,
				"z": 1.4119619417,
				"element": "C" 
			},
			{
				"x": -2.0543857226,
				"y": -0.3953325258,
				"z": 0.3935911753,
				"element": "P" 
			},
			{
				"x": -3.2525294028,
				"y": -0.8698353124,
				"z": 1.172021424,
				"element": "O" 
			},
			{
				"x": -2.3349851587,
				"y": 1.2865591096,
				"z": -0.3142273602,
				"element": "C" 
			},
			{
				"x": -1.2431379881,
				"y": 1.9203531012,
				"z": -1.1863782546,
				"element": "C" 
			},
			{
				"x": -1.6472114148,
				"y": -1.5219799695,
				"z": -1.0165860532,
				"element": "C" 
			},
			{
				"x": -0.2098994773,
				"y": -1.5506171606,
				"z": -1.557768939,
				"element": "C" 
			},
			{
				"x": -1.5797862539,
				"y": 0.1549520214,
				"z": 3.2604912363,
				"element": "H" 
			},
			{
				"x": -0.9202293297,
				"y": 1.5923676689,
				"z": 2.4691219847,
				"element": "H" 
			},
			{
				"x": 0.1613893525,
				"y": 0.4925088292,
				"z": 3.3290902569,
				"element": "H" 
			},
			{
				"x": 0.3028580656,
				"y": 0.1189034498,
				"z": 0.8114242595,
				"element": "H" 
			},
			{
				"x": -0.2521683211,
				"y": -1.3149147906,
				"z": 1.6687478905,
				"element": "H" 
			},
			{
				"x": -2.5597775568,
				"y": 1.9262091312,
				"z": 0.5471203888,
				"element": "H" 
			},
			{
				"x": -3.2748168648,
				"y": 1.2018688367,
				"z": -0.8726701942,
				"element": "H" 
			},
			{
				"x": -0.2864227056,
				"y": 1.9950580466,
				"z": -0.659332385,
				"element": "H" 
			},
			{
				"x": -1.0760700734,
				"y": 1.3531229013,
				"z": -2.1066669797,
				"element": "H" 
			},
			{
				"x": -1.5321647868,
				"y": 2.9348565551,
				"z": -1.4796062404,
				"element": "H" 
			},
			{
				"x": -1.9302088353,
				"y": -2.5140087318,
				"z": -0.6461458326,
				"element": "H" 
			},
			{
				"x": -2.3602927059,
				"y": -1.2861580141,
				"z": -1.8161212828,
				"element": "H" 
			},
			{
				"x": -0.1331929651,
				"y": -2.2616173271,
				"z": -2.3868440272,
				"element": "H" 
			},
			{
				"x": 0.1166316108,
				"y": -0.5764423466,
				"z": -1.9316874182,
				"element": "H" 
			},
			{
				"x": 0.502480266,
				"y": -1.8680192249,
				"z": -0.7906456074,
				"element": "H" 
			}
		],
		 "valence_orbital": [ 
			{
				"type": "occ",
				"energy": -0.33319,
				"method": "rhf"
			},
			{
				"type": "occ",
				"energy": -0.32988,
				"method": "rhf"
			},
			{
				"type": "occ",
				"energy": -0.32605,
				"method": "rhf"
			},
			{
				"type": "occ",
				"energy": -0.24486,
				"method": "rhf"
			},
			{
				"type": "occ",
				"energy": -0.24343,
				"method": "rhf"
			},
			{
				"type": "unocc",
				"energy": 0.05743,
				"method": "rhf"
			},
			{
				"type": "unocc",
				"energy": 0.0722,
				"method": "rhf"
			},
			{
				"type": "unocc",
				"energy": 0.09153,
				"method": "rhf"
			},
			{
				"type": "unocc",
				"energy": 0.10248,
				"method": "rhf"
			},
			{
				"type": "unocc",
				"energy": 0.10995,
				"method": "rhf"
			}
		],
		"cosmo_sigma_profile": { 
			"-0.025": 0.0,
			"-0.024": 0.0,
			"-0.023": 0.0,
			"-0.022": 0.0,
			"-0.021": 0.0,
			"-0.02": 0.0,
			"-0.019": 0.0,
			"-0.018": 0.0,
			"-0.017": 0.0,
			"-0.016": 0.0,
			"-0.015": 0.0,
			"-0.014": 0.0,
			"-0.013": 0.0,
			"-0.012": 0.0,
			"-0.011": 0.0,
			"-0.01": 0.0,
			"-0.009": 0.0,
			"-0.008": 0.0,
			"-0.007": 0.0187420902475,
			"-0.006": 2.07457625192,
			"-0.005": 14.2231253866,
			"-0.004": 23.75960454,
			"-0.003": 31.5008077418,
			"-0.002": 28.39401644,
			"-0.001": 28.4687191909,
			"0.0": 23.9198522861,
			"0.001": 12.4328135767,
			"0.002": 2.04041952593,
			"0.003": 1.70175310261,
			"0.004": 1.47960631315,
			"0.005": 1.25425342618,
			"0.006": 1.24595528435,
			"0.007": 1.17075720991,
			"0.008": 1.5111154946,
			"0.009": 1.47920568836,
			"0.01": 1.35438475415,
			"0.011": 0.760437379558,
			"0.012": 1.01200828801,
			"0.013": 0.698732082355,
			"0.014": 1.16767926882,
			"0.015": 1.49928720847,
			"0.016": 2.14252591072,
			"0.017": 6.04133537189,
			"0.018": 3.61148046267,
			"0.019": 0.00301653600171,
			"0.02": 0.0,
			"0.021": 0.0,
			"0.022": 0.0,
			"0.023": 0.0,
			"0.024": 0.0,
			"0.025": 0.0
		}
	}
}
