{
	 "smiles": "CSC1=NC=CC(N)=C1", 
	 "Tm": 353.15, 
	 "num_atms": 17, 
	 "gaussian": { 
		 "optdone": 1, 
		 "sigma_profile": "yes", 
		 "theory": "DFT", 
		 "functional": "B3LYP", 
		 "basiset": "6-31G**", 
		 "properties": { 
			 "R2extent": 1944.9052, 
			 "electric_dipole_moment_norm": 3.02558830312, 
			 "electric_quadrupole_moment_norm": 12.3302742832, 
			 "total_energy": -741.155656264, 
			 "HOMO_LUMO_gap": 0.20483, 
			 "cosmo_polarized_energy": -11.54, 
			 "cosmo_cavitation_energy": 22.29, 
			 "cosmo_dispersion_energy": -17.23, 
			 "cosmo_repulsion_energy": 1.37, 
			 "cosmo_total_nonelectrostatic_energy": 6.43, 
			 "SMD_solvation_energy": 3.08 
		},
		"coords": [
			{
				"x": 1.071193,
				"y": 0.1045238074,
				"z": 3.8305223481,
				"element": "C" 
			},
			{
				"x": 1.5513944432,
				"y": 1.0218542865,
				"z": 2.329744482,
				"element": "S" 
			},
			{
				"x": 0.9960021404,
				"y": -0.0901512056,
				"z": 1.0462000484,
				"element": "C" 
			},
			{
				"x": 0.4113196039,
				"y": -1.2356479643,
				"z": 1.4060737715,
				"element": "N" 
			},
			{
				"x": 0.0082383701,
				"y": -2.0406957601,
				"z": 0.4088090553,
				"element": "C" 
			},
			{
				"x": 0.1581676134,
				"y": -1.7598700314,
				"z": -0.939258547,
				"element": "C" 
			},
			{
				"x": 0.7760349625,
				"y": -0.5466119763,
				"z": -1.3097712017,
				"element": "C" 
			},
			{
				"x": 0.9957128725,
				"y": -0.2352563154,
				"z": -2.6386595847,
				"element": "N" 
			},
			{
				"x": 1.2012083026,
				"y": 0.3032343387,
				"z": -0.2816468879,
				"element": "C" 
			},
			{
				"x": 1.5772537956,
				"y": -0.8601259701,
				"z": 3.8691052396,
				"element": "H" 
			},
			{
				"x": -0.007233647,
				"y": -0.0521058416,
				"z": 3.8567022247,
				"element": "H" 
			},
			{
				"x": 1.3826114792,
				"y": 0.7281845087,
				"z": 4.6713640631,
				"element": "H" 
			},
			{
				"x": -0.4675355477,
				"y": -2.9704068703,
				"z": 0.7168586318,
				"element": "H" 
			},
			{
				"x": -0.1883358604,
				"y": -2.460866947,
				"z": -1.6927983289,
				"element": "H" 
			},
			{
				"x": 1.1683056129,
				"y": 0.7352013331,
				"z": -2.856405274,
				"element": "H" 
			},
			{
				"x": 0.4140396394,
				"y": -0.7049707229,
				"z": -3.3166465466,
				"element": "H" 
			},
			{
				"x": 1.6848232195,
				"y": 1.2491113304,
				"z": -0.5090934935,
				"element": "H" 
			}
		],
		 "valence_orbital": [ 
			{
				"type": "occ",
				"energy": -0.31577,
				"method": "rhf"
			},
			{
				"type": "occ",
				"energy": -0.27946,
				"method": "rhf"
			},
			{
				"type": "occ",
				"energy": -0.25115,
				"method": "rhf"
			},
			{
				"type": "occ",
				"energy": -0.22634,
				"method": "rhf"
			},
			{
				"type": "occ",
				"energy": -0.2079,
				"method": "rhf"
			},
			{
				"type": "unocc",
				"energy": -0.00307,
				"method": "rhf"
			},
			{
				"type": "unocc",
				"energy": 0.00383,
				"method": "rhf"
			},
			{
				"type": "unocc",
				"energy": 0.04357,
				"method": "rhf"
			},
			{
				"type": "unocc",
				"energy": 0.07242,
				"method": "rhf"
			},
			{
				"type": "unocc",
				"energy": 0.0931,
				"method": "rhf"
			}
		],
		"cosmo_sigma_profile": { 
			"-0.025": 0.0,
			"-0.024": 0.0,
			"-0.023": 0.0,
			"-0.022": 0.0,
			"-0.021": 0.0,
			"-0.02": 0.0,
			"-0.019": 0.0,
			"-0.018": 0.0,
			"-0.017": 0.0,
			"-0.016": 0.0,
			"-0.015": 0.0,
			"-0.014": 0.145653451226,
			"-0.013": 2.53568293674,
			"-0.012": 2.93570398962,
			"-0.011": 3.18045279305,
			"-0.01": 3.26814891767,
			"-0.009": 3.13216268197,
			"-0.008": 2.74826876877,
			"-0.007": 4.76848690863,
			"-0.006": 8.27028768836,
			"-0.005": 9.51769895624,
			"-0.004": 11.0619130119,
			"-0.003": 9.98353732738,
			"-0.002": 10.8045951297,
			"-0.001": 11.3799080221,
			"0.0": 8.32586542499,
			"0.001": 7.84600013451,
			"0.002": 7.81038293412,
			"0.003": 11.9211980281,
			"0.004": 21.5514980496,
			"0.005": 9.7699995069,
			"0.006": 6.86273872573,
			"0.007": 5.42535949026,
			"0.008": 4.83356726756,
			"0.009": 4.59889871847,
			"0.01": 2.24649250437,
			"0.011": 1.6609279087,
			"0.012": 1.27290838612,
			"0.013": 0.767347981475,
			"0.014": 0.233653656679,
			"0.015": 0.0,
			"0.016": 0.0,
			"0.017": 0.0,
			"0.018": 0.0,
			"0.019": 0.0,
			"0.02": 0.0,
			"0.021": 0.0,
			"0.022": 0.0,
			"0.023": 0.0,
			"0.024": 0.0,
			"0.025": 0.0
		}
	}
}
