{
	 "smiles": "OC(=O)CC1=CC=CC=C1OC1=C(Cl)C=C(Cl)C=C1", 
	 "Tm": 385.15, 
	 "num_atms": 29, 
	 "gaussian": { 
		 "optdone": 1, 
		 "sigma_profile": "yes", 
		 "theory": "DFT", 
		 "functional": "B3LYP", 
		 "basiset": "6-31G**", 
		 "properties": { 
			 "R2extent": 7403.5004, 
			 "electric_dipole_moment_norm": 4.90929384841, 
			 "electric_quadrupole_moment_norm": 20.2495648729, 
			 "total_energy": -1685.57472641, 
			 "HOMO_LUMO_gap": 0.19537, 
			 "cosmo_polarized_energy": -14.74, 
			 "cosmo_cavitation_energy": 37.71, 
			 "cosmo_dispersion_energy": -26.01, 
			 "cosmo_repulsion_energy": 2.01, 
			 "cosmo_total_nonelectrostatic_energy": 13.71, 
			 "SMD_solvation_energy": 6.96 
		},
		"coords": [
			{
				"x": 0.9631373845,
				"y": -2.3830515128,
				"z": 1.8658753781,
				"element": "O" 
			},
			{
				"x": 2.1455363878,
				"y": -1.7413005361,
				"z": 2.0022594005,
				"element": "C" 
			},
			{
				"x": 2.8807107307,
				"y": -1.9791128032,
				"z": 2.9278955473,
				"element": "O" 
			},
			{
				"x": 2.4729309022,
				"y": -0.7158098613,
				"z": 0.9050307623,
				"element": "C" 
			},
			{
				"x": 1.5369125962,
				"y": 0.4767032649,
				"z": 0.8791244114,
				"element": "C" 
			},
			{
				"x": 1.9059892003,
				"y": 1.6939877083,
				"z": 1.4609073311,
				"element": "C" 
			},
			{
				"x": 1.0613824258,
				"y": 2.804626429,
				"z": 1.4299322838,
				"element": "C" 
			},
			{
				"x": -0.1813662933,
				"y": 2.7086078413,
				"z": 0.8069319549,
				"element": "C" 
			},
			{
				"x": -0.583800248,
				"y": 1.5055678271,
				"z": 0.2231458573,
				"element": "C" 
			},
			{
				"x": 0.2741487043,
				"y": 0.4107382622,
				"z": 0.2702057479,
				"element": "C" 
			},
			{
				"x": -0.0695694166,
				"y": -0.8410280772,
				"z": -0.2604536856,
				"element": "O" 
			},
			{
				"x": -1.1939422972,
				"y": -0.9769638955,
				"z": -1.0526689305,
				"element": "C" 
			},
			{
				"x": -1.1298681687,
				"y": -0.7503941858,
				"z": -2.4343103347,
				"element": "C" 
			},
			{
				"x": 0.3569404092,
				"y": -0.2085869024,
				"z": -3.168181811,
				"element": "Cl" 
			},
			{
				"x": -2.2502267897,
				"y": -0.9698672672,
				"z": -3.2358958705,
				"element": "C" 
			},
			{
				"x": -3.4299238846,
				"y": -1.4196584711,
				"z": -2.6437946825,
				"element": "C" 
			},
			{
				"x": -4.8355735278,
				"y": -1.6963803628,
				"z": -3.6521120623,
				"element": "Cl" 
			},
			{
				"x": -3.5084480597,
				"y": -1.6564183224,
				"z": -1.2713211919,
				"element": "C" 
			},
			{
				"x": -2.3827775159,
				"y": -1.4308543495,
				"z": -0.4819276071,
				"element": "C" 
			},
			{
				"x": 0.5062081184,
				"y": -2.0671591328,
				"z": 1.0658732298,
				"element": "H" 
			},
			{
				"x": 3.4940459139,
				"y": -0.3814607836,
				"z": 1.0906028089,
				"element": "H" 
			},
			{
				"x": 2.4504208412,
				"y": -1.2266113167,
				"z": -0.065134798,
				"element": "H" 
			},
			{
				"x": 2.8783318524,
				"y": 1.7658130325,
				"z": 1.9401343437,
				"element": "H" 
			},
			{
				"x": 1.3757880942,
				"y": 3.737751768,
				"z": 1.8863423737,
				"element": "H" 
			},
			{
				"x": -0.8470934343,
				"y": 3.5655463609,
				"z": 0.7722879793,
				"element": "H" 
			},
			{
				"x": -1.5519723249,
				"y": 1.4223766181,
				"z": -0.2571378803,
				"element": "H" 
			},
			{
				"x": -2.1961494817,
				"y": -0.7972637823,
				"z": -4.303718674,
				"element": "H" 
			},
			{
				"x": -4.4318279726,
				"y": -2.01155987,
				"z": -0.8291560004,
				"element": "H" 
			},
			{
				"x": -2.4116441462,
				"y": -1.6090376797,
				"z": 0.5881641185,
				"element": "H" 
			}
		],
		 "valence_orbital": [ 
			{
				"type": "occ",
				"energy": -0.28374,
				"method": "rhf"
			},
			{
				"type": "occ",
				"energy": -0.27724,
				"method": "rhf"
			},
			{
				"type": "occ",
				"energy": -0.26661,
				"method": "rhf"
			},
			{
				"type": "occ",
				"energy": -0.25655,
				"method": "rhf"
			},
			{
				"type": "occ",
				"energy": -0.24318,
				"method": "rhf"
			},
			{
				"type": "unocc",
				"energy": -0.04781,
				"method": "rhf"
			},
			{
				"type": "unocc",
				"energy": -0.04328,
				"method": "rhf"
			},
			{
				"type": "unocc",
				"energy": -0.02135,
				"method": "rhf"
			},
			{
				"type": "unocc",
				"energy": -0.01221,
				"method": "rhf"
			},
			{
				"type": "unocc",
				"energy": -0.01021,
				"method": "rhf"
			}
		],
		"cosmo_sigma_profile": { 
			"-0.025": 0.0,
			"-0.024": 0.0,
			"-0.023": 0.0,
			"-0.022": 0.0,
			"-0.021": 0.0,
			"-0.02": 0.0,
			"-0.019": 0.0,
			"-0.018": 0.0,
			"-0.017": 0.0,
			"-0.016": 0.0,
			"-0.015": 0.0,
			"-0.014": 0.0,
			"-0.013": 0.0,
			"-0.012": 0.0,
			"-0.011": 0.0,
			"-0.01": 0.353299315511,
			"-0.009": 4.01729089383,
			"-0.008": 9.04182925143,
			"-0.007": 10.7293003533,
			"-0.006": 19.5307907585,
			"-0.005": 17.0735339869,
			"-0.004": 19.0176329551,
			"-0.003": 17.5479394187,
			"-0.002": 20.977980757,
			"-0.001": 23.5548692302,
			"0.0": 29.0879287464,
			"0.001": 26.906762162,
			"0.002": 22.6282722962,
			"0.003": 25.8974918617,
			"0.004": 24.9855623592,
			"0.005": 6.99627286558,
			"0.006": 1.90769287743,
			"0.007": 3.01710909415,
			"0.008": 2.04707400749,
			"0.009": 2.71867655333,
			"0.01": 4.81285256732,
			"0.011": 5.47689276897,
			"0.012": 6.29003900537,
			"0.013": 2.61621344777,
			"0.014": 0.200742800637,
			"0.015": 0.0,
			"0.016": 0.0,
			"0.017": 0.0,
			"0.018": 0.0,
			"0.019": 0.0,
			"0.02": 0.0,
			"0.021": 0.0,
			"0.022": 0.0,
			"0.023": 0.0,
			"0.024": 0.0,
			"0.025": 0.0
		}
	}
}
