{
	 "smiles": "OC(=O)C1(CCOCC1)C1=C(Cl)C=CC=C1", 
	 "Tm": 475.15, 
	 "num_atms": 29, 
	 "gaussian": { 
		 "optdone": 1, 
		 "sigma_profile": "yes", 
		 "theory": "DFT", 
		 "functional": "B3LYP", 
		 "basiset": "6-31G**", 
		 "properties": { 
			 "R2extent": 3827.6754, 
			 "electric_dipole_moment_norm": 5.89741053005, 
			 "electric_quadrupole_moment_norm": 14.9574019683, 
			 "total_energy": -1150.9596981, 
			 "HOMO_LUMO_gap": 0.20491, 
			 "cosmo_polarized_energy": -16.14, 
			 "cosmo_cavitation_energy": 31.39, 
			 "cosmo_dispersion_energy": -22.96, 
			 "cosmo_repulsion_energy": 1.76, 
			 "cosmo_total_nonelectrostatic_energy": 10.19, 
			 "SMD_solvation_energy": 5.64 
		},
		"coords": [
			{
				"x": -1.8248688152,
				"y": 2.4781577931,
				"z": 0.9158005676,
				"element": "O" 
			},
			{
				"x": -0.4887197575,
				"y": 2.4247101682,
				"z": 0.6962135966,
				"element": "C" 
			},
			{
				"x": 0.1558889634,
				"y": 3.44298815,
				"z": 0.6485955096,
				"element": "O" 
			},
			{
				"x": 0.1339190072,
				"y": 0.9978681502,
				"z": 0.6703576354,
				"element": "C" 
			},
			{
				"x": 0.3981890117,
				"y": 0.6795304676,
				"z": 2.1821619146,
				"element": "C" 
			},
			{
				"x": 1.6841224192,
				"y": 1.3520680923,
				"z": 2.6628404926,
				"element": "C" 
			},
			{
				"x": 2.8365791327,
				"y": 0.7984716383,
				"z": 2.0283080422,
				"element": "O" 
			},
			{
				"x": 2.5956416705,
				"y": 0.2689640084,
				"z": 0.7276976948,
				"element": "C" 
			},
			{
				"x": 1.5255478092,
				"y": 1.0362489666,
				"z": -0.0454001719,
				"element": "C" 
			},
			{
				"x": -0.8352319578,
				"y": 0.002250295,
				"z": 0.0043079028,
				"element": "C" 
			},
			{
				"x": -1.2784279938,
				"y": 0.1657686893,
				"z": -1.3290213797,
				"element": "C" 
			},
			{
				"x": -0.7928459728,
				"y": 1.5612165806,
				"z": -2.2873442422,
				"element": "Cl" 
			},
			{
				"x": -2.1356176669,
				"y": -0.7432382464,
				"z": -1.9481221585,
				"element": "C" 
			},
			{
				"x": -2.5971136092,
				"y": -1.8552792157,
				"z": -1.2464853287,
				"element": "C" 
			},
			{
				"x": -2.2033168032,
				"y": -2.038633853,
				"z": 0.0756634055,
				"element": "C" 
			},
			{
				"x": -1.3427538259,
				"y": -1.1218535435,
				"z": 0.6808808418,
				"element": "C" 
			},
			{
				"x": -2.2034470514,
				"y": 1.5868971146,
				"z": 0.8573819349,
				"element": "H" 
			},
			{
				"x": 0.5289346804,
				"y": -0.3968527654,
				"z": 2.3212439447,
				"element": "H" 
			},
			{
				"x": -0.4517895628,
				"y": 0.9852535861,
				"z": 2.8020189649,
				"element": "H" 
			},
			{
				"x": 1.636074806,
				"y": 2.4355491278,
				"z": 2.4890400835,
				"element": "H" 
			},
			{
				"x": 1.8103040468,
				"y": 1.1889648932,
				"z": 3.7386512146,
				"element": "H" 
			},
			{
				"x": 3.549516382,
				"y": 0.3226922671,
				"z": 0.1929574636,
				"element": "H" 
			},
			{
				"x": 2.3242324009,
				"y": -0.7983993721,
				"z": 0.794003571,
				"element": "H" 
			},
			{
				"x": 1.8274928967,
				"y": 2.0827543446,
				"z": -0.1366626966,
				"element": "H" 
			},
			{
				"x": 1.4564840312,
				"y": 0.626462073,
				"z": -1.0549923762,
				"element": "H" 
			},
			{
				"x": -2.4389005443,
				"y": -0.5675858384,
				"z": -2.9742135983,
				"element": "H" 
			},
			{
				"x": -3.2637658804,
				"y": -2.5613343886,
				"z": -1.7317137723,
				"element": "H" 
			},
			{
				"x": -2.5606516558,
				"y": -2.8920748506,
				"z": 0.6434304671,
				"element": "H" 
			},
			{
				"x": -1.0618761607,
				"y": -1.2933643324,
				"z": 1.7122004766,
				"element": "H" 
			}
		],
		 "valence_orbital": [ 
			{
				"type": "occ",
				"energy": -0.29645,
				"method": "rhf"
			},
			{
				"type": "occ",
				"energy": -0.28747,
				"method": "rhf"
			},
			{
				"type": "occ",
				"energy": -0.26894,
				"method": "rhf"
			},
			{
				"type": "occ",
				"energy": -0.25794,
				"method": "rhf"
			},
			{
				"type": "occ",
				"energy": -0.24267,
				"method": "rhf"
			},
			{
				"type": "unocc",
				"energy": -0.03776,
				"method": "rhf"
			},
			{
				"type": "unocc",
				"energy": -0.03219,
				"method": "rhf"
			},
			{
				"type": "unocc",
				"energy": 0.00501,
				"method": "rhf"
			},
			{
				"type": "unocc",
				"energy": 0.02134,
				"method": "rhf"
			},
			{
				"type": "unocc",
				"energy": 0.07125,
				"method": "rhf"
			}
		],
		"cosmo_sigma_profile": { 
			"-0.025": 0.0,
			"-0.024": 0.0,
			"-0.023": 0.0,
			"-0.022": 0.0,
			"-0.021": 0.0,
			"-0.02": 0.0,
			"-0.019": 0.0,
			"-0.018": 0.0,
			"-0.017": 0.0,
			"-0.016": 0.115951129494,
			"-0.015": 0.387706558015,
			"-0.014": 0.653128220156,
			"-0.013": 0.881093247692,
			"-0.012": 1.08145926888,
			"-0.011": 1.79251426431,
			"-0.01": 0.882678681197,
			"-0.009": 0.981680842417,
			"-0.008": 2.46972304419,
			"-0.007": 7.96544758809,
			"-0.006": 13.0224466786,
			"-0.005": 19.0752362074,
			"-0.004": 21.4798696772,
			"-0.003": 23.3457937433,
			"-0.002": 19.6366831094,
			"-0.001": 15.4341262349,
			"0.0": 15.4064643912,
			"0.001": 15.6661869664,
			"0.002": 16.4259790082,
			"0.003": 18.4360029769,
			"0.004": 13.6168751284,
			"0.005": 4.86974915071,
			"0.006": 3.75793144764,
			"0.007": 3.55635422292,
			"0.008": 3.79546986307,
			"0.009": 4.7186587265,
			"0.01": 6.0981529084,
			"0.011": 5.67078947782,
			"0.012": 4.68893811959,
			"0.013": 2.84463379438,
			"0.014": 1.18077671234,
			"0.015": 0.00205756028621,
			"0.016": 0.0,
			"0.017": 0.0,
			"0.018": 0.0,
			"0.019": 0.0,
			"0.02": 0.0,
			"0.021": 0.0,
			"0.022": 0.0,
			"0.023": 0.0,
			"0.024": 0.0,
			"0.025": 0.0
		}
	}
}
