{
	 "smiles": "O=C(N1CC(C=C1C1=CC=CC=C1)C1=CC=CC=C1)C1=CC=CC=C1", 
	 "Tm": 453.15, 
	 "num_atms": 44, 
	 "gaussian": { 
		 "optdone": 1, 
		 "sigma_profile": "yes", 
		 "theory": "DFT", 
		 "functional": "B3LYP", 
		 "basiset": "6-31G**", 
		 "properties": { 
			 "R2extent": 9473.7762, 
			 "electric_dipole_moment_norm": 2.84049900018, 
			 "electric_quadrupole_moment_norm": 10.9056125037, 
			 "total_energy": -1017.87178874, 
			 "HOMO_LUMO_gap": 0.16513, 
			 "cosmo_polarized_energy": -14.64, 
			 "cosmo_cavitation_energy": 47.13, 
			 "cosmo_dispersion_energy": -31.84, 
			 "cosmo_repulsion_energy": 2.42, 
			 "cosmo_total_nonelectrostatic_energy": 17.71, 
			 "SMD_solvation_energy": 7.63 
		},
		"coords": [
			{
				"x": 2.0020447145,
				"y": 0.6455825393,
				"z": 1.5751008936,
				"element": "O" 
			},
			{
				"x": 1.1106261897,
				"y": 1.309305937,
				"z": 1.0597852341,
				"element": "C" 
			},
			{
				"x": -0.0558405593,
				"y": 0.7222660206,
				"z": 0.5611658634,
				"element": "N" 
			},
			{
				"x": -0.6768288544,
				"y": 1.1434679638,
				"z": -0.7193086012,
				"element": "C" 
			},
			{
				"x": -0.7377356126,
				"y": -0.1586219154,
				"z": -1.5766935724,
				"element": "C" 
			},
			{
				"x": -0.6873210625,
				"y": -1.2086010572,
				"z": -0.4877542123,
				"element": "C" 
			},
			{
				"x": -0.2546642626,
				"y": -0.6933589587,
				"z": 0.6769772194,
				"element": "C" 
			},
			{
				"x": -0.1087869165,
				"y": -1.3904816561,
				"z": 1.9667093811,
				"element": "C" 
			},
			{
				"x": -0.3847509306,
				"y": -0.7383449916,
				"z": 3.1790442192,
				"element": "C" 
			},
			{
				"x": -0.3152564757,
				"y": -1.4288390923,
				"z": 4.3867289537,
				"element": "C" 
			},
			{
				"x": 0.0339653613,
				"y": -2.7809268516,
				"z": 4.4062730273,
				"element": "C" 
			},
			{
				"x": 0.3164740634,
				"y": -3.4371323076,
				"z": 3.2065084919,
				"element": "C" 
			},
			{
				"x": 0.2484671679,
				"y": -2.7478317532,
				"z": 1.9975106343,
				"element": "C" 
			},
			{
				"x": 0.3756403534,
				"y": -0.2833203146,
				"z": -2.612779448,
				"element": "C" 
			},
			{
				"x": 1.7050732803,
				"y": -0.5134426105,
				"z": -2.2282522437,
				"element": "C" 
			},
			{
				"x": 2.716944628,
				"y": -0.5878452032,
				"z": -3.1859073569,
				"element": "C" 
			},
			{
				"x": 2.4172801251,
				"y": -0.4434196158,
				"z": -4.5425296203,
				"element": "C" 
			},
			{
				"x": 1.0971728296,
				"y": -0.2203842413,
				"z": -4.9358560296,
				"element": "C" 
			},
			{
				"x": 0.0868326562,
				"y": -0.1399278187,
				"z": -3.975668839,
				"element": "C" 
			},
			{
				"x": 1.2007372895,
				"y": 2.8056233694,
				"z": 0.9892602004,
				"element": "C" 
			},
			{
				"x": 2.4808951286,
				"y": 3.3773826846,
				"z": 0.9614124695,
				"element": "C" 
			},
			{
				"x": 2.6329715725,
				"y": 4.7615159521,
				"z": 0.9439520613,
				"element": "C" 
			},
			{
				"x": 1.5076389699,
				"y": 5.5899944759,
				"z": 0.9767652024,
				"element": "C" 
			},
			{
				"x": 0.2303356644,
				"y": 5.0284347427,
				"z": 1.0290647633,
				"element": "C" 
			},
			{
				"x": 0.0760435036,
				"y": 3.6419440606,
				"z": 1.0319748824,
				"element": "C" 
			},
			{
				"x": -0.0993415297,
				"y": 1.9388946592,
				"z": -1.1888585422,
				"element": "H" 
			},
			{
				"x": -1.6932529712,
				"y": 1.5082319484,
				"z": -0.5307801158,
				"element": "H" 
			},
			{
				"x": -1.6952603768,
				"y": -0.1848460399,
				"z": -2.1086888782,
				"element": "H" 
			},
			{
				"x": -0.9734514281,
				"y": -2.2413335885,
				"z": -0.6384762841,
				"element": "H" 
			},
			{
				"x": -0.6638644388,
				"y": 0.3102818079,
				"z": 3.1687024842,
				"element": "H" 
			},
			{
				"x": -0.5336615174,
				"y": -0.9095455579,
				"z": 5.3155499616,
				"element": "H" 
			},
			{
				"x": 0.0926879932,
				"y": -3.3166652977,
				"z": 5.3493247587,
				"element": "H" 
			},
			{
				"x": 0.6011808482,
				"y": -4.4854806094,
				"z": 3.2124313518,
				"element": "H" 
			},
			{
				"x": 0.4955199059,
				"y": -3.2540211436,
				"z": 1.0693016891,
				"element": "H" 
			},
			{
				"x": 1.9480314717,
				"y": -0.6406315132,
				"z": -1.1768780619,
				"element": "H" 
			},
			{
				"x": 3.7417387104,
				"y": -0.7643803027,
				"z": -2.8710914413,
				"element": "H" 
			},
			{
				"x": 3.2061004893,
				"y": -0.5074063703,
				"z": -5.2866568756,
				"element": "H" 
			},
			{
				"x": 0.8518908757,
				"y": -0.1115561868,
				"z": -5.9887620017,
				"element": "H" 
			},
			{
				"x": -0.9404257938,
				"y": 0.0345097541,
				"z": -4.2883882556,
				"element": "H" 
			},
			{
				"x": 3.3416119377,
				"y": 2.717057399,
				"z": 0.9606350949,
				"element": "H" 
			},
			{
				"x": 3.6277632663,
				"y": 5.1962152049,
				"z": 0.9109906364,
				"element": "H" 
			},
			{
				"x": 1.6264680278,
				"y": 6.6697720489,
				"z": 0.9692536035,
				"element": "H" 
			},
			{
				"x": -0.6454099144,
				"y": 5.6694263157,
				"z": 1.0738214456,
				"element": "H" 
			},
			{
				"x": -0.9170843795,
				"y": 3.2083381137,
				"z": 1.0926858564,
				"element": "H" 
			}
		],
		 "valence_orbital": [ 
			{
				"type": "occ",
				"energy": -0.24777,
				"method": "rhf"
			},
			{
				"type": "occ",
				"energy": -0.2461,
				"method": "rhf"
			},
			{
				"type": "occ",
				"energy": -0.24392,
				"method": "rhf"
			},
			{
				"type": "occ",
				"energy": -0.23767,
				"method": "rhf"
			},
			{
				"type": "occ",
				"energy": -0.20664,
				"method": "rhf"
			},
			{
				"type": "unocc",
				"energy": -0.04151,
				"method": "rhf"
			},
			{
				"type": "unocc",
				"energy": -0.02323,
				"method": "rhf"
			},
			{
				"type": "unocc",
				"energy": -0.00772,
				"method": "rhf"
			},
			{
				"type": "unocc",
				"energy": -0.00026,
				"method": "rhf"
			},
			{
				"type": "unocc",
				"energy": 0.00298,
				"method": "rhf"
			}
		],
		"cosmo_sigma_profile": { 
			"-0.025": 0.0,
			"-0.024": 0.0,
			"-0.023": 0.0,
			"-0.022": 0.0,
			"-0.021": 0.0,
			"-0.02": 0.0,
			"-0.019": 0.0,
			"-0.018": 0.0,
			"-0.017": 0.0,
			"-0.016": 0.0,
			"-0.015": 0.0,
			"-0.014": 0.0,
			"-0.013": 0.0,
			"-0.012": 0.0,
			"-0.011": 0.0,
			"-0.01": 0.0,
			"-0.009": 0.0,
			"-0.008": 0.0,
			"-0.007": 1.31357250263,
			"-0.006": 18.6179053517,
			"-0.005": 40.7866452997,
			"-0.004": 38.1862504062,
			"-0.003": 37.3667911783,
			"-0.002": 29.5157365793,
			"-0.001": 26.850350306,
			"0.0": 21.6663877529,
			"0.001": 25.4164650116,
			"0.002": 26.6667949694,
			"0.003": 25.4007732753,
			"0.004": 28.3970792505,
			"0.005": 21.801509957,
			"0.006": 15.1875008052,
			"0.007": 3.51415665255,
			"0.008": 1.90248900728,
			"0.009": 1.96275431118,
			"0.01": 2.22301628957,
			"0.011": 1.80662516545,
			"0.012": 2.66898389587,
			"0.013": 4.61760698824,
			"0.014": 1.0774380112,
			"0.015": 0.0,
			"0.016": 0.0,
			"0.017": 0.0,
			"0.018": 0.0,
			"0.019": 0.0,
			"0.02": 0.0,
			"0.021": 0.0,
			"0.022": 0.0,
			"0.023": 0.0,
			"0.024": 0.0,
			"0.025": 0.0
		}
	}
}
