{
	 "smiles": "CN1C(S)=NN=C1C1=CC=C(Cl)C=C1Cl", 
	 "Tm": 449.15, 
	 "num_atms": 22, 
	 "gaussian": { 
		 "optdone": 1, 
		 "sigma_profile": "yes", 
		 "theory": "DFT", 
		 "functional": "B3LYP", 
		 "basiset": "6-31G**", 
		 "properties": { 
			 "R2extent": 5434.1416, 
			 "electric_dipole_moment_norm": 4.8654020245, 
			 "electric_quadrupole_moment_norm": 18.332353467, 
			 "total_energy": -1829.97263555, 
			 "HOMO_LUMO_gap": 0.19733, 
			 "cosmo_polarized_energy": -16.98, 
			 "cosmo_cavitation_energy": 31.89, 
			 "cosmo_dispersion_energy": -23.46, 
			 "cosmo_repulsion_energy": 1.79, 
			 "cosmo_total_nonelectrostatic_energy": 10.21, 
			 "SMD_solvation_energy": 2.42 
		},
		"coords": [
			{
				"x": 0.6762726487,
				"y": -2.2208781351,
				"z": -0.2332507053,
				"element": "C" 
			},
			{
				"x": 1.4047671377,
				"y": -1.0776157163,
				"z": 0.3007958686,
				"element": "N" 
			},
			{
				"x": 2.7493111772,
				"y": -1.0115247861,
				"z": 0.6011325924,
				"element": "C" 
			},
			{
				"x": 3.8948087861,
				"y": -2.3373942902,
				"z": 0.36992064,
				"element": "S" 
			},
			{
				"x": 3.0403990188,
				"y": 0.137367379,
				"z": 1.1732065942,
				"element": "N" 
			},
			{
				"x": 1.8798221238,
				"y": 0.8599967257,
				"z": 1.2541804526,
				"element": "N" 
			},
			{
				"x": 0.9132678651,
				"y": 0.1355050771,
				"z": 0.7176932019,
				"element": "C" 
			},
			{
				"x": -0.4954277971,
				"y": 0.5681372644,
				"z": 0.674212427,
				"element": "C" 
			},
			{
				"x": -1.0947246186,
				"y": 0.9721375485,
				"z": 1.8796219288,
				"element": "C" 
			},
			{
				"x": -2.4090129763,
				"y": 1.4234832276,
				"z": 1.9320586206,
				"element": "C" 
			},
			{
				"x": -3.1496920817,
				"y": 1.4762717109,
				"z": 0.7514073261,
				"element": "C" 
			},
			{
				"x": -4.8122002101,
				"y": 2.0263670693,
				"z": 0.7921721734,
				"element": "Cl" 
			},
			{
				"x": -2.5886613478,
				"y": 1.1084232365,
				"z": -0.469636545,
				"element": "C" 
			},
			{
				"x": -1.2655727875,
				"y": 0.6686308913,
				"z": -0.4968032757,
				"element": "C" 
			},
			{
				"x": -0.569348762,
				"y": 0.3047141284,
				"z": -2.0684798679,
				"element": "Cl" 
			},
			{
				"x": 1.1092120068,
				"y": -3.1366464136,
				"z": 0.1721713247,
				"element": "H" 
			},
			{
				"x": 0.7275924848,
				"y": -2.2464899127,
				"z": -1.3243296307,
				"element": "H" 
			},
			{
				"x": -0.3692091011,
				"y": -2.1467167406,
				"z": 0.068249063,
				"element": "H" 
			},
			{
				"x": 3.9882709628,
				"y": -2.2478417209,
				"z": -0.9753485265,
				"element": "H" 
			},
			{
				"x": -0.4989346464,
				"y": 0.9289706249,
				"z": 2.7848027192,
				"element": "H" 
			},
			{
				"x": -2.8547592591,
				"y": 1.727284966,
				"z": 2.8720024742,
				"element": "H" 
			},
			{
				"x": -3.1605806239,
				"y": 1.1791178661,
				"z": -1.3863788556,
				"element": "H" 
			}
		],
		 "valence_orbital": [ 
			{
				"type": "occ",
				"energy": -0.28868,
				"method": "rhf"
			},
			{
				"type": "occ",
				"energy": -0.27704,
				"method": "rhf"
			},
			{
				"type": "occ",
				"energy": -0.27209,
				"method": "rhf"
			},
			{
				"type": "occ",
				"energy": -0.25952,
				"method": "rhf"
			},
			{
				"type": "occ",
				"energy": -0.24868,
				"method": "rhf"
			},
			{
				"type": "unocc",
				"energy": -0.05135,
				"method": "rhf"
			},
			{
				"type": "unocc",
				"energy": -0.03892,
				"method": "rhf"
			},
			{
				"type": "unocc",
				"energy": -0.01043,
				"method": "rhf"
			},
			{
				"type": "unocc",
				"energy": -0.00648,
				"method": "rhf"
			},
			{
				"type": "unocc",
				"energy": 0.02829,
				"method": "rhf"
			}
		],
		"cosmo_sigma_profile": { 
			"-0.025": 0.0,
			"-0.024": 0.0,
			"-0.023": 0.0,
			"-0.022": 0.0,
			"-0.021": 0.0,
			"-0.02": 0.0,
			"-0.019": 0.0,
			"-0.018": 0.0,
			"-0.017": 0.0,
			"-0.016": 0.0,
			"-0.015": 0.0,
			"-0.014": 0.0,
			"-0.013": 0.0,
			"-0.012": 0.900124127475,
			"-0.011": 3.1448283114,
			"-0.01": 1.62909016004,
			"-0.009": 3.19763048635,
			"-0.008": 6.54344529312,
			"-0.007": 9.54239832042,
			"-0.006": 14.5341619866,
			"-0.005": 13.705791987,
			"-0.004": 16.8493988877,
			"-0.003": 17.8225709755,
			"-0.002": 16.7938357017,
			"-0.001": 18.0201519513,
			"0.0": 27.0553397937,
			"0.001": 24.8553914543,
			"0.002": 18.2044959614,
			"0.003": 19.3735779368,
			"0.004": 15.2075123426,
			"0.005": 5.06444800679,
			"0.006": 3.47120875268,
			"0.007": 3.14647976375,
			"0.008": 3.08095376739,
			"0.009": 2.78766712904,
			"0.01": 1.68117456163,
			"0.011": 3.17166406348,
			"0.012": 3.16228943539,
			"0.013": 2.83981557487,
			"0.014": 3.34216149786,
			"0.015": 2.03560085053,
			"0.016": 1.99516684261,
			"0.017": 0.0912034114121,
			"0.018": 0.0,
			"0.019": 0.0,
			"0.02": 0.0,
			"0.021": 0.0,
			"0.022": 0.0,
			"0.023": 0.0,
			"0.024": 0.0,
			"0.025": 0.0
		}
	}
}
