{
	 "smiles": "COC1=CC=CC=C1C1CCN(CC1)C1=CC=C(C=CC(O)=O)C=C1[N+]([O-])=O", 
	 "Tm": 478.15, 
	 "num_atms": 50, 
	 "gaussian": { 
		 "optdone": 1, 
		 "sigma_profile": "yes", 
		 "theory": "DFT", 
		 "functional": "B3LYP", 
		 "basiset": "6-31G**", 
		 "properties": { 
			 "R2extent": 16195.7388, 
			 "electric_dipole_moment_norm": 8.18153885953, 
			 "electric_quadrupole_moment_norm": 19.4893794252, 
			 "total_energy": -1298.9986716, 
			 "HOMO_LUMO_gap": 0.1248, 
			 "cosmo_polarized_energy": -20.24, 
			 "cosmo_cavitation_energy": 51.61, 
			 "cosmo_dispersion_energy": -36.03, 
			 "cosmo_repulsion_energy": 2.68, 
			 "cosmo_total_nonelectrostatic_energy": 18.25, 
			 "SMD_solvation_energy": 12.12 
		},
		"coords": [
			{
				"x": -6.4330274677,
				"y": 0.0927907396,
				"z": 0.6399132293,
				"element": "C" 
			},
			{
				"x": -5.1851823303,
				"y": -0.1667220593,
				"z": 0.0186641468,
				"element": "O" 
			},
			{
				"x": -4.2004900836,
				"y": 0.7870904617,
				"z": 0.0987208261,
				"element": "C" 
			},
			{
				"x": -4.3390312534,
				"y": 1.974886252,
				"z": 0.8220943257,
				"element": "C" 
			},
			{
				"x": -3.2804932365,
				"y": 2.8866074975,
				"z": 0.8686422111,
				"element": "C" 
			},
			{
				"x": -2.0940532063,
				"y": 2.6134491844,
				"z": 0.1973599282,
				"element": "C" 
			},
			{
				"x": -1.9672576137,
				"y": 1.425622139,
				"z": -0.5313455154,
				"element": "C" 
			},
			{
				"x": -3.0073332754,
				"y": 0.4954263076,
				"z": -0.6047960161,
				"element": "C" 
			},
			{
				"x": -2.9158052895,
				"y": -0.819574433,
				"z": -1.3734978596,
				"element": "C" 
			},
			{
				"x": -2.5532264395,
				"y": -1.9903815878,
				"z": -0.4300798785,
				"element": "C" 
			},
			{
				"x": -1.1172015271,
				"y": -1.8940567196,
				"z": 0.1075902444,
				"element": "C" 
			},
			{
				"x": -0.1789637883,
				"y": -1.434648046,
				"z": -0.9320267041,
				"element": "N" 
			},
			{
				"x": -0.6709013267,
				"y": -1.65847878,
				"z": -2.2982678185,
				"element": "C" 
			},
			{
				"x": -1.9326299828,
				"y": -0.8264058079,
				"z": -2.5812811129,
				"element": "C" 
			},
			{
				"x": 1.1389031797,
				"y": -1.2363799353,
				"z": -0.6040100747,
				"element": "C" 
			},
			{
				"x": 1.6355659822,
				"y": -1.6728550801,
				"z": 0.6548495911,
				"element": "C" 
			},
			{
				"x": 2.974637882,
				"y": -1.5982632175,
				"z": 0.9910093581,
				"element": "C" 
			},
			{
				"x": 3.9466168592,
				"y": -1.092195827,
				"z": 0.1052960282,
				"element": "C" 
			},
			{
				"x": 5.3502073496,
				"y": -1.0761686434,
				"z": 0.4982765017,
				"element": "C" 
			},
			{
				"x": 6.4049633785,
				"y": -0.6821657465,
				"z": -0.2439838229,
				"element": "C" 
			},
			{
				"x": 7.7930864762,
				"y": -0.6986366587,
				"z": 0.2373779049,
				"element": "C" 
			},
			{
				"x": 7.9308069787,
				"y": -1.1535719937,
				"z": 1.5150878583,
				"element": "O" 
			},
			{
				"x": 8.7521103634,
				"y": -0.3444322788,
				"z": -0.4230844597,
				"element": "O" 
			},
			{
				"x": 3.4753635549,
				"y": -0.5980338293,
				"z": -1.115998357,
				"element": "C" 
			},
			{
				"x": 2.1234270488,
				"y": -0.6220949602,
				"z": -1.4443026033,
				"element": "C" 
			},
			{
				"x": 1.7862586867,
				"y": 0.1563320361,
				"z": -2.6401703825,
				"element": "N" 
			},
			{
				"x": 0.7435492558,
				"y": 0.8190657154,
				"z": -2.6275706749,
				"element": "O" 
			},
			{
				"x": 2.5893281742,
				"y": 0.1598860114,
				"z": -3.5733295993,
				"element": "O" 
			},
			{
				"x": -6.9074038354,
				"y": 0.995718728,
				"z": 0.2348514143,
				"element": "H" 
			},
			{
				"x": -6.3311208615,
				"y": 0.2005829381,
				"z": 1.7275667371,
				"element": "H" 
			},
			{
				"x": -7.0633541924,
				"y": -0.7715920497,
				"z": 0.4239984792,
				"element": "H" 
			},
			{
				"x": -5.2587053521,
				"y": 2.1966367059,
				"z": 1.3502837496,
				"element": "H" 
			},
			{
				"x": -3.3955565352,
				"y": 3.8073244517,
				"z": 1.4336271685,
				"element": "H" 
			},
			{
				"x": -1.2672765739,
				"y": 3.3163049433,
				"z": 0.2307814661,
				"element": "H" 
			},
			{
				"x": -1.037402895,
				"y": 1.2248038148,
				"z": -1.0520728809,
				"element": "H" 
			},
			{
				"x": -3.9217281396,
				"y": -1.0254631111,
				"z": -1.7486832213,
				"element": "H" 
			},
			{
				"x": -3.2406030636,
				"y": -2.0207408653,
				"z": 0.4196146765,
				"element": "H" 
			},
			{
				"x": -2.6867571512,
				"y": -2.9350736736,
				"z": -0.9704236319,
				"element": "H" 
			},
			{
				"x": -0.8164755836,
				"y": -2.8777496686,
				"z": 0.50097938,
				"element": "H" 
			},
			{
				"x": -1.0791560708,
				"y": -1.1796623762,
				"z": 0.9367638721,
				"element": "H" 
			},
			{
				"x": -0.8963593688,
				"y": -2.7305909312,
				"z": -2.3999094985,
				"element": "H" 
			},
			{
				"x": 0.105171901,
				"y": -1.4477182894,
				"z": -3.028158755,
				"element": "H" 
			},
			{
				"x": -1.6454184269,
				"y": 0.1887039349,
				"z": -2.858464506,
				"element": "H" 
			},
			{
				"x": -2.429693505,
				"y": -1.2645002876,
				"z": -3.4542111877,
				"element": "H" 
			},
			{
				"x": 0.9538082722,
				"y": -2.1147780976,
				"z": 1.3675539602,
				"element": "H" 
			},
			{
				"x": 3.2884257098,
				"y": -1.967062496,
				"z": 1.9642829751,
				"element": "H" 
			},
			{
				"x": 5.5540347484,
				"y": -1.4304231251,
				"z": 1.5064936935,
				"element": "H" 
			},
			{
				"x": 6.3048112297,
				"y": -0.3234274291,
				"z": -1.2629578901,
				"element": "H" 
			},
			{
				"x": 8.8829455354,
				"y": -1.1117489114,
				"z": 1.6992815453,
				"element": "H" 
			},
			{
				"x": 4.1464858094,
				"y": -0.1348349453,
				"z": -1.8287348208,
				"element": "H" 
			}
		],
		 "valence_orbital": [ 
			{
				"type": "occ",
				"energy": -0.27,
				"method": "rhf"
			},
			{
				"type": "occ",
				"energy": -0.26595,
				"method": "rhf"
			},
			{
				"type": "occ",
				"energy": -0.24308,
				"method": "rhf"
			},
			{
				"type": "occ",
				"energy": -0.21765,
				"method": "rhf"
			},
			{
				"type": "occ",
				"energy": -0.20878,
				"method": "rhf"
			},
			{
				"type": "unocc",
				"energy": -0.08398,
				"method": "rhf"
			},
			{
				"type": "unocc",
				"energy": -0.06551,
				"method": "rhf"
			},
			{
				"type": "unocc",
				"energy": -0.01338,
				"method": "rhf"
			},
			{
				"type": "unocc",
				"energy": 0.0002,
				"method": "rhf"
			},
			{
				"type": "unocc",
				"energy": 0.0128,
				"method": "rhf"
			}
		],
		"cosmo_sigma_profile": { 
			"-0.025": 0.0,
			"-0.024": 0.0,
			"-0.023": 0.0,
			"-0.022": 0.0,
			"-0.021": 0.0,
			"-0.02": 0.0,
			"-0.019": 0.0,
			"-0.018": 0.34151036552,
			"-0.017": 0.755440053471,
			"-0.016": 0.878750167418,
			"-0.015": 1.32923256426,
			"-0.014": 0.415377627718,
			"-0.013": 0.140261168617,
			"-0.012": 0.518584146072,
			"-0.011": 0.898099659979,
			"-0.01": 0.746732845128,
			"-0.009": 1.95287129352,
			"-0.008": 4.60496298554,
			"-0.007": 9.51449900369,
			"-0.006": 15.9065587444,
			"-0.005": 31.0876920265,
			"-0.004": 34.4203442256,
			"-0.003": 41.9693675025,
			"-0.002": 29.4304169696,
			"-0.001": 26.8245740644,
			"0.0": 28.7580202567,
			"0.001": 33.334322807,
			"0.002": 32.2014911603,
			"0.003": 23.3089902713,
			"0.004": 16.6264522368,
			"0.005": 14.2470147927,
			"0.006": 15.2657834112,
			"0.007": 11.9901264176,
			"0.008": 10.0600125905,
			"0.009": 5.94698819258,
			"0.01": 4.33339919866,
			"0.011": 2.81537881819,
			"0.012": 5.12371599291,
			"0.013": 3.33498266338,
			"0.014": 0.342704707299,
			"0.015": 0.0,
			"0.016": 0.0,
			"0.017": 0.0,
			"0.018": 0.0,
			"0.019": 0.0,
			"0.02": 0.0,
			"0.021": 0.0,
			"0.022": 0.0,
			"0.023": 0.0,
			"0.024": 0.0,
			"0.025": 0.0
		}
	}
}
