{
	 "smiles": "OC(=O)CNC(=O)C1CCCC1", 
	 "Tm": 383.15, 
	 "num_atms": 25, 
	 "gaussian": { 
		 "optdone": 1, 
		 "sigma_profile": "yes", 
		 "theory": "DFT", 
		 "functional": "B3LYP", 
		 "basiset": "6-31G**", 
		 "properties": { 
			 "R2extent": 3402.4741, 
			 "electric_dipole_moment_norm": 2.43782589411, 
			 "electric_quadrupole_moment_norm": 12.5119225845, 
			 "total_energy": -593.148663437, 
			 "HOMO_LUMO_gap": 0.23507, 
			 "cosmo_polarized_energy": -14.19, 
			 "cosmo_cavitation_energy": 27.95, 
			 "cosmo_dispersion_energy": -20.45, 
			 "cosmo_repulsion_energy": 1.68, 
			 "cosmo_total_nonelectrostatic_energy": 9.19, 
			 "SMD_solvation_energy": 5.13 
		},
		"coords": [
			{
				"x": -3.2901951983,
				"y": -4.2008410058,
				"z": -0.3658972953,
				"element": "O" 
			},
			{
				"x": -2.1268786014,
				"y": -3.5969656143,
				"z": -0.6745106415,
				"element": "C" 
			},
			{
				"x": -1.2042673048,
				"y": -4.1618883104,
				"z": -1.2232098563,
				"element": "O" 
			},
			{
				"x": -2.1248787178,
				"y": -2.1453224628,
				"z": -0.2509027544,
				"element": "C" 
			},
			{
				"x": -0.8620679135,
				"y": -1.5466145724,
				"z": -0.6067710745,
				"element": "N" 
			},
			{
				"x": -0.6120389882,
				"y": -0.2286052719,
				"z": -0.3589838696,
				"element": "C" 
			},
			{
				"x": -1.4538670522,
				"y": 0.4926324798,
				"z": 0.1713699557,
				"element": "O" 
			},
			{
				"x": 0.7824342543,
				"y": 0.262372818,
				"z": -0.7371879305,
				"element": "C" 
			},
			{
				"x": 0.7304319689,
				"y": 1.6719041764,
				"z": -1.398765554,
				"element": "C" 
			},
			{
				"x": 1.7797460191,
				"y": 2.5227738522,
				"z": -0.6580590914,
				"element": "C" 
			},
			{
				"x": 1.7371335755,
				"y": 1.9635838276,
				"z": 0.7708436241,
				"element": "C" 
			},
			{
				"x": 1.6603838773,
				"y": 0.4438451879,
				"z": 0.5492192621,
				"element": "C" 
			},
			{
				"x": -3.2144544907,
				"y": -5.1223139024,
				"z": -0.6660392094,
				"element": "H" 
			},
			{
				"x": -2.9669954551,
				"y": -1.6286478877,
				"z": -0.7291783416,
				"element": "H" 
			},
			{
				"x": -2.3151551053,
				"y": -2.0870051535,
				"z": 0.8288555191,
				"element": "H" 
			},
			{
				"x": -0.1855979399,
				"y": -2.1498302421,
				"z": -1.054431595,
				"element": "H" 
			},
			{
				"x": 1.2538025895,
				"y": -0.4664116266,
				"z": -1.4060237168,
				"element": "H" 
			},
			{
				"x": 0.8997933677,
				"y": 1.6253582747,
				"z": -2.4788159008,
				"element": "H" 
			},
			{
				"x": -0.2651396835,
				"y": 2.0930984362,
				"z": -1.2309523133,
				"element": "H" 
			},
			{
				"x": 2.7772865878,
				"y": 2.3673334739,
				"z": -1.0900291723,
				"element": "H" 
			},
			{
				"x": 1.5644127481,
				"y": 3.5947775892,
				"z": -0.7117484641,
				"element": "H" 
			},
			{
				"x": 0.8267858087,
				"y": 2.3079730799,
				"z": 1.2748001886,
				"element": "H" 
			},
			{
				"x": 2.5947756249,
				"y": 2.2594923981,
				"z": 1.3839173946,
				"element": "H" 
			},
			{
				"x": 2.6623170699,
				"y": 0.0428206641,
				"z": 0.3572578753,
				"element": "H" 
			},
			{
				"x": 1.2569329592,
				"y": -0.0939202081,
				"z": 1.4124429611,
				"element": "H" 
			}
		],
		 "valence_orbital": [ 
			{
				"type": "occ",
				"energy": -0.32214,
				"method": "rhf"
			},
			{
				"type": "occ",
				"energy": -0.31677,
				"method": "rhf"
			},
			{
				"type": "occ",
				"energy": -0.30032,
				"method": "rhf"
			},
			{
				"type": "occ",
				"energy": -0.25449,
				"method": "rhf"
			},
			{
				"type": "occ",
				"energy": -0.24291,
				"method": "rhf"
			},
			{
				"type": "unocc",
				"energy": -0.00784,
				"method": "rhf"
			},
			{
				"type": "unocc",
				"energy": 0.03118,
				"method": "rhf"
			},
			{
				"type": "unocc",
				"energy": 0.06301,
				"method": "rhf"
			},
			{
				"type": "unocc",
				"energy": 0.07947,
				"method": "rhf"
			},
			{
				"type": "unocc",
				"energy": 0.10009,
				"method": "rhf"
			}
		],
		"cosmo_sigma_profile": { 
			"-0.025": 0.0,
			"-0.024": 0.0,
			"-0.023": 0.0,
			"-0.022": 0.0,
			"-0.021": 0.0,
			"-0.02": 0.0,
			"-0.019": 0.811784907516,
			"-0.018": 0.735480387287,
			"-0.017": 1.06220478854,
			"-0.016": 0.668688866658,
			"-0.015": 0.562459838212,
			"-0.014": 0.499160228322,
			"-0.013": 0.866537839777,
			"-0.012": 1.25653482373,
			"-0.011": 1.5890045321,
			"-0.01": 1.55511244043,
			"-0.009": 1.73509880622,
			"-0.008": 2.99272196105,
			"-0.007": 6.93229475185,
			"-0.006": 6.4254788722,
			"-0.005": 5.86875930983,
			"-0.004": 7.57190616833,
			"-0.003": 17.4283654255,
			"-0.002": 25.9932031215,
			"-0.001": 26.9488657399,
			"0.0": 26.7980144966,
			"0.001": 23.7709507478,
			"0.002": 7.37356713414,
			"0.003": 3.53484969605,
			"0.004": 4.03647740732,
			"0.005": 3.98778810486,
			"0.006": 4.39469001134,
			"0.007": 3.86368459731,
			"0.008": 5.00294202134,
			"0.009": 4.72080278699,
			"0.01": 4.13337925809,
			"0.011": 4.48993832074,
			"0.012": 2.05481006511,
			"0.013": 2.28260871096,
			"0.014": 4.69243389057,
			"0.015": 1.17026242891,
			"0.016": 0.0,
			"0.017": 0.0,
			"0.018": 0.0,
			"0.019": 0.0,
			"0.02": 0.0,
			"0.021": 0.0,
			"0.022": 0.0,
			"0.023": 0.0,
			"0.024": 0.0,
			"0.025": 0.0
		}
	}
}
