{
	 "smiles": "NC(CCCC(N)C(O)=O)C(O)=O", 
	 "Tm": 573.15, 
	 "num_atms": 27, 
	 "gaussian": { 
		 "optdone": 1, 
		 "sigma_profile": "yes", 
		 "theory": "DFT", 
		 "functional": "B3LYP", 
		 "basiset": "6-31G**", 
		 "properties": { 
			 "R2extent": 2772.9776, 
			 "electric_dipole_moment_norm": 5.04512145047, 
			 "electric_quadrupole_moment_norm": 15.341685571, 
			 "total_energy": -685.609476403, 
			 "HOMO_LUMO_gap": 0.23628, 
			 "cosmo_polarized_energy": -21.06, 
			 "cosmo_cavitation_energy": 28.67, 
			 "cosmo_dispersion_energy": -20.42, 
			 "cosmo_repulsion_energy": 1.63, 
			 "cosmo_total_nonelectrostatic_energy": 9.88, 
			 "SMD_solvation_energy": 4.98 
		},
		"coords": [
			{
				"x": -0.4264837858,
				"y": 0.0650484917,
				"z": -2.365526683,
				"element": "N" 
			},
			{
				"x": 0.4315615752,
				"y": 0.7155144985,
				"z": -1.3541076879,
				"element": "C" 
			},
			{
				"x": 1.4262025151,
				"y": -0.2351379766,
				"z": -0.6600071117,
				"element": "C" 
			},
			{
				"x": 2.0249042416,
				"y": 0.2427097371,
				"z": 0.6761863575,
				"element": "C" 
			},
			{
				"x": 1.042808156,
				"y": 0.6226855979,
				"z": 1.8011424196,
				"element": "C" 
			},
			{
				"x": 0.0249669822,
				"y": -0.4635444203,
				"z": 2.2532566717,
				"element": "C" 
			},
			{
				"x": 0.6698238742,
				"y": -1.7518494658,
				"z": 2.4547873188,
				"element": "N" 
			},
			{
				"x": -1.1843401022,
				"y": -0.5167765087,
				"z": 1.3133739645,
				"element": "C" 
			},
			{
				"x": -1.9916229815,
				"y": 0.5582942373,
				"z": 1.4751616799,
				"element": "O" 
			},
			{
				"x": -1.4268495266,
				"y": -1.390118296,
				"z": 0.5022482947,
				"element": "O" 
			},
			{
				"x": 1.113637312,
				"y": 1.9371617979,
				"z": -2.0033261133,
				"element": "C" 
			},
			{
				"x": 0.4928243209,
				"y": 2.3643106866,
				"z": -3.1133297781,
				"element": "O" 
			},
			{
				"x": 2.0911674793,
				"y": 2.4841048877,
				"z": -1.5444677546,
				"element": "O" 
			},
			{
				"x": -1.1472795862,
				"y": -0.4812261552,
				"z": -1.8986014988,
				"element": "H" 
			},
			{
				"x": 0.1252824642,
				"y": -0.5967991675,
				"z": -2.9097224709,
				"element": "H" 
			},
			{
				"x": -0.2506420146,
				"y": 1.142462098,
				"z": -0.6083894641,
				"element": "H" 
			},
			{
				"x": 2.2526218838,
				"y": -0.4406005811,
				"z": -1.352405452,
				"element": "H" 
			},
			{
				"x": 0.8979511948,
				"y": -1.1836150504,
				"z": -0.5138065012,
				"element": "H" 
			},
			{
				"x": 2.653104878,
				"y": 1.1157688569,
				"z": 0.480743487,
				"element": "H" 
			},
			{
				"x": 2.6856772064,
				"y": -0.5484254278,
				"z": 1.0493300749,
				"element": "H" 
			},
			{
				"x": 0.4895581994,
				"y": 1.5330424379,
				"z": 1.5452968766,
				"element": "H" 
			},
			{
				"x": 1.6433415582,
				"y": 0.8681177749,
				"z": 2.6829685906,
				"element": "H" 
			},
			{
				"x": -0.3744641894,
				"y": -0.1287936218,
				"z": 3.2178564218,
				"element": "H" 
			},
			{
				"x": 0.892802401,
				"y": -2.1698591608,
				"z": 1.5550893941,
				"element": "H" 
			},
			{
				"x": 0.0238229885,
				"y": -2.3959343204,
				"z": 2.9040912878,
				"element": "H" 
			},
			{
				"x": -2.7318950824,
				"y": 0.4526489994,
				"z": 0.8534339191,
				"element": "H" 
			},
			{
				"x": -0.2287819621,
				"y": 1.7073100509,
				"z": -3.2630762431,
				"element": "H" 
			}
		],
		 "valence_orbital": [ 
			{
				"type": "occ",
				"energy": -0.29975,
				"method": "rhf"
			},
			{
				"type": "occ",
				"energy": -0.29683,
				"method": "rhf"
			},
			{
				"type": "occ",
				"energy": -0.28326,
				"method": "rhf"
			},
			{
				"type": "occ",
				"energy": -0.25638,
				"method": "rhf"
			},
			{
				"type": "occ",
				"energy": -0.25136,
				"method": "rhf"
			},
			{
				"type": "unocc",
				"energy": -0.01508,
				"method": "rhf"
			},
			{
				"type": "unocc",
				"energy": 0.01476,
				"method": "rhf"
			},
			{
				"type": "unocc",
				"energy": 0.05138,
				"method": "rhf"
			},
			{
				"type": "unocc",
				"energy": 0.0666,
				"method": "rhf"
			},
			{
				"type": "unocc",
				"energy": 0.0802,
				"method": "rhf"
			}
		],
		"cosmo_sigma_profile": { 
			"-0.025": 0.0,
			"-0.024": 0.0,
			"-0.023": 0.0,
			"-0.022": 0.0,
			"-0.021": 0.0,
			"-0.02": 0.0,
			"-0.019": 0.108184215981,
			"-0.018": 0.70550165334,
			"-0.017": 1.05891258494,
			"-0.016": 0.9562978068,
			"-0.015": 0.751012695673,
			"-0.014": 0.547730992552,
			"-0.013": 0.300062817717,
			"-0.012": 1.13368122644,
			"-0.011": 3.2921336784,
			"-0.01": 5.23354235808,
			"-0.009": 5.8403400057,
			"-0.008": 7.97083400648,
			"-0.007": 8.56167625222,
			"-0.006": 10.779076445,
			"-0.005": 13.0661012137,
			"-0.004": 12.5123691515,
			"-0.003": 15.4798051868,
			"-0.002": 14.5034485469,
			"-0.001": 16.4367768261,
			"0.0": 13.9390370734,
			"0.001": 9.52910105998,
			"0.002": 8.1910734931,
			"0.003": 6.01613787215,
			"0.004": 5.33754960107,
			"0.005": 6.6184796838,
			"0.006": 6.0001568945,
			"0.007": 6.12560074387,
			"0.008": 6.20808876968,
			"0.009": 6.61426631753,
			"0.01": 6.27096709219,
			"0.011": 8.83463809278,
			"0.012": 6.7515711085,
			"0.013": 3.12295052325,
			"0.014": 1.21077855248,
			"0.015": 0.687991626637,
			"0.016": 0.297816784762,
			"0.017": 0.481932791306,
			"0.018": 0.763185166744,
			"0.019": 0.0160204499493,
			"0.02": 0.0,
			"0.021": 0.0,
			"0.022": 0.0,
			"0.023": 0.0,
			"0.024": 0.0,
			"0.025": 0.0
		}
	}
}
