{
	 "smiles": "OC(=O)CSC1=C(C=CC=C1)C#N", 
	 "Tm": 417.15, 
	 "num_atms": 20, 
	 "gaussian": { 
		 "optdone": 1, 
		 "sigma_profile": "yes", 
		 "theory": "DFT", 
		 "functional": "B3LYP", 
		 "basiset": "6-31G**", 
		 "properties": { 
			 "R2extent": 2974.6077, 
			 "electric_dipole_moment_norm": 8.49574257849, 
			 "electric_quadrupole_moment_norm": 7.35368104013, 
			 "total_energy": -950.547471739, 
			 "HOMO_LUMO_gap": 0.1702, 
			 "cosmo_polarized_energy": -15.69, 
			 "cosmo_cavitation_energy": 26.7, 
			 "cosmo_dispersion_energy": -19.46, 
			 "cosmo_repulsion_energy": 1.48, 
			 "cosmo_total_nonelectrostatic_energy": 8.71, 
			 "SMD_solvation_energy": 6.4 
		},
		"coords": [
			{
				"x": -0.4703181256,
				"y": -2.4563029452,
				"z": -1.830822684,
				"element": "O" 
			},
			{
				"x": -1.4928955547,
				"y": -2.4130012788,
				"z": -0.960909866,
				"element": "C" 
			},
			{
				"x": -2.2865731345,
				"y": -3.3189597421,
				"z": -0.8789484602,
				"element": "O" 
			},
			{
				"x": -1.6091180851,
				"y": -1.1642823877,
				"z": -0.0797567604,
				"element": "C" 
			},
			{
				"x": -0.3079911342,
				"y": -1.1738228903,
				"z": 1.2480122841,
				"element": "S" 
			},
			{
				"x": 0.098604226,
				"y": 0.55965181,
				"z": 1.4266281148,
				"element": "C" 
			},
			{
				"x": 0.7161197991,
				"y": 1.3072915554,
				"z": 0.3936897022,
				"element": "C" 
			},
			{
				"x": 1.0863557223,
				"y": 2.6453810616,
				"z": 0.5988044491,
				"element": "C" 
			},
			{
				"x": 0.874760841,
				"y": 3.2400982717,
				"z": 1.8397648706,
				"element": "C" 
			},
			{
				"x": 0.2867394682,
				"y": 2.5046120941,
				"z": 2.8704426668,
				"element": "C" 
			},
			{
				"x": -0.1046124795,
				"y": 1.1799943922,
				"z": 2.6633151724,
				"element": "C" 
			},
			{
				"x": 0.9525523503,
				"y": 0.6817369683,
				"z": -0.8709874272,
				"element": "C" 
			},
			{
				"x": 1.0942037258,
				"y": 0.1240572587,
				"z": -1.8828654978,
				"element": "N" 
			},
			{
				"x": 0.0788055352,
				"y": -1.6500917753,
				"z": -1.8187261361,
				"element": "H" 
			},
			{
				"x": -1.4979016308,
				"y": -0.2578096792,
				"z": -0.6781149041,
				"element": "H" 
			},
			{
				"x": -2.5916901935,
				"y": -1.1793186197,
				"z": 0.3898987357,
				"element": "H" 
			},
			{
				"x": 1.5471169009,
				"y": 3.1997494527,
				"z": -0.2119894306,
				"element": "H" 
			},
			{
				"x": 1.1685779194,
				"y": 4.2721796805,
				"z": 2.0005727886,
				"element": "H" 
			},
			{
				"x": 0.1193345022,
				"y": 2.9656407421,
				"z": 3.8391313611,
				"element": "H" 
			},
			{
				"x": -0.5771706526,
				"y": 0.616996031,
				"z": 3.4610610209,
				"element": "H" 
			}
		],
		 "valence_orbital": [ 
			{
				"type": "occ",
				"energy": -0.30795,
				"method": "rhf"
			},
			{
				"type": "occ",
				"energy": -0.30109,
				"method": "rhf"
			},
			{
				"type": "occ",
				"energy": -0.29214,
				"method": "rhf"
			},
			{
				"type": "occ",
				"energy": -0.26737,
				"method": "rhf"
			},
			{
				"type": "occ",
				"energy": -0.25272,
				"method": "rhf"
			},
			{
				"type": "unocc",
				"energy": -0.08252,
				"method": "rhf"
			},
			{
				"type": "unocc",
				"energy": -0.05101,
				"method": "rhf"
			},
			{
				"type": "unocc",
				"energy": -0.00905,
				"method": "rhf"
			},
			{
				"type": "unocc",
				"energy": -0.00654,
				"method": "rhf"
			},
			{
				"type": "unocc",
				"energy": 0.01552,
				"method": "rhf"
			}
		],
		"cosmo_sigma_profile": { 
			"-0.025": 0.0,
			"-0.024": 0.0,
			"-0.023": 0.0,
			"-0.022": 0.0,
			"-0.021": 0.0,
			"-0.02": 0.0,
			"-0.019": 0.0,
			"-0.018": 0.0,
			"-0.017": 0.0,
			"-0.016": 0.0,
			"-0.015": 0.0,
			"-0.014": 0.0,
			"-0.013": 0.0,
			"-0.012": 0.093306425776,
			"-0.011": 0.435307679567,
			"-0.01": 0.73715518345,
			"-0.009": 3.28712232321,
			"-0.008": 9.29822218385,
			"-0.007": 14.0850856743,
			"-0.006": 13.5918670367,
			"-0.005": 12.0526713104,
			"-0.004": 12.6722654117,
			"-0.003": 14.1254325502,
			"-0.002": 14.4417915711,
			"-0.001": 15.3565621105,
			"0.0": 15.3651743199,
			"0.001": 17.3117739642,
			"0.002": 15.1695059629,
			"0.003": 5.97454288175,
			"0.004": 6.32894539161,
			"0.005": 7.11975479583,
			"0.006": 5.33645634877,
			"0.007": 5.71726879539,
			"0.008": 4.59182038289,
			"0.009": 5.91165433836,
			"0.01": 6.42222004279,
			"0.011": 6.1014786466,
			"0.012": 4.72408675735,
			"0.013": 1.07092797085,
			"0.014": 0.0,
			"0.015": 0.0,
			"0.016": 0.0,
			"0.017": 0.0,
			"0.018": 0.0,
			"0.019": 0.0,
			"0.02": 0.0,
			"0.021": 0.0,
			"0.022": 0.0,
			"0.023": 0.0,
			"0.024": 0.0,
			"0.025": 0.0
		}
	}
}
