{
	 "smiles": "NC1=C(O)C=C(C(Cl)=C1)[N+]([O-])=O", 
	 "Tm": 499.15, 
	 "num_atms": 17, 
	 "gaussian": { 
		 "optdone": 1, 
		 "sigma_profile": "yes", 
		 "theory": "DFT", 
		 "functional": "B3LYP", 
		 "basiset": "6-31G**", 
		 "properties": { 
			 "R2extent": 2491.305, 
			 "electric_dipole_moment_norm": 7.5009661971, 
			 "electric_quadrupole_moment_norm": 6.92159935564, 
			 "total_energy": -1026.90383822, 
			 "HOMO_LUMO_gap": 0.156, 
			 "cosmo_polarized_energy": -17.93, 
			 "cosmo_cavitation_energy": 23.94, 
			 "cosmo_dispersion_energy": -18.06, 
			 "cosmo_repulsion_energy": 1.44, 
			 "cosmo_total_nonelectrostatic_energy": 7.32, 
			 "SMD_solvation_energy": 6.42 
		},
		"coords": [
			{
				"x": 2.3064860873,
				"y": -2.3420261082,
				"z": 0.972545527,
				"element": "N" 
			},
			{
				"x": 1.2563785736,
				"y": -1.5191921771,
				"z": 0.5418989242,
				"element": "C" 
			},
			{
				"x": 1.4830238787,
				"y": -0.1248650392,
				"z": 0.530154667,
				"element": "C" 
			},
			{
				"x": 2.6978839179,
				"y": 0.3739420735,
				"z": 0.9080072136,
				"element": "O" 
			},
			{
				"x": 0.4799597138,
				"y": 0.7361799858,
				"z": 0.1245676393,
				"element": "C" 
			},
			{
				"x": -0.7689363839,
				"y": 0.2395409259,
				"z": -0.2699078934,
				"element": "C" 
			},
			{
				"x": -1.0267631774,
				"y": -1.1392478775,
				"z": -0.216833936,
				"element": "C" 
			},
			{
				"x": -2.5663918291,
				"y": -1.8728822842,
				"z": -0.5851588352,
				"element": "Cl" 
			},
			{
				"x": -0.0055471674,
				"y": -2.0010846143,
				"z": 0.1917905815,
				"element": "C" 
			},
			{
				"x": -1.750596496,
				"y": 1.2388448449,
				"z": -0.7113116766,
				"element": "N" 
			},
			{
				"x": -2.6610065494,
				"y": 0.8780732762,
				"z": -1.4518142957,
				"element": "O" 
			},
			{
				"x": -1.5803598773,
				"y": 2.3968426711,
				"z": -0.3232130507,
				"element": "O" 
			},
			{
				"x": 3.1791972727,
				"y": -2.1660520051,
				"z": 0.484325191,
				"element": "H" 
			},
			{
				"x": 2.0895117769,
				"y": -3.3307785274,
				"z": 0.9610666147,
				"element": "H" 
			},
			{
				"x": 3.0722061709,
				"y": -0.2318075541,
				"z": 1.567459127,
				"element": "H" 
			},
			{
				"x": 0.6467654974,
				"y": 1.8052445077,
				"z": 0.1244181535,
				"element": "H" 
			},
			{
				"x": -0.2047114089,
				"y": -3.0672320979,
				"z": 0.220106049,
				"element": "H" 
			}
		],
		 "valence_orbital": [ 
			{
				"type": "occ",
				"energy": -0.30132,
				"method": "rhf"
			},
			{
				"type": "occ",
				"energy": -0.29709,
				"method": "rhf"
			},
			{
				"type": "occ",
				"energy": -0.28129,
				"method": "rhf"
			},
			{
				"type": "occ",
				"energy": -0.26218,
				"method": "rhf"
			},
			{
				"type": "occ",
				"energy": -0.23708,
				"method": "rhf"
			},
			{
				"type": "unocc",
				"energy": -0.08108,
				"method": "rhf"
			},
			{
				"type": "unocc",
				"energy": -0.02583,
				"method": "rhf"
			},
			{
				"type": "unocc",
				"energy": 0.00025,
				"method": "rhf"
			},
			{
				"type": "unocc",
				"energy": 0.0164,
				"method": "rhf"
			},
			{
				"type": "unocc",
				"energy": 0.03925,
				"method": "rhf"
			}
		],
		"cosmo_sigma_profile": { 
			"-0.025": 0.0,
			"-0.024": 0.0,
			"-0.023": 0.0,
			"-0.022": 0.0,
			"-0.021": 0.0,
			"-0.02": 0.0,
			"-0.019": 0.0,
			"-0.018": 0.0,
			"-0.017": 0.0,
			"-0.016": 0.491309092624,
			"-0.015": 0.74266125397,
			"-0.014": 3.17535529874,
			"-0.013": 4.55791549556,
			"-0.012": 4.33314038524,
			"-0.011": 3.76706239788,
			"-0.01": 4.55801707161,
			"-0.009": 3.21756354245,
			"-0.008": 3.22276912564,
			"-0.007": 3.90890904171,
			"-0.006": 6.26370548278,
			"-0.005": 5.60637651954,
			"-0.004": 5.70601475248,
			"-0.003": 8.33757094874,
			"-0.002": 8.65985799243,
			"-0.001": 10.0046972965,
			"0.0": 18.8345047369,
			"0.001": 19.6252043134,
			"0.002": 10.1556619188,
			"0.003": 10.3030251461,
			"0.004": 10.6742197056,
			"0.005": 6.32776265779,
			"0.006": 5.19972061045,
			"0.007": 6.85154900731,
			"0.008": 13.0575390536,
			"0.009": 8.38856832237,
			"0.01": 5.90854555316,
			"0.011": 1.60411086275,
			"0.012": 0.0,
			"0.013": 0.0,
			"0.014": 0.0,
			"0.015": 0.0,
			"0.016": 0.0,
			"0.017": 0.0,
			"0.018": 0.0,
			"0.019": 0.0,
			"0.02": 0.0,
			"0.021": 0.0,
			"0.022": 0.0,
			"0.023": 0.0,
			"0.024": 0.0,
			"0.025": 0.0
		}
	}
}
