{
	 "smiles": "CCOC(=O)C1=CC=NC=C1", 
	 "Tm": 296.15, 
	 "num_atms": 20, 
	 "gaussian": { 
		 "optdone": 1, 
		 "sigma_profile": "yes", 
		 "theory": "DFT", 
		 "functional": "B3LYP", 
		 "basiset": "6-31G**", 
		 "properties": { 
			 "R2extent": 2601.0747, 
			 "electric_dipole_moment_norm": 2.59204508256, 
			 "electric_quadrupole_moment_norm": 5.23648759857, 
			 "total_energy": -515.484267878, 
			 "HOMO_LUMO_gap": 0.19707, 
			 "cosmo_polarized_energy": -8.06, 
			 "cosmo_cavitation_energy": 24.41, 
			 "cosmo_dispersion_energy": -17.89, 
			 "cosmo_repulsion_energy": 1.45, 
			 "cosmo_total_nonelectrostatic_energy": 7.96, 
			 "SMD_solvation_energy": 4.08 
		},
		"coords": [
			{
				"x": -3.4073700475,
				"y": -1.0408697635,
				"z": 0.8973770022,
				"element": "C" 
			},
			{
				"x": -2.4904829611,
				"y": -0.0818499465,
				"z": 0.1536107921,
				"element": "C" 
			},
			{
				"x": -1.1189174473,
				"y": -0.2079720675,
				"z": 0.6054731784,
				"element": "O" 
			},
			{
				"x": -0.3772434866,
				"y": -1.1702607395,
				"z": 0.0198630363,
				"element": "C" 
			},
			{
				"x": -0.7871800964,
				"y": -1.9146502908,
				"z": -0.849004328,
				"element": "O" 
			},
			{
				"x": 1.0175302038,
				"y": -1.214203837,
				"z": 0.5605216818,
				"element": "C" 
			},
			{
				"x": 1.9048958014,
				"y": -2.1594124713,
				"z": 0.0378970449,
				"element": "C" 
			},
			{
				"x": 3.2041492703,
				"y": -2.2007000304,
				"z": 0.5409047883,
				"element": "C" 
			},
			{
				"x": 3.6555390159,
				"y": -1.383543493,
				"z": 1.5022065525,
				"element": "N" 
			},
			{
				"x": 2.7951650964,
				"y": -0.4832337615,
				"z": 1.9944404217,
				"element": "C" 
			},
			{
				"x": 1.4740761874,
				"y": -0.3544930924,
				"z": 1.564280605,
				"element": "C" 
			},
			{
				"x": -3.3382229969,
				"y": -0.8880836468,
				"z": 1.9783351597,
				"element": "H" 
			},
			{
				"x": -3.1480986465,
				"y": -2.0771154635,
				"z": 0.6676407714,
				"element": "H" 
			},
			{
				"x": -4.4451468167,
				"y": -0.871178245,
				"z": 0.5919005561,
				"element": "H" 
			},
			{
				"x": -2.7463245305,
				"y": 0.9601518629,
				"z": 0.3587468471,
				"element": "H" 
			},
			{
				"x": -2.5215446977,
				"y": -0.2599898991,
				"z": -0.9236743669,
				"element": "H" 
			},
			{
				"x": 1.5732872984,
				"y": -2.8368853365,
				"z": -0.7409746312,
				"element": "H" 
			},
			{
				"x": 3.9181874366,
				"y": -2.9251528582,
				"z": 0.1538956176,
				"element": "H" 
			},
			{
				"x": 3.1807297757,
				"y": 0.1710196628,
				"z": 2.7742153965,
				"element": "H" 
			},
			{
				"x": 0.8176716414,
				"y": 0.391623417,
				"z": 1.9958438746,
				"element": "H" 
			}
		],
		 "valence_orbital": [ 
			{
				"type": "occ",
				"energy": -0.30795,
				"method": "rhf"
			},
			{
				"type": "occ",
				"energy": -0.29249,
				"method": "rhf"
			},
			{
				"type": "occ",
				"energy": -0.28481,
				"method": "rhf"
			},
			{
				"type": "occ",
				"energy": -0.26929,
				"method": "rhf"
			},
			{
				"type": "occ",
				"energy": -0.26064,
				"method": "rhf"
			},
			{
				"type": "unocc",
				"energy": -0.06357,
				"method": "rhf"
			},
			{
				"type": "unocc",
				"energy": -0.01727,
				"method": "rhf"
			},
			{
				"type": "unocc",
				"energy": 0.04548,
				"method": "rhf"
			},
			{
				"type": "unocc",
				"energy": 0.09907,
				"method": "rhf"
			},
			{
				"type": "unocc",
				"energy": 0.10688,
				"method": "rhf"
			}
		],
		"cosmo_sigma_profile": { 
			"-0.025": 0.0,
			"-0.024": 0.0,
			"-0.023": 0.0,
			"-0.022": 0.0,
			"-0.021": 0.0,
			"-0.02": 0.0,
			"-0.019": 0.0,
			"-0.018": 0.0,
			"-0.017": 0.0,
			"-0.016": 0.0,
			"-0.015": 0.0,
			"-0.014": 0.0,
			"-0.013": 0.0,
			"-0.012": 0.0,
			"-0.011": 0.0,
			"-0.01": 0.0,
			"-0.009": 0.0,
			"-0.008": 0.126695488789,
			"-0.007": 5.32622088008,
			"-0.006": 10.8234025186,
			"-0.005": 12.1892779751,
			"-0.004": 16.9446060148,
			"-0.003": 19.3163844132,
			"-0.002": 16.994171709,
			"-0.001": 18.1541905673,
			"0.0": 23.713408672,
			"0.001": 21.2701103182,
			"0.002": 8.97070688264,
			"0.003": 5.61360327772,
			"0.004": 6.29485876519,
			"0.005": 5.20256077558,
			"0.006": 2.01171287081,
			"0.007": 2.70421327072,
			"0.008": 2.92600518782,
			"0.009": 2.98734572391,
			"0.01": 2.69827857175,
			"0.011": 4.54598412182,
			"0.012": 2.396852911,
			"0.013": 1.267208892,
			"0.014": 0.74573846052,
			"0.015": 0.811304144939,
			"0.016": 0.62030913061,
			"0.017": 0.0210198438575,
			"0.018": 0.0,
			"0.019": 0.0,
			"0.02": 0.0,
			"0.021": 0.0,
			"0.022": 0.0,
			"0.023": 0.0,
			"0.024": 0.0,
			"0.025": 0.0
		}
	}
}
