{
	 "smiles": "FC(F)(F)COC(=O)NC1=CC=CC=C1", 
	 "Tm": 336.65, 
	 "num_atms": 23, 
	 "gaussian": { 
		 "optdone": 1, 
		 "sigma_profile": "yes", 
		 "theory": "DFT", 
		 "functional": "B3LYP", 
		 "basiset": "6-31G**", 
		 "properties": { 
			 "R2extent": 3950.8813, 
			 "electric_dipole_moment_norm": 2.30888369997, 
			 "electric_quadrupole_moment_norm": 8.49175095725, 
			 "total_energy": -852.523594561, 
			 "HOMO_LUMO_gap": 0.21597, 
			 "cosmo_polarized_energy": -10.42, 
			 "cosmo_cavitation_energy": 29.32, 
			 "cosmo_dispersion_energy": -20.49, 
			 "cosmo_repulsion_energy": 1.55, 
			 "cosmo_total_nonelectrostatic_energy": 10.38, 
			 "SMD_solvation_energy": 7.28 
		},
		"coords": [
			{
				"x": 1.1723755576,
				"y": -2.7669521726,
				"z": 0.6574974166,
				"element": "F" 
			},
			{
				"x": 0.2814109086,
				"y": -2.3777205251,
				"z": 1.5869753026,
				"element": "C" 
			},
			{
				"x": -0.9114031329,
				"y": -2.2313539638,
				"z": 0.9714506334,
				"element": "F" 
			},
			{
				"x": 0.1603136082,
				"y": -3.3624511741,
				"z": 2.4997772779,
				"element": "F" 
			},
			{
				"x": 0.7146169455,
				"y": -1.0935871319,
				"z": 2.2725989077,
				"element": "C" 
			},
			{
				"x": 0.7660904364,
				"y": -0.0518125555,
				"z": 1.3067598675,
				"element": "O" 
			},
			{
				"x": 2.0127349643,
				"y": 0.3274988747,
				"z": 0.8956575505,
				"element": "C" 
			},
			{
				"x": 3.04880208,
				"y": -0.0426012075,
				"z": 1.4116693622,
				"element": "O" 
			},
			{
				"x": 1.9633819558,
				"y": 1.2048762125,
				"z": -0.1529989067,
				"element": "N" 
			},
			{
				"x": 0.8889093428,
				"y": 1.7380563404,
				"z": -0.9078589428,
				"element": "C" 
			},
			{
				"x": 1.1306840596,
				"y": 2.9443810636,
				"z": -1.5827123693,
				"element": "C" 
			},
			{
				"x": 0.1459541626,
				"y": 3.5159852128,
				"z": -2.3843807015,
				"element": "C" 
			},
			{
				"x": -1.0980549045,
				"y": 2.8978469177,
				"z": -2.5184517014,
				"element": "C" 
			},
			{
				"x": -1.3358393073,
				"y": 1.6973546303,
				"z": -1.8482647326,
				"element": "C" 
			},
			{
				"x": -0.3549307013,
				"y": 1.1063418298,
				"z": -1.0517275443,
				"element": "C" 
			},
			{
				"x": 1.6909129001,
				"y": -1.2398688056,
				"z": 2.737551555,
				"element": "H" 
			},
			{
				"x": -0.0330711192,
				"y": -0.8224408622,
				"z": 3.0204754089,
				"element": "H" 
			},
			{
				"x": 2.8832681643,
				"y": 1.5581769693,
				"z": -0.3760129826,
				"element": "H" 
			},
			{
				"x": 2.0941346214,
				"y": 3.4361464909,
				"z": -1.4716157297,
				"element": "H" 
			},
			{
				"x": 0.3530695386,
				"y": 4.4498198098,
				"z": -2.898809771,
				"element": "H" 
			},
			{
				"x": -1.8694874817,
				"y": 3.3436759905,
				"z": -3.1385256089,
				"element": "H" 
			},
			{
				"x": -2.2962186143,
				"y": 1.2001929245,
				"z": -1.9502831438,
				"element": "H" 
			},
			{
				"x": -0.5547539846,
				"y": 0.1697351313,
				"z": -0.5504711478,
				"element": "H" 
			}
		],
		 "valence_orbital": [ 
			{
				"type": "occ",
				"energy": -0.32165,
				"method": "rhf"
			},
			{
				"type": "occ",
				"energy": -0.31019,
				"method": "rhf"
			},
			{
				"type": "occ",
				"energy": -0.29352,
				"method": "rhf"
			},
			{
				"type": "occ",
				"energy": -0.25741,
				"method": "rhf"
			},
			{
				"type": "occ",
				"energy": -0.22816,
				"method": "rhf"
			},
			{
				"type": "unocc",
				"energy": -0.01219,
				"method": "rhf"
			},
			{
				"type": "unocc",
				"energy": -0.00798,
				"method": "rhf"
			},
			{
				"type": "unocc",
				"energy": 0.05025,
				"method": "rhf"
			},
			{
				"type": "unocc",
				"energy": 0.06928,
				"method": "rhf"
			},
			{
				"type": "unocc",
				"energy": 0.09112,
				"method": "rhf"
			}
		],
		"cosmo_sigma_profile": { 
			"-0.025": 0.0,
			"-0.024": 0.0,
			"-0.023": 0.0,
			"-0.022": 0.0,
			"-0.021": 0.0,
			"-0.02": 0.0,
			"-0.019": 0.0,
			"-0.018": 0.0,
			"-0.017": 0.0,
			"-0.016": 0.076229395387,
			"-0.015": 0.946627051518,
			"-0.014": 1.00796608145,
			"-0.013": 1.46802907614,
			"-0.012": 0.785899550118,
			"-0.011": 1.07973227009,
			"-0.01": 1.87366860974,
			"-0.009": 4.17801256478,
			"-0.008": 5.14318485909,
			"-0.007": 5.33067667203,
			"-0.006": 9.50801220986,
			"-0.005": 11.8698633809,
			"-0.004": 12.7998090269,
			"-0.003": 12.9636160075,
			"-0.002": 14.3176481002,
			"-0.001": 16.0774788254,
			"0.0": 14.1154265199,
			"0.001": 16.8101032052,
			"0.002": 34.0361524883,
			"0.003": 26.8607424871,
			"0.004": 10.4900118051,
			"0.005": 13.3459948275,
			"0.006": 6.43415041106,
			"0.007": 1.3685278913,
			"0.008": 0.976661122778,
			"0.009": 1.05651591854,
			"0.01": 1.92393323893,
			"0.011": 2.53254691363,
			"0.012": 4.66862634494,
			"0.013": 0.720848055633,
			"0.014": 0.0,
			"0.015": 0.0,
			"0.016": 0.0,
			"0.017": 0.0,
			"0.018": 0.0,
			"0.019": 0.0,
			"0.02": 0.0,
			"0.021": 0.0,
			"0.022": 0.0,
			"0.023": 0.0,
			"0.024": 0.0,
			"0.025": 0.0
		}
	}
}
