{
	 "smiles": "CC(NC1=C(Cl)C=C(Cl)C=C1)C(O)=O", 
	 "Tm": 420.15, 
	 "num_atms": 23, 
	 "gaussian": { 
		 "optdone": 1, 
		 "sigma_profile": "yes", 
		 "theory": "DFT", 
		 "functional": "B3LYP", 
		 "basiset": "6-31G**", 
		 "properties": { 
			 "R2extent": 4426.6528, 
			 "electric_dipole_moment_norm": 3.01112125628, 
			 "electric_quadrupole_moment_norm": 16.2839621883, 
			 "total_energy": -1473.964532, 
			 "HOMO_LUMO_gap": 0.20812, 
			 "cosmo_polarized_energy": -14.99, 
			 "cosmo_cavitation_energy": 30.05, 
			 "cosmo_dispersion_energy": -21.86, 
			 "cosmo_repulsion_energy": 1.72, 
			 "cosmo_total_nonelectrostatic_energy": 9.9, 
			 "SMD_solvation_energy": 4.7 
		},
		"coords": [
			{
				"x": 2.3690693036,
				"y": 0.5014649077,
				"z": 1.4982490012,
				"element": "C" 
			},
			{
				"x": 1.3204343114,
				"y": 1.2169940342,
				"z": 2.3638940247,
				"element": "C" 
			},
			{
				"x": 0.2150942292,
				"y": 1.8022778157,
				"z": 1.5939688157,
				"element": "N" 
			},
			{
				"x": -0.2242140283,
				"y": 1.1554846483,
				"z": 0.4004453807,
				"element": "C" 
			},
			{
				"x": 0.2330121337,
				"y": 1.57565755,
				"z": -0.8624628212,
				"element": "C" 
			},
			{
				"x": 1.387936676,
				"y": 2.8903895901,
				"z": -1.0026552005,
				"element": "Cl" 
			},
			{
				"x": -0.2293633967,
				"y": 0.9925232741,
				"z": -2.0424725451,
				"element": "C" 
			},
			{
				"x": -1.1864455784,
				"y": -0.0167436587,
				"z": -1.9664537865,
				"element": "C" 
			},
			{
				"x": -1.7788681945,
				"y": -0.745696881,
				"z": -3.4499220049,
				"element": "Cl" 
			},
			{
				"x": -1.6818213765,
				"y": -0.4473394869,
				"z": -0.7371026986,
				"element": "C" 
			},
			{
				"x": -1.1904149254,
				"y": 0.1363068262,
				"z": 0.4281115864,
				"element": "C" 
			},
			{
				"x": 0.7751747969,
				"y": 0.2942559914,
				"z": 3.4776200447,
				"element": "C" 
			},
			{
				"x": 1.6933889193,
				"y": -0.2399023167,
				"z": 4.3165976779,
				"element": "O" 
			},
			{
				"x": -0.4005004657,
				"y": 0.0743674408,
				"z": 3.6508652458,
				"element": "O" 
			},
			{
				"x": 3.2327989288,
				"y": 0.1927291576,
				"z": 2.0961326185,
				"element": "H" 
			},
			{
				"x": 2.7362409386,
				"y": 1.1758285845,
				"z": 0.723425487,
				"element": "H" 
			},
			{
				"x": 1.9550852007,
				"y": -0.389553097,
				"z": 1.0199760351,
				"element": "H" 
			},
			{
				"x": 1.8263279392,
				"y": 2.0432259811,
				"z": 2.889043222,
				"element": "H" 
			},
			{
				"x": -0.5776680776,
				"y": 1.8787078332,
				"z": 2.2255319954,
				"element": "H" 
			},
			{
				"x": 0.1391014061,
				"y": 1.3355380944,
				"z": -3.0012692464,
				"element": "H" 
			},
			{
				"x": -2.4300096247,
				"y": -1.2305584561,
				"z": -0.6921623522,
				"element": "H" 
			},
			{
				"x": -1.5470202727,
				"y": -0.1989432922,
				"z": 1.3970389692,
				"element": "H" 
			},
			{
				"x": 2.5862611572,
				"y": 0.0351854594,
				"z": 4.063700551,
				"element": "H" 
			}
		],
		 "valence_orbital": [ 
			{
				"type": "occ",
				"energy": -0.31507,
				"method": "rhf"
			},
			{
				"type": "occ",
				"energy": -0.29055,
				"method": "rhf"
			},
			{
				"type": "occ",
				"energy": -0.27036,
				"method": "rhf"
			},
			{
				"type": "occ",
				"energy": -0.26158,
				"method": "rhf"
			},
			{
				"type": "occ",
				"energy": -0.23431,
				"method": "rhf"
			},
			{
				"type": "unocc",
				"energy": -0.02619,
				"method": "rhf"
			},
			{
				"type": "unocc",
				"energy": -0.02429,
				"method": "rhf"
			},
			{
				"type": "unocc",
				"energy": -0.00703,
				"method": "rhf"
			},
			{
				"type": "unocc",
				"energy": 0.0076,
				"method": "rhf"
			},
			{
				"type": "unocc",
				"energy": 0.03532,
				"method": "rhf"
			}
		],
		"cosmo_sigma_profile": { 
			"-0.025": 0.0,
			"-0.024": 0.0,
			"-0.023": 0.0,
			"-0.022": 0.0,
			"-0.021": 0.0,
			"-0.02": 0.0015804532733,
			"-0.019": 0.605972193454,
			"-0.018": 1.11675040513,
			"-0.017": 1.47657153674,
			"-0.016": 0.685986429871,
			"-0.015": 1.35343382169,
			"-0.014": 0.854653296229,
			"-0.013": 0.840619668894,
			"-0.012": 1.25852024635,
			"-0.011": 1.57074952936,
			"-0.01": 1.25432362598,
			"-0.009": 2.63662267559,
			"-0.008": 6.2348931733,
			"-0.007": 8.05500463327,
			"-0.006": 7.44951820427,
			"-0.005": 10.3253586994,
			"-0.004": 10.5384398721,
			"-0.003": 12.9125207093,
			"-0.002": 17.4301276506,
			"-0.001": 18.1390034633,
			"0.0": 17.6998381001,
			"0.001": 23.8234469423,
			"0.002": 24.9738214431,
			"0.003": 15.4223804427,
			"0.004": 18.0498536514,
			"0.005": 9.58653285762,
			"0.006": 3.46538206232,
			"0.007": 3.80422923447,
			"0.008": 4.159586299,
			"0.009": 3.42228428238,
			"0.01": 5.42704747835,
			"0.011": 4.59343823923,
			"0.012": 2.89114137093,
			"0.013": 1.33488682911,
			"0.014": 0.308578179669,
			"0.015": 0.0,
			"0.016": 0.0,
			"0.017": 0.0,
			"0.018": 0.0,
			"0.019": 0.0,
			"0.02": 0.0,
			"0.021": 0.0,
			"0.022": 0.0,
			"0.023": 0.0,
			"0.024": 0.0,
			"0.025": 0.0
		}
	}
}
