{
	 "smiles": "CCOC(=O)C1(CCN(CCC(C#N)(C2=CC=CC=C2)C2=CC=CC=C2)CC1)C1=CC=CC=C1", 
	 "Tm": 494.15, 
	 "num_atms": 66, 
	 "gaussian": { 
		 "optdone": 1, 
		 "sigma_profile": "yes", 
		 "theory": "DFT", 
		 "functional": "B3LYP", 
		 "basiset": "6-31G**", 
		 "properties": { 
			 "R2extent": 20708.7005, 
			 "electric_dipole_moment_norm": 2.52820197769, 
			 "electric_quadrupole_moment_norm": 29.7979478978, 
			 "total_energy": -1422.41495518, 
			 "HOMO_LUMO_gap": 0.18665, 
			 "cosmo_polarized_energy": -18.71, 
			 "cosmo_cavitation_energy": 66.2, 
			 "cosmo_dispersion_energy": -41.73, 
			 "cosmo_repulsion_energy": 3.17, 
			 "cosmo_total_nonelectrostatic_energy": 27.64, 
			 "SMD_solvation_energy": 11.5 
		},
		"coords": [
			{
				"x": -0.759313398,
				"y": -5.0944978264,
				"z": -1.5579054839,
				"element": "C" 
			},
			{
				"x": -0.7354053654,
				"y": -4.4186889318,
				"z": -0.200023775,
				"element": "C" 
			},
			{
				"x": -1.7816836877,
				"y": -3.4211627877,
				"z": -0.1906264214,
				"element": "O" 
			},
			{
				"x": -1.8948297645,
				"y": -2.7036792816,
				"z": 0.949133163,
				"element": "C" 
			},
			{
				"x": -1.1941132945,
				"y": -2.8951879176,
				"z": 1.9218880142,
				"element": "O" 
			},
			{
				"x": -3.0536367957,
				"y": -1.6874659464,
				"z": 0.9159726556,
				"element": "C" 
			},
			{
				"x": -3.2874909816,
				"y": -1.0952536871,
				"z": -0.503366096,
				"element": "C" 
			},
			{
				"x": -2.218210364,
				"y": -0.0323036087,
				"z": -0.8650394015,
				"element": "C" 
			},
			{
				"x": -1.0481244539,
				"y": -0.1995127095,
				"z": -0.01100589,
				"element": "N" 
			},
			{
				"x": 0.2127058943,
				"y": 0.3083742491,
				"z": -0.5333468504,
				"element": "C" 
			},
			{
				"x": 0.2929517604,
				"y": 1.8407343252,
				"z": -0.7162009828,
				"element": "C" 
			},
			{
				"x": 1.6416963785,
				"y": 2.3461094141,
				"z": -1.320837203,
				"element": "C" 
			},
			{
				"x": 1.7937875852,
				"y": 1.7054887295,
				"z": -2.6460305089,
				"element": "C" 
			},
			{
				"x": 1.8865807103,
				"y": 1.1969708564,
				"z": -3.6861418193,
				"element": "N" 
			},
			{
				"x": 1.6540461931,
				"y": 3.8782773511,
				"z": -1.5635642893,
				"element": "C" 
			},
			{
				"x": 2.7743405681,
				"y": 4.4489369045,
				"z": -2.1873666784,
				"element": "C" 
			},
			{
				"x": 2.8414256213,
				"y": 5.8196860365,
				"z": -2.4197954731,
				"element": "C" 
			},
			{
				"x": 1.788182162,
				"y": 6.650638747,
				"z": -2.0278371391,
				"element": "C" 
			},
			{
				"x": 0.6724496653,
				"y": 6.0944363528,
				"z": -1.4069786941,
				"element": "C" 
			},
			{
				"x": 0.603050169,
				"y": 4.7161387405,
				"z": -1.1783611052,
				"element": "C" 
			},
			{
				"x": 2.8164360383,
				"y": 1.9542590135,
				"z": -0.3932407857,
				"element": "C" 
			},
			{
				"x": 2.9361127153,
				"y": 2.599587335,
				"z": 0.8464639657,
				"element": "C" 
			},
			{
				"x": 3.95490434,
				"y": 2.2546519151,
				"z": 1.7319593545,
				"element": "C" 
			},
			{
				"x": 4.8772168488,
				"y": 1.2620186887,
				"z": 1.390885713,
				"element": "C" 
			},
			{
				"x": 4.7693267884,
				"y": 0.6210003729,
				"z": 0.1582650379,
				"element": "C" 
			},
			{
				"x": 3.744631037,
				"y": 0.9630417268,
				"z": -0.7289343479,
				"element": "C" 
			},
			{
				"x": -1.3235534201,
				"y": 0.1258828793,
				"z": 1.3858291917,
				"element": "C" 
			},
			{
				"x": -2.653102139,
				"y": -0.5206516026,
				"z": 1.8420121331,
				"element": "C" 
			},
			{
				"x": -4.323090936,
				"y": -2.4288308549,
				"z": 1.3802645931,
				"element": "C" 
			},
			{
				"x": -4.7951854383,
				"y": -3.5305667616,
				"z": 0.6457345591,
				"element": "C" 
			},
			{
				"x": -5.9552359859,
				"y": -4.2048226739,
				"z": 1.023226533,
				"element": "C" 
			},
			{
				"x": -6.674801017,
				"y": -3.7947868847,
				"z": 2.1472526686,
				"element": "C" 
			},
			{
				"x": -6.2170658519,
				"y": -2.7063298254,
				"z": 2.8873416757,
				"element": "C" 
			},
			{
				"x": -5.0533320439,
				"y": -2.0320657171,
				"z": 2.5086199569,
				"element": "C" 
			},
			{
				"x": 0.0262898591,
				"y": -5.8550166199,
				"z": -1.6078993207,
				"element": "H" 
			},
			{
				"x": -1.7212391618,
				"y": -5.5841698671,
				"z": -1.7367726825,
				"element": "H" 
			},
			{
				"x": -0.5870718155,
				"y": -4.3699463969,
				"z": -2.3590334566,
				"element": "H" 
			},
			{
				"x": 0.2202852666,
				"y": -3.9228764237,
				"z": -0.0043438494,
				"element": "H" 
			},
			{
				"x": -0.912705524,
				"y": -5.1256264848,
				"z": 0.6165401143,
				"element": "H" 
			},
			{
				"x": -3.2863336846,
				"y": -1.9006252997,
				"z": -1.2390486148,
				"element": "H" 
			},
			{
				"x": -4.2839548959,
				"y": -0.6421233349,
				"z": -0.5222892682,
				"element": "H" 
			},
			{
				"x": -1.9051827389,
				"y": -0.1539273247,
				"z": -1.9070586038,
				"element": "H" 
			},
			{
				"x": -2.6538058974,
				"y": 0.9819449213,
				"z": -0.7852528715,
				"element": "H" 
			},
			{
				"x": 0.393861536,
				"y": -0.1771821643,
				"z": -1.4997378087,
				"element": "H" 
			},
			{
				"x": 1.0099423117,
				"y": -0.0194022259,
				"z": 0.1428972592,
				"element": "H" 
			},
			{
				"x": -0.5220781981,
				"y": 2.1714528889,
				"z": -1.3686638004,
				"element": "H" 
			},
			{
				"x": 0.159801395,
				"y": 2.3346447257,
				"z": 0.2509445803,
				"element": "H" 
			},
			{
				"x": 3.5990553661,
				"y": 3.8109488469,
				"z": -2.4919028505,
				"element": "H" 
			},
			{
				"x": 3.7164071117,
				"y": 6.2398375015,
				"z": -2.9071377397,
				"element": "H" 
			},
			{
				"x": 1.8389899933,
				"y": 7.7205377052,
				"z": -2.2072409309,
				"element": "H" 
			},
			{
				"x": -0.1539731671,
				"y": 6.7284709361,
				"z": -1.0988425949,
				"element": "H" 
			},
			{
				"x": -0.2803938325,
				"y": 4.3109518094,
				"z": -0.6990369093,
				"element": "H" 
			},
			{
				"x": 2.2384510289,
				"y": 3.3880619146,
				"z": 1.1133485439,
				"element": "H" 
			},
			{
				"x": 4.0320578398,
				"y": 2.7663321802,
				"z": 2.6870112337,
				"element": "H" 
			},
			{
				"x": 5.6734820698,
				"y": 0.9954615387,
				"z": 2.0795831384,
				"element": "H" 
			},
			{
				"x": 5.4819590744,
				"y": -0.1496488863,
				"z": -0.1210644098,
				"element": "H" 
			},
			{
				"x": 3.673015493,
				"y": 0.4553598499,
				"z": -1.6856031312,
				"element": "H" 
			},
			{
				"x": -1.3776454851,
				"y": 1.2154461398,
				"z": 1.5705477096,
				"element": "H" 
			},
			{
				"x": -0.4963086279,
				"y": -0.2676213797,
				"z": 1.9849297795,
				"element": "H" 
			},
			{
				"x": -2.5449942284,
				"y": -0.8674053771,
				"z": 2.8715611398,
				"element": "H" 
			},
			{
				"x": -3.4610046651,
				"y": 0.2191462494,
				"z": 1.823164322,
				"element": "H" 
			},
			{
				"x": -4.2414327993,
				"y": -3.8693933267,
				"z": -0.2233661122,
				"element": "H" 
			},
			{
				"x": -6.2960905329,
				"y": -5.0542614527,
				"z": 0.4375824285,
				"element": "H" 
			},
			{
				"x": -7.5788601879,
				"y": -4.3193737674,
				"z": 2.4427882426,
				"element": "H" 
			},
			{
				"x": -6.7630765948,
				"y": -2.3761291048,
				"z": 3.766798539,
				"element": "H" 
			},
			{
				"x": -4.7231158463,
				"y": -1.190894392,
				"z": 3.1068516542,
				"element": "H" 
			}
		],
		 "valence_orbital": [ 
			{
				"type": "occ",
				"energy": -0.25745,
				"method": "rhf"
			},
			{
				"type": "occ",
				"energy": -0.24621,
				"method": "rhf"
			},
			{
				"type": "occ",
				"energy": -0.245,
				"method": "rhf"
			},
			{
				"type": "occ",
				"energy": -0.23787,
				"method": "rhf"
			},
			{
				"type": "occ",
				"energy": -0.20653,
				"method": "rhf"
			},
			{
				"type": "unocc",
				"energy": -0.01988,
				"method": "rhf"
			},
			{
				"type": "unocc",
				"energy": -0.01412,
				"method": "rhf"
			},
			{
				"type": "unocc",
				"energy": -0.01307,
				"method": "rhf"
			},
			{
				"type": "unocc",
				"energy": -0.00365,
				"method": "rhf"
			},
			{
				"type": "unocc",
				"energy": -0.00164,
				"method": "rhf"
			}
		],
		"cosmo_sigma_profile": { 
			"-0.025": 0.0,
			"-0.024": 0.0,
			"-0.023": 0.0,
			"-0.022": 0.0,
			"-0.021": 0.0,
			"-0.02": 0.0,
			"-0.019": 0.0,
			"-0.018": 0.0,
			"-0.017": 0.0,
			"-0.016": 0.0,
			"-0.015": 0.0,
			"-0.014": 0.0,
			"-0.013": 0.0,
			"-0.012": 0.0,
			"-0.011": 0.0,
			"-0.01": 0.0,
			"-0.009": 0.0,
			"-0.008": 0.00257077431213,
			"-0.007": 0.479298872518,
			"-0.006": 17.2365382034,
			"-0.005": 38.4952271314,
			"-0.004": 56.7832925044,
			"-0.003": 64.9102926004,
			"-0.002": 59.3496369997,
			"-0.001": 46.9048989808,
			"0.0": 40.5532826582,
			"0.001": 28.5886793126,
			"0.002": 27.7099707879,
			"0.003": 29.6880157476,
			"0.004": 31.0888775327,
			"0.005": 31.0611297068,
			"0.006": 14.6823477433,
			"0.007": 6.3678943912,
			"0.008": 4.72959524845,
			"0.009": 4.86778783879,
			"0.01": 4.5397761244,
			"0.011": 4.73812725799,
			"0.012": 5.61895643787,
			"0.013": 4.29441192414,
			"0.014": 0.0848146890856,
			"0.015": 0.0,
			"0.016": 0.0,
			"0.017": 0.0,
			"0.018": 0.0,
			"0.019": 0.0,
			"0.02": 0.0,
			"0.021": 0.0,
			"0.022": 0.0,
			"0.023": 0.0,
			"0.024": 0.0,
			"0.025": 0.0
		}
	}
}
