{
	 "smiles": "COC(=O)C(=O)CC(C)=O", 
	 "Tm": 336.65, 
	 "num_atms": 18, 
	 "gaussian": { 
		 "optdone": 1, 
		 "sigma_profile": "yes", 
		 "theory": "DFT", 
		 "functional": "B3LYP", 
		 "basiset": "6-31G**", 
		 "properties": { 
			 "R2extent": 2253.4521, 
			 "electric_dipole_moment_norm": 3.22728714093, 
			 "electric_quadrupole_moment_norm": 10.9610807474, 
			 "total_energy": -534.340471546, 
			 "HOMO_LUMO_gap": 0.16627, 
			 "cosmo_polarized_energy": -12.89, 
			 "cosmo_cavitation_energy": 23.42, 
			 "cosmo_dispersion_energy": -16.66, 
			 "cosmo_repulsion_energy": 1.39, 
			 "cosmo_total_nonelectrostatic_energy": 8.15, 
			 "SMD_solvation_energy": 7.41 
		},
		"coords": [
			{
				"x": 0.2403762149,
				"y": 0.5587879077,
				"z": 2.9568398223,
				"element": "C" 
			},
			{
				"x": 0.0710257336,
				"y": -0.4454004886,
				"z": 1.9377795982,
				"element": "O" 
			},
			{
				"x": -0.3992421502,
				"y": -0.0003073472,
				"z": 0.7723906261,
				"element": "C" 
			},
			{
				"x": -0.6907019418,
				"y": 1.1503087403,
				"z": 0.5222128227,
				"element": "O" 
			},
			{
				"x": -0.5516905764,
				"y": -1.1498784232,
				"z": -0.2554169976,
				"element": "C" 
			},
			{
				"x": -0.2667119952,
				"y": -2.2881677365,
				"z": 0.0436049549,
				"element": "O" 
			},
			{
				"x": -1.0937876314,
				"y": -0.7050243215,
				"z": -1.603901372,
				"element": "C" 
			},
			{
				"x": -0.7296983278,
				"y": -1.6382408013,
				"z": -2.7651716003,
				"element": "C" 
			},
			{
				"x": -1.3808236764,
				"y": -3.0017419045,
				"z": -2.7936193938,
				"element": "C" 
			},
			{
				"x": 0.0500987859,
				"y": -1.26161503,
				"z": -3.6164465117,
				"element": "O" 
			},
			{
				"x": -0.7178374257,
				"y": 1.0298774743,
				"z": 3.1888804066,
				"element": "H" 
			},
			{
				"x": 0.6316602975,
				"y": 0.030095587,
				"z": 3.82472024,
				"element": "H" 
			},
			{
				"x": 0.9419705231,
				"y": 1.3260646547,
				"z": 2.6209025205,
				"element": "H" 
			},
			{
				"x": -0.7393790539,
				"y": 0.3037342298,
				"z": -1.8242700374,
				"element": "H" 
			},
			{
				"x": -2.1870988628,
				"y": -0.6443111169,
				"z": -1.4965101171,
				"element": "H" 
			},
			{
				"x": -1.0981874215,
				"y": -3.5528784413,
				"z": -1.8906826461,
				"element": "H" 
			},
			{
				"x": -1.064077869,
				"y": -3.5442086995,
				"z": -3.6852778794,
				"element": "H" 
			},
			{
				"x": -2.4730946228,
				"y": -2.9047942832,
				"z": -2.785334436,
				"element": "H" 
			}
		],
		 "valence_orbital": [ 
			{
				"type": "occ",
				"energy": -0.36125,
				"method": "rhf"
			},
			{
				"type": "occ",
				"energy": -0.3292,
				"method": "rhf"
			},
			{
				"type": "occ",
				"energy": -0.32439,
				"method": "rhf"
			},
			{
				"type": "occ",
				"energy": -0.26815,
				"method": "rhf"
			},
			{
				"type": "occ",
				"energy": -0.25245,
				"method": "rhf"
			},
			{
				"type": "unocc",
				"energy": -0.08618,
				"method": "rhf"
			},
			{
				"type": "unocc",
				"energy": -0.02238,
				"method": "rhf"
			},
			{
				"type": "unocc",
				"energy": 0.04635,
				"method": "rhf"
			},
			{
				"type": "unocc",
				"energy": 0.09598,
				"method": "rhf"
			},
			{
				"type": "unocc",
				"energy": 0.10043,
				"method": "rhf"
			}
		],
		"cosmo_sigma_profile": { 
			"-0.025": 0.0,
			"-0.024": 0.0,
			"-0.023": 0.0,
			"-0.022": 0.0,
			"-0.021": 0.0,
			"-0.02": 0.0,
			"-0.019": 0.0,
			"-0.018": 0.0,
			"-0.017": 0.0,
			"-0.016": 0.0,
			"-0.015": 0.0,
			"-0.014": 0.0,
			"-0.013": 0.0,
			"-0.012": 0.0,
			"-0.011": 0.138993994538,
			"-0.01": 1.69600189061,
			"-0.009": 5.2162044487,
			"-0.008": 4.33666789634,
			"-0.007": 9.17232014748,
			"-0.006": 13.8211583075,
			"-0.005": 15.487070219,
			"-0.004": 18.0887644392,
			"-0.003": 14.1887110128,
			"-0.002": 12.8689559641,
			"-0.001": 12.8974373744,
			"0.0": 7.65442287413,
			"0.001": 5.90629984605,
			"0.002": 5.26470367357,
			"0.003": 4.93105710517,
			"0.004": 5.070905223,
			"0.005": 4.65066808242,
			"0.006": 5.10030496576,
			"0.007": 5.07430212554,
			"0.008": 6.54757255431,
			"0.009": 6.7973323923,
			"0.01": 8.28539881618,
			"0.011": 7.89038729165,
			"0.012": 3.97805484861,
			"0.013": 0.606283437684,
			"0.014": 0.0,
			"0.015": 0.0,
			"0.016": 0.0,
			"0.017": 0.0,
			"0.018": 0.0,
			"0.019": 0.0,
			"0.02": 0.0,
			"0.021": 0.0,
			"0.022": 0.0,
			"0.023": 0.0,
			"0.024": 0.0,
			"0.025": 0.0
		}
	}
}
