{
	 "smiles": "COC1=C(OCCC(O)=O)C=CC=C1", 
	 "Tm": 407.15, 
	 "num_atms": 26, 
	 "gaussian": { 
		 "optdone": 1, 
		 "sigma_profile": "yes", 
		 "theory": "DFT", 
		 "functional": "B3LYP", 
		 "basiset": "6-31G**", 
		 "properties": { 
			 "R2extent": 3135.3436, 
			 "electric_dipole_moment_norm": 5.60442276153, 
			 "electric_quadrupole_moment_norm": 17.7108618842, 
			 "total_energy": -689.171300763, 
			 "HOMO_LUMO_gap": 0.21884, 
			 "cosmo_polarized_energy": -14.08, 
			 "cosmo_cavitation_energy": 29.01, 
			 "cosmo_dispersion_energy": -20.71, 
			 "cosmo_repulsion_energy": 1.63, 
			 "cosmo_total_nonelectrostatic_energy": 9.93, 
			 "SMD_solvation_energy": 6.81 
		},
		"coords": [
			{
				"x": -1.8062574099,
				"y": 0.6405766088,
				"z": 1.6509533052,
				"element": "C" 
			},
			{
				"x": -0.7466648161,
				"y": -0.0259861539,
				"z": 0.9466521246,
				"element": "O" 
			},
			{
				"x": -0.6209739054,
				"y": 0.3473917019,
				"z": -0.3909023553,
				"element": "C" 
			},
			{
				"x": 0.2530635398,
				"y": 1.3789612722,
				"z": -0.7866765477,
				"element": "C" 
			},
			{
				"x": 1.0270838064,
				"y": 2.1477429631,
				"z": 0.0382608153,
				"element": "O" 
			},
			{
				"x": 1.5825721293,
				"y": 1.6195935055,
				"z": 1.252244265,
				"element": "C" 
			},
			{
				"x": 2.4200141265,
				"y": 0.3429464263,
				"z": 1.0380715638,
				"element": "C" 
			},
			{
				"x": 2.4572793391,
				"y": -0.5324726631,
				"z": 2.288516061,
				"element": "C" 
			},
			{
				"x": 1.2656417563,
				"y": -1.0683906917,
				"z": 2.6420577157,
				"element": "O" 
			},
			{
				"x": 3.4525350686,
				"y": -0.7403542939,
				"z": 2.9388757333,
				"element": "O" 
			},
			{
				"x": 0.3259948054,
				"y": 1.6986303375,
				"z": -2.1511116411,
				"element": "C" 
			},
			{
				"x": -0.4398373386,
				"y": 1.0194404663,
				"z": -3.0928485504,
				"element": "C" 
			},
			{
				"x": -1.2865777402,
				"y": -0.0187152381,
				"z": -2.6945777926,
				"element": "C" 
			},
			{
				"x": -1.3676000138,
				"y": -0.3489131264,
				"z": -1.3445665418,
				"element": "C" 
			},
			{
				"x": -1.6419147118,
				"y": 1.7240946163,
				"z": 1.6713257947,
				"element": "H" 
			},
			{
				"x": -2.7720729756,
				"y": 0.4291300312,
				"z": 1.1801945053,
				"element": "H" 
			},
			{
				"x": -1.7979384708,
				"y": 0.2465296675,
				"z": 2.6689427095,
				"element": "H" 
			},
			{
				"x": 2.2158421172,
				"y": 2.4283639748,
				"z": 1.6226400953,
				"element": "H" 
			},
			{
				"x": 0.7941752391,
				"y": 1.4496865653,
				"z": 1.9881077664,
				"element": "H" 
			},
			{
				"x": 3.4450775342,
				"y": 0.587889945,
				"z": 0.7580092178,
				"element": "H" 
			},
			{
				"x": 1.978617319,
				"y": -0.2429987634,
				"z": 0.2235441952,
				"element": "H" 
			},
			{
				"x": 0.5700849973,
				"y": -0.8228273063,
				"z": 1.9986365976,
				"element": "H" 
			},
			{
				"x": 1.0033164916,
				"y": 2.4950619773,
				"z": -2.4415429214,
				"element": "H" 
			},
			{
				"x": -0.3628166524,
				"y": 1.2911709173,
				"z": -4.1412377017,
				"element": "H" 
			},
			{
				"x": -1.8743267003,
				"y": -0.5650598758,
				"z": -3.4251003004,
				"element": "H" 
			},
			{
				"x": -2.0105175348,
				"y": -1.1526928635,
				"z": -0.9981681134,
				"element": "H" 
			}
		],
		 "valence_orbital": [ 
			{
				"type": "occ",
				"energy": -0.29985,
				"method": "rhf"
			},
			{
				"type": "occ",
				"energy": -0.29664,
				"method": "rhf"
			},
			{
				"type": "occ",
				"energy": -0.26339,
				"method": "rhf"
			},
			{
				"type": "occ",
				"energy": -0.25647,
				"method": "rhf"
			},
			{
				"type": "occ",
				"energy": -0.23641,
				"method": "rhf"
			},
			{
				"type": "unocc",
				"energy": -0.01757,
				"method": "rhf"
			},
			{
				"type": "unocc",
				"energy": -0.01033,
				"method": "rhf"
			},
			{
				"type": "unocc",
				"energy": 0.0204,
				"method": "rhf"
			},
			{
				"type": "unocc",
				"energy": 0.05831,
				"method": "rhf"
			},
			{
				"type": "unocc",
				"energy": 0.0826,
				"method": "rhf"
			}
		],
		"cosmo_sigma_profile": { 
			"-0.025": 0.0,
			"-0.024": 0.0,
			"-0.023": 0.0,
			"-0.022": 0.0,
			"-0.021": 0.0,
			"-0.02": 0.0,
			"-0.019": 0.0,
			"-0.018": 0.0,
			"-0.017": 0.0,
			"-0.016": 0.0,
			"-0.015": 0.0,
			"-0.014": 0.0,
			"-0.013": 0.0,
			"-0.012": 0.00302913300497,
			"-0.011": 0.260278441903,
			"-0.01": 0.441907721558,
			"-0.009": 0.869660552934,
			"-0.008": 0.825681560336,
			"-0.007": 4.22393840763,
			"-0.006": 21.6941234865,
			"-0.005": 26.422902665,
			"-0.004": 26.552969422,
			"-0.003": 23.3422344652,
			"-0.002": 13.9783059194,
			"-0.001": 10.0669301498,
			"0.0": 10.107349547,
			"0.001": 9.53581339715,
			"0.002": 11.3873651343,
			"0.003": 11.6060588341,
			"0.004": 11.7021387428,
			"0.005": 11.6883134852,
			"0.006": 3.33519991906,
			"0.007": 2.85565444911,
			"0.008": 3.31128842811,
			"0.009": 4.88900179971,
			"0.01": 4.58626588924,
			"0.011": 5.94227946274,
			"0.012": 6.95017028537,
			"0.013": 3.27032670691,
			"0.014": 0.403294330121,
			"0.015": 0.0,
			"0.016": 0.0,
			"0.017": 0.0,
			"0.018": 0.0,
			"0.019": 0.0,
			"0.02": 0.0,
			"0.021": 0.0,
			"0.022": 0.0,
			"0.023": 0.0,
			"0.024": 0.0,
			"0.0": 0.0
		}
	}
}
