{
	 "smiles": "COC1=CC(NC(=O)C=CC(O)=O)=CC=C1", 
	 "Tm": 425.15, 
	 "num_atms": 27, 
	 "gaussian": { 
		 "optdone": 1, 
		 "sigma_profile": "yes", 
		 "theory": "DFT", 
		 "functional": "B3LYP", 
		 "basiset": "6-31G**", 
		 "properties": { 
			 "R2extent": 5144.904, 
			 "electric_dipole_moment_norm": 3.72660419283, 
			 "electric_quadrupole_moment_norm": 18.2018473082, 
			 "total_energy": -781.447658274, 
			 "HOMO_LUMO_gap": 0.11049, 
			 "cosmo_polarized_energy": -14.61, 
			 "cosmo_cavitation_energy": 32.21, 
			 "cosmo_dispersion_energy": -23.21, 
			 "cosmo_repulsion_energy": 1.79, 
			 "cosmo_total_nonelectrostatic_energy": 10.79, 
			 "SMD_solvation_energy": 7.98 
		},
		"coords": [
			{
				"x": -1.1893887967,
				"y": -1.6855633418,
				"z": -3.7094192383,
				"element": "C" 
			},
			{
				"x": 0.0601359501,
				"y": -2.1683953917,
				"z": -3.2384554655,
				"element": "O" 
			},
			{
				"x": 0.435345861,
				"y": -1.8564859619,
				"z": -1.9639329727,
				"element": "C" 
			},
			{
				"x": -0.3445601809,
				"y": -1.0858677276,
				"z": -1.095960533,
				"element": "C" 
			},
			{
				"x": 0.1346942345,
				"y": -0.8220755017,
				"z": 0.1983052621,
				"element": "C" 
			},
			{
				"x": -0.5822915898,
				"y": -0.0558345959,
				"z": 1.1391644531,
				"element": "N" 
			},
			{
				"x": -1.7982878672,
				"y": 0.5386783575,
				"z": 0.9896032442,
				"element": "C" 
			},
			{
				"x": -2.4932258288,
				"y": 0.5019230128,
				"z": -0.0282847696,
				"element": "O" 
			},
			{
				"x": -2.3585181736,
				"y": 1.3112293372,
				"z": 2.1554258386,
				"element": "C" 
			},
			{
				"x": -1.9676274429,
				"y": 1.6083761939,
				"z": 3.411320747,
				"element": "C" 
			},
			{
				"x": -0.7329179792,
				"y": 1.2339726559,
				"z": 4.1287615884,
				"element": "C" 
			},
			{
				"x": -0.7359348751,
				"y": 1.7411441285,
				"z": 5.3777865143,
				"element": "O" 
			},
			{
				"x": 0.2058997949,
				"y": 0.5629384121,
				"z": 3.7198039475,
				"element": "O" 
			},
			{
				"x": 1.3776408712,
				"y": -1.3254816876,
				"z": 0.6114329074,
				"element": "C" 
			},
			{
				"x": 2.1356912581,
				"y": -2.0909713268,
				"z": -0.2730591637,
				"element": "C" 
			},
			{
				"x": 1.6785896404,
				"y": -2.3629279251,
				"z": -1.5579428163,
				"element": "C" 
			},
			{
				"x": -1.2837426664,
				"y": -2.0483065473,
				"z": -4.7343155606,
				"element": "H" 
			},
			{
				"x": -1.2270279187,
				"y": -0.589032191,
				"z": -3.7079762027,
				"element": "H" 
			},
			{
				"x": -2.024404945,
				"y": -2.0698758366,
				"z": -3.1103759826,
				"element": "H" 
			},
			{
				"x": -1.3032235455,
				"y": -0.6857739768,
				"z": -1.3851636179,
				"element": "H" 
			},
			{
				"x": -0.1309428539,
				"y": 0.0677658195,
				"z": 2.0470777403,
				"element": "H" 
			},
			{
				"x": -3.3244639644,
				"y": 1.7103298577,
				"z": 1.8565122236,
				"element": "H" 
			},
			{
				"x": -2.6415746466,
				"y": 2.2132614152,
				"z": 4.0104860303,
				"element": "H" 
			},
			{
				"x": 0.0967826189,
				"y": 1.4612300665,
				"z": 5.7939148571,
				"element": "H" 
			},
			{
				"x": 1.7403410787,
				"y": -1.1167207039,
				"z": 1.6135139582,
				"element": "H" 
			},
			{
				"x": 3.097744734,
				"y": -2.48043328,
				"z": 0.0472237328,
				"element": "H" 
			},
			{
				"x": 2.2565672329,
				"y": -2.9568032613,
				"z": -2.2575467216,
				"element": "H" 
			}
		],
		 "valence_orbital": [ 
			{
				"type": "occ",
				"energy": -0.3028,
				"method": "rhf"
			},
			{
				"type": "occ",
				"energy": -0.28491,
				"method": "rhf"
			},
			{
				"type": "occ",
				"energy": -0.25875,
				"method": "rhf"
			},
			{
				"type": "occ",
				"energy": -0.22747,
				"method": "rhf"
			},
			{
				"type": "occ",
				"energy": -0.20377,
				"method": "rhf"
			},
			{
				"type": "unocc",
				"energy": -0.09328,
				"method": "rhf"
			},
			{
				"type": "unocc",
				"energy": 0.00015,
				"method": "rhf"
			},
			{
				"type": "unocc",
				"energy": 0.0183,
				"method": "rhf"
			},
			{
				"type": "unocc",
				"energy": 0.03934,
				"method": "rhf"
			},
			{
				"type": "unocc",
				"energy": 0.06144,
				"method": "rhf"
			}
		],
		"cosmo_sigma_profile": { 
			"-0.025": 0.0,
			"-0.024": 0.0,
			"-0.023": 0.0,
			"-0.022": 0.0,
			"-0.021": 0.0,
			"-0.02": 0.0,
			"-0.019": 0.744310901549,
			"-0.018": 1.03094955115,
			"-0.017": 0.869904687431,
			"-0.016": 0.760344144381,
			"-0.015": 0.693899913756,
			"-0.014": 0.600531220999,
			"-0.013": 0.784715002836,
			"-0.012": 0.761109535438,
			"-0.011": 0.573122155771,
			"-0.01": 0.477696074087,
			"-0.009": 1.19476691258,
			"-0.008": 4.96686519715,
			"-0.007": 3.7147857292,
			"-0.006": 9.40585773562,
			"-0.005": 17.3983846233,
			"-0.004": 22.9628663044,
			"-0.003": 28.5115007372,
			"-0.002": 19.8973342042,
			"-0.001": 15.2382836916,
			"0.0": 16.143821932,
			"0.001": 14.1475345984,
			"0.002": 11.3116757266,
			"0.003": 14.7618621168,
			"0.004": 17.7323867993,
			"0.005": 14.8197112783,
			"0.006": 9.54014620933,
			"0.007": 6.08199559198,
			"0.008": 5.64785670695,
			"0.009": 3.5519239954,
			"0.01": 4.65116676743,
			"0.011": 2.7098328415,
			"0.012": 2.86890347064,
			"0.013": 2.72319110811,
			"0.014": 0.536071442743,
			"0.015": 0.0,
			"0.016": 0.0,
			"0.017": 0.0,
			"0.018": 0.0,
			"0.019": 0.0,
			"0.02": 0.0,
			"0.021": 0.0,
			"0.022": 0.0,
			"0.023": 0.0,
			"0.024": 0.0,
			"0.025": 0.0
		}
	}
}
