{
	 "smiles": "CC1=CC(C=O)=C(C)N1C1CCCCC1", 
	 "Tm": 349.15, 
	 "num_atms": 34, 
	 "gaussian": { 
		 "optdone": 1, 
		 "sigma_profile": "yes", 
		 "theory": "DFT", 
		 "functional": "B3LYP", 
		 "basiset": "6-31G**", 
		 "properties": { 
			 "R2extent": 4053.5394, 
			 "electric_dipole_moment_norm": 6.67220627154, 
			 "electric_quadrupole_moment_norm": 29.1394063632, 
			 "total_energy": -636.814239474, 
			 "HOMO_LUMO_gap": 0.18526, 
			 "cosmo_polarized_energy": -12.55, 
			 "cosmo_cavitation_energy": 33.95, 
			 "cosmo_dispersion_energy": -23.83, 
			 "cosmo_repulsion_energy": 1.85, 
			 "cosmo_total_nonelectrostatic_energy": 11.98, 
			 "SMD_solvation_energy": 5.98 
		},
		"coords": [
			{
				"x": 1.4684992406,
				"y": 1.5379755063,
				"z": -2.5747037513,
				"element": "C" 
			},
			{
				"x": 0.9816469928,
				"y": 1.88845436,
				"z": -1.20344568,
				"element": "C" 
			},
			{
				"x": 0.7897156486,
				"y": 3.1260823036,
				"z": -0.6534461973,
				"element": "C" 
			},
			{
				"x": 0.308361445,
				"y": 2.9428077542,
				"z": 0.6782772275,
				"element": "C" 
			},
			{
				"x": -0.0181078457,
				"y": 4.0129675653,
				"z": 1.6066086949,
				"element": "C" 
			},
			{
				"x": 0.0896305349,
				"y": 5.2053454482,
				"z": 1.3563807559,
				"element": "O" 
			},
			{
				"x": 0.2164603645,
				"y": 1.5681392157,
				"z": 0.9082497925,
				"element": "C" 
			},
			{
				"x": -0.208082132,
				"y": 0.8676218321,
				"z": 2.1639878135,
				"element": "C" 
			},
			{
				"x": 0.6339216139,
				"y": 0.9274944719,
				"z": -0.2405817163,
				"element": "N" 
			},
			{
				"x": 0.6547037756,
				"y": -0.5192151308,
				"z": -0.5109463268,
				"element": "C" 
			},
			{
				"x": 1.4701990947,
				"y": -1.3511712671,
				"z": 0.4936911132,
				"element": "C" 
			},
			{
				"x": 1.714428257,
				"y": -2.768131202,
				"z": -0.0790771048,
				"element": "C" 
			},
			{
				"x": 0.514076983,
				"y": -3.2893417704,
				"z": -0.9120258946,
				"element": "C" 
			},
			{
				"x": -0.8011782952,
				"y": -2.6330715234,
				"z": -0.4692864803,
				"element": "C" 
			},
			{
				"x": -0.7702447872,
				"y": -1.1060195724,
				"z": -0.7046925595,
				"element": "C" 
			},
			{
				"x": 1.6586323101,
				"y": 2.4628342775,
				"z": -3.1242960137,
				"element": "H" 
			},
			{
				"x": 0.738142202,
				"y": 0.9586376174,
				"z": -3.1536759459,
				"element": "H" 
			},
			{
				"x": 2.4060820314,
				"y": 0.9675263129,
				"z": -2.5625239167,
				"element": "H" 
			},
			{
				"x": 0.9673635811,
				"y": 4.0793016496,
				"z": -1.1296537725,
				"element": "H" 
			},
			{
				"x": -0.3902860201,
				"y": 3.6890290929,
				"z": 2.6047317448,
				"element": "H" 
			},
			{
				"x": 0.6407908225,
				"y": 0.430885055,
				"z": 2.7030423547,
				"element": "H" 
			},
			{
				"x": -0.9268837102,
				"y": 0.0635058709,
				"z": 1.9793193817,
				"element": "H" 
			},
			{
				"x": -0.6863077391,
				"y": 1.5805332598,
				"z": 2.8380138749,
				"element": "H" 
			},
			{
				"x": 1.1795485378,
				"y": -0.6100641773,
				"z": -1.4647074926,
				"element": "H" 
			},
			{
				"x": 2.421613243,
				"y": -0.8529925266,
				"z": 0.7066999998,
				"element": "H" 
			},
			{
				"x": 0.9345248906,
				"y": -1.428459147,
				"z": 1.443641879,
				"element": "H" 
			},
			{
				"x": 1.9188377565,
				"y": -3.4517141521,
				"z": 0.7523220186,
				"element": "H" 
			},
			{
				"x": 2.6167405048,
				"y": -2.7649234295,
				"z": -0.701679554,
				"element": "H" 
			},
			{
				"x": 0.4460018475,
				"y": -4.3794277287,
				"z": -0.8322920355,
				"element": "H" 
			},
			{
				"x": 0.6750367759,
				"y": -3.0738967441,
				"z": -1.9765548627,
				"element": "H" 
			},
			{
				"x": -1.6522336163,
				"y": -3.0731620152,
				"z": -1.0000217731,
				"element": "H" 
			},
			{
				"x": -0.9649484784,
				"y": -2.8426269144,
				"z": 0.5956624378,
				"element": "H" 
			},
			{
				"x": -1.4730656104,
				"y": -0.6070712804,
				"z": -0.0310091608,
				"element": "H" 
			},
			{
				"x": -1.1070202194,
				"y": -0.8713530122,
				"z": -1.7213088504,
				"element": "H" 
			}
		],
		 "valence_orbital": [ 
			{
				"type": "occ",
				"energy": -0.31632,
				"method": "rhf"
			},
			{
				"type": "occ",
				"energy": -0.31433,
				"method": "rhf"
			},
			{
				"type": "occ",
				"energy": -0.23354,
				"method": "rhf"
			},
			{
				"type": "occ",
				"energy": -0.22562,
				"method": "rhf"
			},
			{
				"type": "occ",
				"energy": -0.20458,
				"method": "rhf"
			},
			{
				"type": "unocc",
				"energy": -0.01932,
				"method": "rhf"
			},
			{
				"type": "unocc",
				"energy": 0.03955,
				"method": "rhf"
			},
			{
				"type": "unocc",
				"energy": 0.05529,
				"method": "rhf"
			},
			{
				"type": "unocc",
				"energy": 0.07218,
				"method": "rhf"
			},
			{
				"type": "unocc",
				"energy": 0.09616,
				"method": "rhf"
			}
		],
		"cosmo_sigma_profile": { 
			"-0.025": 0.0,
			"-0.024": 0.0,
			"-0.023": 0.0,
			"-0.022": 0.0,
			"-0.021": 0.0,
			"-0.02": 0.0,
			"-0.019": 0.0,
			"-0.018": 0.0,
			"-0.017": 0.0,
			"-0.016": 0.0,
			"-0.015": 0.0,
			"-0.014": 0.0,
			"-0.013": 0.0,
			"-0.012": 0.0,
			"-0.011": 0.0,
			"-0.01": 0.0,
			"-0.009": 0.0,
			"-0.008": 0.0,
			"-0.007": 0.419874508722,
			"-0.006": 2.9280579042,
			"-0.005": 14.0186799472,
			"-0.004": 25.3540652781,
			"-0.003": 32.7582995811,
			"-0.002": 40.7964399218,
			"-0.001": 40.279768262,
			"0.0": 31.8540173555,
			"0.001": 20.0629140265,
			"0.002": 6.78053777603,
			"0.003": 5.6924856961,
			"0.004": 6.11356432653,
			"0.005": 5.89872538365,
			"0.006": 7.55167308684,
			"0.007": 4.65137460368,
			"0.008": 2.49597853592,
			"0.009": 1.38214284624,
			"0.01": 1.91435143707,
			"0.011": 2.26675422764,
			"0.012": 3.08674280967,
			"0.013": 5.06411590301,
			"0.014": 2.85090226514,
			"0.015": 0.655457111337,
			"0.016": 0.0,
			"0.017": 0.0,
			"0.018": 0.0,
			"0.019": 0.0,
			"0.02": 0.0,
			"0.021": 0.0,
			"0.022": 0.0,
			"0.023": 0.0,
			"0.024": 0.0,
			"0.025": 0.0
		}
	}
}
