{
	 "smiles": "OC(=O)C1=CC(F)=C(C=C1)S(Cl)(=O)=O", 
	 "Tm": 462.15, 
	 "num_atms": 18, 
	 "gaussian": { 
		 "optdone": 1, 
		 "sigma_profile": "yes", 
		 "theory": "DFT", 
		 "functional": "B3LYP", 
		 "basiset": "6-31G**", 
		 "properties": { 
			 "R2extent": 4799.1593, 
			 "electric_dipole_moment_norm": 2.4397992069, 
			 "electric_quadrupole_moment_norm": 20.4499816171, 
			 "total_energy": -1528.19018981, 
			 "HOMO_LUMO_gap": 0.18572, 
			 "cosmo_polarized_energy": -18.2, 
			 "cosmo_cavitation_energy": 27.42, 
			 "cosmo_dispersion_energy": -20.49, 
			 "cosmo_repulsion_energy": 1.54, 
			 "cosmo_total_nonelectrostatic_energy": 8.47, 
			 "SMD_solvation_energy": 5.1 
		},
		"coords": [
			{
				"x": 3.592079567,
				"y": -1.2687956066,
				"z": 0.538183684,
				"element": "O" 
			},
			{
				"x": 2.452370901,
				"y": -2.0011327215,
				"z": 0.505914368,
				"element": "C" 
			},
			{
				"x": 2.4276548242,
				"y": -3.1217543396,
				"z": 0.9514440842,
				"element": "O" 
			},
			{
				"x": 1.2414048855,
				"y": -1.3512270053,
				"z": -0.111649255,
				"element": "C" 
			},
			{
				"x": 1.3440438037,
				"y": -0.3148361183,
				"z": -1.0479388196,
				"element": "C" 
			},
			{
				"x": 0.1876314569,
				"y": 0.2262123856,
				"z": -1.5944443489,
				"element": "C" 
			},
			{
				"x": 0.2919139247,
				"y": 1.1967101117,
				"z": -2.5049668788,
				"element": "F" 
			},
			{
				"x": -1.068673499,
				"y": -0.25218494,
				"z": -1.2144768189,
				"element": "C" 
			},
			{
				"x": -1.1718518662,
				"y": -1.2979012664,
				"z": -0.29272139,
				"element": "C" 
			},
			{
				"x": -0.0166493441,
				"y": -1.8502213641,
				"z": 0.2504477485,
				"element": "C" 
			},
			{
				"x": -2.5725950232,
				"y": 0.4851208803,
				"z": -1.8488956339,
				"element": "S" 
			},
			{
				"x": -2.5094567964,
				"y": -0.1414759049,
				"z": -3.8701826778,
				"element": "Cl" 
			},
			{
				"x": -3.7011864628,
				"y": -0.2001031871,
				"z": -1.2335054573,
				"element": "O" 
			},
			{
				"x": -2.4502367217,
				"y": 1.934355952,
				"z": -1.8484035492,
				"element": "O" 
			},
			{
				"x": 3.4171565822,
				"y": -0.3439718491,
				"z": 0.3148364253,
				"element": "H" 
			},
			{
				"x": 2.2972568708,
				"y": 0.0629908469,
				"z": -1.4040412824,
				"element": "H" 
			},
			{
				"x": -2.1550232338,
				"y": -1.6609231441,
				"z": -0.0159314358,
				"element": "H" 
			},
			{
				"x": -0.0685398687,
				"y": -2.6698627297,
				"z": 0.9575312377,
				"element": "H" 
			}
		],
		 "valence_orbital": [ 
			{
				"type": "occ",
				"energy": -0.34382,
				"method": "rhf"
			},
			{
				"type": "occ",
				"energy": -0.32656,
				"method": "rhf"
			},
			{
				"type": "occ",
				"energy": -0.31717,
				"method": "rhf"
			},
			{
				"type": "occ",
				"energy": -0.30532,
				"method": "rhf"
			},
			{
				"type": "occ",
				"energy": -0.2956,
				"method": "rhf"
			},
			{
				"type": "unocc",
				"energy": -0.10988,
				"method": "rhf"
			},
			{
				"type": "unocc",
				"energy": -0.08185,
				"method": "rhf"
			},
			{
				"type": "unocc",
				"energy": -0.05696,
				"method": "rhf"
			},
			{
				"type": "unocc",
				"energy": -0.00081,
				"method": "rhf"
			},
			{
				"type": "unocc",
				"energy": 0.02374,
				"method": "rhf"
			}
		],
		"cosmo_sigma_profile": { 
			"-0.025": 0.0,
			"-0.024": 0.0,
			"-0.023": 0.0,
			"-0.022": 0.0,
			"-0.021": 0.0,
			"-0.02": 0.474290245308,
			"-0.019": 1.19242544554,
			"-0.018": 1.12066556413,
			"-0.017": 1.133774419,
			"-0.016": 0.867676936677,
			"-0.015": 1.05573084012,
			"-0.014": 1.37996690499,
			"-0.013": 1.6687362256,
			"-0.012": 1.22609036644,
			"-0.011": 1.51519304537,
			"-0.01": 1.55493508276,
			"-0.009": 4.51215397983,
			"-0.008": 5.41528028895,
			"-0.007": 5.38389974149,
			"-0.006": 6.63456999886,
			"-0.005": 8.69466926132,
			"-0.004": 13.155503835,
			"-0.003": 17.6384579774,
			"-0.002": 15.3384589435,
			"-0.001": 13.7067811634,
			"0.0": 12.3758073569,
			"0.001": 12.7252464416,
			"0.002": 21.12623559,
			"0.003": 14.8037643806,
			"0.004": 6.55872180569,
			"0.005": 5.57416413108,
			"0.006": 7.38492777714,
			"0.007": 10.8416822031,
			"0.008": 11.8235933868,
			"0.009": 5.80771906676,
			"0.01": 5.06570780745,
			"0.011": 4.59042238055,
			"0.012": 1.54319405225,
			"0.013": 0.0336750884271,
			"0.014": 0.0,
			"0.015": 0.0,
			"0.016": 0.0,
			"0.017": 0.0,
			"0.018": 0.0,
			"0.019": 0.0,
			"0.02": 0.0,
			"0.021": 0.0,
			"0.022": 0.0,
			"0.023": 0.0,
			"0.024": 0.0,
			"0.025": 0.0
		}
	}
}
