{
	 "smiles": "NC(=O)CC1=CC=C(Br)C=C1", 
	 "Tm": 468.15, 
	 "num_atms": 19, 
	 "gaussian": { 
		 "optdone": 1, 
		 "sigma_profile": "yes", 
		 "theory": "DFT", 
		 "functional": "B3LYP", 
		 "basiset": "6-31G**", 
		 "properties": { 
			 "R2extent": 4945.1809, 
			 "electric_dipole_moment_norm": 2.05501970793, 
			 "electric_quadrupole_moment_norm": 19.5976091881, 
			 "total_energy": -3011.07312085, 
			 "HOMO_LUMO_gap": 0.2103, 
			 "cosmo_polarized_energy": -13.14, 
			 "cosmo_cavitation_energy": 25.74, 
			 "cosmo_dispersion_energy": -18.97, 
			 "cosmo_repulsion_energy": 1.55, 
			 "cosmo_total_nonelectrostatic_energy": 8.33, 
			 "SMD_solvation_energy": 3.99 
		},
		"coords": [
			{
				"x": 1.0494866229,
				"y": -0.0659381482,
				"z": 1.6307908868,
				"element": "N" 
			},
			{
				"x": -0.223343862,
				"y": 0.2925333902,
				"z": 1.9600507826,
				"element": "C" 
			},
			{
				"x": -0.6709944643,
				"y": 0.1955309607,
				"z": 3.0920342011,
				"element": "O" 
			},
			{
				"x": -1.0861638791,
				"y": 0.8767969861,
				"z": 0.8223726621,
				"element": "C" 
			},
			{
				"x": -0.5597360326,
				"y": 0.7516339744,
				"z": -0.5877518224,
				"element": "C" 
			},
			{
				"x": -0.8218345209,
				"y": -0.3938523557,
				"z": -1.3543874867,
				"element": "C" 
			},
			{
				"x": -0.322398321,
				"y": -0.5306228245,
				"z": -2.6492237904,
				"element": "C" 
			},
			{
				"x": 0.4548821731,
				"y": 0.4932687166,
				"z": -3.1891343296,
				"element": "C" 
			},
			{
				"x": 1.1438305147,
				"y": 0.3176349487,
				"z": -4.9629632664,
				"element": "Br" 
			},
			{
				"x": 0.7338065662,
				"y": 1.6440486221,
				"z": -2.4544706938,
				"element": "C" 
			},
			{
				"x": 0.2245614726,
				"y": 1.7637693971,
				"z": -1.1605921458,
				"element": "C" 
			},
			{
				"x": 1.6291381448,
				"y": -0.4621066064,
				"z": 2.3546491112,
				"element": "H" 
			},
			{
				"x": 1.3877878984,
				"y": -0.0350688157,
				"z": 0.6828929999,
				"element": "H" 
			},
			{
				"x": -1.2423281795,
				"y": 1.9301441077,
				"z": 1.0811828117,
				"element": "H" 
			},
			{
				"x": -2.0624593932,
				"y": 0.3930231832,
				"z": 0.9203554389,
				"element": "H" 
			},
			{
				"x": -1.4301939038,
				"y": -1.1912112196,
				"z": -0.9352384415,
				"element": "H" 
			},
			{
				"x": -0.5364893271,
				"y": -1.4188015081,
				"z": -3.2328321717,
				"element": "H" 
			},
			{
				"x": 1.3339530647,
				"y": 2.4363450242,
				"z": -2.8873755556,
				"element": "H" 
			},
			{
				"x": 0.4363954262,
				"y": 2.6650721672,
				"z": -0.5908591903,
				"element": "H" 
			}
		],
		 "valence_orbital": [ 
			{
				"type": "occ",
				"energy": -0.29365,
				"method": "rhf"
			},
			{
				"type": "occ",
				"energy": -0.27539,
				"method": "rhf"
			},
			{
				"type": "occ",
				"energy": -0.26701,
				"method": "rhf"
			},
			{
				"type": "occ",
				"energy": -0.26093,
				"method": "rhf"
			},
			{
				"type": "occ",
				"energy": -0.23694,
				"method": "rhf"
			},
			{
				"type": "unocc",
				"energy": -0.02664,
				"method": "rhf"
			},
			{
				"type": "unocc",
				"energy": -0.02592,
				"method": "rhf"
			},
			{
				"type": "unocc",
				"energy": 0.0,
				"method": "rhf"
			},
			{
				"type": "unocc",
				"energy": 0.03136,
				"method": "rhf"
			},
			{
				"type": "unocc",
				"energy": 0.08447,
				"method": "rhf"
			}
		],
		"cosmo_sigma_profile": { 
			"-0.025": 0.0,
			"-0.024": 0.0,
			"-0.023": 0.0,
			"-0.022": 0.0,
			"-0.021": 0.0,
			"-0.02": 0.0,
			"-0.019": 0.0,
			"-0.018": 0.0,
			"-0.017": 0.0,
			"-0.016": 0.0,
			"-0.015": 0.0,
			"-0.014": 0.60255213,
			"-0.013": 1.59924307494,
			"-0.012": 2.03250623698,
			"-0.011": 1.25803583095,
			"-0.01": 2.10930265053,
			"-0.009": 1.79690727469,
			"-0.008": 1.87303745643,
			"-0.007": 8.56463445968,
			"-0.006": 15.7927108123,
			"-0.005": 13.8465237703,
			"-0.004": 12.2012475072,
			"-0.003": 12.7012894356,
			"-0.002": 12.865486156,
			"-0.001": 12.278844364,
			"0.0": 10.5204313492,
			"0.001": 15.6039219598,
			"0.002": 17.9914630169,
			"0.003": 17.6403347761,
			"0.004": 17.6113788668,
			"0.005": 8.3258618759,
			"0.006": 1.46755805959,
			"0.007": 1.16437479471,
			"0.008": 1.15200017235,
			"0.009": 1.25288089885,
			"0.01": 0.945780155613,
			"0.011": 1.15795666766,
			"0.012": 2.19233134578,
			"0.013": 3.1952465719,
			"0.014": 5.85302018962,
			"0.015": 2.55182224467,
			"0.016": 0.0383298239645,
			"0.017": 0.0,
			"0.018": 0.0,
			"0.019": 0.0,
			"0.02": 0.0,
			"0.021": 0.0,
			"0.022": 0.0,
			"0.023": 0.0,
			"0.024": 0.0,
			"0.025": 0.0
		}
	}
}
