{
	 "smiles": "NC1=NC=C(OC2=CC=CC=C2)C=C1", 
	 "Tm": 341.15, 
	 "num_atms": 24, 
	 "gaussian": { 
		 "optdone": 1, 
		 "sigma_profile": "yes", 
		 "theory": "DFT", 
		 "functional": "B3LYP", 
		 "basiset": "6-31G**", 
		 "properties": { 
			 "R2extent": 3761.8318, 
			 "electric_dipole_moment_norm": 2.85213923398, 
			 "electric_quadrupole_moment_norm": 14.7891276007, 
			 "total_energy": -609.916036246, 
			 "HOMO_LUMO_gap": 0.18623, 
			 "cosmo_polarized_energy": -11.36, 
			 "cosmo_cavitation_energy": 28.63, 
			 "cosmo_dispersion_energy": -20.96, 
			 "cosmo_repulsion_energy": 1.66, 
			 "cosmo_total_nonelectrostatic_energy": 9.33, 
			 "SMD_solvation_energy": 3.71 
		},
		"coords": [
			{
				"x": -0.1272515298,
				"y": 3.1082691402,
				"z": -4.4791939628,
				"element": "N" 
			},
			{
				"x": -0.4313495868,
				"y": 2.2422929868,
				"z": -3.4428069307,
				"element": "C" 
			},
			{
				"x": -0.2945925464,
				"y": 0.9338182919,
				"z": -3.7026555858,
				"element": "N" 
			},
			{
				"x": -0.6269736543,
				"y": 0.0604056517,
				"z": -2.745238618,
				"element": "C" 
			},
			{
				"x": -1.1024056412,
				"y": 0.4400239064,
				"z": -1.4943366799,
				"element": "C" 
			},
			{
				"x": -1.5067967885,
				"y": -0.5312961169,
				"z": -0.593442585,
				"element": "O" 
			},
			{
				"x": -0.769649839,
				"y": -0.7545061326,
				"z": 0.5523112368,
				"element": "C" 
			},
			{
				"x": 0.5199155182,
				"y": -0.2567815147,
				"z": 0.7580224392,
				"element": "C" 
			},
			{
				"x": 1.186999603,
				"y": -0.5645612405,
				"z": 1.9466094495,
				"element": "C" 
			},
			{
				"x": 0.5843319991,
				"y": -1.3601330331,
				"z": 2.9207036796,
				"element": "C" 
			},
			{
				"x": -0.7044666612,
				"y": -1.8548825419,
				"z": 2.6989663613,
				"element": "C" 
			},
			{
				"x": -1.3843364569,
				"y": -1.5549364234,
				"z": 1.5214447063,
				"element": "C" 
			},
			{
				"x": -1.2458384607,
				"y": 1.8047203319,
				"z": -1.2208773142,
				"element": "C" 
			},
			{
				"x": -0.9074867784,
				"y": 2.7219863492,
				"z": -2.2029719755,
				"element": "C" 
			},
			{
				"x": 0.4080276962,
				"y": 2.6805776502,
				"z": -5.2219386289,
				"element": "H" 
			},
			{
				"x": 0.1688700487,
				"y": 4.0399813618,
				"z": -4.2295769475,
				"element": "H" 
			},
			{
				"x": -0.5176645873,
				"y": -0.9968332092,
				"z": -2.9787600223,
				"element": "H" 
			},
			{
				"x": 0.9965161701,
				"y": 0.3556780975,
				"z": 0.0013132843,
				"element": "H" 
			},
			{
				"x": 2.1900634489,
				"y": -0.1778480756,
				"z": 2.1041612264,
				"element": "H" 
			},
			{
				"x": 1.1107367735,
				"y": -1.5937205701,
				"z": 3.8409331874,
				"element": "H" 
			},
			{
				"x": -1.1860756885,
				"y": -2.4766653526,
				"z": 3.4483832953,
				"element": "H" 
			},
			{
				"x": -2.3853076402,
				"y": -1.9281941266,
				"z": 1.3312462271,
				"element": "H" 
			},
			{
				"x": -1.6237923524,
				"y": 2.1286674484,
				"z": -0.2560924413,
				"element": "H" 
			},
			{
				"x": -1.0199730461,
				"y": 3.7883371213,
				"z": -2.0311034013,
				"element": "H" 
			}
		],
		 "valence_orbital": [ 
			{
				"type": "occ",
				"energy": -0.28343,
				"method": "rhf"
			},
			{
				"type": "occ",
				"energy": -0.25982,
				"method": "rhf"
			},
			{
				"type": "occ",
				"energy": -0.24946,
				"method": "rhf"
			},
			{
				"type": "occ",
				"energy": -0.22389,
				"method": "rhf"
			},
			{
				"type": "occ",
				"energy": -0.20897,
				"method": "rhf"
			},
			{
				"type": "unocc",
				"energy": -0.02274,
				"method": "rhf"
			},
			{
				"type": "unocc",
				"energy": 0.00168,
				"method": "rhf"
			},
			{
				"type": "unocc",
				"energy": 0.00576,
				"method": "rhf"
			},
			{
				"type": "unocc",
				"energy": 0.01582,
				"method": "rhf"
			},
			{
				"type": "unocc",
				"energy": 0.08189,
				"method": "rhf"
			}
		],
		"cosmo_sigma_profile": { 
			"-0.025": 0.0,
			"-0.024": 0.0,
			"-0.023": 0.0,
			"-0.022": 0.0,
			"-0.021": 0.0,
			"-0.02": 0.0,
			"-0.019": 0.0,
			"-0.018": 0.0,
			"-0.017": 0.0,
			"-0.016": 0.0,
			"-0.015": 0.0,
			"-0.014": 0.188764032909,
			"-0.013": 1.38146768167,
			"-0.012": 2.03035443843,
			"-0.011": 2.93435435117,
			"-0.01": 2.21619086998,
			"-0.009": 2.85038047742,
			"-0.008": 3.23239079867,
			"-0.007": 5.60340994304,
			"-0.006": 10.827324504,
			"-0.005": 16.4644217545,
			"-0.004": 16.3293502812,
			"-0.003": 14.5905357581,
			"-0.002": 12.3456136046,
			"-0.001": 13.6623887855,
			"0.0": 14.5031876548,
			"0.001": 14.942519096,
			"0.002": 17.8420557695,
			"0.003": 19.4015483396,
			"0.004": 14.9492218177,
			"0.005": 13.5403069489,
			"0.006": 10.1511959431,
			"0.007": 4.67393681822,
			"0.008": 3.41755038351,
			"0.009": 2.34881665098,
			"0.01": 2.27675639866,
			"0.011": 1.80688976848,
			"0.012": 1.68483268905,
			"0.013": 1.2077170869,
			"0.014": 0.986619882491,
			"0.015": 0.505578244024,
			"0.016": 0.277046256956,
			"0.017": 0.0,
			"0.018": 0.0,
			"0.019": 0.0,
			"0.02": 0.0,
			"0.021": 0.0,
			"0.022": 0.0,
			"0.023": 0.0,
			"0.024": 0.0,
			"0.025": 0.0
		}
	}
}
