{
	 "smiles": "CN1N=C(CC#N)C2=C(N)N=CN=C12", 
	 "Tm": 409.15, 
	 "num_atms": 22, 
	 "gaussian": { 
		 "optdone": 1, 
		 "sigma_profile": "yes", 
		 "theory": "DFT", 
		 "functional": "B3LYP", 
		 "basiset": "6-31G**", 
		 "properties": { 
			 "R2extent": 3016.1638, 
			 "electric_dipole_moment_norm": 2.28152777323, 
			 "electric_quadrupole_moment_norm": 11.508514478, 
			 "total_energy": -638.169698225, 
			 "HOMO_LUMO_gap": 0.19077, 
			 "cosmo_polarized_energy": -14.49, 
			 "cosmo_cavitation_energy": 27.02, 
			 "cosmo_dispersion_energy": -19.66, 
			 "cosmo_repulsion_energy": 1.53, 
			 "cosmo_total_nonelectrostatic_energy": 8.89, 
			 "SMD_solvation_energy": 2.04 
		},
		"coords": [
			{
				"x": 0.2012799885,
				"y": 3.6027950473,
				"z": 2.578874616,
				"element": "C" 
			},
			{
				"x": 0.1414841262,
				"y": 2.6579376715,
				"z": 1.4812154681,
				"element": "N" 
			},
			{
				"x": 1.1421893601,
				"y": 2.5853378707,
				"z": 0.5633123399,
				"element": "N" 
			},
			{
				"x": 0.79932028,
				"y": 1.6427265989,
				"z": -0.3016294926,
				"element": "C" 
			},
			{
				"x": 1.7031317589,
				"y": 1.4101643257,
				"z": -1.4872195595,
				"element": "C" 
			},
			{
				"x": 2.0037496002,
				"y": -0.0051642529,
				"z": -1.7251825903,
				"element": "C" 
			},
			{
				"x": 2.1779215322,
				"y": -1.1363777609,
				"z": -1.9223292669,
				"element": "N" 
			},
			{
				"x": -0.4592014114,
				"y": 1.0616683783,
				"z": 0.048315169,
				"element": "C" 
			},
			{
				"x": -1.3751219283,
				"y": 0.0600383015,
				"z": -0.3789971934,
				"element": "C" 
			},
			{
				"x": -1.1746876192,
				"y": -0.7370167312,
				"z": -1.4631590348,
				"element": "N" 
			},
			{
				"x": -2.5267225019,
				"y": -0.1063970148,
				"z": 0.2911595019,
				"element": "N" 
			},
			{
				"x": -2.7623198814,
				"y": 0.6621179924,
				"z": 1.3685528467,
				"element": "C" 
			},
			{
				"x": -1.9863773636,
				"y": 1.600212768,
				"z": 1.9054609322,
				"element": "N" 
			},
			{
				"x": -0.8497489653,
				"y": 1.7652321926,
				"z": 1.2095547204,
				"element": "C" 
			},
			{
				"x": 0.2572088686,
				"y": 4.6251150857,
				"z": 2.1956828185,
				"element": "H" 
			},
			{
				"x": 1.0772954615,
				"y": 3.4040608767,
				"z": 3.2019027898,
				"element": "H" 
			},
			{
				"x": -0.7079681027,
				"y": 3.4773712937,
				"z": 3.1675545736,
				"element": "H" 
			},
			{
				"x": 1.2533144315,
				"y": 1.8106270704,
				"z": -2.4058358861,
				"element": "H" 
			},
			{
				"x": 2.6352654284,
				"y": 1.9583316205,
				"z": -1.3187329542,
				"element": "H" 
			},
			{
				"x": -0.2347761131,
				"y": -0.9326029033,
				"z": -1.7787928044,
				"element": "H" 
			},
			{
				"x": -1.8479174901,
				"y": -1.4839839889,
				"z": -1.5633177004,
				"element": "H" 
			},
			{
				"x": -3.7117194592,
				"y": 0.4807055582,
				"z": 1.8690107064,
				"element": "H" 
			}
		],
		 "valence_orbital": [ 
			{
				"type": "occ",
				"energy": -0.29522,
				"method": "rhf"
			},
			{
				"type": "occ",
				"energy": -0.28458,
				"method": "rhf"
			},
			{
				"type": "occ",
				"energy": -0.26553,
				"method": "rhf"
			},
			{
				"type": "occ",
				"energy": -0.26178,
				"method": "rhf"
			},
			{
				"type": "occ",
				"energy": -0.22999,
				"method": "rhf"
			},
			{
				"type": "unocc",
				"energy": -0.03922,
				"method": "rhf"
			},
			{
				"type": "unocc",
				"energy": -0.00041,
				"method": "rhf"
			},
			{
				"type": "unocc",
				"energy": 0.01174,
				"method": "rhf"
			},
			{
				"type": "unocc",
				"energy": 0.01789,
				"method": "rhf"
			},
			{
				"type": "unocc",
				"energy": 0.03911,
				"method": "rhf"
			}
		],
		"cosmo_sigma_profile": { 
			"-0.025": 0.0,
			"-0.024": 0.0,
			"-0.023": 0.0,
			"-0.022": 0.0,
			"-0.021": 0.0,
			"-0.02": 0.0,
			"-0.019": 0.0,
			"-0.018": 0.0,
			"-0.017": 0.0,
			"-0.016": 0.0,
			"-0.015": 0.0,
			"-0.014": 0.476814916057,
			"-0.013": 1.28315554704,
			"-0.012": 0.752066718679,
			"-0.011": 1.45930403092,
			"-0.01": 4.17922554112,
			"-0.009": 6.39941880413,
			"-0.008": 6.5946057889,
			"-0.007": 8.80105892741,
			"-0.006": 13.0560788564,
			"-0.005": 12.2597886657,
			"-0.004": 12.699037976,
			"-0.003": 15.1522108246,
			"-0.002": 11.5324479238,
			"-0.001": 17.0144566749,
			"0.0": 17.3035885632,
			"0.001": 12.9538112569,
			"0.002": 8.90408779578,
			"0.003": 6.68625137512,
			"0.004": 7.653614795,
			"0.005": 6.70976131999,
			"0.006": 6.59383155591,
			"0.007": 7.77464124207,
			"0.008": 6.47727553159,
			"0.009": 5.02612829595,
			"0.01": 6.01614179365,
			"0.011": 4.96936845758,
			"0.012": 3.71766649073,
			"0.013": 3.37534824996,
			"0.014": 1.34068568289,
			"0.015": 0.430098704978,
			"0.016": 0.00808435302248,
			"0.017": 0.0,
			"0.018": 0.0,
			"0.019": 0.0,
			"0.02": 0.0,
			"0.021": 0.0,
			"0.022": 0.0,
			"0.023": 0.0,
			"0.024": 0.0,
			"0.025": 0.0
		}
	}
}
