{
	 "smiles": "FC1=C(CS(Cl)(=O)=O)C=C(C=C1)C#N", 
	 "Tm": 379.15, 
	 "num_atms": 19, 
	 "gaussian": { 
		 "optdone": 1, 
		 "sigma_profile": "yes", 
		 "theory": "DFT", 
		 "functional": "B3LYP", 
		 "basiset": "6-31G**", 
		 "properties": { 
			 "R2extent": 4053.4035, 
			 "electric_dipole_moment_norm": 4.84635458979, 
			 "electric_quadrupole_moment_norm": 20.28952285, 
			 "total_energy": -1471.19496575, 
			 "HOMO_LUMO_gap": 0.17995, 
			 "cosmo_polarized_energy": -16.64, 
			 "cosmo_cavitation_energy": 29.38, 
			 "cosmo_dispersion_energy": -20.52, 
			 "cosmo_repulsion_energy": 1.56, 
			 "cosmo_total_nonelectrostatic_energy": 10.41, 
			 "SMD_solvation_energy": 5.41 
		},
		"coords": [
			{
				"x": -2.9999682818,
				"y": 0.3449588895,
				"z": -0.2021509081,
				"element": "F" 
			},
			{
				"x": -1.938010173,
				"y": -0.4649396791,
				"z": -0.3366382968,
				"element": "C" 
			},
			{
				"x": -0.7449881223,
				"y": -0.1187126419,
				"z": 0.308973425,
				"element": "C" 
			},
			{
				"x": -0.6610123716,
				"y": 1.1447457094,
				"z": 1.1099021662,
				"element": "C" 
			},
			{
				"x": 0.0935936739,
				"y": 2.4858259959,
				"z": 0.097570687,
				"element": "S" 
			},
			{
				"x": -0.0445169644,
				"y": 4.0757281008,
				"z": 1.5101946573,
				"element": "Cl" 
			},
			{
				"x": 1.5102695236,
				"y": 2.1981760987,
				"z": -0.0908648024,
				"element": "O" 
			},
			{
				"x": -0.7827539119,
				"y": 2.8153432233,
				"z": -1.0178365196,
				"element": "O" 
			},
			{
				"x": 0.3525311517,
				"y": -0.971265811,
				"z": 0.1582472323,
				"element": "C" 
			},
			{
				"x": 0.2448510139,
				"y": -2.1443302147,
				"z": -0.602372141,
				"element": "C" 
			},
			{
				"x": -0.9731198003,
				"y": -2.4662493348,
				"z": -1.228567126,
				"element": "C" 
			},
			{
				"x": -2.0700438504,
				"y": -1.6233406109,
				"z": -1.0937373411,
				"element": "C" 
			},
			{
				"x": 1.3734517584,
				"y": -3.0182353091,
				"z": -0.7372922724,
				"element": "C" 
			},
			{
				"x": 2.2840991184,
				"y": -3.7333294589,
				"z": -0.8450893415,
				"element": "N" 
			},
			{
				"x": -0.0108452923,
				"y": 1.0562922214,
				"z": 1.9820017013,
				"element": "H" 
			},
			{
				"x": -1.6418149864,
				"y": 1.5182825191,
				"z": 1.4044634833,
				"element": "H" 
			},
			{
				"x": 1.297014674,
				"y": -0.7205249152,
				"z": 0.6292261652,
				"element": "H" 
			},
			{
				"x": -1.0514860638,
				"y": -3.3747403154,
				"z": -1.8154012565,
				"element": "H" 
			},
			{
				"x": -3.0207510958,
				"y": -1.8444844668,
				"z": -1.5650295122,
				"element": "H" 
			}
		],
		 "valence_orbital": [ 
			{
				"type": "occ",
				"energy": -0.34616,
				"method": "rhf"
			},
			{
				"type": "occ",
				"energy": -0.3429,
				"method": "rhf"
			},
			{
				"type": "occ",
				"energy": -0.32589,
				"method": "rhf"
			},
			{
				"type": "occ",
				"energy": -0.30333,
				"method": "rhf"
			},
			{
				"type": "occ",
				"energy": -0.28168,
				"method": "rhf"
			},
			{
				"type": "unocc",
				"energy": -0.10173,
				"method": "rhf"
			},
			{
				"type": "unocc",
				"energy": -0.06968,
				"method": "rhf"
			},
			{
				"type": "unocc",
				"energy": -0.0536,
				"method": "rhf"
			},
			{
				"type": "unocc",
				"energy": 0.01953,
				"method": "rhf"
			},
			{
				"type": "unocc",
				"energy": 0.02564,
				"method": "rhf"
			}
		],
		"cosmo_sigma_profile": { 
			"-0.025": 0.0,
			"-0.024": 0.0,
			"-0.023": 0.0,
			"-0.022": 0.0,
			"-0.021": 0.0,
			"-0.02": 0.0,
			"-0.019": 0.0,
			"-0.018": 0.0,
			"-0.017": 0.0,
			"-0.016": 0.0,
			"-0.015": 0.0,
			"-0.014": 0.0,
			"-0.013": 0.0,
			"-0.012": 0.444973779521,
			"-0.011": 3.0419714569,
			"-0.01": 5.14374848635,
			"-0.009": 9.82575219611,
			"-0.008": 9.23377702648,
			"-0.007": 10.3062277074,
			"-0.006": 8.17757082389,
			"-0.005": 7.84006471119,
			"-0.004": 8.99742537743,
			"-0.003": 11.8223905345,
			"-0.002": 19.4482220152,
			"-0.001": 21.5055451923,
			"0.0": 14.9241743239,
			"0.001": 13.1839619149,
			"0.002": 15.8130046895,
			"0.003": 21.6890747863,
			"0.004": 8.55690210115,
			"0.005": 5.80492973853,
			"0.006": 5.84837257056,
			"0.007": 9.1251054378,
			"0.008": 12.8280434791,
			"0.009": 7.74969094296,
			"0.01": 3.15677657726,
			"0.011": 2.49556483369,
			"0.012": 2.34217976578,
			"0.013": 0.876824762364,
			"0.014": 0.0,
			"0.015": 0.0,
			"0.016": 0.0,
			"0.017": 0.0,
			"0.018": 0.0,
			"0.019": 0.0,
			"0.02": 0.0,
			"0.021": 0.0,
			"0.022": 0.0,
			"0.023": 0.0,
			"0.024": 0.0,
			"0.025": 0.0
		}
	}
}
