{
	 "smiles": "CC(C)C1=C(C)NC2=C(C=CC=C2)C1=O", 
	 "Tm": 573.15, 
	 "num_atms": 30, 
	 "gaussian": { 
		 "optdone": 1, 
		 "sigma_profile": "yes", 
		 "theory": "DFT", 
		 "functional": "B3LYP", 
		 "basiset": "6-31G**", 
		 "properties": { 
			 "R2extent": 4013.3383, 
			 "electric_dipole_moment_norm": 5.5457863437, 
			 "electric_quadrupole_moment_norm": 13.6624625859, 
			 "total_energy": -634.429260776, 
			 "HOMO_LUMO_gap": 0.1665, 
			 "cosmo_polarized_energy": -16.86, 
			 "cosmo_cavitation_energy": 31.52, 
			 "cosmo_dispersion_energy": -22.92, 
			 "cosmo_repulsion_energy": 1.77, 
			 "cosmo_total_nonelectrostatic_energy": 10.36, 
			 "SMD_solvation_energy": 5.7 
		},
		"coords": [
			{
				"x": -2.2301485176,
				"y": 2.5420500303,
				"z": -2.1845730702,
				"element": "C" 
			},
			{
				"x": -2.109438771,
				"y": 2.0804315662,
				"z": -0.718407679,
				"element": "C" 
			},
			{
				"x": -1.5861216944,
				"y": 3.1970865065,
				"z": 0.2050570566,
				"element": "C" 
			},
			{
				"x": -1.3925659616,
				"y": 0.7428245629,
				"z": -0.5601033737,
				"element": "C" 
			},
			{
				"x": -0.0523937391,
				"y": 0.5292067706,
				"z": -0.7630703413,
				"element": "C" 
			},
			{
				"x": 0.9658657572,
				"y": 1.5688670334,
				"z": -1.1610716591,
				"element": "C" 
			},
			{
				"x": 0.5077996432,
				"y": -0.7193200269,
				"z": -0.5838325932,
				"element": "N" 
			},
			{
				"x": -0.2071226151,
				"y": -1.8350626514,
				"z": -0.1987621944,
				"element": "C" 
			},
			{
				"x": -1.5897650637,
				"y": -1.6978852123,
				"z": 0.0199368613,
				"element": "C" 
			},
			{
				"x": -2.3303957956,
				"y": -2.8267518035,
				"z": 0.4107904685,
				"element": "C" 
			},
			{
				"x": -1.7144980602,
				"y": -4.0564987767,
				"z": 0.5790826709,
				"element": "C" 
			},
			{
				"x": -0.3309666725,
				"y": -4.1794499926,
				"z": 0.3557955457,
				"element": "C" 
			},
			{
				"x": 0.4231505366,
				"y": -3.0828484454,
				"z": -0.0304053909,
				"element": "C" 
			},
			{
				"x": -2.2525944672,
				"y": -0.3875922729,
				"z": -0.1590054879,
				"element": "C" 
			},
			{
				"x": -3.470969745,
				"y": -0.2661007264,
				"z": 0.0256562925,
				"element": "O" 
			},
			{
				"x": -1.2658664065,
				"y": 2.807723717,
				"z": -2.6322343218,
				"element": "H" 
			},
			{
				"x": -2.6769444802,
				"y": 1.7566299291,
				"z": -2.8017096346,
				"element": "H" 
			},
			{
				"x": -2.8731877129,
				"y": 3.4270459882,
				"z": -2.2508446388,
				"element": "H" 
			},
			{
				"x": -3.1280950434,
				"y": 1.8562679499,
				"z": -0.3872245516,
				"element": "H" 
			},
			{
				"x": -2.2589083982,
				"y": 4.0612356272,
				"z": 0.1652994513,
				"element": "H" 
			},
			{
				"x": -1.5433328042,
				"y": 2.8561938002,
				"z": 1.2444216799,
				"element": "H" 
			},
			{
				"x": -0.5881515108,
				"y": 3.553403027,
				"z": -0.0703069376,
				"element": "H" 
			},
			{
				"x": 0.5023216455,
				"y": 2.4491934898,
				"z": -1.5976460027,
				"element": "H" 
			},
			{
				"x": 1.5535551923,
				"y": 1.8916937636,
				"z": -0.2930220982,
				"element": "H" 
			},
			{
				"x": 1.6643659679,
				"y": 1.1584015497,
				"z": -1.8999816901,
				"element": "H" 
			},
			{
				"x": 1.4973818963,
				"y": -0.824429328,
				"z": -0.7525821286,
				"element": "H" 
			},
			{
				"x": -3.3944885332,
				"y": -2.6888455938,
				"z": 0.571544796,
				"element": "H" 
			},
			{
				"x": -2.2932177433,
				"y": -4.923775317,
				"z": 0.8814339247,
				"element": "H" 
			},
			{
				"x": 0.1556290149,
				"y": -5.1418401765,
				"z": 0.4862555623,
				"element": "H" 
			},
			{
				"x": 1.4927040817,
				"y": -3.1772549883,
				"z": -0.2029905162,
				"element": "H" 
			}
		],
		 "valence_orbital": [ 
			{
				"type": "occ",
				"energy": -0.31092,
				"method": "rhf"
			},
			{
				"type": "occ",
				"energy": -0.25508,
				"method": "rhf"
			},
			{
				"type": "occ",
				"energy": -0.2506,
				"method": "rhf"
			},
			{
				"type": "occ",
				"energy": -0.22263,
				"method": "rhf"
			},
			{
				"type": "occ",
				"energy": -0.20439,
				"method": "rhf"
			},
			{
				"type": "unocc",
				"energy": -0.03789,
				"method": "rhf"
			},
			{
				"type": "unocc",
				"energy": -0.00884,
				"method": "rhf"
			},
			{
				"type": "unocc",
				"energy": 0.01946,
				"method": "rhf"
			},
			{
				"type": "unocc",
				"energy": 0.06149,
				"method": "rhf"
			},
			{
				"type": "unocc",
				"energy": 0.08813,
				"method": "rhf"
			}
		],
		"cosmo_sigma_profile": { 
			"-0.025": 0.0,
			"-0.024": 0.0,
			"-0.023": 0.0,
			"-0.022": 0.0,
			"-0.021": 0.0,
			"-0.02": 0.0,
			"-0.019": 0.0,
			"-0.018": 0.0,
			"-0.017": 0.0,
			"-0.016": 0.476716998814,
			"-0.015": 1.23774473245,
			"-0.014": 1.43108396602,
			"-0.013": 1.37596114852,
			"-0.012": 1.42740086826,
			"-0.011": 2.10113509341,
			"-0.01": 1.37528988831,
			"-0.009": 1.35329945571,
			"-0.008": 2.19328335439,
			"-0.007": 3.2041693158,
			"-0.006": 8.13690457832,
			"-0.005": 14.0529452354,
			"-0.004": 14.347931083,
			"-0.003": 16.9314200341,
			"-0.002": 23.8878617609,
			"-0.001": 21.2111640821,
			"0.0": 21.5007578346,
			"0.001": 31.5510622123,
			"0.002": 23.9884570196,
			"0.003": 13.8182052245,
			"0.004": 12.4883511401,
			"0.005": 8.78404342087,
			"0.006": 2.53740599311,
			"0.007": 1.55211578007,
			"0.008": 1.75345696234,
			"0.009": 1.98445453522,
			"0.01": 1.80125016389,
			"0.011": 1.07618989409,
			"0.012": 1.36784071171,
			"0.013": 2.15517395081,
			"0.014": 2.9690185879,
			"0.015": 4.95233523235,
			"0.016": 0.101867471117,
			"0.017": 0.0,
			"0.018": 0.0,
			"0.019": 0.0,
			"0.02": 0.0,
			"0.021": 0.0,
			"0.022": 0.0,
			"0.023": 0.0,
			"0.024": 0.0,
			"0.025": 0.0
		}
	}
}
