{
	 "smiles": "ClP(Cl)(=O)C1=CC=CC=C1", 
	 "Tm": 276.15, 
	 "num_atms": 15, 
	 "gaussian": { 
		 "optdone": 1, 
		 "sigma_profile": "yes", 
		 "theory": "DFT", 
		 "functional": "B3LYP", 
		 "basiset": "6-31G**", 
		 "properties": { 
			 "R2extent": 3323.1488, 
			 "electric_dipole_moment_norm": 4.84319574455, 
			 "electric_quadrupole_moment_norm": 11.1834019283, 
			 "total_energy": -1568.67648023, 
			 "HOMO_LUMO_gap": 0.22115, 
			 "cosmo_polarized_energy": -8.47, 
			 "cosmo_cavitation_energy": 24.54, 
			 "cosmo_dispersion_energy": -18.21, 
			 "cosmo_repulsion_energy": 1.45, 
			 "cosmo_total_nonelectrostatic_energy": 7.78, 
			 "SMD_solvation_energy": 4.24 
		},
		"coords": [
			{
				"x": -2.8120493383,
				"y": 1.0409092177,
				"z": 2.3541320928,
				"element": "Cl" 
			},
			{
				"x": -2.6428437113,
				"y": 0.9410007687,
				"z": 0.2987489484,
				"element": "P" 
			},
			{
				"x": -2.9294235981,
				"y": 2.9123288808,
				"z": -0.2443467078,
				"element": "Cl" 
			},
			{
				"x": -3.5917739859,
				"y": -0.0003564635,
				"z": -0.3364539074,
				"element": "O" 
			},
			{
				"x": -0.8968102064,
				"y": 0.6106189404,
				"z": -0.0181686662,
				"element": "C" 
			},
			{
				"x": -0.6090920553,
				"y": -0.4953241287,
				"z": -0.8295739153,
				"element": "C" 
			},
			{
				"x": 0.7212651937,
				"y": -0.806416051,
				"z": -1.1144591138,
				"element": "C" 
			},
			{
				"x": 1.7503359553,
				"y": -0.0210323546,
				"z": -0.5940740187,
				"element": "C" 
			},
			{
				"x": 1.4576042616,
				"y": 1.0813799103,
				"z": 0.2151517189,
				"element": "C" 
			},
			{
				"x": 0.1342103268,
				"y": 1.4020988355,
				"z": 0.5066105971,
				"element": "C" 
			},
			{
				"x": -1.421171911,
				"y": -1.0952931451,
				"z": -1.2259128212,
				"element": "H" 
			},
			{
				"x": 0.9506881914,
				"y": -1.6617683707,
				"z": -1.7423980533,
				"element": "H" 
			},
			{
				"x": 2.7844118874,
				"y": -0.2660860826,
				"z": -0.8178879801,
				"element": "H" 
			},
			{
				"x": 2.2608302043,
				"y": 1.6902519935,
				"z": 0.6184076143,
				"element": "H" 
			},
			{
				"x": -0.0926812142,
				"y": 2.2578880496,
				"z": 1.1348242122,
				"element": "H" 
			}
		],
		 "valence_orbital": [ 
			{
				"type": "occ",
				"energy": -0.33773,
				"method": "rhf"
			},
			{
				"type": "occ",
				"energy": -0.31603,
				"method": "rhf"
			},
			{
				"type": "occ",
				"energy": -0.31312,
				"method": "rhf"
			},
			{
				"type": "occ",
				"energy": -0.28422,
				"method": "rhf"
			},
			{
				"type": "occ",
				"energy": -0.28095,
				"method": "rhf"
			},
			{
				"type": "unocc",
				"energy": -0.0598,
				"method": "rhf"
			},
			{
				"type": "unocc",
				"energy": -0.048,
				"method": "rhf"
			},
			{
				"type": "unocc",
				"energy": -0.03114,
				"method": "rhf"
			},
			{
				"type": "unocc",
				"energy": 0.04255,
				"method": "rhf"
			},
			{
				"type": "unocc",
				"energy": 0.04846,
				"method": "rhf"
			}
		],
		"cosmo_sigma_profile": { 
			"-0.025": 0.0,
			"-0.024": 0.0,
			"-0.023": 0.0,
			"-0.022": 0.0,
			"-0.021": 0.0,
			"-0.02": 0.0,
			"-0.019": 0.0,
			"-0.018": 0.0,
			"-0.017": 0.0,
			"-0.016": 0.0,
			"-0.015": 0.0,
			"-0.014": 0.0,
			"-0.013": 0.0,
			"-0.012": 0.0,
			"-0.011": 0.0,
			"-0.01": 0.058903138107,
			"-0.009": 0.235014829262,
			"-0.008": 1.73015311315,
			"-0.007": 9.84340050487,
			"-0.006": 13.0071830725,
			"-0.005": 12.4605953928,
			"-0.004": 9.42142109653,
			"-0.003": 10.1118324236,
			"-0.002": 12.4399882411,
			"-0.001": 14.7605378186,
			"0.0": 19.1747712582,
			"0.001": 21.8535334255,
			"0.002": 32.4362082816,
			"0.003": 24.2126753915,
			"0.004": 2.00880870396,
			"0.005": 1.32498763582,
			"0.006": 0.553308263999,
			"0.007": 0.907603231048,
			"0.008": 1.53783112026,
			"0.009": 1.35040828918,
			"0.01": 1.56101261021,
			"0.011": 3.96461889227,
			"0.012": 4.75961398208,
			"0.013": 0.547746253963,
			"0.014": 0.0,
			"0.015": 0.0,
			"0.016": 0.0,
			"0.017": 0.0,
			"0.018": 0.0,
			"0.019": 0.0,
			"0.02": 0.0,
			"0.021": 0.0,
			"0.022": 0.0,
			"0.023": 0.0,
			"0.024": 0.0,
			"0.025": 0.0
		}
	}
}
