{
	 "smiles": "OC(=O)CCC(=O)N1CCC2=C(C1)C=CS2", 
	 "Tm": 404.15, 
	 "num_atms": 29, 
	 "gaussian": { 
		 "optdone": 1, 
		 "sigma_profile": "yes", 
		 "theory": "DFT", 
		 "functional": "B3LYP", 
		 "basiset": "6-31G**", 
		 "properties": { 
			 "R2extent": 5617.3328, 
			 "electric_dipole_moment_norm": 4.84975645677, 
			 "electric_quadrupole_moment_norm": 21.4353939985, 
			 "total_energy": -1105.63637893, 
			 "HOMO_LUMO_gap": 0.21677, 
			 "cosmo_polarized_energy": -18.48, 
			 "cosmo_cavitation_energy": 33.5, 
			 "cosmo_dispersion_energy": -24.68, 
			 "cosmo_repulsion_energy": 1.9, 
			 "cosmo_total_nonelectrostatic_energy": 10.72, 
			 "SMD_solvation_energy": 6.08 
		},
		"coords": [
			{
				"x": 4.2260599134,
				"y": 1.1900081621,
				"z": -1.1306120559,
				"element": "O" 
			},
			{
				"x": 3.8403190864,
				"y": 2.3692903421,
				"z": -1.6840068102,
				"element": "C" 
			},
			{
				"x": 4.4704390751,
				"y": 3.3906517298,
				"z": -1.536434805,
				"element": "O" 
			},
			{
				"x": 2.6106195771,
				"y": 2.224632602,
				"z": -2.5578931043,
				"element": "C" 
			},
			{
				"x": 1.6425680173,
				"y": 1.1113872081,
				"z": -2.15325262,
				"element": "C" 
			},
			{
				"x": 1.045859648,
				"y": 1.376461258,
				"z": -0.7690013599,
				"element": "C" 
			},
			{
				"x": 1.4070909094,
				"y": 2.3511340065,
				"z": -0.1136650168,
				"element": "O" 
			},
			{
				"x": 0.1057788162,
				"y": 0.4912414463,
				"z": -0.2992259524,
				"element": "N" 
			},
			{
				"x": -0.5214161347,
				"y": 0.7420486678,
				"z": 1.0002592979,
				"element": "C" 
			},
			{
				"x": -0.2912994222,
				"y": -0.4406386185,
				"z": 1.9539251494,
				"element": "C" 
			},
			{
				"x": -0.6290188486,
				"y": -1.710597813,
				"z": 1.2268266796,
				"element": "C" 
			},
			{
				"x": -0.6940774525,
				"y": -1.821353787,
				"z": -0.1370120433,
				"element": "C" 
			},
			{
				"x": -0.4112234767,
				"y": -0.6514333742,
				"z": -1.0510700174,
				"element": "C" 
			},
			{
				"x": -1.0557979679,
				"y": -3.1365738876,
				"z": -0.5760662875,
				"element": "C" 
			},
			{
				"x": -1.2518367217,
				"y": -4.0030291815,
				"z": 0.460411572,
				"element": "C" 
			},
			{
				"x": -1.0027267158,
				"y": -3.2292371876,
				"z": 1.996947858,
				"element": "S" 
			},
			{
				"x": 5.0187140099,
				"y": 1.3933630338,
				"z": -0.6067779575,
				"element": "H" 
			},
			{
				"x": 2.9689863548,
				"y": 2.035210555,
				"z": -3.5779842311,
				"element": "H" 
			},
			{
				"x": 2.117501952,
				"y": 3.1978200304,
				"z": -2.5612432769,
				"element": "H" 
			},
			{
				"x": 2.1623594131,
				"y": 0.1473211814,
				"z": -2.1507952954,
				"element": "H" 
			},
			{
				"x": 0.8410986795,
				"y": 1.0379722954,
				"z": -2.8982411266,
				"element": "H" 
			},
			{
				"x": -0.0912585078,
				"y": 1.6626626265,
				"z": 1.3922074411,
				"element": "H" 
			},
			{
				"x": -1.6002402329,
				"y": 0.8910365757,
				"z": 0.8548574748,
				"element": "H" 
			},
			{
				"x": 0.7545995045,
				"y": -0.4477003457,
				"z": 2.2874131865,
				"element": "H" 
			},
			{
				"x": -0.911544649,
				"y": -0.3143278527,
				"z": 2.8490251427,
				"element": "H" 
			},
			{
				"x": -1.3304765753,
				"y": -0.371491405,
				"z": -1.5935956188,
				"element": "H" 
			},
			{
				"x": 0.3186442282,
				"y": -0.9510407192,
				"z": -1.8060410297,
				"element": "H" 
			},
			{
				"x": -1.1614119091,
				"y": -3.4202435898,
				"z": -1.6180534974,
				"element": "H" 
			},
			{
				"x": -1.524810571,
				"y": -5.0481739595,
				"z": 0.4186983041,
				"element": "H" 
			}
		],
		 "valence_orbital": [ 
			{
				"type": "occ",
				"energy": -0.26245,
				"method": "rhf"
			},
			{
				"type": "occ",
				"energy": -0.25544,
				"method": "rhf"
			},
			{
				"type": "occ",
				"energy": -0.25227,
				"method": "rhf"
			},
			{
				"type": "occ",
				"energy": -0.24195,
				"method": "rhf"
			},
			{
				"type": "occ",
				"energy": -0.23195,
				"method": "rhf"
			},
			{
				"type": "unocc",
				"energy": -0.01518,
				"method": "rhf"
			},
			{
				"type": "unocc",
				"energy": 0.0209,
				"method": "rhf"
			},
			{
				"type": "unocc",
				"energy": 0.02264,
				"method": "rhf"
			},
			{
				"type": "unocc",
				"energy": 0.02677,
				"method": "rhf"
			},
			{
				"type": "unocc",
				"energy": 0.05219,
				"method": "rhf"
			}
		],
		"cosmo_sigma_profile": { 
			"-0.025": 0.0,
			"-0.024": 0.0,
			"-0.023": 0.0,
			"-0.022": 0.0,
			"-0.021": 0.0,
			"-0.02": 0.0,
			"-0.019": 0.0,
			"-0.018": 0.367071727896,
			"-0.017": 1.1246918862,
			"-0.016": 0.532678919655,
			"-0.015": 0.786838011486,
			"-0.014": 1.11975731145,
			"-0.013": 0.484557268955,
			"-0.012": 0.647393842592,
			"-0.011": 0.846451717721,
			"-0.01": 0.881637888364,
			"-0.009": 0.475957295134,
			"-0.008": 2.33899526384,
			"-0.007": 8.68397639845,
			"-0.006": 15.589070279,
			"-0.005": 24.2759523265,
			"-0.004": 30.1716972221,
			"-0.003": 23.1575180452,
			"-0.002": 20.5033901209,
			"-0.001": 13.542462717,
			"0.0": 11.5242022739,
			"0.001": 11.728123198,
			"0.002": 11.2028469676,
			"0.003": 12.2804313306,
			"0.004": 13.5826560554,
			"0.005": 16.18064014,
			"0.006": 8.24780136145,
			"0.007": 4.16526751105,
			"0.008": 4.87375823025,
			"0.009": 4.23274115648,
			"0.01": 2.6848760725,
			"0.011": 5.46680896999,
			"0.012": 7.84839409243,
			"0.013": 5.00347039951,
			"0.014": 1.97236182031,
			"0.015": 0.0,
			"0.016": 0.0,
			"0.017": 0.0,
			"0.018": 0.0,
			"0.019": 0.0,
			"0.02": 0.0,
			"0.021": 0.0,
			"0.022": 0.0,
			"0.023": 0.0,
			"0.024": 0.0,
			"0.025": 0.0
		}
	}
}
