{
	 "smiles": "CC1=NN(C(N)=C1)C1=CC(=CC=C1)C(F)(F)F", 
	 "Tm": 363.15, 
	 "num_atms": 27, 
	 "gaussian": { 
		 "optdone": 1, 
		 "sigma_profile": "yes", 
		 "theory": "DFT", 
		 "functional": "B3LYP", 
		 "basiset": "6-31G**", 
		 "properties": { 
			 "R2extent": 4961.0434, 
			 "electric_dipole_moment_norm": 4.76261577182, 
			 "electric_quadrupole_moment_norm": 9.90278631548, 
			 "total_energy": -888.966535394, 
			 "HOMO_LUMO_gap": 0.18243, 
			 "cosmo_polarized_energy": -12.19, 
			 "cosmo_cavitation_energy": 32.6, 
			 "cosmo_dispersion_energy": -23.28, 
			 "cosmo_repulsion_energy": 1.76, 
			 "cosmo_total_nonelectrostatic_energy": 11.09, 
			 "SMD_solvation_energy": 6.21 
		},
		"coords": [
			{
				"x": 1.6318996828,
				"y": -1.4590184647,
				"z": 4.6609356902,
				"element": "C" 
			},
			{
				"x": 0.5781238366,
				"y": -0.9640261935,
				"z": 3.7186849766,
				"element": "C" 
			},
			{
				"x": 0.7651614027,
				"y": -1.0404658346,
				"z": 2.4089833574,
				"element": "N" 
			},
			{
				"x": -0.3857254648,
				"y": -0.5278367297,
				"z": 1.8501717674,
				"element": "N" 
			},
			{
				"x": -1.2655210216,
				"y": -0.103668368,
				"z": 2.8194977595,
				"element": "C" 
			},
			{
				"x": -2.5117206386,
				"y": 0.4504510736,
				"z": 2.5232439469,
				"element": "N" 
			},
			{
				"x": -0.6777617241,
				"y": -0.3824483559,
				"z": 4.0375725051,
				"element": "C" 
			},
			{
				"x": -0.4874783202,
				"y": -0.449957618,
				"z": 0.4418147893,
				"element": "C" 
			},
			{
				"x": 0.6858281119,
				"y": -0.2950207289,
				"z": -0.3081360552,
				"element": "C" 
			},
			{
				"x": 0.6100547557,
				"y": -0.2334048427,
				"z": -1.6969683591,
				"element": "C" 
			},
			{
				"x": -0.6221002455,
				"y": -0.3158809165,
				"z": -2.3545548356,
				"element": "C" 
			},
			{
				"x": -1.7816942955,
				"y": -0.4798579258,
				"z": -1.6016741812,
				"element": "C" 
			},
			{
				"x": -1.7243644684,
				"y": -0.5577441952,
				"z": -0.2092168501,
				"element": "C" 
			},
			{
				"x": 1.8634313576,
				"y": -0.0049871943,
				"z": -2.5005332639,
				"element": "C" 
			},
			{
				"x": 1.8082538589,
				"y": -0.6273237861,
				"z": -3.6998344522,
				"element": "F" 
			},
			{
				"x": 2.054926455,
				"y": 1.3118113284,
				"z": -2.7541559155,
				"element": "F" 
			},
			{
				"x": 2.9664813795,
				"y": -0.4475480581,
				"z": -1.8621205482,
				"element": "F" 
			},
			{
				"x": 1.2536827658,
				"y": -2.2742398537,
				"z": 5.2879268649,
				"element": "H" 
			},
			{
				"x": 1.97202122,
				"y": -0.6624097448,
				"z": 5.3321952815,
				"element": "H" 
			},
			{
				"x": 2.4908726415,
				"y": -1.8271636506,
				"z": 4.0959935697,
				"element": "H" 
			},
			{
				"x": -2.9297122863,
				"y": 0.8784866056,
				"z": 3.339991698,
				"element": "H" 
			},
			{
				"x": -2.4928268285,
				"y": 1.1114381535,
				"z": 1.7536312677,
				"element": "H" 
			},
			{
				"x": -1.0899505526,
				"y": -0.1798973226,
				"z": 5.0154959061,
				"element": "H" 
			},
			{
				"x": 1.6367238623,
				"y": -0.2472185787,
				"z": 0.2059769781,
				"element": "H" 
			},
			{
				"x": -0.6646298496,
				"y": -0.2697148923,
				"z": -3.4369656667,
				"element": "H" 
			},
			{
				"x": -2.7421596761,
				"y": -0.5696795374,
				"z": -2.0999461695,
				"element": "H" 
			},
			{
				"x": -2.6262159586,
				"y": -0.7277743689,
				"z": 0.3669899388,
				"element": "H" 
			}
		],
		 "valence_orbital": [ 
			{
				"type": "occ",
				"energy": -0.2875,
				"method": "rhf"
			},
			{
				"type": "occ",
				"energy": -0.28276,
				"method": "rhf"
			},
			{
				"type": "occ",
				"energy": -0.26923,
				"method": "rhf"
			},
			{
				"type": "occ",
				"energy": -0.22574,
				"method": "rhf"
			},
			{
				"type": "occ",
				"energy": -0.21261,
				"method": "rhf"
			},
			{
				"type": "unocc",
				"energy": -0.03018,
				"method": "rhf"
			},
			{
				"type": "unocc",
				"energy": -0.02337,
				"method": "rhf"
			},
			{
				"type": "unocc",
				"energy": 0.04077,
				"method": "rhf"
			},
			{
				"type": "unocc",
				"energy": 0.06698,
				"method": "rhf"
			},
			{
				"type": "unocc",
				"energy": 0.07962,
				"method": "rhf"
			}
		],
		"cosmo_sigma_profile": { 
			"-0.025": 0.0,
			"-0.024": 0.0,
			"-0.023": 0.0,
			"-0.022": 0.0,
			"-0.021": 0.0,
			"-0.02": 0.0,
			"-0.019": 0.0,
			"-0.018": 0.0,
			"-0.017": 0.0,
			"-0.016": 0.0,
			"-0.015": 0.0,
			"-0.014": 0.408420616938,
			"-0.013": 1.9669498544,
			"-0.012": 2.85811106166,
			"-0.011": 2.63807954611,
			"-0.01": 3.10708671031,
			"-0.009": 2.04697396738,
			"-0.008": 2.60551822115,
			"-0.007": 5.50723084514,
			"-0.006": 9.71582118019,
			"-0.005": 11.4951175055,
			"-0.004": 13.9918797439,
			"-0.003": 12.8841426431,
			"-0.002": 18.7739710284,
			"-0.001": 18.4563961018,
			"0.0": 21.0333914774,
			"0.001": 21.5036531773,
			"0.002": 30.8390888768,
			"0.003": 42.5174109035,
			"0.004": 10.3543022623,
			"0.005": 7.43922672542,
			"0.006": 6.13243045091,
			"0.007": 2.71687941811,
			"0.008": 2.7708177001,
			"0.009": 1.95822397868,
			"0.01": 1.74722694967,
			"0.011": 1.74503887639,
			"0.012": 1.31581463411,
			"0.013": 0.90065539864,
			"0.014": 0.769681692913,
			"0.015": 0.454329623823,
			"0.016": 0.0,
			"0.017": 0.0,
			"0.018": 0.0,
			"0.019": 0.0,
			"0.02": 0.0,
			"0.021": 0.0,
			"0.022": 0.0,
			"0.023": 0.0,
			"0.024": 0.0,
			"0.025": 0.0
		}
	}
}
