{
	 "smiles": "ClC1=CN2C(=O)C=C(Cl)N=C2C=C1", 
	 "Tm": 493.15, 
	 "num_atms": 17, 
	 "gaussian": { 
		 "optdone": 1, 
		 "sigma_profile": "yes", 
		 "theory": "DFT", 
		 "functional": "B3LYP", 
		 "basiset": "6-31G**", 
		 "properties": { 
			 "R2extent": 5565.4609, 
			 "electric_dipole_moment_norm": 3.36919865547, 
			 "electric_quadrupole_moment_norm": 11.6815623681, 
			 "total_energy": -1412.37223371, 
			 "HOMO_LUMO_gap": 0.15212, 
			 "cosmo_polarized_energy": -10.35, 
			 "cosmo_cavitation_energy": 25.72, 
			 "cosmo_dispersion_energy": -19.64, 
			 "cosmo_repulsion_energy": 1.53, 
			 "cosmo_total_nonelectrostatic_energy": 7.61, 
			 "SMD_solvation_energy": 3.38 
		},
		"coords": [
			{
				"x": 2.0544849721,
				"y": -2.5780981393,
				"z": -1.6555360543,
				"element": "Cl" 
			},
			{
				"x": 1.8863508919,
				"y": -0.8846643348,
				"z": -1.2699349132,
				"element": "C" 
			},
			{
				"x": 1.0374299963,
				"y": -0.102144504,
				"z": -1.9951349603,
				"element": "C" 
			},
			{
				"x": 0.9001377817,
				"y": 1.2320607381,
				"z": -1.6969143402,
				"element": "N" 
			},
			{
				"x": -0.0419072062,
				"y": 1.9954819276,
				"z": -2.5374139448,
				"element": "C" 
			},
			{
				"x": -0.63252036,
				"y": 1.4091388137,
				"z": -3.4306523871,
				"element": "O" 
			},
			{
				"x": -0.1214457113,
				"y": 3.3668844781,
				"z": -2.1586770504,
				"element": "C" 
			},
			{
				"x": 0.6372436818,
				"y": 3.8360366409,
				"z": -1.1088393345,
				"element": "C" 
			},
			{
				"x": 0.5064562512,
				"y": 5.5327472884,
				"z": -0.6784404169,
				"element": "Cl" 
			},
			{
				"x": 1.4833992608,
				"y": 3.1238913338,
				"z": -0.3628923842,
				"element": "N" 
			},
			{
				"x": 1.6067734848,
				"y": 1.8358382574,
				"z": -0.6615211672,
				"element": "C" 
			},
			{
				"x": 2.4911050898,
				"y": 1.0049504925,
				"z": 0.0885018878,
				"element": "C" 
			},
			{
				"x": 2.6351059601,
				"y": -0.3238256964,
				"z": -0.1999121575,
				"element": "C" 
			},
			{
				"x": 0.4281673142,
				"y": -0.4379263125,
				"z": -2.8242895838,
				"element": "H" 
			},
			{
				"x": -0.7886490232,
				"y": 4.0056598564,
				"z": -2.7202063797,
				"element": "H" 
			},
			{
				"x": 3.0363598822,
				"y": 1.4845151621,
				"z": 0.8921441636,
				"element": "H" 
			},
			{
				"x": 3.3083077339,
				"y": -0.9521460019,
				"z": 0.3725190227,
				"element": "H" 
			}
		],
		 "valence_orbital": [ 
			{
				"type": "occ",
				"energy": -0.32367,
				"method": "rhf"
			},
			{
				"type": "occ",
				"energy": -0.30317,
				"method": "rhf"
			},
			{
				"type": "occ",
				"energy": -0.2845,
				"method": "rhf"
			},
			{
				"type": "occ",
				"energy": -0.2777,
				"method": "rhf"
			},
			{
				"type": "occ",
				"energy": -0.23671,
				"method": "rhf"
			},
			{
				"type": "unocc",
				"energy": -0.08459,
				"method": "rhf"
			},
			{
				"type": "unocc",
				"energy": -0.06618,
				"method": "rhf"
			},
			{
				"type": "unocc",
				"energy": -0.00645,
				"method": "rhf"
			},
			{
				"type": "unocc",
				"energy": 0.00052,
				"method": "rhf"
			},
			{
				"type": "unocc",
				"energy": 0.02642,
				"method": "rhf"
			}
		],
		"cosmo_sigma_profile": { 
			"-0.025": 0.0,
			"-0.024": 0.0,
			"-0.023": 0.0,
			"-0.022": 0.0,
			"-0.021": 0.0,
			"-0.02": 0.0,
			"-0.019": 0.0,
			"-0.018": 0.0,
			"-0.017": 0.0,
			"-0.016": 0.0,
			"-0.015": 0.0,
			"-0.014": 0.0,
			"-0.013": 0.0,
			"-0.012": 0.0,
			"-0.011": 0.0,
			"-0.01": 0.73946954607,
			"-0.009": 4.65180761768,
			"-0.008": 7.09140442946,
			"-0.007": 6.49358652652,
			"-0.006": 9.76005510446,
			"-0.005": 9.92808687134,
			"-0.004": 11.985738478,
			"-0.003": 15.4354549865,
			"-0.002": 19.7181742972,
			"-0.001": 20.0071778741,
			"0.0": 18.2665530368,
			"0.001": 14.6932590526,
			"0.002": 13.1198417108,
			"0.003": 20.1607029628,
			"0.004": 12.520794646,
			"0.005": 3.6351501718,
			"0.006": 3.48179881343,
			"0.007": 2.61211591779,
			"0.008": 2.78846581866,
			"0.009": 2.04840474605,
			"0.01": 3.62500598474,
			"0.011": 3.11485341456,
			"0.012": 4.90056235645,
			"0.013": 2.23159365423,
			"0.014": 0.189165931031,
			"0.015": 0.0,
			"0.016": 0.0,
			"0.017": 0.0,
			"0.018": 0.0,
			"0.019": 0.0,
			"0.02": 0.0,
			"0.021": 0.0,
			"0.022": 0.0,
			"0.023": 0.0,
			"0.024": 0.0,
			"0.025": 0.0
		}
	}
}
