{
	 "smiles": "O(C1=CC=CC=C1P(C1=CC=CC=C1)C1=CC=CC=C1)C1=C(C=CC=C1)P(C1=CC=CC=C1)C1=CC=CC=C1", 
	 "Tm": 459.15, 
	 "num_atms": 67, 
	 "gaussian": { 
		 "optdone": 1, 
		 "sigma_profile": "yes", 
		 "theory": "DFT", 
		 "functional": "B3LYP", 
		 "basiset": "6-31G**", 
		 "properties": { 
			 "R2extent": 21525.2542, 
			 "electric_dipole_moment_norm": 0.521656256552, 
			 "electric_quadrupole_moment_norm": 7.14522953795, 
			 "total_energy": -2146.61969916, 
			 "HOMO_LUMO_gap": 0.1823, 
			 "cosmo_polarized_energy": -17.2, 
			 "cosmo_cavitation_energy": 73.58, 
			 "cosmo_dispersion_energy": -44.58, 
			 "cosmo_repulsion_energy": 3.45, 
			 "cosmo_total_nonelectrostatic_energy": 32.45, 
			 "SMD_solvation_energy": 12.22 
		},
		"coords": [
			{
				"x": 0.0034865692,
				"y": -0.8140299437,
				"z": -0.1929872565,
				"element": "O" 
			},
			{
				"x": -0.0753810599,
				"y": -1.2892325546,
				"z": -1.4904805225,
				"element": "C" 
			},
			{
				"x": 0.9348890492,
				"y": -2.0890274084,
				"z": -2.0306180059,
				"element": "C" 
			},
			{
				"x": 0.8512483205,
				"y": -2.4957198097,
				"z": -3.360923724,
				"element": "C" 
			},
			{
				"x": -0.2302307557,
				"y": -2.0969725349,
				"z": -4.1476931392,
				"element": "C" 
			},
			{
				"x": -1.2262336804,
				"y": -1.2888660686,
				"z": -3.5986580138,
				"element": "C" 
			},
			{
				"x": -1.1757714328,
				"y": -0.8685622766,
				"z": -2.2599587133,
				"element": "C" 
			},
			{
				"x": -2.5086298304,
				"y": 0.1108391703,
				"z": -1.4190108628,
				"element": "P" 
			},
			{
				"x": -1.8767166631,
				"y": 1.8483224773,
				"z": -1.5433795222,
				"element": "C" 
			},
			{
				"x": -0.7381802854,
				"y": 2.2298566058,
				"z": -2.268087609,
				"element": "C" 
			},
			{
				"x": -0.3329568098,
				"y": 3.5664733935,
				"z": -2.3043837924,
				"element": "C" 
			},
			{
				"x": -1.0640494938,
				"y": 4.5420902336,
				"z": -1.6254454571,
				"element": "C" 
			},
			{
				"x": -2.1970219543,
				"y": 4.1733455165,
				"z": -0.8961012186,
				"element": "C" 
			},
			{
				"x": -2.591877974,
				"y": 2.8371684563,
				"z": -0.8468679088,
				"element": "C" 
			},
			{
				"x": -3.8411623982,
				"y": 0.1051018055,
				"z": -2.7120948566,
				"element": "C" 
			},
			{
				"x": -4.8201379171,
				"y": -0.8975599687,
				"z": -2.6096621494,
				"element": "C" 
			},
			{
				"x": -5.8693952937,
				"y": -0.9722184554,
				"z": -3.526347136,
				"element": "C" 
			},
			{
				"x": -5.9672165894,
				"y": -0.0316207233,
				"z": -4.5536531647,
				"element": "C" 
			},
			{
				"x": -5.0089414858,
				"y": 0.9783226682,
				"z": -4.6599649429,
				"element": "C" 
			},
			{
				"x": -3.9531209623,
				"y": 1.0455838432,
				"z": -3.7485483163,
				"element": "C" 
			},
			{
				"x": 0.4867672143,
				"y": -1.6371620408,
				"z": 0.8114736179,
				"element": "C" 
			},
			{
				"x": 1.4161026539,
				"y": -1.0851842255,
				"z": 1.710546661,
				"element": "C" 
			},
			{
				"x": 1.8514463762,
				"y": -1.898353955,
				"z": 2.7696104425,
				"element": "C" 
			},
			{
				"x": 1.3848657558,
				"y": -3.2041841361,
				"z": 2.9240748043,
				"element": "C" 
			},
			{
				"x": 0.4583597965,
				"y": -3.7234233081,
				"z": 2.0180520944,
				"element": "C" 
			},
			{
				"x": 0.0028026827,
				"y": -2.938806771,
				"z": 0.9603322424,
				"element": "C" 
			},
			{
				"x": 2.0444542124,
				"y": 0.6275794286,
				"z": 1.3687039152,
				"element": "P" 
			},
			{
				"x": 3.4563724251,
				"y": 0.7447399262,
				"z": 2.5691407012,
				"element": "C" 
			},
			{
				"x": 3.3554527975,
				"y": 1.2294479088,
				"z": 3.8825041562,
				"element": "C" 
			},
			{
				"x": 4.4853605846,
				"y": 1.3137685952,
				"z": 4.6993404148,
				"element": "C" 
			},
			{
				"x": 5.7328511288,
				"y": 0.9111052179,
				"z": 4.2196510999,
				"element": "C" 
			},
			{
				"x": 5.8484137131,
				"y": 0.4298542594,
				"z": 2.9137263961,
				"element": "C" 
			},
			{
				"x": 4.7215794942,
				"y": 0.3575423015,
				"z": 2.094736445,
				"element": "C" 
			},
			{
				"x": 0.7559606163,
				"y": 1.6844677826,
				"z": 2.1773222302,
				"element": "C" 
			},
			{
				"x": 0.7018268458,
				"y": 3.032618411,
				"z": 1.7889405891,
				"element": "C" 
			},
			{
				"x": -0.2217837404,
				"y": 3.9052131462,
				"z": 2.364719263,
				"element": "C" 
			},
			{
				"x": -1.1189082751,
				"y": 3.4387389492,
				"z": 3.3272350431,
				"element": "C" 
			},
			{
				"x": -1.0879016583,
				"y": 2.0962125245,
				"z": 3.7087988635,
				"element": "C" 
			},
			{
				"x": -0.1565871947,
				"y": 1.2253701456,
				"z": 3.1398405192,
				"element": "C" 
			},
			{
				"x": 1.7748379647,
				"y": -2.3820945252,
				"z": -1.4102638973,
				"element": "H" 
			},
			{
				"x": 1.6365856539,
				"y": -3.1176622662,
				"z": -3.7808051729,
				"element": "H" 
			},
			{
				"x": -0.2985926099,
				"y": -2.4101378674,
				"z": -5.1852258875,
				"element": "H" 
			},
			{
				"x": -2.0651882812,
				"y": -0.9841508088,
				"z": -4.2149789077,
				"element": "H" 
			},
			{
				"x": -0.1655719251,
				"y": 1.482459327,
				"z": -2.8077663636,
				"element": "H" 
			},
			{
				"x": 0.5525834755,
				"y": 3.843921652,
				"z": -2.8698231185,
				"element": "H" 
			},
			{
				"x": -0.7512378674,
				"y": 5.5820569979,
				"z": -1.6603255668,
				"element": "H" 
			},
			{
				"x": -2.7680657984,
				"y": 4.9247421353,
				"z": -0.3577826279,
				"element": "H" 
			},
			{
				"x": -3.4634008819,
				"y": 2.556984924,
				"z": -0.2604439778,
				"element": "H" 
			},
			{
				"x": -4.7611266961,
				"y": -1.6207461829,
				"z": -1.7998680948,
				"element": "H" 
			},
			{
				"x": -6.6152972704,
				"y": -1.7566276425,
				"z": -3.4319235102,
				"element": "H" 
			},
			{
				"x": -6.7886544579,
				"y": -0.0813673673,
				"z": -5.2629497191,
				"element": "H" 
			},
			{
				"x": -5.0819151477,
				"y": 1.7160083873,
				"z": -5.4546152584,
				"element": "H" 
			},
			{
				"x": -3.2144370193,
				"y": 1.8356893207,
				"z": -3.8404976602,
				"element": "H" 
			},
			{
				"x": 2.5729644564,
				"y": -1.5019141268,
				"z": 3.4761827185,
				"element": "H" 
			},
			{
				"x": 1.7415843994,
				"y": -3.8113145729,
				"z": 3.7508245508,
				"element": "H" 
			},
			{
				"x": 0.0828072423,
				"y": -4.7357895784,
				"z": 2.1356313875,
				"element": "H" 
			},
			{
				"x": -0.7245792641,
				"y": -3.3216323195,
				"z": 0.2523139106,
				"element": "H" 
			},
			{
				"x": 2.3913841684,
				"y": 1.5461614955,
				"z": 4.2675237127,
				"element": "H" 
			},
			{
				"x": 4.3891577697,
				"y": 1.6944790586,
				"z": 5.7126480679,
				"element": "H" 
			},
			{
				"x": 6.6105066654,
				"y": 0.9784299624,
				"z": 4.8564405018,
				"element": "H" 
			},
			{
				"x": 6.8169662864,
				"y": 0.1220114797,
				"z": 2.5293414523,
				"element": "H" 
			},
			{
				"x": 4.8230382675,
				"y": 0.0023860862,
				"z": 1.0719906735,
				"element": "H" 
			},
			{
				"x": 1.3800288983,
				"y": 3.3974773547,
				"z": 1.0222114533,
				"element": "H" 
			},
			{
				"x": -0.2486783544,
				"y": 4.9449577261,
				"z": 2.0516608191,
				"element": "H" 
			},
			{
				"x": -1.8438327584,
				"y": 4.1152697878,
				"z": 3.7714455238,
				"element": "H" 
			},
			{
				"x": -1.7892275818,
				"y": 1.7243822248,
				"z": 4.4509339753,
				"element": "H" 
			},
			{
				"x": -0.141574115,
				"y": 0.1834807515,
				"z": 3.4442378283,
				"element": "H" 
			}
		],
		 "valence_orbital": [ 
			{
				"type": "occ",
				"energy": -0.2433,
				"method": "rhf"
			},
			{
				"type": "occ",
				"energy": -0.24059,
				"method": "rhf"
			},
			{
				"type": "occ",
				"energy": -0.22057,
				"method": "rhf"
			},
			{
				"type": "occ",
				"energy": -0.20899,
				"method": "rhf"
			},
			{
				"type": "occ",
				"energy": -0.20618,
				"method": "rhf"
			},
			{
				"type": "unocc",
				"energy": -0.02388,
				"method": "rhf"
			},
			{
				"type": "unocc",
				"energy": -0.01639,
				"method": "rhf"
			},
			{
				"type": "unocc",
				"energy": -0.01441,
				"method": "rhf"
			},
			{
				"type": "unocc",
				"energy": -0.01118,
				"method": "rhf"
			},
			{
				"type": "unocc",
				"energy": -0.00936,
				"method": "rhf"
			}
		],
		"cosmo_sigma_profile": { 
			"-0.025": 0.0,
			"-0.024": 0.0,
			"-0.023": 0.0,
			"-0.022": 0.0,
			"-0.021": 0.0,
			"-0.02": 0.0,
			"-0.019": 0.0,
			"-0.018": 0.0,
			"-0.017": 0.0,
			"-0.016": 0.0,
			"-0.015": 0.0,
			"-0.014": 0.0,
			"-0.013": 0.0,
			"-0.012": 0.0,
			"-0.011": 0.0,
			"-0.01": 0.0,
			"-0.009": 0.0,
			"-0.008": 0.0,
			"-0.007": 1.36564723416,
			"-0.006": 27.0245575633,
			"-0.005": 49.514292158,
			"-0.004": 58.5241769419,
			"-0.003": 52.5638463683,
			"-0.002": 40.0998963234,
			"-0.001": 46.9981119538,
			"0.0": 44.1687948903,
			"0.001": 43.3561753059,
			"0.002": 50.5465341059,
			"0.003": 51.4954112895,
			"0.004": 52.4677121476,
			"0.005": 46.9552771826,
			"0.006": 12.7633752875,
			"0.007": 3.60392413572,
			"0.008": 2.20076780769,
			"0.009": 2.30387060643,
			"0.01": 1.61833269457,
			"0.011": 1.26205892406,
			"0.012": 1.38909571234,
			"0.013": 0.997602857465,
			"0.014": 0.00669887662055,
			"0.015": 0.0,
			"0.016": 0.0,
			"0.017": 0.0,
			"0.018": 0.0,
			"0.019": 0.0,
			"0.02": 0.0,
			"0.021": 0.0,
			"0.022": 0.0,
			"0.023": 0.0,
			"0.024": 0.0,
			"0.025": 0.0
		}
	}
}
