{
	 "smiles": "NC(=S)CN1N=C2C=CC=CN2C1=O", 
	 "Tm": 478.15, 
	 "num_atms": 22, 
	 "gaussian": { 
		 "optdone": 1, 
		 "sigma_profile": "yes", 
		 "theory": "DFT", 
		 "functional": "B3LYP", 
		 "basiset": "6-31G**", 
		 "properties": { 
			 "R2extent": 4332.5024, 
			 "electric_dipole_moment_norm": 6.66334412964, 
			 "electric_quadrupole_moment_norm": 8.18568749831, 
			 "total_energy": -1002.0884777, 
			 "HOMO_LUMO_gap": 0.1386, 
			 "cosmo_polarized_energy": -17.84, 
			 "cosmo_cavitation_energy": 28.28, 
			 "cosmo_dispersion_energy": -21.37, 
			 "cosmo_repulsion_energy": 1.62, 
			 "cosmo_total_nonelectrostatic_energy": 8.54, 
			 "SMD_solvation_energy": 3.49 
		},
		"coords": [
			{
				"x": 0.1521133506,
				"y": 0.2046369862,
				"z": 2.6930052487,
				"element": "N" 
			},
			{
				"x": 0.6266002541,
				"y": 1.0817216551,
				"z": 1.7967776776,
				"element": "C" 
			},
			{
				"x": 0.1192810928,
				"y": 2.6588244882,
				"z": 1.6617460728,
				"element": "S" 
			},
			{
				"x": 1.7529458909,
				"y": 0.5312121386,
				"z": 0.9147726242,
				"element": "C" 
			},
			{
				"x": 1.4204599135,
				"y": -0.6943512338,
				"z": 0.1960389787,
				"element": "N" 
			},
			{
				"x": 1.252821935,
				"y": -0.6760404558,
				"z": -1.1775042405,
				"element": "N" 
			},
			{
				"x": 1.0360079094,
				"y": -1.9334534265,
				"z": -1.4867557382,
				"element": "C" 
			},
			{
				"x": 0.7935696743,
				"y": -2.5550119661,
				"z": -2.7483155986,
				"element": "C" 
			},
			{
				"x": 0.5969837231,
				"y": -3.9058259396,
				"z": -2.7838704913,
				"element": "C" 
			},
			{
				"x": 0.6287888278,
				"y": -4.7027608689,
				"z": -1.5850038044,
				"element": "C" 
			},
			{
				"x": 0.8591723878,
				"y": -4.1143934931,
				"z": -0.3829344268,
				"element": "C" 
			},
			{
				"x": 1.0601696735,
				"y": -2.7515917068,
				"z": -0.3510678976,
				"element": "N" 
			},
			{
				"x": 1.3121105022,
				"y": -1.937621034,
				"z": 0.7595287797,
				"element": "C" 
			},
			{
				"x": 1.3900617603,
				"y": -2.2776184293,
				"z": 1.9438411395,
				"element": "O" 
			},
			{
				"x": 0.5210920741,
				"y": -0.7454860081,
				"z": 2.7536661828,
				"element": "H" 
			},
			{
				"x": -0.5823852248,
				"y": 0.507339963,
				"z": 3.3165409056,
				"element": "H" 
			},
			{
				"x": 2.6250339788,
				"y": 0.3291629328,
				"z": 1.549281647,
				"element": "H" 
			},
			{
				"x": 2.0166956148,
				"y": 1.2715394939,
				"z": 0.1645826622,
				"element": "H" 
			},
			{
				"x": 0.7728054843,
				"y": -1.9341930106,
				"z": -3.6358949762,
				"element": "H" 
			},
			{
				"x": 0.4111535127,
				"y": -4.3971073839,
				"z": -3.7334275594,
				"element": "H" 
			},
			{
				"x": 0.467802327,
				"y": -5.7728072143,
				"z": -1.6349336084,
				"element": "H" 
			},
			{
				"x": 0.9029153378,
				"y": -4.6146754869,
				"z": 0.5765264228,
				"element": "H" 
			}
		],
		 "valence_orbital": [ 
			{
				"type": "occ",
				"energy": -0.29155,
				"method": "rhf"
			},
			{
				"type": "occ",
				"energy": -0.28865,
				"method": "rhf"
			},
			{
				"type": "occ",
				"energy": -0.22851,
				"method": "rhf"
			},
			{
				"type": "occ",
				"energy": -0.21844,
				"method": "rhf"
			},
			{
				"type": "occ",
				"energy": -0.20433,
				"method": "rhf"
			},
			{
				"type": "unocc",
				"energy": -0.06573,
				"method": "rhf"
			},
			{
				"type": "unocc",
				"energy": -0.03173,
				"method": "rhf"
			},
			{
				"type": "unocc",
				"energy": -0.00992,
				"method": "rhf"
			},
			{
				"type": "unocc",
				"energy": 0.03495,
				"method": "rhf"
			},
			{
				"type": "unocc",
				"energy": 0.07509,
				"method": "rhf"
			}
		],
		"cosmo_sigma_profile": { 
			"-0.025": 0.0,
			"-0.024": 0.0,
			"-0.023": 0.0,
			"-0.022": 0.0,
			"-0.021": 0.0,
			"-0.02": 0.0,
			"-0.019": 0.0,
			"-0.018": 0.0,
			"-0.017": 0.0,
			"-0.016": 0.0,
			"-0.015": 0.924172974202,
			"-0.014": 0.974460986098,
			"-0.013": 0.960417212828,
			"-0.012": 1.59107035781,
			"-0.011": 1.27289519794,
			"-0.01": 1.85560460775,
			"-0.009": 3.71418528792,
			"-0.008": 9.66728776598,
			"-0.007": 13.4942433961,
			"-0.006": 12.3948452014,
			"-0.005": 14.25105676,
			"-0.004": 13.6193651291,
			"-0.003": 16.6000447919,
			"-0.002": 12.2501548092,
			"-0.001": 13.067328022,
			"0.0": 14.5600615006,
			"0.001": 15.0724152191,
			"0.002": 14.2556479014,
			"0.003": 6.69466164274,
			"0.004": 5.71319715821,
			"0.005": 6.4083143896,
			"0.006": 6.80755026415,
			"0.007": 5.95742583441,
			"0.008": 8.56454658331,
			"0.009": 8.30578081097,
			"0.01": 6.99052009119,
			"0.011": 6.01588486005,
			"0.012": 5.60195187577,
			"0.013": 1.76000263521,
			"0.014": 0.675961141223,
			"0.015": 0.0,
			"0.016": 0.0,
			"0.017": 0.0,
			"0.018": 0.0,
			"0.019": 0.0,
			"0.02": 0.0,
			"0.021": 0.0,
			"0.022": 0.0,
			"0.023": 0.0,
			"0.024": 0.0,
			"0.025": 0.0
		}
	}
}
