{
	 "smiles": "O=C(NC1CCNCC1)C1=CC=CC=C1", 
	 "Tm": 412.15, 
	 "num_atms": 31, 
	 "gaussian": { 
		 "optdone": 1, 
		 "sigma_profile": "yes", 
		 "theory": "DFT", 
		 "functional": "B3LYP", 
		 "basiset": "6-31G**", 
		 "properties": { 
			 "R2extent": 3610.0924, 
			 "electric_dipole_moment_norm": 2.84446846001, 
			 "electric_quadrupole_moment_norm": 23.6717944087, 
			 "total_energy": -651.652114747, 
			 "HOMO_LUMO_gap": 0.21188, 
			 "cosmo_polarized_energy": -15.0, 
			 "cosmo_cavitation_energy": 32.21, 
			 "cosmo_dispersion_energy": -22.69, 
			 "cosmo_repulsion_energy": 1.81, 
			 "cosmo_total_nonelectrostatic_energy": 11.33, 
			 "SMD_solvation_energy": 2.41 
		},
		"coords": [
			{
				"x": -2.9514072852,
				"y": -0.1136318452,
				"z": 2.476493937,
				"element": "O" 
			},
			{
				"x": -2.1284685142,
				"y": 0.0488487514,
				"z": 1.5805983289,
				"element": "C" 
			},
			{
				"x": -2.2168472681,
				"y": -0.6702423403,
				"z": 0.4171501353,
				"element": "N" 
			},
			{
				"x": -1.407139723,
				"y": -0.7070864928,
				"z": -0.812070672,
				"element": "C" 
			},
			{
				"x": 0.0355615607,
				"y": -1.2040265888,
				"z": -0.6065602259,
				"element": "C" 
			},
			{
				"x": 0.7603230884,
				"y": -1.3083857718,
				"z": -1.9636517783,
				"element": "C" 
			},
			{
				"x": 0.7317209436,
				"y": -0.0779310484,
				"z": -2.7572605068,
				"element": "N" 
			},
			{
				"x": -0.6321522633,
				"y": 0.4253442194,
				"z": -2.9338284256,
				"element": "C" 
			},
			{
				"x": -1.4169465245,
				"y": 0.6045242556,
				"z": -1.6185805448,
				"element": "C" 
			},
			{
				"x": -1.0125131093,
				"y": 1.050864841,
				"z": 1.767521926,
				"element": "C" 
			},
			{
				"x": -1.2158970815,
				"y": 2.3987198829,
				"z": 1.4452133049,
				"element": "C" 
			},
			{
				"x": -0.2323780242,
				"y": 3.3476471567,
				"z": 1.7291444367,
				"element": "C" 
			},
			{
				"x": 0.9577107959,
				"y": 2.9609592651,
				"z": 2.3485017663,
				"element": "C" 
			},
			{
				"x": 1.1572147823,
				"y": 1.6219811825,
				"z": 2.6902349022,
				"element": "C" 
			},
			{
				"x": 0.1746445552,
				"y": 0.6718362043,
				"z": 2.4070464824,
				"element": "C" 
			},
			{
				"x": -3.0135925047,
				"y": -1.29424867,
				"z": 0.44731949,
				"element": "H" 
			},
			{
				"x": -1.9144492343,
				"y": -1.4603714442,
				"z": -1.4301471677,
				"element": "H" 
			},
			{
				"x": 0.0244031035,
				"y": -2.177226657,
				"z": -0.1001900019,
				"element": "H" 
			},
			{
				"x": 0.5774695012,
				"y": -0.5066616718,
				"z": 0.0413741697,
				"element": "H" 
			},
			{
				"x": 0.292962898,
				"y": -2.1014174491,
				"z": -2.5653104708,
				"element": "H" 
			},
			{
				"x": 1.8041156655,
				"y": -1.604606705,
				"z": -1.8138831744,
				"element": "H" 
			},
			{
				"x": 1.2921531993,
				"y": 0.633153777,
				"z": -2.2909415351,
				"element": "H" 
			},
			{
				"x": -0.5878488133,
				"y": 1.3734379187,
				"z": -3.4804996737,
				"element": "H" 
			},
			{
				"x": -1.1659678525,
				"y": -0.284984816,
				"z": -3.5817414827,
				"element": "H" 
			},
			{
				"x": -2.4515164493,
				"y": 0.9054221725,
				"z": -1.8253876647,
				"element": "H" 
			},
			{
				"x": -0.9576086834,
				"y": 1.4045879991,
				"z": -1.0280058845,
				"element": "H" 
			},
			{
				"x": -2.1477119574,
				"y": 2.7050062279,
				"z": 0.9786094305,
				"element": "H" 
			},
			{
				"x": -0.399774883,
				"y": 4.389958917,
				"z": 1.472989745,
				"element": "H" 
			},
			{
				"x": 1.7216953319,
				"y": 3.7001773741,
				"z": 2.5711826147,
				"element": "H" 
			},
			{
				"x": 2.0750661288,
				"y": 1.3166306252,
				"z": 3.1845710573,
				"element": "H" 
			},
			{
				"x": 0.3253786169,
				"y": -0.3661792699,
				"z": 2.6892074819,
				"element": "H" 
			}
		],
		 "valence_orbital": [ 
			{
				"type": "occ",
				"energy": -0.26383,
				"method": "rhf"
			},
			{
				"type": "occ",
				"energy": -0.25773,
				"method": "rhf"
			},
			{
				"type": "occ",
				"energy": -0.24423,
				"method": "rhf"
			},
			{
				"type": "occ",
				"energy": -0.23564,
				"method": "rhf"
			},
			{
				"type": "occ",
				"energy": -0.22246,
				"method": "rhf"
			},
			{
				"type": "unocc",
				"energy": -0.01058,
				"method": "rhf"
			},
			{
				"type": "unocc",
				"energy": -0.00885,
				"method": "rhf"
			},
			{
				"type": "unocc",
				"energy": 0.02706,
				"method": "rhf"
			},
			{
				"type": "unocc",
				"energy": 0.07406,
				"method": "rhf"
			},
			{
				"type": "unocc",
				"energy": 0.07781,
				"method": "rhf"
			}
		],
		"cosmo_sigma_profile": { 
			"-0.025": 0.0,
			"-0.024": 0.0,
			"-0.023": 0.0,
			"-0.022": 0.0,
			"-0.021": 0.0,
			"-0.02": 0.0,
			"-0.019": 0.0,
			"-0.018": 0.0,
			"-0.017": 0.0,
			"-0.016": 0.0,
			"-0.015": 0.0,
			"-0.014": 0.0191689567054,
			"-0.013": 0.730698383001,
			"-0.012": 1.52918839669,
			"-0.011": 0.559012845841,
			"-0.01": 1.4722462002,
			"-0.009": 2.35070145656,
			"-0.008": 2.56992203443,
			"-0.007": 3.06899875053,
			"-0.006": 12.0457202978,
			"-0.005": 14.8469248005,
			"-0.004": 23.3903609503,
			"-0.003": 28.299876392,
			"-0.002": 27.6686596295,
			"-0.001": 27.6283976539,
			"0.0": 20.6848995435,
			"0.001": 12.585136406,
			"0.002": 10.7247035411,
			"0.003": 10.6762014835,
			"0.004": 9.22161370255,
			"0.005": 10.3337134986,
			"0.006": 3.07545889087,
			"0.007": 1.95871811336,
			"0.008": 3.02590092548,
			"0.009": 2.04847454336,
			"0.01": 1.80771185131,
			"0.011": 2.32289641722,
			"0.012": 2.49775957614,
			"0.013": 4.49274678037,
			"0.014": 5.66532871865,
			"0.015": 2.80274548699,
			"0.016": 0.959315896034,
			"0.017": 0.445814589498,
			"0.018": 0.533393137467,
			"0.019": 0.239370276921,
			"0.02": 0.0,
			"0.021": 0.0,
			"0.022": 0.0,
			"0.023": 0.0,
			"0.024": 0.0,
			"0.025": 0.0
		}
	}
}
