{
	 "smiles": "CCOC(=O)C1=C(C)OC(N)=C1C(=O)OCC", 
	 "Tm": 357.65, 
	 "num_atms": 32, 
	 "gaussian": { 
		 "optdone": 1, 
		 "sigma_profile": "yes", 
		 "theory": "DFT", 
		 "functional": "B3LYP", 
		 "basiset": "6-31G**", 
		 "properties": { 
			 "R2extent": 4726.7914, 
			 "electric_dipole_moment_norm": 4.30042982387, 
			 "electric_quadrupole_moment_norm": 7.98163962855, 
			 "total_energy": -859.107405488, 
			 "HOMO_LUMO_gap": 0.18244, 
			 "cosmo_polarized_energy": -15.88, 
			 "cosmo_cavitation_energy": 36.33, 
			 "cosmo_dispersion_energy": -25.37, 
			 "cosmo_repulsion_energy": 2.04, 
			 "cosmo_total_nonelectrostatic_energy": 13.0, 
			 "SMD_solvation_energy": 8.76 
		},
		"coords": [
			{
				"x": -1.1457113279,
				"y": 3.2661259225,
				"z": -2.8413711562,
				"element": "C" 
			},
			{
				"x": -0.9666242123,
				"y": 3.4731094678,
				"z": -1.3492052886,
				"element": "C" 
			},
			{
				"x": -1.0478459341,
				"y": 2.1724207631,
				"z": -0.7286902881,
				"element": "O" 
			},
			{
				"x": -0.7483368121,
				"y": 2.1158949558,
				"z": 0.5785753066,
				"element": "C" 
			},
			{
				"x": -0.5352928065,
				"y": 3.100319129,
				"z": 1.266489944,
				"element": "O" 
			},
			{
				"x": -0.7670269008,
				"y": 0.726515543,
				"z": 1.0894055024,
				"element": "C" 
			},
			{
				"x": -1.1710059344,
				"y": 0.4170779236,
				"z": 2.3533786601,
				"element": "C" 
			},
			{
				"x": -1.6118659055,
				"y": 1.2066328026,
				"z": 3.5299720273,
				"element": "C" 
			},
			{
				"x": -1.1904113681,
				"y": -0.9613424684,
				"z": 2.5033443161,
				"element": "O" 
			},
			{
				"x": -0.7878184767,
				"y": -1.512636281,
				"z": 1.3341631157,
				"element": "C" 
			},
			{
				"x": -0.6603832586,
				"y": -2.8682719761,
				"z": 1.3294435454,
				"element": "N" 
			},
			{
				"x": -0.5090632039,
				"y": -0.5332804585,
				"z": 0.3985864224,
				"element": "C" 
			},
			{
				"x": 0.088994793,
				"y": -0.7601226761,
				"z": -0.9121075212,
				"element": "C" 
			},
			{
				"x": 0.6281219162,
				"y": 0.063015222,
				"z": -1.6245569318,
				"element": "O" 
			},
			{
				"x": -0.0052508669,
				"y": -2.0903720045,
				"z": -1.2691639296,
				"element": "O" 
			},
			{
				"x": 0.6260806218,
				"y": -2.4582884156,
				"z": -2.5163637767,
				"element": "C" 
			},
			{
				"x": 2.1096401702,
				"y": -2.7422421332,
				"z": -2.330820371,
				"element": "C" 
			},
			{
				"x": -1.0610593637,
				"y": 4.223905673,
				"z": -3.3646556303,
				"element": "H" 
			},
			{
				"x": -2.1282588153,
				"y": 2.8385848684,
				"z": -3.0622589744,
				"element": "H" 
			},
			{
				"x": -0.3806045868,
				"y": 2.5851438479,
				"z": -3.2230142405,
				"element": "H" 
			},
			{
				"x": -1.7408527475,
				"y": 4.1204430544,
				"z": -0.9230246299,
				"element": "H" 
			},
			{
				"x": 0.0036065747,
				"y": 3.9182199028,
				"z": -1.1087601267,
				"element": "H" 
			},
			{
				"x": -0.97187821,
				"y": 1.0027000555,
				"z": 4.3964759975,
				"element": "H" 
			},
			{
				"x": -1.5421823086,
				"y": 2.2677750087,
				"z": 3.2915299944,
				"element": "H" 
			},
			{
				"x": -2.6412761626,
				"y": 0.9584953676,
				"z": 3.8149140761,
				"element": "H" 
			},
			{
				"x": -1.2019392252,
				"y": -3.3693630532,
				"z": 2.0183186222,
				"element": "H" 
			},
			{
				"x": -0.5957219258,
				"y": -3.2728427273,
				"z": 0.4062228421,
				"element": "H" 
			},
			{
				"x": 0.085210634,
				"y": -3.3497888167,
				"z": -2.845319561,
				"element": "H" 
			},
			{
				"x": 0.468523742,
				"y": -1.654102354,
				"z": -3.2382068516,
				"element": "H" 
			},
			{
				"x": 2.5449473519,
				"y": -3.085078398,
				"z": -3.275643413,
				"element": "H" 
			},
			{
				"x": 2.6346631939,
				"y": -1.8360993809,
				"z": -2.0197340544,
				"element": "H" 
			},
			{
				"x": 2.2696213556,
				"y": -3.5198483639,
				"z": -1.5775236273,
				"element": "H" 
			}
		],
		 "valence_orbital": [ 
			{
				"type": "occ",
				"energy": -0.28718,
				"method": "rhf"
			},
			{
				"type": "occ",
				"energy": -0.27918,
				"method": "rhf"
			},
			{
				"type": "occ",
				"energy": -0.26332,
				"method": "rhf"
			},
			{
				"type": "occ",
				"energy": -0.25793,
				"method": "rhf"
			},
			{
				"type": "occ",
				"energy": -0.20047,
				"method": "rhf"
			},
			{
				"type": "unocc",
				"energy": -0.01803,
				"method": "rhf"
			},
			{
				"type": "unocc",
				"energy": -0.00399,
				"method": "rhf"
			},
			{
				"type": "unocc",
				"energy": 0.06268,
				"method": "rhf"
			},
			{
				"type": "unocc",
				"energy": 0.08312,
				"method": "rhf"
			},
			{
				"type": "unocc",
				"energy": 0.10234,
				"method": "rhf"
			}
		],
		"cosmo_sigma_profile": { 
			"-0.025": 0.0,
			"-0.024": 0.0,
			"-0.023": 0.0,
			"-0.022": 0.0,
			"-0.021": 0.0,
			"-0.02": 0.0,
			"-0.019": 0.0,
			"-0.018": 0.0,
			"-0.017": 0.0,
			"-0.016": 0.0,
			"-0.015": 0.659878673374,
			"-0.014": 1.38139271083,
			"-0.013": 1.30825977331,
			"-0.012": 1.63969745045,
			"-0.011": 1.93329063886,
			"-0.01": 1.75268400899,
			"-0.009": 2.0337633295,
			"-0.008": 1.18467466573,
			"-0.007": 2.54542664097,
			"-0.006": 4.47434146041,
			"-0.005": 13.4650950849,
			"-0.004": 24.6789295015,
			"-0.003": 31.0128912244,
			"-0.002": 31.1297565433,
			"-0.001": 33.538715453,
			"0.0": 29.0894438608,
			"0.001": 19.0750284594,
			"0.002": 14.642639945,
			"0.003": 13.0565025258,
			"0.004": 8.65635924714,
			"0.005": 7.12254248334,
			"0.006": 7.59984572238,
			"0.007": 6.24056868402,
			"0.008": 6.64858658885,
			"0.009": 5.37902983278,
			"0.01": 4.97903863716,
			"0.011": 3.79972329015,
			"0.012": 6.02562906076,
			"0.013": 1.6340223588,
			"0.014": 0.0,
			"0.015": 0.0,
			"0.016": 0.0,
			"0.017": 0.0,
			"0.018": 0.0,
			"0.019": 0.0,
			"0.02": 0.0,
			"0.021": 0.0,
			"0.022": 0.0,
			"0.023": 0.0,
			"0.024": 0.0,
			"0.025": 0.0
		}
	}
}
