{
	 "smiles": "BrC1=C2C=CC=CN2C=N1", 
	 "Tm": 351.15, 
	 "num_atms": 15, 
	 "gaussian": { 
		 "optdone": 1, 
		 "sigma_profile": "yes", 
		 "theory": "DFT", 
		 "functional": "B3LYP", 
		 "basiset": "6-31G**", 
		 "properties": { 
			 "R2extent": 2461.9988, 
			 "electric_dipole_moment_norm": 4.68547155151, 
			 "electric_quadrupole_moment_norm": 6.24331716077, 
			 "total_energy": -2950.64463956, 
			 "HOMO_LUMO_gap": 0.15506, 
			 "cosmo_polarized_energy": -10.12, 
			 "cosmo_cavitation_energy": 21.64, 
			 "cosmo_dispersion_energy": -16.7, 
			 "cosmo_repulsion_energy": 1.33, 
			 "cosmo_total_nonelectrostatic_energy": 6.26, 
			 "SMD_solvation_energy": 1.59 
		},
		"coords": [
			{
				"x": 2.7921753643,
				"y": -1.2965520258,
				"z": -1.0772843454,
				"element": "Br" 
			},
			{
				"x": 1.3713615071,
				"y": -0.4104856898,
				"z": -0.207791196,
				"element": "C" 
			},
			{
				"x": 0.0981360914,
				"y": -0.9348888045,
				"z": -0.0090340089,
				"element": "C" 
			},
			{
				"x": -0.5948333098,
				"y": -2.1338684941,
				"z": -0.3031289811,
				"element": "C" 
			},
			{
				"x": -1.9031760707,
				"y": -2.2679552753,
				"z": 0.0795129977,
				"element": "C" 
			},
			{
				"x": -2.5627953417,
				"y": -1.2010045924,
				"z": 0.7720390827,
				"element": "C" 
			},
			{
				"x": -1.9045803728,
				"y": -0.0450006595,
				"z": 1.058853254,
				"element": "C" 
			},
			{
				"x": -0.5837718177,
				"y": 0.094449809,
				"z": 0.6743712697,
				"element": "N" 
			},
			{
				"x": 0.3068627307,
				"y": 1.1247752552,
				"z": 0.8274919034,
				"element": "C" 
			},
			{
				"x": 1.4866104447,
				"y": 0.8331349535,
				"z": 0.3010165247,
				"element": "N" 
			},
			{
				"x": -0.0633138129,
				"y": -2.9194655769,
				"z": -0.8285469183,
				"element": "H" 
			},
			{
				"x": -2.4484915791,
				"y": -3.179857507,
				"z": -0.1379781942,
				"element": "H" 
			},
			{
				"x": -3.5982309119,
				"y": -1.3028819143,
				"z": 1.076721481,
				"element": "H" 
			},
			{
				"x": -2.3439234132,
				"y": 0.7979454449,
				"z": 1.5783369711,
				"element": "H" 
			},
			{
				"x": 0.0449704915,
				"y": 2.0484550772,
				"z": 1.3226201597,
				"element": "H" 
			}
		],
		 "valence_orbital": [ 
			{
				"type": "occ",
				"energy": -0.28663,
				"method": "rhf"
			},
			{
				"type": "occ",
				"energy": -0.28605,
				"method": "rhf"
			},
			{
				"type": "occ",
				"energy": -0.28396,
				"method": "rhf"
			},
			{
				"type": "occ",
				"energy": -0.27356,
				"method": "rhf"
			},
			{
				"type": "occ",
				"energy": -0.20032,
				"method": "rhf"
			},
			{
				"type": "unocc",
				"energy": -0.04526,
				"method": "rhf"
			},
			{
				"type": "unocc",
				"energy": -0.00699,
				"method": "rhf"
			},
			{
				"type": "unocc",
				"energy": 0.0256,
				"method": "rhf"
			},
			{
				"type": "unocc",
				"energy": 0.05701,
				"method": "rhf"
			},
			{
				"type": "unocc",
				"energy": 0.08176,
				"method": "rhf"
			}
		],
		"cosmo_sigma_profile": { 
			"-0.025": 0.0,
			"-0.024": 0.0,
			"-0.023": 0.0,
			"-0.022": 0.0,
			"-0.021": 0.0,
			"-0.02": 0.0,
			"-0.019": 0.0,
			"-0.018": 0.0,
			"-0.017": 0.0,
			"-0.016": 0.0,
			"-0.015": 0.0,
			"-0.014": 0.0,
			"-0.013": 0.0,
			"-0.012": 0.0,
			"-0.011": 0.693120498614,
			"-0.01": 3.23446239594,
			"-0.009": 4.39248448689,
			"-0.008": 3.93871498004,
			"-0.007": 8.62492330181,
			"-0.006": 8.57979802307,
			"-0.005": 9.67619873092,
			"-0.004": 8.3293563285,
			"-0.003": 7.43910300607,
			"-0.002": 9.07940117565,
			"-0.001": 12.8334532448,
			"0.0": 14.1534957768,
			"0.001": 14.3001440498,
			"0.002": 17.2558853639,
			"0.003": 17.8630512845,
			"0.004": 12.5321509629,
			"0.005": 9.76050388539,
			"0.006": 2.57523604841,
			"0.007": 2.43130419792,
			"0.008": 2.05445389279,
			"0.009": 1.25728389965,
			"0.01": 1.2446381796,
			"0.011": 1.23416483511,
			"0.012": 1.0510387818,
			"0.013": 1.11215283117,
			"0.014": 1.15136758025,
			"0.015": 0.732108384465,
			"0.016": 0.865983187471,
			"0.017": 0.0117038087147,
			"0.018": 0.0,
			"0.019": 0.0,
			"0.02": 0.0,
			"0.021": 0.0,
			"0.022": 0.0,
			"0.023": 0.0,
			"0.024": 0.0,
			"0.025": 0.0
		}
	}
}
