{
	 "smiles": "CC1=CC=C(C=C1)N1C(S)=NN=C1N1CCCCC1", 
	 "Tm": 290.15, 
	 "num_atms": 37, 
	 "gaussian": { 
		 "optdone": 1, 
		 "sigma_profile": "yes", 
		 "theory": "DFT", 
		 "functional": "B3LYP", 
		 "basiset": "6-31G**", 
		 "properties": { 
			 "R2extent": 7002.1109, 
			 "electric_dipole_moment_norm": 5.75307608589, 
			 "electric_quadrupole_moment_norm": 14.6318065734, 
			 "total_energy": -1161.50685719, 
			 "HOMO_LUMO_gap": 0.17028, 
			 "cosmo_polarized_energy": -15.52, 
			 "cosmo_cavitation_energy": 39.97, 
			 "cosmo_dispersion_energy": -28.33, 
			 "cosmo_repulsion_energy": 2.17, 
			 "cosmo_total_nonelectrostatic_energy": 13.81, 
			 "SMD_solvation_energy": 3.28 
		},
		"coords": [
			{
				"x": -1.6732793025,
				"y": 4.4279933799,
				"z": -0.1450809814,
				"element": "C" 
			},
			{
				"x": -1.1298372981,
				"y": 3.1158903874,
				"z": -0.6586949571,
				"element": "C" 
			},
			{
				"x": -0.4423880287,
				"y": 3.041906009,
				"z": -1.875748939,
				"element": "C" 
			},
			{
				"x": 0.0861049731,
				"y": 1.8357881036,
				"z": -2.3373908604,
				"element": "C" 
			},
			{
				"x": -0.0890321849,
				"y": 0.6704127142,
				"z": -1.587161504,
				"element": "C" 
			},
			{
				"x": -0.7799635719,
				"y": 0.7207730226,
				"z": -0.3711655185,
				"element": "C" 
			},
			{
				"x": -1.2849009592,
				"y": 1.9352481265,
				"z": 0.0841946566,
				"element": "C" 
			},
			{
				"x": 0.4208035558,
				"y": -0.5760018604,
				"z": -2.0659597718,
				"element": "N" 
			},
			{
				"x": 0.0357304582,
				"y": -1.2583185036,
				"z": -3.2102912987,
				"element": "C" 
			},
			{
				"x": -1.0364085119,
				"y": -0.5523138633,
				"z": -4.4305581823,
				"element": "S" 
			},
			{
				"x": 0.5486617167,
				"y": -2.4560556773,
				"z": -3.2471226128,
				"element": "N" 
			},
			{
				"x": 1.325481752,
				"y": -2.6081609405,
				"z": -2.1031751728,
				"element": "N" 
			},
			{
				"x": 1.2373562784,
				"y": -1.4966772962,
				"z": -1.4091656858,
				"element": "C" 
			},
			{
				"x": 1.797756149,
				"y": -1.2727124347,
				"z": -0.1680640706,
				"element": "N" 
			},
			{
				"x": 2.3379329184,
				"y": -2.4856274995,
				"z": 0.4777234937,
				"element": "C" 
			},
			{
				"x": 2.9418670539,
				"y": -2.1172486086,
				"z": 1.832278762,
				"element": "C" 
			},
			{
				"x": 4.1548183197,
				"y": -1.1699628118,
				"z": 1.6724332055,
				"element": "C" 
			},
			{
				"x": 4.0301909958,
				"y": -0.3171364662,
				"z": 0.3907981685,
				"element": "C" 
			},
			{
				"x": 2.5636435767,
				"y": -0.0221624072,
				"z": 0.0570806909,
				"element": "C" 
			},
			{
				"x": -1.0344098856,
				"y": 4.8387468351,
				"z": 0.6464629048,
				"element": "H" 
			},
			{
				"x": -1.7323572794,
				"y": 5.1755668147,
				"z": -0.9407558681,
				"element": "H" 
			},
			{
				"x": -2.6747077098,
				"y": 4.3061826016,
				"z": 0.2800743582,
				"element": "H" 
			},
			{
				"x": -0.3095984978,
				"y": 3.9409524335,
				"z": -2.4715417401,
				"element": "H" 
			},
			{
				"x": 0.630681363,
				"y": 1.7960037225,
				"z": -3.2752813537,
				"element": "H" 
			},
			{
				"x": -0.9120536769,
				"y": -0.1882370706,
				"z": 0.2054063702,
				"element": "H" 
			},
			{
				"x": -1.8220920122,
				"y": 1.9650443621,
				"z": 1.0288209488,
				"element": "H" 
			},
			{
				"x": -1.0282282823,
				"y": -1.6834597211,
				"z": -5.1616235871,
				"element": "H" 
			},
			{
				"x": 1.5174191552,
				"y": -3.2004162921,
				"z": 0.5874445239,
				"element": "H" 
			},
			{
				"x": 3.0897323838,
				"y": -2.9727155203,
				"z": -0.1601436249,
				"element": "H" 
			},
			{
				"x": 3.2315509206,
				"y": -3.0324442659,
				"z": 2.3585230319,
				"element": "H" 
			},
			{
				"x": 2.16513489,
				"y": -1.6389386459,
				"z": 2.4410709652,
				"element": "H" 
			},
			{
				"x": 4.2307121835,
				"y": -0.5210646438,
				"z": 2.5523545354,
				"element": "H" 
			},
			{
				"x": 5.0847116914,
				"y": -1.7480000699,
				"z": 1.6331030508,
				"element": "H" 
			},
			{
				"x": 4.574994765,
				"y": 0.627576306,
				"z": 0.4973500351,
				"element": "H" 
			},
			{
				"x": 4.4799286757,
				"y": -0.8435128339,
				"z": -0.4591757999,
				"element": "H" 
			},
			{
				"x": 2.1017211016,
				"y": 0.5516165819,
				"z": 0.8716717064,
				"element": "H" 
			},
			{
				"x": 2.4991223236,
				"y": 0.5974660318,
				"z": -0.8398898787,
				"element": "H" 
			}
		],
		 "valence_orbital": [ 
			{
				"type": "occ",
				"energy": -0.2663,
				"method": "rhf"
			},
			{
				"type": "occ",
				"energy": -0.262,
				"method": "rhf"
			},
			{
				"type": "occ",
				"energy": -0.24376,
				"method": "rhf"
			},
			{
				"type": "occ",
				"energy": -0.23672,
				"method": "rhf"
			},
			{
				"type": "occ",
				"energy": -0.19312,
				"method": "rhf"
			},
			{
				"type": "unocc",
				"energy": -0.02284,
				"method": "rhf"
			},
			{
				"type": "unocc",
				"energy": -0.02046,
				"method": "rhf"
			},
			{
				"type": "unocc",
				"energy": 0.02331,
				"method": "rhf"
			},
			{
				"type": "unocc",
				"energy": 0.03915,
				"method": "rhf"
			},
			{
				"type": "unocc",
				"energy": 0.06229,
				"method": "rhf"
			}
		],
		"cosmo_sigma_profile": { 
			"-0.025": 0.0,
			"-0.024": 0.0,
			"-0.023": 0.0,
			"-0.022": 0.0,
			"-0.021": 0.0,
			"-0.02": 0.0,
			"-0.019": 0.0,
			"-0.018": 0.0,
			"-0.017": 0.0,
			"-0.016": 0.0,
			"-0.015": 0.0,
			"-0.014": 0.0,
			"-0.013": 0.0,
			"-0.012": 0.617000181902,
			"-0.011": 1.68224229363,
			"-0.01": 1.1978977248,
			"-0.009": 1.28902833598,
			"-0.008": 1.05103763605,
			"-0.007": 2.06036451732,
			"-0.006": 8.38619153158,
			"-0.005": 14.2124768517,
			"-0.004": 24.2646515051,
			"-0.003": 38.3014525815,
			"-0.002": 46.9177963737,
			"-0.001": 38.0055709522,
			"0.0": 31.7697781804,
			"0.001": 21.317433661,
			"0.002": 19.7112696223,
			"0.003": 15.5663231069,
			"0.004": 13.5873962536,
			"0.005": 6.35862138615,
			"0.006": 3.96949584019,
			"0.007": 2.6409346308,
			"0.008": 2.55991926574,
			"0.009": 2.62973865602,
			"0.01": 1.49462304761,
			"0.011": 1.944245237,
			"0.012": 2.93287914732,
			"0.013": 2.5848598408,
			"0.014": 3.5402107262,
			"0.015": 2.99647958613,
			"0.016": 2.16171258149,
			"0.017": 1.2887540578,
			"0.018": 0.0,
			"0.019": 0.0,
			"0.02": 0.0,
			"0.021": 0.0,
			"0.022": 0.0,
			"0.023": 0.0,
			"0.024": 0.0,
			"0.025": 0.0
		}
	}
}
