{
	 "smiles": "COC1=CC(=O)C2(C)CCC1C2(C)C", 
	 "Tm": 328.15, 
	 "num_atms": 32, 
	 "gaussian": { 
		 "optdone": 1, 
		 "sigma_profile": "yes", 
		 "theory": "DFT", 
		 "functional": "B3LYP", 
		 "basiset": "6-31G**", 
		 "properties": { 
			 "R2extent": 2822.17, 
			 "electric_dipole_moment_norm": 3.6512177051, 
			 "electric_quadrupole_moment_norm": 15.7578760615, 
			 "total_energy": -618.565386344, 
			 "HOMO_LUMO_gap": 0.19845, 
			 "cosmo_polarized_energy": -10.3, 
			 "cosmo_cavitation_energy": 30.79, 
			 "cosmo_dispersion_energy": -21.96, 
			 "cosmo_repulsion_energy": 1.69, 
			 "cosmo_total_nonelectrostatic_energy": 10.53, 
			 "SMD_solvation_energy": 6.38 
		},
		"coords": [
			{
				"x": -2.4508478514,
				"y": -1.6464302802,
				"z": -0.7169558209,
				"element": "C" 
			},
			{
				"x": -1.2009814208,
				"y": -1.5862932248,
				"z": -0.0303265604,
				"element": "O" 
			},
			{
				"x": -0.4033654709,
				"y": -0.5241564006,
				"z": -0.2617056203,
				"element": "C" 
			},
			{
				"x": -0.6692681509,
				"y": 0.5168985549,
				"z": -1.0872150292,
				"element": "C" 
			},
			{
				"x": 0.3054429538,
				"y": 1.6058393631,
				"z": -1.2171122289,
				"element": "C" 
			},
			{
				"x": 0.081509433,
				"y": 2.5856675662,
				"z": -1.9201098126,
				"element": "O" 
			},
			{
				"x": 1.6533900864,
				"y": 1.4357132357,
				"z": -0.4708902525,
				"element": "C" 
			},
			{
				"x": 2.4054178861,
				"y": 2.765610313,
				"z": -0.4583794217,
				"element": "C" 
			},
			{
				"x": 2.4348894683,
				"y": 0.3028125671,
				"z": -1.2261417067,
				"element": "C" 
			},
			{
				"x": 2.0013384074,
				"y": -1.0368745524,
				"z": -0.5724413208,
				"element": "C" 
			},
			{
				"x": 0.91413916,
				"y": -0.6232671701,
				"z": 0.463952759,
				"element": "C" 
			},
			{
				"x": 1.3862840183,
				"y": 0.7851815144,
				"z": 0.9350504598,
				"element": "C" 
			},
			{
				"x": 0.3618995246,
				"y": 1.5374143916,
				"z": 1.8040807377,
				"element": "C" 
			},
			{
				"x": 2.6775998303,
				"y": 0.6554670386,
				"z": 1.7712818166,
				"element": "C" 
			},
			{
				"x": -3.0855653652,
				"y": -0.7937598825,
				"z": -0.4510906056,
				"element": "H" 
			},
			{
				"x": -2.9260526345,
				"y": -2.5740396096,
				"z": -0.3966735453,
				"element": "H" 
			},
			{
				"x": -2.3015209769,
				"y": -1.6604743696,
				"z": -1.8024468554,
				"element": "H" 
			},
			{
				"x": -1.5884590173,
				"y": 0.6201609027,
				"z": -1.6511507267,
				"element": "H" 
			},
			{
				"x": 2.5040902269,
				"y": 3.1495821188,
				"z": -1.4761254921,
				"element": "H" 
			},
			{
				"x": 3.4046967688,
				"y": 2.6505619165,
				"z": -0.0286266266,
				"element": "H" 
			},
			{
				"x": 1.8654603709,
				"y": 3.5256673895,
				"z": 0.1146577472,
				"element": "H" 
			},
			{
				"x": 3.5113746244,
				"y": 0.4645294026,
				"z": -1.111439906,
				"element": "H" 
			},
			{
				"x": 2.2295246681,
				"y": 0.3315675682,
				"z": -2.3001354413,
				"element": "H" 
			},
			{
				"x": 1.6110217709,
				"y": -1.7571537302,
				"z": -1.296307791,
				"element": "H" 
			},
			{
				"x": 2.8394878978,
				"y": -1.5212590269,
				"z": -0.0631388093,
				"element": "H" 
			},
			{
				"x": 0.814364935,
				"y": -1.3418377601,
				"z": 1.2831784082,
				"element": "H" 
			},
			{
				"x": -0.6065461963,
				"y": 1.6601493262,
				"z": 1.316669424,
				"element": "H" 
			},
			{
				"x": 0.1986483801,
				"y": 1.0026595874,
				"z": 2.74684834,
				"element": "H" 
			},
			{
				"x": 0.7373346465,
				"y": 2.5341503177,
				"z": 2.0579060156,
				"element": "H" 
			},
			{
				"x": 3.512025404,
				"y": 0.215029813,
				"z": 1.2205895982,
				"element": "H" 
			},
			{
				"x": 2.4913860986,
				"y": 0.0278670773,
				"z": 2.6505011565,
				"element": "H" 
			},
			{
				"x": 3.0033805242,
				"y": 1.6348160427,
				"z": 2.1336971107,
				"element": "H" 
			}
		],
		 "valence_orbital": [ 
			{
				"type": "occ",
				"energy": -0.31872,
				"method": "rhf"
			},
			{
				"type": "occ",
				"energy": -0.31442,
				"method": "rhf"
			},
			{
				"type": "occ",
				"energy": -0.29727,
				"method": "rhf"
			},
			{
				"type": "occ",
				"energy": -0.23404,
				"method": "rhf"
			},
			{
				"type": "occ",
				"energy": -0.22272,
				"method": "rhf"
			},
			{
				"type": "unocc",
				"energy": -0.02427,
				"method": "rhf"
			},
			{
				"type": "unocc",
				"energy": 0.07115,
				"method": "rhf"
			},
			{
				"type": "unocc",
				"energy": 0.07377,
				"method": "rhf"
			},
			{
				"type": "unocc",
				"energy": 0.09415,
				"method": "rhf"
			},
			{
				"type": "unocc",
				"energy": 0.09971,
				"method": "rhf"
			}
		],
		"cosmo_sigma_profile": { 
			"-0.025": 0.0,
			"-0.024": 0.0,
			"-0.023": 0.0,
			"-0.022": 0.0,
			"-0.021": 0.0,
			"-0.02": 0.0,
			"-0.019": 0.0,
			"-0.018": 0.0,
			"-0.017": 0.0,
			"-0.016": 0.0,
			"-0.015": 0.0,
			"-0.014": 0.0,
			"-0.013": 0.0,
			"-0.012": 0.0,
			"-0.011": 0.0,
			"-0.01": 0.0,
			"-0.009": 0.0,
			"-0.008": 0.0,
			"-0.007": 0.826474068922,
			"-0.006": 6.63340159882,
			"-0.005": 10.7904082732,
			"-0.004": 17.8645589523,
			"-0.003": 32.7922580382,
			"-0.002": 33.9772620785,
			"-0.001": 29.8801243261,
			"0.0": 31.8364546465,
			"0.001": 25.6112003478,
			"0.002": 10.1493442567,
			"0.003": 4.60808116831,
			"0.004": 4.07877699555,
			"0.005": 3.80002990495,
			"0.006": 2.25273499731,
			"0.007": 2.49807499848,
			"0.008": 3.3742042945,
			"0.009": 2.70391652953,
			"0.01": 1.46425721061,
			"0.011": 1.38431716761,
			"0.012": 2.64449583528,
			"0.013": 4.04254416505,
			"0.014": 4.22023332289,
			"0.015": 1.03853301387,
			"0.016": 0.0138151820537,
			"0.017": 0.0,
			"0.018": 0.0,
			"0.019": 0.0,
			"0.02": 0.0,
			"0.021": 0.0,
			"0.022": 0.0,
			"0.023": 0.0,
			"0.024": 0.0,
			"0.025": 0.0
		}
	}
}
