{
	 "smiles": "ClC1=CC=C(OC(=O)C2=C(Cl)C(Cl)=C(C(=O)OC3=CC=C(Cl)C=C3)C(Cl)=C2Cl)C=C1", 
	 "Tm": 517.15, 
	 "num_atms": 38, 
	 "gaussian": { 
		 "optdone": 1, 
		 "sigma_profile": "yes", 
		 "theory": "DFT", 
		 "functional": "B3LYP", 
		 "basiset": "6-31G**", 
		 "properties": { 
			 "R2extent": 19712.3514, 
			 "electric_dipole_moment_norm": 2.71207038994, 
			 "electric_quadrupole_moment_norm": 20.3721706178, 
			 "total_energy": -3828.96674553, 
			 "HOMO_LUMO_gap": 0.17942, 
			 "cosmo_polarized_energy": -12.76, 
			 "cosmo_cavitation_energy": 55.78, 
			 "cosmo_dispersion_energy": -37.08, 
			 "cosmo_repulsion_energy": 2.85, 
			 "cosmo_total_nonelectrostatic_energy": 21.55, 
			 "SMD_solvation_energy": 9.41 
		},
		"coords": [
			{
				"x": -1.7455523768,
				"y": -1.8646360714,
				"z": 5.0245754924,
				"element": "Cl" 
			},
			{
				"x": -0.8551797784,
				"y": -0.4223362038,
				"z": 4.5691901748,
				"element": "C" 
			},
			{
				"x": 0.5210794954,
				"y": -0.50466785,
				"z": 4.3567766006,
				"element": "C" 
			},
			{
				"x": 1.228483219,
				"y": 0.6419286007,
				"z": 3.9957976454,
				"element": "C" 
			},
			{
				"x": 0.5458151862,
				"y": 1.8466881796,
				"z": 3.8378595816,
				"element": "C" 
			},
			{
				"x": 1.2463016337,
				"y": 3.0247834695,
				"z": 3.5601213602,
				"element": "O" 
			},
			{
				"x": 1.7147671983,
				"y": 3.3416854245,
				"z": 2.3208221398,
				"element": "C" 
			},
			{
				"x": 2.3495548799,
				"y": 4.3465601154,
				"z": 2.1561396745,
				"element": "O" 
			},
			{
				"x": 1.3980567974,
				"y": 2.3991091312,
				"z": 1.1725098642,
				"element": "C" 
			},
			{
				"x": 0.1939598635,
				"y": 2.5291834849,
				"z": 0.4693043402,
				"element": "C" 
			},
			{
				"x": -0.9642493317,
				"y": 3.7241406082,
				"z": 0.9796597683,
				"element": "Cl" 
			},
			{
				"x": -0.0634521475,
				"y": 1.7218414243,
				"z": -0.6469575143,
				"element": "C" 
			},
			{
				"x": -1.5620943147,
				"y": 1.8580047479,
				"z": -1.5195965208,
				"element": "Cl" 
			},
			{
				"x": 0.8892107794,
				"y": 0.7914864919,
				"z": -1.0742377905,
				"element": "C" 
			},
			{
				"x": 0.6361492712,
				"y": -0.0390967004,
				"z": -2.3144223831,
				"element": "C" 
			},
			{
				"x": 0.949661212,
				"y": 0.3165200269,
				"z": -3.4221836142,
				"element": "O" 
			},
			{
				"x": 0.0269927669,
				"y": -1.1888660534,
				"z": -1.961151118,
				"element": "O" 
			},
			{
				"x": -0.3629470177,
				"y": -2.1996185694,
				"z": -2.8480124382,
				"element": "C" 
			},
			{
				"x": -0.1446732836,
				"y": -2.2034363179,
				"z": -4.2271164517,
				"element": "C" 
			},
			{
				"x": -0.5931847617,
				"y": -3.2961125604,
				"z": -4.9730943855,
				"element": "C" 
			},
			{
				"x": -1.2436582643,
				"y": -4.3553083571,
				"z": -4.3445332661,
				"element": "C" 
			},
			{
				"x": -1.8007964676,
				"y": -5.7205134837,
				"z": -5.2974840913,
				"element": "Cl" 
			},
			{
				"x": -1.4590936929,
				"y": -4.3464599959,
				"z": -2.9655100633,
				"element": "C" 
			},
			{
				"x": -1.0147158151,
				"y": -3.2612065933,
				"z": -2.2172470991,
				"element": "C" 
			},
			{
				"x": 2.1026071301,
				"y": 0.675322253,
				"z": -0.3880205035,
				"element": "C" 
			},
			{
				"x": 3.2751674925,
				"y": -0.4865082995,
				"z": -0.9377392103,
				"element": "Cl" 
			},
			{
				"x": 2.3606708145,
				"y": 1.4842784973,
				"z": 0.7266759459,
				"element": "C" 
			},
			{
				"x": 3.8808523412,
				"y": 1.3668104665,
				"z": 1.5678545663,
				"element": "Cl" 
			},
			{
				"x": -0.8255765386,
				"y": 1.9331682813,
				"z": 4.0700932856,
				"element": "C" 
			},
			{
				"x": -1.5341282089,
				"y": 0.7893403944,
				"z": 4.4353781001,
				"element": "C" 
			},
			{
				"x": 1.0357174091,
				"y": -1.4507894102,
				"z": 4.4803184777,
				"element": "H" 
			},
			{
				"x": 2.3016344807,
				"y": 0.603117563,
				"z": 3.8485428618,
				"element": "H" 
			},
			{
				"x": 0.3585486662,
				"y": -1.3799062304,
				"z": -4.7104084011,
				"element": "H" 
			},
			{
				"x": -0.4332852314,
				"y": -3.3173747851,
				"z": -6.045234903,
				"element": "H" 
			},
			{
				"x": -1.9663456181,
				"y": -5.1754527993,
				"z": -2.4853868387,
				"element": "H" 
			},
			{
				"x": -1.1666331196,
				"y": -3.2244152352,
				"z": -1.1440149035,
				"element": "H" 
			},
			{
				"x": -1.3263233903,
				"y": 2.8888818539,
				"z": 3.9686442831,
				"element": "H" 
			},
			{
				"x": -2.6017412782,
				"y": 0.8384545021,
				"z": 4.6168873338,
				"element": "H" 
			}
		],
		 "valence_orbital": [ 
			{
				"type": "occ",
				"energy": -0.28313,
				"method": "rhf"
			},
			{
				"type": "occ",
				"energy": -0.27906,
				"method": "rhf"
			},
			{
				"type": "occ",
				"energy": -0.27363,
				"method": "rhf"
			},
			{
				"type": "occ",
				"energy": -0.25996,
				"method": "rhf"
			},
			{
				"type": "occ",
				"energy": -0.25084,
				"method": "rhf"
			},
			{
				"type": "unocc",
				"energy": -0.07142,
				"method": "rhf"
			},
			{
				"type": "unocc",
				"energy": -0.06478,
				"method": "rhf"
			},
			{
				"type": "unocc",
				"energy": -0.04743,
				"method": "rhf"
			},
			{
				"type": "unocc",
				"energy": -0.04525,
				"method": "rhf"
			},
			{
				"type": "unocc",
				"energy": -0.03807,
				"method": "rhf"
			}
		],
		"cosmo_sigma_profile": { 
			"-0.025": 0.0,
			"-0.024": 0.0,
			"-0.023": 0.0,
			"-0.022": 0.0,
			"-0.021": 0.0,
			"-0.02": 0.0,
			"-0.019": 0.0,
			"-0.018": 0.0,
			"-0.017": 0.0,
			"-0.016": 0.0,
			"-0.015": 0.0,
			"-0.014": 0.0,
			"-0.013": 0.0,
			"-0.012": 0.0,
			"-0.011": 0.0,
			"-0.01": 0.0,
			"-0.009": 0.0837771164991,
			"-0.008": 6.84012511951,
			"-0.007": 14.1101811279,
			"-0.006": 15.1252413687,
			"-0.005": 17.0204162599,
			"-0.004": 28.8313048057,
			"-0.003": 37.0985773363,
			"-0.002": 34.6699007356,
			"-0.001": 41.105454087,
			"0.0": 48.0809075041,
			"0.001": 62.0040602209,
			"0.002": 65.1601830391,
			"0.003": 30.4267118279,
			"0.004": 24.2042779615,
			"0.005": 10.5333575048,
			"0.006": 4.28276411339,
			"0.007": 5.33147662437,
			"0.008": 6.00054495082,
			"0.009": 6.46324660292,
			"0.01": 6.14671911203,
			"0.011": 0.531374377977,
			"0.012": 0.0,
			"0.013": 0.0,
			"0.014": 0.0,
			"0.015": 0.0,
			"0.016": 0.0,
			"0.017": 0.0,
			"0.018": 0.0,
			"0.019": 0.0,
			"0.02": 0.0,
			"0.021": 0.0,
			"0.022": 0.0,
			"0.023": 0.0,
			"0.024": 0.0,
			"0.025": 0.0
		}
	}
}
