{
	 "smiles": "CCOC(N)=S", 
	 "Tm": 314.15, 
	 "num_atms": 13, 
	 "gaussian": { 
		 "optdone": 1, 
		 "sigma_profile": "yes", 
		 "theory": "DFT", 
		 "functional": "B3LYP", 
		 "basiset": "6-31G**", 
		 "properties": { 
			 "R2extent": 1732.7374, 
			 "electric_dipole_moment_norm": 6.37648354267, 
			 "electric_quadrupole_moment_norm": 16.739466257, 
			 "total_energy": -646.698821487, 
			 "HOMO_LUMO_gap": 0.19644, 
			 "cosmo_polarized_energy": -18.8, 
			 "cosmo_cavitation_energy": 18.08, 
			 "cosmo_dispersion_energy": -14.06, 
			 "cosmo_repulsion_energy": 1.18, 
			 "cosmo_total_nonelectrostatic_energy": 5.21, 
			 "SMD_solvation_energy": 2.95 
		},
		"coords": [
			{
				"x": 2.249948435,
				"y": -0.7094466453,
				"z": -0.6633615074,
				"element": "C" 
			},
			{
				"x": 0.9542281596,
				"y": -0.2866202934,
				"z": 0.0199372418,
				"element": "C" 
			},
			{
				"x": 1.181606807,
				"y": 0.6959379852,
				"z": 1.0517196888,
				"element": "O" 
			},
			{
				"x": 1.2278140109,
				"y": 2.0147569605,
				"z": 0.7972177451,
				"element": "C" 
			},
			{
				"x": 1.0925595168,
				"y": 2.4085139658,
				"z": -0.498120064,
				"element": "N" 
			},
			{
				"x": 1.4011154813,
				"y": 3.0914603688,
				"z": 2.0521675633,
				"element": "S" 
			},
			{
				"x": 2.7224252059,
				"y": 0.1131991246,
				"z": -1.2097011796,
				"element": "H" 
			},
			{
				"x": 2.0497388587,
				"y": -1.517805491,
				"z": -1.3740768759,
				"element": "H" 
			},
			{
				"x": 2.9656139039,
				"y": -1.0709524077,
				"z": 0.0794347475,
				"element": "H" 
			},
			{
				"x": 0.5135437215,
				"y": -1.1314388677,
				"z": 0.553928273,
				"element": "H" 
			},
			{
				"x": 0.2036947615,
				"y": 0.0789559069,
				"z": -0.6907900977,
				"element": "H" 
			},
			{
				"x": 1.2284041533,
				"y": 1.7827760158,
				"z": -1.2770641024,
				"element": "H" 
			},
			{
				"x": 1.1960069845,
				"y": 3.3962633775,
				"z": -0.6689914324,
				"element": "H" 
			}
		],
		 "valence_orbital": [ 
			{
				"type": "occ",
				"energy": -0.36933,
				"method": "rhf"
			},
			{
				"type": "occ",
				"energy": -0.34723,
				"method": "rhf"
			},
			{
				"type": "occ",
				"energy": -0.30995,
				"method": "rhf"
			},
			{
				"type": "occ",
				"energy": -0.22105,
				"method": "rhf"
			},
			{
				"type": "occ",
				"energy": -0.2058,
				"method": "rhf"
			},
			{
				"type": "unocc",
				"energy": -0.00936,
				"method": "rhf"
			},
			{
				"type": "unocc",
				"energy": 0.04921,
				"method": "rhf"
			},
			{
				"type": "unocc",
				"energy": 0.08831,
				"method": "rhf"
			},
			{
				"type": "unocc",
				"energy": 0.10073,
				"method": "rhf"
			},
			{
				"type": "unocc",
				"energy": 0.10806,
				"method": "rhf"
			}
		],
		"cosmo_sigma_profile": { 
			"-0.025": 0.0,
			"-0.024": 0.0,
			"-0.023": 0.0,
			"-0.022": 0.0,
			"-0.021": 0.0,
			"-0.02": 0.0,
			"-0.019": 0.0,
			"-0.018": 0.0,
			"-0.017": 0.0,
			"-0.016": 0.404282058297,
			"-0.015": 2.00889196366,
			"-0.014": 2.44976990357,
			"-0.013": 2.91287413346,
			"-0.012": 2.4684489236,
			"-0.011": 2.52249074058,
			"-0.01": 1.66770575099,
			"-0.009": 1.35965098731,
			"-0.008": 2.9272368989,
			"-0.007": 4.4330250909,
			"-0.006": 6.93403751545,
			"-0.005": 10.9617157614,
			"-0.004": 12.054317599,
			"-0.003": 9.61339032814,
			"-0.002": 7.74784715707,
			"-0.001": 9.60899163346,
			"0.0": 6.40236254767,
			"0.001": 2.57319765051,
			"0.002": 2.5287167126,
			"0.003": 4.97439455778,
			"0.004": 4.23356958036,
			"0.005": 3.98661372377,
			"0.006": 3.94550858215,
			"0.007": 4.07891165067,
			"0.008": 4.44860560127,
			"0.009": 6.27636562903,
			"0.01": 8.36258456228,
			"0.011": 6.40395834424,
			"0.012": 4.11576564,
			"0.013": 2.35259791244,
			"0.014": 0.479132151435,
			"0.015": 0.0,
			"0.016": 0.0,
			"0.017": 0.0,
			"0.018": 0.0,
			"0.019": 0.0,
			"0.02": 0.0,
			"0.021": 0.0,
			"0.022": 0.0,
			"0.023": 0.0,
			"0.024": 0.0,
			"0.025": 0.0
		}
	}
}
