{
	 "smiles": "CC1C(OCCN1CC1=C(C)N(C)N(C1=O)C1=CC=CC=C1)C1=CC=CC=C1", 
	 "Tm": 422.15, 
	 "num_atms": 55, 
	 "gaussian": { 
		 "optdone": 1, 
		 "sigma_profile": "yes", 
		 "theory": "DFT", 
		 "functional": "B3LYP", 
		 "basiset": "6-31G**", 
		 "properties": { 
			 "R2extent": 12181.8749, 
			 "electric_dipole_moment_norm": 5.27394328468, 
			 "electric_quadrupole_moment_norm": 14.6682056258, 
			 "total_energy": -1207.38450684, 
			 "HOMO_LUMO_gap": 0.15709, 
			 "cosmo_polarized_energy": -18.13, 
			 "cosmo_cavitation_energy": 54.26, 
			 "cosmo_dispersion_energy": -35.53, 
			 "cosmo_repulsion_energy": 2.66, 
			 "cosmo_total_nonelectrostatic_energy": 21.39, 
			 "SMD_solvation_energy": 7.5 
		},
		"coords": [
			{
				"x": -2.9859120007,
				"y": -1.0288736398,
				"z": -1.292603497,
				"element": "C" 
			},
			{
				"x": -1.4924582756,
				"y": -0.6935130219,
				"z": -1.1572636657,
				"element": "C" 
			},
			{
				"x": -1.2521843606,
				"y": 0.6294638426,
				"z": -0.3654637359,
				"element": "C" 
			},
			{
				"x": -1.6196144861,
				"y": 0.4379502378,
				"z": 0.9961223652,
				"element": "O" 
			},
			{
				"x": -0.8016837808,
				"y": -0.5515074633,
				"z": 1.6237437767,
				"element": "C" 
			},
			{
				"x": -0.9387997621,
				"y": -1.9020858133,
				"z": 0.9162928473,
				"element": "C" 
			},
			{
				"x": -0.7688437715,
				"y": -1.8099590789,
				"z": -0.5354964164,
				"element": "N" 
			},
			{
				"x": 0.5097896496,
				"y": -2.2081652501,
				"z": -1.1158050644,
				"element": "C" 
			},
			{
				"x": 1.7105104851,
				"y": -1.2941419184,
				"z": -0.9875272677,
				"element": "C" 
			},
			{
				"x": 2.2838780168,
				"y": -0.4665711131,
				"z": -1.9057013547,
				"element": "C" 
			},
			{
				"x": 1.9453667085,
				"y": -0.259930832,
				"z": -3.3490821206,
				"element": "C" 
			},
			{
				"x": 3.3502080203,
				"y": 0.2466826981,
				"z": -1.3474479173,
				"element": "N" 
			},
			{
				"x": 4.6022216448,
				"y": 0.3489220268,
				"z": -2.1115076453,
				"element": "C" 
			},
			{
				"x": 3.5270882754,
				"y": -0.2741055315,
				"z": -0.046111955,
				"element": "N" 
			},
			{
				"x": 2.4943564985,
				"y": -1.196683782,
				"z": 0.2409875586,
				"element": "C" 
			},
			{
				"x": 2.3317988516,
				"y": -1.7447310537,
				"z": 1.3280571264,
				"element": "O" 
			},
			{
				"x": 4.1971844501,
				"y": 0.5084234657,
				"z": 0.9301926745,
				"element": "C" 
			},
			{
				"x": 4.3314529434,
				"y": 1.8952661299,
				"z": 0.7757660319,
				"element": "C" 
			},
			{
				"x": 5.0088496392,
				"y": 2.6364295905,
				"z": 1.7439968416,
				"element": "C" 
			},
			{
				"x": 5.5362850117,
				"y": 2.0108801473,
				"z": 2.8742617404,
				"element": "C" 
			},
			{
				"x": 5.3829388263,
				"y": 0.6312722159,
				"z": 3.0294401647,
				"element": "C" 
			},
			{
				"x": 4.7269518767,
				"y": -0.1275015916,
				"z": 2.0619855727,
				"element": "C" 
			},
			{
				"x": -2.0002780325,
				"y": 1.8239205673,
				"z": -0.9206504427,
				"element": "C" 
			},
			{
				"x": -3.0993229095,
				"y": 2.3765743566,
				"z": -0.2528717272,
				"element": "C" 
			},
			{
				"x": -3.7824486062,
				"y": 3.4664872211,
				"z": -0.7962502253,
				"element": "C" 
			},
			{
				"x": -3.3790777775,
				"y": 4.0187063521,
				"z": -2.0128231375,
				"element": "C" 
			},
			{
				"x": -2.2797851706,
				"y": 3.476780191,
				"z": -2.6828425181,
				"element": "C" 
			},
			{
				"x": -1.595926076,
				"y": 2.3905902479,
				"z": -2.1374497302,
				"element": "C" 
			},
			{
				"x": -3.4625894066,
				"y": -1.0962323154,
				"z": -0.3110063218,
				"element": "H" 
			},
			{
				"x": -3.1018567901,
				"y": -1.9903614363,
				"z": -1.7996804741,
				"element": "H" 
			},
			{
				"x": -3.5123229933,
				"y": -0.2601498441,
				"z": -1.8646406454,
				"element": "H" 
			},
			{
				"x": -1.079175728,
				"y": -0.5559759194,
				"z": -2.1640573609,
				"element": "H" 
			},
			{
				"x": -0.1705340613,
				"y": 0.8413144608,
				"z": -0.4151199863,
				"element": "H" 
			},
			{
				"x": 0.2470286878,
				"y": -0.2245381595,
				"z": 1.6291687416,
				"element": "H" 
			},
			{
				"x": -1.1461247397,
				"y": -0.6194008036,
				"z": 2.6606136159,
				"element": "H" 
			},
			{
				"x": -0.1979279104,
				"y": -2.597320442,
				"z": 1.3182492974,
				"element": "H" 
			},
			{
				"x": -1.9379323271,
				"y": -2.3073435696,
				"z": 1.1323624894,
				"element": "H" 
			},
			{
				"x": 0.3375131552,
				"y": -2.4147033904,
				"z": -2.1797228843,
				"element": "H" 
			},
			{
				"x": 0.7832577246,
				"y": -3.1654264506,
				"z": -0.6569022956,
				"element": "H" 
			},
			{
				"x": 1.8576332326,
				"y": 0.8057072492,
				"z": -3.5859543398,
				"element": "H" 
			},
			{
				"x": 0.9968188904,
				"y": -0.7425055835,
				"z": -3.5882110587,
				"element": "H" 
			},
			{
				"x": 2.7092580846,
				"y": -0.6846104072,
				"z": -4.0112145037,
				"element": "H" 
			},
			{
				"x": 4.3915178666,
				"y": 0.8403883443,
				"z": -3.0623648451,
				"element": "H" 
			},
			{
				"x": 5.052052303,
				"y": -0.6358775439,
				"z": -2.2939759478,
				"element": "H" 
			},
			{
				"x": 5.3070768113,
				"y": 0.9671194501,
				"z": -1.5548314831,
				"element": "H" 
			},
			{
				"x": 3.8878074657,
				"y": 2.3839953545,
				"z": -0.0846153532,
				"element": "H" 
			},
			{
				"x": 5.1096788058,
				"y": 3.7105258433,
				"z": 1.6169245438,
				"element": "H" 
			},
			{
				"x": 6.0579786434,
				"y": 2.5923669849,
				"z": 3.6283320581,
				"element": "H" 
			},
			{
				"x": 5.7848699087,
				"y": 0.1349350145,
				"z": 3.9079891471,
				"element": "H" 
			},
			{
				"x": 4.6005668028,
				"y": -1.19571938,
				"z": 2.1791686985,
				"element": "H" 
			},
			{
				"x": -3.4025113716,
				"y": 1.9507573726,
				"z": 0.6965092248,
				"element": "H" 
			},
			{
				"x": -4.6321169068,
				"y": 3.8864605614,
				"z": -0.2645977151,
				"element": "H" 
			},
			{
				"x": -3.9115020583,
				"y": 4.867233812,
				"z": -2.4331695687,
				"element": "H" 
			},
			{
				"x": -1.9508588815,
				"y": 3.9045774449,
				"z": -3.6260887186,
				"element": "H" 
			},
			{
				"x": -0.7325510961,
				"y": 1.983204152,
				"z": -2.6596125934,
				"element": "H" 
			}
		],
		 "valence_orbital": [ 
			{
				"type": "occ",
				"energy": -0.24107,
				"method": "rhf"
			},
			{
				"type": "occ",
				"energy": -0.23683,
				"method": "rhf"
			},
			{
				"type": "occ",
				"energy": -0.23441,
				"method": "rhf"
			},
			{
				"type": "occ",
				"energy": -0.21293,
				"method": "rhf"
			},
			{
				"type": "occ",
				"energy": -0.18375,
				"method": "rhf"
			},
			{
				"type": "unocc",
				"energy": -0.02666,
				"method": "rhf"
			},
			{
				"type": "unocc",
				"energy": -0.00299,
				"method": "rhf"
			},
			{
				"type": "unocc",
				"energy": 0.00447,
				"method": "rhf"
			},
			{
				"type": "unocc",
				"energy": 0.00581,
				"method": "rhf"
			},
			{
				"type": "unocc",
				"energy": 0.00851,
				"method": "rhf"
			}
		],
		"cosmo_sigma_profile": { 
			"-0.025": 0.0,
			"-0.024": 0.0,
			"-0.023": 0.0,
			"-0.022": 0.0,
			"-0.021": 0.0,
			"-0.02": 0.0,
			"-0.019": 0.0,
			"-0.018": 0.0,
			"-0.017": 0.0,
			"-0.016": 0.0,
			"-0.015": 0.0,
			"-0.014": 0.0,
			"-0.013": 0.0,
			"-0.012": 0.0,
			"-0.011": 0.0,
			"-0.01": 0.0,
			"-0.009": 0.0,
			"-0.008": 0.256969564137,
			"-0.007": 2.07965135853,
			"-0.006": 15.3450685686,
			"-0.005": 35.0204755244,
			"-0.004": 41.596412335,
			"-0.003": 51.4174500014,
			"-0.002": 46.5122317734,
			"-0.001": 35.6417982064,
			"0.0": 29.3090305706,
			"0.001": 31.0148610724,
			"0.002": 27.3511067318,
			"0.003": 22.8018863757,
			"0.004": 21.7440157833,
			"0.005": 23.7033746832,
			"0.006": 15.9999991984,
			"0.007": 5.62230609112,
			"0.008": 4.92070202249,
			"0.009": 4.38556044405,
			"0.01": 3.24460241396,
			"0.011": 2.58251616448,
			"0.012": 2.57919031169,
			"0.013": 2.61576807311,
			"0.014": 2.44076267265,
			"0.015": 0.0112797631852,
			"0.016": 0.0,
			"0.017": 0.0,
			"0.018": 0.0,
			"0.019": 0.0,
			"0.02": 0.0,
			"0.021": 0.0,
			"0.022": 0.0,
			"0.023": 0.0,
			"0.024": 0.0,
			"0.025": 0.0
		}
	}
}
