{
	 "smiles": "COC(=O)N(C(=O)N1CO[C@]2(CC3=C(C=CC(Cl)=C3)C2=N1)C(=O)OC)C1=CC=C(OC(F)(F)F)C=C1", 
	 "Tm": 361.25, 
	 "num_atms": 53, 
	 "gaussian": { 
		 "optdone": 1, 
		 "sigma_profile": "yes", 
		 "theory": "DFT", 
		 "functional": "B3LYP", 
		 "basiset": "6-31G**", 
		 "properties": { 
			 "R2extent": 26069.0489, 
			 "electric_dipole_moment_norm": 2.21111566862, 
			 "electric_quadrupole_moment_norm": 33.8686035024, 
			 "total_energy": -2299.09791813, 
			 "HOMO_LUMO_gap": 0.16541, 
			 "cosmo_polarized_energy": -21.49, 
			 "cosmo_cavitation_energy": 62.59, 
			 "cosmo_dispersion_energy": -40.93, 
			 "cosmo_repulsion_energy": 3.05, 
			 "cosmo_total_nonelectrostatic_energy": 24.71, 
			 "SMD_solvation_energy": 14.61 
		},
		"coords": [
			{
				"x": -4.4149613248,
				"y": 1.0985322603,
				"z": 1.328400247,
				"element": "C" 
			},
			{
				"x": -3.4359243163,
				"y": 1.1182826968,
				"z": 0.277392383,
				"element": "O" 
			},
			{
				"x": -2.1652192095,
				"y": 1.2731064954,
				"z": 0.7013547498,
				"element": "C" 
			},
			{
				"x": -1.828723822,
				"y": 1.3601329065,
				"z": 1.8622324074,
				"element": "O" 
			},
			{
				"x": -1.2908340956,
				"y": 1.3467610241,
				"z": -0.3868607776,
				"element": "N" 
			},
			{
				"x": 0.1066740231,
				"y": 1.4714248836,
				"z": -0.1395454906,
				"element": "C" 
			},
			{
				"x": 0.7803181655,
				"y": 2.3803826431,
				"z": -0.5959603691,
				"element": "O" 
			},
			{
				"x": 0.6862652221,
				"y": 0.4628144136,
				"z": 0.600511059,
				"element": "N" 
			},
			{
				"x": 2.069305467,
				"y": 0.6666594271,
				"z": 1.0707003791,
				"element": "C" 
			},
			{
				"x": 2.2799323399,
				"y": 0.0102315245,
				"z": 2.3033437394,
				"element": "O" 
			},
			{
				"x": 1.9922383989,
				"y": -1.3716708588,
				"z": 2.1885764104,
				"element": "C" 
			},
			{
				"x": 1.8956789282,
				"y": -2.0717832242,
				"z": 3.5741574772,
				"element": "C" 
			},
			{
				"x": 0.7456670235,
				"y": -3.0458683414,
				"z": 3.3889275709,
				"element": "C" 
			},
			{
				"x": -0.0228459895,
				"y": -2.7103967452,
				"z": 2.2597088272,
				"element": "C" 
			},
			{
				"x": -1.1762444421,
				"y": -3.4258603615,
				"z": 1.9376501656,
				"element": "C" 
			},
			{
				"x": -1.5482179821,
				"y": -4.5012509626,
				"z": 2.7428704495,
				"element": "C" 
			},
			{
				"x": -0.7685188223,
				"y": -4.8326696361,
				"z": 3.8564206826,
				"element": "C" 
			},
			{
				"x": -1.2490138238,
				"y": -6.1944475366,
				"z": 4.8567290788,
				"element": "Cl" 
			},
			{
				"x": 0.3804529742,
				"y": -4.1139184367,
				"z": 4.1995910576,
				"element": "C" 
			},
			{
				"x": 0.5854837802,
				"y": -1.5428798203,
				"z": 1.6276945192,
				"element": "C" 
			},
			{
				"x": -0.0259741667,
				"y": -0.6641605076,
				"z": 0.9187199401,
				"element": "N" 
			},
			{
				"x": 3.0302982149,
				"y": -2.1383360788,
				"z": 1.3357588842,
				"element": "C" 
			},
			{
				"x": 2.8067224362,
				"y": -3.2012163949,
				"z": 0.8012926072,
				"element": "O" 
			},
			{
				"x": 4.2171022748,
				"y": -1.5094213392,
				"z": 1.311733293,
				"element": "O" 
			},
			{
				"x": 5.256729809,
				"y": -2.1913764183,
				"z": 0.581762541,
				"element": "C" 
			},
			{
				"x": -1.7534949558,
				"y": 1.6189616677,
				"z": -1.7254453998,
				"element": "C" 
			},
			{
				"x": -1.7007119,
				"y": 2.910814478,
				"z": -2.2495700377,
				"element": "C" 
			},
			{
				"x": -2.1280839909,
				"y": 3.1625847984,
				"z": -3.5539515943,
				"element": "C" 
			},
			{
				"x": -2.6238467961,
				"y": 2.1046349453,
				"z": -4.3153989619,
				"element": "C" 
			},
			{
				"x": -3.0675557639,
				"y": 2.221022909,
				"z": -5.6352186938,
				"element": "O" 
			},
			{
				"x": -3.4118532436,
				"y": 3.4246852236,
				"z": -6.1542925086,
				"element": "C" 
			},
			{
				"x": -2.3514384884,
				"y": 4.2466117684,
				"z": -6.3064957809,
				"element": "F" 
			},
			{
				"x": -3.9406358019,
				"y": 3.2030128649,
				"z": -7.3566505756,
				"element": "F" 
			},
			{
				"x": -4.3136259053,
				"y": 4.0749290315,
				"z": -5.3968310823,
				"element": "F" 
			},
			{
				"x": -2.6800814108,
				"y": 0.8087237465,
				"z": -3.8028652071,
				"element": "C" 
			},
			{
				"x": -2.2335727451,
				"y": 0.56608376,
				"z": -2.5082126173,
				"element": "C" 
			},
			{
				"x": -5.3758244155,
				"y": 0.987511079,
				"z": 0.8261569843,
				"element": "H" 
			},
			{
				"x": -4.2350743377,
				"y": 0.2605456111,
				"z": 2.0058850624,
				"element": "H" 
			},
			{
				"x": -4.3862137659,
				"y": 2.0290298194,
				"z": 1.9004306201,
				"element": "H" 
			},
			{
				"x": 2.2188991675,
				"y": 1.7333412426,
				"z": 1.2275403896,
				"element": "H" 
			},
			{
				"x": 2.7769168936,
				"y": 0.3084772867,
				"z": 0.3115942422,
				"element": "H" 
			},
			{
				"x": 2.831771505,
				"y": -2.546051969,
				"z": 3.8816128492,
				"element": "H" 
			},
			{
				"x": 1.6488343145,
				"y": -1.3027032883,
				"z": 4.3154899043,
				"element": "H" 
			},
			{
				"x": -1.7662771979,
				"y": -3.156756049,
				"z": 1.0677858384,
				"element": "H" 
			},
			{
				"x": -2.4307988012,
				"y": -5.087440325,
				"z": 2.513025337,
				"element": "H" 
			},
			{
				"x": 0.9565953339,
				"y": -4.3899345822,
				"z": 5.0762596788,
				"element": "H" 
			},
			{
				"x": 5.4561866959,
				"y": -3.1685922476,
				"z": 1.027432464,
				"element": "H" 
			},
			{
				"x": 4.9625645529,
				"y": -2.3308592211,
				"z": -0.460939095,
				"element": "H" 
			},
			{
				"x": 6.1327294633,
				"y": -1.5479927969,
				"z": 0.653709732,
				"element": "H" 
			},
			{
				"x": -1.3020706509,
				"y": 3.7154040645,
				"z": -1.6437975199,
				"element": "H" 
			},
			{
				"x": -2.0658046853,
				"y": 4.1640913254,
				"z": -3.9580654106,
				"element": "H" 
			},
			{
				"x": -3.0668103555,
				"y": 0.0104985399,
				"z": -4.4266740281,
				"element": "H" 
			},
			{
				"x": -2.2629137774,
				"y": -0.4354052959,
				"z": -2.0931764214,
				"element": "H" 
			}
		],
		 "valence_orbital": [ 
			{
				"type": "occ",
				"energy": -0.27002,
				"method": "rhf"
			},
			{
				"type": "occ",
				"energy": -0.26679,
				"method": "rhf"
			},
			{
				"type": "occ",
				"energy": -0.26492,
				"method": "rhf"
			},
			{
				"type": "occ",
				"energy": -0.24575,
				"method": "rhf"
			},
			{
				"type": "occ",
				"energy": -0.22574,
				"method": "rhf"
			},
			{
				"type": "unocc",
				"energy": -0.06033,
				"method": "rhf"
			},
			{
				"type": "unocc",
				"energy": -0.02515,
				"method": "rhf"
			},
			{
				"type": "unocc",
				"energy": -0.01877,
				"method": "rhf"
			},
			{
				"type": "unocc",
				"energy": -0.01631,
				"method": "rhf"
			},
			{
				"type": "unocc",
				"energy": -0.01176,
				"method": "rhf"
			}
		],
		"cosmo_sigma_profile": { 
			"-0.025": 0.0,
			"-0.024": 0.0,
			"-0.023": 0.0,
			"-0.022": 0.0,
			"-0.021": 0.0,
			"-0.02": 0.0,
			"-0.019": 0.0,
			"-0.018": 0.0,
			"-0.017": 0.0,
			"-0.016": 0.0,
			"-0.015": 0.0,
			"-0.014": 0.0,
			"-0.013": 0.0,
			"-0.012": 0.0,
			"-0.011": 0.0,
			"-0.01": 0.246166018314,
			"-0.009": 1.01996753329,
			"-0.008": 7.79277825887,
			"-0.007": 22.802553716,
			"-0.006": 34.7422037006,
			"-0.005": 35.2905027426,
			"-0.004": 37.253558447,
			"-0.003": 30.4035306037,
			"-0.002": 27.5805631758,
			"-0.001": 31.5132418083,
			"0.0": 36.1437958165,
			"0.001": 51.4643142621,
			"0.002": 59.8540427154,
			"0.003": 30.3784855643,
			"0.004": 23.6847057393,
			"0.005": 13.7270682945,
			"0.006": 10.5127226655,
			"0.007": 8.91596115956,
			"0.008": 7.68660216629,
			"0.009": 8.46735437668,
			"0.01": 7.45425006632,
			"0.011": 11.1582688499,
			"0.012": 5.01560419048,
			"0.013": 0.173400715687,
			"0.014": 0.0,
			"0.015": 0.0,
			"0.016": 0.0,
			"0.017": 0.0,
			"0.018": 0.0,
			"0.019": 0.0,
			"0.02": 0.0,
			"0.021": 0.0,
			"0.022": 0.0,
			"0.023": 0.0,
			"0.024": 0.0,
			"0.025": 0.0
		}
	}
}
