{
	 "smiles": "CC1=C(C=CC(CO)=C1)[N+]([O-])=O", 
	 "Tm": 331.15, 
	 "num_atms": 21, 
	 "gaussian": { 
		 "optdone": 1, 
		 "sigma_profile": "yes", 
		 "theory": "DFT", 
		 "functional": "B3LYP", 
		 "basiset": "6-31G**", 
		 "properties": { 
			 "R2extent": 2623.111, 
			 "electric_dipole_moment_norm": 3.92719163143, 
			 "electric_quadrupole_moment_norm": 18.3027253796, 
			 "total_energy": -590.593112558, 
			 "HOMO_LUMO_gap": 0.18212, 
			 "cosmo_polarized_energy": -11.84, 
			 "cosmo_cavitation_energy": 25.16, 
			 "cosmo_dispersion_energy": -18.56, 
			 "cosmo_repulsion_energy": 1.48, 
			 "cosmo_total_nonelectrostatic_energy": 8.07, 
			 "SMD_solvation_energy": 6.46 
		},
		"coords": [
			{
				"x": 1.9323064868,
				"y": 0.7518070567,
				"z": -1.5424247898,
				"element": "C" 
			},
			{
				"x": 0.5562349179,
				"y": 0.4180342996,
				"z": -1.0199032958,
				"element": "C" 
			},
			{
				"x": -0.6410325463,
				"y": 1.0689019413,
				"z": -1.3831441405,
				"element": "C" 
			},
			{
				"x": -1.8776828006,
				"y": 0.7015552771,
				"z": -0.842475194,
				"element": "C" 
			},
			{
				"x": -1.9544432483,
				"y": -0.3370563117,
				"z": 0.0732224184,
				"element": "C" 
			},
			{
				"x": -0.7900185116,
				"y": -1.007949555,
				"z": 0.4668381458,
				"element": "C" 
			},
			{
				"x": -0.8507323335,
				"y": -2.1211348713,
				"z": 1.4970265896,
				"element": "C" 
			},
			{
				"x": 0.2435422253,
				"y": -3.0194798161,
				"z": 1.4445032449,
				"element": "O" 
			},
			{
				"x": 0.4329473596,
				"y": -0.6183892448,
				"z": -0.0822588089,
				"element": "C" 
			},
			{
				"x": -0.6659425367,
				"y": 2.1729099738,
				"z": -2.3578734474,
				"element": "N" 
			},
			{
				"x": 0.3723908223,
				"y": 2.447571222,
				"z": -2.9617684219,
				"element": "O" 
			},
			{
				"x": -1.7323994343,
				"y": 2.7670567824,
				"z": -2.5238676109,
				"element": "O" 
			},
			{
				"x": 2.0041462323,
				"y": 0.580905834,
				"z": -2.6194848145,
				"element": "H" 
			},
			{
				"x": 2.180206578,
				"y": 1.8045691353,
				"z": -1.3872156717,
				"element": "H" 
			},
			{
				"x": 2.6761678484,
				"y": 0.1332566963,
				"z": -1.0338345123,
				"element": "H" 
			},
			{
				"x": -2.760003411,
				"y": 1.2399352127,
				"z": -1.1633714071,
				"element": "H" 
			},
			{
				"x": -2.9197561336,
				"y": -0.6276226598,
				"z": 0.4792076674,
				"element": "H" 
			},
			{
				"x": -1.8149159037,
				"y": -2.6462658022,
				"z": 1.411008422,
				"element": "H" 
			},
			{
				"x": -0.8209324151,
				"y": -1.6854798716,
				"z": 2.503219141,
				"element": "H" 
			},
			{
				"x": 0.2180168521,
				"y": -3.4673564449,
				"z": 0.5882752586,
				"element": "H" 
			},
			{
				"x": 1.327299952,
				"y": -1.1457688539,
				"z": 0.2342212272,
				"element": "H" 
			}
		],
		 "valence_orbital": [ 
			{
				"type": "occ",
				"energy": -0.30199,
				"method": "rhf"
			},
			{
				"type": "occ",
				"energy": -0.29691,
				"method": "rhf"
			},
			{
				"type": "occ",
				"energy": -0.28365,
				"method": "rhf"
			},
			{
				"type": "occ",
				"energy": -0.27063,
				"method": "rhf"
			},
			{
				"type": "occ",
				"energy": -0.26692,
				"method": "rhf"
			},
			{
				"type": "unocc",
				"energy": -0.0848,
				"method": "rhf"
			},
			{
				"type": "unocc",
				"energy": -0.02386,
				"method": "rhf"
			},
			{
				"type": "unocc",
				"energy": -0.00152,
				"method": "rhf"
			},
			{
				"type": "unocc",
				"energy": 0.06753,
				"method": "rhf"
			},
			{
				"type": "unocc",
				"energy": 0.09197,
				"method": "rhf"
			}
		],
		"cosmo_sigma_profile": { 
			"-0.025": 0.0,
			"-0.024": 0.0,
			"-0.023": 0.0,
			"-0.022": 0.0,
			"-0.021": 0.0,
			"-0.02": 0.0,
			"-0.019": 0.0,
			"-0.018": 0.0,
			"-0.017": 0.0106140612821,
			"-0.016": 0.65732107761,
			"-0.015": 0.920534289138,
			"-0.014": 1.20183249103,
			"-0.013": 0.81764159048,
			"-0.012": 0.869557532758,
			"-0.011": 0.798577955658,
			"-0.01": 0.619101864746,
			"-0.009": 0.591184079495,
			"-0.008": 1.40394366597,
			"-0.007": 4.53111637204,
			"-0.006": 11.4971483365,
			"-0.005": 15.0421565089,
			"-0.004": 15.6626335664,
			"-0.003": 15.3318887747,
			"-0.002": 14.7515132258,
			"-0.001": 18.050132809,
			"0.0": 16.504689904,
			"0.001": 12.6251630243,
			"0.002": 14.2233796631,
			"0.003": 8.87207957288,
			"0.004": 3.63084781287,
			"0.005": 3.97578094511,
			"0.006": 5.18541111142,
			"0.007": 5.42251416593,
			"0.008": 8.51760062823,
			"0.009": 5.64763231948,
			"0.01": 5.65560376,
			"0.011": 2.15045764949,
			"0.012": 1.26218903913,
			"0.013": 1.9610781985,
			"0.014": 1.00460391203,
			"0.015": 0.0,
			"0.016": 0.0,
			"0.017": 0.0,
			"0.018": 0.0,
			"0.019": 0.0,
			"0.02": 0.0,
			"0.021": 0.0,
			"0.022": 0.0,
			"0.023": 0.0,
			"0.024": 0.0,
			"0.025": 0.0
		}
	}
}
