{
	 "smiles": "ClC1=C2OC(=O)NC2=CC(Br)=C1", 
	 "Tm": 463.15, 
	 "num_atms": 15, 
	 "gaussian": { 
		 "optdone": 1, 
		 "sigma_profile": "yes", 
		 "theory": "DFT", 
		 "functional": "B3LYP", 
		 "basiset": "6-31G**", 
		 "properties": { 
			 "R2extent": 4514.0886, 
			 "electric_dipole_moment_norm": 3.51582216132, 
			 "electric_quadrupole_moment_norm": 13.8752985312, 
			 "total_energy": -3505.35951852, 
			 "HOMO_LUMO_gap": 0.20236, 
			 "cosmo_polarized_energy": -12.83, 
			 "cosmo_cavitation_energy": 24.57, 
			 "cosmo_dispersion_energy": -19.07, 
			 "cosmo_repulsion_energy": 1.53, 
			 "cosmo_total_nonelectrostatic_energy": 7.02, 
			 "SMD_solvation_energy": 4.04 
		},
		"coords": [
			{
				"x": -0.1264019777,
				"y": -1.4916654434,
				"z": 3.4649349562,
				"element": "Cl" 
			},
			{
				"x": -0.2294418761,
				"y": -1.3726620247,
				"z": 1.7328577643,
				"element": "C" 
			},
			{
				"x": 0.74021078,
				"y": -0.7035577033,
				"z": 1.0071790749,
				"element": "C" 
			},
			{
				"x": 1.8619370276,
				"y": -0.0658700011,
				"z": 1.4654723976,
				"element": "O" 
			},
			{
				"x": 2.5392168422,
				"y": 0.463921544,
				"z": 0.3644640076,
				"element": "C" 
			},
			{
				"x": 3.5643850818,
				"y": 1.0832008749,
				"z": 0.4357998655,
				"element": "O" 
			},
			{
				"x": 1.7902068892,
				"y": 0.1232900154,
				"z": -0.7525253803,
				"element": "N" 
			},
			{
				"x": 0.6643113679,
				"y": -0.6034317836,
				"z": -0.3877004821,
				"element": "C" 
			},
			{
				"x": -0.3793769932,
				"y": -1.1658267512,
				"z": -1.1087862361,
				"element": "C" 
			},
			{
				"x": -1.3520554577,
				"y": -1.8392416292,
				"z": -0.3597004152,
				"element": "C" 
			},
			{
				"x": -2.8186716323,
				"y": -2.6391296413,
				"z": -1.2828936548,
				"element": "Br" 
			},
			{
				"x": -1.2963756466,
				"y": -1.9511558218,
				"z": 1.0298181878,
				"element": "C" 
			},
			{
				"x": 2.0739449405,
				"y": 0.3942891269,
				"z": -1.6806591092,
				"element": "H" 
			},
			{
				"x": -0.448055485,
				"y": -1.0945858195,
				"z": -2.1868447908,
				"element": "H" 
			},
			{
				"x": -2.0693338606,
				"y": -2.480674942,
				"z": 1.5714838146,
				"element": "H" 
			}
		],
		 "valence_orbital": [ 
			{
				"type": "occ",
				"energy": -0.3085,
				"method": "rhf"
			},
			{
				"type": "occ",
				"energy": -0.3032,
				"method": "rhf"
			},
			{
				"type": "occ",
				"energy": -0.3001,
				"method": "rhf"
			},
			{
				"type": "occ",
				"energy": -0.26296,
				"method": "rhf"
			},
			{
				"type": "occ",
				"energy": -0.2426,
				"method": "rhf"
			},
			{
				"type": "unocc",
				"energy": -0.04024,
				"method": "rhf"
			},
			{
				"type": "unocc",
				"energy": -0.02596,
				"method": "rhf"
			},
			{
				"type": "unocc",
				"energy": -0.02037,
				"method": "rhf"
			},
			{
				"type": "unocc",
				"energy": 0.02608,
				"method": "rhf"
			},
			{
				"type": "unocc",
				"energy": 0.03051,
				"method": "rhf"
			}
		],
		"cosmo_sigma_profile": { 
			"-0.025": 0.0,
			"-0.024": 0.0,
			"-0.023": 0.0,
			"-0.022": 0.0,
			"-0.021": 0.0,
			"-0.02": 0.0,
			"-0.019": 0.0,
			"-0.018": 1.2595398309,
			"-0.017": 1.52616746596,
			"-0.016": 1.12396259366,
			"-0.015": 1.32236678716,
			"-0.014": 1.07988804097,
			"-0.013": 1.32252764,
			"-0.012": 1.14790627417,
			"-0.011": 1.0474405697,
			"-0.01": 1.46626605211,
			"-0.009": 2.80953768996,
			"-0.008": 3.67038519928,
			"-0.007": 3.94276923864,
			"-0.006": 5.22869348514,
			"-0.005": 5.88166736574,
			"-0.004": 9.60355845239,
			"-0.003": 10.7245662626,
			"-0.002": 14.6376295357,
			"-0.001": 15.8071813568,
			"0.0": 18.9473075983,
			"0.001": 21.4065197665,
			"0.002": 17.175099645,
			"0.003": 17.8058345246,
			"0.004": 18.0892914844,
			"0.005": 5.07422398895,
			"0.006": 3.15030398146,
			"0.007": 2.9682796278,
			"0.008": 1.87639079874,
			"0.009": 1.92503698878,
			"0.01": 3.10344361709,
			"0.011": 6.94312279104,
			"0.012": 2.2743823526,
			"0.013": 0.00406628187663,
			"0.014": 0.0,
			"0.015": 0.0,
			"0.016": 0.0,
			"0.017": 0.0,
			"0.018": 0.0,
			"0.019": 0.0,
			"0.02": 0.0,
			"0.021": 0.0,
			"0.022": 0.0,
			"0.023": 0.0,
			"0.024": 0.0,
			"0.025": 0.0
		}
	}
}
