{
	 "smiles": "CS(=O)(=O)CC1=NC(=N)ON1", 
	 "Tm": 432.15, 
	 "num_atms": 18, 
	 "gaussian": { 
		 "optdone": 1, 
		 "sigma_profile": "yes", 
		 "theory": "DFT", 
		 "functional": "B3LYP", 
		 "basiset": "6-31G**", 
		 "properties": { 
			 "R2extent": 3307.0733, 
			 "electric_dipole_moment_norm": 5.89005637324, 
			 "electric_quadrupole_moment_norm": 17.6532322958, 
			 "total_energy": -944.618704362, 
			 "HOMO_LUMO_gap": 0.19734, 
			 "cosmo_polarized_energy": -25.81, 
			 "cosmo_cavitation_energy": 24.03, 
			 "cosmo_dispersion_energy": -18.42, 
			 "cosmo_repulsion_energy": 1.43, 
			 "cosmo_total_nonelectrostatic_energy": 7.05, 
			 "SMD_solvation_energy": 1.89 
		},
		"coords": [
			{
				"x": 0.8050347473,
				"y": -0.3720558018,
				"z": -3.6330611158,
				"element": "C" 
			},
			{
				"x": 1.2874795637,
				"y": -1.3832975227,
				"z": -2.2191814903,
				"element": "S" 
			},
			{
				"x": 2.3988917769,
				"y": -0.6921934838,
				"z": -1.5326560059,
				"element": "O" 
			},
			{
				"x": 1.4330390861,
				"y": -2.7707815125,
				"z": -2.6689347306,
				"element": "O" 
			},
			{
				"x": -0.1687780708,
				"y": -1.2512851908,
				"z": -1.1177199555,
				"element": "C" 
			},
			{
				"x": 0.1214489958,
				"y": -1.5704740283,
				"z": 0.324020741,
				"element": "C" 
			},
			{
				"x": -0.7996891764,
				"y": -1.5847316711,
				"z": 1.2286053638,
				"element": "N" 
			},
			{
				"x": -0.1439689657,
				"y": -1.8539810294,
				"z": 2.4326593177,
				"element": "C" 
			},
			{
				"x": -0.6637005147,
				"y": -1.9683940354,
				"z": 3.5784035504,
				"element": "N" 
			},
			{
				"x": 1.243818316,
				"y": -1.9980998478,
				"z": 2.1746434442,
				"element": "O" 
			},
			{
				"x": 1.3705971141,
				"y": -1.9174932269,
				"z": 0.7736907992,
				"element": "N" 
			},
			{
				"x": -0.1026676522,
				"y": -0.7820978382,
				"z": -4.0791426778,
				"element": "H" 
			},
			{
				"x": 0.6669632224,
				"y": 0.6619222148,
				"z": -3.3145418735,
				"element": "H" 
			},
			{
				"x": 1.6335464073,
				"y": -0.4432150558,
				"z": -4.3405223337,
				"element": "H" 
			},
			{
				"x": -0.5362787925,
				"y": -0.2227389374,
				"z": -1.1790545056,
				"element": "H" 
			},
			{
				"x": -0.9404234649,
				"y": -1.9245047662,
				"z": -1.4992471361,
				"element": "H" 
			},
			{
				"x": 0.0463568449,
				"y": -2.1638051755,
				"z": 4.2840302022,
				"element": "H" 
			},
			{
				"x": 2.1937305627,
				"y": -1.3933730914,
				"z": 0.4783084063,
				"element": "H" 
			}
		],
		 "valence_orbital": [ 
			{
				"type": "occ",
				"energy": -0.32577,
				"method": "rhf"
			},
			{
				"type": "occ",
				"energy": -0.32179,
				"method": "rhf"
			},
			{
				"type": "occ",
				"energy": -0.30994,
				"method": "rhf"
			},
			{
				"type": "occ",
				"energy": -0.27683,
				"method": "rhf"
			},
			{
				"type": "occ",
				"energy": -0.23431,
				"method": "rhf"
			},
			{
				"type": "unocc",
				"energy": -0.03697,
				"method": "rhf"
			},
			{
				"type": "unocc",
				"energy": 0.01832,
				"method": "rhf"
			},
			{
				"type": "unocc",
				"energy": 0.0397,
				"method": "rhf"
			},
			{
				"type": "unocc",
				"energy": 0.04903,
				"method": "rhf"
			},
			{
				"type": "unocc",
				"energy": 0.05528,
				"method": "rhf"
			}
		],
		"cosmo_sigma_profile": { 
			"-0.025": 0.0,
			"-0.024": 0.0,
			"-0.023": 0.0,
			"-0.022": 0.0,
			"-0.021": 0.0,
			"-0.02": 0.0,
			"-0.019": 0.0,
			"-0.018": 0.0,
			"-0.017": 0.0,
			"-0.016": 0.0557931574083,
			"-0.015": 0.360818855667,
			"-0.014": 1.03628194155,
			"-0.013": 2.07394971789,
			"-0.012": 4.22488495262,
			"-0.011": 7.91512305684,
			"-0.01": 9.92052977581,
			"-0.009": 9.35410403153,
			"-0.008": 10.2094861382,
			"-0.007": 9.02752190493,
			"-0.006": 8.18391132079,
			"-0.005": 9.65260292577,
			"-0.004": 8.51893763064,
			"-0.003": 5.88070918524,
			"-0.002": 5.28671875354,
			"-0.001": 5.77611480677,
			"0.0": 6.03587839672,
			"0.001": 6.89710969332,
			"0.002": 5.29606823813,
			"0.003": 5.97484581294,
			"0.004": 6.03922429417,
			"0.005": 5.92707990945,
			"0.006": 6.36294783663,
			"0.007": 5.5923924963,
			"0.008": 5.54299461473,
			"0.009": 5.84456170807,
			"0.01": 9.18335677206,
			"0.011": 10.9661177623,
			"0.012": 3.51017634942,
			"0.013": 2.63883853272,
			"0.014": 3.59892855507,
			"0.015": 1.5195999356,
			"0.016": 1.5899049145,
			"0.017": 1.22095441558,
			"0.018": 0.0952585280958,
			"0.019": 0.0,
			"0.02": 0.0,
			"0.021": 0.0,
			"0.022": 0.0,
			"0.023": 0.0,
			"0.024": 0.0,
			"0.025": 0.0
		}
	}
}
