{
	 "smiles": "N(C1=NC2=C(S1)C=CC=C2)C1=CC=CC=C1", 
	 "Tm": 413.15, 
	 "num_atms": 26, 
	 "gaussian": { 
		 "optdone": 1, 
		 "sigma_profile": "yes", 
		 "theory": "DFT", 
		 "functional": "B3LYP", 
		 "basiset": "6-31G**", 
		 "properties": { 
			 "R2extent": 5881.8702, 
			 "electric_dipole_moment_norm": 1.44228407049, 
			 "electric_quadrupole_moment_norm": 16.0039411305, 
			 "total_energy": -1009.11538132, 
			 "HOMO_LUMO_gap": 0.17583, 
			 "cosmo_polarized_energy": -10.64, 
			 "cosmo_cavitation_energy": 31.71, 
			 "cosmo_dispersion_energy": -24.25, 
			 "cosmo_repulsion_energy": 1.81, 
			 "cosmo_total_nonelectrostatic_energy": 9.26, 
			 "SMD_solvation_energy": 3.68 
		},
		"coords": [
			{
				"x": 0.1870664346,
				"y": -0.7867442859,
				"z": -2.4012507622,
				"element": "N" 
			},
			{
				"x": 0.684304477,
				"y": -1.0359154214,
				"z": -1.153098711,
				"element": "C" 
			},
			{
				"x": 0.0052457639,
				"y": -1.3132490615,
				"z": -0.0846102357,
				"element": "N" 
			},
			{
				"x": 0.8450033709,
				"y": -1.506573467,
				"z": 1.0020390769,
				"element": "C" 
			},
			{
				"x": 2.2313882151,
				"y": -1.3690880792,
				"z": 0.7457800075,
				"element": "C" 
			},
			{
				"x": 2.4712403959,
				"y": -0.97649848,
				"z": -0.9545968152,
				"element": "S" 
			},
			{
				"x": 3.1848461714,
				"y": -1.5368739263,
				"z": 1.7474521991,
				"element": "C" 
			},
			{
				"x": 2.7405831715,
				"y": -1.8490431397,
				"z": 3.033347942,
				"element": "C" 
			},
			{
				"x": 1.3717110517,
				"y": -1.9886756918,
				"z": 3.3036947538,
				"element": "C" 
			},
			{
				"x": 0.4214340012,
				"y": -1.8202160323,
				"z": 2.2998535109,
				"element": "C" 
			},
			{
				"x": -1.1496260388,
				"y": -0.7644917715,
				"z": -2.8482299969,
				"element": "C" 
			},
			{
				"x": -1.3597177108,
				"y": -0.474637046,
				"z": -4.2073039414,
				"element": "C" 
			},
			{
				"x": -2.6494963034,
				"y": -0.4335617157,
				"z": -4.7269915241,
				"element": "C" 
			},
			{
				"x": -3.7498854473,
				"y": -0.680141483,
				"z": -3.9028019782,
				"element": "C" 
			},
			{
				"x": -3.5370209562,
				"y": -0.9674305301,
				"z": -2.5543592935,
				"element": "C" 
			},
			{
				"x": -2.2507666609,
				"y": -1.0130521613,
				"z": -2.015112738,
				"element": "C" 
			},
			{
				"x": 0.8745136325,
				"y": -0.5885841792,
				"z": -3.112938875,
				"element": "H" 
			},
			{
				"x": 4.2443039401,
				"y": -1.4287711588,
				"z": 1.5380255555,
				"element": "H" 
			},
			{
				"x": 3.4658059409,
				"y": -1.9843932589,
				"z": 3.8299155183,
				"element": "H" 
			},
			{
				"x": 1.0473959463,
				"y": -2.2318894552,
				"z": 4.3111572311,
				"element": "H" 
			},
			{
				"x": -0.6399319178,
				"y": -1.9261278934,
				"z": 2.4989103448,
				"element": "H" 
			},
			{
				"x": -0.5073196286,
				"y": -0.2814774481,
				"z": -4.8555178203,
				"element": "H" 
			},
			{
				"x": -2.7924511753,
				"y": -0.2078857135,
				"z": -5.7798102947,
				"element": "H" 
			},
			{
				"x": -4.7568200991,
				"y": -0.6483727606,
				"z": -4.3071611387,
				"element": "H" 
			},
			{
				"x": -4.3837893169,
				"y": -1.1612165159,
				"z": -1.9018479307,
				"element": "H" 
			},
			{
				"x": -2.0868172576,
				"y": -1.2357893237,
				"z": -0.9700440843,
				"element": "H" 
			}
		],
		 "valence_orbital": [ 
			{
				"type": "occ",
				"energy": -0.2747,
				"method": "rhf"
			},
			{
				"type": "occ",
				"energy": -0.25174,
				"method": "rhf"
			},
			{
				"type": "occ",
				"energy": -0.24659,
				"method": "rhf"
			},
			{
				"type": "occ",
				"energy": -0.23209,
				"method": "rhf"
			},
			{
				"type": "occ",
				"energy": -0.20097,
				"method": "rhf"
			},
			{
				"type": "unocc",
				"energy": -0.02514,
				"method": "rhf"
			},
			{
				"type": "unocc",
				"energy": -0.00738,
				"method": "rhf"
			},
			{
				"type": "unocc",
				"energy": -0.00226,
				"method": "rhf"
			},
			{
				"type": "unocc",
				"energy": -0.00144,
				"method": "rhf"
			},
			{
				"type": "unocc",
				"energy": 0.01597,
				"method": "rhf"
			}
		],
		"cosmo_sigma_profile": { 
			"-0.025": 0.0,
			"-0.024": 0.0,
			"-0.023": 0.0,
			"-0.022": 0.0,
			"-0.021": 0.0,
			"-0.02": 0.0,
			"-0.019": 0.0,
			"-0.018": 0.0,
			"-0.017": 0.106796304177,
			"-0.016": 1.23014025561,
			"-0.015": 1.15383583331,
			"-0.014": 1.25827555049,
			"-0.013": 1.3185344386,
			"-0.012": 1.48572420537,
			"-0.011": 1.1522777023,
			"-0.01": 1.0721685648,
			"-0.009": 1.16941115104,
			"-0.008": 1.84650319735,
			"-0.007": 4.08777521071,
			"-0.006": 10.4443985449,
			"-0.005": 17.6710182912,
			"-0.004": 17.3109581644,
			"-0.003": 18.1903151238,
			"-0.002": 13.16033361,
			"-0.001": 14.2352299841,
			"0.0": 17.1030453398,
			"0.001": 19.7652480461,
			"0.002": 22.0020894135,
			"0.003": 24.239022374,
			"0.004": 24.7440675669,
			"0.005": 23.7425669356,
			"0.006": 13.3366131672,
			"0.007": 2.52106466562,
			"0.008": 1.71940976504,
			"0.009": 1.73205737909,
			"0.01": 0.0420965370993,
			"0.011": 0.0,
			"0.012": 0.0,
			"0.013": 0.0,
			"0.014": 0.0,
			"0.015": 0.0,
			"0.016": 0.0,
			"0.017": 0.0,
			"0.018": 0.0,
			"0.019": 0.0,
			"0.02": 0.0,
			"0.021": 0.0,
			"0.022": 0.0,
			"0.023": 0.0,
			"0.024": 0.0,
			"0.025": 0.0
		}
	}
}
