{
	 "smiles": "CC(=O)N1CC(O)CC1C(O)=O", 
	 "Tm": 405.15, 
	 "num_atms": 23, 
	 "gaussian": { 
		 "optdone": 1, 
		 "sigma_profile": "yes", 
		 "theory": "DFT", 
		 "functional": "B3LYP", 
		 "basiset": "6-31G**", 
		 "properties": { 
			 "R2extent": 2265.5156, 
			 "electric_dipole_moment_norm": 4.97591635279, 
			 "electric_quadrupole_moment_norm": 14.4325444572, 
			 "total_energy": -629.028745169, 
			 "HOMO_LUMO_gap": 0.23942, 
			 "cosmo_polarized_energy": -24.9, 
			 "cosmo_cavitation_energy": 26.06, 
			 "cosmo_dispersion_energy": -18.49, 
			 "cosmo_repulsion_energy": 1.49, 
			 "cosmo_total_nonelectrostatic_energy": 9.06, 
			 "SMD_solvation_energy": 5.7 
		},
		"coords": [
			{
				"x": 2.0666206226,
				"y": 0.4953380064,
				"z": 1.4062618126,
				"element": "C" 
			},
			{
				"x": 2.0344479952,
				"y": 0.0955610539,
				"z": -0.0573379496,
				"element": "C" 
			},
			{
				"x": 2.9498307669,
				"y": 0.365779042,
				"z": -0.8266032308,
				"element": "O" 
			},
			{
				"x": 0.9316405225,
				"y": -0.6014870213,
				"z": -0.5024665956,
				"element": "N" 
			},
			{
				"x": 0.792076973,
				"y": -0.8900920135,
				"z": -1.9330468406,
				"element": "C" 
			},
			{
				"x": -0.7246050785,
				"y": -0.9222836893,
				"z": -2.1438242888,
				"element": "C" 
			},
			{
				"x": -1.2895596638,
				"y": 0.3808554836,
				"z": -2.2330340139,
				"element": "O" 
			},
			{
				"x": -1.2251964783,
				"y": -1.5183171447,
				"z": -0.8282795722,
				"element": "C" 
			},
			{
				"x": -0.289925764,
				"y": -0.8792249635,
				"z": 0.2387437244,
				"element": "C" 
			},
			{
				"x": -0.1038333835,
				"y": -1.8484216163,
				"z": 1.4131074974,
				"element": "C" 
			},
			{
				"x": -1.1856679932,
				"y": -1.9374975785,
				"z": 2.2320286972,
				"element": "O" 
			},
			{
				"x": 0.8729606427,
				"y": -2.5213412094,
				"z": 1.6130278214,
				"element": "O" 
			},
			{
				"x": 2.2408351538,
				"y": -0.3849112065,
				"z": 2.0313886372,
				"element": "H" 
			},
			{
				"x": 2.8871440052,
				"y": 1.1999264128,
				"z": 1.539456547,
				"element": "H" 
			},
			{
				"x": 1.1327415662,
				"y": 0.9637530832,
				"z": 1.7357782541,
				"element": "H" 
			},
			{
				"x": 1.2478230204,
				"y": -1.8553050969,
				"z": -2.1913173978,
				"element": "H" 
			},
			{
				"x": 1.3030305207,
				"y": -0.1181351005,
				"z": -2.514618445,
				"element": "H" 
			},
			{
				"x": -1.0059743271,
				"y": -1.5389743045,
				"z": -3.0092008947,
				"element": "H" 
			},
			{
				"x": -0.8525035196,
				"y": 0.8540205364,
				"z": -2.9529088896,
				"element": "H" 
			},
			{
				"x": -2.2807714495,
				"y": -1.2942212786,
				"z": -0.6590130294,
				"element": "H" 
			},
			{
				"x": -1.092472771,
				"y": -2.6047109591,
				"z": -0.8411313687,
				"element": "H" 
			},
			{
				"x": -0.7414792857,
				"y": 0.0516057496,
				"z": 0.6137294986,
				"element": "H" 
			},
			{
				"x": -1.8783620749,
				"y": -1.3219161853,
				"z": 1.9505600269,
				"element": "H" 
			}
		],
		 "valence_orbital": [ 
			{
				"type": "occ",
				"energy": -0.32756,
				"method": "rhf"
			},
			{
				"type": "occ",
				"energy": -0.29278,
				"method": "rhf"
			},
			{
				"type": "occ",
				"energy": -0.28446,
				"method": "rhf"
			},
			{
				"type": "occ",
				"energy": -0.24538,
				"method": "rhf"
			},
			{
				"type": "occ",
				"energy": -0.24466,
				"method": "rhf"
			},
			{
				"type": "unocc",
				"energy": -0.00524,
				"method": "rhf"
			},
			{
				"type": "unocc",
				"energy": 0.0242,
				"method": "rhf"
			},
			{
				"type": "unocc",
				"energy": 0.0402,
				"method": "rhf"
			},
			{
				"type": "unocc",
				"energy": 0.05851,
				"method": "rhf"
			},
			{
				"type": "unocc",
				"energy": 0.09249,
				"method": "rhf"
			}
		],
		"cosmo_sigma_profile": { 
			"-0.025": 0.0,
			"-0.024": 0.0,
			"-0.023": 0.0,
			"-0.022": 0.0,
			"-0.021": 0.0,
			"-0.02": 0.100922137686,
			"-0.019": 0.89419196747,
			"-0.018": 1.29311058419,
			"-0.017": 1.04271632563,
			"-0.016": 1.68066427759,
			"-0.015": 2.49289172544,
			"-0.014": 2.43441957745,
			"-0.013": 2.1436526552,
			"-0.012": 1.51068692493,
			"-0.011": 2.76168303139,
			"-0.01": 2.43669518717,
			"-0.009": 4.02444764253,
			"-0.008": 3.96752769829,
			"-0.007": 5.03936585433,
			"-0.006": 11.3327468637,
			"-0.005": 18.0325885016,
			"-0.004": 14.9397388305,
			"-0.003": 12.9023362927,
			"-0.002": 12.2822968281,
			"-0.001": 10.7576210416,
			"0.0": 7.80775868952,
			"0.001": 5.95674052423,
			"0.002": 4.83518446351,
			"0.003": 6.31307895135,
			"0.004": 6.21545905337,
			"0.005": 4.23203906354,
			"0.006": 5.34709916467,
			"0.007": 5.01542325883,
			"0.008": 6.34293013598,
			"0.009": 4.76578064304,
			"0.01": 8.6692117268,
			"0.011": 7.67212668922,
			"0.012": 6.79324073507,
			"0.013": 4.77227252891,
			"0.014": 5.39091569951,
			"0.015": 1.21084643944,
			"0.016": 0.00311312739402,
			"0.017": 0.0,
			"0.018": 0.0,
			"0.019": 0.0,
			"0.02": 0.0,
			"0.021": 0.0,
			"0.022": 0.0,
			"0.023": 0.0,
			"0.024": 0.0,
			"0.025": 0.0
		}
	}
}
