{
	 "smiles": "[O-][N+](=O)C1=CC=C(C=CC2=CC=CC=C2C=O)C(=C1)[N+]([O-])=O", 
	 "Tm": 459.15, 
	 "num_atms": 32, 
	 "gaussian": { 
		 "optdone": 1, 
		 "sigma_profile": "yes", 
		 "theory": "DFT", 
		 "functional": "B3LYP", 
		 "basiset": "6-31G**", 
		 "properties": { 
			 "R2extent": 10720.6339, 
			 "electric_dipole_moment_norm": 4.99736091252, 
			 "electric_quadrupole_moment_norm": 13.9367771687, 
			 "total_energy": -1063.01399886, 
			 "HOMO_LUMO_gap": 0.12987, 
			 "cosmo_polarized_energy": -18.02, 
			 "cosmo_cavitation_energy": 39.39, 
			 "cosmo_dispersion_energy": -27.79, 
			 "cosmo_repulsion_energy": 2.08, 
			 "cosmo_total_nonelectrostatic_energy": 13.68, 
			 "SMD_solvation_energy": 12.03 
		},
		"coords": [
			{
				"x": 0.3709491655,
				"y": -3.6292955232,
				"z": -5.5976611977,
				"element": "O" 
			},
			{
				"x": 0.2875433381,
				"y": -2.4073423821,
				"z": -5.4956753126,
				"element": "N" 
			},
			{
				"x": 0.1104967416,
				"y": -1.6273006691,
				"z": -6.4302858252,
				"element": "O" 
			},
			{
				"x": 0.4097584193,
				"y": -1.8272850396,
				"z": -4.1501565662,
				"element": "C" 
			},
			{
				"x": 0.3043736499,
				"y": -0.4465889689,
				"z": -3.9855808433,
				"element": "C" 
			},
			{
				"x": 0.4149197062,
				"y": 0.0824821204,
				"z": -2.7095331071,
				"element": "C" 
			},
			{
				"x": 0.6308718894,
				"y": -0.7189185019,
				"z": -1.5643773724,
				"element": "C" 
			},
			{
				"x": 0.772814425,
				"y": -0.0857189227,
				"z": -0.2484980257,
				"element": "C" 
			},
			{
				"x": 1.25680331,
				"y": 1.1636630942,
				"z": -0.070046014,
				"element": "C" 
			},
			{
				"x": 1.3578392637,
				"y": 1.8397533626,
				"z": 1.2314653495,
				"element": "C" 
			},
			{
				"x": 0.4565425293,
				"y": 1.5173386133,
				"z": 2.2642706171,
				"element": "C" 
			},
			{
				"x": 0.5118558268,
				"y": 2.1568657727,
				"z": 3.4983128608,
				"element": "C" 
			},
			{
				"x": 1.4664594025,
				"y": 3.1519241959,
				"z": 3.7362806932,
				"element": "C" 
			},
			{
				"x": 2.3607213149,
				"y": 3.4931243471,
				"z": 2.7294716179,
				"element": "C" 
			},
			{
				"x": 2.3245365352,
				"y": 2.8492205649,
				"z": 1.4833625093,
				"element": "C" 
			},
			{
				"x": 3.3571480801,
				"y": 3.2428353416,
				"z": 0.4899681502,
				"element": "C" 
			},
			{
				"x": 4.1554559275,
				"y": 4.1446774995,
				"z": 0.66756096,
				"element": "O" 
			},
			{
				"x": 0.714867846,
				"y": -2.1160677534,
				"z": -1.7963407717,
				"element": "C" 
			},
			{
				"x": 0.62185714,
				"y": -2.6698418479,
				"z": -3.0702977104,
				"element": "C" 
			},
			{
				"x": 0.9329049525,
				"y": -3.096809909,
				"z": -0.7111711673,
				"element": "N" 
			},
			{
				"x": 0.5348876851,
				"y": -2.821207929,
				"z": 0.4207383595,
				"element": "O" 
			},
			{
				"x": 1.4823371236,
				"y": -4.152177495,
				"z": -1.0157226426,
				"element": "O" 
			},
			{
				"x": 0.126124264,
				"y": 0.1822720354,
				"z": -4.8489213704,
				"element": "H" 
			},
			{
				"x": 0.2997019027,
				"y": 1.1517392838,
				"z": -2.5757592409,
				"element": "H" 
			},
			{
				"x": 0.5103938179,
				"y": -0.6893238058,
				"z": 0.6086630092,
				"element": "H" 
			},
			{
				"x": 1.6139726715,
				"y": 1.7130948443,
				"z": -0.9360629069,
				"element": "H" 
			},
			{
				"x": -0.3167292454,
				"y": 0.7786465437,
				"z": 2.080972468,
				"element": "H" 
			},
			{
				"x": -0.2004027058,
				"y": 1.8883018868,
				"z": 4.272940154,
				"element": "H" 
			},
			{
				"x": 1.5061130546,
				"y": 3.6543835702,
				"z": 4.6978321989,
				"element": "H" 
			},
			{
				"x": 3.1181687987,
				"y": 4.2555271964,
				"z": 2.8794951734,
				"element": "H" 
			},
			{
				"x": 3.3891967235,
				"y": 2.6554555684,
				"z": -0.4489582395,
				"element": "H" 
			},
			{
				"x": 0.717616446,
				"y": -3.7373270936,
				"z": -3.2134858073,
				"element": "H" 
			}
		],
		 "valence_orbital": [ 
			{
				"type": "occ",
				"energy": -0.30374,
				"method": "rhf"
			},
			{
				"type": "occ",
				"energy": -0.29975,
				"method": "rhf"
			},
			{
				"type": "occ",
				"energy": -0.27793,
				"method": "rhf"
			},
			{
				"type": "occ",
				"energy": -0.26739,
				"method": "rhf"
			},
			{
				"type": "occ",
				"energy": -0.25192,
				"method": "rhf"
			},
			{
				"type": "unocc",
				"energy": -0.12205,
				"method": "rhf"
			},
			{
				"type": "unocc",
				"energy": -0.10208,
				"method": "rhf"
			},
			{
				"type": "unocc",
				"energy": -0.0817,
				"method": "rhf"
			},
			{
				"type": "unocc",
				"energy": -0.05941,
				"method": "rhf"
			},
			{
				"type": "unocc",
				"energy": -0.03562,
				"method": "rhf"
			}
		],
		"cosmo_sigma_profile": { 
			"-0.025": 0.0,
			"-0.024": 0.0,
			"-0.023": 0.0,
			"-0.022": 0.0,
			"-0.021": 0.0,
			"-0.02": 0.0,
			"-0.019": 0.0,
			"-0.018": 0.0,
			"-0.017": 0.0,
			"-0.016": 0.0,
			"-0.015": 0.0,
			"-0.014": 0.0,
			"-0.013": 0.0,
			"-0.012": 0.0,
			"-0.011": 0.0,
			"-0.01": 1.65421087964,
			"-0.009": 5.28254462501,
			"-0.008": 8.52769002697,
			"-0.007": 15.4215648292,
			"-0.006": 18.1684390779,
			"-0.005": 20.8344116118,
			"-0.004": 19.7075575556,
			"-0.003": 22.5300625333,
			"-0.002": 28.0998295397,
			"-0.001": 23.7967420824,
			"0.0": 21.0056887165,
			"0.001": 19.366479057,
			"0.002": 19.885594337,
			"0.003": 16.3072715966,
			"0.004": 7.6018585055,
			"0.005": 8.67552472003,
			"0.006": 10.8585912079,
			"0.007": 18.9294789667,
			"0.008": 11.3843699893,
			"0.009": 9.04546414013,
			"0.01": 4.35143422893,
			"0.011": 4.28192097387,
			"0.012": 2.23284796657,
			"0.013": 0.448660505599,
			"0.014": 0.0,
			"0.015": 0.0,
			"0.016": 0.0,
			"0.017": 0.0,
			"0.018": 0.0,
			"0.019": 0.0,
			"0.02": 0.0,
			"0.021": 0.0,
			"0.022": 0.0,
			"0.023": 0.0,
			"0.024": 0.0,
			"0.025": 0.0
		}
	}
}
