{
	 "smiles": "CS(=O)(=O)NC1=CC(CC(O)=O)=CC=C1", 
	 "Tm": 430.15, 
	 "num_atms": 26, 
	 "gaussian": { 
		 "optdone": 1, 
		 "sigma_profile": "yes", 
		 "theory": "DFT", 
		 "functional": "B3LYP", 
		 "basiset": "6-31G**", 
		 "properties": { 
			 "R2extent": 4752.3755, 
			 "electric_dipole_moment_norm": 5.39369424143, 
			 "electric_quadrupole_moment_norm": 16.8752652951, 
			 "total_energy": -1103.37434041, 
			 "HOMO_LUMO_gap": 0.21258, 
			 "cosmo_polarized_energy": -21.34, 
			 "cosmo_cavitation_energy": 31.95, 
			 "cosmo_dispersion_energy": -23.24, 
			 "cosmo_repulsion_energy": 1.79, 
			 "cosmo_total_nonelectrostatic_energy": 10.51, 
			 "SMD_solvation_energy": 6.18 
		},
		"coords": [
			{
				"x": -0.025604141,
				"y": -1.2146643673,
				"z": -3.6844398524,
				"element": "C" 
			},
			{
				"x": 1.3184946588,
				"y": -1.8360633871,
				"z": -2.6505209271,
				"element": "S" 
			},
			{
				"x": 0.9344058564,
				"y": -3.1739879405,
				"z": -2.204231186,
				"element": "O" 
			},
			{
				"x": 2.5877759113,
				"y": -1.5818499767,
				"z": -3.3299434243,
				"element": "O" 
			},
			{
				"x": 1.3521372441,
				"y": -0.811361312,
				"z": -1.305428757,
				"element": "N" 
			},
			{
				"x": 0.2461169994,
				"y": -0.5665667004,
				"z": -0.4491601641,
				"element": "C" 
			},
			{
				"x": -0.0132375626,
				"y": 0.7501841415,
				"z": -0.0498227821,
				"element": "C" 
			},
			{
				"x": -1.0553865189,
				"y": 1.0323905944,
				"z": 0.8395179633,
				"element": "C" 
			},
			{
				"x": -1.336812765,
				"y": 2.4667343644,
				"z": 1.2649669833,
				"element": "C" 
			},
			{
				"x": -0.1077118165,
				"y": 3.1465904485,
				"z": 1.8418146877,
				"element": "C" 
			},
			{
				"x": -0.2055903226,
				"y": 3.3322902318,
				"z": 3.176391364,
				"element": "O" 
			},
			{
				"x": 0.8653289798,
				"y": 3.4838556015,
				"z": 1.2017135231,
				"element": "O" 
			},
			{
				"x": -1.8565023422,
				"y": -0.0137367496,
				"z": 1.3078855788,
				"element": "C" 
			},
			{
				"x": -1.6051391062,
				"y": -1.3234716312,
				"z": 0.8949642273,
				"element": "C" 
			},
			{
				"x": -0.5524166869,
				"y": -1.6158858296,
				"z": 0.030977428,
				"element": "C" 
			},
			{
				"x": -0.9471104218,
				"y": -1.211805604,
				"z": -3.1005062115,
				"element": "H" 
			},
			{
				"x": 0.2265908791,
				"y": -0.2111148812,
				"z": -4.0290740587,
				"element": "H" 
			},
			{
				"x": -0.1158606729,
				"y": -1.8980873929,
				"z": -4.5303759095,
				"element": "H" 
			},
			{
				"x": 1.957210714,
				"y": -0.0174473712,
				"z": -1.4861047482,
				"element": "H" 
			},
			{
				"x": 0.6111574188,
				"y": 1.5627196779,
				"z": -0.4110087701,
				"element": "H" 
			},
			{
				"x": -2.148144974,
				"y": 2.4916863515,
				"z": 1.9944042878,
				"element": "H" 
			},
			{
				"x": -1.6399731848,
				"y": 3.060362838,
				"z": 0.3947086142,
				"element": "H" 
			},
			{
				"x": 0.6266281075,
				"y": 3.7514346339,
				"z": 3.4558709309,
				"element": "H" 
			},
			{
				"x": -2.6714044551,
				"y": 0.194204893,
				"z": 1.9952710839,
				"element": "H" 
			},
			{
				"x": -2.2245108403,
				"y": -2.133659467,
				"z": 1.2685201635,
				"element": "H" 
			},
			{
				"x": -0.3354409585,
				"y": -2.6356511655,
				"z": -0.2625900449,
				"element": "H" 
			}
		],
		 "valence_orbital": [ 
			{
				"type": "occ",
				"energy": -0.30883,
				"method": "rhf"
			},
			{
				"type": "occ",
				"energy": -0.30387,
				"method": "rhf"
			},
			{
				"type": "occ",
				"energy": -0.28718,
				"method": "rhf"
			},
			{
				"type": "occ",
				"energy": -0.2588,
				"method": "rhf"
			},
			{
				"type": "occ",
				"energy": -0.23538,
				"method": "rhf"
			},
			{
				"type": "unocc",
				"energy": -0.0228,
				"method": "rhf"
			},
			{
				"type": "unocc",
				"energy": -0.01488,
				"method": "rhf"
			},
			{
				"type": "unocc",
				"energy": 0.00411,
				"method": "rhf"
			},
			{
				"type": "unocc",
				"energy": 0.06005,
				"method": "rhf"
			},
			{
				"type": "unocc",
				"energy": 0.06995,
				"method": "rhf"
			}
		],
		"cosmo_sigma_profile": { 
			"-0.025": 0.0,
			"-0.024": 0.0,
			"-0.023": 0.0,
			"-0.022": 0.0,
			"-0.021": 0.0,
			"-0.02": 0.0,
			"-0.019": 0.0,
			"-0.018": 1.02117286562,
			"-0.017": 0.808133958702,
			"-0.016": 1.08608481034,
			"-0.015": 1.86090775297,
			"-0.014": 2.03856593794,
			"-0.013": 1.65067221697,
			"-0.012": 1.9561440875,
			"-0.011": 2.13286379339,
			"-0.01": 2.63603642244,
			"-0.009": 4.82409443334,
			"-0.008": 6.62090892531,
			"-0.007": 9.04430861986,
			"-0.006": 15.4608522487,
			"-0.005": 16.4033690156,
			"-0.004": 20.4379908492,
			"-0.003": 16.0129357063,
			"-0.002": 12.292723639,
			"-0.001": 10.4563080165,
			"0.0": 10.4328935509,
			"0.001": 11.4960116055,
			"0.002": 11.3761682581,
			"0.003": 14.0759919929,
			"0.004": 14.2954038243,
			"0.005": 10.9827841063,
			"0.006": 5.89473626096,
			"0.007": 6.48997830484,
			"0.008": 7.14012418847,
			"0.009": 5.58152279012,
			"0.01": 9.26866763069,
			"0.011": 14.6572910689,
			"0.012": 5.33133304353,
			"0.013": 0.0329562479848,
			"0.014": 0.0,
			"0.015": 0.0,
			"0.016": 0.0,
			"0.017": 0.0,
			"0.018": 0.0,
			"0.019": 0.0,
			"0.02": 0.0,
			"0.021": 0.0,
			"0.022": 0.0,
			"0.023": 0.0,
			"0.024": 0.0,
			"0.025": 0.0
		}
	}
}
