{
	 "smiles": "OC1CCC(O)CC1", 
	 "Tm": 416.15, 
	 "num_atms": 20, 
	 "gaussian": { 
		 "optdone": 1, 
		 "sigma_profile": "yes", 
		 "theory": "DFT", 
		 "functional": "B3LYP", 
		 "basiset": "6-31G**", 
		 "properties": { 
			 "R2extent": 1134.159, 
			 "electric_dipole_moment_norm": 2.66583491424, 
			 "electric_quadrupole_moment_norm": 5.97463073587, 
			 "total_energy": -386.3074008, 
			 "HOMO_LUMO_gap": 0.33065, 
			 "cosmo_polarized_energy": -10.77, 
			 "cosmo_cavitation_energy": 20.9, 
			 "cosmo_dispersion_energy": -15.89, 
			 "cosmo_repulsion_energy": 1.33, 
			 "cosmo_total_nonelectrostatic_energy": 6.35, 
			 "SMD_solvation_energy": 2.91 
		},
		"coords": [
			{
				"x": 0.6291421729,
				"y": 2.7514328918,
				"z": -0.1856963467,
				"element": "O" 
			},
			{
				"x": 0.0513595448,
				"y": 1.5199756978,
				"z": -0.6246864881,
				"element": "C" 
			},
			{
				"x": -1.2064140512,
				"y": 1.3097001884,
				"z": 0.2403675678,
				"element": "C" 
			},
			{
				"x": -1.5178523457,
				"y": -0.1775163297,
				"z": 0.4398770786,
				"element": "C" 
			},
			{
				"x": -0.3939520311,
				"y": -0.8990553056,
				"z": 1.2083474819,
				"element": "C" 
			},
			{
				"x": -0.7323692222,
				"y": -0.838413892,
				"z": 2.5956759302,
				"element": "O" 
			},
			{
				"x": 0.9812846045,
				"y": -0.2479493733,
				"z": 0.9370378629,
				"element": "C" 
			},
			{
				"x": 1.0408834936,
				"y": 0.3401354006,
				"z": -0.4769103945,
				"element": "C" 
			},
			{
				"x": 1.3654465989,
				"y": 2.9603754297,
				"z": -0.7752388966,
				"element": "H" 
			},
			{
				"x": -0.2386804036,
				"y": 1.6027999655,
				"z": -1.6848442403,
				"element": "H" 
			},
			{
				"x": -1.0143512967,
				"y": 1.7725119489,
				"z": 1.2144743328,
				"element": "H" 
			},
			{
				"x": -2.0583297733,
				"y": 1.8396683123,
				"z": -0.1969096511,
				"element": "H" 
			},
			{
				"x": -1.6612657366,
				"y": -0.6631227466,
				"z": -0.5336438096,
				"element": "H" 
			},
			{
				"x": -2.4481872006,
				"y": -0.3128812764,
				"z": 0.999624647,
				"element": "H" 
			},
			{
				"x": -0.3658543505,
				"y": -1.9520505091,
				"z": 0.882067348,
				"element": "H" 
			},
			{
				"x": 0.0137320237,
				"y": -1.1914991766,
				"z": 3.0978846835,
				"element": "H" 
			},
			{
				"x": 1.7891367811,
				"y": -0.970971554,
				"z": 1.1032382859,
				"element": "H" 
			},
			{
				"x": 1.1188201565,
				"y": 0.5645281772,
				"z": 1.6604251212,
				"element": "H" 
			},
			{
				"x": 2.0532066162,
				"y": 0.6872626643,
				"z": -0.7182648434,
				"element": "H" 
			},
			{
				"x": 0.7995444194,
				"y": -0.4376305133,
				"z": -1.2137256696,
				"element": "H" 
			}
		],
		 "valence_orbital": [ 
			{
				"type": "occ",
				"energy": -0.32695,
				"method": "rhf"
			},
			{
				"type": "occ",
				"energy": -0.30741,
				"method": "rhf"
			},
			{
				"type": "occ",
				"energy": -0.29696,
				"method": "rhf"
			},
			{
				"type": "occ",
				"energy": -0.25929,
				"method": "rhf"
			},
			{
				"type": "occ",
				"energy": -0.2571,
				"method": "rhf"
			},
			{
				"type": "unocc",
				"energy": 0.07355,
				"method": "rhf"
			},
			{
				"type": "unocc",
				"energy": 0.0816,
				"method": "rhf"
			},
			{
				"type": "unocc",
				"energy": 0.10492,
				"method": "rhf"
			},
			{
				"type": "unocc",
				"energy": 0.11662,
				"method": "rhf"
			},
			{
				"type": "unocc",
				"energy": 0.14099,
				"method": "rhf"
			}
		],
		"cosmo_sigma_profile": { 
			"-0.025": 0.0,
			"-0.024": 0.0,
			"-0.023": 0.0,
			"-0.022": 0.0,
			"-0.021": 0.0,
			"-0.02": 0.0,
			"-0.019": 0.0,
			"-0.018": 0.0,
			"-0.017": 0.0,
			"-0.016": 0.00217315035172,
			"-0.015": 0.817895921426,
			"-0.014": 2.27132801847,
			"-0.013": 1.9156989153,
			"-0.012": 1.38605402357,
			"-0.011": 1.81901094576,
			"-0.01": 1.79436477538,
			"-0.009": 1.69058104606,
			"-0.008": 1.72179977499,
			"-0.007": 1.57095633769,
			"-0.006": 3.29922302844,
			"-0.005": 2.24496280085,
			"-0.004": 3.81613740326,
			"-0.003": 20.5282953537,
			"-0.002": 24.3730416384,
			"-0.001": 19.3501777706,
			"0.0": 16.8570716216,
			"0.001": 13.3163351097,
			"0.002": 4.63296322379,
			"0.003": 3.48839601923,
			"0.004": 3.21354641656,
			"0.005": 2.91222806915,
			"0.006": 3.13767670034,
			"0.007": 2.1812382105,
			"0.008": 3.06397126051,
			"0.009": 2.70466372291,
			"0.01": 2.06342716164,
			"0.011": 3.07644415796,
			"0.012": 2.1877624907,
			"0.013": 2.76773847512,
			"0.014": 3.91510730461,
			"0.015": 1.68869161146,
			"0.016": 0.0,
			"0.017": 0.0,
			"0.018": 0.0,
			"0.019": 0.0,
			"0.02": 0.0,
			"0.021": 0.0,
			"0.022": 0.0,
			"0.023": 0.0,
			"0.024": 0.0,
			"0.025": 0.0
		}
	}
}
