{
	 "smiles": "CC1=CC(OC2=CC=C(C=C2[N+]([O-])=O)C(N)=NO)=CC(C)=C1Cl", 
	 "Tm": 457.15, 
	 "num_atms": 37, 
	 "gaussian": { 
		 "optdone": 1, 
		 "sigma_profile": "yes", 
		 "theory": "DFT", 
		 "functional": "B3LYP", 
		 "basiset": "6-31G**", 
		 "properties": { 
			 "R2extent": 10286.5822, 
			 "electric_dipole_moment_norm": 5.4700259972, 
			 "electric_quadrupole_moment_norm": 13.5699965306, 
			 "total_energy": -1505.21100882, 
			 "HOMO_LUMO_gap": 0.12816, 
			 "cosmo_polarized_energy": -20.13, 
			 "cosmo_cavitation_energy": 44.06, 
			 "cosmo_dispersion_energy": -30.37, 
			 "cosmo_repulsion_energy": 2.36, 
			 "cosmo_total_nonelectrostatic_energy": 16.05, 
			 "SMD_solvation_energy": 9.43 
		},
		"coords": [
			{
				"x": 0.023444941,
				"y": 0.9935487165,
				"z": -5.3271810652,
				"element": "C" 
			},
			{
				"x": 0.0931047483,
				"y": 1.0676465098,
				"z": -3.8234000693,
				"element": "C" 
			},
			{
				"x": 0.3341116498,
				"y": -0.084989869,
				"z": -3.0720019531,
				"element": "C" 
			},
			{
				"x": 0.3916338497,
				"y": -0.0225860108,
				"z": -1.6834668481,
				"element": "C" 
			},
			{
				"x": 0.7063097118,
				"y": -1.2073946861,
				"z": -1.0311409082,
				"element": "O" 
			},
			{
				"x": 0.3495605689,
				"y": -1.4134646736,
				"z": 0.2699016374,
				"element": "C" 
			},
			{
				"x": 1.3808454125,
				"y": -1.7189071676,
				"z": 1.1620705071,
				"element": "C" 
			},
			{
				"x": 1.1147344734,
				"y": -1.9842039902,
				"z": 2.5010712771,
				"element": "C" 
			},
			{
				"x": -0.194628788,
				"y": -1.9329341713,
				"z": 3.0030089362,
				"element": "C" 
			},
			{
				"x": -1.2318435477,
				"y": -1.6327793445,
				"z": 2.1157927649,
				"element": "C" 
			},
			{
				"x": -0.9686821214,
				"y": -1.3912960997,
				"z": 0.769208882,
				"element": "C" 
			},
			{
				"x": -2.1351214036,
				"y": -1.1710736405,
				"z": -0.1000051906,
				"element": "N" 
			},
			{
				"x": -3.1438775857,
				"y": -0.6967417848,
				"z": 0.4209048969,
				"element": "O" 
			},
			{
				"x": -2.0397767669,
				"y": -1.5026319097,
				"z": -1.2791680542,
				"element": "O" 
			},
			{
				"x": -0.4642848819,
				"y": -2.1872367299,
				"z": 4.4471922921,
				"element": "C" 
			},
			{
				"x": 0.3346860987,
				"y": -1.4945611426,
				"z": 5.3525753658,
				"element": "N" 
			},
			{
				"x": -1.3886115671,
				"y": -2.9376658902,
				"z": 4.9432223432,
				"element": "N" 
			},
			{
				"x": -2.1949632852,
				"y": -3.5346731776,
				"z": 3.9446520394,
				"element": "O" 
			},
			{
				"x": 0.2171832541,
				"y": 1.1832945773,
				"z": -1.0112327254,
				"element": "C" 
			},
			{
				"x": -0.0344672765,
				"y": 2.3600623816,
				"z": -1.7289453779,
				"element": "C" 
			},
			{
				"x": -0.2288105627,
				"y": 3.6644927876,
				"z": -0.998492852,
				"element": "C" 
			},
			{
				"x": -0.0889148479,
				"y": 2.2742159541,
				"z": -3.1270579535,
				"element": "C" 
			},
			{
				"x": -0.4005205886,
				"y": 3.7459872097,
				"z": -4.0529822658,
				"element": "Cl" 
			},
			{
				"x": -0.9535775174,
				"y": 1.324300377,
				"z": -5.6947068132,
				"element": "H" 
			},
			{
				"x": 0.7727361205,
				"y": 1.6427987451,
				"z": -5.7922959694,
				"element": "H" 
			},
			{
				"x": 0.1915563798,
				"y": -0.0294377565,
				"z": -5.6713677726,
				"element": "H" 
			},
			{
				"x": 0.4663500152,
				"y": -1.0440442254,
				"z": -3.5605104921,
				"element": "H" 
			},
			{
				"x": 2.3930727732,
				"y": -1.7424583271,
				"z": 0.7735053548,
				"element": "H" 
			},
			{
				"x": 1.9410541354,
				"y": -2.2435451601,
				"z": 3.1571053966,
				"element": "H" 
			},
			{
				"x": -2.2578004896,
				"y": -1.6051010028,
				"z": 2.4543854992,
				"element": "H" 
			},
			{
				"x": 1.2626242314,
				"y": -1.2513666694,
				"z": 5.0411033328,
				"element": "H" 
			},
			{
				"x": 0.2986316838,
				"y": -1.8604332456,
				"z": 6.2952439434,
				"element": "H" 
			},
			{
				"x": -2.8099221572,
				"y": -4.0517693529,
				"z": 4.4800005721,
				"element": "H" 
			},
			{
				"x": 0.2815301159,
				"y": 1.2253071204,
				"z": 0.0709163751,
				"element": "H" 
			},
			{
				"x": 0.5109003519,
				"y": 4.4095079462,
				"z": -1.3098211034,
				"element": "H" 
			},
			{
				"x": -0.1404934943,
				"y": 3.5212112202,
				"z": 0.081061961,
				"element": "H" 
			},
			{
				"x": -1.2150736335,
				"y": 4.0916224825,
				"z": -1.2081459631,
				"element": "H" 
			}
		],
		 "valence_orbital": [ 
			{
				"type": "occ",
				"energy": -0.27558,
				"method": "rhf"
			},
			{
				"type": "occ",
				"energy": -0.26877,
				"method": "rhf"
			},
			{
				"type": "occ",
				"energy": -0.25058,
				"method": "rhf"
			},
			{
				"type": "occ",
				"energy": -0.22655,
				"method": "rhf"
			},
			{
				"type": "occ",
				"energy": -0.21597,
				"method": "rhf"
			},
			{
				"type": "unocc",
				"energy": -0.08781,
				"method": "rhf"
			},
			{
				"type": "unocc",
				"energy": -0.0426,
				"method": "rhf"
			},
			{
				"type": "unocc",
				"energy": -0.01634,
				"method": "rhf"
			},
			{
				"type": "unocc",
				"energy": -0.0082,
				"method": "rhf"
			},
			{
				"type": "unocc",
				"energy": -0.0035,
				"method": "rhf"
			}
		],
		"cosmo_sigma_profile": { 
			"-0.025": 0.0,
			"-0.024": 0.0,
			"-0.023": 0.0,
			"-0.022": 0.0,
			"-0.021": 0.0,
			"-0.02": 0.0,
			"-0.019": 0.0,
			"-0.018": 0.0,
			"-0.017": 0.386900690277,
			"-0.016": 1.03218418578,
			"-0.015": 0.869464717474,
			"-0.014": 1.37437133574,
			"-0.013": 2.56151865518,
			"-0.012": 3.39821574405,
			"-0.011": 2.60334545183,
			"-0.01": 4.45860303951,
			"-0.009": 4.68959055089,
			"-0.008": 6.31208570097,
			"-0.007": 8.81835639958,
			"-0.006": 11.4103504549,
			"-0.005": 15.4431103184,
			"-0.004": 20.3457156936,
			"-0.003": 20.816247409,
			"-0.002": 24.3410507886,
			"-0.001": 34.157385678,
			"0.0": 34.6719567665,
			"0.001": 22.8538826422,
			"0.002": 21.7208067937,
			"0.003": 23.6520729005,
			"0.004": 17.4321064132,
			"0.005": 12.2491253772,
			"0.006": 12.2810819992,
			"0.007": 14.649414318,
			"0.008": 11.6341777387,
			"0.009": 8.45953297068,
			"0.01": 3.95000333075,
			"0.011": 2.79972626457,
			"0.012": 1.53092589223,
			"0.013": 1.04756206885,
			"0.014": 0.599753820853,
			"0.015": 0.0261160290374,
			"0.016": 0.0,
			"0.017": 0.0,
			"0.018": 0.0,
			"0.019": 0.0,
			"0.02": 0.0,
			"0.021": 0.0,
			"0.022": 0.0,
			"0.023": 0.0,
			"0.024": 0.0,
			"0.025": 0.0
		}
	}
}
