{
	 "smiles": "ClC1=C(C=CC=C1)C(=O)N1CCC(=O)CC1", 
	 "Tm": 381.15, 
	 "num_atms": 28, 
	 "gaussian": { 
		 "optdone": 1, 
		 "sigma_profile": "yes", 
		 "theory": "DFT", 
		 "functional": "B3LYP", 
		 "basiset": "6-31G**", 
		 "properties": { 
			 "R2extent": 4419.591, 
			 "electric_dipole_moment_norm": 4.15402691012, 
			 "electric_quadrupole_moment_norm": 17.7147207892, 
			 "total_energy": -1129.90392889, 
			 "HOMO_LUMO_gap": 0.21367, 
			 "cosmo_polarized_energy": -16.33, 
			 "cosmo_cavitation_energy": 32.84, 
			 "cosmo_dispersion_energy": -23.13, 
			 "cosmo_repulsion_energy": 1.81, 
			 "cosmo_total_nonelectrostatic_energy": 11.51, 
			 "SMD_solvation_energy": 5.54 
		},
		"coords": [
			{
				"x": 0.9749648882,
				"y": 1.3859957001,
				"z": -2.0694725739,
				"element": "Cl" 
			},
			{
				"x": 1.6365196236,
				"y": 1.685511513,
				"z": -0.4630293338,
				"element": "C" 
			},
			{
				"x": 1.3111760625,
				"y": 0.8366586757,
				"z": 0.6016225262,
				"element": "C" 
			},
			{
				"x": 1.8855052368,
				"y": 1.1029780976,
				"z": 1.8526613527,
				"element": "C" 
			},
			{
				"x": 2.7301451227,
				"y": 2.194661246,
				"z": 2.0402498537,
				"element": "C" 
			},
			{
				"x": 3.0304185693,
				"y": 3.0333034301,
				"z": 0.9652633968,
				"element": "C" 
			},
			{
				"x": 2.4872171942,
				"y": 2.7782327666,
				"z": -0.2931194876,
				"element": "C" 
			},
			{
				"x": 0.4933851759,
				"y": -0.4285300701,
				"z": 0.4433717241,
				"element": "C" 
			},
			{
				"x": 1.0584544035,
				"y": -1.5182647899,
				"z": 0.4366001538,
				"element": "O" 
			},
			{
				"x": -0.8669135061,
				"y": -0.3219550574,
				"z": 0.3536585561,
				"element": "N" 
			},
			{
				"x": -1.6057695742,
				"y": -1.5867574031,
				"z": 0.1892038377,
				"element": "C" 
			},
			{
				"x": -3.118669664,
				"y": -1.3837204584,
				"z": 0.3355170235,
				"element": "C" 
			},
			{
				"x": -3.6546619132,
				"y": -0.2523308349,
				"z": -0.5328488046,
				"element": "C" 
			},
			{
				"x": -4.7375855802,
				"y": -0.294393102,
				"z": -1.079612162,
				"element": "O" 
			},
			{
				"x": -2.7215644236,
				"y": 0.9494350633,
				"z": -0.6507836234,
				"element": "C" 
			},
			{
				"x": -1.623542703,
				"y": 0.9300314249,
				"z": 0.417591609,
				"element": "C" 
			},
			{
				"x": 1.6665124647,
				"y": 0.4325820983,
				"z": 2.6782096828,
				"element": "H" 
			},
			{
				"x": 3.1589416423,
				"y": 2.3850227463,
				"z": 3.0191710494,
				"element": "H" 
			},
			{
				"x": 3.6923367392,
				"y": 3.8833984338,
				"z": 1.0995702332,
				"element": "H" 
			},
			{
				"x": 2.7204347936,
				"y": 3.4126386864,
				"z": -1.1410682657,
				"element": "H" 
			},
			{
				"x": -1.3724422952,
				"y": -2.010092059,
				"z": -0.7955910045,
				"element": "H" 
			},
			{
				"x": -1.2376544927,
				"y": -2.3071536099,
				"z": 0.9250243689,
				"element": "H" 
			},
			{
				"x": -3.6568623046,
				"y": -2.3035674826,
				"z": 0.0952879731,
				"element": "H" 
			},
			{
				"x": -3.3613687273,
				"y": -1.1329398887,
				"z": 1.3783823397,
				"element": "H" 
			},
			{
				"x": -3.3174893653,
				"y": 1.8660930491,
				"z": -0.5984966348,
				"element": "H" 
			},
			{
				"x": -2.2633205119,
				"y": 0.92145627,
				"z": -1.6479624431,
				"element": "H" 
			},
			{
				"x": -0.938815219,
				"y": 1.7650484033,
				"z": 0.2758839607,
				"element": "H" 
			},
			{
				"x": -2.0722516364,
				"y": 1.0527571513,
				"z": 1.4146146921,
				"element": "H" 
			}
		],
		 "valence_orbital": [ 
			{
				"type": "occ",
				"energy": -0.28016,
				"method": "rhf"
			},
			{
				"type": "occ",
				"energy": -0.25965,
				"method": "rhf"
			},
			{
				"type": "occ",
				"energy": -0.25337,
				"method": "rhf"
			},
			{
				"type": "occ",
				"energy": -0.24874,
				"method": "rhf"
			},
			{
				"type": "occ",
				"energy": -0.24202,
				"method": "rhf"
			},
			{
				"type": "unocc",
				"energy": -0.02835,
				"method": "rhf"
			},
			{
				"type": "unocc",
				"energy": -0.02413,
				"method": "rhf"
			},
			{
				"type": "unocc",
				"energy": -0.02339,
				"method": "rhf"
			},
			{
				"type": "unocc",
				"energy": 0.01592,
				"method": "rhf"
			},
			{
				"type": "unocc",
				"energy": 0.02303,
				"method": "rhf"
			}
		],
		"cosmo_sigma_profile": { 
			"-0.025": 0.0,
			"-0.024": 0.0,
			"-0.023": 0.0,
			"-0.022": 0.0,
			"-0.021": 0.0,
			"-0.02": 0.0,
			"-0.019": 0.0,
			"-0.018": 0.0,
			"-0.017": 0.0,
			"-0.016": 0.0,
			"-0.015": 0.0,
			"-0.014": 0.0,
			"-0.013": 0.0,
			"-0.012": 0.0,
			"-0.011": 0.0,
			"-0.01": 0.0,
			"-0.009": 0.237238578969,
			"-0.008": 2.37657271546,
			"-0.007": 12.1264966491,
			"-0.006": 20.7426120581,
			"-0.005": 28.3534476904,
			"-0.004": 24.6420401371,
			"-0.003": 20.3286263927,
			"-0.002": 17.7985637779,
			"-0.001": 16.4984520604,
			"0.0": 13.7122555893,
			"0.001": 14.4842202569,
			"0.002": 16.0443216954,
			"0.003": 18.8953552687,
			"0.004": 13.2401789717,
			"0.005": 4.95284357857,
			"0.006": 3.10740440157,
			"0.007": 2.3729825068,
			"0.008": 3.97363040607,
			"0.009": 2.84314393097,
			"0.01": 4.13911660886,
			"0.011": 4.88875941311,
			"0.012": 6.44950839682,
			"0.013": 6.84054733676,
			"0.014": 3.13971264958,
			"0.015": 0.382122947882,
			"0.016": 0.0,
			"0.017": 0.0,
			"0.018": 0.0,
			"0.019": 0.0,
			"0.02": 0.0,
			"0.021": 0.0,
			"0.022": 0.0,
			"0.023": 0.0,
			"0.024": 0.0,
			"0.025": 0.0
		}
	}
}
