{
	 "smiles": "NC1=C(NC2CCN(CC3=CC=CC=C3)CC2)C=CC=C1", 
	 "Tm": 385.15, 
	 "num_atms": 44, 
	 "gaussian": { 
		 "optdone": 1, 
		 "sigma_profile": "yes", 
		 "theory": "DFT", 
		 "functional": "B3LYP", 
		 "basiset": "6-31G**", 
		 "properties": { 
			 "R2extent": 8099.7198, 
			 "electric_dipole_moment_norm": 1.57017300321, 
			 "electric_quadrupole_moment_norm": 15.1634690767, 
			 "total_energy": -864.014795217, 
			 "HOMO_LUMO_gap": 0.18707, 
			 "cosmo_polarized_energy": -11.95, 
			 "cosmo_cavitation_energy": 43.17, 
			 "cosmo_dispersion_energy": -30.1, 
			 "cosmo_repulsion_energy": 2.29, 
			 "cosmo_total_nonelectrostatic_energy": 15.36, 
			 "SMD_solvation_energy": 3.49 
		},
		"coords": [
			{
				"x": 2.4189693975,
				"y": 2.1048639818,
				"z": 3.3538007322,
				"element": "N" 
			},
			{
				"x": 1.9623756164,
				"y": 0.8001925907,
				"z": 3.4708736871,
				"element": "C" 
			},
			{
				"x": 2.0635176659,
				"y": -0.0816746901,
				"z": 2.3646442694,
				"element": "C" 
			},
			{
				"x": 2.5703838587,
				"y": 0.461365813,
				"z": 1.1293246335,
				"element": "N" 
			},
			{
				"x": 1.6380645114,
				"y": 0.7377233056,
				"z": 0.009791422,
				"element": "C" 
			},
			{
				"x": 0.9467020019,
				"y": -0.4930589486,
				"z": -0.6558197377,
				"element": "C" 
			},
			{
				"x": -0.5186226813,
				"y": -0.6455403429,
				"z": -0.2198648705,
				"element": "C" 
			},
			{
				"x": -1.3356713276,
				"y": 0.5437249293,
				"z": -0.5218885665,
				"element": "N" 
			},
			{
				"x": -2.3525186058,
				"y": 0.3953719217,
				"z": -1.56516991,
				"element": "C" 
			},
			{
				"x": -1.8603336334,
				"y": 0.2274679803,
				"z": -2.9998343666,
				"element": "C" 
			},
			{
				"x": -1.6137560648,
				"y": -1.0461200331,
				"z": -3.534562749,
				"element": "C" 
			},
			{
				"x": -1.1258657906,
				"y": -1.2007710248,
				"z": -4.8330468869,
				"element": "C" 
			},
			{
				"x": -0.8803798194,
				"y": -0.0786520613,
				"z": -5.6271157844,
				"element": "C" 
			},
			{
				"x": -1.1360736201,
				"y": 1.1950500637,
				"z": -5.1165453174,
				"element": "C" 
			},
			{
				"x": -1.6247369646,
				"y": 1.3432866748,
				"z": -3.8171236987,
				"element": "C" 
			},
			{
				"x": -0.5799740154,
				"y": 1.7947393259,
				"z": -0.5849039439,
				"element": "C" 
			},
			{
				"x": 0.5719551919,
				"y": 1.7719439119,
				"z": 0.4220759646,
				"element": "C" 
			},
			{
				"x": 1.7347444084,
				"y": -1.4304835608,
				"z": 2.5403190046,
				"element": "C" 
			},
			{
				"x": 1.2559208115,
				"y": -1.9144714145,
				"z": 3.7591097084,
				"element": "C" 
			},
			{
				"x": 1.1043512225,
				"y": -1.0281027368,
				"z": 4.8275482059,
				"element": "C" 
			},
			{
				"x": 1.4588536992,
				"y": 0.310461403,
				"z": 4.6892270609,
				"element": "C" 
			},
			{
				"x": 2.6305759728,
				"y": 2.370796189,
				"z": 2.4017590849,
				"element": "H" 
			},
			{
				"x": 1.9480841257,
				"y": 2.8062401625,
				"z": 3.9052195262,
				"element": "H" 
			},
			{
				"x": 3.3362672654,
				"y": -0.1107044818,
				"z": 0.7861224673,
				"element": "H" 
			},
			{
				"x": 2.2714883994,
				"y": 1.2024075779,
				"z": -0.7567721264,
				"element": "H" 
			},
			{
				"x": 0.9746635143,
				"y": -0.3705782831,
				"z": -1.7447286514,
				"element": "H" 
			},
			{
				"x": 1.5059787835,
				"y": -1.4087142424,
				"z": -0.4337643777,
				"element": "H" 
			},
			{
				"x": -0.9631007892,
				"y": -1.5165855606,
				"z": -0.7108070683,
				"element": "H" 
			},
			{
				"x": -0.5540244143,
				"y": -0.8470214941,
				"z": 0.8592301926,
				"element": "H" 
			},
			{
				"x": -2.9977644874,
				"y": 1.2825148512,
				"z": -1.5139859503,
				"element": "H" 
			},
			{
				"x": -2.9793284736,
				"y": -0.4634205023,
				"z": -1.2976683224,
				"element": "H" 
			},
			{
				"x": -1.8210695886,
				"y": -1.9278844237,
				"z": -2.9328089754,
				"element": "H" 
			},
			{
				"x": -0.9470667399,
				"y": -2.1970456035,
				"z": -5.2283408623,
				"element": "H" 
			},
			{
				"x": -0.5044147597,
				"y": -0.1968491142,
				"z": -6.6394047388,
				"element": "H" 
			},
			{
				"x": -0.963171435,
				"y": 2.0733931973,
				"z": -5.732507046,
				"element": "H" 
			},
			{
				"x": -1.8422235769,
				"y": 2.3380993912,
				"z": -3.4358196475,
				"element": "H" 
			},
			{
				"x": -0.1632018307,
				"y": 1.9946204899,
				"z": -1.5903596802,
				"element": "H" 
			},
			{
				"x": -1.2633015607,
				"y": 2.6263935089,
				"z": -0.3626527546,
				"element": "H" 
			},
			{
				"x": 1.0230344474,
				"y": 2.7669808584,
				"z": 0.4981108138,
				"element": "H" 
			},
			{
				"x": 0.1699090091,
				"y": 1.5193761689,
				"z": 1.4093365032,
				"element": "H" 
			},
			{
				"x": 1.856251848,
				"y": -2.1117605023,
				"z": 1.7026378504,
				"element": "H" 
			},
			{
				"x": 1.0047480501,
				"y": -2.9646755193,
				"z": 3.8705586476,
				"element": "H" 
			},
			{
				"x": 0.7241215313,
				"y": -1.3832911183,
				"z": 5.781531147,
				"element": "H" 
			},
			{
				"x": 1.3773388466,
				"y": 0.9876913617,
				"z": 5.5359751112,
				"element": "H" 
			}
		],
		 "valence_orbital": [ 
			{
				"type": "occ",
				"energy": -0.24381,
				"method": "rhf"
			},
			{
				"type": "occ",
				"energy": -0.24064,
				"method": "rhf"
			},
			{
				"type": "occ",
				"energy": -0.22284,
				"method": "rhf"
			},
			{
				"type": "occ",
				"energy": -0.19155,
				"method": "rhf"
			},
			{
				"type": "occ",
				"energy": -0.18851,
				"method": "rhf"
			},
			{
				"type": "unocc",
				"energy": -0.00144,
				"method": "rhf"
			},
			{
				"type": "unocc",
				"energy": -0.001,
				"method": "rhf"
			},
			{
				"type": "unocc",
				"energy": 0.00739,
				"method": "rhf"
			},
			{
				"type": "unocc",
				"energy": 0.02572,
				"method": "rhf"
			},
			{
				"type": "unocc",
				"energy": 0.07871,
				"method": "rhf"
			}
		],
		"cosmo_sigma_profile": { 
			"-0.025": 0.0,
			"-0.024": 0.0,
			"-0.023": 0.0,
			"-0.022": 0.0,
			"-0.021": 0.0,
			"-0.02": 0.0,
			"-0.019": 0.0,
			"-0.018": 0.0,
			"-0.017": 0.0,
			"-0.016": 0.0,
			"-0.015": 0.0,
			"-0.014": 0.0,
			"-0.013": 0.0,
			"-0.012": 0.778493374324,
			"-0.011": 1.51792496458,
			"-0.01": 2.18173069706,
			"-0.009": 2.62499907377,
			"-0.008": 2.91156570592,
			"-0.007": 3.86058890759,
			"-0.006": 6.55831783117,
			"-0.005": 23.2247185369,
			"-0.004": 25.8940720724,
			"-0.003": 35.40413778,
			"-0.002": 34.1768127619,
			"-0.001": 33.162042837,
			"0.0": 29.9887092374,
			"0.001": 26.0268263101,
			"0.002": 19.1375771958,
			"0.003": 16.9267784746,
			"0.004": 14.9620302128,
			"0.005": 16.2903042714,
			"0.006": 16.9956184682,
			"0.007": 11.2014640464,
			"0.008": 4.58392233889,
			"0.009": 2.33139585561,
			"0.01": 2.1267045719,
			"0.011": 1.3447893218,
			"0.012": 0.999190360054,
			"0.013": 1.34935301008,
			"0.014": 0.925476503462,
			"0.015": 0.643633605969,
			"0.016": 0.24438561489,
			"0.017": 0.0,
			"0.018": 0.0,
			"0.019": 0.0,
			"0.02": 0.0,
			"0.021": 0.0,
			"0.022": 0.0,
			"0.023": 0.0,
			"0.024": 0.0,
			"0.025": 0.0
		}
	}
}
