{
	 "smiles": "CC(CN1C2=CC=CC=C2SC2=CC=CC=C12)N(C)C", 
	 "Tm": 333.15, 
	 "num_atms": 40, 
	 "gaussian": { 
		 "optdone": 1, 
		 "sigma_profile": "yes", 
		 "theory": "DFT", 
		 "functional": "B3LYP", 
		 "basiset": "6-31G**", 
		 "properties": { 
			 "R2extent": 7126.5516, 
			 "electric_dipole_moment_norm": 3.54853666037, 
			 "electric_quadrupole_moment_norm": 8.42584761315, 
			 "total_energy": -1167.53848188, 
			 "HOMO_LUMO_gap": 0.16701, 
			 "cosmo_polarized_energy": -8.25, 
			 "cosmo_cavitation_energy": 40.91, 
			 "cosmo_dispersion_energy": -29.03, 
			 "cosmo_repulsion_energy": 2.12, 
			 "cosmo_total_nonelectrostatic_energy": 14.0, 
			 "SMD_solvation_energy": 6.54 
		},
		"coords": [
			{
				"x": 2.3280087021,
				"y": -1.0588866437,
				"z": -1.4508560722,
				"element": "C" 
			},
			{
				"x": 0.9416430215,
				"y": -0.7567214587,
				"z": -0.8432338586,
				"element": "C" 
			},
			{
				"x": 0.4828771648,
				"y": 0.6896025235,
				"z": -1.2260662788,
				"element": "C" 
			},
			{
				"x": -0.1351604431,
				"y": 1.5290036075,
				"z": -0.193987221,
				"element": "N" 
			},
			{
				"x": 0.6995001899,
				"y": 2.2687107992,
				"z": 0.672886124,
				"element": "C" 
			},
			{
				"x": 1.9997631533,
				"y": 1.8398443393,
				"z": 0.9902495754,
				"element": "C" 
			},
			{
				"x": 2.8258854931,
				"y": 2.5882926084,
				"z": 1.8307984272,
				"element": "C" 
			},
			{
				"x": 2.3642140395,
				"y": 3.7680939111,
				"z": 2.4078063295,
				"element": "C" 
			},
			{
				"x": 1.0699226478,
				"y": 4.2022263835,
				"z": 2.1173745834,
				"element": "C" 
			},
			{
				"x": 0.2561286777,
				"y": 3.4821846373,
				"z": 1.2422351841,
				"element": "C" 
			},
			{
				"x": -1.3001760985,
				"y": 4.1815037136,
				"z": 0.7378051026,
				"element": "S" 
			},
			{
				"x": -2.2070592393,
				"y": 2.6743840645,
				"z": 0.4646407904,
				"element": "C" 
			},
			{
				"x": -3.5898641103,
				"y": 2.6707738328,
				"z": 0.6544571477,
				"element": "C" 
			},
			{
				"x": -4.347434994,
				"y": 1.5472612949,
				"z": 0.3222674264,
				"element": "C" 
			},
			{
				"x": -3.7004670535,
				"y": 0.4154560999,
				"z": -0.1692462226,
				"element": "C" 
			},
			{
				"x": -2.31254244,
				"y": 0.3950101243,
				"z": -0.3179667892,
				"element": "C" 
			},
			{
				"x": -1.5423080915,
				"y": 1.5292364734,
				"z": -0.0180722945,
				"element": "C" 
			},
			{
				"x": -0.0849419649,
				"y": -1.7668562472,
				"z": -1.1750214997,
				"element": "N" 
			},
			{
				"x": 0.0033483891,
				"y": -2.969920173,
				"z": -0.3563767728,
				"element": "C" 
			},
			{
				"x": -0.1996031424,
				"y": -2.0974340032,
				"z": -2.5917972155,
				"element": "C" 
			},
			{
				"x": 2.328255376,
				"y": -0.9254683419,
				"z": -2.5378905081,
				"element": "H" 
			},
			{
				"x": 3.090978046,
				"y": -0.3882354277,
				"z": -1.0432884689,
				"element": "H" 
			},
			{
				"x": 2.6422301957,
				"y": -2.0852062087,
				"z": -1.2379481989,
				"element": "H" 
			},
			{
				"x": 1.0314988634,
				"y": -0.7879872527,
				"z": 0.2473630971,
				"element": "H" 
			},
			{
				"x": -0.2246428159,
				"y": 0.6341939497,
				"z": -2.0580751987,
				"element": "H" 
			},
			{
				"x": 1.3540339974,
				"y": 1.2447697077,
				"z": -1.58958834,
				"element": "H" 
			},
			{
				"x": 2.3774815536,
				"y": 0.911571011,
				"z": 0.5831887167,
				"element": "H" 
			},
			{
				"x": 3.8288630279,
				"y": 2.2294395278,
				"z": 2.0428117995,
				"element": "H" 
			},
			{
				"x": 2.9967057921,
				"y": 4.3461978508,
				"z": 3.0740333508,
				"element": "H" 
			},
			{
				"x": 0.6887759903,
				"y": 5.1225676378,
				"z": 2.5502876714,
				"element": "H" 
			},
			{
				"x": -4.0697066426,
				"y": 3.5634209005,
				"z": 1.0452194241,
				"element": "H" 
			},
			{
				"x": -5.4250133466,
				"y": 1.5594302968,
				"z": 0.4541825914,
				"element": "H" 
			},
			{
				"x": -4.2716204623,
				"y": -0.4733836806,
				"z": -0.4226245428,
				"element": "H" 
			},
			{
				"x": -1.8091307621,
				"y": -0.5067687562,
				"z": -0.6555990926,
				"element": "H" 
			},
			{
				"x": -0.8638221572,
				"y": -3.6082660877,
				"z": -0.5560425178,
				"element": "H" 
			},
			{
				"x": -0.0151237878,
				"y": -2.7005382816,
				"z": 0.7040569254,
				"element": "H" 
			},
			{
				"x": 0.9095505179,
				"y": -3.5757096858,
				"z": -0.5424266761,
				"element": "H" 
			},
			{
				"x": 0.6475898136,
				"y": -2.6873285272,
				"z": -2.9835703166,
				"element": "H" 
			},
			{
				"x": -1.1117494629,
				"y": -2.682237864,
				"z": -2.7499568667,
				"element": "H" 
			},
			{
				"x": -0.284587638,
				"y": -1.1891266553,
				"z": -3.1951293149,
				"element": "H" 
			}
		],
		 "valence_orbital": [ 
			{
				"type": "occ",
				"energy": -0.24786,
				"method": "rhf"
			},
			{
				"type": "occ",
				"energy": -0.24584,
				"method": "rhf"
			},
			{
				"type": "occ",
				"energy": -0.22084,
				"method": "rhf"
			},
			{
				"type": "occ",
				"energy": -0.2137,
				"method": "rhf"
			},
			{
				"type": "occ",
				"energy": -0.17596,
				"method": "rhf"
			},
			{
				"type": "unocc",
				"energy": -0.00895,
				"method": "rhf"
			},
			{
				"type": "unocc",
				"energy": -0.00207,
				"method": "rhf"
			},
			{
				"type": "unocc",
				"energy": 0.00624,
				"method": "rhf"
			},
			{
				"type": "unocc",
				"energy": 0.02185,
				"method": "rhf"
			},
			{
				"type": "unocc",
				"energy": 0.04586,
				"method": "rhf"
			}
		],
		"cosmo_sigma_profile": { 
			"-0.025": 0.0,
			"-0.024": 0.0,
			"-0.023": 0.0,
			"-0.022": 0.0,
			"-0.021": 0.0,
			"-0.02": 0.0,
			"-0.019": 0.0,
			"-0.018": 0.0,
			"-0.017": 0.0,
			"-0.016": 0.0,
			"-0.015": 0.0,
			"-0.014": 0.0,
			"-0.013": 0.0,
			"-0.012": 0.0,
			"-0.011": 0.0,
			"-0.01": 0.0,
			"-0.009": 0.0,
			"-0.008": 0.0,
			"-0.007": 0.228858257782,
			"-0.006": 8.71411323423,
			"-0.005": 19.3473617282,
			"-0.004": 29.3280387202,
			"-0.003": 35.0694369012,
			"-0.002": 33.6374741684,
			"-0.001": 35.7022924513,
			"0.0": 31.6895781022,
			"0.001": 22.7837495972,
			"0.002": 19.5278297117,
			"0.003": 20.9595082672,
			"0.004": 25.7970918743,
			"0.005": 22.3719831739,
			"0.006": 15.311622055,
			"0.007": 3.26313021202,
			"0.008": 1.85465831284,
			"0.009": 0.374994321498,
			"0.01": 0.0,
			"0.011": 0.0,
			"0.012": 0.0,
			"0.013": 0.0,
			"0.014": 0.0,
			"0.015": 0.0,
			"0.016": 0.0,
			"0.017": 0.0,
			"0.018": 0.0,
			"0.019": 0.0,
			"0.02": 0.0,
			"0.021": 0.0,
			"0.022": 0.0,
			"0.023": 0.0,
			"0.024": 0.0,
			"0.025": 0.0
		}
	}
}
