{
	 "smiles": "NC1=CC=C(CN2CCCCC2)C=C1", 
	 "Tm": 360.65, 
	 "num_atms": 32, 
	 "gaussian": { 
		 "optdone": 1, 
		 "sigma_profile": "yes", 
		 "theory": "DFT", 
		 "functional": "B3LYP", 
		 "basiset": "6-31G**", 
		 "properties": { 
			 "R2extent": 4580.7982, 
			 "electric_dipole_moment_norm": 1.34193288208, 
			 "electric_quadrupole_moment_norm": 14.5122178136, 
			 "total_energy": -577.633448906, 
			 "HOMO_LUMO_gap": 0.20067, 
			 "cosmo_polarized_energy": -8.89, 
			 "cosmo_cavitation_energy": 32.38, 
			 "cosmo_dispersion_energy": -23.53, 
			 "cosmo_repulsion_energy": 1.87, 
			 "cosmo_total_nonelectrostatic_energy": 10.71, 
			 "SMD_solvation_energy": 3.16 
		},
		"coords": [
			{
				"x": 2.616027184,
				"y": 5.058612784,
				"z": -1.1979463451,
				"element": "N" 
			},
			{
				"x": 2.0027783499,
				"y": 3.8292195318,
				"z": -0.9331985836,
				"element": "C" 
			},
			{
				"x": 2.6573905268,
				"y": 2.6201945578,
				"z": -1.230844671,
				"element": "C" 
			},
			{
				"x": 2.0246280651,
				"y": 1.4000316334,
				"z": -1.0199401421,
				"element": "C" 
			},
			{
				"x": 0.7205759151,
				"y": 1.3333984061,
				"z": -0.5094805169,
				"element": "C" 
			},
			{
				"x": 0.0586048633,
				"y": -0.0035631375,
				"z": -0.2318362674,
				"element": "C" 
			},
			{
				"x": 0.2418568013,
				"y": -0.9637094046,
				"z": -1.3241896091,
				"element": "N" 
			},
			{
				"x": -0.0047389528,
				"y": -2.3589741062,
				"z": -0.948236856,
				"element": "C" 
			},
			{
				"x": -1.4952761301,
				"y": -2.7298358857,
				"z": -0.8229111101,
				"element": "C" 
			},
			{
				"x": -2.2433377917,
				"y": -2.3763150788,
				"z": -2.1184592549,
				"element": "C" 
			},
			{
				"x": -1.9873111965,
				"y": -0.9120482342,
				"z": -2.5107211563,
				"element": "C" 
			},
			{
				"x": -0.4752974378,
				"y": -0.6179223702,
				"z": -2.5589723655,
				"element": "C" 
			},
			{
				"x": 0.0718621883,
				"y": 2.5388366617,
				"z": -0.2236251098,
				"element": "C" 
			},
			{
				"x": 0.6959434038,
				"y": 3.7691397428,
				"z": -0.4247909979,
				"element": "C" 
			},
			{
				"x": 3.6267523329,
				"y": 5.0342570007,
				"z": -1.2063953102,
				"element": "H" 
			},
			{
				"x": 2.2689353768,
				"y": 5.8327445763,
				"z": -0.6479998083,
				"element": "H" 
			},
			{
				"x": 3.6675203269,
				"y": 2.6454651013,
				"z": -1.6339298722,
				"element": "H" 
			},
			{
				"x": 2.5365074672,
				"y": 0.4738739376,
				"z": -1.2644473687,
				"element": "H" 
			},
			{
				"x": -0.9991753294,
				"y": 0.1772843957,
				"z": 0.033389195,
				"element": "H" 
			},
			{
				"x": 0.5151717348,
				"y": -0.4561811498,
				"z": 0.6594716196,
				"element": "H" 
			},
			{
				"x": 0.4508173915,
				"y": -2.99444522,
				"z": -1.7221891611,
				"element": "H" 
			},
			{
				"x": 0.5273749298,
				"y": -2.5671705289,
				"z": -0.0127282373,
				"element": "H" 
			},
			{
				"x": -1.593552322,
				"y": -3.799213208,
				"z": -0.5973032005,
				"element": "H" 
			},
			{
				"x": -1.9421755063,
				"y": -2.1886282514,
				"z": 0.0219417787,
				"element": "H" 
			},
			{
				"x": -3.3176304825,
				"y": -2.5684616658,
				"z": -2.0118435358,
				"element": "H" 
			},
			{
				"x": -1.8872551841,
				"y": -3.0318410251,
				"z": -2.9268831802,
				"element": "H" 
			},
			{
				"x": -2.436550331,
				"y": -0.6874797393,
				"z": -3.4861327926,
				"element": "H" 
			},
			{
				"x": -2.4728808926,
				"y": -0.246455604,
				"z": -1.7846321601,
				"element": "H" 
			},
			{
				"x": -0.2898889757,
				"y": 0.4370239293,
				"z": -2.7819293666,
				"element": "H" 
			},
			{
				"x": -0.0265252779,
				"y": -1.2015059916,
				"z": -3.3759066772,
				"element": "H" 
			},
			{
				"x": -0.9427621087,
				"y": 2.5198150092,
				"z": 0.1688491233,
				"element": "H" 
			},
			{
				"x": 0.1650110616,
				"y": 4.6911533332,
				"z": -0.1990780599,
				"element": "H" 
			}
		],
		 "valence_orbital": [ 
			{
				"type": "occ",
				"energy": -0.306,
				"method": "rhf"
			},
			{
				"type": "occ",
				"energy": -0.29237,
				"method": "rhf"
			},
			{
				"type": "occ",
				"energy": -0.23814,
				"method": "rhf"
			},
			{
				"type": "occ",
				"energy": -0.19675,
				"method": "rhf"
			},
			{
				"type": "occ",
				"energy": -0.19068,
				"method": "rhf"
			},
			{
				"type": "unocc",
				"energy": 0.00999,
				"method": "rhf"
			},
			{
				"type": "unocc",
				"energy": 0.02262,
				"method": "rhf"
			},
			{
				"type": "unocc",
				"energy": 0.0837,
				"method": "rhf"
			},
			{
				"type": "unocc",
				"energy": 0.08787,
				"method": "rhf"
			},
			{
				"type": "unocc",
				"energy": 0.10955,
				"method": "rhf"
			}
		],
		"cosmo_sigma_profile": { 
			"-0.025": 0.0,
			"-0.024": 0.0,
			"-0.023": 0.0,
			"-0.022": 0.0,
			"-0.021": 0.0,
			"-0.02": 0.0,
			"-0.019": 0.0,
			"-0.018": 0.0,
			"-0.017": 0.0,
			"-0.016": 0.0,
			"-0.015": 0.0,
			"-0.014": 0.0,
			"-0.013": 0.0287172582937,
			"-0.012": 1.68177593283,
			"-0.011": 2.75107184851,
			"-0.01": 2.54416116465,
			"-0.009": 3.16778138507,
			"-0.008": 3.37533364601,
			"-0.007": 2.67949204251,
			"-0.006": 3.29637094257,
			"-0.005": 5.33251341258,
			"-0.004": 9.29313657168,
			"-0.003": 16.9283831877,
			"-0.002": 36.8077239302,
			"-0.001": 35.6703896653,
			"0.0": 35.4739953515,
			"0.001": 25.1622986783,
			"0.002": 11.59989902,
			"0.003": 7.95703533631,
			"0.004": 8.89117340889,
			"0.005": 8.23824463726,
			"0.006": 9.27232196473,
			"0.007": 10.2562090312,
			"0.008": 3.17024596556,
			"0.009": 1.63348534486,
			"0.01": 1.94401124889,
			"0.011": 1.07265274751,
			"0.012": 1.14910704732,
			"0.013": 1.20960767691,
			"0.014": 0.583707445252,
			"0.015": 0.461226174876,
			"0.016": 0.0633706516322,
			"0.017": 0.0,
			"0.018": 0.0,
			"0.019": 0.0,
			"0.02": 0.0,
			"0.021": 0.0,
			"0.022": 0.0,
			"0.023": 0.0,
			"0.024": 0.0,
			"0.025": 0.0
		}
	}
}
