{
	 "smiles": "NC1=C(C=CC2=C(C=C(C(C=CC3=CC=CC(=C3)[N+]([O-])=O)=C2)[N+]([O-])=O)[N+]([O-])=O)C=CC=C1", 
	 "Tm": 523.15, 
	 "num_atms": 48, 
	 "gaussian": { 
		 "optdone": 1, 
		 "sigma_profile": "yes", 
		 "theory": "DFT", 
		 "functional": "B3LYP", 
		 "basiset": "6-31G**", 
		 "properties": { 
			 "R2extent": 22411.7123, 
			 "electric_dipole_moment_norm": 9.70959663065, 
			 "electric_quadrupole_moment_norm": 36.8824250961, 
			 "total_energy": -1518.00423633, 
			 "HOMO_LUMO_gap": 0.10304, 
			 "cosmo_polarized_energy": -25.55, 
			 "cosmo_cavitation_energy": 56.24, 
			 "cosmo_dispersion_energy": -38.85, 
			 "cosmo_repulsion_energy": 2.88, 
			 "cosmo_total_nonelectrostatic_energy": 20.27, 
			 "SMD_solvation_energy": 15.72 
		},
		"coords": [
			{
				"x": 3.4281443454,
				"y": 3.1055672921,
				"z": -1.1931129113,
				"element": "N" 
			},
			{
				"x": 3.6489527501,
				"y": 3.8056505322,
				"z": -0.0080726874,
				"element": "C" 
			},
			{
				"x": 3.4573556614,
				"y": 3.1964701331,
				"z": 1.2652468031,
				"element": "C" 
			},
			{
				"x": 2.9859894551,
				"y": 1.8314645603,
				"z": 1.466842358,
				"element": "C" 
			},
			{
				"x": 2.2307073226,
				"y": 1.0685467564,
				"z": 0.640014447,
				"element": "C" 
			},
			{
				"x": 1.7193788492,
				"y": -0.2646439617,
				"z": 0.9568063712,
				"element": "C" 
			},
			{
				"x": 2.3593519613,
				"y": -1.2423070253,
				"z": 1.7541358052,
				"element": "C" 
			},
			{
				"x": 1.7236666332,
				"y": -2.416832352,
				"z": 2.1215342864,
				"element": "C" 
			},
			{
				"x": 0.4509767001,
				"y": -2.7028628944,
				"z": 1.636028449,
				"element": "C" 
			},
			{
				"x": -0.2311563649,
				"y": -1.802885271,
				"z": 0.7800781457,
				"element": "C" 
			},
			{
				"x": -1.5864879071,
				"y": -2.0159993778,
				"z": 0.2529784353,
				"element": "C" 
			},
			{
				"x": -1.9929805503,
				"y": -1.558231519,
				"z": -0.9481304482,
				"element": "C" 
			},
			{
				"x": -3.3350705126,
				"y": -1.6917078208,
				"z": -1.5236496367,
				"element": "C" 
			},
			{
				"x": -3.5455619363,
				"y": -1.3035515239,
				"z": -2.8609012509,
				"element": "C" 
			},
			{
				"x": -4.7990607377,
				"y": -1.4089354209,
				"z": -3.4628154259,
				"element": "C" 
			},
			{
				"x": -5.884022248,
				"y": -1.9022768136,
				"z": -2.7427935388,
				"element": "C" 
			},
			{
				"x": -5.6716895523,
				"y": -2.2789975843,
				"z": -1.4163982571,
				"element": "C" 
			},
			{
				"x": -4.4330478248,
				"y": -2.1844170315,
				"z": -0.7971529647,
				"element": "C" 
			},
			{
				"x": -6.8139822653,
				"y": -2.7917839371,
				"z": -0.6345946689,
				"element": "N" 
			},
			{
				"x": -6.6121388916,
				"y": -3.0952831457,
				"z": 0.5396674706,
				"element": "O" 
			},
			{
				"x": -7.8985144735,
				"y": -2.881763977,
				"z": -1.2076522842,
				"element": "O" 
			},
			{
				"x": 0.4364152277,
				"y": -0.6014008566,
				"z": 0.4922782626,
				"element": "C" 
			},
			{
				"x": -0.1018804993,
				"y": -4.0092003898,
				"z": 2.0202219519,
				"element": "N" 
			},
			{
				"x": -1.0875380317,
				"y": -4.4302366754,
				"z": 1.4110605469,
				"element": "O" 
			},
			{
				"x": 0.4638330204,
				"y": -4.6203226822,
				"z": 2.9262836044,
				"element": "O" 
			},
			{
				"x": 3.7675169885,
				"y": -1.1252176358,
				"z": 2.1778806815,
				"element": "N" 
			},
			{
				"x": 4.5778984084,
				"y": -0.7116465981,
				"z": 1.3529325113,
				"element": "O" 
			},
			{
				"x": 4.0410176418,
				"y": -1.4983174281,
				"z": 3.3179521528,
				"element": "O" 
			},
			{
				"x": 3.7497985494,
				"y": 3.9573077933,
				"z": 2.4172668889,
				"element": "C" 
			},
			{
				"x": 4.1495321064,
				"y": 5.2839379079,
				"z": 2.3487714661,
				"element": "C" 
			},
			{
				"x": 4.2901531086,
				"y": 5.8829262233,
				"z": 1.092062026,
				"element": "C" 
			},
			{
				"x": 4.0545011979,
				"y": 5.1503257137,
				"z": -0.0647384255,
				"element": "C" 
			},
			{
				"x": 3.631330578,
				"y": 2.114274763,
				"z": -1.1428438249,
				"element": "H" 
			},
			{
				"x": 3.8546043224,
				"y": 3.5322374748,
				"z": -2.0056500467,
				"element": "H" 
			},
			{
				"x": 3.2331084769,
				"y": 1.4249726843,
				"z": 2.4464933496,
				"element": "H" 
			},
			{
				"x": 1.8455668871,
				"y": 1.4982191806,
				"z": -0.280161836,
				"element": "H" 
			},
			{
				"x": 2.2260352131,
				"y": -3.1338215047,
				"z": 2.7567967457,
				"element": "H" 
			},
			{
				"x": -2.2618492331,
				"y": -2.5945170722,
				"z": 0.8695644881,
				"element": "H" 
			},
			{
				"x": -1.2678032189,
				"y": -1.0667958967,
				"z": -1.5945205504,
				"element": "H" 
			},
			{
				"x": -2.7075314796,
				"y": -0.9171565466,
				"z": -3.4347540153,
				"element": "H" 
			},
			{
				"x": -4.9311142327,
				"y": -1.1048773733,
				"z": -4.4962227912,
				"element": "H" 
			},
			{
				"x": -6.8718754815,
				"y": -1.9967094973,
				"z": -3.1749057129,
				"element": "H" 
			},
			{
				"x": -4.3474118101,
				"y": -2.4892343606,
				"z": 0.2378757719,
				"element": "H" 
			},
			{
				"x": -0.0989181745,
				"y": 0.1491800316,
				"z": -0.0788683163,
				"element": "H" 
			},
			{
				"x": 3.6353749404,
				"y": 3.4796826445,
				"z": 3.386974046,
				"element": "H" 
			},
			{
				"x": 4.3526223587,
				"y": 5.8443334779,
				"z": 3.255275507,
				"element": "H" 
			},
			{
				"x": 4.6036431024,
				"y": 6.9198250182,
				"z": 1.0122367005,
				"element": "H" 
			},
			{
				"x": 4.1931596193,
				"y": 5.6138119862,
				"z": -1.0386196793,
				"element": "H" 
			}
		],
		 "valence_orbital": [ 
			{
				"type": "occ",
				"energy": -0.29005,
				"method": "rhf"
			},
			{
				"type": "occ",
				"energy": -0.28839,
				"method": "rhf"
			},
			{
				"type": "occ",
				"energy": -0.24651,
				"method": "rhf"
			},
			{
				"type": "occ",
				"energy": -0.24512,
				"method": "rhf"
			},
			{
				"type": "occ",
				"energy": -0.21717,
				"method": "rhf"
			},
			{
				"type": "unocc",
				"energy": -0.11413,
				"method": "rhf"
			},
			{
				"type": "unocc",
				"energy": -0.09391,
				"method": "rhf"
			},
			{
				"type": "unocc",
				"energy": -0.09224,
				"method": "rhf"
			},
			{
				"type": "unocc",
				"energy": -0.06998,
				"method": "rhf"
			},
			{
				"type": "unocc",
				"energy": -0.05086,
				"method": "rhf"
			}
		],
		"cosmo_sigma_profile": { 
			"-0.025": 0.0,
			"-0.024": 0.0,
			"-0.023": 0.0,
			"-0.022": 0.0,
			"-0.021": 0.0,
			"-0.02": 0.0,
			"-0.019": 0.0,
			"-0.018": 0.0,
			"-0.017": 0.0,
			"-0.016": 0.0,
			"-0.015": 0.0,
			"-0.014": 0.0,
			"-0.013": 0.763180986122,
			"-0.012": 1.52233769149,
			"-0.011": 3.0186056615,
			"-0.01": 2.89067957935,
			"-0.009": 4.20713383001,
			"-0.008": 16.182938351,
			"-0.007": 22.6544066419,
			"-0.006": 25.2879003275,
			"-0.005": 26.199304048,
			"-0.004": 25.8810119622,
			"-0.003": 25.9623175906,
			"-0.002": 30.4767983234,
			"-0.001": 32.9647773711,
			"0.0": 33.7541807271,
			"0.001": 31.0821930359,
			"0.002": 26.1161621076,
			"0.003": 18.6605261131,
			"0.004": 18.7844956428,
			"0.005": 19.6604356365,
			"0.006": 19.2349468234,
			"0.007": 26.211316925,
			"0.008": 21.0941046518,
			"0.009": 13.1902417189,
			"0.01": 5.62101521605,
			"0.011": 0.495009158209,
			"0.012": 0.394716619017,
			"0.013": 0.0640612824413,
			"0.014": 0.0,
			"0.015": 0.0,
			"0.016": 0.0,
			"0.017": 0.0,
			"0.018": 0.0,
			"0.019": 0.0,
			"0.02": 0.0,
			"0.021": 0.0,
			"0.022": 0.0,
			"0.023": 0.0,
			"0.024": 0.0,
			"0.025": 0.0
		}
	}
}
