{
	 "smiles": "CN1C=C(NC2=CC(=CC=C2)C(O)=O)C=N1", 
	 "Tm": 492.15, 
	 "num_atms": 27, 
	 "gaussian": { 
		 "optdone": 1, 
		 "sigma_profile": "yes", 
		 "theory": "DFT", 
		 "functional": "B3LYP", 
		 "basiset": "6-31G**", 
		 "properties": { 
			 "R2extent": 4607.3557, 
			 "electric_dipole_moment_norm": 4.30065238539, 
			 "electric_quadrupole_moment_norm": 19.0394724257, 
			 "total_energy": -740.483282967, 
			 "HOMO_LUMO_gap": 0.15165, 
			 "cosmo_polarized_energy": -20.98, 
			 "cosmo_cavitation_energy": 31.94, 
			 "cosmo_dispersion_energy": -23.09, 
			 "cosmo_repulsion_energy": 1.79, 
			 "cosmo_total_nonelectrostatic_energy": 10.64, 
			 "SMD_solvation_energy": 6.0 
		},
		"coords": [
			{
				"x": -3.2177698124,
				"y": -2.3979153765,
				"z": -2.271609446,
				"element": "C" 
			},
			{
				"x": -2.1123191292,
				"y": -1.4833486912,
				"z": -2.488911062,
				"element": "N" 
			},
			{
				"x": -1.1420134172,
				"y": -1.1334398574,
				"z": -1.5981033431,
				"element": "C" 
			},
			{
				"x": -0.3966674272,
				"y": -0.1300021662,
				"z": -2.2052647001,
				"element": "C" 
			},
			{
				"x": 0.7481831844,
				"y": 0.5373217635,
				"z": -1.7532266158,
				"element": "N" 
			},
			{
				"x": 1.0450093981,
				"y": 0.9618449881,
				"z": -0.4677124874,
				"element": "C" 
			},
			{
				"x": 0.160728371,
				"y": 0.8100293109,
				"z": 0.611862571,
				"element": "C" 
			},
			{
				"x": 0.5203134561,
				"y": 1.2405450716,
				"z": 1.8922766882,
				"element": "C" 
			},
			{
				"x": 1.7563792907,
				"y": 1.862054778,
				"z": 2.1160026081,
				"element": "C" 
			},
			{
				"x": 2.6312593019,
				"y": 2.0305724262,
				"z": 1.0404505393,
				"element": "C" 
			},
			{
				"x": 2.2915967445,
				"y": 1.5806827184,
				"z": -0.2287473096,
				"element": "C" 
			},
			{
				"x": -0.4870454398,
				"y": 1.0206960469,
				"z": 2.9833611128,
				"element": "C" 
			},
			{
				"x": -0.0184822516,
				"y": 1.0576396556,
				"z": 4.2599625137,
				"element": "O" 
			},
			{
				"x": -1.6601552576,
				"y": 0.8090164225,
				"z": 2.7799068531,
				"element": "O" 
			},
			{
				"x": -1.0103447975,
				"y": 0.0444164118,
				"z": -3.4699818856,
				"element": "C" 
			},
			{
				"x": -2.0439011424,
				"y": -0.7804145387,
				"z": -3.6340485274,
				"element": "N" 
			},
			{
				"x": -2.8869764921,
				"y": -3.2344100163,
				"z": -1.6516562941,
				"element": "H" 
			},
			{
				"x": -4.0580798579,
				"y": -1.8959572523,
				"z": -1.780118481,
				"element": "H" 
			},
			{
				"x": -3.5412237187,
				"y": -2.7701468041,
				"z": -3.2438108771,
				"element": "H" 
			},
			{
				"x": -1.0505525012,
				"y": -1.6171370302,
				"z": -0.6383737422,
				"element": "H" 
			},
			{
				"x": 1.3840613119,
				"y": 0.8433964526,
				"z": -2.4734116324,
				"element": "H" 
			},
			{
				"x": -0.8224463785,
				"y": 0.3790568076,
				"z": 0.4781984553,
				"element": "H" 
			},
			{
				"x": 2.0264079795,
				"y": 2.2585976754,
				"z": 3.0907985332,
				"element": "H" 
			},
			{
				"x": 3.5878200028,
				"y": 2.5218222177,
				"z": 1.1924469953,
				"element": "H" 
			},
			{
				"x": 2.9885248597,
				"y": 1.7109935368,
				"z": -1.0534382316,
				"element": "H" 
			},
			{
				"x": 0.9485614515,
				"y": 1.0797661548,
				"z": 4.253713929,
				"element": "H" 
			},
			{
				"x": -0.7256677288,
				"y": 0.7247192944,
				"z": -4.2621661635,
				"element": "H" 
			}
		],
		 "valence_orbital": [ 
			{
				"type": "occ",
				"energy": -0.27189,
				"method": "rhf"
			},
			{
				"type": "occ",
				"energy": -0.26051,
				"method": "rhf"
			},
			{
				"type": "occ",
				"energy": -0.25898,
				"method": "rhf"
			},
			{
				"type": "occ",
				"energy": -0.25188,
				"method": "rhf"
			},
			{
				"type": "occ",
				"energy": -0.1959,
				"method": "rhf"
			},
			{
				"type": "unocc",
				"energy": -0.04425,
				"method": "rhf"
			},
			{
				"type": "unocc",
				"energy": -0.00812,
				"method": "rhf"
			},
			{
				"type": "unocc",
				"energy": 0.01494,
				"method": "rhf"
			},
			{
				"type": "unocc",
				"energy": 0.05157,
				"method": "rhf"
			},
			{
				"type": "unocc",
				"energy": 0.06335,
				"method": "rhf"
			}
		],
		"cosmo_sigma_profile": { 
			"-0.025": 0.0,
			"-0.024": 0.0,
			"-0.023": 0.0,
			"-0.022": 0.0,
			"-0.021": 0.0,
			"-0.02": 0.0,
			"-0.019": 0.0729825394221,
			"-0.018": 0.447264517266,
			"-0.017": 0.738883890872,
			"-0.016": 1.41013799603,
			"-0.015": 0.761032292431,
			"-0.014": 1.71636401235,
			"-0.013": 2.19362807559,
			"-0.012": 2.59267829917,
			"-0.011": 2.54234348902,
			"-0.01": 3.11045653293,
			"-0.009": 3.00136033098,
			"-0.008": 6.38469915353,
			"-0.007": 9.94964143598,
			"-0.006": 15.5503190504,
			"-0.005": 16.1021290787,
			"-0.004": 16.9801685964,
			"-0.003": 17.3156532017,
			"-0.002": 12.4746699523,
			"-0.001": 11.2975319579,
			"0.0": 9.62580956603,
			"0.001": 12.2098734365,
			"0.002": 13.6447056493,
			"0.003": 18.0101316003,
			"0.004": 21.3190691885,
			"0.005": 12.9884341132,
			"0.006": 4.85719137199,
			"0.007": 4.41368518274,
			"0.008": 4.54563763203,
			"0.009": 5.10089064453,
			"0.01": 5.11525421966,
			"0.011": 6.23057402821,
			"0.012": 7.24877980307,
			"0.013": 3.03046927111,
			"0.014": 1.05888198006,
			"0.015": 1.02042558347,
			"0.016": 0.458531884154,
			"0.017": 0.0,
			"0.018": 0.0,
			"0.019": 0.0,
			"0.02": 0.0,
			"0.021": 0.0,
			"0.022": 0.0,
			"0.023": 0.0,
			"0.024": 0.0,
			"0.025": 0.0
		}
	}
}
