{
	 "smiles": "NS(=O)(=O)C1=CC=CC=C1Cl", 
	 "Tm": 463.15, 
	 "num_atms": 17, 
	 "gaussian": { 
		 "optdone": 1, 
		 "sigma_profile": "yes", 
		 "theory": "DFT", 
		 "functional": "B3LYP", 
		 "basiset": "6-31G**", 
		 "properties": { 
			 "R2extent": 3601.9695, 
			 "electric_dipole_moment_norm": 4.85297133723, 
			 "electric_quadrupole_moment_norm": 20.8566041443, 
			 "total_energy": -1295.75365568, 
			 "HOMO_LUMO_gap": 0.21728, 
			 "cosmo_polarized_energy": -16.57, 
			 "cosmo_cavitation_energy": 24.16, 
			 "cosmo_dispersion_energy": -18.63, 
			 "cosmo_repulsion_energy": 1.45, 
			 "cosmo_total_nonelectrostatic_energy": 6.97, 
			 "SMD_solvation_energy": 3.65 
		},
		"coords": [
			{
				"x": 0.7503168,
				"y": -3.3236913843,
				"z": -2.9339449319,
				"element": "N" 
			},
			{
				"x": 1.4502396779,
				"y": -2.6938184258,
				"z": -1.5265890368,
				"element": "S" 
			},
			{
				"x": 0.7701200253,
				"y": -3.3197398122,
				"z": -0.3916647858,
				"element": "O" 
			},
			{
				"x": 2.9018629722,
				"y": -2.7660929918,
				"z": -1.6996953904,
				"element": "O" 
			},
			{
				"x": 0.9588214452,
				"y": -0.9562259409,
				"z": -1.5920610452,
				"element": "C" 
			},
			{
				"x": 0.1837076935,
				"y": -0.4789007748,
				"z": -2.653445597,
				"element": "C" 
			},
			{
				"x": -0.1958365001,
				"y": 0.8616403588,
				"z": -2.7048298609,
				"element": "C" 
			},
			{
				"x": 0.1988094236,
				"y": 1.7343514275,
				"z": -1.6922863288,
				"element": "C" 
			},
			{
				"x": 0.9717209375,
				"y": 1.2696190488,
				"z": -0.6291178539,
				"element": "C" 
			},
			{
				"x": 1.3531825245,
				"y": -0.0713498761,
				"z": -0.5748189063,
				"element": "C" 
			},
			{
				"x": 2.3216917686,
				"y": -0.590474272,
				"z": 0.7841952219,
				"element": "Cl" 
			},
			{
				"x": 0.0864820791,
				"y": -4.0486041988,
				"z": -2.6750916092,
				"element": "H" 
			},
			{
				"x": 1.4867733863,
				"y": -3.6849249854,
				"z": -3.5342144311,
				"element": "H" 
			},
			{
				"x": -0.1134073229,
				"y": -1.1715589289,
				"z": -3.4308351482,
				"element": "H" 
			},
			{
				"x": -0.7975157499,
				"y": 1.2176698359,
				"z": -3.534909378,
				"element": "H" 
			},
			{
				"x": -0.0918818149,
				"y": 2.7799654785,
				"z": -1.7236248756,
				"element": "H" 
			},
			{
				"x": 1.2853126541,
				"y": 1.9380354412,
				"z": 0.1649339571,
				"element": "H" 
			}
		],
		 "valence_orbital": [ 
			{
				"type": "occ",
				"energy": -0.32115,
				"method": "rhf"
			},
			{
				"type": "occ",
				"energy": -0.31028,
				"method": "rhf"
			},
			{
				"type": "occ",
				"energy": -0.29166,
				"method": "rhf"
			},
			{
				"type": "occ",
				"energy": -0.27583,
				"method": "rhf"
			},
			{
				"type": "occ",
				"energy": -0.25977,
				"method": "rhf"
			},
			{
				"type": "unocc",
				"energy": -0.04249,
				"method": "rhf"
			},
			{
				"type": "unocc",
				"energy": -0.0288,
				"method": "rhf"
			},
			{
				"type": "unocc",
				"energy": 0.01327,
				"method": "rhf"
			},
			{
				"type": "unocc",
				"energy": 0.05152,
				"method": "rhf"
			},
			{
				"type": "unocc",
				"energy": 0.07489,
				"method": "rhf"
			}
		],
		"cosmo_sigma_profile": { 
			"-0.025": 0.0,
			"-0.024": 0.0,
			"-0.023": 0.0,
			"-0.022": 0.0,
			"-0.021": 0.0,
			"-0.02": 0.0,
			"-0.019": 0.0,
			"-0.018": 0.0,
			"-0.017": 0.0,
			"-0.016": 0.0407460623633,
			"-0.015": 1.83791728688,
			"-0.014": 2.29899397301,
			"-0.013": 3.1691009601,
			"-0.012": 2.32027146046,
			"-0.011": 1.83240640248,
			"-0.01": 1.50377679565,
			"-0.009": 1.72756833489,
			"-0.008": 5.21244364341,
			"-0.007": 8.80502996469,
			"-0.006": 10.8285121111,
			"-0.005": 8.42633524389,
			"-0.004": 8.27220093909,
			"-0.003": 8.87799139472,
			"-0.002": 9.58916218961,
			"-0.001": 9.97449556928,
			"0.0": 14.8069802822,
			"0.001": 19.4351178363,
			"0.002": 17.236395335,
			"0.003": 11.4391047272,
			"0.004": 7.05346567664,
			"0.005": 4.36931723585,
			"0.006": 2.76809444203,
			"0.007": 3.62199602941,
			"0.008": 4.28591747668,
			"0.009": 4.46978080411,
			"0.01": 10.4918160794,
			"0.011": 9.8305493587,
			"0.012": 1.05049034972,
			"0.013": 0.0,
			"0.014": 0.0,
			"0.015": 0.0,
			"0.016": 0.0,
			"0.017": 0.0,
			"0.018": 0.0,
			"0.019": 0.0,
			"0.02": 0.0,
			"0.021": 0.0,
			"0.022": 0.0,
			"0.023": 0.0,
			"0.024": 0.0,
			"0.025": 0.0
		}
	}
}
