{
	 "smiles": "ClC(=O)C1=C(Br)C=CS1", 
	 "Tm": 339.15, 
	 "num_atms": 11, 
	 "gaussian": { 
		 "optdone": 1, 
		 "sigma_profile": "yes", 
		 "theory": "DFT", 
		 "functional": "B3LYP", 
		 "basiset": "6-31G**", 
		 "properties": { 
			 "R2extent": 2791.7767, 
			 "electric_dipole_moment_norm": 4.57682239114, 
			 "electric_quadrupole_moment_norm": 9.06425509405, 
			 "total_energy": -3696.72661555, 
			 "HOMO_LUMO_gap": 0.17427, 
			 "cosmo_polarized_energy": -7.3, 
			 "cosmo_cavitation_energy": 21.55, 
			 "cosmo_dispersion_energy": -17.12, 
			 "cosmo_repulsion_energy": 1.35, 
			 "cosmo_total_nonelectrostatic_energy": 5.78, 
			 "SMD_solvation_energy": 3.34 
		},
		"coords": [
			{
				"x": 0.4958835383,
				"y": -1.7902263883,
				"z": 1.2966463432,
				"element": "Cl" 
			},
			{
				"x": -0.1005637578,
				"y": -0.4447727134,
				"z": 0.1942065156,
				"element": "C" 
			},
			{
				"x": -1.269735214,
				"y": -0.3378031293,
				"z": -0.0204963748,
				"element": "O" 
			},
			{
				"x": 0.9744436304,
				"y": 0.3899128357,
				"z": -0.3256470372,
				"element": "C" 
			},
			{
				"x": 0.8466332541,
				"y": 1.4792840857,
				"z": -1.177639003,
				"element": "C" 
			},
			{
				"x": -0.7697561457,
				"y": 2.1477936289,
				"z": -1.8749798171,
				"element": "Br" 
			},
			{
				"x": 2.0837546742,
				"y": 2.0902236712,
				"z": -1.5076751494,
				"element": "C" 
			},
			{
				"x": 3.1414812177,
				"y": 1.4614903072,
				"z": -0.9043555889,
				"element": "C" 
			},
			{
				"x": 2.6591231702,
				"y": 0.1263962374,
				"z": 0.0678976047,
				"element": "S" 
			},
			{
				"x": 2.1679355144,
				"y": 2.9499551871,
				"z": -2.1594227891,
				"element": "H" 
			},
			{
				"x": 4.1896001184,
				"y": 1.7180462779,
				"z": -0.983034704,
				"element": "H" 
			}
		],
		 "valence_orbital": [ 
			{
				"type": "occ",
				"energy": -0.3219,
				"method": "rhf"
			},
			{
				"type": "occ",
				"energy": -0.31323,
				"method": "rhf"
			},
			{
				"type": "occ",
				"energy": -0.28666,
				"method": "rhf"
			},
			{
				"type": "occ",
				"energy": -0.28003,
				"method": "rhf"
			},
			{
				"type": "occ",
				"energy": -0.26524,
				"method": "rhf"
			},
			{
				"type": "unocc",
				"energy": -0.09097,
				"method": "rhf"
			},
			{
				"type": "unocc",
				"energy": -0.02894,
				"method": "rhf"
			},
			{
				"type": "unocc",
				"energy": -0.00257,
				"method": "rhf"
			},
			{
				"type": "unocc",
				"energy": 0.01249,
				"method": "rhf"
			},
			{
				"type": "unocc",
				"energy": 0.02908,
				"method": "rhf"
			}
		],
		"cosmo_sigma_profile": { 
			"-0.025": 0.0,
			"-0.024": 0.0,
			"-0.023": 0.0,
			"-0.022": 0.0,
			"-0.021": 0.0,
			"-0.02": 0.0,
			"-0.019": 0.0,
			"-0.018": 0.0,
			"-0.017": 0.0,
			"-0.016": 0.0,
			"-0.015": 0.0,
			"-0.014": 0.0,
			"-0.013": 0.0,
			"-0.012": 0.0,
			"-0.011": 1.62121547781,
			"-0.01": 2.16197564843,
			"-0.009": 3.12944523865,
			"-0.008": 4.27299318854,
			"-0.007": 4.02963344169,
			"-0.006": 4.67345734542,
			"-0.005": 6.22189082626,
			"-0.004": 7.11193632531,
			"-0.003": 9.30946308782,
			"-0.002": 11.8460034237,
			"-0.001": 20.4306008383,
			"0.0": 21.0893841779,
			"0.001": 20.5500903274,
			"0.002": 18.5217855868,
			"0.003": 15.7850851944,
			"0.004": 10.5091100822,
			"0.005": 6.21678044942,
			"0.006": 2.42880566752,
			"0.007": 3.17940110032,
			"0.008": 4.70141078045,
			"0.009": 3.89146925215,
			"0.01": 0.226904537525,
			"0.011": 0.0,
			"0.012": 0.0,
			"0.013": 0.0,
			"0.014": 0.0,
			"0.015": 0.0,
			"0.016": 0.0,
			"0.017": 0.0,
			"0.018": 0.0,
			"0.019": 0.0,
			"0.02": 0.0,
			"0.021": 0.0,
			"0.022": 0.0,
			"0.023": 0.0,
			"0.024": 0.0,
			"0.025": 0.0
		}
	}
}
