{
	 "smiles": "[O-][N+](=O)C1=CC=C(C=C1)C(Cl)=O", 
	 "Tm": 347.15, 
	 "num_atms": 16, 
	 "gaussian": { 
		 "optdone": 1, 
		 "sigma_profile": "yes", 
		 "theory": "DFT", 
		 "functional": "B3LYP", 
		 "basiset": "6-31G**", 
		 "properties": { 
			 "R2extent": 3504.1861, 
			 "electric_dipole_moment_norm": 0.710438653228, 
			 "electric_quadrupole_moment_norm": 16.946580286, 
			 "total_energy": -1009.67325309, 
			 "HOMO_LUMO_gap": 0.17872, 
			 "cosmo_polarized_energy": -8.9, 
			 "cosmo_cavitation_energy": 23.85, 
			 "cosmo_dispersion_energy": -17.67, 
			 "cosmo_repulsion_energy": 1.4, 
			 "cosmo_total_nonelectrostatic_energy": 7.58, 
			 "SMD_solvation_energy": 7.06 
		},
		"coords": [
			{
				"x": 1.999506328,
				"y": 1.6682760894,
				"z": 1.1331388388,
				"element": "O" 
			},
			{
				"x": 1.7590417208,
				"y": 0.4926441185,
				"z": 1.3975944367,
				"element": "N" 
			},
			{
				"x": 2.2785435063,
				"y": -0.1496335657,
				"z": 2.3072286636,
				"element": "O" 
			},
			{
				"x": 0.7654994783,
				"y": -0.2042609077,
				"z": 0.5536256707,
				"element": "C" 
			},
			{
				"x": 0.158985222,
				"y": 0.4978330279,
				"z": -0.4865065496,
				"element": "C" 
			},
			{
				"x": -0.7737347631,
				"y": -0.163631402,
				"z": -1.2752895896,
				"element": "C" 
			},
			{
				"x": -1.0897911145,
				"y": -1.5099182477,
				"z": -1.0200209376,
				"element": "C" 
			},
			{
				"x": -0.4646247177,
				"y": -2.1922957199,
				"z": 0.032803722,
				"element": "C" 
			},
			{
				"x": 0.4711532628,
				"y": -1.5370773009,
				"z": 0.8280786609,
				"element": "C" 
			},
			{
				"x": -2.1016610229,
				"y": -2.1273948243,
				"z": -1.9224593199,
				"element": "C" 
			},
			{
				"x": -2.497881417,
				"y": -3.8685656424,
				"z": -1.5773940659,
				"element": "Cl" 
			},
			{
				"x": -2.6497686808,
				"y": -1.572174883,
				"z": -2.8262369815,
				"element": "O" 
			},
			{
				"x": 0.4227638803,
				"y": 1.5335569427,
				"z": -0.6586237853,
				"element": "H" 
			},
			{
				"x": -1.2678439066,
				"y": 0.3466493883,
				"z": -2.0939696124,
				"element": "H" 
			},
			{
				"x": -0.7086389676,
				"y": -3.2288411311,
				"z": 0.2284847075,
				"element": "H" 
			},
			{
				"x": 0.9708511917,
				"y": -2.0364659422,
				"z": 1.6482461416,
				"element": "H" 
			}
		],
		 "valence_orbital": [ 
			{
				"type": "occ",
				"energy": -0.32502,
				"method": "rhf"
			},
			{
				"type": "occ",
				"energy": -0.3133,
				"method": "rhf"
			},
			{
				"type": "occ",
				"energy": -0.30939,
				"method": "rhf"
			},
			{
				"type": "occ",
				"energy": -0.30921,
				"method": "rhf"
			},
			{
				"type": "occ",
				"energy": -0.30216,
				"method": "rhf"
			},
			{
				"type": "unocc",
				"energy": -0.12344,
				"method": "rhf"
			},
			{
				"type": "unocc",
				"energy": -0.06685,
				"method": "rhf"
			},
			{
				"type": "unocc",
				"energy": -0.05064,
				"method": "rhf"
			},
			{
				"type": "unocc",
				"energy": 0.00355,
				"method": "rhf"
			},
			{
				"type": "unocc",
				"energy": 0.01592,
				"method": "rhf"
			}
		],
		"cosmo_sigma_profile": { 
			"-0.025": 0.0,
			"-0.024": 0.0,
			"-0.023": 0.0,
			"-0.022": 0.0,
			"-0.021": 0.0,
			"-0.02": 0.0,
			"-0.019": 0.0,
			"-0.018": 0.0,
			"-0.017": 0.0,
			"-0.016": 0.0,
			"-0.015": 0.0,
			"-0.014": 0.0,
			"-0.013": 0.0,
			"-0.012": 0.0,
			"-0.011": 0.0,
			"-0.01": 0.0,
			"-0.009": 1.42821982468,
			"-0.008": 8.26119201471,
			"-0.007": 7.33780052957,
			"-0.006": 8.09593286419,
			"-0.005": 10.618578187,
			"-0.004": 11.0132990515,
			"-0.003": 15.4722566577,
			"-0.002": 19.7204302233,
			"-0.001": 20.5695206704,
			"0.0": 14.7332950461,
			"0.001": 8.67024796545,
			"0.002": 7.89642265793,
			"0.003": 10.2953788072,
			"0.004": 10.1025553972,
			"0.005": 6.93751922185,
			"0.006": 7.76228424769,
			"0.007": 12.1833926897,
			"0.008": 8.95777743708,
			"0.009": 4.57877050614,
			"0.01": 0.633488690746,
			"0.011": 0.0,
			"0.012": 0.0,
			"0.013": 0.0,
			"0.014": 0.0,
			"0.015": 0.0,
			"0.016": 0.0,
			"0.017": 0.0,
			"0.018": 0.0,
			"0.019": 0.0,
			"0.02": 0.0,
			"0.021": 0.0,
			"0.022": 0.0,
			"0.023": 0.0,
			"0.024": 0.0,
			"0.025": 0.0
		}
	}
}
