{
	 "smiles": "COC1=C(F)C=C(C(F)=C1)[N+]([O-])=O", 
	 "Tm": 352.15, 
	 "num_atms": 18, 
	 "gaussian": { 
		 "optdone": 1, 
		 "sigma_profile": "yes", 
		 "theory": "DFT", 
		 "functional": "B3LYP", 
		 "basiset": "6-31G**", 
		 "properties": { 
			 "R2extent": 3285.9646, 
			 "electric_dipole_moment_norm": 5.98020043644, 
			 "electric_quadrupole_moment_norm": 13.1565855468, 
			 "total_energy": -749.717385534, 
			 "HOMO_LUMO_gap": 0.16706, 
			 "cosmo_polarized_energy": -9.59, 
			 "cosmo_cavitation_energy": 24.24, 
			 "cosmo_dispersion_energy": -17.81, 
			 "cosmo_repulsion_energy": 1.36, 
			 "cosmo_total_nonelectrostatic_energy": 7.79, 
			 "SMD_solvation_energy": 8.2 
		},
		"coords": [
			{
				"x": -0.1345948249,
				"y": -2.4482461795,
				"z": 1.16174334,
				"element": "C" 
			},
			{
				"x": 0.5746585991,
				"y": -1.6244595059,
				"z": 0.2248059491,
				"element": "O" 
			},
			{
				"x": 0.0234507262,
				"y": -0.5231776309,
				"z": -0.3193461418,
				"element": "C" 
			},
			{
				"x": -1.2678201133,
				"y": -0.0078527034,
				"z": -0.0792308103,
				"element": "C" 
			},
			{
				"x": -2.1072145691,
				"y": -0.6317347907,
				"z": 0.780540867,
				"element": "F" 
			},
			{
				"x": -1.7126333063,
				"y": 1.1375097297,
				"z": -0.7067193235,
				"element": "C" 
			},
			{
				"x": -0.8902965736,
				"y": 1.8239776918,
				"z": -1.6035755098,
				"element": "C" 
			},
			{
				"x": 0.3989611244,
				"y": 1.3267896538,
				"z": -1.8555969538,
				"element": "C" 
			},
			{
				"x": 1.2412451833,
				"y": 1.9253714224,
				"z": -2.6976010402,
				"element": "F" 
			},
			{
				"x": 0.8386710338,
				"y": 0.1753064071,
				"z": -1.2216377827,
				"element": "C" 
			},
			{
				"x": -1.420001693,
				"y": 3.0296933455,
				"z": -2.2347860138,
				"element": "N" 
			},
			{
				"x": -2.5682327469,
				"y": 3.3638586425,
				"z": -1.9318957179,
				"element": "O" 
			},
			{
				"x": -0.6988896944,
				"y": 3.6360425118,
				"z": -3.023413097,
				"element": "O" 
			},
			{
				"x": -0.3973649739,
				"y": -1.8900759722,
				"z": 2.0633171637,
				"element": "H" 
			},
			{
				"x": -1.0376584827,
				"y": -2.8713970938,
				"z": 0.7157299087,
				"element": "H" 
			},
			{
				"x": 0.5635969499,
				"y": -3.2473268486,
				"z": 1.411852642,
				"element": "H" 
			},
			{
				"x": -2.7074443339,
				"y": 1.5146795772,
				"z": -0.5074273574,
				"element": "H" 
			},
			{
				"x": 1.8353676953,
				"y": -0.197058257,
				"z": -1.4255601223,
				"element": "H" 
			}
		],
		 "valence_orbital": [ 
			{
				"type": "occ",
				"energy": -0.30713,
				"method": "rhf"
			},
			{
				"type": "occ",
				"energy": -0.30625,
				"method": "rhf"
			},
			{
				"type": "occ",
				"energy": -0.28807,
				"method": "rhf"
			},
			{
				"type": "occ",
				"energy": -0.27687,
				"method": "rhf"
			},
			{
				"type": "occ",
				"energy": -0.25579,
				"method": "rhf"
			},
			{
				"type": "unocc",
				"energy": -0.08873,
				"method": "rhf"
			},
			{
				"type": "unocc",
				"energy": -0.02923,
				"method": "rhf"
			},
			{
				"type": "unocc",
				"energy": 0.00193,
				"method": "rhf"
			},
			{
				"type": "unocc",
				"energy": 0.04799,
				"method": "rhf"
			},
			{
				"type": "unocc",
				"energy": 0.08341,
				"method": "rhf"
			}
		],
		"cosmo_sigma_profile": { 
			"-0.025": 0.0,
			"-0.024": 0.0,
			"-0.023": 0.0,
			"-0.022": 0.0,
			"-0.021": 0.0,
			"-0.02": 0.0,
			"-0.019": 0.0,
			"-0.018": 0.0,
			"-0.017": 0.0,
			"-0.016": 0.0,
			"-0.015": 0.0,
			"-0.014": 0.0,
			"-0.013": 0.0,
			"-0.012": 0.0,
			"-0.011": 0.0,
			"-0.01": 0.139972715134,
			"-0.009": 1.98331826721,
			"-0.008": 1.71540560381,
			"-0.007": 5.17120036107,
			"-0.006": 12.0272561556,
			"-0.005": 14.4171347905,
			"-0.004": 14.6579949684,
			"-0.003": 15.4214048547,
			"-0.002": 20.8312284348,
			"-0.001": 20.0031949937,
			"0.0": 12.3799190733,
			"0.001": 7.48995657386,
			"0.002": 9.49473792347,
			"0.003": 14.4482103412,
			"0.004": 7.23575382689,
			"0.005": 4.71861952805,
			"0.006": 5.02890079443,
			"0.007": 8.32184464326,
			"0.008": 11.0521894409,
			"0.009": 5.14733659703,
			"0.01": 3.12936272955,
			"0.011": 0.260487471164,
			"0.012": 0.0,
			"0.013": 0.0,
			"0.014": 0.0,
			"0.015": 0.0,
			"0.016": 0.0,
			"0.017": 0.0,
			"0.018": 0.0,
			"0.019": 0.0,
			"0.02": 0.0,
			"0.021": 0.0,
			"0.022": 0.0,
			"0.023": 0.0,
			"0.024": 0.0,
			"0.025": 0.0
		}
	}
}
