{
	 "smiles": "CCCN1C=NC2=C1C(=O)N(CCCCC(C)=O)C(=O)N2C", 
	 "Tm": 342.15, 
	 "num_atms": 44, 
	 "gaussian": { 
		 "optdone": 1, 
		 "sigma_profile": "yes", 
		 "theory": "DFT", 
		 "functional": "B3LYP", 
		 "basiset": "6-31G**", 
		 "properties": { 
			 "R2extent": 8064.9552, 
			 "electric_dipole_moment_norm": 4.4746571824, 
			 "electric_quadrupole_moment_norm": 15.6086882319, 
			 "total_energy": -1029.60314729, 
			 "HOMO_LUMO_gap": 0.18716, 
			 "cosmo_polarized_energy": -18.23, 
			 "cosmo_cavitation_energy": 45.75, 
			 "cosmo_dispersion_energy": -30.45, 
			 "cosmo_repulsion_energy": 2.33, 
			 "cosmo_total_nonelectrostatic_energy": 17.64, 
			 "SMD_solvation_energy": 7.45 
		},
		"coords": [
			{
				"x": 0.8722479236,
				"y": 2.2182806631,
				"z": 3.3556342479,
				"element": "C" 
			},
			{
				"x": 1.8837228678,
				"y": 1.4540461965,
				"z": 2.4982828873,
				"element": "C" 
			},
			{
				"x": 2.1223888518,
				"y": 0.0060881598,
				"z": 2.9458963101,
				"element": "C" 
			},
			{
				"x": 0.9211466929,
				"y": -0.8328398193,
				"z": 2.8734408192,
				"element": "N" 
			},
			{
				"x": 0.1382391378,
				"y": -1.241646455,
				"z": 3.9033342443,
				"element": "C" 
			},
			{
				"x": -0.9087894296,
				"y": -1.9722129898,
				"z": 3.5281987726,
				"element": "N" 
			},
			{
				"x": -0.7883403892,
				"y": -2.0316375459,
				"z": 2.1762225175,
				"element": "C" 
			},
			{
				"x": 0.3237060362,
				"y": -1.3423659437,
				"z": 1.7268845535,
				"element": "C" 
			},
			{
				"x": 0.6904373554,
				"y": -1.2577703628,
				"z": 0.3451227291,
				"element": "C" 
			},
			{
				"x": 1.6645994726,
				"y": -0.6616820792,
				"z": -0.1206636789,
				"element": "O" 
			},
			{
				"x": -0.2178584633,
				"y": -1.9616850867,
				"z": -0.4784848173,
				"element": "N" 
			},
			{
				"x": 0.040672741,
				"y": -1.9306085468,
				"z": -1.929605415,
				"element": "C" 
			},
			{
				"x": -0.6373991884,
				"y": -0.7358873576,
				"z": -2.6139892622,
				"element": "C" 
			},
			{
				"x": -0.1765841868,
				"y": -0.5184243928,
				"z": -4.0649063984,
				"element": "C" 
			},
			{
				"x": 1.2981689691,
				"y": -0.1037625096,
				"z": -4.1913828309,
				"element": "C" 
			},
			{
				"x": 1.5923902141,
				"y": 1.2569443756,
				"z": -3.5554365385,
				"element": "C" 
			},
			{
				"x": 2.9332827965,
				"y": 1.4129017787,
				"z": -2.8695543157,
				"element": "C" 
			},
			{
				"x": 0.7750727577,
				"y": 2.1590085176,
				"z": -3.5923417103,
				"element": "O" 
			},
			{
				"x": -1.3756270319,
				"y": -2.6508026983,
				"z": -0.0625875486,
				"element": "C" 
			},
			{
				"x": -2.1215380168,
				"y": -3.2029825821,
				"z": -0.8598948561,
				"element": "O" 
			},
			{
				"x": -1.6309780795,
				"y": -2.6825474229,
				"z": 1.3047010291,
				"element": "N" 
			},
			{
				"x": -2.8224372498,
				"y": -3.3950701215,
				"z": 1.7660680072,
				"element": "C" 
			},
			{
				"x": 0.7587612743,
				"y": 3.2451944067,
				"z": 2.9960057034,
				"element": "H" 
			},
			{
				"x": -0.1167312383,
				"y": 1.749553935,
				"z": 3.327060043,
				"element": "H" 
			},
			{
				"x": 1.1900643896,
				"y": 2.2677003824,
				"z": 4.403964302,
				"element": "H" 
			},
			{
				"x": 2.8571498133,
				"y": 1.9593588279,
				"z": 2.5285233763,
				"element": "H" 
			},
			{
				"x": 1.576272039,
				"y": 1.4406313063,
				"z": 1.4479509007,
				"element": "H" 
			},
			{
				"x": 2.8851463321,
				"y": -0.4566088134,
				"z": 2.3159620135,
				"element": "H" 
			},
			{
				"x": 2.4645598186,
				"y": -0.0293076965,
				"z": 3.9854752868,
				"element": "H" 
			},
			{
				"x": 0.3724336612,
				"y": -0.9869867126,
				"z": 4.9281811491,
				"element": "H" 
			},
			{
				"x": 1.1239905819,
				"y": -1.8831469242,
				"z": -2.0376231271,
				"element": "H" 
			},
			{
				"x": -0.3245773574,
				"y": -2.871154863,
				"z": -2.3434380609,
				"element": "H" 
			},
			{
				"x": -1.7210506404,
				"y": -0.8932969796,
				"z": -2.5922819804,
				"element": "H" 
			},
			{
				"x": -0.4335015186,
				"y": 0.1715266493,
				"z": -2.0354712246,
				"element": "H" 
			},
			{
				"x": -0.7887452938,
				"y": 0.2725238831,
				"z": -4.508466617,
				"element": "H" 
			},
			{
				"x": -0.348319205,
				"y": -1.4275329438,
				"z": -4.6550144552,
				"element": "H" 
			},
			{
				"x": 1.564056055,
				"y": -0.0118284203,
				"z": -5.254685379,
				"element": "H" 
			},
			{
				"x": 1.9751760969,
				"y": -0.8603728121,
				"z": -3.7805000785,
				"element": "H" 
			},
			{
				"x": 2.9123953058,
				"y": 0.8175304734,
				"z": -1.9474021817,
				"element": "H" 
			},
			{
				"x": 3.7475387847,
				"y": 1.0222494928,
				"z": -3.49032387,
				"element": "H" 
			},
			{
				"x": 3.1135214294,
				"y": 2.4608588812,
				"z": -2.6244159064,
				"element": "H" 
			},
			{
				"x": -2.7837475216,
				"y": -4.4360635784,
				"z": 1.4385317397,
				"element": "H" 
			},
			{
				"x": -2.8416112878,
				"y": -3.3399164252,
				"z": 2.8533347662,
				"element": "H" 
			},
			{
				"x": -3.7216053002,
				"y": -2.9356558466,
				"z": 1.3485948543,
				"element": "H" 
			}
		],
		 "valence_orbital": [ 
			{
				"type": "occ",
				"energy": -0.28123,
				"method": "rhf"
			},
			{
				"type": "occ",
				"energy": -0.26421,
				"method": "rhf"
			},
			{
				"type": "occ",
				"energy": -0.26193,
				"method": "rhf"
			},
			{
				"type": "occ",
				"energy": -0.23493,
				"method": "rhf"
			},
			{
				"type": "occ",
				"energy": -0.22118,
				"method": "rhf"
			},
			{
				"type": "unocc",
				"energy": -0.03402,
				"method": "rhf"
			},
			{
				"type": "unocc",
				"energy": -0.00321,
				"method": "rhf"
			},
			{
				"type": "unocc",
				"energy": 0.02077,
				"method": "rhf"
			},
			{
				"type": "unocc",
				"energy": 0.03247,
				"method": "rhf"
			},
			{
				"type": "unocc",
				"energy": 0.07917,
				"method": "rhf"
			}
		],
		"cosmo_sigma_profile": { 
			"-0.025": 0.0,
			"-0.024": 0.0,
			"-0.023": 0.0,
			"-0.022": 0.0,
			"-0.021": 0.0,
			"-0.02": 0.0,
			"-0.019": 0.0,
			"-0.018": 0.0,
			"-0.017": 0.0,
			"-0.016": 0.0,
			"-0.015": 0.0,
			"-0.014": 0.0,
			"-0.013": 0.0,
			"-0.012": 0.0,
			"-0.011": 0.12196504023,
			"-0.01": 2.47027704527,
			"-0.009": 2.55374012686,
			"-0.008": 2.17028086136,
			"-0.007": 2.71426735056,
			"-0.006": 10.1772350565,
			"-0.005": 20.8944670854,
			"-0.004": 30.7684912383,
			"-0.003": 45.3447601898,
			"-0.002": 49.4290271357,
			"-0.001": 47.4909344448,
			"0.0": 34.449795572,
			"0.001": 20.716631854,
			"0.002": 11.5976900439,
			"0.003": 9.8136726636,
			"0.004": 8.50538262223,
			"0.005": 7.39433158407,
			"0.006": 7.51199709671,
			"0.007": 6.27107142415,
			"0.008": 4.90996814855,
			"0.009": 4.6424669773,
			"0.01": 6.39553038961,
			"0.011": 5.7588173267,
			"0.012": 8.40701014977,
			"0.013": 7.71650870462,
			"0.014": 1.2460751478,
			"0.015": 0.0643298892439,
			"0.016": 0.0,
			"0.017": 0.0,
			"0.018": 0.0,
			"0.019": 0.0,
			"0.02": 0.0,
			"0.021": 0.0,
			"0.022": 0.0,
			"0.023": 0.0,
			"0.024": 0.0,
			"0.025": 0.0
		}
	}
}
