{
	 "smiles": "CC1CCN(CC2=CSC(N)=N2)CC1", 
	 "Tm": 419.15, 
	 "num_atms": 31, 
	 "gaussian": { 
		 "optdone": 1, 
		 "sigma_profile": "yes", 
		 "theory": "DFT", 
		 "functional": "B3LYP", 
		 "basiset": "6-31G**", 
		 "properties": { 
			 "R2extent": 5084.7834, 
			 "electric_dipole_moment_norm": 1.51557295766, 
			 "electric_quadrupole_moment_norm": 13.3923724594, 
			 "total_energy": -953.742084569, 
			 "HOMO_LUMO_gap": 0.2018, 
			 "cosmo_polarized_energy": -10.27, 
			 "cosmo_cavitation_energy": 33.45, 
			 "cosmo_dispersion_energy": -24.78, 
			 "cosmo_repulsion_energy": 1.93, 
			 "cosmo_total_nonelectrostatic_energy": 10.6, 
			 "SMD_solvation_energy": 1.63 
		},
		"coords": [
			{
				"x": -1.5231965632,
				"y": -1.2509838222,
				"z": 4.1739378465,
				"element": "C" 
			},
			{
				"x": -1.7308307709,
				"y": -0.2100932589,
				"z": 3.0669349644,
				"element": "C" 
			},
			{
				"x": -0.4229746931,
				"y": 0.0843176605,
				"z": 2.2824762686,
				"element": "C" 
			},
			{
				"x": -0.3507734286,
				"y": -0.7517301312,
				"z": 0.9975739129,
				"element": "C" 
			},
			{
				"x": -1.4529273987,
				"y": -0.4591115452,
				"z": 0.0543438558,
				"element": "N" 
			},
			{
				"x": -1.063902651,
				"y": 0.4122402036,
				"z": -1.0474640949,
				"element": "C" 
			},
			{
				"x": -0.2326948349,
				"y": -0.2862027616,
				"z": -2.0949369236,
				"element": "C" 
			},
			{
				"x": -0.152495354,
				"y": -1.6325049611,
				"z": -2.2782812481,
				"element": "C" 
			},
			{
				"x": 0.8757239851,
				"y": -1.9903475934,
				"z": -3.6490737234,
				"element": "S" 
			},
			{
				"x": 1.122619654,
				"y": -0.2494583108,
				"z": -3.8448756787,
				"element": "C" 
			},
			{
				"x": 1.8705403306,
				"y": 0.250819252,
				"z": -4.8905283156,
				"element": "N" 
			},
			{
				"x": 0.4969403549,
				"y": 0.4933138564,
				"z": -2.9790121568,
				"element": "N" 
			},
			{
				"x": -2.6766749997,
				"y": 0.0143534962,
				"z": 0.7186810778,
				"element": "C" 
			},
			{
				"x": -2.841191669,
				"y": -0.6551001173,
				"z": 2.0826607471,
				"element": "C" 
			},
			{
				"x": -1.1357144065,
				"y": -2.1909084018,
				"z": 3.7619523499,
				"element": "H" 
			},
			{
				"x": -2.4642990813,
				"y": -1.4803199989,
				"z": 4.6867115307,
				"element": "H" 
			},
			{
				"x": -0.8091424731,
				"y": -0.8970429112,
				"z": 4.9256402374,
				"element": "H" 
			},
			{
				"x": -2.0571095026,
				"y": 0.7254922804,
				"z": 3.5408411138,
				"element": "H" 
			},
			{
				"x": -0.3745125198,
				"y": 1.1473584414,
				"z": 2.0162096395,
				"element": "H" 
			},
			{
				"x": 0.4544441362,
				"y": -0.1160386847,
				"z": 2.9094336217,
				"element": "H" 
			},
			{
				"x": 0.598113108,
				"y": -0.585937669,
				"z": 0.4797355841,
				"element": "H" 
			},
			{
				"x": -0.3699557199,
				"y": -1.8192385301,
				"z": 1.259118912,
				"element": "H" 
			},
			{
				"x": -1.9805626656,
				"y": 0.7789837573,
				"z": -1.5287172119,
				"element": "H" 
			},
			{
				"x": -0.5194889458,
				"y": 1.3180599261,
				"z": -0.7186684981,
				"element": "H" 
			},
			{
				"x": -0.6310716274,
				"y": -2.4119783327,
				"z": -1.7064551012,
				"element": "H" 
			},
			{
				"x": 2.0932363331,
				"y": 1.2308727084,
				"z": -4.7716743532,
				"element": "H" 
			},
			{
				"x": 2.6563698216,
				"y": -0.3083118852,
				"z": -5.1913854284,
				"element": "H" 
			},
			{
				"x": -2.671075013,
				"y": 1.1130217177,
				"z": 0.863618571,
				"element": "H" 
			},
			{
				"x": -3.5336886503,
				"y": -0.207844333,
				"z": 0.0700124349,
				"element": "H" 
			},
			{
				"x": -2.8052381488,
				"y": -1.7435273239,
				"z": 1.9425707231,
				"element": "H" 
			},
			{
				"x": -3.8298666062,
				"y": -0.4262527279,
				"z": 2.4955193427,
				"element": "H" 
			}
		],
		 "valence_orbital": [ 
			{
				"type": "occ",
				"energy": -0.30263,
				"method": "rhf"
			},
			{
				"type": "occ",
				"energy": -0.26592,
				"method": "rhf"
			},
			{
				"type": "occ",
				"energy": -0.26379,
				"method": "rhf"
			},
			{
				"type": "occ",
				"energy": -0.20267,
				"method": "rhf"
			},
			{
				"type": "occ",
				"energy": -0.19714,
				"method": "rhf"
			},
			{
				"type": "unocc",
				"energy": 0.00466,
				"method": "rhf"
			},
			{
				"type": "unocc",
				"energy": 0.02007,
				"method": "rhf"
			},
			{
				"type": "unocc",
				"energy": 0.06679,
				"method": "rhf"
			},
			{
				"type": "unocc",
				"energy": 0.07754,
				"method": "rhf"
			},
			{
				"type": "unocc",
				"energy": 0.079,
				"method": "rhf"
			}
		],
		"cosmo_sigma_profile": { 
			"-0.025": 0.0,
			"-0.024": 0.0,
			"-0.023": 0.0,
			"-0.022": 0.0,
			"-0.021": 0.0,
			"-0.02": 0.0,
			"-0.019": 0.0,
			"-0.018": 0.0,
			"-0.017": 0.0,
			"-0.016": 0.0,
			"-0.015": 0.102517168114,
			"-0.014": 1.65874800673,
			"-0.013": 2.25047752147,
			"-0.012": 2.64010061813,
			"-0.011": 2.94249585536,
			"-0.01": 2.93744386743,
			"-0.009": 1.47525263064,
			"-0.008": 1.79287663004,
			"-0.007": 2.10976592519,
			"-0.006": 3.2310478298,
			"-0.005": 3.62964344524,
			"-0.004": 5.29455867771,
			"-0.003": 13.786638257,
			"-0.002": 38.6004729606,
			"-0.001": 44.1106411046,
			"0.0": 34.6416681303,
			"0.001": 26.0848751053,
			"0.002": 17.1042772628,
			"0.003": 12.4779820691,
			"0.004": 11.3323194016,
			"0.005": 10.6614286862,
			"0.006": 5.1633266533,
			"0.007": 2.9391811331,
			"0.008": 3.14912364725,
			"0.009": 3.08007306194,
			"0.01": 1.78280320517,
			"0.011": 1.97003193916,
			"0.012": 2.1833417989,
			"0.013": 1.3521461659,
			"0.014": 0.664756885353,
			"0.015": 0.70728475866,
			"0.016": 0.35068800388,
			"0.017": 0.0,
			"0.018": 0.0,
			"0.019": 0.0,
			"0.02": 0.0,
			"0.021": 0.0,
			"0.022": 0.0,
			"0.023": 0.0,
			"0.024": 0.0,
			"0.025": 0.0
		}
	}
}
