{
	 "smiles": "COC(=O)C1=NN=C(Cl)C=C1", 
	 "Tm": 404.15, 
	 "num_atms": 16, 
	 "gaussian": { 
		 "optdone": 1, 
		 "sigma_profile": "yes", 
		 "theory": "DFT", 
		 "functional": "B3LYP", 
		 "basiset": "6-31G**", 
		 "properties": { 
			 "R2extent": 2835.5826, 
			 "electric_dipole_moment_norm": 2.60713858665, 
			 "electric_quadrupole_moment_norm": 16.442423544, 
			 "total_energy": -951.750645427, 
			 "HOMO_LUMO_gap": 0.17767, 
			 "cosmo_polarized_energy": -12.77, 
			 "cosmo_cavitation_energy": 23.53, 
			 "cosmo_dispersion_energy": -17.6, 
			 "cosmo_repulsion_energy": 1.42, 
			 "cosmo_total_nonelectrostatic_energy": 7.35, 
			 "SMD_solvation_energy": 3.91 
		},
		"coords": [
			{
				"x": -3.5436296195,
				"y": -0.2075633395,
				"z": -2.0763124007,
				"element": "C" 
			},
			{
				"x": -2.4685563937,
				"y": 0.3443654422,
				"z": -1.2952334924,
				"element": "O" 
			},
			{
				"x": -1.9140554591,
				"y": -0.4950509775,
				"z": -0.4175703873,
				"element": "C" 
			},
			{
				"x": -2.2559366187,
				"y": -1.6509192954,
				"z": -0.2523189275,
				"element": "O" 
			},
			{
				"x": -0.7966466737,
				"y": 0.1263911653,
				"z": 0.3738685653,
				"element": "C" 
			},
			{
				"x": -0.4756767213,
				"y": 1.4017780519,
				"z": 0.1379575762,
				"element": "N" 
			},
			{
				"x": 0.5117449601,
				"y": 1.9703037911,
				"z": 0.8292879803,
				"element": "N" 
			},
			{
				"x": 1.1571540278,
				"y": 1.2529476345,
				"z": 1.7411305723,
				"element": "C" 
			},
			{
				"x": 2.4353031779,
				"y": 2.0789424834,
				"z": 2.5980357088,
				"element": "Cl" 
			},
			{
				"x": 0.8806464382,
				"y": -0.0860857015,
				"z": 2.0458240232,
				"element": "C" 
			},
			{
				"x": -0.142423745,
				"y": -0.669821733,
				"z": 1.3272547697,
				"element": "C" 
			},
			{
				"x": -3.1916656435,
				"y": -1.0594105417,
				"z": -2.6633052449,
				"element": "H" 
			},
			{
				"x": -3.8723259428,
				"y": 0.6008477559,
				"z": -2.7278467392,
				"element": "H" 
			},
			{
				"x": -4.3581937199,
				"y": -0.5370928482,
				"z": -1.4267149758,
				"element": "H" 
			},
			{
				"x": 1.4455470864,
				"y": -0.6171214742,
				"z": 2.8029955706,
				"element": "H" 
			},
			{
				"x": -0.4520851532,
				"y": -1.6989104132,
				"z": 1.4697474013,
				"element": "H" 
			}
		],
		 "valence_orbital": [ 
			{
				"type": "occ",
				"energy": -0.32976,
				"method": "rhf"
			},
			{
				"type": "occ",
				"energy": -0.31446,
				"method": "rhf"
			},
			{
				"type": "occ",
				"energy": -0.2907,
				"method": "rhf"
			},
			{
				"type": "occ",
				"energy": -0.29061,
				"method": "rhf"
			},
			{
				"type": "occ",
				"energy": -0.25667,
				"method": "rhf"
			},
			{
				"type": "unocc",
				"energy": -0.079,
				"method": "rhf"
			},
			{
				"type": "unocc",
				"energy": -0.0695,
				"method": "rhf"
			},
			{
				"type": "unocc",
				"energy": 0.01685,
				"method": "rhf"
			},
			{
				"type": "unocc",
				"energy": 0.02579,
				"method": "rhf"
			},
			{
				"type": "unocc",
				"energy": 0.09624,
				"method": "rhf"
			}
		],
		"cosmo_sigma_profile": { 
			"-0.025": 0.0,
			"-0.024": 0.0,
			"-0.023": 0.0,
			"-0.022": 0.0,
			"-0.021": 0.0,
			"-0.02": 0.0,
			"-0.019": 0.0,
			"-0.018": 0.0,
			"-0.017": 0.0,
			"-0.016": 0.0,
			"-0.015": 0.0,
			"-0.014": 0.0,
			"-0.013": 0.0,
			"-0.012": 0.0,
			"-0.011": 0.129651035618,
			"-0.01": 2.44496289586,
			"-0.009": 3.98761964453,
			"-0.008": 3.9612214352,
			"-0.007": 5.37015378137,
			"-0.006": 10.4838419727,
			"-0.005": 15.7128785023,
			"-0.004": 23.1475564765,
			"-0.003": 19.096139382,
			"-0.002": 14.1366615323,
			"-0.001": 7.75419153915,
			"0.0": 7.7537144873,
			"0.001": 9.98308713199,
			"0.002": 9.86087791406,
			"0.003": 12.080159437,
			"0.004": 6.06088897529,
			"0.005": 3.76937832,
			"0.006": 4.03235704585,
			"0.007": 4.43454612704,
			"0.008": 3.97933839221,
			"0.009": 4.17563961609,
			"0.01": 4.81050404344,
			"0.011": 7.2610499774,
			"0.012": 2.9106317918,
			"0.013": 2.26573422435,
			"0.014": 1.47727079229,
			"0.015": 0.756801626731,
			"0.016": 0.0405850776443,
			"0.017": 0.0,
			"0.018": 0.0,
			"0.019": 0.0,
			"0.02": 0.0,
			"0.021": 0.0,
			"0.022": 0.0,
			"0.023": 0.0,
			"0.024": 0.0,
			"0.025": 0.0
		}
	}
}
