{
	 "smiles": "CNS(=O)(=O)C1=CC=C(I)C=C1", 
	 "Tm": 368.15, 
	 "num_atms": 20, 
	 "gaussian": { 
		 "optdone": 1, 
		 "sigma_profile": "yes", 
		 "theory": "DFT", 
		 "functional": "B3LYP", 
		 "basiset": "6-31G**", 
		 "properties": { 
			 "R2extent": 3758.1507, 
			 "electric_dipole_moment_norm": 4.68333702076, 
			 "electric_quadrupole_moment_norm": 26.2757571191, 
			 "total_energy": -886.263423892, 
			 "HOMO_LUMO_gap": 0.20241, 
			 "cosmo_polarized_energy": -15.51, 
			 "cosmo_cavitation_energy": 28.57, 
			 "cosmo_dispersion_energy": -22.59, 
			 "cosmo_repulsion_energy": 1.72, 
			 "cosmo_total_nonelectrostatic_energy": 7.71, 
			 "SMD_solvation_energy": 2.97 
		},
		"coords": [
			{
				"x": -1.4607354568,
				"y": 3.3761673883,
				"z": 0.9036162788,
				"element": "C" 
			},
			{
				"x": -2.2770818105,
				"y": 2.2014564784,
				"z": 1.2103693246,
				"element": "N" 
			},
			{
				"x": -2.9466672489,
				"y": 1.3087569373,
				"z": -0.040646966,
				"element": "S" 
			},
			{
				"x": -3.6750229589,
				"y": 0.2200179716,
				"z": 0.6103197565,
				"element": "O" 
			},
			{
				"x": -3.5810732324,
				"y": 2.2708914606,
				"z": -0.9414869925,
				"element": "O" 
			},
			{
				"x": -1.5774978413,
				"y": 0.5669092754,
				"z": -0.9449968716,
				"element": "C" 
			},
			{
				"x": -1.0898312771,
				"y": -0.6803137485,
				"z": -0.5476905514,
				"element": "C" 
			},
			{
				"x": -0.0093625235,
				"y": -1.2452866668,
				"z": -1.2241734864,
				"element": "C" 
			},
			{
				"x": 0.5691825549,
				"y": -0.5519725839,
				"z": -2.2916057581,
				"element": "C" 
			},
			{
				"x": 2.2126989766,
				"y": -1.4058230687,
				"z": -3.3174025551,
				"element": "I" 
			},
			{
				"x": 0.075103664,
				"y": 0.6896195572,
				"z": -2.699049563,
				"element": "C" 
			},
			{
				"x": -1.0076929547,
				"y": 1.2510163974,
				"z": -2.0206370798,
				"element": "C" 
			},
			{
				"x": -2.0249056154,
				"y": 4.0228314621,
				"z": 0.2299534099,
				"element": "H" 
			},
			{
				"x": -1.2856745106,
				"y": 3.9203564541,
				"z": 1.8347528349,
				"element": "H" 
			},
			{
				"x": -0.4913261251,
				"y": 3.1336257278,
				"z": 0.4461108058,
				"element": "H" 
			},
			{
				"x": -1.9196669795,
				"y": 1.5887104761,
				"z": 1.9365336698,
				"element": "H" 
			},
			{
				"x": -1.5688373916,
				"y": -1.2134435296,
				"z": 0.2668654663,
				"element": "H" 
			},
			{
				"x": 0.3693922104,
				"y": -2.2164459384,
				"z": -0.926708885,
				"element": "H" 
			},
			{
				"x": 0.5190730353,
				"y": 1.2123874204,
				"z": -3.5385019295,
				"element": "H" 
			},
			{
				"x": -1.4252745151,
				"y": 2.1998385292,
				"z": -2.3395209082,
				"element": "H" 
			}
		],
		 "valence_orbital": [ 
			{
				"type": "occ",
				"energy": -0.30365,
				"method": "rhf"
			},
			{
				"type": "occ",
				"energy": -0.28752,
				"method": "rhf"
			},
			{
				"type": "occ",
				"energy": -0.28323,
				"method": "rhf"
			},
			{
				"type": "occ",
				"energy": -0.28204,
				"method": "rhf"
			},
			{
				"type": "occ",
				"energy": -0.25608,
				"method": "rhf"
			},
			{
				"type": "unocc",
				"energy": -0.05367,
				"method": "rhf"
			},
			{
				"type": "unocc",
				"energy": -0.05242,
				"method": "rhf"
			},
			{
				"type": "unocc",
				"energy": -0.03702,
				"method": "rhf"
			},
			{
				"type": "unocc",
				"energy": 0.03455,
				"method": "rhf"
			},
			{
				"type": "unocc",
				"energy": 0.0402,
				"method": "rhf"
			}
		],
		"cosmo_sigma_profile": { 
			"-0.025": 0.0,
			"-0.024": 0.0,
			"-0.023": 0.0,
			"-0.022": 0.0,
			"-0.021": 0.0,
			"-0.02": 0.0,
			"-0.019": 0.0,
			"-0.018": 0.0,
			"-0.017": 0.0,
			"-0.016": 0.0,
			"-0.015": 0.961596865922,
			"-0.014": 1.27045528159,
			"-0.013": 1.25092879832,
			"-0.012": 1.14001277521,
			"-0.011": 1.2850739146,
			"-0.01": 1.12702803491,
			"-0.009": 1.26935997455,
			"-0.008": 4.2426109678,
			"-0.007": 11.6499448379,
			"-0.006": 12.6054956705,
			"-0.005": 12.746492231,
			"-0.004": 16.5628612685,
			"-0.003": 18.7660684912,
			"-0.002": 14.6174594505,
			"-0.001": 11.5200632533,
			"0.0": 14.245295727,
			"0.001": 21.7035806921,
			"0.002": 19.7399481582,
			"0.003": 11.6872648358,
			"0.004": 14.9026215594,
			"0.005": 3.08788193513,
			"0.006": 3.625795178,
			"0.007": 5.44801379103,
			"0.008": 3.84431005185,
			"0.009": 3.46635232016,
			"0.01": 7.90319276294,
			"0.011": 9.14902731585,
			"0.012": 3.51348963586,
			"0.013": 0.0,
			"0.014": 0.0,
			"0.015": 0.0,
			"0.016": 0.0,
			"0.017": 0.0,
			"0.018": 0.0,
			"0.019": 0.0,
			"0.02": 0.0,
			"0.021": 0.0,
			"0.022": 0.0,
			"0.023": 0.0,
			"0.024": 0.0,
			"0.025": 0.0
		}
	}
}
