{
	 "smiles": "CCOC(=O)C1=C(C)N=C(NC)O1", 
	 "Tm": 377.15, 
	 "num_atms": 25, 
	 "gaussian": { 
		 "optdone": 1, 
		 "sigma_profile": "yes", 
		 "theory": "DFT", 
		 "functional": "B3LYP", 
		 "basiset": "6-31G**", 
		 "properties": { 
			 "R2extent": 3558.9428, 
			 "electric_dipole_moment_norm": 1.68152546814, 
			 "electric_quadrupole_moment_norm": 24.3724366931, 
			 "total_energy": -647.270593781, 
			 "HOMO_LUMO_gap": 0.18437, 
			 "cosmo_polarized_energy": -13.0, 
			 "cosmo_cavitation_energy": 29.38, 
			 "cosmo_dispersion_energy": -21.25, 
			 "cosmo_repulsion_energy": 1.74, 
			 "cosmo_total_nonelectrostatic_energy": 9.87, 
			 "SMD_solvation_energy": 4.57 
		},
		"coords": [
			{
				"x": 0.3243522054,
				"y": -2.6838247911,
				"z": -2.3045008428,
				"element": "C" 
			},
			{
				"x": 1.2313163014,
				"y": -1.5306805471,
				"z": -1.9003029769,
				"element": "C" 
			},
			{
				"x": 0.5690152781,
				"y": -0.6336741703,
				"z": -0.980097151,
				"element": "O" 
			},
			{
				"x": 0.6273942826,
				"y": -0.9800626294,
				"z": 0.3356550096,
				"element": "C" 
			},
			{
				"x": 1.198820494,
				"y": -1.9702843674,
				"z": 0.7541566195,
				"element": "O" 
			},
			{
				"x": -0.0729679333,
				"y": -0.0155765065,
				"z": 1.1687455424,
				"element": "C" 
			},
			{
				"x": -0.788972165,
				"y": 1.1444885494,
				"z": 0.9956417087,
				"element": "C" 
			},
			{
				"x": -1.1160910759,
				"y": 1.8914050351,
				"z": -0.2543787786,
				"element": "C" 
			},
			{
				"x": -1.2288955846,
				"y": 1.606323742,
				"z": 2.2211553727,
				"element": "N" 
			},
			{
				"x": -0.7643542285,
				"y": 0.7253211443,
				"z": 3.0788144568,
				"element": "C" 
			},
			{
				"x": -0.8913526559,
				"y": 0.7633388629,
				"z": 4.4271037841,
				"element": "N" 
			},
			{
				"x": -0.598277005,
				"y": -0.3832263375,
				"z": 5.2736982422,
				"element": "C" 
			},
			{
				"x": -0.0646852044,
				"y": -0.287209296,
				"z": 2.5420751649,
				"element": "O" 
			},
			{
				"x": 0.0979509333,
				"y": -3.3122392812,
				"z": -1.4398711496,
				"element": "H" 
			},
			{
				"x": 0.8221760458,
				"y": -3.3025953863,
				"z": -3.0588523405,
				"element": "H" 
			},
			{
				"x": -0.6132861652,
				"y": -2.3125730209,
				"z": -2.7289936015,
				"element": "H" 
			},
			{
				"x": 1.484767463,
				"y": -0.9015929662,
				"z": -2.7573194414,
				"element": "H" 
			},
			{
				"x": 2.1493371656,
				"y": -1.898297847,
				"z": -1.4360005825,
				"element": "H" 
			},
			{
				"x": -0.6923848305,
				"y": 2.9006151605,
				"z": -0.2079422104,
				"element": "H" 
			},
			{
				"x": -0.7290131913,
				"y": 1.3794303119,
				"z": -1.1339806916,
				"element": "H" 
			},
			{
				"x": -2.2015247412,
				"y": 2.0049695035,
				"z": -0.3464064242,
				"element": "H" 
			},
			{
				"x": -1.5605285376,
				"y": 1.446436162,
				"z": 4.7492336255,
				"element": "H" 
			},
			{
				"x": -1.3512637931,
				"y": -1.1787499775,
				"z": 5.192417049,
				"element": "H" 
			},
			{
				"x": 0.3719778296,
				"y": -0.800770279,
				"z": 4.998335192,
				"element": "H" 
			},
			{
				"x": -0.5486108875,
				"y": -0.0478710682,
				"z": 6.3115144238,
				"element": "H" 
			}
		],
		 "valence_orbital": [ 
			{
				"type": "occ",
				"energy": -0.29271,
				"method": "rhf"
			},
			{
				"type": "occ",
				"energy": -0.28943,
				"method": "rhf"
			},
			{
				"type": "occ",
				"energy": -0.28792,
				"method": "rhf"
			},
			{
				"type": "occ",
				"energy": -0.25999,
				"method": "rhf"
			},
			{
				"type": "occ",
				"energy": -0.2082,
				"method": "rhf"
			},
			{
				"type": "unocc",
				"energy": -0.02383,
				"method": "rhf"
			},
			{
				"type": "unocc",
				"energy": 0.05265,
				"method": "rhf"
			},
			{
				"type": "unocc",
				"energy": 0.07367,
				"method": "rhf"
			},
			{
				"type": "unocc",
				"energy": 0.10917,
				"method": "rhf"
			},
			{
				"type": "unocc",
				"energy": 0.11628,
				"method": "rhf"
			}
		],
		"cosmo_sigma_profile": { 
			"-0.025": 0.0,
			"-0.024": 0.0,
			"-0.023": 0.0,
			"-0.022": 0.0,
			"-0.021": 0.0,
			"-0.02": 0.0,
			"-0.019": 0.0,
			"-0.018": 0.0,
			"-0.017": 0.0,
			"-0.016": 0.0,
			"-0.015": 0.860473494814,
			"-0.014": 1.16152325227,
			"-0.013": 0.982046283767,
			"-0.012": 1.44186789718,
			"-0.011": 0.909553802022,
			"-0.01": 0.720457134371,
			"-0.009": 0.64267933669,
			"-0.008": 1.33849042846,
			"-0.007": 1.4327863469,
			"-0.006": 5.65203233749,
			"-0.005": 13.8811498191,
			"-0.004": 20.9759197946,
			"-0.003": 26.3046991455,
			"-0.002": 26.3721235284,
			"-0.001": 25.1487274949,
			"0.0": 23.7862790619,
			"0.001": 17.8088100504,
			"0.002": 8.75276672515,
			"0.003": 9.3997481097,
			"0.004": 6.56764324756,
			"0.005": 5.09768854662,
			"0.006": 4.65785653139,
			"0.007": 3.64600478907,
			"0.008": 2.81981354654,
			"0.009": 3.11319283848,
			"0.01": 2.34544741507,
			"0.011": 3.6329352479,
			"0.012": 5.35090502599,
			"0.013": 4.62364823284,
			"0.014": 1.14933512345,
			"0.015": 0.802642609239,
			"0.016": 0.66697386648,
			"0.017": 0.0986904457612,
			"0.018": 0.0,
			"0.019": 0.0,
			"0.02": 0.0,
			"0.021": 0.0,
			"0.022": 0.0,
			"0.023": 0.0,
			"0.024": 0.0,
			"0.025": 0.0
		}
	}
}
