{
	 "smiles": "CCCCCCC(O)C1C(O)C2=C(CC(CC3=C1C(=O)OC3O)C(O)C1CC=CC(=O)O1)C(=O)OC2=O", 
	 "Tm": 487.15, 
	 "num_atms": 69, 
	 "gaussian": { 
		 "optdone": 1, 
		 "sigma_profile": "yes", 
		 "theory": "DFT", 
		 "functional": "B3LYP", 
		 "basiset": "6-31G**", 
		 "properties": { 
			 "R2extent": 19890.9621, 
			 "electric_dipole_moment_norm": 11.6436203773, 
			 "electric_quadrupole_moment_norm": 31.669701698, 
			 "total_energy": -1837.48957645, 
			 "HOMO_LUMO_gap": 0.16337, 
			 "cosmo_polarized_energy": -41.15, 
			 "cosmo_cavitation_energy": 64.97, 
			 "cosmo_dispersion_energy": -41.77, 
			 "cosmo_repulsion_energy": 3.05, 
			 "cosmo_total_nonelectrostatic_energy": 26.25, 
			 "SMD_solvation_energy": 12.53 
		},
		"coords": [
			{
				"x": -0.4207880991,
				"y": 1.4916885154,
				"z": -4.1821654984,
				"element": "C" 
			},
			{
				"x": -0.4286196556,
				"y": 2.9611025615,
				"z": -4.622638806,
				"element": "C" 
			},
			{
				"x": 0.7709329404,
				"y": 3.8164687372,
				"z": -4.1764922897,
				"element": "C" 
			},
			{
				"x": 0.9291892154,
				"y": 4.0734603979,
				"z": -2.6624977338,
				"element": "C" 
			},
			{
				"x": 1.7027240299,
				"y": 3.0001199512,
				"z": -1.8796945543,
				"element": "C" 
			},
			{
				"x": 2.0313127479,
				"y": 3.461059233,
				"z": -0.4497173263,
				"element": "C" 
			},
			{
				"x": 2.7887388724,
				"y": 2.4530582532,
				"z": 0.4376950609,
				"element": "C" 
			},
			{
				"x": 3.7876944589,
				"y": 1.7352696854,
				"z": -0.3033332293,
				"element": "O" 
			},
			{
				"x": 1.9932152804,
				"y": 1.3407828221,
				"z": 1.1763248616,
				"element": "C" 
			},
			{
				"x": 1.516298176,
				"y": 1.8102496128,
				"z": 2.5849604169,
				"element": "C" 
			},
			{
				"x": 0.8068011857,
				"y": 3.0196519132,
				"z": 2.5565365726,
				"element": "O" 
			},
			{
				"x": 0.81769644,
				"y": 0.684667015,
				"z": 3.3432511737,
				"element": "C" 
			},
			{
				"x": 1.1296091522,
				"y": -0.6266776591,
				"z": 3.4505965889,
				"element": "C" 
			},
			{
				"x": 2.2315890812,
				"y": -1.4939639019,
				"z": 2.9023518411,
				"element": "C" 
			},
			{
				"x": 1.9278645912,
				"y": -2.4237795202,
				"z": 1.6783395007,
				"element": "C" 
			},
			{
				"x": 1.9294449692,
				"y": -1.7085644583,
				"z": 0.2903008091,
				"element": "C" 
			},
			{
				"x": 0.8832728647,
				"y": -0.6603468319,
				"z": 0.0535587215,
				"element": "C" 
			},
			{
				"x": 0.9079328531,
				"y": 0.6329123617,
				"z": 0.4149209175,
				"element": "C" 
			},
			{
				"x": -0.4217448426,
				"y": 1.2087822403,
				"z": 0.0813349364,
				"element": "C" 
			},
			{
				"x": -0.8947067663,
				"y": 2.2802439921,
				"z": 0.4085825207,
				"element": "O" 
			},
			{
				"x": -1.1286600559,
				"y": 0.30444809,
				"z": -0.6490437521,
				"element": "O" 
			},
			{
				"x": -0.4015883419,
				"y": -0.9461724658,
				"z": -0.6989204989,
				"element": "C" 
			},
			{
				"x": -0.2142557208,
				"y": -1.3778227064,
				"z": -2.0080581958,
				"element": "O" 
			},
			{
				"x": 0.7169794025,
				"y": -3.3350987873,
				"z": 1.9443465,
				"element": "C" 
			},
			{
				"x": -0.4631971617,
				"y": -2.5415379949,
				"z": 1.9168057739,
				"element": "O" 
			},
			{
				"x": 0.5592558891,
				"y": -4.5112078102,
				"z": 0.9647663966,
				"element": "C" 
			},
			{
				"x": 1.7051389786,
				"y": -5.5203233198,
				"z": 0.9608751218,
				"element": "C" 
			},
			{
				"x": 1.2809502757,
				"y": -6.7717652646,
				"z": 0.2414097434,
				"element": "C" 
			},
			{
				"x": -0.011666295,
				"y": -7.1057262567,
				"z": 0.1431492727,
				"element": "C" 
			},
			{
				"x": -1.0670904126,
				"y": -6.3242879474,
				"z": 0.8250168494,
				"element": "C" 
			},
			{
				"x": -2.2064485982,
				"y": -6.7002671482,
				"z": 0.9625362572,
				"element": "O" 
			},
			{
				"x": -0.6795749609,
				"y": -5.1347228031,
				"z": 1.3875257105,
				"element": "O" 
			},
			{
				"x": 0.1917464333,
				"y": -1.2345871473,
				"z": 4.4452904352,
				"element": "C" 
			},
			{
				"x": 0.2148687649,
				"y": -2.3429945933,
				"z": 4.9165479343,
				"element": "O" 
			},
			{
				"x": -0.7263951449,
				"y": -0.2869815648,
				"z": 4.8259180741,
				"element": "O" 
			},
			{
				"x": -0.4064521995,
				"y": 0.9177737247,
				"z": 4.1825022531,
				"element": "C" 
			},
			{
				"x": -1.0796740646,
				"y": 1.8935061528,
				"z": 4.3425027033,
				"element": "O" 
			},
			{
				"x": -1.2194808629,
				"y": 0.9317132627,
				"z": -4.6794611559,
				"element": "H" 
			},
			{
				"x": 0.5315098672,
				"y": 1.0091832787,
				"z": -4.4403203108,
				"element": "H" 
			},
			{
				"x": -0.5870301905,
				"y": 1.3893764023,
				"z": -3.1062162892,
				"element": "H" 
			},
			{
				"x": -0.4727207522,
				"y": 2.995421696,
				"z": -5.7189944679,
				"element": "H" 
			},
			{
				"x": -1.3547110979,
				"y": 3.433948938,
				"z": -4.2696297525,
				"element": "H" 
			},
			{
				"x": 0.6750592371,
				"y": 4.7884832207,
				"z": -4.6767445758,
				"element": "H" 
			},
			{
				"x": 1.6988503635,
				"y": 3.3731535052,
				"z": -4.5672313428,
				"element": "H" 
			},
			{
				"x": -0.058549638,
				"y": 4.2177574017,
				"z": -2.2040065916,
				"element": "H" 
			},
			{
				"x": 1.4596628635,
				"y": 5.0267518166,
				"z": -2.5318829167,
				"element": "H" 
			},
			{
				"x": 1.1408264199,
				"y": 2.0624646813,
				"z": -1.8635232743,
				"element": "H" 
			},
			{
				"x": 2.6348610739,
				"y": 2.7698650959,
				"z": -2.4116797028,
				"element": "H" 
			},
			{
				"x": 2.6575055524,
				"y": 4.3621788397,
				"z": -0.525250097,
				"element": "H" 
			},
			{
				"x": 1.1248968814,
				"y": 3.7741773926,
				"z": 0.0732290206,
				"element": "H" 
			},
			{
				"x": 3.2778837096,
				"y": 3.0317283444,
				"z": 1.2367107813,
				"element": "H" 
			},
			{
				"x": 4.3043562898,
				"y": 2.3799489235,
				"z": -0.8044900778,
				"element": "H" 
			},
			{
				"x": 2.7674199547,
				"y": 0.5945085199,
				"z": 1.3636362765,
				"element": "H" 
			},
			{
				"x": 2.4307744953,
				"y": 2.0366389525,
				"z": 3.1529345748,
				"element": "H" 
			},
			{
				"x": 0.0178700618,
				"y": 2.9108130266,
				"z": 1.9933232893,
				"element": "H" 
			},
			{
				"x": 2.5211297697,
				"y": -2.1598346716,
				"z": 3.7231827559,
				"element": "H" 
			},
			{
				"x": 3.111836714,
				"y": -0.8905574839,
				"z": 2.6659987513,
				"element": "H" 
			},
			{
				"x": 2.8002209966,
				"y": -3.0887612311,
				"z": 1.6421445393,
				"element": "H" 
			},
			{
				"x": 1.843493399,
				"y": -2.4664696363,
				"z": -0.4962186743,
				"element": "H" 
			},
			{
				"x": 2.915289692,
				"y": -1.2481376383,
				"z": 0.1604951943,
				"element": "H" 
			},
			{
				"x": -1.0136777365,
				"y": -1.6993706771,
				"z": -0.2026047794,
				"element": "H" 
			},
			{
				"x": 0.3229708163,
				"y": -0.7208516031,
				"z": -2.4762209631,
				"element": "H" 
			},
			{
				"x": 0.8403571529,
				"y": -3.7688469103,
				"z": 2.9475440693,
				"element": "H" 
			},
			{
				"x": -1.2010479744,
				"y": -3.1343889224,
				"z": 2.1267471646,
				"element": "H" 
			},
			{
				"x": 0.4009113132,
				"y": -4.1366529823,
				"z": -0.0548684732,
				"element": "H" 
			},
			{
				"x": 2.5814505946,
				"y": -5.084074594,
				"z": 0.46874455,
				"element": "H" 
			},
			{
				"x": 2.0120189898,
				"y": -5.7651967813,
				"z": 1.9888558119,
				"element": "H" 
			},
			{
				"x": 2.050382495,
				"y": -7.4097388706,
				"z": -0.1869875725,
				"element": "H" 
			},
			{
				"x": -0.3520147341,
				"y": -8.0037483745,
				"z": -0.3597008242,
				"element": "H" 
			}
		],
		 "valence_orbital": [ 
			{
				"type": "occ",
				"energy": -0.28544,
				"method": "rhf"
			},
			{
				"type": "occ",
				"energy": -0.28081,
				"method": "rhf"
			},
			{
				"type": "occ",
				"energy": -0.27909,
				"method": "rhf"
			},
			{
				"type": "occ",
				"energy": -0.27731,
				"method": "rhf"
			},
			{
				"type": "occ",
				"energy": -0.26153,
				"method": "rhf"
			},
			{
				"type": "unocc",
				"energy": -0.09816,
				"method": "rhf"
			},
			{
				"type": "unocc",
				"energy": -0.06421,
				"method": "rhf"
			},
			{
				"type": "unocc",
				"energy": -0.06338,
				"method": "rhf"
			},
			{
				"type": "unocc",
				"energy": 0.03093,
				"method": "rhf"
			},
			{
				"type": "unocc",
				"energy": 0.03564,
				"method": "rhf"
			}
		],
		"cosmo_sigma_profile": { 
			"-0.025": 0.0,
			"-0.024": 0.0,
			"-0.023": 0.0,
			"-0.022": 0.0,
			"-0.021": 0.0,
			"-0.02": 0.0,
			"-0.019": 0.0,
			"-0.018": 0.0,
			"-0.017": 0.0,
			"-0.016": 0.0472278862417,
			"-0.015": 0.691222676822,
			"-0.014": 1.351796997,
			"-0.013": 1.87999846655,
			"-0.012": 2.52011235849,
			"-0.011": 3.82676723724,
			"-0.01": 4.27798412443,
			"-0.009": 6.62559347409,
			"-0.008": 11.3222545354,
			"-0.007": 24.1221926187,
			"-0.006": 33.3119354805,
			"-0.005": 31.0797912476,
			"-0.004": 30.6342176335,
			"-0.003": 29.9795934215,
			"-0.002": 34.6588674949,
			"-0.001": 42.3239395808,
			"0.0": 45.7359925859,
			"0.001": 40.3865881348,
			"0.002": 21.9423608546,
			"0.003": 15.5575770076,
			"0.004": 12.9478208146,
			"0.005": 10.8735407711,
			"0.006": 13.5400232956,
			"0.007": 14.6893225236,
			"0.008": 13.8152757052,
			"0.009": 13.7433409405,
			"0.01": 16.1189681116,
			"0.011": 11.8499054227,
			"0.012": 11.1561638137,
			"0.013": 4.72319398847,
			"0.014": 1.82108933718,
			"0.015": 0.0355517219375,
			"0.016": 0.0,
			"0.017": 0.0,
			"0.018": 0.0,
			"0.019": 0.0,
			"0.02": 0.0,
			"0.021": 0.0,
			"0.022": 0.0,
			"0.023": 0.0,
			"0.024": 0.0,
			"0.025": 0.0
		}
	}
}
