{
	 "smiles": "NS(=O)(=O)C1=CC(F)=CC(F)=C1", 
	 "Tm": 432.15, 
	 "num_atms": 17, 
	 "gaussian": { 
		 "optdone": 1, 
		 "sigma_profile": "yes", 
		 "theory": "DFT", 
		 "functional": "B3LYP", 
		 "basiset": "6-31G**", 
		 "properties": { 
			 "R2extent": 3792.879, 
			 "electric_dipole_moment_norm": 3.00401068407, 
			 "electric_quadrupole_moment_norm": 19.9283992453, 
			 "total_energy": -1034.63251401, 
			 "HOMO_LUMO_gap": 0.21683, 
			 "cosmo_polarized_energy": -13.41, 
			 "cosmo_cavitation_energy": 24.27, 
			 "cosmo_dispersion_energy": -18.13, 
			 "cosmo_repulsion_energy": 1.36, 
			 "cosmo_total_nonelectrostatic_energy": 7.5, 
			 "SMD_solvation_energy": 4.9 
		},
		"coords": [
			{
				"x": -2.1470788635,
				"y": -1.0327899201,
				"z": -2.5708520739,
				"element": "N" 
			},
			{
				"x": -2.5589528115,
				"y": -2.0423374877,
				"z": -1.2783727106,
				"element": "S" 
			},
			{
				"x": -3.8097329364,
				"y": -1.5338084209,
				"z": -0.710878396,
				"element": "O" 
			},
			{
				"x": -2.402198001,
				"y": -3.423893238,
				"z": -1.738596815,
				"element": "O" 
			},
			{
				"x": -1.2551093155,
				"y": -1.7217881992,
				"z": -0.0820066343,
				"element": "C" 
			},
			{
				"x": -1.440961716,
				"y": -0.7060908512,
				"z": 0.8548976914,
				"element": "C" 
			},
			{
				"x": -0.4112703676,
				"y": -0.4764167843,
				"z": 1.7609843427,
				"element": "C" 
			},
			{
				"x": -0.5578437635,
				"y": 0.4940387315,
				"z": 2.6786760581,
				"element": "F" 
			},
			{
				"x": 0.7660281458,
				"y": -1.2171492258,
				"z": 1.7592428064,
				"element": "C" 
			},
			{
				"x": 0.8931567838,
				"y": -2.2240546833,
				"z": 0.8080788241,
				"element": "C" 
			},
			{
				"x": 2.0186823423,
				"y": -2.9578716177,
				"z": 0.7964659481,
				"element": "F" 
			},
			{
				"x": -0.1004537078,
				"y": -2.502142527,
				"z": -0.1243507774,
				"element": "C" 
			},
			{
				"x": -1.9687536647,
				"y": -1.5941971572,
				"z": -3.3992888994,
				"element": "H" 
			},
			{
				"x": -2.8902248366,
				"y": -0.3569085288,
				"z": -2.7264208072,
				"element": "H" 
			},
			{
				"x": -2.3565602335,
				"y": -0.1292995664,
				"z": 0.8942150818,
				"element": "H" 
			},
			{
				"x": 1.5521418446,
				"y": -1.0225418258,
				"z": 2.4784561848,
				"element": "H" 
			},
			{
				"x": 0.015731101,
				"y": -3.307648698,
				"z": -0.8386498236,
				"element": "H" 
			}
		],
		 "valence_orbital": [ 
			{
				"type": "occ",
				"energy": -0.32853,
				"method": "rhf"
			},
			{
				"type": "occ",
				"energy": -0.31622,
				"method": "rhf"
			},
			{
				"type": "occ",
				"energy": -0.31059,
				"method": "rhf"
			},
			{
				"type": "occ",
				"energy": -0.27818,
				"method": "rhf"
			},
			{
				"type": "occ",
				"energy": -0.26842,
				"method": "rhf"
			},
			{
				"type": "unocc",
				"energy": -0.05159,
				"method": "rhf"
			},
			{
				"type": "unocc",
				"energy": -0.02216,
				"method": "rhf"
			},
			{
				"type": "unocc",
				"energy": 0.0386,
				"method": "rhf"
			},
			{
				"type": "unocc",
				"energy": 0.07347,
				"method": "rhf"
			},
			{
				"type": "unocc",
				"energy": 0.07639,
				"method": "rhf"
			}
		],
		"cosmo_sigma_profile": { 
			"-0.025": 0.0,
			"-0.024": 0.0,
			"-0.023": 0.0,
			"-0.022": 0.0,
			"-0.021": 0.0,
			"-0.02": 0.0,
			"-0.019": 0.0,
			"-0.018": 0.0,
			"-0.017": 0.0,
			"-0.016": 0.221644952389,
			"-0.015": 1.71336847537,
			"-0.014": 2.58400425278,
			"-0.013": 2.47701989717,
			"-0.012": 2.43715593268,
			"-0.011": 1.60774054507,
			"-0.01": 2.38503426013,
			"-0.009": 4.50454920607,
			"-0.008": 4.79162854098,
			"-0.007": 6.20690766036,
			"-0.006": 6.06846573143,
			"-0.005": 6.74368972371,
			"-0.004": 5.73441941628,
			"-0.003": 7.48585380074,
			"-0.002": 12.098094104,
			"-0.001": 23.9749213477,
			"0.0": 17.1224392263,
			"0.001": 10.5680969562,
			"0.002": 9.06380757283,
			"0.003": 20.3493924105,
			"0.004": 10.8313886171,
			"0.005": 2.74047931684,
			"0.006": 2.8520760217,
			"0.007": 4.45954652278,
			"0.008": 3.50491934406,
			"0.009": 4.29551204576,
			"0.01": 9.58030981566,
			"0.011": 7.71916002527,
			"0.012": 0.917122421145,
			"0.013": 0.0,
			"0.014": 0.0,
			"0.015": 0.0,
			"0.016": 0.0,
			"0.017": 0.0,
			"0.018": 0.0,
			"0.019": 0.0,
			"0.02": 0.0,
			"0.021": 0.0,
			"0.022": 0.0,
			"0.023": 0.0,
			"0.024": 0.0,
			"0.025": 0.0
		}
	}
}
