{
	 "smiles": "CN1CCN(CC1)C1=CC=C(C=O)C=C1", 
	 "Tm": 331.65, 
	 "num_atms": 31, 
	 "gaussian": { 
		 "optdone": 1, 
		 "sigma_profile": "yes", 
		 "theory": "DFT", 
		 "functional": "B3LYP", 
		 "basiset": "6-31G**", 
		 "properties": { 
			 "R2extent": 5245.2144, 
			 "electric_dipole_moment_norm": 5.21997363691, 
			 "electric_quadrupole_moment_norm": 26.1121422821, 
			 "total_energy": -651.623749552, 
			 "HOMO_LUMO_gap": 0.15622, 
			 "cosmo_polarized_energy": -12.19, 
			 "cosmo_cavitation_energy": 32.35, 
			 "cosmo_dispersion_energy": -23.7, 
			 "cosmo_repulsion_energy": 1.82, 
			 "cosmo_total_nonelectrostatic_energy": 10.46, 
			 "SMD_solvation_energy": 2.39 
		},
		"coords": [
			{
				"x": 1.5014732915,
				"y": 3.8525331518,
				"z": 0.0012637739,
				"element": "C" 
			},
			{
				"x": 2.0841937115,
				"y": 2.5451282531,
				"z": -0.2816413003,
				"element": "N" 
			},
			{
				"x": 2.4717124732,
				"y": 1.7869760242,
				"z": 0.9046344782,
				"element": "C" 
			},
			{
				"x": 1.2981515398,
				"y": 1.1437416701,
				"z": 1.6660973119,
				"element": "C" 
			},
			{
				"x": 0.4878668909,
				"y": 0.3278759329,
				"z": 0.7588776159,
				"element": "N" 
			},
			{
				"x": 0.0635964828,
				"y": 1.0599633068,
				"z": -0.4449633111,
				"element": "C" 
			},
			{
				"x": 1.2709487847,
				"y": 1.6964431885,
				"z": -1.1498028907,
				"element": "C" 
			},
			{
				"x": -0.352280538,
				"y": -0.6531804264,
				"z": 1.290863635,
				"element": "C" 
			},
			{
				"x": -1.0578391093,
				"y": -1.5392801051,
				"z": 0.440658071,
				"element": "C" 
			},
			{
				"x": -1.8593517012,
				"y": -2.5411403727,
				"z": 0.9637284414,
				"element": "C" 
			},
			{
				"x": -1.9993228746,
				"y": -2.7122487383,
				"z": 2.3494955783,
				"element": "C" 
			},
			{
				"x": -2.8533210072,
				"y": -3.7774046758,
				"z": 2.8928819242,
				"element": "C" 
			},
			{
				"x": -3.0303441294,
				"y": -3.9979511093,
				"z": 4.0795392119,
				"element": "O" 
			},
			{
				"x": -1.3056221328,
				"y": -1.838356465,
				"z": 3.1996796996,
				"element": "C" 
			},
			{
				"x": -0.5038504169,
				"y": -0.8296700474,
				"z": 2.6890816849,
				"element": "C" 
			},
			{
				"x": 1.325398631,
				"y": 4.377915232,
				"z": -0.9432812482,
				"element": "H" 
			},
			{
				"x": 0.5481512376,
				"y": 3.8395895544,
				"z": 0.5580902421,
				"element": "H" 
			},
			{
				"x": 2.2159417707,
				"y": 4.4440137888,
				"z": 0.5833269689,
				"element": "H" 
			},
			{
				"x": 3.0287386249,
				"y": 2.4402602005,
				"z": 1.5851617155,
				"element": "H" 
			},
			{
				"x": 3.1501259307,
				"y": 0.9851552313,
				"z": 0.585208887,
				"element": "H" 
			},
			{
				"x": 1.7124493714,
				"y": 0.5009133447,
				"z": 2.4466205151,
				"element": "H" 
			},
			{
				"x": 0.687593362,
				"y": 1.9168742035,
				"z": 2.164936466,
				"element": "H" 
			},
			{
				"x": -0.6735114973,
				"y": 1.8350111912,
				"z": -0.1730509794,
				"element": "H" 
			},
			{
				"x": -0.4320935997,
				"y": 0.3805785527,
				"z": -1.1381918725,
				"element": "H" 
			},
			{
				"x": 0.924220612,
				"y": 2.2839778743,
				"z": -2.0070960467,
				"element": "H" 
			},
			{
				"x": 1.9119445999,
				"y": 0.8921659882,
				"z": -1.5342894918,
				"element": "H" 
			},
			{
				"x": -0.9494693139,
				"y": -1.4631129856,
				"z": -0.6348558002,
				"element": "H" 
			},
			{
				"x": -2.3815044914,
				"y": -3.2145234286,
				"z": 0.2870363383,
				"element": "H" 
			},
			{
				"x": -3.3554518269,
				"y": -4.4030655291,
				"z": 2.1192242314,
				"element": "H" 
			},
			{
				"x": -1.4234721633,
				"y": -1.9611126395,
				"z": 4.2721270921,
				"element": "H" 
			},
			{
				"x": -0.0108725128,
				"y": -0.1578701662,
				"z": 3.3804390584,
				"element": "H" 
			}
		],
		 "valence_orbital": [ 
			{
				"type": "occ",
				"energy": -0.29045,
				"method": "rhf"
			},
			{
				"type": "occ",
				"energy": -0.25845,
				"method": "rhf"
			},
			{
				"type": "occ",
				"energy": -0.23933,
				"method": "rhf"
			},
			{
				"type": "occ",
				"energy": -0.22235,
				"method": "rhf"
			},
			{
				"type": "occ",
				"energy": -0.20183,
				"method": "rhf"
			},
			{
				"type": "unocc",
				"energy": -0.04561,
				"method": "rhf"
			},
			{
				"type": "unocc",
				"energy": -0.00599,
				"method": "rhf"
			},
			{
				"type": "unocc",
				"energy": 0.05201,
				"method": "rhf"
			},
			{
				"type": "unocc",
				"energy": 0.06958,
				"method": "rhf"
			},
			{
				"type": "unocc",
				"energy": 0.09223,
				"method": "rhf"
			}
		],
		"cosmo_sigma_profile": { 
			"-0.025": 0.0,
			"-0.024": 0.0,
			"-0.023": 0.0,
			"-0.022": 0.0,
			"-0.021": 0.0,
			"-0.02": 0.0,
			"-0.019": 0.0,
			"-0.018": 0.0,
			"-0.017": 0.0,
			"-0.016": 0.0,
			"-0.015": 0.0,
			"-0.014": 0.0,
			"-0.013": 0.0,
			"-0.012": 0.0,
			"-0.011": 0.0,
			"-0.01": 0.0,
			"-0.009": 0.0,
			"-0.008": 0.837422444845,
			"-0.007": 3.23742395647,
			"-0.006": 10.1260753907,
			"-0.005": 14.6589921629,
			"-0.004": 28.4472177806,
			"-0.003": 40.0633453301,
			"-0.002": 29.409616067,
			"-0.001": 20.2864196892,
			"0.0": 18.4007633562,
			"0.001": 10.8293984697,
			"0.002": 12.3066704373,
			"0.003": 11.5765021127,
			"0.004": 14.9209291534,
			"0.005": 9.86217411058,
			"0.006": 3.92582530327,
			"0.007": 2.82976292242,
			"0.008": 3.38184071143,
			"0.009": 2.36345235302,
			"0.01": 2.1771753803,
			"0.011": 3.32969033146,
			"0.012": 5.37426686757,
			"0.013": 3.94514552156,
			"0.014": 1.10859490968,
			"0.015": 0.483209214302,
			"0.016": 0.344183164766,
			"0.017": 0.115581679627,
			"0.018": 0.0,
			"0.019": 0.0,
			"0.02": 0.0,
			"0.021": 0.0,
			"0.022": 0.0,
			"0.023": 0.0,
			"0.024": 0.0,
			"0.025": 0.0
		}
	}
}
