{
	 "smiles": "FC1=CC=C(C=C1)N1CCNCC1", 
	 "Tm": 304.95, 
	 "num_atms": 26, 
	 "gaussian": { 
		 "optdone": 1, 
		 "sigma_profile": "yes", 
		 "theory": "DFT", 
		 "functional": "B3LYP", 
		 "basiset": "6-31G**", 
		 "properties": { 
			 "R2extent": 2982.6493, 
			 "electric_dipole_moment_norm": 2.65727778375, 
			 "electric_quadrupole_moment_norm": 9.39030119272, 
			 "total_energy": -598.217807495, 
			 "HOMO_LUMO_gap": 0.18078, 
			 "cosmo_polarized_energy": -7.62, 
			 "cosmo_cavitation_energy": 27.69, 
			 "cosmo_dispersion_energy": -20.58, 
			 "cosmo_repulsion_energy": 1.59, 
			 "cosmo_total_nonelectrostatic_energy": 8.7, 
			 "SMD_solvation_energy": 1.43 
		},
		"coords": [
			{
				"x": -1.2396959772,
				"y": 3.2904238883,
				"z": -2.6945033977,
				"element": "F" 
			},
			{
				"x": -0.8975361495,
				"y": 2.3221828346,
				"z": -1.8117412978,
				"element": "C" 
			},
			{
				"x": -0.6247472538,
				"y": 2.6652977219,
				"z": -0.4923395888,
				"element": "C" 
			},
			{
				"x": -0.2652101808,
				"y": 1.6704268839,
				"z": 0.411044173,
				"element": "C" 
			},
			{
				"x": -0.1912943524,
				"y": 0.3130670094,
				"z": 0.0265813645,
				"element": "C" 
			},
			{
				"x": -0.4815906356,
				"y": 0.0069461891,
				"z": -1.3185218709,
				"element": "C" 
			},
			{
				"x": -0.821634661,
				"y": 1.0041562879,
				"z": -2.234517224,
				"element": "C" 
			},
			{
				"x": 0.2205762578,
				"y": -0.6578557066,
				"z": 0.9586772914,
				"element": "N" 
			},
			{
				"x": 0.5353882659,
				"y": -2.0196484475,
				"z": 0.5306720702,
				"element": "C" 
			},
			{
				"x": -0.6722003033,
				"y": -2.9614715964,
				"z": 0.6367010034,
				"element": "C" 
			},
			{
				"x": -1.1505706677,
				"y": -2.9370781661,
				"z": 2.0216327322,
				"element": "N" 
			},
			{
				"x": -1.5465535402,
				"y": -1.5875893371,
				"z": 2.4302928721,
				"element": "C" 
			},
			{
				"x": -0.3340342348,
				"y": -0.6518563471,
				"z": 2.3172421062,
				"element": "C" 
			},
			{
				"x": -0.674445824,
				"y": 3.7053478919,
				"z": -0.1872256364,
				"element": "H" 
			},
			{
				"x": -0.0073405363,
				"y": 1.9578806308,
				"z": 1.4245549446,
				"element": "H" 
			},
			{
				"x": -0.4617611967,
				"y": -1.0192594321,
				"z": -1.6649747927,
				"element": "H" 
			},
			{
				"x": -1.0441965662,
				"y": 0.7580728752,
				"z": -3.2675735903,
				"element": "H" 
			},
			{
				"x": 1.3191960602,
				"y": -2.4014158059,
				"z": 1.1983384118,
				"element": "H" 
			},
			{
				"x": 0.9465041494,
				"y": -2.0048219682,
				"z": -0.4806157339,
				"element": "H" 
			},
			{
				"x": -0.368419091,
				"y": -3.9839346481,
				"z": 0.3837939674,
				"element": "H" 
			},
			{
				"x": -1.4447204671,
				"y": -2.6496053001,
				"z": -0.0909478824,
				"element": "H" 
			},
			{
				"x": -1.9319142252,
				"y": -3.5768426644,
				"z": 2.1315605133,
				"element": "H" 
			},
			{
				"x": -2.3672551787,
				"y": -1.1719118291,
				"z": 1.8149411651,
				"element": "H" 
			},
			{
				"x": -1.8916965778,
				"y": -1.6189427618,
				"z": 3.4702695247,
				"element": "H" 
			},
			{
				"x": 0.4438209078,
				"y": -0.9936780693,
				"z": 3.0121765655,
				"element": "H" 
			},
			{
				"x": -0.6188680219,
				"y": 0.3610098669,
				"z": 2.6027823097,
				"element": "H" 
			}
		],
		 "valence_orbital": [ 
			{
				"type": "occ",
				"energy": -0.32875,
				"method": "rhf"
			},
			{
				"type": "occ",
				"energy": -0.2693,
				"method": "rhf"
			},
			{
				"type": "occ",
				"energy": -0.25103,
				"method": "rhf"
			},
			{
				"type": "occ",
				"energy": -0.22973,
				"method": "rhf"
			},
			{
				"type": "occ",
				"energy": -0.18433,
				"method": "rhf"
			},
			{
				"type": "unocc",
				"energy": -0.00355,
				"method": "rhf"
			},
			{
				"type": "unocc",
				"energy": 0.02083,
				"method": "rhf"
			},
			{
				"type": "unocc",
				"energy": 0.07937,
				"method": "rhf"
			},
			{
				"type": "unocc",
				"energy": 0.09179,
				"method": "rhf"
			},
			{
				"type": "unocc",
				"energy": 0.11337,
				"method": "rhf"
			}
		],
		"cosmo_sigma_profile": { 
			"-0.025": 0.0,
			"-0.024": 0.0,
			"-0.023": 0.0,
			"-0.022": 0.0,
			"-0.021": 0.0,
			"-0.02": 0.0,
			"-0.019": 0.0,
			"-0.018": 0.0,
			"-0.017": 0.0,
			"-0.016": 0.0,
			"-0.015": 0.0,
			"-0.014": 0.0,
			"-0.013": 0.0,
			"-0.012": 0.0,
			"-0.011": 0.0429283842519,
			"-0.01": 1.09529848141,
			"-0.009": 1.42130378028,
			"-0.008": 1.05263019309,
			"-0.007": 3.52254254203,
			"-0.006": 9.66944517083,
			"-0.005": 11.1408582877,
			"-0.004": 17.2201343681,
			"-0.003": 23.6080567761,
			"-0.002": 24.6698736462,
			"-0.001": 24.2786249367,
			"0.0": 13.4772236821,
			"0.001": 9.53121179441,
			"0.002": 12.8576714337,
			"0.003": 12.6216531869,
			"0.004": 12.7968810128,
			"0.005": 21.4117220282,
			"0.006": 8.12259814781,
			"0.007": 1.60768046842,
			"0.008": 1.75657642143,
			"0.009": 0.870504259035,
			"0.01": 1.10781085413,
			"0.011": 0.966686200642,
			"0.012": 0.624301655835,
			"0.013": 0.351634039589,
			"0.014": 0.663165560023,
			"0.015": 0.142776906484,
			"0.016": 0.323169692954,
			"0.017": 0.882213219988,
			"0.018": 0.144248260845,
			"0.019": 0.0,
			"0.02": 0.0,
			"0.021": 0.0,
			"0.022": 0.0,
			"0.023": 0.0,
			"0.024": 0.0,
			"0.025": 0.0
		}
	}
}
