{
	 "smiles": "CC(C)(C)OC(=O)NCC#CC1=CC=C(OCC2=CC=CC=C2)C=C1", 
	 "Tm": 378.15, 
	 "num_atms": 48, 
	 "gaussian": { 
		 "optdone": 1, 
		 "sigma_profile": "yes", 
		 "theory": "DFT", 
		 "functional": "B3LYP", 
		 "basiset": "6-31G**", 
		 "properties": { 
			 "R2extent": 20864.9802, 
			 "electric_dipole_moment_norm": 3.50987357322, 
			 "electric_quadrupole_moment_norm": 15.4318654112, 
			 "total_energy": -1094.49116179, 
			 "HOMO_LUMO_gap": 0.18881, 
			 "cosmo_polarized_energy": -14.55, 
			 "cosmo_cavitation_energy": 52.99, 
			 "cosmo_dispersion_energy": -36.77, 
			 "cosmo_repulsion_energy": 2.87, 
			 "cosmo_total_nonelectrostatic_energy": 19.08, 
			 "SMD_solvation_energy": 9.59 
		},
		"coords": [
			{
				"x": 5.8839200355,
				"y": -4.6327155297,
				"z": 1.5721645727,
				"element": "C" 
			},
			{
				"x": 5.7313648514,
				"y": -3.3222283964,
				"z": 2.3489909262,
				"element": "C" 
			},
			{
				"x": 7.0960833768,
				"y": -2.8055340893,
				"z": 2.8172227333,
				"element": "C" 
			},
			{
				"x": 4.7446151705,
				"y": -3.4899031755,
				"z": 3.5096157245,
				"element": "C" 
			},
			{
				"x": 5.1689167906,
				"y": -2.4154188826,
				"z": 1.3367157038,
				"element": "O" 
			},
			{
				"x": 4.8939072785,
				"y": -1.1229544957,
				"z": 1.6371343409,
				"element": "C" 
			},
			{
				"x": 5.0405732599,
				"y": -0.5819273959,
				"z": 2.7219264667,
				"element": "O" 
			},
			{
				"x": 4.4418254288,
				"y": -0.4882104664,
				"z": 0.5097820074,
				"element": "N" 
			},
			{
				"x": 3.8530881082,
				"y": 0.8448158837,
				"z": 0.582833374,
				"element": "C" 
			},
			{
				"x": 2.4170624038,
				"y": 0.8638707012,
				"z": 0.2901406073,
				"element": "C" 
			},
			{
				"x": 1.2341361973,
				"y": 0.8727482968,
				"z": 0.020600684,
				"element": "C" 
			},
			{
				"x": -0.1622466722,
				"y": 0.8816408937,
				"z": -0.2786103815,
				"element": "C" 
			},
			{
				"x": -0.6346230557,
				"y": 1.3457954202,
				"z": -1.5180643024,
				"element": "C" 
			},
			{
				"x": -1.9957705569,
				"y": 1.3598229702,
				"z": -1.8175564904,
				"element": "C" 
			},
			{
				"x": -2.917358935,
				"y": 0.8970432015,
				"z": -0.8697638751,
				"element": "C" 
			},
			{
				"x": -4.2715496497,
				"y": 0.8484291164,
				"z": -1.052482473,
				"element": "O" 
			},
			{
				"x": -4.8169329094,
				"y": 1.1588635642,
				"z": -2.3338703344,
				"element": "C" 
			},
			{
				"x": -4.90347465,
				"y": 2.6436584727,
				"z": -2.6320846135,
				"element": "C" 
			},
			{
				"x": -5.0999123176,
				"y": 3.5718394166,
				"z": -1.6031315546,
				"element": "C" 
			},
			{
				"x": -5.2318460966,
				"y": 4.9296289369,
				"z": -1.8948599517,
				"element": "C" 
			},
			{
				"x": -5.1776715008,
				"y": 5.3741250167,
				"z": -3.2178134564,
				"element": "C" 
			},
			{
				"x": -4.9848609705,
				"y": 4.4532227426,
				"z": -4.2488291137,
				"element": "C" 
			},
			{
				"x": -4.8441012897,
				"y": 3.0957218044,
				"z": -3.9555100843,
				"element": "C" 
			},
			{
				"x": -2.4624728411,
				"y": 0.4340744091,
				"z": 0.3747029557,
				"element": "C" 
			},
			{
				"x": -1.1072766042,
				"y": 0.4275157279,
				"z": 0.6658932672,
				"element": "C" 
			},
			{
				"x": 6.2997443191,
				"y": -5.4085997757,
				"z": 2.2218466993,
				"element": "H" 
			},
			{
				"x": 4.914297438,
				"y": -4.9756897597,
				"z": 1.1994560652,
				"element": "H" 
			},
			{
				"x": 6.5542503485,
				"y": -4.4996752974,
				"z": 0.7179571705,
				"element": "H" 
			},
			{
				"x": 7.5585942888,
				"y": -3.5405708393,
				"z": 3.4840530067,
				"element": "H" 
			},
			{
				"x": 7.7609775644,
				"y": -2.6589162492,
				"z": 1.9600362332,
				"element": "H" 
			},
			{
				"x": 6.9932250891,
				"y": -1.8605564308,
				"z": 3.3511507851,
				"element": "H" 
			},
			{
				"x": 5.1171937768,
				"y": -4.2519037482,
				"z": 4.2020720679,
				"element": "H" 
			},
			{
				"x": 4.6167057685,
				"y": -2.5524563423,
				"z": 4.0511777438,
				"element": "H" 
			},
			{
				"x": 3.77029263,
				"y": -3.8190210665,
				"z": 3.1345408725,
				"element": "H" 
			},
			{
				"x": 4.2244878662,
				"y": -1.0698924593,
				"z": -0.2860206502,
				"element": "H" 
			},
			{
				"x": 4.0491232689,
				"y": 1.2051084633,
				"z": 1.5977910417,
				"element": "H" 
			},
			{
				"x": 4.3765204673,
				"y": 1.5202317277,
				"z": -0.107085955,
				"element": "H" 
			},
			{
				"x": 0.0771805016,
				"y": 1.7077497073,
				"z": -2.2531445525,
				"element": "H" 
			},
			{
				"x": -2.3257721486,
				"y": 1.7512098709,
				"z": -2.7717799368,
				"element": "H" 
			},
			{
				"x": -4.2598621244,
				"y": 0.637384089,
				"z": -3.123385989,
				"element": "H" 
			},
			{
				"x": -5.8223367481,
				"y": 0.7247070101,
				"z": -2.3028617405,
				"element": "H" 
			},
			{
				"x": -5.1383832275,
				"y": 3.2244811836,
				"z": -0.5754215764,
				"element": "H" 
			},
			{
				"x": -5.3775871711,
				"y": 5.6419121255,
				"z": -1.0876724112,
				"element": "H" 
			},
			{
				"x": -5.2808618647,
				"y": 6.4316178237,
				"z": -3.4431126894,
				"element": "H" 
			},
			{
				"x": -4.9353482864,
				"y": 4.7909245591,
				"z": -5.2801395368,
				"element": "H" 
			},
			{
				"x": -4.6862410212,
				"y": 2.382928631,
				"z": -4.7622539185,
				"element": "H" 
			},
			{
				"x": -3.1935830975,
				"y": 0.0800544761,
				"z": 1.0940916987,
				"element": "H" 
			},
			{
				"x": -0.7614124898,
				"y": 0.0670481577,
				"z": 1.629258839,
				"element": "H" 
			}
		],
		 "valence_orbital": [ 
			{
				"type": "occ",
				"energy": -0.25661,
				"method": "rhf"
			},
			{
				"type": "occ",
				"energy": -0.25529,
				"method": "rhf"
			},
			{
				"type": "occ",
				"energy": -0.25178,
				"method": "rhf"
			},
			{
				"type": "occ",
				"energy": -0.24852,
				"method": "rhf"
			},
			{
				"type": "occ",
				"energy": -0.20853,
				"method": "rhf"
			},
			{
				"type": "unocc",
				"energy": -0.01972,
				"method": "rhf"
			},
			{
				"type": "unocc",
				"energy": -0.01123,
				"method": "rhf"
			},
			{
				"type": "unocc",
				"energy": -0.00799,
				"method": "rhf"
			},
			{
				"type": "unocc",
				"energy": -0.00127,
				"method": "rhf"
			},
			{
				"type": "unocc",
				"energy": 0.0581,
				"method": "rhf"
			}
		],
		"cosmo_sigma_profile": { 
			"-0.025": 0.0,
			"-0.024": 0.0,
			"-0.023": 0.0,
			"-0.022": 0.0,
			"-0.021": 0.0,
			"-0.02": 0.0,
			"-0.019": 0.0,
			"-0.018": 0.0,
			"-0.017": 0.0,
			"-0.016": 0.0,
			"-0.015": 0.0174265152296,
			"-0.014": 0.567196308565,
			"-0.013": 1.01190746327,
			"-0.012": 0.616436777474,
			"-0.011": 0.974581985391,
			"-0.01": 0.531100758145,
			"-0.009": 1.50316177325,
			"-0.008": 0.613927647936,
			"-0.007": 4.70874577183,
			"-0.006": 20.7973038891,
			"-0.005": 26.476783969,
			"-0.004": 37.109490785,
			"-0.003": 37.8250330815,
			"-0.002": 30.3308313806,
			"-0.001": 33.802174249,
			"0.0": 39.1165489813,
			"0.001": 35.9138724217,
			"0.002": 27.3431385466,
			"0.003": 28.2081217177,
			"0.004": 34.6780925158,
			"0.005": 23.9129160206,
			"0.006": 15.819392668,
			"0.007": 4.4244234147,
			"0.008": 2.87757606348,
			"0.009": 2.26625579088,
			"0.01": 2.23582702051,
			"0.011": 1.67323975916,
			"0.012": 1.63695683257,
			"0.013": 3.13494365124,
			"0.014": 0.27554121151,
			"0.015": 0.0,
			"0.016": 0.0,
			"0.017": 0.0,
			"0.018": 0.0,
			"0.019": 0.0,
			"0.02": 0.0,
			"0.021": 0.0,
			"0.022": 0.0,
			"0.023": 0.0,
			"0.024": 0.0,
			"0.025": 0.0
		}
	}
}
