{
	 "smiles": "CC(N)C(O)C1=CC(O)=CC=C1", 
	 "Tm": 381.15, 
	 "num_atms": 25, 
	 "gaussian": { 
		 "optdone": 1, 
		 "sigma_profile": "yes", 
		 "theory": "DFT", 
		 "functional": "B3LYP", 
		 "basiset": "6-31G**", 
		 "properties": { 
			 "R2extent": 3243.5702, 
			 "electric_dipole_moment_norm": 0.681866907835, 
			 "electric_quadrupole_moment_norm": 10.9209267441, 
			 "total_energy": -555.981571556, 
			 "HOMO_LUMO_gap": 0.21432, 
			 "cosmo_polarized_energy": -15.24, 
			 "cosmo_cavitation_energy": 27.35, 
			 "cosmo_dispersion_energy": -19.79, 
			 "cosmo_repulsion_energy": 1.59, 
			 "cosmo_total_nonelectrostatic_energy": 9.15, 
			 "SMD_solvation_energy": 3.77 
		},
		"coords": [
			{
				"x": 1.0878412651,
				"y": 2.2036028298,
				"z": 2.4276600152,
				"element": "C" 
			},
			{
				"x": -0.206082773,
				"y": 1.54630046,
				"z": 1.9334579357,
				"element": "C" 
			},
			{
				"x": -1.2406727245,
				"y": 2.5758363071,
				"z": 1.7919425432,
				"element": "N" 
			},
			{
				"x": 0.0058611424,
				"y": 0.7357976292,
				"z": 0.61712658,
				"element": "C" 
			},
			{
				"x": 0.3558552636,
				"y": 1.6201900584,
				"z": -0.4463264636,
				"element": "O" 
			},
			{
				"x": 0.9690111683,
				"y": -0.441294437,
				"z": 0.7462312671,
				"element": "C" 
			},
			{
				"x": 0.7947588283,
				"y": -1.3852617181,
				"z": 1.7700210121,
				"element": "C" 
			},
			{
				"x": 1.6640775724,
				"y": -2.4715085659,
				"z": 1.8945066733,
				"element": "C" 
			},
			{
				"x": 1.5283997508,
				"y": -3.4111879466,
				"z": 2.8777002916,
				"element": "O" 
			},
			{
				"x": 2.724468131,
				"y": -2.6331685922,
				"z": 0.9945061534,
				"element": "C" 
			},
			{
				"x": 2.8886430639,
				"y": -1.7048272471,
				"z": -0.0271631584,
				"element": "C" 
			},
			{
				"x": 2.0197208365,
				"y": -0.6170426032,
				"z": -0.1595723358,
				"element": "C" 
			},
			{
				"x": 1.8830651303,
				"y": 1.468056478,
				"z": 2.5786520158,
				"element": "H" 
			},
			{
				"x": 0.8993244699,
				"y": 2.7243469757,
				"z": 3.3689931225,
				"element": "H" 
			},
			{
				"x": 1.4458169898,
				"y": 2.9564632068,
				"z": 1.713876419,
				"element": "H" 
			},
			{
				"x": -0.5493685443,
				"y": 0.848115614,
				"z": 2.7064756785,
				"element": "H" 
			},
			{
				"x": -2.1397282582,
				"y": 2.1340147096,
				"z": 1.6070313057,
				"element": "H" 
			},
			{
				"x": -1.0271458265,
				"y": 3.1161388143,
				"z": 0.954040323,
				"element": "H" 
			},
			{
				"x": -0.9768502677,
				"y": 0.3428040904,
				"z": 0.322430914,
				"element": "H" 
			},
			{
				"x": 1.2353451454,
				"y": 1.9736233723,
				"z": -0.2530726706,
				"element": "H" 
			},
			{
				"x": -0.0281061208,
				"y": -1.2842536516,
				"z": 2.4753156716,
				"element": "H" 
			},
			{
				"x": 0.7656742714,
				"y": -3.1879671369,
				"z": 3.4267816557,
				"element": "H" 
			},
			{
				"x": 3.3886385502,
				"y": -3.4831444047,
				"z": 1.1090185148,
				"element": "H" 
			},
			{
				"x": 3.7010514715,
				"y": -1.8317753403,
				"z": -0.7373123196,
				"element": "H" 
			},
			{
				"x": 2.1382014642,
				"y": 0.0771410979,
				"z": -0.9834211443,
				"element": "H" 
			}
		],
		 "valence_orbital": [ 
			{
				"type": "occ",
				"energy": -0.32062,
				"method": "rhf"
			},
			{
				"type": "occ",
				"energy": -0.28588,
				"method": "rhf"
			},
			{
				"type": "occ",
				"energy": -0.25172,
				"method": "rhf"
			},
			{
				"type": "occ",
				"energy": -0.23195,
				"method": "rhf"
			},
			{
				"type": "occ",
				"energy": -0.22146,
				"method": "rhf"
			},
			{
				"type": "unocc",
				"energy": -0.00714,
				"method": "rhf"
			},
			{
				"type": "unocc",
				"energy": 0.01223,
				"method": "rhf"
			},
			{
				"type": "unocc",
				"energy": 0.06612,
				"method": "rhf"
			},
			{
				"type": "unocc",
				"energy": 0.07016,
				"method": "rhf"
			},
			{
				"type": "unocc",
				"energy": 0.08626,
				"method": "rhf"
			}
		],
		"cosmo_sigma_profile": { 
			"-0.025": 0.0,
			"-0.024": 0.0,
			"-0.023": 0.0,
			"-0.022": 0.0,
			"-0.021": 0.0,
			"-0.02": 0.0,
			"-0.019": 0.0,
			"-0.018": 0.0561660797364,
			"-0.017": 1.1201452852,
			"-0.016": 1.04421886934,
			"-0.015": 1.21799867547,
			"-0.014": 1.27775288077,
			"-0.013": 2.14512276357,
			"-0.012": 1.9715961178,
			"-0.011": 1.62114017423,
			"-0.01": 1.79531,
			"-0.009": 4.3378177818,
			"-0.008": 3.91393539771,
			"-0.007": 6.25011853848,
			"-0.006": 9.70023059143,
			"-0.005": 13.8059787204,
			"-0.004": 13.3745836832,
			"-0.003": 13.3919711469,
			"-0.002": 12.8027202664,
			"-0.001": 13.8256678372,
			"0.0": 13.54417497,
			"0.001": 14.1434108764,
			"0.002": 10.9264608918,
			"0.003": 9.58492829798,
			"0.004": 12.8858034718,
			"0.005": 12.3321174874,
			"0.006": 9.72889037754,
			"0.007": 3.79623364823,
			"0.008": 3.30994883135,
			"0.009": 2.84067652805,
			"0.01": 3.31768783224,
			"0.011": 4.48380232426,
			"0.012": 3.13315547347,
			"0.013": 1.4465047079,
			"0.014": 1.19015515554,
			"0.015": 0.722584391487,
			"0.016": 0.997739560618,
			"0.017": 0.655320530249,
			"0.018": 0.479913157576,
			"0.019": 0.404677930303,
			"0.02": 0.368326907077,
			"0.021": 0.0,
			"0.022": 0.0,
			"0.023": 0.0,
			"0.024": 0.0,
			"0.025": 0.0
		}
	}
}
