{
	 "smiles": "NC(=NO)C1=CC=C(COC2=CC=CC=C2)C=C1", 
	 "Tm": 417.15, 
	 "num_atms": 32, 
	 "gaussian": { 
		 "optdone": 1, 
		 "sigma_profile": "yes", 
		 "theory": "DFT", 
		 "functional": "B3LYP", 
		 "basiset": "6-31G**", 
		 "properties": { 
			 "R2extent": 6580.02, 
			 "electric_dipole_moment_norm": 2.33368401889, 
			 "electric_quadrupole_moment_norm": 15.0430615371, 
			 "total_energy": -801.808792237, 
			 "HOMO_LUMO_gap": 0.17639, 
			 "cosmo_polarized_energy": -16.66, 
			 "cosmo_cavitation_energy": 36.37, 
			 "cosmo_dispersion_energy": -25.94, 
			 "cosmo_repulsion_energy": 2.05, 
			 "cosmo_total_nonelectrostatic_energy": 12.49, 
			 "SMD_solvation_energy": 6.09 
		},
		"coords": [
			{
				"x": -5.1759135403,
				"y": -0.5715543995,
				"z": 3.0819268658,
				"element": "N" 
			},
			{
				"x": -4.331498455,
				"y": 0.2595868314,
				"z": 2.3487718045,
				"element": "C" 
			},
			{
				"x": -4.7121129336,
				"y": 1.4837205519,
				"z": 2.2035818388,
				"element": "N" 
			},
			{
				"x": -3.8261370244,
				"y": 2.2319825878,
				"z": 1.386173977,
				"element": "O" 
			},
			{
				"x": -3.116417445,
				"y": -0.3853053017,
				"z": 1.7735958016,
				"element": "C" 
			},
			{
				"x": -2.7805056404,
				"y": -0.2363550286,
				"z": 0.4198407165,
				"element": "C" 
			},
			{
				"x": -1.6609390015,
				"y": -0.8750345414,
				"z": -0.1065545309,
				"element": "C" 
			},
			{
				"x": -0.8366562463,
				"y": -1.6612143961,
				"z": 0.7065549139,
				"element": "C" 
			},
			{
				"x": 0.3525220304,
				"y": -2.405982262,
				"z": 0.1293862621,
				"element": "C" 
			},
			{
				"x": 0.9183345647,
				"y": -1.8024450337,
				"z": -1.0282337388,
				"element": "O" 
			},
			{
				"x": 1.7749639976,
				"y": -0.7399836781,
				"z": -0.879302822,
				"element": "C" 
			},
			{
				"x": 2.4269768542,
				"y": -0.3298910786,
				"z": -2.0507288679,
				"element": "C" 
			},
			{
				"x": 3.3234143514,
				"y": 0.7329512851,
				"z": -2.0115983405,
				"element": "C" 
			},
			{
				"x": 3.5833823518,
				"y": 1.3985930485,
				"z": -0.8090391025,
				"element": "C" 
			},
			{
				"x": 2.928498807,
				"y": 0.9883962436,
				"z": 0.3502721108,
				"element": "C" 
			},
			{
				"x": 2.0216198483,
				"y": -0.0760562469,
				"z": 0.3274573231,
				"element": "C" 
			},
			{
				"x": -1.1585789346,
				"y": -1.7969494801,
				"z": 2.0609141926,
				"element": "C" 
			},
			{
				"x": -2.2889084592,
				"y": -1.1734985942,
				"z": 2.5866256353,
				"element": "C" 
			},
			{
				"x": -5.8307215169,
				"y": -0.0757510517,
				"z": 3.6727133091,
				"element": "H" 
			},
			{
				"x": -4.7398825447,
				"y": -1.3664259784,
				"z": 3.5239030819,
				"element": "H" 
			},
			{
				"x": -4.2409522589,
				"y": 3.1032185034,
				"z": 1.4117035267,
				"element": "H" 
			},
			{
				"x": -3.4003753035,
				"y": 0.3861270441,
				"z": -0.2135233581,
				"element": "H" 
			},
			{
				"x": -1.4120649126,
				"y": -0.7580642219,
				"z": -1.1563649967,
				"element": "H" 
			},
			{
				"x": 0.033944856,
				"y": -3.396821203,
				"z": -0.2144109454,
				"element": "H" 
			},
			{
				"x": 1.120816556,
				"y": -2.5594994731,
				"z": 0.899147164,
				"element": "H" 
			},
			{
				"x": 2.2182240838,
				"y": -0.8624340256,
				"z": -2.9730019435,
				"element": "H" 
			},
			{
				"x": 3.8248676281,
				"y": 1.0410879399,
				"z": -2.9248099547,
				"element": "H" 
			},
			{
				"x": 4.2838578408,
				"y": 2.2274352174,
				"z": -0.7801865713,
				"element": "H" 
			},
			{
				"x": 3.1127343045,
				"y": 1.5017613708,
				"z": 1.2899182798,
				"element": "H" 
			},
			{
				"x": 1.5034713004,
				"y": -0.3579976535,
				"z": 1.2359138769,
				"element": "H" 
			},
			{
				"x": -0.5215825804,
				"y": -2.3905432075,
				"z": 2.7129573431,
				"element": "H" 
			},
			{
				"x": -2.5067825777,
				"y": -1.2769537683,
				"z": 3.6466971488,
				"element": "H" 
			}
		],
		 "valence_orbital": [ 
			{
				"type": "occ",
				"energy": -0.25534,
				"method": "rhf"
			},
			{
				"type": "occ",
				"energy": -0.25168,
				"method": "rhf"
			},
			{
				"type": "occ",
				"energy": -0.24471,
				"method": "rhf"
			},
			{
				"type": "occ",
				"energy": -0.2173,
				"method": "rhf"
			},
			{
				"type": "occ",
				"energy": -0.20146,
				"method": "rhf"
			},
			{
				"type": "unocc",
				"energy": -0.02507,
				"method": "rhf"
			},
			{
				"type": "unocc",
				"energy": -0.00976,
				"method": "rhf"
			},
			{
				"type": "unocc",
				"energy": 0.00405,
				"method": "rhf"
			},
			{
				"type": "unocc",
				"energy": 0.01646,
				"method": "rhf"
			},
			{
				"type": "unocc",
				"energy": 0.05207,
				"method": "rhf"
			}
		],
		"cosmo_sigma_profile": { 
			"-0.025": 0.0,
			"-0.024": 0.0,
			"-0.023": 0.0,
			"-0.022": 0.0,
			"-0.021": 0.0,
			"-0.02": 0.0,
			"-0.019": 0.0,
			"-0.018": 0.0,
			"-0.017": 0.154754447609,
			"-0.016": 0.711801551054,
			"-0.015": 0.891208659981,
			"-0.014": 1.00669482392,
			"-0.013": 1.72034747849,
			"-0.012": 3.01671513668,
			"-0.011": 2.60229398911,
			"-0.01": 3.2757937805,
			"-0.009": 3.4436169804,
			"-0.008": 3.33354047081,
			"-0.007": 6.35551991619,
			"-0.006": 15.339285754,
			"-0.005": 23.1376703617,
			"-0.004": 22.280104728,
			"-0.003": 18.6827746064,
			"-0.002": 16.6047434908,
			"-0.001": 15.6301224858,
			"0.0": 13.7154036936,
			"0.001": 16.3461786777,
			"0.002": 16.2875093232,
			"0.003": 20.3259318836,
			"0.004": 21.4195346818,
			"0.005": 17.3973970132,
			"0.006": 13.5906037141,
			"0.007": 7.32216936757,
			"0.008": 6.28646121667,
			"0.009": 5.34895394753,
			"0.01": 4.79989866866,
			"0.011": 3.06662728287,
			"0.012": 2.50514526551,
			"0.013": 1.6258047059,
			"0.014": 0.76848547011,
			"0.015": 0.341632363541,
			"0.016": 0.0,
			"0.017": 0.0,
			"0.018": 0.0,
			"0.019": 0.0,
			"0.02": 0.0,
			"0.021": 0.0,
			"0.022": 0.0,
			"0.023": 0.0,
			"0.024": 0.0,
			"0.025": 0.0
		}
	}
}
