{
	 "smiles": "OC(=O)CCSC1=C(Br)C=CC=C1", 
	 "Tm": 378.15, 
	 "num_atms": 22, 
	 "gaussian": { 
		 "optdone": 1, 
		 "sigma_profile": "yes", 
		 "theory": "DFT", 
		 "functional": "B3LYP", 
		 "basiset": "6-31G**", 
		 "properties": { 
			 "R2extent": 3579.7946, 
			 "electric_dipole_moment_norm": 1.20704070354, 
			 "electric_quadrupole_moment_norm": 19.4546569785, 
			 "total_energy": -3468.42362605, 
			 "HOMO_LUMO_gap": 0.19742, 
			 "cosmo_polarized_energy": -14.31, 
			 "cosmo_cavitation_energy": 28.95, 
			 "cosmo_dispersion_energy": -21.01, 
			 "cosmo_repulsion_energy": 1.61, 
			 "cosmo_total_nonelectrostatic_energy": 9.56, 
			 "SMD_solvation_energy": 4.34 
		},
		"coords": [
			{
				"x": -1.4344279409,
				"y": -0.5054227329,
				"z": -2.2631011388,
				"element": "O" 
			},
			{
				"x": -0.272098232,
				"y": -1.1796648089,
				"z": -2.421068748,
				"element": "C" 
			},
			{
				"x": 0.6830296533,
				"y": -0.6457839074,
				"z": -2.9312630303,
				"element": "O" 
			},
			{
				"x": -0.2534218586,
				"y": -2.6467919998,
				"z": -1.9875871831,
				"element": "C" 
			},
			{
				"x": 0.9742797013,
				"y": -2.9843499856,
				"z": -1.1318417266,
				"element": "C" 
			},
			{
				"x": 0.7801401749,
				"y": -2.7000925061,
				"z": 0.6804191348,
				"element": "S" 
			},
			{
				"x": 0.6274149816,
				"y": -0.9169485259,
				"z": 0.7911070966,
				"element": "C" 
			},
			{
				"x": -0.5964167833,
				"y": -0.2566830983,
				"z": 0.9912700589,
				"element": "C" 
			},
			{
				"x": -2.2617273603,
				"y": -1.2129442597,
				"z": 1.0596176607,
				"element": "Br" 
			},
			{
				"x": -0.661567183,
				"y": 1.1291464086,
				"z": 1.1370682039,
				"element": "C" 
			},
			{
				"x": 0.5074167563,
				"y": 1.8849791968,
				"z": 1.0746540631,
				"element": "C" 
			},
			{
				"x": 1.7360610774,
				"y": 1.255526449,
				"z": 0.873020813,
				"element": "C" 
			},
			{
				"x": 1.7899978696,
				"y": -0.1294057348,
				"z": 0.7426371465,
				"element": "C" 
			},
			{
				"x": -2.0413717786,
				"y": -1.0031429747,
				"z": -1.6935034151,
				"element": "H" 
			},
			{
				"x": -0.1889941099,
				"y": -3.2185387031,
				"z": -2.9225073947,
				"element": "H" 
			},
			{
				"x": -1.1724677677,
				"y": -2.9531364514,
				"z": -1.480419171,
				"element": "H" 
			},
			{
				"x": 1.1920593606,
				"y": -4.0549407689,
				"z": -1.18340112,
				"element": "H" 
			},
			{
				"x": 1.8444187023,
				"y": -2.4413626557,
				"z": -1.508916902,
				"element": "H" 
			},
			{
				"x": -1.6220414796,
				"y": 1.6077209844,
				"z": 1.2883073542,
				"element": "H" 
			},
			{
				"x": 0.4519980003,
				"y": 2.9637988847,
				"z": 1.1830252832,
				"element": "H" 
			},
			{
				"x": 2.6501646394,
				"y": 1.8387827527,
				"z": 0.8241261709,
				"element": "H" 
			},
			{
				"x": 2.7437535766,
				"y": -0.6279455631,
				"z": 0.6037568438,
				"element": "H" 
			}
		],
		 "valence_orbital": [ 
			{
				"type": "occ",
				"energy": -0.30193,
				"method": "rhf"
			},
			{
				"type": "occ",
				"energy": -0.27043,
				"method": "rhf"
			},
			{
				"type": "occ",
				"energy": -0.26662,
				"method": "rhf"
			},
			{
				"type": "occ",
				"energy": -0.25581,
				"method": "rhf"
			},
			{
				"type": "occ",
				"energy": -0.23568,
				"method": "rhf"
			},
			{
				"type": "unocc",
				"energy": -0.03826,
				"method": "rhf"
			},
			{
				"type": "unocc",
				"energy": -0.02348,
				"method": "rhf"
			},
			{
				"type": "unocc",
				"energy": -0.01209,
				"method": "rhf"
			},
			{
				"type": "unocc",
				"energy": 0.01171,
				"method": "rhf"
			},
			{
				"type": "unocc",
				"energy": 0.04675,
				"method": "rhf"
			}
		],
		"cosmo_sigma_profile": { 
			"-0.025": 0.0,
			"-0.024": 0.0,
			"-0.023": 0.0,
			"-0.022": 0.0,
			"-0.021": 0.0,
			"-0.02": 0.0,
			"-0.019": 0.0,
			"-0.018": 0.0,
			"-0.017": 0.0,
			"-0.016": 0.00583899785683,
			"-0.015": 0.717174605277,
			"-0.014": 0.757544615752,
			"-0.013": 0.654433162963,
			"-0.012": 0.981733421324,
			"-0.011": 1.40812242859,
			"-0.01": 1.01917482592,
			"-0.009": 0.452057927663,
			"-0.008": 2.79903831265,
			"-0.007": 13.5244037512,
			"-0.006": 17.3550352016,
			"-0.005": 17.9535445349,
			"-0.004": 14.7191573069,
			"-0.003": 16.8399122314,
			"-0.002": 11.4732211138,
			"-0.001": 12.4010508913,
			"0.0": 13.5246473822,
			"0.001": 14.3654371594,
			"0.002": 17.7917862252,
			"0.003": 19.1740197961,
			"0.004": 14.0845969402,
			"0.005": 7.69072838012,
			"0.006": 5.28196443393,
			"0.007": 4.342739441,
			"0.008": 5.67774884407,
			"0.009": 4.27644829442,
			"0.01": 4.6036488558,
			"0.011": 4.01480825469,
			"0.012": 5.05248821843,
			"0.013": 2.02544035141,
			"0.014": 0.142867912906,
			"0.015": 0.0,
			"0.016": 0.0,
			"0.017": 0.0,
			"0.018": 0.0,
			"0.019": 0.0,
			"0.02": 0.0,
			"0.021": 0.0,
			"0.022": 0.0,
			"0.023": 0.0,
			"0.024": 0.0,
			"0.025": 0.0
		}
	}
}
