{
	 "smiles": "CC(CCC1=CC=CC=C1)NC(C)C(O)C1=CC(I)=C(O)C(I)=C1", 
	 "Tm": 485.15, 
	 "num_atms": 47, 
	 "gaussian": { 
		 "optdone": 1, 
		 "sigma_profile": "no", 
		 "theory": "DFT", 
		 "functional": "B3LYP", 
		 "basiset": "6-31G**", 
		 "properties": { 
			 "R2extent": 10446.6561, 
			 "electric_dipole_moment_norm": 3.28134068637, 
			 "electric_quadrupole_moment_norm": 12.9121690742, 
			 "total_energy": -965.858862435, 
			 "HOMO_LUMO_gap": 0.16882, 
			 "cosmo_polarized_energy": -214326.84, 
			 "cosmo_cavitation_energy": 54.68, 
			 "cosmo_dispersion_energy": -37.29, 
			 "cosmo_repulsion_energy": 2.85, 
			 "cosmo_total_nonelectrostatic_energy": 20.24, 
			 "SMD_solvation_energy": 6.92 
		},
		"coords": [
			{
				"x": 1.1411612344,
				"y": -1.2305594681,
				"z": -1.6412657041,
				"element": "C" 
			},
			{
				"x": 1.2448898101,
				"y": -0.4767759562,
				"z": -0.3067403681,
				"element": "C" 
			},
			{
				"x": 1.3170955985,
				"y": 1.0545484852,
				"z": -0.4621256008,
				"element": "C" 
			},
			{
				"x": 0.032713167,
				"y": 1.7595908705,
				"z": -0.9560788901,
				"element": "C" 
			},
			{
				"x": -0.2768007668,
				"y": 1.6724496576,
				"z": -2.4390281564,
				"element": "C" 
			},
			{
				"x": -1.4735773779,
				"y": 1.1049667003,
				"z": -2.8963626839,
				"element": "C" 
			},
			{
				"x": -1.7699614811,
				"y": 1.0472136106,
				"z": -4.2603042265,
				"element": "C" 
			},
			{
				"x": -0.8709132843,
				"y": 1.5619288045,
				"z": -5.1944615002,
				"element": "C" 
			},
			{
				"x": 0.3227761979,
				"y": 2.1381600001,
				"z": -4.7531743416,
				"element": "C" 
			},
			{
				"x": 0.6133258748,
				"y": 2.1937365514,
				"z": -3.3902912475,
				"element": "C" 
			},
			{
				"x": 2.4191278931,
				"y": -0.9128972983,
				"z": 0.4855005517,
				"element": "N" 
			},
			{
				"x": 2.3401132386,
				"y": -2.2294603184,
				"z": 1.14402124,
				"element": "C" 
			},
			{
				"x": 3.7021060567,
				"y": -2.9265091821,
				"z": 1.0801428418,
				"element": "C" 
			},
			{
				"x": 1.9297852053,
				"y": -1.9905713457,
				"z": 2.63852216,
				"element": "C" 
			},
			{
				"x": 2.6841410393,
				"y": -0.9085187579,
				"z": 3.1371485935,
				"element": "O" 
			},
			{
				"x": 0.4255520436,
				"y": -1.7813175229,
				"z": 2.8317718282,
				"element": "C" 
			},
			{
				"x": -0.0596172686,
				"y": -0.596646677,
				"z": 3.3864601374,
				"element": "C" 
			},
			{
				"x": -1.4291831197,
				"y": -0.4171283921,
				"z": 3.5667077251,
				"element": "C" 
			},
			{
				"x": -2.1320008552,
				"y": 1.4067859225,
				"z": 4.4129484475,
				"element": "I" 
			},
			{
				"x": -2.3663955751,
				"y": -1.4039151167,
				"z": 3.216758118,
				"element": "C" 
			},
			{
				"x": -3.7013002368,
				"y": -1.2759380415,
				"z": 3.3708050273,
				"element": "O" 
			},
			{
				"x": -1.857291308,
				"y": -2.5988482149,
				"z": 2.6743300965,
				"element": "C" 
			},
			{
				"x": -3.2001282154,
				"y": -4.1426608277,
				"z": 2.1356004086,
				"element": "I" 
			},
			{
				"x": -0.4909784822,
				"y": -2.7845475253,
				"z": 2.4897786001,
				"element": "C" 
			},
			{
				"x": 0.2315660903,
				"y": -0.9705848217,
				"z": -2.1869473341,
				"element": "H" 
			},
			{
				"x": 1.137015606,
				"y": -2.3140318,
				"z": -1.481303083,
				"element": "H" 
			},
			{
				"x": 1.9933471579,
				"y": -0.9865493581,
				"z": -2.2877578911,
				"element": "H" 
			},
			{
				"x": 0.3622095139,
				"y": -0.7075069895,
				"z": 0.3005906171,
				"element": "H" 
			},
			{
				"x": 2.159765678,
				"y": 1.314004966,
				"z": -1.1184427288,
				"element": "H" 
			},
			{
				"x": 1.5641175934,
				"y": 1.4597412171,
				"z": 0.5253762027,
				"element": "H" 
			},
			{
				"x": 0.1241960932,
				"y": 2.8206706596,
				"z": -0.689067395,
				"element": "H" 
			},
			{
				"x": -0.8233755713,
				"y": 1.3816624823,
				"z": -0.3837524682,
				"element": "H" 
			},
			{
				"x": -2.1822973158,
				"y": 0.7046825177,
				"z": -2.1750494661,
				"element": "H" 
			},
			{
				"x": -2.7040168587,
				"y": 0.6009690169,
				"z": -4.5902820137,
				"element": "H" 
			},
			{
				"x": -1.0985470776,
				"y": 1.5192079931,
				"z": -6.2556522044,
				"element": "H" 
			},
			{
				"x": 1.026403993,
				"y": 2.5494950868,
				"z": -5.471841328,
				"element": "H" 
			},
			{
				"x": 1.5413406625,
				"y": 2.6549712819,
				"z": -3.0602157425,
				"element": "H" 
			},
			{
				"x": 3.2458096157,
				"y": -0.8745627262,
				"z": -0.1054772041,
				"element": "H" 
			},
			{
				"x": 1.5896158541,
				"y": -2.8717485117,
				"z": 0.6626432103,
				"element": "H" 
			},
			{
				"x": 4.0185473841,
				"y": -3.0764505454,
				"z": 0.0422744059,
				"element": "H" 
			},
			{
				"x": 4.4573931106,
				"y": -2.3255914941,
				"z": 1.5965342574,
				"element": "H" 
			},
			{
				"x": 3.6626315179,
				"y": -3.9062808356,
				"z": 1.5651121855,
				"element": "H" 
			},
			{
				"x": 2.2149747151,
				"y": -2.8826251134,
				"z": 3.2128398182,
				"element": "H" 
			},
			{
				"x": 2.7867545352,
				"y": -0.337939341,
				"z": 2.3446618716,
				"element": "H" 
			},
			{
				"x": 0.6492420271,
				"y": 0.1652996788,
				"z": 3.6846343055,
				"element": "H" 
			},
			{
				"x": -3.8976337014,
				"y": -0.4120271276,
				"z": 3.7685751518,
				"element": "H" 
			},
			{
				"x": -0.1399000116,
				"y": -3.726092194,
				"z": 2.0794837766,
				"element": "H" 
			}
		],
		 "valence_orbital": [ 
			{
				"type": "occ",
				"energy": -0.25041,
				"method": "rhf"
			},
			{
				"type": "occ",
				"energy": -0.24523,
				"method": "rhf"
			},
			{
				"type": "occ",
				"energy": -0.24187,
				"method": "rhf"
			},
			{
				"type": "occ",
				"energy": -0.23948,
				"method": "rhf"
			},
			{
				"type": "occ",
				"energy": -0.22736,
				"method": "rhf"
			},
			{
				"type": "unocc",
				"energy": -0.05854,
				"method": "rhf"
			},
			{
				"type": "unocc",
				"energy": -0.02784,
				"method": "rhf"
			},
			{
				"type": "unocc",
				"energy": -0.02593,
				"method": "rhf"
			},
			{
				"type": "unocc",
				"energy": -0.00713,
				"method": "rhf"
			},
			{
				"type": "unocc",
				"energy": -0.00408,
				"method": "rhf"
			}
		],
		"cosmo_sigma_profile": { 
			"0.0": 0.0,
			"0.0": 0.0,
			"0.0": 0.0,
			"0.0": 0.0,
			"0.0": 0.0,
			"0.0": 0.0,
			"0.0": 0.0,
			"0.0": 0.0,
			"0.0": 0.0,
			"0.0": 0.0,
			"0.0": 0.0,
			"0.0": 0.0,
			"0.0": 0.0,
			"0.0": 0.0,
			"0.0": 0.0,
			"0.0": 0.0,
			"0.0": 0.0,
			"0.0": 0.0,
			"0.0": 0.0,
			"0.0": 0.0,
			"0.0": 0.0,
			"0.0": 0.0,
			"0.0": 0.0,
			"0.0": 0.0,
			"0.0": 0.0,
			"0.0": 0.0,
			"0.0": 0.0,
			"0.0": 0.0,
			"0.0": 0.0,
			"0.0": 0.0,
			"0.0": 0.0,
			"0.0": 0.0,
			"0.0": 0.0,
			"0.0": 0.0,
			"0.0": 0.0,
			"0.0": 0.0,
			"0.0": 0.0,
			"0.0": 0.0,
			"0.0": 0.0,
			"0.0": 0.0,
			"0.0": 0.0,
			"0.0": 0.0,
			"0.0": 0.0,
			"0.0": 0.0,
			"0.0": 0.0,
			"0.0": 0.0,
			"0.0": 0.0,
			"0.0": 0.0,
			"0.0": 0.0,
			"0.0": 0.0,
			"0.0": 0.0
		}
	}
}
