{
	 "smiles": "NC1=C(Cl)C=C(I)C=C1", 
	 "Tm": 347.15, 
	 "num_atms": 14, 
	 "gaussian": { 
		 "optdone": 1, 
		 "sigma_profile": "no", 
		 "theory": "DFT", 
		 "functional": "B3LYP", 
		 "basiset": "6-31G**", 
		 "properties": { 
			 "R2extent": 1599.1707, 
			 "electric_dipole_moment_norm": 3.18840980584, 
			 "electric_quadrupole_moment_norm": 9.68212695434, 
			 "total_energy": -757.984874367, 
			 "HOMO_LUMO_gap": 0.1727, 
			 "cosmo_polarized_energy": -99025.69, 
			 "cosmo_cavitation_energy": 22.88, 
			 "cosmo_dispersion_energy": -18.78, 
			 "cosmo_repulsion_energy": 1.5, 
			 "cosmo_total_nonelectrostatic_energy": 5.61, 
			 "SMD_solvation_energy": 2.69 
		},
		"coords": [
			{
				"x": -1.9302975632,
				"y": 1.5939666679,
				"z": -0.895974778,
				"element": "N" 
			},
			{
				"x": -1.1947565527,
				"y": 0.5188822313,
				"z": -0.433097952,
				"element": "C" 
			},
			{
				"x": 0.075727768,
				"y": 0.2028478952,
				"z": -0.9533372109,
				"element": "C" 
			},
			{
				"x": 0.7138680003,
				"y": 1.1585542283,
				"z": -2.2911977879,
				"element": "Cl" 
			},
			{
				"x": 0.8455544632,
				"y": -0.8439519452,
				"z": -0.4535409506,
				"element": "C" 
			},
			{
				"x": 0.3477518366,
				"y": -1.6126724255,
				"z": 0.5975786963,
				"element": "C" 
			},
			{
				"x": 1.5055554869,
				"y": -3.2103744994,
				"z": 1.3682556117,
				"element": "I" 
			},
			{
				"x": -0.9089633373,
				"y": -1.3325868976,
				"z": 1.1386820557,
				"element": "C" 
			},
			{
				"x": -1.6623023685,
				"y": -0.2826907576,
				"z": 0.6258867895,
				"element": "C" 
			},
			{
				"x": -1.6872006711,
				"y": 1.9405213355,
				"z": -1.8128886375,
				"element": "H" 
			},
			{
				"x": -2.9233782192,
				"y": 1.5610128308,
				"z": -0.7198538771,
				"element": "H" 
			},
			{
				"x": 1.8154050838,
				"y": -1.0458988661,
				"z": -0.8912527885,
				"element": "H" 
			},
			{
				"x": -1.3037706249,
				"y": -1.9269424265,
				"z": 1.9547907266,
				"element": "H" 
			},
			{
				"x": -2.6370933019,
				"y": -0.0651673711,
				"z": 1.0546501026,
				"element": "H" 
			}
		],
		 "valence_orbital": [ 
			{
				"type": "occ",
				"energy": -0.32304,
				"method": "rhf"
			},
			{
				"type": "occ",
				"energy": -0.27147,
				"method": "rhf"
			},
			{
				"type": "occ",
				"energy": -0.26746,
				"method": "rhf"
			},
			{
				"type": "occ",
				"energy": -0.25836,
				"method": "rhf"
			},
			{
				"type": "occ",
				"energy": -0.21284,
				"method": "rhf"
			},
			{
				"type": "unocc",
				"energy": -0.04014,
				"method": "rhf"
			},
			{
				"type": "unocc",
				"energy": -0.02021,
				"method": "rhf"
			},
			{
				"type": "unocc",
				"energy": -0.00716,
				"method": "rhf"
			},
			{
				"type": "unocc",
				"energy": 0.0289,
				"method": "rhf"
			},
			{
				"type": "unocc",
				"energy": 0.0456,
				"method": "rhf"
			}
		],
		"cosmo_sigma_profile": { 
			"0.0": 0.0,
			"0.0": 0.0,
			"0.0": 0.0,
			"0.0": 0.0,
			"0.0": 0.0,
			"0.0": 0.0,
			"0.0": 0.0,
			"0.0": 0.0,
			"0.0": 0.0,
			"0.0": 0.0,
			"0.0": 0.0,
			"0.0": 0.0,
			"0.0": 0.0,
			"0.0": 0.0,
			"0.0": 0.0,
			"0.0": 0.0,
			"0.0": 0.0,
			"0.0": 0.0,
			"0.0": 0.0,
			"0.0": 0.0,
			"0.0": 0.0,
			"0.0": 0.0,
			"0.0": 0.0,
			"0.0": 0.0,
			"0.0": 0.0,
			"0.0": 0.0,
			"0.0": 0.0,
			"0.0": 0.0,
			"0.0": 0.0,
			"0.0": 0.0,
			"0.0": 0.0,
			"0.0": 0.0,
			"0.0": 0.0,
			"0.0": 0.0,
			"0.0": 0.0,
			"0.0": 0.0,
			"0.0": 0.0,
			"0.0": 0.0,
			"0.0": 0.0,
			"0.0": 0.0,
			"0.0": 0.0,
			"0.0": 0.0,
			"0.0": 0.0,
			"0.0": 0.0,
			"0.0": 0.0,
			"0.0": 0.0,
			"0.0": 0.0,
			"0.0": 0.0,
			"0.0": 0.0,
			"0.0": 0.0,
			"0.0": 0.0
		}
	}
}
