{
	 "smiles": "CCC1=C(OCC(=O)NN)C=CC=C1", 
	 "Tm": 381.15, 
	 "num_atms": 28, 
	 "gaussian": { 
		 "optdone": 1, 
		 "sigma_profile": "yes", 
		 "theory": "DFT", 
		 "functional": "B3LYP", 
		 "basiset": "6-31G**", 
		 "properties": { 
			 "R2extent": 4318.6889, 
			 "electric_dipole_moment_norm": 1.82537525457, 
			 "electric_quadrupole_moment_norm": 6.71410133227, 
			 "total_energy": -649.432653718, 
			 "HOMO_LUMO_gap": 0.21931, 
			 "cosmo_polarized_energy": -12.61, 
			 "cosmo_cavitation_energy": 31.74, 
			 "cosmo_dispersion_energy": -22.16, 
			 "cosmo_repulsion_energy": 1.77, 
			 "cosmo_total_nonelectrostatic_energy": 11.35, 
			 "SMD_solvation_energy": 6.61 
		},
		"coords": [
			{
				"x": -0.4928688213,
				"y": 3.3219726403,
				"z": -1.4183580722,
				"element": "C" 
			},
			{
				"x": 0.0664375327,
				"y": 2.566075345,
				"z": -0.1988298563,
				"element": "C" 
			},
			{
				"x": -0.7796774015,
				"y": 1.3823006694,
				"z": 0.2166259753,
				"element": "C" 
			},
			{
				"x": -0.7349444119,
				"y": 0.169054947,
				"z": -0.5018281975,
				"element": "C" 
			},
			{
				"x": 0.1327154021,
				"y": 0.1428750203,
				"z": -1.5705552969,
				"element": "O" 
			},
			{
				"x": 0.2424688235,
				"y": -1.0458664056,
				"z": -2.3383160676,
				"element": "C" 
			},
			{
				"x": 1.2441882567,
				"y": -0.8639183501,
				"z": -3.4751668486,
				"element": "C" 
			},
			{
				"x": 1.4875392782,
				"y": -1.7896090788,
				"z": -4.2396320442,
				"element": "O" 
			},
			{
				"x": 1.8200513761,
				"y": 0.3612154262,
				"z": -3.5689993345,
				"element": "N" 
			},
			{
				"x": 2.7912832951,
				"y": 0.6559211469,
				"z": -4.54365804,
				"element": "N" 
			},
			{
				"x": -1.5263283382,
				"y": -0.9201039808,
				"z": -0.1284786656,
				"element": "C" 
			},
			{
				"x": -2.3822669011,
				"y": -0.8089986215,
				"z": 0.971564348,
				"element": "C" 
			},
			{
				"x": -2.4448412567,
				"y": 0.3775862248,
				"z": 1.6952084152,
				"element": "C" 
			},
			{
				"x": -1.6433652195,
				"y": 1.456496584,
				"z": 1.3110615131,
				"element": "C" 
			},
			{
				"x": -1.4962962402,
				"y": 3.707545379,
				"z": -1.2117552672,
				"element": "H" 
			},
			{
				"x": 0.1489229576,
				"y": 4.1702560329,
				"z": -1.6791106718,
				"element": "H" 
			},
			{
				"x": -0.5610965149,
				"y": 2.66506104,
				"z": -2.2903634944,
				"element": "H" 
			},
			{
				"x": 1.0861795457,
				"y": 2.2285459537,
				"z": -0.4188037461,
				"element": "H" 
			},
			{
				"x": 0.1438497692,
				"y": 3.2557832273,
				"z": 0.6490727842,
				"element": "H" 
			},
			{
				"x": 0.5843624394,
				"y": -1.8890502621,
				"z": -1.7243103934,
				"element": "H" 
			},
			{
				"x": -0.7208078668,
				"y": -1.323671377,
				"z": -2.7854695546,
				"element": "H" 
			},
			{
				"x": 1.6275991871,
				"y": 1.0765743958,
				"z": -2.8847162964,
				"element": "H" 
			},
			{
				"x": 3.4949354399,
				"y": -0.0817684173,
				"z": -4.5019120292,
				"element": "H" 
			},
			{
				"x": 2.3495313666,
				"y": 0.5503864817,
				"z": -5.4570664226,
				"element": "H" 
			},
			{
				"x": -1.4861458832,
				"y": -1.8516288208,
				"z": -0.6803558817,
				"element": "H" 
			},
			{
				"x": -2.9948730724,
				"y": -1.6597906076,
				"z": 1.2551834579,
				"element": "H" 
			},
			{
				"x": -3.1056629431,
				"y": 0.466585133,
				"z": 2.5518811803,
				"element": "H" 
			},
			{
				"x": -1.6836897991,
				"y": 2.3846702744,
				"z": 1.8761885068,
				"element": "H" 
			}
		],
		 "valence_orbital": [ 
			{
				"type": "occ",
				"energy": -0.28129,
				"method": "rhf"
			},
			{
				"type": "occ",
				"energy": -0.26346,
				"method": "rhf"
			},
			{
				"type": "occ",
				"energy": -0.25776,
				"method": "rhf"
			},
			{
				"type": "occ",
				"energy": -0.24919,
				"method": "rhf"
			},
			{
				"type": "occ",
				"energy": -0.22459,
				"method": "rhf"
			},
			{
				"type": "unocc",
				"energy": -0.00528,
				"method": "rhf"
			},
			{
				"type": "unocc",
				"energy": 0.00649,
				"method": "rhf"
			},
			{
				"type": "unocc",
				"energy": 0.02433,
				"method": "rhf"
			},
			{
				"type": "unocc",
				"energy": 0.06964,
				"method": "rhf"
			},
			{
				"type": "unocc",
				"energy": 0.08669,
				"method": "rhf"
			}
		],
		"cosmo_sigma_profile": { 
			"-0.025": 0.0,
			"-0.024": 0.0,
			"-0.023": 0.0,
			"-0.022": 0.0,
			"-0.021": 0.0,
			"-0.02": 0.0,
			"-0.019": 0.0,
			"-0.018": 0.0,
			"-0.017": 0.0,
			"-0.016": 0.0,
			"-0.015": 0.0,
			"-0.014": 0.0,
			"-0.013": 0.0,
			"-0.012": 0.349530499828,
			"-0.011": 2.39722001134,
			"-0.01": 2.661982984,
			"-0.009": 3.55807023214,
			"-0.008": 3.09080393803,
			"-0.007": 10.0323708861,
			"-0.006": 10.5547961782,
			"-0.005": 14.0715140088,
			"-0.004": 18.3483774799,
			"-0.003": 20.4298021511,
			"-0.002": 20.9482876565,
			"-0.001": 21.7075685492,
			"0.0": 21.3196872339,
			"0.001": 20.2274764794,
			"0.002": 15.0746785904,
			"0.003": 11.759211178,
			"0.004": 9.55228297231,
			"0.005": 9.94031372395,
			"0.006": 9.2205559622,
			"0.007": 3.70547682486,
			"0.008": 1.25387910514,
			"0.009": 1.4409240421,
			"0.01": 1.58452459568,
			"0.011": 2.92015674921,
			"0.012": 2.42422542794,
			"0.013": 4.58984698654,
			"0.014": 4.75489613534,
			"0.015": 1.23505844368,
			"0.016": 0.521126438487,
			"0.017": 0.118348777861,
			"0.018": 0.0,
			"0.019": 0.0,
			"0.02": 0.0,
			"0.021": 0.0,
			"0.022": 0.0,
			"0.023": 0.0,
			"0.024": 0.0,
			"0.025": 0.0
		}
	}
}
