{
	 "smiles": "OC(C1=CC=C(F)C=C1)C1=CC=C(F)C=C1", 
	 "Tm": 320.15, 
	 "num_atms": 26, 
	 "gaussian": { 
		 "optdone": 1, 
		 "sigma_profile": "yes", 
		 "theory": "DFT", 
		 "functional": "B3LYP", 
		 "basiset": "6-31G**", 
		 "properties": { 
			 "R2extent": 4541.1446, 
			 "electric_dipole_moment_norm": 2.18658872676, 
			 "electric_quadrupole_moment_norm": 10.2452854816, 
			 "total_energy": -776.295564281, 
			 "HOMO_LUMO_gap": 0.21374, 
			 "cosmo_polarized_energy": -8.99, 
			 "cosmo_cavitation_energy": 31.38, 
			 "cosmo_dispersion_energy": -21.94, 
			 "cosmo_repulsion_energy": 1.66, 
			 "cosmo_total_nonelectrostatic_energy": 11.1, 
			 "SMD_solvation_energy": 6.31 
		},
		"coords": [
			{
				"x": 2.4760662543,
				"y": -0.3928607574,
				"z": -1.2918570026,
				"element": "O" 
			},
			{
				"x": 1.1829617458,
				"y": -0.7320251275,
				"z": -0.795639858,
				"element": "C" 
			},
			{
				"x": 1.1576673909,
				"y": -0.4154788301,
				"z": 0.6962201392,
				"element": "C" 
			},
			{
				"x": 0.00276013,
				"y": -0.6815859975,
				"z": 1.4445716286,
				"element": "C" 
			},
			{
				"x": -0.0438369864,
				"y": -0.4197247572,
				"z": 2.8118583636,
				"element": "C" 
			},
			{
				"x": 1.083536253,
				"y": 0.1162011695,
				"z": 3.4263500701,
				"element": "C" 
			},
			{
				"x": 1.0455744081,
				"y": 0.3748868852,
				"z": 4.7516904421,
				"element": "F" 
			},
			{
				"x": 2.2433271857,
				"y": 0.3908955073,
				"z": 2.7148809849,
				"element": "C" 
			},
			{
				"x": 2.2751117951,
				"y": 0.1193849561,
				"z": 1.3449690155,
				"element": "C" 
			},
			{
				"x": 0.0900809009,
				"y": -0.0069728563,
				"z": -1.5712202764,
				"element": "C" 
			},
			{
				"x": -0.9661536435,
				"y": -0.710693643,
				"z": -2.158343095,
				"element": "C" 
			},
			{
				"x": -1.9649494777,
				"y": -0.0467226278,
				"z": -2.8752336351,
				"element": "C" 
			},
			{
				"x": -1.8822616972,
				"y": 1.3333706341,
				"z": -3.0024834312,
				"element": "C" 
			},
			{
				"x": -2.8374056843,
				"y": 1.9867006177,
				"z": -3.6960561778,
				"element": "F" 
			},
			{
				"x": -0.8392921283,
				"y": 2.065195972,
				"z": -2.4393180212,
				"element": "C" 
			},
			{
				"x": 0.143005889,
				"y": 1.3870589967,
				"z": -1.7234450795,
				"element": "C" 
			},
			{
				"x": 2.4526028453,
				"y": -0.4956654591,
				"z": -2.2516316473,
				"element": "H" 
			},
			{
				"x": 1.0111206457,
				"y": -1.815549715,
				"z": -0.9118745783,
				"element": "H" 
			},
			{
				"x": -0.876194669,
				"y": -1.0906094728,
				"z": 0.9535429304,
				"element": "H" 
			},
			{
				"x": -0.9323661638,
				"y": -0.6201240536,
				"z": 3.4007912718,
				"element": "H" 
			},
			{
				"x": 3.1024504828,
				"y": 0.8067939725,
				"z": 3.2304493873,
				"element": "H" 
			},
			{
				"x": 3.1731434275,
				"y": 0.3188983114,
				"z": 0.7732588411,
				"element": "H" 
			},
			{
				"x": -1.0121680318,
				"y": -1.7926161502,
				"z": -2.0601457538,
				"element": "H" 
			},
			{
				"x": -2.7895235847,
				"y": -0.5805217067,
				"z": -3.3351263619,
				"element": "H" 
			},
			{
				"x": -0.8133884605,
				"y": 3.1422800253,
				"z": -2.5656092926,
				"element": "H" 
			},
			{
				"x": 0.9649311734,
				"y": 1.9375841062,
				"z": -1.276098864,
				"element": "H" 
			}
		],
		 "valence_orbital": [ 
			{
				"type": "occ",
				"energy": -0.29019,
				"method": "rhf"
			},
			{
				"type": "occ",
				"energy": -0.26681,
				"method": "rhf"
			},
			{
				"type": "occ",
				"energy": -0.25581,
				"method": "rhf"
			},
			{
				"type": "occ",
				"energy": -0.24771,
				"method": "rhf"
			},
			{
				"type": "occ",
				"energy": -0.23314,
				"method": "rhf"
			},
			{
				"type": "unocc",
				"energy": -0.0194,
				"method": "rhf"
			},
			{
				"type": "unocc",
				"energy": -0.01273,
				"method": "rhf"
			},
			{
				"type": "unocc",
				"energy": -0.0074,
				"method": "rhf"
			},
			{
				"type": "unocc",
				"energy": 0.00791,
				"method": "rhf"
			},
			{
				"type": "unocc",
				"energy": 0.07985,
				"method": "rhf"
			}
		],
		"cosmo_sigma_profile": { 
			"-0.025": 0.0,
			"-0.024": 0.0,
			"-0.023": 0.0,
			"-0.022": 0.0,
			"-0.021": 0.0,
			"-0.02": 0.0,
			"-0.019": 0.0,
			"-0.018": 0.0,
			"-0.017": 0.0133366618512,
			"-0.016": 0.48572389515,
			"-0.015": 0.710677328502,
			"-0.014": 0.785165689785,
			"-0.013": 0.995921682344,
			"-0.012": 0.71609898741,
			"-0.011": 0.812069684936,
			"-0.01": 0.510281147156,
			"-0.009": 0.966196859955,
			"-0.008": 0.900974306188,
			"-0.007": 7.56250192699,
			"-0.006": 14.3915456074,
			"-0.005": 18.3835520972,
			"-0.004": 16.565731795,
			"-0.003": 12.9445507277,
			"-0.002": 12.8381906237,
			"-0.001": 11.3326551267,
			"0.0": 15.2552919878,
			"0.001": 25.0196250915,
			"0.002": 21.5022534606,
			"0.003": 25.3458554345,
			"0.004": 38.3323824813,
			"0.005": 15.5239250565,
			"0.006": 1.98053187477,
			"0.007": 1.37955655383,
			"0.008": 1.25739016472,
			"0.009": 1.48349255963,
			"0.01": 1.43767740959,
			"0.011": 0.994623042072,
			"0.012": 0.510759756904,
			"0.013": 0.168168450184,
			"0.014": 0.0,
			"0.015": 0.0,
			"0.016": 0.0,
			"0.017": 0.0,
			"0.018": 0.0,
			"0.019": 0.0,
			"0.02": 0.0,
			"0.021": 0.0,
			"0.022": 0.0,
			"0.023": 0.0,
			"0.024": 0.0,
			"0.025": 0.0
		}
	}
}
