{
	 "smiles": "OC(=O)CCNC(=O)CCl", 
	 "Tm": 364.65, 
	 "num_atms": 18, 
	 "gaussian": { 
		 "optdone": 1, 
		 "sigma_profile": "yes", 
		 "theory": "DFT", 
		 "functional": "B3LYP", 
		 "basiset": "6-31G**", 
		 "properties": { 
			 "R2extent": 3049.4394, 
			 "electric_dipole_moment_norm": 4.98769448242, 
			 "electric_quadrupole_moment_norm": 8.50793103815, 
			 "total_energy": -935.99698988, 
			 "HOMO_LUMO_gap": 0.23473, 
			 "cosmo_polarized_energy": -17.07, 
			 "cosmo_cavitation_energy": 24.24, 
			 "cosmo_dispersion_energy": -17.56, 
			 "cosmo_repulsion_energy": 1.47, 
			 "cosmo_total_nonelectrostatic_energy": 8.15, 
			 "SMD_solvation_energy": 5.31 
		},
		"coords": [
			{
				"x": -2.6049271733,
				"y": 4.169485702,
				"z": 1.5001374781,
				"element": "O" 
			},
			{
				"x": -2.2577439422,
				"y": 3.0744077233,
				"z": 0.7927400371,
				"element": "C" 
			},
			{
				"x": -2.9542696444,
				"y": 2.0812842248,
				"z": 0.7362575867,
				"element": "O" 
			},
			{
				"x": -0.9197793861,
				"y": 3.2473215322,
				"z": 0.1052679411,
				"element": "C" 
			},
			{
				"x": -0.5753472895,
				"y": 2.0657461418,
				"z": -0.8110572534,
				"element": "C" 
			},
			{
				"x": -0.4580936543,
				"y": 0.8100226183,
				"z": -0.0886308937,
				"element": "N" 
			},
			{
				"x": 0.6385199337,
				"y": 0.0335242844,
				"z": 0.141547445,
				"element": "C" 
			},
			{
				"x": 0.5895357974,
				"y": -0.9797560261,
				"z": 0.8257751074,
				"element": "O" 
			},
			{
				"x": 1.9788102029,
				"y": 0.472950103,
				"z": -0.4564473191,
				"element": "C" 
			},
			{
				"x": 2.0314998776,
				"y": 0.3264758961,
				"z": -2.26836733,
				"element": "Cl" 
			},
			{
				"x": -3.4605154052,
				"y": 3.9704181141,
				"z": 1.9174284152,
				"element": "H" 
			},
			{
				"x": -0.1563751194,
				"y": 3.3783691565,
				"z": 0.8817947574,
				"element": "H" 
			},
			{
				"x": -0.9448058882,
				"y": 4.1839714866,
				"z": -0.4640887239,
				"element": "H" 
			},
			{
				"x": 0.3557983235,
				"y": 2.2724482512,
				"z": -1.3384148683,
				"element": "H" 
			},
			{
				"x": -1.3526455445,
				"y": 1.9644987937,
				"z": -1.5770194707,
				"element": "H" 
			},
			{
				"x": -1.311640417,
				"y": 0.4659644389,
				"z": 0.3354820954,
				"element": "H" 
			},
			{
				"x": 2.2320499117,
				"y": 1.5076503646,
				"z": -0.2158435234,
				"element": "H" 
			},
			{
				"x": 2.7370294171,
				"y": -0.1991828055,
				"z": -0.0623614811,
				"element": "H" 
			}
		],
		 "valence_orbital": [ 
			{
				"type": "occ",
				"energy": -0.3153,
				"method": "rhf"
			},
			{
				"type": "occ",
				"energy": -0.30695,
				"method": "rhf"
			},
			{
				"type": "occ",
				"energy": -0.29748,
				"method": "rhf"
			},
			{
				"type": "occ",
				"energy": -0.2576,
				"method": "rhf"
			},
			{
				"type": "occ",
				"energy": -0.25322,
				"method": "rhf"
			},
			{
				"type": "unocc",
				"energy": -0.01849,
				"method": "rhf"
			},
			{
				"type": "unocc",
				"energy": -0.01163,
				"method": "rhf"
			},
			{
				"type": "unocc",
				"energy": 0.0485,
				"method": "rhf"
			},
			{
				"type": "unocc",
				"energy": 0.06404,
				"method": "rhf"
			},
			{
				"type": "unocc",
				"energy": 0.08694,
				"method": "rhf"
			}
		],
		"cosmo_sigma_profile": { 
			"-0.025": 0.0,
			"-0.024": 0.0,
			"-0.023": 0.0,
			"-0.022": 0.0,
			"-0.021": 0.0,
			"-0.02": 0.0,
			"-0.019": 0.0975946842201,
			"-0.018": 0.770189570194,
			"-0.017": 0.964015759459,
			"-0.016": 0.716988244814,
			"-0.015": 1.14691121349,
			"-0.014": 0.666814060807,
			"-0.013": 0.683507406977,
			"-0.012": 0.450095532799,
			"-0.011": 1.12427522871,
			"-0.01": 0.811083603856,
			"-0.009": 4.79735839104,
			"-0.008": 5.69320134901,
			"-0.007": 10.9850980126,
			"-0.006": 15.2796264535,
			"-0.005": 14.6588817929,
			"-0.004": 10.3219803914,
			"-0.003": 10.5860864575,
			"-0.002": 8.87214891311,
			"-0.001": 8.01896346415,
			"0.0": 7.23057803412,
			"0.001": 10.7006229783,
			"0.002": 10.2423795481,
			"0.003": 8.70114800867,
			"0.004": 10.4861632347,
			"0.005": 9.3579422064,
			"0.006": 7.7852062711,
			"0.007": 4.16316522252,
			"0.008": 3.86762948181,
			"0.009": 3.55182890796,
			"0.01": 3.24690734485,
			"0.011": 4.84940337886,
			"0.012": 3.54125718049,
			"0.013": 5.78053371983,
			"0.014": 2.94424687356,
			"0.015": 0.0761220441685,
			"0.016": 0.0,
			"0.017": 0.0,
			"0.018": 0.0,
			"0.019": 0.0,
			"0.02": 0.0,
			"0.021": 0.0,
			"0.022": 0.0,
			"0.023": 0.0,
			"0.024": 0.0,
			"0.025": 0.0
		}
	}
}
