{
	 "smiles": "CC1=CC(=CN=C1Br)[N+]([O-])=O", 
	 "Tm": 330.15, 
	 "num_atms": 16, 
	 "gaussian": { 
		 "optdone": 1, 
		 "sigma_profile": "yes", 
		 "theory": "DFT", 
		 "functional": "B3LYP", 
		 "basiset": "6-31G**", 
		 "properties": { 
			 "R2extent": 3559.7915, 
			 "electric_dipole_moment_norm": 3.35411313315, 
			 "electric_quadrupole_moment_norm": 10.2296798034, 
			 "total_energy": -3062.90245329, 
			 "HOMO_LUMO_gap": 0.17154, 
			 "cosmo_polarized_energy": -8.84, 
			 "cosmo_cavitation_energy": 23.52, 
			 "cosmo_dispersion_energy": -17.75, 
			 "cosmo_repulsion_energy": 1.42, 
			 "cosmo_total_nonelectrostatic_energy": 7.19, 
			 "SMD_solvation_energy": 4.0 
		},
		"coords": [
			{
				"x": -1.0052199224,
				"y": -1.8402502453,
				"z": -2.3538112424,
				"element": "C" 
			},
			{
				"x": -0.6066665514,
				"y": -0.6672474604,
				"z": -1.5019627319,
				"element": "C" 
			},
			{
				"x": -0.3224290523,
				"y": -0.8147830701,
				"z": -0.1445867465,
				"element": "C" 
			},
			{
				"x": 0.0425209937,
				"y": 0.3025196226,
				"z": 0.6025513126,
				"element": "C" 
			},
			{
				"x": 0.1230866368,
				"y": 1.5549039214,
				"z": 0.0010909573,
				"element": "C" 
			},
			{
				"x": -0.146001467,
				"y": 1.7127245195,
				"z": -1.2977213439,
				"element": "N" 
			},
			{
				"x": -0.4915680126,
				"y": 0.6482461145,
				"z": -2.0001637599,
				"element": "C" 
			},
			{
				"x": -0.8588368055,
				"y": 0.9705119204,
				"z": -3.8538131274,
				"element": "Br" 
			},
			{
				"x": 0.3433072683,
				"y": 0.1572788603,
				"z": 2.0306234311,
				"element": "N" 
			},
			{
				"x": 0.2579569678,
				"y": -0.97018653,
				"z": 2.5156435957,
				"element": "O" 
			},
			{
				"x": 0.6605966206,
				"y": 1.1726630853,
				"z": 2.6474007812,
				"element": "O" 
			},
			{
				"x": -1.9941839667,
				"y": -1.6858929794,
				"z": -2.796977935,
				"element": "H" 
			},
			{
				"x": -1.0290260894,
				"y": -2.7571091279,
				"z": -1.7604527972,
				"element": "H" 
			},
			{
				"x": -0.3044096756,
				"y": -1.9796250074,
				"z": -3.1830925777,
				"element": "H" 
			},
			{
				"x": -0.3801432352,
				"y": -1.7826476057,
				"z": 0.3402091041,
				"element": "H" 
			},
			{
				"x": 0.4063162908,
				"y": 2.4311939821,
				"z": 0.5737630799,
				"element": "H" 
			}
		],
		 "valence_orbital": [ 
			{
				"type": "occ",
				"energy": -0.31284,
				"method": "rhf"
			},
			{
				"type": "occ",
				"energy": -0.30788,
				"method": "rhf"
			},
			{
				"type": "occ",
				"energy": -0.30444,
				"method": "rhf"
			},
			{
				"type": "occ",
				"energy": -0.29056,
				"method": "rhf"
			},
			{
				"type": "occ",
				"energy": -0.27727,
				"method": "rhf"
			},
			{
				"type": "unocc",
				"energy": -0.10573,
				"method": "rhf"
			},
			{
				"type": "unocc",
				"energy": -0.05725,
				"method": "rhf"
			},
			{
				"type": "unocc",
				"energy": -0.02264,
				"method": "rhf"
			},
			{
				"type": "unocc",
				"energy": -0.00719,
				"method": "rhf"
			},
			{
				"type": "unocc",
				"energy": 0.08113,
				"method": "rhf"
			}
		],
		"cosmo_sigma_profile": { 
			"-0.025": 0.0,
			"-0.024": 0.0,
			"-0.023": 0.0,
			"-0.022": 0.0,
			"-0.021": 0.0,
			"-0.02": 0.0,
			"-0.019": 0.0,
			"-0.018": 0.0,
			"-0.017": 0.0,
			"-0.016": 0.0,
			"-0.015": 0.0,
			"-0.014": 0.0,
			"-0.013": 0.0,
			"-0.012": 0.0,
			"-0.011": 0.0,
			"-0.01": 0.140511797219,
			"-0.009": 2.07560510599,
			"-0.008": 3.49400544796,
			"-0.007": 4.99744252583,
			"-0.006": 7.09114321901,
			"-0.005": 12.4598747278,
			"-0.004": 15.9104273942,
			"-0.003": 23.1087910512,
			"-0.002": 23.1914363494,
			"-0.001": 13.9231932152,
			"0.0": 9.48396542517,
			"0.001": 7.7102845555,
			"0.002": 10.5083320197,
			"0.003": 11.1241410673,
			"0.004": 8.45585136394,
			"0.005": 5.40210951651,
			"0.006": 7.30760679343,
			"0.007": 10.4356491316,
			"0.008": 6.60095548283,
			"0.009": 4.46342586295,
			"0.01": 1.9864912421,
			"0.011": 0.958637695339,
			"0.012": 0.892476425971,
			"0.013": 0.446500466804,
			"0.014": 0.0125243041338,
			"0.015": 0.0,
			"0.016": 0.0,
			"0.017": 0.0,
			"0.018": 0.0,
			"0.019": 0.0,
			"0.02": 0.0,
			"0.021": 0.0,
			"0.022": 0.0,
			"0.023": 0.0,
			"0.024": 0.0,
			"0.025": 0.0
		}
	}
}
