{
	 "smiles": "COC(=O)C1=NNC(=O)C2=C1C=CC=C2", 
	 "Tm": 401.15, 
	 "num_atms": 23, 
	 "gaussian": { 
		 "optdone": 1, 
		 "sigma_profile": "yes", 
		 "theory": "DFT", 
		 "functional": "B3LYP", 
		 "basiset": "6-31G**", 
		 "properties": { 
			 "R2extent": 3444.4633, 
			 "electric_dipole_moment_norm": 1.92027994313, 
			 "electric_quadrupole_moment_norm": 16.3657407519, 
			 "total_energy": -721.060782705, 
			 "HOMO_LUMO_gap": 0.16912, 
			 "cosmo_polarized_energy": -13.05, 
			 "cosmo_cavitation_energy": 27.94, 
			 "cosmo_dispersion_energy": -21.0, 
			 "cosmo_repulsion_energy": 1.62, 
			 "cosmo_total_nonelectrostatic_energy": 8.56, 
			 "SMD_solvation_energy": 6.33 
		},
		"coords": [
			{
				"x": -0.3302019213,
				"y": -0.2336772014,
				"z": 4.2693301711,
				"element": "C" 
			},
			{
				"x": 0.5142325018,
				"y": -0.2796821555,
				"z": 3.1084330211,
				"element": "O" 
			},
			{
				"x": -0.122531509,
				"y": -0.1200560742,
				"z": 1.9367444444,
				"element": "C" 
			},
			{
				"x": -1.3256236364,
				"y": 0.0517546889,
				"z": 1.8557619733,
				"element": "O" 
			},
			{
				"x": 0.8113175022,
				"y": -0.1780351935,
				"z": 0.7609920169,
				"element": "C" 
			},
			{
				"x": 2.0661566527,
				"y": -0.3725731068,
				"z": 1.0692294371,
				"element": "N" 
			},
			{
				"x": 2.9606826686,
				"y": -0.436808752,
				"z": 0.0803082767,
				"element": "N" 
			},
			{
				"x": 2.7453402599,
				"y": -0.3222046439,
				"z": -1.2954111191,
				"element": "C" 
			},
			{
				"x": 3.6840902879,
				"y": -0.4057851702,
				"z": -2.076211918,
				"element": "O" 
			},
			{
				"x": 1.33495921,
				"y": -0.1034964525,
				"z": -1.6388714017,
				"element": "C" 
			},
			{
				"x": 0.3517924722,
				"y": -0.0287117117,
				"z": -0.6189811662,
				"element": "C" 
			},
			{
				"x": -0.9902674842,
				"y": 0.1831377893,
				"z": -1.0049152568,
				"element": "C" 
			},
			{
				"x": -1.3176974332,
				"y": 0.3120190724,
				"z": -2.3477353318,
				"element": "C" 
			},
			{
				"x": -0.3345897225,
				"y": 0.2359869952,
				"z": -3.3467704923,
				"element": "C" 
			},
			{
				"x": 0.9886171463,
				"y": 0.0285210081,
				"z": -2.9909100923,
				"element": "C" 
			},
			{
				"x": 0.337305872,
				"y": -0.3785876086,
				"z": 5.1182793862,
				"element": "H" 
			},
			{
				"x": -1.0826057004,
				"y": -1.025497073,
				"z": 4.2315661023,
				"element": "H" 
			},
			{
				"x": -0.838455556,
				"y": 0.7313560267,
				"z": 4.3395456356,
				"element": "H" 
			},
			{
				"x": 3.9184991155,
				"y": -0.5891080224,
				"z": 0.3747007397,
				"element": "H" 
			},
			{
				"x": -1.7528338038,
				"y": 0.2427278057,
				"z": -0.2415375673,
				"element": "H" 
			},
			{
				"x": -2.355150363,
				"y": 0.4745587032,
				"z": -2.6254884041,
				"element": "H" 
			},
			{
				"x": -0.6103829073,
				"y": 0.339275597,
				"z": -4.3918964993,
				"element": "H" 
			},
			{
				"x": 1.7804463479,
				"y": -0.0368145208,
				"z": -3.7292619555,
				"element": "H" 
			}
		],
		 "valence_orbital": [ 
			{
				"type": "occ",
				"energy": -0.29552,
				"method": "rhf"
			},
			{
				"type": "occ",
				"energy": -0.28192,
				"method": "rhf"
			},
			{
				"type": "occ",
				"energy": -0.2682,
				"method": "rhf"
			},
			{
				"type": "occ",
				"energy": -0.26067,
				"method": "rhf"
			},
			{
				"type": "occ",
				"energy": -0.24161,
				"method": "rhf"
			},
			{
				"type": "unocc",
				"energy": -0.07249,
				"method": "rhf"
			},
			{
				"type": "unocc",
				"energy": -0.05063,
				"method": "rhf"
			},
			{
				"type": "unocc",
				"energy": -0.01325,
				"method": "rhf"
			},
			{
				"type": "unocc",
				"energy": 0.05598,
				"method": "rhf"
			},
			{
				"type": "unocc",
				"energy": 0.08231,
				"method": "rhf"
			}
		],
		"cosmo_sigma_profile": { 
			"-0.025": 0.0,
			"-0.024": 0.0,
			"-0.023": 0.0,
			"-0.022": 0.0,
			"-0.021": 0.0,
			"-0.02": 0.0,
			"-0.019": 0.0,
			"-0.018": 0.0,
			"-0.017": 0.277447991974,
			"-0.016": 1.13830200713,
			"-0.015": 1.12865090175,
			"-0.014": 1.18510893736,
			"-0.013": 0.803942750588,
			"-0.012": 0.495363306024,
			"-0.011": 0.859230942186,
			"-0.01": 0.877903151361,
			"-0.009": 0.508364325088,
			"-0.008": 0.89242777875,
			"-0.007": 6.12546902788,
			"-0.006": 12.2250102304,
			"-0.005": 18.2664584016,
			"-0.004": 20.9995489471,
			"-0.003": 20.095015068,
			"-0.002": 15.5508313487,
			"-0.001": 15.6534883227,
			"0.0": 14.271982991,
			"0.001": 17.1295760363,
			"0.002": 17.3264246008,
			"0.003": 11.2942302042,
			"0.004": 5.27112886669,
			"0.005": 4.64789477445,
			"0.006": 3.82156810981,
			"0.007": 3.75652060379,
			"0.008": 3.6444976438,
			"0.009": 4.34338451399,
			"0.01": 5.16586598864,
			"0.011": 5.32074348572,
			"0.012": 6.06841092949,
			"0.013": 4.18321314773,
			"0.014": 1.13457027691,
			"0.015": 0.138872040063,
			"0.016": 0.0,
			"0.017": 0.0,
			"0.018": 0.0,
			"0.019": 0.0,
			"0.02": 0.0,
			"0.021": 0.0,
			"0.022": 0.0,
			"0.023": 0.0,
			"0.024": 0.0,
			"0.025": 0.0
		}
	}
}
