{
	 "smiles": "CC1=CC(C(=O)CCl)=C(C)N1CC(F)(F)F", 
	 "Tm": 417.15, 
	 "num_atms": 27, 
	 "gaussian": { 
		 "optdone": 1, 
		 "sigma_profile": "yes", 
		 "theory": "DFT", 
		 "functional": "B3LYP", 
		 "basiset": "6-31G**", 
		 "properties": { 
			 "R2extent": 5038.4857, 
			 "electric_dipole_moment_norm": 3.98077054476, 
			 "electric_quadrupole_moment_norm": 14.7782318056, 
			 "total_energy": -1277.39664499, 
			 "HOMO_LUMO_gap": 0.16924, 
			 "cosmo_polarized_energy": -12.35, 
			 "cosmo_cavitation_energy": 32.83, 
			 "cosmo_dispersion_energy": -23.0, 
			 "cosmo_repulsion_energy": 1.74, 
			 "cosmo_total_nonelectrostatic_energy": 11.57, 
			 "SMD_solvation_energy": 6.84 
		},
		"coords": [
			{
				"x": -2.5649721048,
				"y": 0.6906564991,
				"z": -1.2629915746,
				"element": "C" 
			},
			{
				"x": -1.0999239007,
				"y": 0.5205335678,
				"z": -1.0180431753,
				"element": "C" 
			},
			{
				"x": -0.0512130089,
				"y": 0.5678370176,
				"z": -1.893138823,
				"element": "C" 
			},
			{
				"x": 1.1671964339,
				"y": 0.3972854584,
				"z": -1.1509679033,
				"element": "C" 
			},
			{
				"x": 2.5284414725,
				"y": 0.3652367096,
				"z": -1.6843733834,
				"element": "C" 
			},
			{
				"x": 3.5377138051,
				"y": 0.193165735,
				"z": -1.0073499506,
				"element": "O" 
			},
			{
				"x": 2.7092378445,
				"y": 0.5114897556,
				"z": -3.2018134289,
				"element": "C" 
			},
			{
				"x": 2.3686408531,
				"y": 2.2051799263,
				"z": -3.7696560019,
				"element": "Cl" 
			},
			{
				"x": 0.8155953589,
				"y": 0.2451131464,
				"z": 0.1914961762,
				"element": "C" 
			},
			{
				"x": 1.6756015951,
				"y": 0.0652015173,
				"z": 1.4007544929,
				"element": "C" 
			},
			{
				"x": -0.5593967647,
				"y": 0.319507256,
				"z": 0.2606281109,
				"element": "N" 
			},
			{
				"x": -1.3360154842,
				"y": 0.1784543256,
				"z": 1.4716585674,
				"element": "C" 
			},
			{
				"x": -1.7578959235,
				"y": -1.2581458777,
				"z": 1.7730047488,
				"element": "C" 
			},
			{
				"x": -0.699120757,
				"y": -2.0767941963,
				"z": 1.9268418835,
				"element": "F" 
			},
			{
				"x": -2.4705875401,
				"y": -1.2804292277,
				"z": 2.9180437748,
				"element": "F" 
			},
			{
				"x": -2.5290225165,
				"y": -1.77665298,
				"z": 0.7959063872,
				"element": "F" 
			},
			{
				"x": -2.7333355029,
				"y": 0.8216388267,
				"z": -2.3340812055,
				"element": "H" 
			},
			{
				"x": -3.1478754252,
				"y": -0.174699071,
				"z": -0.932807307,
				"element": "H" 
			},
			{
				"x": -2.9716366228,
				"y": 1.578405689,
				"z": -0.7601947063,
				"element": "H" 
			},
			{
				"x": -0.1410647003,
				"y": 0.74179924,
				"z": -2.9555148193,
				"element": "H" 
			},
			{
				"x": 2.0422482706,
				"y": -0.1471873156,
				"z": -3.7611769123,
				"element": "H" 
			},
			{
				"x": 3.7493729014,
				"y": 0.2984817185,
				"z": -3.4409759628,
				"element": "H" 
			},
			{
				"x": 1.4182422214,
				"y": -0.845373654,
				"z": 1.950375197,
				"element": "H" 
			},
			{
				"x": 2.7142779418,
				"y": 0.0060989975,
				"z": 1.0795267821,
				"element": "H" 
			},
			{
				"x": 1.5788515184,
				"y": 0.9126080961,
				"z": 2.0930231163,
				"element": "H" 
			},
			{
				"x": -0.7619689942,
				"y": 0.5360030159,
				"z": 2.3285139163,
				"element": "H" 
			},
			{
				"x": -2.2462909708,
				"y": 0.7777858238,
				"z": 1.4042120008,
				"element": "H" 
			}
		],
		 "valence_orbital": [ 
			{
				"type": "occ",
				"energy": -0.30712,
				"method": "rhf"
			},
			{
				"type": "occ",
				"energy": -0.29764,
				"method": "rhf"
			},
			{
				"type": "occ",
				"energy": -0.25639,
				"method": "rhf"
			},
			{
				"type": "occ",
				"energy": -0.24621,
				"method": "rhf"
			},
			{
				"type": "occ",
				"energy": -0.2178,
				"method": "rhf"
			},
			{
				"type": "unocc",
				"energy": -0.04856,
				"method": "rhf"
			},
			{
				"type": "unocc",
				"energy": 0.0178,
				"method": "rhf"
			},
			{
				"type": "unocc",
				"energy": 0.03706,
				"method": "rhf"
			},
			{
				"type": "unocc",
				"energy": 0.07098,
				"method": "rhf"
			},
			{
				"type": "unocc",
				"energy": 0.08288,
				"method": "rhf"
			}
		],
		"cosmo_sigma_profile": { 
			"-0.025": 0.0,
			"-0.024": 0.0,
			"-0.023": 0.0,
			"-0.022": 0.0,
			"-0.021": 0.0,
			"-0.02": 0.0,
			"-0.019": 0.0,
			"-0.018": 0.0,
			"-0.017": 0.0,
			"-0.016": 0.0,
			"-0.015": 0.0,
			"-0.014": 0.0,
			"-0.013": 0.0,
			"-0.012": 0.0,
			"-0.011": 0.0,
			"-0.01": 0.819847243395,
			"-0.009": 5.52926760537,
			"-0.008": 8.44053839315,
			"-0.007": 10.0804345789,
			"-0.006": 11.4576823381,
			"-0.005": 13.9173233109,
			"-0.004": 14.2211256401,
			"-0.003": 14.441474042,
			"-0.002": 15.3805806028,
			"-0.001": 20.9661636113,
			"0.0": 20.2254467067,
			"0.001": 19.7290249063,
			"0.002": 34.4766105455,
			"0.003": 22.413288328,
			"0.004": 10.6092670854,
			"0.005": 13.6072872545,
			"0.006": 13.1257325367,
			"0.007": 1.68770336513,
			"0.008": 1.35945881493,
			"0.009": 2.26932193577,
			"0.01": 1.46355605501,
			"0.011": 2.64978000901,
			"0.012": 2.75127515092,
			"0.013": 1.36457221248,
			"0.014": 0.0294333336137,
			"0.015": 0.0,
			"0.016": 0.0,
			"0.017": 0.0,
			"0.018": 0.0,
			"0.019": 0.0,
			"0.02": 0.0,
			"0.021": 0.0,
			"0.022": 0.0,
			"0.023": 0.0,
			"0.024": 0.0,
			"0.025": 0.0
		}
	}
}
