{
	 "smiles": "COC1=CC=C(C=C1)C1=C(N=CO1)C(Cl)=O", 
	 "Tm": 371.15, 
	 "num_atms": 24, 
	 "gaussian": { 
		 "optdone": 1, 
		 "sigma_profile": "yes", 
		 "theory": "DFT", 
		 "functional": "B3LYP", 
		 "basiset": "6-31G**", 
		 "properties": { 
			 "R2extent": 4885.7659, 
			 "electric_dipole_moment_norm": 6.91745935586, 
			 "electric_quadrupole_moment_norm": 11.7912448181, 
			 "total_energy": -1164.57851718, 
			 "HOMO_LUMO_gap": 0.15572, 
			 "cosmo_polarized_energy": -13.42, 
			 "cosmo_cavitation_energy": 31.32, 
			 "cosmo_dispersion_energy": -22.67, 
			 "cosmo_repulsion_energy": 1.76, 
			 "cosmo_total_nonelectrostatic_energy": 10.41, 
			 "SMD_solvation_energy": 6.14 
		},
		"coords": [
			{
				"x": -2.3975631042,
				"y": 2.6280521788,
				"z": 3.2263548317,
				"element": "C" 
			},
			{
				"x": -1.733606661,
				"y": 2.6911734828,
				"z": 1.9707156778,
				"element": "O" 
			},
			{
				"x": -1.0761957097,
				"y": 1.5896681487,
				"z": 1.5269038179,
				"element": "C" 
			},
			{
				"x": -0.9951630172,
				"y": 0.3745777063,
				"z": 2.2218495922,
				"element": "C" 
			},
			{
				"x": -0.2898270173,
				"y": -0.6897453563,
				"z": 1.6664108099,
				"element": "C" 
			},
			{
				"x": 0.3350642114,
				"y": -0.5760871164,
				"z": 0.4145394949,
				"element": "C" 
			},
			{
				"x": 0.2582781307,
				"y": 0.6565274301,
				"z": -0.2632014861,
				"element": "C" 
			},
			{
				"x": -0.4376813569,
				"y": 1.7214582768,
				"z": 0.2820488953,
				"element": "C" 
			},
			{
				"x": 1.0933714766,
				"y": -1.7016363546,
				"z": -0.1177949484,
				"element": "C" 
			},
			{
				"x": 1.405963703,
				"y": -2.2507722002,
				"z": -1.3495843619,
				"element": "C" 
			},
			{
				"x": 2.2929924997,
				"y": -3.3152868698,
				"z": -1.1742929218,
				"element": "N" 
			},
			{
				"x": 2.4511014148,
				"y": -3.3924376085,
				"z": 0.0992625892,
				"element": "C" 
			},
			{
				"x": 1.767817354,
				"y": -2.4528007179,
				"z": 0.8114912558,
				"element": "O" 
			},
			{
				"x": 0.9756130332,
				"y": -1.9693607771,
				"z": -2.7246697807,
				"element": "C" 
			},
			{
				"x": -0.6538271562,
				"y": -1.1438833192,
				"z": -2.865913102,
				"element": "Cl" 
			},
			{
				"x": 1.5564314481,
				"y": -2.2848955863,
				"z": -3.7161031687,
				"element": "O" 
			},
			{
				"x": -2.8503274818,
				"y": 3.6090256197,
				"z": 3.3747527625,
				"element": "H" 
			},
			{
				"x": -1.6943630009,
				"y": 2.4265648217,
				"z": 4.0439147952,
				"element": "H" 
			},
			{
				"x": -3.1834904622,
				"y": 1.8627828915,
				"z": 3.227835684,
				"element": "H" 
			},
			{
				"x": -1.4746768265,
				"y": 0.2478173145,
				"z": 3.184714654,
				"element": "H" 
			},
			{
				"x": -0.2304828131,
				"y": -1.6274126418,
				"z": 2.2089714496,
				"element": "H" 
			},
			{
				"x": 0.7606667733,
				"y": 0.7823558923,
				"z": -1.2149617442,
				"element": "H" 
			},
			{
				"x": -0.4961491298,
				"y": 2.6750444483,
				"z": -0.2313428824,
				"element": "H" 
			},
			{
				"x": 3.0427536922,
				"y": -4.0959296635,
				"z": 0.6662980864,
				"element": "H" 
			}
		],
		 "valence_orbital": [ 
			{
				"type": "occ",
				"energy": -0.3084,
				"method": "rhf"
			},
			{
				"type": "occ",
				"energy": -0.28935,
				"method": "rhf"
			},
			{
				"type": "occ",
				"energy": -0.27975,
				"method": "rhf"
			},
			{
				"type": "occ",
				"energy": -0.26899,
				"method": "rhf"
			},
			{
				"type": "occ",
				"energy": -0.22832,
				"method": "rhf"
			},
			{
				"type": "unocc",
				"energy": -0.0726,
				"method": "rhf"
			},
			{
				"type": "unocc",
				"energy": -0.02091,
				"method": "rhf"
			},
			{
				"type": "unocc",
				"energy": -0.01621,
				"method": "rhf"
			},
			{
				"type": "unocc",
				"energy": 0.00635,
				"method": "rhf"
			},
			{
				"type": "unocc",
				"energy": 0.02279,
				"method": "rhf"
			}
		],
		"cosmo_sigma_profile": { 
			"-0.025": 0.0,
			"-0.024": 0.0,
			"-0.023": 0.0,
			"-0.022": 0.0,
			"-0.021": 0.0,
			"-0.02": 0.0,
			"-0.019": 0.0,
			"-0.018": 0.0,
			"-0.017": 0.0,
			"-0.016": 0.0,
			"-0.015": 0.0,
			"-0.014": 0.0,
			"-0.013": 0.0,
			"-0.012": 1.2754476166,
			"-0.011": 2.31215561755,
			"-0.01": 1.71428739422,
			"-0.009": 1.76745604199,
			"-0.008": 2.62309699063,
			"-0.007": 8.07589327011,
			"-0.006": 16.3756796971,
			"-0.005": 17.4744926658,
			"-0.004": 20.6635711633,
			"-0.003": 20.1366255095,
			"-0.002": 15.7776151711,
			"-0.001": 13.4745340241,
			"0.0": 13.5931986895,
			"0.001": 15.7332526169,
			"0.002": 19.3822808998,
			"0.003": 23.2844842845,
			"0.004": 18.6391911536,
			"0.005": 9.95936229234,
			"0.006": 5.74614108969,
			"0.007": 4.63245469599,
			"0.008": 6.3937439666,
			"0.009": 7.49549295676,
			"0.01": 2.83058412556,
			"0.011": 1.55567659517,
			"0.012": 1.17673734404,
			"0.013": 1.32075527874,
			"0.014": 0.877357566837,
			"0.015": 0.0569122060013,
			"0.016": 0.0,
			"0.017": 0.0,
			"0.018": 0.0,
			"0.019": 0.0,
			"0.02": 0.0,
			"0.021": 0.0,
			"0.022": 0.0,
			"0.023": 0.0,
			"0.024": 0.0,
			"0.025": 0.0
		}
	}
}
