{
	 "smiles": "[O-][N+](=O)C1=CC(C(=O)C2=CC=CC=C2)=C(Cl)C=C1", 
	 "Tm": 357.65, 
	 "num_atms": 26, 
	 "gaussian": { 
		 "optdone": 1, 
		 "sigma_profile": "yes", 
		 "theory": "DFT", 
		 "functional": "B3LYP", 
		 "basiset": "6-31G**", 
		 "properties": { 
			 "R2extent": 5488.5488, 
			 "electric_dipole_moment_norm": 5.04016310946, 
			 "electric_quadrupole_moment_norm": 15.3926804521, 
			 "total_energy": -1240.71298323, 
			 "HOMO_LUMO_gap": 0.16573, 
			 "cosmo_polarized_energy": -12.33, 
			 "cosmo_cavitation_energy": 33.81, 
			 "cosmo_dispersion_energy": -23.82, 
			 "cosmo_repulsion_energy": 1.83, 
			 "cosmo_total_nonelectrostatic_energy": 11.83, 
			 "SMD_solvation_energy": 8.25 
		},
		"coords": [
			{
				"x": -4.0355895868,
				"y": -0.0433835447,
				"z": -1.9903966894,
				"element": "O" 
			},
			{
				"x": -4.0451097665,
				"y": 0.6208434353,
				"z": -0.9559453888,
				"element": "N" 
			},
			{
				"x": -4.9894788052,
				"y": 1.3057959199,
				"z": -0.5653299561,
				"element": "O" 
			},
			{
				"x": -2.8332838176,
				"y": 0.5988188278,
				"z": -0.1205861571,
				"element": "C" 
			},
			{
				"x": -1.7532129042,
				"y": -0.1788989192,
				"z": -0.5209528781,
				"element": "C" 
			},
			{
				"x": -0.5847836481,
				"y": -0.19488501,
				"z": 0.2477832017,
				"element": "C" 
			},
			{
				"x": 0.5397276869,
				"y": -1.1058179767,
				"z": -0.2158595183,
				"element": "C" 
			},
			{
				"x": 0.3110245665,
				"y": -2.3029953182,
				"z": -0.294420779,
				"element": "O" 
			},
			{
				"x": 1.8458864405,
				"y": -0.5217016852,
				"z": -0.628960709,
				"element": "C" 
			},
			{
				"x": 2.906748018,
				"y": -1.4023786027,
				"z": -0.8982483758,
				"element": "C" 
			},
			{
				"x": 4.1358189032,
				"y": -0.9083405068,
				"z": -1.3215770842,
				"element": "C" 
			},
			{
				"x": 4.3144240252,
				"y": 0.4686712762,
				"z": -1.4923192202,
				"element": "C" 
			},
			{
				"x": 3.2613502191,
				"y": 1.3497194294,
				"z": -1.2376447363,
				"element": "C" 
			},
			{
				"x": 2.0312475593,
				"y": 0.8579444871,
				"z": -0.8041381532,
				"element": "C" 
			},
			{
				"x": -0.5636864401,
				"y": 0.5510546999,
				"z": 1.436157352,
				"element": "C" 
			},
			{
				"x": 0.8340067546,
				"y": 0.5064505555,
				"z": 2.4905678373,
				"element": "Cl" 
			},
			{
				"x": -1.6629004607,
				"y": 1.3165420227,
				"z": 1.839331979,
				"element": "C" 
			},
			{
				"x": -2.8074298131,
				"y": 1.35144995,
				"z": 1.0520298225,
				"element": "C" 
			},
			{
				"x": -1.8229308008,
				"y": -0.7691696947,
				"z": -1.4263279442,
				"element": "H" 
			},
			{
				"x": 2.7400977649,
				"y": -2.4663631274,
				"z": -0.7681717532,
				"element": "H" 
			},
			{
				"x": 4.9554352106,
				"y": -1.5918769194,
				"z": -1.5220470922,
				"element": "H" 
			},
			{
				"x": 5.2737494182,
				"y": 0.8536345502,
				"z": -1.826148557,
				"element": "H" 
			},
			{
				"x": 3.3982972648,
				"y": 2.417753263,
				"z": -1.3770314553,
				"element": "H" 
			},
			{
				"x": 1.2133708965,
				"y": 1.545037593,
				"z": -0.6121888686,
				"element": "H" 
			},
			{
				"x": -1.6156112546,
				"y": 1.8726613453,
				"z": 2.7685212694,
				"element": "H" 
			},
			{
				"x": -3.6728674307,
				"y": 1.9382339497,
				"z": 1.3327038541,
				"element": "H" 
			}
		],
		 "valence_orbital": [ 
			{
				"type": "occ",
				"energy": -0.29726,
				"method": "rhf"
			},
			{
				"type": "occ",
				"energy": -0.28191,
				"method": "rhf"
			},
			{
				"type": "occ",
				"energy": -0.27118,
				"method": "rhf"
			},
			{
				"type": "occ",
				"energy": -0.27064,
				"method": "rhf"
			},
			{
				"type": "occ",
				"energy": -0.26577,
				"method": "rhf"
			},
			{
				"type": "unocc",
				"energy": -0.10004,
				"method": "rhf"
			},
			{
				"type": "unocc",
				"energy": -0.07724,
				"method": "rhf"
			},
			{
				"type": "unocc",
				"energy": -0.04481,
				"method": "rhf"
			},
			{
				"type": "unocc",
				"energy": -0.02075,
				"method": "rhf"
			},
			{
				"type": "unocc",
				"energy": -0.01461,
				"method": "rhf"
			}
		],
		"cosmo_sigma_profile": { 
			"-0.025": 0.0,
			"-0.024": 0.0,
			"-0.023": 0.0,
			"-0.022": 0.0,
			"-0.021": 0.0,
			"-0.02": 0.0,
			"-0.019": 0.0,
			"-0.018": 0.0,
			"-0.017": 0.0,
			"-0.016": 0.0,
			"-0.015": 0.0,
			"-0.014": 0.0,
			"-0.013": 0.0,
			"-0.012": 0.0,
			"-0.011": 0.0,
			"-0.01": 0.00653265879947,
			"-0.009": 2.49703233618,
			"-0.008": 5.54805469061,
			"-0.007": 10.3306975289,
			"-0.006": 15.5287958923,
			"-0.005": 18.7982814292,
			"-0.004": 17.9810574299,
			"-0.003": 18.0911110306,
			"-0.002": 23.6458393024,
			"-0.001": 24.3011601602,
			"0.0": 20.0727987103,
			"0.001": 16.8465802116,
			"0.002": 19.6844267375,
			"0.003": 24.2346856534,
			"0.004": 13.6129485078,
			"0.005": 4.60087925284,
			"0.006": 6.13250781533,
			"0.007": 10.9572694443,
			"0.008": 7.20403692197,
			"0.009": 6.1131560445,
			"0.01": 4.3429536391,
			"0.011": 3.59843100803,
			"0.012": 0.750343001187,
			"0.013": 0.0,
			"0.014": 0.0,
			"0.015": 0.0,
			"0.016": 0.0,
			"0.017": 0.0,
			"0.018": 0.0,
			"0.019": 0.0,
			"0.02": 0.0,
			"0.021": 0.0,
			"0.022": 0.0,
			"0.023": 0.0,
			"0.024": 0.0,
			"0.025": 0.0
		}
	}
}
