{
	 "smiles": "NC(=O)NC(CC(O)=O)C1=C(Cl)C=CC=C1", 
	 "Tm": 437.15, 
	 "num_atms": 27, 
	 "gaussian": { 
		 "optdone": 1, 
		 "sigma_profile": "yes", 
		 "theory": "DFT", 
		 "functional": "B3LYP", 
		 "basiset": "6-31G**", 
		 "properties": { 
			 "R2extent": 4289.3732, 
			 "electric_dipole_moment_norm": 6.09646270144, 
			 "electric_quadrupole_moment_norm": 10.9908418062, 
			 "total_energy": -1183.09777487, 
			 "HOMO_LUMO_gap": 0.20562, 
			 "cosmo_polarized_energy": -22.85, 
			 "cosmo_cavitation_energy": 32.51, 
			 "cosmo_dispersion_energy": -23.09, 
			 "cosmo_repulsion_energy": 1.83, 
			 "cosmo_total_nonelectrostatic_energy": 11.25, 
			 "SMD_solvation_energy": 6.71 
		},
		"coords": [
			{
				"x": 2.378222701,
				"y": -1.0024287922,
				"z": -2.0105082957,
				"element": "N" 
			},
			{
				"x": 1.078555025,
				"y": -1.4024131392,
				"z": -1.7537355282,
				"element": "C" 
			},
			{
				"x": 0.4593988466,
				"y": -2.191497206,
				"z": -2.4549119104,
				"element": "O" 
			},
			{
				"x": 0.4971438095,
				"y": -0.8421782968,
				"z": -0.6156942419,
				"element": "N" 
			},
			{
				"x": 0.8451825169,
				"y": 0.4591126508,
				"z": -0.0484270537,
				"element": "C" 
			},
			{
				"x": 1.212430834,
				"y": 0.3389630532,
				"z": 1.4456432211,
				"element": "C" 
			},
			{
				"x": 2.5329070708,
				"y": -0.3926713251,
				"z": 1.6498767862,
				"element": "C" 
			},
			{
				"x": 2.7685491915,
				"y": -0.8417178544,
				"z": 2.9034227384,
				"element": "O" 
			},
			{
				"x": 3.3759181936,
				"y": -0.547621772,
				"z": 0.7950854941,
				"element": "O" 
			},
			{
				"x": -0.2046865032,
				"y": 1.5394241058,
				"z": -0.3136470848,
				"element": "C" 
			},
			{
				"x": -1.5369549876,
				"y": 1.5016713019,
				"z": 0.1269083736,
				"element": "C" 
			},
			{
				"x": -2.1558019498,
				"y": 0.127296652,
				"z": 1.0593883813,
				"element": "Cl" 
			},
			{
				"x": -2.4428425617,
				"y": 2.5240704988,
				"z": -0.1531395417,
				"element": "C" 
			},
			{
				"x": -2.0267521651,
				"y": 3.6301376639,
				"z": -0.8922741953,
				"element": "C" 
			},
			{
				"x": -0.7110937268,
				"y": 3.701070322,
				"z": -1.347368994,
				"element": "C" 
			},
			{
				"x": 0.1768924198,
				"y": 2.6667378745,
				"z": -1.0584706683,
				"element": "C" 
			},
			{
				"x": 2.9714496618,
				"y": -0.8371351895,
				"z": -1.2023476353,
				"element": "H" 
			},
			{
				"x": 2.7991346365,
				"y": -1.5605662404,
				"z": -2.7399112609,
				"element": "H" 
			},
			{
				"x": -0.4697459835,
				"y": -1.127274752,
				"z": -0.5326555002,
				"element": "H" 
			},
			{
				"x": 1.7503667887,
				"y": 0.7871861008,
				"z": -0.5603356966,
				"element": "H" 
			},
			{
				"x": 1.324389299,
				"y": 1.339158438,
				"z": 1.8868519852,
				"element": "H" 
			},
			{
				"x": 0.4131768678,
				"y": -0.1643106021,
				"z": 1.9979887486,
				"element": "H" 
			},
			{
				"x": 2.0052936785,
				"y": -0.6683762678,
				"z": 3.4730118328,
				"element": "H" 
			},
			{
				"x": -3.4629445856,
				"y": 2.4458168004,
				"z": 0.20606473,
				"element": "H" 
			},
			{
				"x": -2.7321777742,
				"y": 4.4257321379,
				"z": -1.1111681281,
				"element": "H" 
			},
			{
				"x": -0.3759382659,
				"y": 4.5541715586,
				"z": -1.9289442732,
				"element": "H" 
			},
			{
				"x": 1.1989269624,
				"y": 2.722542279,
				"z": -1.422902283,
				"element": "H" 
			}
		],
		 "valence_orbital": [ 
			{
				"type": "occ",
				"energy": -0.27486,
				"method": "rhf"
			},
			{
				"type": "occ",
				"energy": -0.26302,
				"method": "rhf"
			},
			{
				"type": "occ",
				"energy": -0.26031,
				"method": "rhf"
			},
			{
				"type": "occ",
				"energy": -0.24895,
				"method": "rhf"
			},
			{
				"type": "occ",
				"energy": -0.23518,
				"method": "rhf"
			},
			{
				"type": "unocc",
				"energy": -0.02956,
				"method": "rhf"
			},
			{
				"type": "unocc",
				"energy": -0.02649,
				"method": "rhf"
			},
			{
				"type": "unocc",
				"energy": -0.00949,
				"method": "rhf"
			},
			{
				"type": "unocc",
				"energy": 0.0107,
				"method": "rhf"
			},
			{
				"type": "unocc",
				"energy": 0.0437,
				"method": "rhf"
			}
		],
		"cosmo_sigma_profile": { 
			"-0.025": 0.0,
			"-0.024": 0.0,
			"-0.023": 0.0,
			"-0.022": 0.0,
			"-0.021": 0.0,
			"-0.02": 0.038717732926,
			"-0.019": 1.13647017528,
			"-0.018": 1.0303594761,
			"-0.017": 1.40992037472,
			"-0.016": 1.30804233142,
			"-0.015": 1.1421678004,
			"-0.014": 0.849519954626,
			"-0.013": 1.47397040126,
			"-0.012": 2.60545229286,
			"-0.011": 1.7671897561,
			"-0.01": 2.45793475117,
			"-0.009": 2.9521262414,
			"-0.008": 5.9533820724,
			"-0.007": 11.1619214353,
			"-0.006": 16.1105680255,
			"-0.005": 14.4000442553,
			"-0.004": 13.8843326003,
			"-0.003": 12.4998864225,
			"-0.002": 15.325086299,
			"-0.001": 14.8832535918,
			"0.0": 16.9084683689,
			"0.001": 17.90944927,
			"0.002": 17.5983518133,
			"0.003": 19.4584201773,
			"0.004": 16.8483573488,
			"0.005": 5.50394586492,
			"0.006": 3.96771603194,
			"0.007": 4.36666309837,
			"0.008": 4.92876344778,
			"0.009": 4.6268108134,
			"0.01": 6.33684995773,
			"0.011": 4.19382578156,
			"0.012": 3.2013762105,
			"0.013": 1.88767332266,
			"0.014": 6.42232108378,
			"0.015": 3.77393940399,
			"0.016": 0.102504489745,
			"0.017": 0.0,
			"0.018": 0.0,
			"0.019": 0.0,
			"0.02": 0.0,
			"0.021": 0.0,
			"0.022": 0.0,
			"0.023": 0.0,
			"0.024": 0.0,
			"0.025": 0.0
		}
	}
}
