{
	 "smiles": "CC1(C)CNCCS1(=O)=O", 
	 "Tm": 320.15, 
	 "num_atms": 23, 
	 "gaussian": { 
		 "optdone": 1, 
		 "sigma_profile": "yes", 
		 "theory": "DFT", 
		 "functional": "B3LYP", 
		 "basiset": "6-31G**", 
		 "properties": { 
			 "R2extent": 2229.2707, 
			 "electric_dipole_moment_norm": 5.01551658755, 
			 "electric_quadrupole_moment_norm": 13.61759299, 
			 "total_energy": -839.804854504, 
			 "HOMO_LUMO_gap": 0.29864, 
			 "cosmo_polarized_energy": -15.44, 
			 "cosmo_cavitation_energy": 24.52, 
			 "cosmo_dispersion_energy": -18.64, 
			 "cosmo_repulsion_energy": 1.43, 
			 "cosmo_total_nonelectrostatic_energy": 7.3, 
			 "SMD_solvation_energy": 1.8 
		},
		"coords": [
			{
				"x": 0.34704187,
				"y": -2.7758144971,
				"z": -1.2148688692,
				"element": "C" 
			},
			{
				"x": -0.6700255913,
				"y": -1.6344151063,
				"z": -1.3440987715,
				"element": "C" 
			},
			{
				"x": -1.7883002617,
				"y": -1.9857205932,
				"z": -2.3312734251,
				"element": "C" 
			},
			{
				"x": -1.2180751015,
				"y": -1.234449794,
				"z": 0.0472185406,
				"element": "C" 
			},
			{
				"x": -2.1178141632,
				"y": -0.0809464281,
				"z": -0.0182686768,
				"element": "N" 
			},
			{
				"x": -1.4260465946,
				"y": 1.1819734109,
				"z": -0.279291281,
				"element": "C" 
			},
			{
				"x": -0.8985300126,
				"y": 1.1993014007,
				"z": -1.716185235,
				"element": "C" 
			},
			{
				"x": 0.2768940916,
				"y": -0.1652606914,
				"z": -1.9799064708,
				"element": "S" 
			},
			{
				"x": 1.4106710539,
				"y": 0.0623509688,
				"z": -1.0597865721,
				"element": "O" 
			},
			{
				"x": 0.5152117395,
				"y": -0.314637237,
				"z": -3.4273099777,
				"element": "O" 
			},
			{
				"x": -0.1549503679,
				"y": -3.6578227239,
				"z": -0.8029071974,
				"element": "H" 
			},
			{
				"x": 0.7566969003,
				"y": -3.0428515942,
				"z": -2.1928046771,
				"element": "H" 
			},
			{
				"x": 1.1741449275,
				"y": -2.5000380016,
				"z": -0.5569296578,
				"element": "H" 
			},
			{
				"x": -2.5650265121,
				"y": -1.218614769,
				"z": -2.3468643763,
				"element": "H" 
			},
			{
				"x": -1.3897778847,
				"y": -2.1200065085,
				"z": -3.339199787,
				"element": "H" 
			},
			{
				"x": -2.2562744177,
				"y": -2.9248307435,
				"z": -2.0151698696,
				"element": "H" 
			},
			{
				"x": -0.3620859758,
				"y": -1.0729499498,
				"z": 0.7238204027,
				"element": "H" 
			},
			{
				"x": -1.7858395202,
				"y": -2.0904481158,
				"z": 0.4302514468,
				"element": "H" 
			},
			{
				"x": -2.6460705371,
				"y": -0.0122025672,
				"z": 0.8454651263,
				"element": "H" 
			},
			{
				"x": -0.58324694,
				"y": 1.3685424149,
				"z": 0.4075910262,
				"element": "H" 
			},
			{
				"x": -2.1409738852,
				"y": 2.003268411,
				"z": -0.1616131951,
				"element": "H" 
			},
			{
				"x": -1.7026715287,
				"y": 1.0850399301,
				"z": -2.4459035603,
				"element": "H" 
			},
			{
				"x": -0.3263512887,
				"y": 2.1045327844,
				"z": -1.9374649428,
				"element": "H" 
			}
		],
		 "valence_orbital": [ 
			{
				"type": "occ",
				"energy": -0.31105,
				"method": "rhf"
			},
			{
				"type": "occ",
				"energy": -0.30249,
				"method": "rhf"
			},
			{
				"type": "occ",
				"energy": -0.28585,
				"method": "rhf"
			},
			{
				"type": "occ",
				"energy": -0.26824,
				"method": "rhf"
			},
			{
				"type": "occ",
				"energy": -0.24497,
				"method": "rhf"
			},
			{
				"type": "unocc",
				"energy": 0.05367,
				"method": "rhf"
			},
			{
				"type": "unocc",
				"energy": 0.06691,
				"method": "rhf"
			},
			{
				"type": "unocc",
				"energy": 0.07275,
				"method": "rhf"
			},
			{
				"type": "unocc",
				"energy": 0.0891,
				"method": "rhf"
			},
			{
				"type": "unocc",
				"energy": 0.09836,
				"method": "rhf"
			}
		],
		"cosmo_sigma_profile": { 
			"-0.025": 0.0,
			"-0.024": 0.0,
			"-0.023": 0.0,
			"-0.022": 0.0,
			"-0.021": 0.0,
			"-0.02": 0.0,
			"-0.019": 0.0,
			"-0.018": 0.0,
			"-0.017": 0.0,
			"-0.016": 0.0,
			"-0.015": 0.0,
			"-0.014": 0.0,
			"-0.013": 0.0,
			"-0.012": 0.2244702246,
			"-0.011": 1.34747600274,
			"-0.01": 1.85612691923,
			"-0.009": 1.29359663972,
			"-0.008": 3.84978071654,
			"-0.007": 4.87343050101,
			"-0.006": 12.1020578145,
			"-0.005": 16.8681519454,
			"-0.004": 16.9182908413,
			"-0.003": 23.1801119562,
			"-0.002": 19.0039972032,
			"-0.001": 14.7931983715,
			"0.0": 12.9831994144,
			"0.001": 6.61973723932,
			"0.002": 4.35317363153,
			"0.003": 3.36665594556,
			"0.004": 3.91431207411,
			"0.005": 3.04157501703,
			"0.006": 2.83161229075,
			"0.007": 3.49866359782,
			"0.008": 3.05139360873,
			"0.009": 3.09542066636,
			"0.01": 3.92756720778,
			"0.011": 7.72615908126,
			"0.012": 10.2206265685,
			"0.013": 4.70273900351,
			"0.014": 0.141993641411,
			"0.015": 0.0,
			"0.016": 0.0,
			"0.017": 0.0,
			"0.018": 0.0,
			"0.019": 0.0,
			"0.02": 0.0,
			"0.021": 0.0,
			"0.022": 0.0,
			"0.023": 0.0,
			"0.024": 0.0,
			"0.025": 0.0
		}
	}
}
