{
	 "smiles": "CCOC1=C(C=C(N)C=C1)S(N)(=O)=O", 
	 "Tm": 428.15, 
	 "num_atms": 26, 
	 "gaussian": { 
		 "optdone": 1, 
		 "sigma_profile": "yes", 
		 "theory": "DFT", 
		 "functional": "B3LYP", 
		 "basiset": "6-31G**", 
		 "properties": { 
			 "R2extent": 4021.264, 
			 "electric_dipole_moment_norm": 4.49726691002, 
			 "electric_quadrupole_moment_norm": 22.0471732771, 
			 "total_energy": -1045.37319962, 
			 "HOMO_LUMO_gap": 0.18398, 
			 "cosmo_polarized_energy": -20.05, 
			 "cosmo_cavitation_energy": 30.57, 
			 "cosmo_dispersion_energy": -22.54, 
			 "cosmo_repulsion_energy": 1.75, 
			 "cosmo_total_nonelectrostatic_energy": 9.78, 
			 "SMD_solvation_energy": 5.03 
		},
		"coords": [
			{
				"x": 0.4620284823,
				"y": 0.5378846077,
				"z": 2.5633374208,
				"element": "C" 
			},
			{
				"x": 0.3421768354,
				"y": -0.3476263161,
				"z": 1.3381997164,
				"element": "C" 
			},
			{
				"x": -0.3972030944,
				"y": 0.3868115687,
				"z": 0.3334069435,
				"element": "O" 
			},
			{
				"x": -0.5741851587,
				"y": -0.2764694996,
				"z": -0.8627329631,
				"element": "C" 
			},
			{
				"x": 0.1605333088,
				"y": 0.1045263571,
				"z": -1.9920347262,
				"element": "C" 
			},
			{
				"x": -0.0407633289,
				"y": -0.4865971293,
				"z": -3.2346003193,
				"element": "C" 
			},
			{
				"x": -0.9940525842,
				"y": -1.5083729021,
				"z": -3.3772795309,
				"element": "C" 
			},
			{
				"x": -1.1639421223,
				"y": -2.1563563906,
				"z": -4.5994243867,
				"element": "N" 
			},
			{
				"x": -1.7339069155,
				"y": -1.8939243925,
				"z": -2.2447691545,
				"element": "C" 
			},
			{
				"x": -1.5304582046,
				"y": -1.2823311176,
				"z": -1.0104561735,
				"element": "C" 
			},
			{
				"x": 1.4267780844,
				"y": 1.3640769781,
				"z": -1.8489220982,
				"element": "S" 
			},
			{
				"x": 0.4997478661,
				"y": 2.6800184449,
				"z": -1.3339306261,
				"element": "N" 
			},
			{
				"x": 2.3846079522,
				"y": 0.9400117589,
				"z": -0.8168882606,
				"element": "O" 
			},
			{
				"x": 1.9145861411,
				"y": 1.7125192137,
				"z": -3.1866608994,
				"element": "O" 
			},
			{
				"x": 1.032504263,
				"y": 1.4414075933,
				"z": 2.3293257966,
				"element": "H" 
			},
			{
				"x": -0.5254890336,
				"y": 0.8307809084,
				"z": 2.9322678611,
				"element": "H" 
			},
			{
				"x": 0.985796335,
				"y": 0.0023109482,
				"z": 3.3611532261,
				"element": "H" 
			},
			{
				"x": 1.3276822442,
				"y": -0.6008404391,
				"z": 0.9339004531,
				"element": "H" 
			},
			{
				"x": -0.1963029651,
				"y": -1.2756239375,
				"z": 1.5715538042,
				"element": "H" 
			},
			{
				"x": 0.547708976,
				"y": -0.1440278959,
				"z": -4.079862748,
				"element": "H" 
			},
			{
				"x": -2.0650155223,
				"y": -2.5915683179,
				"z": -4.7393981293,
				"element": "H" 
			},
			{
				"x": -0.8622465736,
				"y": -1.6360888355,
				"z": -5.4114319665,
				"element": "H" 
			},
			{
				"x": -2.4815286886,
				"y": -2.6775159856,
				"z": -2.337322536,
				"element": "H" 
			},
			{
				"x": -2.1276043398,
				"y": -1.5718298079,
				"z": -0.1512537319,
				"element": "H" 
			},
			{
				"x": 0.2405536319,
				"y": 2.545721426,
				"z": -0.3576730875,
				"element": "H" 
			},
			{
				"x": 1.0417944113,
				"y": 3.530503162,
				"z": -1.4725038842,
				"element": "H" 
			}
		],
		 "valence_orbital": [ 
			{
				"type": "occ",
				"energy": -0.29555,
				"method": "rhf"
			},
			{
				"type": "occ",
				"energy": -0.28133,
				"method": "rhf"
			},
			{
				"type": "occ",
				"energy": -0.27349,
				"method": "rhf"
			},
			{
				"type": "occ",
				"energy": -0.26273,
				"method": "rhf"
			},
			{
				"type": "occ",
				"energy": -0.21119,
				"method": "rhf"
			},
			{
				"type": "unocc",
				"energy": -0.02721,
				"method": "rhf"
			},
			{
				"type": "unocc",
				"energy": -0.00021,
				"method": "rhf"
			},
			{
				"type": "unocc",
				"energy": 0.06558,
				"method": "rhf"
			},
			{
				"type": "unocc",
				"energy": 0.06837,
				"method": "rhf"
			},
			{
				"type": "unocc",
				"energy": 0.0813,
				"method": "rhf"
			}
		],
		"cosmo_sigma_profile": { 
			"-0.025": 0.0,
			"-0.024": 0.0,
			"-0.023": 0.0,
			"-0.022": 0.0,
			"-0.021": 0.0,
			"-0.02": 0.0,
			"-0.019": 0.0,
			"-0.018": 0.0,
			"-0.017": 0.0,
			"-0.016": 0.0236398678047,
			"-0.015": 1.10364673898,
			"-0.014": 1.37061406724,
			"-0.013": 2.68847452923,
			"-0.012": 5.88279530547,
			"-0.011": 5.36166763815,
			"-0.01": 4.81364084968,
			"-0.009": 5.34384203722,
			"-0.008": 4.50628012259,
			"-0.007": 6.57266087686,
			"-0.006": 7.18623465509,
			"-0.005": 9.35321399023,
			"-0.004": 14.4618421484,
			"-0.003": 19.2234840604,
			"-0.002": 15.1434141299,
			"-0.001": 14.4769835592,
			"0.0": 16.3408735608,
			"0.001": 11.1947739236,
			"0.002": 11.4345117987,
			"0.003": 18.3601514495,
			"0.004": 12.5587102033,
			"0.005": 6.41087889889,
			"0.006": 4.84182702488,
			"0.007": 5.45605093633,
			"0.008": 5.3245740435,
			"0.009": 5.55167005859,
			"0.01": 7.94552276897,
			"0.011": 9.58263538253,
			"0.012": 6.90376010618,
			"0.013": 1.65689507288,
			"0.014": 0.196182924914,
			"0.015": 0.0,
			"0.016": 0.0,
			"0.017": 0.0,
			"0.018": 0.0,
			"0.019": 0.0,
			"0.02": 0.0,
			"0.021": 0.0,
			"0.022": 0.0,
			"0.023": 0.0,
			"0.024": 0.0,
			"0.025": 0.0
		}
	}
}
