{
	 "smiles": "OC(=O)C1=C(Cl)C=CC(OCC(F)(F)F)=N1", 
	 "Tm": 359.15, 
	 "num_atms": 21, 
	 "gaussian": { 
		 "optdone": 1, 
		 "sigma_profile": "yes", 
		 "theory": "DFT", 
		 "functional": "B3LYP", 
		 "basiset": "6-31G**", 
		 "properties": { 
			 "R2extent": 4572.3152, 
			 "electric_dipole_moment_norm": 5.8838351481, 
			 "electric_quadrupole_moment_norm": 16.0952056119, 
			 "total_energy": -1348.00480331, 
			 "HOMO_LUMO_gap": 0.18216, 
			 "cosmo_polarized_energy": -14.85, 
			 "cosmo_cavitation_energy": 29.59, 
			 "cosmo_dispersion_energy": -20.97, 
			 "cosmo_repulsion_energy": 1.57, 
			 "cosmo_total_nonelectrostatic_energy": 10.19, 
			 "SMD_solvation_energy": 7.27 
		},
		"coords": [
			{
				"x": -0.9637777277,
				"y": -1.7763251146,
				"z": -1.9464175538,
				"element": "O" 
			},
			{
				"x": -1.9022450235,
				"y": -1.6414705857,
				"z": -0.9931883551,
				"element": "C" 
			},
			{
				"x": -3.0307955488,
				"y": -2.046268301,
				"z": -1.1307636742,
				"element": "O" 
			},
			{
				"x": -1.3900526205,
				"y": -0.9376178891,
				"z": 0.2495268041,
				"element": "C" 
			},
			{
				"x": -2.1828079072,
				"y": -0.4778721647,
				"z": 1.3030758926,
				"element": "C" 
			},
			{
				"x": -3.9118154998,
				"y": -0.6553402891,
				"z": 1.3702504421,
				"element": "Cl" 
			},
			{
				"x": -1.5514661326,
				"y": 0.1890438556,
				"z": 2.3690432316,
				"element": "C" 
			},
			{
				"x": -0.1818652949,
				"y": 0.3648431399,
				"z": 2.3640104935,
				"element": "C" 
			},
			{
				"x": 0.5338840285,
				"y": -0.1426025969,
				"z": 1.2658070331,
				"element": "C" 
			},
			{
				"x": 1.8819391679,
				"y": 0.0246836555,
				"z": 1.2892892662,
				"element": "O" 
			},
			{
				"x": 2.6771942906,
				"y": -0.6133152599,
				"z": 0.2997067777,
				"element": "C" 
			},
			{
				"x": 2.9321710626,
				"y": 0.2878029867,
				"z": -0.9017589425,
				"element": "C" 
			},
			{
				"x": 3.4703941695,
				"y": 1.4614461998,
				"z": -0.5320538208,
				"element": "F" 
			},
			{
				"x": 3.7971328962,
				"y": -0.3333619817,
				"z": -1.7306979105,
				"element": "F" 
			},
			{
				"x": 1.8087928718,
				"y": 0.5533204517,
				"z": -1.5986733329,
				"element": "F" 
			},
			{
				"x": -0.049954912,
				"y": -0.7597770344,
				"z": 0.2575120082,
				"element": "N" 
			},
			{
				"x": -0.1419330333,
				"y": -1.3753350025,
				"z": -1.6016190818,
				"element": "H" 
			},
			{
				"x": -2.1535982716,
				"y": 0.5600031873,
				"z": 3.19121036,
				"element": "H" 
			},
			{
				"x": 0.3400526589,
				"y": 0.8691531765,
				"z": 3.1685425459,
				"element": "H" 
			},
			{
				"x": 3.6417208833,
				"y": -0.8177822121,
				"z": 0.768528981,
				"element": "H" 
			},
			{
				"x": 2.2262299427,
				"y": -1.5456282214,
				"z": -0.0459311645,
				"element": "H" 
			}
		],
		 "valence_orbital": [ 
			{
				"type": "occ",
				"energy": -0.3251,
				"method": "rhf"
			},
			{
				"type": "occ",
				"energy": -0.31888,
				"method": "rhf"
			},
			{
				"type": "occ",
				"energy": -0.31225,
				"method": "rhf"
			},
			{
				"type": "occ",
				"energy": -0.26755,
				"method": "rhf"
			},
			{
				"type": "occ",
				"energy": -0.2624,
				"method": "rhf"
			},
			{
				"type": "unocc",
				"energy": -0.08024,
				"method": "rhf"
			},
			{
				"type": "unocc",
				"energy": -0.04532,
				"method": "rhf"
			},
			{
				"type": "unocc",
				"energy": 0.0165,
				"method": "rhf"
			},
			{
				"type": "unocc",
				"energy": 0.04066,
				"method": "rhf"
			},
			{
				"type": "unocc",
				"energy": 0.06687,
				"method": "rhf"
			}
		],
		"cosmo_sigma_profile": { 
			"-0.025": 0.0,
			"-0.024": 0.0,
			"-0.023": 0.0,
			"-0.022": 0.0,
			"-0.021": 0.0,
			"-0.02": 0.0,
			"-0.019": 0.0,
			"-0.018": 0.0,
			"-0.017": 0.0,
			"-0.016": 0.0,
			"-0.015": 0.0,
			"-0.014": 0.0,
			"-0.013": 0.0,
			"-0.012": 0.0,
			"-0.011": 0.163253023682,
			"-0.01": 2.1380721169,
			"-0.009": 9.32450595707,
			"-0.008": 9.54222494453,
			"-0.007": 8.53903510398,
			"-0.006": 8.91521414974,
			"-0.005": 9.81874088634,
			"-0.004": 9.47360253571,
			"-0.003": 16.5443613262,
			"-0.002": 19.4569087815,
			"-0.001": 19.9347311666,
			"0.0": 15.0690179168,
			"0.001": 13.4286404026,
			"0.002": 29.9693120997,
			"0.003": 24.3846608889,
			"0.004": 7.93734007041,
			"0.005": 5.03269020762,
			"0.006": 3.40232047455,
			"0.007": 3.7246157358,
			"0.008": 3.61585464626,
			"0.009": 4.44520222205,
			"0.01": 5.44973805214,
			"0.011": 5.71273904765,
			"0.012": 3.67208979884,
			"0.013": 0.639265244581,
			"0.014": 0.0,
			"0.015": 0.0,
			"0.016": 0.0,
			"0.017": 0.0,
			"0.018": 0.0,
			"0.019": 0.0,
			"0.02": 0.0,
			"0.021": 0.0,
			"0.022": 0.0,
			"0.023": 0.0,
			"0.024": 0.0,
			"0.025": 0.0
		}
	}
}
