{
	 "smiles": "O=C(C=CC1=CC=CO1)C1=CC=CC=C1", 
	 "Tm": 320.15, 
	 "num_atms": 25, 
	 "gaussian": { 
		 "optdone": 1, 
		 "sigma_profile": "yes", 
		 "theory": "DFT", 
		 "functional": "B3LYP", 
		 "basiset": "6-31G**", 
		 "properties": { 
			 "R2extent": 4477.5077, 
			 "electric_dipole_moment_norm": 4.5046976025, 
			 "electric_quadrupole_moment_norm": 13.5332007592, 
			 "total_energy": -651.817270028, 
			 "HOMO_LUMO_gap": 0.14976, 
			 "cosmo_polarized_energy": -11.71, 
			 "cosmo_cavitation_energy": 30.47, 
			 "cosmo_dispersion_energy": -21.91, 
			 "cosmo_repulsion_energy": 1.71, 
			 "cosmo_total_nonelectrostatic_energy": 10.26, 
			 "SMD_solvation_energy": 6.75 
		},
		"coords": [
			{
				"x": 0.4474731687,
				"y": 2.291868031,
				"z": 0.4922378059,
				"element": "O" 
			},
			{
				"x": 0.0815768092,
				"y": 1.1390316318,
				"z": 0.2718501041,
				"element": "C" 
			},
			{
				"x": 0.8864301964,
				"y": 0.29279688,
				"z": -0.6352573187,
				"element": "C" 
			},
			{
				"x": 0.4232902463,
				"y": -0.753998398,
				"z": -1.3549188923,
				"element": "C" 
			},
			{
				"x": 1.1794827336,
				"y": -1.5022762074,
				"z": -2.3207086196,
				"element": "C" 
			},
			{
				"x": 0.8368258619,
				"y": -2.5576247332,
				"z": -3.1344965098,
				"element": "C" 
			},
			{
				"x": 2.000983479,
				"y": -2.8952927461,
				"z": -3.8851278453,
				"element": "C" 
			},
			{
				"x": 2.9722362715,
				"y": -2.025551325,
				"z": -3.4811158324,
				"element": "C" 
			},
			{
				"x": 2.4952085624,
				"y": -1.1756300649,
				"z": -2.5356297861,
				"element": "O" 
			},
			{
				"x": -1.1808464495,
				"y": 0.6231211462,
				"z": 0.9047965142,
				"element": "C" 
			},
			{
				"x": -1.3572509688,
				"y": -0.7161076943,
				"z": 1.2852544571,
				"element": "C" 
			},
			{
				"x": -2.5314181067,
				"y": -1.1190204559,
				"z": 1.923957836,
				"element": "C" 
			},
			{
				"x": -3.5426678211,
				"y": -0.191985979,
				"z": 2.1799163804,
				"element": "C" 
			},
			{
				"x": -3.3699002314,
				"y": 1.1467039912,
				"z": 1.8141730117,
				"element": "C" 
			},
			{
				"x": -2.1921031612,
				"y": 1.553055711,
				"z": 1.1937795736,
				"element": "C" 
			},
			{
				"x": 1.8979390409,
				"y": 0.6560606375,
				"z": -0.794193456,
				"element": "H" 
			},
			{
				"x": -0.6080225394,
				"y": -1.0771374891,
				"z": -1.2437249542,
				"element": "H" 
			},
			{
				"x": -0.1347240183,
				"y": -3.0286363071,
				"z": -3.1832225225,
				"element": "H" 
			},
			{
				"x": 2.1040828826,
				"y": -3.6759321687,
				"z": -4.6246175305,
				"element": "H" 
			},
			{
				"x": 4.0062344351,
				"y": -1.8885061193,
				"z": -3.7580816272,
				"element": "H" 
			},
			{
				"x": -0.5641274775,
				"y": -1.4358874284,
				"z": 1.1120863603,
				"element": "H" 
			},
			{
				"x": -2.6526711525,
				"y": -2.1551418354,
				"z": 2.2268552035,
				"element": "H" 
			},
			{
				"x": -4.4587749544,
				"y": -0.5082420118,
				"z": 2.6707830619,
				"element": "H" 
			},
			{
				"x": -4.1518211529,
				"y": 1.8719260304,
				"z": 2.0206160031,
				"element": "H" 
			},
			{
				"x": -2.029035654,
				"y": 2.5913069046,
				"z": 0.9241885827,
				"element": "H" 
			}
		],
		 "valence_orbital": [ 
			{
				"type": "occ",
				"energy": -0.29077,
				"method": "rhf"
			},
			{
				"type": "occ",
				"energy": -0.25707,
				"method": "rhf"
			},
			{
				"type": "occ",
				"energy": -0.25643,
				"method": "rhf"
			},
			{
				"type": "occ",
				"energy": -0.23973,
				"method": "rhf"
			},
			{
				"type": "occ",
				"energy": -0.22091,
				"method": "rhf"
			},
			{
				"type": "unocc",
				"energy": -0.07115,
				"method": "rhf"
			},
			{
				"type": "unocc",
				"energy": -0.02316,
				"method": "rhf"
			},
			{
				"type": "unocc",
				"energy": -0.0063,
				"method": "rhf"
			},
			{
				"type": "unocc",
				"energy": 0.02967,
				"method": "rhf"
			},
			{
				"type": "unocc",
				"energy": 0.06429,
				"method": "rhf"
			}
		],
		"cosmo_sigma_profile": { 
			"-0.025": 0.0,
			"-0.024": 0.0,
			"-0.023": 0.0,
			"-0.022": 0.0,
			"-0.021": 0.0,
			"-0.02": 0.0,
			"-0.019": 0.0,
			"-0.018": 0.0,
			"-0.017": 0.0,
			"-0.016": 0.0,
			"-0.015": 0.0,
			"-0.014": 0.0,
			"-0.013": 0.0,
			"-0.012": 0.0,
			"-0.011": 0.0,
			"-0.01": 0.731253322472,
			"-0.009": 1.77174357121,
			"-0.008": 4.6560690615,
			"-0.007": 8.69440457377,
			"-0.006": 13.8027947335,
			"-0.005": 18.1466376881,
			"-0.004": 19.3155196359,
			"-0.003": 15.0472342218,
			"-0.002": 16.2717288493,
			"-0.001": 16.9280244344,
			"0.0": 15.087775014,
			"0.001": 20.7962055069,
			"0.002": 24.974100685,
			"0.003": 20.3618755882,
			"0.004": 18.7867366373,
			"0.005": 8.54821664545,
			"0.006": 3.86439561146,
			"0.007": 1.82281854759,
			"0.008": 1.59755969165,
			"0.009": 1.72797817546,
			"0.01": 1.40895351733,
			"0.011": 2.50116624002,
			"0.012": 3.59074585863,
			"0.013": 4.09620790821,
			"0.014": 1.02578621984,
			"0.015": 0.0,
			"0.016": 0.0,
			"0.017": 0.0,
			"0.018": 0.0,
			"0.019": 0.0,
			"0.02": 0.0,
			"0.021": 0.0,
			"0.022": 0.0,
			"0.023": 0.0,
			"0.024": 0.0,
			"0.025": 0.0
		}
	}
}
