{
	 "smiles": "NC(=O)CC1=CC2=C(CCC2)C=C1", 
	 "Tm": 440.15, 
	 "num_atms": 26, 
	 "gaussian": { 
		 "optdone": 1, 
		 "sigma_profile": "yes", 
		 "theory": "DFT", 
		 "functional": "B3LYP", 
		 "basiset": "6-31G**", 
		 "properties": { 
			 "R2extent": 3372.143, 
			 "electric_dipole_moment_norm": 4.39140343057, 
			 "electric_quadrupole_moment_norm": 17.5342762548, 
			 "total_energy": -557.014383111, 
			 "HOMO_LUMO_gap": 0.21409, 
			 "cosmo_polarized_energy": -11.92, 
			 "cosmo_cavitation_energy": 28.66, 
			 "cosmo_dispersion_energy": -20.89, 
			 "cosmo_repulsion_energy": 1.69, 
			 "cosmo_total_nonelectrostatic_energy": 9.46, 
			 "SMD_solvation_energy": 4.87 
		},
		"coords": [
			{
				"x": 2.5946564477,
				"y": 0.133175018,
				"z": 2.0618754864,
				"element": "N" 
			},
			{
				"x": 2.9523042989,
				"y": -1.0295197047,
				"z": 1.4457773473,
				"element": "C" 
			},
			{
				"x": 3.9576037236,
				"y": -1.6573526689,
				"z": 1.7433286477,
				"element": "O" 
			},
			{
				"x": 1.9768769628,
				"y": -1.5535968652,
				"z": 0.3736627676,
				"element": "C" 
			},
			{
				"x": 0.9946984499,
				"y": -0.5631533572,
				"z": -0.2100350623,
				"element": "C" 
			},
			{
				"x": 1.3579798943,
				"y": 0.2377581443,
				"z": -1.3062134852,
				"element": "C" 
			},
			{
				"x": 0.4604026333,
				"y": 1.1715901698,
				"z": -1.8159639534,
				"element": "C" 
			},
			{
				"x": -0.8125621387,
				"y": 1.3231201434,
				"z": -1.245381403,
				"element": "C" 
			},
			{
				"x": -1.6050823414,
				"y": 2.3777004363,
				"z": -1.989689993,
				"element": "C" 
			},
			{
				"x": -0.5135447132,
				"y": 3.1413238792,
				"z": -2.7826463718,
				"element": "C" 
			},
			{
				"x": 0.627179096,
				"y": 2.1127059643,
				"z": -2.9915834654,
				"element": "C" 
			},
			{
				"x": -1.18818376,
				"y": 0.5340426483,
				"z": -0.1609068665,
				"element": "C" 
			},
			{
				"x": -0.2831310954,
				"y": -0.4020633658,
				"z": 0.3500541409,
				"element": "C" 
			},
			{
				"x": 1.8137647666,
				"y": 0.6830548307,
				"z": 1.7414115019,
				"element": "H" 
			},
			{
				"x": 3.2244961115,
				"y": 0.5132478609,
				"z": 2.7514501751,
				"element": "H" 
			},
			{
				"x": 2.608473858,
				"y": -1.9897505696,
				"z": -0.405343978,
				"element": "H" 
			},
			{
				"x": 1.4436434653,
				"y": -2.3910419362,
				"z": 0.8394874054,
				"element": "H" 
			},
			{
				"x": 2.3450892946,
				"y": 0.1226063706,
				"z": -1.7493827169,
				"element": "H" 
			},
			{
				"x": -2.3230952488,
				"y": 1.9007143568,
				"z": -2.67213892,
				"element": "H" 
			},
			{
				"x": -2.1857304211,
				"y": 3.030436462,
				"z": -1.3290689473,
				"element": "H" 
			},
			{
				"x": -0.8845746289,
				"y": 3.5629301994,
				"z": -3.7209050455,
				"element": "H" 
			},
			{
				"x": -0.1415506539,
				"y": 3.9731747477,
				"z": -2.1739029094,
				"element": "H" 
			},
			{
				"x": 0.4927839185,
				"y": 1.5650823904,
				"z": -3.9353206895,
				"element": "H" 
			},
			{
				"x": 1.6174014307,
				"y": 2.5783128203,
				"z": -3.036663484,
				"element": "H" 
			},
			{
				"x": -2.172912859,
				"y": 0.6378426982,
				"z": 0.2881037311,
				"element": "H" 
			},
			{
				"x": -0.5730864914,
				"y": -1.0220406728,
				"z": 1.1951960878,
				"element": "H" 
			}
		],
		 "valence_orbital": [ 
			{
				"type": "occ",
				"energy": -0.3281,
				"method": "rhf"
			},
			{
				"type": "occ",
				"energy": -0.26078,
				"method": "rhf"
			},
			{
				"type": "occ",
				"energy": -0.25352,
				"method": "rhf"
			},
			{
				"type": "occ",
				"energy": -0.24683,
				"method": "rhf"
			},
			{
				"type": "occ",
				"energy": -0.22521,
				"method": "rhf"
			},
			{
				"type": "unocc",
				"energy": -0.01112,
				"method": "rhf"
			},
			{
				"type": "unocc",
				"energy": -0.0033,
				"method": "rhf"
			},
			{
				"type": "unocc",
				"energy": 0.04,
				"method": "rhf"
			},
			{
				"type": "unocc",
				"energy": 0.0918,
				"method": "rhf"
			},
			{
				"type": "unocc",
				"energy": 0.09457,
				"method": "rhf"
			}
		],
		"cosmo_sigma_profile": { 
			"-0.025": 0.0,
			"-0.024": 0.0,
			"-0.023": 0.0,
			"-0.022": 0.0,
			"-0.021": 0.0,
			"-0.02": 0.0,
			"-0.019": 0.0,
			"-0.018": 0.0,
			"-0.017": 0.0,
			"-0.016": 0.0,
			"-0.015": 0.0,
			"-0.014": 0.475045402962,
			"-0.013": 1.11397111544,
			"-0.012": 1.51747550299,
			"-0.011": 2.08662560065,
			"-0.01": 1.45431339759,
			"-0.009": 1.87523789644,
			"-0.008": 1.83683537619,
			"-0.007": 1.66126069274,
			"-0.006": 4.37060572563,
			"-0.005": 13.7621513987,
			"-0.004": 13.5909385312,
			"-0.003": 24.79305824,
			"-0.002": 26.9441514789,
			"-0.001": 27.9659955182,
			"0.0": 22.5273573258,
			"0.001": 17.4704922762,
			"0.002": 9.01310073609,
			"0.003": 10.0150840569,
			"0.004": 9.10526423239,
			"0.005": 8.06186798558,
			"0.006": 4.98368704791,
			"0.007": 1.51954740528,
			"0.008": 1.54610693381,
			"0.009": 1.8754016856,
			"0.01": 0.823771024559,
			"0.011": 0.985366920642,
			"0.012": 1.6266511478,
			"0.013": 2.91553071892,
			"0.014": 5.93769748816,
			"0.015": 3.26399756741,
			"0.016": 0.207876131403,
			"0.017": 0.0,
			"0.018": 0.0,
			"0.019": 0.0,
			"0.02": 0.0,
			"0.021": 0.0,
			"0.022": 0.0,
			"0.023": 0.0,
			"0.024": 0.0,
			"0.025": 0.0
		}
	}
}
