{
	 "smiles": "FC1=CC=CC(=N1)C#N", 
	 "Tm": 307.15, 
	 "num_atms": 12, 
	 "gaussian": { 
		 "optdone": 1, 
		 "sigma_profile": "yes", 
		 "theory": "DFT", 
		 "functional": "B3LYP", 
		 "basiset": "6-31G**", 
		 "properties": { 
			 "R2extent": 1367.0738, 
			 "electric_dipole_moment_norm": 5.54256158558, 
			 "electric_quadrupole_moment_norm": 10.2955055592, 
			 "total_energy": -439.758730693, 
			 "HOMO_LUMO_gap": 0.20302, 
			 "cosmo_polarized_energy": -10.68, 
			 "cosmo_cavitation_energy": 18.55, 
			 "cosmo_dispersion_energy": -13.12, 
			 "cosmo_repulsion_energy": 1.06, 
			 "cosmo_total_nonelectrostatic_energy": 6.49, 
			 "SMD_solvation_energy": 3.76 
		},
		"coords": [
			{
				"x": -0.9437449144,
				"y": 1.4299176218,
				"z": -2.0623980936,
				"element": "F" 
			},
			{
				"x": -0.6224643821,
				"y": 1.0103433374,
				"z": -0.8342019478,
				"element": "C" 
			},
			{
				"x": -1.4747987849,
				"y": 0.0968865646,
				"z": -0.205639724,
				"element": "C" 
			},
			{
				"x": -1.1176106598,
				"y": -0.3227783877,
				"z": 1.0700467494,
				"element": "C" 
			},
			{
				"x": 0.0502748339,
				"y": 0.1757455133,
				"z": 1.6531086326,
				"element": "C" 
			},
			{
				"x": 0.8119716936,
				"y": 1.0851798547,
				"z": 0.9126397255,
				"element": "C" 
			},
			{
				"x": 0.4821177662,
				"y": 1.5033351468,
				"z": -0.3240068729,
				"element": "N" 
			},
			{
				"x": 2.0260058867,
				"y": 1.6255892804,
				"z": 1.4762217413,
				"element": "C" 
			},
			{
				"x": 2.9969207901,
				"y": 2.0394894166,
				"z": 1.962011345,
				"element": "N" 
			},
			{
				"x": -2.3675449989,
				"y": -0.2539625006,
				"z": -0.7093748179,
				"element": "H" 
			},
			{
				"x": -1.7402720056,
				"y": -1.0308479943,
				"z": 1.6074779741,
				"element": "H" 
			},
			{
				"x": 0.3672447751,
				"y": -0.1235978529,
				"z": 2.6450152882,
				"element": "H" 
			}
		],
		 "valence_orbital": [ 
			{
				"type": "occ",
				"energy": -0.35963,
				"method": "rhf"
			},
			{
				"type": "occ",
				"energy": -0.34591,
				"method": "rhf"
			},
			{
				"type": "occ",
				"energy": -0.32097,
				"method": "rhf"
			},
			{
				"type": "occ",
				"energy": -0.30952,
				"method": "rhf"
			},
			{
				"type": "occ",
				"energy": -0.28188,
				"method": "rhf"
			},
			{
				"type": "unocc",
				"energy": -0.07886,
				"method": "rhf"
			},
			{
				"type": "unocc",
				"energy": -0.0436,
				"method": "rhf"
			},
			{
				"type": "unocc",
				"energy": 0.02371,
				"method": "rhf"
			},
			{
				"type": "unocc",
				"energy": 0.06382,
				"method": "rhf"
			},
			{
				"type": "unocc",
				"energy": 0.07045,
				"method": "rhf"
			}
		],
		"cosmo_sigma_profile": { 
			"-0.025": 0.0,
			"-0.024": 0.0,
			"-0.023": 0.0,
			"-0.022": 0.0,
			"-0.021": 0.0,
			"-0.02": 0.0,
			"-0.019": 0.0,
			"-0.018": 0.0,
			"-0.017": 0.0,
			"-0.016": 0.0,
			"-0.015": 0.0,
			"-0.014": 0.0,
			"-0.013": 0.0,
			"-0.012": 0.0,
			"-0.011": 0.0,
			"-0.01": 0.58730569201,
			"-0.009": 6.69536246734,
			"-0.008": 8.42336247293,
			"-0.007": 6.41854365042,
			"-0.006": 5.10924443288,
			"-0.005": 5.10710122677,
			"-0.004": 6.29227467764,
			"-0.003": 14.9281511288,
			"-0.002": 13.4687657903,
			"-0.001": 12.0371055433,
			"0.0": 10.4589639662,
			"0.001": 4.2321348465,
			"0.002": 6.3489718054,
			"0.003": 13.0325372266,
			"0.004": 6.46221133289,
			"0.005": 5.10020872796,
			"0.006": 4.25530529289,
			"0.007": 4.90141897436,
			"0.008": 4.43463952648,
			"0.009": 3.66522950798,
			"0.01": 3.94132020971,
			"0.011": 3.29906751652,
			"0.012": 2.26237858155,
			"0.013": 0.238447082528,
			"0.014": 0.0,
			"0.015": 0.0,
			"0.016": 0.0,
			"0.017": 0.0,
			"0.018": 0.0,
			"0.019": 0.0,
			"0.02": 0.0,
			"0.021": 0.0,
			"0.022": 0.0,
			"0.023": 0.0,
			"0.024": 0.0,
			"0.025": 0.0
		}
	}
}
