{
	 "smiles": "CC1=C(Cl)C2=C(C=C1)C(=O)C1=C(C=CC=C1)C2=O", 
	 "Tm": 443.15, 
	 "num_atms": 27, 
	 "gaussian": { 
		 "optdone": 1, 
		 "sigma_profile": "yes", 
		 "theory": "DFT", 
		 "functional": "B3LYP", 
		 "basiset": "6-31G**", 
		 "properties": { 
			 "R2extent": 5550.2233, 
			 "electric_dipole_moment_norm": 0.971494137913, 
			 "electric_quadrupole_moment_norm": 24.4078383078, 
			 "total_energy": -1187.67669057, 
			 "HOMO_LUMO_gap": 0.1467, 
			 "cosmo_polarized_energy": -10.46, 
			 "cosmo_cavitation_energy": 32.56, 
			 "cosmo_dispersion_energy": -24.33, 
			 "cosmo_repulsion_energy": 1.79, 
			 "cosmo_total_nonelectrostatic_energy": 10.03, 
			 "SMD_solvation_energy": 5.83 
		},
		"coords": [
			{
				"x": -3.8859579952,
				"y": 3.5538707296,
				"z": 0.0033196725,
				"element": "C" 
			},
			{
				"x": -2.9449793906,
				"y": 2.4699043639,
				"z": -0.4540921783,
				"element": "C" 
			},
			{
				"x": -2.4649103278,
				"y": 1.4765300458,
				"z": 0.4247268481,
				"element": "C" 
			},
			{
				"x": -3.0307242435,
				"y": 1.5817510364,
				"z": 2.0802126425,
				"element": "Cl" 
			},
			{
				"x": -1.5826483262,
				"y": 0.4602651824,
				"z": -0.0044257554,
				"element": "C" 
			},
			{
				"x": -1.1858979684,
				"y": 0.4658489009,
				"z": -1.3658750419,
				"element": "C" 
			},
			{
				"x": -1.6561250611,
				"y": 1.4445046885,
				"z": -2.2408807419,
				"element": "C" 
			},
			{
				"x": -2.5218656248,
				"y": 2.4288382499,
				"z": -1.7871479934,
				"element": "C" 
			},
			{
				"x": -0.2564671415,
				"y": -0.5566985482,
				"z": -1.9396335579,
				"element": "C" 
			},
			{
				"x": 0.0641000941,
				"y": -0.5187149266,
				"z": -3.1235121697,
				"element": "O" 
			},
			{
				"x": 0.259961845,
				"y": -1.6095693764,
				"z": -1.0336653267,
				"element": "C" 
			},
			{
				"x": -0.1218761955,
				"y": -1.6311840325,
				"z": 0.3175616509,
				"element": "C" 
			},
			{
				"x": 0.376921647,
				"y": -2.6345868539,
				"z": 1.1582379452,
				"element": "C" 
			},
			{
				"x": 1.2437705331,
				"y": -3.6010078411,
				"z": 0.6557667319,
				"element": "C" 
			},
			{
				"x": 1.6228132759,
				"y": -3.5767905352,
				"z": -0.6924156988,
				"element": "C" 
			},
			{
				"x": 1.1323612012,
				"y": -2.5839894062,
				"z": -1.534728854,
				"element": "C" 
			},
			{
				"x": -1.0516671636,
				"y": -0.6130711873,
				"z": 0.9035880517,
				"element": "C" 
			},
			{
				"x": -1.3457711768,
				"y": -0.6868164873,
				"z": 2.0885058832,
				"element": "O" 
			},
			{
				"x": -4.1357509155,
				"y": 4.218362549,
				"z": -0.8269915915,
				"element": "H" 
			},
			{
				"x": -4.8145121578,
				"y": 3.1327723999,
				"z": 0.402128118,
				"element": "H" 
			},
			{
				"x": -3.4433399803,
				"y": 4.1527059862,
				"z": 0.8058572123,
				"element": "H" 
			},
			{
				"x": -1.3254957111,
				"y": 1.4084652441,
				"z": -3.2727005635,
				"element": "H" 
			},
			{
				"x": -2.8846377199,
				"y": 3.1883897152,
				"z": -2.4738689134,
				"element": "H" 
			},
			{
				"x": 0.0697776054,
				"y": -2.6333765314,
				"z": 2.1981835276,
				"element": "H" 
			},
			{
				"x": 1.6269980811,
				"y": -4.3762938566,
				"z": 1.3127833889,
				"element": "H" 
			},
			{
				"x": 2.2993129177,
				"y": -4.3325856096,
				"z": -1.0804322759,
				"element": "H" 
			},
			{
				"x": 1.406909899,
				"y": -2.5380238994,
				"z": -2.5831010105,
				"element": "H" 
			}
		],
		 "valence_orbital": [ 
			{
				"type": "occ",
				"energy": -0.2683,
				"method": "rhf"
			},
			{
				"type": "occ",
				"energy": -0.26816,
				"method": "rhf"
			},
			{
				"type": "occ",
				"energy": -0.26781,
				"method": "rhf"
			},
			{
				"type": "occ",
				"energy": -0.25526,
				"method": "rhf"
			},
			{
				"type": "occ",
				"energy": -0.25067,
				"method": "rhf"
			},
			{
				"type": "unocc",
				"energy": -0.10397,
				"method": "rhf"
			},
			{
				"type": "unocc",
				"energy": -0.06111,
				"method": "rhf"
			},
			{
				"type": "unocc",
				"energy": -0.0263,
				"method": "rhf"
			},
			{
				"type": "unocc",
				"energy": -0.01676,
				"method": "rhf"
			},
			{
				"type": "unocc",
				"energy": 0.0309,
				"method": "rhf"
			}
		],
		"cosmo_sigma_profile": { 
			"-0.025": 0.0,
			"-0.024": 0.0,
			"-0.023": 0.0,
			"-0.022": 0.0,
			"-0.021": 0.0,
			"-0.02": 0.0,
			"-0.019": 0.0,
			"-0.018": 0.0,
			"-0.017": 0.0,
			"-0.016": 0.0,
			"-0.015": 0.0,
			"-0.014": 0.0,
			"-0.013": 0.0,
			"-0.012": 0.0,
			"-0.011": 0.0,
			"-0.01": 0.0,
			"-0.009": 0.0,
			"-0.008": 1.16436606308,
			"-0.007": 8.65242670094,
			"-0.006": 13.6592259886,
			"-0.005": 18.812293972,
			"-0.004": 16.8787217326,
			"-0.003": 18.0942146914,
			"-0.002": 21.3305321948,
			"-0.001": 28.193139104,
			"0.0": 29.0796020657,
			"0.001": 29.6217548778,
			"0.002": 25.322681846,
			"0.003": 11.1300657903,
			"0.004": 7.28960914646,
			"0.005": 4.70836922809,
			"0.006": 4.38657573676,
			"0.007": 4.28835720246,
			"0.008": 3.5380806695,
			"0.009": 3.58257926265,
			"0.01": 5.72534964979,
			"0.011": 7.3273990433,
			"0.012": 1.76421686076,
			"0.013": 0.0,
			"0.014": 0.0,
			"0.015": 0.0,
			"0.016": 0.0,
			"0.017": 0.0,
			"0.018": 0.0,
			"0.019": 0.0,
			"0.02": 0.0,
			"0.021": 0.0,
			"0.022": 0.0,
			"0.023": 0.0,
			"0.024": 0.0,
			"0.025": 0.0
		}
	}
}
