{
	 "smiles": "O1N=C2C=CC=CC2=N1", 
	 "Tm": 327.15, 
	 "num_atms": 13, 
	 "gaussian": { 
		 "optdone": 1, 
		 "sigma_profile": "yes", 
		 "theory": "DFT", 
		 "functional": "B3LYP", 
		 "basiset": "6-31G**", 
		 "properties": { 
			 "R2extent": 1342.2983, 
			 "electric_dipole_moment_norm": 4.13714734811, 
			 "electric_quadrupole_moment_norm": 8.43393697629, 
			 "total_energy": -415.675085404, 
			 "HOMO_LUMO_gap": 0.1623, 
			 "cosmo_polarized_energy": -7.37, 
			 "cosmo_cavitation_energy": 17.7, 
			 "cosmo_dispersion_energy": -13.57, 
			 "cosmo_repulsion_energy": 1.09, 
			 "cosmo_total_nonelectrostatic_energy": 5.22, 
			 "SMD_solvation_energy": 2.34 
		},
		"coords": [
			{
				"x": 0.7022528693,
				"y": -0.8013916169,
				"z": 3.0674884333,
				"element": "O" 
			},
			{
				"x": -0.3600734615,
				"y": -0.6034120333,
				"z": 2.2297159704,
				"element": "N" 
			},
			{
				"x": 0.1632333372,
				"y": -0.0301004558,
				"z": 1.1582132216,
				"element": "C" 
			},
			{
				"x": -0.4558099694,
				"y": 0.4103729903,
				"z": -0.0488066454,
				"element": "C" 
			},
			{
				"x": 0.3612488766,
				"y": 0.9747270741,
				"z": -0.9903531649,
				"element": "C" 
			},
			{
				"x": 1.7799431542,
				"y": 1.1243231768,
				"z": -0.7883126915,
				"element": "C" 
			},
			{
				"x": 2.4026168615,
				"y": 0.711799385,
				"z": 0.3582868698,
				"element": "C" 
			},
			{
				"x": 1.5779894923,
				"y": 0.119108754,
				"z": 1.3597030573,
				"element": "C" 
			},
			{
				"x": 1.8907634109,
				"y": -0.3660145078,
				"z": 2.5502799028,
				"element": "N" 
			},
			{
				"x": -1.5234481382,
				"y": 0.2961806787,
				"z": -0.1973017053,
				"element": "H" 
			},
			{
				"x": -0.0636312638,
				"y": 1.3254574916,
				"z": -1.9259271439,
				"element": "H" 
			},
			{
				"x": 2.3656072398,
				"y": 1.5815846841,
				"z": -1.5799831748,
				"element": "H" 
			},
			{
				"x": 3.4696075912,
				"y": 0.8226643794,
				"z": 0.5137970706,
				"element": "H" 
			}
		],
		 "valence_orbital": [ 
			{
				"type": "occ",
				"energy": -0.3375,
				"method": "rhf"
			},
			{
				"type": "occ",
				"energy": -0.33606,
				"method": "rhf"
			},
			{
				"type": "occ",
				"energy": -0.31963,
				"method": "rhf"
			},
			{
				"type": "occ",
				"energy": -0.29422,
				"method": "rhf"
			},
			{
				"type": "occ",
				"energy": -0.25211,
				"method": "rhf"
			},
			{
				"type": "unocc",
				"energy": -0.08981,
				"method": "rhf"
			},
			{
				"type": "unocc",
				"energy": 0.0022,
				"method": "rhf"
			},
			{
				"type": "unocc",
				"energy": 0.00493,
				"method": "rhf"
			},
			{
				"type": "unocc",
				"energy": 0.07996,
				"method": "rhf"
			},
			{
				"type": "unocc",
				"energy": 0.10369,
				"method": "rhf"
			}
		],
		"cosmo_sigma_profile": { 
			"-0.025": 0.0,
			"-0.024": 0.0,
			"-0.023": 0.0,
			"-0.022": 0.0,
			"-0.021": 0.0,
			"-0.02": 0.0,
			"-0.019": 0.0,
			"-0.018": 0.0,
			"-0.017": 0.0,
			"-0.016": 0.0,
			"-0.015": 0.0,
			"-0.014": 0.0,
			"-0.013": 0.0,
			"-0.012": 0.0,
			"-0.011": 0.0,
			"-0.01": 0.0,
			"-0.009": 0.417983686375,
			"-0.008": 5.0885301381,
			"-0.007": 9.33992798636,
			"-0.006": 9.80244364158,
			"-0.005": 6.82483487869,
			"-0.004": 6.67878493256,
			"-0.003": 8.10262476672,
			"-0.002": 9.8924794462,
			"-0.001": 11.3720305413,
			"0.0": 14.1053689364,
			"0.001": 11.6623784871,
			"0.002": 11.3403842665,
			"0.003": 4.76303019382,
			"0.004": 4.89483301719,
			"0.005": 8.52364213047,
			"0.006": 6.25566401058,
			"0.007": 3.04681478148,
			"0.008": 2.53050097898,
			"0.009": 2.63062524536,
			"0.01": 2.66051545901,
			"0.011": 2.17574121868,
			"0.012": 1.53662745324,
			"0.013": 0.0220977272929,
			"0.014": 0.0,
			"0.015": 0.0,
			"0.016": 0.0,
			"0.017": 0.0,
			"0.018": 0.0,
			"0.019": 0.0,
			"0.02": 0.0,
			"0.021": 0.0,
			"0.022": 0.0,
			"0.023": 0.0,
			"0.024": 0.0,
			"0.025": 0.0
		}
	}
}
