{
	 "smiles": "NC(=O)C1=CC(CO)=CC=C1", 
	 "Tm": 387.15, 
	 "num_atms": 20, 
	 "gaussian": { 
		 "optdone": 1, 
		 "sigma_profile": "yes", 
		 "theory": "DFT", 
		 "functional": "B3LYP", 
		 "basiset": "6-31G**", 
		 "properties": { 
			 "R2extent": 2009.4779, 
			 "electric_dipole_moment_norm": 4.70020696246, 
			 "electric_quadrupole_moment_norm": 11.5097630775, 
			 "total_energy": -515.482151326, 
			 "HOMO_LUMO_gap": 0.20772, 
			 "cosmo_polarized_energy": -16.57, 
			 "cosmo_cavitation_energy": 24.08, 
			 "cosmo_dispersion_energy": -17.89, 
			 "cosmo_repulsion_energy": 1.46, 
			 "cosmo_total_nonelectrostatic_energy": 7.65, 
			 "SMD_solvation_energy": 5.01 
		},
		"coords": [
			{
				"x": -0.2034604184,
				"y": -2.5839576255,
				"z": 1.7933426604,
				"element": "N" 
			},
			{
				"x": 0.8810213381,
				"y": -2.2417226737,
				"z": 1.0219392455,
				"element": "C" 
			},
			{
				"x": 1.8817119,
				"y": -2.9474776844,
				"z": 0.96954185,
				"element": "O" 
			},
			{
				"x": 0.7622293313,
				"y": -0.9679140994,
				"z": 0.2320424279,
				"element": "C" 
			},
			{
				"x": -0.4617161466,
				"y": -0.3303749955,
				"z": -0.012603399,
				"element": "C" 
			},
			{
				"x": -0.5127499428,
				"y": 0.8577886859,
				"z": -0.7449107174,
				"element": "C" 
			},
			{
				"x": -1.8362984776,
				"y": 1.5255563117,
				"z": -1.0476604019,
				"element": "C" 
			},
			{
				"x": -2.8206129809,
				"y": 1.0797448359,
				"z": -0.1251014204,
				"element": "O" 
			},
			{
				"x": 0.678305342,
				"y": 1.4069071066,
				"z": -1.233996887,
				"element": "C" 
			},
			{
				"x": 1.898189936,
				"y": 0.7665714879,
				"z": -1.0118107902,
				"element": "C" 
			},
			{
				"x": 1.9424777754,
				"y": -0.4209499712,
				"z": -0.285002474,
				"element": "C" 
			},
			{
				"x": -0.0653882174,
				"y": -3.3709804828,
				"z": 2.4103518373,
				"element": "H" 
			},
			{
				"x": -0.8722697227,
				"y": -1.8860644416,
				"z": 2.0783832348,
				"element": "H" 
			},
			{
				"x": -1.3963661054,
				"y": -0.7517647077,
				"z": 0.3395374172,
				"element": "H" 
			},
			{
				"x": -2.1326294039,
				"y": 1.2843549093,
				"z": -2.0824335028,
				"element": "H" 
			},
			{
				"x": -1.7090745276,
				"y": 2.6191935528,
				"z": -1.0006830804,
				"element": "H" 
			},
			{
				"x": -3.6814867213,
				"y": 1.38117093,
				"z": -0.4383767697,
				"element": "H" 
			},
			{
				"x": 0.6515414111,
				"y": 2.338845292,
				"z": -1.7947028318,
				"element": "H" 
			},
			{
				"x": 2.814930773,
				"y": 1.1995295211,
				"z": -1.4015819187,
				"element": "H" 
			},
			{
				"x": 2.8760448576,
				"y": -0.9410559516,
				"z": -0.1002744799,
				"element": "H" 
			}
		],
		 "valence_orbital": [ 
			{
				"type": "occ",
				"energy": -0.28591,
				"method": "rhf"
			},
			{
				"type": "occ",
				"energy": -0.26545,
				"method": "rhf"
			},
			{
				"type": "occ",
				"energy": -0.25384,
				"method": "rhf"
			},
			{
				"type": "occ",
				"energy": -0.24664,
				"method": "rhf"
			},
			{
				"type": "occ",
				"energy": -0.24015,
				"method": "rhf"
			},
			{
				"type": "unocc",
				"energy": -0.03243,
				"method": "rhf"
			},
			{
				"type": "unocc",
				"energy": -0.00386,
				"method": "rhf"
			},
			{
				"type": "unocc",
				"energy": 0.06079,
				"method": "rhf"
			},
			{
				"type": "unocc",
				"energy": 0.0672,
				"method": "rhf"
			},
			{
				"type": "unocc",
				"energy": 0.08846,
				"method": "rhf"
			}
		],
		"cosmo_sigma_profile": { 
			"-0.025": 0.0,
			"-0.024": 0.0,
			"-0.023": 0.0,
			"-0.022": 0.0,
			"-0.021": 0.0,
			"-0.02": 0.0,
			"-0.019": 0.0,
			"-0.018": 0.0,
			"-0.017": 0.0,
			"-0.016": 1.12716119094,
			"-0.015": 0.819720800802,
			"-0.014": 2.03574453953,
			"-0.013": 3.44795188184,
			"-0.012": 3.17306987881,
			"-0.011": 2.8755725722,
			"-0.01": 3.56134629122,
			"-0.009": 2.85298102991,
			"-0.008": 3.24539493979,
			"-0.007": 3.2711340046,
			"-0.006": 7.96913343517,
			"-0.005": 12.1803137599,
			"-0.004": 15.5779030271,
			"-0.003": 11.3566643944,
			"-0.002": 8.92461262084,
			"-0.001": 8.32020184709,
			"0.0": 9.53821614674,
			"0.001": 11.071691758,
			"0.002": 10.1017596531,
			"0.003": 11.1506094515,
			"0.004": 15.8605865318,
			"0.005": 9.03550570481,
			"0.006": 3.75399551605,
			"0.007": 4.05555316699,
			"0.008": 3.50979435511,
			"0.009": 3.15835344261,
			"0.01": 2.58505741806,
			"0.011": 2.50243105116,
			"0.012": 3.3034746274,
			"0.013": 4.99771393042,
			"0.014": 4.82782084633,
			"0.015": 0.407479717813,
			"0.016": 0.0,
			"0.017": 0.0,
			"0.018": 0.0,
			"0.019": 0.0,
			"0.02": 0.0,
			"0.021": 0.0,
			"0.022": 0.0,
			"0.023": 0.0,
			"0.024": 0.0,
			"0.025": 0.0
		}
	}
}
