{
	 "smiles": "CC(N(O)C(N)=O)C1=CC2=C(S1)C=CC=C2", 
	 "Tm": 430.15, 
	 "num_atms": 28, 
	 "gaussian": { 
		 "optdone": 1, 
		 "sigma_profile": "yes", 
		 "theory": "DFT", 
		 "functional": "B3LYP", 
		 "basiset": "6-31G**", 
		 "properties": { 
			 "R2extent": 5005.3123, 
			 "electric_dipole_moment_norm": 3.00318545714, 
			 "electric_quadrupole_moment_norm": 12.5118362421, 
			 "total_energy": -1084.5096487, 
			 "HOMO_LUMO_gap": 0.18844, 
			 "cosmo_polarized_energy": -15.33, 
			 "cosmo_cavitation_energy": 33.02, 
			 "cosmo_dispersion_energy": -24.24, 
			 "cosmo_repulsion_energy": 1.85, 
			 "cosmo_total_nonelectrostatic_energy": 10.63, 
			 "SMD_solvation_energy": 5.8 
		},
		"coords": [
			{
				"x": -1.793951605,
				"y": -1.2358599802,
				"z": 0.6457744359,
				"element": "C" 
			},
			{
				"x": -0.3967706148,
				"y": -0.6081077194,
				"z": 0.7833130477,
				"element": "C" 
			},
			{
				"x": 0.6656483572,
				"y": -1.5795583374,
				"z": 1.1631018894,
				"element": "N" 
			},
			{
				"x": 0.8381966833,
				"y": -1.6270375018,
				"z": 2.5805920499,
				"element": "O" 
			},
			{
				"x": 0.7359241618,
				"y": -2.8434829173,
				"z": 0.5581513472,
				"element": "C" 
			},
			{
				"x": 1.351829842,
				"y": -3.8088025644,
				"z": 1.310080318,
				"element": "N" 
			},
			{
				"x": 0.34666035,
				"y": -3.023762227,
				"z": -0.5910193591,
				"element": "O" 
			},
			{
				"x": 0.0002401254,
				"y": 0.2213307885,
				"z": -0.4212866371,
				"element": "C" 
			},
			{
				"x": 0.2497720467,
				"y": -0.1628667524,
				"z": -1.7019514224,
				"element": "C" 
			},
			{
				"x": 0.5691502505,
				"y": 0.9338781187,
				"z": -2.578315686,
				"element": "C" 
			},
			{
				"x": 0.5483875033,
				"y": 2.1836256704,
				"z": -1.9089961199,
				"element": "C" 
			},
			{
				"x": 0.1441645765,
				"y": 1.9721940342,
				"z": -0.2148814854,
				"element": "S" 
			},
			{
				"x": 0.8247804886,
				"y": 3.3812753204,
				"z": -2.5761750486,
				"element": "C" 
			},
			{
				"x": 1.1287733928,
				"y": 3.3263168986,
				"z": -3.9325343645,
				"element": "C" 
			},
			{
				"x": 1.1566108767,
				"y": 2.0962675909,
				"z": -4.6152246353,
				"element": "C" 
			},
			{
				"x": 0.880987895,
				"y": 0.9089286012,
				"z": -3.9509872675,
				"element": "C" 
			},
			{
				"x": -1.8251623942,
				"y": -1.9336246299,
				"z": -0.1912039515,
				"element": "H" 
			},
			{
				"x": -2.0580455616,
				"y": -1.7672041716,
				"z": 1.566284622,
				"element": "H" 
			},
			{
				"x": -2.5336857292,
				"y": -0.4480570256,
				"z": 0.4775900404,
				"element": "H" 
			},
			{
				"x": -0.4158346627,
				"y": 0.058165759,
				"z": 1.6493557508,
				"element": "H" 
			},
			{
				"x": 1.6667470278,
				"y": -1.1432058985,
				"z": 2.7203031854,
				"element": "H" 
			},
			{
				"x": 1.3663747898,
				"y": -3.6980129277,
				"z": 2.3120188843,
				"element": "H" 
			},
			{
				"x": 1.2915243113,
				"y": -4.7383049274,
				"z": 0.9251477242,
				"element": "H" 
			},
			{
				"x": 0.2283019371,
				"y": -1.2028949294,
				"z": -2.0026984648,
				"element": "H" 
			},
			{
				"x": 0.8038341735,
				"y": 4.3310627428,
				"z": -2.050376207,
				"element": "H" 
			},
			{
				"x": 1.3470943175,
				"y": 4.2448586468,
				"z": -4.4693698117,
				"element": "H" 
			},
			{
				"x": 1.3966855721,
				"y": 2.0781863608,
				"z": -5.6743088932,
				"element": "H" 
			},
			{
				"x": 0.9028618888,
				"y": -0.0395080224,
				"z": -4.4803839411,
				"element": "H" 
			}
		],
		 "valence_orbital": [ 
			{
				"type": "occ",
				"energy": -0.27468,
				"method": "rhf"
			},
			{
				"type": "occ",
				"energy": -0.26275,
				"method": "rhf"
			},
			{
				"type": "occ",
				"energy": -0.25019,
				"method": "rhf"
			},
			{
				"type": "occ",
				"energy": -0.22648,
				"method": "rhf"
			},
			{
				"type": "occ",
				"energy": -0.20834,
				"method": "rhf"
			},
			{
				"type": "unocc",
				"energy": -0.0199,
				"method": "rhf"
			},
			{
				"type": "unocc",
				"energy": 0.00528,
				"method": "rhf"
			},
			{
				"type": "unocc",
				"energy": 0.01737,
				"method": "rhf"
			},
			{
				"type": "unocc",
				"energy": 0.03484,
				"method": "rhf"
			},
			{
				"type": "unocc",
				"energy": 0.05519,
				"method": "rhf"
			}
		],
		"cosmo_sigma_profile": { 
			"-0.025": 0.0,
			"-0.024": 0.0,
			"-0.023": 0.0,
			"-0.022": 0.0,
			"-0.021": 0.0,
			"-0.02": 0.0,
			"-0.019": 0.0,
			"-0.018": 0.362342066648,
			"-0.017": 1.22620892652,
			"-0.016": 0.871445011902,
			"-0.015": 0.688082470577,
			"-0.014": 1.71243548939,
			"-0.013": 1.97859055602,
			"-0.012": 1.72400939751,
			"-0.011": 2.77220831154,
			"-0.01": 3.34622268951,
			"-0.009": 2.8621659544,
			"-0.008": 2.69291429178,
			"-0.007": 4.98725450223,
			"-0.006": 11.6313866759,
			"-0.005": 14.7711329408,
			"-0.004": 16.1112910698,
			"-0.003": 18.0865978256,
			"-0.002": 16.012416977,
			"-0.001": 17.330762603,
			"0.0": 17.8591909222,
			"0.001": 13.9797228375,
			"0.002": 17.151874076,
			"0.003": 19.6757602504,
			"0.004": 24.3859154424,
			"0.005": 20.4976718308,
			"0.006": 10.907280989,
			"0.007": 4.43119535684,
			"0.008": 3.27252492361,
			"0.009": 3.02301215838,
			"0.01": 2.32718222973,
			"0.011": 1.37371926721,
			"0.012": 1.8387860909,
			"0.013": 1.61874297024,
			"0.014": 2.30367970683,
			"0.015": 0.395690816868,
			"0.016": 0.0,
			"0.017": 0.0,
			"0.018": 0.0,
			"0.019": 0.0,
			"0.02": 0.0,
			"0.021": 0.0,
			"0.022": 0.0,
			"0.023": 0.0,
			"0.024": 0.0,
			"0.025": 0.0
		}
	}
}
