{
	 "smiles": "CC1=C(C=C(S1)[N+]([O-])=O)[N+]([O-])=O", 
	 "Tm": 355.15, 
	 "num_atms": 16, 
	 "gaussian": { 
		 "optdone": 1, 
		 "sigma_profile": "yes", 
		 "theory": "DFT", 
		 "functional": "B3LYP", 
		 "basiset": "6-31G**", 
		 "properties": { 
			 "R2extent": 2709.4213, 
			 "electric_dipole_moment_norm": 3.71650385309, 
			 "electric_quadrupole_moment_norm": 15.7997080011, 
			 "total_energy": -1001.30545399, 
			 "HOMO_LUMO_gap": 0.17484, 
			 "cosmo_polarized_energy": -11.53, 
			 "cosmo_cavitation_energy": 23.78, 
			 "cosmo_dispersion_energy": -17.86, 
			 "cosmo_repulsion_energy": 1.38, 
			 "cosmo_total_nonelectrostatic_energy": 7.3, 
			 "SMD_solvation_energy": 8.52 
		},
		"coords": [
			{
				"x": -0.3540017196,
				"y": -0.8708960764,
				"z": 2.9471433277,
				"element": "C" 
			},
			{
				"x": -0.6323215379,
				"y": -0.4404693689,
				"z": 1.5405559631,
				"element": "C" 
			},
			{
				"x": -0.8108062964,
				"y": 0.8280808856,
				"z": 1.0082726807,
				"element": "C" 
			},
			{
				"x": -1.0615208613,
				"y": 0.871837435,
				"z": -0.3880392447,
				"element": "C" 
			},
			{
				"x": -1.0691789525,
				"y": -0.3912503436,
				"z": -0.902123104,
				"element": "C" 
			},
			{
				"x": -0.7762871161,
				"y": -1.6276072576,
				"z": 0.2867421739,
				"element": "S" 
			},
			{
				"x": -1.2881888433,
				"y": -0.7612096885,
				"z": -2.2740366924,
				"element": "N" 
			},
			{
				"x": -1.4911246154,
				"y": 0.1449778445,
				"z": -3.0788936359,
				"element": "O" 
			},
			{
				"x": -1.2540519362,
				"y": -1.9678508783,
				"z": -2.5323964926,
				"element": "O" 
			},
			{
				"x": -0.7523000649,
				"y": 2.0482816979,
				"z": 1.7929906931,
				"element": "N" 
			},
			{
				"x": -0.9285335602,
				"y": 3.1076197936,
				"z": 1.1931600407,
				"element": "O" 
			},
			{
				"x": -0.5314041784,
				"y": 1.9452771003,
				"z": 3.0016465887,
				"element": "O" 
			},
			{
				"x": -0.2696179997,
				"y": -1.9580278886,
				"z": 3.0142751237,
				"element": "H" 
			},
			{
				"x": 0.5718775154,
				"y": -0.4159010389,
				"z": 3.3092912668,
				"element": "H" 
			},
			{
				"x": -1.150071533,
				"y": -0.5306912956,
				"z": 3.614948949,
				"element": "H" 
			},
			{
				"x": -1.2226683006,
				"y": 1.7744290796,
				"z": -0.9595376378,
				"element": "H" 
			}
		],
		 "valence_orbital": [ 
			{
				"type": "occ",
				"energy": -0.32221,
				"method": "rhf"
			},
			{
				"type": "occ",
				"energy": -0.31134,
				"method": "rhf"
			},
			{
				"type": "occ",
				"energy": -0.30896,
				"method": "rhf"
			},
			{
				"type": "occ",
				"energy": -0.3087,
				"method": "rhf"
			},
			{
				"type": "occ",
				"energy": -0.28971,
				"method": "rhf"
			},
			{
				"type": "unocc",
				"energy": -0.11487,
				"method": "rhf"
			},
			{
				"type": "unocc",
				"energy": -0.10255,
				"method": "rhf"
			},
			{
				"type": "unocc",
				"energy": -0.02307,
				"method": "rhf"
			},
			{
				"type": "unocc",
				"energy": -0.01871,
				"method": "rhf"
			},
			{
				"type": "unocc",
				"energy": 0.03799,
				"method": "rhf"
			}
		],
		"cosmo_sigma_profile": { 
			"-0.025": 0.0,
			"-0.024": 0.0,
			"-0.023": 0.0,
			"-0.022": 0.0,
			"-0.021": 0.0,
			"-0.02": 0.0,
			"-0.019": 0.0,
			"-0.018": 0.0,
			"-0.017": 0.0,
			"-0.016": 0.0,
			"-0.015": 0.0,
			"-0.014": 0.0,
			"-0.013": 0.0,
			"-0.012": 0.0,
			"-0.011": 0.0,
			"-0.01": 0.118343438689,
			"-0.009": 1.88077856332,
			"-0.008": 3.51892868091,
			"-0.007": 8.32208405891,
			"-0.006": 11.7776893973,
			"-0.005": 15.9945573189,
			"-0.004": 21.1868520388,
			"-0.003": 21.4576230993,
			"-0.002": 12.4955295485,
			"-0.001": 11.5333763108,
			"0.0": 9.53576365157,
			"0.001": 6.07313805812,
			"0.002": 4.7888874772,
			"0.003": 4.68388910352,
			"0.004": 5.03600086411,
			"0.005": 7.34592934506,
			"0.006": 9.54061494488,
			"0.007": 17.8865790946,
			"0.008": 10.438269448,
			"0.009": 7.35814670608,
			"0.01": 2.07110155529,
			"0.011": 0.0,
			"0.012": 0.0,
			"0.013": 0.0,
			"0.014": 0.0,
			"0.015": 0.0,
			"0.016": 0.0,
			"0.017": 0.0,
			"0.018": 0.0,
			"0.019": 0.0,
			"0.02": 0.0,
			"0.021": 0.0,
			"0.022": 0.0,
			"0.023": 0.0,
			"0.024": 0.0,
			"0.025": 0.0
		}
	}
}
