{
	 "smiles": "NC1=NC=NC2=C1N=CN2[C@@H]1O[C@H](CO)C=C1", 
	 "Tm": 463.15, 
	 "num_atms": 28, 
	 "gaussian": { 
		 "optdone": 1, 
		 "sigma_profile": "yes", 
		 "theory": "DFT", 
		 "functional": "B3LYP", 
		 "basiset": "6-31G**", 
		 "properties": { 
			 "R2extent": 4792.0443, 
			 "electric_dipole_moment_norm": 2.8491969079, 
			 "electric_quadrupole_moment_norm": 13.4131281568, 
			 "total_energy": -811.874699783, 
			 "HOMO_LUMO_gap": 0.19971, 
			 "cosmo_polarized_energy": -19.0, 
			 "cosmo_cavitation_energy": 31.82, 
			 "cosmo_dispersion_energy": -23.1, 
			 "cosmo_repulsion_energy": 1.8, 
			 "cosmo_total_nonelectrostatic_energy": 10.52, 
			 "SMD_solvation_energy": 1.71 
		},
		"coords": [
			{
				"x": 2.748110446,
				"y": 4.1592612976,
				"z": -1.4697938647,
				"element": "N" 
			},
			{
				"x": 2.2643836496,
				"y": 2.8954386698,
				"z": -1.5506630476,
				"element": "C" 
			},
			{
				"x": 3.1297213157,
				"y": 1.8738567076,
				"z": -1.6753409414,
				"element": "N" 
			},
			{
				"x": 2.6316625449,
				"y": 0.6316897216,
				"z": -1.7789374587,
				"element": "C" 
			},
			{
				"x": 1.3545521492,
				"y": 0.2357632809,
				"z": -1.7779894571,
				"element": "N" 
			},
			{
				"x": 0.5150752737,
				"y": 1.2731491483,
				"z": -1.65006285,
				"element": "C" 
			},
			{
				"x": 0.8810185209,
				"y": 2.6186683546,
				"z": -1.5279679215,
				"element": "C" 
			},
			{
				"x": -0.2259923738,
				"y": 3.4394829272,
				"z": -1.3966542974,
				"element": "N" 
			},
			{
				"x": -1.2339948021,
				"y": 2.6067907946,
				"z": -1.4397284994,
				"element": "C" 
			},
			{
				"x": -0.8724292428,
				"y": 1.2787727211,
				"z": -1.6042756227,
				"element": "N" 
			},
			{
				"x": -1.811183441,
				"y": 0.1577942485,
				"z": -1.6398760137,
				"element": "C" 
			},
			{
				"x": -1.7435473602,
				"y": -0.6189449921,
				"z": -0.4555416088,
				"element": "O" 
			},
			{
				"x": -1.4911842544,
				"y": -2.0105813686,
				"z": -0.7716702357,
				"element": "C" 
			},
			{
				"x": -0.2156857299,
				"y": -2.4548327754,
				"z": -0.0506395719,
				"element": "C" 
			},
			{
				"x": -0.3480122329,
				"y": -2.2946425139,
				"z": 1.3510794541,
				"element": "O" 
			},
			{
				"x": -1.4188127386,
				"y": -2.0412452421,
				"z": -2.2707911428,
				"element": "C" 
			},
			{
				"x": -1.5775719406,
				"y": -0.8178815922,
				"z": -2.7659530631,
				"element": "C" 
			},
			{
				"x": 3.74125808,
				"y": 4.2795765007,
				"z": -1.3501740708,
				"element": "H" 
			},
			{
				"x": 2.1220281241,
				"y": 4.9104745548,
				"z": -1.2288895039,
				"element": "H" 
			},
			{
				"x": 3.3727897554,
				"y": -0.1594621598,
				"z": -1.8743811791,
				"element": "H" 
			},
			{
				"x": -2.2773452504,
				"y": 2.8861360676,
				"z": -1.3623224647,
				"element": "H" 
			},
			{
				"x": -2.8006313755,
				"y": 0.6358571034,
				"z": -1.7034866693,
				"element": "H" 
			},
			{
				"x": -2.3382758265,
				"y": -2.5931080758,
				"z": -0.3804309228,
				"element": "H" 
			},
			{
				"x": 0.6312532301,
				"y": -1.8860994897,
				"z": -0.4573765608,
				"element": "H" 
			},
			{
				"x": -0.0443998385,
				"y": -3.5217693879,
				"z": -0.2334296822,
				"element": "H" 
			},
			{
				"x": -0.526910832,
				"y": -1.3550297998,
				"z": 1.4962228617,
				"element": "H" 
			},
			{
				"x": -1.2371512231,
				"y": -2.94752123,
				"z": -2.8369951614,
				"element": "H" 
			},
			{
				"x": -1.5567246274,
				"y": -0.513493471,
				"z": -3.8052305045,
				"element": "H" 
			}
		],
		 "valence_orbital": [ 
			{
				"type": "occ",
				"energy": -0.27739,
				"method": "rhf"
			},
			{
				"type": "occ",
				"energy": -0.26487,
				"method": "rhf"
			},
			{
				"type": "occ",
				"energy": -0.25698,
				"method": "rhf"
			},
			{
				"type": "occ",
				"energy": -0.24053,
				"method": "rhf"
			},
			{
				"type": "occ",
				"energy": -0.21985,
				"method": "rhf"
			},
			{
				"type": "unocc",
				"energy": -0.02014,
				"method": "rhf"
			},
			{
				"type": "unocc",
				"energy": -0.00694,
				"method": "rhf"
			},
			{
				"type": "unocc",
				"energy": 0.00351,
				"method": "rhf"
			},
			{
				"type": "unocc",
				"energy": 0.03788,
				"method": "rhf"
			},
			{
				"type": "unocc",
				"energy": 0.08647,
				"method": "rhf"
			}
		],
		"cosmo_sigma_profile": { 
			"-0.025": 0.0,
			"-0.024": 0.0,
			"-0.023": 0.0,
			"-0.022": 0.0,
			"-0.021": 0.0,
			"-0.02": 0.0,
			"-0.019": 0.0,
			"-0.018": 0.0,
			"-0.017": 0.0,
			"-0.016": 0.0,
			"-0.015": 0.146832770641,
			"-0.014": 1.3887063645,
			"-0.013": 2.67457341302,
			"-0.012": 2.08754349781,
			"-0.011": 3.82708795563,
			"-0.01": 6.0217528577,
			"-0.009": 5.44835092914,
			"-0.008": 6.84973211605,
			"-0.007": 10.345975588,
			"-0.006": 13.6227756329,
			"-0.005": 16.8244506381,
			"-0.004": 11.9516301478,
			"-0.003": 11.1617161987,
			"-0.002": 12.5136642342,
			"-0.001": 15.3102452723,
			"0.0": 19.9891133039,
			"0.001": 16.766003808,
			"0.002": 15.5794824485,
			"0.003": 12.7695835646,
			"0.004": 11.5999942696,
			"0.005": 8.13371159482,
			"0.006": 6.93450019643,
			"0.007": 5.87322508374,
			"0.008": 6.49948295983,
			"0.009": 5.27343228958,
			"0.01": 4.27583768329,
			"0.011": 4.65464525727,
			"0.012": 4.92688523008,
			"0.013": 3.42905349416,
			"0.014": 4.10381131835,
			"0.015": 2.09207565841,
			"0.016": 0.258132534037,
			"0.017": 0.0,
			"0.018": 0.0,
			"0.019": 0.0,
			"0.02": 0.0,
			"0.021": 0.0,
			"0.022": 0.0,
			"0.023": 0.0,
			"0.024": 0.0,
			"0.025": 0.0
		}
	}
}
