{
	 "smiles": "FC1=CC=C2N=C(N3C=NC=N3)N(C(=O)C2=C1)C1=CC=C(Cl)C=C1Cl", 
	 "Tm": 465.15, 
	 "num_atms": 33, 
	 "gaussian": { 
		 "optdone": 1, 
		 "sigma_profile": "yes", 
		 "theory": "DFT", 
		 "functional": "B3LYP", 
		 "basiset": "6-31G**", 
		 "properties": { 
			 "R2extent": 10712.3046, 
			 "electric_dipole_moment_norm": 1.44253361139, 
			 "electric_quadrupole_moment_norm": 16.6166737141, 
			 "total_energy": -1983.70820945, 
			 "HOMO_LUMO_gap": 0.17413, 
			 "cosmo_polarized_energy": -18.33, 
			 "cosmo_cavitation_energy": 43.15, 
			 "cosmo_dispersion_energy": -29.43, 
			 "cosmo_repulsion_energy": 2.17, 
			 "cosmo_total_nonelectrostatic_energy": 15.89, 
			 "SMD_solvation_energy": 4.56 
		},
		"coords": [
			{
				"x": 5.7186722048,
				"y": -2.9576859818,
				"z": -2.4716621647,
				"element": "F" 
			},
			{
				"x": 4.7271542787,
				"y": -2.4673327242,
				"z": -1.7048426342,
				"element": "C" 
			},
			{
				"x": 4.6566265495,
				"y": -2.875052277,
				"z": -0.3656801713,
				"element": "C" 
			},
			{
				"x": 3.6471077961,
				"y": -2.3799211002,
				"z": 0.4432986679,
				"element": "C" 
			},
			{
				"x": 2.6985767209,
				"y": -1.47884043,
				"z": -0.0791110928,
				"element": "C" 
			},
			{
				"x": 1.7174842325,
				"y": -0.9801394439,
				"z": 0.7612072192,
				"element": "N" 
			},
			{
				"x": 0.8330857576,
				"y": -0.1983455124,
				"z": 0.260528638,
				"element": "C" 
			},
			{
				"x": -0.1737185453,
				"y": 0.3092087855,
				"z": 1.1243615014,
				"element": "N" 
			},
			{
				"x": -0.5209833642,
				"y": 1.6031093584,
				"z": 1.4027263459,
				"element": "C" 
			},
			{
				"x": -1.3912206079,
				"y": 1.6399718346,
				"z": 2.3848126992,
				"element": "N" 
			},
			{
				"x": -1.5499728503,
				"y": 0.3154936223,
				"z": 2.695592475,
				"element": "C" 
			},
			{
				"x": -0.8337190569,
				"y": -0.5290840262,
				"z": 1.9797341272,
				"element": "N" 
			},
			{
				"x": 0.7812618436,
				"y": 0.2209213785,
				"z": -1.0683886978,
				"element": "N" 
			},
			{
				"x": 1.7985480344,
				"y": -0.1740482346,
				"z": -1.9954395322,
				"element": "C" 
			},
			{
				"x": 1.7765917214,
				"y": 0.2276688635,
				"z": -3.1454941452,
				"element": "O" 
			},
			{
				"x": 2.7946601404,
				"y": -1.0896518714,
				"z": -1.431811931,
				"element": "C" 
			},
			{
				"x": 3.8173833022,
				"y": -1.5851034967,
				"z": -2.2541672098,
				"element": "C" 
			},
			{
				"x": -0.3250318562,
				"y": 0.9583214857,
				"z": -1.61640381,
				"element": "C" 
			},
			{
				"x": -0.1514055089,
				"y": 2.2981141481,
				"z": -1.9711749358,
				"element": "C" 
			},
			{
				"x": -1.1915074614,
				"y": 3.0338015562,
				"z": -2.5296342569,
				"element": "C" 
			},
			{
				"x": -2.4209718609,
				"y": 2.4081919014,
				"z": -2.7396824166,
				"element": "C" 
			},
			{
				"x": -3.7461100792,
				"y": 3.3173973289,
				"z": -3.4321597838,
				"element": "Cl" 
			},
			{
				"x": -2.6162312224,
				"y": 1.0671422009,
				"z": -2.4165683613,
				"element": "C" 
			},
			{
				"x": -1.5588639532,
				"y": 0.341576953,
				"z": -1.8669297231,
				"element": "C" 
			},
			{
				"x": -1.7993353024,
				"y": -1.3488260303,
				"z": -1.5085365069,
				"element": "Cl" 
			},
			{
				"x": 5.3973389159,
				"y": -3.5711976097,
				"z": 0.0129562976,
				"element": "H" 
			},
			{
				"x": 3.5632295402,
				"y": -2.670050882,
				"z": 1.484754597,
				"element": "H" 
			},
			{
				"x": -0.1150521489,
				"y": 2.4507769117,
				"z": 0.8715404193,
				"element": "H" 
			},
			{
				"x": -2.2188228366,
				"y": -0.0307059422,
				"z": 3.4712582386,
				"element": "H" 
			},
			{
				"x": 3.8791886229,
				"y": -1.279445432,
				"z": -3.2919078771,
				"element": "H" 
			},
			{
				"x": 0.8177699243,
				"y": 2.758879668,
				"z": -1.8127814167,
				"element": "H" 
			},
			{
				"x": -1.0523931287,
				"y": 4.0733427253,
				"z": -2.8015301222,
				"element": "H" 
			},
			{
				"x": -3.5699398023,
				"y": 0.5866122727,
				"z": -2.5953644369,
				"element": "H" 
			}
		],
		 "valence_orbital": [ 
			{
				"type": "occ",
				"energy": -0.28533,
				"method": "rhf"
			},
			{
				"type": "occ",
				"energy": -0.28356,
				"method": "rhf"
			},
			{
				"type": "occ",
				"energy": -0.27884,
				"method": "rhf"
			},
			{
				"type": "occ",
				"energy": -0.26585,
				"method": "rhf"
			},
			{
				"type": "occ",
				"energy": -0.2425,
				"method": "rhf"
			},
			{
				"type": "unocc",
				"energy": -0.06837,
				"method": "rhf"
			},
			{
				"type": "unocc",
				"energy": -0.06093,
				"method": "rhf"
			},
			{
				"type": "unocc",
				"energy": -0.04667,
				"method": "rhf"
			},
			{
				"type": "unocc",
				"energy": -0.04399,
				"method": "rhf"
			},
			{
				"type": "unocc",
				"energy": -0.00866,
				"method": "rhf"
			}
		],
		"cosmo_sigma_profile": { 
			"-0.025": 0.0,
			"-0.024": 0.0,
			"-0.023": 0.0,
			"-0.022": 0.0,
			"-0.021": 0.0,
			"-0.02": 0.0,
			"-0.019": 0.0,
			"-0.018": 0.0,
			"-0.017": 0.0,
			"-0.016": 0.0,
			"-0.015": 0.0,
			"-0.014": 0.0526753176155,
			"-0.013": 0.463991866699,
			"-0.012": 0.827085433214,
			"-0.011": 2.0352351229,
			"-0.01": 3.03226130291,
			"-0.009": 8.78240474227,
			"-0.008": 12.6489108282,
			"-0.007": 14.8456523095,
			"-0.006": 12.8027946042,
			"-0.005": 13.4252154742,
			"-0.004": 13.6816482785,
			"-0.003": 19.5880086991,
			"-0.002": 23.8853005357,
			"-0.001": 34.7219665029,
			"0.0": 43.5511257557,
			"0.001": 29.5712232404,
			"0.002": 23.2242076297,
			"0.003": 27.2167267112,
			"0.004": 20.6604353773,
			"0.005": 6.18800416399,
			"0.006": 4.98482192048,
			"0.007": 5.5759512553,
			"0.008": 4.38269289394,
			"0.009": 5.56926026913,
			"0.01": 3.78960845814,
			"0.011": 7.23020456013,
			"0.012": 4.78502852799,
			"0.013": 3.66850440399,
			"0.014": 2.24868455244,
			"0.015": 0.799017897716,
			"0.016": 0.199586815608,
			"0.017": 0.0,
			"0.018": 0.0,
			"0.019": 0.0,
			"0.02": 0.0,
			"0.021": 0.0,
			"0.022": 0.0,
			"0.023": 0.0,
			"0.024": 0.0,
			"0.025": 0.0
		}
	}
}
