{
	 "smiles": "O=C1NC(=O)C(N1)(C1CC1)C1=CC=CS1", 
	 "Tm": 473.15, 
	 "num_atms": 25, 
	 "gaussian": { 
		 "optdone": 1, 
		 "sigma_profile": "yes", 
		 "theory": "DFT", 
		 "functional": "B3LYP", 
		 "basiset": "6-31G**", 
		 "properties": { 
			 "R2extent": 4034.1899, 
			 "electric_dipole_moment_norm": 2.59800258083, 
			 "electric_quadrupole_moment_norm": 12.9358459542, 
			 "total_energy": -1045.21694863, 
			 "HOMO_LUMO_gap": 0.20942, 
			 "cosmo_polarized_energy": -15.81, 
			 "cosmo_cavitation_energy": 30.04, 
			 "cosmo_dispersion_energy": -21.65, 
			 "cosmo_repulsion_energy": 1.66, 
			 "cosmo_total_nonelectrostatic_energy": 10.05, 
			 "SMD_solvation_energy": 6.23 
		},
		"coords": [
			{
				"x": -4.0280782615,
				"y": 0.3905978806,
				"z": 2.0454085512,
				"element": "O" 
			},
			{
				"x": -2.8704821816,
				"y": 0.630243111,
				"z": 1.779285761,
				"element": "C" 
			},
			{
				"x": -2.2934897702,
				"y": 1.9122056682,
				"z": 1.6695474007,
				"element": "N" 
			},
			{
				"x": -0.9894089318,
				"y": 1.8965995275,
				"z": 1.2288773189,
				"element": "C" 
			},
			{
				"x": -0.2801691458,
				"y": 2.853200342,
				"z": 1.0049419621,
				"element": "O" 
			},
			{
				"x": -0.6174707792,
				"y": 0.3940030395,
				"z": 1.0548322057,
				"element": "C" 
			},
			{
				"x": -1.8491790121,
				"y": -0.2565565873,
				"z": 1.5192953021,
				"element": "N" 
			},
			{
				"x": -0.4051584519,
				"y": 0.0978329163,
				"z": -0.4373282278,
				"element": "C" 
			},
			{
				"x": 0.2841834951,
				"y": -1.1632509923,
				"z": -0.9079122268,
				"element": "C" 
			},
			{
				"x": 0.9255302712,
				"y": 0.1835069971,
				"z": -1.1313188419,
				"element": "C" 
			},
			{
				"x": 0.5640020053,
				"y": 0.0657923138,
				"z": 1.9477962392,
				"element": "C" 
			},
			{
				"x": 1.743069126,
				"y": 0.7544729581,
				"z": 2.0871168523,
				"element": "C" 
			},
			{
				"x": 2.6429343479,
				"y": 0.1430587729,
				"z": 3.0117909027,
				"element": "C" 
			},
			{
				"x": 2.1379870639,
				"y": -1.0007097472,
				"z": 3.5647763795,
				"element": "C" 
			},
			{
				"x": 0.5436345311,
				"y": -1.3451453471,
				"z": 2.9792525982,
				"element": "S" 
			},
			{
				"x": -2.8195482097,
				"y": 2.7555511333,
				"z": 1.8497656783,
				"element": "H" 
			},
			{
				"x": -2.0922244997,
				"y": -1.1928589567,
				"z": 1.2287351942,
				"element": "H" 
			},
			{
				"x": -1.2648128286,
				"y": 0.4140774042,
				"z": -1.0257074617,
				"element": "H" 
			},
			{
				"x": -0.1459599294,
				"y": -1.6901258831,
				"z": -1.7540368263,
				"element": "H" 
			},
			{
				"x": 0.7352299127,
				"y": -1.8060417223,
				"z": -0.1579454629,
				"element": "H" 
			},
			{
				"x": 0.9354244036,
				"y": 0.6000463314,
				"z": -2.1334524537,
				"element": "H" 
			},
			{
				"x": 1.8006081546,
				"y": 0.4180322272,
				"z": -0.5361201665,
				"element": "H" 
			},
			{
				"x": 1.9357846227,
				"y": 1.6847750425,
				"z": 1.5673103193,
				"element": "H" 
			},
			{
				"x": 3.6186986257,
				"y": 0.5461016016,
				"z": 3.2581250032,
				"element": "H" 
			},
			{
				"x": 2.5951954417,
				"y": -1.653908031,
				"z": 4.2950639993,
				"element": "H" 
			}
		],
		 "valence_orbital": [ 
			{
				"type": "occ",
				"energy": -0.28833,
				"method": "rhf"
			},
			{
				"type": "occ",
				"energy": -0.27448,
				"method": "rhf"
			},
			{
				"type": "occ",
				"energy": -0.26724,
				"method": "rhf"
			},
			{
				"type": "occ",
				"energy": -0.25626,
				"method": "rhf"
			},
			{
				"type": "occ",
				"energy": -0.23665,
				"method": "rhf"
			},
			{
				"type": "unocc",
				"energy": -0.02723,
				"method": "rhf"
			},
			{
				"type": "unocc",
				"energy": -0.00728,
				"method": "rhf"
			},
			{
				"type": "unocc",
				"energy": 0.02511,
				"method": "rhf"
			},
			{
				"type": "unocc",
				"energy": 0.05262,
				"method": "rhf"
			},
			{
				"type": "unocc",
				"energy": 0.05583,
				"method": "rhf"
			}
		],
		"cosmo_sigma_profile": { 
			"-0.025": 0.0,
			"-0.024": 0.0,
			"-0.023": 0.0,
			"-0.022": 0.0,
			"-0.021": 0.0,
			"-0.02": 0.0,
			"-0.019": 0.0,
			"-0.018": 0.0,
			"-0.017": 0.732443829526,
			"-0.016": 1.46544104507,
			"-0.015": 1.66701687506,
			"-0.014": 1.64968459616,
			"-0.013": 1.60519938733,
			"-0.012": 1.134819899,
			"-0.011": 1.79025502264,
			"-0.01": 1.91960416039,
			"-0.009": 2.80243437366,
			"-0.008": 5.32823630542,
			"-0.007": 5.86762206331,
			"-0.006": 9.27641643758,
			"-0.005": 13.4962051268,
			"-0.004": 18.5459813856,
			"-0.003": 16.327998907,
			"-0.002": 19.1471081243,
			"-0.001": 16.3093174012,
			"0.0": 14.6210741394,
			"0.001": 15.4159273377,
			"0.002": 13.9333940487,
			"0.003": 16.0693604237,
			"0.004": 15.38157626,
			"0.005": 10.0914648904,
			"0.006": 4.93287388729,
			"0.007": 3.22759309305,
			"0.008": 3.04150267666,
			"0.009": 2.54921440672,
			"0.01": 3.72336842545,
			"0.011": 6.32365846926,
			"0.012": 8.430029946,
			"0.013": 4.1958592299,
			"0.014": 0.125391711842,
			"0.015": 0.0,
			"0.016": 0.0,
			"0.017": 0.0,
			"0.018": 0.0,
			"0.019": 0.0,
			"0.02": 0.0,
			"0.021": 0.0,
			"0.022": 0.0,
			"0.023": 0.0,
			"0.024": 0.0,
			"0.025": 0.0
		}
	}
}
