{
	 "smiles": "NC1=NC2=CC3=NC(N)=C(C=C3C=C2C=C1C1=CC=CC=C1)C1=CC=CC=C1", 
	 "Tm": 574.15, 
	 "num_atms": 46, 
	 "gaussian": { 
		 "optdone": 1, 
		 "sigma_profile": "yes", 
		 "theory": "DFT", 
		 "functional": "B3LYP", 
		 "basiset": "6-31G**", 
		 "properties": { 
			 "R2extent": 17715.0739, 
			 "electric_dipole_moment_norm": 2.38544526242, 
			 "electric_quadrupole_moment_norm": 28.4237444801, 
			 "total_energy": -1144.46211132, 
			 "HOMO_LUMO_gap": 0.1312, 
			 "cosmo_polarized_energy": -19.25, 
			 "cosmo_cavitation_energy": 49.83, 
			 "cosmo_dispersion_energy": -36.33, 
			 "cosmo_repulsion_energy": 2.69, 
			 "cosmo_total_nonelectrostatic_energy": 16.18, 
			 "SMD_solvation_energy": 4.58 
		},
		"coords": [
			{
				"x": 3.93621987,
				"y": -1.6392455888,
				"z": -4.2046061481,
				"element": "N" 
			},
			{
				"x": 2.9165938248,
				"y": -1.3658323341,
				"z": -3.3153791539,
				"element": "C" 
			},
			{
				"x": 3.2393284771,
				"y": -0.6611143029,
				"z": -2.2524997191,
				"element": "N" 
			},
			{
				"x": 2.2693805314,
				"y": -0.3306289821,
				"z": -1.3451041131,
				"element": "C" 
			},
			{
				"x": 2.6136907662,
				"y": 0.4353290507,
				"z": -0.2241273085,
				"element": "C" 
			},
			{
				"x": 1.6564171027,
				"y": 0.7868252903,
				"z": 0.7360190112,
				"element": "C" 
			},
			{
				"x": 2.0344474104,
				"y": 1.5464860135,
				"z": 1.8099909406,
				"element": "N" 
			},
			{
				"x": 1.1420694458,
				"y": 1.8641761464,
				"z": 2.7227912913,
				"element": "C" 
			},
			{
				"x": 1.5959516705,
				"y": 2.6068513772,
				"z": 3.7940283004,
				"element": "N" 
			},
			{
				"x": -0.2574602307,
				"y": 1.4647388011,
				"z": 2.6657327491,
				"element": "C" 
			},
			{
				"x": -0.6397031888,
				"y": 0.7283591768,
				"z": 1.5730969904,
				"element": "C" 
			},
			{
				"x": 0.2926215905,
				"y": 0.351407783,
				"z": 0.5644665288,
				"element": "C" 
			},
			{
				"x": -0.0541378419,
				"y": -0.4141113078,
				"z": -0.5537878504,
				"element": "C" 
			},
			{
				"x": 0.904239389,
				"y": -0.7640982776,
				"z": -1.5107407393,
				"element": "C" 
			},
			{
				"x": 0.6048931066,
				"y": -1.5332821521,
				"z": -2.6715175928,
				"element": "C" 
			},
			{
				"x": 1.5690608183,
				"y": -1.8411368326,
				"z": -3.597708202,
				"element": "C" 
			},
			{
				"x": 1.2379686416,
				"y": -2.6402780218,
				"z": -4.8070761794,
				"element": "C" 
			},
			{
				"x": 0.4844054937,
				"y": -3.8214721074,
				"z": -4.6858140675,
				"element": "C" 
			},
			{
				"x": 0.1231488904,
				"y": -4.5614300829,
				"z": -5.8111095883,
				"element": "C" 
			},
			{
				"x": 0.5116229004,
				"y": -4.139218062,
				"z": -7.0838763692,
				"element": "C" 
			},
			{
				"x": 1.2622765242,
				"y": -2.9698968135,
				"z": -7.2208025498,
				"element": "C" 
			},
			{
				"x": 1.6227697196,
				"y": -2.2270843336,
				"z": -6.0964743865,
				"element": "C" 
			},
			{
				"x": -1.2426683151,
				"y": 1.8445069368,
				"z": 3.7126112659,
				"element": "C" 
			},
			{
				"x": -2.4857228897,
				"y": 2.389875474,
				"z": 3.3449085246,
				"element": "C" 
			},
			{
				"x": -3.4424215331,
				"y": 2.7099029117,
				"z": 4.3075257741,
				"element": "C" 
			},
			{
				"x": -3.1757898345,
				"y": 2.4960261308,
				"z": 5.6611433225,
				"element": "C" 
			},
			{
				"x": -1.9453012306,
				"y": 1.9575661749,
				"z": 6.042598907,
				"element": "C" 
			},
			{
				"x": -0.9877580765,
				"y": 1.6347693356,
				"z": 5.0809632875,
				"element": "C" 
			},
			{
				"x": 4.8569893027,
				"y": -1.4630673151,
				"z": -3.8270361048,
				"element": "H" 
			},
			{
				"x": 3.8462229949,
				"y": -2.4600922506,
				"z": -4.7845669969,
				"element": "H" 
			},
			{
				"x": 3.6393944937,
				"y": 0.7619234818,
				"z": -0.0973784591,
				"element": "H" 
			},
			{
				"x": 2.5083432803,
				"y": 3.014431843,
				"z": 3.6429148862,
				"element": "H" 
			},
			{
				"x": 0.9282475496,
				"y": 3.1864430267,
				"z": 4.2803323345,
				"element": "H" 
			},
			{
				"x": -1.672362383,
				"y": 0.3995779906,
				"z": 1.4834888028,
				"element": "H" 
			},
			{
				"x": -1.084114516,
				"y": -0.7420532161,
				"z": -0.6810764731,
				"element": "H" 
			},
			{
				"x": -0.4193707641,
				"y": -1.8593545566,
				"z": -2.8360505021,
				"element": "H" 
			},
			{
				"x": 0.1959123218,
				"y": -4.1647680757,
				"z": -3.6964691617,
				"element": "H" 
			},
			{
				"x": -0.4554358734,
				"y": -5.4732660841,
				"z": -5.692278571,
				"element": "H" 
			},
			{
				"x": 0.2336339937,
				"y": -4.7168274171,
				"z": -7.960664849,
				"element": "H" 
			},
			{
				"x": 1.5620910022,
				"y": -2.6279866408,
				"z": -8.2075080025,
				"element": "H" 
			},
			{
				"x": 2.1932718231,
				"y": -1.3112188195,
				"z": -6.2140607942,
				"element": "H" 
			},
			{
				"x": -2.6909654795,
				"y": 2.5760991053,
				"z": 2.2946277628,
				"element": "H" 
			},
			{
				"x": -4.3939334423,
				"y": 3.1345034025,
				"z": 3.999847851,
				"element": "H" 
			},
			{
				"x": -3.9190811792,
				"y": 2.7481952641,
				"z": 6.4118739696,
				"element": "H" 
			},
			{
				"x": -1.7313492276,
				"y": 1.7790486863,
				"z": 7.0927110824,
				"element": "H" 
			},
			{
				"x": -0.0400369294,
				"y": 1.2024201719,
				"z": 5.3859402997,
				"element": "H" 
			}
		],
		 "valence_orbital": [ 
			{
				"type": "occ",
				"energy": -0.24764,
				"method": "rhf"
			},
			{
				"type": "occ",
				"energy": -0.24195,
				"method": "rhf"
			},
			{
				"type": "occ",
				"energy": -0.23368,
				"method": "rhf"
			},
			{
				"type": "occ",
				"energy": -0.19758,
				"method": "rhf"
			},
			{
				"type": "occ",
				"energy": -0.19059,
				"method": "rhf"
			},
			{
				"type": "unocc",
				"energy": -0.05939,
				"method": "rhf"
			},
			{
				"type": "unocc",
				"energy": -0.02821,
				"method": "rhf"
			},
			{
				"type": "unocc",
				"energy": -0.00698,
				"method": "rhf"
			},
			{
				"type": "unocc",
				"energy": -0.00698,
				"method": "rhf"
			},
			{
				"type": "unocc",
				"energy": -0.00602,
				"method": "rhf"
			}
		],
		"cosmo_sigma_profile": { 
			"-0.025": 0.0,
			"-0.024": 0.0,
			"-0.023": 0.0,
			"-0.022": 0.0,
			"-0.021": 0.0,
			"-0.02": 0.0,
			"-0.019": 0.0,
			"-0.018": 0.0,
			"-0.017": 0.0,
			"-0.016": 0.0,
			"-0.015": 0.0,
			"-0.014": 0.0,
			"-0.013": 0.590548462244,
			"-0.012": 3.65381665028,
			"-0.011": 3.42447877163,
			"-0.01": 4.26154851761,
			"-0.009": 4.47002646213,
			"-0.008": 2.97591435568,
			"-0.007": 7.84634466141,
			"-0.006": 20.6561649294,
			"-0.005": 28.9602127693,
			"-0.004": 31.5234470526,
			"-0.003": 27.9747834637,
			"-0.002": 22.3074490969,
			"-0.001": 21.6464386388,
			"0.0": 24.3427692839,
			"0.001": 30.0809021763,
			"0.002": 33.4995768977,
			"0.003": 37.4276579079,
			"0.004": 29.7520456093,
			"0.005": 27.1035800606,
			"0.006": 10.1383881804,
			"0.007": 6.1861808814,
			"0.008": 3.56619113868,
			"0.009": 4.561880124,
			"0.01": 3.70506589039,
			"0.011": 1.50740736062,
			"0.012": 2.24793594897,
			"0.013": 1.87212740594,
			"0.014": 1.8450409765,
			"0.015": 1.34705825346,
			"0.016": 0.276172651066,
			"0.017": 0.0,
			"0.018": 0.0,
			"0.019": 0.0,
			"0.02": 0.0,
			"0.021": 0.0,
			"0.022": 0.0,
			"0.023": 0.0,
			"0.024": 0.0,
			"0.025": 0.0
		}
	}
}
