{
	 "smiles": "O=S1(=O)CC(SCC2=CC=CC=C2)C2=C1C=CC=C2", 
	 "Tm": 346.15, 
	 "num_atms": 33, 
	 "gaussian": { 
		 "optdone": 1, 
		 "sigma_profile": "yes", 
		 "theory": "DFT", 
		 "functional": "B3LYP", 
		 "basiset": "6-31G**", 
		 "properties": { 
			 "R2extent": 7507.4822, 
			 "electric_dipole_moment_norm": 6.16020701681, 
			 "electric_quadrupole_moment_norm": 23.1752692116, 
			 "total_energy": -1526.79019266, 
			 "HOMO_LUMO_gap": 0.1972, 
			 "cosmo_polarized_energy": -19.97, 
			 "cosmo_cavitation_energy": 39.33, 
			 "cosmo_dispersion_energy": -27.73, 
			 "cosmo_repulsion_energy": 2.05, 
			 "cosmo_total_nonelectrostatic_energy": 13.65, 
			 "SMD_solvation_energy": 4.87 
		},
		"coords": [
			{
				"x": 0.1268954517,
				"y": 3.3395658949,
				"z": -3.2374249375,
				"element": "O" 
			},
			{
				"x": -1.0312822607,
				"y": 2.7130467824,
				"z": -2.583872546,
				"element": "S" 
			},
			{
				"x": -2.3033435623,
				"y": 2.5969569246,
				"z": -3.3137408896,
				"element": "O" 
			},
			{
				"x": -0.5529390156,
				"y": 1.085880266,
				"z": -1.8775635509,
				"element": "C" 
			},
			{
				"x": -0.1590334164,
				"y": 1.320830926,
				"z": -0.4034670487,
				"element": "C" 
			},
			{
				"x": 1.6639590886,
				"y": 1.4213666411,
				"z": -0.1037547235,
				"element": "S" 
			},
			{
				"x": 2.1296013308,
				"y": -0.3633189806,
				"z": -0.2445556891,
				"element": "C" 
			},
			{
				"x": 1.4682874261,
				"y": -1.2782332876,
				"z": 0.7566763599,
				"element": "C" 
			},
			{
				"x": 0.5428083809,
				"y": -2.2417679831,
				"z": 0.3350328849,
				"element": "C" 
			},
			{
				"x": -0.0692222723,
				"y": -3.0976934049,
				"z": 1.2549794948,
				"element": "C" 
			},
			{
				"x": 0.2389626593,
				"y": -2.9995115031,
				"z": 2.6110734634,
				"element": "C" 
			},
			{
				"x": 1.1608453109,
				"y": -2.0407871574,
				"z": 3.0432303147,
				"element": "C" 
			},
			{
				"x": 1.7669926707,
				"y": -1.1864248382,
				"z": 2.124970562,
				"element": "C" 
			},
			{
				"x": -0.7990908988,
				"y": 2.6236724944,
				"z": 0.0462198977,
				"element": "C" 
			},
			{
				"x": -1.2992167848,
				"y": 3.4362209028,
				"z": -0.9686784233,
				"element": "C" 
			},
			{
				"x": -1.9204981279,
				"y": 4.657583275,
				"z": -0.7199636353,
				"element": "C" 
			},
			{
				"x": -2.036085579,
				"y": 5.0727558157,
				"z": 0.6057978575,
				"element": "C" 
			},
			{
				"x": -1.5368258449,
				"y": 4.2729521158,
				"z": 1.6423925704,
				"element": "C" 
			},
			{
				"x": -0.9183594983,
				"y": 3.0523251552,
				"z": 1.3716152062,
				"element": "C" 
			},
			{
				"x": 0.2498163209,
				"y": 0.6866951691,
				"z": -2.4978911333,
				"element": "H" 
			},
			{
				"x": -1.4405380721,
				"y": 0.4532081173,
				"z": -1.9581214497,
				"element": "H" 
			},
			{
				"x": -0.5261988116,
				"y": 0.4918986075,
				"z": 0.20937199,
				"element": "H" 
			},
			{
				"x": 3.2153624601,
				"y": -0.3430742788,
				"z": -0.1060326282,
				"element": "H" 
			},
			{
				"x": 1.9425965314,
				"y": -0.7043895943,
				"z": -1.2672312706,
				"element": "H" 
			},
			{
				"x": 0.3083235774,
				"y": -2.3317394569,
				"z": -0.7231897262,
				"element": "H" 
			},
			{
				"x": -0.7826401446,
				"y": -3.8401419737,
				"z": 0.9090266327,
				"element": "H" 
			},
			{
				"x": -0.232740021,
				"y": -3.6648916396,
				"z": 3.3282057675,
				"element": "H" 
			},
			{
				"x": 1.4083141133,
				"y": -1.9617226106,
				"z": 4.0980280104,
				"element": "H" 
			},
			{
				"x": 2.476023801,
				"y": -0.4368031069,
				"z": 2.466273129,
				"element": "H" 
			},
			{
				"x": -2.3102526129,
				"y": 5.2571393298,
				"z": -1.5362382206,
				"element": "H" 
			},
			{
				"x": -2.5192183892,
				"y": 6.0173912836,
				"z": 0.8356918951,
				"element": "H" 
			},
			{
				"x": -1.6356367057,
				"y": 4.6058528671,
				"z": 2.6712881563,
				"element": "H" 
			},
			{
				"x": -0.528367105,
				"y": 2.4382572475,
				"z": 2.1778516801,
				"element": "H" 
			}
		],
		 "valence_orbital": [ 
			{
				"type": "occ",
				"energy": -0.27289,
				"method": "rhf"
			},
			{
				"type": "occ",
				"energy": -0.26528,
				"method": "rhf"
			},
			{
				"type": "occ",
				"energy": -0.26433,
				"method": "rhf"
			},
			{
				"type": "occ",
				"energy": -0.25518,
				"method": "rhf"
			},
			{
				"type": "occ",
				"energy": -0.23497,
				"method": "rhf"
			},
			{
				"type": "unocc",
				"energy": -0.03777,
				"method": "rhf"
			},
			{
				"type": "unocc",
				"energy": -0.03484,
				"method": "rhf"
			},
			{
				"type": "unocc",
				"energy": -0.02116,
				"method": "rhf"
			},
			{
				"type": "unocc",
				"energy": -0.01434,
				"method": "rhf"
			},
			{
				"type": "unocc",
				"energy": 0.02777,
				"method": "rhf"
			}
		],
		"cosmo_sigma_profile": { 
			"-0.025": 0.0,
			"-0.024": 0.0,
			"-0.023": 0.0,
			"-0.022": 0.0,
			"-0.021": 0.0,
			"-0.02": 0.0,
			"-0.019": 0.0,
			"-0.018": 0.0,
			"-0.017": 0.0,
			"-0.016": 0.0,
			"-0.015": 0.0,
			"-0.014": 0.0,
			"-0.013": 0.0,
			"-0.012": 0.0,
			"-0.011": 0.0,
			"-0.01": 0.0,
			"-0.009": 2.70801326281,
			"-0.008": 8.63119065403,
			"-0.007": 16.4499476053,
			"-0.006": 24.5246276956,
			"-0.005": 29.5621326827,
			"-0.004": 24.2029139753,
			"-0.003": 22.3437595294,
			"-0.002": 15.9081714376,
			"-0.001": 15.8633391994,
			"0.0": 14.9724621652,
			"0.001": 17.8554066225,
			"0.002": 24.5799516229,
			"0.003": 20.4701909763,
			"0.004": 14.5902454566,
			"0.005": 15.0513839353,
			"0.006": 7.5067180378,
			"0.007": 4.3608140027,
			"0.008": 4.30305333915,
			"0.009": 5.28826309981,
			"0.01": 5.69044943687,
			"0.011": 11.8604195313,
			"0.012": 8.67749552237,
			"0.013": 0.401180367042,
			"0.014": 0.0,
			"0.015": 0.0,
			"0.016": 0.0,
			"0.017": 0.0,
			"0.018": 0.0,
			"0.019": 0.0,
			"0.02": 0.0,
			"0.021": 0.0,
			"0.022": 0.0,
			"0.023": 0.0,
			"0.024": 0.0,
			"0.025": 0.0
		}
	}
}
