{
	 "smiles": "OC(=O)CN1C(=O)C=NC2=C1C=CC=C2", 
	 "Tm": 470.15, 
	 "num_atms": 23, 
	 "gaussian": { 
		 "optdone": 1, 
		 "sigma_profile": "yes", 
		 "theory": "DFT", 
		 "functional": "B3LYP", 
		 "basiset": "6-31G**", 
		 "properties": { 
			 "R2extent": 3509.1242, 
			 "electric_dipole_moment_norm": 4.19983048944, 
			 "electric_quadrupole_moment_norm": 14.2655496778, 
			 "total_energy": -721.078964359, 
			 "HOMO_LUMO_gap": 0.15849, 
			 "cosmo_polarized_energy": -16.71, 
			 "cosmo_cavitation_energy": 27.85, 
			 "cosmo_dispersion_energy": -20.18, 
			 "cosmo_repulsion_energy": 1.56, 
			 "cosmo_total_nonelectrostatic_energy": 9.24, 
			 "SMD_solvation_energy": 5.08 
		},
		"coords": [
			{
				"x": 1.0557193511,
				"y": -1.6330133914,
				"z": -3.8236061246,
				"element": "O" 
			},
			{
				"x": 1.4080532251,
				"y": -1.3915608943,
				"z": -2.5405376973,
				"element": "C" 
			},
			{
				"x": 2.2550459193,
				"y": -0.5979978198,
				"z": -2.2115246415,
				"element": "O" 
			},
			{
				"x": 0.6001630538,
				"y": -2.2795546209,
				"z": -1.6033711663,
				"element": "C" 
			},
			{
				"x": 0.7560652708,
				"y": -1.9034338748,
				"z": -0.2108736617,
				"element": "N" 
			},
			{
				"x": 1.6084589505,
				"y": -2.7023894163,
				"z": 0.5618787154,
				"element": "C" 
			},
			{
				"x": 2.1802024824,
				"y": -3.6860034406,
				"z": 0.103440604,
				"element": "O" 
			},
			{
				"x": 1.7380774603,
				"y": -2.272169114,
				"z": 1.9654778475,
				"element": "C" 
			},
			{
				"x": 1.153093195,
				"y": -1.2514153733,
				"z": 2.4947233704,
				"element": "N" 
			},
			{
				"x": 0.3317185125,
				"y": -0.4777734141,
				"z": 1.6880795572,
				"element": "C" 
			},
			{
				"x": 0.124247134,
				"y": -0.7780078008,
				"z": 0.3168333707,
				"element": "C" 
			},
			{
				"x": -0.7105496477,
				"y": 0.0541133095,
				"z": -0.4486330423,
				"element": "C" 
			},
			{
				"x": -1.328422031,
				"y": 1.1497252498,
				"z": 0.1430759697,
				"element": "C" 
			},
			{
				"x": -1.1325948542,
				"y": 1.4480629789,
				"z": 1.4991092587,
				"element": "C" 
			},
			{
				"x": -0.3052462021,
				"y": 0.6370719318,
				"z": 2.2595582709,
				"element": "C" 
			},
			{
				"x": 1.6300022165,
				"y": -1.0777436581,
				"z": -4.3776312378,
				"element": "H" 
			},
			{
				"x": 0.9828641629,
				"y": -3.2999004825,
				"z": -1.6969618726,
				"element": "H" 
			},
			{
				"x": -0.4518619774,
				"y": -2.2797202308,
				"z": -1.8995319046,
				"element": "H" 
			},
			{
				"x": 2.3901919089,
				"y": -2.8912081011,
				"z": 2.5790222911,
				"element": "H" 
			},
			{
				"x": -0.8737057202,
				"y": -0.141951985,
				"z": -1.5014991459,
				"element": "H" 
			},
			{
				"x": -1.9690688063,
				"y": 1.7830532702,
				"z": -0.4632799886,
				"element": "H" 
			},
			{
				"x": -1.621008674,
				"y": 2.3079705694,
				"z": 1.945543389,
				"element": "H" 
			},
			{
				"x": -0.1191449302,
				"y": 0.8299463084,
				"z": 3.3109078388,
				"element": "H" 
			}
		],
		 "valence_orbital": [ 
			{
				"type": "occ",
				"energy": -0.30273,
				"method": "rhf"
			},
			{
				"type": "occ",
				"energy": -0.29379,
				"method": "rhf"
			},
			{
				"type": "occ",
				"energy": -0.25801,
				"method": "rhf"
			},
			{
				"type": "occ",
				"energy": -0.25346,
				"method": "rhf"
			},
			{
				"type": "occ",
				"energy": -0.23188,
				"method": "rhf"
			},
			{
				"type": "unocc",
				"energy": -0.07339,
				"method": "rhf"
			},
			{
				"type": "unocc",
				"energy": -0.01553,
				"method": "rhf"
			},
			{
				"type": "unocc",
				"energy": -0.00861,
				"method": "rhf"
			},
			{
				"type": "unocc",
				"energy": 0.0013,
				"method": "rhf"
			},
			{
				"type": "unocc",
				"energy": 0.06133,
				"method": "rhf"
			}
		],
		"cosmo_sigma_profile": { 
			"-0.025": 0.0,
			"-0.024": 0.0,
			"-0.023": 0.0,
			"-0.022": 0.0,
			"-0.021": 0.0,
			"-0.02": 0.0,
			"-0.019": 0.427382081101,
			"-0.018": 0.89019354482,
			"-0.017": 1.1340437261,
			"-0.016": 1.1386304708,
			"-0.015": 0.468621565963,
			"-0.014": 0.28300368821,
			"-0.013": 0.0608597074213,
			"-0.012": 1.57628681049,
			"-0.011": 1.60393922811,
			"-0.01": 1.48229408633,
			"-0.009": 3.18220254832,
			"-0.008": 5.81413616609,
			"-0.007": 9.59108938577,
			"-0.006": 15.417123035,
			"-0.005": 14.6081923794,
			"-0.004": 14.9325258957,
			"-0.003": 13.8693194794,
			"-0.002": 12.1102963762,
			"-0.001": 10.4175212717,
			"0.0": 11.1307602098,
			"0.001": 13.187176447,
			"0.002": 15.7009319146,
			"0.003": 16.6654991632,
			"0.004": 9.807465079,
			"0.005": 5.52789162756,
			"0.006": 5.48344060311,
			"0.007": 5.03035612419,
			"0.008": 4.89545216897,
			"0.009": 5.11388567785,
			"0.01": 5.12624673302,
			"0.011": 7.58826201875,
			"0.012": 5.20770650109,
			"0.013": 3.36497086403,
			"0.014": 0.741167596868,
			"0.015": 0.0,
			"0.016": 0.0,
			"0.017": 0.0,
			"0.018": 0.0,
			"0.019": 0.0,
			"0.02": 0.0,
			"0.021": 0.0,
			"0.022": 0.0,
			"0.023": 0.0,
			"0.024": 0.0,
			"0.025": 0.0
		}
	}
}
