{
	 "smiles": "CSC1=NN(C)C(N)=C1C(N)=O", 
	 "Tm": 447.15, 
	 "num_atms": 22, 
	 "gaussian": { 
		 "optdone": 1, 
		 "sigma_profile": "yes", 
		 "theory": "DFT", 
		 "functional": "B3LYP", 
		 "basiset": "6-31G**", 
		 "properties": { 
			 "R2extent": 3471.341, 
			 "electric_dipole_moment_norm": 6.251760672, 
			 "electric_quadrupole_moment_norm": 14.5356315608, 
			 "total_energy": -927.083177653, 
			 "HOMO_LUMO_gap": 0.19732, 
			 "cosmo_polarized_energy": -23.0, 
			 "cosmo_cavitation_energy": 27.19, 
			 "cosmo_dispersion_energy": -20.58, 
			 "cosmo_repulsion_energy": 1.63, 
			 "cosmo_total_nonelectrostatic_energy": 8.23, 
			 "SMD_solvation_energy": 4.85 
		},
		"coords": [
			{
				"x": -0.5265156629,
				"y": 3.9805341908,
				"z": -2.9376473116,
				"element": "C" 
			},
			{
				"x": 0.8341343004,
				"y": 2.838150765,
				"z": -2.5095061219,
				"element": "S" 
			},
			{
				"x": 0.159793869,
				"y": 2.1226574299,
				"z": -1.0464948946,
				"element": "C" 
			},
			{
				"x": -0.9762984255,
				"y": 2.5403492892,
				"z": -0.5088383757,
				"element": "N" 
			},
			{
				"x": -1.1509536281,
				"y": 1.7401980281,
				"z": 0.6042034031,
				"element": "N" 
			},
			{
				"x": -2.2897365151,
				"y": 1.9575971654,
				"z": 1.4693602625,
				"element": "C" 
			},
			{
				"x": -0.1419480452,
				"y": 0.8552867057,
				"z": 0.7624818473,
				"element": "C" 
			},
			{
				"x": -0.1007073805,
				"y": -0.0562272653,
				"z": 1.8069912179,
				"element": "N" 
			},
			{
				"x": 0.7410671543,
				"y": 1.0430364867,
				"z": -0.3090243983,
				"element": "C" 
			},
			{
				"x": 1.9852071593,
				"y": 0.3403291216,
				"z": -0.6034044122,
				"element": "C" 
			},
			{
				"x": 2.1716542834,
				"y": -0.8693022505,
				"z": 0.0918685731,
				"element": "N" 
			},
			{
				"x": 2.8414636901,
				"y": 0.7702516635,
				"z": -1.3669745152,
				"element": "O" 
			},
			{
				"x": -0.2112285882,
				"y": 4.487910661,
				"z": -3.8518144475,
				"element": "H" 
			},
			{
				"x": -0.6852769016,
				"y": 4.711296487,
				"z": -2.1434261397,
				"element": "H" 
			},
			{
				"x": -1.4541533825,
				"y": 3.4344239004,
				"z": -3.1165616949,
				"element": "H" 
			},
			{
				"x": -2.7324524483,
				"y": 1.0005446302,
				"z": 1.7628562945,
				"element": "H" 
			},
			{
				"x": -2.019752129,
				"y": 2.5247278285,
				"z": 2.3694103328,
				"element": "H" 
			},
			{
				"x": -3.0223300224,
				"y": 2.5308801778,
				"z": 0.9019573546,
				"element": "H" 
			},
			{
				"x": -0.5183024531,
				"y": 0.2701441897,
				"z": 2.6698073867,
				"element": "H" 
			},
			{
				"x": 0.8387744248,
				"y": -0.4103215033,
				"z": 1.9564565242,
				"element": "H" 
			},
			{
				"x": 2.9984366811,
				"y": -1.3547989218,
				"z": -0.238258735,
				"element": "H" 
			},
			{
				"x": 1.3575240198,
				"y": -1.4727687799,
				"z": 0.1358578501,
				"element": "H" 
			}
		],
		 "valence_orbital": [ 
			{
				"type": "occ",
				"energy": -0.27964,
				"method": "rhf"
			},
			{
				"type": "occ",
				"energy": -0.2738,
				"method": "rhf"
			},
			{
				"type": "occ",
				"energy": -0.24311,
				"method": "rhf"
			},
			{
				"type": "occ",
				"energy": -0.22175,
				"method": "rhf"
			},
			{
				"type": "occ",
				"energy": -0.1987,
				"method": "rhf"
			},
			{
				"type": "unocc",
				"energy": -0.00138,
				"method": "rhf"
			},
			{
				"type": "unocc",
				"energy": 0.03031,
				"method": "rhf"
			},
			{
				"type": "unocc",
				"energy": 0.05558,
				"method": "rhf"
			},
			{
				"type": "unocc",
				"energy": 0.05792,
				"method": "rhf"
			},
			{
				"type": "unocc",
				"energy": 0.08896,
				"method": "rhf"
			}
		],
		"cosmo_sigma_profile": { 
			"-0.025": 0.0,
			"-0.024": 0.0,
			"-0.023": 0.0,
			"-0.022": 0.0,
			"-0.021": 0.0,
			"-0.02": 0.0,
			"-0.019": 0.0,
			"-0.018": 0.0,
			"-0.017": 0.0,
			"-0.016": 0.0,
			"-0.015": 0.0,
			"-0.014": 0.947301917764,
			"-0.013": 2.56131646337,
			"-0.012": 4.23149417591,
			"-0.011": 5.5929420463,
			"-0.01": 4.71380845175,
			"-0.009": 4.47872576874,
			"-0.008": 5.0779068855,
			"-0.007": 7.34643142223,
			"-0.006": 12.0468611595,
			"-0.005": 12.7158412752,
			"-0.004": 14.4849096738,
			"-0.003": 14.8424008137,
			"-0.002": 11.329930588,
			"-0.001": 11.6547074415,
			"0.0": 9.23285014243,
			"0.001": 7.88062633237,
			"0.002": 8.49233800075,
			"0.003": 10.493894941,
			"0.004": 10.7530862474,
			"0.005": 8.71283046616,
			"0.006": 7.0455542711,
			"0.007": 6.82343157096,
			"0.008": 6.8006010908,
			"0.009": 6.58922338671,
			"0.01": 4.79753730542,
			"0.011": 3.41574458296,
			"0.012": 3.85734908921,
			"0.013": 4.94704683977,
			"0.014": 4.54281081952,
			"0.015": 0.229634912995,
			"0.016": 0.0,
			"0.017": 0.0,
			"0.018": 0.0,
			"0.019": 0.0,
			"0.02": 0.0,
			"0.021": 0.0,
			"0.022": 0.0,
			"0.023": 0.0,
			"0.024": 0.0,
			"0.025": 0.0
		}
	}
}
