{
	 "smiles": "CC(C)(C)C1=CC(=C(O)C=C1O)C(C)(C)C", 
	 "Tm": 393.15, 
	 "num_atms": 38, 
	 "gaussian": { 
		 "optdone": 1, 
		 "sigma_profile": "yes", 
		 "theory": "DFT", 
		 "functional": "B3LYP", 
		 "basiset": "6-31G**", 
		 "properties": { 
			 "R2extent": 4270.3661, 
			 "electric_dipole_moment_norm": 2.55752568511, 
			 "electric_quadrupole_moment_norm": 13.7120365238, 
			 "total_energy": -697.212615207, 
			 "HOMO_LUMO_gap": 0.21203, 
			 "cosmo_polarized_energy": -11.47, 
			 "cosmo_cavitation_energy": 36.66, 
			 "cosmo_dispersion_energy": -25.59, 
			 "cosmo_repulsion_energy": 1.98, 
			 "cosmo_total_nonelectrostatic_energy": 13.05, 
			 "SMD_solvation_energy": 7.23 
		},
		"coords": [
			{
				"x": 3.4949248936,
				"y": 1.3686991641,
				"z": -0.8741317237,
				"element": "C" 
			},
			{
				"x": 2.4236037422,
				"y": 1.329862817,
				"z": 0.2438490074,
				"element": "C" 
			},
			{
				"x": 2.888659444,
				"y": 0.3012164497,
				"z": 1.2942518379,
				"element": "C" 
			},
			{
				"x": 2.3480125035,
				"y": 2.7085263326,
				"z": 0.9457959083,
				"element": "C" 
			},
			{
				"x": 1.0487926385,
				"y": 0.964149207,
				"z": -0.3534822985,
				"element": "C" 
			},
			{
				"x": 0.3417146257,
				"y": -0.180727401,
				"z": 0.0435094143,
				"element": "C" 
			},
			{
				"x": -0.9086942476,
				"y": -0.5878324266,
				"z": -0.4454274774,
				"element": "C" 
			},
			{
				"x": -1.4826665054,
				"y": 0.2475136576,
				"z": -1.4222611156,
				"element": "C" 
			},
			{
				"x": -2.7068582714,
				"y": -0.0769839554,
				"z": -1.9554297391,
				"element": "O" 
			},
			{
				"x": -0.8213751891,
				"y": 1.3985156293,
				"z": -1.8525804621,
				"element": "C" 
			},
			{
				"x": 0.4227279026,
				"y": 1.7581624984,
				"z": -1.3328112955,
				"element": "C" 
			},
			{
				"x": 1.0460474002,
				"y": 2.8984827182,
				"z": -1.7793331817,
				"element": "O" 
			},
			{
				"x": -1.6097459484,
				"y": -1.8681790091,
				"z": 0.0544843682,
				"element": "C" 
			},
			{
				"x": -2.9735776696,
				"y": -1.5111384723,
				"z": 0.6960612245,
				"element": "C" 
			},
			{
				"x": -0.7750515677,
				"y": -2.6038136334,
				"z": 1.1221457649,
				"element": "C" 
			},
			{
				"x": -1.825689045,
				"y": -2.8500289004,
				"z": -1.1238574962,
				"element": "C" 
			},
			{
				"x": 3.25194484,
				"y": 2.1073915907,
				"z": -1.6393430641,
				"element": "H" 
			},
			{
				"x": 3.5837680337,
				"y": 0.3895834433,
				"z": -1.3574170387,
				"element": "H" 
			},
			{
				"x": 4.4729445248,
				"y": 1.6241885792,
				"z": -0.4495808535,
				"element": "H" 
			},
			{
				"x": 3.8649843334,
				"y": 0.6038759209,
				"z": 1.6865580369,
				"element": "H" 
			},
			{
				"x": 2.1995988133,
				"y": 0.2378351486,
				"z": 2.1431139853,
				"element": "H" 
			},
			{
				"x": 3.0030349923,
				"y": -0.701080675,
				"z": 0.8679810146,
				"element": "H" 
			},
			{
				"x": 1.6175581361,
				"y": 2.6863942234,
				"z": 1.7619287455,
				"element": "H" 
			},
			{
				"x": 2.0611089945,
				"y": 3.499188245,
				"z": 0.2509438777,
				"element": "H" 
			},
			{
				"x": 3.3235623434,
				"y": 2.9665787191,
				"z": 1.3744568327,
				"element": "H" 
			},
			{
				"x": 0.80192986,
				"y": -0.8057571444,
				"z": 0.7937965188,
				"element": "H" 
			},
			{
				"x": -2.9537473878,
				"y": 0.5938009081,
				"z": -2.6045103079,
				"element": "H" 
			},
			{
				"x": -1.2863562032,
				"y": 2.0299022584,
				"z": -2.6106535823,
				"element": "H" 
			},
			{
				"x": 0.4869589088,
				"y": 3.3218359417,
				"z": -2.442960418,
				"element": "H" 
			},
			{
				"x": -3.4697849584,
				"y": -2.4202692717,
				"z": 1.0556524382,
				"element": "H" 
			},
			{
				"x": -2.8337424176,
				"y": -0.8432131985,
				"z": 1.5530644615,
				"element": "H" 
			},
			{
				"x": -3.6376098478,
				"y": -1.0194430618,
				"z": -0.0163982872,
				"element": "H" 
			},
			{
				"x": -0.6060796813,
				"y": -1.9869403612,
				"z": 2.0111276731,
				"element": "H" 
			},
			{
				"x": -1.3128795741,
				"y": -3.501648902,
				"z": 1.4436337975,
				"element": "H" 
			},
			{
				"x": 0.1980486816,
				"y": -2.9251970876,
				"z": 0.7359274034,
				"element": "H" 
			},
			{
				"x": -2.4445334924,
				"y": -2.409549207,
				"z": -1.9069825599,
				"element": "H" 
			},
			{
				"x": -2.3204684885,
				"y": -3.7615402178,
				"z": -0.7683516777,
				"element": "H" 
			},
			{
				"x": -0.8659651166,
				"y": -3.139160527,
				"z": -1.5659697317,
				"element": "H" 
			}
		],
		 "valence_orbital": [ 
			{
				"type": "occ",
				"energy": -0.30525,
				"method": "rhf"
			},
			{
				"type": "occ",
				"energy": -0.30259,
				"method": "rhf"
			},
			{
				"type": "occ",
				"energy": -0.29557,
				"method": "rhf"
			},
			{
				"type": "occ",
				"energy": -0.23022,
				"method": "rhf"
			},
			{
				"type": "occ",
				"energy": -0.201,
				"method": "rhf"
			},
			{
				"type": "unocc",
				"energy": 0.01103,
				"method": "rhf"
			},
			{
				"type": "unocc",
				"energy": 0.02221,
				"method": "rhf"
			},
			{
				"type": "unocc",
				"energy": 0.05983,
				"method": "rhf"
			},
			{
				"type": "unocc",
				"energy": 0.06769,
				"method": "rhf"
			},
			{
				"type": "unocc",
				"energy": 0.09613,
				"method": "rhf"
			}
		],
		"cosmo_sigma_profile": { 
			"-0.025": 0.0,
			"-0.024": 0.0,
			"-0.023": 0.0,
			"-0.022": 0.0,
			"-0.021": 0.0,
			"-0.02": 0.0,
			"-0.019": 0.0,
			"-0.018": 0.223274904348,
			"-0.017": 2.00043625236,
			"-0.016": 2.41746079673,
			"-0.015": 1.91577809322,
			"-0.014": 2.03532315763,
			"-0.013": 1.91819231489,
			"-0.012": 2.1766279069,
			"-0.011": 1.41717618291,
			"-0.01": 1.99359966153,
			"-0.009": 2.77877546003,
			"-0.008": 2.46942581315,
			"-0.007": 1.57616309891,
			"-0.006": 1.47841860762,
			"-0.005": 1.94351792782,
			"-0.004": 1.53137553482,
			"-0.003": 9.70406517388,
			"-0.002": 36.528365408,
			"-0.001": 31.3245593802,
			"0.0": 34.1245726154,
			"0.001": 37.4092761515,
			"0.002": 42.2483160752,
			"0.003": 14.0158163062,
			"0.004": 13.9519240005,
			"0.005": 14.6992839994,
			"0.006": 13.9352140582,
			"0.007": 6.69921146704,
			"0.008": 1.17343419652,
			"0.009": 0.176527417254,
			"0.01": 0.0,
			"0.011": 0.0,
			"0.012": 0.0,
			"0.013": 0.0,
			"0.014": 0.0,
			"0.015": 0.0,
			"0.016": 0.0,
			"0.017": 0.0,
			"0.018": 0.0,
			"0.019": 0.0,
			"0.02": 0.0,
			"0.021": 0.0,
			"0.022": 0.0,
			"0.023": 0.0,
			"0.024": 0.0,
			"0.025": 0.0
		}
	}
}
