{
	 "smiles": "CC(C)C1=CC(C(C)C)=C(C(=C1)C(C)C)S(=O)(=O)N1C=NC=N1", 
	 "Tm": 384.15, 
	 "num_atms": 48, 
	 "gaussian": { 
		 "optdone": 1, 
		 "sigma_profile": "yes", 
		 "theory": "DFT", 
		 "functional": "B3LYP", 
		 "basiset": "6-31G**", 
		 "properties": { 
			 "R2extent": 8737.5681, 
			 "electric_dipole_moment_norm": 4.8900066186, 
			 "electric_quadrupole_moment_norm": 11.2463995403, 
			 "total_energy": -1375.69063902, 
			 "HOMO_LUMO_gap": 0.20261, 
			 "cosmo_polarized_energy": -12.66, 
			 "cosmo_cavitation_energy": 49.16, 
			 "cosmo_dispersion_energy": -31.83, 
			 "cosmo_repulsion_energy": 2.43, 
			 "cosmo_total_nonelectrostatic_energy": 19.75, 
			 "SMD_solvation_energy": 6.43 
		},
		"coords": [
			{
				"x": 2.7040039859,
				"y": -0.5021006519,
				"z": 2.9585938417,
				"element": "C" 
			},
			{
				"x": 1.1726988621,
				"y": -0.4109722411,
				"z": 2.8168900644,
				"element": "C" 
			},
			{
				"x": 0.4827215026,
				"y": -1.6472461189,
				"z": 3.4248171437,
				"element": "C" 
			},
			{
				"x": 0.7558678786,
				"y": -0.1861366369,
				"z": 1.3708505348,
				"element": "C" 
			},
			{
				"x": 0.0469568588,
				"y": 0.9552151265,
				"z": 1.0027149573,
				"element": "C" 
			},
			{
				"x": -0.3351762825,
				"y": 1.2299047242,
				"z": -0.3161601222,
				"element": "C" 
			},
			{
				"x": -1.1923989456,
				"y": 2.4822045148,
				"z": -0.5390623136,
				"element": "C" 
			},
			{
				"x": -2.416563536,
				"y": 2.4936013919,
				"z": 0.3983491866,
				"element": "C" 
			},
			{
				"x": -0.354302459,
				"y": 3.7656264383,
				"z": -0.3898377882,
				"element": "C" 
			},
			{
				"x": 0.0752788715,
				"y": 0.298083473,
				"z": -1.3060955793,
				"element": "C" 
			},
			{
				"x": 0.6973762323,
				"y": -0.935361498,
				"z": -0.9650704194,
				"element": "C" 
			},
			{
				"x": 1.0364780826,
				"y": -1.1259231581,
				"z": 0.3767994517,
				"element": "C" 
			},
			{
				"x": 0.9959781043,
				"y": -2.0938180291,
				"z": -1.9256895745,
				"element": "C" 
			},
			{
				"x": 2.5034360274,
				"y": -2.198147052,
				"z": -2.2252034681,
				"element": "C" 
			},
			{
				"x": 0.4379590839,
				"y": -3.4294655861,
				"z": -1.3930541351,
				"element": "C" 
			},
			{
				"x": -0.0755117695,
				"y": 0.7433527542,
				"z": -3.0494968625,
				"element": "S" 
			},
			{
				"x": 0.8788352822,
				"y": 0.017995432,
				"z": -3.8856034136,
				"element": "O" 
			},
			{
				"x": -0.2008312341,
				"y": 2.1855933329,
				"z": -3.209395827,
				"element": "O" 
			},
			{
				"x": -1.6151526056,
				"y": 0.0309352122,
				"z": -3.5190875396,
				"element": "N" 
			},
			{
				"x": -1.8854394708,
				"y": -0.7940606535,
				"z": -4.5722054307,
				"element": "C" 
			},
			{
				"x": -3.1791271171,
				"y": -1.0358232092,
				"z": -4.6222389669,
				"element": "N" 
			},
			{
				"x": -3.6671044886,
				"y": -0.317643435,
				"z": -3.5652705252,
				"element": "C" 
			},
			{
				"x": -2.7654706849,
				"y": 0.3497488111,
				"z": -2.8661545917,
				"element": "N" 
			},
			{
				"x": 2.9851793056,
				"y": -0.6006368157,
				"z": 4.012376283,
				"element": "H" 
			},
			{
				"x": 3.1946144875,
				"y": 0.3896606827,
				"z": 2.5568126251,
				"element": "H" 
			},
			{
				"x": 3.1028644116,
				"y": -1.3721679223,
				"z": 2.4258668007,
				"element": "H" 
			},
			{
				"x": 0.8395059717,
				"y": 0.4662132927,
				"z": 3.3862489886,
				"element": "H" 
			},
			{
				"x": 0.7489300714,
				"y": -1.7522121024,
				"z": 4.4818702459,
				"element": "H" 
			},
			{
				"x": -0.6065247813,
				"y": -1.5702646392,
				"z": 3.353580859,
				"element": "H" 
			},
			{
				"x": 0.7876208281,
				"y": -2.5665908978,
				"z": 2.9132528838,
				"element": "H" 
			},
			{
				"x": -0.2295749863,
				"y": 1.665395407,
				"z": 1.775730869,
				"element": "H" 
			},
			{
				"x": -1.5901961991,
				"y": 2.4643795808,
				"z": -1.5492612699,
				"element": "H" 
			},
			{
				"x": -3.0060451663,
				"y": 1.579373796,
				"z": 0.2835503227,
				"element": "H" 
			},
			{
				"x": -2.1464480825,
				"y": 2.599114377,
				"z": 1.4541218617,
				"element": "H" 
			},
			{
				"x": -3.0584198208,
				"y": 3.3424946597,
				"z": 0.1404761587,
				"element": "H" 
			},
			{
				"x": -0.9818517062,
				"y": 4.6461643944,
				"z": -0.5633547722,
				"element": "H" 
			},
			{
				"x": 0.0734997196,
				"y": 3.8525516734,
				"z": 0.615543615,
				"element": "H" 
			},
			{
				"x": 0.4625945293,
				"y": 3.7852179181,
				"z": -1.1154077694,
				"element": "H" 
			},
			{
				"x": 1.5351820023,
				"y": -2.0494495548,
				"z": 0.6512773467,
				"element": "H" 
			},
			{
				"x": 0.4954648713,
				"y": -1.9081618245,
				"z": -2.873176093,
				"element": "H" 
			},
			{
				"x": 3.0774013148,
				"y": -2.389132942,
				"z": -1.3115532637,
				"element": "H" 
			},
			{
				"x": 2.8745759759,
				"y": -1.2775931498,
				"z": -2.6812589345,
				"element": "H" 
			},
			{
				"x": 2.6945582372,
				"y": -3.0230914318,
				"z": -2.9197480978,
				"element": "H" 
			},
			{
				"x": -0.627143332,
				"y": -3.3524274337,
				"z": -1.1537109942,
				"element": "H" 
			},
			{
				"x": 0.9605925476,
				"y": -3.7778104544,
				"z": -0.4966967976,
				"element": "H" 
			},
			{
				"x": 0.5575245182,
				"y": -4.2035091516,
				"z": -2.158293203,
				"element": "H" 
			},
			{
				"x": -1.1175708739,
				"y": -1.1647023238,
				"z": -5.2343653256,
				"element": "H" 
			},
			{
				"x": -4.7165460222,
				"y": -0.290478079,
				"z": -3.3057709616,
				"element": "H" 
			}
		],
		 "valence_orbital": [ 
			{
				"type": "occ",
				"energy": -0.3029,
				"method": "rhf"
			},
			{
				"type": "occ",
				"energy": -0.28921,
				"method": "rhf"
			},
			{
				"type": "occ",
				"energy": -0.28337,
				"method": "rhf"
			},
			{
				"type": "occ",
				"energy": -0.26456,
				"method": "rhf"
			},
			{
				"type": "occ",
				"energy": -0.25361,
				"method": "rhf"
			},
			{
				"type": "unocc",
				"energy": -0.051,
				"method": "rhf"
			},
			{
				"type": "unocc",
				"energy": -0.02135,
				"method": "rhf"
			},
			{
				"type": "unocc",
				"energy": -0.01629,
				"method": "rhf"
			},
			{
				"type": "unocc",
				"energy": 0.02685,
				"method": "rhf"
			},
			{
				"type": "unocc",
				"energy": 0.03989,
				"method": "rhf"
			}
		],
		"cosmo_sigma_profile": { 
			"-0.025": 0.0,
			"-0.024": 0.0,
			"-0.023": 0.0,
			"-0.022": 0.0,
			"-0.021": 0.0,
			"-0.02": 0.0,
			"-0.019": 0.0,
			"-0.018": 0.0,
			"-0.017": 0.0,
			"-0.016": 0.0,
			"-0.015": 0.0,
			"-0.014": 0.0,
			"-0.013": 0.0,
			"-0.012": 0.0209634199325,
			"-0.011": 1.38487758902,
			"-0.01": 1.36908686767,
			"-0.009": 3.33740936981,
			"-0.008": 2.10459215676,
			"-0.007": 4.13192643468,
			"-0.006": 7.756825933,
			"-0.005": 13.9396764067,
			"-0.004": 19.6860378584,
			"-0.003": 38.7273640098,
			"-0.002": 45.9105679134,
			"-0.001": 48.3876344008,
			"0.0": 47.3220850291,
			"0.001": 54.2033353062,
			"0.002": 24.3205642823,
			"0.003": 17.1904469063,
			"0.004": 8.31390085629,
			"0.005": 9.63172013451,
			"0.006": 7.76432526838,
			"0.007": 7.77578658454,
			"0.008": 6.70502601923,
			"0.009": 6.64797679124,
			"0.01": 4.334290588,
			"0.011": 0.861252409986,
			"0.012": 1.07063660234,
			"0.013": 1.29960022673,
			"0.014": 1.0649845524,
			"0.015": 0.73898222416,
			"0.016": 0.119832714295,
			"0.017": 0.0,
			"0.018": 0.0,
			"0.019": 0.0,
			"0.02": 0.0,
			"0.021": 0.0,
			"0.022": 0.0,
			"0.023": 0.0,
			"0.024": 0.0,
			"0.025": 0.0
		}
	}
}
