{
	 "smiles": "COC1=CC(=CC(OC)=C1OC)C1C2C(COC2=O)C(O)C2=C1C=C1OCOC1=C2", 
	 "Tm": 501.15, 
	 "num_atms": 52, 
	 "gaussian": { 
		 "optdone": 1, 
		 "sigma_profile": "yes", 
		 "theory": "DFT", 
		 "functional": "B3LYP", 
		 "basiset": "6-31G**", 
		 "properties": { 
			 "R2extent": 13467.4894, 
			 "electric_dipole_moment_norm": 3.1530368726, 
			 "electric_quadrupole_moment_norm": 21.2072914065, 
			 "total_energy": -1453.30986531, 
			 "HOMO_LUMO_gap": 0.19854, 
			 "cosmo_polarized_energy": -22.79, 
			 "cosmo_cavitation_energy": 52.97, 
			 "cosmo_dispersion_energy": -36.5, 
			 "cosmo_repulsion_energy": 2.76, 
			 "cosmo_total_nonelectrostatic_energy": 19.23, 
			 "SMD_solvation_energy": 12.22 
		},
		"coords": [
			{
				"x": 2.1084926472,
				"y": -2.5423620216,
				"z": 3.2274478333,
				"element": "C" 
			},
			{
				"x": 1.796923293,
				"y": -2.4408267608,
				"z": 1.832564239,
				"element": "O" 
			},
			{
				"x": 2.0255901487,
				"y": -1.1930036443,
				"z": 1.2949467533,
				"element": "C" 
			},
			{
				"x": 0.9426737987,
				"y": -0.3529616662,
				"z": 1.0435143802,
				"element": "C" 
			},
			{
				"x": 1.137545075,
				"y": 0.9033605133,
				"z": 0.4533112849,
				"element": "C" 
			},
			{
				"x": 2.4449546517,
				"y": 1.2914812829,
				"z": 0.1350402412,
				"element": "C" 
			},
			{
				"x": 3.5383188204,
				"y": 0.4570149147,
				"z": 0.3812910942,
				"element": "C" 
			},
			{
				"x": 4.7821539097,
				"y": 0.8758578592,
				"z": -0.0254722504,
				"element": "O" 
			},
			{
				"x": 5.7463079702,
				"y": 1.0728552812,
				"z": 1.0132167536,
				"element": "C" 
			},
			{
				"x": 3.3348933071,
				"y": -0.8028006328,
				"z": 0.96577183,
				"element": "C" 
			},
			{
				"x": 4.406819883,
				"y": -1.6256902638,
				"z": 1.2299559303,
				"element": "O" 
			},
			{
				"x": 4.5375394349,
				"y": -2.7307313795,
				"z": 0.3256827811,
				"element": "C" 
			},
			{
				"x": 0.0076999679,
				"y": 1.8811829055,
				"z": 0.161480406,
				"element": "C" 
			},
			{
				"x": -0.5616312386,
				"y": 2.6269745501,
				"z": 1.4270807799,
				"element": "C" 
			},
			{
				"x": -1.6266617768,
				"y": 3.6922633292,
				"z": 1.0631322649,
				"element": "C" 
			},
			{
				"x": -2.8813523189,
				"y": 3.2887822382,
				"z": 1.8768317609,
				"element": "C" 
			},
			{
				"x": -2.5342649289,
				"y": 2.1389504985,
				"z": 2.6651226552,
				"element": "O" 
			},
			{
				"x": -1.2561153589,
				"y": 1.7364220186,
				"z": 2.4679629998,
				"element": "C" 
			},
			{
				"x": -0.7825910919,
				"y": 0.8201468898,
				"z": 3.0933798503,
				"element": "O" 
			},
			{
				"x": -1.9300539517,
				"y": 3.7377152247,
				"z": -0.4453088698,
				"element": "C" 
			},
			{
				"x": -3.0374593258,
				"y": 4.6122692622,
				"z": -0.6196312102,
				"element": "O" 
			},
			{
				"x": -2.1486529621,
				"y": 2.3374645482,
				"z": -0.9860928788,
				"element": "C" 
			},
			{
				"x": -1.1487771461,
				"y": 1.3860167319,
				"z": -0.7033411256,
				"element": "C" 
			},
			{
				"x": -1.2414701981,
				"y": 0.0842228002,
				"z": -1.2328025302,
				"element": "C" 
			},
			{
				"x": -2.3545172189,
				"y": -0.2113745602,
				"z": -1.9954159655,
				"element": "C" 
			},
			{
				"x": -2.6609805425,
				"y": -1.3945784585,
				"z": -2.6257861219,
				"element": "O" 
			},
			{
				"x": -3.9869458936,
				"y": -1.2262713533,
				"z": -3.1381921226,
				"element": "C" 
			},
			{
				"x": -4.3311761152,
				"y": 0.1615032848,
				"z": -3.0311627308,
				"element": "O" 
			},
			{
				"x": -3.3547962636,
				"y": 0.7223996485,
				"z": -2.2434354917,
				"element": "C" 
			},
			{
				"x": -3.2814021418,
				"y": 2.0106879376,
				"z": -1.7530180011,
				"element": "C" 
			},
			{
				"x": 3.1717443167,
				"y": -2.3510947086,
				"z": 3.4088193949,
				"element": "H" 
			},
			{
				"x": 1.8653367835,
				"y": -3.5653066763,
				"z": 3.5226503998,
				"element": "H" 
			},
			{
				"x": 1.5012178056,
				"y": -1.8402055074,
				"z": 3.8111661697,
				"element": "H" 
			},
			{
				"x": -0.0389409921,
				"y": -0.6956997571,
				"z": 1.3410422896,
				"element": "H" 
			},
			{
				"x": 2.6452372328,
				"y": 2.2525695753,
				"z": -0.3300811018,
				"element": "H" 
			},
			{
				"x": 5.9509358968,
				"y": 0.1431315315,
				"z": 1.5506534531,
				"element": "H" 
			},
			{
				"x": 5.4050461325,
				"y": 1.8393390146,
				"z": 1.7214961743,
				"element": "H" 
			},
			{
				"x": 6.6558453038,
				"y": 1.4219979473,
				"z": 0.5195078557,
				"element": "H" 
			},
			{
				"x": 3.6532631293,
				"y": -3.3740661445,
				"z": 0.3668268214,
				"element": "H" 
			},
			{
				"x": 4.6932551934,
				"y": -2.3758833345,
				"z": -0.7000045922,
				"element": "H" 
			},
			{
				"x": 5.4160741584,
				"y": -3.2912524591,
				"z": 0.6522996624,
				"element": "H" 
			},
			{
				"x": 0.4848362778,
				"y": 2.6936354626,
				"z": -0.4055772075,
				"element": "H" 
			},
			{
				"x": 0.2938779875,
				"y": 3.079725826,
				"z": 1.9380001397,
				"element": "H" 
			},
			{
				"x": -1.2974298412,
				"y": 4.6898629632,
				"z": 1.3657759893,
				"element": "H" 
			},
			{
				"x": -3.7221705266,
				"y": 3.0208396786,
				"z": 1.2335507494,
				"element": "H" 
			},
			{
				"x": -3.2043619705,
				"y": 4.076788821,
				"z": 2.5617666967,
				"element": "H" 
			},
			{
				"x": -1.0440973727,
				"y": 4.1680372091,
				"z": -0.9435828444,
				"element": "H" 
			},
			{
				"x": -3.1271439076,
				"y": 4.8009201418,
				"z": -1.5624034772,
				"element": "H" 
			},
			{
				"x": -0.4760971188,
				"y": -0.6593104842,
				"z": -1.0530363141,
				"element": "H" 
			},
			{
				"x": -4.0129554448,
				"y": -1.5273498257,
				"z": -4.1899059508,
				"element": "H" 
			},
			{
				"x": -4.6908459534,
				"y": -1.8250289168,
				"z": -2.5422709785,
				"element": "H" 
			},
			{
				"x": -4.0670915241,
				"y": 2.7335786651,
				"z": -1.937367869,
				"element": "H" 
			}
		],
		 "valence_orbital": [ 
			{
				"type": "occ",
				"energy": -0.25341,
				"method": "rhf"
			},
			{
				"type": "occ",
				"energy": -0.24844,
				"method": "rhf"
			},
			{
				"type": "occ",
				"energy": -0.22814,
				"method": "rhf"
			},
			{
				"type": "occ",
				"energy": -0.22091,
				"method": "rhf"
			},
			{
				"type": "occ",
				"energy": -0.20628,
				"method": "rhf"
			},
			{
				"type": "unocc",
				"energy": -0.00774,
				"method": "rhf"
			},
			{
				"type": "unocc",
				"energy": -0.00029,
				"method": "rhf"
			},
			{
				"type": "unocc",
				"energy": 0.00195,
				"method": "rhf"
			},
			{
				"type": "unocc",
				"energy": 0.00903,
				"method": "rhf"
			},
			{
				"type": "unocc",
				"energy": 0.01348,
				"method": "rhf"
			}
		],
		"cosmo_sigma_profile": { 
			"-0.025": 0.0,
			"-0.024": 0.0,
			"-0.023": 0.0,
			"-0.022": 0.0,
			"-0.021": 0.0,
			"-0.02": 0.0,
			"-0.019": 0.0,
			"-0.018": 0.0,
			"-0.017": 0.0622022963367,
			"-0.016": 0.771301661433,
			"-0.015": 1.0075462386,
			"-0.014": 1.22059605119,
			"-0.013": 0.757710656471,
			"-0.012": 1.06234098108,
			"-0.011": 1.24388660565,
			"-0.01": 0.970568800788,
			"-0.009": 0.757748296382,
			"-0.008": 4.33047809814,
			"-0.007": 15.6918714984,
			"-0.006": 26.4683519394,
			"-0.005": 30.0115478458,
			"-0.004": 31.1982103579,
			"-0.003": 38.1451302085,
			"-0.002": 35.6276615855,
			"-0.001": 26.4141474216,
			"0.0": 25.5179244604,
			"0.001": 23.8920688465,
			"0.002": 26.2984368327,
			"0.003": 28.3157712375,
			"0.004": 20.4156518684,
			"0.005": 12.3575763012,
			"0.006": 11.0970906388,
			"0.007": 10.6469969515,
			"0.008": 9.24425367518,
			"0.009": 10.5881161238,
			"0.01": 9.17249337707,
			"0.011": 8.05998155418,
			"0.012": 5.71158054847,
			"0.013": 1.75636963233,
			"0.014": 0.0724754187643,
			"0.015": 0.0,
			"0.016": 0.0,
			"0.017": 0.0,
			"0.018": 0.0,
			"0.019": 0.0,
			"0.02": 0.0,
			"0.021": 0.0,
			"0.022": 0.0,
			"0.023": 0.0,
			"0.024": 0.0,
			"0.025": 0.0
		}
	}
}
