{
	 "smiles": "CNC(=O)CNC1=CC(OC)=CC=C1", 
	 "Tm": 352.15, 
	 "num_atms": 28, 
	 "gaussian": { 
		 "optdone": 1, 
		 "sigma_profile": "yes", 
		 "theory": "DFT", 
		 "functional": "B3LYP", 
		 "basiset": "6-31G**", 
		 "properties": { 
			 "R2extent": 4193.6331, 
			 "electric_dipole_moment_norm": 5.67303921633, 
			 "electric_quadrupole_moment_norm": 19.0457412321, 
			 "total_energy": -649.451662008, 
			 "HOMO_LUMO_gap": 0.19673, 
			 "cosmo_polarized_energy": -16.35, 
			 "cosmo_cavitation_energy": 31.53, 
			 "cosmo_dispersion_energy": -22.81, 
			 "cosmo_repulsion_energy": 1.82, 
			 "cosmo_total_nonelectrostatic_energy": 10.54, 
			 "SMD_solvation_energy": 5.33 
		},
		"coords": [
			{
				"x": -0.515966509,
				"y": -2.0311437666,
				"z": 3.7548764054,
				"element": "C" 
			},
			{
				"x": -0.2674937731,
				"y": -2.8098985993,
				"z": 2.5529721832,
				"element": "N" 
			},
			{
				"x": -0.0168567695,
				"y": -2.3322362216,
				"z": 1.301837967,
				"element": "C" 
			},
			{
				"x": 0.2354270977,
				"y": -3.0764044442,
				"z": 0.3596957371,
				"element": "O" 
			},
			{
				"x": -0.0909698708,
				"y": -0.8120781653,
				"z": 1.125610055,
				"element": "C" 
			},
			{
				"x": 0.3335830877,
				"y": -0.4861034843,
				"z": -0.2048571835,
				"element": "N" 
			},
			{
				"x": 0.062623954,
				"y": 0.7262916232,
				"z": -0.8151381073,
				"element": "C" 
			},
			{
				"x": -0.3454972789,
				"y": 1.8500712862,
				"z": -0.0669722412,
				"element": "C" 
			},
			{
				"x": -0.5842660792,
				"y": 3.0687707298,
				"z": -0.7123687912,
				"element": "C" 
			},
			{
				"x": -0.981795466,
				"y": 4.206546665,
				"z": -0.0620947192,
				"element": "O" 
			},
			{
				"x": -1.1568707216,
				"y": 4.1584900087,
				"z": 1.3411231281,
				"element": "C" 
			},
			{
				"x": -0.4248690853,
				"y": 3.1909717312,
				"z": -2.0978023908,
				"element": "C" 
			},
			{
				"x": -0.0202471579,
				"y": 2.0747732015,
				"z": -2.8263058504,
				"element": "C" 
			},
			{
				"x": 0.2235945175,
				"y": 0.8520355135,
				"z": -2.2080243627,
				"element": "C" 
			},
			{
				"x": -0.8503543715,
				"y": -2.7069769999,
				"z": 4.5440120062,
				"element": "H" 
			},
			{
				"x": -1.3084657833,
				"y": -1.2927516673,
				"z": 3.5953497125,
				"element": "H" 
			},
			{
				"x": 0.3801955245,
				"y": -1.5079268901,
				"z": 4.1124844385,
				"element": "H" 
			},
			{
				"x": -0.1858724145,
				"y": -3.8142209816,
				"z": 2.6294491739,
				"element": "H" 
			},
			{
				"x": 0.5355228138,
				"y": -0.3254065194,
				"z": 1.8900152495,
				"element": "H" 
			},
			{
				"x": -1.1285669927,
				"y": -0.4895155611,
				"z": 1.3315018753,
				"element": "H" 
			},
			{
				"x": 0.4190620993,
				"y": -1.3060187923,
				"z": -0.7942484029,
				"element": "H" 
			},
			{
				"x": -0.4577177342,
				"y": 1.7676134407,
				"z": 1.0059363511,
				"element": "H" 
			},
			{
				"x": -1.4708544374,
				"y": 5.1597379891,
				"z": 1.6420737677,
				"element": "H" 
			},
			{
				"x": -1.9329808708,
				"y": 3.4374583871,
				"z": 1.6317893185,
				"element": "H" 
			},
			{
				"x": -0.2233633138,
				"y": 3.9045039679,
				"z": 1.8613207193,
				"element": "H" 
			},
			{
				"x": -0.6184183547,
				"y": 4.1478738552,
				"z": -2.569008696,
				"element": "H" 
			},
			{
				"x": 0.1051031862,
				"y": 2.1586545506,
				"z": -3.9025016592,
				"element": "H" 
			},
			{
				"x": 0.5383147036,
				"y": -0.0094108566,
				"z": -2.7903256841,
				"element": "H" 
			}
		],
		 "valence_orbital": [ 
			{
				"type": "occ",
				"energy": -0.27146,
				"method": "rhf"
			},
			{
				"type": "occ",
				"energy": -0.26665,
				"method": "rhf"
			},
			{
				"type": "occ",
				"energy": -0.2633,
				"method": "rhf"
			},
			{
				"type": "occ",
				"energy": -0.21721,
				"method": "rhf"
			},
			{
				"type": "occ",
				"energy": -0.18082,
				"method": "rhf"
			},
			{
				"type": "unocc",
				"energy": 0.01591,
				"method": "rhf"
			},
			{
				"type": "unocc",
				"energy": 0.02421,
				"method": "rhf"
			},
			{
				"type": "unocc",
				"energy": 0.0341,
				"method": "rhf"
			},
			{
				"type": "unocc",
				"energy": 0.06499,
				"method": "rhf"
			},
			{
				"type": "unocc",
				"energy": 0.07976,
				"method": "rhf"
			}
		],
		"cosmo_sigma_profile": { 
			"-0.025": 0.0,
			"-0.024": 0.0,
			"-0.023": 0.0,
			"-0.022": 0.0,
			"-0.021": 0.0,
			"-0.02": 0.0,
			"-0.019": 0.0,
			"-0.018": 0.0,
			"-0.017": 0.0,
			"-0.016": 0.0,
			"-0.015": 0.0151334355518,
			"-0.014": 0.810345278261,
			"-0.013": 1.15999221755,
			"-0.012": 1.26231152007,
			"-0.011": 0.911449925318,
			"-0.01": 0.958362292262,
			"-0.009": 1.55790521389,
			"-0.008": 2.33316230375,
			"-0.007": 4.32200117429,
			"-0.006": 14.5897340632,
			"-0.005": 27.643907259,
			"-0.004": 25.6069707935,
			"-0.003": 24.5478946354,
			"-0.002": 20.2344230727,
			"-0.001": 11.6355979278,
			"0.0": 11.0574253893,
			"0.001": 10.3018390849,
			"0.002": 9.35342722792,
			"0.003": 8.97715792572,
			"0.004": 10.6245657371,
			"0.005": 11.1401434529,
			"0.006": 13.4311216951,
			"0.007": 12.1654500781,
			"0.008": 5.94255404519,
			"0.009": 3.13317618707,
			"0.01": 3.47138309601,
			"0.011": 2.96904879395,
			"0.012": 2.38560479845,
			"0.013": 4.09506592475,
			"0.014": 2.04587833543,
			"0.015": 0.0294048067618,
			"0.016": 0.0,
			"0.017": 0.0,
			"0.018": 0.0,
			"0.019": 0.0,
			"0.02": 0.0,
			"0.021": 0.0,
			"0.022": 0.0,
			"0.023": 0.0,
			"0.024": 0.0,
			"0.025": 0.0
		}
	}
}
