{
	 "smiles": "FC(F)(F)C1=NNC(=O)C=C1", 
	 "Tm": 399.15, 
	 "num_atms": 14, 
	 "gaussian": { 
		 "optdone": 1, 
		 "sigma_profile": "yes", 
		 "theory": "DFT", 
		 "functional": "B3LYP", 
		 "basiset": "6-31G**", 
		 "properties": { 
			 "R2extent": 2387.4436, 
			 "electric_dipole_moment_norm": 1.05975183888, 
			 "electric_quadrupole_moment_norm": 16.4516983719, 
			 "total_energy": -676.561206811, 
			 "HOMO_LUMO_gap": 0.17748, 
			 "cosmo_polarized_energy": -11.0, 
			 "cosmo_cavitation_energy": 20.73, 
			 "cosmo_dispersion_energy": -15.01, 
			 "cosmo_repulsion_energy": 1.16, 
			 "cosmo_total_nonelectrostatic_energy": 6.88, 
			 "SMD_solvation_energy": 5.02 
		},
		"coords": [
			{
				"x": -3.5330221208,
				"y": -1.6429209329,
				"z": 0.4403602202,
				"element": "F" 
			},
			{
				"x": -2.9361642916,
				"y": -1.1138571227,
				"z": -0.6535002518,
				"element": "C" 
			},
			{
				"x": -3.5880445865,
				"y": 0.0018667774,
				"z": -0.9890420705,
				"element": "F" 
			},
			{
				"x": -3.0910632442,
				"y": -2.0141243325,
				"z": -1.652595119,
				"element": "F" 
			},
			{
				"x": -1.4691970886,
				"y": -0.8806263162,
				"z": -0.3850602173,
				"element": "C" 
			},
			{
				"x": -1.0247756826,
				"y": 0.3392078099,
				"z": -0.5070468801,
				"element": "N" 
			},
			{
				"x": 0.2731819566,
				"y": 0.5233928275,
				"z": -0.2654417301,
				"element": "N" 
			},
			{
				"x": 1.2444418948,
				"y": -0.4298574038,
				"z": 0.1083593548,
				"element": "C" 
			},
			{
				"x": 2.4035676023,
				"y": -0.0923401634,
				"z": 0.2939197607,
				"element": "O" 
			},
			{
				"x": 0.682741824,
				"y": -1.7706896325,
				"z": 0.2272384225,
				"element": "C" 
			},
			{
				"x": -0.6353342301,
				"y": -1.9866986355,
				"z": -0.0130322648,
				"element": "C" 
			},
			{
				"x": 0.6002202707,
				"y": 1.4784213067,
				"z": -0.3653023909,
				"element": "H" 
			},
			{
				"x": 1.364301765,
				"y": -2.5640793396,
				"z": 0.5117942446,
				"element": "H" 
			},
			{
				"x": -1.072054069,
				"y": -2.9769948422,
				"z": 0.0700489215,
				"element": "H" 
			}
		],
		 "valence_orbital": [ 
			{
				"type": "occ",
				"energy": -0.38841,
				"method": "rhf"
			},
			{
				"type": "occ",
				"energy": -0.34094,
				"method": "rhf"
			},
			{
				"type": "occ",
				"energy": -0.33909,
				"method": "rhf"
			},
			{
				"type": "occ",
				"energy": -0.27088,
				"method": "rhf"
			},
			{
				"type": "occ",
				"energy": -0.2616,
				"method": "rhf"
			},
			{
				"type": "unocc",
				"energy": -0.08412,
				"method": "rhf"
			},
			{
				"type": "unocc",
				"energy": -0.02936,
				"method": "rhf"
			},
			{
				"type": "unocc",
				"energy": 0.07248,
				"method": "rhf"
			},
			{
				"type": "unocc",
				"energy": 0.0946,
				"method": "rhf"
			},
			{
				"type": "unocc",
				"energy": 0.0952,
				"method": "rhf"
			}
		],
		"cosmo_sigma_profile": { 
			"-0.025": 0.0,
			"-0.024": 0.0,
			"-0.023": 0.0,
			"-0.022": 0.0,
			"-0.021": 0.0,
			"-0.02": 0.0,
			"-0.019": 0.0,
			"-0.018": 0.0,
			"-0.017": 0.81967335087,
			"-0.016": 1.10448943826,
			"-0.015": 1.08224007133,
			"-0.014": 0.779375775912,
			"-0.013": 0.83927261458,
			"-0.012": 1.02597395394,
			"-0.011": 0.931110117722,
			"-0.01": 1.52786103029,
			"-0.009": 4.11189239982,
			"-0.008": 5.09151235872,
			"-0.007": 4.49891901492,
			"-0.006": 4.13221600785,
			"-0.005": 6.0827537683,
			"-0.004": 7.5041787454,
			"-0.003": 12.5453676746,
			"-0.002": 13.0847094573,
			"-0.001": 11.7704301209,
			"0.0": 9.14525116308,
			"0.001": 10.7728139254,
			"0.002": 27.0426028868,
			"0.003": 13.9735161703,
			"0.004": 2.8721684724,
			"0.005": 2.59230640394,
			"0.006": 1.81634777685,
			"0.007": 2.74800345319,
			"0.008": 2.11178899999,
			"0.009": 2.35314623602,
			"0.01": 2.1179657655,
			"0.011": 1.78360731064,
			"0.012": 4.05913363605,
			"0.013": 5.65531434997,
			"0.014": 0.977254144125,
			"0.015": 0.0,
			"0.016": 0.0,
			"0.017": 0.0,
			"0.018": 0.0,
			"0.019": 0.0,
			"0.02": 0.0,
			"0.021": 0.0,
			"0.022": 0.0,
			"0.023": 0.0,
			"0.024": 0.0,
			"0.025": 0.0
		}
	}
}
