{
	 "smiles": "CC(=O)C1=CC=CC=C1O", 
	 "Tm": 278.15, 
	 "num_atms": 18, 
	 "gaussian": { 
		 "optdone": 1, 
		 "sigma_profile": "yes", 
		 "theory": "DFT", 
		 "functional": "B3LYP", 
		 "basiset": "6-31G**", 
		 "properties": { 
			 "R2extent": 1783.1366, 
			 "electric_dipole_moment_norm": 3.16192368029, 
			 "electric_quadrupole_moment_norm": 9.9797992084, 
			 "total_energy": -460.134559444, 
			 "HOMO_LUMO_gap": 0.16417, 
			 "cosmo_polarized_energy": -7.56, 
			 "cosmo_cavitation_energy": 21.5, 
			 "cosmo_dispersion_energy": -16.3, 
			 "cosmo_repulsion_energy": 1.3, 
			 "cosmo_total_nonelectrostatic_energy": 6.51, 
			 "SMD_solvation_energy": 4.63 
		},
		"coords": [
			{
				"x": -2.0360391385,
				"y": -2.8381766384,
				"z": -1.1956174612,
				"element": "C" 
			},
			{
				"x": -1.2702083374,
				"y": -1.6647574118,
				"z": -1.7728873778,
				"element": "C" 
			},
			{
				"x": -1.0670624381,
				"y": -1.6303128686,
				"z": -2.9978881468,
				"element": "O" 
			},
			{
				"x": -0.7806352638,
				"y": -0.5934664974,
				"z": -0.8934727748,
				"element": "C" 
			},
			{
				"x": -0.9966056021,
				"y": -0.6063494458,
				"z": 0.5015964964,
				"element": "C" 
			},
			{
				"x": -0.5278929334,
				"y": 0.4121582849,
				"z": 1.314471949,
				"element": "C" 
			},
			{
				"x": 0.1780149346,
				"y": 1.4813485055,
				"z": 0.7367877493,
				"element": "C" 
			},
			{
				"x": 0.4094213435,
				"y": 1.52836018,
				"z": -0.6288417917,
				"element": "C" 
			},
			{
				"x": -0.0627412837,
				"y": 0.4985251071,
				"z": -1.462187643,
				"element": "C" 
			},
			{
				"x": 0.1835080835,
				"y": 0.5847724335,
				"z": -2.7738872933,
				"element": "O" 
			},
			{
				"x": -1.4305593863,
				"y": -3.3797942488,
				"z": -0.4613274295,
				"element": "H" 
			},
			{
				"x": -2.9459076001,
				"y": -2.5019449543,
				"z": -0.6874655342,
				"element": "H" 
			},
			{
				"x": -2.304263452,
				"y": -3.5110922479,
				"z": -2.0103373475,
				"element": "H" 
			},
			{
				"x": -1.5419886366,
				"y": -1.4330009973,
				"z": 0.9452828849,
				"element": "H" 
			},
			{
				"x": -0.7034660863,
				"y": 0.3852799351,
				"z": 2.3848032401,
				"element": "H" 
			},
			{
				"x": 0.5492596119,
				"y": 2.2846459511,
				"z": 1.3672802106,
				"element": "H" 
			},
			{
				"x": 0.9527178299,
				"y": 2.3473471434,
				"z": -1.0880351453,
				"element": "H" 
			},
			{
				"x": -0.2234516451,
				"y": -0.2241422303,
				"z": -3.1850745853,
				"element": "H" 
			}
		],
		 "valence_orbital": [ 
			{
				"type": "occ",
				"energy": -0.34856,
				"method": "rhf"
			},
			{
				"type": "occ",
				"energy": -0.34008,
				"method": "rhf"
			},
			{
				"type": "occ",
				"energy": -0.26527,
				"method": "rhf"
			},
			{
				"type": "occ",
				"energy": -0.2639,
				"method": "rhf"
			},
			{
				"type": "occ",
				"energy": -0.22707,
				"method": "rhf"
			},
			{
				"type": "unocc",
				"energy": -0.0629,
				"method": "rhf"
			},
			{
				"type": "unocc",
				"energy": 0.00262,
				"method": "rhf"
			},
			{
				"type": "unocc",
				"energy": 0.03398,
				"method": "rhf"
			},
			{
				"type": "unocc",
				"energy": 0.08573,
				"method": "rhf"
			},
			{
				"type": "unocc",
				"energy": 0.10838,
				"method": "rhf"
			}
		],
		"cosmo_sigma_profile": { 
			"-0.025": 0.0,
			"-0.024": 0.0,
			"-0.023": 0.0,
			"-0.022": 0.0,
			"-0.021": 0.0,
			"-0.02": 0.0,
			"-0.019": 0.0,
			"-0.018": 0.0,
			"-0.017": 0.0,
			"-0.016": 0.0,
			"-0.015": 0.0,
			"-0.014": 0.0,
			"-0.013": 0.0,
			"-0.012": 0.0,
			"-0.011": 0.0,
			"-0.01": 0.0,
			"-0.009": 0.0,
			"-0.008": 0.0,
			"-0.007": 4.01474818997,
			"-0.006": 15.084522254,
			"-0.005": 14.3132339229,
			"-0.004": 14.4965939242,
			"-0.003": 13.146108218,
			"-0.002": 15.6699231452,
			"-0.001": 13.7150973594,
			"0.0": 9.52932961945,
			"0.001": 9.11742505034,
			"0.002": 11.8020507145,
			"0.003": 12.6281997655,
			"0.004": 12.1591553119,
			"0.005": 5.8647746655,
			"0.006": 3.03385103973,
			"0.007": 2.37037396946,
			"0.008": 3.03994958623,
			"0.009": 2.79422974327,
			"0.01": 3.33544907144,
			"0.011": 3.1363303481,
			"0.012": 2.24217597855,
			"0.013": 0.236695480275,
			"0.014": 0.0,
			"0.015": 0.0,
			"0.016": 0.0,
			"0.017": 0.0,
			"0.018": 0.0,
			"0.019": 0.0,
			"0.02": 0.0,
			"0.021": 0.0,
			"0.022": 0.0,
			"0.023": 0.0,
			"0.024": 0.0,
			"0.025": 0.0
		}
	}
}
