{
	 "smiles": "N(C1=CC=C(NC2=CC3=CC=CC=C3C=C2)C=C1)C1=CC2=CC=CC=C2C=C1", 
	 "Tm": 508.15, 
	 "num_atms": 48, 
	 "gaussian": { 
		 "optdone": 1, 
		 "sigma_profile": "yes", 
		 "theory": "DFT", 
		 "functional": "B3LYP", 
		 "basiset": "6-31G**", 
		 "properties": { 
			 "R2extent": 21300.5432, 
			 "electric_dipole_moment_norm": 1.15036559406, 
			 "electric_quadrupole_moment_norm": 9.55827374059, 
			 "total_energy": -1112.35414091, 
			 "HOMO_LUMO_gap": 0.13725, 
			 "cosmo_polarized_energy": -15.12, 
			 "cosmo_cavitation_energy": 51.67, 
			 "cosmo_dispersion_energy": -37.61, 
			 "cosmo_repulsion_energy": 2.75, 
			 "cosmo_total_nonelectrostatic_energy": 16.8, 
			 "SMD_solvation_energy": 7.4 
		},
		"coords": [
			{
				"x": 0.7620509894,
				"y": 2.5055457047,
				"z": -0.9433406848,
				"element": "N" 
			},
			{
				"x": 0.8708556646,
				"y": 1.142740982,
				"z": -0.6252411459,
				"element": "C" 
			},
			{
				"x": 1.2386529795,
				"y": 0.7786143638,
				"z": 0.6812562673,
				"element": "C" 
			},
			{
				"x": 1.4095942503,
				"y": -0.5527084227,
				"z": 1.042787473,
				"element": "C" 
			},
			{
				"x": 1.171745189,
				"y": -1.5815765815,
				"z": 0.1153253727,
				"element": "C" 
			},
			{
				"x": 1.3603911356,
				"y": -2.938288008,
				"z": 0.4212327535,
				"element": "N" 
			},
			{
				"x": 1.106811248,
				"y": -3.6147857281,
				"z": 1.6153622902,
				"element": "C" 
			},
			{
				"x": 0.3770767464,
				"y": -3.0887629071,
				"z": 2.6709365652,
				"element": "C" 
			},
			{
				"x": 0.1569516215,
				"y": -3.8401708307,
				"z": 3.8542166098,
				"element": "C" 
			},
			{
				"x": -0.5866747601,
				"y": -3.3175632218,
				"z": 4.9486658385,
				"element": "C" 
			},
			{
				"x": -0.7958546438,
				"y": -4.0672109058,
				"z": 6.0851745868,
				"element": "C" 
			},
			{
				"x": -0.2725480094,
				"y": -5.3790705994,
				"z": 6.1892457813,
				"element": "C" 
			},
			{
				"x": 0.4493754761,
				"y": -5.9157026766,
				"z": 5.1453427877,
				"element": "C" 
			},
			{
				"x": 0.6792458212,
				"y": -5.1702626969,
				"z": 3.9607231574,
				"element": "C" 
			},
			{
				"x": 1.4099900427,
				"y": -5.6906382674,
				"z": 2.8576943255,
				"element": "C" 
			},
			{
				"x": 1.6229801172,
				"y": -4.9421911035,
				"z": 1.7288921599,
				"element": "C" 
			},
			{
				"x": 0.8055931885,
				"y": -1.2176734685,
				"z": -1.1903223756,
				"element": "C" 
			},
			{
				"x": 0.6805531169,
				"y": 0.1164356077,
				"z": -1.5650914322,
				"element": "C" 
			},
			{
				"x": 0.0344369879,
				"y": 3.1070451898,
				"z": -1.9717351335,
				"element": "C" 
			},
			{
				"x": 0.4443346504,
				"y": 4.3316340368,
				"z": -2.4795533167,
				"element": "C" 
			},
			{
				"x": -0.3019142472,
				"y": 5.0091951095,
				"z": -3.4745094132,
				"element": "C" 
			},
			{
				"x": 0.1026916619,
				"y": 6.2661990986,
				"z": -4.0040681691,
				"element": "C" 
			},
			{
				"x": -0.637102138,
				"y": 6.8917593884,
				"z": -4.9827133894,
				"element": "C" 
			},
			{
				"x": -1.8207275401,
				"y": 6.2953732638,
				"z": -5.4831059444,
				"element": "C" 
			},
			{
				"x": -2.2389581695,
				"y": 5.0782999675,
				"z": -4.9912799851,
				"element": "C" 
			},
			{
				"x": -1.4988628773,
				"y": 4.4069963376,
				"z": -3.9838986381,
				"element": "C" 
			},
			{
				"x": -1.8995767213,
				"y": 3.1548414017,
				"z": -3.4445231331,
				"element": "C" 
			},
			{
				"x": -1.1706909556,
				"y": 2.5234640848,
				"z": -2.4667972231,
				"element": "C" 
			},
			{
				"x": 1.3863651713,
				"y": 3.1185416913,
				"z": -0.4407314635,
				"element": "H" 
			},
			{
				"x": 1.4045000906,
				"y": 1.5567921496,
				"z": 1.422265667,
				"element": "H" 
			},
			{
				"x": 1.735663971,
				"y": -0.7958102226,
				"z": 2.0474620035,
				"element": "H" 
			},
			{
				"x": 1.5631357097,
				"y": -3.5310631198,
				"z": -0.3696636915,
				"element": "H" 
			},
			{
				"x": -0.0571762386,
				"y": -2.098218527,
				"z": 2.5973615024,
				"element": "H" 
			},
			{
				"x": -0.9901809864,
				"y": -2.3108870156,
				"z": 4.8731890878,
				"element": "H" 
			},
			{
				"x": -1.3662040958,
				"y": -3.6506472668,
				"z": 6.9108173416,
				"element": "H" 
			},
			{
				"x": -0.4434364699,
				"y": -5.958397703,
				"z": 7.0917986162,
				"element": "H" 
			},
			{
				"x": 0.8530383236,
				"y": -6.9230545904,
				"z": 5.2151033453,
				"element": "H" 
			},
			{
				"x": 1.810540665,
				"y": -6.6992980765,
				"z": 2.9212064042,
				"element": "H" 
			},
			{
				"x": 2.2002950013,
				"y": -5.3520609263,
				"z": 0.9032193364,
				"element": "H" 
			},
			{
				"x": 0.6316304909,
				"y": -1.9950199889,
				"z": -1.9307016094,
				"element": "H" 
			},
			{
				"x": 0.4379323937,
				"y": 0.3609812946,
				"z": -2.5930394308,
				"element": "H" 
			},
			{
				"x": 1.3626512494,
				"y": 4.7857527292,
				"z": -2.112849693,
				"element": "H" 
			},
			{
				"x": 1.0106271227,
				"y": 6.7271085922,
				"z": -3.6229746517,
				"element": "H" 
			},
			{
				"x": -0.3131943972,
				"y": 7.8514371397,
				"z": -5.3758376032,
				"element": "H" 
			},
			{
				"x": -2.3951709409,
				"y": 6.8011243624,
				"z": -6.2535798091,
				"element": "H" 
			},
			{
				"x": -3.1466678578,
				"y": 4.613868852,
				"z": -5.3691649097,
				"element": "H" 
			},
			{
				"x": -2.8181531081,
				"y": 2.6995923793,
				"z": -3.8066285039,
				"element": "H" 
			},
			{
				"x": -1.5201169194,
				"y": 1.587719128,
				"z": -2.0459279231,
				"element": "H" 
			}
		],
		 "valence_orbital": [ 
			{
				"type": "occ",
				"energy": -0.24422,
				"method": "rhf"
			},
			{
				"type": "occ",
				"energy": -0.22448,
				"method": "rhf"
			},
			{
				"type": "occ",
				"energy": -0.21641,
				"method": "rhf"
			},
			{
				"type": "occ",
				"energy": -0.19777,
				"method": "rhf"
			},
			{
				"type": "occ",
				"energy": -0.17174,
				"method": "rhf"
			},
			{
				"type": "unocc",
				"energy": -0.03449,
				"method": "rhf"
			},
			{
				"type": "unocc",
				"energy": -0.03103,
				"method": "rhf"
			},
			{
				"type": "unocc",
				"energy": -0.01052,
				"method": "rhf"
			},
			{
				"type": "unocc",
				"energy": -0.00643,
				"method": "rhf"
			},
			{
				"type": "unocc",
				"energy": 0.00286,
				"method": "rhf"
			}
		],
		"cosmo_sigma_profile": { 
			"-0.025": 0.0,
			"-0.024": 0.0,
			"-0.023": 0.0,
			"-0.022": 0.0,
			"-0.021": 0.0,
			"-0.02": 0.0,
			"-0.019": 0.0,
			"-0.018": 0.0,
			"-0.017": 0.0,
			"-0.016": 0.0,
			"-0.015": 0.0,
			"-0.014": 0.613566655863,
			"-0.013": 2.60162327477,
			"-0.012": 2.6538019564,
			"-0.011": 2.7756917401,
			"-0.01": 2.55290067593,
			"-0.009": 3.18338480018,
			"-0.008": 4.30262254253,
			"-0.007": 4.00756046784,
			"-0.006": 13.8948093583,
			"-0.005": 36.2385258058,
			"-0.004": 33.2420493767,
			"-0.003": 33.9712319795,
			"-0.002": 24.6045229064,
			"-0.001": 25.3671464869,
			"0.0": 21.0893840698,
			"0.001": 21.7879839168,
			"0.002": 22.5662504014,
			"0.003": 29.9844904865,
			"0.004": 42.5000291239,
			"0.005": 58.1547365951,
			"0.006": 27.1953731292,
			"0.007": 1.15724147201,
			"0.008": 0.0,
			"0.009": 0.0,
			"0.01": 0.0,
			"0.011": 0.0,
			"0.012": 0.0,
			"0.013": 0.0,
			"0.014": 0.0,
			"0.015": 0.0,
			"0.016": 0.0,
			"0.017": 0.0,
			"0.018": 0.0,
			"0.019": 0.0,
			"0.02": 0.0,
			"0.021": 0.0,
			"0.022": 0.0,
			"0.023": 0.0,
			"0.024": 0.0,
			"0.025": 0.0
		}
	}
}
