{
	 "smiles": "CC(N1C=CC=N1)C(=O)NC1CCC(CC1)C(O)=O", 
	 "Tm": 428.15, 
	 "num_atms": 38, 
	 "gaussian": { 
		 "optdone": 1, 
		 "sigma_profile": "yes", 
		 "theory": "DFT", 
		 "functional": "B3LYP", 
		 "basiset": "6-31G**", 
		 "properties": { 
			 "R2extent": 7431.1737, 
			 "electric_dipole_moment_norm": 3.09967628955, 
			 "electric_quadrupole_moment_norm": 11.8097705122, 
			 "total_energy": -896.78323957, 
			 "HOMO_LUMO_gap": 0.2407, 
			 "cosmo_polarized_energy": -18.04, 
			 "cosmo_cavitation_energy": 40.2, 
			 "cosmo_dispersion_energy": -27.35, 
			 "cosmo_repulsion_energy": 2.13, 
			 "cosmo_total_nonelectrostatic_energy": 14.98, 
			 "SMD_solvation_energy": 7.39 
		},
		"coords": [
			{
				"x": 1.177725338,
				"y": 0.8242880556,
				"z": -4.1201735644,
				"element": "C" 
			},
			{
				"x": 1.3414008617,
				"y": 1.2041047894,
				"z": -2.6528004636,
				"element": "C" 
			},
			{
				"x": 2.6323572609,
				"y": 0.7700120898,
				"z": -2.1049756282,
				"element": "N" 
			},
			{
				"x": 3.4139069351,
				"y": -0.2787399149,
				"z": -2.475000021,
				"element": "C" 
			},
			{
				"x": 4.4814769519,
				"y": -0.3187016407,
				"z": -1.5954482184,
				"element": "C" 
			},
			{
				"x": 4.2485368192,
				"y": 0.7515271815,
				"z": -0.7102692337,
				"element": "C" 
			},
			{
				"x": 3.1286589139,
				"y": 1.4109553713,
				"z": -1.0176052466,
				"element": "N" 
			},
			{
				"x": 0.1443980743,
				"y": 0.6817992794,
				"z": -1.8042844894,
				"element": "C" 
			},
			{
				"x": -0.8653399541,
				"y": 0.2470802125,
				"z": -2.348761526,
				"element": "O" 
			},
			{
				"x": 0.3103898025,
				"y": 0.7993319741,
				"z": -0.4630387885,
				"element": "N" 
			},
			{
				"x": -0.7054861626,
				"y": 0.3912275868,
				"z": 0.5046486528,
				"element": "C" 
			},
			{
				"x": -1.2891173279,
				"y": 1.5975091739,
				"z": 1.2876760185,
				"element": "C" 
			},
			{
				"x": -0.5566688181,
				"y": 1.8424916587,
				"z": 2.6126653753,
				"element": "C" 
			},
			{
				"x": -0.6951541013,
				"y": 0.6337839531,
				"z": 3.5693778465,
				"element": "C" 
			},
			{
				"x": -0.8937977817,
				"y": -0.7042361782,
				"z": 2.7938167767,
				"element": "C" 
			},
			{
				"x": -0.1251346874,
				"y": -0.6728417226,
				"z": 1.4682240245,
				"element": "C" 
			},
			{
				"x": -1.8338487396,
				"y": 0.8227133471,
				"z": 4.5556185959,
				"element": "C" 
			},
			{
				"x": -1.8380494107,
				"y": -0.1520138337,
				"z": 5.500350424,
				"element": "O" 
			},
			{
				"x": -2.6689196875,
				"y": 1.7014555666,
				"z": 4.5348134419,
				"element": "O" 
			},
			{
				"x": 1.1172118483,
				"y": -0.2590034004,
				"z": -4.2510740109,
				"element": "H" 
			},
			{
				"x": 0.238469126,
				"y": 1.2379860303,
				"z": -4.4880325072,
				"element": "H" 
			},
			{
				"x": 2.0053288662,
				"y": 1.2192815412,
				"z": -4.7151824959,
				"element": "H" 
			},
			{
				"x": 1.3486056855,
				"y": 2.2955010582,
				"z": -2.5552242428,
				"element": "H" 
			},
			{
				"x": 3.1697297654,
				"y": -0.8996496411,
				"z": -3.3227054713,
				"element": "H" 
			},
			{
				"x": 5.3078199424,
				"y": -1.0133275561,
				"z": -1.6041541076,
				"element": "H" 
			},
			{
				"x": 4.8474255565,
				"y": 1.0790391871,
				"z": 0.1291597736,
				"element": "H" 
			},
			{
				"x": 1.1997806911,
				"y": 1.1641972089,
				"z": -0.1342233664,
				"element": "H" 
			},
			{
				"x": -1.5017752781,
				"y": -0.0531554062,
				"z": -0.0972379817,
				"element": "H" 
			},
			{
				"x": -1.2553346133,
				"y": 2.4879632122,
				"z": 0.6525379373,
				"element": "H" 
			},
			{
				"x": -2.3476018505,
				"y": 1.4111126978,
				"z": 1.5028469133,
				"element": "H" 
			},
			{
				"x": 0.5073830297,
				"y": 2.0247128143,
				"z": 2.4188142748,
				"element": "H" 
			},
			{
				"x": -0.9489741861,
				"y": 2.7387964677,
				"z": 3.0994220251,
				"element": "H" 
			},
			{
				"x": 0.2178292021,
				"y": 0.5353879304,
				"z": 4.1698752021,
				"element": "H" 
			},
			{
				"x": -1.9597419793,
				"y": -0.8641701298,
				"z": 2.5874772711,
				"element": "H" 
			},
			{
				"x": -0.5731136815,
				"y": -1.5425556503,
				"z": 3.4178514359,
				"element": "H" 
			},
			{
				"x": 0.9300467141,
				"y": -0.4441970826,
				"z": 1.6709214626,
				"element": "H" 
			},
			{
				"x": -0.1377742457,
				"y": -1.6552344834,
				"z": 0.9849444157,
				"element": "H" 
			},
			{
				"x": -2.6059488796,
				"y": 0.0279682524,
				"z": 6.0685494962,
				"element": "H" 
			}
		],
		 "valence_orbital": [ 
			{
				"type": "occ",
				"energy": -0.27321,
				"method": "rhf"
			},
			{
				"type": "occ",
				"energy": -0.27286,
				"method": "rhf"
			},
			{
				"type": "occ",
				"energy": -0.25534,
				"method": "rhf"
			},
			{
				"type": "occ",
				"energy": -0.24561,
				"method": "rhf"
			},
			{
				"type": "occ",
				"energy": -0.23528,
				"method": "rhf"
			},
			{
				"type": "unocc",
				"energy": 0.00542,
				"method": "rhf"
			},
			{
				"type": "unocc",
				"energy": 0.00921,
				"method": "rhf"
			},
			{
				"type": "unocc",
				"energy": 0.02675,
				"method": "rhf"
			},
			{
				"type": "unocc",
				"energy": 0.06319,
				"method": "rhf"
			},
			{
				"type": "unocc",
				"energy": 0.07418,
				"method": "rhf"
			}
		],
		"cosmo_sigma_profile": { 
			"-0.025": 0.0,
			"-0.024": 0.0,
			"-0.023": 0.0,
			"-0.022": 0.0,
			"-0.021": 0.0,
			"-0.02": 0.0,
			"-0.019": 0.0,
			"-0.018": 0.508772518112,
			"-0.017": 0.868884439297,
			"-0.016": 1.031184158,
			"-0.015": 0.485642746542,
			"-0.014": 1.27412908061,
			"-0.013": 0.512357865962,
			"-0.012": 0.157223595486,
			"-0.011": 0.308881082149,
			"-0.01": 1.47447001724,
			"-0.009": 1.81448610601,
			"-0.008": 4.29001261754,
			"-0.007": 9.3193473274,
			"-0.006": 10.0319788043,
			"-0.005": 15.1183787577,
			"-0.004": 30.6668595361,
			"-0.003": 34.2141484982,
			"-0.002": 32.1317148485,
			"-0.001": 30.6417168098,
			"0.0": 28.1193010452,
			"0.001": 15.7705374452,
			"0.002": 13.2564677176,
			"0.003": 11.0938467331,
			"0.004": 11.0000458296,
			"0.005": 12.1214039259,
			"0.006": 6.08855049044,
			"0.007": 5.03819725007,
			"0.008": 5.76880657846,
			"0.009": 4.88035186754,
			"0.01": 4.55158178469,
			"0.011": 5.55787193368,
			"0.012": 7.33542426671,
			"0.013": 4.4085167408,
			"0.014": 4.78969277617,
			"0.015": 0.0532064870066,
			"0.016": 0.0,
			"0.017": 0.0,
			"0.018": 0.0,
			"0.019": 0.0,
			"0.02": 0.0,
			"0.021": 0.0,
			"0.022": 0.0,
			"0.023": 0.0,
			"0.024": 0.0,
			"0.025": 0.0
		}
	}
}
