{
	 "smiles": "OC(=O)C=CC1=CC=CC(Cl)=C1", 
	 "Tm": 437.15, 
	 "num_atms": 19, 
	 "gaussian": { 
		 "optdone": 1, 
		 "sigma_profile": "yes", 
		 "theory": "DFT", 
		 "functional": "B3LYP", 
		 "basiset": "6-31G**", 
		 "properties": { 
			 "R2extent": 4306.7959, 
			 "electric_dipole_moment_norm": 3.50510720093, 
			 "electric_quadrupole_moment_norm": 27.0912459112, 
			 "total_energy": -957.810929026, 
			 "HOMO_LUMO_gap": 0.1701, 
			 "cosmo_polarized_energy": -16.13, 
			 "cosmo_cavitation_energy": 26.33, 
			 "cosmo_dispersion_energy": -19.29, 
			 "cosmo_repulsion_energy": 1.54, 
			 "cosmo_total_nonelectrostatic_energy": 8.58, 
			 "SMD_solvation_energy": 5.57 
		},
		"coords": [
			{
				"x": 2.6959589865,
				"y": 1.0464775563,
				"z": 5.1282157184,
				"element": "O" 
			},
			{
				"x": 2.7145031404,
				"y": 0.306720098,
				"z": 3.9848725577,
				"element": "C" 
			},
			{
				"x": 3.6975885054,
				"y": -0.3406960727,
				"z": 3.7037760998,
				"element": "O" 
			},
			{
				"x": 1.4802978558,
				"y": 0.3649507865,
				"z": 3.1575988122,
				"element": "C" 
			},
			{
				"x": 1.4164383889,
				"y": -0.3377541499,
				"z": 2.0128004205,
				"element": "C" 
			},
			{
				"x": 0.307442154,
				"y": -0.4188376549,
				"z": 1.0614104824,
				"element": "C" 
			},
			{
				"x": 0.4589530991,
				"y": -1.2246631335,
				"z": -0.0808272716,
				"element": "C" 
			},
			{
				"x": -0.5665553635,
				"y": -1.3362863063,
				"z": -1.0174297937,
				"element": "C" 
			},
			{
				"x": -1.76585879,
				"y": -0.6480701556,
				"z": -0.837905624,
				"element": "C" 
			},
			{
				"x": -1.9162814768,
				"y": 0.1528974383,
				"z": 0.2973928172,
				"element": "C" 
			},
			{
				"x": -3.4225751082,
				"y": 1.0264773837,
				"z": 0.5369513769,
				"element": "Cl" 
			},
			{
				"x": -0.9043740808,
				"y": 0.2752703092,
				"z": 1.2407353239,
				"element": "C" 
			},
			{
				"x": 1.8506704733,
				"y": 1.5072279416,
				"z": 5.2205727619,
				"element": "H" 
			},
			{
				"x": 0.6497984463,
				"y": 0.9793611168,
				"z": 3.4993101714,
				"element": "H" 
			},
			{
				"x": 2.3034096571,
				"y": -0.9189131065,
				"z": 1.7652591353,
				"element": "H" 
			},
			{
				"x": 1.38981879,
				"y": -1.7641582975,
				"z": -0.228477724,
				"element": "H" 
			},
			{
				"x": -0.4349774464,
				"y": -1.9623879064,
				"z": -1.8944997147,
				"element": "H" 
			},
			{
				"x": -2.571668884,
				"y": -0.7261629967,
				"z": -1.5589646994,
				"element": "H" 
			},
			{
				"x": -1.0616883469,
				"y": 0.9069471496,
				"z": 2.1072091498,
				"element": "H" 
			}
		],
		 "valence_orbital": [ 
			{
				"type": "occ",
				"energy": -0.3232,
				"method": "rhf"
			},
			{
				"type": "occ",
				"energy": -0.30831,
				"method": "rhf"
			},
			{
				"type": "occ",
				"energy": -0.27412,
				"method": "rhf"
			},
			{
				"type": "occ",
				"energy": -0.2666,
				"method": "rhf"
			},
			{
				"type": "occ",
				"energy": -0.25108,
				"method": "rhf"
			},
			{
				"type": "unocc",
				"energy": -0.08098,
				"method": "rhf"
			},
			{
				"type": "unocc",
				"energy": -0.02798,
				"method": "rhf"
			},
			{
				"type": "unocc",
				"energy": 0.00643,
				"method": "rhf"
			},
			{
				"type": "unocc",
				"energy": 0.01759,
				"method": "rhf"
			},
			{
				"type": "unocc",
				"energy": 0.05346,
				"method": "rhf"
			}
		],
		"cosmo_sigma_profile": { 
			"-0.025": 0.0,
			"-0.024": 0.0,
			"-0.023": 0.0,
			"-0.022": 0.0,
			"-0.021": 0.0,
			"-0.02": 0.0191640106515,
			"-0.019": 0.74897641226,
			"-0.018": 1.59485061988,
			"-0.017": 0.708901889399,
			"-0.016": 1.27804516588,
			"-0.015": 1.13157382486,
			"-0.014": 0.725227002498,
			"-0.013": 1.09936959075,
			"-0.012": 1.44002900078,
			"-0.011": 1.24875266206,
			"-0.01": 2.17011237999,
			"-0.009": 2.16151082073,
			"-0.008": 4.80213497924,
			"-0.007": 10.5879224144,
			"-0.006": 9.39478686279,
			"-0.005": 9.22846760222,
			"-0.004": 7.64880928259,
			"-0.003": 9.90304860708,
			"-0.002": 9.87975507078,
			"-0.001": 11.8680725807,
			"0.0": 15.0611510117,
			"0.001": 21.7356307774,
			"0.002": 24.5844175279,
			"0.003": 17.6380596897,
			"0.004": 11.9819938885,
			"0.005": 6.30071319264,
			"0.006": 2.67082597774,
			"0.007": 2.77382437687,
			"0.008": 2.21114101012,
			"0.009": 2.79955364225,
			"0.01": 4.00578025247,
			"0.011": 5.28211679654,
			"0.012": 5.82362133005,
			"0.013": 2.69004750784,
			"0.014": 0.486687830733,
			"0.015": 0.0,
			"0.016": 0.0,
			"0.017": 0.0,
			"0.018": 0.0,
			"0.019": 0.0,
			"0.02": 0.0,
			"0.021": 0.0,
			"0.022": 0.0,
			"0.023": 0.0,
			"0.024": 0.0,
			"0.025": 0.0
		}
	}
}
