{
	 "smiles": "[O-][N+](=O)C1=CC=C(Br)S1", 
	 "Tm": 317.15, 
	 "num_atms": 11, 
	 "gaussian": { 
		 "optdone": 1, 
		 "sigma_profile": "yes", 
		 "theory": "DFT", 
		 "functional": "B3LYP", 
		 "basiset": "6-31G**", 
		 "properties": { 
			 "R2extent": 2777.7979, 
			 "electric_dipole_moment_norm": 4.07404286674, 
			 "electric_quadrupole_moment_norm": 5.88093572742, 
			 "total_energy": -3328.28881325, 
			 "HOMO_LUMO_gap": 0.15906, 
			 "cosmo_polarized_energy": -7.48, 
			 "cosmo_cavitation_energy": 20.53, 
			 "cosmo_dispersion_energy": -16.19, 
			 "cosmo_repulsion_energy": 1.28, 
			 "cosmo_total_nonelectrostatic_energy": 5.62, 
			 "SMD_solvation_energy": 4.65 
		},
		"coords": [
			{
				"x": 0.3411314265,
				"y": -1.0383071814,
				"z": 2.425408502,
				"element": "O" 
			},
			{
				"x": 0.6475829021,
				"y": 0.0164088374,
				"z": 1.8595891588,
				"element": "N" 
			},
			{
				"x": 1.1973157291,
				"y": 0.9828953994,
				"z": 2.3879807433,
				"element": "O" 
			},
			{
				"x": 0.3291096456,
				"y": 0.1200319556,
				"z": 0.4657745322,
				"element": "C" 
			},
			{
				"x": 0.5756169862,
				"y": 1.1923565018,
				"z": -0.3514634191,
				"element": "C" 
			},
			{
				"x": 0.1295125843,
				"y": 0.9566618607,
				"z": -1.6772069434,
				"element": "C" 
			},
			{
				"x": -0.4387949017,
				"y": -0.2875747302,
				"z": -1.8131201478,
				"element": "C" 
			},
			{
				"x": -1.1598475297,
				"y": -1.0137410141,
				"z": -3.3889371767,
				"element": "Br" 
			},
			{
				"x": -0.4506627565,
				"y": -1.2105361764,
				"z": -0.3402896226,
				"element": "S" 
			},
			{
				"x": 1.0547744807,
				"y": 2.0964213052,
				"z": 0.0015813548,
				"element": "H" 
			},
			{
				"x": 0.2194614332,
				"y": 1.662383242,
				"z": -2.4929169816,
				"element": "H" 
			}
		],
		 "valence_orbital": [ 
			{
				"type": "occ",
				"energy": -0.31792,
				"method": "rhf"
			},
			{
				"type": "occ",
				"energy": -0.31647,
				"method": "rhf"
			},
			{
				"type": "occ",
				"energy": -0.30014,
				"method": "rhf"
			},
			{
				"type": "occ",
				"energy": -0.29347,
				"method": "rhf"
			},
			{
				"type": "occ",
				"energy": -0.2641,
				"method": "rhf"
			},
			{
				"type": "unocc",
				"energy": -0.10504,
				"method": "rhf"
			},
			{
				"type": "unocc",
				"energy": -0.02874,
				"method": "rhf"
			},
			{
				"type": "unocc",
				"energy": -0.02407,
				"method": "rhf"
			},
			{
				"type": "unocc",
				"energy": -0.00434,
				"method": "rhf"
			},
			{
				"type": "unocc",
				"energy": 0.03903,
				"method": "rhf"
			}
		],
		"cosmo_sigma_profile": { 
			"-0.025": 0.0,
			"-0.024": 0.0,
			"-0.023": 0.0,
			"-0.022": 0.0,
			"-0.021": 0.0,
			"-0.02": 0.0,
			"-0.019": 0.0,
			"-0.018": 0.0,
			"-0.017": 0.0,
			"-0.016": 0.0,
			"-0.015": 0.0,
			"-0.014": 0.0,
			"-0.013": 0.0,
			"-0.012": 0.0,
			"-0.011": 0.00674274791922,
			"-0.01": 1.02765588371,
			"-0.009": 3.60936420486,
			"-0.008": 3.26231893878,
			"-0.007": 4.98720493577,
			"-0.006": 6.73430848341,
			"-0.005": 5.46163380116,
			"-0.004": 8.64515959112,
			"-0.003": 11.6699920197,
			"-0.002": 16.8454255886,
			"-0.001": 20.6222079948,
			"0.0": 21.4778839719,
			"0.001": 14.8175102775,
			"0.002": 13.5044376848,
			"0.003": 5.7956721542,
			"0.004": 3.10869433287,
			"0.005": 3.060967732,
			"0.006": 3.69039252684,
			"0.007": 9.45348356307,
			"0.008": 7.35306753262,
			"0.009": 4.35586401461,
			"0.01": 1.95689706278,
			"0.011": 0.0231288160152,
			"0.012": 0.0,
			"0.013": 0.0,
			"0.014": 0.0,
			"0.015": 0.0,
			"0.016": 0.0,
			"0.017": 0.0,
			"0.018": 0.0,
			"0.019": 0.0,
			"0.02": 0.0,
			"0.021": 0.0,
			"0.022": 0.0,
			"0.023": 0.0,
			"0.024": 0.0,
			"0.025": 0.0
		}
	}
}
