{
	 "smiles": "CCCCCCCCCCCCCCCCC1CCCCC1", 
	 "Tm": 306.75, 
	 "num_atms": 66, 
	 "gaussian": { 
		 "optdone": 1, 
		 "sigma_profile": "yes", 
		 "theory": "DFT", 
		 "functional": "B3LYP", 
		 "basiset": "6-31G**", 
		 "properties": { 
			 "R2extent": 10969.6625, 
			 "electric_dipole_moment_norm": 0.0266229224542, 
			 "electric_quadrupole_moment_norm": 0.427754415524, 
			 "total_energy": -864.923684613, 
			 "HOMO_LUMO_gap": 0.34295, 
			 "cosmo_polarized_energy": -1.27, 
			 "cosmo_cavitation_energy": 60.59, 
			 "cosmo_dispersion_energy": -37.19, 
			 "cosmo_repulsion_energy": 2.93, 
			 "cosmo_total_nonelectrostatic_energy": 26.32, 
			 "SMD_solvation_energy": 7.06 
		},
		"coords": [
			{
				"x": 4.3737442162,
				"y": -2.6939237751,
				"z": -0.0323573953,
				"element": "C" 
			},
			{
				"x": 3.4546992041,
				"y": -3.340087535,
				"z": 1.0113544605,
				"element": "C" 
			},
			{
				"x": 2.3054557288,
				"y": -4.1730384497,
				"z": 0.4198247014,
				"element": "C" 
			},
			{
				"x": 1.2614653252,
				"y": -3.3648549403,
				"z": -0.36416864,
				"element": "C" 
			},
			{
				"x": 0.105423776,
				"y": -4.2297870227,
				"z": -0.8868332056,
				"element": "C" 
			},
			{
				"x": -0.9225699913,
				"y": -3.4754587307,
				"z": -1.7490915565,
				"element": "C" 
			},
			{
				"x": -1.7303530643,
				"y": -2.3742477773,
				"z": -1.0367607388,
				"element": "C" 
			},
			{
				"x": -2.6699264358,
				"y": -2.892226951,
				"z": 0.0614643713,
				"element": "C" 
			},
			{
				"x": -3.4914359352,
				"y": -1.8142692464,
				"z": 0.7927489626,
				"element": "C" 
			},
			{
				"x": -4.4870794685,
				"y": -1.0277478686,
				"z": -0.0944536898,
				"element": "C" 
			},
			{
				"x": -3.9943187548,
				"y": 0.3451818575,
				"z": -0.5911218499,
				"element": "C" 
			},
			{
				"x": -3.9771504041,
				"y": 1.4242783777,
				"z": 0.505037457,
				"element": "C" 
			},
			{
				"x": -3.5029814995,
				"y": 2.8227927414,
				"z": 0.0500803027,
				"element": "C" 
			},
			{
				"x": -1.9958633721,
				"y": 3.1095712225,
				"z": 0.1904257799,
				"element": "C" 
			},
			{
				"x": -1.0744347134,
				"y": 2.2762216891,
				"z": -0.7141791443,
				"element": "C" 
			},
			{
				"x": 0.3890585911,
				"y": 2.7513008768,
				"z": -0.8290036375,
				"element": "C" 
			},
			{
				"x": 1.3315295968,
				"y": 2.6134504702,
				"z": 0.3918615352,
				"element": "C" 
			},
			{
				"x": 1.1627617227,
				"y": 3.7046805097,
				"z": 1.4690858759,
				"element": "C" 
			},
			{
				"x": 2.2221140945,
				"y": 3.5728647971,
				"z": 2.5755732395,
				"element": "C" 
			},
			{
				"x": 2.1987428587,
				"y": 2.1747774627,
				"z": 3.2122053635,
				"element": "C" 
			},
			{
				"x": 2.3491318366,
				"y": 1.0746275365,
				"z": 2.1505168069,
				"element": "C" 
			},
			{
				"x": 1.2965442972,
				"y": 1.2155002101,
				"z": 1.0388193669,
				"element": "C" 
			},
			{
				"x": 4.8093259871,
				"y": -3.4504747903,
				"z": -0.69579729,
				"element": "H" 
			},
			{
				"x": 5.1998965547,
				"y": -2.158657958,
				"z": 0.4473522617,
				"element": "H" 
			},
			{
				"x": 3.83803903,
				"y": -1.9739682648,
				"z": -0.6595249174,
				"element": "H" 
			},
			{
				"x": 4.0568897018,
				"y": -3.9863476261,
				"z": 1.6629093292,
				"element": "H" 
			},
			{
				"x": 3.0368627513,
				"y": -2.5596289409,
				"z": 1.6625888931,
				"element": "H" 
			},
			{
				"x": 1.7976654639,
				"y": -4.7040954012,
				"z": 1.2367356939,
				"element": "H" 
			},
			{
				"x": 2.7242466096,
				"y": -4.9531204457,
				"z": -0.2326591472,
				"element": "H" 
			},
			{
				"x": 0.8717896999,
				"y": -2.5675351029,
				"z": 0.2835925933,
				"element": "H" 
			},
			{
				"x": 1.7389672647,
				"y": -2.8598523275,
				"z": -1.2147640075,
				"element": "H" 
			},
			{
				"x": 0.5242857514,
				"y": -5.0477160818,
				"z": -1.4890024286,
				"element": "H" 
			},
			{
				"x": -0.3970143264,
				"y": -4.7146681338,
				"z": -0.0391075977,
				"element": "H" 
			},
			{
				"x": -1.6261958466,
				"y": -4.203914739,
				"z": -2.1752851085,
				"element": "H" 
			},
			{
				"x": -0.3981748732,
				"y": -3.0278966396,
				"z": -2.6045972636,
				"element": "H" 
			},
			{
				"x": -2.3190539971,
				"y": -1.8444612944,
				"z": -1.7957688572,
				"element": "H" 
			},
			{
				"x": -1.0482747019,
				"y": -1.6259640692,
				"z": -0.6103293921,
				"element": "H" 
			},
			{
				"x": -2.0865456589,
				"y": -3.44302696,
				"z": 0.8105379827,
				"element": "H" 
			},
			{
				"x": -3.3608603719,
				"y": -3.6254667937,
				"z": -0.3803409305,
				"element": "H" 
			},
			{
				"x": -2.80605238,
				"y": -1.1164424284,
				"z": 1.2928365878,
				"element": "H" 
			},
			{
				"x": -4.0440255919,
				"y": -2.3108247542,
				"z": 1.5998120522,
				"element": "H" 
			},
			{
				"x": -4.7592724432,
				"y": -1.6486026678,
				"z": -0.9585863886,
				"element": "H" 
			},
			{
				"x": -5.421823215,
				"y": -0.8707175536,
				"z": 0.4602411883,
				"element": "H" 
			},
			{
				"x": -4.6566761806,
				"y": 0.6891347339,
				"z": -1.397472615,
				"element": "H" 
			},
			{
				"x": -3.0009076862,
				"y": 0.2435731644,
				"z": -1.0405537657,
				"element": "H" 
			},
			{
				"x": -3.3606092694,
				"y": 1.0942764938,
				"z": 1.3528108623,
				"element": "H" 
			},
			{
				"x": -4.9987768958,
				"y": 1.5085521661,
				"z": 0.8999108039,
				"element": "H" 
			},
			{
				"x": -3.8127640553,
				"y": 2.9924058882,
				"z": -0.9912753371,
				"element": "H" 
			},
			{
				"x": -4.0333405445,
				"y": 3.5779435646,
				"z": 0.6439335929,
				"element": "H" 
			},
			{
				"x": -1.7168752054,
				"y": 2.9691134251,
				"z": 1.2422888034,
				"element": "H" 
			},
			{
				"x": -1.8283168193,
				"y": 4.1740072478,
				"z": -0.0256649614,
				"element": "H" 
			},
			{
				"x": -1.4948233431,
				"y": 2.2863030158,
				"z": -1.7295876534,
				"element": "H" 
			},
			{
				"x": -1.0921741337,
				"y": 1.2261304504,
				"z": -0.399495813,
				"element": "H" 
			},
			{
				"x": 0.3963143874,
				"y": 3.8010320414,
				"z": -1.156289458,
				"element": "H" 
			},
			{
				"x": 0.8429061317,
				"y": 2.1816347808,
				"z": -1.6514286646,
				"element": "H" 
			},
			{
				"x": 2.3489463589,
				"y": 2.7465279316,
				"z": -0.0111080101,
				"element": "H" 
			},
			{
				"x": 0.1666535809,
				"y": 3.6360800528,
				"z": 1.9233520736,
				"element": "H" 
			},
			{
				"x": 1.2238018582,
				"y": 4.6970775386,
				"z": 1.0040215112,
				"element": "H" 
			},
			{
				"x": 3.217804178,
				"y": 3.7572955688,
				"z": 2.1469621797,
				"element": "H" 
			},
			{
				"x": 2.0668193047,
				"y": 4.3422203925,
				"z": 3.3418196639,
				"element": "H" 
			},
			{
				"x": 1.2451714654,
				"y": 2.0363041054,
				"z": 3.7420457028,
				"element": "H" 
			},
			{
				"x": 2.9894312498,
				"y": 2.0858945918,
				"z": 3.967153893,
				"element": "H" 
			},
			{
				"x": 3.3528477218,
				"y": 1.1365850987,
				"z": 1.7063119999,
				"element": "H" 
			},
			{
				"x": 2.2767886901,
				"y": 0.0840853513,
				"z": 2.6166878798,
				"element": "H" 
			},
			{
				"x": 0.3006582201,
				"y": 1.0346158559,
				"z": 1.4672848444,
				"element": "H" 
			},
			{
				"x": 1.4501879691,
				"y": 0.4427840585,
				"z": 0.2738208487,
				"element": "H" 
			}
		],
		 "valence_orbital": [ 
			{
				"type": "occ",
				"energy": -0.2963,
				"method": "rhf"
			},
			{
				"type": "occ",
				"energy": -0.29395,
				"method": "rhf"
			},
			{
				"type": "occ",
				"energy": -0.28897,
				"method": "rhf"
			},
			{
				"type": "occ",
				"energy": -0.28661,
				"method": "rhf"
			},
			{
				"type": "occ",
				"energy": -0.28408,
				"method": "rhf"
			},
			{
				"type": "unocc",
				"energy": 0.05887,
				"method": "rhf"
			},
			{
				"type": "unocc",
				"energy": 0.07966,
				"method": "rhf"
			},
			{
				"type": "unocc",
				"energy": 0.08738,
				"method": "rhf"
			},
			{
				"type": "unocc",
				"energy": 0.09336,
				"method": "rhf"
			},
			{
				"type": "unocc",
				"energy": 0.09771,
				"method": "rhf"
			}
		],
		"cosmo_sigma_profile": { 
			"-0.025": 0.0,
			"-0.024": 0.0,
			"-0.023": 0.0,
			"-0.022": 0.0,
			"-0.021": 0.0,
			"-0.02": 0.0,
			"-0.019": 0.0,
			"-0.018": 0.0,
			"-0.017": 0.0,
			"-0.016": 0.0,
			"-0.015": 0.0,
			"-0.014": 0.0,
			"-0.013": 0.0,
			"-0.012": 0.0,
			"-0.011": 0.0,
			"-0.01": 0.0,
			"-0.009": 0.0,
			"-0.008": 0.0,
			"-0.007": 0.0,
			"-0.006": 0.0,
			"-0.005": 0.0,
			"-0.004": 0.0,
			"-0.003": 1.73838875038,
			"-0.002": 41.0700019063,
			"-0.001": 121.2733642,
			"0.0": 138.282891077,
			"0.001": 110.468990627,
			"0.002": 47.3585280968,
			"0.003": 0.842743425437,
			"0.004": 0.0,
			"0.005": 0.0,
			"0.006": 0.0,
			"0.007": 0.0,
			"0.008": 0.0,
			"0.009": 0.0,
			"0.01": 0.0,
			"0.011": 0.0,
			"0.012": 0.0,
			"0.013": 0.0,
			"0.014": 0.0,
			"0.015": 0.0,
			"0.016": 0.0,
			"0.017": 0.0,
			"0.018": 0.0,
			"0.019": 0.0,
			"0.02": 0.0,
			"0.021": 0.0,
			"0.022": 0.0,
			"0.023": 0.0,
			"0.024": 0.0,
			"0.025": 0.0
		}
	}
}
