{
	 "smiles": "[O-][N+]1=C(C(=O)C2=CC=C(C=C12)C#N)C1=CC=C(C=C1)C1=[N+]([O-])C2=C(C=CC(=C2)C#N)C1=O", 
	 "Tm": 633.15, 
	 "num_atms": 42, 
	 "gaussian": { 
		 "optdone": 1, 
		 "sigma_profile": "yes", 
		 "theory": "DFT", 
		 "functional": "B3LYP", 
		 "basiset": "6-31G**", 
		 "properties": { 
			 "R2extent": 25068.155, 
			 "electric_dipole_moment_norm": 4.32351535212, 
			 "electric_quadrupole_moment_norm": 23.1449358925, 
			 "total_energy": -1440.3139725, 
			 "HOMO_LUMO_gap": 0.08615, 
			 "cosmo_polarized_energy": -23.54, 
			 "cosmo_cavitation_energy": 51.97, 
			 "cosmo_dispersion_energy": -36.43, 
			 "cosmo_repulsion_energy": 2.57, 
			 "cosmo_total_nonelectrostatic_energy": 18.1, 
			 "SMD_solvation_energy": 13.64 
		},
		"coords": [
			{
				"x": 1.5269589378,
				"y": 3.8514222917,
				"z": -0.6578921984,
				"element": "O" 
			},
			{
				"x": 0.871019499,
				"y": 3.3673380774,
				"z": -1.6174552099,
				"element": "N" 
			},
			{
				"x": 0.4089790402,
				"y": 2.1126814131,
				"z": -1.804892125,
				"element": "C" 
			},
			{
				"x": -0.3049209666,
				"y": 2.0958894127,
				"z": -3.1212666357,
				"element": "C" 
			},
			{
				"x": -0.8663943431,
				"y": 1.1609985652,
				"z": -3.6649207517,
				"element": "O" 
			},
			{
				"x": -0.1982711247,
				"y": 3.4864003614,
				"z": -3.6654328782,
				"element": "C" 
			},
			{
				"x": -0.6548116461,
				"y": 4.0802940966,
				"z": -4.8304351559,
				"element": "C" 
			},
			{
				"x": -0.3686720645,
				"y": 5.4390040607,
				"z": -5.0249675298,
				"element": "C" 
			},
			{
				"x": 0.3579407415,
				"y": 6.1674476188,
				"z": -4.0651074734,
				"element": "C" 
			},
			{
				"x": 0.8231578941,
				"y": 5.5575354855,
				"z": -2.8755906856,
				"element": "C" 
			},
			{
				"x": 0.5158931767,
				"y": 4.2255227095,
				"z": -2.7344783787,
				"element": "C" 
			},
			{
				"x": 0.6325423916,
				"y": 7.5560504637,
				"z": -4.2972712937,
				"element": "C" 
			},
			{
				"x": 0.8536423473,
				"y": 8.6816764243,
				"z": -4.4881065183,
				"element": "N" 
			},
			{
				"x": 0.5890130644,
				"y": 1.0088278509,
				"z": -0.8805877813,
				"element": "C" 
			},
			{
				"x": 0.0525925559,
				"y": -0.2619181728,
				"z": -1.1994512934,
				"element": "C" 
			},
			{
				"x": 0.2052340297,
				"y": -1.3363855863,
				"z": -0.3415762453,
				"element": "C" 
			},
			{
				"x": 0.9026603726,
				"y": -1.1997207003,
				"z": 0.882815032,
				"element": "C" 
			},
			{
				"x": 1.4387986211,
				"y": 0.0690981408,
				"z": 1.2023317515,
				"element": "C" 
			},
			{
				"x": 1.2858361971,
				"y": 1.1464448917,
				"z": 0.34208754,
				"element": "C" 
			},
			{
				"x": 1.0429625978,
				"y": -2.349063556,
				"z": 1.7572088321,
				"element": "C" 
			},
			{
				"x": 1.682630369,
				"y": -2.348348711,
				"z": 2.9461443248,
				"element": "N" 
			},
			{
				"x": 2.2735073665,
				"y": -1.4113604011,
				"z": 3.5447040639,
				"element": "O" 
			},
			{
				"x": 1.6377218384,
				"y": -3.6629880874,
				"z": 3.5626074785,
				"element": "C" 
			},
			{
				"x": 0.9427570313,
				"y": -4.5298324777,
				"z": 2.7327766918,
				"element": "C" 
			},
			{
				"x": 0.7596586799,
				"y": -5.8533235862,
				"z": 3.0977942454,
				"element": "C" 
			},
			{
				"x": 1.298543085,
				"y": -6.2723547766,
				"z": 4.3224724376,
				"element": "C" 
			},
			{
				"x": 1.9999190976,
				"y": -5.3733287793,
				"z": 5.1469425908,
				"element": "C" 
			},
			{
				"x": 2.1852410993,
				"y": -4.0213942989,
				"z": 4.7710485879,
				"element": "C" 
			},
			{
				"x": 2.5377039626,
				"y": -5.8367134889,
				"z": 6.3933718337,
				"element": "C" 
			},
			{
				"x": 2.972659746,
				"y": -6.2151575862,
				"z": 7.4032880447,
				"element": "N" 
			},
			{
				"x": 0.5250164278,
				"y": -3.7363999983,
				"z": 1.5340226464,
				"element": "C" 
			},
			{
				"x": -0.1085091227,
				"y": -4.1632131801,
				"z": 0.5846465313,
				"element": "O" 
			},
			{
				"x": -1.2141751749,
				"y": 3.5099962873,
				"z": -5.5643216953,
				"element": "H" 
			},
			{
				"x": -0.706483123,
				"y": 5.9451626907,
				"z": -5.9225169648,
				"element": "H" 
			},
			{
				"x": 1.3840364962,
				"y": 6.0980533379,
				"z": -2.123323989,
				"element": "H" 
			},
			{
				"x": -0.485097226,
				"y": -0.3939071558,
				"z": -2.1291177041,
				"element": "H" 
			},
			{
				"x": -0.2147778053,
				"y": -2.2968530759,
				"z": -0.6097168156,
				"element": "H" 
			},
			{
				"x": 1.975762864,
				"y": 0.2004807644,
				"z": 2.1306494382,
				"element": "H" 
			},
			{
				"x": 1.7050153598,
				"y": 2.1056717832,
				"z": 0.6095488723,
				"element": "H" 
			},
			{
				"x": 0.2173675937,
				"y": -6.5386111365,
				"z": 2.4551235394,
				"element": "H" 
			},
			{
				"x": 1.1794744963,
				"y": -7.2996839603,
				"z": 4.6485487898,
				"element": "H" 
			},
			{
				"x": 2.721165617,
				"y": -3.311938012,
				"z": 5.3891960509,
				"element": "H" 
			}
		],
		 "valence_orbital": [ 
			{
				"type": "occ",
				"energy": -0.28728,
				"method": "rhf"
			},
			{
				"type": "occ",
				"energy": -0.27953,
				"method": "rhf"
			},
			{
				"type": "occ",
				"energy": -0.26881,
				"method": "rhf"
			},
			{
				"type": "occ",
				"energy": -0.26598,
				"method": "rhf"
			},
			{
				"type": "occ",
				"energy": -0.2246,
				"method": "rhf"
			},
			{
				"type": "unocc",
				"energy": -0.13845,
				"method": "rhf"
			},
			{
				"type": "unocc",
				"energy": -0.13017,
				"method": "rhf"
			},
			{
				"type": "unocc",
				"energy": -0.09146,
				"method": "rhf"
			},
			{
				"type": "unocc",
				"energy": -0.07065,
				"method": "rhf"
			},
			{
				"type": "unocc",
				"energy": -0.04028,
				"method": "rhf"
			}
		],
		"cosmo_sigma_profile": { 
			"-0.025": 0.0,
			"-0.024": 0.0,
			"-0.023": 0.0,
			"-0.022": 0.0,
			"-0.021": 0.0,
			"-0.02": 0.0,
			"-0.019": 0.0,
			"-0.018": 0.0,
			"-0.017": 0.0,
			"-0.016": 0.0,
			"-0.015": 0.0,
			"-0.014": 0.0,
			"-0.013": 0.0,
			"-0.012": 0.0,
			"-0.011": 0.0100058815942,
			"-0.01": 3.49902790493,
			"-0.009": 11.4352297666,
			"-0.008": 17.0064676853,
			"-0.007": 15.3274591967,
			"-0.006": 13.8295571965,
			"-0.005": 21.0603069287,
			"-0.004": 28.7294438756,
			"-0.003": 37.8477209144,
			"-0.002": 46.9175815303,
			"-0.001": 34.1455566285,
			"0.0": 24.3535099013,
			"0.001": 22.8153385872,
			"0.002": 24.9204001893,
			"0.003": 19.5783824862,
			"0.004": 11.1113662172,
			"0.005": 11.3230021647,
			"0.006": 11.5498097538,
			"0.007": 14.1377357712,
			"0.008": 15.6660816677,
			"0.009": 19.9410184212,
			"0.01": 10.5635185535,
			"0.011": 5.68907795566,
			"0.012": 3.68064046939,
			"0.013": 0.417644754334,
			"0.014": 0.0,
			"0.015": 0.0,
			"0.016": 0.0,
			"0.017": 0.0,
			"0.018": 0.0,
			"0.019": 0.0,
			"0.02": 0.0,
			"0.021": 0.0,
			"0.022": 0.0,
			"0.023": 0.0,
			"0.024": 0.0,
			"0.025": 0.0
		}
	}
}
