{
	 "smiles": "FC1=CC=C(C=C1)C1=NC(CCl)=CS1", 
	 "Tm": 328.15, 
	 "num_atms": 21, 
	 "gaussian": { 
		 "optdone": 1, 
		 "sigma_profile": "yes", 
		 "theory": "DFT", 
		 "functional": "B3LYP", 
		 "basiset": "6-31G**", 
		 "properties": { 
			 "R2extent": 5186.638, 
			 "electric_dipole_moment_norm": 2.71954642909, 
			 "electric_quadrupole_moment_norm": 9.56486808848, 
			 "total_energy": -1398.25064681, 
			 "HOMO_LUMO_gap": 0.16765, 
			 "cosmo_polarized_energy": -9.12, 
			 "cosmo_cavitation_energy": 29.72, 
			 "cosmo_dispersion_energy": -22.19, 
			 "cosmo_repulsion_energy": 1.69, 
			 "cosmo_total_nonelectrostatic_energy": 9.22, 
			 "SMD_solvation_energy": 3.82 
		},
		"coords": [
			{
				"x": 1.3385963697,
				"y": -3.3908741803,
				"z": 3.9596265353,
				"element": "F" 
			},
			{
				"x": 1.3553156532,
				"y": -2.5626966601,
				"z": 2.8977123489,
				"element": "C" 
			},
			{
				"x": 2.2370747987,
				"y": -1.4870506287,
				"z": 2.8956754128,
				"element": "C" 
			},
			{
				"x": 2.2498759063,
				"y": -0.6351171437,
				"z": 1.7948831322,
				"element": "C" 
			},
			{
				"x": 1.3908215107,
				"y": -0.8517278358,
				"z": 0.7051535109,
				"element": "C" 
			},
			{
				"x": 0.5114883173,
				"y": -1.9498020878,
				"z": 0.7413585318,
				"element": "C" 
			},
			{
				"x": 0.4904409845,
				"y": -2.8079562107,
				"z": 1.8349465705,
				"element": "C" 
			},
			{
				"x": 1.3778243882,
				"y": 0.0278348379,
				"z": -0.469982298,
				"element": "C" 
			},
			{
				"x": 0.6397501825,
				"y": -0.175695378,
				"z": -1.5274779579,
				"element": "N" 
			},
			{
				"x": 0.8211176792,
				"y": 0.7986646532,
				"z": -2.4801310107,
				"element": "C" 
			},
			{
				"x": 0.0584535808,
				"y": 0.7256098253,
				"z": -3.7591581579,
				"element": "C" 
			},
			{
				"x": -1.6572545795,
				"y": 1.3485559288,
				"z": -3.5873400188,
				"element": "Cl" 
			},
			{
				"x": 1.7227401378,
				"y": 1.7767359683,
				"z": -2.1544104376,
				"element": "C" 
			},
			{
				"x": 2.3815427133,
				"y": 1.4845989795,
				"z": -0.5836329559,
				"element": "S" 
			},
			{
				"x": 2.8955888315,
				"y": -1.3309922484,
				"z": 3.7428395919,
				"element": "H" 
			},
			{
				"x": 2.940763769,
				"y": 0.2030972832,
				"z": 1.7901601556,
				"element": "H" 
			},
			{
				"x": -0.1515762363,
				"y": -2.1124498468,
				"z": -0.1006412743,
				"element": "H" 
			},
			{
				"x": -0.1827598356,
				"y": -3.6572027639,
				"z": 1.8771744904,
				"element": "H" 
			},
			{
				"x": 0.5193627167,
				"y": 1.330176972,
				"z": -4.5393149516,
				"element": "H" 
			},
			{
				"x": -0.0386398301,
				"y": -0.3067694463,
				"z": -4.0936044206,
				"element": "H" 
			},
			{
				"x": 2.0201729422,
				"y": 2.6371599823,
				"z": -2.7369367968,
				"element": "H" 
			}
		],
		 "valence_orbital": [ 
			{
				"type": "occ",
				"energy": -0.29279,
				"method": "rhf"
			},
			{
				"type": "occ",
				"energy": -0.28492,
				"method": "rhf"
			},
			{
				"type": "occ",
				"energy": -0.27953,
				"method": "rhf"
			},
			{
				"type": "occ",
				"energy": -0.27128,
				"method": "rhf"
			},
			{
				"type": "occ",
				"energy": -0.22863,
				"method": "rhf"
			},
			{
				"type": "unocc",
				"energy": -0.06098,
				"method": "rhf"
			},
			{
				"type": "unocc",
				"energy": -0.02275,
				"method": "rhf"
			},
			{
				"type": "unocc",
				"energy": -0.01398,
				"method": "rhf"
			},
			{
				"type": "unocc",
				"energy": 0.00833,
				"method": "rhf"
			},
			{
				"type": "unocc",
				"energy": 0.03616,
				"method": "rhf"
			}
		],
		"cosmo_sigma_profile": { 
			"-0.025": 0.0,
			"-0.024": 0.0,
			"-0.023": 0.0,
			"-0.022": 0.0,
			"-0.021": 0.0,
			"-0.02": 0.0,
			"-0.019": 0.0,
			"-0.018": 0.0,
			"-0.017": 0.0,
			"-0.016": 0.0,
			"-0.015": 0.0,
			"-0.014": 0.0,
			"-0.013": 0.0,
			"-0.012": 0.0,
			"-0.011": 0.0,
			"-0.01": 1.15681779452,
			"-0.009": 3.25757876643,
			"-0.008": 7.76704102728,
			"-0.007": 12.2358737509,
			"-0.006": 11.1111984205,
			"-0.005": 13.2517597092,
			"-0.004": 11.18918068,
			"-0.003": 9.90734869138,
			"-0.002": 10.0217455491,
			"-0.001": 14.4640359347,
			"0.0": 22.7427682806,
			"0.001": 25.9922302929,
			"0.002": 27.7200622881,
			"0.003": 23.6975889356,
			"0.004": 17.1634299552,
			"0.005": 7.77090234502,
			"0.006": 11.9187572611,
			"0.007": 8.25948510863,
			"0.008": 1.27891491153,
			"0.009": 1.58223530447,
			"0.01": 1.11310098088,
			"0.011": 0.303796339127,
			"0.012": 0.0,
			"0.013": 0.0,
			"0.014": 0.0,
			"0.015": 0.0,
			"0.016": 0.0,
			"0.017": 0.0,
			"0.018": 0.0,
			"0.019": 0.0,
			"0.02": 0.0,
			"0.021": 0.0,
			"0.022": 0.0,
			"0.023": 0.0,
			"0.024": 0.0,
			"0.025": 0.0
		}
	}
}
