{
	 "smiles": "NC1=CC=CC=C1OCC1=CC=CC=C1", 
	 "Tm": 310.15, 
	 "num_atms": 28, 
	 "gaussian": { 
		 "optdone": 1, 
		 "sigma_profile": "yes", 
		 "theory": "DFT", 
		 "functional": "B3LYP", 
		 "basiset": "6-31G**", 
		 "properties": { 
			 "R2extent": 3838.424, 
			 "electric_dipole_moment_norm": 1.5507408552, 
			 "electric_quadrupole_moment_norm": 8.13171558406, 
			 "total_energy": -633.187129688, 
			 "HOMO_LUMO_gap": 0.18183, 
			 "cosmo_polarized_energy": -10.13, 
			 "cosmo_cavitation_energy": 31.36, 
			 "cosmo_dispersion_energy": -22.56, 
			 "cosmo_repulsion_energy": 1.78, 
			 "cosmo_total_nonelectrostatic_energy": 10.59, 
			 "SMD_solvation_energy": 5.29 
		},
		"coords": [
			{
				"x": 2.3520119133,
				"y": 0.2292290996,
				"z": -3.1338350833,
				"element": "N" 
			},
			{
				"x": 2.5036445022,
				"y": 0.197098613,
				"z": -1.7463166908,
				"element": "C" 
			},
			{
				"x": 3.7512678709,
				"y": 0.0485084112,
				"z": -1.1317825886,
				"element": "C" 
			},
			{
				"x": 3.86329943,
				"y": -0.0357410924,
				"z": 0.2582246322,
				"element": "C" 
			},
			{
				"x": 2.7243009334,
				"y": 0.0236276996,
				"z": 1.0556378792,
				"element": "C" 
			},
			{
				"x": 1.4648145225,
				"y": 0.1738721302,
				"z": 0.4610807542,
				"element": "C" 
			},
			{
				"x": 1.3546565857,
				"y": 0.2671943599,
				"z": -0.9234276783,
				"element": "C" 
			},
			{
				"x": 0.1757691926,
				"y": 0.4437125077,
				"z": -1.620947625,
				"element": "O" 
			},
			{
				"x": -1.0216075827,
				"y": 0.7118761754,
				"z": -0.900359755,
				"element": "C" 
			},
			{
				"x": -1.6725650997,
				"y": -0.5180150713,
				"z": -0.2947313393,
				"element": "C" 
			},
			{
				"x": -1.5067440357,
				"y": -1.7788271421,
				"z": -0.8785144902,
				"element": "C" 
			},
			{
				"x": -2.1547721106,
				"y": -2.8929100215,
				"z": -0.3442509435,
				"element": "C" 
			},
			{
				"x": -2.9816318971,
				"y": -2.7583803397,
				"z": 0.7731677157,
				"element": "C" 
			},
			{
				"x": -3.1526119501,
				"y": -1.502765213,
				"z": 1.358747531,
				"element": "C" 
			},
			{
				"x": -2.4971812244,
				"y": -0.3900352541,
				"z": 0.8290885972,
				"element": "C" 
			},
			{
				"x": 3.1537787849,
				"y": 0.5827338356,
				"z": -3.637293864,
				"element": "H" 
			},
			{
				"x": 1.484085866,
				"y": 0.6513792163,
				"z": -3.434879373,
				"element": "H" 
			},
			{
				"x": 4.6395949304,
				"y": -0.0042607223,
				"z": -1.7568382506,
				"element": "H" 
			},
			{
				"x": 4.844133381,
				"y": -0.1511910425,
				"z": 0.7099559394,
				"element": "H" 
			},
			{
				"x": 2.8002261869,
				"y": -0.0510081257,
				"z": 2.1358650917,
				"element": "H" 
			},
			{
				"x": 0.5770163263,
				"y": 0.1986529846,
				"z": 1.0817897665,
				"element": "H" 
			},
			{
				"x": -1.690905065,
				"y": 1.1551992189,
				"z": -1.6468531047,
				"element": "H" 
			},
			{
				"x": -0.842022442,
				"y": 1.4729031848,
				"z": -0.1289264514,
				"element": "H" 
			},
			{
				"x": -0.859021601,
				"y": -1.8804869106,
				"z": -1.7435291144,
				"element": "H" 
			},
			{
				"x": -2.0130151359,
				"y": -3.8682482094,
				"z": -0.8013153497,
				"element": "H" 
			},
			{
				"x": -3.4853490752,
				"y": -3.6268692624,
				"z": 1.1877126876,
				"element": "H" 
			},
			{
				"x": -3.7883941121,
				"y": -1.3899772145,
				"z": 2.2324355625,
				"element": "H" 
			},
			{
				"x": -2.6267790948,
				"y": 0.5848281849,
				"z": 1.2946955445,
				"element": "H" 
			}
		],
		 "valence_orbital": [ 
			{
				"type": "occ",
				"energy": -0.29791,
				"method": "rhf"
			},
			{
				"type": "occ",
				"energy": -0.25,
				"method": "rhf"
			},
			{
				"type": "occ",
				"energy": -0.2444,
				"method": "rhf"
			},
			{
				"type": "occ",
				"energy": -0.2233,
				"method": "rhf"
			},
			{
				"type": "occ",
				"energy": -0.18602,
				"method": "rhf"
			},
			{
				"type": "unocc",
				"energy": -0.00419,
				"method": "rhf"
			},
			{
				"type": "unocc",
				"energy": -0.00229,
				"method": "rhf"
			},
			{
				"type": "unocc",
				"energy": 0.01813,
				"method": "rhf"
			},
			{
				"type": "unocc",
				"energy": 0.02946,
				"method": "rhf"
			},
			{
				"type": "unocc",
				"energy": 0.09059,
				"method": "rhf"
			}
		],
		"cosmo_sigma_profile": { 
			"-0.025": 0.0,
			"-0.024": 0.0,
			"-0.023": 0.0,
			"-0.022": 0.0,
			"-0.021": 0.0,
			"-0.02": 0.0,
			"-0.019": 0.0,
			"-0.018": 0.0,
			"-0.017": 0.0,
			"-0.016": 0.0,
			"-0.015": 0.0,
			"-0.014": 0.0,
			"-0.013": 0.0582882234653,
			"-0.012": 1.11488347924,
			"-0.011": 1.40262598868,
			"-0.01": 2.12653126286,
			"-0.009": 2.35267261654,
			"-0.008": 2.48129692906,
			"-0.007": 2.64142473155,
			"-0.006": 11.7903014409,
			"-0.005": 21.0310180761,
			"-0.004": 23.522468226,
			"-0.003": 21.467522307,
			"-0.002": 17.8447983752,
			"-0.001": 15.207423516,
			"0.0": 14.1811297843,
			"0.001": 13.3697975027,
			"0.002": 13.6789302804,
			"0.003": 16.9281763762,
			"0.004": 16.592348802,
			"0.005": 18.5705000382,
			"0.006": 16.1483675249,
			"0.007": 9.1201259483,
			"0.008": 2.89940339879,
			"0.009": 1.39376208043,
			"0.01": 0.347010077981,
			"0.011": 0.66682956249,
			"0.012": 1.08726933579,
			"0.013": 0.383278247698,
			"0.014": 0.751944596723,
			"0.015": 0.516397464769,
			"0.016": 0.00941753765188,
			"0.017": 0.0,
			"0.018": 0.0,
			"0.019": 0.0,
			"0.02": 0.0,
			"0.021": 0.0,
			"0.022": 0.0,
			"0.023": 0.0,
			"0.024": 0.0,
			"0.025": 0.0
		}
	}
}
