{
	 "smiles": "FC1=CC=C(C#N)C2=CC=CC=C12", 
	 "Tm": 363.15, 
	 "num_atms": 19, 
	 "gaussian": { 
		 "optdone": 1, 
		 "sigma_profile": "yes", 
		 "theory": "DFT", 
		 "functional": "B3LYP", 
		 "basiset": "6-31G**", 
		 "properties": { 
			 "R2extent": 2188.3844, 
			 "electric_dipole_moment_norm": 3.49179327853, 
			 "electric_quadrupole_moment_norm": 19.6104366606, 
			 "total_energy": -577.367904841, 
			 "HOMO_LUMO_gap": 0.16337, 
			 "cosmo_polarized_energy": -8.28, 
			 "cosmo_cavitation_energy": 24.66, 
			 "cosmo_dispersion_energy": -17.68, 
			 "cosmo_repulsion_energy": 1.34, 
			 "cosmo_total_nonelectrostatic_energy": 8.32, 
			 "SMD_solvation_energy": 5.7 
		},
		"coords": [
			{
				"x": -1.7632813741,
				"y": -1.2438594547,
				"z": -2.1464679026,
				"element": "F" 
			},
			{
				"x": -1.1808299775,
				"y": -1.0498080916,
				"z": -0.9479195819,
				"element": "C" 
			},
			{
				"x": -1.3675541522,
				"y": -1.9780637794,
				"z": 0.0461112863,
				"element": "C" 
			},
			{
				"x": -0.7543029851,
				"y": -1.7664903835,
				"z": 1.2963729341,
				"element": "C" 
			},
			{
				"x": 0.0256695345,
				"y": -0.6420136077,
				"z": 1.5252151355,
				"element": "C" 
			},
			{
				"x": 0.6355193901,
				"y": -0.4556942013,
				"z": 2.8069261263,
				"element": "C" 
			},
			{
				"x": 1.1357501454,
				"y": -0.2952778482,
				"z": 3.8457144182,
				"element": "N" 
			},
			{
				"x": 0.2254280034,
				"y": 0.3331412719,
				"z": 0.4902715481,
				"element": "C" 
			},
			{
				"x": 1.0121032947,
				"y": 1.4999525649,
				"z": 0.6690603575,
				"element": "C" 
			},
			{
				"x": 1.1697386007,
				"y": 2.4027688989,
				"z": -0.3597742462,
				"element": "C" 
			},
			{
				"x": 0.5513843484,
				"y": 2.1857149085,
				"z": -1.6143318357,
				"element": "C" 
			},
			{
				"x": -0.2190400348,
				"y": 1.0645660295,
				"z": -1.8236523694,
				"element": "C" 
			},
			{
				"x": -0.3968875615,
				"y": 0.1197224291,
				"z": -0.7803871879,
				"element": "C" 
			},
			{
				"x": -1.9783985723,
				"y": -2.853356547,
				"z": -0.1417384438,
				"element": "H" 
			},
			{
				"x": -0.8929528573,
				"y": -2.4913134464,
				"z": 2.091108824,
				"element": "H" 
			},
			{
				"x": 1.4877857057,
				"y": 1.6696923456,
				"z": 1.6298279974,
				"element": "H" 
			},
			{
				"x": 1.7750612222,
				"y": 3.2912388064,
				"z": -0.2073338416,
				"element": "H" 
			},
			{
				"x": 0.6871543479,
				"y": 2.9084343512,
				"z": -2.4130667421,
				"element": "H" 
			},
			{
				"x": -0.6988470782,
				"y": 0.8848457539,
				"z": -2.7790364761,
				"element": "H" 
			}
		],
		 "valence_orbital": [ 
			{
				"type": "occ",
				"energy": -0.33524,
				"method": "rhf"
			},
			{
				"type": "occ",
				"energy": -0.3319,
				"method": "rhf"
			},
			{
				"type": "occ",
				"energy": -0.29292,
				"method": "rhf"
			},
			{
				"type": "occ",
				"energy": -0.27088,
				"method": "rhf"
			},
			{
				"type": "occ",
				"energy": -0.2351,
				"method": "rhf"
			},
			{
				"type": "unocc",
				"energy": -0.07173,
				"method": "rhf"
			},
			{
				"type": "unocc",
				"energy": -0.03511,
				"method": "rhf"
			},
			{
				"type": "unocc",
				"energy": -0.00832,
				"method": "rhf"
			},
			{
				"type": "unocc",
				"energy": 0.03278,
				"method": "rhf"
			},
			{
				"type": "unocc",
				"energy": 0.06619,
				"method": "rhf"
			}
		],
		"cosmo_sigma_profile": { 
			"-0.025": 0.0,
			"-0.024": 0.0,
			"-0.023": 0.0,
			"-0.022": 0.0,
			"-0.021": 0.0,
			"-0.02": 0.0,
			"-0.019": 0.0,
			"-0.018": 0.0,
			"-0.017": 0.0,
			"-0.016": 0.0,
			"-0.015": 0.0,
			"-0.014": 0.0,
			"-0.013": 0.0,
			"-0.012": 0.0,
			"-0.011": 0.0,
			"-0.01": 0.0,
			"-0.009": 1.05575803521,
			"-0.008": 4.49302694955,
			"-0.007": 7.62438318832,
			"-0.006": 11.3212342604,
			"-0.005": 12.2963203979,
			"-0.004": 10.536645736,
			"-0.003": 9.78631071015,
			"-0.002": 13.8423006349,
			"-0.001": 21.7640809224,
			"0.0": 22.38149244,
			"0.001": 20.0966452221,
			"0.002": 16.0928053691,
			"0.003": 18.5245270879,
			"0.004": 7.82597983331,
			"0.005": 1.75545636425,
			"0.006": 2.29835106146,
			"0.007": 2.70058282908,
			"0.008": 2.87242357156,
			"0.009": 3.32143778082,
			"0.01": 3.05638854868,
			"0.011": 2.8583445002,
			"0.012": 2.43798120842,
			"0.013": 1.62871126149,
			"0.014": 0.0621911527105,
			"0.015": 0.0,
			"0.016": 0.0,
			"0.017": 0.0,
			"0.018": 0.0,
			"0.019": 0.0,
			"0.02": 0.0,
			"0.021": 0.0,
			"0.022": 0.0,
			"0.023": 0.0,
			"0.024": 0.0,
			"0.025": 0.0
		}
	}
}
