{
	 "smiles": "OC(=O)CSCC1=NC=CC=C1", 
	 "Tm": 410.15, 
	 "num_atms": 21, 
	 "gaussian": { 
		 "optdone": 1, 
		 "sigma_profile": "yes", 
		 "theory": "DFT", 
		 "functional": "B3LYP", 
		 "basiset": "6-31G**", 
		 "properties": { 
			 "R2extent": 3431.8886, 
			 "electric_dipole_moment_norm": 2.35489119494, 
			 "electric_quadrupole_moment_norm": 13.6560718155, 
			 "total_energy": -913.669804381, 
			 "HOMO_LUMO_gap": 0.20356, 
			 "cosmo_polarized_energy": -13.23, 
			 "cosmo_cavitation_energy": 27.03, 
			 "cosmo_dispersion_energy": -19.77, 
			 "cosmo_repulsion_energy": 1.55, 
			 "cosmo_total_nonelectrostatic_energy": 8.81, 
			 "SMD_solvation_energy": 3.92 
		},
		"coords": [
			{
				"x": 3.3361792601,
				"y": 0.2776447627,
				"z": 2.8735248165,
				"element": "O" 
			},
			{
				"x": 3.0209553548,
				"y": -0.3634331768,
				"z": 1.7296888186,
				"element": "C" 
			},
			{
				"x": 2.8705819204,
				"y": 0.2134094854,
				"z": 0.6699449509,
				"element": "O" 
			},
			{
				"x": 2.8477102251,
				"y": -1.8497219984,
				"z": 1.9335394712,
				"element": "C" 
			},
			{
				"x": 1.0687445695,
				"y": -2.2932567234,
				"z": 2.1058994042,
				"element": "S" 
			},
			{
				"x": 0.4595708209,
				"y": -1.986845273,
				"z": 0.372454669,
				"element": "C" 
			},
			{
				"x": -0.7523952065,
				"y": -1.0906058679,
				"z": 0.3558649426,
				"element": "C" 
			},
			{
				"x": -1.9426157525,
				"y": -1.7040221861,
				"z": 0.4470999114,
				"element": "N" 
			},
			{
				"x": -3.0418514029,
				"y": -0.9400010776,
				"z": 0.4441455107,
				"element": "C" 
			},
			{
				"x": -3.0174733262,
				"y": 0.4507970142,
				"z": 0.3452357245,
				"element": "C" 
			},
			{
				"x": -1.776600382,
				"y": 1.0818275625,
				"z": 0.2475576453,
				"element": "C" 
			},
			{
				"x": -0.6233621897,
				"y": 0.3022395131,
				"z": 0.2560713993,
				"element": "C" 
			},
			{
				"x": 3.3782982212,
				"y": 1.2246906764,
				"z": 2.6568697516,
				"element": "H" 
			},
			{
				"x": 3.3231476405,
				"y": -2.1729363335,
				"z": 2.8609109584,
				"element": "H" 
			},
			{
				"x": 3.2876623338,
				"y": -2.3847715944,
				"z": 1.0896036406,
				"element": "H" 
			},
			{
				"x": 0.2015733856,
				"y": -2.9549041586,
				"z": -0.0595250466,
				"element": "H" 
			},
			{
				"x": 1.2857618136,
				"y": -1.5351994097,
				"z": -0.1785221013,
				"element": "H" 
			},
			{
				"x": -3.9900999416,
				"y": -1.4697398248,
				"z": 0.5203926741,
				"element": "H" 
			},
			{
				"x": -3.9428408613,
				"y": 1.0181275836,
				"z": 0.3425481276,
				"element": "H" 
			},
			{
				"x": -1.7094029933,
				"y": 2.1629934311,
				"z": 0.1639892922,
				"element": "H" 
			},
			{
				"x": 0.3635565105,
				"y": 0.7492075952,
				"z": 0.187705439,
				"element": "H" 
			}
		],
		 "valence_orbital": [ 
			{
				"type": "occ",
				"energy": -0.2899,
				"method": "rhf"
			},
			{
				"type": "occ",
				"energy": -0.28301,
				"method": "rhf"
			},
			{
				"type": "occ",
				"energy": -0.25574,
				"method": "rhf"
			},
			{
				"type": "occ",
				"energy": -0.25302,
				"method": "rhf"
			},
			{
				"type": "occ",
				"energy": -0.22817,
				"method": "rhf"
			},
			{
				"type": "unocc",
				"energy": -0.02461,
				"method": "rhf"
			},
			{
				"type": "unocc",
				"energy": -0.02138,
				"method": "rhf"
			},
			{
				"type": "unocc",
				"energy": -0.01233,
				"method": "rhf"
			},
			{
				"type": "unocc",
				"energy": 0.04364,
				"method": "rhf"
			},
			{
				"type": "unocc",
				"energy": 0.06703,
				"method": "rhf"
			}
		],
		"cosmo_sigma_profile": { 
			"-0.025": 0.0,
			"-0.024": 0.0,
			"-0.023": 0.0,
			"-0.022": 0.0,
			"-0.021": 0.0,
			"-0.02": 0.0,
			"-0.019": 0.144601258403,
			"-0.018": 0.95218871266,
			"-0.017": 1.00599064298,
			"-0.016": 0.509309347645,
			"-0.015": 0.782376019809,
			"-0.014": 1.24138902398,
			"-0.013": 0.492618533975,
			"-0.012": 0.511854406493,
			"-0.011": 1.15962715373,
			"-0.01": 0.693966353208,
			"-0.009": 0.384784431391,
			"-0.008": 3.77257957772,
			"-0.007": 9.18970280902,
			"-0.006": 13.7696720047,
			"-0.005": 15.9649288045,
			"-0.004": 13.2312428526,
			"-0.003": 13.7568656819,
			"-0.002": 12.7526423339,
			"-0.001": 13.0022787866,
			"0.0": 12.122242924,
			"0.001": 11.9763693739,
			"0.002": 16.4261985756,
			"0.003": 18.3992948247,
			"0.004": 11.0910879047,
			"0.005": 8.29959734005,
			"0.006": 6.47355177334,
			"0.007": 6.56058951611,
			"0.008": 6.04688938964,
			"0.009": 5.46138047463,
			"0.01": 2.53590118928,
			"0.011": 4.2979028359,
			"0.012": 1.8043316746,
			"0.013": 0.554700526703,
			"0.014": 0.928247791795,
			"0.015": 0.47848195384,
			"0.016": 0.512388879945,
			"0.017": 0.0,
			"0.018": 0.0,
			"0.019": 0.0,
			"0.02": 0.0,
			"0.021": 0.0,
			"0.022": 0.0,
			"0.023": 0.0,
			"0.024": 0.0,
			"0.025": 0.0
		}
	}
}
