{
	 "smiles": "CC(C)(C)OC(=O)N[C@H](CC(O)=O)CC1=CC=NC=C1", 
	 "Tm": 414.65, 
	 "num_atms": 40, 
	 "gaussian": { 
		 "optdone": 1, 
		 "sigma_profile": "yes", 
		 "theory": "DFT", 
		 "functional": "B3LYP", 
		 "basiset": "6-31G**", 
		 "properties": { 
			 "R2extent": 5152.0862, 
			 "electric_dipole_moment_norm": 4.16620936224, 
			 "electric_quadrupole_moment_norm": 11.8468648262, 
			 "total_energy": -955.991429656, 
			 "HOMO_LUMO_gap": 0.22273, 
			 "cosmo_polarized_energy": -20.96, 
			 "cosmo_cavitation_energy": 41.86, 
			 "cosmo_dispersion_energy": -26.42, 
			 "cosmo_repulsion_energy": 2.01, 
			 "cosmo_total_nonelectrostatic_energy": 17.44, 
			 "SMD_solvation_energy": 6.72 
		},
		"coords": [
			{
				"x": -0.5607004778,
				"y": 3.0825512992,
				"z": -0.2122413257,
				"element": "C" 
			},
			{
				"x": 0.3139226503,
				"y": 2.1714444714,
				"z": 0.6528855512,
				"element": "C" 
			},
			{
				"x": 1.776191474,
				"y": 2.217436151,
				"z": 0.2030007549,
				"element": "C" 
			},
			{
				"x": 0.1987568208,
				"y": 2.4893457116,
				"z": 2.1470162983,
				"element": "C" 
			},
			{
				"x": -0.0460215908,
				"y": 0.7563393399,
				"z": 0.41397851,
				"element": "O" 
			},
			{
				"x": -1.2477729617,
				"y": 0.275257874,
				"z": 0.7803179189,
				"element": "C" 
			},
			{
				"x": -2.2022813544,
				"y": 0.9255612455,
				"z": 1.1760774288,
				"element": "O" 
			},
			{
				"x": -1.3058420234,
				"y": -1.0995132445,
				"z": 0.6876667434,
				"element": "N" 
			},
			{
				"x": -0.3643094302,
				"y": -2.0973930322,
				"z": 0.1774911956,
				"element": "C" 
			},
			{
				"x": 1.1027606334,
				"y": -1.846631102,
				"z": 0.5752430788,
				"element": "C" 
			},
			{
				"x": 1.3126248058,
				"y": -1.660626559,
				"z": 2.0631397813,
				"element": "C" 
			},
			{
				"x": 0.7274558706,
				"y": -2.6482418357,
				"z": 2.7858376993,
				"element": "O" 
			},
			{
				"x": 1.9501700084,
				"y": -0.7708683064,
				"z": 2.581803756,
				"element": "O" 
			},
			{
				"x": -0.5259532468,
				"y": -2.3721611567,
				"z": -1.3484017118,
				"element": "C" 
			},
			{
				"x": -0.2214123114,
				"y": -1.2207008834,
				"z": -2.277048284,
				"element": "C" 
			},
			{
				"x": -1.2138890564,
				"y": -0.3096631627,
				"z": -2.6565033791,
				"element": "C" 
			},
			{
				"x": -0.8872306705,
				"y": 0.7415499077,
				"z": -3.5130331064,
				"element": "C" 
			},
			{
				"x": 0.3389735058,
				"y": 0.9447195168,
				"z": -4.0125022808,
				"element": "N" 
			},
			{
				"x": 1.284646851,
				"y": 0.0659082226,
				"z": -3.6565617313,
				"element": "C" 
			},
			{
				"x": 1.0580469256,
				"y": -1.0185898017,
				"z": -2.8088356829,
				"element": "C" 
			},
			{
				"x": -0.2250099973,
				"y": 4.1192699825,
				"z": -0.1040515214,
				"element": "H" 
			},
			{
				"x": -1.6065822921,
				"y": 3.0167769082,
				"z": 0.0890048606,
				"element": "H" 
			},
			{
				"x": -0.4729375734,
				"y": 2.8053425385,
				"z": -1.266897789,
				"element": "H" 
			},
			{
				"x": 2.3794032948,
				"y": 1.5330200367,
				"z": 0.8061187502,
				"element": "H" 
			},
			{
				"x": 2.1710776656,
				"y": 3.2307787532,
				"z": 0.3231409184,
				"element": "H" 
			},
			{
				"x": 1.8646334702,
				"y": 1.9362522044,
				"z": -0.8506327788,
				"element": "H" 
			},
			{
				"x": 0.5938346655,
				"y": 3.493036539,
				"z": 2.3351393514,
				"element": "H" 
			},
			{
				"x": -0.8399026103,
				"y": 2.4543653307,
				"z": 2.4774245969,
				"element": "H" 
			},
			{
				"x": 0.7875164319,
				"y": 1.7737459796,
				"z": 2.728292791,
				"element": "H" 
			},
			{
				"x": -2.2239034475,
				"y": -1.4379855137,
				"z": 0.9353789746,
				"element": "H" 
			},
			{
				"x": -0.6596088207,
				"y": -3.027278825,
				"z": 0.674894904,
				"element": "H" 
			},
			{
				"x": 1.5181422082,
				"y": -0.9774584153,
				"z": 0.0724844628,
				"element": "H" 
			},
			{
				"x": 1.6769916683,
				"y": -2.7324293542,
				"z": 0.275119832,
				"element": "H" 
			},
			{
				"x": 0.9155282121,
				"y": -2.4482103214,
				"z": 3.7183217797,
				"element": "H" 
			},
			{
				"x": 0.1144389465,
				"y": -3.2267243278,
				"z": -1.5992593938,
				"element": "H" 
			},
			{
				"x": -1.5602163201,
				"y": -2.6971804759,
				"z": -1.5084235553,
				"element": "H" 
			},
			{
				"x": -2.2310445472,
				"y": -0.4145402291,
				"z": -2.2905841533,
				"element": "H" 
			},
			{
				"x": -1.6522992483,
				"y": 1.4544806263,
				"z": -3.8160721549,
				"element": "H" 
			},
			{
				"x": 2.2757901745,
				"y": 0.2319642441,
				"z": -4.0759513997,
				"element": "H" 
			},
			{
				"x": 1.8709116973,
				"y": -1.7010503361,
				"z": -2.5755796903,
				"element": "H" 
			}
		],
		 "valence_orbital": [ 
			{
				"type": "occ",
				"energy": -0.27802,
				"method": "rhf"
			},
			{
				"type": "occ",
				"energy": -0.26285,
				"method": "rhf"
			},
			{
				"type": "occ",
				"energy": -0.25963,
				"method": "rhf"
			},
			{
				"type": "occ",
				"energy": -0.25583,
				"method": "rhf"
			},
			{
				"type": "occ",
				"energy": -0.25022,
				"method": "rhf"
			},
			{
				"type": "unocc",
				"energy": -0.02749,
				"method": "rhf"
			},
			{
				"type": "unocc",
				"energy": -0.01398,
				"method": "rhf"
			},
			{
				"type": "unocc",
				"energy": -0.00026,
				"method": "rhf"
			},
			{
				"type": "unocc",
				"energy": 0.05464,
				"method": "rhf"
			},
			{
				"type": "unocc",
				"energy": 0.05979,
				"method": "rhf"
			}
		],
		"cosmo_sigma_profile": { 
			"-0.025": 0.0,
			"-0.024": 0.0,
			"-0.023": 0.0,
			"-0.022": 0.0,
			"-0.021": 0.0,
			"-0.02": 0.0,
			"-0.019": 0.0694297149292,
			"-0.018": 0.625435020234,
			"-0.017": 1.41165959338,
			"-0.016": 0.219159618199,
			"-0.015": 0.794032987621,
			"-0.014": 1.03898437171,
			"-0.013": 1.97050647816,
			"-0.012": 2.04686542745,
			"-0.011": 1.84241695465,
			"-0.01": 1.81086992108,
			"-0.009": 1.79306990014,
			"-0.008": 1.75381433572,
			"-0.007": 8.01418194056,
			"-0.006": 18.6582216031,
			"-0.005": 20.5803219695,
			"-0.004": 22.3880987425,
			"-0.003": 20.3222697535,
			"-0.002": 21.3823150655,
			"-0.001": 28.9029409551,
			"0.0": 38.260803858,
			"0.001": 30.8802701223,
			"0.002": 19.1049279191,
			"0.003": 14.8029241721,
			"0.004": 10.3355908945,
			"0.005": 11.2103301038,
			"0.006": 7.96349178026,
			"0.007": 5.84814384073,
			"0.008": 6.12908130063,
			"0.009": 4.15486205363,
			"0.01": 4.08604501618,
			"0.011": 5.03643576646,
			"0.012": 4.13486381172,
			"0.013": 4.04554602993,
			"0.014": 3.74789832774,
			"0.015": 0.930869915704,
			"0.016": 0.766575828701,
			"0.017": 0.589685461902,
			"0.018": 0.0512159936635,
			"0.019": 0.0,
			"0.02": 0.0,
			"0.021": 0.0,
			"0.022": 0.0,
			"0.023": 0.0,
			"0.024": 0.0,
			"0.025": 0.0
		}
	}
}
