{
	 "smiles": "FC(F)(F)C1=NC=C2C=CC=CC2=C1", 
	 "Tm": 304.15, 
	 "num_atms": 20, 
	 "gaussian": { 
		 "optdone": 1, 
		 "sigma_profile": "yes", 
		 "theory": "DFT", 
		 "functional": "B3LYP", 
		 "basiset": "6-31G**", 
		 "properties": { 
			 "R2extent": 3707.1202, 
			 "electric_dipole_moment_norm": 4.9113421241, 
			 "electric_quadrupole_moment_norm": 10.5205875592, 
			 "total_energy": -738.963513123, 
			 "HOMO_LUMO_gap": 0.17878, 
			 "cosmo_polarized_energy": -7.76, 
			 "cosmo_cavitation_energy": 25.87, 
			 "cosmo_dispersion_energy": -18.78, 
			 "cosmo_repulsion_energy": 1.39, 
			 "cosmo_total_nonelectrostatic_energy": 8.48, 
			 "SMD_solvation_energy": 4.14 
		},
		"coords": [
			{
				"x": -2.9397384676,
				"y": -0.3219662591,
				"z": -2.5030902295,
				"element": "F" 
			},
			{
				"x": -1.8297499431,
				"y": -1.018289993,
				"z": -2.8164494027,
				"element": "C" 
			},
			{
				"x": -1.4081390383,
				"y": -0.5840122585,
				"z": -4.0200557134,
				"element": "F" 
			},
			{
				"x": -2.1906986939,
				"y": -2.315775637,
				"z": -2.9566885802,
				"element": "F" 
			},
			{
				"x": -0.7578356957,
				"y": -0.8526558482,
				"z": -1.7627666847,
				"element": "C" 
			},
			{
				"x": -0.3529200041,
				"y": 0.4328613095,
				"z": -1.5769224979,
				"element": "N" 
			},
			{
				"x": 0.5772648835,
				"y": 0.6491308488,
				"z": -0.6749906837,
				"element": "C" 
			},
			{
				"x": 1.183064378,
				"y": -0.3701972618,
				"z": 0.1138297313,
				"element": "C" 
			},
			{
				"x": 2.185328577,
				"y": -0.0996061966,
				"z": 1.0792010398,
				"element": "C" 
			},
			{
				"x": 2.7343101526,
				"y": -1.1284087044,
				"z": 1.8123535464,
				"element": "C" 
			},
			{
				"x": 2.3023282352,
				"y": -2.4627844362,
				"z": 1.6076900745,
				"element": "C" 
			},
			{
				"x": 1.329906897,
				"y": -2.7534415622,
				"z": 0.6759098449,
				"element": "C" 
			},
			{
				"x": 0.7465600366,
				"y": -1.7135832112,
				"z": -0.0938435899,
				"element": "C" 
			},
			{
				"x": -0.2591454802,
				"y": -1.9306766796,
				"z": -1.0719650206,
				"element": "C" 
			},
			{
				"x": 0.8932363072,
				"y": 1.6834024327,
				"z": -0.5353403714,
				"element": "H" 
			},
			{
				"x": 2.5111606566,
				"y": 0.9260784438,
				"z": 1.230233715,
				"element": "H" 
			},
			{
				"x": 3.5020192289,
				"y": -0.9224601604,
				"z": 2.5520705263,
				"element": "H" 
			},
			{
				"x": 2.7457559212,
				"y": -3.2619938502,
				"z": 2.1943363126,
				"element": "H" 
			},
			{
				"x": 0.999596854,
				"y": -3.7765809131,
				"z": 0.5198767486,
				"element": "H" 
			},
			{
				"x": -0.6263048049,
				"y": -2.9314400633,
				"z": -1.2690887652,
				"element": "H" 
			}
		],
		 "valence_orbital": [ 
			{
				"type": "occ",
				"energy": -0.35555,
				"method": "rhf"
			},
			{
				"type": "occ",
				"energy": -0.31166,
				"method": "rhf"
			},
			{
				"type": "occ",
				"energy": -0.27715,
				"method": "rhf"
			},
			{
				"type": "occ",
				"energy": -0.27133,
				"method": "rhf"
			},
			{
				"type": "occ",
				"energy": -0.24466,
				"method": "rhf"
			},
			{
				"type": "unocc",
				"energy": -0.06588,
				"method": "rhf"
			},
			{
				"type": "unocc",
				"energy": -0.04241,
				"method": "rhf"
			},
			{
				"type": "unocc",
				"energy": 0.00925,
				"method": "rhf"
			},
			{
				"type": "unocc",
				"energy": 0.06388,
				"method": "rhf"
			},
			{
				"type": "unocc",
				"energy": 0.08436,
				"method": "rhf"
			}
		],
		"cosmo_sigma_profile": { 
			"-0.025": 0.0,
			"-0.024": 0.0,
			"-0.023": 0.0,
			"-0.022": 0.0,
			"-0.021": 0.0,
			"-0.02": 0.0,
			"-0.019": 0.0,
			"-0.018": 0.0,
			"-0.017": 0.0,
			"-0.016": 0.0,
			"-0.015": 0.0,
			"-0.014": 0.0,
			"-0.013": 0.0,
			"-0.012": 0.0,
			"-0.011": 0.0,
			"-0.01": 0.0,
			"-0.009": 0.00651215497918,
			"-0.008": 3.24263932133,
			"-0.007": 10.9201671265,
			"-0.006": 12.2555449621,
			"-0.005": 11.4097188645,
			"-0.004": 9.69181921895,
			"-0.003": 9.92637839278,
			"-0.002": 11.549492419,
			"-0.001": 11.9734157598,
			"0.0": 20.1053216008,
			"0.001": 21.1868055124,
			"0.002": 26.669260529,
			"0.003": 38.5624743081,
			"0.004": 7.32508586588,
			"0.005": 2.80458133231,
			"0.006": 1.79422955655,
			"0.007": 2.6007646302,
			"0.008": 1.22178642734,
			"0.009": 1.00752445962,
			"0.01": 1.34308988957,
			"0.011": 1.14227289384,
			"0.012": 0.743049776214,
			"0.013": 0.698753363586,
			"0.014": 0.642119491526,
			"0.015": 0.0756035920076,
			"0.016": 0.0,
			"0.017": 0.0,
			"0.018": 0.0,
			"0.019": 0.0,
			"0.02": 0.0,
			"0.021": 0.0,
			"0.022": 0.0,
			"0.023": 0.0,
			"0.024": 0.0,
			"0.025": 0.0
		}
	}
}
