{
	 "smiles": "CC1=CC(Br)=CC(C)=C1N=C=O", 
	 "Tm": 334.15, 
	 "num_atms": 20, 
	 "gaussian": { 
		 "optdone": 1, 
		 "sigma_profile": "yes", 
		 "theory": "DFT", 
		 "functional": "B3LYP", 
		 "basiset": "6-31G**", 
		 "properties": { 
			 "R2extent": 4034.4089, 
			 "electric_dipole_moment_norm": 0.277526953646, 
			 "electric_quadrupole_moment_norm": 15.4536250692, 
			 "total_energy": -3049.17442274, 
			 "HOMO_LUMO_gap": 0.19854, 
			 "cosmo_polarized_energy": -5.3, 
			 "cosmo_cavitation_energy": 27.14, 
			 "cosmo_dispersion_energy": -19.74, 
			 "cosmo_repulsion_energy": 1.58, 
			 "cosmo_total_nonelectrostatic_energy": 8.98, 
			 "SMD_solvation_energy": 5.72 
		},
		"coords": [
			{
				"x": 1.304218782,
				"y": 1.4766175111,
				"z": 2.6246394432,
				"element": "C" 
			},
			{
				"x": 0.5422822841,
				"y": 0.5325194448,
				"z": 1.730214485,
				"element": "C" 
			},
			{
				"x": -0.8527202304,
				"y": 0.5674136635,
				"z": 1.6694113045,
				"element": "C" 
			},
			{
				"x": -1.5372742925,
				"y": -0.3128803581,
				"z": 0.8369031767,
				"element": "C" 
			},
			{
				"x": -3.4460934128,
				"y": -0.2488253271,
				"z": 0.7683086071,
				"element": "Br" 
			},
			{
				"x": -0.8569366108,
				"y": -1.2393984186,
				"z": 0.053174599,
				"element": "C" 
			},
			{
				"x": 0.539044006,
				"y": -1.3025529616,
				"z": 0.0888658886,
				"element": "C" 
			},
			{
				"x": 1.2818057528,
				"y": -2.3037636832,
				"z": -0.7575894656,
				"element": "C" 
			},
			{
				"x": 1.2270671396,
				"y": -0.4074262688,
				"z": 0.9348159507,
				"element": "C" 
			},
			{
				"x": 2.6204124403,
				"y": -0.4159398057,
				"z": 1.018880774,
				"element": "N" 
			},
			{
				"x": 3.6280574575,
				"y": -0.9425987682,
				"z": 0.6152901106,
				"element": "C" 
			},
			{
				"x": 4.6843069341,
				"y": -1.3678676108,
				"z": 0.3050313292,
				"element": "O" 
			},
			{
				"x": 0.6227396285,
				"y": 2.133789437,
				"z": 3.1698557529,
				"element": "H" 
			},
			{
				"x": 1.994336308,
				"y": 2.0998723729,
				"z": 2.0458160939,
				"element": "H" 
			},
			{
				"x": 1.9110489548,
				"y": 0.9284718367,
				"z": 3.3533061701,
				"element": "H" 
			},
			{
				"x": -1.4007119034,
				"y": 1.2824029744,
				"z": 2.2727363321,
				"element": "H" 
			},
			{
				"x": -1.4088182324,
				"y": -1.916730273,
				"z": -0.5889358297,
				"element": "H" 
			},
			{
				"x": 1.9681064472,
				"y": -1.8126167638,
				"z": -1.4577980576,
				"element": "H" 
			},
			{
				"x": 0.5867191754,
				"y": -2.9084463655,
				"z": -1.3441309625,
				"element": "H" 
			},
			{
				"x": 1.881709372,
				"y": -2.9870406359,
				"z": -0.1445957023,
				"element": "H" 
			}
		],
		 "valence_orbital": [ 
			{
				"type": "occ",
				"energy": -0.30912,
				"method": "rhf"
			},
			{
				"type": "occ",
				"energy": -0.29344,
				"method": "rhf"
			},
			{
				"type": "occ",
				"energy": -0.28936,
				"method": "rhf"
			},
			{
				"type": "occ",
				"energy": -0.25872,
				"method": "rhf"
			},
			{
				"type": "occ",
				"energy": -0.23006,
				"method": "rhf"
			},
			{
				"type": "unocc",
				"energy": -0.03152,
				"method": "rhf"
			},
			{
				"type": "unocc",
				"energy": -0.01566,
				"method": "rhf"
			},
			{
				"type": "unocc",
				"energy": 0.00342,
				"method": "rhf"
			},
			{
				"type": "unocc",
				"energy": 0.01904,
				"method": "rhf"
			},
			{
				"type": "unocc",
				"energy": 0.07113,
				"method": "rhf"
			}
		],
		"cosmo_sigma_profile": { 
			"-0.025": 0.0,
			"-0.024": 0.0,
			"-0.023": 0.0,
			"-0.022": 0.0,
			"-0.021": 0.0,
			"-0.02": 0.0,
			"-0.019": 0.0,
			"-0.018": 0.0,
			"-0.017": 0.0,
			"-0.016": 0.0,
			"-0.015": 0.0,
			"-0.014": 0.0,
			"-0.013": 0.0,
			"-0.012": 0.0,
			"-0.011": 0.0,
			"-0.01": 0.0,
			"-0.009": 0.0,
			"-0.008": 0.0,
			"-0.007": 3.06133493252,
			"-0.006": 9.82969680855,
			"-0.005": 11.8484969754,
			"-0.004": 16.2740855289,
			"-0.003": 17.2156165832,
			"-0.002": 21.0773922286,
			"-0.001": 23.3254039857,
			"0.0": 22.3537151497,
			"0.001": 17.1509761111,
			"0.002": 22.021616827,
			"0.003": 19.2537044533,
			"0.004": 15.3687629271,
			"0.005": 8.99674608208,
			"0.006": 1.69892773145,
			"0.007": 5.10492508869,
			"0.008": 6.00552030757,
			"0.009": 0.0,
			"0.01": 0.0,
			"0.011": 0.0,
			"0.012": 0.0,
			"0.013": 0.0,
			"0.014": 0.0,
			"0.015": 0.0,
			"0.016": 0.0,
			"0.017": 0.0,
			"0.018": 0.0,
			"0.019": 0.0,
			"0.02": 0.0,
			"0.021": 0.0,
			"0.022": 0.0,
			"0.023": 0.0,
			"0.024": 0.0,
			"0.025": 0.0
		}
	}
}
