{
	 "smiles": "ClC1=C(C=C2C3=C(C=CC=C3)C3=C2C=CC=C3)C=CC=C1", 
	 "Tm": 342.65, 
	 "num_atms": 34, 
	 "gaussian": { 
		 "optdone": 1, 
		 "sigma_profile": "yes", 
		 "theory": "DFT", 
		 "functional": "B3LYP", 
		 "basiset": "6-31G**", 
		 "properties": { 
			 "R2extent": 7444.3385, 
			 "electric_dipole_moment_norm": 1.77832313712, 
			 "electric_quadrupole_moment_norm": 15.7833876465, 
			 "total_energy": -1230.16323496, 
			 "HOMO_LUMO_gap": 0.14485, 
			 "cosmo_polarized_energy": -7.8, 
			 "cosmo_cavitation_energy": 39.28, 
			 "cosmo_dispersion_energy": -28.08, 
			 "cosmo_repulsion_energy": 2.1, 
			 "cosmo_total_nonelectrostatic_energy": 13.3, 
			 "SMD_solvation_energy": 5.48 
		},
		"coords": [
			{
				"x": 3.4930187359,
				"y": -2.467506782,
				"z": -2.1214875475,
				"element": "Cl" 
			},
			{
				"x": 3.5828101863,
				"y": -1.7030325277,
				"z": -0.5374725572,
				"element": "C" 
			},
			{
				"x": 2.6278949669,
				"y": -0.7341663024,
				"z": -0.1715698921,
				"element": "C" 
			},
			{
				"x": 1.6073430849,
				"y": -0.2644417253,
				"z": -1.1190426166,
				"element": "C" 
			},
			{
				"x": 0.2966477415,
				"y": 0.0075270403,
				"z": -0.9136733106,
				"element": "C" 
			},
			{
				"x": -0.5628860605,
				"y": 0.6434059476,
				"z": -1.9435206458,
				"element": "C" 
			},
			{
				"x": -1.8683845661,
				"y": 0.8014600421,
				"z": -1.4262552329,
				"element": "C" 
			},
			{
				"x": -2.8692749824,
				"y": 1.400160135,
				"z": -2.1900127896,
				"element": "C" 
			},
			{
				"x": -2.5606221647,
				"y": 1.8392964355,
				"z": -3.4802854289,
				"element": "C" 
			},
			{
				"x": -1.2682689039,
				"y": 1.6838631504,
				"z": -3.9956676345,
				"element": "C" 
			},
			{
				"x": -0.2612616082,
				"y": 1.0899921984,
				"z": -3.2293864738,
				"element": "C" 
			},
			{
				"x": -1.8938707898,
				"y": 0.2385325992,
				"z": -0.0712864512,
				"element": "C" 
			},
			{
				"x": -0.5981623236,
				"y": -0.2470933633,
				"z": 0.2453967378,
				"element": "C" 
			},
			{
				"x": -0.3909346018,
				"y": -0.9040977949,
				"z": 1.4608976254,
				"element": "C" 
			},
			{
				"x": -1.4546806962,
				"y": -1.038309961,
				"z": 2.3583042952,
				"element": "C" 
			},
			{
				"x": -2.7206492761,
				"y": -0.5286313224,
				"z": 2.0521408072,
				"element": "C" 
			},
			{
				"x": -2.9488699747,
				"y": 0.1077044632,
				"z": 0.8297310114,
				"element": "C" 
			},
			{
				"x": 2.7726174952,
				"y": -0.152787692,
				"z": 1.103645324,
				"element": "C" 
			},
			{
				"x": 3.7894641123,
				"y": -0.5368884336,
				"z": 1.972833971,
				"element": "C" 
			},
			{
				"x": 4.706918767,
				"y": -1.5154800827,
				"z": 1.5844217736,
				"element": "C" 
			},
			{
				"x": 4.6054024803,
				"y": -2.0994300371,
				"z": 0.3224700976,
				"element": "C" 
			},
			{
				"x": 1.9829426579,
				"y": -0.0958530379,
				"z": -2.1264863469,
				"element": "H" 
			},
			{
				"x": -3.8733416132,
				"y": 1.5250350413,
				"z": -1.7940535971,
				"element": "H" 
			},
			{
				"x": -3.3296043037,
				"y": 2.3062745095,
				"z": -4.0889541772,
				"element": "H" 
			},
			{
				"x": -1.0445633217,
				"y": 2.0301313217,
				"z": -5.0004864408,
				"element": "H" 
			},
			{
				"x": 0.7384609466,
				"y": 0.9828974884,
				"z": -3.6412085881,
				"element": "H" 
			},
			{
				"x": 0.5778009038,
				"y": -1.3168207662,
				"z": 1.7151147391,
				"element": "H" 
			},
			{
				"x": -1.2934325719,
				"y": -1.5475853159,
				"z": 3.3040167385,
				"element": "H" 
			},
			{
				"x": -3.5336250702,
				"y": -0.6382528186,
				"z": 2.7642150946,
				"element": "H" 
			},
			{
				"x": -3.9379837807,
				"y": 0.4834894328,
				"z": 0.5829809636,
				"element": "H" 
			},
			{
				"x": 2.0760039078,
				"y": 0.6266725527,
				"z": 1.3935913648,
				"element": "H" 
			},
			{
				"x": 3.8730118791,
				"y": -0.0643018446,
				"z": 2.9467645659,
				"element": "H" 
			},
			{
				"x": 5.504614177,
				"y": -1.8207194005,
				"z": 2.2547379858,
				"element": "H" 
			},
			{
				"x": 5.3097645669,
				"y": -2.8585431498,
				"z": 0.0007866355,
				"element": "H" 
			}
		],
		 "valence_orbital": [ 
			{
				"type": "occ",
				"energy": -0.26849,
				"method": "rhf"
			},
			{
				"type": "occ",
				"energy": -0.25182,
				"method": "rhf"
			},
			{
				"type": "occ",
				"energy": -0.24889,
				"method": "rhf"
			},
			{
				"type": "occ",
				"energy": -0.21486,
				"method": "rhf"
			},
			{
				"type": "occ",
				"energy": -0.21362,
				"method": "rhf"
			},
			{
				"type": "unocc",
				"energy": -0.06877,
				"method": "rhf"
			},
			{
				"type": "unocc",
				"energy": -0.02754,
				"method": "rhf"
			},
			{
				"type": "unocc",
				"energy": -0.01576,
				"method": "rhf"
			},
			{
				"type": "unocc",
				"energy": -0.00315,
				"method": "rhf"
			},
			{
				"type": "unocc",
				"energy": 0.00813,
				"method": "rhf"
			}
		],
		"cosmo_sigma_profile": { 
			"-0.025": 0.0,
			"-0.024": 0.0,
			"-0.023": 0.0,
			"-0.022": 0.0,
			"-0.021": 0.0,
			"-0.02": 0.0,
			"-0.019": 0.0,
			"-0.018": 0.0,
			"-0.017": 0.0,
			"-0.016": 0.0,
			"-0.015": 0.0,
			"-0.014": 0.0,
			"-0.013": 0.0,
			"-0.012": 0.0,
			"-0.011": 0.0,
			"-0.01": 0.0,
			"-0.009": 0.0,
			"-0.008": 0.754778464545,
			"-0.007": 5.33445196559,
			"-0.006": 18.6869532796,
			"-0.005": 24.0343155736,
			"-0.004": 25.2520876332,
			"-0.003": 22.2509590639,
			"-0.002": 20.4881797059,
			"-0.001": 19.8357015173,
			"0.0": 21.0383754194,
			"0.001": 26.4070683445,
			"0.002": 32.3014128203,
			"0.003": 37.7967092111,
			"0.004": 33.8218433143,
			"0.005": 24.7886392696,
			"0.006": 6.24377388419,
			"0.007": 0.0,
			"0.008": 0.0,
			"0.009": 0.0,
			"0.01": 0.0,
			"0.011": 0.0,
			"0.012": 0.0,
			"0.013": 0.0,
			"0.014": 0.0,
			"0.015": 0.0,
			"0.016": 0.0,
			"0.017": 0.0,
			"0.018": 0.0,
			"0.019": 0.0,
			"0.02": 0.0,
			"0.021": 0.0,
			"0.022": 0.0,
			"0.023": 0.0,
			"0.024": 0.0,
			"0.025": 0.0
		}
	}
}
