{
	 "smiles": "CC#CC(C)C", 
	 "Tm": 163.15, 
	 "num_atms": 16, 
	 "gaussian": { 
		 "optdone": 1, 
		 "sigma_profile": "yes", 
		 "theory": "DFT", 
		 "functional": "B3LYP", 
		 "basiset": "6-31G**", 
		 "properties": { 
			 "R2extent": 946.0792, 
			 "electric_dipole_moment_norm": 0.11823726147, 
			 "electric_quadrupole_moment_norm": 3.87274396262, 
			 "total_energy": -234.615780013, 
			 "HOMO_LUMO_gap": 0.30283, 
			 "cosmo_polarized_energy": -3.13, 
			 "cosmo_cavitation_energy": 19.45, 
			 "cosmo_dispersion_energy": -13.92, 
			 "cosmo_repulsion_energy": 1.25, 
			 "cosmo_total_nonelectrostatic_energy": 6.78, 
			 "SMD_solvation_energy": 4.21 
		},
		"coords": [
			{
				"x": -0.8334397622,
				"y": 2.83994647,
				"z": 1.1757889046,
				"element": "C" 
			},
			{
				"x": -0.0533740115,
				"y": 1.6647921948,
				"z": 0.7959987561,
				"element": "C" 
			},
			{
				"x": 0.5961203767,
				"y": 0.692664559,
				"z": 0.4834308607,
				"element": "C" 
			},
			{
				"x": 1.3708582919,
				"y": -0.4942835461,
				"z": 0.0948282984,
				"element": "C" 
			},
			{
				"x": 0.7363951269,
				"y": -1.7823573887,
				"z": 0.6586255504,
				"element": "C" 
			},
			{
				"x": 1.5346251831,
				"y": -0.5752924949,
				"z": -1.436890192,
				"element": "C" 
			},
			{
				"x": -1.7231705455,
				"y": 2.5593885739,
				"z": 1.75125012,
				"element": "H" 
			},
			{
				"x": -0.2441692512,
				"y": 3.5276469978,
				"z": 1.7933307146,
				"element": "H" 
			},
			{
				"x": -1.172371429,
				"y": 3.3959569802,
				"z": 0.2940480669,
				"element": "H" 
			},
			{
				"x": 2.375300653,
				"y": -0.3978505643,
				"z": 0.5329923225,
				"element": "H" 
			},
			{
				"x": 0.6475085952,
				"y": -1.7339230301,
				"z": 1.7475196816,
				"element": "H" 
			},
			{
				"x": 1.3475872759,
				"y": -2.6536288257,
				"z": 0.3997791168,
				"element": "H" 
			},
			{
				"x": -0.2657910109,
				"y": -1.931018318,
				"z": 0.2437299943,
				"element": "H" 
			},
			{
				"x": 2.0106513928,
				"y": 0.3271080849,
				"z": -1.8306042964,
				"element": "H" 
			},
			{
				"x": 2.1509615489,
				"y": -1.4386912379,
				"z": -1.709545727,
				"element": "H" 
			},
			{
				"x": 0.5595075657,
				"y": -0.682858455,
				"z": -1.9228821715,
				"element": "H" 
			}
		],
		 "valence_orbital": [ 
			{
				"type": "occ",
				"energy": -0.36182,
				"method": "rhf"
			},
			{
				"type": "occ",
				"energy": -0.34429,
				"method": "rhf"
			},
			{
				"type": "occ",
				"energy": -0.34398,
				"method": "rhf"
			},
			{
				"type": "occ",
				"energy": -0.23971,
				"method": "rhf"
			},
			{
				"type": "occ",
				"energy": -0.2393,
				"method": "rhf"
			},
			{
				"type": "unocc",
				"energy": 0.06353,
				"method": "rhf"
			},
			{
				"type": "unocc",
				"energy": 0.06773,
				"method": "rhf"
			},
			{
				"type": "unocc",
				"energy": 0.10558,
				"method": "rhf"
			},
			{
				"type": "unocc",
				"energy": 0.11725,
				"method": "rhf"
			},
			{
				"type": "unocc",
				"energy": 0.14588,
				"method": "rhf"
			}
		],
		"cosmo_sigma_profile": { 
			"-0.025": 0.0,
			"-0.024": 0.0,
			"-0.023": 0.0,
			"-0.022": 0.0,
			"-0.021": 0.0,
			"-0.02": 0.0,
			"-0.019": 0.0,
			"-0.018": 0.0,
			"-0.017": 0.0,
			"-0.016": 0.0,
			"-0.015": 0.0,
			"-0.014": 0.0,
			"-0.013": 0.0,
			"-0.012": 0.0,
			"-0.011": 0.0,
			"-0.01": 0.0,
			"-0.009": 0.0,
			"-0.008": 0.0,
			"-0.007": 0.0,
			"-0.006": 0.896550768855,
			"-0.005": 5.78586248583,
			"-0.004": 8.4929254425,
			"-0.003": 20.1791074935,
			"-0.002": 22.604977934,
			"-0.001": 23.3729079636,
			"0.0": 18.5594434087,
			"0.001": 17.4647525944,
			"0.002": 7.31382664699,
			"0.003": 3.55088924815,
			"0.004": 3.90062863587,
			"0.005": 3.4971748606,
			"0.006": 4.43681926667,
			"0.007": 5.82448607303,
			"0.008": 6.54609040062,
			"0.009": 0.116597774682,
			"0.01": 0.0,
			"0.011": 0.0,
			"0.012": 0.0,
			"0.013": 0.0,
			"0.014": 0.0,
			"0.015": 0.0,
			"0.016": 0.0,
			"0.017": 0.0,
			"0.018": 0.0,
			"0.019": 0.0,
			"0.02": 0.0,
			"0.021": 0.0,
			"0.022": 0.0,
			"0.023": 0.0,
			"0.024": 0.0,
			"0.025": 0.0
		}
	}
}
