{
	 "smiles": "NCCCCC(N)C(O)=O", 
	 "Tm": 497.15, 
	 "num_atms": 24, 
	 "gaussian": { 
		 "optdone": 1, 
		 "sigma_profile": "yes", 
		 "theory": "DFT", 
		 "functional": "B3LYP", 
		 "basiset": "6-31G**", 
		 "properties": { 
			 "R2extent": 2063.0655, 
			 "electric_dipole_moment_norm": 3.1038310956, 
			 "electric_quadrupole_moment_norm": 8.75794719041, 
			 "total_energy": -497.033436188, 
			 "HOMO_LUMO_gap": 0.24255, 
			 "cosmo_polarized_energy": -16.23, 
			 "cosmo_cavitation_energy": 26.12, 
			 "cosmo_dispersion_energy": -18.59, 
			 "cosmo_repulsion_energy": 1.56, 
			 "cosmo_total_nonelectrostatic_energy": 9.09, 
			 "SMD_solvation_energy": 2.92 
		},
		"coords": [
			{
				"x": 0.9701800282,
				"y": 3.088370588,
				"z": 0.6340499976,
				"element": "N" 
			},
			{
				"x": 0.394677717,
				"y": 2.3973691175,
				"z": -0.526545497,
				"element": "C" 
			},
			{
				"x": -0.1873934937,
				"y": 1.0306314835,
				"z": -0.143712189,
				"element": "C" 
			},
			{
				"x": 0.8659040487,
				"y": 0.0385087746,
				"z": 0.3711059898,
				"element": "C" 
			},
			{
				"x": 0.3286138753,
				"y": -1.3233792504,
				"z": 0.8402414781,
				"element": "C" 
			},
			{
				"x": -0.2039803491,
				"y": -2.2882618602,
				"z": -0.2613342353,
				"element": "C" 
			},
			{
				"x": 0.6854427096,
				"y": -2.5522781909,
				"z": -1.3889555885,
				"element": "N" 
			},
			{
				"x": -1.5956530474,
				"y": -1.8634193195,
				"z": -0.7166879245,
				"element": "C" 
			},
			{
				"x": -1.6744707255,
				"y": -1.5567168125,
				"z": -2.0339796686,
				"element": "O" 
			},
			{
				"x": -2.55054691,
				"y": -1.7859892409,
				"z": 0.0252344444,
				"element": "O" 
			},
			{
				"x": 1.8687475371,
				"y": 2.6789873773,
				"z": 0.8761442973,
				"element": "H" 
			},
			{
				"x": 1.1620634862,
				"y": 4.058285664,
				"z": 0.3975068771,
				"element": "H" 
			},
			{
				"x": 1.1066429244,
				"y": 2.2630837898,
				"z": -1.3626448465,
				"element": "H" 
			},
			{
				"x": -0.4177537714,
				"y": 3.0241688475,
				"z": -0.9121447497,
				"element": "H" 
			},
			{
				"x": -0.6895147678,
				"y": 0.6207816927,
				"z": -1.027882907,
				"element": "H" 
			},
			{
				"x": -0.953840932,
				"y": 1.1800844382,
				"z": 0.6260926122,
				"element": "H" 
			},
			{
				"x": 1.6315746565,
				"y": -0.1196386987,
				"z": -0.4027711211,
				"element": "H" 
			},
			{
				"x": 1.3853061822,
				"y": 0.4896229954,
				"z": 1.2255224454,
				"element": "H" 
			},
			{
				"x": -0.4666172061,
				"y": -1.1821917788,
				"z": 1.5811364745,
				"element": "H" 
			},
			{
				"x": 1.1406217103,
				"y": -1.8555175357,
				"z": 1.3529042973,
				"element": "H" 
			},
			{
				"x": -0.3837237659,
				"y": -3.245802793,
				"z": 0.245000016,
				"element": "H" 
			},
			{
				"x": 1.6157202486,
				"y": -2.7758509345,
				"z": -1.0447279401,
				"element": "H" 
			},
			{
				"x": 0.7704321467,
				"y": -1.732074949,
				"z": -1.9820960285,
				"element": "H" 
			},
			{
				"x": -2.5978323018,
				"y": -1.2935734044,
				"z": -2.1874562338,
				"element": "H" 
			}
		],
		 "valence_orbital": [ 
			{
				"type": "occ",
				"energy": -0.3189,
				"method": "rhf"
			},
			{
				"type": "occ",
				"energy": -0.31489,
				"method": "rhf"
			},
			{
				"type": "occ",
				"energy": -0.2739,
				"method": "rhf"
			},
			{
				"type": "occ",
				"energy": -0.23817,
				"method": "rhf"
			},
			{
				"type": "occ",
				"energy": -0.23304,
				"method": "rhf"
			},
			{
				"type": "unocc",
				"energy": 0.00951,
				"method": "rhf"
			},
			{
				"type": "unocc",
				"energy": 0.05921,
				"method": "rhf"
			},
			{
				"type": "unocc",
				"energy": 0.08037,
				"method": "rhf"
			},
			{
				"type": "unocc",
				"energy": 0.09141,
				"method": "rhf"
			},
			{
				"type": "unocc",
				"energy": 0.10769,
				"method": "rhf"
			}
		],
		"cosmo_sigma_profile": { 
			"-0.025": 0.0,
			"-0.024": 0.0,
			"-0.023": 0.0,
			"-0.022": 0.0,
			"-0.021": 0.0,
			"-0.02": 0.0,
			"-0.019": 0.0151670402346,
			"-0.018": 0.747020483221,
			"-0.017": 1.00415209254,
			"-0.016": 0.397864794648,
			"-0.015": 0.850056709778,
			"-0.014": 1.20073493044,
			"-0.013": 0.432002700682,
			"-0.012": 0.669811519975,
			"-0.011": 0.456048451915,
			"-0.01": 2.23577865352,
			"-0.009": 4.83904177062,
			"-0.008": 5.3123500065,
			"-0.007": 6.65165708042,
			"-0.006": 9.40581963519,
			"-0.005": 10.953189582,
			"-0.004": 10.5059767009,
			"-0.003": 14.3676370957,
			"-0.002": 18.5546626778,
			"-0.001": 26.8589820657,
			"0.0": 17.9086880249,
			"0.001": 9.72354868718,
			"0.002": 6.33839054268,
			"0.003": 3.79142479632,
			"0.004": 3.98156839755,
			"0.005": 4.39370418489,
			"0.006": 4.07685567474,
			"0.007": 3.57771732822,
			"0.008": 3.33337658505,
			"0.009": 3.7873101835,
			"0.01": 3.8072261803,
			"0.011": 3.11160179746,
			"0.012": 7.26356354254,
			"0.013": 2.80137647163,
			"0.014": 1.40612820114,
			"0.015": 1.36699552937,
			"0.016": 1.24536442115,
			"0.017": 1.07172479167,
			"0.018": 0.96641469401,
			"0.019": 1.04071946723,
			"0.02": 0.414171237616,
			"0.021": 0.0,
			"0.022": 0.0,
			"0.023": 0.0,
			"0.024": 0.0,
			"0.025": 0.0
		}
	}
}
