{
	 "smiles": "NCCNC(CC(O)=O)C(N)=O", 
	 "Tm": 435.15, 
	 "num_atms": 25, 
	 "gaussian": { 
		 "optdone": 1, 
		 "sigma_profile": "yes", 
		 "theory": "DFT", 
		 "functional": "B3LYP", 
		 "basiset": "6-31G**", 
		 "properties": { 
			 "R2extent": 2879.6289, 
			 "electric_dipole_moment_norm": 1.40021288024, 
			 "electric_quadrupole_moment_norm": 21.0412778255, 
			 "total_energy": -626.419483059, 
			 "HOMO_LUMO_gap": 0.23425, 
			 "cosmo_polarized_energy": -21.87, 
			 "cosmo_cavitation_energy": 28.38, 
			 "cosmo_dispersion_energy": -19.76, 
			 "cosmo_repulsion_energy": 1.64, 
			 "cosmo_total_nonelectrostatic_energy": 10.26, 
			 "SMD_solvation_energy": 4.54 
		},
		"coords": [
			{
				"x": -0.3159710672,
				"y": -2.2787766987,
				"z": 3.7492311741,
				"element": "N" 
			},
			{
				"x": -0.6782814552,
				"y": -0.9901946975,
				"z": 3.1641136255,
				"element": "C" 
			},
			{
				"x": -1.104752448,
				"y": -1.0305881394,
				"z": 1.6889278182,
				"element": "C" 
			},
			{
				"x": -1.4011028079,
				"y": 0.322814537,
				"z": 1.2032442295,
				"element": "N" 
			},
			{
				"x": -1.9487885877,
				"y": 0.4099890366,
				"z": -0.1524797947,
				"element": "C" 
			},
			{
				"x": -1.0071109357,
				"y": -0.2217818011,
				"z": -1.2070452723,
				"element": "C" 
			},
			{
				"x": 0.4447872974,
				"y": 0.1766289411,
				"z": -1.0458805365,
				"element": "C" 
			},
			{
				"x": 0.6593922659,
				"y": 1.4785999739,
				"z": -1.3501450684,
				"element": "O" 
			},
			{
				"x": 1.3395179822,
				"y": -0.5622950834,
				"z": -0.6942493248,
				"element": "O" 
			},
			{
				"x": -2.2642379113,
				"y": 1.8675883359,
				"z": -0.5478413481,
				"element": "C" 
			},
			{
				"x": -1.7910295789,
				"y": 2.819280965,
				"z": 0.3074106728,
				"element": "N" 
			},
			{
				"x": -2.927456693,
				"y": 2.1098351854,
				"z": -1.5450842022,
				"element": "O" 
			},
			{
				"x": -1.0885308387,
				"y": -2.9351878593,
				"z": 3.6611101613,
				"element": "H" 
			},
			{
				"x": 0.46556411,
				"y": -2.6843574529,
				"z": 3.2393387457,
				"element": "H" 
			},
			{
				"x": 0.1751865832,
				"y": -0.3099112581,
				"z": 3.2625175379,
				"element": "H" 
			},
			{
				"x": -1.4898898822,
				"y": -0.5598595391,
				"z": 3.7678341657,
				"element": "H" 
			},
			{
				"x": -1.967385999,
				"y": -1.715765389,
				"z": 1.5774465146,
				"element": "H" 
			},
			{
				"x": -0.2823215418,
				"y": -1.4439278012,
				"z": 1.0964756041,
				"element": "H" 
			},
			{
				"x": -2.0771617836,
				"y": 0.7460345135,
				"z": 1.8371109618,
				"element": "H" 
			},
			{
				"x": -2.9112890044,
				"y": -0.1193599688,
				"z": -0.2603869832,
				"element": "H" 
			},
			{
				"x": -1.3712588418,
				"y": 0.0903819167,
				"z": -2.1903406137,
				"element": "H" 
			},
			{
				"x": -1.0470452467,
				"y": -1.3104862145,
				"z": -1.1503179004,
				"element": "H" 
			},
			{
				"x": 1.6086657865,
				"y": 1.6346904251,
				"z": -1.2093276771,
				"element": "H" 
			},
			{
				"x": -1.0375890993,
				"y": 2.5563323539,
				"z": 0.9279998998,
				"element": "H" 
			},
			{
				"x": -1.8519103025,
				"y": 3.776915719,
				"z": -0.0071623898,
				"element": "H" 
			}
		],
		 "valence_orbital": [ 
			{
				"type": "occ",
				"energy": -0.2807,
				"method": "rhf"
			},
			{
				"type": "occ",
				"energy": -0.27204,
				"method": "rhf"
			},
			{
				"type": "occ",
				"energy": -0.2545,
				"method": "rhf"
			},
			{
				"type": "occ",
				"energy": -0.24383,
				"method": "rhf"
			},
			{
				"type": "occ",
				"energy": -0.23632,
				"method": "rhf"
			},
			{
				"type": "unocc",
				"energy": -0.00207,
				"method": "rhf"
			},
			{
				"type": "unocc",
				"energy": 0.02617,
				"method": "rhf"
			},
			{
				"type": "unocc",
				"energy": 0.06699,
				"method": "rhf"
			},
			{
				"type": "unocc",
				"energy": 0.07665,
				"method": "rhf"
			},
			{
				"type": "unocc",
				"energy": 0.07972,
				"method": "rhf"
			}
		],
		"cosmo_sigma_profile": { 
			"-0.025": 0.0,
			"-0.024": 0.0,
			"-0.023": 0.0,
			"-0.022": 0.0,
			"-0.021": 0.0,
			"-0.02": 0.0,
			"-0.019": 0.0616541938179,
			"-0.018": 0.624988975356,
			"-0.017": 1.09124027096,
			"-0.016": 1.03499850926,
			"-0.015": 0.634164443918,
			"-0.014": 1.18584052743,
			"-0.013": 1.57208648082,
			"-0.012": 1.75419015571,
			"-0.011": 3.25945053263,
			"-0.01": 4.85432528371,
			"-0.009": 6.59948034193,
			"-0.008": 6.16143494594,
			"-0.007": 7.74386494328,
			"-0.006": 10.0974352324,
			"-0.005": 14.8657200322,
			"-0.004": 15.9181684286,
			"-0.003": 19.5772091723,
			"-0.002": 16.2666345047,
			"-0.001": 10.3361285892,
			"0.0": 8.39115501511,
			"0.001": 7.32284960214,
			"0.002": 6.77757293992,
			"0.003": 7.11170553134,
			"0.004": 6.07985226627,
			"0.005": 5.90652897963,
			"0.006": 6.84502308795,
			"0.007": 6.11160330341,
			"0.008": 6.26562144882,
			"0.009": 4.37585461005,
			"0.01": 4.65548542394,
			"0.011": 5.44424090327,
			"0.012": 6.02821380356,
			"0.013": 4.54200763213,
			"0.014": 5.60394254026,
			"0.015": 1.89682058742,
			"0.016": 0.774900800227,
			"0.017": 0.518329142011,
			"0.018": 0.561849405195,
			"0.019": 0.778230572587,
			"0.02": 0.195543695757,
			"0.021": 0.0,
			"0.022": 0.0,
			"0.023": 0.0,
			"0.024": 0.0,
			"0.025": 0.0
		}
	}
}
