{
	 "smiles": "C1CN=C2CCCCCN2C1", 
	 "Tm": 203.15, 
	 "num_atms": 27, 
	 "gaussian": { 
		 "optdone": 1, 
		 "sigma_profile": "yes", 
		 "theory": "DFT", 
		 "functional": "B3LYP", 
		 "basiset": "6-31G**", 
		 "properties": { 
			 "R2extent": 2071.8008, 
			 "electric_dipole_moment_norm": 3.02506853311, 
			 "electric_quadrupole_moment_norm": 7.52212807256, 
			 "total_energy": -462.107318063, 
			 "HOMO_LUMO_gap": 0.24053, 
			 "cosmo_polarized_energy": -7.85, 
			 "cosmo_cavitation_energy": 26.15, 
			 "cosmo_dispersion_energy": -19.84, 
			 "cosmo_repulsion_energy": 1.6, 
			 "cosmo_total_nonelectrostatic_energy": 7.9, 
			 "SMD_solvation_energy": -0.14 
		},
		"coords": [
			{
				"x": -2.1229994277,
				"y": -1.3948716108,
				"z": -1.0638791742,
				"element": "C" 
			},
			{
				"x": -2.1488797344,
				"y": -2.3048263104,
				"z": 0.1676676294,
				"element": "C" 
			},
			{
				"x": -1.1488299136,
				"y": -1.9403551846,
				"z": 1.1633826497,
				"element": "N" 
			},
			{
				"x": -0.8020097766,
				"y": -0.7014906115,
				"z": 1.2497010255,
				"element": "C" 
			},
			{
				"x": 0.2519407469,
				"y": -0.3577731429,
				"z": 2.2864014167,
				"element": "C" 
			},
			{
				"x": 1.562344598,
				"y": 0.2259403524,
				"z": 1.7152012698,
				"element": "C" 
			},
			{
				"x": 1.5178512277,
				"y": 1.7300050458,
				"z": 1.4114669863,
				"element": "C" 
			},
			{
				"x": 0.4729977552,
				"y": 2.1570209499,
				"z": 0.3725251916,
				"element": "C" 
			},
			{
				"x": -0.9658008573,
				"y": 1.7412388155,
				"z": 0.7247357092,
				"element": "C" 
			},
			{
				"x": -1.2760715526,
				"y": 0.3367829726,
				"z": 0.4615195338,
				"element": "N" 
			},
			{
				"x": -2.2301463772,
				"y": 0.0596058428,
				"z": -0.613833704,
				"element": "C" 
			},
			{
				"x": -2.9361787056,
				"y": -1.6304744468,
				"z": -1.7592908153,
				"element": "H" 
			},
			{
				"x": -1.177517304,
				"y": -1.5407982488,
				"z": -1.5999089103,
				"element": "H" 
			},
			{
				"x": -1.978206223,
				"y": -3.3474567264,
				"z": -0.1265839182,
				"element": "H" 
			},
			{
				"x": -3.1499940547,
				"y": -2.2792186554,
				"z": 0.6269670573,
				"element": "H" 
			},
			{
				"x": 0.4546339658,
				"y": -1.2999218544,
				"z": 2.7980983884,
				"element": "H" 
			},
			{
				"x": -0.1586576328,
				"y": 0.3327590654,
				"z": 3.0371032778,
				"element": "H" 
			},
			{
				"x": 1.8414682348,
				"y": -0.3356211039,
				"z": 0.8141770415,
				"element": "H" 
			},
			{
				"x": 2.361464573,
				"y": 0.0490076936,
				"z": 2.44518301,
				"element": "H" 
			},
			{
				"x": 2.5095641262,
				"y": 2.0607891044,
				"z": 1.0783033954,
				"element": "H" 
			},
			{
				"x": 1.3169947664,
				"y": 2.2687455748,
				"z": 2.3492116223,
				"element": "H" 
			},
			{
				"x": 0.721735521,
				"y": 1.7430072949,
				"z": -0.6133304059,
				"element": "H" 
			},
			{
				"x": 0.5027294938,
				"y": 3.2500723918,
				"z": 0.272415167,
				"element": "H" 
			},
			{
				"x": -1.179179504,
				"y": 1.9954784201,
				"z": 1.7724029096,
				"element": "H" 
			},
			{
				"x": -1.6663193736,
				"y": 2.3310878424,
				"z": 0.1257390462,
				"element": "H" 
			},
			{
				"x": -2.0166815042,
				"y": 0.734683677,
				"z": -1.4521197015,
				"element": "H" 
			},
			{
				"x": -3.2579530676,
				"y": 0.2778828525,
				"z": -0.281155698,
				"element": "H" 
			}
		],
		 "valence_orbital": [ 
			{
				"type": "occ",
				"energy": -0.32158,
				"method": "rhf"
			},
			{
				"type": "occ",
				"energy": -0.31577,
				"method": "rhf"
			},
			{
				"type": "occ",
				"energy": -0.2872,
				"method": "rhf"
			},
			{
				"type": "occ",
				"energy": -0.2204,
				"method": "rhf"
			},
			{
				"type": "occ",
				"energy": -0.1959,
				"method": "rhf"
			},
			{
				"type": "unocc",
				"energy": 0.04463,
				"method": "rhf"
			},
			{
				"type": "unocc",
				"energy": 0.08026,
				"method": "rhf"
			},
			{
				"type": "unocc",
				"energy": 0.10189,
				"method": "rhf"
			},
			{
				"type": "unocc",
				"energy": 0.10957,
				"method": "rhf"
			},
			{
				"type": "unocc",
				"energy": 0.12204,
				"method": "rhf"
			}
		],
		"cosmo_sigma_profile": { 
			"-0.025": 0.0,
			"-0.024": 0.0,
			"-0.023": 0.0,
			"-0.022": 0.0,
			"-0.021": 0.0,
			"-0.02": 0.0,
			"-0.019": 0.0,
			"-0.018": 0.0,
			"-0.017": 0.0,
			"-0.016": 0.0,
			"-0.015": 0.0,
			"-0.014": 0.0,
			"-0.013": 0.0,
			"-0.012": 0.0,
			"-0.011": 0.0,
			"-0.01": 0.0,
			"-0.009": 0.0,
			"-0.008": 0.0,
			"-0.007": 0.0,
			"-0.006": 0.0,
			"-0.005": 2.91933756839,
			"-0.004": 11.9330476329,
			"-0.003": 26.1059784456,
			"-0.002": 42.5205329999,
			"-0.001": 38.6417212007,
			"0.0": 30.3798733504,
			"0.001": 17.1577452343,
			"0.002": 5.01149196219,
			"0.003": 5.58116636484,
			"0.004": 2.51264403227,
			"0.005": 1.6973235572,
			"0.006": 1.17394130068,
			"0.007": 1.86010064247,
			"0.008": 1.92117084008,
			"0.009": 1.11712576279,
			"0.01": 1.12919327283,
			"0.011": 1.95487449014,
			"0.012": 1.09275564292,
			"0.013": 0.391859711921,
			"0.014": 0.948488873386,
			"0.015": 1.35305965665,
			"0.016": 0.826081031918,
			"0.017": 1.27454550857,
			"0.018": 0.92587072306,
			"0.019": 0.579679517338,
			"0.02": 0.49374056757,
			"0.021": 0.0,
			"0.022": 0.0,
			"0.023": 0.0,
			"0.024": 0.0,
			"0.025": 0.0
		}
	}
}
