{
	 "smiles": "CN(C)C(=S)SSC(=S)N(C)C", 
	 "Tm": 429.15, 
	 "num_atms": 24, 
	 "gaussian": { 
		 "optdone": 1, 
		 "sigma_profile": "yes", 
		 "theory": "DFT", 
		 "functional": "B3LYP", 
		 "basiset": "6-31G**", 
		 "properties": { 
			 "R2extent": 4242.7789, 
			 "electric_dipole_moment_norm": 0.781155163844, 
			 "electric_quadrupole_moment_norm": 32.6489411816, 
			 "total_energy": -1938.1102483, 
			 "HOMO_LUMO_gap": 0.17606, 
			 "cosmo_polarized_energy": -17.91, 
			 "cosmo_cavitation_energy": 32.9, 
			 "cosmo_dispersion_energy": -24.51, 
			 "cosmo_repulsion_energy": 1.8, 
			 "cosmo_total_nonelectrostatic_energy": 10.19, 
			 "SMD_solvation_energy": 3.63 
		},
		"coords": [
			{
				"x": -1.2029172907,
				"y": 2.0445448786,
				"z": -2.8052177577,
				"element": "C" 
			},
			{
				"x": -0.5819513438,
				"y": 2.0587091954,
				"z": -1.4762228041,
				"element": "N" 
			},
			{
				"x": -0.012925731,
				"y": 3.3178432138,
				"z": -0.9805093495,
				"element": "C" 
			},
			{
				"x": -0.556857119,
				"y": 0.9120243374,
				"z": -0.7625297592,
				"element": "C" 
			},
			{
				"x": -1.1341213473,
				"y": -0.5475694971,
				"z": -1.2897922834,
				"element": "S" 
			},
			{
				"x": 0.1883854004,
				"y": 1.1904700392,
				"z": 0.9094474847,
				"element": "S" 
			},
			{
				"x": 0.2284822782,
				"y": -0.6619804416,
				"z": 1.7563819978,
				"element": "S" 
			},
			{
				"x": 1.8465803645,
				"y": -1.3784390507,
				"z": 1.2115212647,
				"element": "C" 
			},
			{
				"x": 2.9825054336,
				"y": -0.5473808337,
				"z": 0.3394110706,
				"element": "S" 
			},
			{
				"x": 1.9779466643,
				"y": -2.6529512669,
				"z": 1.6395111606,
				"element": "N" 
			},
			{
				"x": 0.9176627299,
				"y": -3.3628128393,
				"z": 2.365444309,
				"element": "C" 
			},
			{
				"x": 3.2326983282,
				"y": -3.3605024441,
				"z": 1.3620952394,
				"element": "C" 
			},
			{
				"x": -0.6665261178,
				"y": 1.361905912,
				"z": -3.4707438304,
				"element": "H" 
			},
			{
				"x": -1.1780568402,
				"y": 3.0553798725,
				"z": -3.2138196257,
				"element": "H" 
			},
			{
				"x": -2.2382029473,
				"y": 1.6992769629,
				"z": -2.7385288154,
				"element": "H" 
			},
			{
				"x": 1.0187057666,
				"y": 3.1746085331,
				"z": -0.6457627518,
				"element": "H" 
			},
			{
				"x": -0.601223731,
				"y": 3.7288848391,
				"z": -0.1516697889,
				"element": "H" 
			},
			{
				"x": -0.0099708606,
				"y": 4.0442025069,
				"z": -1.7924890295,
				"element": "H" 
			},
			{
				"x": 0.7792382114,
				"y": -2.9597107116,
				"z": 3.3756016293,
				"element": "H" 
			},
			{
				"x": 1.1943907531,
				"y": -4.413143791,
				"z": 2.4501751758,
				"element": "H" 
			},
			{
				"x": -0.0322517542,
				"y": -3.3015068951,
				"z": 1.8263178227,
				"element": "H" 
			},
			{
				"x": 4.0815447928,
				"y": -2.804050616,
				"z": 1.7684785303,
				"element": "H" 
			},
			{
				"x": 3.186455051,
				"y": -4.348267263,
				"z": 1.8220528489,
				"element": "H" 
			},
			{
				"x": 3.3855093088,
				"y": -3.4601346406,
				"z": 0.2834472618,
				"element": "H" 
			}
		],
		 "valence_orbital": [ 
			{
				"type": "occ",
				"energy": -0.25347,
				"method": "rhf"
			},
			{
				"type": "occ",
				"energy": -0.22555,
				"method": "rhf"
			},
			{
				"type": "occ",
				"energy": -0.22051,
				"method": "rhf"
			},
			{
				"type": "occ",
				"energy": -0.21017,
				"method": "rhf"
			},
			{
				"type": "occ",
				"energy": -0.20676,
				"method": "rhf"
			},
			{
				"type": "unocc",
				"energy": -0.0307,
				"method": "rhf"
			},
			{
				"type": "unocc",
				"energy": -0.02702,
				"method": "rhf"
			},
			{
				"type": "unocc",
				"energy": -0.02581,
				"method": "rhf"
			},
			{
				"type": "unocc",
				"energy": 0.032,
				"method": "rhf"
			},
			{
				"type": "unocc",
				"energy": 0.03235,
				"method": "rhf"
			}
		],
		"cosmo_sigma_profile": { 
			"-0.025": 0.0,
			"-0.024": 0.0,
			"-0.023": 0.0,
			"-0.022": 0.0,
			"-0.021": 0.0,
			"-0.02": 0.0,
			"-0.019": 0.0,
			"-0.018": 0.0,
			"-0.017": 0.0,
			"-0.016": 0.0,
			"-0.015": 0.0,
			"-0.014": 0.0,
			"-0.013": 0.0,
			"-0.012": 0.0,
			"-0.011": 0.0,
			"-0.01": 0.239158110889,
			"-0.009": 3.28674871321,
			"-0.008": 5.57685811365,
			"-0.007": 8.74473734658,
			"-0.006": 15.7077412795,
			"-0.005": 23.7624997088,
			"-0.004": 32.4810502601,
			"-0.003": 30.1045665407,
			"-0.002": 14.7141693214,
			"-0.001": 8.51286730313,
			"0.0": 11.0594882034,
			"0.001": 11.4837596,
			"0.002": 12.1442742069,
			"0.003": 11.4852463405,
			"0.004": 10.1852438796,
			"0.005": 11.9113403975,
			"0.006": 11.1330323037,
			"0.007": 13.0047159719,
			"0.008": 18.1827465929,
			"0.009": 10.8623313424,
			"0.01": 3.10894385045,
			"0.011": 0.708072758717,
			"0.012": 0.0,
			"0.013": 0.0,
			"0.014": 0.0,
			"0.015": 0.0,
			"0.016": 0.0,
			"0.017": 0.0,
			"0.018": 0.0,
			"0.019": 0.0,
			"0.02": 0.0,
			"0.021": 0.0,
			"0.022": 0.0,
			"0.023": 0.0,
			"0.024": 0.0,
			"0.025": 0.0
		}
	}
}
