{
	 "smiles": "CC1=C(C=CC(Cl)=C1)S(Cl)(=O)=O", 
	 "Tm": 328.15, 
	 "num_atms": 18, 
	 "gaussian": { 
		 "optdone": 1, 
		 "sigma_profile": "yes", 
		 "theory": "DFT", 
		 "functional": "B3LYP", 
		 "basiset": "6-31G**", 
		 "properties": { 
			 "R2extent": 3923.0343, 
			 "electric_dipole_moment_norm": 3.53913303226, 
			 "electric_quadrupole_moment_norm": 11.3995935638, 
			 "total_energy": -1739.31723702, 
			 "HOMO_LUMO_gap": 0.18476, 
			 "cosmo_polarized_energy": -7.95, 
			 "cosmo_cavitation_energy": 26.9, 
			 "cosmo_dispersion_energy": -20.48, 
			 "cosmo_repulsion_energy": 1.58, 
			 "cosmo_total_nonelectrostatic_energy": 8.0, 
			 "SMD_solvation_energy": 3.16 
		},
		"coords": [
			{
				"x": 2.2378761566,
				"y": 0.4209065336,
				"z": -0.8763080004,
				"element": "C" 
			},
			{
				"x": 1.3286608242,
				"y": 0.344732653,
				"z": 0.3256346473,
				"element": "C" 
			},
			{
				"x": 0.4207532021,
				"y": -0.7059001524,
				"z": 0.5709430928,
				"element": "C" 
			},
			{
				"x": -0.3970953078,
				"y": -0.7456546875,
				"z": 1.7035361,
				"element": "C" 
			},
			{
				"x": -0.3416262935,
				"y": 0.2863429155,
				"z": 2.6343069311,
				"element": "C" 
			},
			{
				"x": 0.5459333217,
				"y": 1.3370353355,
				"z": 2.4080598534,
				"element": "C" 
			},
			{
				"x": 0.6391035482,
				"y": 2.647040057,
				"z": 3.5632946241,
				"element": "Cl" 
			},
			{
				"x": 1.366267076,
				"y": 1.3680515127,
				"z": 1.2801014468,
				"element": "C" 
			},
			{
				"x": 0.2209148702,
				"y": -2.0729160983,
				"z": -0.5705486824,
				"element": "S" 
			},
			{
				"x": 1.995517061,
				"y": -3.2093361659,
				"z": -0.1939646281,
				"element": "Cl" 
			},
			{
				"x": -0.8891800878,
				"y": -2.9062463808,
				"z": -0.1263825829,
				"element": "O" 
			},
			{
				"x": 0.323757228,
				"y": -1.6099870185,
				"z": -1.9489523582,
				"element": "O" 
			},
			{
				"x": 1.6618959549,
				"y": 0.5189008914,
				"z": -1.7998624744,
				"element": "H" 
			},
			{
				"x": 2.8465264024,
				"y": -0.4824724825,
				"z": -0.9772543484,
				"element": "H" 
			},
			{
				"x": 2.9083389281,
				"y": 1.2778638798,
				"z": -0.7854019647,
				"element": "H" 
			},
			{
				"x": -1.0744989891,
				"y": -1.5793273259,
				"z": 1.8455059687,
				"element": "H" 
			},
			{
				"x": -0.9723211658,
				"y": 0.2749416033,
				"z": 3.5153255876,
				"element": "H" 
			},
			{
				"x": 2.0471772705,
				"y": 2.2002249298,
				"z": 1.1391667877,
				"element": "H" 
			}
		],
		 "valence_orbital": [ 
			{
				"type": "occ",
				"energy": -0.33612,
				"method": "rhf"
			},
			{
				"type": "occ",
				"energy": -0.33344,
				"method": "rhf"
			},
			{
				"type": "occ",
				"energy": -0.3179,
				"method": "rhf"
			},
			{
				"type": "occ",
				"energy": -0.28938,
				"method": "rhf"
			},
			{
				"type": "occ",
				"energy": -0.2795,
				"method": "rhf"
			},
			{
				"type": "unocc",
				"energy": -0.09474,
				"method": "rhf"
			},
			{
				"type": "unocc",
				"energy": -0.05356,
				"method": "rhf"
			},
			{
				"type": "unocc",
				"energy": -0.0433,
				"method": "rhf"
			},
			{
				"type": "unocc",
				"energy": 0.00723,
				"method": "rhf"
			},
			{
				"type": "unocc",
				"energy": 0.04857,
				"method": "rhf"
			}
		],
		"cosmo_sigma_profile": { 
			"-0.025": 0.0,
			"-0.024": 0.0,
			"-0.023": 0.0,
			"-0.022": 0.0,
			"-0.021": 0.0,
			"-0.02": 0.0,
			"-0.019": 0.0,
			"-0.018": 0.0,
			"-0.017": 0.0,
			"-0.016": 0.0,
			"-0.015": 0.0,
			"-0.014": 0.0,
			"-0.013": 0.0,
			"-0.012": 0.0,
			"-0.011": 0.0,
			"-0.01": 0.0,
			"-0.009": 1.73902333068,
			"-0.008": 6.86514513177,
			"-0.007": 5.81341184827,
			"-0.006": 6.19307752834,
			"-0.005": 8.72050574593,
			"-0.004": 11.3300084511,
			"-0.003": 14.7326308381,
			"-0.002": 21.449161973,
			"-0.001": 25.718036812,
			"0.0": 25.7501216934,
			"0.001": 17.0542761055,
			"0.002": 15.5200211368,
			"0.003": 20.9819390433,
			"0.004": 13.7945544551,
			"0.005": 3.48811133927,
			"0.006": 3.81730316366,
			"0.007": 5.46475089281,
			"0.008": 8.52545570496,
			"0.009": 3.81646516761,
			"0.01": 0.0116497263001,
			"0.011": 0.0,
			"0.012": 0.0,
			"0.013": 0.0,
			"0.014": 0.0,
			"0.015": 0.0,
			"0.016": 0.0,
			"0.017": 0.0,
			"0.018": 0.0,
			"0.019": 0.0,
			"0.02": 0.0,
			"0.021": 0.0,
			"0.022": 0.0,
			"0.023": 0.0,
			"0.024": 0.0,
			"0.025": 0.0
		}
	}
}
