{
	 "smiles": "COC1=C(O)C(CC=C)=CC(C=O)=C1", 
	 "Tm": 354.15, 
	 "num_atms": 26, 
	 "gaussian": { 
		 "optdone": 1, 
		 "sigma_profile": "yes", 
		 "theory": "DFT", 
		 "functional": "B3LYP", 
		 "basiset": "6-31G**", 
		 "properties": { 
			 "R2extent": 3359.346, 
			 "electric_dipole_moment_norm": 4.06605196351, 
			 "electric_quadrupole_moment_norm": 12.1962231933, 
			 "total_energy": -652.022524155, 
			 "HOMO_LUMO_gap": 0.1771, 
			 "cosmo_polarized_energy": -14.13, 
			 "cosmo_cavitation_energy": 30.56, 
			 "cosmo_dispersion_energy": -21.36, 
			 "cosmo_repulsion_energy": 1.69, 
			 "cosmo_total_nonelectrostatic_energy": 10.89, 
			 "SMD_solvation_energy": 7.84 
		},
		"coords": [
			{
				"x": -3.9196710428,
				"y": -1.3110346522,
				"z": -0.971241802,
				"element": "C" 
			},
			{
				"x": -2.6353567839,
				"y": -1.8973732396,
				"z": -1.2046070227,
				"element": "O" 
			},
			{
				"x": -1.5774718063,
				"y": -1.31428575,
				"z": -0.554840273,
				"element": "C" 
			},
			{
				"x": -1.1252717612,
				"y": -0.0210556441,
				"z": -0.8946026101,
				"element": "C" 
			},
			{
				"x": -1.8199338627,
				"y": 0.6337817318,
				"z": -1.8693300216,
				"element": "O" 
			},
			{
				"x": -0.002145628,
				"y": 0.5428239752,
				"z": -0.2538763212,
				"element": "C" 
			},
			{
				"x": 0.4959867376,
				"y": 1.9258993375,
				"z": -0.6440362108,
				"element": "C" 
			},
			{
				"x": 1.2999418855,
				"y": 1.9265842869,
				"z": -1.9264330977,
				"element": "C" 
			},
			{
				"x": 2.5424531862,
				"y": 2.3935541352,
				"z": -2.0380210105,
				"element": "C" 
			},
			{
				"x": 0.6642222456,
				"y": -0.2110953935,
				"z": 0.7084357824,
				"element": "C" 
			},
			{
				"x": 0.2355036614,
				"y": -1.501478425,
				"z": 1.0445615507,
				"element": "C" 
			},
			{
				"x": 0.9555675293,
				"y": -2.2843659043,
				"z": 2.0661900045,
				"element": "C" 
			},
			{
				"x": 1.9297187018,
				"y": -1.8931220818,
				"z": 2.6842783666,
				"element": "O" 
			},
			{
				"x": -0.8895184348,
				"y": -2.0426207012,
				"z": 0.4082374212,
				"element": "C" 
			},
			{
				"x": -4.1659111177,
				"y": -1.3226269917,
				"z": 0.0983788918,
				"element": "H" 
			},
			{
				"x": -3.9692327863,
				"y": -0.285279395,
				"z": -1.3477048301,
				"element": "H" 
			},
			{
				"x": -4.6368381721,
				"y": -1.9321063304,
				"z": -1.5113627863,
				"element": "H" 
			},
			{
				"x": -1.4641230382,
				"y": 1.5247354835,
				"z": -1.9786373771,
				"element": "H" 
			},
			{
				"x": -0.3560708423,
				"y": 2.6212560064,
				"z": -0.7375487166,
				"element": "H" 
			},
			{
				"x": 1.1071824229,
				"y": 2.3289187161,
				"z": 0.1688899381,
				"element": "H" 
			},
			{
				"x": 0.8138187241,
				"y": 1.4944985125,
				"z": -2.8018601425,
				"element": "H" 
			},
			{
				"x": 3.0784634746,
				"y": 2.365044595,
				"z": -2.9818110859,
				"element": "H" 
			},
			{
				"x": 3.0713232995,
				"y": 2.8190576904,
				"z": -1.1883884574,
				"element": "H" 
			},
			{
				"x": 1.5371944264,
				"y": 0.1894113642,
				"z": 1.2151001466,
				"element": "H" 
			},
			{
				"x": 0.5367640296,
				"y": -3.2999928308,
				"z": 2.2475611728,
				"element": "H" 
			},
			{
				"x": -1.2426950484,
				"y": -3.0417284948,
				"z": 0.6486684907,
				"element": "H" 
			}
		],
		 "valence_orbital": [ 
			{
				"type": "occ",
				"energy": -0.28528,
				"method": "rhf"
			},
			{
				"type": "occ",
				"energy": -0.27096,
				"method": "rhf"
			},
			{
				"type": "occ",
				"energy": -0.24993,
				"method": "rhf"
			},
			{
				"type": "occ",
				"energy": -0.2468,
				"method": "rhf"
			},
			{
				"type": "occ",
				"energy": -0.22942,
				"method": "rhf"
			},
			{
				"type": "unocc",
				"energy": -0.05232,
				"method": "rhf"
			},
			{
				"type": "unocc",
				"energy": -0.01359,
				"method": "rhf"
			},
			{
				"type": "unocc",
				"energy": 0.0112,
				"method": "rhf"
			},
			{
				"type": "unocc",
				"energy": 0.0429,
				"method": "rhf"
			},
			{
				"type": "unocc",
				"energy": 0.05252,
				"method": "rhf"
			}
		],
		"cosmo_sigma_profile": { 
			"-0.025": 0.0,
			"-0.024": 0.0,
			"-0.023": 0.0,
			"-0.022": 0.0,
			"-0.021": 0.0,
			"-0.02": 0.0,
			"-0.019": 0.0,
			"-0.018": 0.177127119673,
			"-0.017": 0.473990897833,
			"-0.016": 0.847229877365,
			"-0.015": 0.89611871363,
			"-0.014": 0.878935277717,
			"-0.013": 0.585809137678,
			"-0.012": 1.55036597826,
			"-0.011": 0.972893813215,
			"-0.01": 1.60204313445,
			"-0.009": 1.02943590765,
			"-0.008": 1.69955504544,
			"-0.007": 5.09443392075,
			"-0.006": 10.3817874712,
			"-0.005": 18.3071709298,
			"-0.004": 18.3842862085,
			"-0.003": 22.0974333753,
			"-0.002": 21.5766623072,
			"-0.001": 16.7126258762,
			"0.0": 15.1317718103,
			"0.001": 14.6857857466,
			"0.002": 18.8322359277,
			"0.003": 18.0192131785,
			"0.004": 8.68710592331,
			"0.005": 7.69481408578,
			"0.006": 6.75958360385,
			"0.007": 4.27376911322,
			"0.008": 3.76920436927,
			"0.009": 4.92865611002,
			"0.01": 5.01405073708,
			"0.011": 5.02412203171,
			"0.012": 4.94645376151,
			"0.013": 1.64733577127,
			"0.014": 0.187755661049,
			"0.015": 0.0,
			"0.016": 0.0,
			"0.017": 0.0,
			"0.018": 0.0,
			"0.019": 0.0,
			"0.02": 0.0,
			"0.021": 0.0,
			"0.022": 0.0,
			"0.023": 0.0,
			"0.024": 0.0,
			"0.025": 0.0
		}
	}
}
