{
	 "smiles": "OC(=O)C1=CC2=C(C=C1)N1CCCC1C(=O)N2", 
	 "Tm": 524.15, 
	 "num_atms": 29, 
	 "gaussian": { 
		 "optdone": 1, 
		 "sigma_profile": "yes", 
		 "theory": "DFT", 
		 "functional": "B3LYP", 
		 "basiset": "6-31G**", 
		 "properties": { 
			 "R2extent": 4807.5693, 
			 "electric_dipole_moment_norm": 4.81588055604, 
			 "electric_quadrupole_moment_norm": 30.6373347171, 
			 "total_energy": -799.714878571, 
			 "HOMO_LUMO_gap": 0.16693, 
			 "cosmo_polarized_energy": -22.63, 
			 "cosmo_cavitation_energy": 31.86, 
			 "cosmo_dispersion_energy": -23.75, 
			 "cosmo_repulsion_energy": 1.81, 
			 "cosmo_total_nonelectrostatic_energy": 9.92, 
			 "SMD_solvation_energy": 5.74 
		},
		"coords": [
			{
				"x": -2.7688325411,
				"y": -1.9450454564,
				"z": 2.841311094,
				"element": "O" 
			},
			{
				"x": -2.8510754662,
				"y": -0.6776393023,
				"z": 2.3409588946,
				"element": "C" 
			},
			{
				"x": -3.7216309018,
				"y": 0.0638524099,
				"z": 2.7357843837,
				"element": "O" 
			},
			{
				"x": -1.8357332566,
				"y": -0.2899780831,
				"z": 1.3192229774,
				"element": "C" 
			},
			{
				"x": -1.1003068379,
				"y": -1.2268903442,
				"z": 0.5717507201,
				"element": "C" 
			},
			{
				"x": -0.1723355235,
				"y": -0.8069533204,
				"z": -0.3729629501,
				"element": "C" 
			},
			{
				"x": 0.0256687208,
				"y": 0.5779847495,
				"z": -0.6164847987,
				"element": "C" 
			},
			{
				"x": -0.7176293583,
				"y": 1.5070273217,
				"z": 0.1291045473,
				"element": "C" 
			},
			{
				"x": -1.636600703,
				"y": 1.075439303,
				"z": 1.0787197255,
				"element": "C" 
			},
			{
				"x": 0.9767379202,
				"y": 0.9047613302,
				"z": -1.5544570113,
				"element": "N" 
			},
			{
				"x": 1.4620531559,
				"y": 2.2383931669,
				"z": -1.8679507081,
				"element": "C" 
			},
			{
				"x": 2.7270221409,
				"y": 1.9285549967,
				"z": -2.6880461851,
				"element": "C" 
			},
			{
				"x": 2.3859025723,
				"y": 0.6264839639,
				"z": -3.4559088378,
				"element": "C" 
			},
			{
				"x": 1.204016873,
				"y": -0.0001908315,
				"z": -2.6833432112,
				"element": "C" 
			},
			{
				"x": 1.4305522007,
				"y": -1.4164279975,
				"z": -2.1580643665,
				"element": "C" 
			},
			{
				"x": 2.1931246193,
				"y": -2.2240219165,
				"z": -2.6623628397,
				"element": "O" 
			},
			{
				"x": 0.6385235846,
				"y": -1.719625507,
				"z": -1.0723603283,
				"element": "N" 
			},
			{
				"x": -1.9244370071,
				"y": -2.3441683629,
				"z": 2.5919586611,
				"element": "H" 
			},
			{
				"x": -1.2603308787,
				"y": -2.295833414,
				"z": 0.6963451511,
				"element": "H" 
			},
			{
				"x": -0.5775181683,
				"y": 2.56789562,
				"z": -0.0483947215,
				"element": "H" 
			},
			{
				"x": -2.2253307582,
				"y": 1.7885796784,
				"z": 1.6447298758,
				"element": "H" 
			},
			{
				"x": 0.7313898351,
				"y": 2.8155580458,
				"z": -2.460120352,
				"element": "H" 
			},
			{
				"x": 1.6704881726,
				"y": 2.7969520029,
				"z": -0.9503479044,
				"element": "H" 
			},
			{
				"x": 2.9989798351,
				"y": 2.7504912702,
				"z": -3.3549241957,
				"element": "H" 
			},
			{
				"x": 3.5651382059,
				"y": 1.7589994112,
				"z": -2.0058313374,
				"element": "H" 
			},
			{
				"x": 3.2240356206,
				"y": -0.0718935197,
				"z": -3.5000362751,
				"element": "H" 
			},
			{
				"x": 2.0845025879,
				"y": 0.8412830835,
				"z": -4.4840637685,
				"element": "H" 
			},
			{
				"x": 0.3098912093,
				"y": -0.047712418,
				"z": -3.3321910646,
				"element": "H" 
			},
			{
				"x": 0.7052341464,
				"y": -2.67447588,
				"z": -0.7435351746,
				"element": "H" 
			}
		],
		 "valence_orbital": [ 
			{
				"type": "occ",
				"energy": -0.30305,
				"method": "rhf"
			},
			{
				"type": "occ",
				"energy": -0.27438,
				"method": "rhf"
			},
			{
				"type": "occ",
				"energy": -0.26512,
				"method": "rhf"
			},
			{
				"type": "occ",
				"energy": -0.24836,
				"method": "rhf"
			},
			{
				"type": "occ",
				"energy": -0.20832,
				"method": "rhf"
			},
			{
				"type": "unocc",
				"energy": -0.04139,
				"method": "rhf"
			},
			{
				"type": "unocc",
				"energy": -0.02688,
				"method": "rhf"
			},
			{
				"type": "unocc",
				"energy": 0.01622,
				"method": "rhf"
			},
			{
				"type": "unocc",
				"energy": 0.05327,
				"method": "rhf"
			},
			{
				"type": "unocc",
				"energy": 0.06299,
				"method": "rhf"
			}
		],
		"cosmo_sigma_profile": { 
			"-0.025": 0.0,
			"-0.024": 0.0,
			"-0.023": 0.0,
			"-0.022": 0.0,
			"-0.021": 0.0,
			"-0.02": 0.0,
			"-0.019": 0.0,
			"-0.018": 0.706706578895,
			"-0.017": 0.923472183039,
			"-0.016": 1.24171339486,
			"-0.015": 2.15526257666,
			"-0.014": 2.33635781465,
			"-0.013": 1.78633779388,
			"-0.012": 2.97391528809,
			"-0.011": 2.78563324154,
			"-0.01": 2.3424450746,
			"-0.009": 1.87994215328,
			"-0.008": 1.82348426685,
			"-0.007": 3.06560523933,
			"-0.006": 9.09427351442,
			"-0.005": 14.6726468073,
			"-0.004": 24.5084273014,
			"-0.003": 24.8185792866,
			"-0.002": 21.3826392988,
			"-0.001": 16.6705233267,
			"0.0": 15.9542911923,
			"0.001": 13.0249637096,
			"0.002": 11.5269080778,
			"0.003": 12.6169849066,
			"0.004": 11.9445020279,
			"0.005": 4.84285897108,
			"0.006": 4.01864458531,
			"0.007": 4.16264335197,
			"0.008": 2.98459559757,
			"0.009": 5.01987435067,
			"0.01": 5.11129234558,
			"0.011": 6.97423900544,
			"0.012": 9.77391154302,
			"0.013": 8.12405972146,
			"0.014": 1.18849925379,
			"0.015": 0.0,
			"0.016": 0.0,
			"0.017": 0.0,
			"0.018": 0.0,
			"0.019": 0.0,
			"0.02": 0.0,
			"0.021": 0.0,
			"0.022": 0.0,
			"0.023": 0.0,
			"0.024": 0.0,
			"0.025": 0.0
		}
	}
}
