{
	 "smiles": "NS(=O)(=O)CC1=CC=C(C=C1)C(O)=O", 
	 "Tm": 549.15, 
	 "num_atms": 23, 
	 "gaussian": { 
		 "optdone": 1, 
		 "sigma_profile": "yes", 
		 "theory": "DFT", 
		 "functional": "B3LYP", 
		 "basiset": "6-31G**", 
		 "properties": { 
			 "R2extent": 4779.9574, 
			 "electric_dipole_moment_norm": 1.92995303052, 
			 "electric_quadrupole_moment_norm": 32.3145307691, 
			 "total_energy": -1064.05725823, 
			 "HOMO_LUMO_gap": 0.20371, 
			 "cosmo_polarized_energy": -25.55, 
			 "cosmo_cavitation_energy": 29.27, 
			 "cosmo_dispersion_energy": -21.57, 
			 "cosmo_repulsion_energy": 1.66, 
			 "cosmo_total_nonelectrostatic_energy": 9.36, 
			 "SMD_solvation_energy": 5.63 
		},
		"coords": [
			{
				"x": -4.1278328892,
				"y": 0.3079385872,
				"z": 1.2390629669,
				"element": "N" 
			},
			{
				"x": -3.3845563763,
				"y": -0.6054722423,
				"z": 2.4565479255,
				"element": "S" 
			},
			{
				"x": -4.4244667565,
				"y": -1.4376327711,
				"z": 3.0674382321,
				"element": "O" 
			},
			{
				"x": -2.5331528144,
				"y": 0.281784612,
				"z": 3.2551564523,
				"element": "O" 
			},
			{
				"x": -2.2990220861,
				"y": -1.7212364822,
				"z": 1.5003229788,
				"element": "C" 
			},
			{
				"x": -1.2425402151,
				"y": -1.0092631852,
				"z": 0.7036603704,
				"element": "C" 
			},
			{
				"x": -1.4164059774,
				"y": -0.7838450246,
				"z": -0.6695121983,
				"element": "C" 
			},
			{
				"x": -0.4396554165,
				"y": -0.1252379913,
				"z": -1.4086239498,
				"element": "C" 
			},
			{
				"x": 0.7228775183,
				"y": 0.3450993475,
				"z": -0.784173138,
				"element": "C" 
			},
			{
				"x": 0.9020082702,
				"y": 0.1159869213,
				"z": 0.5874829098,
				"element": "C" 
			},
			{
				"x": -0.0709704739,
				"y": -0.5548211192,
				"z": 1.3238873371,
				"element": "C" 
			},
			{
				"x": 1.7382752137,
				"y": 1.0433271227,
				"z": -1.6401505587,
				"element": "C" 
			},
			{
				"x": 2.6369290004,
				"y": 1.8383517833,
				"z": -1.0009883732,
				"element": "O" 
			},
			{
				"x": 1.7810845265,
				"y": 0.9273783133,
				"z": -2.8421780131,
				"element": "O" 
			},
			{
				"x": -3.8152712339,
				"y": 1.2739643164,
				"z": 1.2880826332,
				"element": "H" 
			},
			{
				"x": -5.1363938116,
				"y": 0.2388704387,
				"z": 1.3484051133,
				"element": "H" 
			},
			{
				"x": -2.9712887948,
				"y": -2.3121423269,
				"z": 0.8752246362,
				"element": "H" 
			},
			{
				"x": -1.8721480661,
				"y": -2.372623854,
				"z": 2.2686289258,
				"element": "H" 
			},
			{
				"x": -2.3220787312,
				"y": -1.1302485423,
				"z": -1.1584102128,
				"element": "H" 
			},
			{
				"x": -0.5560143282,
				"y": 0.0373591986,
				"z": -2.4745630821,
				"element": "H" 
			},
			{
				"x": 1.8171075004,
				"y": 0.4204664857,
				"z": 1.0896302687,
				"element": "H" 
			},
			{
				"x": 0.0753632329,
				"y": -0.723929307,
				"z": 2.3858304119,
				"element": "H" 
			},
			{
				"x": 2.3804527086,
				"y": 1.9608257197,
				"z": -0.0765616359,
				"element": "H" 
			}
		],
		 "valence_orbital": [ 
			{
				"type": "occ",
				"energy": -0.31373,
				"method": "rhf"
			},
			{
				"type": "occ",
				"energy": -0.30663,
				"method": "rhf"
			},
			{
				"type": "occ",
				"energy": -0.28238,
				"method": "rhf"
			},
			{
				"type": "occ",
				"energy": -0.27894,
				"method": "rhf"
			},
			{
				"type": "occ",
				"energy": -0.26849,
				"method": "rhf"
			},
			{
				"type": "unocc",
				"energy": -0.06478,
				"method": "rhf"
			},
			{
				"type": "unocc",
				"energy": -0.03125,
				"method": "rhf"
			},
			{
				"type": "unocc",
				"energy": 0.02779,
				"method": "rhf"
			},
			{
				"type": "unocc",
				"energy": 0.04517,
				"method": "rhf"
			},
			{
				"type": "unocc",
				"energy": 0.05648,
				"method": "rhf"
			}
		],
		"cosmo_sigma_profile": { 
			"-0.025": 0.0,
			"-0.024": 0.0,
			"-0.023": 0.0,
			"-0.022": 0.0,
			"-0.021": 0.0,
			"-0.02": 0.0,
			"-0.019": 0.39394143475,
			"-0.018": 0.717815635474,
			"-0.017": 1.00694107167,
			"-0.016": 0.780315476462,
			"-0.015": 2.6885757647,
			"-0.014": 3.59366296875,
			"-0.013": 2.99132735373,
			"-0.012": 3.68858023502,
			"-0.011": 3.81473087982,
			"-0.01": 2.60162087745,
			"-0.009": 6.48625391364,
			"-0.008": 8.75364661562,
			"-0.007": 12.186203052,
			"-0.006": 11.9984052574,
			"-0.005": 10.8192333621,
			"-0.004": 11.4934064643,
			"-0.003": 9.35471415263,
			"-0.002": 9.01719731009,
			"-0.001": 9.35314853586,
			"0.0": 9.16632223096,
			"0.001": 11.2090214455,
			"0.002": 14.5229603944,
			"0.003": 11.8999914496,
			"0.004": 5.61185751505,
			"0.005": 5.95403589082,
			"0.006": 5.4243572302,
			"0.007": 6.35874225539,
			"0.008": 6.48106774707,
			"0.009": 7.26247745163,
			"0.01": 11.5675131477,
			"0.011": 15.796009071,
			"0.012": 8.4342124624,
			"0.013": 1.37330562886,
			"0.014": 0.0100058229856,
			"0.015": 0.0,
			"0.016": 0.0,
			"0.017": 0.0,
			"0.018": 0.0,
			"0.019": 0.0,
			"0.02": 0.0,
			"0.021": 0.0,
			"0.022": 0.0,
			"0.023": 0.0,
			"0.024": 0.0,
			"0.025": 0.0
		}
	}
}
