{
	 "smiles": "COC1=CC2=C(OCC(=O)N2)C=C1", 
	 "Tm": 431.15, 
	 "num_atms": 22, 
	 "gaussian": { 
		 "optdone": 1, 
		 "sigma_profile": "yes", 
		 "theory": "DFT", 
		 "functional": "B3LYP", 
		 "basiset": "6-31G**", 
		 "properties": { 
			 "R2extent": 3623.9513, 
			 "electric_dipole_moment_norm": 3.05671010892, 
			 "electric_quadrupole_moment_norm": 15.8464180287, 
			 "total_energy": -628.794471532, 
			 "HOMO_LUMO_gap": 0.18539, 
			 "cosmo_polarized_energy": -13.52, 
			 "cosmo_cavitation_energy": 25.92, 
			 "cosmo_dispersion_energy": -19.66, 
			 "cosmo_repulsion_energy": 1.55, 
			 "cosmo_total_nonelectrostatic_energy": 7.82, 
			 "SMD_solvation_energy": 6.01 
		},
		"coords": [
			{
				"x": -0.2904307078,
				"y": 3.948647696,
				"z": -0.5701834912,
				"element": "C" 
			},
			{
				"x": -0.2688805289,
				"y": 3.1537224849,
				"z": 0.6028395389,
				"element": "O" 
			},
			{
				"x": 0.4002294562,
				"y": 1.9629869889,
				"z": 0.5670238659,
				"element": "C" 
			},
			{
				"x": 1.0798870465,
				"y": 1.4759187713,
				"z": -0.5550098786,
				"element": "C" 
			},
			{
				"x": 1.7279371086,
				"y": 0.2374553159,
				"z": -0.4821686703,
				"element": "C" 
			},
			{
				"x": 1.7157353453,
				"y": -0.5023380526,
				"z": 0.7056764968,
				"element": "C" 
			},
			{
				"x": 2.3114427429,
				"y": -1.7417415701,
				"z": 0.7565384956,
				"element": "O" 
			},
			{
				"x": 3.4616694643,
				"y": -1.8818295859,
				"z": -0.075421964,
				"element": "C" 
			},
			{
				"x": 3.2580033906,
				"y": -1.3760139104,
				"z": -1.5023128646,
				"element": "C" 
			},
			{
				"x": 3.853177197,
				"y": -1.8389661312,
				"z": -2.4607079917,
				"element": "O" 
			},
			{
				"x": 2.3877961065,
				"y": -0.3182414699,
				"z": -1.5922069363,
				"element": "N" 
			},
			{
				"x": 1.0431512366,
				"y": -0.0054391706,
				"z": 1.8202610435,
				"element": "C" 
			},
			{
				"x": 0.3813428877,
				"y": 1.2160775961,
				"z": 1.7539913491,
				"element": "C" 
			},
			{
				"x": -0.7728987156,
				"y": 3.4258472674,
				"z": -1.4067693661,
				"element": "H" 
			},
			{
				"x": -0.8718830129,
				"y": 4.8379814003,
				"z": -0.3223859693,
				"element": "H" 
			},
			{
				"x": 0.7201311702,
				"y": 4.2535215122,
				"z": -0.8733968937,
				"element": "H" 
			},
			{
				"x": 1.1133711519,
				"y": 2.0342255445,
				"z": -1.4835241528,
				"element": "H" 
			},
			{
				"x": 4.3212949121,
				"y": -1.3467497161,
				"z": 0.3594174362,
				"element": "H" 
			},
			{
				"x": 3.6990127047,
				"y": -2.9448016953,
				"z": -0.1188826751,
				"element": "H" 
			},
			{
				"x": 2.2718483463,
				"y": 0.0899104661,
				"z": -2.5107196802,
				"element": "H" 
			},
			{
				"x": 1.0380993098,
				"y": -0.5960696634,
				"z": 2.7303000315,
				"element": "H" 
			},
			{
				"x": -0.1494366119,
				"y": 1.6148959219,
				"z": 2.6111422764,
				"element": "H" 
			}
		],
		 "valence_orbital": [ 
			{
				"type": "occ",
				"energy": -0.31878,
				"method": "rhf"
			},
			{
				"type": "occ",
				"energy": -0.2908,
				"method": "rhf"
			},
			{
				"type": "occ",
				"energy": -0.25943,
				"method": "rhf"
			},
			{
				"type": "occ",
				"energy": -0.24049,
				"method": "rhf"
			},
			{
				"type": "occ",
				"energy": -0.20324,
				"method": "rhf"
			},
			{
				"type": "unocc",
				"energy": -0.01785,
				"method": "rhf"
			},
			{
				"type": "unocc",
				"energy": 0.00469,
				"method": "rhf"
			},
			{
				"type": "unocc",
				"energy": 0.0341,
				"method": "rhf"
			},
			{
				"type": "unocc",
				"energy": 0.07477,
				"method": "rhf"
			},
			{
				"type": "unocc",
				"energy": 0.08708,
				"method": "rhf"
			}
		],
		"cosmo_sigma_profile": { 
			"-0.025": 0.0,
			"-0.024": 0.0,
			"-0.023": 0.0,
			"-0.022": 0.0,
			"-0.021": 0.0,
			"-0.02": 0.0,
			"-0.019": 0.0,
			"-0.018": 0.0,
			"-0.017": 0.0,
			"-0.016": 0.314088550985,
			"-0.015": 1.49588939216,
			"-0.014": 0.897327548052,
			"-0.013": 1.0883721199,
			"-0.012": 1.07390669437,
			"-0.011": 1.6516233224,
			"-0.01": 1.3616164602,
			"-0.009": 0.856045770605,
			"-0.008": 3.05774078387,
			"-0.007": 8.44399834913,
			"-0.006": 12.5933817389,
			"-0.005": 18.4269306051,
			"-0.004": 15.9323113173,
			"-0.003": 16.3466206458,
			"-0.002": 11.1547701597,
			"-0.001": 9.4492811624,
			"0.0": 11.0877505377,
			"0.001": 9.52346181083,
			"0.002": 10.2597824774,
			"0.003": 13.876955747,
			"0.004": 15.985060794,
			"0.005": 8.80400061078,
			"0.006": 3.54621093771,
			"0.007": 3.5539342168,
			"0.008": 3.99238903228,
			"0.009": 4.49051407979,
			"0.01": 4.22451289821,
			"0.011": 2.93701976975,
			"0.012": 4.24074856482,
			"0.013": 4.93041216668,
			"0.014": 0.779858931335,
			"0.015": 0.0,
			"0.016": 0.0,
			"0.017": 0.0,
			"0.018": 0.0,
			"0.019": 0.0,
			"0.02": 0.0,
			"0.021": 0.0,
			"0.022": 0.0,
			"0.023": 0.0,
			"0.024": 0.0,
			"0.025": 0.0
		}
	}
}
