{
	 "smiles": "COC1=C(CNCCO)C=CC=C1", 
	 "Tm": 339.15, 
	 "num_atms": 28, 
	 "gaussian": { 
		 "optdone": 1, 
		 "sigma_profile": "yes", 
		 "theory": "DFT", 
		 "functional": "B3LYP", 
		 "basiset": "6-31G**", 
		 "properties": { 
			 "R2extent": 2855.6699, 
			 "electric_dipole_moment_norm": 3.28567125714, 
			 "electric_quadrupole_moment_norm": 16.6092477698, 
			 "total_energy": -595.270498356, 
			 "HOMO_LUMO_gap": 0.20632, 
			 "cosmo_polarized_energy": -11.93, 
			 "cosmo_cavitation_energy": 30.21, 
			 "cosmo_dispersion_energy": -21.12, 
			 "cosmo_repulsion_energy": 1.68, 
			 "cosmo_total_nonelectrostatic_energy": 10.78, 
			 "SMD_solvation_energy": 3.5 
		},
		"coords": [
			{
				"x": 1.7170143536,
				"y": 0.6164682258,
				"z": 2.2620980318,
				"element": "C" 
			},
			{
				"x": 0.6008036404,
				"y": 0.1619958024,
				"z": 1.5137198835,
				"element": "O" 
			},
			{
				"x": 0.3801334247,
				"y": 0.7043039328,
				"z": 0.2718437092,
				"element": "C" 
			},
			{
				"x": -0.8076827657,
				"y": 0.3030419358,
				"z": -0.3759357014,
				"element": "C" 
			},
			{
				"x": -1.7744907616,
				"y": -0.6889429342,
				"z": 0.2579700996,
				"element": "C" 
			},
			{
				"x": -1.6436517323,
				"y": -2.0905112159,
				"z": -0.1722634681,
				"element": "N" 
			},
			{
				"x": -0.3709543854,
				"y": -2.7444452488,
				"z": 0.135429198,
				"element": "C" 
			},
			{
				"x": -0.3043115017,
				"y": -3.208924306,
				"z": 1.5933789411,
				"element": "C" 
			},
			{
				"x": 0.9394120443,
				"y": -3.8368621443,
				"z": 1.8859880449,
				"element": "O" 
			},
			{
				"x": -1.0747066736,
				"y": 0.8350211568,
				"z": -1.6398781542,
				"element": "C" 
			},
			{
				"x": -0.2058203861,
				"y": 1.7319092203,
				"z": -2.2654039612,
				"element": "C" 
			},
			{
				"x": 0.9607563534,
				"y": 2.1144498565,
				"z": -1.6084108685,
				"element": "C" 
			},
			{
				"x": 1.256933307,
				"y": 1.6075985749,
				"z": -0.3405442036,
				"element": "C" 
			},
			{
				"x": 1.6765369695,
				"y": 1.6999064084,
				"z": 2.4313837887,
				"element": "H" 
			},
			{
				"x": 1.6662412874,
				"y": 0.1011328188,
				"z": 3.2227339022,
				"element": "H" 
			},
			{
				"x": 2.6666629945,
				"y": 0.3685599861,
				"z": 1.7698670239,
				"element": "H" 
			},
			{
				"x": -1.6805658806,
				"y": -0.6491636495,
				"z": 1.3450033099,
				"element": "H" 
			},
			{
				"x": -2.7975508649,
				"y": -0.3788168561,
				"z": 0.0164218627,
				"element": "H" 
			},
			{
				"x": -1.8054789105,
				"y": -2.137215129,
				"z": -1.1741479031,
				"element": "H" 
			},
			{
				"x": 0.5084984693,
				"y": -2.1075876478,
				"z": -0.0730447094,
				"element": "H" 
			},
			{
				"x": -0.2777070837,
				"y": -3.6277755408,
				"z": -0.5054011461,
				"element": "H" 
			},
			{
				"x": -1.0804677105,
				"y": -3.9575193301,
				"z": 1.7756377725,
				"element": "H" 
			},
			{
				"x": -0.4915087944,
				"y": -2.3646029106,
				"z": 2.2723870187,
				"element": "H" 
			},
			{
				"x": 1.6285633861,
				"y": -3.1701092425,
				"z": 1.7688056746,
				"element": "H" 
			},
			{
				"x": -1.9961464075,
				"y": 0.5429449249,
				"z": -2.1402841989,
				"element": "H" 
			},
			{
				"x": -0.442530534,
				"y": 2.1308312172,
				"z": -3.2469343582,
				"element": "H" 
			},
			{
				"x": 1.6487917472,
				"y": 2.8143906382,
				"z": -2.0739763011,
				"element": "H" 
			},
			{
				"x": 2.167726415,
				"y": 1.9191214567,
				"z": 0.1569567125,
				"element": "H" 
			}
		],
		 "valence_orbital": [ 
			{
				"type": "occ",
				"energy": -0.31254,
				"method": "rhf"
			},
			{
				"type": "occ",
				"energy": -0.25781,
				"method": "rhf"
			},
			{
				"type": "occ",
				"energy": -0.25072,
				"method": "rhf"
			},
			{
				"type": "occ",
				"energy": -0.22516,
				"method": "rhf"
			},
			{
				"type": "occ",
				"energy": -0.21266,
				"method": "rhf"
			},
			{
				"type": "unocc",
				"energy": -0.00634,
				"method": "rhf"
			},
			{
				"type": "unocc",
				"energy": 0.00903,
				"method": "rhf"
			},
			{
				"type": "unocc",
				"energy": 0.06901,
				"method": "rhf"
			},
			{
				"type": "unocc",
				"energy": 0.0872,
				"method": "rhf"
			},
			{
				"type": "unocc",
				"energy": 0.09147,
				"method": "rhf"
			}
		],
		"cosmo_sigma_profile": { 
			"-0.025": 0.0,
			"-0.024": 0.0,
			"-0.023": 0.0,
			"-0.022": 0.0,
			"-0.021": 0.0,
			"-0.02": 0.0,
			"-0.019": 0.0,
			"-0.018": 0.0,
			"-0.017": 0.0,
			"-0.016": 0.0,
			"-0.015": 0.0119177776169,
			"-0.014": 0.435942238412,
			"-0.013": 0.707478728334,
			"-0.012": 0.805640656667,
			"-0.011": 1.00736285312,
			"-0.01": 1.23121396648,
			"-0.009": 1.56527329983,
			"-0.008": 1.91949200877,
			"-0.007": 2.98520950529,
			"-0.006": 8.49698210978,
			"-0.005": 20.546943057,
			"-0.004": 21.4302342248,
			"-0.003": 27.4295871208,
			"-0.002": 21.1592357952,
			"-0.001": 16.6742980101,
			"0.0": 18.3822424965,
			"0.001": 14.6753461927,
			"0.002": 11.2196965854,
			"0.003": 11.5442614855,
			"0.004": 10.6267797836,
			"0.005": 10.905003993,
			"0.006": 10.0722496164,
			"0.007": 5.17618873896,
			"0.008": 1.92358068521,
			"0.009": 1.66759714722,
			"0.01": 2.0183525194,
			"0.011": 2.12795426952,
			"0.012": 1.85344173312,
			"0.013": 2.26262578799,
			"0.014": 2.77876654406,
			"0.015": 2.0769767377,
			"0.016": 0.401483376616,
			"0.017": 0.396075149359,
			"0.018": 0.158272454406,
			"0.019": 0.0,
			"0.02": 0.0,
			"0.021": 0.0,
			"0.022": 0.0,
			"0.023": 0.0,
			"0.024": 0.0,
			"0.025": 0.0
		}
	}
}
