{
	 "smiles": "ICCCI", 
	 "Tm": 253.15, 
	 "num_atms": 11, 
	 "gaussian": { 
		 "optdone": 1, 
		 "sigma_profile": "no", 
		 "theory": "DFT", 
		 "functional": "B3LYP", 
		 "basiset": "6-31G**", 
		 "properties": { 
			 "R2extent": 1050.6229, 
			 "electric_dipole_moment_norm": 2.2889531166, 
			 "electric_quadrupole_moment_norm": 8.18637871895, 
			 "total_energy": -140.723043367, 
			 "HOMO_LUMO_gap": 0.21295, 
			 "cosmo_polarized_energy": -199240.69, 
			 "cosmo_cavitation_energy": 19.96, 
			 "cosmo_dispersion_energy": -17.49, 
			 "cosmo_repulsion_energy": 1.44, 
			 "cosmo_total_nonelectrostatic_energy": 3.9, 
			 "SMD_solvation_energy": 1.53 
		},
		"coords": [
			{
				"x": -1.2685737739,
				"y": 1.4412599293,
				"z": -3.6238545329,
				"element": "I" 
			},
			{
				"x": -1.4127302894,
				"y": 1.8729707356,
				"z": -1.4806584958,
				"element": "C" 
			},
			{
				"x": -0.0604620439,
				"y": 2.053022907,
				"z": -0.804615278,
				"element": "C" 
			},
			{
				"x": 0.8470668796,
				"y": 0.8312329092,
				"z": -0.7630966907,
				"element": "C" 
			},
			{
				"x": 0.0441284006,
				"y": -0.8143593263,
				"z": 0.4401834064,
				"element": "I" 
			},
			{
				"x": -1.9773912065,
				"y": 1.0387216768,
				"z": -1.065972046,
				"element": "H" 
			},
			{
				"x": -2.0081673457,
				"y": 2.7828943393,
				"z": -1.4306802124,
				"element": "H" 
			},
			{
				"x": -0.254778983,
				"y": 2.4010666636,
				"z": 0.2186090982,
				"element": "H" 
			},
			{
				"x": 0.4981760036,
				"y": 2.8532312069,
				"z": -1.30807852,
				"element": "H" 
			},
			{
				"x": 1.8040229779,
				"y": 1.0605497914,
				"z": -0.2976407786,
				"element": "H" 
			},
			{
				"x": 1.0102093807,
				"y": 0.4004091673,
				"z": -1.7502959502,
				"element": "H" 
			}
		],
		 "valence_orbital": [ 
			{
				"type": "occ",
				"energy": -0.33481,
				"method": "rhf"
			},
			{
				"type": "occ",
				"energy": -0.26912,
				"method": "rhf"
			},
			{
				"type": "occ",
				"energy": -0.26458,
				"method": "rhf"
			},
			{
				"type": "occ",
				"energy": -0.26237,
				"method": "rhf"
			},
			{
				"type": "occ",
				"energy": -0.26216,
				"method": "rhf"
			},
			{
				"type": "unocc",
				"energy": -0.04921,
				"method": "rhf"
			},
			{
				"type": "unocc",
				"energy": -0.04549,
				"method": "rhf"
			},
			{
				"type": "unocc",
				"energy": 0.02921,
				"method": "rhf"
			},
			{
				"type": "unocc",
				"energy": 0.03247,
				"method": "rhf"
			},
			{
				"type": "unocc",
				"energy": 0.03483,
				"method": "rhf"
			}
		],
		"cosmo_sigma_profile": { 
			"0.0": 0.0,
			"0.0": 0.0,
			"0.0": 0.0,
			"0.0": 0.0,
			"0.0": 0.0,
			"0.0": 0.0,
			"0.0": 0.0,
			"0.0": 0.0,
			"0.0": 0.0,
			"0.0": 0.0,
			"0.0": 0.0,
			"0.0": 0.0,
			"0.0": 0.0,
			"0.0": 0.0,
			"0.0": 0.0,
			"0.0": 0.0,
			"0.0": 0.0,
			"0.0": 0.0,
			"0.0": 0.0,
			"0.0": 0.0,
			"0.0": 0.0,
			"0.0": 0.0,
			"0.0": 0.0,
			"0.0": 0.0,
			"0.0": 0.0,
			"0.0": 0.0,
			"0.0": 0.0,
			"0.0": 0.0,
			"0.0": 0.0,
			"0.0": 0.0,
			"0.0": 0.0,
			"0.0": 0.0,
			"0.0": 0.0,
			"0.0": 0.0,
			"0.0": 0.0,
			"0.0": 0.0,
			"0.0": 0.0,
			"0.0": 0.0,
			"0.0": 0.0,
			"0.0": 0.0,
			"0.0": 0.0,
			"0.0": 0.0,
			"0.0": 0.0,
			"0.0": 0.0,
			"0.0": 0.0,
			"0.0": 0.0,
			"0.0": 0.0,
			"0.0": 0.0,
			"0.0": 0.0,
			"0.0": 0.0,
			"0.0": 0.0
		}
	}
}
