{
	 "smiles": "OC(=O)C1CCCN(C1)C(=O)C1=CC=NC=C1", 
	 "Tm": 532.15, 
	 "num_atms": 31, 
	 "gaussian": { 
		 "optdone": 1, 
		 "sigma_profile": "yes", 
		 "theory": "DFT", 
		 "functional": "B3LYP", 
		 "basiset": "6-31G**", 
		 "properties": { 
			 "R2extent": 4686.6505, 
			 "electric_dipole_moment_norm": 3.57099828339, 
			 "electric_quadrupole_moment_norm": 7.89097841335, 
			 "total_energy": -800.915121843, 
			 "HOMO_LUMO_gap": 0.1981, 
			 "cosmo_polarized_energy": -17.75, 
			 "cosmo_cavitation_energy": 33.77, 
			 "cosmo_dispersion_energy": -23.62, 
			 "cosmo_repulsion_energy": 1.83, 
			 "cosmo_total_nonelectrostatic_energy": 11.97, 
			 "SMD_solvation_energy": 5.47 
		},
		"coords": [
			{
				"x": -3.6013881555,
				"y": -0.8460646498,
				"z": 1.349781569,
				"element": "O" 
			},
			{
				"x": -2.4058860766,
				"y": -1.4167694575,
				"z": 1.6257129771,
				"element": "C" 
			},
			{
				"x": -1.9601104324,
				"y": -1.4773642141,
				"z": 2.7518176613,
				"element": "O" 
			},
			{
				"x": -1.7465636679,
				"y": -1.9615362818,
				"z": 0.3652452692,
				"element": "C" 
			},
			{
				"x": -0.44540455,
				"y": -2.7215909557,
				"z": 0.67794419,
				"element": "C" 
			},
			{
				"x": 0.6996606859,
				"y": -1.7706216138,
				"z": 1.0614584685,
				"element": "C" 
			},
			{
				"x": 0.858256014,
				"y": -0.646552273,
				"z": 0.0318541713,
				"element": "C" 
			},
			{
				"x": -0.4192914343,
				"y": 0.0442987624,
				"z": -0.1836772854,
				"element": "N" 
			},
			{
				"x": -1.4926049941,
				"y": -0.8300057556,
				"z": -0.6556291716,
				"element": "C" 
			},
			{
				"x": -0.5750844291,
				"y": 1.4046195837,
				"z": -0.3357517811,
				"element": "C" 
			},
			{
				"x": -1.5473436498,
				"y": 1.8999020472,
				"z": -0.899221773,
				"element": "O" 
			},
			{
				"x": 0.4629393547,
				"y": 2.3145065449,
				"z": 0.2730202035,
				"element": "C" 
			},
			{
				"x": 0.8970292173,
				"y": 3.423339393,
				"z": -0.4599156304,
				"element": "C" 
			},
			{
				"x": 1.7904340855,
				"y": 4.3128231344,
				"z": 0.1344663944,
				"element": "C" 
			},
			{
				"x": 2.2451195955,
				"y": 4.1868928417,
				"z": 1.3889751455,
				"element": "N" 
			},
			{
				"x": 1.7999762228,
				"y": 3.1398389066,
				"z": 2.0934829764,
				"element": "C" 
			},
			{
				"x": 0.9216829236,
				"y": 2.1794866664,
				"z": 1.5882406791,
				"element": "C" 
			},
			{
				"x": -3.9485142401,
				"y": -0.5102838053,
				"z": 2.1932540285,
				"element": "H" 
			},
			{
				"x": -2.4779387327,
				"y": -2.6433555478,
				"z": -0.0880898526,
				"element": "H" 
			},
			{
				"x": -0.1640081098,
				"y": -3.2896990064,
				"z": -0.2184362207,
				"element": "H" 
			},
			{
				"x": -0.6173236932,
				"y": -3.4457853658,
				"z": 1.4791948967,
				"element": "H" 
			},
			{
				"x": 1.6413643532,
				"y": -2.3266371045,
				"z": 1.1332864203,
				"element": "H" 
			},
			{
				"x": 0.4945653546,
				"y": -1.3397504108,
				"z": 2.0458841231,
				"element": "H" 
			},
			{
				"x": 1.6149676342,
				"y": 0.071595617,
				"z": 0.3446836517,
				"element": "H" 
			},
			{
				"x": 1.1888582088,
				"y": -1.0700840059,
				"z": -0.930772259,
				"element": "H" 
			},
			{
				"x": -2.3802311628,
				"y": -0.2208379239,
				"z": -0.816551813,
				"element": "H" 
			},
			{
				"x": -1.2087137979,
				"y": -1.281373256,
				"z": -1.6181165645,
				"element": "H" 
			},
			{
				"x": 0.5321730046,
				"y": 3.585531078,
				"z": -1.4683979294,
				"element": "H" 
			},
			{
				"x": 2.155039448,
				"y": 5.1742124275,
				"z": -0.4223062364,
				"element": "H" 
			},
			{
				"x": 2.1617204571,
				"y": 3.0612571112,
				"z": 3.1173351176,
				"element": "H" 
			},
			{
				"x": 0.5868205666,
				"y": 1.3593075136,
				"z": 2.2157285737,
				"element": "H" 
			}
		],
		 "valence_orbital": [ 
			{
				"type": "occ",
				"energy": -0.28244,
				"method": "rhf"
			},
			{
				"type": "occ",
				"energy": -0.26852,
				"method": "rhf"
			},
			{
				"type": "occ",
				"energy": -0.26177,
				"method": "rhf"
			},
			{
				"type": "occ",
				"energy": -0.25524,
				"method": "rhf"
			},
			{
				"type": "occ",
				"energy": -0.24431,
				"method": "rhf"
			},
			{
				"type": "unocc",
				"energy": -0.04621,
				"method": "rhf"
			},
			{
				"type": "unocc",
				"energy": -0.01646,
				"method": "rhf"
			},
			{
				"type": "unocc",
				"energy": -0.00253,
				"method": "rhf"
			},
			{
				"type": "unocc",
				"energy": 0.03214,
				"method": "rhf"
			},
			{
				"type": "unocc",
				"energy": 0.07075,
				"method": "rhf"
			}
		],
		"cosmo_sigma_profile": { 
			"-0.025": 0.0,
			"-0.024": 0.0,
			"-0.023": 0.0,
			"-0.022": 0.0,
			"-0.021": 0.0,
			"-0.02": 0.0,
			"-0.019": 0.00518954939364,
			"-0.018": 0.821254235922,
			"-0.017": 0.966070539291,
			"-0.016": 1.0184608826,
			"-0.015": 0.551758110858,
			"-0.014": 0.564134371793,
			"-0.013": 0.563776012359,
			"-0.012": 0.632726069337,
			"-0.011": 1.11267046603,
			"-0.01": 0.857079005714,
			"-0.009": 0.522823823289,
			"-0.008": 0.545258741903,
			"-0.007": 5.35305893014,
			"-0.006": 15.0316171582,
			"-0.005": 22.5656408028,
			"-0.004": 27.5170100055,
			"-0.003": 30.4743440754,
			"-0.002": 22.0879694867,
			"-0.001": 18.4937289031,
			"0.0": 16.2779204653,
			"0.001": 16.5868317666,
			"0.002": 14.0000824636,
			"0.003": 8.46875860315,
			"0.004": 7.76303040509,
			"0.005": 5.87636685386,
			"0.006": 4.59437950211,
			"0.007": 6.22701927791,
			"0.008": 5.64720060537,
			"0.009": 4.63298911393,
			"0.01": 4.33945111496,
			"0.011": 6.20403788969,
			"0.012": 6.58499307328,
			"0.013": 5.6891003157,
			"0.014": 2.26305334525,
			"0.015": 0.735928338244,
			"0.016": 0.966450141463,
			"0.017": 0.0440291082328,
			"0.018": 0.0,
			"0.019": 0.0,
			"0.02": 0.0,
			"0.021": 0.0,
			"0.022": 0.0,
			"0.023": 0.0,
			"0.024": 0.0,
			"0.025": 0.0
		}
	}
}
