{
	 "smiles": "NCC1=CC=C(C=C1)C(N)=O", 
	 "Tm": 415.15, 
	 "num_atms": 21, 
	 "gaussian": { 
		 "optdone": 1, 
		 "sigma_profile": "yes", 
		 "theory": "DFT", 
		 "functional": "B3LYP", 
		 "basiset": "6-31G**", 
		 "properties": { 
			 "R2extent": 2366.1002, 
			 "electric_dipole_moment_norm": 3.53694742115, 
			 "electric_quadrupole_moment_norm": 21.6382968639, 
			 "total_energy": -495.621399095, 
			 "HOMO_LUMO_gap": 0.20415, 
			 "cosmo_polarized_energy": -15.7, 
			 "cosmo_cavitation_energy": 24.8, 
			 "cosmo_dispersion_energy": -18.45, 
			 "cosmo_repulsion_energy": 1.51, 
			 "cosmo_total_nonelectrostatic_energy": 7.86, 
			 "SMD_solvation_energy": 4.17 
		},
		"coords": [
			{
				"x": -3.2671436539,
				"y": -1.2119419671,
				"z": -1.5181869484,
				"element": "N" 
			},
			{
				"x": -1.93752883,
				"y": -1.7838691042,
				"z": -1.2914292547,
				"element": "C" 
			},
			{
				"x": -1.0870571491,
				"y": -0.9077655334,
				"z": -0.3902131132,
				"element": "C" 
			},
			{
				"x": -0.11162614,
				"y": -1.4791774008,
				"z": 0.4383388471,
				"element": "C" 
			},
			{
				"x": 0.6988365451,
				"y": -0.6836594144,
				"z": 1.2420822653,
				"element": "C" 
			},
			{
				"x": 0.5560486925,
				"y": 0.7097717454,
				"z": 1.2347629772,
				"element": "C" 
			},
			{
				"x": -0.4318946758,
				"y": 1.2835654042,
				"z": 0.4217763422,
				"element": "C" 
			},
			{
				"x": -1.2430191324,
				"y": 0.4840942633,
				"z": -0.3816405813,
				"element": "C" 
			},
			{
				"x": 1.4635779849,
				"y": 1.5041677687,
				"z": 2.128165957,
				"element": "C" 
			},
			{
				"x": 1.5478180273,
				"y": 2.8535949157,
				"z": 1.8684978937,
				"element": "N" 
			},
			{
				"x": 2.0825403966,
				"y": 0.989581453,
				"z": 3.0523006934,
				"element": "O" 
			},
			{
				"x": -3.8084814522,
				"y": -1.2420809159,
				"z": -0.6573630419,
				"element": "H" 
			},
			{
				"x": -3.7720847199,
				"y": -1.7671792165,
				"z": -2.2033070489,
				"element": "H" 
			},
			{
				"x": -1.9462362109,
				"y": -2.8067594347,
				"z": -0.8766780537,
				"element": "H" 
			},
			{
				"x": -1.4468876664,
				"y": -1.8610785481,
				"z": -2.2719836076,
				"element": "H" 
			},
			{
				"x": 0.0089239434,
				"y": -2.5599949467,
				"z": 0.4566251878,
				"element": "H" 
			},
			{
				"x": 1.4477421638,
				"y": -1.1192458324,
				"z": 1.8949443075,
				"element": "H" 
			},
			{
				"x": -0.5995077077,
				"y": 2.3570170103,
				"z": 0.4366263261,
				"element": "H" 
			},
			{
				"x": -2.0178430717,
				"y": 0.9250353422,
				"z": -0.9999598383,
				"element": "H" 
			},
			{
				"x": 1.3347569198,
				"y": 3.2074674893,
				"z": 0.9489919757,
				"element": "H" 
			},
			{
				"x": 2.2572657366,
				"y": 3.3458569222,
				"z": 2.3922487148,
				"element": "H" 
			}
		],
		 "valence_orbital": [ 
			{
				"type": "occ",
				"energy": -0.26759,
				"method": "rhf"
			},
			{
				"type": "occ",
				"energy": -0.25283,
				"method": "rhf"
			},
			{
				"type": "occ",
				"energy": -0.2522,
				"method": "rhf"
			},
			{
				"type": "occ",
				"energy": -0.24558,
				"method": "rhf"
			},
			{
				"type": "occ",
				"energy": -0.2361,
				"method": "rhf"
			},
			{
				"type": "unocc",
				"energy": -0.03195,
				"method": "rhf"
			},
			{
				"type": "unocc",
				"energy": -0.00354,
				"method": "rhf"
			},
			{
				"type": "unocc",
				"energy": 0.05919,
				"method": "rhf"
			},
			{
				"type": "unocc",
				"energy": 0.08131,
				"method": "rhf"
			},
			{
				"type": "unocc",
				"energy": 0.08716,
				"method": "rhf"
			}
		],
		"cosmo_sigma_profile": { 
			"-0.025": 0.0,
			"-0.024": 0.0,
			"-0.023": 0.0,
			"-0.022": 0.0,
			"-0.021": 0.0,
			"-0.02": 0.0,
			"-0.019": 0.0,
			"-0.018": 0.0,
			"-0.017": 0.0,
			"-0.016": 0.0,
			"-0.015": 0.0,
			"-0.014": 0.91246656599,
			"-0.013": 2.56460918373,
			"-0.012": 2.46714010452,
			"-0.011": 2.49595861807,
			"-0.01": 4.15819329161,
			"-0.009": 5.08779377919,
			"-0.008": 5.53348936569,
			"-0.007": 4.44816843506,
			"-0.006": 7.3523997219,
			"-0.005": 9.49899448191,
			"-0.004": 14.5981367167,
			"-0.003": 14.6054357043,
			"-0.002": 14.3492258445,
			"-0.001": 10.492835257,
			"0.0": 9.85766037511,
			"0.001": 10.8296362157,
			"0.002": 10.6454010553,
			"0.003": 11.9664676333,
			"0.004": 12.0959644827,
			"0.005": 10.9585530763,
			"0.006": 3.32102675223,
			"0.007": 3.15338192288,
			"0.008": 3.09323927624,
			"0.009": 2.8210437146,
			"0.01": 2.10924488173,
			"0.011": 2.12678932506,
			"0.012": 2.52660727129,
			"0.013": 4.4963141971,
			"0.014": 5.22117000107,
			"0.015": 1.20939256541,
			"0.016": 0.458644428105,
			"0.017": 0.183407032781,
			"0.018": 0.0,
			"0.019": 0.0,
			"0.02": 0.0,
			"0.021": 0.0,
			"0.022": 0.0,
			"0.023": 0.0,
			"0.024": 0.0,
			"0.025": 0.0
		}
	}
}
