{
	 "smiles": "CCCCCCCCCCCCOC(=O)C1=C(C=CC=C1)C(=O)OCCCCCCCCCCCC", 
	 "Tm": 295.15, 
	 "num_atms": 90, 
	 "gaussian": { 
		 "optdone": 1, 
		 "sigma_profile": "yes", 
		 "theory": "DFT", 
		 "functional": "B3LYP", 
		 "basiset": "6-31G**", 
		 "properties": { 
			 "R2extent": 35532.3935, 
			 "electric_dipole_moment_norm": 2.19701777417, 
			 "electric_quadrupole_moment_norm": 20.3098674068, 
			 "total_energy": -1552.94307685, 
			 "HOMO_LUMO_gap": 0.20446, 
			 "cosmo_polarized_energy": -13.26, 
			 "cosmo_cavitation_energy": 88.68, 
			 "cosmo_dispersion_energy": -57.12, 
			 "cosmo_repulsion_energy": 4.58, 
			 "cosmo_total_nonelectrostatic_energy": 36.14, 
			 "SMD_solvation_energy": 13.15 
		},
		"coords": [
			{
				"x": 8.2229391911,
				"y": -2.1301985778,
				"z": -3.0307426133,
				"element": "C" 
			},
			{
				"x": 7.2801838173,
				"y": -0.9298988733,
				"z": -2.8984460451,
				"element": "C" 
			},
			{
				"x": 6.8489445166,
				"y": -0.3447603818,
				"z": -4.2497769991,
				"element": "C" 
			},
			{
				"x": 5.9024037325,
				"y": 0.8560926754,
				"z": -4.1161182324,
				"element": "C" 
			},
			{
				"x": 5.5224408398,
				"y": 1.5291203674,
				"z": -5.4467995241,
				"element": "C" 
			},
			{
				"x": 4.7515344696,
				"y": 0.6494867249,
				"z": -6.4495727243,
				"element": "C" 
			},
			{
				"x": 3.4027345968,
				"y": 0.094973681,
				"z": -5.9585518738,
				"element": "C" 
			},
			{
				"x": 2.3532096433,
				"y": 1.1633932708,
				"z": -5.6217810874,
				"element": "C" 
			},
			{
				"x": 0.99293495,
				"y": 0.5715499129,
				"z": -5.2302238796,
				"element": "C" 
			},
			{
				"x": -0.0589072209,
				"y": 1.6322257636,
				"z": -4.882228679,
				"element": "C" 
			},
			{
				"x": -1.4149353658,
				"y": 1.0304599377,
				"z": -4.4933024054,
				"element": "C" 
			},
			{
				"x": -2.484331803,
				"y": 2.0629284526,
				"z": -4.1498562465,
				"element": "C" 
			},
			{
				"x": -2.1082095977,
				"y": 2.8850389424,
				"z": -3.0155355146,
				"element": "O" 
			},
			{
				"x": -2.3950924256,
				"y": 2.3883417615,
				"z": -1.7931198809,
				"element": "C" 
			},
			{
				"x": -2.9311127172,
				"y": 1.3137520036,
				"z": -1.6064562671,
				"element": "O" 
			},
			{
				"x": -1.9296067642,
				"y": 3.2991081116,
				"z": -0.6999499282,
				"element": "C" 
			},
			{
				"x": -2.5805733108,
				"y": 3.3031514629,
				"z": 0.549471989,
				"element": "C" 
			},
			{
				"x": -2.0393810388,
				"y": 4.0419748095,
				"z": 1.6053536613,
				"element": "C" 
			},
			{
				"x": -0.8788552492,
				"y": 4.7956623824,
				"z": 1.4236787007,
				"element": "C" 
			},
			{
				"x": -0.2485547185,
				"y": 4.8135254137,
				"z": 0.1799428163,
				"element": "C" 
			},
			{
				"x": -0.7718098975,
				"y": 4.0657516106,
				"z": -0.8748293939,
				"element": "C" 
			},
			{
				"x": -3.914195549,
				"y": 2.6378632615,
				"z": 0.7374441799,
				"element": "C" 
			},
			{
				"x": -4.8693831524,
				"y": 2.8196534372,
				"z": 0.0142224197,
				"element": "O" 
			},
			{
				"x": -3.9273431323,
				"y": 1.8763345659,
				"z": 1.8513178046,
				"element": "O" 
			},
			{
				"x": -5.1644457105,
				"y": 1.1678244254,
				"z": 2.1265127912,
				"element": "C" 
			},
			{
				"x": -5.2832625256,
				"y": -0.1331577295,
				"z": 1.3349085592,
				"element": "C" 
			},
			{
				"x": -4.3204315961,
				"y": -1.2622976051,
				"z": 1.7398624125,
				"element": "C" 
			},
			{
				"x": -2.837423175,
				"y": -1.0094826564,
				"z": 1.4195127406,
				"element": "C" 
			},
			{
				"x": -1.9398949071,
				"y": -2.2436509387,
				"z": 1.6066600255,
				"element": "C" 
			},
			{
				"x": -1.8147842122,
				"y": -2.7391152097,
				"z": 3.0551584879,
				"element": "C" 
			},
			{
				"x": -0.8422553194,
				"y": -3.9178176199,
				"z": 3.202878964,
				"element": "C" 
			},
			{
				"x": -0.7589350046,
				"y": -4.5113333934,
				"z": 4.6205711779,
				"element": "C" 
			},
			{
				"x": -0.2382834541,
				"y": -3.5662519519,
				"z": 5.7185834145,
				"element": "C" 
			},
			{
				"x": 1.2110010967,
				"y": -3.0991175815,
				"z": 5.5163291259,
				"element": "C" 
			},
			{
				"x": 1.7863357891,
				"y": -2.2871915088,
				"z": 6.689127854,
				"element": "C" 
			},
			{
				"x": 1.1067334317,
				"y": -0.9313431639,
				"z": 6.9165215472,
				"element": "C" 
			},
			{
				"x": 8.5123912144,
				"y": -2.5232011217,
				"z": -2.0505239593,
				"element": "H" 
			},
			{
				"x": 9.1410357674,
				"y": -1.856243889,
				"z": -3.5631948526,
				"element": "H" 
			},
			{
				"x": 7.7499903428,
				"y": -2.9461878296,
				"z": -3.5892563228,
				"element": "H" 
			},
			{
				"x": 6.386917299,
				"y": -1.2269556499,
				"z": -2.3318994022,
				"element": "H" 
			},
			{
				"x": 7.7674666167,
				"y": -0.1449973912,
				"z": -2.3038580219,
				"element": "H" 
			},
			{
				"x": 7.7425713446,
				"y": -0.0408190588,
				"z": -4.8145261118,
				"element": "H" 
			},
			{
				"x": 6.3712016007,
				"y": -1.1358664598,
				"z": -4.8432800869,
				"element": "H" 
			},
			{
				"x": 4.9946885137,
				"y": 0.5423646654,
				"z": -3.5825504009,
				"element": "H" 
			},
			{
				"x": 6.3779976952,
				"y": 1.6092553042,
				"z": -3.4729733147,
				"element": "H" 
			},
			{
				"x": 6.439914267,
				"y": 1.8835387211,
				"z": -5.9364109417,
				"element": "H" 
			},
			{
				"x": 4.9359638323,
				"y": 2.4307729542,
				"z": -5.2289983501,
				"element": "H" 
			},
			{
				"x": 4.579131826,
				"y": 1.2383837523,
				"z": -7.3609766269,
				"element": "H" 
			},
			{
				"x": 5.3851541349,
				"y": -0.1922752858,
				"z": -6.7561177141,
				"element": "H" 
			},
			{
				"x": 3.558867901,
				"y": -0.5465420106,
				"z": -5.0805885692,
				"element": "H" 
			},
			{
				"x": 2.9969591674,
				"y": -0.5640608013,
				"z": -6.7382553861,
				"element": "H" 
			},
			{
				"x": 2.7144565814,
				"y": 1.7987121973,
				"z": -4.8021162434,
				"element": "H" 
			},
			{
				"x": 2.2240740237,
				"y": 1.8296352273,
				"z": -6.4872379628,
				"element": "H" 
			},
			{
				"x": 0.6194141284,
				"y": -0.0554141092,
				"z": -6.052624045,
				"element": "H" 
			},
			{
				"x": 1.1237281697,
				"y": -0.1032286188,
				"z": -4.3722638009,
				"element": "H" 
			},
			{
				"x": 0.3112313207,
				"y": 2.2555311439,
				"z": -4.0581624954,
				"element": "H" 
			},
			{
				"x": -0.19317664,
				"y": 2.3083805724,
				"z": -5.7389015817,
				"element": "H" 
			},
			{
				"x": -1.3013188821,
				"y": 0.3474299601,
				"z": -3.6435529507,
				"element": "H" 
			},
			{
				"x": -1.8039086119,
				"y": 0.4265104211,
				"z": -5.3249114885,
				"element": "H" 
			},
			{
				"x": -3.4366931963,
				"y": 1.5779648462,
				"z": -3.9249429596,
				"element": "H" 
			},
			{
				"x": -2.6215367736,
				"y": 2.7797697509,
				"z": -4.9640585403,
				"element": "H" 
			},
			{
				"x": -2.5423384924,
				"y": 4.0338644366,
				"z": 2.566578943,
				"element": "H" 
			},
			{
				"x": -0.4728379909,
				"y": 5.3695933192,
				"z": 2.2513900938,
				"element": "H" 
			},
			{
				"x": 0.6530277336,
				"y": 5.400157944,
				"z": 0.0313120202,
				"element": "H" 
			},
			{
				"x": -0.27811984,
				"y": 4.0582333208,
				"z": -1.8398999438,
				"element": "H" 
			},
			{
				"x": -5.1334316233,
				"y": 0.9804154207,
				"z": 3.2036439962,
				"element": "H" 
			},
			{
				"x": -5.9997451393,
				"y": 1.8334433402,
				"z": 1.8956918853,
				"element": "H" 
			},
			{
				"x": -5.1758308338,
				"y": 0.0978583295,
				"z": 0.2694058846,
				"element": "H" 
			},
			{
				"x": -6.3155416283,
				"y": -0.4829798049,
				"z": 1.4732487474,
				"element": "H" 
			},
			{
				"x": -4.6390077842,
				"y": -2.175266919,
				"z": 1.2172783773,
				"element": "H" 
			},
			{
				"x": -4.4466539174,
				"y": -1.4711591967,
				"z": 2.8113018991,
				"element": "H" 
			},
			{
				"x": -2.7560071216,
				"y": -0.6607175696,
				"z": 0.3824922472,
				"element": "H" 
			},
			{
				"x": -2.4596020141,
				"y": -0.1877707933,
				"z": 2.0393583792,
				"element": "H" 
			},
			{
				"x": -2.3119443804,
				"y": -3.0641111351,
				"z": 0.975364359,
				"element": "H" 
			},
			{
				"x": -0.9353863736,
				"y": -2.0065636727,
				"z": 1.2296925462,
				"element": "H" 
			},
			{
				"x": -1.4892489229,
				"y": -1.9021006379,
				"z": 3.6880263798,
				"element": "H" 
			},
			{
				"x": -2.8002464996,
				"y": -3.0418323046,
				"z": 3.4348853948,
				"element": "H" 
			},
			{
				"x": 0.1564469545,
				"y": -3.6071960803,
				"z": 2.8674322379,
				"element": "H" 
			},
			{
				"x": -1.1503941996,
				"y": -4.7163727262,
				"z": 2.5140118872,
				"element": "H" 
			},
			{
				"x": -0.1162093239,
				"y": -5.4021761402,
				"z": 4.5909918987,
				"element": "H" 
			},
			{
				"x": -1.7568623905,
				"y": -4.8687014098,
				"z": 4.910082564,
				"element": "H" 
			},
			{
				"x": -0.9032762897,
				"y": -2.6979563377,
				"z": 5.8016671077,
				"element": "H" 
			},
			{
				"x": -0.3064108061,
				"y": -4.0883470153,
				"z": 6.6833762969,
				"element": "H" 
			},
			{
				"x": 1.8449381431,
				"y": -3.982097985,
				"z": 5.3537973321,
				"element": "H" 
			},
			{
				"x": 1.2866544221,
				"y": -2.4992817626,
				"z": 4.5991373095,
				"element": "H" 
			},
			{
				"x": 2.8567129444,
				"y": -2.1220122954,
				"z": 6.5104092319,
				"element": "H" 
			},
			{
				"x": 1.7218371562,
				"y": -2.8862001207,
				"z": 7.608163146,
				"element": "H" 
			},
			{
				"x": 0.050403215,
				"y": -1.0429999141,
				"z": 7.1815669988,
				"element": "H" 
			},
			{
				"x": 1.1573849347,
				"y": -0.3093129682,
				"z": 6.0149582832,
				"element": "H" 
			},
			{
				"x": 1.5912801975,
				"y": -0.3784623956,
				"z": 7.7282492493,
				"element": "H" 
			}
		],
		 "valence_orbital": [ 
			{
				"type": "occ",
				"energy": -0.28373,
				"method": "rhf"
			},
			{
				"type": "occ",
				"energy": -0.2762,
				"method": "rhf"
			},
			{
				"type": "occ",
				"energy": -0.27463,
				"method": "rhf"
			},
			{
				"type": "occ",
				"energy": -0.2636,
				"method": "rhf"
			},
			{
				"type": "occ",
				"energy": -0.25471,
				"method": "rhf"
			},
			{
				"type": "unocc",
				"energy": -0.05025,
				"method": "rhf"
			},
			{
				"type": "unocc",
				"energy": -0.02332,
				"method": "rhf"
			},
			{
				"type": "unocc",
				"energy": 0.03115,
				"method": "rhf"
			},
			{
				"type": "unocc",
				"energy": 0.04675,
				"method": "rhf"
			},
			{
				"type": "unocc",
				"energy": 0.07599,
				"method": "rhf"
			}
		],
		"cosmo_sigma_profile": { 
			"-0.025": 0.0,
			"-0.024": 0.0,
			"-0.023": 0.0,
			"-0.022": 0.0,
			"-0.021": 0.0,
			"-0.02": 0.0,
			"-0.019": 0.0,
			"-0.018": 0.0,
			"-0.017": 0.0,
			"-0.016": 0.0,
			"-0.015": 0.0,
			"-0.014": 0.0,
			"-0.013": 0.0,
			"-0.012": 0.0,
			"-0.011": 0.0,
			"-0.01": 0.0,
			"-0.009": 0.0,
			"-0.008": 0.0598917063661,
			"-0.007": 4.79674964568,
			"-0.006": 10.2609498537,
			"-0.005": 17.6751922896,
			"-0.004": 22.591672061,
			"-0.003": 32.1004163033,
			"-0.002": 77.8359653333,
			"-0.001": 132.182096712,
			"0.0": 136.272548734,
			"0.001": 113.999700575,
			"0.002": 64.7920389532,
			"0.003": 20.4082592948,
			"0.004": 10.8217368126,
			"0.005": 9.79200877414,
			"0.006": 7.26205659038,
			"0.007": 3.99991416796,
			"0.008": 4.26250578443,
			"0.009": 3.55402750144,
			"0.01": 3.60912685605,
			"0.011": 4.41736643314,
			"0.012": 3.5400711274,
			"0.013": 0.0582548628316,
			"0.014": 0.0,
			"0.015": 0.0,
			"0.016": 0.0,
			"0.017": 0.0,
			"0.018": 0.0,
			"0.019": 0.0,
			"0.02": 0.0,
			"0.021": 0.0,
			"0.022": 0.0,
			"0.023": 0.0,
			"0.024": 0.0,
			"0.025": 0.0
		}
	}
}
