{
	 "smiles": "N[C@@H](CC1=CC(O)=CC=C1)C(O)=O", 
	 "Tm": 539.15, 
	 "num_atms": 24, 
	 "gaussian": { 
		 "optdone": 1, 
		 "sigma_profile": "yes", 
		 "theory": "DFT", 
		 "functional": "B3LYP", 
		 "basiset": "6-31G**", 
		 "properties": { 
			 "R2extent": 4151.4324, 
			 "electric_dipole_moment_norm": 4.61836809815, 
			 "electric_quadrupole_moment_norm": 22.6385340599, 
			 "total_energy": -630.023323627, 
			 "HOMO_LUMO_gap": 0.21651, 
			 "cosmo_polarized_energy": -20.08, 
			 "cosmo_cavitation_energy": 28.11, 
			 "cosmo_dispersion_energy": -20.07, 
			 "cosmo_repulsion_energy": 1.61, 
			 "cosmo_total_nonelectrostatic_energy": 9.65, 
			 "SMD_solvation_energy": 5.74 
		},
		"coords": [
			{
				"x": 0.197603652,
				"y": 0.2404599028,
				"z": 1.2850792495,
				"element": "N" 
			},
			{
				"x": 1.6479447383,
				"y": 0.4950342547,
				"z": 1.2911312358,
				"element": "C" 
			},
			{
				"x": 2.2304903164,
				"y": 1.1376720924,
				"z": 0.0152779194,
				"element": "C" 
			},
			{
				"x": 2.081668709,
				"y": 0.2562006566,
				"z": -1.2051046566,
				"element": "C" 
			},
			{
				"x": 1.0625416119,
				"y": 0.4910985183,
				"z": -2.136872178,
				"element": "C" 
			},
			{
				"x": 0.9011400705,
				"y": -0.3443722405,
				"z": -3.2484213998,
				"element": "C" 
			},
			{
				"x": -0.0753069188,
				"y": -0.1427118782,
				"z": -4.182234315,
				"element": "O" 
			},
			{
				"x": 1.755593976,
				"y": -1.4354949627,
				"z": -3.4351349868,
				"element": "C" 
			},
			{
				"x": 2.7690414452,
				"y": -1.6705257367,
				"z": -2.5088591787,
				"element": "C" 
			},
			{
				"x": 2.9377138717,
				"y": -0.8358600565,
				"z": -1.4023605028,
				"element": "C" 
			},
			{
				"x": 2.0029438816,
				"y": 1.3263814687,
				"z": 2.545028819,
				"element": "C" 
			},
			{
				"x": 1.0591820298,
				"y": 1.2834829994,
				"z": 3.4966098257,
				"element": "O" 
			},
			{
				"x": 3.0443723857,
				"y": 1.928045709,
				"z": 2.6686632139,
				"element": "O" 
			},
			{
				"x": -0.0201658865,
				"y": -0.6048790243,
				"z": 0.7661328964,
				"element": "H" 
			},
			{
				"x": -0.2934741751,
				"y": 1.0023525851,
				"z": 0.8210031409,
				"element": "H" 
			},
			{
				"x": 2.1369249173,
				"y": -0.4764134108,
				"z": 1.4412958523,
				"element": "H" 
			},
			{
				"x": 1.7358482451,
				"y": 2.1036126953,
				"z": -0.1486596874,
				"element": "H" 
			},
			{
				"x": 3.2830131117,
				"y": 1.35909985,
				"z": 0.213286595,
				"element": "H" 
			},
			{
				"x": 0.3989984254,
				"y": 1.3455255754,
				"z": -2.0075426396,
				"element": "H" 
			},
			{
				"x": -0.5684898966,
				"y": 0.6576366856,
				"z": -3.9602696982,
				"element": "H" 
			},
			{
				"x": 1.6170922926,
				"y": -2.0709444959,
				"z": -4.3032619476,
				"element": "H" 
			},
			{
				"x": 3.4406338298,
				"y": -2.511442875,
				"z": -2.6568605472,
				"element": "H" 
			},
			{
				"x": 3.7416036552,
				"y": -1.0252383064,
				"z": -0.6960602361,
				"element": "H" 
			},
			{
				"x": 0.3270857121,
				"y": 0.7550799935,
				"z": 3.098833226,
				"element": "H" 
			}
		],
		 "valence_orbital": [ 
			{
				"type": "occ",
				"energy": -0.3025,
				"method": "rhf"
			},
			{
				"type": "occ",
				"energy": -0.29519,
				"method": "rhf"
			},
			{
				"type": "occ",
				"energy": -0.26166,
				"method": "rhf"
			},
			{
				"type": "occ",
				"energy": -0.25233,
				"method": "rhf"
			},
			{
				"type": "occ",
				"energy": -0.22883,
				"method": "rhf"
			},
			{
				"type": "unocc",
				"energy": -0.01232,
				"method": "rhf"
			},
			{
				"type": "unocc",
				"energy": -0.00115,
				"method": "rhf"
			},
			{
				"type": "unocc",
				"energy": 0.01527,
				"method": "rhf"
			},
			{
				"type": "unocc",
				"energy": 0.05893,
				"method": "rhf"
			},
			{
				"type": "unocc",
				"energy": 0.06586,
				"method": "rhf"
			}
		],
		"cosmo_sigma_profile": { 
			"-0.025": 0.0,
			"-0.024": 0.0,
			"-0.023": 0.0,
			"-0.022": 0.0,
			"-0.021": 0.0,
			"-0.02": 0.0,
			"-0.019": 0.0,
			"-0.018": 0.0959994076328,
			"-0.017": 0.930137629219,
			"-0.016": 1.11398718332,
			"-0.015": 1.31545660947,
			"-0.014": 0.71352005354,
			"-0.013": 1.41890590294,
			"-0.012": 1.35954254367,
			"-0.011": 3.3413912685,
			"-0.01": 5.0344872056,
			"-0.009": 4.38896136672,
			"-0.008": 4.94610776966,
			"-0.007": 8.99296058481,
			"-0.006": 12.4638042881,
			"-0.005": 16.0133619518,
			"-0.004": 13.5512682313,
			"-0.003": 14.2375538497,
			"-0.002": 11.496865211,
			"-0.001": 10.0389062059,
			"0.0": 9.38044086598,
			"0.001": 8.58297313622,
			"0.002": 8.49694193191,
			"0.003": 10.4965193557,
			"0.004": 12.7609787566,
			"0.005": 12.0139636866,
			"0.006": 11.061477295,
			"0.007": 4.94110187996,
			"0.008": 3.78139251672,
			"0.009": 4.69533950698,
			"0.01": 5.94686342047,
			"0.011": 7.26518149721,
			"0.012": 6.83143095422,
			"0.013": 2.94713561476,
			"0.014": 0.712229493693,
			"0.015": 0.0,
			"0.016": 0.0,
			"0.017": 0.0,
			"0.018": 0.0,
			"0.019": 0.0,
			"0.02": 0.0,
			"0.021": 0.0,
			"0.022": 0.0,
			"0.023": 0.0,
			"0.024": 0.0,
			"0.025": 0.0
		}
	}
}
