{
	 "smiles": "CC12CC(O)C3C(CCC4CC(O)CCC34C)C1(O)CCC2C1=COC(=O)C=C1", 
	 "Tm": 527.15, 
	 "num_atms": 63, 
	 "gaussian": { 
		 "optdone": 1, 
		 "sigma_profile": "yes", 
		 "theory": "DFT", 
		 "functional": "B3LYP", 
		 "basiset": "6-31G**", 
		 "properties": { 
			 "R2extent": 13339.6503, 
			 "electric_dipole_moment_norm": 5.31091278219, 
			 "electric_quadrupole_moment_norm": 46.2168852485, 
			 "total_energy": -1311.13622699, 
			 "HOMO_LUMO_gap": 0.1697, 
			 "cosmo_polarized_energy": -22.18, 
			 "cosmo_cavitation_energy": 53.22, 
			 "cosmo_dispersion_energy": -37.2, 
			 "cosmo_repulsion_energy": 2.71, 
			 "cosmo_total_nonelectrostatic_energy": 18.73, 
			 "SMD_solvation_energy": 9.23 
		},
		"coords": [
			{
				"x": 0.2215236513,
				"y": 1.8829968087,
				"z": -0.86315729,
				"element": "C" 
			},
			{
				"x": -0.5790725346,
				"y": 0.5633045088,
				"z": -1.0125152942,
				"element": "C" 
			},
			{
				"x": -1.4812010257,
				"y": 0.3758280599,
				"z": 0.2301553113,
				"element": "C" 
			},
			{
				"x": -0.870694169,
				"y": -0.5202240213,
				"z": 1.3447940812,
				"element": "C" 
			},
			{
				"x": -1.4532766601,
				"y": -0.1415166169,
				"z": 2.5997627271,
				"element": "O" 
			},
			{
				"x": 0.6676895896,
				"y": -0.3935146973,
				"z": 1.4460327189,
				"element": "C" 
			},
			{
				"x": 1.3425794398,
				"y": -0.7707101161,
				"z": 0.0654370919,
				"element": "C" 
			},
			{
				"x": 2.0347280897,
				"y": -2.1436921159,
				"z": 0.0977476226,
				"element": "C" 
			},
			{
				"x": 3.1225333686,
				"y": -2.2394743902,
				"z": 1.1839893139,
				"element": "C" 
			},
			{
				"x": 2.8444896944,
				"y": -1.3670053259,
				"z": 2.4355464751,
				"element": "C" 
			},
			{
				"x": 3.66685088,
				"y": -0.0581119956,
				"z": 2.4002509237,
				"element": "C" 
			},
			{
				"x": 3.5156795506,
				"y": 0.7734590621,
				"z": 3.6740225099,
				"element": "C" 
			},
			{
				"x": 4.1313902566,
				"y": 0.0234880182,
				"z": 4.7268231261,
				"element": "O" 
			},
			{
				"x": 2.0349266321,
				"y": 1.0459774143,
				"z": 3.9603634633,
				"element": "C" 
			},
			{
				"x": 1.2041367422,
				"y": -0.2435865876,
				"z": 3.9737906736,
				"element": "C" 
			},
			{
				"x": 1.3228707777,
				"y": -1.1197880841,
				"z": 2.6887491,
				"element": "C" 
			},
			{
				"x": 0.6331779161,
				"y": -2.4643816454,
				"z": 3.01714435,
				"element": "C" 
			},
			{
				"x": 0.3618085913,
				"y": -0.662038919,
				"z": -1.1268680262,
				"element": "C" 
			},
			{
				"x": -0.5232380802,
				"y": -1.8120399604,
				"z": -1.1509241867,
				"element": "O" 
			},
			{
				"x": 0.9540245686,
				"y": -0.5284793457,
				"z": -2.5381031417,
				"element": "C" 
			},
			{
				"x": -0.2765262747,
				"y": -0.1463874842,
				"z": -3.3911201913,
				"element": "C" 
			},
			{
				"x": -1.2581309119,
				"y": 0.6414795762,
				"z": -2.4511180488,
				"element": "C" 
			},
			{
				"x": -2.7160325568,
				"y": 0.24154497,
				"z": -2.5951822617,
				"element": "C" 
			},
			{
				"x": -3.1725520784,
				"y": -1.0330958416,
				"z": -2.4641532254,
				"element": "C" 
			},
			{
				"x": -4.4635564119,
				"y": -1.3883225052,
				"z": -2.616661689,
				"element": "O" 
			},
			{
				"x": -5.4839407996,
				"y": -0.4635204893,
				"z": -2.929107639,
				"element": "C" 
			},
			{
				"x": -6.6094290021,
				"y": -0.8889758351,
				"z": -3.0467141036,
				"element": "O" 
			},
			{
				"x": -5.025378152,
				"y": 0.9031242419,
				"z": -3.0666905679,
				"element": "C" 
			},
			{
				"x": -3.714974837,
				"y": 1.2286106358,
				"z": -2.9061772689,
				"element": "C" 
			},
			{
				"x": 0.8820414145,
				"y": 2.0686951825,
				"z": -1.7155443045,
				"element": "H" 
			},
			{
				"x": -0.4841012373,
				"y": 2.7189497905,
				"z": -0.8121258336,
				"element": "H" 
			},
			{
				"x": 0.8273943686,
				"y": 1.9187006902,
				"z": 0.0437968062,
				"element": "H" 
			},
			{
				"x": -1.6840386,
				"y": 1.3512019523,
				"z": 0.6872343269,
				"element": "H" 
			},
			{
				"x": -2.4487147987,
				"y": -0.0484228778,
				"z": -0.0541217577,
				"element": "H" 
			},
			{
				"x": -1.1214504593,
				"y": -1.5636439043,
				"z": 1.1298749225,
				"element": "H" 
			},
			{
				"x": -2.4046672813,
				"y": -0.2954949637,
				"z": 2.5323911607,
				"element": "H" 
			},
			{
				"x": 0.85461677,
				"y": 0.6740131721,
				"z": 1.5989568798,
				"element": "H" 
			},
			{
				"x": 2.128677065,
				"y": -0.0296923303,
				"z": -0.1238840841,
				"element": "H" 
			},
			{
				"x": 2.4819063967,
				"y": -2.3556914761,
				"z": -0.882036327,
				"element": "H" 
			},
			{
				"x": 1.2809254718,
				"y": -2.9196922565,
				"z": 0.2671436367,
				"element": "H" 
			},
			{
				"x": 3.2367606576,
				"y": -3.2892062715,
				"z": 1.4757540462,
				"element": "H" 
			},
			{
				"x": 4.0884785239,
				"y": -1.9432859201,
				"z": 0.7569127134,
				"element": "H" 
			},
			{
				"x": 3.2112245393,
				"y": -1.9132134874,
				"z": 3.3121510079,
				"element": "H" 
			},
			{
				"x": 4.726766412,
				"y": -0.3072068156,
				"z": 2.2707989736,
				"element": "H" 
			},
			{
				"x": 3.3856493033,
				"y": 0.5675066505,
				"z": 1.5439853452,
				"element": "H" 
			},
			{
				"x": 4.0482130321,
				"y": 1.7306145366,
				"z": 3.5445242118,
				"element": "H" 
			},
			{
				"x": 3.9593327582,
				"y": 0.4853159428,
				"z": 5.5575091869,
				"element": "H" 
			},
			{
				"x": 1.65708931,
				"y": 1.7530824805,
				"z": 3.2104159588,
				"element": "H" 
			},
			{
				"x": 1.9326945597,
				"y": 1.561396535,
				"z": 4.9263111083,
				"element": "H" 
			},
			{
				"x": 0.154206903,
				"y": -0.0095245867,
				"z": 4.1544427696,
				"element": "H" 
			},
			{
				"x": 1.5523567718,
				"y": -0.8554553438,
				"z": 4.8154493846,
				"element": "H" 
			},
			{
				"x": -0.3975715258,
				"y": -2.2951075817,
				"z": 3.3384076532,
				"element": "H" 
			},
			{
				"x": 0.6131345044,
				"y": -3.1622827858,
				"z": 2.1762558773,
				"element": "H" 
			},
			{
				"x": 1.1626977254,
				"y": -2.9592873139,
				"z": 3.8389330638,
				"element": "H" 
			},
			{
				"x": 0.0177006973,
				"y": -2.5874727399,
				"z": -1.3481560671,
				"element": "H" 
			},
			{
				"x": 1.7262453093,
				"y": 0.2467454893,
				"z": -2.5654747746,
				"element": "H" 
			},
			{
				"x": 1.4246536164,
				"y": -1.455558908,
				"z": -2.8845659095,
				"element": "H" 
			},
			{
				"x": -0.7672198013,
				"y": -1.0505799869,
				"z": -3.757106681,
				"element": "H" 
			},
			{
				"x": -0.0029696575,
				"y": 0.4439582859,
				"z": -4.2706594685,
				"element": "H" 
			},
			{
				"x": -1.2299354928,
				"y": 1.6955900738,
				"z": -2.744695117,
				"element": "H" 
			},
			{
				"x": -2.5408577162,
				"y": -1.8732748025,
				"z": -2.2040155407,
				"element": "H" 
			},
			{
				"x": -5.7833358654,
				"y": 1.639675152,
				"z": -3.3054077114,
				"element": "H" 
			},
			{
				"x": -3.4036099296,
				"y": 2.2652010994,
				"z": -3.0194720109,
				"element": "H" 
			}
		],
		 "valence_orbital": [ 
			{
				"type": "occ",
				"energy": -0.26925,
				"method": "rhf"
			},
			{
				"type": "occ",
				"energy": -0.263,
				"method": "rhf"
			},
			{
				"type": "occ",
				"energy": -0.25823,
				"method": "rhf"
			},
			{
				"type": "occ",
				"energy": -0.25628,
				"method": "rhf"
			},
			{
				"type": "occ",
				"energy": -0.22336,
				"method": "rhf"
			},
			{
				"type": "unocc",
				"energy": -0.05366,
				"method": "rhf"
			},
			{
				"type": "unocc",
				"energy": 0.01207,
				"method": "rhf"
			},
			{
				"type": "unocc",
				"energy": 0.04874,
				"method": "rhf"
			},
			{
				"type": "unocc",
				"energy": 0.06059,
				"method": "rhf"
			},
			{
				"type": "unocc",
				"energy": 0.07144,
				"method": "rhf"
			}
		],
		"cosmo_sigma_profile": { 
			"-0.025": 0.0,
			"-0.024": 0.0,
			"-0.023": 0.0,
			"-0.022": 0.0,
			"-0.021": 0.0,
			"-0.02": 0.0,
			"-0.019": 0.0,
			"-0.018": 0.0,
			"-0.017": 0.0,
			"-0.016": 0.0,
			"-0.015": 0.668487108897,
			"-0.014": 1.84865602391,
			"-0.013": 3.01423928237,
			"-0.012": 2.41465597455,
			"-0.011": 1.97357141885,
			"-0.01": 3.37046108945,
			"-0.009": 3.12533799857,
			"-0.008": 3.50927889463,
			"-0.007": 8.05726527084,
			"-0.006": 8.79794781886,
			"-0.005": 9.34880465521,
			"-0.004": 18.1379009999,
			"-0.003": 36.1483307715,
			"-0.002": 51.7494467205,
			"-0.001": 54.9705936798,
			"0.0": 53.6165168151,
			"0.001": 47.9618525212,
			"0.002": 23.6139039587,
			"0.003": 12.0533635685,
			"0.004": 7.19303997281,
			"0.005": 6.30822132315,
			"0.006": 6.1970435704,
			"0.007": 6.60596995831,
			"0.008": 5.9420955591,
			"0.009": 6.01754405785,
			"0.01": 5.13719627294,
			"0.011": 3.99930503761,
			"0.012": 7.01187823633,
			"0.013": 8.07623371538,
			"0.014": 2.66984569335,
			"0.015": 0.88594927024,
			"0.016": 0.0209258882462,
			"0.017": 0.0,
			"0.018": 0.0,
			"0.019": 0.0,
			"0.02": 0.0,
			"0.021": 0.0,
			"0.022": 0.0,
			"0.023": 0.0,
			"0.024": 0.0,
			"0.025": 0.0
		}
	}
}
