{
	 "smiles": "BrC1=CC=C(OC2=CC=C(Br)C(Br)=C2)C=C1", 
	 "Tm": 321.65, 
	 "num_atms": 23, 
	 "gaussian": { 
		 "optdone": 1, 
		 "sigma_profile": "yes", 
		 "theory": "DFT", 
		 "functional": "B3LYP", 
		 "basiset": "6-31G**", 
		 "properties": { 
			 "R2extent": 14640.9532, 
			 "electric_dipole_moment_norm": 1.27767198842, 
			 "electric_quadrupole_moment_norm": 11.5868393913, 
			 "total_energy": -8250.91607321, 
			 "HOMO_LUMO_gap": 0.19438, 
			 "cosmo_polarized_energy": -6.87, 
			 "cosmo_cavitation_energy": 35.1, 
			 "cosmo_dispersion_energy": -26.6, 
			 "cosmo_repulsion_energy": 2.08, 
			 "cosmo_total_nonelectrostatic_energy": 10.58, 
			 "SMD_solvation_energy": 2.81 
		},
		"coords": [
			{
				"x": -2.8866398496,
				"y": 4.6888420842,
				"z": 1.2220932644,
				"element": "Br" 
			},
			{
				"x": -2.4379942779,
				"y": 2.9490320679,
				"z": 0.5730821051,
				"element": "C" 
			},
			{
				"x": -3.0849171445,
				"y": 1.8308726093,
				"z": 1.0977101048,
				"element": "C" 
			},
			{
				"x": -2.7496635233,
				"y": 0.5619462452,
				"z": 0.627593428,
				"element": "C" 
			},
			{
				"x": -1.7789510982,
				"y": 0.4232039215,
				"z": -0.3652977569,
				"element": "C" 
			},
			{
				"x": -1.5541027363,
				"y": -0.8538814934,
				"z": -0.845558569,
				"element": "O" 
			},
			{
				"x": -0.2757272441,
				"y": -1.293064046,
				"z": -1.104722912,
				"element": "C" 
			},
			{
				"x": 0.8351374256,
				"y": -0.9190364096,
				"z": -0.34298499,
				"element": "C" 
			},
			{
				"x": 2.0775490455,
				"y": -1.4715384987,
				"z": -0.6394768506,
				"element": "C" 
			},
			{
				"x": 2.2279768248,
				"y": -2.3957807863,
				"z": -1.6762554996,
				"element": "C" 
			},
			{
				"x": 3.9605272746,
				"y": -3.1023543928,
				"z": -2.0113378253,
				"element": "Br" 
			},
			{
				"x": 1.1065363187,
				"y": -2.768856236,
				"z": -2.4268095441,
				"element": "C" 
			},
			{
				"x": 1.2171311414,
				"y": -4.0195374306,
				"z": -3.8539225128,
				"element": "Br" 
			},
			{
				"x": -0.1412988585,
				"y": -2.2147605836,
				"z": -2.1432804098,
				"element": "C" 
			},
			{
				"x": -1.1402169731,
				"y": 1.5467526736,
				"z": -0.8973831682,
				"element": "C" 
			},
			{
				"x": -1.4687943405,
				"y": 2.8153198078,
				"z": -0.4206630545,
				"element": "C" 
			},
			{
				"x": -3.8383027509,
				"y": 1.9472955907,
				"z": 1.8682056187,
				"element": "H" 
			},
			{
				"x": -3.236414127,
				"y": -0.3252319273,
				"z": 1.018272073,
				"element": "H" 
			},
			{
				"x": 0.7322895982,
				"y": -0.2118995405,
				"z": 0.4718454586,
				"element": "H" 
			},
			{
				"x": 2.946306,
				"y": -1.1913248099,
				"z": -0.0549071336,
				"element": "H" 
			},
			{
				"x": -1.013630755,
				"y": -2.4957508655,
				"z": -2.7202276155,
				"element": "H" 
			},
			{
				"x": -0.3975500333,
				"y": 1.4336636183,
				"z": -1.6797332412,
				"element": "H" 
			},
			{
				"x": -0.9801499165,
				"y": 3.6933884017,
				"z": -0.8271409693,
				"element": "H" 
			}
		],
		 "valence_orbital": [ 
			{
				"type": "occ",
				"energy": -0.2807,
				"method": "rhf"
			},
			{
				"type": "occ",
				"energy": -0.27709,
				"method": "rhf"
			},
			{
				"type": "occ",
				"energy": -0.26229,
				"method": "rhf"
			},
			{
				"type": "occ",
				"energy": -0.25164,
				"method": "rhf"
			},
			{
				"type": "occ",
				"energy": -0.23045,
				"method": "rhf"
			},
			{
				"type": "unocc",
				"energy": -0.03607,
				"method": "rhf"
			},
			{
				"type": "unocc",
				"energy": -0.03043,
				"method": "rhf"
			},
			{
				"type": "unocc",
				"energy": -0.02459,
				"method": "rhf"
			},
			{
				"type": "unocc",
				"energy": -0.02306,
				"method": "rhf"
			},
			{
				"type": "unocc",
				"energy": -0.01235,
				"method": "rhf"
			}
		],
		"cosmo_sigma_profile": { 
			"-0.025": 0.0,
			"-0.024": 0.0,
			"-0.023": 0.0,
			"-0.022": 0.0,
			"-0.021": 0.0,
			"-0.02": 0.0,
			"-0.019": 0.0,
			"-0.018": 0.0,
			"-0.017": 0.0,
			"-0.016": 0.0,
			"-0.015": 0.0,
			"-0.014": 0.0,
			"-0.013": 0.0,
			"-0.012": 0.0,
			"-0.011": 0.0,
			"-0.01": 0.0,
			"-0.009": 0.037666881432,
			"-0.008": 4.71215411038,
			"-0.007": 11.9383786204,
			"-0.006": 12.6595132605,
			"-0.005": 13.7474051795,
			"-0.004": 16.0871426347,
			"-0.003": 15.4112570971,
			"-0.002": 16.1672664518,
			"-0.001": 19.0767261764,
			"0.0": 25.5173466198,
			"0.001": 39.7035201956,
			"0.002": 37.5172681819,
			"0.003": 33.5221091596,
			"0.004": 29.3973430604,
			"0.005": 13.5857190739,
			"0.006": 1.77378919301,
			"0.007": 1.33396407449,
			"0.008": 0.600216753328,
			"0.009": 0.0093192466327,
			"0.01": 0.0,
			"0.011": 0.0,
			"0.012": 0.0,
			"0.013": 0.0,
			"0.014": 0.0,
			"0.015": 0.0,
			"0.016": 0.0,
			"0.017": 0.0,
			"0.018": 0.0,
			"0.019": 0.0,
			"0.02": 0.0,
			"0.021": 0.0,
			"0.022": 0.0,
			"0.023": 0.0,
			"0.024": 0.0,
			"0.025": 0.0
		}
	}
}
