{
	 "smiles": "CC1=NC(C)=C(C#N)C(Cl)=C1", 
	 "Tm": 339.15, 
	 "num_atms": 18, 
	 "gaussian": { 
		 "optdone": 1, 
		 "sigma_profile": "yes", 
		 "theory": "DFT", 
		 "functional": "B3LYP", 
		 "basiset": "6-31G**", 
		 "properties": { 
			 "R2extent": 2914.0352, 
			 "electric_dipole_moment_norm": 4.30706631247, 
			 "electric_quadrupole_moment_norm": 14.516726103, 
			 "total_energy": -878.75864016, 
			 "HOMO_LUMO_gap": 0.20303, 
			 "cosmo_polarized_energy": -9.02, 
			 "cosmo_cavitation_energy": 24.94, 
			 "cosmo_dispersion_energy": -17.73, 
			 "cosmo_repulsion_energy": 1.44, 
			 "cosmo_total_nonelectrostatic_energy": 8.65, 
			 "SMD_solvation_energy": 4.09 
		},
		"coords": [
			{
				"x": 2.0376789249,
				"y": -1.302675309,
				"z": 0.2545806653,
				"element": "C" 
			},
			{
				"x": 0.9250124115,
				"y": -0.5734516866,
				"z": -0.4535824616,
				"element": "C" 
			},
			{
				"x": -0.2197026586,
				"y": -0.4003635497,
				"z": 0.2264525293,
				"element": "N" 
			},
			{
				"x": -1.2415949473,
				"y": 0.2395244761,
				"z": -0.3511153791,
				"element": "C" 
			},
			{
				"x": -2.4989937892,
				"y": 0.402904418,
				"z": 0.4610047792,
				"element": "C" 
			},
			{
				"x": -1.1597872573,
				"y": 0.7480546847,
				"z": -1.6709890109,
				"element": "C" 
			},
			{
				"x": -2.2768204249,
				"y": 1.4254019131,
				"z": -2.2483489313,
				"element": "C" 
			},
			{
				"x": -3.209988589,
				"y": 1.9702970935,
				"z": -2.6797102391,
				"element": "N" 
			},
			{
				"x": 0.0441097004,
				"y": 0.5603377633,
				"z": -2.372250935,
				"element": "C" 
			},
			{
				"x": 0.2219277581,
				"y": 1.1567296369,
				"z": -3.9989264558,
				"element": "Cl" 
			},
			{
				"x": 1.0973769562,
				"y": -0.1048908937,
				"z": -1.7630949325,
				"element": "C" 
			},
			{
				"x": 2.9311219165,
				"y": -0.6735193461,
				"z": 0.3352810694,
				"element": "H" 
			},
			{
				"x": 1.7117330032,
				"y": -1.584636363,
				"z": 1.2562786042,
				"element": "H" 
			},
			{
				"x": 2.3262549469,
				"y": -2.2067399844,
				"z": -0.2931229496,
				"element": "H" 
			},
			{
				"x": -2.750887451,
				"y": 1.4609765347,
				"z": 0.5904356579,
				"element": "H" 
			},
			{
				"x": -2.3542784896,
				"y": -0.0551916441,
				"z": 1.4395205152,
				"element": "H" 
			},
			{
				"x": -3.3541022251,
				"y": -0.0677177992,
				"z": -0.036012569,
				"element": "H" 
			},
			{
				"x": 2.0307402142,
				"y": -0.2560399446,
				"z": -2.2930999565,
				"element": "H" 
			}
		],
		 "valence_orbital": [ 
			{
				"type": "occ",
				"energy": -0.3442,
				"method": "rhf"
			},
			{
				"type": "occ",
				"energy": -0.33272,
				"method": "rhf"
			},
			{
				"type": "occ",
				"energy": -0.28794,
				"method": "rhf"
			},
			{
				"type": "occ",
				"energy": -0.27768,
				"method": "rhf"
			},
			{
				"type": "occ",
				"energy": -0.27001,
				"method": "rhf"
			},
			{
				"type": "unocc",
				"energy": -0.06698,
				"method": "rhf"
			},
			{
				"type": "unocc",
				"energy": -0.04442,
				"method": "rhf"
			},
			{
				"type": "unocc",
				"energy": 0.00932,
				"method": "rhf"
			},
			{
				"type": "unocc",
				"energy": 0.02669,
				"method": "rhf"
			},
			{
				"type": "unocc",
				"energy": 0.05629,
				"method": "rhf"
			}
		],
		"cosmo_sigma_profile": { 
			"-0.025": 0.0,
			"-0.024": 0.0,
			"-0.023": 0.0,
			"-0.022": 0.0,
			"-0.021": 0.0,
			"-0.02": 0.0,
			"-0.019": 0.0,
			"-0.018": 0.0,
			"-0.017": 0.0,
			"-0.016": 0.0,
			"-0.015": 0.0,
			"-0.014": 0.0,
			"-0.013": 0.0,
			"-0.012": 0.0,
			"-0.011": 0.0,
			"-0.01": 0.0,
			"-0.009": 0.703957332641,
			"-0.008": 1.75002661149,
			"-0.007": 2.12781399382,
			"-0.006": 8.45427828051,
			"-0.005": 14.6045401383,
			"-0.004": 15.2222834092,
			"-0.003": 20.4238334746,
			"-0.002": 27.6283564925,
			"-0.001": 26.7550685368,
			"0.0": 14.9786848335,
			"0.001": 9.25473760207,
			"0.002": 10.9467150432,
			"0.003": 13.0884239074,
			"0.004": 4.88965589089,
			"0.005": 3.5030171076,
			"0.006": 3.83060730995,
			"0.007": 4.14711941343,
			"0.008": 4.54991964579,
			"0.009": 4.22055783188,
			"0.01": 3.47120936503,
			"0.011": 3.33678930553,
			"0.012": 3.0459279172,
			"0.013": 1.3811553006,
			"0.014": 0.0906697250884,
			"0.015": 0.0,
			"0.016": 0.0,
			"0.017": 0.0,
			"0.018": 0.0,
			"0.019": 0.0,
			"0.02": 0.0,
			"0.021": 0.0,
			"0.022": 0.0,
			"0.023": 0.0,
			"0.024": 0.0,
			"0.025": 0.0
		}
	}
}
