{
	 "smiles": "CCC(C)(O)CC", 
	 "Tm": 249.35, 
	 "num_atms": 21, 
	 "gaussian": { 
		 "optdone": 1, 
		 "sigma_profile": "yes", 
		 "theory": "DFT", 
		 "functional": "B3LYP", 
		 "basiset": "6-31G**", 
		 "properties": { 
			 "R2extent": 917.6043, 
			 "electric_dipole_moment_norm": 1.45148802613, 
			 "electric_quadrupole_moment_norm": 5.29343719713, 
			 "total_energy": -312.309009413, 
			 "HOMO_LUMO_gap": 0.33015, 
			 "cosmo_polarized_energy": -5.61, 
			 "cosmo_cavitation_energy": 21.48, 
			 "cosmo_dispersion_energy": -15.63, 
			 "cosmo_repulsion_energy": 1.31, 
			 "cosmo_total_nonelectrostatic_energy": 7.16, 
			 "SMD_solvation_energy": 3.79 
		},
		"coords": [
			{
				"x": 2.1846457553,
				"y": -0.5106102741,
				"z": 0.7586801729,
				"element": "C" 
			},
			{
				"x": 1.079143376,
				"y": 0.5194779056,
				"z": 1.0226924732,
				"element": "C" 
			},
			{
				"x": -0.3811701497,
				"y": 0.1044865913,
				"z": 0.7239120614,
				"element": "C" 
			},
			{
				"x": -0.6901089925,
				"y": -1.3240502689,
				"z": 1.1954450985,
				"element": "C" 
			},
			{
				"x": -1.1488014261,
				"y": 1.0276453021,
				"z": 1.5233580186,
				"element": "O" 
			},
			{
				"x": -0.8011107157,
				"y": 0.3286684596,
				"z": -0.7490052635,
				"element": "C" 
			},
			{
				"x": -0.0693011317,
				"y": -0.4555212715,
				"z": -1.8443748743,
				"element": "C" 
			},
			{
				"x": 3.1604516539,
				"y": -0.0770763524,
				"z": 1.001503403,
				"element": "H" 
			},
			{
				"x": 2.2243307651,
				"y": -0.8381477561,
				"z": -0.2834519985,
				"element": "H" 
			},
			{
				"x": 2.0634762923,
				"y": -1.4025301427,
				"z": 1.381237534,
				"element": "H" 
			},
			{
				"x": 1.0995700528,
				"y": 0.7900089744,
				"z": 2.0844312882,
				"element": "H" 
			},
			{
				"x": 1.2896027325,
				"y": 1.4447982678,
				"z": 0.4721596912,
				"element": "H" 
			},
			{
				"x": -0.1391976933,
				"y": -2.0821801302,
				"z": 0.6312494104,
				"element": "H" 
			},
			{
				"x": -0.4406071959,
				"y": -1.4339102566,
				"z": 2.2551623371,
				"element": "H" 
			},
			{
				"x": -1.7596880576,
				"y": -1.5367247547,
				"z": 1.0773969915,
				"element": "H" 
			},
			{
				"x": -2.0832164291,
				"y": 0.8749341594,
				"z": 1.3268994806,
				"element": "H" 
			},
			{
				"x": -1.8754898168,
				"y": 0.0982864916,
				"z": -0.8166860476,
				"element": "H" 
			},
			{
				"x": -0.7078298176,
				"y": 1.4037601924,
				"z": -0.9441236271,
				"element": "H" 
			},
			{
				"x": -0.0953280322,
				"y": -1.5358281878,
				"z": -1.6681064215,
				"element": "H" 
			},
			{
				"x": -0.5401402809,
				"y": -0.2726960154,
				"z": -2.815992164,
				"element": "H" 
			},
			{
				"x": 0.9781691111,
				"y": -0.1538909337,
				"z": -1.9317875642,
				"element": "H" 
			}
		],
		 "valence_orbital": [ 
			{
				"type": "occ",
				"energy": -0.33858,
				"method": "rhf"
			},
			{
				"type": "occ",
				"energy": -0.33204,
				"method": "rhf"
			},
			{
				"type": "occ",
				"energy": -0.32052,
				"method": "rhf"
			},
			{
				"type": "occ",
				"energy": -0.29866,
				"method": "rhf"
			},
			{
				"type": "occ",
				"energy": -0.25725,
				"method": "rhf"
			},
			{
				"type": "unocc",
				"energy": 0.0729,
				"method": "rhf"
			},
			{
				"type": "unocc",
				"energy": 0.09139,
				"method": "rhf"
			},
			{
				"type": "unocc",
				"energy": 0.12326,
				"method": "rhf"
			},
			{
				"type": "unocc",
				"energy": 0.13275,
				"method": "rhf"
			},
			{
				"type": "unocc",
				"energy": 0.13672,
				"method": "rhf"
			}
		],
		"cosmo_sigma_profile": { 
			"-0.025": 0.0,
			"-0.024": 0.0,
			"-0.023": 0.0,
			"-0.022": 0.0,
			"-0.021": 0.0,
			"-0.02": 0.0,
			"-0.019": 0.0,
			"-0.018": 0.0,
			"-0.017": 0.0,
			"-0.016": 0.0,
			"-0.015": 0.00699980139942,
			"-0.014": 0.541672572246,
			"-0.013": 1.07823109914,
			"-0.012": 0.568958215196,
			"-0.011": 0.574065455909,
			"-0.01": 1.02524651456,
			"-0.009": 1.58924710196,
			"-0.008": 1.558062189,
			"-0.007": 0.634867222559,
			"-0.006": 0.931288294184,
			"-0.005": 1.65697118852,
			"-0.004": 2.45083793,
			"-0.003": 12.8745072729,
			"-0.002": 22.1501493801,
			"-0.001": 31.0484026495,
			"0.0": 29.4819232298,
			"0.001": 27.0970250685,
			"0.002": 10.6828357892,
			"0.003": 1.92386832649,
			"0.004": 1.43378176883,
			"0.005": 1.06693233941,
			"0.006": 1.54170517178,
			"0.007": 1.54228949438,
			"0.008": 1.63400232607,
			"0.009": 1.20718343289,
			"0.01": 0.974186093101,
			"0.011": 1.00421956592,
			"0.012": 1.82589950934,
			"0.013": 1.16139537861,
			"0.014": 1.71352891162,
			"0.015": 1.4952854957,
			"0.016": 0.0123464951318,
			"0.017": 0.0,
			"0.018": 0.0,
			"0.019": 0.0,
			"0.02": 0.0,
			"0.021": 0.0,
			"0.022": 0.0,
			"0.023": 0.0,
			"0.024": 0.0,
			"0.025": 0.0
		}
	}
}
