{
	 "smiles": "CC1=NN(CC2=CC=C(O2)C(O)=O)C(C)=C1Br", 
	 "Tm": 481.15, 
	 "num_atms": 28, 
	 "gaussian": { 
		 "optdone": 1, 
		 "sigma_profile": "yes", 
		 "theory": "DFT", 
		 "functional": "B3LYP", 
		 "basiset": "6-31G**", 
		 "properties": { 
			 "R2extent": 7543.8403, 
			 "electric_dipole_moment_norm": 3.07090319287, 
			 "electric_quadrupole_moment_norm": 7.73148119379, 
			 "total_energy": -3332.36245193, 
			 "HOMO_LUMO_gap": 0.17001, 
			 "cosmo_polarized_energy": -14.82, 
			 "cosmo_cavitation_energy": 35.85, 
			 "cosmo_dispersion_energy": -25.1, 
			 "cosmo_repulsion_energy": 1.98, 
			 "cosmo_total_nonelectrostatic_energy": 12.73, 
			 "SMD_solvation_energy": 5.73 
		},
		"coords": [
			{
				"x": -0.5503051829,
				"y": -2.3445732146,
				"z": -3.7883199977,
				"element": "C" 
			},
			{
				"x": -0.4166402029,
				"y": -1.1515171583,
				"z": -2.8979892478,
				"element": "C" 
			},
			{
				"x": 0.4707565601,
				"y": -1.1187608788,
				"z": -1.9060003206,
				"element": "N" 
			},
			{
				"x": 0.3300422143,
				"y": 0.1054982014,
				"z": -1.3312462459,
				"element": "N" 
			},
			{
				"x": 1.1215348578,
				"y": 0.4054986289,
				"z": -0.1438963903,
				"element": "C" 
			},
			{
				"x": 0.4400770374,
				"y": 0.0478683024,
				"z": 1.1385734038,
				"element": "C" 
			},
			{
				"x": 0.5634311835,
				"y": -1.0032777103,
				"z": 2.0078040867,
				"element": "C" 
			},
			{
				"x": -0.3977970117,
				"y": -0.7874761147,
				"z": 3.0365539978,
				"element": "C" 
			},
			{
				"x": -1.0426160023,
				"y": 0.3802279261,
				"z": 2.7216215973,
				"element": "C" 
			},
			{
				"x": -0.5309381343,
				"y": 0.8975399023,
				"z": 1.5649259373,
				"element": "O" 
			},
			{
				"x": -2.1229739492,
				"y": 1.141217947,
				"z": 3.3493361063,
				"element": "C" 
			},
			{
				"x": -2.5402234559,
				"y": 0.5452789798,
				"z": 4.4950180643,
				"element": "O" 
			},
			{
				"x": -2.5988500142,
				"y": 2.1706442994,
				"z": 2.9172965113,
				"element": "O" 
			},
			{
				"x": -0.644857503,
				"y": 0.8648353136,
				"z": -1.916083733,
				"element": "C" 
			},
			{
				"x": -1.0200330888,
				"y": 2.2428427323,
				"z": -1.4791308658,
				"element": "C" 
			},
			{
				"x": -1.1343732593,
				"y": 0.0680666174,
				"z": -2.9377401766,
				"element": "C" 
			},
			{
				"x": -2.4921266973,
				"y": 0.531429328,
				"z": -4.1650086491,
				"element": "Br" 
			},
			{
				"x": -0.3479445585,
				"y": -2.085300146,
				"z": -4.8332107647,
				"element": "H" 
			},
			{
				"x": 0.1549319331,
				"y": -3.1175084359,
				"z": -3.4762715283,
				"element": "H" 
			},
			{
				"x": -1.5644406171,
				"y": -2.7565631487,
				"z": -3.7485415364,
				"element": "H" 
			},
			{
				"x": 2.0444828181,
				"y": -0.1690105304,
				"z": -0.2350884952,
				"element": "H" 
			},
			{
				"x": 1.3711877995,
				"y": 1.4708866554,
				"z": -0.1483833117,
				"element": "H" 
			},
			{
				"x": 1.2512845029,
				"y": -1.8308177656,
				"z": 1.912011476,
				"element": "H" 
			},
			{
				"x": -0.5975781032,
				"y": -1.4064602845,
				"z": 3.8985052648,
				"element": "H" 
			},
			{
				"x": -3.2551246667,
				"y": 1.1054475489,
				"z": 4.8391688584,
				"element": "H" 
			},
			{
				"x": -1.8058081681,
				"y": 2.6235886536,
				"z": -2.1342625249,
				"element": "H" 
			},
			{
				"x": -1.3899596641,
				"y": 2.2575277624,
				"z": -0.4491927992,
				"element": "H" 
			},
			{
				"x": -0.169438627,
				"y": 2.9323665893,
				"z": -1.5404487167,
				"element": "H" 
			}
		],
		 "valence_orbital": [ 
			{
				"type": "occ",
				"energy": -0.28552,
				"method": "rhf"
			},
			{
				"type": "occ",
				"energy": -0.27611,
				"method": "rhf"
			},
			{
				"type": "occ",
				"energy": -0.25241,
				"method": "rhf"
			},
			{
				"type": "occ",
				"energy": -0.2414,
				"method": "rhf"
			},
			{
				"type": "occ",
				"energy": -0.22392,
				"method": "rhf"
			},
			{
				"type": "unocc",
				"energy": -0.05391,
				"method": "rhf"
			},
			{
				"type": "unocc",
				"energy": 0.01074,
				"method": "rhf"
			},
			{
				"type": "unocc",
				"energy": 0.02317,
				"method": "rhf"
			},
			{
				"type": "unocc",
				"energy": 0.03353,
				"method": "rhf"
			},
			{
				"type": "unocc",
				"energy": 0.06381,
				"method": "rhf"
			}
		],
		"cosmo_sigma_profile": { 
			"-0.025": 0.0,
			"-0.024": 0.0,
			"-0.023": 0.0,
			"-0.022": 0.0,
			"-0.021": 0.0,
			"-0.02": 0.0,
			"-0.019": 0.12970557033,
			"-0.018": 0.977978997005,
			"-0.017": 0.967335503466,
			"-0.016": 1.0060608941,
			"-0.015": 0.392312280685,
			"-0.014": 0.624388307299,
			"-0.013": 0.69916664274,
			"-0.012": 0.872612766038,
			"-0.011": 0.915601764731,
			"-0.01": 0.624596124424,
			"-0.009": 1.62732057378,
			"-0.008": 9.39953077242,
			"-0.007": 9.45620062244,
			"-0.006": 9.4786501673,
			"-0.005": 12.3778289494,
			"-0.004": 15.9920459646,
			"-0.003": 18.0125693591,
			"-0.002": 23.3113723899,
			"-0.001": 28.9371078302,
			"0.0": 27.045562678,
			"0.001": 21.72232222,
			"0.002": 19.6767092235,
			"0.003": 23.047254163,
			"0.004": 16.9516532139,
			"0.005": 10.8736942001,
			"0.006": 4.5229099403,
			"0.007": 5.18967043297,
			"0.008": 5.41660225341,
			"0.009": 2.94137408073,
			"0.01": 3.48406446019,
			"0.011": 5.40814529006,
			"0.012": 4.92582928679,
			"0.013": 1.02580192144,
			"0.014": 0.645087841381,
			"0.015": 0.579053505312,
			"0.016": 0.0,
			"0.017": 0.0,
			"0.018": 0.0,
			"0.019": 0.0,
			"0.02": 0.0,
			"0.021": 0.0,
			"0.022": 0.0,
			"0.023": 0.0,
			"0.024": 0.0,
			"0.025": 0.0
		}
	}
}
