{
	 "smiles": "CC1(C)C(=O)NC2=CC=CC=C12", 
	 "Tm": 427.15, 
	 "num_atms": 23, 
	 "gaussian": { 
		 "optdone": 1, 
		 "sigma_profile": "yes", 
		 "theory": "DFT", 
		 "functional": "B3LYP", 
		 "basiset": "6-31G**", 
		 "properties": { 
			 "R2extent": 2174.8438, 
			 "electric_dipole_moment_norm": 2.61488842018, 
			 "electric_quadrupole_moment_norm": 15.8795336115, 
			 "total_energy": -517.700894416, 
			 "HOMO_LUMO_gap": 0.20593, 
			 "cosmo_polarized_energy": -10.66, 
			 "cosmo_cavitation_energy": 25.92, 
			 "cosmo_dispersion_energy": -18.56, 
			 "cosmo_repulsion_energy": 1.47, 
			 "cosmo_total_nonelectrostatic_energy": 8.83, 
			 "SMD_solvation_energy": 4.96 
		},
		"coords": [
			{
				"x": 2.2744829674,
				"y": 1.4871125104,
				"z": 1.3369143259,
				"element": "C" 
			},
			{
				"x": 0.7856561324,
				"y": 1.6577157942,
				"z": 0.974008109,
				"element": "C" 
			},
			{
				"x": -0.005193633,
				"y": 2.1999387226,
				"z": 2.1814675224,
				"element": "C" 
			},
			{
				"x": 0.6695300943,
				"y": 2.6705285205,
				"z": -0.1940218403,
				"element": "C" 
			},
			{
				"x": 1.0329430358,
				"y": 3.8314932546,
				"z": -0.194742611,
				"element": "O" 
			},
			{
				"x": 0.0707777774,
				"y": 2.0097109619,
				"z": -1.2525223995,
				"element": "N" 
			},
			{
				"x": -0.2327594145,
				"y": 0.6762942198,
				"z": -0.9459836955,
				"element": "C" 
			},
			{
				"x": -0.8317502866,
				"y": -0.2883139652,
				"z": -1.7484882716,
				"element": "C" 
			},
			{
				"x": -1.0258831035,
				"y": -1.5616768266,
				"z": -1.1979670475,
				"element": "C" 
			},
			{
				"x": -0.631536623,
				"y": -1.8503221559,
				"z": 0.1095367643,
				"element": "C" 
			},
			{
				"x": -0.0287843845,
				"y": -0.8614829233,
				"z": 0.9017829877,
				"element": "C" 
			},
			{
				"x": 0.171277464,
				"y": 0.4053980493,
				"z": 0.3729562115,
				"element": "C" 
			},
			{
				"x": 2.7010165636,
				"y": 2.4562036858,
				"z": 1.6116480093,
				"element": "H" 
			},
			{
				"x": 2.8460310697,
				"y": 1.0840417137,
				"z": 0.4956171329,
				"element": "H" 
			},
			{
				"x": 2.3846264216,
				"y": 0.8012674098,
				"z": 2.1829621604,
				"element": "H" 
			},
			{
				"x": -1.0680113167,
				"y": 2.3080560727,
				"z": 1.9455835821,
				"element": "H" 
			},
			{
				"x": 0.3862462384,
				"y": 3.1799524477,
				"z": 2.4693794404,
				"element": "H" 
			},
			{
				"x": 0.0867303067,
				"y": 1.5196208045,
				"z": 3.034125085,
				"element": "H" 
			},
			{
				"x": -0.1124790753,
				"y": 2.4670230181,
				"z": -2.1336599923,
				"element": "H" 
			},
			{
				"x": -1.1392090927,
				"y": -0.0658509955,
				"z": -2.7659603264,
				"element": "H" 
			},
			{
				"x": -1.4916731161,
				"y": -2.3341579555,
				"z": -1.8030680488,
				"element": "H" 
			},
			{
				"x": -0.7918336939,
				"y": -2.8442869139,
				"z": 0.5155203296,
				"element": "H" 
			},
			{
				"x": 0.2772956685,
				"y": -1.0891654497,
				"z": 1.9196125723,
				"element": "H" 
			}
		],
		 "valence_orbital": [ 
			{
				"type": "occ",
				"energy": -0.32884,
				"method": "rhf"
			},
			{
				"type": "occ",
				"energy": -0.30788,
				"method": "rhf"
			},
			{
				"type": "occ",
				"energy": -0.25264,
				"method": "rhf"
			},
			{
				"type": "occ",
				"energy": -0.2515,
				"method": "rhf"
			},
			{
				"type": "occ",
				"energy": -0.21684,
				"method": "rhf"
			},
			{
				"type": "unocc",
				"energy": -0.01091,
				"method": "rhf"
			},
			{
				"type": "unocc",
				"energy": -0.0034,
				"method": "rhf"
			},
			{
				"type": "unocc",
				"energy": 0.03725,
				"method": "rhf"
			},
			{
				"type": "unocc",
				"energy": 0.08795,
				"method": "rhf"
			},
			{
				"type": "unocc",
				"energy": 0.08954,
				"method": "rhf"
			}
		],
		"cosmo_sigma_profile": { 
			"-0.025": 0.0,
			"-0.024": 0.0,
			"-0.023": 0.0,
			"-0.022": 0.0,
			"-0.021": 0.0,
			"-0.02": 0.0,
			"-0.019": 0.0,
			"-0.018": 0.0,
			"-0.017": 0.0,
			"-0.016": 0.281143252535,
			"-0.015": 1.30508412185,
			"-0.014": 1.09628381743,
			"-0.013": 1.34083894832,
			"-0.012": 0.987348640332,
			"-0.011": 1.08288638041,
			"-0.01": 1.15554642367,
			"-0.009": 0.899060016309,
			"-0.008": 1.2702545961,
			"-0.007": 2.11900301489,
			"-0.006": 4.76700106054,
			"-0.005": 10.3996733227,
			"-0.004": 20.1716112199,
			"-0.003": 20.4320958041,
			"-0.002": 17.9597479699,
			"-0.001": 17.3998119914,
			"0.0": 22.4877432554,
			"0.001": 15.1925329983,
			"0.002": 10.7068100179,
			"0.003": 8.58888168881,
			"0.004": 9.03967180059,
			"0.005": 9.57518240929,
			"0.006": 7.78270698637,
			"0.007": 2.36969479714,
			"0.008": 1.28790572003,
			"0.009": 1.48341933345,
			"0.01": 1.47940315925,
			"0.011": 1.35940388939,
			"0.012": 3.25794035052,
			"0.013": 5.38082755676,
			"0.014": 2.0279801818,
			"0.015": 0.000114846400821,
			"0.016": 0.0,
			"0.017": 0.0,
			"0.018": 0.0,
			"0.019": 0.0,
			"0.02": 0.0,
			"0.021": 0.0,
			"0.022": 0.0,
			"0.023": 0.0,
			"0.024": 0.0,
			"0.025": 0.0
		}
	}
}
