{
	 "smiles": "CCCN(CCC)CCC", 
	 "Tm": 179.65, 
	 "num_atms": 31, 
	 "gaussian": { 
		 "optdone": 1, 
		 "sigma_profile": "yes", 
		 "theory": "DFT", 
		 "functional": "B3LYP", 
		 "basiset": "6-31G**", 
		 "properties": { 
			 "R2extent": 2279.6298, 
			 "electric_dipole_moment_norm": 0.583774793906, 
			 "electric_quadrupole_moment_norm": 2.11336784068, 
			 "total_energy": -410.372745077, 
			 "HOMO_LUMO_gap": 0.26849, 
			 "cosmo_polarized_energy": -2.02, 
			 "cosmo_cavitation_energy": 30.41, 
			 "cosmo_dispersion_energy": -21.05, 
			 "cosmo_repulsion_energy": 1.75, 
			 "cosmo_total_nonelectrostatic_energy": 11.11, 
			 "SMD_solvation_energy": 4.56 
		},
		"coords": [
			{
				"x": 2.3919502272,
				"y": 2.4634299374,
				"z": -0.3170611359,
				"element": "C" 
			},
			{
				"x": 1.0589269457,
				"y": 2.2891381245,
				"z": -1.0532369403,
				"element": "C" 
			},
			{
				"x": -0.1434848779,
				"y": 1.8425589745,
				"z": -0.1908986955,
				"element": "C" 
			},
			{
				"x": -0.0837375756,
				"y": 0.5359527009,
				"z": 0.472615473,
				"element": "N" 
			},
			{
				"x": 0.486641405,
				"y": 0.5397571526,
				"z": 1.823534743,
				"element": "C" 
			},
			{
				"x": -0.5029987198,
				"y": 1.0344727659,
				"z": 2.8928751303,
				"element": "C" 
			},
			{
				"x": -1.7476753128,
				"y": 0.1533078765,
				"z": 3.0221951356,
				"element": "C" 
			},
			{
				"x": 0.3037574418,
				"y": -0.5870972454,
				"z": -0.3762732287,
				"element": "C" 
			},
			{
				"x": -0.6858015524,
				"y": -0.8567570795,
				"z": -1.5176750748,
				"element": "C" 
			},
			{
				"x": -0.3214264061,
				"y": -2.1132230975,
				"z": -2.3153123576,
				"element": "C" 
			},
			{
				"x": 2.7659371353,
				"y": 1.5138829811,
				"z": 0.0777265013,
				"element": "H" 
			},
			{
				"x": 3.1591040068,
				"y": 2.8625651759,
				"z": -0.9895991755,
				"element": "H" 
			},
			{
				"x": 2.2964324588,
				"y": 3.1589261883,
				"z": 0.5247821488,
				"element": "H" 
			},
			{
				"x": 1.1955713274,
				"y": 1.588954178,
				"z": -1.887104593,
				"element": "H" 
			},
			{
				"x": 0.7756286147,
				"y": 3.2444085426,
				"z": -1.515757089,
				"element": "H" 
			},
			{
				"x": -0.3191325736,
				"y": 2.5957700838,
				"z": 0.5854590129,
				"element": "H" 
			},
			{
				"x": -1.0344227352,
				"y": 1.8683094617,
				"z": -0.8327827907,
				"element": "H" 
			},
			{
				"x": 0.765059696,
				"y": -0.4924017019,
				"z": 2.0680411891,
				"element": "H" 
			},
			{
				"x": 1.4149903442,
				"y": 1.1293966882,
				"z": 1.8948090589,
				"element": "H" 
			},
			{
				"x": -0.8038830126,
				"y": 2.0660702609,
				"z": 2.6682823763,
				"element": "H" 
			},
			{
				"x": 0.030424281,
				"y": 1.0802012821,
				"z": 3.8518705188,
				"element": "H" 
			},
			{
				"x": -1.4814761712,
				"y": -0.8603652308,
				"z": 3.3452838485,
				"element": "H" 
			},
			{
				"x": -2.4532534616,
				"y": 0.5606621886,
				"z": 3.7537423575,
				"element": "H" 
			},
			{
				"x": -2.2571179279,
				"y": 0.0724415552,
				"z": 2.0579494566,
				"element": "H" 
			},
			{
				"x": 0.3378874354,
				"y": -1.4792260039,
				"z": 0.2602399368,
				"element": "H" 
			},
			{
				"x": 1.3204840057,
				"y": -0.481344615,
				"z": -0.8038545402,
				"element": "H" 
			},
			{
				"x": -1.6900497515,
				"y": -0.955730726,
				"z": -1.0880598688,
				"element": "H" 
			},
			{
				"x": -0.7224960684,
				"y": 0.0026397347,
				"z": -2.1982052214,
				"element": "H" 
			},
			{
				"x": -1.0315908281,
				"y": -2.2869820317,
				"z": -3.1298850747,
				"element": "H" 
			},
			{
				"x": -0.3235712799,
				"y": -3.004735275,
				"z": -1.6775618821,
				"element": "H" 
			},
			{
				"x": 0.6771229298,
				"y": -2.0282828469,
				"z": -2.7594392193,
				"element": "H" 
			}
		],
		 "valence_orbital": [ 
			{
				"type": "occ",
				"energy": -0.32814,
				"method": "rhf"
			},
			{
				"type": "occ",
				"energy": -0.32304,
				"method": "rhf"
			},
			{
				"type": "occ",
				"energy": -0.31649,
				"method": "rhf"
			},
			{
				"type": "occ",
				"energy": -0.31134,
				"method": "rhf"
			},
			{
				"type": "occ",
				"energy": -0.19113,
				"method": "rhf"
			},
			{
				"type": "unocc",
				"energy": 0.07736,
				"method": "rhf"
			},
			{
				"type": "unocc",
				"energy": 0.09784,
				"method": "rhf"
			},
			{
				"type": "unocc",
				"energy": 0.10851,
				"method": "rhf"
			},
			{
				"type": "unocc",
				"energy": 0.11449,
				"method": "rhf"
			},
			{
				"type": "unocc",
				"energy": 0.12603,
				"method": "rhf"
			}
		],
		"cosmo_sigma_profile": { 
			"-0.025": 0.0,
			"-0.024": 0.0,
			"-0.023": 0.0,
			"-0.022": 0.0,
			"-0.021": 0.0,
			"-0.02": 0.0,
			"-0.019": 0.0,
			"-0.018": 0.0,
			"-0.017": 0.0,
			"-0.016": 0.0,
			"-0.015": 0.0,
			"-0.014": 0.0,
			"-0.013": 0.0,
			"-0.012": 0.0,
			"-0.011": 0.0,
			"-0.01": 0.0,
			"-0.009": 0.0,
			"-0.008": 0.0,
			"-0.007": 0.0,
			"-0.006": 0.0,
			"-0.005": 0.0,
			"-0.004": 0.591345837609,
			"-0.003": 11.2641883762,
			"-0.002": 37.2599051263,
			"-0.001": 51.9621321829,
			"0.0": 49.9567270542,
			"0.001": 46.0469201454,
			"0.002": 22.2973511811,
			"0.003": 4.66516616037,
			"0.004": 1.739859663,
			"0.005": 1.64698379891,
			"0.006": 1.46639072135,
			"0.007": 1.06968069596,
			"0.008": 1.05720752547,
			"0.009": 1.09907183066,
			"0.01": 0.804581682968,
			"0.011": 0.055004895625,
			"0.012": 0.0,
			"0.013": 0.0,
			"0.014": 0.0,
			"0.015": 0.0,
			"0.016": 0.0,
			"0.017": 0.0,
			"0.018": 0.0,
			"0.019": 0.0,
			"0.02": 0.0,
			"0.021": 0.0,
			"0.022": 0.0,
			"0.023": 0.0,
			"0.024": 0.0,
			"0.025": 0.0
		}
	}
}
