{
	 "smiles": "CC(Cl)C(=O)NC1=CC(C)=CC=C1", 
	 "Tm": 402.15, 
	 "num_atms": 25, 
	 "gaussian": { 
		 "optdone": 1, 
		 "sigma_profile": "yes", 
		 "theory": "DFT", 
		 "functional": "B3LYP", 
		 "basiset": "6-31G**", 
		 "properties": { 
			 "R2extent": 4706.4244, 
			 "electric_dipole_moment_norm": 0.983942737155, 
			 "electric_quadrupole_moment_norm": 6.64394809507, 
			 "total_energy": -978.499856629, 
			 "HOMO_LUMO_gap": 0.20425, 
			 "cosmo_polarized_energy": -9.24, 
			 "cosmo_cavitation_energy": 30.09, 
			 "cosmo_dispersion_energy": -21.93, 
			 "cosmo_repulsion_energy": 1.75, 
			 "cosmo_total_nonelectrostatic_energy": 9.91, 
			 "SMD_solvation_energy": 5.31 
		},
		"coords": [
			{
				"x": 4.599301032,
				"y": 0.8816509896,
				"z": -1.0790514783,
				"element": "C" 
			},
			{
				"x": 4.198049347,
				"y": -0.0522670435,
				"z": 0.0590464025,
				"element": "C" 
			},
			{
				"x": 4.8540489767,
				"y": 0.5907828127,
				"z": 1.652896443,
				"element": "Cl" 
			},
			{
				"x": 2.6780654844,
				"y": -0.3145880009,
				"z": 0.0465743011,
				"element": "C" 
			},
			{
				"x": 2.22914863,
				"y": -0.857911944,
				"z": -0.956186363,
				"element": "O" 
			},
			{
				"x": 1.9609923972,
				"y": 0.088334404,
				"z": 1.1291906522,
				"element": "N" 
			},
			{
				"x": 0.5700367703,
				"y": -0.024041976,
				"z": 1.3613756058,
				"element": "C" 
			},
			{
				"x": -0.3189731637,
				"y": -0.5847955968,
				"z": 0.4350107066,
				"element": "C" 
			},
			{
				"x": -1.6865955199,
				"y": -0.6622632045,
				"z": 0.7279587325,
				"element": "C" 
			},
			{
				"x": -2.6325082289,
				"y": -1.2989979379,
				"z": -0.2642091513,
				"element": "C" 
			},
			{
				"x": -2.1567186603,
				"y": -0.1686965293,
				"z": 1.9507806223,
				"element": "C" 
			},
			{
				"x": -1.2701088215,
				"y": 0.3899113376,
				"z": 2.8721790048,
				"element": "C" 
			},
			{
				"x": 0.0889209372,
				"y": 0.4646081823,
				"z": 2.5855413575,
				"element": "C" 
			},
			{
				"x": 5.6860475986,
				"y": 0.9655904547,
				"z": -1.1441186136,
				"element": "H" 
			},
			{
				"x": 4.1765407524,
				"y": 1.879344347,
				"z": -0.9329234204,
				"element": "H" 
			},
			{
				"x": 4.2117095305,
				"y": 0.4671079217,
				"z": -2.0129376303,
				"element": "H" 
			},
			{
				"x": 4.6772046953,
				"y": -1.0257952436,
				"z": -0.0573563254,
				"element": "H" 
			},
			{
				"x": 2.4982716664,
				"y": 0.507734731,
				"z": 1.8770866278,
				"element": "H" 
			},
			{
				"x": 0.0646050993,
				"y": -0.9554050727,
				"z": -0.5058576727,
				"element": "H" 
			},
			{
				"x": -2.3136005029,
				"y": -1.1162426752,
				"z": -1.2945640899,
				"element": "H" 
			},
			{
				"x": -3.6507657319,
				"y": -0.9161020156,
				"z": -0.1484931655,
				"element": "H" 
			},
			{
				"x": -2.6743442035,
				"y": -2.3866556412,
				"z": -0.1260267059,
				"element": "H" 
			},
			{
				"x": -3.2174333395,
				"y": -0.2202249623,
				"z": 2.1811862898,
				"element": "H" 
			},
			{
				"x": -1.6390894503,
				"y": 0.7735925112,
				"z": 3.8189812555,
				"element": "H" 
			},
			{
				"x": 0.7773947052,
				"y": 0.9034301518,
				"z": 3.3038166151,
				"element": "H" 
			}
		],
		 "valence_orbital": [ 
			{
				"type": "occ",
				"energy": -0.31459,
				"method": "rhf"
			},
			{
				"type": "occ",
				"energy": -0.30262,
				"method": "rhf"
			},
			{
				"type": "occ",
				"energy": -0.26133,
				"method": "rhf"
			},
			{
				"type": "occ",
				"energy": -0.24426,
				"method": "rhf"
			},
			{
				"type": "occ",
				"energy": -0.22292,
				"method": "rhf"
			},
			{
				"type": "unocc",
				"energy": -0.01867,
				"method": "rhf"
			},
			{
				"type": "unocc",
				"energy": -0.0013,
				"method": "rhf"
			},
			{
				"type": "unocc",
				"energy": 0.00759,
				"method": "rhf"
			},
			{
				"type": "unocc",
				"energy": 0.03972,
				"method": "rhf"
			},
			{
				"type": "unocc",
				"energy": 0.08713,
				"method": "rhf"
			}
		],
		"cosmo_sigma_profile": { 
			"-0.025": 0.0,
			"-0.024": 0.0,
			"-0.023": 0.0,
			"-0.022": 0.0,
			"-0.021": 0.0,
			"-0.02": 0.0,
			"-0.019": 0.0,
			"-0.018": 0.0,
			"-0.017": 0.0,
			"-0.016": 0.0,
			"-0.015": 0.0,
			"-0.014": 0.0,
			"-0.013": 0.310320258533,
			"-0.012": 1.00875403789,
			"-0.011": 0.990314781838,
			"-0.01": 1.16582388901,
			"-0.009": 1.80313219301,
			"-0.008": 3.53373578934,
			"-0.007": 3.75828033315,
			"-0.006": 6.71921806018,
			"-0.005": 14.3481552215,
			"-0.004": 21.4883251364,
			"-0.003": 20.4961213004,
			"-0.002": 21.4856504534,
			"-0.001": 20.9981759035,
			"0.0": 22.6453016517,
			"0.001": 15.3801893962,
			"0.002": 14.7121503855,
			"0.003": 14.095257918,
			"0.004": 14.7589212245,
			"0.005": 17.5290618162,
			"0.006": 10.7672401999,
			"0.007": 1.69866046159,
			"0.008": 1.20915756616,
			"0.009": 1.64814704973,
			"0.01": 1.41182556559,
			"0.011": 2.10638516406,
			"0.012": 3.02719435875,
			"0.013": 1.61625629574,
			"0.014": 0.0364193912573,
			"0.015": 0.0,
			"0.016": 0.0,
			"0.017": 0.0,
			"0.018": 0.0,
			"0.019": 0.0,
			"0.02": 0.0,
			"0.021": 0.0,
			"0.022": 0.0,
			"0.023": 0.0,
			"0.024": 0.0,
			"0.025": 0.0
		}
	}
}
