{
	 "smiles": "ClC1=C(C=C2CC(=O)NC2=C1)S(Cl)(=O)=O", 
	 "Tm": 459.15, 
	 "num_atms": 20, 
	 "gaussian": { 
		 "optdone": 1, 
		 "sigma_profile": "yes", 
		 "theory": "DFT", 
		 "functional": "B3LYP", 
		 "basiset": "6-31G**", 
		 "properties": { 
			 "R2extent": 5213.551, 
			 "electric_dipole_moment_norm": 4.3896108176, 
			 "electric_quadrupole_moment_norm": 20.7496403668, 
			 "total_energy": -1906.80214777, 
			 "HOMO_LUMO_gap": 0.16805, 
			 "cosmo_polarized_energy": -18.28, 
			 "cosmo_cavitation_energy": 29.84, 
			 "cosmo_dispersion_energy": -22.71, 
			 "cosmo_repulsion_energy": 1.73, 
			 "cosmo_total_nonelectrostatic_energy": 8.86, 
			 "SMD_solvation_energy": 3.99 
		},
		"coords": [
			{
				"x": -0.2015847569,
				"y": -2.4505176743,
				"z": -2.4891146209,
				"element": "Cl" 
			},
			{
				"x": -0.0704860004,
				"y": -1.1330605531,
				"z": -1.3577593748,
				"element": "C" 
			},
			{
				"x": 1.1637249507,
				"y": -0.6814358861,
				"z": -0.8594096629,
				"element": "C" 
			},
			{
				"x": 1.2169466845,
				"y": 0.3675329026,
				"z": 0.07959237,
				"element": "C" 
			},
			{
				"x": 0.0446339319,
				"y": 0.9611378683,
				"z": 0.4973655625,
				"element": "C" 
			},
			{
				"x": -0.2285886903,
				"y": 2.0857623325,
				"z": 1.4616276432,
				"element": "C" 
			},
			{
				"x": -1.7612205926,
				"y": 2.214756455,
				"z": 1.4376219209,
				"element": "C" 
			},
			{
				"x": -2.4644955948,
				"y": 2.9834460986,
				"z": 2.0520148163,
				"element": "O" 
			},
			{
				"x": -2.2194679449,
				"y": 1.2433199562,
				"z": 0.5404952998,
				"element": "N" 
			},
			{
				"x": -1.1864994133,
				"y": 0.5048750889,
				"z": -0.0165774651,
				"element": "C" 
			},
			{
				"x": -1.262497385,
				"y": -0.5356225939,
				"z": -0.9364344249,
				"element": "C" 
			},
			{
				"x": 2.7495634788,
				"y": -1.3392061154,
				"z": -1.3677118099,
				"element": "S" 
			},
			{
				"x": 2.7472745223,
				"y": -3.2581106902,
				"z": -0.44614984,
				"element": "Cl" 
			},
			{
				"x": 3.7887539235,
				"y": -0.5745239291,
				"z": -0.6874716531,
				"element": "O" 
			},
			{
				"x": 2.788413177,
				"y": -1.5626172084,
				"z": -2.8048417311,
				"element": "O" 
			},
			{
				"x": 2.1832245318,
				"y": 0.6889972792,
				"z": 0.450623769,
				"element": "H" 
			},
			{
				"x": 0.1021452369,
				"y": 1.87927113,
				"z": 2.4853575389,
				"element": "H" 
			},
			{
				"x": 0.2201837247,
				"y": 3.0399331341,
				"z": 1.1645525395,
				"element": "H" 
			},
			{
				"x": -3.2032024723,
				"y": 1.1224605592,
				"z": 0.3455744677,
				"element": "H" 
			},
			{
				"x": -2.2087213117,
				"y": -0.8907981541,
				"z": -1.3273553453,
				"element": "H" 
			}
		],
		 "valence_orbital": [ 
			{
				"type": "occ",
				"energy": -0.32654,
				"method": "rhf"
			},
			{
				"type": "occ",
				"energy": -0.3142,
				"method": "rhf"
			},
			{
				"type": "occ",
				"energy": -0.28801,
				"method": "rhf"
			},
			{
				"type": "occ",
				"energy": -0.28571,
				"method": "rhf"
			},
			{
				"type": "occ",
				"energy": -0.25959,
				"method": "rhf"
			},
			{
				"type": "unocc",
				"energy": -0.09154,
				"method": "rhf"
			},
			{
				"type": "unocc",
				"energy": -0.05739,
				"method": "rhf"
			},
			{
				"type": "unocc",
				"energy": -0.05015,
				"method": "rhf"
			},
			{
				"type": "unocc",
				"energy": -0.00805,
				"method": "rhf"
			},
			{
				"type": "unocc",
				"energy": 0.00263,
				"method": "rhf"
			}
		],
		"cosmo_sigma_profile": { 
			"-0.025": 0.0,
			"-0.024": 0.0,
			"-0.023": 0.0,
			"-0.022": 0.0,
			"-0.021": 0.0,
			"-0.02": 0.0,
			"-0.019": 0.0,
			"-0.018": 0.0,
			"-0.017": 0.668304551366,
			"-0.016": 1.61982716422,
			"-0.015": 1.60176524934,
			"-0.014": 1.57253307471,
			"-0.013": 1.21952235046,
			"-0.012": 1.1980560285,
			"-0.011": 0.785743418112,
			"-0.01": 2.23549522299,
			"-0.009": 3.33003857106,
			"-0.008": 8.64392895718,
			"-0.007": 9.58927226663,
			"-0.006": 10.2605424485,
			"-0.005": 10.0040709648,
			"-0.004": 10.9378608012,
			"-0.003": 12.1588572392,
			"-0.002": 16.2207256501,
			"-0.001": 24.4240627431,
			"0.0": 19.6778968601,
			"0.001": 11.6316886016,
			"0.002": 14.3945766915,
			"0.003": 23.4622124742,
			"0.004": 11.0890127441,
			"0.005": 5.43548077005,
			"0.006": 3.81372988014,
			"0.007": 7.68973624518,
			"0.008": 13.0373289973,
			"0.009": 5.38664755241,
			"0.01": 1.7720379969,
			"0.011": 3.67176771706,
			"0.012": 5.67776378823,
			"0.013": 1.55232092876,
			"0.014": 0.0,
			"0.015": 0.0,
			"0.016": 0.0,
			"0.017": 0.0,
			"0.018": 0.0,
			"0.019": 0.0,
			"0.02": 0.0,
			"0.021": 0.0,
			"0.022": 0.0,
			"0.023": 0.0,
			"0.024": 0.0,
			"0.025": 0.0
		}
	}
}
