{
	 "smiles": "OC(=O)C1=C(C2CC2)N(N=N1)C1=CC(=CC=C1)C(F)(F)F", 
	 "Tm": 443.15, 
	 "num_atms": 31, 
	 "gaussian": { 
		 "optdone": 1, 
		 "sigma_profile": "yes", 
		 "theory": "DFT", 
		 "functional": "B3LYP", 
		 "basiset": "6-31G**", 
		 "properties": { 
			 "R2extent": 8294.8328, 
			 "electric_dipole_moment_norm": 5.39562964722, 
			 "electric_quadrupole_moment_norm": 22.5614746196, 
			 "total_energy": -1115.58536086, 
			 "HOMO_LUMO_gap": 0.20628, 
			 "cosmo_polarized_energy": -16.21, 
			 "cosmo_cavitation_energy": 37.59, 
			 "cosmo_dispersion_energy": -25.74, 
			 "cosmo_repulsion_energy": 1.91, 
			 "cosmo_total_nonelectrostatic_energy": 13.76, 
			 "SMD_solvation_energy": 6.97 
		},
		"coords": [
			{
				"x": -5.8393311321,
				"y": -0.4582588118,
				"z": 1.2917198101,
				"element": "O" 
			},
			{
				"x": -4.6876828276,
				"y": -1.1165267501,
				"z": 1.045365033,
				"element": "C" 
			},
			{
				"x": -4.6485090711,
				"y": -2.3194699575,
				"z": 0.9157675913,
				"element": "O" 
			},
			{
				"x": -3.5065106292,
				"y": -0.2233849145,
				"z": 0.9541822768,
				"element": "C" 
			},
			{
				"x": -2.1687183177,
				"y": -0.5013580639,
				"z": 0.7092247262,
				"element": "C" 
			},
			{
				"x": -1.4597981882,
				"y": -1.7698819119,
				"z": 0.429239114,
				"element": "C" 
			},
			{
				"x": -0.6855592335,
				"y": -1.9612192038,
				"z": -0.8646112236,
				"element": "C" 
			},
			{
				"x": -1.9748497878,
				"y": -2.7000283697,
				"z": -0.6411895657,
				"element": "C" 
			},
			{
				"x": -1.5852500944,
				"y": 0.7386960455,
				"z": 0.7640923913,
				"element": "N" 
			},
			{
				"x": -2.5138654672,
				"y": 1.7118943149,
				"z": 1.0116145356,
				"element": "N" 
			},
			{
				"x": -3.6597240391,
				"y": 1.1222114302,
				"z": 1.1233376309,
				"element": "N" 
			},
			{
				"x": -0.224451846,
				"y": 1.1284358078,
				"z": 0.5872896825,
				"element": "C" 
			},
			{
				"x": 0.0453886343,
				"y": 2.285715512,
				"z": -0.1467783003,
				"element": "C" 
			},
			{
				"x": 1.3680037839,
				"y": 2.6959204554,
				"z": -0.3042434694,
				"element": "C" 
			},
			{
				"x": 2.414504362,
				"y": 1.9578959351,
				"z": 0.2564701059,
				"element": "C" 
			},
			{
				"x": 2.1297236338,
				"y": 0.8075897686,
				"z": 0.989362167,
				"element": "C" 
			},
			{
				"x": 0.8105656821,
				"y": 0.3904638882,
				"z": 1.1659938249,
				"element": "C" 
			},
			{
				"x": 1.6787026602,
				"y": 3.9099432001,
				"z": -1.1427967733,
				"element": "C" 
			},
			{
				"x": 2.7558383122,
				"y": 4.5743092719,
				"z": -0.6718393643,
				"element": "F" 
			},
			{
				"x": 0.6447448168,
				"y": 4.7744643738,
				"z": -1.1798831677,
				"element": "F" 
			},
			{
				"x": 1.9564315933,
				"y": 3.5644576594,
				"z": -2.4206413023,
				"element": "F" 
			},
			{
				"x": -5.6394518247,
				"y": 0.4939254019,
				"z": 1.3620287847,
				"element": "H" 
			},
			{
				"x": -1.0483579877,
				"y": -2.2555241291,
				"z": 1.312211289,
				"element": "H" 
			},
			{
				"x": -0.6847758831,
				"y": -1.1430556039,
				"z": -1.5782434351,
				"element": "H" 
			},
			{
				"x": 0.251857787,
				"y": -2.5056645272,
				"z": -0.8106401239,
				"element": "H" 
			},
			{
				"x": -1.9433560074,
				"y": -3.7622317806,
				"z": -0.4252136436,
				"element": "H" 
			},
			{
				"x": -2.8533881363,
				"y": -2.3873558539,
				"z": -1.1931628334,
				"element": "H" 
			},
			{
				"x": -0.7704200212,
				"y": 2.8580997608,
				"z": -0.569791487,
				"element": "H" 
			},
			{
				"x": 3.4385897066,
				"y": 2.2910483325,
				"z": 0.1294910603,
				"element": "H" 
			},
			{
				"x": 2.9361169069,
				"y": 0.2387048467,
				"z": 1.4406392266,
				"element": "H" 
			},
			{
				"x": 0.5879326153,
				"y": -0.4869161269,
				"z": 1.7609054397,
				"element": "H" 
			}
		],
		 "valence_orbital": [ 
			{
				"type": "occ",
				"energy": -0.29317,
				"method": "rhf"
			},
			{
				"type": "occ",
				"energy": -0.29164,
				"method": "rhf"
			},
			{
				"type": "occ",
				"energy": -0.2823,
				"method": "rhf"
			},
			{
				"type": "occ",
				"energy": -0.27449,
				"method": "rhf"
			},
			{
				"type": "occ",
				"energy": -0.27018,
				"method": "rhf"
			},
			{
				"type": "unocc",
				"energy": -0.0639,
				"method": "rhf"
			},
			{
				"type": "unocc",
				"energy": -0.04876,
				"method": "rhf"
			},
			{
				"type": "unocc",
				"energy": -0.03289,
				"method": "rhf"
			},
			{
				"type": "unocc",
				"energy": -0.01438,
				"method": "rhf"
			},
			{
				"type": "unocc",
				"energy": 0.06042,
				"method": "rhf"
			}
		],
		"cosmo_sigma_profile": { 
			"-0.025": 0.0,
			"-0.024": 0.0,
			"-0.023": 0.0,
			"-0.022": 0.0,
			"-0.021": 0.0,
			"-0.02": 0.0,
			"-0.019": 0.0,
			"-0.018": 0.0,
			"-0.017": 0.0,
			"-0.016": 0.0,
			"-0.015": 0.000760270970215,
			"-0.014": 0.648736300187,
			"-0.013": 0.639106972647,
			"-0.012": 0.465402981871,
			"-0.011": 0.790264382745,
			"-0.01": 0.760406270567,
			"-0.009": 2.74210963684,
			"-0.008": 6.16047987521,
			"-0.007": 10.5748439948,
			"-0.006": 15.7498103394,
			"-0.005": 20.5913950379,
			"-0.004": 21.6954442743,
			"-0.003": 21.3406977588,
			"-0.002": 19.9594740158,
			"-0.001": 20.0727984986,
			"0.0": 21.8059615685,
			"0.001": 25.5146510794,
			"0.002": 32.9655703497,
			"0.003": 27.4551410508,
			"0.004": 6.52298966713,
			"0.005": 4.64904018833,
			"0.006": 3.92226184107,
			"0.007": 5.21601276445,
			"0.008": 6.73847135538,
			"0.009": 6.75088270423,
			"0.01": 6.839975857,
			"0.011": 5.84714888806,
			"0.012": 3.64874140368,
			"0.013": 1.40392517421,
			"0.014": 0.0359310763585,
			"0.015": 0.0,
			"0.016": 0.0,
			"0.017": 0.0,
			"0.018": 0.0,
			"0.019": 0.0,
			"0.02": 0.0,
			"0.021": 0.0,
			"0.022": 0.0,
			"0.023": 0.0,
			"0.024": 0.0,
			"0.025": 0.0
		}
	}
}
