{
	 "smiles": "CC(C)(C)OC(=O)NCCCCC(O)=O", 
	 "Tm": 317.15, 
	 "num_atms": 34, 
	 "gaussian": { 
		 "optdone": 1, 
		 "sigma_profile": "yes", 
		 "theory": "DFT", 
		 "functional": "B3LYP", 
		 "basiset": "6-31G**", 
		 "properties": { 
			 "R2extent": 5776.7741, 
			 "electric_dipole_moment_norm": 5.45995473058, 
			 "electric_quadrupole_moment_norm": 20.1359618762, 
			 "total_energy": -748.215470165, 
			 "HOMO_LUMO_gap": 0.25745, 
			 "cosmo_polarized_energy": -22.34, 
			 "cosmo_cavitation_energy": 36.71, 
			 "cosmo_dispersion_energy": -24.8, 
			 "cosmo_repulsion_energy": 1.99, 
			 "cosmo_total_nonelectrostatic_energy": 13.91, 
			 "SMD_solvation_energy": 7.93 
		},
		"coords": [
			{
				"x": -0.9893375569,
				"y": -1.0022572335,
				"z": -4.4300803483,
				"element": "C" 
			},
			{
				"x": -0.0615673553,
				"y": -1.805022717,
				"z": -3.5143670164,
				"element": "C" 
			},
			{
				"x": -0.3976836133,
				"y": -3.2989597745,
				"z": -3.5753442719,
				"element": "C" 
			},
			{
				"x": 1.4076656526,
				"y": -1.5264273743,
				"z": -3.8490071309,
				"element": "C" 
			},
			{
				"x": -0.3847035401,
				"y": -1.2694031524,
				"z": -2.1820265075,
				"element": "O" 
			},
			{
				"x": 0.2335405301,
				"y": -1.7479668647,
				"z": -1.0742569477,
				"element": "C" 
			},
			{
				"x": 1.101364489,
				"y": -2.6059627981,
				"z": -1.0437802701,
				"element": "O" 
			},
			{
				"x": -0.2575145386,
				"y": -1.1419655433,
				"z": 0.0522001098,
				"element": "N" 
			},
			{
				"x": -1.2346278224,
				"y": -0.0616246906,
				"z": 0.0997647582,
				"element": "C" 
			},
			{
				"x": -0.646445814,
				"y": 1.3382881189,
				"z": -0.1525648683,
				"element": "C" 
			},
			{
				"x": 0.3923383067,
				"y": 1.808259245,
				"z": 0.8754179763,
				"element": "C" 
			},
			{
				"x": -0.1910321095,
				"y": 2.1027075615,
				"z": 2.2608118583,
				"element": "C" 
			},
			{
				"x": 0.8524255401,
				"y": 2.6177700443,
				"z": 3.2461229615,
				"element": "C" 
			},
			{
				"x": 0.3832924285,
				"y": 2.9014913149,
				"z": 4.4936253896,
				"element": "O" 
			},
			{
				"x": 2.0182868742,
				"y": 2.7800861547,
				"z": 2.9907002003,
				"element": "O" 
			},
			{
				"x": -2.0367868621,
				"y": -1.1678448266,
				"z": -4.1611030284,
				"element": "H" 
			},
			{
				"x": -0.8468504585,
				"y": -1.3084771226,
				"z": -5.4706702885,
				"element": "H" 
			},
			{
				"x": -0.7779092202,
				"y": 0.0683691435,
				"z": -4.3528689826,
				"element": "H" 
			},
			{
				"x": -1.441789342,
				"y": -3.4653951296,
				"z": -3.2913106394,
				"element": "H" 
			},
			{
				"x": -0.2620114484,
				"y": -3.6643112577,
				"z": -4.5985123171,
				"element": "H" 
			},
			{
				"x": 0.2467572736,
				"y": -3.8706675541,
				"z": -2.907411731,
				"element": "H" 
			},
			{
				"x": 1.6216837837,
				"y": -0.4564979131,
				"z": -3.7596115648,
				"element": "H" 
			},
			{
				"x": 1.6128829022,
				"y": -1.8280926374,
				"z": -4.8813352019,
				"element": "H" 
			},
			{
				"x": 2.0699214781,
				"y": -2.0769725118,
				"z": -3.1808341749,
				"element": "H" 
			},
			{
				"x": 0.2220815539,
				"y": -1.424389718,
				"z": 0.8928882539,
				"element": "H" 
			},
			{
				"x": -1.7225967377,
				"y": -0.1090416325,
				"z": 1.0801615865,
				"element": "H" 
			},
			{
				"x": -2.005177732,
				"y": -0.2674828094,
				"z": -0.6468667306,
				"element": "H" 
			},
			{
				"x": -1.4776952259,
				"y": 2.0560147918,
				"z": -0.1988798404,
				"element": "H" 
			},
			{
				"x": -0.1879022284,
				"y": 1.3304812482,
				"z": -1.147153593,
				"element": "H" 
			},
			{
				"x": 1.1899272191,
				"y": 1.0634417875,
				"z": 0.9711459211,
				"element": "H" 
			},
			{
				"x": 0.8829485894,
				"y": 2.7162273321,
				"z": 0.5110376852,
				"element": "H" 
			},
			{
				"x": -0.6564233093,
				"y": 1.2091863729,
				"z": 2.7008890653,
				"element": "H" 
			},
			{
				"x": -0.9929326355,
				"y": 2.8522289282,
				"z": 2.1883358277,
				"element": "H" 
			},
			{
				"x": -0.5670290709,
				"y": 2.7252112176,
				"z": 4.5421838601,
				"element": "H" 
			}
		],
		 "valence_orbital": [ 
			{
				"type": "occ",
				"energy": -0.31823,
				"method": "rhf"
			},
			{
				"type": "occ",
				"energy": -0.2877,
				"method": "rhf"
			},
			{
				"type": "occ",
				"energy": -0.27447,
				"method": "rhf"
			},
			{
				"type": "occ",
				"energy": -0.26004,
				"method": "rhf"
			},
			{
				"type": "occ",
				"energy": -0.2503,
				"method": "rhf"
			},
			{
				"type": "unocc",
				"energy": 0.00715,
				"method": "rhf"
			},
			{
				"type": "unocc",
				"energy": 0.04657,
				"method": "rhf"
			},
			{
				"type": "unocc",
				"energy": 0.05423,
				"method": "rhf"
			},
			{
				"type": "unocc",
				"energy": 0.06709,
				"method": "rhf"
			},
			{
				"type": "unocc",
				"energy": 0.08138,
				"method": "rhf"
			}
		],
		"cosmo_sigma_profile": { 
			"-0.025": 0.0,
			"-0.024": 0.0,
			"-0.023": 0.0,
			"-0.022": 0.0,
			"-0.021": 0.0,
			"-0.02": 0.0,
			"-0.019": 0.451524510117,
			"-0.018": 1.01277287698,
			"-0.017": 0.877894037378,
			"-0.016": 1.0565040312,
			"-0.015": 1.42955103703,
			"-0.014": 1.0530933348,
			"-0.013": 2.10330886559,
			"-0.012": 1.74276187617,
			"-0.011": 2.53709215368,
			"-0.01": 2.28944966873,
			"-0.009": 2.27511026723,
			"-0.008": 3.26226038133,
			"-0.007": 7.19757248058,
			"-0.006": 6.8478999775,
			"-0.005": 7.21670208465,
			"-0.004": 18.3506282852,
			"-0.003": 30.1788722094,
			"-0.002": 27.1066736655,
			"-0.001": 27.2952919552,
			"0.0": 34.8275228977,
			"0.001": 25.1112140996,
			"0.002": 11.1677520795,
			"0.003": 7.61607468122,
			"0.004": 7.24667501124,
			"0.005": 7.11002498233,
			"0.006": 5.60544786709,
			"0.007": 3.8513120201,
			"0.008": 4.62582894582,
			"0.009": 3.77442870149,
			"0.01": 5.83045323547,
			"0.011": 6.91889730429,
			"0.012": 7.70258737,
			"0.013": 5.25287457885,
			"0.014": 3.48137227077,
			"0.015": 0.301710578328,
			"0.016": 0.0,
			"0.017": 0.0,
			"0.018": 0.0,
			"0.019": 0.0,
			"0.02": 0.0,
			"0.021": 0.0,
			"0.022": 0.0,
			"0.023": 0.0,
			"0.024": 0.0,
			"0.025": 0.0
		}
	}
}
