{
	 "smiles": "CC1=NN=C(SCC2=CC=CC=C2)N1N=CC1=CC=CC=C1Cl", 
	 "Tm": 395.15, 
	 "num_atms": 38, 
	 "gaussian": { 
		 "optdone": 1, 
		 "sigma_profile": "yes", 
		 "theory": "DFT", 
		 "functional": "B3LYP", 
		 "basiset": "6-31G**", 
		 "properties": { 
			 "R2extent": 12344.3077, 
			 "electric_dipole_moment_norm": 4.82540030049, 
			 "electric_quadrupole_moment_norm": 13.0225561101, 
			 "total_energy": -1734.17736399, 
			 "HOMO_LUMO_gap": 0.13883, 
			 "cosmo_polarized_energy": -16.48, 
			 "cosmo_cavitation_energy": 46.2, 
			 "cosmo_dispersion_energy": -32.78, 
			 "cosmo_repulsion_energy": 2.43, 
			 "cosmo_total_nonelectrostatic_energy": 15.85, 
			 "SMD_solvation_energy": 5.38 
		},
		"coords": [
			{
				"x": 0.9061791467,
				"y": 2.2210596598,
				"z": 3.128616065,
				"element": "C" 
			},
			{
				"x": -0.0814153249,
				"y": 1.3031772821,
				"z": 2.4912715254,
				"element": "C" 
			},
			{
				"x": -1.3743230231,
				"y": 1.4400930511,
				"z": 2.613761247,
				"element": "N" 
			},
			{
				"x": -2.0062035013,
				"y": 0.4221649493,
				"z": 1.9073675206,
				"element": "N" 
			},
			{
				"x": -1.0702121756,
				"y": -0.3156767225,
				"z": 1.3702839114,
				"element": "C" 
			},
			{
				"x": -1.248928946,
				"y": -1.760991365,
				"z": 0.3859322539,
				"element": "S" 
			},
			{
				"x": -3.1068149221,
				"y": -1.8269659722,
				"z": 0.2862439474,
				"element": "C" 
			},
			{
				"x": -3.7044638936,
				"y": -1.0694652945,
				"z": -0.8710591108,
				"element": "C" 
			},
			{
				"x": -3.8993191842,
				"y": -1.7020713324,
				"z": -2.1064396163,
				"element": "C" 
			},
			{
				"x": -4.4609180619,
				"y": -1.0110409274,
				"z": -3.1800151199,
				"element": "C" 
			},
			{
				"x": -4.8370297983,
				"y": 0.3252796021,
				"z": -3.0299894311,
				"element": "C" 
			},
			{
				"x": -4.6483983662,
				"y": 0.9628351135,
				"z": -1.801982919,
				"element": "C" 
			},
			{
				"x": -4.086419845,
				"y": 0.2722689236,
				"z": -0.7276531372,
				"element": "C" 
			},
			{
				"x": 0.1824761398,
				"y": 0.1812201623,
				"z": 1.6923778126,
				"element": "N" 
			},
			{
				"x": 1.2988895397,
				"y": -0.4612339422,
				"z": 1.2340003619,
				"element": "N" 
			},
			{
				"x": 2.4755601783,
				"y": -0.0128012168,
				"z": 1.4891531613,
				"element": "C" 
			},
			{
				"x": 3.651105396,
				"y": -0.7275679321,
				"z": 0.9794785685,
				"element": "C" 
			},
			{
				"x": 3.5061963394,
				"y": -1.8943126553,
				"z": 0.2028807127,
				"element": "C" 
			},
			{
				"x": 4.6108756012,
				"y": -2.5781670766,
				"z": -0.2856290508,
				"element": "C" 
			},
			{
				"x": 5.8997498421,
				"y": -2.1110798658,
				"z": -0.0090665464,
				"element": "C" 
			},
			{
				"x": 6.0758693334,
				"y": -0.9602521561,
				"z": 0.7560476874,
				"element": "C" 
			},
			{
				"x": 4.9597328025,
				"y": -0.280477677,
				"z": 1.2420587739,
				"element": "C" 
			},
			{
				"x": 5.248289006,
				"y": 1.1691325589,
				"z": 2.2050920924,
				"element": "Cl" 
			},
			{
				"x": 0.3344813991,
				"y": 2.9640754345,
				"z": 3.687487406,
				"element": "H" 
			},
			{
				"x": 1.5704123317,
				"y": 1.7004975651,
				"z": 3.8273183457,
				"element": "H" 
			},
			{
				"x": 1.5256278279,
				"y": 2.746222891,
				"z": 2.3930807184,
				"element": "H" 
			},
			{
				"x": -3.3126782133,
				"y": -2.8973171029,
				"z": 0.2059313612,
				"element": "H" 
			},
			{
				"x": -3.478575694,
				"y": -1.4684825033,
				"z": 1.2470213232,
				"element": "H" 
			},
			{
				"x": -3.6116021153,
				"y": -2.7441647724,
				"z": -2.2270446587,
				"element": "H" 
			},
			{
				"x": -4.6085897557,
				"y": -1.5163403124,
				"z": -4.1304225689,
				"element": "H" 
			},
			{
				"x": -5.2772277616,
				"y": 0.8647415198,
				"z": -3.8639306061,
				"element": "H" 
			},
			{
				"x": -4.9422653002,
				"y": 2.0014305353,
				"z": -1.6778264872,
				"element": "H" 
			},
			{
				"x": -3.9284028841,
				"y": 0.7655465595,
				"z": 0.226425364,
				"element": "H" 
			},
			{
				"x": 2.6610786792,
				"y": 0.8841480764,
				"z": 2.0710746288,
				"element": "H" 
			},
			{
				"x": 2.4999427448,
				"y": -2.2422971379,
				"z": -0.0028837249,
				"element": "H" 
			},
			{
				"x": 4.4709364276,
				"y": -3.4742670087,
				"z": -0.8818920807,
				"element": "H" 
			},
			{
				"x": 6.7693451603,
				"y": -2.63976365,
				"z": -0.3873083974,
				"element": "H" 
			},
			{
				"x": 7.0682408705,
				"y": -0.5852572605,
				"z": 0.9793386665,
				"element": "H" 
			}
		],
		 "valence_orbital": [ 
			{
				"type": "occ",
				"energy": -0.25468,
				"method": "rhf"
			},
			{
				"type": "occ",
				"energy": -0.2487,
				"method": "rhf"
			},
			{
				"type": "occ",
				"energy": -0.24331,
				"method": "rhf"
			},
			{
				"type": "occ",
				"energy": -0.23796,
				"method": "rhf"
			},
			{
				"type": "occ",
				"energy": -0.21766,
				"method": "rhf"
			},
			{
				"type": "unocc",
				"energy": -0.07883,
				"method": "rhf"
			},
			{
				"type": "unocc",
				"energy": -0.02644,
				"method": "rhf"
			},
			{
				"type": "unocc",
				"energy": -0.00922,
				"method": "rhf"
			},
			{
				"type": "unocc",
				"energy": 0.00403,
				"method": "rhf"
			},
			{
				"type": "unocc",
				"energy": 0.00827,
				"method": "rhf"
			}
		],
		"cosmo_sigma_profile": { 
			"-0.025": 0.0,
			"-0.024": 0.0,
			"-0.023": 0.0,
			"-0.022": 0.0,
			"-0.021": 0.0,
			"-0.02": 0.0,
			"-0.019": 0.0,
			"-0.018": 0.0,
			"-0.017": 0.0,
			"-0.016": 0.0,
			"-0.015": 0.0,
			"-0.014": 0.0,
			"-0.013": 0.0,
			"-0.012": 0.0,
			"-0.011": 0.0,
			"-0.01": 0.0487482835718,
			"-0.009": 1.01588179742,
			"-0.008": 4.81106389238,
			"-0.007": 14.5245623185,
			"-0.006": 20.9975181954,
			"-0.005": 27.6550967116,
			"-0.004": 25.1618116057,
			"-0.003": 31.6919645312,
			"-0.002": 28.2410063029,
			"-0.001": 24.9046050378,
			"0.0": 27.1636884118,
			"0.001": 29.0899886959,
			"0.002": 32.2551884385,
			"0.003": 30.3445582795,
			"0.004": 22.8333688319,
			"0.005": 18.3166014219,
			"0.006": 14.7072472883,
			"0.007": 4.38809565503,
			"0.008": 2.32830498797,
			"0.009": 1.3159521786,
			"0.01": 2.00860994804,
			"0.011": 2.41665197549,
			"0.012": 2.19686669217,
			"0.013": 2.94809495289,
			"0.014": 1.71717999563,
			"0.015": 1.00041569274,
			"0.016": 1.11934885759,
			"0.017": 0.197563592641,
			"0.018": 0.0,
			"0.019": 0.0,
			"0.02": 0.0,
			"0.021": 0.0,
			"0.022": 0.0,
			"0.023": 0.0,
			"0.024": 0.0,
			"0.025": 0.0
		}
	}
}
