{
	 "smiles": "CC1=CC(C(O)=O)=C(O1)C(F)(F)F", 
	 "Tm": 398.15, 
	 "num_atms": 18, 
	 "gaussian": { 
		 "optdone": 1, 
		 "sigma_profile": "yes", 
		 "theory": "DFT", 
		 "functional": "B3LYP", 
		 "basiset": "6-31G**", 
		 "properties": { 
			 "R2extent": 2700.7586, 
			 "electric_dipole_moment_norm": 6.76208420016, 
			 "electric_quadrupole_moment_norm": 9.57849144229, 
			 "total_energy": -794.934890805, 
			 "HOMO_LUMO_gap": 0.20313, 
			 "cosmo_polarized_energy": -16.08, 
			 "cosmo_cavitation_energy": 24.63, 
			 "cosmo_dispersion_energy": -17.6, 
			 "cosmo_repulsion_energy": 1.36, 
			 "cosmo_total_nonelectrostatic_energy": 8.38, 
			 "SMD_solvation_energy": 7.2 
		},
		"coords": [
			{
				"x": 0.0187411252,
				"y": 0.6871378259,
				"z": -2.9182916072,
				"element": "C" 
			},
			{
				"x": 0.2758378878,
				"y": 0.3764036669,
				"z": -1.48692832,
				"element": "C" 
			},
			{
				"x": 0.4412305598,
				"y": 1.1372668937,
				"z": -0.3682466615,
				"element": "C" 
			},
			{
				"x": 0.6619737505,
				"y": 0.2319485326,
				"z": 0.7282995777,
				"element": "C" 
			},
			{
				"x": 0.8992816429,
				"y": 0.5186309363,
				"z": 2.1662127533,
				"element": "C" 
			},
			{
				"x": 0.9138341678,
				"y": 1.8297579667,
				"z": 2.5240228219,
				"element": "O" 
			},
			{
				"x": 1.0731286664,
				"y": -0.3397967613,
				"z": 2.9966379453,
				"element": "O" 
			},
			{
				"x": 0.611971667,
				"y": -1.0245893621,
				"z": 0.1789207409,
				"element": "C" 
			},
			{
				"x": 0.3800516348,
				"y": -0.9461753632,
				"z": -1.1533503083,
				"element": "O" 
			},
			{
				"x": 0.7585102308,
				"y": -2.4121263815,
				"z": 0.7449586328,
				"element": "C" 
			},
			{
				"x": 1.9657925392,
				"y": -2.5914444904,
				"z": 1.3053322422,
				"element": "F" 
			},
			{
				"x": 0.6205749701,
				"y": -3.3221812417,
				"z": -0.2395526543,
				"element": "F" 
			},
			{
				"x": -0.1761767934,
				"y": -2.6667784126,
				"z": 1.6751122863,
				"element": "F" 
			},
			{
				"x": -0.0436948631,
				"y": 1.7682896388,
				"z": -3.058229796,
				"element": "H" 
			},
			{
				"x": 0.8200254656,
				"y": 0.3008129806,
				"z": -3.5573448397,
				"element": "H" 
			},
			{
				"x": -0.9211710397,
				"y": 0.2389938939,
				"z": -3.2580236679,
				"element": "H" 
			},
			{
				"x": 0.4066256705,
				"y": 2.2184197904,
				"z": -0.3468064817,
				"element": "H" 
			},
			{
				"x": 0.7615627178,
				"y": 2.4014298869,
				"z": 1.759977336,
				"element": "H" 
			}
		],
		 "valence_orbital": [ 
			{
				"type": "occ",
				"energy": -0.38264,
				"method": "rhf"
			},
			{
				"type": "occ",
				"energy": -0.32652,
				"method": "rhf"
			},
			{
				"type": "occ",
				"energy": -0.30967,
				"method": "rhf"
			},
			{
				"type": "occ",
				"energy": -0.28129,
				"method": "rhf"
			},
			{
				"type": "occ",
				"energy": -0.2581,
				"method": "rhf"
			},
			{
				"type": "unocc",
				"energy": -0.05497,
				"method": "rhf"
			},
			{
				"type": "unocc",
				"energy": -0.00258,
				"method": "rhf"
			},
			{
				"type": "unocc",
				"energy": 0.04462,
				"method": "rhf"
			},
			{
				"type": "unocc",
				"energy": 0.07488,
				"method": "rhf"
			},
			{
				"type": "unocc",
				"energy": 0.09235,
				"method": "rhf"
			}
		],
		"cosmo_sigma_profile": { 
			"-0.025": 0.0,
			"-0.024": 0.0,
			"-0.023": 0.0,
			"-0.022": 0.0,
			"-0.021": 0.0,
			"-0.02": 0.0541800076336,
			"-0.019": 0.763967478667,
			"-0.018": 1.40765030855,
			"-0.017": 0.73930246948,
			"-0.016": 1.04585391396,
			"-0.015": 0.999562352017,
			"-0.014": 1.11410573348,
			"-0.013": 0.883825441535,
			"-0.012": 1.7017725704,
			"-0.011": 1.3275299927,
			"-0.01": 1.18218475504,
			"-0.009": 0.978692220038,
			"-0.008": 1.93705370319,
			"-0.007": 4.69734907803,
			"-0.006": 7.19997463325,
			"-0.005": 8.0923194647,
			"-0.004": 11.3161690974,
			"-0.003": 12.179968594,
			"-0.002": 17.8389083376,
			"-0.001": 14.2092695897,
			"0.0": 11.6189112968,
			"0.001": 11.775408819,
			"0.002": 28.2317070449,
			"0.003": 16.7403617414,
			"0.004": 4.89338703984,
			"0.005": 5.44729518565,
			"0.006": 4.29741281081,
			"0.007": 3.17849023238,
			"0.008": 3.70681535691,
			"0.009": 4.71018080968,
			"0.01": 5.48697567025,
			"0.011": 4.37559185117,
			"0.012": 2.5279300492,
			"0.013": 0.850493126594,
			"0.014": 0.0,
			"0.015": 0.0,
			"0.016": 0.0,
			"0.017": 0.0,
			"0.018": 0.0,
			"0.019": 0.0,
			"0.02": 0.0,
			"0.021": 0.0,
			"0.022": 0.0,
			"0.023": 0.0,
			"0.024": 0.0,
			"0.025": 0.0
		}
	}
}
