{
	 "smiles": "COC1=CC2=C(C=C1)N=C(C)C=C2O", 
	 "Tm": 558.15, 
	 "num_atms": 25, 
	 "gaussian": { 
		 "optdone": 1, 
		 "sigma_profile": "yes", 
		 "theory": "DFT", 
		 "functional": "B3LYP", 
		 "basiset": "6-31G**", 
		 "properties": { 
			 "R2extent": 4072.4441, 
			 "electric_dipole_moment_norm": 2.66780824461, 
			 "electric_quadrupole_moment_norm": 8.14012104455, 
			 "total_energy": -630.9991347, 
			 "HOMO_LUMO_gap": 0.16595, 
			 "cosmo_polarized_energy": -12.44, 
			 "cosmo_cavitation_energy": 28.52, 
			 "cosmo_dispersion_energy": -21.47, 
			 "cosmo_repulsion_energy": 1.67, 
			 "cosmo_total_nonelectrostatic_energy": 8.72, 
			 "SMD_solvation_energy": 4.4 
		},
		"coords": [
			{
				"x": 0.2575572088,
				"y": -2.4611658958,
				"z": 2.5167358723,
				"element": "C" 
			},
			{
				"x": -0.2668305583,
				"y": -2.4888436131,
				"z": 1.1982308614,
				"element": "O" 
			},
			{
				"x": -0.5296970714,
				"y": -1.3032717048,
				"z": 0.5725097121,
				"element": "C" 
			},
			{
				"x": -1.0395797947,
				"y": -1.3910350451,
				"z": -0.7122277602,
				"element": "C" 
			},
			{
				"x": -1.3464192186,
				"y": -0.2259616097,
				"z": -1.4492499286,
				"element": "C" 
			},
			{
				"x": -1.1292628885,
				"y": 1.0623133751,
				"z": -0.8653249582,
				"element": "C" 
			},
			{
				"x": -0.6066041179,
				"y": 1.1137014892,
				"z": 0.4505540761,
				"element": "C" 
			},
			{
				"x": -0.3112817434,
				"y": -0.0312023075,
				"z": 1.1594162315,
				"element": "C" 
			},
			{
				"x": -1.3965303211,
				"y": 2.2398338948,
				"z": -1.5027101689,
				"element": "N" 
			},
			{
				"x": -1.8839466391,
				"y": 2.1828731559,
				"z": -2.7297334336,
				"element": "C" 
			},
			{
				"x": -2.175108988,
				"y": 3.4910767487,
				"z": -3.4233252601,
				"element": "C" 
			},
			{
				"x": -2.1387955711,
				"y": 0.9599810793,
				"z": -3.4062326216,
				"element": "C" 
			},
			{
				"x": -1.8755461038,
				"y": -0.2360669681,
				"z": -2.7796116477,
				"element": "C" 
			},
			{
				"x": -2.1301442956,
				"y": -1.3875932523,
				"z": -3.4534090584,
				"element": "O" 
			},
			{
				"x": -0.4310139155,
				"y": -1.9741705532,
				"z": 3.2190861673,
				"element": "H" 
			},
			{
				"x": 1.2302544262,
				"y": -1.9544618562,
				"z": 2.55791179,
				"element": "H" 
			},
			{
				"x": 0.3863894717,
				"y": -3.5043254091,
				"z": 2.8093784707,
				"element": "H" 
			},
			{
				"x": -1.1869379156,
				"y": -2.3912344931,
				"z": -1.1125801646,
				"element": "H" 
			},
			{
				"x": -0.446036587,
				"y": 2.0957452034,
				"z": 0.8833387171,
				"element": "H" 
			},
			{
				"x": 0.0871894994,
				"y": 0.0493815781,
				"z": 2.1638012527,
				"element": "H" 
			},
			{
				"x": -3.2339629491,
				"y": 3.5658971866,
				"z": -3.6976976397,
				"element": "H" 
			},
			{
				"x": -1.5957654015,
				"y": 3.584998936,
				"z": -4.3493878731,
				"element": "H" 
			},
			{
				"x": -1.9216303299,
				"y": 4.3206678174,
				"z": -2.7618207599,
				"element": "H" 
			},
			{
				"x": -2.5397762224,
				"y": 0.9543011944,
				"z": -4.4143477063,
				"element": "H" 
			},
			{
				"x": -1.9031199735,
				"y": -2.147538951,
				"z": -2.9031041706,
				"element": "H" 
			}
		],
		 "valence_orbital": [ 
			{
				"type": "occ",
				"energy": -0.29817,
				"method": "rhf"
			},
			{
				"type": "occ",
				"energy": -0.27367,
				"method": "rhf"
			},
			{
				"type": "occ",
				"energy": -0.24531,
				"method": "rhf"
			},
			{
				"type": "occ",
				"energy": -0.23504,
				"method": "rhf"
			},
			{
				"type": "occ",
				"energy": -0.20562,
				"method": "rhf"
			},
			{
				"type": "unocc",
				"energy": -0.03967,
				"method": "rhf"
			},
			{
				"type": "unocc",
				"energy": -0.00467,
				"method": "rhf"
			},
			{
				"type": "unocc",
				"energy": 0.03454,
				"method": "rhf"
			},
			{
				"type": "unocc",
				"energy": 0.0573,
				"method": "rhf"
			},
			{
				"type": "unocc",
				"energy": 0.09516,
				"method": "rhf"
			}
		],
		"cosmo_sigma_profile": { 
			"-0.025": 0.0,
			"-0.024": 0.0,
			"-0.023": 0.0,
			"-0.022": 0.0,
			"-0.021": 0.0,
			"-0.02": 0.0,
			"-0.019": 0.0,
			"-0.018": 0.620617095006,
			"-0.017": 0.918417093912,
			"-0.016": 1.03687812049,
			"-0.015": 1.02117822915,
			"-0.014": 1.09012305227,
			"-0.013": 0.852505567086,
			"-0.012": 0.685339128178,
			"-0.011": 1.10939777317,
			"-0.01": 1.26175494579,
			"-0.009": 0.48438795689,
			"-0.008": 1.21938327517,
			"-0.007": 3.13635191724,
			"-0.006": 10.4857923057,
			"-0.005": 16.7101309132,
			"-0.004": 18.2802365665,
			"-0.003": 19.7836325007,
			"-0.002": 14.9501104773,
			"-0.001": 14.0592998553,
			"0.0": 13.262308844,
			"0.001": 14.3454143922,
			"0.002": 17.1167291528,
			"0.003": 24.1241680066,
			"0.004": 15.1511815109,
			"0.005": 7.29993803032,
			"0.006": 5.11934281896,
			"0.007": 3.64068334962,
			"0.008": 4.39882612653,
			"0.009": 5.28362473337,
			"0.01": 4.35713424489,
			"0.011": 1.4969545884,
			"0.012": 0.757126556181,
			"0.013": 0.643686938249,
			"0.014": 0.747180862274,
			"0.015": 0.921170208894,
			"0.016": 0.757546306931,
			"0.017": 0.0914719915615,
			"0.018": 0.0,
			"0.019": 0.0,
			"0.02": 0.0,
			"0.021": 0.0,
			"0.022": 0.0,
			"0.023": 0.0,
			"0.024": 0.0,
			"0.025": 0.0
		}
	}
}
