{
	 "smiles": "CC(C)C(=O)NC1=CC=C(CNC(=O)N2C=CN=C2)C=C1", 
	 "Tm": 477.15, 
	 "num_atms": 39, 
	 "gaussian": { 
		 "optdone": 1, 
		 "sigma_profile": "yes", 
		 "theory": "DFT", 
		 "functional": "B3LYP", 
		 "basiset": "6-31G**", 
		 "properties": { 
			 "R2extent": 11128.058, 
			 "electric_dipole_moment_norm": 8.02528176079, 
			 "electric_quadrupole_moment_norm": 26.2764193689, 
			 "total_energy": -951.930245179, 
			 "HOMO_LUMO_gap": 0.20408, 
			 "cosmo_polarized_energy": -24.23, 
			 "cosmo_cavitation_energy": 43.05, 
			 "cosmo_dispersion_energy": -30.29, 
			 "cosmo_repulsion_energy": 2.32, 
			 "cosmo_total_nonelectrostatic_energy": 15.08, 
			 "SMD_solvation_energy": 7.77 
		},
		"coords": [
			{
				"x": -1.0039855416,
				"y": 1.6656742705,
				"z": 5.2627650678,
				"element": "C" 
			},
			{
				"x": -1.2265459023,
				"y": 0.3738301096,
				"z": 4.4583491463,
				"element": "C" 
			},
			{
				"x": -2.6818161085,
				"y": -0.1115421625,
				"z": 4.5693072799,
				"element": "C" 
			},
			{
				"x": -0.8956746049,
				"y": 0.6363867437,
				"z": 2.9840918732,
				"element": "C" 
			},
			{
				"x": -1.5077015401,
				"y": 1.4718262957,
				"z": 2.3314693219,
				"element": "O" 
			},
			{
				"x": 0.1277455059,
				"y": -0.1360732557,
				"z": 2.475493742,
				"element": "N" 
			},
			{
				"x": 0.6699120238,
				"y": -0.14395979,
				"z": 1.1741060446,
				"element": "C" 
			},
			{
				"x": 1.7266056652,
				"y": -1.0345822525,
				"z": 0.9176023844,
				"element": "C" 
			},
			{
				"x": 2.3113625497,
				"y": -1.0947983314,
				"z": -0.3408040483,
				"element": "C" 
			},
			{
				"x": 1.859363577,
				"y": -0.2759858557,
				"z": -1.3843265443,
				"element": "C" 
			},
			{
				"x": 2.5023783153,
				"y": -0.3988375877,
				"z": -2.7567890115,
				"element": "C" 
			},
			{
				"x": 2.2200966903,
				"y": 0.7176370758,
				"z": -3.6575118152,
				"element": "N" 
			},
			{
				"x": 1.7326285423,
				"y": 0.6716220608,
				"z": -4.9388334852,
				"element": "C" 
			},
			{
				"x": 2.010811986,
				"y": 1.5000793586,
				"z": -5.7870500133,
				"element": "O" 
			},
			{
				"x": 0.8372163198,
				"y": -0.3949086544,
				"z": -5.2398602436,
				"element": "N" 
			},
			{
				"x": -0.0435568077,
				"y": -1.1096649043,
				"z": -4.4246459221,
				"element": "C" 
			},
			{
				"x": -0.7238958673,
				"y": -1.9384786983,
				"z": -5.2710647428,
				"element": "C" 
			},
			{
				"x": -0.3035605841,
				"y": -1.7698963397,
				"z": -6.5794734142,
				"element": "N" 
			},
			{
				"x": 0.6107459543,
				"y": -0.8370288131,
				"z": -6.5306593913,
				"element": "C" 
			},
			{
				"x": 0.8116388412,
				"y": 0.6093061473,
				"z": -1.1190761092,
				"element": "C" 
			},
			{
				"x": 0.2140677335,
				"y": 0.6862941749,
				"z": 0.140437509,
				"element": "C" 
			},
			{
				"x": -1.6195691092,
				"y": 2.4699938769,
				"z": 4.8509189905,
				"element": "H" 
			},
			{
				"x": 0.0421778223,
				"y": 1.9869222638,
				"z": 5.2274156554,
				"element": "H" 
			},
			{
				"x": -1.2789277044,
				"y": 1.5160378572,
				"z": 6.3115130587,
				"element": "H" 
			},
			{
				"x": -0.5627690282,
				"y": -0.4074382522,
				"z": 4.8543649618,
				"element": "H" 
			},
			{
				"x": -2.9566367617,
				"y": -0.2616240609,
				"z": 5.6180232773,
				"element": "H" 
			},
			{
				"x": -3.3552369759,
				"y": 0.6317638289,
				"z": 4.1339839118,
				"element": "H" 
			},
			{
				"x": -2.8323417166,
				"y": -1.0576155894,
				"z": 4.0390546313,
				"element": "H" 
			},
			{
				"x": 0.5510382642,
				"y": -0.7883719566,
				"z": 3.1195569682,
				"element": "H" 
			},
			{
				"x": 2.0944448204,
				"y": -1.6793601483,
				"z": 1.7128986331,
				"element": "H" 
			},
			{
				"x": 3.1311615199,
				"y": -1.7890493152,
				"z": -0.5114126752,
				"element": "H" 
			},
			{
				"x": 2.1769913478,
				"y": -1.321400828,
				"z": -3.2452626042,
				"element": "H" 
			},
			{
				"x": 3.5905575369,
				"y": -0.4876386237,
				"z": -2.6395472177,
				"element": "H" 
			},
			{
				"x": 2.792510482,
				"y": 1.5429202413,
				"z": -3.5317495372,
				"element": "H" 
			},
			{
				"x": -0.1286096072,
				"y": -0.9265408571,
				"z": -3.3658036526,
				"element": "H" 
			},
			{
				"x": -1.501911887,
				"y": -2.6453016732,
				"z": -5.017509196,
				"element": "H" 
			},
			{
				"x": 1.1627693133,
				"y": -0.4228842071,
				"z": -7.3612009539,
				"element": "H" 
			},
			{
				"x": 0.4575142328,
				"y": 1.2643104153,
				"z": -1.9092921357,
				"element": "H" 
			},
			{
				"x": -0.5935992973,
				"y": 1.377777437,
				"z": 0.3331202562,
				"element": "H" 
			}
		],
		 "valence_orbital": [ 
			{
				"type": "occ",
				"energy": -0.26885,
				"method": "rhf"
			},
			{
				"type": "occ",
				"energy": -0.26442,
				"method": "rhf"
			},
			{
				"type": "occ",
				"energy": -0.25788,
				"method": "rhf"
			},
			{
				"type": "occ",
				"energy": -0.23539,
				"method": "rhf"
			},
			{
				"type": "occ",
				"energy": -0.22849,
				"method": "rhf"
			},
			{
				"type": "unocc",
				"energy": -0.02441,
				"method": "rhf"
			},
			{
				"type": "unocc",
				"energy": -0.01835,
				"method": "rhf"
			},
			{
				"type": "unocc",
				"energy": -0.01692,
				"method": "rhf"
			},
			{
				"type": "unocc",
				"energy": 0.03404,
				"method": "rhf"
			},
			{
				"type": "unocc",
				"energy": 0.05283,
				"method": "rhf"
			}
		],
		"cosmo_sigma_profile": { 
			"-0.025": 0.0,
			"-0.024": 0.0,
			"-0.023": 0.0,
			"-0.022": 0.0,
			"-0.021": 0.0,
			"-0.02": 0.0,
			"-0.019": 0.0,
			"-0.018": 0.0,
			"-0.017": 0.0,
			"-0.016": 0.0,
			"-0.015": 1.20495086492,
			"-0.014": 2.66657396357,
			"-0.013": 2.86094780627,
			"-0.012": 1.96784620056,
			"-0.011": 2.33362607035,
			"-0.01": 2.76674776824,
			"-0.009": 3.1119793325,
			"-0.008": 4.49925144336,
			"-0.007": 8.83466674339,
			"-0.006": 15.956019903,
			"-0.005": 19.0063183363,
			"-0.004": 28.2992700119,
			"-0.003": 29.6860714049,
			"-0.002": 25.9491567413,
			"-0.001": 25.6982450579,
			"0.0": 25.9697016017,
			"0.001": 25.6385933264,
			"0.002": 16.7934914896,
			"0.003": 15.4572250691,
			"0.004": 17.3389804705,
			"0.005": 15.4427134011,
			"0.006": 7.10991780285,
			"0.007": 5.09592975308,
			"0.008": 5.19170892727,
			"0.009": 3.43796668715,
			"0.01": 4.30794575056,
			"0.011": 6.00299740518,
			"0.012": 8.57641220988,
			"0.013": 4.78610257008,
			"0.014": 2.89088952988,
			"0.015": 0.841470307115,
			"0.016": 1.12754749479,
			"0.017": 0.74357782652,
			"0.018": 0.10260957988,
			"0.019": 0.0,
			"0.02": 0.0,
			"0.021": 0.0,
			"0.022": 0.0,
			"0.023": 0.0,
			"0.024": 0.0,
			"0.025": 0.0
		}
	}
}
