{
	 "smiles": "O=C1CCC2=CC=CC3=C2N1CC3", 
	 "Tm": 385.15, 
	 "num_atms": 24, 
	 "gaussian": { 
		 "optdone": 1, 
		 "sigma_profile": "yes", 
		 "theory": "DFT", 
		 "functional": "B3LYP", 
		 "basiset": "6-31G**", 
		 "properties": { 
			 "R2extent": 2272.916, 
			 "electric_dipole_moment_norm": 2.93786805864, 
			 "electric_quadrupole_moment_norm": 11.1701513069, 
			 "total_energy": -555.805075371, 
			 "HOMO_LUMO_gap": 0.19379, 
			 "cosmo_polarized_energy": -9.79, 
			 "cosmo_cavitation_energy": 25.95, 
			 "cosmo_dispersion_energy": -19.69, 
			 "cosmo_repulsion_energy": 1.55, 
			 "cosmo_total_nonelectrostatic_energy": 7.8, 
			 "SMD_solvation_energy": 3.9 
		},
		"coords": [
			{
				"x": 0.4706917353,
				"y": -2.3112331518,
				"z": -2.1212899519,
				"element": "O" 
			},
			{
				"x": -0.0835380404,
				"y": -1.7882700516,
				"z": -1.1637582117,
				"element": "C" 
			},
			{
				"x": -0.6616570658,
				"y": -2.581076182,
				"z": 0.015854717,
				"element": "C" 
			},
			{
				"x": -1.8460960352,
				"y": -1.9145398563,
				"z": 0.7480742314,
				"element": "C" 
			},
			{
				"x": -1.5706392925,
				"y": -0.4511675768,
				"z": 1.0102091901,
				"element": "C" 
			},
			{
				"x": -2.080114312,
				"y": 0.3360639193,
				"z": 2.0483978372,
				"element": "C" 
			},
			{
				"x": -1.791657969,
				"y": 1.7049745577,
				"z": 2.1198563368,
				"element": "C" 
			},
			{
				"x": -0.9871819998,
				"y": 2.3283082427,
				"z": 1.1533883438,
				"element": "C" 
			},
			{
				"x": -0.467239099,
				"y": 1.5608097426,
				"z": 0.1161176258,
				"element": "C" 
			},
			{
				"x": -0.7659961679,
				"y": 0.2013409928,
				"z": 0.0820592276,
				"element": "C" 
			},
			{
				"x": -0.1719588046,
				"y": -0.4267573482,
				"z": -1.0185178401,
				"element": "N" 
			},
			{
				"x": 0.4843035569,
				"y": 0.5674596348,
				"z": -1.886029331,
				"element": "C" 
			},
			{
				"x": 0.438120977,
				"y": 1.8911407661,
				"z": -1.0586109328,
				"element": "C" 
			},
			{
				"x": 0.1708917883,
				"y": -2.7240239833,
				"z": 0.7188289659,
				"element": "H" 
			},
			{
				"x": -0.9287118563,
				"y": -3.5699820049,
				"z": -0.3627211519,
				"element": "H" 
			},
			{
				"x": -2.0606256544,
				"y": -2.4514245238,
				"z": 1.6781517635,
				"element": "H" 
			},
			{
				"x": -2.7488771749,
				"y": -2.0028858618,
				"z": 0.1261860863,
				"element": "H" 
			},
			{
				"x": -2.7130548205,
				"y": -0.120383205,
				"z": 2.8055125069,
				"element": "H" 
			},
			{
				"x": -2.2008607266,
				"y": 2.2937468982,
				"z": 2.935244875,
				"element": "H" 
			},
			{
				"x": -0.7768794481,
				"y": 3.3922410125,
				"z": 1.2214780472,
				"element": "H" 
			},
			{
				"x": 1.4972672171,
				"y": 0.2350442632,
				"z": -2.1237898322,
				"element": "H" 
			},
			{
				"x": -0.0647172145,
				"y": 0.6565484043,
				"z": -2.8294944508,
				"element": "H" 
			},
			{
				"x": 1.4396534237,
				"y": 2.1779421727,
				"z": -0.7160393713,
				"element": "H" 
			},
			{
				"x": 0.0584769832,
				"y": 2.7225231387,
				"z": -1.660708681,
				"element": "H" 
			}
		],
		 "valence_orbital": [ 
			{
				"type": "occ",
				"energy": -0.33155,
				"method": "rhf"
			},
			{
				"type": "occ",
				"energy": -0.29539,
				"method": "rhf"
			},
			{
				"type": "occ",
				"energy": -0.24568,
				"method": "rhf"
			},
			{
				"type": "occ",
				"energy": -0.24462,
				"method": "rhf"
			},
			{
				"type": "occ",
				"energy": -0.20565,
				"method": "rhf"
			},
			{
				"type": "unocc",
				"energy": -0.01186,
				"method": "rhf"
			},
			{
				"type": "unocc",
				"energy": -0.0025,
				"method": "rhf"
			},
			{
				"type": "unocc",
				"energy": 0.04266,
				"method": "rhf"
			},
			{
				"type": "unocc",
				"energy": 0.09666,
				"method": "rhf"
			},
			{
				"type": "unocc",
				"energy": 0.10275,
				"method": "rhf"
			}
		],
		"cosmo_sigma_profile": { 
			"-0.025": 0.0,
			"-0.024": 0.0,
			"-0.023": 0.0,
			"-0.022": 0.0,
			"-0.021": 0.0,
			"-0.02": 0.0,
			"-0.019": 0.0,
			"-0.018": 0.0,
			"-0.017": 0.0,
			"-0.016": 0.0,
			"-0.015": 0.0,
			"-0.014": 0.0,
			"-0.013": 0.0,
			"-0.012": 0.0,
			"-0.011": 0.0,
			"-0.01": 0.0,
			"-0.009": 0.0,
			"-0.008": 0.0,
			"-0.007": 0.0,
			"-0.006": 3.68163894972,
			"-0.005": 22.1534574039,
			"-0.004": 28.9006304348,
			"-0.003": 28.5983388766,
			"-0.002": 24.6561345499,
			"-0.001": 18.5664299054,
			"0.0": 9.6799489882,
			"0.001": 8.95956818516,
			"0.002": 7.66584353832,
			"0.003": 7.91675394361,
			"0.004": 7.80424028907,
			"0.005": 8.92225144964,
			"0.006": 7.57605571397,
			"0.007": 2.22190559082,
			"0.008": 2.13222918878,
			"0.009": 1.22190216431,
			"0.01": 1.25624828608,
			"0.011": 1.24182942679,
			"0.012": 2.15021161252,
			"0.013": 4.1605044767,
			"0.014": 4.74908246226,
			"0.015": 1.16006986742,
			"0.016": 0.0,
			"0.017": 0.0,
			"0.018": 0.0,
			"0.019": 0.0,
			"0.02": 0.0,
			"0.021": 0.0,
			"0.022": 0.0,
			"0.023": 0.0,
			"0.024": 0.0,
			"0.025": 0.0
		}
	}
}
