{
	 "smiles": "COC1=CC2=C(C=C1)C=C(C=C2)C(C)Cl", 
	 "Tm": 356.15, 
	 "num_atms": 28, 
	 "gaussian": { 
		 "optdone": 1, 
		 "sigma_profile": "yes", 
		 "theory": "DFT", 
		 "functional": "B3LYP", 
		 "basiset": "6-31G**", 
		 "properties": { 
			 "R2extent": 5849.2942, 
			 "electric_dipole_moment_norm": 3.03051711429, 
			 "electric_quadrupole_moment_norm": 22.4089011547, 
			 "total_energy": -1038.64895192, 
			 "HOMO_LUMO_gap": 0.17212, 
			 "cosmo_polarized_energy": -9.22, 
			 "cosmo_cavitation_energy": 32.84, 
			 "cosmo_dispersion_energy": -23.9, 
			 "cosmo_repulsion_energy": 1.86, 
			 "cosmo_total_nonelectrostatic_energy": 10.8, 
			 "SMD_solvation_energy": 5.69 
		},
		"coords": [
			{
				"x": -3.1178931011,
				"y": 1.5416769498,
				"z": -2.272610714,
				"element": "C" 
			},
			{
				"x": -1.7061286003,
				"y": 1.5988847571,
				"z": -2.4043621645,
				"element": "O" 
			},
			{
				"x": -0.9465436388,
				"y": 1.1034129097,
				"z": -1.3870359899,
				"element": "C" 
			},
			{
				"x": -1.4391602851,
				"y": 0.5396441086,
				"z": -0.2256276439,
				"element": "C" 
			},
			{
				"x": -0.5456299437,
				"y": 0.0552433849,
				"z": 0.7680121089,
				"element": "C" 
			},
			{
				"x": 0.8659490071,
				"y": 0.1541832655,
				"z": 0.5608034982,
				"element": "C" 
			},
			{
				"x": 1.3334506915,
				"y": 0.7416731695,
				"z": -0.6481499441,
				"element": "C" 
			},
			{
				"x": 0.4573074326,
				"y": 1.2033284274,
				"z": -1.59633297,
				"element": "C" 
			},
			{
				"x": 1.7477863951,
				"y": -0.3299566204,
				"z": 1.5603598984,
				"element": "C" 
			},
			{
				"x": 1.2772781025,
				"y": -0.9027972736,
				"z": 2.7256175445,
				"element": "C" 
			},
			{
				"x": -0.1271927279,
				"y": -0.9928018834,
				"z": 2.9273676012,
				"element": "C" 
			},
			{
				"x": -1.0079996278,
				"y": -0.5279953298,
				"z": 1.9799321763,
				"element": "C" 
			},
			{
				"x": 2.246993243,
				"y": -1.4545240003,
				"z": 3.737634461,
				"element": "C" 
			},
			{
				"x": 2.086417891,
				"y": -2.9452872395,
				"z": 4.0201028451,
				"element": "C" 
			},
			{
				"x": 2.100745128,
				"y": -0.5346743427,
				"z": 5.3433167952,
				"element": "Cl" 
			},
			{
				"x": -3.4726201825,
				"y": 0.5067231313,
				"z": -2.1842080311,
				"element": "H" 
			},
			{
				"x": -3.4647281259,
				"y": 2.1142607411,
				"z": -1.4028343185,
				"element": "H" 
			},
			{
				"x": -3.5248846814,
				"y": 1.9857133562,
				"z": -3.1822059558,
				"element": "H" 
			},
			{
				"x": -2.5050745338,
				"y": 0.4557772211,
				"z": -0.0471734114,
				"element": "H" 
			},
			{
				"x": 2.4046092974,
				"y": 0.8222513485,
				"z": -0.8138906791,
				"element": "H" 
			},
			{
				"x": 0.8029764,
				"y": 1.6531860682,
				"z": -2.5212380432,
				"element": "H" 
			},
			{
				"x": 2.8193769781,
				"y": -0.2438879198,
				"z": 1.3922634444,
				"element": "H" 
			},
			{
				"x": -0.50484626,
				"y": -1.4175804043,
				"z": 3.8526088009,
				"element": "H" 
			},
			{
				"x": -2.0790319993,
				"y": -0.5991021772,
				"z": 2.1516234633,
				"element": "H" 
			},
			{
				"x": 3.2680636514,
				"y": -1.2424716976,
				"z": 3.4160582373,
				"element": "H" 
			},
			{
				"x": 2.2302616015,
				"y": -3.5037339825,
				"z": 3.0885167969,
				"element": "H" 
			},
			{
				"x": 2.8242430409,
				"y": -3.2844317827,
				"z": 4.7512685033,
				"element": "H" 
			},
			{
				"x": 1.0887748475,
				"y": -3.1721141848,
				"z": 4.4043836907,
				"element": "H" 
			}
		],
		 "valence_orbital": [ 
			{
				"type": "occ",
				"energy": -0.28873,
				"method": "rhf"
			},
			{
				"type": "occ",
				"energy": -0.28568,
				"method": "rhf"
			},
			{
				"type": "occ",
				"energy": -0.27877,
				"method": "rhf"
			},
			{
				"type": "occ",
				"energy": -0.23166,
				"method": "rhf"
			},
			{
				"type": "occ",
				"energy": -0.21024,
				"method": "rhf"
			},
			{
				"type": "unocc",
				"energy": -0.03812,
				"method": "rhf"
			},
			{
				"type": "unocc",
				"energy": -0.01814,
				"method": "rhf"
			},
			{
				"type": "unocc",
				"energy": 0.03028,
				"method": "rhf"
			},
			{
				"type": "unocc",
				"energy": 0.03603,
				"method": "rhf"
			},
			{
				"type": "unocc",
				"energy": 0.09194,
				"method": "rhf"
			}
		],
		"cosmo_sigma_profile": { 
			"-0.025": 0.0,
			"-0.024": 0.0,
			"-0.023": 0.0,
			"-0.022": 0.0,
			"-0.021": 0.0,
			"-0.02": 0.0,
			"-0.019": 0.0,
			"-0.018": 0.0,
			"-0.017": 0.0,
			"-0.016": 0.0,
			"-0.015": 0.0,
			"-0.014": 0.0,
			"-0.013": 0.0,
			"-0.012": 0.0,
			"-0.011": 0.0,
			"-0.01": 0.0,
			"-0.009": 0.0,
			"-0.008": 0.341924452173,
			"-0.007": 4.7113333919,
			"-0.006": 17.9514004323,
			"-0.005": 23.6369359816,
			"-0.004": 25.8328964251,
			"-0.003": 23.4225506511,
			"-0.002": 16.4384296405,
			"-0.001": 16.6039834322,
			"0.0": 15.6282722701,
			"0.001": 11.7256902451,
			"0.002": 14.9467261028,
			"0.003": 18.5918877346,
			"0.004": 31.1468059405,
			"0.005": 16.6097105542,
			"0.006": 10.1780917621,
			"0.007": 10.0038078598,
			"0.008": 2.48829107821,
			"0.009": 1.0409787238,
			"0.01": 1.5658497858,
			"0.011": 0.0552531461004,
			"0.012": 0.0,
			"0.013": 0.0,
			"0.014": 0.0,
			"0.015": 0.0,
			"0.016": 0.0,
			"0.017": 0.0,
			"0.018": 0.0,
			"0.019": 0.0,
			"0.02": 0.0,
			"0.021": 0.0,
			"0.022": 0.0,
			"0.023": 0.0,
			"0.024": 0.0,
			"0.025": 0.0
		}
	}
}
