{
	 "smiles": "OC(=O)C1=CC(=C(F)C(=C1)[N+]([O-])=O)C(F)(F)F", 
	 "Tm": 394.65, 
	 "num_atms": 20, 
	 "gaussian": { 
		 "optdone": 1, 
		 "sigma_profile": "yes", 
		 "theory": "DFT", 
		 "functional": "B3LYP", 
		 "basiset": "6-31G**", 
		 "properties": { 
			 "R2extent": 4634.8231, 
			 "electric_dipole_moment_norm": 1.19477230467, 
			 "electric_quadrupole_moment_norm": 17.5376534154, 
			 "total_energy": -1061.55420192, 
			 "HOMO_LUMO_gap": 0.17945, 
			 "cosmo_polarized_energy": -17.64, 
			 "cosmo_cavitation_energy": 28.41, 
			 "cosmo_dispersion_energy": -20.07, 
			 "cosmo_repulsion_energy": 1.47, 
			 "cosmo_total_nonelectrostatic_energy": 9.82, 
			 "SMD_solvation_energy": 9.87 
		},
		"coords": [
			{
				"x": -0.5525771891,
				"y": -2.0055964319,
				"z": 2.3997426304,
				"element": "O" 
			},
			{
				"x": 0.3541383846,
				"y": -1.5624236733,
				"z": 1.4976082604,
				"element": "C" 
			},
			{
				"x": 1.40379566,
				"y": -2.1393526641,
				"z": 1.3480583637,
				"element": "O" 
			},
			{
				"x": -0.0060146191,
				"y": -0.3394341927,
				"z": 0.6992775068,
				"element": "C" 
			},
			{
				"x": 1.0360871023,
				"y": 0.3224338469,
				"z": 0.0323037203,
				"element": "C" 
			},
			{
				"x": 0.7857375417,
				"y": 1.4504332732,
				"z": -0.7365065712,
				"element": "C" 
			},
			{
				"x": -0.5278595907,
				"y": 1.9232833979,
				"z": -0.8703126145,
				"element": "C" 
			},
			{
				"x": -0.7292729656,
				"y": 3.0074979701,
				"z": -1.6057523883,
				"element": "F" 
			},
			{
				"x": -1.5760093125,
				"y": 1.2538050353,
				"z": -0.2272402414,
				"element": "C" 
			},
			{
				"x": -1.3091517236,
				"y": 0.1287349091,
				"z": 0.5544330376,
				"element": "C" 
			},
			{
				"x": -2.9797072951,
				"y": 1.6875241383,
				"z": -0.3465510428,
				"element": "N" 
			},
			{
				"x": -3.2405233647,
				"y": 2.5875141323,
				"z": -1.1348632296,
				"element": "O" 
			},
			{
				"x": -3.7987242378,
				"y": 1.1021151002,
				"z": 0.3623518474,
				"element": "O" 
			},
			{
				"x": 1.9058687597,
				"y": 2.1856459593,
				"z": -1.440276879,
				"element": "C" 
			},
			{
				"x": 1.9951365222,
				"y": 3.459057524,
				"z": -1.0121668737,
				"element": "F" 
			},
			{
				"x": 1.7092974004,
				"y": 2.2143294295,
				"z": -2.7712158678,
				"element": "F" 
			},
			{
				"x": 3.092059603,
				"y": 1.5904960719,
				"z": -1.2114356409,
				"element": "F" 
			},
			{
				"x": -1.2653585542,
				"y": -1.3655369393,
				"z": 2.5318575697,
				"element": "H" 
			},
			{
				"x": 2.0439709838,
				"y": -0.0632030862,
				"z": 0.128187059,
				"element": "H" 
			},
			{
				"x": -2.1668931056,
				"y": -0.3581238003,
				"z": 1.0049013538,
				"element": "H" 
			}
		],
		 "valence_orbital": [ 
			{
				"type": "occ",
				"energy": -0.33622,
				"method": "rhf"
			},
			{
				"type": "occ",
				"energy": -0.32773,
				"method": "rhf"
			},
			{
				"type": "occ",
				"energy": -0.31867,
				"method": "rhf"
			},
			{
				"type": "occ",
				"energy": -0.31151,
				"method": "rhf"
			},
			{
				"type": "occ",
				"energy": -0.30044,
				"method": "rhf"
			},
			{
				"type": "unocc",
				"energy": -0.12099,
				"method": "rhf"
			},
			{
				"type": "unocc",
				"energy": -0.0912,
				"method": "rhf"
			},
			{
				"type": "unocc",
				"energy": -0.051,
				"method": "rhf"
			},
			{
				"type": "unocc",
				"energy": 0.01441,
				"method": "rhf"
			},
			{
				"type": "unocc",
				"energy": 0.02448,
				"method": "rhf"
			}
		],
		"cosmo_sigma_profile": { 
			"-0.025": 0.0,
			"-0.024": 0.0,
			"-0.023": 0.0,
			"-0.022": 0.0,
			"-0.021": 0.330654036605,
			"-0.02": 0.981766415846,
			"-0.019": 1.51215651617,
			"-0.018": 0.829217566605,
			"-0.017": 0.537337390835,
			"-0.016": 0.413873391288,
			"-0.015": 1.81257624779,
			"-0.014": 1.3017136661,
			"-0.013": 1.03503800267,
			"-0.012": 1.18582442296,
			"-0.011": 0.743719626019,
			"-0.01": 1.4605734871,
			"-0.009": 2.67494912828,
			"-0.008": 3.45740178384,
			"-0.007": 6.37710651246,
			"-0.006": 11.3362458712,
			"-0.005": 15.9466332865,
			"-0.004": 15.1816575056,
			"-0.003": 12.9179997856,
			"-0.002": 8.63267381177,
			"-0.001": 8.51903563001,
			"0.0": 9.29498277528,
			"0.001": 21.940706673,
			"0.002": 34.6912153096,
			"0.003": 8.28411406122,
			"0.004": 5.90415209596,
			"0.005": 5.09728299899,
			"0.006": 10.9848236546,
			"0.007": 11.3242663527,
			"0.008": 7.0086320754,
			"0.009": 7.17252564926,
			"0.01": 5.0646721484,
			"0.011": 4.16952246178,
			"0.012": 1.67201151411,
			"0.013": 0.066385898361,
			"0.014": 0.0,
			"0.015": 0.0,
			"0.016": 0.0,
			"0.017": 0.0,
			"0.018": 0.0,
			"0.019": 0.0,
			"0.02": 0.0,
			"0.021": 0.0,
			"0.022": 0.0,
			"0.023": 0.0,
			"0.024": 0.0,
			"0.025": 0.0
		}
	}
}
