{
	 "smiles": "OC(=O)C1=CC(Cl)=C2OCOC2=C1", 
	 "Tm": 513.15, 
	 "num_atms": 18, 
	 "gaussian": { 
		 "optdone": 1, 
		 "sigma_profile": "yes", 
		 "theory": "DFT", 
		 "functional": "B3LYP", 
		 "basiset": "6-31G**", 
		 "properties": { 
			 "R2extent": 3128.3845, 
			 "electric_dipole_moment_norm": 4.15638362161, 
			 "electric_quadrupole_moment_norm": 17.8873076627, 
			 "total_energy": -1068.92840524, 
			 "HOMO_LUMO_gap": 0.18308, 
			 "cosmo_polarized_energy": -15.37, 
			 "cosmo_cavitation_energy": 24.94, 
			 "cosmo_dispersion_energy": -19.04, 
			 "cosmo_repulsion_energy": 1.51, 
			 "cosmo_total_nonelectrostatic_energy": 7.4, 
			 "SMD_solvation_energy": 5.94 
		},
		"coords": [
			{
				"x": 0.6175577856,
				"y": -3.0959923689,
				"z": -1.3966228323,
				"element": "O" 
			},
			{
				"x": 0.2917977443,
				"y": -2.6667898478,
				"z": -0.147969087,
				"element": "C" 
			},
			{
				"x": 0.4635213481,
				"y": -3.3903056527,
				"z": 0.8046367002,
				"element": "O" 
			},
			{
				"x": -0.2734772185,
				"y": -1.2834344691,
				"z": -0.0323989672,
				"element": "C" 
			},
			{
				"x": -0.8737227681,
				"y": -0.629922981,
				"z": -1.1147175999,
				"element": "C" 
			},
			{
				"x": -1.4134661937,
				"y": 0.6579866677,
				"z": -0.9685705943,
				"element": "C" 
			},
			{
				"x": -2.1731326177,
				"y": 1.4790017818,
				"z": -2.3062545095,
				"element": "Cl" 
			},
			{
				"x": -1.3329934128,
				"y": 1.2546985911,
				"z": 0.2766427537,
				"element": "C" 
			},
			{
				"x": -1.7659964913,
				"y": 2.4848408339,
				"z": 0.6606959019,
				"element": "O" 
			},
			{
				"x": -1.49547299,
				"y": 2.5771380322,
				"z": 2.0713000917,
				"element": "C" 
			},
			{
				"x": -0.7865408817,
				"y": 1.3956424873,
				"z": 2.4597955716,
				"element": "O" 
			},
			{
				"x": -0.7426047259,
				"y": 0.5880479558,
				"z": 1.3539408019,
				"element": "C" 
			},
			{
				"x": -0.213311773,
				"y": -0.676859669,
				"z": 1.2419547832,
				"element": "C" 
			},
			{
				"x": 0.6088684239,
				"y": -2.3554419677,
				"z": -2.0185842001,
				"element": "H" 
			},
			{
				"x": -0.9833142861,
				"y": -1.1168134858,
				"z": -2.0781154586,
				"element": "H" 
			},
			{
				"x": -0.8752301918,
				"y": 3.4587362172,
				"z": 2.2618233489,
				"element": "H" 
			},
			{
				"x": -2.4448549043,
				"y": 2.6362782088,
				"z": 2.6172035125,
				"element": "H" 
			},
			{
				"x": 0.2330731531,
				"y": -1.2039103338,
				"z": 2.0755397834,
				"element": "H" 
			}
		],
		 "valence_orbital": [ 
			{
				"type": "occ",
				"energy": -0.33214,
				"method": "rhf"
			},
			{
				"type": "occ",
				"energy": -0.31661,
				"method": "rhf"
			},
			{
				"type": "occ",
				"energy": -0.2791,
				"method": "rhf"
			},
			{
				"type": "occ",
				"energy": -0.2615,
				"method": "rhf"
			},
			{
				"type": "occ",
				"energy": -0.23685,
				"method": "rhf"
			},
			{
				"type": "unocc",
				"energy": -0.05377,
				"method": "rhf"
			},
			{
				"type": "unocc",
				"energy": -0.02864,
				"method": "rhf"
			},
			{
				"type": "unocc",
				"energy": 0.01095,
				"method": "rhf"
			},
			{
				"type": "unocc",
				"energy": 0.04703,
				"method": "rhf"
			},
			{
				"type": "unocc",
				"energy": 0.06465,
				"method": "rhf"
			}
		],
		"cosmo_sigma_profile": { 
			"-0.025": 0.0,
			"-0.024": 0.0,
			"-0.023": 0.0,
			"-0.022": 0.0,
			"-0.021": 0.0,
			"-0.02": 0.0119309655558,
			"-0.019": 0.541168452294,
			"-0.018": 0.793721760194,
			"-0.017": 1.21100672128,
			"-0.016": 1.14566023465,
			"-0.015": 0.836862702016,
			"-0.014": 0.694182751672,
			"-0.013": 1.15165947347,
			"-0.012": 1.23251696998,
			"-0.011": 1.59561817858,
			"-0.01": 1.18213367822,
			"-0.009": 3.44735497038,
			"-0.008": 9.68187420536,
			"-0.007": 9.49575801835,
			"-0.006": 7.35177119281,
			"-0.005": 6.75404414711,
			"-0.004": 7.46323701422,
			"-0.003": 8.6433034551,
			"-0.002": 11.1782383149,
			"-0.001": 13.5104563142,
			"0.0": 18.2885922746,
			"0.001": 17.7349181357,
			"0.002": 12.3421416455,
			"0.003": 12.1211766437,
			"0.004": 12.1347013686,
			"0.005": 5.86873353822,
			"0.006": 5.84502409262,
			"0.007": 5.58133517874,
			"0.008": 5.34906463393,
			"0.009": 4.17649923322,
			"0.01": 4.92730503458,
			"0.011": 5.32607436624,
			"0.012": 4.21356551729,
			"0.013": 1.20752752839,
			"0.014": 0.0139055043995,
			"0.015": 0.0,
			"0.016": 0.0,
			"0.017": 0.0,
			"0.018": 0.0,
			"0.019": 0.0,
			"0.02": 0.0,
			"0.021": 0.0,
			"0.022": 0.0,
			"0.023": 0.0,
			"0.024": 0.0,
			"0.025": 0.0
		}
	}
}
