{
	 "smiles": "CC(NC(=O)CC#N)C1=CC=CC=C1", 
	 "Tm": 389.15, 
	 "num_atms": 26, 
	 "gaussian": { 
		 "optdone": 1, 
		 "sigma_profile": "yes", 
		 "theory": "DFT", 
		 "functional": "B3LYP", 
		 "basiset": "6-31G**", 
		 "properties": { 
			 "R2extent": 4015.6074, 
			 "electric_dipole_moment_norm": 7.87134408408, 
			 "electric_quadrupole_moment_norm": 27.3453212969, 
			 "total_energy": -611.122223899, 
			 "HOMO_LUMO_gap": 0.2334, 
			 "cosmo_polarized_energy": -21.48, 
			 "cosmo_cavitation_energy": 31.06, 
			 "cosmo_dispersion_energy": -21.17, 
			 "cosmo_repulsion_energy": 1.68, 
			 "cosmo_total_nonelectrostatic_energy": 11.58, 
			 "SMD_solvation_energy": 7.15 
		},
		"coords": [
			{
				"x": 0.05122838,
				"y": -1.4165226923,
				"z": -0.6186887358,
				"element": "C" 
			},
			{
				"x": -0.3246261,
				"y": 0.0461164478,
				"z": -0.3186790639,
				"element": "C" 
			},
			{
				"x": 0.6669597689,
				"y": 0.6955621175,
				"z": 0.5527438344,
				"element": "N" 
			},
			{
				"x": 1.8073746678,
				"y": 1.3722766541,
				"z": 0.2237087248,
				"element": "C" 
			},
			{
				"x": 2.5790790811,
				"y": 1.8017752407,
				"z": 1.0643448249,
				"element": "O" 
			},
			{
				"x": 2.0411265669,
				"y": 1.5916086136,
				"z": -1.2866962766,
				"element": "C" 
			},
			{
				"x": 3.3278231829,
				"y": 2.2272621268,
				"z": -1.5615147878,
				"element": "C" 
			},
			{
				"x": 4.3377923869,
				"y": 2.7251314279,
				"z": -1.8372822954,
				"element": "N" 
			},
			{
				"x": -1.7101021486,
				"y": 0.1803755664,
				"z": 0.3021050997,
				"element": "C" 
			},
			{
				"x": -2.6778258823,
				"y": 0.9951752221,
				"z": -0.2961862355,
				"element": "C" 
			},
			{
				"x": -3.9456794727,
				"y": 1.1344889231,
				"z": 0.2710151661,
				"element": "C" 
			},
			{
				"x": -4.2605973359,
				"y": 0.4624497538,
				"z": 1.4524208567,
				"element": "C" 
			},
			{
				"x": -3.3024254192,
				"y": -0.3514646018,
				"z": 2.0600876187,
				"element": "C" 
			},
			{
				"x": -2.0387561534,
				"y": -0.4943194293,
				"z": 1.4867110475,
				"element": "C" 
			},
			{
				"x": -0.686147187,
				"y": -1.8727508666,
				"z": -1.2861619544,
				"element": "H" 
			},
			{
				"x": 1.0347777265,
				"y": -1.4756781294,
				"z": -1.0954154418,
				"element": "H" 
			},
			{
				"x": 0.0927653775,
				"y": -2.0089094315,
				"z": 0.2997444578,
				"element": "H" 
			},
			{
				"x": -0.3406008731,
				"y": 0.5972473275,
				"z": -1.2638084224,
				"element": "H" 
			},
			{
				"x": 0.5439700974,
				"y": 0.5940402164,
				"z": 1.5526810839,
				"element": "H" 
			},
			{
				"x": 1.9943616868,
				"y": 0.6415798366,
				"z": -1.8311892226,
				"element": "H" 
			},
			{
				"x": 1.2420828907,
				"y": 2.2251280727,
				"z": -1.6919383227,
				"element": "H" 
			},
			{
				"x": -2.4386197498,
				"y": 1.5262090592,
				"z": -1.2143732952,
				"element": "H" 
			},
			{
				"x": -4.6843695988,
				"y": 1.7695687102,
				"z": -0.20920685,
				"element": "H" 
			},
			{
				"x": -5.2454739396,
				"y": 0.5707893074,
				"z": 1.8968670266,
				"element": "H" 
			},
			{
				"x": -3.5396788218,
				"y": -0.8793227026,
				"z": 2.9791744233,
				"element": "H" 
			},
			{
				"x": -1.3087391313,
				"y": -1.1403167702,
				"z": 1.9684367396,
				"element": "H" 
			}
		],
		 "valence_orbital": [ 
			{
				"type": "occ",
				"energy": -0.32205,
				"method": "rhf"
			},
			{
				"type": "occ",
				"energy": -0.2727,
				"method": "rhf"
			},
			{
				"type": "occ",
				"energy": -0.26939,
				"method": "rhf"
			},
			{
				"type": "occ",
				"energy": -0.26521,
				"method": "rhf"
			},
			{
				"type": "occ",
				"energy": -0.25775,
				"method": "rhf"
			},
			{
				"type": "unocc",
				"energy": -0.02435,
				"method": "rhf"
			},
			{
				"type": "unocc",
				"energy": -0.02072,
				"method": "rhf"
			},
			{
				"type": "unocc",
				"energy": 0.01166,
				"method": "rhf"
			},
			{
				"type": "unocc",
				"energy": 0.03218,
				"method": "rhf"
			},
			{
				"type": "unocc",
				"energy": 0.03963,
				"method": "rhf"
			}
		],
		"cosmo_sigma_profile": { 
			"-0.025": 0.0,
			"-0.024": 0.0,
			"-0.023": 0.0,
			"-0.022": 0.0,
			"-0.021": 0.0,
			"-0.02": 0.0,
			"-0.019": 0.0,
			"-0.018": 0.0,
			"-0.017": 0.0,
			"-0.016": 0.0,
			"-0.015": 0.0,
			"-0.014": 0.0,
			"-0.013": 0.340938344889,
			"-0.012": 0.582955063841,
			"-0.011": 2.08325293179,
			"-0.01": 6.28515325696,
			"-0.009": 9.72455535728,
			"-0.008": 7.60427260105,
			"-0.007": 7.62516729759,
			"-0.006": 14.085751202,
			"-0.005": 15.3438258539,
			"-0.004": 18.5086930062,
			"-0.003": 17.3801495741,
			"-0.002": 13.9019185613,
			"-0.001": 14.8300672192,
			"0.0": 14.960037347,
			"0.001": 12.9188084361,
			"0.002": 9.74638263952,
			"0.003": 11.0692708773,
			"0.004": 10.3981291302,
			"0.005": 12.6985961988,
			"0.006": 8.29458013914,
			"0.007": 3.26415213721,
			"0.008": 5.97296258714,
			"0.009": 5.85354662063,
			"0.01": 4.795334372,
			"0.011": 4.90669329433,
			"0.012": 5.43349929105,
			"0.013": 7.54812474981,
			"0.014": 1.29099779381,
			"0.015": 0.0,
			"0.016": 0.0,
			"0.017": 0.0,
			"0.018": 0.0,
			"0.019": 0.0,
			"0.02": 0.0,
			"0.021": 0.0,
			"0.022": 0.0,
			"0.023": 0.0,
			"0.024": 0.0,
			"0.0": 0.0
		}
	}
}
