{
	 "smiles": "S=C=NC1=CC=C(OCC2=CC=CC=C2)C=C1", 
	 "Tm": 337.15, 
	 "num_atms": 28, 
	 "gaussian": { 
		 "optdone": 1, 
		 "sigma_profile": "yes", 
		 "theory": "DFT", 
		 "functional": "B3LYP", 
		 "basiset": "6-31G**", 
		 "properties": { 
			 "R2extent": 8189.7492, 
			 "electric_dipole_moment_norm": 5.42794712668, 
			 "electric_quadrupole_moment_norm": 32.9950730637, 
			 "total_energy": -1068.26873175, 
			 "HOMO_LUMO_gap": 0.17827, 
			 "cosmo_polarized_energy": -9.14, 
			 "cosmo_cavitation_energy": 35.72, 
			 "cosmo_dispersion_energy": -25.77, 
			 "cosmo_repulsion_energy": 1.98, 
			 "cosmo_total_nonelectrostatic_energy": 11.93, 
			 "SMD_solvation_energy": 6.76 
		},
		"coords": [
			{
				"x": -0.1781984566,
				"y": -6.9450848769,
				"z": 2.052285814,
				"element": "S" 
			},
			{
				"x": 0.2552570608,
				"y": -5.5440492415,
				"z": 1.4201085237,
				"element": "C" 
			},
			{
				"x": 0.5752699666,
				"y": -4.5033589522,
				"z": 0.9501921403,
				"element": "N" 
			},
			{
				"x": 0.958048004,
				"y": -3.3008564807,
				"z": 0.4080541237,
				"element": "C" 
			},
			{
				"x": 0.3601590439,
				"y": -2.8346857569,
				"z": -0.7705572005,
				"element": "C" 
			},
			{
				"x": 0.7444711552,
				"y": -1.6147891137,
				"z": -1.3236074889,
				"element": "C" 
			},
			{
				"x": 1.7390901341,
				"y": -0.8492644804,
				"z": -0.7007172145,
				"element": "C" 
			},
			{
				"x": 2.205037956,
				"y": 0.3501384863,
				"z": -1.156552887,
				"element": "O" 
			},
			{
				"x": 1.7670025586,
				"y": 0.8370111608,
				"z": -2.4263247093,
				"element": "C" 
			},
			{
				"x": 0.3794926036,
				"y": 1.4488236759,
				"z": -2.413396479,
				"element": "C" 
			},
			{
				"x": -0.0982205326,
				"y": 2.1176948136,
				"z": -1.2803249089,
				"element": "C" 
			},
			{
				"x": -1.3553163556,
				"y": 2.7220052812,
				"z": -1.2970366097,
				"element": "C" 
			},
			{
				"x": -2.1450178335,
				"y": 2.6723686184,
				"z": -2.4480943611,
				"element": "C" 
			},
			{
				"x": -1.673123751,
				"y": 2.0098719895,
				"z": -3.5822627126,
				"element": "C" 
			},
			{
				"x": -0.4186829679,
				"y": 1.3975593132,
				"z": -3.5620967109,
				"element": "C" 
			},
			{
				"x": 2.3344298489,
				"y": -1.3142067257,
				"z": 0.4829563876,
				"element": "C" 
			},
			{
				"x": 1.9509707067,
				"y": -2.5260372361,
				"z": 1.0353837593,
				"element": "C" 
			},
			{
				"x": -0.4116392072,
				"y": -3.4301201535,
				"z": -1.2463717695,
				"element": "H" 
			},
			{
				"x": 0.248890263,
				"y": -1.2629081112,
				"z": -2.2194289795,
				"element": "H" 
			},
			{
				"x": 1.8345420532,
				"y": 0.0438157069,
				"z": -3.1824366259,
				"element": "H" 
			},
			{
				"x": 2.5114790724,
				"y": 1.5980389271,
				"z": -2.6836355177,
				"element": "H" 
			},
			{
				"x": 0.515816641,
				"y": 2.153022982,
				"z": -0.3857525941,
				"element": "H" 
			},
			{
				"x": -1.718758339,
				"y": 3.2332808484,
				"z": -0.4101739575,
				"element": "H" 
			},
			{
				"x": -3.1233727558,
				"y": 3.1438100307,
				"z": -2.4594101073,
				"element": "H" 
			},
			{
				"x": -2.2831986213,
				"y": 1.9617165239,
				"z": -4.4797069144,
				"element": "H" 
			},
			{
				"x": -0.0584547421,
				"y": 0.8763202959,
				"z": -4.4465866023,
				"element": "H" 
			},
			{
				"x": 3.1027882263,
				"y": -0.7070408256,
				"z": 0.9495545703,
				"element": "H" 
			},
			{
				"x": 2.4120382684,
				"y": -2.8879766996,
				"z": 1.9480390318,
				"element": "H" 
			}
		],
		 "valence_orbital": [ 
			{
				"type": "occ",
				"energy": -0.26757,
				"method": "rhf"
			},
			{
				"type": "occ",
				"energy": -0.26067,
				"method": "rhf"
			},
			{
				"type": "occ",
				"energy": -0.25497,
				"method": "rhf"
			},
			{
				"type": "occ",
				"energy": -0.24477,
				"method": "rhf"
			},
			{
				"type": "occ",
				"energy": -0.21378,
				"method": "rhf"
			},
			{
				"type": "unocc",
				"energy": -0.03551,
				"method": "rhf"
			},
			{
				"type": "unocc",
				"energy": -0.0214,
				"method": "rhf"
			},
			{
				"type": "unocc",
				"energy": -0.01402,
				"method": "rhf"
			},
			{
				"type": "unocc",
				"energy": -0.01132,
				"method": "rhf"
			},
			{
				"type": "unocc",
				"energy": 0.01176,
				"method": "rhf"
			}
		],
		"cosmo_sigma_profile": { 
			"-0.025": 0.0,
			"-0.024": 0.0,
			"-0.023": 0.0,
			"-0.022": 0.0,
			"-0.021": 0.0,
			"-0.02": 0.0,
			"-0.019": 0.0,
			"-0.018": 0.0,
			"-0.017": 0.0,
			"-0.016": 0.0,
			"-0.015": 0.0,
			"-0.014": 0.0,
			"-0.013": 0.0,
			"-0.012": 0.0,
			"-0.011": 0.0,
			"-0.01": 0.0,
			"-0.009": 0.0,
			"-0.008": 0.883536254941,
			"-0.007": 8.9968477783,
			"-0.006": 17.9599949954,
			"-0.005": 23.2357633009,
			"-0.004": 21.1534708011,
			"-0.003": 18.4582531505,
			"-0.002": 17.8596075412,
			"-0.001": 22.5830104026,
			"0.0": 23.4404189294,
			"0.001": 21.5870283767,
			"0.002": 24.6753109056,
			"0.003": 27.3597821281,
			"0.004": 18.0595761234,
			"0.005": 16.1901116916,
			"0.006": 17.8780547155,
			"0.007": 8.19552191291,
			"0.008": 1.04896185487,
			"0.009": 1.00075203164,
			"0.01": 0.248181596467,
			"0.011": 0.0,
			"0.012": 0.0,
			"0.013": 0.0,
			"0.014": 0.0,
			"0.015": 0.0,
			"0.016": 0.0,
			"0.017": 0.0,
			"0.018": 0.0,
			"0.019": 0.0,
			"0.02": 0.0,
			"0.021": 0.0,
			"0.022": 0.0,
			"0.023": 0.0,
			"0.024": 0.0,
			"0.025": 0.0
		}
	}
}
