{
	 "smiles": "CC(C)COC1=CN(N=C1C(O)=O)C1=CC=CC=C1", 
	 "Tm": 406.15, 
	 "num_atms": 35, 
	 "gaussian": { 
		 "optdone": 1, 
		 "sigma_profile": "yes", 
		 "theory": "DFT", 
		 "functional": "B3LYP", 
		 "basiset": "6-31G**", 
		 "properties": { 
			 "R2extent": 6951.2577, 
			 "electric_dipole_moment_norm": 4.17219867336, 
			 "electric_quadrupole_moment_norm": 7.95414771676, 
			 "total_energy": -878.294606837, 
			 "HOMO_LUMO_gap": 0.17264, 
			 "cosmo_polarized_energy": -18.28, 
			 "cosmo_cavitation_energy": 39.35, 
			 "cosmo_dispersion_energy": -27.46, 
			 "cosmo_repulsion_energy": 2.14, 
			 "cosmo_total_nonelectrostatic_energy": 14.03, 
			 "SMD_solvation_energy": 7.73 
		},
		"coords": [
			{
				"x": 4.8555501871,
				"y": -0.817601567,
				"z": -0.1878638603,
				"element": "C" 
			},
			{
				"x": 3.5611363582,
				"y": -1.1751432975,
				"z": -0.9300352615,
				"element": "C" 
			},
			{
				"x": 3.8378544036,
				"y": -1.9934730323,
				"z": -2.1994106946,
				"element": "C" 
			},
			{
				"x": 2.6016598832,
				"y": -1.9507545465,
				"z": -0.0177515652,
				"element": "C" 
			},
			{
				"x": 2.2470559143,
				"y": -1.2279307806,
				"z": 1.1676884023,
				"element": "O" 
			},
			{
				"x": 1.2677023173,
				"y": -0.309511617,
				"z": 1.0675774371,
				"element": "C" 
			},
			{
				"x": 0.4534963944,
				"y": 0.0318251377,
				"z": 0.0026508423,
				"element": "C" 
			},
			{
				"x": -0.3913590137,
				"y": 1.0167041505,
				"z": 0.4678037215,
				"element": "N" 
			},
			{
				"x": -0.1636945058,
				"y": 1.3254581092,
				"z": 1.7491915486,
				"element": "N" 
			},
			{
				"x": 0.8429328148,
				"y": 0.5339552474,
				"z": 2.1381476628,
				"element": "C" 
			},
			{
				"x": 1.3955896629,
				"y": 0.5836672029,
				"z": 3.5013270432,
				"element": "C" 
			},
			{
				"x": 0.7584681824,
				"y": 1.4783180888,
				"z": 4.2952923284,
				"element": "O" 
			},
			{
				"x": 2.3259843772,
				"y": -0.0935051628,
				"z": 3.8923437709,
				"element": "O" 
			},
			{
				"x": -1.4063081382,
				"y": 1.697143025,
				"z": -0.2585385939,
				"element": "C" 
			},
			{
				"x": -1.87441093,
				"y": 2.9297134966,
				"z": 0.2112791044,
				"element": "C" 
			},
			{
				"x": -2.8648708081,
				"y": 3.6011458967,
				"z": -0.5009482015,
				"element": "C" 
			},
			{
				"x": -3.3862741051,
				"y": 3.0610947811,
				"z": -1.6794599165,
				"element": "C" 
			},
			{
				"x": -2.9156408096,
				"y": 1.8302984304,
				"z": -2.1377139712,
				"element": "C" 
			},
			{
				"x": -1.9320989581,
				"y": 1.1402198878,
				"z": -1.4292007591,
				"element": "C" 
			},
			{
				"x": 5.4121066102,
				"y": -1.7238446939,
				"z": 0.0811152365,
				"element": "H" 
			},
			{
				"x": 5.5068012019,
				"y": -0.199240557,
				"z": -0.8141554507,
				"element": "H" 
			},
			{
				"x": 4.6423826497,
				"y": -0.2707951839,
				"z": 0.7342331305,
				"element": "H" 
			},
			{
				"x": 3.063521665,
				"y": -0.2408557613,
				"z": -1.2244102811,
				"element": "H" 
			},
			{
				"x": 4.5084459232,
				"y": -1.450690283,
				"z": -2.8727756283,
				"element": "H" 
			},
			{
				"x": 2.9175385235,
				"y": -2.2146412726,
				"z": -2.7520736941,
				"element": "H" 
			},
			{
				"x": 4.3186368265,
				"y": -2.9485023203,
				"z": -1.9552116323,
				"element": "H" 
			},
			{
				"x": 1.6917743222,
				"y": -2.2504076607,
				"z": -0.5565295092,
				"element": "H" 
			},
			{
				"x": 3.0875593389,
				"y": -2.8609472215,
				"z": 0.3485620236,
				"element": "H" 
			},
			{
				"x": 0.4345113697,
				"y": -0.3001081638,
				"z": -1.020778586,
				"element": "H" 
			},
			{
				"x": 1.2105131798,
				"y": 1.4194705274,
				"z": 5.1531637259,
				"element": "H" 
			},
			{
				"x": -1.4578651427,
				"y": 3.3362211477,
				"z": 1.1245798293,
				"element": "H" 
			},
			{
				"x": -3.2260057536,
				"y": 4.5573075211,
				"z": -0.1339853651,
				"element": "H" 
			},
			{
				"x": -4.1547330243,
				"y": 3.5925170509,
				"z": -2.2322895573,
				"element": "H" 
			},
			{
				"x": -3.3214207394,
				"y": 1.3935435943,
				"z": -3.0453585109,
				"element": "H" 
			},
			{
				"x": -1.5991401774,
				"y": 0.1680498262,
				"z": -1.7757647686,
				"element": "H" 
			}
		],
		 "valence_orbital": [ 
			{
				"type": "occ",
				"energy": -0.28558,
				"method": "rhf"
			},
			{
				"type": "occ",
				"energy": -0.26331,
				"method": "rhf"
			},
			{
				"type": "occ",
				"energy": -0.26247,
				"method": "rhf"
			},
			{
				"type": "occ",
				"energy": -0.24683,
				"method": "rhf"
			},
			{
				"type": "occ",
				"energy": -0.2161,
				"method": "rhf"
			},
			{
				"type": "unocc",
				"energy": -0.04346,
				"method": "rhf"
			},
			{
				"type": "unocc",
				"energy": -0.01337,
				"method": "rhf"
			},
			{
				"type": "unocc",
				"energy": 0.00373,
				"method": "rhf"
			},
			{
				"type": "unocc",
				"energy": 0.04103,
				"method": "rhf"
			},
			{
				"type": "unocc",
				"energy": 0.06932,
				"method": "rhf"
			}
		],
		"cosmo_sigma_profile": { 
			"-0.025": 0.0,
			"-0.024": 0.0,
			"-0.023": 0.0,
			"-0.022": 0.0,
			"-0.021": 0.0,
			"-0.02": 0.0,
			"-0.019": 0.0511070031011,
			"-0.018": 0.618943036048,
			"-0.017": 1.07492394886,
			"-0.016": 0.912553604485,
			"-0.015": 0.336792346505,
			"-0.014": 0.623217437917,
			"-0.013": 0.56782883825,
			"-0.012": 0.765400191868,
			"-0.011": 1.70413995747,
			"-0.01": 2.49685077286,
			"-0.009": 2.89296577307,
			"-0.008": 3.77408310774,
			"-0.007": 4.34717234543,
			"-0.006": 12.3480305266,
			"-0.005": 17.3800869839,
			"-0.004": 19.0431476172,
			"-0.003": 24.9635690401,
			"-0.002": 29.9566545089,
			"-0.001": 26.463330136,
			"0.0": 30.9249394243,
			"0.001": 33.2964168819,
			"0.002": 19.2324386895,
			"0.003": 15.4104218619,
			"0.004": 16.1299068282,
			"0.005": 8.82719374987,
			"0.006": 4.96045468564,
			"0.007": 3.0113780258,
			"0.008": 3.01658925303,
			"0.009": 4.51742979592,
			"0.01": 4.22107664219,
			"0.011": 4.9605441973,
			"0.012": 6.90773895357,
			"0.013": 3.21049856696,
			"0.014": 1.99930365099,
			"0.015": 0.912395439652,
			"0.016": 0.0547932540328,
			"0.017": 0.0,
			"0.018": 0.0,
			"0.019": 0.0,
			"0.02": 0.0,
			"0.021": 0.0,
			"0.022": 0.0,
			"0.023": 0.0,
			"0.024": 0.0,
			"0.025": 0.0
		}
	}
}
