{
	 "smiles": "COC(=O)C1=C(C=CS1)N1C(=O)C=CC1=O", 
	 "Tm": 403.15, 
	 "num_atms": 23, 
	 "gaussian": { 
		 "optdone": 1, 
		 "sigma_profile": "yes", 
		 "theory": "DFT", 
		 "functional": "B3LYP", 
		 "basiset": "6-31G**", 
		 "properties": { 
			 "R2extent": 3765.5148, 
			 "electric_dipole_moment_norm": 3.3919090259, 
			 "electric_quadrupole_moment_norm": 18.651459018, 
			 "total_energy": -1139.10064644, 
			 "HOMO_LUMO_gap": 0.14577, 
			 "cosmo_polarized_energy": -15.58, 
			 "cosmo_cavitation_energy": 30.65, 
			 "cosmo_dispersion_energy": -21.54, 
			 "cosmo_repulsion_energy": 1.64, 
			 "cosmo_total_nonelectrostatic_energy": 10.75, 
			 "SMD_solvation_energy": 8.59 
		},
		"coords": [
			{
				"x": 2.5566046547,
				"y": -1.290419908,
				"z": -0.1612386381,
				"element": "C" 
			},
			{
				"x": 1.3421678991,
				"y": -0.5650374595,
				"z": -0.4190019122,
				"element": "O" 
			},
			{
				"x": 0.9899505383,
				"y": -0.493106776,
				"z": -1.7192298977,
				"element": "C" 
			},
			{
				"x": 1.6629199334,
				"y": -0.9441255856,
				"z": -2.6270385687,
				"element": "O" 
			},
			{
				"x": -0.2734521896,
				"y": 0.2332960573,
				"z": -1.9344851927,
				"element": "C" 
			},
			{
				"x": -1.2491606258,
				"y": 0.6974058983,
				"z": -1.068940617,
				"element": "C" 
			},
			{
				"x": -2.2789844689,
				"y": 1.4299328988,
				"z": -1.7287722479,
				"element": "C" 
			},
			{
				"x": -2.0779179527,
				"y": 1.4993188263,
				"z": -3.079843296,
				"element": "C" 
			},
			{
				"x": -0.6495306402,
				"y": 0.6696698402,
				"z": -3.5766383883,
				"element": "S" 
			},
			{
				"x": -1.2762953336,
				"y": 0.456755677,
				"z": 0.3228045734,
				"element": "N" 
			},
			{
				"x": -1.2535498313,
				"y": -0.818173969,
				"z": 0.9339749662,
				"element": "C" 
			},
			{
				"x": -1.211807934,
				"y": -1.8844304093,
				"z": 0.3655448035,
				"element": "O" 
			},
			{
				"x": -1.3253081282,
				"y": -0.5607854823,
				"z": 2.4097860078,
				"element": "C" 
			},
			{
				"x": -1.4092757308,
				"y": 0.7554613299,
				"z": 2.621870889,
				"element": "C" 
			},
			{
				"x": -1.3977313902,
				"y": 1.4648181351,
				"z": 1.300890543,
				"element": "C" 
			},
			{
				"x": -1.485538716,
				"y": 2.6546329294,
				"z": 1.0903911444,
				"element": "O" 
			},
			{
				"x": 2.6982552425,
				"y": -1.2472183804,
				"z": 0.9184729039,
				"element": "H" 
			},
			{
				"x": 3.3988961452,
				"y": -0.8258071523,
				"z": -0.6790936781,
				"element": "H" 
			},
			{
				"x": 2.4609720022,
				"y": -2.3263457353,
				"z": -0.4947802954,
				"element": "H" 
			},
			{
				"x": -3.1163109447,
				"y": 1.8771921997,
				"z": -1.2088996771,
				"element": "H" 
			},
			{
				"x": -2.7031467521,
				"y": 1.9868654372,
				"z": -3.8151434732,
				"element": "H" 
			},
			{
				"x": -1.3178813325,
				"y": -1.3728598978,
				"z": 3.1248749963,
				"element": "H" 
			},
			{
				"x": -1.4838744447,
				"y": 1.2986615262,
				"z": 3.5546950547,
				"element": "H" 
			}
		],
		 "valence_orbital": [ 
			{
				"type": "occ",
				"energy": -0.3017,
				"method": "rhf"
			},
			{
				"type": "occ",
				"energy": -0.28222,
				"method": "rhf"
			},
			{
				"type": "occ",
				"energy": -0.27645,
				"method": "rhf"
			},
			{
				"type": "occ",
				"energy": -0.25782,
				"method": "rhf"
			},
			{
				"type": "occ",
				"energy": -0.24802,
				"method": "rhf"
			},
			{
				"type": "unocc",
				"energy": -0.10225,
				"method": "rhf"
			},
			{
				"type": "unocc",
				"energy": -0.05913,
				"method": "rhf"
			},
			{
				"type": "unocc",
				"energy": 0.01688,
				"method": "rhf"
			},
			{
				"type": "unocc",
				"energy": 0.02598,
				"method": "rhf"
			},
			{
				"type": "unocc",
				"energy": 0.05,
				"method": "rhf"
			}
		],
		"cosmo_sigma_profile": { 
			"-0.025": 0.0,
			"-0.024": 0.0,
			"-0.023": 0.0,
			"-0.022": 0.0,
			"-0.021": 0.0,
			"-0.02": 0.0,
			"-0.019": 0.0,
			"-0.018": 0.0,
			"-0.017": 0.0,
			"-0.016": 0.0,
			"-0.015": 0.0,
			"-0.014": 0.0,
			"-0.013": 0.0,
			"-0.012": 0.0,
			"-0.011": 0.0,
			"-0.01": 3.82606673852,
			"-0.009": 6.64801314326,
			"-0.008": 6.89314231195,
			"-0.007": 8.85254226764,
			"-0.006": 15.2433805113,
			"-0.005": 15.826517563,
			"-0.004": 18.8132257223,
			"-0.003": 18.9851395244,
			"-0.002": 15.4193279571,
			"-0.001": 14.6536548869,
			"0.0": 17.9142794452,
			"0.001": 17.5593419909,
			"0.002": 17.7188037662,
			"0.003": 11.7452866413,
			"0.004": 8.32535252749,
			"0.005": 5.4948088612,
			"0.006": 4.32591149746,
			"0.007": 5.85142617666,
			"0.008": 5.33534452908,
			"0.009": 6.53616549248,
			"0.01": 10.7455207025,
			"0.011": 9.51900740276,
			"0.012": 2.87717761549,
			"0.013": 0.0,
			"0.014": 0.0,
			"0.015": 0.0,
			"0.016": 0.0,
			"0.017": 0.0,
			"0.018": 0.0,
			"0.019": 0.0,
			"0.02": 0.0,
			"0.021": 0.0,
			"0.022": 0.0,
			"0.023": 0.0,
			"0.024": 0.0,
			"0.025": 0.0
		}
	}
}
