{
	 "smiles": "O=C(OCC=CC1=CC=CC=C1)C=CC1=CC=CC=C1", 
	 "Tm": 317.15, 
	 "num_atms": 36, 
	 "gaussian": { 
		 "optdone": 1, 
		 "sigma_profile": "yes", 
		 "theory": "DFT", 
		 "functional": "B3LYP", 
		 "basiset": "6-31G**", 
		 "properties": { 
			 "R2extent": 7422.1822, 
			 "electric_dipole_moment_norm": 2.67179281382, 
			 "electric_quadrupole_moment_norm": 14.0530031491, 
			 "total_energy": -845.980724932, 
			 "HOMO_LUMO_gap": 0.15454, 
			 "cosmo_polarized_energy": -11.42, 
			 "cosmo_cavitation_energy": 41.11, 
			 "cosmo_dispersion_energy": -27.24, 
			 "cosmo_repulsion_energy": 2.08, 
			 "cosmo_total_nonelectrostatic_energy": 15.95, 
			 "SMD_solvation_energy": 7.72 
		},
		"coords": [
			{
				"x": -3.0289621315,
				"y": 2.294641693,
				"z": -3.5528562866,
				"element": "O" 
			},
			{
				"x": -2.4250504554,
				"y": 2.0562791805,
				"z": -2.52329033,
				"element": "C" 
			},
			{
				"x": -1.8441632899,
				"y": 0.8598638499,
				"z": -2.2707302189,
				"element": "O" 
			},
			{
				"x": -1.9837251357,
				"y": -0.1251944384,
				"z": -3.3095204891,
				"element": "C" 
			},
			{
				"x": -1.1569504238,
				"y": -1.3322581535,
				"z": -2.9938547021,
				"element": "C" 
			},
			{
				"x": -0.3664024539,
				"y": -1.482682557,
				"z": -1.9227832076,
				"element": "C" 
			},
			{
				"x": 0.4592326327,
				"y": -2.6555444452,
				"z": -1.5938397488,
				"element": "C" 
			},
			{
				"x": 0.7041217134,
				"y": -3.7092621206,
				"z": -2.4942926878,
				"element": "C" 
			},
			{
				"x": 1.4866543798,
				"y": -4.7992762911,
				"z": -2.1239650537,
				"element": "C" 
			},
			{
				"x": 2.0508067295,
				"y": -4.8639016281,
				"z": -0.8462217858,
				"element": "C" 
			},
			{
				"x": 1.8255697269,
				"y": -3.8235063261,
				"z": 0.055831834,
				"element": "C" 
			},
			{
				"x": 1.0414292606,
				"y": -2.7320909978,
				"z": -0.3159257274,
				"element": "C" 
			},
			{
				"x": -2.2136772064,
				"y": 3.085344617,
				"z": -1.4787748185,
				"element": "C" 
			},
			{
				"x": -1.8247071094,
				"y": 3.0020621793,
				"z": -0.1901137916,
				"element": "C" 
			},
			{
				"x": -1.5675911533,
				"y": 1.8632566835,
				"z": 0.7064934024,
				"element": "C" 
			},
			{
				"x": -2.285632512,
				"y": 0.6553108779,
				"z": 0.6593523528,
				"element": "C" 
			},
			{
				"x": -2.0239780565,
				"y": -0.361648232,
				"z": 1.5748529123,
				"element": "C" 
			},
			{
				"x": -1.0402412057,
				"y": -0.1966239613,
				"z": 2.5539734333,
				"element": "C" 
			},
			{
				"x": -0.3292312267,
				"y": 1.0035267244,
				"z": 2.6233710055,
				"element": "C" 
			},
			{
				"x": -0.6035686558,
				"y": 2.0270360424,
				"z": 1.7190902411,
				"element": "C" 
			},
			{
				"x": -1.6874203798,
				"y": 0.3206020377,
				"z": -4.2677911678,
				"element": "H" 
			},
			{
				"x": -3.0450670586,
				"y": -0.3888426584,
				"z": -3.4149062546,
				"element": "H" 
			},
			{
				"x": -1.2494415107,
				"y": -2.1243387881,
				"z": -3.7355457733,
				"element": "H" 
			},
			{
				"x": -0.3299498135,
				"y": -0.6712534902,
				"z": -1.2009315624,
				"element": "H" 
			},
			{
				"x": 0.2906457576,
				"y": -3.670005294,
				"z": -3.4977647355,
				"element": "H" 
			},
			{
				"x": 1.6642128315,
				"y": -5.5998334554,
				"z": -2.8368291783,
				"element": "H" 
			},
			{
				"x": 2.6637652131,
				"y": -5.7141514377,
				"z": -0.5614373072,
				"element": "H" 
			},
			{
				"x": 2.2621505277,
				"y": -3.8600797872,
				"z": 1.0501279388,
				"element": "H" 
			},
			{
				"x": 0.8649061965,
				"y": -1.9262311358,
				"z": 0.3920421732,
				"element": "H" 
			},
			{
				"x": -2.4101670665,
				"y": 4.075687883,
				"z": -1.8789228167,
				"element": "H" 
			},
			{
				"x": -1.6775103965,
				"y": 3.9667978148,
				"z": 0.2967809535,
				"element": "H" 
			},
			{
				"x": -3.0569974038,
				"y": 0.5201916504,
				"z": -0.0885395375,
				"element": "H" 
			},
			{
				"x": -2.5935207485,
				"y": -1.2850994769,
				"z": 1.5272224206,
				"element": "H" 
			},
			{
				"x": -0.8412168127,
				"y": -0.9918681551,
				"z": 3.2665461883,
				"element": "H" 
			},
			{
				"x": 0.4286624087,
				"y": 1.1466647958,
				"z": 3.3880577364,
				"element": "H" 
			},
			{
				"x": -0.0589851713,
				"y": 2.9655268003,
				"z": 1.785394589,
				"element": "H" 
			}
		],
		 "valence_orbital": [ 
			{
				"type": "occ",
				"energy": -0.27284,
				"method": "rhf"
			},
			{
				"type": "occ",
				"energy": -0.25791,
				"method": "rhf"
			},
			{
				"type": "occ",
				"energy": -0.24837,
				"method": "rhf"
			},
			{
				"type": "occ",
				"energy": -0.23937,
				"method": "rhf"
			},
			{
				"type": "occ",
				"energy": -0.21752,
				"method": "rhf"
			},
			{
				"type": "unocc",
				"energy": -0.06298,
				"method": "rhf"
			},
			{
				"type": "unocc",
				"energy": -0.02866,
				"method": "rhf"
			},
			{
				"type": "unocc",
				"energy": -0.00867,
				"method": "rhf"
			},
			{
				"type": "unocc",
				"energy": 0.00231,
				"method": "rhf"
			},
			{
				"type": "unocc",
				"energy": 0.01005,
				"method": "rhf"
			}
		],
		"cosmo_sigma_profile": { 
			"-0.025": 0.0,
			"-0.024": 0.0,
			"-0.023": 0.0,
			"-0.022": 0.0,
			"-0.021": 0.0,
			"-0.02": 0.0,
			"-0.019": 0.0,
			"-0.018": 0.0,
			"-0.017": 0.0,
			"-0.016": 0.0,
			"-0.015": 0.0,
			"-0.014": 0.0,
			"-0.013": 0.0,
			"-0.012": 0.0,
			"-0.011": 0.0,
			"-0.01": 0.0,
			"-0.009": 0.0,
			"-0.008": 0.00892409826384,
			"-0.007": 5.43359645796,
			"-0.006": 23.8448540132,
			"-0.005": 29.9052503305,
			"-0.004": 28.4686923339,
			"-0.003": 27.0844608635,
			"-0.002": 22.7991292871,
			"-0.001": 19.9168101178,
			"0.0": 23.1583285023,
			"0.001": 24.5259200117,
			"0.002": 24.0740039772,
			"0.003": 26.4631031635,
			"0.004": 25.7866303366,
			"0.005": 20.603744356,
			"0.006": 11.6414748735,
			"0.007": 1.7831105933,
			"0.008": 1.2095147977,
			"0.009": 1.38750066165,
			"0.01": 2.17640735197,
			"0.011": 2.2835335207,
			"0.012": 5.11356260608,
			"0.013": 1.37117293861,
			"0.014": 0.0277350039716,
			"0.015": 0.0,
			"0.016": 0.0,
			"0.017": 0.0,
			"0.018": 0.0,
			"0.019": 0.0,
			"0.02": 0.0,
			"0.021": 0.0,
			"0.022": 0.0,
			"0.023": 0.0,
			"0.024": 0.0,
			"0.025": 0.0
		}
	}
}
