{
	 "smiles": "C=CC1=CC=C(C=C)C=C1", 
	 "Tm": 304.15, 
	 "num_atms": 20, 
	 "gaussian": { 
		 "optdone": 1, 
		 "sigma_profile": "yes", 
		 "theory": "DFT", 
		 "functional": "B3LYP", 
		 "basiset": "6-31G**", 
		 "properties": { 
			 "R2extent": 2397.417, 
			 "electric_dipole_moment_norm": 0.0, 
			 "electric_quadrupole_moment_norm": 8.88654943721, 
			 "total_energy": -387.055710553, 
			 "HOMO_LUMO_gap": 0.1618, 
			 "cosmo_polarized_energy": -4.85, 
			 "cosmo_cavitation_energy": 24.0, 
			 "cosmo_dispersion_energy": -17.23, 
			 "cosmo_repulsion_energy": 1.36, 
			 "cosmo_total_nonelectrostatic_energy": 8.12, 
			 "SMD_solvation_energy": 5.39 
		},
		"coords": [
			{
				"x": -0.2413422868,
				"y": -3.2821557519,
				"z": -2.9493240297,
				"element": "C" 
			},
			{
				"x": -0.318723385,
				"y": -2.0824223549,
				"z": -2.3586909704,
				"element": "C" 
			},
			{
				"x": -0.1842524152,
				"y": -1.7776924394,
				"z": -0.926948626,
				"element": "C" 
			},
			{
				"x": 0.0548775295,
				"y": -2.7550133644,
				"z": 0.055381274,
				"element": "C" 
			},
			{
				"x": 0.1727389555,
				"y": -2.4064965756,
				"z": 1.394595256,
				"element": "C" 
			},
			{
				"x": 0.0589255935,
				"y": -1.0704530818,
				"z": 1.8235528299,
				"element": "C" 
			},
			{
				"x": 0.1933654459,
				"y": -0.7657263741,
				"z": 3.2552975672,
				"element": "C" 
			},
			{
				"x": 0.116640608,
				"y": 0.4340874007,
				"z": 3.8458523928,
				"element": "C" 
			},
			{
				"x": -0.1801281596,
				"y": -0.0931225193,
				"z": 0.8412141144,
				"element": "C" 
			},
			{
				"x": -0.2980163063,
				"y": -0.4416429611,
				"z": -0.4979963635,
				"element": "C" 
			},
			{
				"x": -0.3581211318,
				"y": -3.3822888961,
				"z": -4.0233467061,
				"element": "H" 
			},
			{
				"x": -0.0614683878,
				"y": -4.2001523005,
				"z": -2.3975426777,
				"element": "H" 
			},
			{
				"x": -0.5022016505,
				"y": -1.2130292165,
				"z": -2.9897085401,
				"element": "H" 
			},
			{
				"x": 0.149877215,
				"y": -3.7983276968,
				"z": -0.2295907024,
				"element": "H" 
			},
			{
				"x": 0.3576805909,
				"y": -3.1828000761,
				"z": 2.1331762783,
				"element": "H" 
			},
			{
				"x": 0.376152748,
				"y": -1.6352042779,
				"z": 3.8863991306,
				"element": "H" 
			},
			{
				"x": -0.0625738882,
				"y": 1.3521679427,
				"z": 3.2939960847,
				"element": "H" 
			},
			{
				"x": 0.2332844378,
				"y": 0.5342002526,
				"z": 4.9198918667,
				"element": "H" 
			},
			{
				"x": -0.2749785165,
				"y": 0.9502097109,
				"z": 1.1261718977,
				"element": "H" 
			},
			{
				"x": -0.4829369965,
				"y": 0.3346625794,
				"z": -1.2365800764,
				"element": "H" 
			}
		],
		 "valence_orbital": [ 
			{
				"type": "occ",
				"energy": -0.33341,
				"method": "rhf"
			},
			{
				"type": "occ",
				"energy": -0.31907,
				"method": "rhf"
			},
			{
				"type": "occ",
				"energy": -0.26745,
				"method": "rhf"
			},
			{
				"type": "occ",
				"energy": -0.2524,
				"method": "rhf"
			},
			{
				"type": "occ",
				"energy": -0.2101,
				"method": "rhf"
			},
			{
				"type": "unocc",
				"energy": -0.0483,
				"method": "rhf"
			},
			{
				"type": "unocc",
				"energy": 0.00028,
				"method": "rhf"
			},
			{
				"type": "unocc",
				"energy": 0.01962,
				"method": "rhf"
			},
			{
				"type": "unocc",
				"energy": 0.08932,
				"method": "rhf"
			},
			{
				"type": "unocc",
				"energy": 0.09691,
				"method": "rhf"
			}
		],
		"cosmo_sigma_profile": { 
			"-0.025": 0.0,
			"-0.024": 0.0,
			"-0.023": 0.0,
			"-0.022": 0.0,
			"-0.021": 0.0,
			"-0.02": 0.0,
			"-0.019": 0.0,
			"-0.018": 0.0,
			"-0.017": 0.0,
			"-0.016": 0.0,
			"-0.015": 0.0,
			"-0.014": 0.0,
			"-0.013": 0.0,
			"-0.012": 0.0,
			"-0.011": 0.0,
			"-0.01": 0.0,
			"-0.009": 0.0,
			"-0.008": 0.0,
			"-0.007": 2.24506905886,
			"-0.006": 11.2914514358,
			"-0.005": 17.4499475104,
			"-0.004": 15.1847100371,
			"-0.003": 17.512154976,
			"-0.002": 12.6664616775,
			"-0.001": 14.0136568609,
			"0.0": 12.8203797679,
			"0.001": 11.6796355114,
			"0.002": 13.8201081891,
			"0.003": 14.3986388666,
			"0.004": 19.4579779041,
			"0.005": 19.6035325848,
			"0.006": 8.06692724639,
			"0.007": 1.89434328517,
			"0.008": 0.0,
			"0.009": 0.0,
			"0.01": 0.0,
			"0.011": 0.0,
			"0.012": 0.0,
			"0.013": 0.0,
			"0.014": 0.0,
			"0.015": 0.0,
			"0.016": 0.0,
			"0.017": 0.0,
			"0.018": 0.0,
			"0.019": 0.0,
			"0.02": 0.0,
			"0.021": 0.0,
			"0.022": 0.0,
			"0.023": 0.0,
			"0.024": 0.0,
			"0.025": 0.0
		}
	}
}
