{
	 "smiles": "CC(O)C1=C(Br)C=CC=C1", 
	 "Tm": 330.15, 
	 "num_atms": 19, 
	 "gaussian": { 
		 "optdone": 1, 
		 "sigma_profile": "yes", 
		 "theory": "DFT", 
		 "functional": "B3LYP", 
		 "basiset": "6-31G**", 
		 "properties": { 
			 "R2extent": 2750.6102, 
			 "electric_dipole_moment_norm": 1.18605617489, 
			 "electric_quadrupole_moment_norm": 8.95909871137, 
			 "total_energy": -2956.90031596, 
			 "HOMO_LUMO_gap": 0.22875, 
			 "cosmo_polarized_energy": -7.21, 
			 "cosmo_cavitation_energy": 24.08, 
			 "cosmo_dispersion_energy": -18.13, 
			 "cosmo_repulsion_energy": 1.47, 
			 "cosmo_total_nonelectrostatic_energy": 7.42, 
			 "SMD_solvation_energy": 3.24 
		},
		"coords": [
			{
				"x": -1.212121426,
				"y": 0.2371917277,
				"z": 1.0235506398,
				"element": "C" 
			},
			{
				"x": -0.205727813,
				"y": 0.6434677708,
				"z": -0.0632040105,
				"element": "C" 
			},
			{
				"x": -0.8789135922,
				"y": 0.9902370134,
				"z": -1.2726753037,
				"element": "O" 
			},
			{
				"x": 0.7582463332,
				"y": -0.4865224183,
				"z": -0.3819805426,
				"element": "C" 
			},
			{
				"x": 1.8894695879,
				"y": -0.7645162806,
				"z": 0.395512477,
				"element": "C" 
			},
			{
				"x": 2.3295193843,
				"y": 0.3191383211,
				"z": 1.9243576101,
				"element": "Br" 
			},
			{
				"x": 2.7475223055,
				"y": -1.8242973108,
				"z": 0.1043434134,
				"element": "C" 
			},
			{
				"x": 2.4813757701,
				"y": -2.6398873198,
				"z": -0.9944432067,
				"element": "C" 
			},
			{
				"x": 1.363572293,
				"y": -2.3855375281,
				"z": -1.7892836134,
				"element": "C" 
			},
			{
				"x": 0.5178349441,
				"y": -1.3214000856,
				"z": -1.4827941104,
				"element": "C" 
			},
			{
				"x": -1.8883847231,
				"y": 1.071428545,
				"z": 1.2483729783,
				"element": "H" 
			},
			{
				"x": -0.7037427081,
				"y": -0.0381734394,
				"z": 1.9510492625,
				"element": "H" 
			},
			{
				"x": -1.8093959336,
				"y": -0.613086801,
				"z": 0.6810926776,
				"element": "H" 
			},
			{
				"x": 0.37948061,
				"y": 1.5006772091,
				"z": 0.2997457603,
				"element": "H" 
			},
			{
				"x": -1.5596247837,
				"y": 1.6367007382,
				"z": -1.0484119641,
				"element": "H" 
			},
			{
				"x": 3.6138240542,
				"y": -2.001588852,
				"z": 0.731354373,
				"element": "H" 
			},
			{
				"x": 3.1492862937,
				"y": -3.4645106219,
				"z": -1.2250332913,
				"element": "H" 
			},
			{
				"x": 1.1510364385,
				"y": -3.0122086108,
				"z": -2.6503798605,
				"element": "H" 
			},
			{
				"x": -0.3448570347,
				"y": -1.1048120569,
				"z": -2.1020732888,
				"element": "H" 
			}
		],
		 "valence_orbital": [ 
			{
				"type": "occ",
				"energy": -0.30932,
				"method": "rhf"
			},
			{
				"type": "occ",
				"energy": -0.29003,
				"method": "rhf"
			},
			{
				"type": "occ",
				"energy": -0.27263,
				"method": "rhf"
			},
			{
				"type": "occ",
				"energy": -0.25048,
				"method": "rhf"
			},
			{
				"type": "occ",
				"energy": -0.23861,
				"method": "rhf"
			},
			{
				"type": "unocc",
				"energy": -0.00986,
				"method": "rhf"
			},
			{
				"type": "unocc",
				"energy": -0.00747,
				"method": "rhf"
			},
			{
				"type": "unocc",
				"energy": 0.00838,
				"method": "rhf"
			},
			{
				"type": "unocc",
				"energy": 0.07252,
				"method": "rhf"
			},
			{
				"type": "unocc",
				"energy": 0.112,
				"method": "rhf"
			}
		],
		"cosmo_sigma_profile": { 
			"-0.025": 0.0,
			"-0.024": 0.0,
			"-0.023": 0.0,
			"-0.022": 0.0,
			"-0.021": 0.0,
			"-0.02": 0.0,
			"-0.019": 0.0,
			"-0.018": 0.0,
			"-0.017": 0.0,
			"-0.016": 0.122240372268,
			"-0.015": 1.21808986112,
			"-0.014": 0.683060461285,
			"-0.013": 1.15035982582,
			"-0.012": 0.782215162925,
			"-0.011": 1.55517906008,
			"-0.01": 0.731434309027,
			"-0.009": 0.704437482064,
			"-0.008": 1.34971682071,
			"-0.007": 2.16090576099,
			"-0.006": 7.5229556676,
			"-0.005": 8.83521489489,
			"-0.004": 12.1892789468,
			"-0.003": 13.3669247108,
			"-0.002": 14.8315221163,
			"-0.001": 16.5493850305,
			"0.0": 17.3505121177,
			"0.001": 17.9163964829,
			"0.002": 16.0305941554,
			"0.003": 17.326724627,
			"0.004": 19.9426717248,
			"0.005": 10.9688667794,
			"0.006": 1.67099440606,
			"0.007": 0.936265915624,
			"0.008": 1.60445177302,
			"0.009": 1.63537299675,
			"0.01": 1.82174409213,
			"0.011": 0.875235873963,
			"0.012": 0.825997174652,
			"0.013": 0.783349007463,
			"0.014": 0.452779590969,
			"0.015": 0.0,
			"0.016": 0.0,
			"0.017": 0.0,
			"0.018": 0.0,
			"0.019": 0.0,
			"0.02": 0.0,
			"0.021": 0.0,
			"0.022": 0.0,
			"0.023": 0.0,
			"0.024": 0.0,
			"0.025": 0.0
		}
	}
}
