{
	 "smiles": "BrC1=C(COC2=CC=CC=C2)C=CC=C1", 
	 "Tm": 314.65, 
	 "num_atms": 26, 
	 "gaussian": { 
		 "optdone": 1, 
		 "sigma_profile": "yes", 
		 "theory": "DFT", 
		 "functional": "B3LYP", 
		 "basiset": "6-31G**", 
		 "properties": { 
			 "R2extent": 5833.1064, 
			 "electric_dipole_moment_norm": 2.22163279594, 
			 "electric_quadrupole_moment_norm": 12.1928047344, 
			 "total_energy": -3148.63025042, 
			 "HOMO_LUMO_gap": 0.1917, 
			 "cosmo_polarized_energy": -8.39, 
			 "cosmo_cavitation_energy": 32.39, 
			 "cosmo_dispersion_energy": -23.59, 
			 "cosmo_repulsion_energy": 1.84, 
			 "cosmo_total_nonelectrostatic_energy": 10.64, 
			 "SMD_solvation_energy": 4.46 
		},
		"coords": [
			{
				"x": 0.7292990093,
				"y": 3.16673099,
				"z": 1.1650206284,
				"element": "Br" 
			},
			{
				"x": -0.3963173435,
				"y": 2.3242437361,
				"z": 2.4652853098,
				"element": "C" 
			},
			{
				"x": -1.0827848601,
				"y": 1.1410797791,
				"z": 2.1568614252,
				"element": "C" 
			},
			{
				"x": -0.9735885461,
				"y": 0.46012999,
				"z": 0.8175302547,
				"element": "C" 
			},
			{
				"x": 0.2487129492,
				"y": -0.2773585417,
				"z": 0.7915485795,
				"element": "O" 
			},
			{
				"x": 0.5793690127,
				"y": -0.9395865351,
				"z": -0.3585395334,
				"element": "C" 
			},
			{
				"x": -0.215786628,
				"y": -0.983715023,
				"z": -1.5098675685,
				"element": "C" 
			},
			{
				"x": 0.2288481369,
				"y": -1.7024060881,
				"z": -2.6250920745,
				"element": "C" 
			},
			{
				"x": 1.4485009105,
				"y": -2.37415166,
				"z": -2.6050704392,
				"element": "C" 
			},
			{
				"x": 2.2361232656,
				"y": -2.3246748178,
				"z": -1.4489978533,
				"element": "C" 
			},
			{
				"x": 1.8093750527,
				"y": -1.614613638,
				"z": -0.3328731379,
				"element": "C" 
			},
			{
				"x": -1.8881795449,
				"y": 0.5818669658,
				"z": 3.1577180497,
				"element": "C" 
			},
			{
				"x": -2.0123701899,
				"y": 1.1739924893,
				"z": 4.4134344989,
				"element": "C" 
			},
			{
				"x": -1.3197297515,
				"y": 2.3522251159,
				"z": 4.690951999,
				"element": "C" 
			},
			{
				"x": -0.5082663048,
				"y": 2.9312392482,
				"z": 3.7150667327,
				"element": "C" 
			},
			{
				"x": -0.9829251604,
				"y": 1.1989798168,
				"z": 0.0067696641,
				"element": "H" 
			},
			{
				"x": -1.8258764571,
				"y": -0.2178759975,
				"z": 0.6762001927,
				"element": "H" 
			},
			{
				"x": -1.1692230961,
				"y": -0.4705986346,
				"z": -1.5521907342,
				"element": "H" 
			},
			{
				"x": -0.3938284368,
				"y": -1.7310964454,
				"z": -3.5150731937,
				"element": "H" 
			},
			{
				"x": 1.7846107971,
				"y": -2.9289406591,
				"z": -3.4755380877,
				"element": "H" 
			},
			{
				"x": 3.1906953468,
				"y": -2.8425803882,
				"z": -1.41777826,
				"element": "H" 
			},
			{
				"x": 2.4072594938,
				"y": -1.5632062881,
				"z": 0.5712111241,
				"element": "H" 
			},
			{
				"x": -2.4233707942,
				"y": -0.3381987676,
				"z": 2.9385845051,
				"element": "H" 
			},
			{
				"x": -2.644734009,
				"y": 0.7180844206,
				"z": 5.1689101422,
				"element": "H" 
			},
			{
				"x": -1.4071067675,
				"y": 2.8264891267,
				"z": 5.66394534,
				"element": "H" 
			},
			{
				"x": 0.0343939156,
				"y": 3.8473418056,
				"z": 3.9180824361,
				"element": "H" 
			}
		],
		 "valence_orbital": [ 
			{
				"type": "occ",
				"energy": -0.28659,
				"method": "rhf"
			},
			{
				"type": "occ",
				"energy": -0.26529,
				"method": "rhf"
			},
			{
				"type": "occ",
				"energy": -0.246,
				"method": "rhf"
			},
			{
				"type": "occ",
				"energy": -0.2453,
				"method": "rhf"
			},
			{
				"type": "occ",
				"energy": -0.2152,
				"method": "rhf"
			},
			{
				"type": "unocc",
				"energy": -0.0235,
				"method": "rhf"
			},
			{
				"type": "unocc",
				"energy": -0.01703,
				"method": "rhf"
			},
			{
				"type": "unocc",
				"energy": 0.00348,
				"method": "rhf"
			},
			{
				"type": "unocc",
				"energy": 0.00677,
				"method": "rhf"
			},
			{
				"type": "unocc",
				"energy": 0.0179,
				"method": "rhf"
			}
		],
		"cosmo_sigma_profile": { 
			"-0.025": 0.0,
			"-0.024": 0.0,
			"-0.023": 0.0,
			"-0.022": 0.0,
			"-0.021": 0.0,
			"-0.02": 0.0,
			"-0.019": 0.0,
			"-0.018": 0.0,
			"-0.017": 0.0,
			"-0.016": 0.0,
			"-0.015": 0.0,
			"-0.014": 0.0,
			"-0.013": 0.0,
			"-0.012": 0.0,
			"-0.011": 0.0,
			"-0.01": 0.0,
			"-0.009": 0.0,
			"-0.008": 0.0,
			"-0.007": 6.76507475897,
			"-0.006": 18.7237894208,
			"-0.005": 22.9900731471,
			"-0.004": 21.135945949,
			"-0.003": 19.3701306386,
			"-0.002": 15.5224738017,
			"-0.001": 15.7310535621,
			"0.0": 14.0753845158,
			"0.001": 17.2410855459,
			"0.002": 22.1300927083,
			"0.003": 25.2818866192,
			"0.004": 27.987759348,
			"0.005": 15.7409837011,
			"0.006": 11.6257941682,
			"0.007": 4.04366980193,
			"0.008": 1.91367875946,
			"0.009": 1.47101967028,
			"0.01": 0.87370433791,
			"0.011": 0.00734313859907,
			"0.012": 0.0,
			"0.013": 0.0,
			"0.014": 0.0,
			"0.015": 0.0,
			"0.016": 0.0,
			"0.017": 0.0,
			"0.018": 0.0,
			"0.019": 0.0,
			"0.02": 0.0,
			"0.021": 0.0,
			"0.022": 0.0,
			"0.023": 0.0,
			"0.024": 0.0,
			"0.025": 0.0
		}
	}
}
