{
	 "smiles": "O=C(CC1=CC=CC=C1)C1=CC=C2CCC3=C2C1=CC=C3", 
	 "Tm": 387.15, 
	 "num_atms": 37, 
	 "gaussian": { 
		 "optdone": 1, 
		 "sigma_profile": "yes", 
		 "theory": "DFT", 
		 "functional": "B3LYP", 
		 "basiset": "6-31G**", 
		 "properties": { 
			 "R2extent": 7848.7343, 
			 "electric_dipole_moment_norm": 3.88432117235, 
			 "electric_quadrupole_moment_norm": 13.7443081863, 
			 "total_energy": -847.010598883, 
			 "HOMO_LUMO_gap": 0.15435, 
			 "cosmo_polarized_energy": -11.45, 
			 "cosmo_cavitation_energy": 39.64, 
			 "cosmo_dispersion_energy": -28.75, 
			 "cosmo_repulsion_energy": 2.17, 
			 "cosmo_total_nonelectrostatic_energy": 13.07, 
			 "SMD_solvation_energy": 5.98 
		},
		"coords": [
			{
				"x": 0.5945548026,
				"y": 1.1884338934,
				"z": 2.1797159141,
				"element": "O" 
			},
			{
				"x": 0.2574221607,
				"y": 0.5552676285,
				"z": 1.1911298328,
				"element": "C" 
			},
			{
				"x": 1.1677026807,
				"y": -0.5629987149,
				"z": 0.648414373,
				"element": "C" 
			},
			{
				"x": 2.6448606492,
				"y": -0.2705120869,
				"z": 0.8010343831,
				"element": "C" 
			},
			{
				"x": 3.4325145628,
				"y": -0.0300207869,
				"z": -0.3313148362,
				"element": "C" 
			},
			{
				"x": 4.7979491727,
				"y": 0.2361305378,
				"z": -0.2111217065,
				"element": "C" 
			},
			{
				"x": 5.3945779193,
				"y": 0.2660426259,
				"z": 1.0494854064,
				"element": "C" 
			},
			{
				"x": 4.6172775098,
				"y": 0.029039595,
				"z": 2.1857574213,
				"element": "C" 
			},
			{
				"x": 3.2539374055,
				"y": -0.2371272546,
				"z": 2.06336393,
				"element": "C" 
			},
			{
				"x": -1.0088973706,
				"y": 0.9075957132,
				"z": 0.4642017829,
				"element": "C" 
			},
			{
				"x": -1.3904553212,
				"y": 2.2453472806,
				"z": 0.5632973411,
				"element": "C" 
			},
			{
				"x": -2.5095128238,
				"y": 2.7922330073,
				"z": -0.103732132,
				"element": "C" 
			},
			{
				"x": -3.2813550531,
				"y": 1.9582209695,
				"z": -0.882936779,
				"element": "C" 
			},
			{
				"x": -4.5232357577,
				"y": 2.2156770537,
				"z": -1.7137888882,
				"element": "C" 
			},
			{
				"x": -4.907457054,
				"y": 0.8178420799,
				"z": -2.3039767134,
				"element": "C" 
			},
			{
				"x": -3.8522291939,
				"y": -0.1324873195,
				"z": -1.7677050001,
				"element": "C" 
			},
			{
				"x": -2.9365922793,
				"y": 0.5907284508,
				"z": -0.968078406,
				"element": "C" 
			},
			{
				"x": -1.8196605892,
				"y": 0.0074635333,
				"z": -0.3132786281,
				"element": "C" 
			},
			{
				"x": -1.6920959356,
				"y": -1.4023960756,
				"z": -0.477050394,
				"element": "C" 
			},
			{
				"x": -2.591318387,
				"y": -2.1089230916,
				"z": -1.2576408751,
				"element": "C" 
			},
			{
				"x": -3.6799501546,
				"y": -1.4892729793,
				"z": -1.9233021986,
				"element": "C" 
			},
			{
				"x": 0.91083775,
				"y": -1.4727100201,
				"z": 1.2106275686,
				"element": "H" 
			},
			{
				"x": 0.9312023875,
				"y": -0.7652142676,
				"z": -0.3987882886,
				"element": "H" 
			},
			{
				"x": 2.97335514,
				"y": -0.0534307971,
				"z": -1.3169095998,
				"element": "H" 
			},
			{
				"x": 5.3927745133,
				"y": 0.4181170849,
				"z": -1.1019484327,
				"element": "H" 
			},
			{
				"x": 6.4570478733,
				"y": 0.470642948,
				"z": 1.1469662761,
				"element": "H" 
			},
			{
				"x": 5.0742181743,
				"y": 0.0511757598,
				"z": 3.1712606626,
				"element": "H" 
			},
			{
				"x": 2.6528160305,
				"y": -0.4087359861,
				"z": 2.9498926761,
				"element": "H" 
			},
			{
				"x": -0.771088577,
				"y": 2.8882461323,
				"z": 1.1802205772,
				"element": "H" 
			},
			{
				"x": -2.737294526,
				"y": 3.8489531108,
				"z": 0.0049009781,
				"element": "H" 
			},
			{
				"x": -5.331159075,
				"y": 2.632212865,
				"z": -1.1016423634,
				"element": "H" 
			},
			{
				"x": -4.326483334,
				"y": 2.9481156779,
				"z": -2.5051116241,
				"element": "H" 
			},
			{
				"x": -5.9135371671,
				"y": 0.5135669984,
				"z": -1.993914849,
				"element": "H" 
			},
			{
				"x": -4.9121662997,
				"y": 0.8316245552,
				"z": -3.3998343337,
				"element": "H" 
			},
			{
				"x": -0.9027208178,
				"y": -1.9486172618,
				"z": 0.02303081,
				"element": "H" 
			},
			{
				"x": -2.4622961699,
				"y": -3.1833538308,
				"z": -1.3571185767,
				"element": "H" 
			},
			{
				"x": -4.3585428457,
				"y": -2.0875770285,
				"z": -2.5250053078,
				"element": "H" 
			}
		],
		 "valence_orbital": [ 
			{
				"type": "occ",
				"energy": -0.2518,
				"method": "rhf"
			},
			{
				"type": "occ",
				"energy": -0.24786,
				"method": "rhf"
			},
			{
				"type": "occ",
				"energy": -0.23825,
				"method": "rhf"
			},
			{
				"type": "occ",
				"energy": -0.2311,
				"method": "rhf"
			},
			{
				"type": "occ",
				"energy": -0.21294,
				"method": "rhf"
			},
			{
				"type": "unocc",
				"energy": -0.05859,
				"method": "rhf"
			},
			{
				"type": "unocc",
				"energy": -0.01673,
				"method": "rhf"
			},
			{
				"type": "unocc",
				"energy": -0.009,
				"method": "rhf"
			},
			{
				"type": "unocc",
				"energy": 0.00629,
				"method": "rhf"
			},
			{
				"type": "unocc",
				"energy": 0.00958,
				"method": "rhf"
			}
		],
		"cosmo_sigma_profile": { 
			"-0.025": 0.0,
			"-0.024": 0.0,
			"-0.023": 0.0,
			"-0.022": 0.0,
			"-0.021": 0.0,
			"-0.02": 0.0,
			"-0.019": 0.0,
			"-0.018": 0.0,
			"-0.017": 0.0,
			"-0.016": 0.0,
			"-0.015": 0.0,
			"-0.014": 0.0,
			"-0.013": 0.0,
			"-0.012": 0.0,
			"-0.011": 0.0,
			"-0.01": 0.0,
			"-0.009": 0.0,
			"-0.008": 0.709122910699,
			"-0.007": 3.40641667627,
			"-0.006": 10.4111510122,
			"-0.005": 26.6152316555,
			"-0.004": 33.7293719637,
			"-0.003": 37.2170046542,
			"-0.002": 28.9176841343,
			"-0.001": 24.9241704156,
			"0.0": 21.1846154943,
			"0.001": 14.751440013,
			"0.002": 19.9762437045,
			"0.003": 25.7024679524,
			"0.004": 23.1864874069,
			"0.005": 16.1347001861,
			"0.006": 10.3184495016,
			"0.007": 4.96306731214,
			"0.008": 2.35570691184,
			"0.009": 2.18645522631,
			"0.01": 2.40959129668,
			"0.011": 2.98713076115,
			"0.012": 3.66253734199,
			"0.013": 1.05641933284,
			"0.014": 0.0,
			"0.015": 0.0,
			"0.016": 0.0,
			"0.017": 0.0,
			"0.018": 0.0,
			"0.019": 0.0,
			"0.02": 0.0,
			"0.021": 0.0,
			"0.022": 0.0,
			"0.023": 0.0,
			"0.024": 0.0,
			"0.025": 0.0
		}
	}
}
