{
	 "smiles": "NC1=C(C=NN1C1=CC=C(C=C1)C(O)=O)C#N", 
	 "Tm": 563.15, 
	 "num_atms": 25, 
	 "gaussian": { 
		 "optdone": 1, 
		 "sigma_profile": "yes", 
		 "theory": "DFT", 
		 "functional": "B3LYP", 
		 "basiset": "6-31G**", 
		 "properties": { 
			 "R2extent": 5839.5854, 
			 "electric_dipole_moment_norm": 3.00685351489, 
			 "electric_quadrupole_moment_norm": 48.8535292351, 
			 "total_energy": -793.417365928, 
			 "HOMO_LUMO_gap": 0.16897, 
			 "cosmo_polarized_energy": -25.97, 
			 "cosmo_cavitation_energy": 31.59, 
			 "cosmo_dispersion_energy": -22.63, 
			 "cosmo_repulsion_energy": 1.73, 
			 "cosmo_total_nonelectrostatic_energy": 10.69, 
			 "SMD_solvation_energy": 7.46 
		},
		"coords": [
			{
				"x": -2.9820172929,
				"y": 1.9647600943,
				"z": 1.0231142212,
				"element": "N" 
			},
			{
				"x": -3.1459688673,
				"y": 0.9710838138,
				"z": 0.0862592219,
				"element": "C" 
			},
			{
				"x": -4.3180394802,
				"y": 0.5455032308,
				"z": -0.5467475772,
				"element": "C" 
			},
			{
				"x": -3.894208157,
				"y": -0.489205081,
				"z": -1.42832085,
				"element": "C" 
			},
			{
				"x": -2.598031483,
				"y": -0.700173846,
				"z": -1.3616890457,
				"element": "N" 
			},
			{
				"x": -2.1315409568,
				"y": 0.2171015127,
				"z": -0.4375628825,
				"element": "N" 
			},
			{
				"x": -0.7488343031,
				"y": 0.2332129919,
				"z": -0.125838685,
				"element": "C" 
			},
			{
				"x": -0.0273958998,
				"y": -0.9643590019,
				"z": -0.2102415487,
				"element": "C" 
			},
			{
				"x": 1.3300797575,
				"y": -0.9694958599,
				"z": 0.0897964658,
				"element": "C" 
			},
			{
				"x": 1.9861207809,
				"y": 0.2065794912,
				"z": 0.4833272749,
				"element": "C" 
			},
			{
				"x": 1.2592004853,
				"y": 1.4026488524,
				"z": 0.5271593391,
				"element": "C" 
			},
			{
				"x": -0.0981330893,
				"y": 1.4254682009,
				"z": 0.2250008914,
				"element": "C" 
			},
			{
				"x": 3.4468002261,
				"y": 0.2710541189,
				"z": 0.816877309,
				"element": "C" 
			},
			{
				"x": 4.0634108406,
				"y": -0.9020304918,
				"z": 1.1180202079,
				"element": "O" 
			},
			{
				"x": 4.0743017986,
				"y": 1.3038027516,
				"z": 0.8288307091,
				"element": "O" 
			},
			{
				"x": -5.6127663206,
				"y": 1.0480109153,
				"z": -0.2873017835,
				"element": "C" 
			},
			{
				"x": -6.6650695273,
				"y": 1.4832860053,
				"z": -0.0378601793,
				"element": "N" 
			},
			{
				"x": -2.2665475752,
				"y": 1.8066817655,
				"z": 1.7213392768,
				"element": "H" 
			},
			{
				"x": -3.8557694172,
				"y": 2.2869336554,
				"z": 1.4208193559,
				"element": "H" 
			},
			{
				"x": -4.5091582308,
				"y": -1.0739023155,
				"z": -2.0987328879,
				"element": "H" 
			},
			{
				"x": -0.5379110992,
				"y": -1.8651063862,
				"z": -0.5271283569,
				"element": "H" 
			},
			{
				"x": 1.8750934887,
				"y": -1.9040231002,
				"z": -0.0188474582,
				"element": "H" 
			},
			{
				"x": 1.7843391911,
				"y": 2.3155828352,
				"z": 0.7858122373,
				"element": "H" 
			},
			{
				"x": -0.6397202741,
				"y": 2.3642372502,
				"z": 0.2263664734,
				"element": "H" 
			},
			{
				"x": 3.4139654049,
				"y": -1.6102514031,
				"z": 1.2254482711,
				"element": "H" 
			}
		],
		 "valence_orbital": [ 
			{
				"type": "occ",
				"energy": -0.31106,
				"method": "rhf"
			},
			{
				"type": "occ",
				"energy": -0.29059,
				"method": "rhf"
			},
			{
				"type": "occ",
				"energy": -0.28318,
				"method": "rhf"
			},
			{
				"type": "occ",
				"energy": -0.25694,
				"method": "rhf"
			},
			{
				"type": "occ",
				"energy": -0.24137,
				"method": "rhf"
			},
			{
				"type": "unocc",
				"energy": -0.0724,
				"method": "rhf"
			},
			{
				"type": "unocc",
				"energy": -0.04217,
				"method": "rhf"
			},
			{
				"type": "unocc",
				"energy": -0.0106,
				"method": "rhf"
			},
			{
				"type": "unocc",
				"energy": -0.00045,
				"method": "rhf"
			},
			{
				"type": "unocc",
				"energy": 0.01679,
				"method": "rhf"
			}
		],
		"cosmo_sigma_profile": { 
			"-0.025": 0.0,
			"-0.024": 0.0,
			"-0.023": 0.0,
			"-0.022": 0.0,
			"-0.021": 0.0,
			"-0.02": 0.0,
			"-0.019": 0.411546723673,
			"-0.018": 1.33609530927,
			"-0.017": 0.750565821179,
			"-0.016": 1.12738408493,
			"-0.015": 1.27845682028,
			"-0.014": 2.94603688675,
			"-0.013": 4.81879799674,
			"-0.012": 3.83863074061,
			"-0.011": 4.15121812294,
			"-0.01": 3.39648564474,
			"-0.009": 5.75122272287,
			"-0.008": 6.92180497909,
			"-0.007": 8.94200489611,
			"-0.006": 10.9099511075,
			"-0.005": 9.25394752606,
			"-0.004": 12.1069118482,
			"-0.003": 10.3213448557,
			"-0.002": 14.4105966859,
			"-0.001": 14.988100918,
			"0.0": 17.7777027388,
			"0.001": 21.2924148311,
			"0.002": 16.9896565093,
			"0.003": 8.04093640677,
			"0.004": 6.4484676588,
			"0.005": 6.98149651812,
			"0.006": 7.31785392761,
			"0.007": 7.08574904157,
			"0.008": 6.53615974036,
			"0.009": 8.25128999314,
			"0.01": 9.54957446121,
			"0.011": 8.99902922504,
			"0.012": 8.09388557231,
			"0.013": 4.03102608559,
			"0.014": 0.440798309715,
			"0.015": 0.0,
			"0.016": 0.0,
			"0.017": 0.0,
			"0.018": 0.0,
			"0.019": 0.0,
			"0.02": 0.0,
			"0.021": 0.0,
			"0.022": 0.0,
			"0.023": 0.0,
			"0.024": 0.0,
			"0.025": 0.0
		}
	}
}
