{
	 "smiles": "CC1=CC=C(C=C1[N+]([O-])=O)C(N)=O", 
	 "Tm": 438.65, 
	 "num_atms": 21, 
	 "gaussian": { 
		 "optdone": 1, 
		 "sigma_profile": "yes", 
		 "theory": "DFT", 
		 "functional": "B3LYP", 
		 "basiset": "6-31G**", 
		 "properties": { 
			 "R2extent": 2850.0515, 
			 "electric_dipole_moment_norm": 6.75553193612, 
			 "electric_quadrupole_moment_norm": 4.73821602188, 
			 "total_energy": -644.768218749, 
			 "HOMO_LUMO_gap": 0.1728, 
			 "cosmo_polarized_energy": -17.65, 
			 "cosmo_cavitation_energy": 25.98, 
			 "cosmo_dispersion_energy": -19.08, 
			 "cosmo_repulsion_energy": 1.51, 
			 "cosmo_total_nonelectrostatic_energy": 8.41, 
			 "SMD_solvation_energy": 7.4 
		},
		"coords": [
			{
				"x": 1.770038552,
				"y": 1.5161376318,
				"z": 2.977665848,
				"element": "C" 
			},
			{
				"x": 0.8477531657,
				"y": 1.099524242,
				"z": 1.8594549196,
				"element": "C" 
			},
			{
				"x": -0.465343854,
				"y": 0.7163884598,
				"z": 2.1732106069,
				"element": "C" 
			},
			{
				"x": -1.3786791838,
				"y": 0.3123664703,
				"z": 1.203604988,
				"element": "C" 
			},
			{
				"x": -1.0053544982,
				"y": 0.2626431618,
				"z": -0.1451698211,
				"element": "C" 
			},
			{
				"x": 0.291356888,
				"y": 0.6409281784,
				"z": -0.4912859419,
				"element": "C" 
			},
			{
				"x": 1.1904489298,
				"y": 1.0463181523,
				"z": 0.4918304984,
				"element": "C" 
			},
			{
				"x": 2.5367712933,
				"y": 1.4252029885,
				"z": 0.0180387344,
				"element": "N" 
			},
			{
				"x": 2.8671078501,
				"y": 1.0597155772,
				"z": -1.1083038375,
				"element": "O" 
			},
			{
				"x": 3.2509967856,
				"y": 2.0908813152,
				"z": 0.7691258544,
				"element": "O" 
			},
			{
				"x": -1.9271989086,
				"y": -0.1469818289,
				"z": -1.2612345872,
				"element": "C" 
			},
			{
				"x": -3.0505149188,
				"y": -0.8479214805,
				"z": -0.8931115096,
				"element": "N" 
			},
			{
				"x": -1.6984261255,
				"y": 0.1523785749,
				"z": -2.4249038955,
				"element": "O" 
			},
			{
				"x": 1.294423471,
				"y": 1.3151711896,
				"z": 3.9410265601,
				"element": "H" 
			},
			{
				"x": 2.7252507906,
				"y": 0.9874105646,
				"z": 2.9366144477,
				"element": "H" 
			},
			{
				"x": 2.0099880916,
				"y": 2.5806442556,
				"z": 2.916044762,
				"element": "H" 
			},
			{
				"x": -0.7745023671,
				"y": 0.7463439047,
				"z": 3.2138195271,
				"element": "H" 
			},
			{
				"x": -2.3922927287,
				"y": 0.0651397797,
				"z": 1.5048299953,
				"element": "H" 
			},
			{
				"x": 0.5953941679,
				"y": 0.6212646454,
				"z": -1.5299236748,
				"element": "H" 
			},
			{
				"x": -3.0672743305,
				"y": -1.3745689093,
				"z": -0.03361657,
				"element": "H" 
			},
			{
				"x": -3.5987430704,
				"y": -1.2127868732,
				"z": -1.6592169042,
				"element": "H" 
			}
		],
		 "valence_orbital": [ 
			{
				"type": "occ",
				"energy": -0.29602,
				"method": "rhf"
			},
			{
				"type": "occ",
				"energy": -0.28639,
				"method": "rhf"
			},
			{
				"type": "occ",
				"energy": -0.28081,
				"method": "rhf"
			},
			{
				"type": "occ",
				"energy": -0.27522,
				"method": "rhf"
			},
			{
				"type": "occ",
				"energy": -0.26209,
				"method": "rhf"
			},
			{
				"type": "unocc",
				"energy": -0.08929,
				"method": "rhf"
			},
			{
				"type": "unocc",
				"energy": -0.05261,
				"method": "rhf"
			},
			{
				"type": "unocc",
				"energy": -0.01347,
				"method": "rhf"
			},
			{
				"type": "unocc",
				"energy": 0.04367,
				"method": "rhf"
			},
			{
				"type": "unocc",
				"energy": 0.06316,
				"method": "rhf"
			}
		],
		"cosmo_sigma_profile": { 
			"-0.025": 0.0,
			"-0.024": 0.0,
			"-0.023": 0.0,
			"-0.022": 0.0,
			"-0.021": 0.0,
			"-0.02": 0.0,
			"-0.019": 0.0,
			"-0.018": 0.0,
			"-0.017": 0.0,
			"-0.016": 0.0,
			"-0.015": 0.340996545979,
			"-0.014": 2.34942023784,
			"-0.013": 2.62285631634,
			"-0.012": 2.82818440574,
			"-0.011": 2.33058565886,
			"-0.01": 2.90775386605,
			"-0.009": 2.86810639092,
			"-0.008": 2.90768308717,
			"-0.007": 7.14909957102,
			"-0.006": 9.02255334154,
			"-0.005": 9.87426307219,
			"-0.004": 10.784773761,
			"-0.003": 12.9670789042,
			"-0.002": 15.852872773,
			"-0.001": 20.6635360493,
			"0.0": 18.385836887,
			"0.001": 15.2071650887,
			"0.002": 7.276541963,
			"0.003": 5.61157639299,
			"0.004": 6.26066359718,
			"0.005": 5.36734064488,
			"0.006": 4.72882069774,
			"0.007": 9.1695061046,
			"0.008": 8.11600102106,
			"0.009": 5.88964586201,
			"0.01": 4.05262645617,
			"0.011": 2.07709943834,
			"0.012": 2.45870635113,
			"0.013": 5.3070684812,
			"0.014": 1.68696629587,
			"0.015": 0.0100755710662,
			"0.016": 0.0,
			"0.017": 0.0,
			"0.018": 0.0,
			"0.019": 0.0,
			"0.02": 0.0,
			"0.021": 0.0,
			"0.022": 0.0,
			"0.023": 0.0,
			"0.024": 0.0,
			"0.025": 0.0
		}
	}
}
