{
	 "smiles": "CC1=C(Cl)C=CC=C1C(=O)N(NC(=O)C1=CC=CC=C1)C(C)(C)C", 
	 "Tm": 487.15, 
	 "num_atms": 45, 
	 "gaussian": { 
		 "optdone": 1, 
		 "sigma_profile": "yes", 
		 "theory": "DFT", 
		 "functional": "B3LYP", 
		 "basiset": "6-31G**", 
		 "properties": { 
			 "R2extent": 8853.4819, 
			 "electric_dipole_moment_norm": 5.06827984034, 
			 "electric_quadrupole_moment_norm": 26.1683816909, 
			 "total_energy": -1456.81748423, 
			 "HOMO_LUMO_gap": 0.20008, 
			 "cosmo_polarized_energy": -16.65, 
			 "cosmo_cavitation_energy": 47.56, 
			 "cosmo_dispersion_energy": -30.87, 
			 "cosmo_repulsion_energy": 2.32, 
			 "cosmo_total_nonelectrostatic_energy": 19.01, 
			 "SMD_solvation_energy": 9.15 
		},
		"coords": [
			{
				"x": -1.5119129126,
				"y": -1.6356722054,
				"z": -3.0321437338,
				"element": "C" 
			},
			{
				"x": -0.6985842347,
				"y": -0.4325062769,
				"z": -2.6225530277,
				"element": "C" 
			},
			{
				"x": -0.135569294,
				"y": 0.4115584838,
				"z": -3.5931284423,
				"element": "C" 
			},
			{
				"x": -0.3869209188,
				"y": 0.0597737213,
				"z": -5.3025690001,
				"element": "Cl" 
			},
			{
				"x": 0.6183335722,
				"y": 1.5401350789,
				"z": -3.2738346059,
				"element": "C" 
			},
			{
				"x": 0.8396890921,
				"y": 1.8534892717,
				"z": -1.9353521321,
				"element": "C" 
			},
			{
				"x": 0.3227424187,
				"y": 1.0292347026,
				"z": -0.939798553,
				"element": "C" 
			},
			{
				"x": -0.4327753436,
				"y": -0.1032604037,
				"z": -1.2737652138,
				"element": "C" 
			},
			{
				"x": -1.0885807995,
				"y": -0.8573979485,
				"z": -0.1515528381,
				"element": "C" 
			},
			{
				"x": -2.299389854,
				"y": -1.0222699038,
				"z": -0.1385370869,
				"element": "O" 
			},
			{
				"x": -0.2980628811,
				"y": -1.2084763772,
				"z": 0.9775162853,
				"element": "N" 
			},
			{
				"x": -1.1079470036,
				"y": -1.5530431353,
				"z": 2.0832631477,
				"element": "N" 
			},
			{
				"x": -1.8554552049,
				"y": -0.5889742902,
				"z": 2.7733142552,
				"element": "C" 
			},
			{
				"x": -2.8821439811,
				"y": -0.9482177192,
				"z": 3.3297837975,
				"element": "O" 
			},
			{
				"x": -1.3773391062,
				"y": 0.8279577421,
				"z": 2.863838407,
				"element": "C" 
			},
			{
				"x": -0.0282697359,
				"y": 1.2052550555,
				"z": 2.9105548495,
				"element": "C" 
			},
			{
				"x": 0.3202122211,
				"y": 2.5470469481,
				"z": 3.0724981771,
				"element": "C" 
			},
			{
				"x": -0.6730177494,
				"y": 3.5233761018,
				"z": 3.1740894783,
				"element": "C" 
			},
			{
				"x": -2.0192134081,
				"y": 3.1521922059,
				"z": 3.1343749609,
				"element": "C" 
			},
			{
				"x": -2.3691043187,
				"y": 1.8113009961,
				"z": 2.9944573669,
				"element": "C" 
			},
			{
				"x": 0.911116803,
				"y": -2.1300369788,
				"z": 0.8908001186,
				"element": "C" 
			},
			{
				"x": 1.7253842076,
				"y": -1.989243962,
				"z": 2.1872863998,
				"element": "C" 
			},
			{
				"x": 1.8310008649,
				"y": -1.7938385304,
				"z": -0.2922614821,
				"element": "C" 
			},
			{
				"x": 0.4194849372,
				"y": -3.5865998293,
				"z": 0.7364016394,
				"element": "C" 
			},
			{
				"x": -0.9340612492,
				"y": -2.2819924827,
				"z": -3.7009741316,
				"element": "H" 
			},
			{
				"x": -2.4026992759,
				"y": -1.3237450462,
				"z": -3.5872301207,
				"element": "H" 
			},
			{
				"x": -1.8477742787,
				"y": -2.2120725215,
				"z": -2.1728500053,
				"element": "H" 
			},
			{
				"x": 1.0167508392,
				"y": 2.1606854806,
				"z": -4.0687793977,
				"element": "H" 
			},
			{
				"x": 1.411544819,
				"y": 2.738173384,
				"z": -1.6731581289,
				"element": "H" 
			},
			{
				"x": 0.4785092924,
				"y": 1.2685308582,
				"z": 0.1063888174,
				"element": "H" 
			},
			{
				"x": -1.720139482,
				"y": -2.348533228,
				"z": 1.9099885902,
				"element": "H" 
			},
			{
				"x": 0.7452427155,
				"y": 0.4517169647,
				"z": 2.8451172031,
				"element": "H" 
			},
			{
				"x": 1.3680951844,
				"y": 2.8288115285,
				"z": 3.1253807091,
				"element": "H" 
			},
			{
				"x": -0.3988920773,
				"y": 4.5679343408,
				"z": 3.2919213347,
				"element": "H" 
			},
			{
				"x": -2.7954610575,
				"y": 3.9068245698,
				"z": 3.2204486666,
				"element": "H" 
			},
			{
				"x": -3.4085060112,
				"y": 1.5018873778,
				"z": 2.9857882223,
				"element": "H" 
			},
			{
				"x": 1.1006486939,
				"y": -2.1360730164,
				"z": 3.069793366,
				"element": "H" 
			},
			{
				"x": 2.5196894935,
				"y": -2.7418104377,
				"z": 2.1991848101,
				"element": "H" 
			},
			{
				"x": 2.2013428913,
				"y": -1.0059016224,
				"z": 2.2468729878,
				"element": "H" 
			},
			{
				"x": 2.1790577234,
				"y": -0.7600764313,
				"z": -0.2608078725,
				"element": "H" 
			},
			{
				"x": 2.7057819575,
				"y": -2.4480604579,
				"z": -0.2265786682,
				"element": "H" 
			},
			{
				"x": 1.3616511946,
				"y": -1.969263127,
				"z": -1.261659115,
				"element": "H" 
			},
			{
				"x": -0.147386981,
				"y": -3.9204253648,
				"z": 1.6095972505,
				"element": "H" 
			},
			{
				"x": 1.2760902466,
				"y": -4.2586772668,
				"z": 0.6279864008,
				"element": "H" 
			},
			{
				"x": -0.2090620093,
				"y": -3.6990162487,
				"z": -0.1534136863,
				"element": "H" 
			}
		],
		 "valence_orbital": [ 
			{
				"type": "occ",
				"energy": -0.2608,
				"method": "rhf"
			},
			{
				"type": "occ",
				"energy": -0.25661,
				"method": "rhf"
			},
			{
				"type": "occ",
				"energy": -0.25275,
				"method": "rhf"
			},
			{
				"type": "occ",
				"energy": -0.25032,
				"method": "rhf"
			},
			{
				"type": "occ",
				"energy": -0.24682,
				"method": "rhf"
			},
			{
				"type": "unocc",
				"energy": -0.04674,
				"method": "rhf"
			},
			{
				"type": "unocc",
				"energy": -0.03811,
				"method": "rhf"
			},
			{
				"type": "unocc",
				"energy": -0.02064,
				"method": "rhf"
			},
			{
				"type": "unocc",
				"energy": -0.00772,
				"method": "rhf"
			},
			{
				"type": "unocc",
				"energy": 0.01122,
				"method": "rhf"
			}
		],
		"cosmo_sigma_profile": { 
			"-0.025": 0.0,
			"-0.024": 0.0,
			"-0.023": 0.0,
			"-0.022": 0.0,
			"-0.021": 0.0,
			"-0.02": 0.0,
			"-0.019": 0.0,
			"-0.018": 0.0,
			"-0.017": 0.0,
			"-0.016": 0.0,
			"-0.015": 0.0,
			"-0.014": 0.0,
			"-0.013": 0.0,
			"-0.012": 0.285519461529,
			"-0.011": 0.461868944766,
			"-0.01": 0.798016569393,
			"-0.009": 0.924955683298,
			"-0.008": 1.46959093671,
			"-0.007": 6.10642317947,
			"-0.006": 13.905299763,
			"-0.005": 21.6310405408,
			"-0.004": 34.6811484684,
			"-0.003": 34.6749028835,
			"-0.002": 37.6123852626,
			"-0.001": 39.1065003642,
			"0.0": 41.0303913362,
			"0.001": 28.6343330859,
			"0.002": 26.3591059832,
			"0.003": 26.864124534,
			"0.004": 22.1949902342,
			"0.005": 8.47197236549,
			"0.006": 3.64647093283,
			"0.007": 3.24523261022,
			"0.008": 3.39176498017,
			"0.009": 3.32041143165,
			"0.01": 3.64623365356,
			"0.011": 5.11534477377,
			"0.012": 6.8946277116,
			"0.013": 4.19329230479,
			"0.014": 0.117971410797,
			"0.015": 0.0,
			"0.016": 0.0,
			"0.017": 0.0,
			"0.018": 0.0,
			"0.019": 0.0,
			"0.02": 0.0,
			"0.021": 0.0,
			"0.022": 0.0,
			"0.023": 0.0,
			"0.024": 0.0,
			"0.025": 0.0
		}
	}
}
