{
	 "smiles": "CC1=CC=C(C=C1)C1=NN=C(S)N1CCC(O)=O", 
	 "Tm": 290.15, 
	 "num_atms": 31, 
	 "gaussian": { 
		 "optdone": 1, 
		 "sigma_profile": "yes", 
		 "theory": "DFT", 
		 "functional": "B3LYP", 
		 "basiset": "6-31G**", 
		 "properties": { 
			 "R2extent": 5456.5981, 
			 "electric_dipole_moment_norm": 5.70366578088, 
			 "electric_quadrupole_moment_norm": 18.8834866079, 
			 "total_energy": -1177.99819837, 
			 "HOMO_LUMO_gap": 0.19212, 
			 "cosmo_polarized_energy": -23.28, 
			 "cosmo_cavitation_energy": 36.97, 
			 "cosmo_dispersion_energy": -25.35, 
			 "cosmo_repulsion_energy": 1.93, 
			 "cosmo_total_nonelectrostatic_energy": 13.54, 
			 "SMD_solvation_energy": 4.57 
		},
		"coords": [
			{
				"x": 1.5518919336,
				"y": -5.0149587383,
				"z": 0.9954327534,
				"element": "C" 
			},
			{
				"x": 1.0520385318,
				"y": -3.5942854872,
				"z": 0.8831638641,
				"element": "C" 
			},
			{
				"x": 1.7464134734,
				"y": -2.6426916503,
				"z": 0.1243346676,
				"element": "C" 
			},
			{
				"x": 1.30661743,
				"y": -1.3229236328,
				"z": 0.0451434574,
				"element": "C" 
			},
			{
				"x": 0.1424788394,
				"y": -0.9183023736,
				"z": 0.7157501563,
				"element": "C" 
			},
			{
				"x": -0.5524876969,
				"y": -1.8633143405,
				"z": 1.486173068,
				"element": "C" 
			},
			{
				"x": -0.1017785875,
				"y": -3.1787418179,
				"z": 1.5636772958,
				"element": "C" 
			},
			{
				"x": -0.3463650223,
				"y": 0.4697802804,
				"z": 0.6791484972,
				"element": "C" 
			},
			{
				"x": -0.6884832721,
				"y": 1.1649775918,
				"z": 1.7415194187,
				"element": "N" 
			},
			{
				"x": -1.0934474665,
				"y": 2.4175130883,
				"z": 1.3272069752,
				"element": "N" 
			},
			{
				"x": -0.9857751732,
				"y": 2.4379922559,
				"z": 0.0210343987,
				"element": "C" 
			},
			{
				"x": -1.3651200653,
				"y": 3.814103965,
				"z": -1.0242910839,
				"element": "S" 
			},
			{
				"x": -0.5123395588,
				"y": 1.2428920915,
				"z": -0.464689085,
				"element": "N" 
			},
			{
				"x": -0.4567068077,
				"y": 0.8450092643,
				"z": -1.8712930668,
				"element": "C" 
			},
			{
				"x": -1.8293969516,
				"y": 0.4355669443,
				"z": -2.4413643054,
				"element": "C" 
			},
			{
				"x": -2.3580492774,
				"y": -0.8522895061,
				"z": -1.840139087,
				"element": "C" 
			},
			{
				"x": -1.5317909739,
				"y": -1.8921603587,
				"z": -2.1113599297,
				"element": "O" 
			},
			{
				"x": -3.3746182731,
				"y": -0.9662466294,
				"z": -1.1963287616,
				"element": "O" 
			},
			{
				"x": 0.7276689924,
				"y": -5.7195749006,
				"z": 1.1416804946,
				"element": "H" 
			},
			{
				"x": 2.1049367624,
				"y": -5.3183673157,
				"z": 0.1014991877,
				"element": "H" 
			},
			{
				"x": 2.2294814277,
				"y": -5.1270816129,
				"z": 1.8510948804,
				"element": "H" 
			},
			{
				"x": 2.6512959812,
				"y": -2.9354403884,
				"z": -0.4022388908,
				"element": "H" 
			},
			{
				"x": 1.8884758365,
				"y": -0.5992044475,
				"z": -0.5186513477,
				"element": "H" 
			},
			{
				"x": -1.4462788899,
				"y": -1.5528718345,
				"z": 2.0168448096,
				"element": "H" 
			},
			{
				"x": -0.6560989539,
				"y": -3.8968275964,
				"z": 2.1630209349,
				"element": "H" 
			},
			{
				"x": -1.7186273102,
				"y": 4.5882555461,
				"z": 0.0186575651,
				"element": "H" 
			},
			{
				"x": 0.244272309,
				"y": 0.016367106,
				"z": -1.9656385769,
				"element": "H" 
			},
			{
				"x": -0.0566293673,
				"y": 1.6866378592,
				"z": -2.4445600908,
				"element": "H" 
			},
			{
				"x": -2.5722465906,
				"y": 1.2174231341,
				"z": -2.2748734173,
				"element": "H" 
			},
			{
				"x": -1.7121708405,
				"y": 0.2889486183,
				"z": -3.5212889347,
				"element": "H" 
			},
			{
				"x": -1.8908604387,
				"y": -2.6631851141,
				"z": -1.6410658471,
				"element": "H" 
			}
		],
		 "valence_orbital": [ 
			{
				"type": "occ",
				"energy": -0.28172,
				"method": "rhf"
			},
			{
				"type": "occ",
				"energy": -0.26144,
				"method": "rhf"
			},
			{
				"type": "occ",
				"energy": -0.2594,
				"method": "rhf"
			},
			{
				"type": "occ",
				"energy": -0.25176,
				"method": "rhf"
			},
			{
				"type": "occ",
				"energy": -0.22186,
				"method": "rhf"
			},
			{
				"type": "unocc",
				"energy": -0.02974,
				"method": "rhf"
			},
			{
				"type": "unocc",
				"energy": -0.01326,
				"method": "rhf"
			},
			{
				"type": "unocc",
				"energy": -0.00523,
				"method": "rhf"
			},
			{
				"type": "unocc",
				"energy": 0.00366,
				"method": "rhf"
			},
			{
				"type": "unocc",
				"energy": 0.0246,
				"method": "rhf"
			}
		],
		"cosmo_sigma_profile": { 
			"-0.025": 0.0,
			"-0.024": 0.0,
			"-0.023": 0.0,
			"-0.022": 0.0,
			"-0.021": 0.0,
			"-0.02": 0.0,
			"-0.019": 0.0,
			"-0.018": 0.303604302345,
			"-0.017": 0.516447693078,
			"-0.016": 0.577980576553,
			"-0.015": 1.05530959576,
			"-0.014": 0.80078484489,
			"-0.013": 0.277038626316,
			"-0.012": 2.03554972117,
			"-0.011": 1.64918155522,
			"-0.01": 2.59661201124,
			"-0.009": 1.97703569419,
			"-0.008": 7.94605090363,
			"-0.007": 12.0292738411,
			"-0.006": 15.2977702536,
			"-0.005": 19.9466912784,
			"-0.004": 24.0390449803,
			"-0.003": 20.0489745772,
			"-0.002": 20.9016617479,
			"-0.001": 21.7728019192,
			"0.0": 22.4915738317,
			"0.001": 18.6262828677,
			"0.002": 15.2365821271,
			"0.003": 12.3272610219,
			"0.004": 13.8560531365,
			"0.005": 12.2071596647,
			"0.006": 6.68836777955,
			"0.007": 4.20477185674,
			"0.008": 4.44397854499,
			"0.009": 4.3949366884,
			"0.01": 3.67217306365,
			"0.011": 6.79619860092,
			"0.012": 5.5926474639,
			"0.013": 4.14031452627,
			"0.014": 2.97002583367,
			"0.015": 2.58217327636,
			"0.016": 1.79045211358,
			"0.017": 0.420678542357,
			"0.018": 0.0,
			"0.019": 0.0,
			"0.02": 0.0,
			"0.021": 0.0,
			"0.022": 0.0,
			"0.023": 0.0,
			"0.024": 0.0,
			"0.025": 0.0
		}
	}
}
