{
	 "smiles": "COC1=CC=C(C=O)C=C1OC", 
	 "Tm": 316.65, 
	 "num_atms": 22, 
	 "gaussian": { 
		 "optdone": 1, 
		 "sigma_profile": "yes", 
		 "theory": "DFT", 
		 "functional": "B3LYP", 
		 "basiset": "6-31G**", 
		 "properties": { 
			 "R2extent": 2407.8438, 
			 "electric_dipole_moment_norm": 3.68256569799, 
			 "electric_quadrupole_moment_norm": 12.3572708488, 
			 "total_energy": -574.613853633, 
			 "HOMO_LUMO_gap": 0.18355, 
			 "cosmo_polarized_energy": -9.47, 
			 "cosmo_cavitation_energy": 26.2, 
			 "cosmo_dispersion_energy": -18.7, 
			 "cosmo_repulsion_energy": 1.5, 
			 "cosmo_total_nonelectrostatic_energy": 8.99, 
			 "SMD_solvation_energy": 7.12 
		},
		"coords": [
			{
				"x": -3.3606907828,
				"y": 1.2327973466,
				"z": 0.5955915576,
				"element": "C" 
			},
			{
				"x": -2.1256779635,
				"y": 1.9658660958,
				"z": 0.605639288,
				"element": "O" 
			},
			{
				"x": -1.0097143245,
				"y": 1.2597688543,
				"z": 0.2406682162,
				"element": "C" 
			},
			{
				"x": -0.3128514577,
				"y": 1.6633334411,
				"z": -0.9018004208,
				"element": "C" 
			},
			{
				"x": 0.8420164857,
				"y": 0.9913486048,
				"z": -1.293352448,
				"element": "C" 
			},
			{
				"x": 1.3065377464,
				"y": -0.0996725435,
				"z": -0.5482393956,
				"element": "C" 
			},
			{
				"x": 2.5253151231,
				"y": -0.8201284598,
				"z": -0.970485587,
				"element": "C" 
			},
			{
				"x": 3.007402785,
				"y": -1.7727104026,
				"z": -0.3860904224,
				"element": "O" 
			},
			{
				"x": 0.6193083354,
				"y": -0.4953927758,
				"z": 0.6099424107,
				"element": "C" 
			},
			{
				"x": -0.5243830179,
				"y": 0.1793058182,
				"z": 1.0154305194,
				"element": "C" 
			},
			{
				"x": -1.1872670209,
				"y": -0.23619766,
				"z": 2.1479731204,
				"element": "O" 
			},
			{
				"x": -1.0753525952,
				"y": 0.6553098056,
				"z": 3.2655090738,
				"element": "C" 
			},
			{
				"x": -3.3212053844,
				"y": 0.3733161575,
				"z": 1.2696694824,
				"element": "H" 
			},
			{
				"x": -3.5944166053,
				"y": 0.8928961124,
				"z": -0.420576672,
				"element": "H" 
			},
			{
				"x": -4.1287201149,
				"y": 1.9336218736,
				"z": 0.9271956393,
				"element": "H" 
			},
			{
				"x": -0.702498991,
				"y": 2.5034762474,
				"z": -1.4673598275,
				"element": "H" 
			},
			{
				"x": 1.3791187064,
				"y": 1.3033206681,
				"z": -2.1856648065,
				"element": "H" 
			},
			{
				"x": 2.9976051607,
				"y": -0.4207338259,
				"z": -1.8962705776,
				"element": "H" 
			},
			{
				"x": 0.9894345991,
				"y": -1.3312935928,
				"z": 1.194441463,
				"element": "H" 
			},
			{
				"x": -1.488813915,
				"y": 1.641823111,
				"z": 3.0320393385,
				"element": "H" 
			},
			{
				"x": -1.6447578463,
				"y": 0.1994718588,
				"z": 4.0776575798,
				"element": "H" 
			},
			{
				"x": -0.0275889221,
				"y": 0.7612732653,
				"z": 3.5719824681,
				"element": "H" 
			}
		],
		 "valence_orbital": [ 
			{
				"type": "occ",
				"energy": -0.30839,
				"method": "rhf"
			},
			{
				"type": "occ",
				"energy": -0.27589,
				"method": "rhf"
			},
			{
				"type": "occ",
				"energy": -0.25678,
				"method": "rhf"
			},
			{
				"type": "occ",
				"energy": -0.2514,
				"method": "rhf"
			},
			{
				"type": "occ",
				"energy": -0.2427,
				"method": "rhf"
			},
			{
				"type": "unocc",
				"energy": -0.05915,
				"method": "rhf"
			},
			{
				"type": "unocc",
				"energy": -0.01193,
				"method": "rhf"
			},
			{
				"type": "unocc",
				"energy": 0.04162,
				"method": "rhf"
			},
			{
				"type": "unocc",
				"energy": 0.07951,
				"method": "rhf"
			},
			{
				"type": "unocc",
				"energy": 0.10445,
				"method": "rhf"
			}
		],
		"cosmo_sigma_profile": { 
			"-0.025": 0.0,
			"-0.024": 0.0,
			"-0.023": 0.0,
			"-0.022": 0.0,
			"-0.021": 0.0,
			"-0.02": 0.0,
			"-0.019": 0.0,
			"-0.018": 0.0,
			"-0.017": 0.0,
			"-0.016": 0.0,
			"-0.015": 0.0,
			"-0.014": 0.0,
			"-0.013": 0.0,
			"-0.012": 0.0,
			"-0.011": 0.0,
			"-0.01": 0.0,
			"-0.009": 0.0,
			"-0.008": 1.10665085328,
			"-0.007": 5.45655604191,
			"-0.006": 10.9678662428,
			"-0.005": 15.303075481,
			"-0.004": 19.6468546851,
			"-0.003": 24.5613361627,
			"-0.002": 20.6972499356,
			"-0.001": 16.437268876,
			"0.0": 13.6321675883,
			"0.001": 13.8447120991,
			"0.002": 16.508275461,
			"0.003": 11.7498114165,
			"0.004": 4.56577358073,
			"0.005": 4.90455222406,
			"0.006": 3.55902825465,
			"0.007": 3.19523397213,
			"0.008": 3.89126775217,
			"0.009": 3.09093810654,
			"0.01": 4.74284030187,
			"0.011": 5.86207502275,
			"0.012": 3.75303375038,
			"0.013": 1.0440523454,
			"0.014": 0.0,
			"0.015": 0.0,
			"0.016": 0.0,
			"0.017": 0.0,
			"0.018": 0.0,
			"0.019": 0.0,
			"0.02": 0.0,
			"0.021": 0.0,
			"0.022": 0.0,
			"0.023": 0.0,
			"0.024": 0.0,
			"0.025": 0.0
		}
	}
}
