{
	 "smiles": "CCOC1=CC(C)=CC=C1O", 
	 "Tm": 303.65, 
	 "num_atms": 23, 
	 "gaussian": { 
		 "optdone": 1, 
		 "sigma_profile": "yes", 
		 "theory": "DFT", 
		 "functional": "B3LYP", 
		 "basiset": "6-31G**", 
		 "properties": { 
			 "R2extent": 2447.1687, 
			 "electric_dipole_moment_norm": 1.88660991729, 
			 "electric_quadrupole_moment_norm": 8.38663036744, 
			 "total_energy": -500.629312344, 
			 "HOMO_LUMO_gap": 0.21298, 
			 "cosmo_polarized_energy": -9.57, 
			 "cosmo_cavitation_energy": 26.17, 
			 "cosmo_dispersion_energy": -19.19, 
			 "cosmo_repulsion_energy": 1.58, 
			 "cosmo_total_nonelectrostatic_energy": 8.56, 
			 "SMD_solvation_energy": 5.26 
		},
		"coords": [
			{
				"x": -1.4675771925,
				"y": 2.6940034964,
				"z": 0.8985466375,
				"element": "C" 
			},
			{
				"x": -1.4009472964,
				"y": 1.1860748233,
				"z": 1.0612158265,
				"element": "C" 
			},
			{
				"x": -0.4557378708,
				"y": 0.6899247236,
				"z": 0.0974907749,
				"element": "O" 
			},
			{
				"x": -0.2340173536,
				"y": -0.6652961379,
				"z": 0.1037977124,
				"element": "C" 
			},
			{
				"x": 1.0299346911,
				"y": -1.1388434693,
				"z": 0.4464143791,
				"element": "C" 
			},
			{
				"x": 1.3482424233,
				"y": -2.5047772072,
				"z": 0.4108164438,
				"element": "C" 
			},
			{
				"x": 2.7353102152,
				"y": -2.981559981,
				"z": 0.7745497914,
				"element": "C" 
			},
			{
				"x": 0.3445011826,
				"y": -3.398026607,
				"z": 0.0296878402,
				"element": "C" 
			},
			{
				"x": -0.9302715274,
				"y": -2.9419814124,
				"z": -0.317112236,
				"element": "C" 
			},
			{
				"x": -1.2304311627,
				"y": -1.5809939169,
				"z": -0.2923744122,
				"element": "C" 
			},
			{
				"x": -2.4564529036,
				"y": -1.080674092,
				"z": -0.6460793047,
				"element": "O" 
			},
			{
				"x": -0.4842678743,
				"y": 3.1453588817,
				"z": 1.0601226249,
				"element": "H" 
			},
			{
				"x": -1.8042162778,
				"y": 2.9554951715,
				"z": -0.1087588945,
				"element": "H" 
			},
			{
				"x": -2.169947164,
				"y": 3.1215312607,
				"z": 1.6213091241,
				"element": "H" 
			},
			{
				"x": -1.0623535259,
				"y": 0.9140662736,
				"z": 2.0715438131,
				"element": "H" 
			},
			{
				"x": -2.3819639668,
				"y": 0.7288776702,
				"z": 0.893674236,
				"element": "H" 
			},
			{
				"x": 1.7743184067,
				"y": -0.402474404,
				"z": 0.7370371878,
				"element": "H" 
			},
			{
				"x": 2.7909024783,
				"y": -4.0738654289,
				"z": 0.7804080941,
				"element": "H" 
			},
			{
				"x": 3.4854080269,
				"y": -2.6154436086,
				"z": 0.0632267854,
				"element": "H" 
			},
			{
				"x": 3.0356345788,
				"y": -2.6272213724,
				"z": 1.7672976905,
				"element": "H" 
			},
			{
				"x": 0.5534429802,
				"y": -4.4639042283,
				"z": -0.0034402153,
				"element": "H" 
			},
			{
				"x": -1.6982253313,
				"y": -3.6520532574,
				"z": -0.6194657702,
				"element": "H" 
			},
			{
				"x": -3.0271855361,
				"y": -1.8163171774,
				"z": -0.9029081287,
				"element": "H" 
			}
		],
		 "valence_orbital": [ 
			{
				"type": "occ",
				"energy": -0.32976,
				"method": "rhf"
			},
			{
				"type": "occ",
				"energy": -0.31235,
				"method": "rhf"
			},
			{
				"type": "occ",
				"energy": -0.26716,
				"method": "rhf"
			},
			{
				"type": "occ",
				"energy": -0.23339,
				"method": "rhf"
			},
			{
				"type": "occ",
				"energy": -0.20723,
				"method": "rhf"
			},
			{
				"type": "unocc",
				"energy": 0.00575,
				"method": "rhf"
			},
			{
				"type": "unocc",
				"energy": 0.0193,
				"method": "rhf"
			},
			{
				"type": "unocc",
				"energy": 0.06831,
				"method": "rhf"
			},
			{
				"type": "unocc",
				"energy": 0.0967,
				"method": "rhf"
			},
			{
				"type": "unocc",
				"energy": 0.11632,
				"method": "rhf"
			}
		],
		"cosmo_sigma_profile": { 
			"-0.025": 0.0,
			"-0.024": 0.0,
			"-0.023": 0.0,
			"-0.022": 0.0,
			"-0.021": 0.0,
			"-0.02": 0.0,
			"-0.019": 0.0,
			"-0.018": 0.192744222935,
			"-0.017": 1.26047736727,
			"-0.016": 1.01130111779,
			"-0.015": 0.722386973524,
			"-0.014": 1.27618961964,
			"-0.013": 1.04549640689,
			"-0.012": 1.16666080939,
			"-0.011": 0.80620233613,
			"-0.01": 0.854750413421,
			"-0.009": 1.13062994552,
			"-0.008": 0.863347637698,
			"-0.007": 1.50845274793,
			"-0.006": 2.19774428143,
			"-0.005": 5.52923256311,
			"-0.004": 15.1255368703,
			"-0.003": 21.3585918719,
			"-0.002": 22.4103891792,
			"-0.001": 22.3217331659,
			"0.0": 21.3094292871,
			"0.001": 16.1161409453,
			"0.002": 10.3423075577,
			"0.003": 8.98047981944,
			"0.004": 10.8895701363,
			"0.005": 11.220887555,
			"0.006": 10.0163745623,
			"0.007": 3.50543142566,
			"0.008": 2.98335037627,
			"0.009": 1.98526211944,
			"0.01": 2.72948150453,
			"0.011": 3.25156286245,
			"0.012": 1.69069458158,
			"0.013": 0.0941895280887,
			"0.014": 0.0,
			"0.015": 0.0,
			"0.016": 0.0,
			"0.017": 0.0,
			"0.018": 0.0,
			"0.019": 0.0,
			"0.02": 0.0,
			"0.021": 0.0,
			"0.022": 0.0,
			"0.023": 0.0,
			"0.024": 0.0,
			"0.025": 0.0
		}
	}
}
