{
	 "smiles": "CC(=O)C1=CC=C(C=C1)N1C(C)=CC=C1C", 
	 "Tm": 384.15, 
	 "num_atms": 31, 
	 "gaussian": { 
		 "optdone": 1, 
		 "sigma_profile": "yes", 
		 "theory": "DFT", 
		 "functional": "B3LYP", 
		 "basiset": "6-31G**", 
		 "properties": { 
			 "R2extent": 4530.2753, 
			 "electric_dipole_moment_norm": 2.23252490468, 
			 "electric_quadrupole_moment_norm": 15.1609157863, 
			 "total_energy": -672.510390325, 
			 "HOMO_LUMO_gap": 0.13028, 
			 "cosmo_polarized_energy": -10.26, 
			 "cosmo_cavitation_energy": 34.35, 
			 "cosmo_dispersion_energy": -23.84, 
			 "cosmo_repulsion_energy": 1.85, 
			 "cosmo_total_nonelectrostatic_energy": 12.37, 
			 "SMD_solvation_energy": 6.71 
		},
		"coords": [
			{
				"x": -4.7366068033,
				"y": 0.9713790578,
				"z": -1.0640344866,
				"element": "C" 
			},
			{
				"x": -3.8014432359,
				"y": -0.1386456474,
				"z": -1.513422448,
				"element": "C" 
			},
			{
				"x": -4.1905463587,
				"y": -1.0084214251,
				"z": -2.2781356765,
				"element": "O" 
			},
			{
				"x": -2.3913254458,
				"y": -0.1490515849,
				"z": -1.0027523192,
				"element": "C" 
			},
			{
				"x": -1.8913874342,
				"y": 0.8198588589,
				"z": -0.120083283,
				"element": "C" 
			},
			{
				"x": -0.5739618009,
				"y": 0.7594609446,
				"z": 0.32834289,
				"element": "C" 
			},
			{
				"x": 0.2718396403,
				"y": -0.2663523313,
				"z": -0.1114696052,
				"element": "C" 
			},
			{
				"x": -0.2190899516,
				"y": -1.2347417302,
				"z": -0.9996491196,
				"element": "C" 
			},
			{
				"x": -1.537771914,
				"y": -1.1772674958,
				"z": -1.4329786996,
				"element": "C" 
			},
			{
				"x": 1.6192923485,
				"y": -0.3247271202,
				"z": 0.339500951,
				"element": "N" 
			},
			{
				"x": 2.5967421389,
				"y": 0.6417398194,
				"z": 0.0896601292,
				"element": "C" 
			},
			{
				"x": 2.3489056069,
				"y": 1.8526215922,
				"z": -0.7535325898,
				"element": "C" 
			},
			{
				"x": 3.7567389026,
				"y": 0.2103740603,
				"z": 0.6906738382,
				"element": "C" 
			},
			{
				"x": 3.4886781362,
				"y": -1.0347177256,
				"z": 1.3291810843,
				"element": "C" 
			},
			{
				"x": 2.171021963,
				"y": -1.3580484148,
				"z": 1.1007948537,
				"element": "C" 
			},
			{
				"x": 1.3726331082,
				"y": -2.5243860885,
				"z": 1.5915852414,
				"element": "C" 
			},
			{
				"x": -4.8520051579,
				"y": 0.9720772415,
				"z": 0.0255546095,
				"element": "H" 
			},
			{
				"x": -5.7098352954,
				"y": 0.8169542192,
				"z": -1.5304405847,
				"element": "H" 
			},
			{
				"x": -4.3476934659,
				"y": 1.9544720974,
				"z": -1.3516424503,
				"element": "H" 
			},
			{
				"x": -2.5305033629,
				"y": 1.6220131487,
				"z": 0.2342692695,
				"element": "H" 
			},
			{
				"x": -0.1963134284,
				"y": 1.4936500295,
				"z": 1.032119019,
				"element": "H" 
			},
			{
				"x": 0.4465293054,
				"y": -2.0148687737,
				"z": -1.3541323401,
				"element": "H" 
			},
			{
				"x": -1.9337035205,
				"y": -1.9158869353,
				"z": -2.1217757878,
				"element": "H" 
			},
			{
				"x": 1.940320942,
				"y": 1.5954328232,
				"z": -1.7383324534,
				"element": "H" 
			},
			{
				"x": 1.6533455013,
				"y": 2.5655990523,
				"z": -0.2945597416,
				"element": "H" 
			},
			{
				"x": 3.2959482742,
				"y": 2.3742586631,
				"z": -0.9121270577,
				"element": "H" 
			},
			{
				"x": 4.7017103995,
				"y": 0.735898329,
				"z": 0.6617881694,
				"element": "H" 
			},
			{
				"x": 4.1819829571,
				"y": -1.632113647,
				"z": 1.9057233147,
				"element": "H" 
			},
			{
				"x": 0.4748803482,
				"y": -2.2116633977,
				"z": 2.1385455882,
				"element": "H" 
			},
			{
				"x": 1.9893136205,
				"y": -3.1145906132,
				"z": 2.2738529965,
				"element": "H" 
			},
			{
				"x": 1.0409039828,
				"y": -3.1915070066,
				"z": 0.7869766882,
				"element": "H" 
			}
		],
		 "valence_orbital": [ 
			{
				"type": "occ",
				"energy": -0.27213,
				"method": "rhf"
			},
			{
				"type": "occ",
				"energy": -0.26852,
				"method": "rhf"
			},
			{
				"type": "occ",
				"energy": -0.25244,
				"method": "rhf"
			},
			{
				"type": "occ",
				"energy": -0.22722,
				"method": "rhf"
			},
			{
				"type": "occ",
				"energy": -0.19283,
				"method": "rhf"
			},
			{
				"type": "unocc",
				"energy": -0.06255,
				"method": "rhf"
			},
			{
				"type": "unocc",
				"energy": -0.01969,
				"method": "rhf"
			},
			{
				"type": "unocc",
				"energy": 0.02312,
				"method": "rhf"
			},
			{
				"type": "unocc",
				"energy": 0.04944,
				"method": "rhf"
			},
			{
				"type": "unocc",
				"energy": 0.08047,
				"method": "rhf"
			}
		],
		"cosmo_sigma_profile": { 
			"-0.025": 0.0,
			"-0.024": 0.0,
			"-0.023": 0.0,
			"-0.022": 0.0,
			"-0.021": 0.0,
			"-0.02": 0.0,
			"-0.019": 0.0,
			"-0.018": 0.0,
			"-0.017": 0.0,
			"-0.016": 0.0,
			"-0.015": 0.0,
			"-0.014": 0.0,
			"-0.013": 0.0,
			"-0.012": 0.0,
			"-0.011": 0.0,
			"-0.01": 0.0,
			"-0.009": 0.0,
			"-0.008": 0.00575742234412,
			"-0.007": 4.74373284752,
			"-0.006": 13.629144132,
			"-0.005": 18.6302438653,
			"-0.004": 24.8547814022,
			"-0.003": 25.2408129291,
			"-0.002": 26.1727092357,
			"-0.001": 28.6127676259,
			"0.0": 28.5572498984,
			"0.001": 20.8378998241,
			"0.002": 16.1875885699,
			"0.003": 17.6516106361,
			"0.004": 7.2350767963,
			"0.005": 5.82772172235,
			"0.006": 6.3368163247,
			"0.007": 5.74663286366,
			"0.008": 5.4191228572,
			"0.009": 5.97387263753,
			"0.01": 2.35479090116,
			"0.011": 2.94435823271,
			"0.012": 3.98662276168,
			"0.013": 1.36104631115,
			"0.014": 0.138822305016,
			"0.015": 0.0,
			"0.016": 0.0,
			"0.017": 0.0,
			"0.018": 0.0,
			"0.019": 0.0,
			"0.02": 0.0,
			"0.021": 0.0,
			"0.022": 0.0,
			"0.023": 0.0,
			"0.024": 0.0,
			"0.025": 0.0
		}
	}
}
