{
	 "smiles": "ClC1=CC=C(C=C1)C1=CC=C(Cl)C=C1", 
	 "Tm": 422.15, 
	 "num_atms": 22, 
	 "gaussian": { 
		 "optdone": 1, 
		 "sigma_profile": "yes", 
		 "theory": "DFT", 
		 "functional": "B3LYP", 
		 "basiset": "6-31G**", 
		 "properties": { 
			 "R2extent": 5983.7126, 
			 "electric_dipole_moment_norm": 0.000141421356237, 
			 "electric_quadrupole_moment_norm": 16.9372698302, 
			 "total_energy": -1382.49402895, 
			 "HOMO_LUMO_gap": 0.18608, 
			 "cosmo_polarized_energy": -6.03, 
			 "cosmo_cavitation_energy": 30.04, 
			 "cosmo_dispersion_energy": -22.35, 
			 "cosmo_repulsion_energy": 1.74, 
			 "cosmo_total_nonelectrostatic_energy": 9.43, 
			 "SMD_solvation_energy": 4.29 
		},
		"coords": [
			{
				"x": 4.3603331129,
				"y": -0.5747289521,
				"z": -1.138436974,
				"element": "Cl" 
			},
			{
				"x": 2.7296207784,
				"y": -0.3432163089,
				"z": -0.5245296126,
				"element": "C" 
			},
			{
				"x": 1.8245330058,
				"y": -1.4030928746,
				"z": -0.5600248352,
				"element": "C" 
			},
			{
				"x": 0.5342282039,
				"y": -1.2116185732,
				"z": -0.0704644985,
				"element": "C" 
			},
			{
				"x": 0.1273603372,
				"y": 0.0262124541,
				"z": 0.4552717259,
				"element": "C" 
			},
			{
				"x": 1.0640265403,
				"y": 1.0733115786,
				"z": 0.4751451352,
				"element": "C" 
			},
			{
				"x": 2.358778411,
				"y": 0.8977920169,
				"z": -0.0086281978,
				"element": "C" 
			},
			{
				"x": -1.2495368485,
				"y": 0.2216115281,
				"z": 0.9737227343,
				"element": "C" 
			},
			{
				"x": -1.4893369613,
				"y": 1.0067382689,
				"z": 2.1139975545,
				"element": "C" 
			},
			{
				"x": -2.7788674263,
				"y": 1.1959524533,
				"z": 2.6064752169,
				"element": "C" 
			},
			{
				"x": -3.8518280445,
				"y": 0.5908717685,
				"z": 1.9534711023,
				"element": "C" 
			},
			{
				"x": -5.4825562473,
				"y": 0.8223144822,
				"z": 2.5673764218,
				"element": "Cl" 
			},
			{
				"x": -3.648847999,
				"y": -0.1952715956,
				"z": 0.8200877577,
				"element": "C" 
			},
			{
				"x": -2.3532780027,
				"y": -0.3728801517,
				"z": 0.3392861772,
				"element": "C" 
			},
			{
				"x": 2.1296578749,
				"y": -2.3657658008,
				"z": -0.9550565536,
				"element": "H" 
			},
			{
				"x": -0.1590882335,
				"y": -2.0471245402,
				"z": -0.073642816,
				"element": "H" 
			},
			{
				"x": 0.7702177121,
				"y": 2.0489749799,
				"z": 0.850021,
				"element": "H" 
			},
			{
				"x": 3.0701246707,
				"y": 1.7161581833,
				"z": 0.0036848435,
				"element": "H" 
			},
			{
				"x": -0.6535148399,
				"y": 1.4561498882,
				"z": 2.6414531212,
				"element": "H" 
			},
			{
				"x": -2.950458965,
				"y": 1.7967199535,
				"z": 3.4927707583,
				"element": "H" 
			},
			{
				"x": -4.4937553999,
				"y": -0.6517977495,
				"z": 0.3165036187,
				"element": "H" 
			},
			{
				"x": -2.2019116795,
				"y": -0.9624110089,
				"z": -0.5597836798,
				"element": "H" 
			}
		],
		 "valence_orbital": [ 
			{
				"type": "occ",
				"energy": -0.31518,
				"method": "rhf"
			},
			{
				"type": "occ",
				"energy": -0.27016,
				"method": "rhf"
			},
			{
				"type": "occ",
				"energy": -0.26994,
				"method": "rhf"
			},
			{
				"type": "occ",
				"energy": -0.26938,
				"method": "rhf"
			},
			{
				"type": "occ",
				"energy": -0.23034,
				"method": "rhf"
			},
			{
				"type": "unocc",
				"energy": -0.04426,
				"method": "rhf"
			},
			{
				"type": "unocc",
				"energy": -0.02283,
				"method": "rhf"
			},
			{
				"type": "unocc",
				"energy": -0.01883,
				"method": "rhf"
			},
			{
				"type": "unocc",
				"energy": 0.01083,
				"method": "rhf"
			},
			{
				"type": "unocc",
				"energy": 0.02563,
				"method": "rhf"
			}
		],
		"cosmo_sigma_profile": { 
			"-0.025": 0.0,
			"-0.024": 0.0,
			"-0.023": 0.0,
			"-0.022": 0.0,
			"-0.021": 0.0,
			"-0.02": 0.0,
			"-0.019": 0.0,
			"-0.018": 0.0,
			"-0.017": 0.0,
			"-0.016": 0.0,
			"-0.015": 0.0,
			"-0.014": 0.0,
			"-0.013": 0.0,
			"-0.012": 0.0,
			"-0.011": 0.0,
			"-0.01": 0.0,
			"-0.009": 0.0,
			"-0.008": 0.673422793704,
			"-0.007": 9.38755524683,
			"-0.006": 18.6835444113,
			"-0.005": 15.9499691111,
			"-0.004": 11.1358162497,
			"-0.003": 12.9676153253,
			"-0.002": 12.4847774552,
			"-0.001": 13.8743252865,
			"0.0": 17.1398496364,
			"0.001": 24.554237583,
			"0.002": 30.1565221097,
			"0.003": 36.1241823408,
			"0.004": 29.0754963637,
			"0.005": 14.273682083,
			"0.006": 0.033012021977,
			"0.007": 0.0,
			"0.008": 0.0,
			"0.009": 0.0,
			"0.01": 0.0,
			"0.011": 0.0,
			"0.012": 0.0,
			"0.013": 0.0,
			"0.014": 0.0,
			"0.015": 0.0,
			"0.016": 0.0,
			"0.017": 0.0,
			"0.018": 0.0,
			"0.019": 0.0,
			"0.02": 0.0,
			"0.021": 0.0,
			"0.022": 0.0,
			"0.023": 0.0,
			"0.024": 0.0,
			"0.025": 0.0
		}
	}
}
