{
	 "smiles": "COC(=O)C1=CC=C(I)C(N)=C1", 
	 "Tm": 408.15, 
	 "num_atms": 20, 
	 "gaussian": { 
		 "optdone": 1, 
		 "sigma_profile": "no", 
		 "theory": "DFT", 
		 "functional": "B3LYP", 
		 "basiset": "6-31G**", 
		 "properties": { 
			 "R2extent": 3616.0657, 
			 "electric_dipole_moment_norm": 3.17284686993, 
			 "electric_quadrupole_moment_norm": 10.1025150195, 
			 "total_energy": -526.272480219, 
			 "HOMO_LUMO_gap": 0.16779, 
			 "cosmo_polarized_energy": -94293.96, 
			 "cosmo_cavitation_energy": 27.51, 
			 "cosmo_dispersion_energy": -21.78, 
			 "cosmo_repulsion_energy": 1.7, 
			 "cosmo_total_nonelectrostatic_energy": 7.44, 
			 "SMD_solvation_energy": 5.38 
		},
		"coords": [
			{
				"x": -0.7338971774,
				"y": 2.1929771234,
				"z": 0.131871846,
				"element": "C" 
			},
			{
				"x": 0.1164461756,
				"y": 1.1168037009,
				"z": -0.2928198833,
				"element": "O" 
			},
			{
				"x": -0.4052112987,
				"y": -0.1226869687,
				"z": -0.1386588101,
				"element": "C" 
			},
			{
				"x": -1.5101431207,
				"y": -0.3224310897,
				"z": 0.3267552506,
				"element": "O" 
			},
			{
				"x": 0.5211668465,
				"y": -1.1967517141,
				"z": -0.5995273437,
				"element": "C" 
			},
			{
				"x": 0.0897392059,
				"y": -2.5249909716,
				"z": -0.4850540016,
				"element": "C" 
			},
			{
				"x": 0.9303428507,
				"y": -3.5501416197,
				"z": -0.9025875955,
				"element": "C" 
			},
			{
				"x": 2.1892293914,
				"y": -3.2573435342,
				"z": -1.431452024,
				"element": "C" 
			},
			{
				"x": 3.4255334331,
				"y": -4.8752777502,
				"z": -2.0386398167,
				"element": "I" 
			},
			{
				"x": 2.6470421131,
				"y": -1.929184943,
				"z": -1.5599359573,
				"element": "C" 
			},
			{
				"x": 3.8647831335,
				"y": -1.6023814679,
				"z": -2.1324273328,
				"element": "N" 
			},
			{
				"x": 1.7788528367,
				"y": -0.9081960374,
				"z": -1.1274571345,
				"element": "C" 
			},
			{
				"x": -1.6687862766,
				"y": 2.1910907727,
				"z": -0.4340903113,
				"element": "H" 
			},
			{
				"x": -0.1711926741,
				"y": 3.1064339506,
				"z": -0.060724555,
				"element": "H" 
			},
			{
				"x": -0.9673499604,
				"y": 2.1024164854,
				"z": 1.1957058686,
				"element": "H" 
			},
			{
				"x": -0.8902896847,
				"y": -2.7324604581,
				"z": -0.072055313,
				"element": "H" 
			},
			{
				"x": 0.6120808176,
				"y": -4.5830167813,
				"z": -0.8174379676,
				"element": "H" 
			},
			{
				"x": 4.570149032,
				"y": -2.3259949672,
				"z": -2.1397818982,
				"element": "H" 
			},
			{
				"x": 4.225252772,
				"y": -0.6882181901,
				"z": -1.9014757871,
				"element": "H" 
			},
			{
				"x": 2.0975515844,
				"y": 0.1251544602,
				"z": -1.2144072338,
				"element": "H" 
			}
		],
		 "valence_orbital": [ 
			{
				"type": "occ",
				"energy": -0.29806,
				"method": "rhf"
			},
			{
				"type": "occ",
				"energy": -0.27635,
				"method": "rhf"
			},
			{
				"type": "occ",
				"energy": -0.27518,
				"method": "rhf"
			},
			{
				"type": "occ",
				"energy": -0.24883,
				"method": "rhf"
			},
			{
				"type": "occ",
				"energy": -0.21675,
				"method": "rhf"
			},
			{
				"type": "unocc",
				"energy": -0.04896,
				"method": "rhf"
			},
			{
				"type": "unocc",
				"energy": -0.04113,
				"method": "rhf"
			},
			{
				"type": "unocc",
				"energy": -0.00308,
				"method": "rhf"
			},
			{
				"type": "unocc",
				"energy": 0.0352,
				"method": "rhf"
			},
			{
				"type": "unocc",
				"energy": 0.04784,
				"method": "rhf"
			}
		],
		"cosmo_sigma_profile": { 
			"0.0": 0.0,
			"0.0": 0.0,
			"0.0": 0.0,
			"0.0": 0.0,
			"0.0": 0.0,
			"0.0": 0.0,
			"0.0": 0.0,
			"0.0": 0.0,
			"0.0": 0.0,
			"0.0": 0.0,
			"0.0": 0.0,
			"0.0": 0.0,
			"0.0": 0.0,
			"0.0": 0.0,
			"0.0": 0.0,
			"0.0": 0.0,
			"0.0": 0.0,
			"0.0": 0.0,
			"0.0": 0.0,
			"0.0": 0.0,
			"0.0": 0.0,
			"0.0": 0.0,
			"0.0": 0.0,
			"0.0": 0.0,
			"0.0": 0.0,
			"0.0": 0.0,
			"0.0": 0.0,
			"0.0": 0.0,
			"0.0": 0.0,
			"0.0": 0.0,
			"0.0": 0.0,
			"0.0": 0.0,
			"0.0": 0.0,
			"0.0": 0.0,
			"0.0": 0.0,
			"0.0": 0.0,
			"0.0": 0.0,
			"0.0": 0.0,
			"0.0": 0.0,
			"0.0": 0.0,
			"0.0": 0.0,
			"0.0": 0.0,
			"0.0": 0.0,
			"0.0": 0.0,
			"0.0": 0.0,
			"0.0": 0.0,
			"0.0": 0.0,
			"0.0": 0.0,
			"0.0": 0.0,
			"0.0": 0.0,
			"0.0": 0.0
		}
	}
}
