{
	 "smiles": "O=C1CCC(=NN1C1=NNC(=S)N1C1=CC=CC=C1)C1=CC=CC=C1", 
	 "Tm": 454.15, 
	 "num_atms": 40, 
	 "gaussian": { 
		 "optdone": 1, 
		 "sigma_profile": "yes", 
		 "theory": "DFT", 
		 "functional": "B3LYP", 
		 "basiset": "6-31G**", 
		 "properties": { 
			 "R2extent": 10639.6201, 
			 "electric_dipole_moment_norm": 7.80046310484, 
			 "electric_quadrupole_moment_norm": 22.7538914397, 
			 "total_energy": -1442.0940053, 
			 "HOMO_LUMO_gap": 0.13696, 
			 "cosmo_polarized_energy": -24.19, 
			 "cosmo_cavitation_energy": 47.16, 
			 "cosmo_dispersion_energy": -31.47, 
			 "cosmo_repulsion_energy": 2.38, 
			 "cosmo_total_nonelectrostatic_energy": 18.07, 
			 "SMD_solvation_energy": 5.82 
		},
		"coords": [
			{
				"x": -2.563851201,
				"y": -2.0845391972,
				"z": -1.5559482258,
				"element": "O" 
			},
			{
				"x": -1.8855271868,
				"y": -1.1081259424,
				"z": -1.3054739991,
				"element": "C" 
			},
			{
				"x": -1.325128713,
				"y": -0.1456180937,
				"z": -2.3272640098,
				"element": "C" 
			},
			{
				"x": 0.0091301433,
				"y": 0.4530991537,
				"z": -1.8716842262,
				"element": "C" 
			},
			{
				"x": -0.098542326,
				"y": 0.9492140009,
				"z": -0.4456637504,
				"element": "C" 
			},
			{
				"x": -0.8483705409,
				"y": 0.359824818,
				"z": 0.4247916568,
				"element": "N" 
			},
			{
				"x": -1.5854011359,
				"y": -0.7510530019,
				"z": 0.0176147108,
				"element": "N" 
			},
			{
				"x": -2.2090123353,
				"y": -1.4534882574,
				"z": 1.0609619828,
				"element": "C" 
			},
			{
				"x": -3.3191167968,
				"y": -1.0967583744,
				"z": 1.6297094805,
				"element": "N" 
			},
			{
				"x": -3.5219225847,
				"y": -2.0717549887,
				"z": 2.5631519888,
				"element": "N" 
			},
			{
				"x": -2.5680741261,
				"y": -3.0488739372,
				"z": 2.5969591148,
				"element": "C" 
			},
			{
				"x": -2.5016202665,
				"y": -4.3766907125,
				"z": 3.5999199204,
				"element": "S" 
			},
			{
				"x": -1.6920897034,
				"y": -2.6235290357,
				"z": 1.5979998897,
				"element": "N" 
			},
			{
				"x": -0.4836524508,
				"y": -3.275584679,
				"z": 1.1939063767,
				"element": "C" 
			},
			{
				"x": -0.5383156812,
				"y": -4.5714111141,
				"z": 0.6777904888,
				"element": "C" 
			},
			{
				"x": 0.643877514,
				"y": -5.1931228212,
				"z": 0.2785924755,
				"element": "C" 
			},
			{
				"x": 1.86463842,
				"y": -4.5228796801,
				"z": 0.3863287314,
				"element": "C" 
			},
			{
				"x": 1.9068499355,
				"y": -3.2260930797,
				"z": 0.901730971,
				"element": "C" 
			},
			{
				"x": 0.7315308923,
				"y": -2.5979907651,
				"z": 1.3153425622,
				"element": "C" 
			},
			{
				"x": 0.6861536888,
				"y": 2.1146250292,
				"z": 0.0266211714,
				"element": "C" 
			},
			{
				"x": 1.7635384615,
				"y": 2.6167916163,
				"z": -0.7219477639,
				"element": "C" 
			},
			{
				"x": 2.5116520443,
				"y": 3.6985569986,
				"z": -0.255933989,
				"element": "C" 
			},
			{
				"x": 2.191694764,
				"y": 4.3009898195,
				"z": 0.9602332094,
				"element": "C" 
			},
			{
				"x": 1.1194449006,
				"y": 3.8109162555,
				"z": 1.7127479234,
				"element": "C" 
			},
			{
				"x": 0.3746247796,
				"y": 2.7300972983,
				"z": 1.2538318105,
				"element": "C" 
			},
			{
				"x": -1.2412596969,
				"y": -0.6734544601,
				"z": -3.2789830118,
				"element": "H" 
			},
			{
				"x": -2.0699592771,
				"y": 0.6508758544,
				"z": -2.4583807448,
				"element": "H" 
			},
			{
				"x": 0.7985032285,
				"y": -0.3112764927,
				"z": -1.9141072908,
				"element": "H" 
			},
			{
				"x": 0.3089837569,
				"y": 1.2567031296,
				"z": -2.5469951717,
				"element": "H" 
			},
			{
				"x": -4.3327333013,
				"y": -2.0492580084,
				"z": 3.1621434854,
				"element": "H" 
			},
			{
				"x": -1.4930670634,
				"y": -5.0773110632,
				"z": 0.5978204582,
				"element": "H" 
			},
			{
				"x": 0.6088365043,
				"y": -6.2021714433,
				"z": -0.1202881513,
				"element": "H" 
			},
			{
				"x": 2.7818903305,
				"y": -5.0123304885,
				"z": 0.0724427037,
				"element": "H" 
			},
			{
				"x": 2.8548049882,
				"y": -2.7046770399,
				"z": 0.9945287867,
				"element": "H" 
			},
			{
				"x": 0.7499423083,
				"y": -1.595765667,
				"z": 1.7307361015,
				"element": "H" 
			},
			{
				"x": 2.0386528391,
				"y": 2.1574999166,
				"z": -1.6658317925,
				"element": "H" 
			},
			{
				"x": 3.3447408325,
				"y": 4.0686088687,
				"z": -0.8462584034,
				"element": "H" 
			},
			{
				"x": 2.769796815,
				"y": 5.1473068251,
				"z": 1.3193878407,
				"element": "H" 
			},
			{
				"x": 0.8610232456,
				"y": 4.2776303253,
				"z": 2.6588151935,
				"element": "H" 
			},
			{
				"x": -0.4597660058,
				"y": 2.3488184336,
				"z": 1.8315514957,
				"element": "H" 
			}
		],
		 "valence_orbital": [ 
			{
				"type": "occ",
				"energy": -0.26242,
				"method": "rhf"
			},
			{
				"type": "occ",
				"energy": -0.26077,
				"method": "rhf"
			},
			{
				"type": "occ",
				"energy": -0.23893,
				"method": "rhf"
			},
			{
				"type": "occ",
				"energy": -0.20588,
				"method": "rhf"
			},
			{
				"type": "occ",
				"energy": -0.20156,
				"method": "rhf"
			},
			{
				"type": "unocc",
				"energy": -0.0646,
				"method": "rhf"
			},
			{
				"type": "unocc",
				"energy": -0.02493,
				"method": "rhf"
			},
			{
				"type": "unocc",
				"energy": -0.01594,
				"method": "rhf"
			},
			{
				"type": "unocc",
				"energy": -0.01299,
				"method": "rhf"
			},
			{
				"type": "unocc",
				"energy": -0.00556,
				"method": "rhf"
			}
		],
		"cosmo_sigma_profile": { 
			"-0.025": 0.0,
			"-0.024": 0.0,
			"-0.023": 0.0,
			"-0.022": 0.0,
			"-0.021": 0.0,
			"-0.02": 0.0,
			"-0.019": 0.00816784921062,
			"-0.018": 0.813465711225,
			"-0.017": 1.54458707875,
			"-0.016": 0.90075139014,
			"-0.015": 0.281741733821,
			"-0.014": 1.29151399276,
			"-0.013": 1.06781709666,
			"-0.012": 0.677382979409,
			"-0.011": 0.299577288809,
			"-0.01": 1.09067771763,
			"-0.009": 1.28260117689,
			"-0.008": 2.54203886392,
			"-0.007": 13.8273098491,
			"-0.006": 31.9095865597,
			"-0.005": 34.418049083,
			"-0.004": 32.581465395,
			"-0.003": 24.0213985341,
			"-0.002": 19.7592584616,
			"-0.001": 21.2500353987,
			"0.0": 17.9918654933,
			"0.001": 20.7256645882,
			"0.002": 24.5120889347,
			"0.003": 24.652658911,
			"0.004": 26.4244891511,
			"0.005": 17.9424113555,
			"0.006": 7.66282600694,
			"0.007": 8.99393099222,
			"0.008": 8.65842400969,
			"0.009": 8.57322577491,
			"0.01": 11.8543078048,
			"0.011": 9.18029549271,
			"0.012": 3.98594337852,
			"0.013": 0.531456632013,
			"0.014": 0.0,
			"0.015": 0.0,
			"0.016": 0.0,
			"0.017": 0.0,
			"0.018": 0.0,
			"0.019": 0.0,
			"0.02": 0.0,
			"0.021": 0.0,
			"0.022": 0.0,
			"0.023": 0.0,
			"0.024": 0.0,
			"0.025": 0.0
		}
	}
}
