{
	 "smiles": "CCC1CCC(C)(C)C2=CC=C(CBr)C=C12", 
	 "Tm": 310.65, 
	 "num_atms": 37, 
	 "gaussian": { 
		 "optdone": 1, 
		 "sigma_profile": "yes", 
		 "theory": "DFT", 
		 "functional": "B3LYP", 
		 "basiset": "6-31G**", 
		 "properties": { 
			 "R2extent": 6767.5997, 
			 "electric_dipole_moment_norm": 2.91761487692, 
			 "electric_quadrupole_moment_norm": 11.8111881125, 
			 "total_energy": -3155.69099571, 
			 "HOMO_LUMO_gap": 0.20116, 
			 "cosmo_polarized_energy": -6.69, 
			 "cosmo_cavitation_energy": 38.2, 
			 "cosmo_dispersion_energy": -26.93, 
			 "cosmo_repulsion_energy": 2.11, 
			 "cosmo_total_nonelectrostatic_energy": 13.38, 
			 "SMD_solvation_energy": 4.7 
		},
		"coords": [
			{
				"x": 3.0570761211,
				"y": 1.3398895573,
				"z": -2.2647485246,
				"element": "C" 
			},
			{
				"x": 1.5528157325,
				"y": 1.0701956156,
				"z": -2.4089292207,
				"element": "C" 
			},
			{
				"x": 1.0150411425,
				"y": -0.1033151486,
				"z": -1.5445901537,
				"element": "C" 
			},
			{
				"x": 0.03718091,
				"y": -0.9760072108,
				"z": -2.3447461224,
				"element": "C" 
			},
			{
				"x": -0.4816849096,
				"y": -2.1252365655,
				"z": -1.4864404611,
				"element": "C" 
			},
			{
				"x": -1.3135459602,
				"y": -1.6471494287,
				"z": -0.2744299324,
				"element": "C" 
			},
			{
				"x": -2.7437395793,
				"y": -1.2777629622,
				"z": -0.7405572965,
				"element": "C" 
			},
			{
				"x": -1.4072331147,
				"y": -2.8218261573,
				"z": 0.7258664494,
				"element": "C" 
			},
			{
				"x": -0.6664949364,
				"y": -0.4143036375,
				"z": 0.3833536853,
				"element": "C" 
			},
			{
				"x": -1.179458386,
				"y": 0.033408507,
				"z": 1.6130562284,
				"element": "C" 
			},
			{
				"x": -0.67269716,
				"y": 1.1475668745,
				"z": 2.2681907884,
				"element": "C" 
			},
			{
				"x": 0.3803537332,
				"y": 1.8693200435,
				"z": 1.696328814,
				"element": "C" 
			},
			{
				"x": 0.9354523982,
				"y": 3.080423303,
				"z": 2.3668268336,
				"element": "C" 
			},
			{
				"x": 2.4454289171,
				"y": 2.6420509467,
				"z": 3.6263994371,
				"element": "Br" 
			},
			{
				"x": 0.8893789529,
				"y": 1.4384257867,
				"z": 0.4688150969,
				"element": "C" 
			},
			{
				"x": 0.3918356254,
				"y": 0.3154139049,
				"z": -0.2083337561,
				"element": "C" 
			},
			{
				"x": 3.6377482453,
				"y": 0.4579061722,
				"z": -2.5581943101,
				"element": "H" 
			},
			{
				"x": 3.3447731483,
				"y": 1.5858726699,
				"z": -1.2375985867,
				"element": "H" 
			},
			{
				"x": 3.3714247823,
				"y": 2.1708639871,
				"z": -2.9050614938,
				"element": "H" 
			},
			{
				"x": 0.9810401262,
				"y": 1.9810033109,
				"z": -2.1950147741,
				"element": "H" 
			},
			{
				"x": 1.3542551843,
				"y": 0.8361763118,
				"z": -3.462188152,
				"element": "H" 
			},
			{
				"x": 1.8767486232,
				"y": -0.7466911189,
				"z": -1.302226074,
				"element": "H" 
			},
			{
				"x": -0.7937601783,
				"y": -0.3579689998,
				"z": -2.7105916532,
				"element": "H" 
			},
			{
				"x": 0.5472221983,
				"y": -1.3670701245,
				"z": -3.2332152508,
				"element": "H" 
			},
			{
				"x": -1.0897952588,
				"y": -2.8167582312,
				"z": -2.0823779725,
				"element": "H" 
			},
			{
				"x": 0.3795413754,
				"y": -2.7045407488,
				"z": -1.1255077802,
				"element": "H" 
			},
			{
				"x": -3.2396685719,
				"y": -2.1522618237,
				"z": -1.1775597776,
				"element": "H" 
			},
			{
				"x": -3.3554261122,
				"y": -0.9277909952,
				"z": 0.0966116845,
				"element": "H" 
			},
			{
				"x": -2.7319566562,
				"y": -0.4826326348,
				"z": -1.4922122801,
				"element": "H" 
			},
			{
				"x": -1.7886143998,
				"y": -3.7140609013,
				"z": 0.216082051,
				"element": "H" 
			},
			{
				"x": -0.4242824372,
				"y": -3.0639815587,
				"z": 1.1424551618,
				"element": "H" 
			},
			{
				"x": -2.0831629546,
				"y": -2.6095180755,
				"z": 1.5591942889,
				"element": "H" 
			},
			{
				"x": -2.0037022548,
				"y": -0.504690485,
				"z": 2.0708246721,
				"element": "H" 
			},
			{
				"x": -1.0911013193,
				"y": 1.456452091,
				"z": 3.2226040886,
				"element": "H" 
			},
			{
				"x": 0.2082031444,
				"y": 3.5846404337,
				"z": 3.0005067964,
				"element": "H" 
			},
			{
				"x": 1.3775504168,
				"y": 3.787792728,
				"z": 1.6676872732,
				"element": "H" 
			},
			{
				"x": 1.7045534117,
				"y": 2.0038645639,
				"z": 0.0299202229,
				"element": "H" 
			}
		],
		 "valence_orbital": [ 
			{
				"type": "occ",
				"energy": -0.29919,
				"method": "rhf"
			},
			{
				"type": "occ",
				"energy": -0.26612,
				"method": "rhf"
			},
			{
				"type": "occ",
				"energy": -0.26417,
				"method": "rhf"
			},
			{
				"type": "occ",
				"energy": -0.24341,
				"method": "rhf"
			},
			{
				"type": "occ",
				"energy": -0.23354,
				"method": "rhf"
			},
			{
				"type": "unocc",
				"energy": -0.03238,
				"method": "rhf"
			},
			{
				"type": "unocc",
				"energy": -0.00367,
				"method": "rhf"
			},
			{
				"type": "unocc",
				"energy": 0.03281,
				"method": "rhf"
			},
			{
				"type": "unocc",
				"energy": 0.08163,
				"method": "rhf"
			},
			{
				"type": "unocc",
				"energy": 0.09174,
				"method": "rhf"
			}
		],
		"cosmo_sigma_profile": { 
			"-0.025": 0.0,
			"-0.024": 0.0,
			"-0.023": 0.0,
			"-0.022": 0.0,
			"-0.021": 0.0,
			"-0.02": 0.0,
			"-0.019": 0.0,
			"-0.018": 0.0,
			"-0.017": 0.0,
			"-0.016": 0.0,
			"-0.015": 0.0,
			"-0.014": 0.0,
			"-0.013": 0.0,
			"-0.012": 0.0,
			"-0.011": 0.0,
			"-0.01": 0.126202405925,
			"-0.009": 0.342857414266,
			"-0.008": 1.02212919236,
			"-0.007": 5.88794495908,
			"-0.006": 7.59824801993,
			"-0.005": 10.0915563437,
			"-0.004": 10.6625733217,
			"-0.003": 20.8854643623,
			"-0.002": 42.9318305128,
			"-0.001": 41.4049470894,
			"0.0": 41.925281034,
			"0.001": 38.5355814275,
			"0.002": 19.9118890812,
			"0.003": 9.91142195157,
			"0.004": 10.0702446713,
			"0.005": 13.2186894516,
			"0.006": 16.2252437945,
			"0.007": 9.83980438095,
			"0.008": 0.0669215539432,
			"0.009": 0.0,
			"0.01": 0.0,
			"0.011": 0.0,
			"0.012": 0.0,
			"0.013": 0.0,
			"0.014": 0.0,
			"0.015": 0.0,
			"0.016": 0.0,
			"0.017": 0.0,
			"0.018": 0.0,
			"0.019": 0.0,
			"0.02": 0.0,
			"0.021": 0.0,
			"0.022": 0.0,
			"0.023": 0.0,
			"0.024": 0.0,
			"0.025": 0.0
		}
	}
}
