{
	 "smiles": "CCCCCCCCCCCCCCCCCCOCC(O)CO", 
	 "Tm": 343.65, 
	 "num_atms": 68, 
	 "gaussian": { 
		 "optdone": 1, 
		 "sigma_profile": "yes", 
		 "theory": "DFT", 
		 "functional": "B3LYP", 
		 "basiset": "6-31G**", 
		 "properties": { 
			 "R2extent": 14240.0022, 
			 "electric_dipole_moment_norm": 2.63702739842, 
			 "electric_quadrupole_moment_norm": 18.5022614588, 
			 "total_energy": -1052.45068351, 
			 "HOMO_LUMO_gap": 0.30863, 
			 "cosmo_polarized_energy": -11.13, 
			 "cosmo_cavitation_energy": 65.69, 
			 "cosmo_dispersion_energy": -38.7, 
			 "cosmo_repulsion_energy": 3.03, 
			 "cosmo_total_nonelectrostatic_energy": 30.03, 
			 "SMD_solvation_energy": 8.43 
		},
		"coords": [
			{
				"x": 3.2143213237,
				"y": 1.9015479521,
				"z": 0.9409122667,
				"element": "C" 
			},
			{
				"x": 1.9268529388,
				"y": 1.4728398298,
				"z": 0.2260942734,
				"element": "C" 
			},
			{
				"x": 2.0470555561,
				"y": 1.3765973634,
				"z": -1.3047828877,
				"element": "C" 
			},
			{
				"x": 2.3323647855,
				"y": 2.7111716208,
				"z": -2.0104848118,
				"element": "C" 
			},
			{
				"x": 2.4292354716,
				"y": 2.6078661097,
				"z": -3.5446538175,
				"element": "C" 
			},
			{
				"x": 1.120540773,
				"y": 2.2687942544,
				"z": -4.281917164,
				"element": "C" 
			},
			{
				"x": 0.0667909947,
				"y": 3.3862457743,
				"z": -4.2425431123,
				"element": "C" 
			},
			{
				"x": -1.2179609364,
				"y": 3.0747805332,
				"z": -5.0325375547,
				"element": "C" 
			},
			{
				"x": -2.0830635482,
				"y": 1.9266482364,
				"z": -4.481433559,
				"element": "C" 
			},
			{
				"x": -2.7079117712,
				"y": 2.2021633625,
				"z": -3.1062807517,
				"element": "C" 
			},
			{
				"x": -3.5580056539,
				"y": 1.0337481678,
				"z": -2.5882575825,
				"element": "C" 
			},
			{
				"x": -4.2838784974,
				"y": 1.3037333146,
				"z": -1.2583178271,
				"element": "C" 
			},
			{
				"x": -3.3809833028,
				"y": 1.6553680216,
				"z": -0.0600075788,
				"element": "C" 
			},
			{
				"x": -2.3085472264,
				"y": 0.6129913956,
				"z": 0.3016998431,
				"element": "C" 
			},
			{
				"x": -2.8671690015,
				"y": -0.7450996628,
				"z": 0.752461295,
				"element": "C" 
			},
			{
				"x": -1.7993800678,
				"y": -1.740514652,
				"z": 1.2355358817,
				"element": "C" 
			},
			{
				"x": -0.858410927,
				"y": -2.2481385444,
				"z": 0.1336278388,
				"element": "C" 
			},
			{
				"x": 0.1588184917,
				"y": -3.2675497163,
				"z": 0.6310738166,
				"element": "C" 
			},
			{
				"x": 1.0343456092,
				"y": -2.6381752193,
				"z": 1.5571833459,
				"element": "O" 
			},
			{
				"x": 1.9362727578,
				"y": -3.538269383,
				"z": 2.1684614694,
				"element": "C" 
			},
			{
				"x": 2.9281901172,
				"y": -2.7324779815,
				"z": 3.0085026802,
				"element": "C" 
			},
			{
				"x": 3.7195184023,
				"y": -3.6059973157,
				"z": 3.8182064084,
				"element": "O" 
			},
			{
				"x": 3.9344750272,
				"y": -1.9697332931,
				"z": 2.1475371702,
				"element": "C" 
			},
			{
				"x": 4.753043383,
				"y": -2.8557918026,
				"z": 1.4031530765,
				"element": "O" 
			},
			{
				"x": 3.0812060206,
				"y": 1.895274532,
				"z": 2.0280578339,
				"element": "H" 
			},
			{
				"x": 4.042232123,
				"y": 1.2228917907,
				"z": 0.7040760802,
				"element": "H" 
			},
			{
				"x": 3.5245313738,
				"y": 2.912212065,
				"z": 0.6565377029,
				"element": "H" 
			},
			{
				"x": 1.6123583841,
				"y": 0.4951958765,
				"z": 0.614162486,
				"element": "H" 
			},
			{
				"x": 1.1188897879,
				"y": 2.1730998973,
				"z": 0.480650367,
				"element": "H" 
			},
			{
				"x": 2.8405959105,
				"y": 0.659130833,
				"z": -1.5601079573,
				"element": "H" 
			},
			{
				"x": 1.11541511,
				"y": 0.9480264454,
				"z": -1.6964884745,
				"element": "H" 
			},
			{
				"x": 3.2792998182,
				"y": 3.1210088566,
				"z": -1.6382682369,
				"element": "H" 
			},
			{
				"x": 1.5608287673,
				"y": 3.4417187739,
				"z": -1.7304269422,
				"element": "H" 
			},
			{
				"x": 3.182934046,
				"y": 1.8485106745,
				"z": -3.7942690762,
				"element": "H" 
			},
			{
				"x": 2.816382726,
				"y": 3.5572577868,
				"z": -3.9396772635,
				"element": "H" 
			},
			{
				"x": 1.358566921,
				"y": 2.0529777185,
				"z": -5.3327436474,
				"element": "H" 
			},
			{
				"x": 0.700442006,
				"y": 1.3398684559,
				"z": -3.8771050837,
				"element": "H" 
			},
			{
				"x": 0.5146040097,
				"y": 4.300892297,
				"z": -4.6551457946,
				"element": "H" 
			},
			{
				"x": -0.1892210474,
				"y": 3.625646259,
				"z": -3.2030487285,
				"element": "H" 
			},
			{
				"x": -1.8326212241,
				"y": 3.9842938346,
				"z": -5.0796310708,
				"element": "H" 
			},
			{
				"x": -0.9433354939,
				"y": 2.8423187035,
				"z": -6.0706952807,
				"element": "H" 
			},
			{
				"x": -2.8886853987,
				"y": 1.7221429217,
				"z": -5.1997735084,
				"element": "H" 
			},
			{
				"x": -1.4902335357,
				"y": 1.0033748439,
				"z": -4.4312678745,
				"element": "H" 
			},
			{
				"x": -3.3297986973,
				"y": 3.1076213843,
				"z": -3.166529403,
				"element": "H" 
			},
			{
				"x": -1.9166007635,
				"y": 2.4268850884,
				"z": -2.3809857839,
				"element": "H" 
			},
			{
				"x": -4.3107810099,
				"y": 0.7774403799,
				"z": -3.3463641405,
				"element": "H" 
			},
			{
				"x": -2.9216607875,
				"y": 0.1433703843,
				"z": -2.491266416,
				"element": "H" 
			},
			{
				"x": -4.9938111256,
				"y": 2.1293638684,
				"z": -1.4045604132,
				"element": "H" 
			},
			{
				"x": -4.895607494,
				"y": 0.4270944058,
				"z": -1.0097575224,
				"element": "H" 
			},
			{
				"x": -4.0221944543,
				"y": 1.8226807935,
				"z": 0.8164549232,
				"element": "H" 
			},
			{
				"x": -2.8843266588,
				"y": 2.6148605178,
				"z": -0.2514482385,
				"element": "H" 
			},
			{
				"x": -1.6312336285,
				"y": 0.474346901,
				"z": -0.5502572948,
				"element": "H" 
			},
			{
				"x": -1.6875002098,
				"y": 1.020832108,
				"z": 1.111032791,
				"element": "H" 
			},
			{
				"x": -3.5837210749,
				"y": -0.5746974149,
				"z": 1.5679294803,
				"element": "H" 
			},
			{
				"x": -3.4423581413,
				"y": -1.2046044035,
				"z": -0.0631001272,
				"element": "H" 
			},
			{
				"x": -1.1991072213,
				"y": -1.2835582067,
				"z": 2.0314810467,
				"element": "H" 
			},
			{
				"x": -2.3016123832,
				"y": -2.6066970426,
				"z": 1.6887647296,
				"element": "H" 
			},
			{
				"x": -1.4448306026,
				"y": -2.7187282326,
				"z": -0.6675401409,
				"element": "H" 
			},
			{
				"x": -0.3126486063,
				"y": -1.4148901191,
				"z": -0.3241749141,
				"element": "H" 
			},
			{
				"x": -0.3583831231,
				"y": -4.1125907099,
				"z": 1.1186017895,
				"element": "H" 
			},
			{
				"x": 0.7384339858,
				"y": -3.6813062251,
				"z": -0.2101541849,
				"element": "H" 
			},
			{
				"x": 1.3906235895,
				"y": -4.2505189023,
				"z": 2.8154066375,
				"element": "H" 
			},
			{
				"x": 2.4928659572,
				"y": -4.1213345898,
				"z": 1.4198918881,
				"element": "H" 
			},
			{
				"x": 2.3644780053,
				"y": -2.0157839346,
				"z": 3.6256467866,
				"element": "H" 
			},
			{
				"x": 3.1313301539,
				"y": -4.153433283,
				"z": 4.3532831067,
				"element": "H" 
			},
			{
				"x": 4.536372522,
				"y": -1.3189737674,
				"z": 2.8006398242,
				"element": "H" 
			},
			{
				"x": 3.3969224732,
				"y": -1.3409808482,
				"z": 1.4331172974,
				"element": "H" 
			},
			{
				"x": 5.0964442914,
				"y": -3.4920890829,
				"z": 2.047420029,
				"element": "H" 
			}
		],
		 "valence_orbital": [ 
			{
				"type": "occ",
				"energy": -0.29623,
				"method": "rhf"
			},
			{
				"type": "occ",
				"energy": -0.29398,
				"method": "rhf"
			},
			{
				"type": "occ",
				"energy": -0.28075,
				"method": "rhf"
			},
			{
				"type": "occ",
				"energy": -0.26123,
				"method": "rhf"
			},
			{
				"type": "occ",
				"energy": -0.25468,
				"method": "rhf"
			},
			{
				"type": "unocc",
				"energy": 0.05395,
				"method": "rhf"
			},
			{
				"type": "unocc",
				"energy": 0.05903,
				"method": "rhf"
			},
			{
				"type": "unocc",
				"energy": 0.08247,
				"method": "rhf"
			},
			{
				"type": "unocc",
				"energy": 0.08741,
				"method": "rhf"
			},
			{
				"type": "unocc",
				"energy": 0.09285,
				"method": "rhf"
			}
		],
		"cosmo_sigma_profile": { 
			"-0.025": 0.0,
			"-0.024": 0.0,
			"-0.023": 0.0,
			"-0.022": 0.0,
			"-0.021": 0.0,
			"-0.02": 0.0,
			"-0.019": 0.0,
			"-0.018": 0.0,
			"-0.017": 0.0,
			"-0.016": 0.561451170238,
			"-0.015": 0.902292925379,
			"-0.014": 1.30929119461,
			"-0.013": 1.10157276257,
			"-0.012": 1.57522846859,
			"-0.011": 1.29868009721,
			"-0.01": 1.25369512424,
			"-0.009": 1.58884794534,
			"-0.008": 1.85142907492,
			"-0.007": 1.99506054816,
			"-0.006": 1.81619623834,
			"-0.005": 2.18326958264,
			"-0.004": 6.62899037195,
			"-0.003": 23.5913998782,
			"-0.002": 64.1719602847,
			"-0.001": 106.606024178,
			"0.0": 106.962084525,
			"0.001": 92.3228597307,
			"0.002": 38.9292086602,
			"0.003": 6.23893707407,
			"0.004": 5.5795061868,
			"0.005": 5.68626374964,
			"0.006": 5.22407191983,
			"0.007": 4.35519958466,
			"0.008": 3.16073232154,
			"0.009": 2.74850817468,
			"0.01": 2.63486395025,
			"0.011": 2.09041260747,
			"0.012": 1.93793740252,
			"0.013": 1.88293166806,
			"0.014": 2.27015273099,
			"0.015": 0.979593583556,
			"0.016": 0.0,
			"0.017": 0.0,
			"0.018": 0.0,
			"0.019": 0.0,
			"0.02": 0.0,
			"0.021": 0.0,
			"0.022": 0.0,
			"0.023": 0.0,
			"0.024": 0.0,
			"0.025": 0.0
		}
	}
}
