{
	 "smiles": "CC1(C)CC(=O)C2=C(C1)NC1=C3C=CC=CC3=CC=C1C2C1=CC=C(Cl)C=C1", 
	 "Tm": 412.15, 
	 "num_atms": 50, 
	 "gaussian": { 
		 "optdone": 1, 
		 "sigma_profile": "yes", 
		 "theory": "DFT", 
		 "functional": "B3LYP", 
		 "basiset": "6-31G**", 
		 "properties": { 
			 "R2extent": 12217.7338, 
			 "electric_dipole_moment_norm": 6.42721167615, 
			 "electric_quadrupole_moment_norm": 16.1227157725, 
			 "total_energy": -1556.13097381, 
			 "HOMO_LUMO_gap": 0.14578, 
			 "cosmo_polarized_energy": -17.67, 
			 "cosmo_cavitation_energy": 52.03, 
			 "cosmo_dispersion_energy": -35.64, 
			 "cosmo_repulsion_energy": 2.65, 
			 "cosmo_total_nonelectrostatic_energy": 19.04, 
			 "SMD_solvation_energy": 7.62 
		},
		"coords": [
			{
				"x": -2.2210365033,
				"y": 4.6868439819,
				"z": 1.5722253822,
				"element": "C" 
			},
			{
				"x": -1.3298928828,
				"y": 3.5548357844,
				"z": 1.0336945794,
				"element": "C" 
			},
			{
				"x": -0.0387682198,
				"y": 3.4879437087,
				"z": 1.8748688309,
				"element": "C" 
			},
			{
				"x": -0.9952037087,
				"y": 3.8102918446,
				"z": -0.4507637202,
				"element": "C" 
			},
			{
				"x": -0.2870940613,
				"y": 2.6519502285,
				"z": -1.1519105031,
				"element": "C" 
			},
			{
				"x": 0.4471072838,
				"y": 2.8678569697,
				"z": -2.1165857652,
				"element": "O" 
			},
			{
				"x": -0.5635676035,
				"y": 1.2998245337,
				"z": -0.6745514599,
				"element": "C" 
			},
			{
				"x": -1.4423469477,
				"y": 1.0980547648,
				"z": 0.3478714011,
				"element": "C" 
			},
			{
				"x": -2.0997926137,
				"y": 2.2172060952,
				"z": 1.1160730476,
				"element": "C" 
			},
			{
				"x": -1.8208854993,
				"y": -0.17568988,
				"z": 0.7017889199,
				"element": "N" 
			},
			{
				"x": -1.5903019262,
				"y": -1.2787669135,
				"z": -0.1355736318,
				"element": "C" 
			},
			{
				"x": -2.3035606637,
				"y": -2.5054639791,
				"z": 0.081126962,
				"element": "C" 
			},
			{
				"x": -3.2133319044,
				"y": -2.7087157145,
				"z": 1.1540636812,
				"element": "C" 
			},
			{
				"x": -3.8735265415,
				"y": -3.9079397866,
				"z": 1.3149728341,
				"element": "C" 
			},
			{
				"x": -3.6593493937,
				"y": -4.9696256304,
				"z": 0.406727224,
				"element": "C" 
			},
			{
				"x": -2.7829586911,
				"y": -4.8066282531,
				"z": -0.6418205993,
				"element": "C" 
			},
			{
				"x": -2.0836265191,
				"y": -3.5857889721,
				"z": -0.8356425153,
				"element": "C" 
			},
			{
				"x": -1.1778304808,
				"y": -3.4127159313,
				"z": -1.9161909872,
				"element": "C" 
			},
			{
				"x": -0.5018702064,
				"y": -2.227834233,
				"z": -2.0728963847,
				"element": "C" 
			},
			{
				"x": -0.6855812424,
				"y": -1.1436410498,
				"z": -1.1803251255,
				"element": "C" 
			},
			{
				"x": 0.1364234917,
				"y": 0.1256916,
				"z": -1.3425550907,
				"element": "C" 
			},
			{
				"x": 1.5755728109,
				"y": -0.0340488945,
				"z": -0.8230147323,
				"element": "C" 
			},
			{
				"x": 1.878514855,
				"y": -0.838591253,
				"z": 0.2828344158,
				"element": "C" 
			},
			{
				"x": 3.1854969414,
				"y": -0.9533365119,
				"z": 0.7580961419,
				"element": "C" 
			},
			{
				"x": 4.204192487,
				"y": -0.2529042054,
				"z": 0.1157073598,
				"element": "C" 
			},
			{
				"x": 5.8588258188,
				"y": -0.3951631557,
				"z": 0.7043672997,
				"element": "Cl" 
			},
			{
				"x": 3.9335565865,
				"y": 0.5563288502,
				"z": -0.9864248767,
				"element": "C" 
			},
			{
				"x": 2.6215176118,
				"y": 0.6602993394,
				"z": -1.4476622136,
				"element": "C" 
			},
			{
				"x": -2.4895721649,
				"y": 4.5133359232,
				"z": 2.6208682709,
				"element": "H" 
			},
			{
				"x": -3.1493353852,
				"y": 4.7753145813,
				"z": 0.9965277995,
				"element": "H" 
			},
			{
				"x": -1.7007395579,
				"y": 5.6489768818,
				"z": 1.5179157364,
				"element": "H" 
			},
			{
				"x": 0.5142114396,
				"y": 4.4302776157,
				"z": 1.8012994436,
				"element": "H" 
			},
			{
				"x": -0.27289802,
				"y": 3.3216303557,
				"z": 2.9325870242,
				"element": "H" 
			},
			{
				"x": 0.6252805433,
				"y": 2.6842600654,
				"z": 1.545548486,
				"element": "H" 
			},
			{
				"x": -0.3716586555,
				"y": 4.7014041946,
				"z": -0.5734710818,
				"element": "H" 
			},
			{
				"x": -1.9256977026,
				"y": 4.001178373,
				"z": -1.0061039763,
				"element": "H" 
			},
			{
				"x": -2.2165114124,
				"y": 1.9149561634,
				"z": 2.1664968274,
				"element": "H" 
			},
			{
				"x": -3.1178660724,
				"y": 2.3582863746,
				"z": 0.7222788182,
				"element": "H" 
			},
			{
				"x": -2.5298941226,
				"y": -0.2625318316,
				"z": 1.4119746172,
				"element": "H" 
			},
			{
				"x": -3.3979057634,
				"y": -1.9241210762,
				"z": 1.8828772448,
				"element": "H" 
			},
			{
				"x": -4.560548607,
				"y": -4.0382509249,
				"z": 2.1458140745,
				"element": "H" 
			},
			{
				"x": -4.1847520563,
				"y": -5.9103440975,
				"z": 0.5412655038,
				"element": "H" 
			},
			{
				"x": -2.6086705061,
				"y": -5.6175176753,
				"z": -1.3442066224,
				"element": "H" 
			},
			{
				"x": -1.0225045002,
				"y": -4.2346415016,
				"z": -2.6090609987,
				"element": "H" 
			},
			{
				"x": 0.2041234219,
				"y": -2.1063275203,
				"z": -2.8899409739,
				"element": "H" 
			},
			{
				"x": 0.2167330867,
				"y": 0.3614149155,
				"z": -2.4099480247,
				"element": "H" 
			},
			{
				"x": 1.0903155607,
				"y": -1.3981342201,
				"z": 0.7770564786,
				"element": "H" 
			},
			{
				"x": 3.4117103017,
				"y": -1.5824000868,
				"z": 1.6122306964,
				"element": "H" 
			},
			{
				"x": 4.7368799402,
				"y": 1.0957194406,
				"z": -1.4764519025,
				"element": "H" 
			},
			{
				"x": 2.395417955,
				"y": 1.3083407125,
				"z": -2.2879579154,
				"element": "H" 
			}
		],
		 "valence_orbital": [ 
			{
				"type": "occ",
				"energy": -0.24821,
				"method": "rhf"
			},
			{
				"type": "occ",
				"energy": -0.23891,
				"method": "rhf"
			},
			{
				"type": "occ",
				"energy": -0.23278,
				"method": "rhf"
			},
			{
				"type": "occ",
				"energy": -0.22472,
				"method": "rhf"
			},
			{
				"type": "occ",
				"energy": -0.19863,
				"method": "rhf"
			},
			{
				"type": "unocc",
				"energy": -0.05285,
				"method": "rhf"
			},
			{
				"type": "unocc",
				"energy": -0.02629,
				"method": "rhf"
			},
			{
				"type": "unocc",
				"energy": -0.0184,
				"method": "rhf"
			},
			{
				"type": "unocc",
				"energy": -0.0014,
				"method": "rhf"
			},
			{
				"type": "unocc",
				"energy": 0.00027,
				"method": "rhf"
			}
		],
		"cosmo_sigma_profile": { 
			"-0.025": 0.0,
			"-0.024": 0.0,
			"-0.023": 0.0,
			"-0.022": 0.0,
			"-0.021": 0.0,
			"-0.02": 0.0,
			"-0.019": 0.0,
			"-0.018": 0.0,
			"-0.017": 0.0,
			"-0.016": 0.0466300927691,
			"-0.015": 1.05573359995,
			"-0.014": 0.995996981764,
			"-0.013": 1.3256949163,
			"-0.012": 1.63799122873,
			"-0.011": 0.975299466842,
			"-0.01": 1.71107099397,
			"-0.009": 1.97833323205,
			"-0.008": 1.40799515861,
			"-0.007": 3.82834313225,
			"-0.006": 14.0441686589,
			"-0.005": 27.4884491334,
			"-0.004": 29.7453965514,
			"-0.003": 38.6497801501,
			"-0.002": 33.3713848482,
			"-0.001": 31.6822066252,
			"0.0": 35.1974221615,
			"0.001": 36.8502846172,
			"0.002": 32.9377002314,
			"0.003": 31.9925422237,
			"0.004": 41.0774983947,
			"0.005": 26.9585536579,
			"0.006": 3.42468894531,
			"0.007": 2.24666884722,
			"0.008": 1.82504573605,
			"0.009": 1.66497647937,
			"0.01": 0.887321716096,
			"0.011": 1.92814784743,
			"0.012": 1.76288568663,
			"0.013": 2.67745943099,
			"0.014": 2.02531683378,
			"0.015": 1.5556289842,
			"0.016": 0.0859607410043,
			"0.017": 0.0,
			"0.018": 0.0,
			"0.019": 0.0,
			"0.02": 0.0,
			"0.021": 0.0,
			"0.022": 0.0,
			"0.023": 0.0,
			"0.024": 0.0,
			"0.025": 0.0
		}
	}
}
