{
	 "smiles": "CC(C)(CO)C(O)=O", 
	 "Tm": 397.15, 
	 "num_atms": 18, 
	 "gaussian": { 
		 "optdone": 1, 
		 "sigma_profile": "yes", 
		 "theory": "DFT", 
		 "functional": "B3LYP", 
		 "basiset": "6-31G**", 
		 "properties": { 
			 "R2extent": 986.3652, 
			 "electric_dipole_moment_norm": 5.47287661472, 
			 "electric_quadrupole_moment_norm": 8.03899782249, 
			 "total_energy": -422.242897067, 
			 "HOMO_LUMO_gap": 0.27575, 
			 "cosmo_polarized_energy": -14.8, 
			 "cosmo_cavitation_energy": 20.26, 
			 "cosmo_dispersion_energy": -14.89, 
			 "cosmo_repulsion_energy": 1.24, 
			 "cosmo_total_nonelectrostatic_energy": 6.61, 
			 "SMD_solvation_energy": 4.97 
		},
		"coords": [
			{
				"x": 0.723755939,
				"y": -0.3270213088,
				"z": 2.2622993098,
				"element": "C" 
			},
			{
				"x": 0.5031572917,
				"y": -0.0154492475,
				"z": 0.7742806974,
				"element": "C" 
			},
			{
				"x": 0.4226314766,
				"y": 1.5135121889,
				"z": 0.5551029414,
				"element": "C" 
			},
			{
				"x": 1.6817566303,
				"y": -0.6053529842,
				"z": -0.0217799772,
				"element": "C" 
			},
			{
				"x": 1.5504545062,
				"y": -0.2596322257,
				"z": -1.4124753091,
				"element": "O" 
			},
			{
				"x": -0.8507894697,
				"y": -0.6280994308,
				"z": 0.3308038018,
				"element": "C" 
			},
			{
				"x": -1.0104195397,
				"y": -0.8240453215,
				"z": -0.9929897093,
				"element": "O" 
			},
			{
				"x": -1.7419706623,
				"y": -0.8806903857,
				"z": 1.1082971425,
				"element": "O" 
			},
			{
				"x": 1.6278499341,
				"y": 0.1701140918,
				"z": 2.6293271858,
				"element": "H" 
			},
			{
				"x": -0.1321935054,
				"y": 0.0167964348,
				"z": 2.8445774679,
				"element": "H" 
			},
			{
				"x": 0.8242242154,
				"y": -1.4033081555,
				"z": 2.4356027964,
				"element": "H" 
			},
			{
				"x": -0.4076483983,
				"y": 1.9323827221,
				"z": 1.1306175003,
				"element": "H" 
			},
			{
				"x": 0.2754963432,
				"y": 1.7640725236,
				"z": -0.497968708,
				"element": "H" 
			},
			{
				"x": 1.349366267,
				"y": 1.990899692,
				"z": 0.892166856,
				"element": "H" 
			},
			{
				"x": 2.620877429,
				"y": -0.1955512708,
				"z": 0.3737994917,
				"element": "H" 
			},
			{
				"x": 1.7060418384,
				"y": -1.6971863879,
				"z": 0.1009717635,
				"element": "H" 
			},
			{
				"x": 2.1783468321,
				"y": -0.7820059175,
				"z": -1.9269479942,
				"element": "H" 
			},
			{
				"x": -0.1747371277,
				"y": -0.5979350172,
				"z": -1.4561852568,
				"element": "H" 
			}
		],
		 "valence_orbital": [ 
			{
				"type": "occ",
				"energy": -0.34436,
				"method": "rhf"
			},
			{
				"type": "occ",
				"energy": -0.33831,
				"method": "rhf"
			},
			{
				"type": "occ",
				"energy": -0.30786,
				"method": "rhf"
			},
			{
				"type": "occ",
				"energy": -0.29587,
				"method": "rhf"
			},
			{
				"type": "occ",
				"energy": -0.25297,
				"method": "rhf"
			},
			{
				"type": "unocc",
				"energy": 0.02278,
				"method": "rhf"
			},
			{
				"type": "unocc",
				"energy": 0.04202,
				"method": "rhf"
			},
			{
				"type": "unocc",
				"energy": 0.08335,
				"method": "rhf"
			},
			{
				"type": "unocc",
				"energy": 0.11774,
				"method": "rhf"
			},
			{
				"type": "unocc",
				"energy": 0.13573,
				"method": "rhf"
			}
		],
		"cosmo_sigma_profile": { 
			"-0.025": 0.0,
			"-0.024": 0.0,
			"-0.023": 0.0,
			"-0.022": 0.0,
			"-0.021": 0.0,
			"-0.02": 0.0,
			"-0.019": 0.0,
			"-0.018": 0.233199588924,
			"-0.017": 1.17200062934,
			"-0.016": 1.23761785428,
			"-0.015": 1.21225792067,
			"-0.014": 0.676068691599,
			"-0.013": 0.970720937098,
			"-0.012": 0.507746085883,
			"-0.011": 0.860469154884,
			"-0.01": 1.23702335382,
			"-0.009": 1.30379885853,
			"-0.008": 1.14657266668,
			"-0.007": 2.34051436236,
			"-0.006": 6.0348067488,
			"-0.005": 11.7655258214,
			"-0.004": 16.3467217168,
			"-0.003": 15.4596411155,
			"-0.002": 13.2183048342,
			"-0.001": 12.7914459048,
			"0.0": 13.3031774424,
			"0.001": 8.58366113154,
			"0.002": 3.99179798166,
			"0.003": 2.67199832583,
			"0.004": 2.86237740067,
			"0.005": 3.28188205624,
			"0.006": 2.43870659773,
			"0.007": 3.17654484558,
			"0.008": 4.04379376432,
			"0.009": 3.6973266744,
			"0.01": 3.55316780294,
			"0.011": 5.3201194213,
			"0.012": 6.6316585083,
			"0.013": 3.74874001106,
			"0.014": 1.24528426261,
			"0.015": 0.0159671148058,
			"0.016": 0.0,
			"0.017": 0.0,
			"0.018": 0.0,
			"0.019": 0.0,
			"0.02": 0.0,
			"0.021": 0.0,
			"0.022": 0.0,
			"0.023": 0.0,
			"0.024": 0.0,
			"0.025": 0.0
		}
	}
}
