{
	 "smiles": "CCCCCC1=CC=C(C=C1)C1=NN=C(S)N1", 
	 "Tm": 465.15, 
	 "num_atms": 34, 
	 "gaussian": { 
		 "optdone": 1, 
		 "sigma_profile": "yes", 
		 "theory": "DFT", 
		 "functional": "B3LYP", 
		 "basiset": "6-31G**", 
		 "properties": { 
			 "R2extent": 10403.7285, 
			 "electric_dipole_moment_norm": 4.41832849956, 
			 "electric_quadrupole_moment_norm": 20.5901898444, 
			 "total_energy": -1068.06762366, 
			 "HOMO_LUMO_gap": 0.17878, 
			 "cosmo_polarized_energy": -18.73, 
			 "cosmo_cavitation_energy": 39.07, 
			 "cosmo_dispersion_energy": -28.43, 
			 "cosmo_repulsion_energy": 2.17, 
			 "cosmo_total_nonelectrostatic_energy": 12.81, 
			 "SMD_solvation_energy": 3.37 
		},
		"coords": [
			{
				"x": -3.8710073853,
				"y": -2.1989444249,
				"z": 2.1537051795,
				"element": "C" 
			},
			{
				"x": -4.1923417564,
				"y": -0.7059322845,
				"z": 2.2876979909,
				"element": "C" 
			},
			{
				"x": -3.0220910561,
				"y": 0.2005506903,
				"z": 2.7108209797,
				"element": "C" 
			},
			{
				"x": -1.8383372699,
				"y": 0.288111333,
				"z": 1.7225447631,
				"element": "C" 
			},
			{
				"x": -0.7048334777,
				"y": -0.7326812449,
				"z": 1.9738816602,
				"element": "C" 
			},
			{
				"x": 0.4395510649,
				"y": -0.5848725226,
				"z": 0.9961477131,
				"element": "C" 
			},
			{
				"x": 1.5139602336,
				"y": 0.272838791,
				"z": 1.2648508497,
				"element": "C" 
			},
			{
				"x": 2.5503637725,
				"y": 0.4407741245,
				"z": 0.3490782307,
				"element": "C" 
			},
			{
				"x": 2.5424192834,
				"y": -0.2488724369,
				"z": -0.8724248496,
				"element": "C" 
			},
			{
				"x": 1.4690750323,
				"y": -1.1128402849,
				"z": -1.1485927752,
				"element": "C" 
			},
			{
				"x": 0.4410943739,
				"y": -1.2732837042,
				"z": -0.2272854286,
				"element": "C" 
			},
			{
				"x": 3.609730641,
				"y": -0.1062302945,
				"z": -1.8630047936,
				"element": "C" 
			},
			{
				"x": 3.6836006205,
				"y": -0.741671844,
				"z": -3.0147344973,
				"element": "N" 
			},
			{
				"x": 4.8311501871,
				"y": -0.3377641161,
				"z": -3.6645839504,
				"element": "N" 
			},
			{
				"x": 5.4249449153,
				"y": 0.5360698179,
				"z": -2.8852236532,
				"element": "C" 
			},
			{
				"x": 6.9378654098,
				"y": 1.3846394441,
				"z": -3.2118949223,
				"element": "S" 
			},
			{
				"x": 4.7057575625,
				"y": 0.7239321256,
				"z": -1.7368329299,
				"element": "N" 
			},
			{
				"x": -3.4335000615,
				"y": -2.5979117963,
				"z": 3.07632062,
				"element": "H" 
			},
			{
				"x": -4.7781834522,
				"y": -2.7748043491,
				"z": 1.9420322212,
				"element": "H" 
			},
			{
				"x": -3.1669875976,
				"y": -2.3950686006,
				"z": 1.3386787501,
				"element": "H" 
			},
			{
				"x": -4.9986782064,
				"y": -0.5841075959,
				"z": 3.0226424577,
				"element": "H" 
			},
			{
				"x": -4.596941752,
				"y": -0.3377566153,
				"z": 1.3349121802,
				"element": "H" 
			},
			{
				"x": -2.6520053429,
				"y": -0.1163478298,
				"z": 3.6964613196,
				"element": "H" 
			},
			{
				"x": -3.4263594309,
				"y": 1.2099956021,
				"z": 2.8565855777,
				"element": "H" 
			},
			{
				"x": -2.2036543906,
				"y": 0.1783917885,
				"z": 0.6926114128,
				"element": "H" 
			},
			{
				"x": -1.3968442796,
				"y": 1.2910118656,
				"z": 1.7746192737,
				"element": "H" 
			},
			{
				"x": -1.1002006104,
				"y": -1.7521905604,
				"z": 1.9215342753,
				"element": "H" 
			},
			{
				"x": -0.3328443704,
				"y": -0.5959630078,
				"z": 2.9971604534,
				"element": "H" 
			},
			{
				"x": 1.5435685564,
				"y": 0.8137772691,
				"z": 2.2075170918,
				"element": "H" 
			},
			{
				"x": 3.3674874246,
				"y": 1.1110433134,
				"z": 0.6046664429,
				"element": "H" 
			},
			{
				"x": 1.4641725622,
				"y": -1.6511175674,
				"z": -2.0901394271,
				"element": "H" 
			},
			{
				"x": -0.3777017331,
				"y": -1.9504297637,
				"z": -0.4582567734,
				"element": "H" 
			},
			{
				"x": 7.0976805909,
				"y": 0.7841439956,
				"z": -4.4063739479,
				"element": "H" 
			},
			{
				"x": 4.9297899419,
				"y": 1.3423106833,
				"z": -0.9728214949,
				"element": "H" 
			}
		],
		 "valence_orbital": [ 
			{
				"type": "occ",
				"energy": -0.30692,
				"method": "rhf"
			},
			{
				"type": "occ",
				"energy": -0.2638,
				"method": "rhf"
			},
			{
				"type": "occ",
				"energy": -0.25841,
				"method": "rhf"
			},
			{
				"type": "occ",
				"energy": -0.25672,
				"method": "rhf"
			},
			{
				"type": "occ",
				"energy": -0.21503,
				"method": "rhf"
			},
			{
				"type": "unocc",
				"energy": -0.03625,
				"method": "rhf"
			},
			{
				"type": "unocc",
				"energy": -0.00919,
				"method": "rhf"
			},
			{
				"type": "unocc",
				"energy": -0.00136,
				"method": "rhf"
			},
			{
				"type": "unocc",
				"energy": 0.0324,
				"method": "rhf"
			},
			{
				"type": "unocc",
				"energy": 0.05505,
				"method": "rhf"
			}
		],
		"cosmo_sigma_profile": { 
			"-0.025": 0.0,
			"-0.024": 0.0,
			"-0.023": 0.0,
			"-0.022": 0.0,
			"-0.021": 0.0,
			"-0.02": 0.0,
			"-0.019": 0.00713103703725,
			"-0.018": 0.963799461551,
			"-0.017": 1.81113028442,
			"-0.016": 0.813265361122,
			"-0.015": 1.65283782194,
			"-0.014": 1.66123249264,
			"-0.013": 1.75214817806,
			"-0.012": 2.1364849279,
			"-0.011": 2.39327616531,
			"-0.01": 2.85772410061,
			"-0.009": 2.80518507319,
			"-0.008": 2.63586500229,
			"-0.007": 3.26587873374,
			"-0.006": 4.03508116596,
			"-0.005": 9.94269135563,
			"-0.004": 12.8918523215,
			"-0.003": 17.1721561943,
			"-0.002": 31.7329317188,
			"-0.001": 40.877623227,
			"0.0": 39.9829359393,
			"0.001": 35.3558725165,
			"0.002": 22.1092554046,
			"0.003": 15.0676421243,
			"0.004": 14.7269942097,
			"0.005": 13.2623504023,
			"0.006": 5.12810890716,
			"0.007": 2.28663770271,
			"0.008": 2.01645128777,
			"0.009": 2.01504271624,
			"0.01": 2.30464933709,
			"0.011": 2.00963798469,
			"0.012": 2.59034170755,
			"0.013": 3.55578033099,
			"0.014": 2.73421237399,
			"0.015": 2.71202583304,
			"0.016": 1.35040155798,
			"0.017": 0.233047088053,
			"0.018": 0.0,
			"0.019": 0.0,
			"0.02": 0.0,
			"0.021": 0.0,
			"0.022": 0.0,
			"0.023": 0.0,
			"0.024": 0.0,
			"0.025": 0.0
		}
	}
}
