{
	 "smiles": "NNC1=C(Cl)C=C(C=C1)[N+]([O-])=O", 
	 "Tm": 419.15, 
	 "num_atms": 18, 
	 "gaussian": { 
		 "optdone": 1, 
		 "sigma_profile": "yes", 
		 "theory": "DFT", 
		 "functional": "B3LYP", 
		 "basiset": "6-31G**", 
		 "properties": { 
			 "R2extent": 3525.5809, 
			 "electric_dipole_moment_norm": 5.59937627419, 
			 "electric_quadrupole_moment_norm": 9.44464298319, 
			 "total_energy": -1007.01666543, 
			 "HOMO_LUMO_gap": 0.15301, 
			 "cosmo_polarized_energy": -14.53, 
			 "cosmo_cavitation_energy": 24.82, 
			 "cosmo_dispersion_energy": -18.59, 
			 "cosmo_repulsion_energy": 1.48, 
			 "cosmo_total_nonelectrostatic_energy": 7.71, 
			 "SMD_solvation_energy": 6.67 
		},
		"coords": [
			{
				"x": 2.1811737803,
				"y": -3.9334491681,
				"z": -0.5296379389,
				"element": "N" 
			},
			{
				"x": 2.4741965935,
				"y": -2.7367963628,
				"z": 0.1300641735,
				"element": "N" 
			},
			{
				"x": 1.8877796138,
				"y": -1.5317991987,
				"z": -0.1474985732,
				"element": "C" 
			},
			{
				"x": 2.368353668,
				"y": -0.3370286756,
				"z": 0.4509545858,
				"element": "C" 
			},
			{
				"x": 3.7502643776,
				"y": -0.4234795659,
				"z": 1.5372587808,
				"element": "Cl" 
			},
			{
				"x": 1.7837392402,
				"y": 0.8894691552,
				"z": 0.2016994019,
				"element": "C" 
			},
			{
				"x": 0.6890379113,
				"y": 0.9516852522,
				"z": -0.6642311952,
				"element": "C" 
			},
			{
				"x": 0.184562465,
				"y": -0.1964423504,
				"z": -1.2733011791,
				"element": "C" 
			},
			{
				"x": 0.7793479464,
				"y": -1.4218375421,
				"z": -1.0164871286,
				"element": "C" 
			},
			{
				"x": 0.0696965679,
				"y": 2.24332537,
				"z": -0.9309120671,
				"element": "N" 
			},
			{
				"x": -0.894059826,
				"y": 2.2683650452,
				"z": -1.7001718295,
				"element": "O" 
			},
			{
				"x": 0.5447013255,
				"y": 3.2350975212,
				"z": -0.3726164946,
				"element": "O" 
			},
			{
				"x": 1.2455562268,
				"y": -4.2479458682,
				"z": -0.2820905478,
				"element": "H" 
			},
			{
				"x": 2.2273348742,
				"y": -3.8094910523,
				"z": -1.5404466126,
				"element": "H" 
			},
			{
				"x": 3.3344701286,
				"y": -2.7460972987,
				"z": 0.6566557171,
				"element": "H" 
			},
			{
				"x": 2.1587944071,
				"y": 1.7946416547,
				"z": 0.6612880522,
				"element": "H" 
			},
			{
				"x": -0.665649912,
				"y": -0.1124376582,
				"z": -1.9383771817,
				"element": "H" 
			},
			{
				"x": 0.3878006117,
				"y": -2.3173792575,
				"z": -1.484349963,
				"element": "H" 
			}
		],
		 "valence_orbital": [ 
			{
				"type": "occ",
				"energy": -0.30175,
				"method": "rhf"
			},
			{
				"type": "occ",
				"energy": -0.29611,
				"method": "rhf"
			},
			{
				"type": "occ",
				"energy": -0.28389,
				"method": "rhf"
			},
			{
				"type": "occ",
				"energy": -0.27541,
				"method": "rhf"
			},
			{
				"type": "occ",
				"energy": -0.23451,
				"method": "rhf"
			},
			{
				"type": "unocc",
				"energy": -0.0815,
				"method": "rhf"
			},
			{
				"type": "unocc",
				"energy": -0.03423,
				"method": "rhf"
			},
			{
				"type": "unocc",
				"energy": 0.00958,
				"method": "rhf"
			},
			{
				"type": "unocc",
				"energy": 0.00973,
				"method": "rhf"
			},
			{
				"type": "unocc",
				"energy": 0.05158,
				"method": "rhf"
			}
		],
		"cosmo_sigma_profile": { 
			"-0.025": 0.0,
			"-0.024": 0.0,
			"-0.023": 0.0,
			"-0.022": 0.0,
			"-0.021": 0.0,
			"-0.02": 0.0,
			"-0.019": 0.0,
			"-0.018": 0.0,
			"-0.017": 0.0,
			"-0.016": 0.0,
			"-0.015": 0.0,
			"-0.014": 0.0,
			"-0.013": 0.395051024676,
			"-0.012": 3.60228958406,
			"-0.011": 4.94180797581,
			"-0.01": 4.65137383486,
			"-0.009": 3.98814725838,
			"-0.008": 4.81866283579,
			"-0.007": 6.79666643275,
			"-0.006": 7.25021954612,
			"-0.005": 6.60248513219,
			"-0.004": 8.40870845393,
			"-0.003": 9.48629111679,
			"-0.002": 12.0955357777,
			"-0.001": 13.6529182081,
			"0.0": 20.0647268881,
			"0.001": 21.6739118728,
			"0.002": 13.0822217317,
			"0.003": 11.179825867,
			"0.004": 8.74338039986,
			"0.005": 3.95550447131,
			"0.006": 3.87820211761,
			"0.007": 4.12701650743,
			"0.008": 9.81975391414,
			"0.009": 7.17060152994,
			"0.01": 4.58892506145,
			"0.011": 2.74124361991,
			"0.012": 1.16501073138,
			"0.013": 0.392038505328,
			"0.014": 0.59249271796,
			"0.015": 0.38367544576,
			"0.016": 0.244915154217,
			"0.017": 0.0,
			"0.018": 0.0,
			"0.019": 0.0,
			"0.02": 0.0,
			"0.021": 0.0,
			"0.022": 0.0,
			"0.023": 0.0,
			"0.024": 0.0,
			"0.025": 0.0
		}
	}
}
