{
	 "smiles": "CC(C)OC(=O)NC1=CC=CC=C1", 
	 "Tm": 360.85, 
	 "num_atms": 26, 
	 "gaussian": { 
		 "optdone": 1, 
		 "sigma_profile": "yes", 
		 "theory": "DFT", 
		 "functional": "B3LYP", 
		 "basiset": "6-31G**", 
		 "properties": { 
			 "R2extent": 3370.5167, 
			 "electric_dipole_moment_norm": 1.50493698539, 
			 "electric_quadrupole_moment_norm": 9.8483302534, 
			 "total_energy": -594.134235123, 
			 "HOMO_LUMO_gap": 0.21409, 
			 "cosmo_polarized_energy": -9.57, 
			 "cosmo_cavitation_energy": 29.53, 
			 "cosmo_dispersion_energy": -21.08, 
			 "cosmo_repulsion_energy": 1.68, 
			 "cosmo_total_nonelectrostatic_energy": 10.13, 
			 "SMD_solvation_energy": 6.26 
		},
		"coords": [
			{
				"x": -0.8467813882,
				"y": 2.5974280978,
				"z": 1.0075407381,
				"element": "C" 
			},
			{
				"x": 0.0621921846,
				"y": 1.5719109914,
				"z": 1.6755664349,
				"element": "C" 
			},
			{
				"x": -0.3976013119,
				"y": 1.1615280514,
				"z": 3.0671203187,
				"element": "C" 
			},
			{
				"x": 0.077836284,
				"y": 0.3451198506,
				"z": 0.8827498722,
				"element": "O" 
			},
			{
				"x": 0.9219744052,
				"y": 0.328224284,
				"z": -0.1691193407,
				"element": "C" 
			},
			{
				"x": 1.6598556049,
				"y": 1.245586404,
				"z": -0.4878370454,
				"element": "O" 
			},
			{
				"x": 0.8897524767,
				"y": -0.8511295305,
				"z": -0.8814141712,
				"element": "N" 
			},
			{
				"x": 0.1726558885,
				"y": -2.0588144368,
				"z": -0.7548749594,
				"element": "C" 
			},
			{
				"x": -0.8156136731,
				"y": -2.3056616552,
				"z": 0.2103677569,
				"element": "C" 
			},
			{
				"x": -1.4626938475,
				"y": -3.5418895316,
				"z": 0.2344887568,
				"element": "C" 
			},
			{
				"x": -1.1509497862,
				"y": -4.5438549173,
				"z": -0.6840509533,
				"element": "C" 
			},
			{
				"x": -0.168986811,
				"y": -4.2962270691,
				"z": -1.6451557672,
				"element": "C" 
			},
			{
				"x": 0.4860558351,
				"y": -3.0693657956,
				"z": -1.6812168871,
				"element": "C" 
			},
			{
				"x": -0.4688952442,
				"y": 2.8509453276,
				"z": 0.0146660185,
				"element": "H" 
			},
			{
				"x": -1.8659160071,
				"y": 2.2079713465,
				"z": 0.9148910957,
				"element": "H" 
			},
			{
				"x": -0.8813681297,
				"y": 3.5139873755,
				"z": 1.6055116278,
				"element": "H" 
			},
			{
				"x": 1.087111666,
				"y": 1.9510181973,
				"z": 1.7025753136,
				"element": "H" 
			},
			{
				"x": -1.4154970155,
				"y": 0.7589329546,
				"z": 3.040584953,
				"element": "H" 
			},
			{
				"x": 0.2654024945,
				"y": 0.4007766361,
				"z": 3.4881881488,
				"element": "H" 
			},
			{
				"x": -0.3921283786,
				"y": 2.0306804675,
				"z": 3.7320277231,
				"element": "H" 
			},
			{
				"x": 1.5473208004,
				"y": -0.8127111231,
				"z": -1.6474936062,
				"element": "H" 
			},
			{
				"x": -1.0721906657,
				"y": -1.5415722513,
				"z": 0.9286554914,
				"element": "H" 
			},
			{
				"x": -2.2250958942,
				"y": -3.7166100183,
				"z": 0.9887105623,
				"element": "H" 
			},
			{
				"x": -1.6631836292,
				"y": -5.5003756443,
				"z": -0.6528759407,
				"element": "H" 
			},
			{
				"x": 0.0921153876,
				"y": -5.0599232651,
				"z": -2.3721718229,
				"element": "H" 
			},
			{
				"x": 1.2507287544,
				"y": -2.8866747461,
				"z": -2.432934318,
				"element": "H" 
			}
		],
		 "valence_orbital": [ 
			{
				"type": "occ",
				"energy": -0.31021,
				"method": "rhf"
			},
			{
				"type": "occ",
				"energy": -0.29477,
				"method": "rhf"
			},
			{
				"type": "occ",
				"energy": -0.27538,
				"method": "rhf"
			},
			{
				"type": "occ",
				"energy": -0.25103,
				"method": "rhf"
			},
			{
				"type": "occ",
				"energy": -0.21632,
				"method": "rhf"
			},
			{
				"type": "unocc",
				"energy": -0.00223,
				"method": "rhf"
			},
			{
				"type": "unocc",
				"energy": -0.00124,
				"method": "rhf"
			},
			{
				"type": "unocc",
				"energy": 0.06566,
				"method": "rhf"
			},
			{
				"type": "unocc",
				"energy": 0.07928,
				"method": "rhf"
			},
			{
				"type": "unocc",
				"energy": 0.09096,
				"method": "rhf"
			}
		],
		"cosmo_sigma_profile": { 
			"-0.025": 0.0,
			"-0.024": 0.0,
			"-0.023": 0.0,
			"-0.022": 0.0,
			"-0.021": 0.0,
			"-0.02": 0.0,
			"-0.019": 0.0,
			"-0.018": 0.0,
			"-0.017": 0.0,
			"-0.016": 0.0,
			"-0.015": 0.447558220609,
			"-0.014": 0.791340457501,
			"-0.013": 1.20866517551,
			"-0.012": 1.33235136574,
			"-0.011": 0.710349778559,
			"-0.01": 0.869771338894,
			"-0.009": 1.75771190901,
			"-0.008": 1.23390890682,
			"-0.007": 1.41607394391,
			"-0.006": 4.79427844245,
			"-0.005": 10.3022272685,
			"-0.004": 21.753613292,
			"-0.003": 25.0919806192,
			"-0.002": 21.1054462738,
			"-0.001": 22.9699022585,
			"0.0": 26.4786672239,
			"0.001": 17.4586344051,
			"0.002": 12.8572173968,
			"0.003": 13.0517546099,
			"0.004": 12.5578115047,
			"0.005": 11.0583962214,
			"0.006": 8.95455675197,
			"0.007": 1.71827450427,
			"0.008": 1.78583288545,
			"0.009": 1.00742056295,
			"0.01": 0.977379582035,
			"0.011": 1.91947542302,
			"0.012": 2.7138800254,
			"0.013": 4.90253533021,
			"0.014": 0.347324541788,
			"0.015": 0.0,
			"0.016": 0.0,
			"0.017": 0.0,
			"0.018": 0.0,
			"0.019": 0.0,
			"0.02": 0.0,
			"0.021": 0.0,
			"0.022": 0.0,
			"0.023": 0.0,
			"0.024": 0.0,
			"0.025": 0.0
		}
	}
}
