{
	 "smiles": "C(CNC1=NC2=C(S1)C=CC=C2)CN1CCOCC1", 
	 "Tm": 456.15, 
	 "num_atms": 38, 
	 "gaussian": { 
		 "optdone": 1, 
		 "sigma_profile": "yes", 
		 "theory": "DFT", 
		 "functional": "B3LYP", 
		 "basiset": "6-31G**", 
		 "properties": { 
			 "R2extent": 8253.7806, 
			 "electric_dipole_moment_norm": 3.34658867207, 
			 "electric_quadrupole_moment_norm": 12.2459607459, 
			 "total_energy": -1182.58921088, 
			 "HOMO_LUMO_gap": 0.19451, 
			 "cosmo_polarized_energy": -13.62, 
			 "cosmo_cavitation_energy": 41.02, 
			 "cosmo_dispersion_energy": -29.41, 
			 "cosmo_repulsion_energy": 2.23, 
			 "cosmo_total_nonelectrostatic_energy": 13.84, 
			 "SMD_solvation_energy": 2.95 
		},
		"coords": [
			{
				"x": -1.5419284921,
				"y": 1.7886038374,
				"z": -1.9360542849,
				"element": "C" 
			},
			{
				"x": -0.1085777955,
				"y": 1.2575488529,
				"z": -1.8404740549,
				"element": "C" 
			},
			{
				"x": -0.020952764,
				"y": -0.0965762584,
				"z": -2.3774242452,
				"element": "N" 
			},
			{
				"x": 0.9949644709,
				"y": -0.9682169413,
				"z": -2.1123003726,
				"element": "C" 
			},
			{
				"x": 1.24735269,
				"y": -2.0124294502,
				"z": -2.8443265725,
				"element": "N" 
			},
			{
				"x": 2.2883931305,
				"y": -2.7510279221,
				"z": -2.3066737565,
				"element": "C" 
			},
			{
				"x": 2.8621350592,
				"y": -2.2376678552,
				"z": -1.1172813501,
				"element": "C" 
			},
			{
				"x": 2.03083504,
				"y": -0.7493727106,
				"z": -0.6660209871,
				"element": "S" 
			},
			{
				"x": 3.9214101121,
				"y": -2.8745621453,
				"z": -0.474609284,
				"element": "C" 
			},
			{
				"x": 4.4173170613,
				"y": -4.0542029735,
				"z": -1.032338166,
				"element": "C" 
			},
			{
				"x": 3.8601578903,
				"y": -4.5773595236,
				"z": -2.2084674639,
				"element": "C" 
			},
			{
				"x": 2.8024056546,
				"y": -3.9370726806,
				"z": -2.8489720119,
				"element": "C" 
			},
			{
				"x": -2.5184925026,
				"y": 1.0530907164,
				"z": -1.005433474,
				"element": "C" 
			},
			{
				"x": -2.1644816046,
				"y": 1.2059844521,
				"z": 0.399817295,
				"element": "N" 
			},
			{
				"x": -2.7049854176,
				"y": 0.1777472079,
				"z": 1.280376107,
				"element": "C" 
			},
			{
				"x": -1.9742869053,
				"y": 0.2434053972,
				"z": 2.631934745,
				"element": "C" 
			},
			{
				"x": -1.6839175108,
				"y": 1.582589693,
				"z": 3.034407117,
				"element": "O" 
			},
			{
				"x": -2.5708257105,
				"y": 2.5198969011,
				"z": 2.4565399648,
				"element": "C" 
			},
			{
				"x": -2.4141097876,
				"y": 2.5563220172,
				"z": 0.9255509224,
				"element": "C" 
			},
			{
				"x": -1.9048679624,
				"y": 1.7056187198,
				"z": -2.969597197,
				"element": "H" 
			},
			{
				"x": -1.5295079227,
				"y": 2.8601713109,
				"z": -1.707792263,
				"element": "H" 
			},
			{
				"x": 0.1732858675,
				"y": 1.2260810464,
				"z": -0.7836134123,
				"element": "H" 
			},
			{
				"x": 0.5855997778,
				"y": 1.9376532688,
				"z": -2.3569232741,
				"element": "H" 
			},
			{
				"x": -0.4151680913,
				"y": -0.2464593545,
				"z": -3.2987948528,
				"element": "H" 
			},
			{
				"x": 4.3515706477,
				"y": -2.4682740697,
				"z": 0.4355848517,
				"element": "H" 
			},
			{
				"x": 5.2421517023,
				"y": -4.5685073112,
				"z": -0.5484790809,
				"element": "H" 
			},
			{
				"x": 4.260107745,
				"y": -5.4966454905,
				"z": -2.6265569765,
				"element": "H" 
			},
			{
				"x": 2.3654760157,
				"y": -4.3348603286,
				"z": -3.7591521539,
				"element": "H" 
			},
			{
				"x": -2.4867940836,
				"y": -0.0148278091,
				"z": -1.2463596807,
				"element": "H" 
			},
			{
				"x": -3.5488078318,
				"y": 1.4028912767,
				"z": -1.2134470856,
				"element": "H" 
			},
			{
				"x": -2.530034144,
				"y": -0.8056948259,
				"z": 0.8324715687,
				"element": "H" 
			},
			{
				"x": -3.7993196222,
				"y": 0.2682971982,
				"z": 1.4225381074,
				"element": "H" 
			},
			{
				"x": -2.576031791,
				"y": -0.2638510743,
				"z": 3.4030324709,
				"element": "H" 
			},
			{
				"x": -1.0080091243,
				"y": -0.2657400617,
				"z": 2.5593349246,
				"element": "H" 
			},
			{
				"x": -2.3246696174,
				"y": 3.495335574,
				"z": 2.8852865403,
				"element": "H" 
			},
			{
				"x": -3.6140835979,
				"y": 2.2959710489,
				"z": 2.7316162288,
				"element": "H" 
			},
			{
				"x": -1.5748962756,
				"y": 3.20884918,
				"z": 0.6563362266,
				"element": "H" 
			},
			{
				"x": -3.3286143102,
				"y": 3.0036910873,
				"z": 0.4891649301,
				"element": "H" 
			}
		],
		 "valence_orbital": [ 
			{
				"type": "occ",
				"energy": -0.2671,
				"method": "rhf"
			},
			{
				"type": "occ",
				"energy": -0.24839,
				"method": "rhf"
			},
			{
				"type": "occ",
				"energy": -0.22371,
				"method": "rhf"
			},
			{
				"type": "occ",
				"energy": -0.21515,
				"method": "rhf"
			},
			{
				"type": "occ",
				"energy": -0.19983,
				"method": "rhf"
			},
			{
				"type": "unocc",
				"energy": -0.00532,
				"method": "rhf"
			},
			{
				"type": "unocc",
				"energy": 0.00699,
				"method": "rhf"
			},
			{
				"type": "unocc",
				"energy": 0.01498,
				"method": "rhf"
			},
			{
				"type": "unocc",
				"energy": 0.05416,
				"method": "rhf"
			},
			{
				"type": "unocc",
				"energy": 0.06582,
				"method": "rhf"
			}
		],
		"cosmo_sigma_profile": { 
			"-0.025": 0.0,
			"-0.024": 0.0,
			"-0.023": 0.0,
			"-0.022": 0.0,
			"-0.021": 0.0,
			"-0.02": 0.0,
			"-0.019": 0.0,
			"-0.018": 0.0,
			"-0.017": 0.0,
			"-0.016": 0.0,
			"-0.015": 0.0,
			"-0.014": 0.278416478659,
			"-0.013": 0.812445475609,
			"-0.012": 1.08207257764,
			"-0.011": 1.11579117681,
			"-0.01": 1.06713177466,
			"-0.009": 1.82224109744,
			"-0.008": 0.853664840532,
			"-0.007": 2.12251997665,
			"-0.006": 6.13576147888,
			"-0.005": 14.3879948444,
			"-0.004": 29.6383290533,
			"-0.003": 47.4911819499,
			"-0.002": 45.9170368697,
			"-0.001": 31.3385613397,
			"0.0": 19.5669188268,
			"0.001": 16.581637787,
			"0.002": 15.445562544,
			"0.003": 17.8867796553,
			"0.004": 19.1545024134,
			"0.005": 16.3252988861,
			"0.006": 10.9813456759,
			"0.007": 3.458692787,
			"0.008": 2.89204215668,
			"0.009": 3.59649510509,
			"0.01": 2.76716626301,
			"0.011": 2.82667768925,
			"0.012": 2.75359858906,
			"0.013": 3.11083577499,
			"0.014": 1.74920179302,
			"0.015": 1.09117056061,
			"0.016": 0.106437209823,
			"0.017": 0.0,
			"0.018": 0.0,
			"0.019": 0.0,
			"0.02": 0.0,
			"0.021": 0.0,
			"0.022": 0.0,
			"0.023": 0.0,
			"0.024": 0.0,
			"0.025": 0.0
		}
	}
}
