{
	 "smiles": "CC1=CC=C(C=C1)C(=O)C=CC1=CC(=CC=C1)[N+]([O-])=O", 
	 "Tm": 409.15, 
	 "num_atms": 33, 
	 "gaussian": { 
		 "optdone": 1, 
		 "sigma_profile": "yes", 
		 "theory": "DFT", 
		 "functional": "B3LYP", 
		 "basiset": "6-31G**", 
		 "properties": { 
			 "R2extent": 8867.056, 
			 "electric_dipole_moment_norm": 6.82231658383, 
			 "electric_quadrupole_moment_norm": 26.4672523374, 
			 "total_energy": -897.8508123, 
			 "HOMO_LUMO_gap": 0.15825, 
			 "cosmo_polarized_energy": -14.99, 
			 "cosmo_cavitation_energy": 38.6, 
			 "cosmo_dispersion_energy": -27.71, 
			 "cosmo_repulsion_energy": 2.08, 
			 "cosmo_total_nonelectrostatic_energy": 12.98, 
			 "SMD_solvation_energy": 9.25 
		},
		"coords": [
			{
				"x": -1.9827275066,
				"y": 5.6689713824,
				"z": -3.3369235233,
				"element": "C" 
			},
			{
				"x": -1.5086276939,
				"y": 4.327390071,
				"z": -2.8344079732,
				"element": "C" 
			},
			{
				"x": -1.8179403274,
				"y": 3.1459405903,
				"z": -3.5195972145,
				"element": "C" 
			},
			{
				"x": -1.3519716908,
				"y": 1.9104532231,
				"z": -3.0725890835,
				"element": "C" 
			},
			{
				"x": -0.5665260845,
				"y": 1.8206480104,
				"z": -1.9133633854,
				"element": "C" 
			},
			{
				"x": -0.2721489512,
				"y": 3.0029601506,
				"z": -1.21246591,
				"element": "C" 
			},
			{
				"x": -0.7294433882,
				"y": 4.2317003914,
				"z": -1.6693552599,
				"element": "C" 
			},
			{
				"x": -0.0551014347,
				"y": 0.5294683245,
				"z": -1.3478841335,
				"element": "C" 
			},
			{
				"x": 0.3760031631,
				"y": 0.5057948298,
				"z": -0.1949315698,
				"element": "O" 
			},
			{
				"x": -0.0626487595,
				"y": -0.6580237167,
				"z": -2.2359300589,
				"element": "C" 
			},
			{
				"x": 0.0390507574,
				"y": -1.9814075206,
				"z": -1.9593247913,
				"element": "C" 
			},
			{
				"x": 0.1501209636,
				"y": -2.7962175925,
				"z": -0.7427889657,
				"element": "C" 
			},
			{
				"x": 0.4240172879,
				"y": -2.3135832254,
				"z": 0.5516711498,
				"element": "C" 
			},
			{
				"x": 0.4942676716,
				"y": -3.2184571701,
				"z": 1.6042807276,
				"element": "C" 
			},
			{
				"x": 0.3095815429,
				"y": -4.5911284285,
				"z": 1.4448644554,
				"element": "C" 
			},
			{
				"x": 0.0480696491,
				"y": -5.0718675322,
				"z": 0.1643273999,
				"element": "C" 
			},
			{
				"x": -0.0239101941,
				"y": -4.1882259053,
				"z": -0.9093977547,
				"element": "C" 
			},
			{
				"x": 0.7866987205,
				"y": -2.7067057236,
				"z": 2.9590382026,
				"element": "N" 
			},
			{
				"x": 0.971832735,
				"y": -1.4999890349,
				"z": 3.0893635177,
				"element": "O" 
			},
			{
				"x": 0.8265415548,
				"y": -3.5268780966,
				"z": 3.877301796,
				"element": "O" 
			},
			{
				"x": -1.1704572236,
				"y": 6.2095310075,
				"z": -3.8386308808,
				"element": "H" 
			},
			{
				"x": -2.8003830167,
				"y": 5.5632587599,
				"z": -4.055160188,
				"element": "H" 
			},
			{
				"x": -2.3302030141,
				"y": 6.302763892,
				"z": -2.5147303904,
				"element": "H" 
			},
			{
				"x": -2.4349420375,
				"y": 3.1927195063,
				"z": -4.4132315565,
				"element": "H" 
			},
			{
				"x": -1.6331174313,
				"y": 1.0165823762,
				"z": -3.6196672865,
				"element": "H" 
			},
			{
				"x": 0.3185220218,
				"y": 2.9275816095,
				"z": -0.3057968503,
				"element": "H" 
			},
			{
				"x": -0.4848266226,
				"y": 5.134894498,
				"z": -1.1156756513,
				"element": "H" 
			},
			{
				"x": -0.1648667547,
				"y": -0.4261148188,
				"z": -3.2917354322,
				"element": "H" 
			},
			{
				"x": -0.0102367792,
				"y": -2.6090614371,
				"z": -2.8493962877,
				"element": "H" 
			},
			{
				"x": 0.5853135576,
				"y": -1.2572577103,
				"z": 0.7211044116,
				"element": "H" 
			},
			{
				"x": 0.3787302705,
				"y": -5.2441432188,
				"z": 2.3054416175,
				"element": "H" 
			},
			{
				"x": -0.0954384969,
				"y": -6.1355645902,
				"z": 0.0037863213,
				"element": "H" 
			},
			{
				"x": -0.2256324883,
				"y": -4.5777329014,
				"z": -1.9036954517,
				"element": "H" 
			}
		],
		 "valence_orbital": [ 
			{
				"type": "occ",
				"energy": -0.27878,
				"method": "rhf"
			},
			{
				"type": "occ",
				"energy": -0.26115,
				"method": "rhf"
			},
			{
				"type": "occ",
				"energy": -0.25876,
				"method": "rhf"
			},
			{
				"type": "occ",
				"energy": -0.24969,
				"method": "rhf"
			},
			{
				"type": "occ",
				"energy": -0.24863,
				"method": "rhf"
			},
			{
				"type": "unocc",
				"energy": -0.09038,
				"method": "rhf"
			},
			{
				"type": "unocc",
				"energy": -0.07987,
				"method": "rhf"
			},
			{
				"type": "unocc",
				"energy": -0.0352,
				"method": "rhf"
			},
			{
				"type": "unocc",
				"energy": -0.01078,
				"method": "rhf"
			},
			{
				"type": "unocc",
				"energy": -0.00162,
				"method": "rhf"
			}
		],
		"cosmo_sigma_profile": { 
			"-0.025": 0.0,
			"-0.024": 0.0,
			"-0.023": 0.0,
			"-0.022": 0.0,
			"-0.021": 0.0,
			"-0.02": 0.0,
			"-0.019": 0.0,
			"-0.018": 0.0,
			"-0.017": 0.0,
			"-0.016": 0.0,
			"-0.015": 0.0,
			"-0.014": 0.0,
			"-0.013": 0.0,
			"-0.012": 0.0,
			"-0.011": 0.0,
			"-0.01": 0.0,
			"-0.009": 0.715545623534,
			"-0.008": 5.74047445168,
			"-0.007": 12.7975556829,
			"-0.006": 14.9869826255,
			"-0.005": 19.570780665,
			"-0.004": 23.5308357436,
			"-0.003": 19.363909076,
			"-0.002": 22.7117036165,
			"-0.001": 28.0010768655,
			"0.0": 29.7681605955,
			"0.001": 31.3282247246,
			"0.002": 19.6825729188,
			"0.003": 16.240271488,
			"0.004": 16.8308856733,
			"0.005": 8.90822267366,
			"0.006": 6.54261251712,
			"0.007": 9.74224000189,
			"0.008": 10.5204228468,
			"0.009": 6.42235584631,
			"0.01": 4.44103259125,
			"0.011": 1.79272660789,
			"0.012": 0.579973528678,
			"0.013": 0.0,
			"0.014": 0.0,
			"0.015": 0.0,
			"0.016": 0.0,
			"0.017": 0.0,
			"0.018": 0.0,
			"0.019": 0.0,
			"0.02": 0.0,
			"0.021": 0.0,
			"0.022": 0.0,
			"0.023": 0.0,
			"0.024": 0.0,
			"0.025": 0.0
		}
	}
}
