{
	 "smiles": "NCC(=O)CCC(O)=O", 
	 "Tm": 430.15, 
	 "num_atms": 18, 
	 "gaussian": { 
		 "optdone": 1, 
		 "sigma_profile": "yes", 
		 "theory": "DFT", 
		 "functional": "B3LYP", 
		 "basiset": "6-31G**", 
		 "properties": { 
			 "R2extent": 1620.465, 
			 "electric_dipole_moment_norm": 3.76590063995, 
			 "electric_quadrupole_moment_norm": 19.5247977892, 
			 "total_energy": -476.379288116, 
			 "HOMO_LUMO_gap": 0.22383, 
			 "cosmo_polarized_energy": -19.6, 
			 "cosmo_cavitation_energy": 22.19, 
			 "cosmo_dispersion_energy": -15.9, 
			 "cosmo_repulsion_energy": 1.37, 
			 "cosmo_total_nonelectrostatic_energy": 7.65, 
			 "SMD_solvation_energy": 4.7 
		},
		"coords": [
			{
				"x": 2.426930695,
				"y": -2.6801229683,
				"z": -0.668214606,
				"element": "N" 
			},
			{
				"x": 0.9959302016,
				"y": -2.6971648817,
				"z": -0.3650195192,
				"element": "C" 
			},
			{
				"x": 0.4971729027,
				"y": -1.360421431,
				"z": 0.1747673802,
				"element": "C" 
			},
			{
				"x": -0.3655370139,
				"y": -1.3118420234,
				"z": 1.032334676,
				"element": "O" 
			},
			{
				"x": 1.1007249493,
				"y": -0.092986117,
				"z": -0.4238623725,
				"element": "C" 
			},
			{
				"x": 0.1032586004,
				"y": 1.0604181836,
				"z": -0.3856360259,
				"element": "C" 
			},
			{
				"x": -1.0457399268,
				"y": 0.8278622238,
				"z": -1.3599839752,
				"element": "C" 
			},
			{
				"x": -2.0048864657,
				"y": 1.789829763,
				"z": -1.3756245593,
				"element": "O" 
			},
			{
				"x": -1.1348974367,
				"y": -0.126262829,
				"z": -2.0934814844,
				"element": "O" 
			},
			{
				"x": 2.6634525958,
				"y": -3.4339298127,
				"z": -1.305401987,
				"element": "H" 
			},
			{
				"x": 2.9703623004,
				"y": -2.831351379,
				"z": 0.1771656986,
				"element": "H" 
			},
			{
				"x": 0.6583825333,
				"y": -3.4810899634,
				"z": 0.3285679758,
				"element": "H" 
			},
			{
				"x": 0.4471669339,
				"y": -2.8368507554,
				"z": -1.306578687,
				"element": "H" 
			},
			{
				"x": 1.9935380545,
				"y": 0.1571818564,
				"z": 0.1635230067,
				"element": "H" 
			},
			{
				"x": 1.4494459581,
				"y": -0.2931748995,
				"z": -1.4385994953,
				"element": "H" 
			},
			{
				"x": 0.5891578756,
				"y": 2.0126202515,
				"z": -0.6342195063,
				"element": "H" 
			},
			{
				"x": -0.3143745819,
				"y": 1.1543643399,
				"z": 0.6239899757,
				"element": "H" 
			},
			{
				"x": -1.8055881754,
				"y": 2.4683204424,
				"z": -0.7148264949,
				"element": "H" 
			}
		],
		 "valence_orbital": [ 
			{
				"type": "occ",
				"energy": -0.34241,
				"method": "rhf"
			},
			{
				"type": "occ",
				"energy": -0.314,
				"method": "rhf"
			},
			{
				"type": "occ",
				"energy": -0.27216,
				"method": "rhf"
			},
			{
				"type": "occ",
				"energy": -0.26074,
				"method": "rhf"
			},
			{
				"type": "occ",
				"energy": -0.23816,
				"method": "rhf"
			},
			{
				"type": "unocc",
				"energy": -0.01433,
				"method": "rhf"
			},
			{
				"type": "unocc",
				"energy": 0.01289,
				"method": "rhf"
			},
			{
				"type": "unocc",
				"energy": 0.05805,
				"method": "rhf"
			},
			{
				"type": "unocc",
				"energy": 0.07625,
				"method": "rhf"
			},
			{
				"type": "unocc",
				"energy": 0.1124,
				"method": "rhf"
			}
		],
		"cosmo_sigma_profile": { 
			"-0.025": 0.0,
			"-0.024": 0.0,
			"-0.023": 0.0,
			"-0.022": 0.0,
			"-0.021": 0.0,
			"-0.02": 0.0,
			"-0.019": 0.658543504992,
			"-0.018": 1.09792209821,
			"-0.017": 1.08149856153,
			"-0.016": 0.949953589248,
			"-0.015": 1.50525083353,
			"-0.014": 1.12419900315,
			"-0.013": 0.719766618852,
			"-0.012": 0.922312276677,
			"-0.011": 2.37591158845,
			"-0.01": 4.50715174822,
			"-0.009": 3.9867243846,
			"-0.008": 4.95176148607,
			"-0.007": 7.20867623243,
			"-0.006": 10.2495264656,
			"-0.005": 9.75866209459,
			"-0.004": 12.2855049237,
			"-0.003": 12.1936344282,
			"-0.002": 11.5686177689,
			"-0.001": 7.54346030801,
			"0.0": 4.44839481626,
			"0.001": 5.41360669875,
			"0.002": 5.06645445221,
			"0.003": 4.98397733818,
			"0.004": 5.06249955326,
			"0.005": 5.36144584237,
			"0.006": 4.73339853255,
			"0.007": 4.2651445206,
			"0.008": 4.95907858826,
			"0.009": 5.90458986766,
			"0.01": 7.04332506606,
			"0.011": 8.06253133509,
			"0.012": 7.28187675458,
			"0.013": 3.96147994097,
			"0.014": 0.98500497617,
			"0.015": 0.382097096295,
			"0.016": 0.329139479705,
			"0.017": 0.0,
			"0.018": 0.0,
			"0.019": 0.0,
			"0.02": 0.0,
			"0.021": 0.0,
			"0.022": 0.0,
			"0.023": 0.0,
			"0.024": 0.0,
			"0.025": 0.0
		}
	}
}
