{
	 "smiles": "COC1=CC=C(C=C1CBr)C(F)(F)F", 
	 "Tm": 309.15, 
	 "num_atms": 22, 
	 "gaussian": { 
		 "optdone": 1, 
		 "sigma_profile": "yes", 
		 "theory": "DFT", 
		 "functional": "B3LYP", 
		 "basiset": "6-31G**", 
		 "properties": { 
			 "R2extent": 5191.3792, 
			 "electric_dipole_moment_norm": 4.0724015028, 
			 "electric_quadrupole_moment_norm": 11.6752476102, 
			 "total_energy": -3293.93113236, 
			 "HOMO_LUMO_gap": 0.1956, 
			 "cosmo_polarized_energy": -8.61, 
			 "cosmo_cavitation_energy": 29.84, 
			 "cosmo_dispersion_energy": -21.14, 
			 "cosmo_repulsion_energy": 1.63, 
			 "cosmo_total_nonelectrostatic_energy": 10.33, 
			 "SMD_solvation_energy": 5.82 
		},
		"coords": [
			{
				"x": 1.3391198502,
				"y": 0.2380716325,
				"z": -3.4464899772,
				"element": "C" 
			},
			{
				"x": 0.3375481104,
				"y": -0.4999515318,
				"z": -2.7572104145,
				"element": "O" 
			},
			{
				"x": 0.161583819,
				"y": -0.2861527216,
				"z": -1.4290592206,
				"element": "C" 
			},
			{
				"x": 0.9276005156,
				"y": 0.6021979803,
				"z": -0.66548852,
				"element": "C" 
			},
			{
				"x": 0.6707870609,
				"y": 0.748266343,
				"z": 0.6969149061,
				"element": "C" 
			},
			{
				"x": -0.345896385,
				"y": 0.0141242835,
				"z": 1.3064928516,
				"element": "C" 
			},
			{
				"x": -1.110382239,
				"y": -0.8702816419,
				"z": 0.5405949568,
				"element": "C" 
			},
			{
				"x": -0.8735305139,
				"y": -1.0364554663,
				"z": -0.8224296734,
				"element": "C" 
			},
			{
				"x": -1.688187365,
				"y": -1.9855193503,
				"z": -1.6320086325,
				"element": "C" 
			},
			{
				"x": -3.190853261,
				"y": -1.0653412093,
				"z": -2.5971678808,
				"element": "Br" 
			},
			{
				"x": -0.5804490394,
				"y": 0.1229595468,
				"z": 2.7854605208,
				"element": "C" 
			},
			{
				"x": 0.1265221284,
				"y": -0.8030647076,
				"z": 3.4783658168,
				"element": "F" 
			},
			{
				"x": -1.8806874626,
				"y": -0.0657611008,
				"z": 3.1045214011,
				"element": "F" 
			},
			{
				"x": -0.2128082886,
				"y": 1.3319735201,
				"z": 3.2664666493,
				"element": "F" 
			},
			{
				"x": 1.2845188277,
				"y": -0.0857921126,
				"z": -4.4862033403,
				"element": "H" 
			},
			{
				"x": 1.1484379812,
				"y": 1.3163756461,
				"z": -3.3920934356,
				"element": "H" 
			},
			{
				"x": 2.3395638962,
				"y": 0.0241701899,
				"z": -3.050912573,
				"element": "H" 
			},
			{
				"x": 1.7189380107,
				"y": 1.1838050623,
				"z": -1.1217480152,
				"element": "H" 
			},
			{
				"x": 1.2619407345,
				"y": 1.4425040761,
				"z": 1.284181908,
				"element": "H" 
			},
			{
				"x": -1.9119149413,
				"y": -1.4315065012,
				"z": 1.010691219,
				"element": "H" 
			},
			{
				"x": -1.1170497232,
				"y": -2.4560434723,
				"z": -2.4278413544,
				"element": "H" 
			},
			{
				"x": -2.1823017156,
				"y": -2.7330784649,
				"z": -1.0154371919,
				"element": "H" 
			}
		],
		 "valence_orbital": [ 
			{
				"type": "occ",
				"energy": -0.34116,
				"method": "rhf"
			},
			{
				"type": "occ",
				"energy": -0.27568,
				"method": "rhf"
			},
			{
				"type": "occ",
				"energy": -0.26719,
				"method": "rhf"
			},
			{
				"type": "occ",
				"energy": -0.26425,
				"method": "rhf"
			},
			{
				"type": "occ",
				"energy": -0.24064,
				"method": "rhf"
			},
			{
				"type": "unocc",
				"energy": -0.04504,
				"method": "rhf"
			},
			{
				"type": "unocc",
				"energy": -0.0198,
				"method": "rhf"
			},
			{
				"type": "unocc",
				"energy": 0.02002,
				"method": "rhf"
			},
			{
				"type": "unocc",
				"energy": 0.08189,
				"method": "rhf"
			},
			{
				"type": "unocc",
				"energy": 0.09245,
				"method": "rhf"
			}
		],
		"cosmo_sigma_profile": { 
			"-0.025": 0.0,
			"-0.024": 0.0,
			"-0.023": 0.0,
			"-0.022": 0.0,
			"-0.021": 0.0,
			"-0.02": 0.0,
			"-0.019": 0.0,
			"-0.018": 0.0,
			"-0.017": 0.0,
			"-0.016": 0.0,
			"-0.015": 0.0,
			"-0.014": 0.0,
			"-0.013": 0.0,
			"-0.012": 0.0,
			"-0.011": 0.0,
			"-0.01": 0.0,
			"-0.009": 0.476595089866,
			"-0.008": 4.02300592075,
			"-0.007": 9.92887510634,
			"-0.006": 15.9268511162,
			"-0.005": 16.7410638055,
			"-0.004": 15.6919094635,
			"-0.003": 13.4813669774,
			"-0.002": 10.4611964873,
			"-0.001": 12.4639341178,
			"0.0": 13.5279955327,
			"0.001": 17.8993219495,
			"0.002": 28.7558464849,
			"0.003": 41.8461173613,
			"0.004": 11.8075795752,
			"0.005": 8.6271353961,
			"0.006": 11.5601668579,
			"0.007": 6.41948945341,
			"0.008": 1.84651703565,
			"0.009": 0.0235952806094,
			"0.01": 0.0,
			"0.011": 0.0,
			"0.012": 0.0,
			"0.013": 0.0,
			"0.014": 0.0,
			"0.015": 0.0,
			"0.016": 0.0,
			"0.017": 0.0,
			"0.018": 0.0,
			"0.019": 0.0,
			"0.02": 0.0,
			"0.021": 0.0,
			"0.022": 0.0,
			"0.023": 0.0,
			"0.024": 0.0,
			"0.025": 0.0
		}
	}
}
