{
	 "smiles": "OC(=O)C1=CC=C(C=C1)C1=NC(=NN1)C1CC1", 
	 "Tm": 511.15, 
	 "num_atms": 28, 
	 "gaussian": { 
		 "optdone": 1, 
		 "sigma_profile": "yes", 
		 "theory": "DFT", 
		 "functional": "B3LYP", 
		 "basiset": "6-31G**", 
		 "properties": { 
			 "R2extent": 6700.1113, 
			 "electric_dipole_moment_norm": 4.30174139855, 
			 "electric_quadrupole_moment_norm": 33.0246208227, 
			 "total_energy": -778.588407487, 
			 "HOMO_LUMO_gap": 0.16334, 
			 "cosmo_polarized_energy": -22.94, 
			 "cosmo_cavitation_energy": 33.19, 
			 "cosmo_dispersion_energy": -24.31, 
			 "cosmo_repulsion_energy": 1.87, 
			 "cosmo_total_nonelectrostatic_energy": 10.75, 
			 "SMD_solvation_energy": 4.07 
		},
		"coords": [
			{
				"x": 5.161574297,
				"y": 3.9703180375,
				"z": -0.6082900742,
				"element": "O" 
			},
			{
				"x": 4.6943180412,
				"y": 3.2652542939,
				"z": 0.4575575342,
				"element": "C" 
			},
			{
				"x": 5.2495621628,
				"y": 3.347980298,
				"z": 1.527348389,
				"element": "O" 
			},
			{
				"x": 3.4870143529,
				"y": 2.4077904214,
				"z": 0.2236974412,
				"element": "C" 
			},
			{
				"x": 3.1057050772,
				"y": 1.9512562246,
				"z": -1.0457448254,
				"element": "C" 
			},
			{
				"x": 1.9839425119,
				"y": 1.141821572,
				"z": -1.1980402704,
				"element": "C" 
			},
			{
				"x": 1.215997193,
				"y": 0.7727845671,
				"z": -0.0824956457,
				"element": "C" 
			},
			{
				"x": 1.6077133809,
				"y": 1.2215301222,
				"z": 1.191426479,
				"element": "C" 
			},
			{
				"x": 2.7334329996,
				"y": 2.0190060576,
				"z": 1.3411027292,
				"element": "C" 
			},
			{
				"x": 0.0233783028,
				"y": -0.0697230498,
				"z": -0.1952345456,
				"element": "C" 
			},
			{
				"x": -0.7617202604,
				"y": -0.4389270826,
				"z": 0.8109390338,
				"element": "N" 
			},
			{
				"x": -1.7224187881,
				"y": -1.2039725446,
				"z": 0.214755161,
				"element": "C" 
			},
			{
				"x": -1.5818580793,
				"y": -1.3330366084,
				"z": -1.1033881594,
				"element": "N" 
			},
			{
				"x": -0.4637307972,
				"y": -0.6021429483,
				"z": -1.3450797475,
				"element": "N" 
			},
			{
				"x": -2.8284339924,
				"y": -1.8402872977,
				"z": 0.9523652253,
				"element": "C" 
			},
			{
				"x": -2.5898420641,
				"y": -2.3552439578,
				"z": 2.3598727282,
				"element": "C" 
			},
			{
				"x": -3.4326356468,
				"y": -1.1325678792,
				"z": 2.1512319247,
				"element": "C" 
			},
			{
				"x": 4.5235609228,
				"y": 3.9424721439,
				"z": -1.3344358262,
				"element": "H" 
			},
			{
				"x": 3.7002945545,
				"y": 2.1873350656,
				"z": -1.9247592857,
				"element": "H" 
			},
			{
				"x": 1.7197985943,
				"y": 0.7978082466,
				"z": -2.193858107,
				"element": "H" 
			},
			{
				"x": 1.0129560722,
				"y": 0.9267350781,
				"z": 2.0485739178,
				"element": "H" 
			},
			{
				"x": 3.0514953663,
				"y": 2.3580663013,
				"z": 2.3209753748,
				"element": "H" 
			},
			{
				"x": -0.1156871619,
				"y": -0.5317857575,
				"z": -2.2885683436,
				"element": "H" 
			},
			{
				"x": -3.4978104783,
				"y": -2.4102916788,
				"z": 0.3165570849,
				"element": "H" 
			},
			{
				"x": -3.0755402474,
				"y": -3.2846897614,
				"z": 2.6407206124,
				"element": "H" 
			},
			{
				"x": -1.5930523206,
				"y": -2.2159430553,
				"z": 2.7655094705,
				"element": "H" 
			},
			{
				"x": -3.0011809288,
				"y": -0.1729734954,
				"z": 2.4168797358,
				"element": "H" 
			},
			{
				"x": -4.5072330641,
				"y": -1.2076733132,
				"z": 2.2863819889,
				"element": "H" 
			}
		],
		 "valence_orbital": [ 
			{
				"type": "occ",
				"energy": -0.28398,
				"method": "rhf"
			},
			{
				"type": "occ",
				"energy": -0.28282,
				"method": "rhf"
			},
			{
				"type": "occ",
				"energy": -0.27794,
				"method": "rhf"
			},
			{
				"type": "occ",
				"energy": -0.27201,
				"method": "rhf"
			},
			{
				"type": "occ",
				"energy": -0.23814,
				"method": "rhf"
			},
			{
				"type": "unocc",
				"energy": -0.0748,
				"method": "rhf"
			},
			{
				"type": "unocc",
				"energy": -0.03252,
				"method": "rhf"
			},
			{
				"type": "unocc",
				"energy": 0.00505,
				"method": "rhf"
			},
			{
				"type": "unocc",
				"energy": 0.0354,
				"method": "rhf"
			},
			{
				"type": "unocc",
				"energy": 0.04428,
				"method": "rhf"
			}
		],
		"cosmo_sigma_profile": { 
			"-0.025": 0.0,
			"-0.024": 0.0,
			"-0.023": 0.0,
			"-0.022": 0.0,
			"-0.021": 0.0,
			"-0.02": 0.0,
			"-0.019": 0.397071372278,
			"-0.018": 1.54787840469,
			"-0.017": 2.19228207977,
			"-0.016": 2.98104541732,
			"-0.015": 1.85649145337,
			"-0.014": 1.67102246707,
			"-0.013": 2.57980487777,
			"-0.012": 2.91590618652,
			"-0.011": 2.10722808036,
			"-0.01": 2.3639385591,
			"-0.009": 3.56270094758,
			"-0.008": 3.46980918271,
			"-0.007": 4.55954896046,
			"-0.006": 7.35752846182,
			"-0.005": 13.4515279345,
			"-0.004": 15.4544508287,
			"-0.003": 14.7456784801,
			"-0.002": 16.1533558128,
			"-0.001": 17.8248491802,
			"0.0": 19.3321096981,
			"0.001": 21.694826595,
			"0.002": 26.7244174881,
			"0.003": 16.7841369293,
			"0.004": 10.5866433905,
			"0.005": 6.57613978552,
			"0.006": 6.23376973441,
			"0.007": 5.56308926522,
			"0.008": 5.13891125025,
			"0.009": 5.79408550796,
			"0.01": 7.76593955655,
			"0.011": 7.01278442489,
			"0.012": 5.30943748412,
			"0.013": 2.05068265054,
			"0.014": 1.20939891725,
			"0.015": 0.709607144081,
			"0.016": 0.0534106820656,
			"0.017": 0.0,
			"0.018": 0.0,
			"0.019": 0.0,
			"0.02": 0.0,
			"0.021": 0.0,
			"0.022": 0.0,
			"0.023": 0.0,
			"0.024": 0.0,
			"0.025": 0.0
		}
	}
}
