{
	 "smiles": "CC1=NC(CC(N)=NO)=CS1", 
	 "Tm": 413.15, 
	 "num_atms": 20, 
	 "gaussian": { 
		 "optdone": 1, 
		 "sigma_profile": "yes", 
		 "theory": "DFT", 
		 "functional": "B3LYP", 
		 "basiset": "6-31G**", 
		 "properties": { 
			 "R2extent": 3079.726, 
			 "electric_dipole_moment_norm": 2.71528808969, 
			 "electric_quadrupole_moment_norm": 4.61415901113, 
			 "total_energy": -871.68140615, 
			 "HOMO_LUMO_gap": 0.17057, 
			 "cosmo_polarized_energy": -11.7, 
			 "cosmo_cavitation_energy": 25.72, 
			 "cosmo_dispersion_energy": -19.51, 
			 "cosmo_repulsion_energy": 1.57, 
			 "cosmo_total_nonelectrostatic_energy": 7.77, 
			 "SMD_solvation_energy": 3.33 
		},
		"coords": [
			{
				"x": -2.3033723781,
				"y": 2.1231022822,
				"z": -0.7399419981,
				"element": "C" 
			},
			{
				"x": -2.1370079969,
				"y": 1.0272695482,
				"z": 0.2681023116,
				"element": "C" 
			},
			{
				"x": -0.9948635809,
				"y": 0.6677586018,
				"z": 0.7819902369,
				"element": "N" 
			},
			{
				"x": -1.130954012,
				"y": -0.3757840844,
				"z": 1.6840106134,
				"element": "C" 
			},
			{
				"x": 0.0955196986,
				"y": -0.9076870822,
				"z": 2.3837046603,
				"element": "C" 
			},
			{
				"x": 1.1446016247,
				"y": -1.4539090275,
				"z": 1.4400971921,
				"element": "C" 
			},
			{
				"x": 1.7057281635,
				"y": -0.5819485556,
				"z": 0.540980986,
				"element": "N" 
			},
			{
				"x": 1.4761802351,
				"y": -2.6910016314,
				"z": 1.5981405906,
				"element": "N" 
			},
			{
				"x": 2.4824252822,
				"y": -3.031370159,
				"z": 0.6362248077,
				"element": "O" 
			},
			{
				"x": -2.4102629939,
				"y": -0.8179406464,
				"z": 1.8581445076,
				"element": "C" 
			},
			{
				"x": -3.5037206542,
				"y": 0.0966557394,
				"z": 0.8682466878,
				"element": "S" 
			},
			{
				"x": -2.7066427762,
				"y": 1.7421006138,
				"z": -1.6842230611,
				"element": "H" 
			},
			{
				"x": -2.9828941286,
				"y": 2.9019475554,
				"z": -0.3786788548,
				"element": "H" 
			},
			{
				"x": -1.3269419448,
				"y": 2.5719052815,
				"z": -0.9316351723,
				"element": "H" 
			},
			{
				"x": -0.1802617005,
				"y": -1.7070160951,
				"z": 3.0732216302,
				"element": "H" 
			},
			{
				"x": 0.546275295,
				"y": -0.0946752302,
				"z": 2.9690919356,
				"element": "H" 
			},
			{
				"x": 2.2401397889,
				"y": -1.0254024955,
				"z": -0.1931306946,
				"element": "H" 
			},
			{
				"x": 1.1127008435,
				"y": 0.1930481816,
				"z": 0.2677844565,
				"element": "H" 
			},
			{
				"x": 2.6185001962,
				"y": -3.9678257,
				"z": 0.8217140129,
				"element": "H" 
			},
			{
				"x": -2.7627489616,
				"y": -1.6142270967,
				"z": 2.4978551517,
				"element": "H" 
			}
		],
		 "valence_orbital": [ 
			{
				"type": "occ",
				"energy": -0.28758,
				"method": "rhf"
			},
			{
				"type": "occ",
				"energy": -0.28445,
				"method": "rhf"
			},
			{
				"type": "occ",
				"energy": -0.26116,
				"method": "rhf"
			},
			{
				"type": "occ",
				"energy": -0.24152,
				"method": "rhf"
			},
			{
				"type": "occ",
				"energy": -0.19997,
				"method": "rhf"
			},
			{
				"type": "unocc",
				"energy": -0.0294,
				"method": "rhf"
			},
			{
				"type": "unocc",
				"energy": 0.01295,
				"method": "rhf"
			},
			{
				"type": "unocc",
				"energy": 0.03564,
				"method": "rhf"
			},
			{
				"type": "unocc",
				"energy": 0.06348,
				"method": "rhf"
			},
			{
				"type": "unocc",
				"energy": 0.08452,
				"method": "rhf"
			}
		],
		"cosmo_sigma_profile": { 
			"-0.025": 0.0,
			"-0.024": 0.0,
			"-0.023": 0.0,
			"-0.022": 0.0,
			"-0.021": 0.0,
			"-0.02": 0.0,
			"-0.019": 0.0,
			"-0.018": 0.0,
			"-0.017": 0.0337769931204,
			"-0.016": 0.942847857189,
			"-0.015": 0.651335383329,
			"-0.014": 1.28047959221,
			"-0.013": 0.37685393427,
			"-0.012": 0.985249173119,
			"-0.011": 0.90635568758,
			"-0.01": 1.37038080226,
			"-0.009": 2.58516772371,
			"-0.008": 5.28425666631,
			"-0.007": 4.66983815856,
			"-0.006": 10.1025148558,
			"-0.005": 13.2877122399,
			"-0.004": 14.4165902521,
			"-0.003": 15.1353284874,
			"-0.002": 14.570852195,
			"-0.001": 14.3181832128,
			"0.0": 11.2310198129,
			"0.001": 15.4368063535,
			"0.002": 18.1537943616,
			"0.003": 14.9232099888,
			"0.004": 8.01528625557,
			"0.005": 4.2629764332,
			"0.006": 4.44596417729,
			"0.007": 4.57953650039,
			"0.008": 5.43915604997,
			"0.009": 5.32841925165,
			"0.01": 4.77868844442,
			"0.011": 2.90743843785,
			"0.012": 2.19267169542,
			"0.013": 1.18157501959,
			"0.014": 0.98940862436,
			"0.015": 0.985762004478,
			"0.016": 0.154808731224,
			"0.017": 0.0,
			"0.018": 0.0,
			"0.019": 0.0,
			"0.02": 0.0,
			"0.021": 0.0,
			"0.022": 0.0,
			"0.023": 0.0,
			"0.024": 0.0,
			"0.025": 0.0
		}
	}
}
