{
	 "smiles": "CC(=NNC(N)=O)C(=O)NC1=CC=C(Br)C=C1", 
	 "Tm": 517.15, 
	 "num_atms": 28, 
	 "gaussian": { 
		 "optdone": 1, 
		 "sigma_profile": "yes", 
		 "theory": "DFT", 
		 "functional": "B3LYP", 
		 "basiset": "6-31G**", 
		 "properties": { 
			 "R2extent": 9638.6468, 
			 "electric_dipole_moment_norm": 3.77983327013, 
			 "electric_quadrupole_moment_norm": 14.8996845141, 
			 "total_energy": -3328.56065404, 
			 "HOMO_LUMO_gap": 0.16703, 
			 "cosmo_polarized_energy": -19.77, 
			 "cosmo_cavitation_energy": 35.96, 
			 "cosmo_dispersion_energy": -26.1, 
			 "cosmo_repulsion_energy": 2.07, 
			 "cosmo_total_nonelectrostatic_energy": 11.92, 
			 "SMD_solvation_energy": 6.56 
		},
		"coords": [
			{
				"x": 1.3104445281,
				"y": -3.0712632962,
				"z": -2.4553477162,
				"element": "C" 
			},
			{
				"x": 1.4250699286,
				"y": -1.6526730731,
				"z": -1.9683588979,
				"element": "C" 
			},
			{
				"x": 1.5768902434,
				"y": -0.7205492219,
				"z": -2.8440173527,
				"element": "N" 
			},
			{
				"x": 1.7475982731,
				"y": 0.5851464505,
				"z": -2.4845703396,
				"element": "N" 
			},
			{
				"x": 2.0653843,
				"y": 1.5420087161,
				"z": -3.473326358,
				"element": "C" 
			},
			{
				"x": 1.8365492219,
				"y": 1.1296455185,
				"z": -4.7498975197,
				"element": "N" 
			},
			{
				"x": 2.4534481321,
				"y": 2.6486665911,
				"z": -3.135559665,
				"element": "O" 
			},
			{
				"x": 1.4064014582,
				"y": -1.4987774269,
				"z": -0.4575041239,
				"element": "C" 
			},
			{
				"x": 1.9390565817,
				"y": -2.3410940595,
				"z": 0.2538620501,
				"element": "O" 
			},
			{
				"x": 0.7182744161,
				"y": -0.4013688039,
				"z": 0.0101485335,
				"element": "N" 
			},
			{
				"x": 0.4522579689,
				"y": -0.0330246115,
				"z": 1.3484833817,
				"element": "C" 
			},
			{
				"x": 0.9606566683,
				"y": -0.7290642661,
				"z": 2.4557094404,
				"element": "C" 
			},
			{
				"x": 0.6536259984,
				"y": -0.2930607259,
				"z": 3.7442139933,
				"element": "C" 
			},
			{
				"x": -0.1521152024,
				"y": 0.8272300656,
				"z": 3.9330728997,
				"element": "C" 
			},
			{
				"x": -0.56511001,
				"y": 1.4122897977,
				"z": 5.7036415256,
				"element": "Br" 
			},
			{
				"x": -0.661195158,
				"y": 1.5275590024,
				"z": 2.840435585,
				"element": "C" 
			},
			{
				"x": -0.3570817022,
				"y": 1.0952889817,
				"z": 1.5537902486,
				"element": "C" 
			},
			{
				"x": 0.3626825595,
				"y": -3.5211800973,
				"z": -2.1373872847,
				"element": "H" 
			},
			{
				"x": 1.3740867149,
				"y": -3.0971964406,
				"z": -3.5440319964,
				"element": "H" 
			},
			{
				"x": 2.1103729076,
				"y": -3.6789347538,
				"z": -2.0222537084,
				"element": "H" 
			},
			{
				"x": 2.1094474148,
				"y": 0.836042804,
				"z": -1.5676510649,
				"element": "H" 
			},
			{
				"x": 2.1741676797,
				"y": 1.7341661425,
				"z": -5.4805936242,
				"element": "H" 
			},
			{
				"x": 1.6998388026,
				"y": 0.1459235284,
				"z": -4.9277017455,
				"element": "H" 
			},
			{
				"x": 0.2578608166,
				"y": 0.1663015221,
				"z": -0.6907263649,
				"element": "H" 
			},
			{
				"x": 1.5834336763,
				"y": -1.5984862143,
				"z": 2.3019747753,
				"element": "H" 
			},
			{
				"x": 1.0455271738,
				"y": -0.8307113621,
				"z": 4.6000963587,
				"element": "H" 
			},
			{
				"x": -1.2865190077,
				"y": 2.3999628598,
				"z": 2.990346997,
				"element": "H" 
			},
			{
				"x": -0.7524543843,
				"y": 1.6427523726,
				"z": 0.7014519731,
				"element": "H" 
			}
		],
		 "valence_orbital": [ 
			{
				"type": "occ",
				"energy": -0.27262,
				"method": "rhf"
			},
			{
				"type": "occ",
				"energy": -0.27167,
				"method": "rhf"
			},
			{
				"type": "occ",
				"energy": -0.27103,
				"method": "rhf"
			},
			{
				"type": "occ",
				"energy": -0.25187,
				"method": "rhf"
			},
			{
				"type": "occ",
				"energy": -0.23017,
				"method": "rhf"
			},
			{
				"type": "unocc",
				"energy": -0.06314,
				"method": "rhf"
			},
			{
				"type": "unocc",
				"energy": -0.02179,
				"method": "rhf"
			},
			{
				"type": "unocc",
				"energy": -0.01144,
				"method": "rhf"
			},
			{
				"type": "unocc",
				"energy": 0.00465,
				"method": "rhf"
			},
			{
				"type": "unocc",
				"energy": 0.03827,
				"method": "rhf"
			}
		],
		"cosmo_sigma_profile": { 
			"-0.025": 0.0,
			"-0.024": 0.0,
			"-0.023": 0.0,
			"-0.022": 0.0,
			"-0.021": 0.0,
			"-0.02": 0.0,
			"-0.019": 0.0,
			"-0.018": 0.0,
			"-0.017": 0.0,
			"-0.016": 0.0,
			"-0.015": 0.680080100784,
			"-0.014": 2.4919634757,
			"-0.013": 3.8412487116,
			"-0.012": 3.7833793004,
			"-0.011": 5.01353534913,
			"-0.01": 5.19856129807,
			"-0.009": 3.89498266181,
			"-0.008": 4.31064662257,
			"-0.007": 9.00685605284,
			"-0.006": 9.88030168408,
			"-0.005": 13.734205939,
			"-0.004": 13.5733265167,
			"-0.003": 16.6017442333,
			"-0.002": 17.7807698455,
			"-0.001": 20.6492369647,
			"0.0": 19.3436905914,
			"0.001": 20.0328961382,
			"0.002": 25.4377199208,
			"0.003": 28.4484505657,
			"0.004": 18.8102361251,
			"0.005": 12.8267426837,
			"0.006": 3.56577805633,
			"0.007": 3.15014894643,
			"0.008": 3.34322633638,
			"0.009": 3.10278684992,
			"0.01": 2.49441295837,
			"0.011": 4.18965713343,
			"0.012": 4.45220180651,
			"0.013": 4.647385574,
			"0.014": 5.63419882506,
			"0.015": 0.425849759648,
			"0.016": 0.0,
			"0.017": 0.0,
			"0.018": 0.0,
			"0.019": 0.0,
			"0.02": 0.0,
			"0.021": 0.0,
			"0.022": 0.0,
			"0.023": 0.0,
			"0.024": 0.0,
			"0.025": 0.0
		}
	}
}
