{
	 "smiles": "COC1=C(C=C(C=C1)C(O)=O)S(=O)(=O)NCC1=CC=C(Cl)C=C1", 
	 "Tm": 504.15, 
	 "num_atms": 37, 
	 "gaussian": { 
		 "optdone": 1, 
		 "sigma_profile": "yes", 
		 "theory": "DFT", 
		 "functional": "B3LYP", 
		 "basiset": "6-31G**", 
		 "properties": { 
			 "R2extent": 8831.3606, 
			 "electric_dipole_moment_norm": 5.37668785127, 
			 "electric_quadrupole_moment_norm": 28.5000927807, 
			 "total_energy": -1869.21910982, 
			 "HOMO_LUMO_gap": 0.18502, 
			 "cosmo_polarized_energy": -22.07, 
			 "cosmo_cavitation_energy": 44.75, 
			 "cosmo_dispersion_energy": -29.47, 
			 "cosmo_repulsion_energy": 2.24, 
			 "cosmo_total_nonelectrostatic_energy": 17.51, 
			 "SMD_solvation_energy": 7.61 
		},
		"coords": [
			{
				"x": -2.9975617891,
				"y": 1.9932315916,
				"z": 0.6365057629,
				"element": "C" 
			},
			{
				"x": -1.9065951529,
				"y": 1.0657095663,
				"z": 0.4753862794,
				"element": "O" 
			},
			{
				"x": -0.6684102977,
				"y": 1.6262473084,
				"z": 0.2858358944,
				"element": "C" 
			},
			{
				"x": 0.29223906,
				"y": 1.5220162857,
				"z": 1.3049526208,
				"element": "C" 
			},
			{
				"x": 1.5815532765,
				"y": 2.0040987981,
				"z": 1.1146233334,
				"element": "C" 
			},
			{
				"x": 1.9226516214,
				"y": 2.6110920539,
				"z": -0.1001679056,
				"element": "C" 
			},
			{
				"x": 0.9633946359,
				"y": 2.7241222315,
				"z": -1.1163415032,
				"element": "C" 
			},
			{
				"x": -0.3242367803,
				"y": 2.2296504214,
				"z": -0.9264599097,
				"element": "C" 
			},
			{
				"x": 3.3158497174,
				"y": 3.1048783909,
				"z": -0.2624084537,
				"element": "C" 
			},
			{
				"x": 3.5252464181,
				"y": 3.7080700405,
				"z": -1.4586805095,
				"element": "O" 
			},
			{
				"x": 4.191897173,
				"y": 2.9912923978,
				"z": 0.5707068989,
				"element": "O" 
			},
			{
				"x": -0.174691724,
				"y": 0.8323718574,
				"z": 2.9039714272,
				"element": "S" 
			},
			{
				"x": 1.0550477663,
				"y": 0.6583621028,
				"z": 3.6817504979,
				"element": "O" 
			},
			{
				"x": -1.284986419,
				"y": 1.6504541961,
				"z": 3.3950730983,
				"element": "O" 
			},
			{
				"x": -0.7908913809,
				"y": -0.6983769968,
				"z": 2.6265481151,
				"element": "N" 
			},
			{
				"x": 0.1054553972,
				"y": -1.8660317057,
				"z": 2.5304853303,
				"element": "C" 
			},
			{
				"x": 0.8648532477,
				"y": -2.0260000869,
				"z": 1.226670257,
				"element": "C" 
			},
			{
				"x": 2.1983170211,
				"y": -1.6108720092,
				"z": 1.1204676548,
				"element": "C" 
			},
			{
				"x": 2.9003418396,
				"y": -1.7424738095,
				"z": -0.0780719658,
				"element": "C" 
			},
			{
				"x": 2.2561799264,
				"y": -2.2973442274,
				"z": -1.1827560857,
				"element": "C" 
			},
			{
				"x": 3.1301299485,
				"y": -2.4691116758,
				"z": -2.6989960937,
				"element": "Cl" 
			},
			{
				"x": 0.9304799091,
				"y": -2.7243488115,
				"z": -1.1053911786,
				"element": "C" 
			},
			{
				"x": 0.2465034658,
				"y": -2.5869881558,
				"z": 0.1016898421,
				"element": "C" 
			},
			{
				"x": -3.9045954533,
				"y": 1.3882893616,
				"z": 0.6678991234,
				"element": "H" 
			},
			{
				"x": -2.8821473466,
				"y": 2.5426774455,
				"z": 1.574628588,
				"element": "H" 
			},
			{
				"x": -3.0505135823,
				"y": 2.6856881176,
				"z": -0.2102701098,
				"element": "H" 
			},
			{
				"x": 2.3200999146,
				"y": 1.9191829839,
				"z": 1.9037257847,
				"element": "H" 
			},
			{
				"x": 1.2349204952,
				"y": 3.1868090803,
				"z": -2.0580997603,
				"element": "H" 
			},
			{
				"x": -1.0640621385,
				"y": 2.2869247597,
				"z": -1.7183017974,
				"element": "H" 
			},
			{
				"x": 4.4567759725,
				"y": 3.9832328263,
				"z": -1.4582372582,
				"element": "H" 
			},
			{
				"x": -1.5431947467,
				"y": -0.6479034175,
				"z": 1.9433655233,
				"element": "H" 
			},
			{
				"x": -0.5329156536,
				"y": -2.7389340119,
				"z": 2.7039537804,
				"element": "H" 
			},
			{
				"x": 0.7973734804,
				"y": -1.7979758179,
				"z": 3.3712321456,
				"element": "H" 
			},
			{
				"x": 2.6930726567,
				"y": -1.175811161,
				"z": 1.9840668403,
				"element": "H" 
			},
			{
				"x": 3.9329509407,
				"y": -1.4202748607,
				"z": -0.1539418845,
				"element": "H" 
			},
			{
				"x": 0.4484552987,
				"y": -3.1626716603,
				"z": -1.9722523465,
				"element": "H" 
			},
			{
				"x": -0.7835867183,
				"y": -2.9304834092,
				"z": 0.1657379643,
				"element": "H" 
			}
		],
		 "valence_orbital": [ 
			{
				"type": "occ",
				"energy": -0.28409,
				"method": "rhf"
			},
			{
				"type": "occ",
				"energy": -0.27594,
				"method": "rhf"
			},
			{
				"type": "occ",
				"energy": -0.26764,
				"method": "rhf"
			},
			{
				"type": "occ",
				"energy": -0.26247,
				"method": "rhf"
			},
			{
				"type": "occ",
				"energy": -0.2491,
				"method": "rhf"
			},
			{
				"type": "unocc",
				"energy": -0.06408,
				"method": "rhf"
			},
			{
				"type": "unocc",
				"energy": -0.04101,
				"method": "rhf"
			},
			{
				"type": "unocc",
				"energy": -0.0232,
				"method": "rhf"
			},
			{
				"type": "unocc",
				"energy": -0.02072,
				"method": "rhf"
			},
			{
				"type": "unocc",
				"energy": 0.02464,
				"method": "rhf"
			}
		],
		"cosmo_sigma_profile": { 
			"-0.025": 0.0,
			"-0.024": 0.0,
			"-0.023": 0.0,
			"-0.022": 0.0,
			"-0.021": 0.0,
			"-0.02": 0.0,
			"-0.019": 0.120744899417,
			"-0.018": 0.94010387676,
			"-0.017": 1.038985232,
			"-0.016": 0.708991588434,
			"-0.015": 0.472393957874,
			"-0.014": 0.481461596631,
			"-0.013": 1.22206713112,
			"-0.012": 1.4487386437,
			"-0.011": 1.6868845562,
			"-0.01": 1.709262265,
			"-0.009": 2.03499219686,
			"-0.008": 5.28937228186,
			"-0.007": 14.5689038149,
			"-0.006": 21.7948545448,
			"-0.005": 20.0530314772,
			"-0.004": 22.2755602488,
			"-0.003": 26.9671112584,
			"-0.002": 22.5900533869,
			"-0.001": 24.4254458177,
			"0.0": 25.5910051452,
			"0.001": 31.1643853955,
			"0.002": 25.7329272144,
			"0.003": 23.8822539066,
			"0.004": 18.6544913947,
			"0.005": 13.9162626098,
			"0.006": 6.30651947034,
			"0.007": 6.62798097502,
			"0.008": 6.35313585811,
			"0.009": 6.69094479574,
			"0.01": 8.03300038379,
			"0.011": 11.5154421191,
			"0.012": 5.27800694009,
			"0.013": 0.0,
			"0.014": 0.0,
			"0.015": 0.0,
			"0.016": 0.0,
			"0.017": 0.0,
			"0.018": 0.0,
			"0.019": 0.0,
			"0.02": 0.0,
			"0.021": 0.0,
			"0.022": 0.0,
			"0.023": 0.0,
			"0.024": 0.0,
			"0.025": 0.0
		}
	}
}
