{
	 "smiles": "COC1=CC=C(C=NC2=NC(=NN2)C(F)(F)F)C=C1", 
	 "Tm": 444.15, 
	 "num_atms": 28, 
	 "gaussian": { 
		 "optdone": 1, 
		 "sigma_profile": "yes", 
		 "theory": "DFT", 
		 "functional": "B3LYP", 
		 "basiset": "6-31G**", 
		 "properties": { 
			 "R2extent": 10177.9919, 
			 "electric_dipole_moment_norm": 7.95514428593, 
			 "electric_quadrupole_moment_norm": 13.0135114727, 
			 "total_energy": -1018.31897502, 
			 "HOMO_LUMO_gap": 0.15024, 
			 "cosmo_polarized_energy": -14.52, 
			 "cosmo_cavitation_energy": 35.91, 
			 "cosmo_dispersion_energy": -25.87, 
			 "cosmo_repulsion_energy": 1.93, 
			 "cosmo_total_nonelectrostatic_energy": 11.97, 
			 "SMD_solvation_energy": 4.54 
		},
		"coords": [
			{
				"x": 5.2106004171,
				"y": 2.4053896285,
				"z": -2.1714882989,
				"element": "C" 
			},
			{
				"x": 3.9073608576,
				"y": 2.1564530862,
				"z": -2.6849624655,
				"element": "O" 
			},
			{
				"x": 2.9439170948,
				"y": 1.7177366663,
				"z": -1.8376259347,
				"element": "C" 
			},
			{
				"x": 1.6822324309,
				"y": 1.4936164783,
				"z": -2.4153902631,
				"element": "C" 
			},
			{
				"x": 0.6339271564,
				"y": 1.0447976446,
				"z": -1.6303062327,
				"element": "C" 
			},
			{
				"x": 0.80916333,
				"y": 0.8063996175,
				"z": -0.2520194701,
				"element": "C" 
			},
			{
				"x": -0.312718961,
				"y": 0.335799234,
				"z": 0.5409281275,
				"element": "C" 
			},
			{
				"x": -0.2197964781,
				"y": 0.0969709193,
				"z": 1.8084838596,
				"element": "N" 
			},
			{
				"x": -1.3502019057,
				"y": -0.3456393909,
				"z": 2.456477533,
				"element": "C" 
			},
			{
				"x": -2.5804894716,
				"y": -0.5849662141,
				"z": 2.0058622645,
				"element": "N" 
			},
			{
				"x": -3.2307364689,
				"y": -0.9954639099,
				"z": 3.1219021673,
				"element": "C" 
			},
			{
				"x": -2.5121765673,
				"y": -1.0343921544,
				"z": 4.2372418739,
				"element": "N" 
			},
			{
				"x": -1.3099752555,
				"y": -0.6141095454,
				"z": 3.7886888274,
				"element": "N" 
			},
			{
				"x": -4.6813424798,
				"y": -1.3832347215,
				"z": 3.098617928,
				"element": "C" 
			},
			{
				"x": -5.4500009129,
				"y": -0.3542880668,
				"z": 2.6856791138,
				"element": "F" 
			},
			{
				"x": -4.8941478672,
				"y": -2.4070292847,
				"z": 2.2462854833,
				"element": "F" 
			},
			{
				"x": -5.1071896419,
				"y": -1.7589142905,
				"z": 4.3154231375,
				"element": "F" 
			},
			{
				"x": 2.0767174473,
				"y": 1.0349767602,
				"z": 0.3119023373,
				"element": "C" 
			},
			{
				"x": 3.1369851783,
				"y": 1.4852144296,
				"z": -0.4638982918,
				"element": "C" 
			},
			{
				"x": 5.8056817655,
				"y": 2.7439340079,
				"z": -3.0202823755,
				"element": "H" 
			},
			{
				"x": 5.6589207513,
				"y": 1.4953798162,
				"z": -1.754687469,
				"element": "H" 
			},
			{
				"x": 5.1971308632,
				"y": 3.1880402629,
				"z": -1.4033065311,
				"element": "H" 
			},
			{
				"x": 1.5587879778,
				"y": 1.6803054922,
				"z": -3.4766756622,
				"element": "H" 
			},
			{
				"x": -0.3398450063,
				"y": 0.8730008904,
				"z": -2.0816918768,
				"element": "H" 
			},
			{
				"x": -1.2620369143,
				"y": 0.1870491485,
				"z": 0.0133857514,
				"element": "H" 
			},
			{
				"x": -0.5200454977,
				"y": -0.5304820888,
				"z": 4.4119703252,
				"element": "H" 
			},
			{
				"x": 2.2129721359,
				"y": 0.8519273681,
				"z": 1.3725611991,
				"element": "H" 
			},
			{
				"x": 4.1029060223,
				"y": 1.6530282165,
				"z": -0.0029750572,
				"element": "H" 
			}
		],
		 "valence_orbital": [ 
			{
				"type": "occ",
				"energy": -0.2905,
				"method": "rhf"
			},
			{
				"type": "occ",
				"energy": -0.28694,
				"method": "rhf"
			},
			{
				"type": "occ",
				"energy": -0.27445,
				"method": "rhf"
			},
			{
				"type": "occ",
				"energy": -0.2705,
				"method": "rhf"
			},
			{
				"type": "occ",
				"energy": -0.22693,
				"method": "rhf"
			},
			{
				"type": "unocc",
				"energy": -0.07669,
				"method": "rhf"
			},
			{
				"type": "unocc",
				"energy": -0.01954,
				"method": "rhf"
			},
			{
				"type": "unocc",
				"energy": 0.00646,
				"method": "rhf"
			},
			{
				"type": "unocc",
				"energy": 0.02331,
				"method": "rhf"
			},
			{
				"type": "unocc",
				"energy": 0.07954,
				"method": "rhf"
			}
		],
		"cosmo_sigma_profile": { 
			"-0.025": 0.0,
			"-0.024": 0.0,
			"-0.023": 0.0,
			"-0.022": 0.0,
			"-0.021": 0.0,
			"-0.02": 0.0,
			"-0.019": 0.0,
			"-0.018": 0.978088284475,
			"-0.017": 1.2133905526,
			"-0.016": 1.57926484993,
			"-0.015": 0.835922364203,
			"-0.014": 0.216994939491,
			"-0.013": 1.25633200939,
			"-0.012": 0.954396325528,
			"-0.011": 0.29723392847,
			"-0.01": 0.869664354528,
			"-0.009": 1.06301417713,
			"-0.008": 3.22396674582,
			"-0.007": 7.88237315713,
			"-0.006": 15.8142224416,
			"-0.005": 17.4341725309,
			"-0.004": 16.5547331,
			"-0.003": 14.8456669056,
			"-0.002": 17.4465254647,
			"-0.001": 19.1729112547,
			"0.0": 16.8967274135,
			"0.001": 18.4839524653,
			"0.002": 41.2604559656,
			"0.003": 40.8067940588,
			"0.004": 13.7974293581,
			"0.005": 7.1875134579,
			"0.006": 6.14931228689,
			"0.007": 5.05490490322,
			"0.008": 4.98655620478,
			"0.009": 4.87644760163,
			"0.01": 2.60901066639,
			"0.011": 1.99428026911,
			"0.012": 1.76248916826,
			"0.013": 1.0382351678,
			"0.014": 0.0824490035166,
			"0.015": 0.0,
			"0.016": 0.0,
			"0.017": 0.0,
			"0.018": 0.0,
			"0.019": 0.0,
			"0.02": 0.0,
			"0.021": 0.0,
			"0.022": 0.0,
			"0.023": 0.0,
			"0.024": 0.0,
			"0.025": 0.0
		}
	}
}
