{
	 "smiles": "CCOC=N/C1=C(C=NN1C1=C2C=NN(C)C2=NC=N1)C#N", 
	 "Tm": 428.15, 
	 "num_atms": 34, 
	 "gaussian": { 
		 "optdone": 1, 
		 "sigma_profile": "yes", 
		 "theory": "DFT", 
		 "functional": "B3LYP", 
		 "basiset": "6-31G**", 
		 "properties": { 
			 "R2extent": 8454.8291, 
			 "electric_dipole_moment_norm": 3.87428121979, 
			 "electric_quadrupole_moment_norm": 18.5985545667, 
			 "total_energy": -1015.78393153, 
			 "HOMO_LUMO_gap": 0.16751, 
			 "cosmo_polarized_energy": -17.99, 
			 "cosmo_cavitation_energy": 40.87, 
			 "cosmo_dispersion_energy": -28.27, 
			 "cosmo_repulsion_energy": 2.15, 
			 "cosmo_total_nonelectrostatic_energy": 14.76, 
			 "SMD_solvation_energy": 4.68 
		},
		"coords": [
			{
				"x": -4.0651694153,
				"y": -0.1748687247,
				"z": 3.3377775062,
				"element": "C" 
			},
			{
				"x": -4.0954433386,
				"y": -0.6716582441,
				"z": 1.9053407213,
				"element": "C" 
			},
			{
				"x": -2.7449639608,
				"y": -0.5979975876,
				"z": 1.3860631612,
				"element": "O" 
			},
			{
				"x": -2.4461990745,
				"y": -1.3447443956,
				"z": 0.3207980541,
				"element": "C" 
			},
			{
				"x": -1.2868260288,
				"y": -1.4308154133,
				"z": -0.2007924038,
				"element": "N" 
			},
			{
				"x": -0.1753395908,
				"y": -0.8728841466,
				"z": 0.3788342648,
				"element": "C" 
			},
			{
				"x": 0.3572004276,
				"y": -1.0041308316,
				"z": 1.6682284643,
				"element": "C" 
			},
			{
				"x": 1.6458639552,
				"y": -0.4043454071,
				"z": 1.6008881747,
				"element": "C" 
			},
			{
				"x": 1.9089467652,
				"y": 0.0701773054,
				"z": 0.4028994798,
				"element": "N" 
			},
			{
				"x": 0.7953669074,
				"y": -0.2155796766,
				"z": -0.349602917,
				"element": "N" 
			},
			{
				"x": 0.7608679664,
				"y": 0.2171573555,
				"z": -1.6886301035,
				"element": "C" 
			},
			{
				"x": 1.9424590524,
				"y": 0.5640760051,
				"z": -2.3705420699,
				"element": "C" 
			},
			{
				"x": 3.3538772439,
				"y": 0.6519013457,
				"z": -2.1888435666,
				"element": "C" 
			},
			{
				"x": 3.9453036294,
				"y": 1.0580486027,
				"z": -3.2987883089,
				"element": "N" 
			},
			{
				"x": 2.963100518,
				"y": 1.2470017335,
				"z": -4.2276423889,
				"element": "N" 
			},
			{
				"x": 3.2824789479,
				"y": 1.6993040888,
				"z": -5.5671977838,
				"element": "C" 
			},
			{
				"x": 1.7374764021,
				"y": 0.9634626103,
				"z": -3.7156041846,
				"element": "C" 
			},
			{
				"x": 0.5581214548,
				"y": 1.0347344882,
				"z": -4.3516949036,
				"element": "N" 
			},
			{
				"x": -0.4596927592,
				"y": 0.6868458958,
				"z": -3.572858985,
				"element": "C" 
			},
			{
				"x": -0.4234395414,
				"y": 0.2934168182,
				"z": -2.2820737528,
				"element": "N" 
			},
			{
				"x": -0.2520355949,
				"y": -1.6359507846,
				"z": 2.7770486903,
				"element": "C" 
			},
			{
				"x": -0.7559211627,
				"y": -2.1514739662,
				"z": 3.692357241,
				"element": "N" 
			},
			{
				"x": -5.0719931006,
				"y": -0.2177056179,
				"z": 3.764516566,
				"element": "H" 
			},
			{
				"x": -3.3955629574,
				"y": -0.7934173413,
				"z": 3.9403266151,
				"element": "H" 
			},
			{
				"x": -3.7160253826,
				"y": 0.8604485566,
				"z": 3.3796373362,
				"element": "H" 
			},
			{
				"x": -4.4427995679,
				"y": -1.7099272381,
				"z": 1.8538017879,
				"element": "H" 
			},
			{
				"x": -4.7436286529,
				"y": -0.0526598191,
				"z": 1.2735421854,
				"element": "H" 
			},
			{
				"x": -3.2691151265,
				"y": -1.9036272707,
				"z": -0.1288284558,
				"element": "H" 
			},
			{
				"x": 2.3696788971,
				"y": -0.3094016285,
				"z": 2.3990129188,
				"element": "H" 
			},
			{
				"x": 3.9271575711,
				"y": 0.4444777285,
				"z": -1.2990837492,
				"element": "H" 
			},
			{
				"x": 3.7686664223,
				"y": 2.6776017796,
				"z": -5.5290004918,
				"element": "H" 
			},
			{
				"x": 3.95058708,
				"y": 0.9856529304,
				"z": -6.0561401722,
				"element": "H" 
			},
			{
				"x": 2.3476905216,
				"y": 1.7722833016,
				"z": -6.1240028211,
				"element": "H" 
			},
			{
				"x": -1.4500885074,
				"y": 0.7273975479,
				"z": -4.0201461085,
				"element": "H" 
			}
		],
		 "valence_orbital": [ 
			{
				"type": "occ",
				"energy": -0.28236,
				"method": "rhf"
			},
			{
				"type": "occ",
				"energy": -0.26607,
				"method": "rhf"
			},
			{
				"type": "occ",
				"energy": -0.2636,
				"method": "rhf"
			},
			{
				"type": "occ",
				"energy": -0.24213,
				"method": "rhf"
			},
			{
				"type": "occ",
				"energy": -0.23804,
				"method": "rhf"
			},
			{
				"type": "unocc",
				"energy": -0.07053,
				"method": "rhf"
			},
			{
				"type": "unocc",
				"energy": -0.03104,
				"method": "rhf"
			},
			{
				"type": "unocc",
				"energy": -0.01126,
				"method": "rhf"
			},
			{
				"type": "unocc",
				"energy": 0.00579,
				"method": "rhf"
			},
			{
				"type": "unocc",
				"energy": 0.02761,
				"method": "rhf"
			}
		],
		"cosmo_sigma_profile": { 
			"-0.025": 0.0,
			"-0.024": 0.0,
			"-0.023": 0.0,
			"-0.022": 0.0,
			"-0.021": 0.0,
			"-0.02": 0.0,
			"-0.019": 0.0,
			"-0.018": 0.0,
			"-0.017": 0.0,
			"-0.016": 0.0,
			"-0.015": 0.0,
			"-0.014": 0.0,
			"-0.013": 0.0,
			"-0.012": 0.0,
			"-0.011": 0.394799980961,
			"-0.01": 4.79712354034,
			"-0.009": 5.18428937332,
			"-0.008": 6.39377055605,
			"-0.007": 11.0032237537,
			"-0.006": 17.0878951757,
			"-0.005": 20.5077782816,
			"-0.004": 22.4143740523,
			"-0.003": 27.3326117404,
			"-0.002": 30.7463382049,
			"-0.001": 29.2746520237,
			"0.0": 27.4555261081,
			"0.001": 18.2169545176,
			"0.002": 14.2600752585,
			"0.003": 14.6923870336,
			"0.004": 14.1729507752,
			"0.005": 11.7360573794,
			"0.006": 8.92861095376,
			"0.007": 7.46065970183,
			"0.008": 8.05387318255,
			"0.009": 7.3742386154,
			"0.01": 6.06122801688,
			"0.011": 6.61816701256,
			"0.012": 4.88910137908,
			"0.013": 3.73804863406,
			"0.014": 0.902679213437,
			"0.015": 0.00676947802893,
			"0.016": 0.0,
			"0.017": 0.0,
			"0.018": 0.0,
			"0.019": 0.0,
			"0.02": 0.0,
			"0.021": 0.0,
			"0.022": 0.0,
			"0.023": 0.0,
			"0.024": 0.0,
			"0.025": 0.0
		}
	}
}
