{
	 "smiles": "CCCCC(C)O", 
	 "Tm": 250.15, 
	 "num_atms": 21, 
	 "gaussian": { 
		 "optdone": 1, 
		 "sigma_profile": "yes", 
		 "theory": "DFT", 
		 "functional": "B3LYP", 
		 "basiset": "6-31G**", 
		 "properties": { 
			 "R2extent": 1152.923, 
			 "electric_dipole_moment_norm": 1.63259545816, 
			 "electric_quadrupole_moment_norm": 5.74357651642, 
			 "total_energy": -312.307136506, 
			 "HOMO_LUMO_gap": 0.32638, 
			 "cosmo_polarized_energy": -5.72, 
			 "cosmo_cavitation_energy": 22.06, 
			 "cosmo_dispersion_energy": -16.05, 
			 "cosmo_repulsion_energy": 1.38, 
			 "cosmo_total_nonelectrostatic_energy": 7.39, 
			 "SMD_solvation_energy": 3.54 
		},
		"coords": [
			{
				"x": 1.5974941282,
				"y": 2.3035911096,
				"z": 1.1467254352,
				"element": "C" 
			},
			{
				"x": 0.4388268648,
				"y": 1.8313944341,
				"z": 0.2626857384,
				"element": "C" 
			},
			{
				"x": -0.3682347221,
				"y": 0.6871223397,
				"z": 0.8952197078,
				"element": "C" 
			},
			{
				"x": -1.5637932307,
				"y": 0.1801216746,
				"z": 0.0602345787,
				"element": "C" 
			},
			{
				"x": -1.2946002469,
				"y": -1.0118843927,
				"z": -0.881309469,
				"element": "C" 
			},
			{
				"x": -0.236211749,
				"y": -0.7671295603,
				"z": -1.9598325278,
				"element": "C" 
			},
			{
				"x": -0.9973997119,
				"y": -2.1992737388,
				"z": -0.1425386846,
				"element": "O" 
			},
			{
				"x": 2.1434487481,
				"y": 3.1320192609,
				"z": 0.6836490147,
				"element": "H" 
			},
			{
				"x": 2.3143102797,
				"y": 1.4942396062,
				"z": 1.328101119,
				"element": "H" 
			},
			{
				"x": 1.2366035015,
				"y": 2.6473277571,
				"z": 2.1229740774,
				"element": "H" 
			},
			{
				"x": 0.8279998525,
				"y": 1.5274177295,
				"z": -0.7159570996,
				"element": "H" 
			},
			{
				"x": -0.2394714583,
				"y": 2.6732908359,
				"z": 0.0680358775,
				"element": "H" 
			},
			{
				"x": 0.3065988911,
				"y": -0.1489762418,
				"z": 1.1342930631,
				"element": "H" 
			},
			{
				"x": -0.7396106312,
				"y": 1.0331617823,
				"z": 1.8682914868,
				"element": "H" 
			},
			{
				"x": -2.3607986891,
				"y": -0.146781578,
				"z": 0.7373976522,
				"element": "H" 
			},
			{
				"x": -1.9782837285,
				"y": 1.0108872578,
				"z": -0.5272623926,
				"element": "H" 
			},
			{
				"x": -2.2435491658,
				"y": -1.242745989,
				"z": -1.3810090787,
				"element": "H" 
			},
			{
				"x": 0.7532702178,
				"y": -0.6021534164,
				"z": -1.517132861,
				"element": "H" 
			},
			{
				"x": -0.4787360697,
				"y": 0.1088780424,
				"z": -2.5708496113,
				"element": "H" 
			},
			{
				"x": -0.1661250345,
				"y": -1.63960778,
				"z": -2.6158298965,
				"element": "H" 
			},
			{
				"x": -0.120638046,
				"y": -2.0887991332,
				"z": 0.2488138702,
				"element": "H" 
			}
		],
		 "valence_orbital": [ 
			{
				"type": "occ",
				"energy": -0.3348,
				"method": "rhf"
			},
			{
				"type": "occ",
				"energy": -0.32853,
				"method": "rhf"
			},
			{
				"type": "occ",
				"energy": -0.31581,
				"method": "rhf"
			},
			{
				"type": "occ",
				"energy": -0.30285,
				"method": "rhf"
			},
			{
				"type": "occ",
				"energy": -0.25951,
				"method": "rhf"
			},
			{
				"type": "unocc",
				"energy": 0.06687,
				"method": "rhf"
			},
			{
				"type": "unocc",
				"energy": 0.09965,
				"method": "rhf"
			},
			{
				"type": "unocc",
				"energy": 0.10422,
				"method": "rhf"
			},
			{
				"type": "unocc",
				"energy": 0.12263,
				"method": "rhf"
			},
			{
				"type": "unocc",
				"energy": 0.1324,
				"method": "rhf"
			}
		],
		"cosmo_sigma_profile": { 
			"-0.025": 0.0,
			"-0.024": 0.0,
			"-0.023": 0.0,
			"-0.022": 0.0,
			"-0.021": 0.0,
			"-0.02": 0.0,
			"-0.019": 0.0,
			"-0.018": 0.0,
			"-0.017": 0.0,
			"-0.016": 0.0,
			"-0.015": 0.0,
			"-0.014": 0.280844406077,
			"-0.013": 0.795199438162,
			"-0.012": 0.99644756438,
			"-0.011": 1.41672920114,
			"-0.01": 0.776220487448,
			"-0.009": 0.85137395673,
			"-0.008": 1.18946675731,
			"-0.007": 0.92459320231,
			"-0.006": 1.41095008635,
			"-0.005": 1.61043546368,
			"-0.004": 2.71665330845,
			"-0.003": 11.3996266742,
			"-0.002": 27.925711832,
			"-0.001": 30.9625227145,
			"0.0": 29.0586570053,
			"0.001": 26.1743875349,
			"0.002": 12.1809646443,
			"0.003": 2.04777001094,
			"0.004": 1.81748118779,
			"0.005": 0.88246109947,
			"0.006": 0.900703561289,
			"0.007": 1.26752751952,
			"0.008": 1.20566045045,
			"0.009": 1.29684914479,
			"0.01": 1.27381781735,
			"0.011": 1.24430890812,
			"0.012": 0.61052171171,
			"0.013": 1.82108573096,
			"0.014": 1.88886530771,
			"0.015": 2.11636323696,
			"0.016": 0.100695885841,
			"0.017": 0.0,
			"0.018": 0.0,
			"0.019": 0.0,
			"0.02": 0.0,
			"0.021": 0.0,
			"0.022": 0.0,
			"0.023": 0.0,
			"0.024": 0.0,
			"0.025": 0.0
		}
	}
}
