{
	 "smiles": "CN1C=C(C(O)=O)C(=N1)C1=CC=C(N)C=C1", 
	 "Tm": 500.15, 
	 "num_atms": 27, 
	 "gaussian": { 
		 "optdone": 1, 
		 "sigma_profile": "yes", 
		 "theory": "DFT", 
		 "functional": "B3LYP", 
		 "basiset": "6-31G**", 
		 "properties": { 
			 "R2extent": 4635.883, 
			 "electric_dipole_moment_norm": 2.48983279358, 
			 "electric_quadrupole_moment_norm": 25.9010719933, 
			 "total_energy": -740.510290121, 
			 "HOMO_LUMO_gap": 0.16286, 
			 "cosmo_polarized_energy": -18.86, 
			 "cosmo_cavitation_energy": 31.55, 
			 "cosmo_dispersion_energy": -23.33, 
			 "cosmo_repulsion_energy": 1.81, 
			 "cosmo_total_nonelectrostatic_energy": 10.03, 
			 "SMD_solvation_energy": 5.96 
		},
		"coords": [
			{
				"x": 4.5841768473,
				"y": 0.7621235522,
				"z": 0.1127132606,
				"element": "C" 
			},
			{
				"x": 3.1515299023,
				"y": 0.8302239028,
				"z": 0.329559976,
				"element": "N" 
			},
			{
				"x": 2.3733998592,
				"y": 1.918832324,
				"z": 0.4254344702,
				"element": "C" 
			},
			{
				"x": 1.0725366278,
				"y": 1.4767867189,
				"z": 0.6563783048,
				"element": "C" 
			},
			{
				"x": -0.0526573413,
				"y": 2.4025989982,
				"z": 0.7779019123,
				"element": "C" 
			},
			{
				"x": 0.346326569,
				"y": 3.6954443892,
				"z": 0.5788986162,
				"element": "O" 
			},
			{
				"x": -1.2197424942,
				"y": 2.1509843464,
				"z": 1.0220912069,
				"element": "O" 
			},
			{
				"x": 1.1769071381,
				"y": 0.0374093017,
				"z": 0.682832901,
				"element": "C" 
			},
			{
				"x": 2.4530622494,
				"y": -0.3185890946,
				"z": 0.4842586752,
				"element": "N" 
			},
			{
				"x": 0.185100689,
				"y": -1.0403833871,
				"z": 0.858099112,
				"element": "C" 
			},
			{
				"x": 0.541653598,
				"y": -2.3540820496,
				"z": 0.4927418167,
				"element": "C" 
			},
			{
				"x": -0.3338598366,
				"y": -3.4163439325,
				"z": 0.6587260479,
				"element": "C" 
			},
			{
				"x": -1.6148328777,
				"y": -3.2113952016,
				"z": 1.2041248433,
				"element": "C" 
			},
			{
				"x": -2.4790670632,
				"y": -4.283712356,
				"z": 1.420459706,
				"element": "N" 
			},
			{
				"x": -1.9752059246,
				"y": -1.9051740279,
				"z": 1.5716832529,
				"element": "C" 
			},
			{
				"x": -1.094444104,
				"y": -0.8421324141,
				"z": 1.4027037123,
				"element": "C" 
			},
			{
				"x": 5.0697288647,
				"y": 0.2852079321,
				"z": 0.9680988894,
				"element": "H" 
			},
			{
				"x": 4.9729969308,
				"y": 1.7739842712,
				"z": -0.010585574,
				"element": "H" 
			},
			{
				"x": 4.7951811671,
				"y": 0.1770995525,
				"z": -0.7858683521,
				"element": "H" 
			},
			{
				"x": 2.7580187666,
				"y": 2.9223817053,
				"z": 0.3280295546,
				"element": "H" 
			},
			{
				"x": -0.4587296807,
				"y": 4.2265463328,
				"z": 0.6894339513,
				"element": "H" 
			},
			{
				"x": 1.5246335048,
				"y": -2.5307131634,
				"z": 0.0706482582,
				"element": "H" 
			},
			{
				"x": -0.0301725189,
				"y": -4.4185862153,
				"z": 0.3649301223,
				"element": "H" 
			},
			{
				"x": -3.4590564513,
				"y": -4.0437630422,
				"z": 1.4783280015,
				"element": "H" 
			},
			{
				"x": -2.3191849531,
				"y": -5.0931368689,
				"z": 0.8369233752,
				"element": "H" 
			},
			{
				"x": -2.9585655894,
				"y": -1.7219442301,
				"z": 1.9986493232,
				"element": "H" 
			},
			{
				"x": -1.4089338793,
				"y": 0.1550326562,
				"z": 1.6803046362,
				"element": "H" 
			}
		],
		 "valence_orbital": [ 
			{
				"type": "occ",
				"energy": -0.26671,
				"method": "rhf"
			},
			{
				"type": "occ",
				"energy": -0.2567,
				"method": "rhf"
			},
			{
				"type": "occ",
				"energy": -0.25124,
				"method": "rhf"
			},
			{
				"type": "occ",
				"energy": -0.2338,
				"method": "rhf"
			},
			{
				"type": "occ",
				"energy": -0.18533,
				"method": "rhf"
			},
			{
				"type": "unocc",
				"energy": -0.02247,
				"method": "rhf"
			},
			{
				"type": "unocc",
				"energy": -0.00337,
				"method": "rhf"
			},
			{
				"type": "unocc",
				"energy": 0.01748,
				"method": "rhf"
			},
			{
				"type": "unocc",
				"energy": 0.05662,
				"method": "rhf"
			},
			{
				"type": "unocc",
				"energy": 0.08728,
				"method": "rhf"
			}
		],
		"cosmo_sigma_profile": { 
			"-0.025": 0.0,
			"-0.024": 0.0,
			"-0.023": 0.0,
			"-0.022": 0.0,
			"-0.021": 0.0,
			"-0.02": 0.0,
			"-0.019": 0.0,
			"-0.018": 0.208852115542,
			"-0.017": 0.920397010474,
			"-0.016": 1.04019296632,
			"-0.015": 0.450946368665,
			"-0.014": 0.879023267529,
			"-0.013": 1.70252844874,
			"-0.012": 3.17183926784,
			"-0.011": 2.6428284831,
			"-0.01": 5.49364808113,
			"-0.009": 5.92484365302,
			"-0.008": 6.15805844059,
			"-0.007": 7.83713307486,
			"-0.006": 12.5386034883,
			"-0.005": 13.7547500759,
			"-0.004": 15.4766610293,
			"-0.003": 14.1311648435,
			"-0.002": 9.66852293115,
			"-0.001": 11.6135747542,
			"0.0": 13.2165713417,
			"0.001": 14.8313672929,
			"0.002": 15.3759559841,
			"0.003": 15.5995779052,
			"0.004": 12.9183080889,
			"0.005": 14.4172222935,
			"0.006": 18.4042102136,
			"0.007": 10.080291619,
			"0.008": 5.19357914661,
			"0.009": 4.36129509093,
			"0.01": 3.09236474382,
			"0.011": 4.66583474476,
			"0.012": 4.03699427286,
			"0.013": 1.3148686457,
			"0.014": 0.564814462753,
			"0.015": 0.00599928939461,
			"0.016": 0.0,
			"0.017": 0.0,
			"0.018": 0.0,
			"0.019": 0.0,
			"0.02": 0.0,
			"0.021": 0.0,
			"0.022": 0.0,
			"0.023": 0.0,
			"0.024": 0.0,
			"0.025": 0.0
		}
	}
}
