{
	 "smiles": "CC1CCC(C)(COC(=O)C2C3CCC(C)(C2=O)C3(C)C)C1(C)C", 
	 "Tm": 419.15, 
	 "num_atms": 58, 
	 "gaussian": { 
		 "optdone": 1, 
		 "sigma_profile": "yes", 
		 "theory": "DFT", 
		 "functional": "B3LYP", 
		 "basiset": "6-31G**", 
		 "properties": { 
			 "R2extent": 12114.6406, 
			 "electric_dipole_moment_norm": 3.39416590196, 
			 "electric_quadrupole_moment_norm": 18.3356299, 
			 "total_energy": -1046.42468891, 
			 "HOMO_LUMO_gap": 0.21985, 
			 "cosmo_polarized_energy": -11.45, 
			 "cosmo_cavitation_energy": 51.96, 
			 "cosmo_dispersion_energy": -35.0, 
			 "cosmo_repulsion_energy": 2.61, 
			 "cosmo_total_nonelectrostatic_energy": 19.56, 
			 "SMD_solvation_energy": 9.33 
		},
		"coords": [
			{
				"x": -2.8231382637,
				"y": 1.5354250641,
				"z": 5.4035058835,
				"element": "C" 
			},
			{
				"x": -3.5695478547,
				"y": 0.9042578093,
				"z": 4.2165154608,
				"element": "C" 
			},
			{
				"x": -3.5501067397,
				"y": 1.8251657056,
				"z": 2.9801949154,
				"element": "C" 
			},
			{
				"x": -2.2252375241,
				"y": 1.4979620555,
				"z": 2.2666209055,
				"element": "C" 
			},
			{
				"x": -1.8586515262,
				"y": 0.0155177546,
				"z": 2.6226972828,
				"element": "C" 
			},
			{
				"x": -0.4314169191,
				"y": -0.0417194978,
				"z": 3.2110173684,
				"element": "C" 
			},
			{
				"x": -1.8752955851,
				"y": -0.8650901496,
				"z": 1.3636174431,
				"element": "C" 
			},
			{
				"x": -0.8517458092,
				"y": -0.384602184,
				"z": 0.4548838644,
				"element": "O" 
			},
			{
				"x": -0.7309739893,
				"y": -1.0592717097,
				"z": -0.7071239721,
				"element": "C" 
			},
			{
				"x": -1.4211496545,
				"y": -2.0139474401,
				"z": -1.0038921928,
				"element": "O" 
			},
			{
				"x": 0.3614562708,
				"y": -0.4643057089,
				"z": -1.5713888663,
				"element": "C" 
			},
			{
				"x": -0.0790425856,
				"y": 0.2946717788,
				"z": -2.8600619685,
				"element": "C" 
			},
			{
				"x": -1.0104404857,
				"y": -0.6197594238,
				"z": -3.6878521914,
				"element": "C" 
			},
			{
				"x": -0.0431249034,
				"y": -1.7342252629,
				"z": -4.1844987251,
				"element": "C" 
			},
			{
				"x": 1.3710927698,
				"y": -1.2809699865,
				"z": -3.6790343524,
				"element": "C" 
			},
			{
				"x": 2.5482402979,
				"y": -1.9512775797,
				"z": -4.365310265,
				"element": "C" 
			},
			{
				"x": 1.3026122324,
				"y": -1.54378331,
				"z": -2.172527979,
				"element": "C" 
			},
			{
				"x": 1.8709507631,
				"y": -2.4109927382,
				"z": -1.5497683236,
				"element": "O" 
			},
			{
				"x": 1.2446045983,
				"y": 0.2847061466,
				"z": -3.7039061084,
				"element": "C" 
			},
			{
				"x": 1.0744080297,
				"y": 0.8830958816,
				"z": -5.1111742998,
				"element": "C" 
			},
			{
				"x": 2.4333088154,
				"y": 1.0119013929,
				"z": -3.0443922958,
				"element": "C" 
			},
			{
				"x": -2.9875763041,
				"y": -0.4449398684,
				"z": 3.6648900976,
				"element": "C" 
			},
			{
				"x": -2.4652149418,
				"y": -1.3800693901,
				"z": 4.7700540654,
				"element": "C" 
			},
			{
				"x": -4.1576040364,
				"y": -1.1958534763,
				"z": 2.9766135515,
				"element": "C" 
			},
			{
				"x": -1.7901780287,
				"y": 1.8025382061,
				"z": 5.1600343963,
				"element": "H" 
			},
			{
				"x": -2.800296157,
				"y": 0.8730579049,
				"z": 6.2737739661,
				"element": "H" 
			},
			{
				"x": -3.3312769029,
				"y": 2.4569200484,
				"z": 5.7084446913,
				"element": "H" 
			},
			{
				"x": -4.6016426002,
				"y": 0.7291095768,
				"z": 4.5475612382,
				"element": "H" 
			},
			{
				"x": -4.4017252977,
				"y": 1.6020345459,
				"z": 2.3284127697,
				"element": "H" 
			},
			{
				"x": -3.6308288221,
				"y": 2.8845678161,
				"z": 3.246886638,
				"element": "H" 
			},
			{
				"x": -2.2864497811,
				"y": 1.6517508419,
				"z": 1.1849211838,
				"element": "H" 
			},
			{
				"x": -1.430910361,
				"y": 2.1636538778,
				"z": 2.6205693823,
				"element": "H" 
			},
			{
				"x": -0.3458128977,
				"y": 0.5451080212,
				"z": 4.1285987604,
				"element": "H" 
			},
			{
				"x": 0.2800624373,
				"y": 0.3648651784,
				"z": 2.4879860168,
				"element": "H" 
			},
			{
				"x": -0.1213326444,
				"y": -1.0671759955,
				"z": 3.4365372091,
				"element": "H" 
			},
			{
				"x": -1.6610712915,
				"y": -1.9139707115,
				"z": 1.5935606887,
				"element": "H" 
			},
			{
				"x": -2.8303943633,
				"y": -0.8271031371,
				"z": 0.8364888588,
				"element": "H" 
			},
			{
				"x": 0.9581336512,
				"y": 0.194228767,
				"z": -0.9353228688,
				"element": "H" 
			},
			{
				"x": -0.4854567379,
				"y": 1.2888802644,
				"z": -2.6521123872,
				"element": "H" 
			},
			{
				"x": -1.829498184,
				"y": -1.0257300203,
				"z": -3.0946825426,
				"element": "H" 
			},
			{
				"x": -1.4503625888,
				"y": -0.0638315579,
				"z": -4.5198641432,
				"element": "H" 
			},
			{
				"x": -0.30980715,
				"y": -2.7176925672,
				"z": -3.787587211,
				"element": "H" 
			},
			{
				"x": -0.0297779291,
				"y": -1.8177708002,
				"z": -5.2758045216,
				"element": "H" 
			},
			{
				"x": 2.5204501721,
				"y": -1.7896308756,
				"z": -5.4477723332,
				"element": "H" 
			},
			{
				"x": 2.5305538629,
				"y": -3.0291570549,
				"z": -4.1786693918,
				"element": "H" 
			},
			{
				"x": 3.5027079679,
				"y": -1.5741149928,
				"z": -3.9847445372,
				"element": "H" 
			},
			{
				"x": 2.0071902791,
				"y": 0.7938808037,
				"z": -5.6777959046,
				"element": "H" 
			},
			{
				"x": 0.2870833533,
				"y": 0.4104143858,
				"z": -5.7002134085,
				"element": "H" 
			},
			{
				"x": 0.8385303757,
				"y": 1.9512276316,
				"z": -5.0392747853,
				"element": "H" 
			},
			{
				"x": 2.7324376823,
				"y": 0.5932602848,
				"z": -2.0800789291,
				"element": "H" 
			},
			{
				"x": 3.3126166257,
				"y": 0.9670090228,
				"z": -3.6950980849,
				"element": "H" 
			},
			{
				"x": 2.1973334498,
				"y": 2.0708791762,
				"z": -2.8897345592,
				"element": "H" 
			},
			{
				"x": -1.6489675104,
				"y": -0.9476929532,
				"z": 5.351112878,
				"element": "H" 
			},
			{
				"x": -2.1069558931,
				"y": -2.3259887016,
				"z": 4.3481261278,
				"element": "H" 
			},
			{
				"x": -3.2741370628,
				"y": -1.6243087339,
				"z": 5.4681289069,
				"element": "H" 
			},
			{
				"x": -4.6408227488,
				"y": -0.6093651811,
				"z": 2.1900069414,
				"element": "H" 
			},
			{
				"x": -4.9240124887,
				"y": -1.430408752,
				"z": 3.7229305239,
				"element": "H" 
			},
			{
				"x": -3.8384890703,
				"y": -2.1458401821,
				"z": 2.5369951324,
				"element": "H" 
			}
		],
		 "valence_orbital": [ 
			{
				"type": "occ",
				"energy": -0.30039,
				"method": "rhf"
			},
			{
				"type": "occ",
				"energy": -0.29439,
				"method": "rhf"
			},
			{
				"type": "occ",
				"energy": -0.29304,
				"method": "rhf"
			},
			{
				"type": "occ",
				"energy": -0.26673,
				"method": "rhf"
			},
			{
				"type": "occ",
				"energy": -0.23543,
				"method": "rhf"
			},
			{
				"type": "unocc",
				"energy": -0.01558,
				"method": "rhf"
			},
			{
				"type": "unocc",
				"energy": 0.00782,
				"method": "rhf"
			},
			{
				"type": "unocc",
				"energy": 0.06737,
				"method": "rhf"
			},
			{
				"type": "unocc",
				"energy": 0.07083,
				"method": "rhf"
			},
			{
				"type": "unocc",
				"energy": 0.09823,
				"method": "rhf"
			}
		],
		"cosmo_sigma_profile": { 
			"-0.025": 0.0,
			"-0.024": 0.0,
			"-0.023": 0.0,
			"-0.022": 0.0,
			"-0.021": 0.0,
			"-0.02": 0.0,
			"-0.019": 0.0,
			"-0.018": 0.0,
			"-0.017": 0.0,
			"-0.016": 0.0,
			"-0.015": 0.0,
			"-0.014": 0.0,
			"-0.013": 0.0,
			"-0.012": 0.0,
			"-0.011": 0.0,
			"-0.01": 0.0,
			"-0.009": 0.0,
			"-0.008": 0.0666857899142,
			"-0.007": 1.48430462627,
			"-0.006": 1.50826229678,
			"-0.005": 4.77039134657,
			"-0.004": 22.0383126329,
			"-0.003": 49.270261422,
			"-0.002": 68.3532492379,
			"-0.001": 62.0841787606,
			"0.0": 62.2275247317,
			"0.001": 52.7765245896,
			"0.002": 24.0361771293,
			"0.003": 6.54175133583,
			"0.004": 5.83402658441,
			"0.005": 5.2812008367,
			"0.006": 4.18834002227,
			"0.007": 4.09927749844,
			"0.008": 3.29994444983,
			"0.009": 3.88575635342,
			"0.01": 4.32914853409,
			"0.011": 6.53552231136,
			"0.012": 6.2667076622,
			"0.013": 0.480314615823,
			"0.014": 0.0,
			"0.015": 0.0,
			"0.016": 0.0,
			"0.017": 0.0,
			"0.018": 0.0,
			"0.019": 0.0,
			"0.02": 0.0,
			"0.021": 0.0,
			"0.022": 0.0,
			"0.023": 0.0,
			"0.024": 0.0,
			"0.025": 0.0
		}
	}
}
