{
	 "smiles": "CC(C)(C)OC(=O)NC(CC(N)=O)C(O)=O", 
	 "Tm": 453.15, 
	 "num_atms": 32, 
	 "gaussian": { 
		 "optdone": 1, 
		 "sigma_profile": "yes", 
		 "theory": "DFT", 
		 "functional": "B3LYP", 
		 "basiset": "6-31G**", 
		 "properties": { 
			 "R2extent": 4792.2817, 
			 "electric_dipole_moment_norm": 7.01812485925, 
			 "electric_quadrupole_moment_norm": 25.8370864044, 
			 "total_energy": -838.296712008, 
			 "HOMO_LUMO_gap": 0.24059, 
			 "cosmo_polarized_energy": -22.8, 
			 "cosmo_cavitation_energy": 35.13, 
			 "cosmo_dispersion_energy": -24.06, 
			 "cosmo_repulsion_energy": 1.93, 
			 "cosmo_total_nonelectrostatic_energy": 13.0, 
			 "SMD_solvation_energy": 8.5 
		},
		"coords": [
			{
				"x": -2.2754684078,
				"y": -1.6478670587,
				"z": -1.1445123782,
				"element": "C" 
			},
			{
				"x": -2.2539565229,
				"y": -0.1472552653,
				"z": -0.8348237679,
				"element": "C" 
			},
			{
				"x": -3.4114853096,
				"y": 0.2341436713,
				"z": 0.0911597087,
				"element": "C" 
			},
			{
				"x": -2.2661640701,
				"y": 0.7089942587,
				"z": -2.1052762318,
				"element": "C" 
			},
			{
				"x": -1.0721656727,
				"y": 0.1816106533,
				"z": -0.0191994244,
				"element": "O" 
			},
			{
				"x": 0.178000053,
				"y": -0.014770682,
				"z": -0.4916692445,
				"element": "C" 
			},
			{
				"x": 0.487575087,
				"y": -0.4680919857,
				"z": -1.5858228339,
				"element": "O" 
			},
			{
				"x": 1.0921426512,
				"y": 0.3606667317,
				"z": 0.4525875092,
				"element": "N" 
			},
			{
				"x": 2.5201052145,
				"y": 0.3605796165,
				"z": 0.1529140746,
				"element": "C" 
			},
			{
				"x": 3.099615667,
				"y": -1.0766157868,
				"z": 0.0893949605,
				"element": "C" 
			},
			{
				"x": 2.6742810583,
				"y": -1.9690398626,
				"z": 1.2452952946,
				"element": "C" 
			},
			{
				"x": 2.4098537527,
				"y": -3.2569091369,
				"z": 0.933489281,
				"element": "N" 
			},
			{
				"x": 2.5903895565,
				"y": -1.5689437686,
				"z": 2.4139576062,
				"element": "O" 
			},
			{
				"x": 3.2425806183,
				"y": 1.3119882089,
				"z": 1.133856346,
				"element": "C" 
			},
			{
				"x": 3.2088483791,
				"y": 0.971163504,
				"z": 2.4251786882,
				"element": "O" 
			},
			{
				"x": 3.7725103937,
				"y": 2.3257060231,
				"z": 0.7408341106,
				"element": "O" 
			},
			{
				"x": -2.2197307171,
				"y": -2.2277336548,
				"z": -0.2175494305,
				"element": "H" 
			},
			{
				"x": -3.2122616442,
				"y": -1.9051614809,
				"z": -1.6491924399,
				"element": "H" 
			},
			{
				"x": -1.441131744,
				"y": -1.9252660993,
				"z": -1.7893678518,
				"element": "H" 
			},
			{
				"x": -4.3675195788,
				"y": 0.0375259253,
				"z": -0.4029420223,
				"element": "H" 
			},
			{
				"x": -3.3736665608,
				"y": -0.346647762,
				"z": 1.0173591799,
				"element": "H" 
			},
			{
				"x": -3.366011249,
				"y": 1.2962388179,
				"z": 0.3481936146,
				"element": "H" 
			},
			{
				"x": -3.2013526523,
				"y": 0.5439097681,
				"z": -2.6500943373,
				"element": "H" 
			},
			{
				"x": -2.2063098099,
				"y": 1.7710071282,
				"z": -1.8477147339,
				"element": "H" 
			},
			{
				"x": -1.4294104021,
				"y": 0.4553357991,
				"z": -2.7566456716,
				"element": "H" 
			},
			{
				"x": 0.7585367328,
				"y": 0.7297457167,
				"z": 1.3304085077,
				"element": "H" 
			},
			{
				"x": 2.6676625894,
				"y": 0.8030392059,
				"z": -0.8339981275,
				"element": "H" 
			},
			{
				"x": 2.7780298127,
				"y": -1.5140346911,
				"z": -0.8590770854,
				"element": "H" 
			},
			{
				"x": 4.1962171134,
				"y": -1.0322419984,
				"z": 0.0773453162,
				"element": "H" 
			},
			{
				"x": 2.4013563268,
				"y": -3.5874794832,
				"z": -0.0176090074,
				"element": "H" 
			},
			{
				"x": 2.1328537527,
				"y": -3.8834971521,
				"z": 1.6751991325,
				"element": "H" 
			},
			{
				"x": 2.9245755827,
				"y": 0.0188008398,
				"z": 2.5352212581,
				"element": "H" 
			}
		],
		 "valence_orbital": [ 
			{
				"type": "occ",
				"energy": -0.29594,
				"method": "rhf"
			},
			{
				"type": "occ",
				"energy": -0.28937,
				"method": "rhf"
			},
			{
				"type": "occ",
				"energy": -0.27409,
				"method": "rhf"
			},
			{
				"type": "occ",
				"energy": -0.27312,
				"method": "rhf"
			},
			{
				"type": "occ",
				"energy": -0.25028,
				"method": "rhf"
			},
			{
				"type": "unocc",
				"energy": -0.00969,
				"method": "rhf"
			},
			{
				"type": "unocc",
				"energy": 0.01301,
				"method": "rhf"
			},
			{
				"type": "unocc",
				"energy": 0.04587,
				"method": "rhf"
			},
			{
				"type": "unocc",
				"energy": 0.05475,
				"method": "rhf"
			},
			{
				"type": "unocc",
				"energy": 0.08043,
				"method": "rhf"
			}
		],
		"cosmo_sigma_profile": { 
			"-0.025": 0.0,
			"-0.024": 0.0,
			"-0.023": 0.0,
			"-0.022": 0.0,
			"-0.021": 0.0,
			"-0.02": 0.0,
			"-0.019": 0.0,
			"-0.018": 0.0,
			"-0.017": 0.0,
			"-0.016": 0.396734971765,
			"-0.015": 2.146519482,
			"-0.014": 3.60294414109,
			"-0.013": 2.95034185519,
			"-0.012": 3.28692816318,
			"-0.011": 3.29772500034,
			"-0.01": 3.62851316445,
			"-0.009": 3.73097124696,
			"-0.008": 6.23394770859,
			"-0.007": 6.34222203158,
			"-0.006": 6.73488040467,
			"-0.005": 8.50814898567,
			"-0.004": 18.4935749884,
			"-0.003": 20.4331993314,
			"-0.002": 21.4922820649,
			"-0.001": 24.4733822867,
			"0.0": 31.4360223609,
			"0.001": 22.2793195931,
			"0.002": 11.5303121229,
			"0.003": 6.4989783073,
			"0.004": 6.6328971549,
			"0.005": 5.42476513704,
			"0.006": 6.74044637673,
			"0.007": 7.14089581982,
			"0.008": 5.14876542842,
			"0.009": 4.83050325318,
			"0.01": 6.30499154489,
			"0.011": 9.4035175794,
			"0.012": 9.80597576842,
			"0.013": 5.13718743331,
			"0.014": 0.261396879725,
			"0.015": 0.0,
			"0.016": 0.0,
			"0.017": 0.0,
			"0.018": 0.0,
			"0.019": 0.0,
			"0.02": 0.0,
			"0.021": 0.0,
			"0.022": 0.0,
			"0.023": 0.0,
			"0.024": 0.0,
			"0.025": 0.0
		}
	}
}
