{
	 "smiles": "CCCCC1=CC=C(C=C1)C(=O)CCC(O)=O", 
	 "Tm": 387.15, 
	 "num_atms": 35, 
	 "gaussian": { 
		 "optdone": 1, 
		 "sigma_profile": "yes", 
		 "theory": "DFT", 
		 "functional": "B3LYP", 
		 "basiset": "6-31G**", 
		 "properties": { 
			 "R2extent": 7547.4688, 
			 "electric_dipole_moment_norm": 3.32350026478, 
			 "electric_quadrupole_moment_norm": 22.2754666775, 
			 "total_energy": -770.039633297, 
			 "HOMO_LUMO_gap": 0.19233, 
			 "cosmo_polarized_energy": -17.62, 
			 "cosmo_cavitation_energy": 38.37, 
			 "cosmo_dispersion_energy": -26.65, 
			 "cosmo_repulsion_energy": 2.11, 
			 "cosmo_total_nonelectrostatic_energy": 13.83, 
			 "SMD_solvation_energy": 7.61 
		},
		"coords": [
			{
				"x": -1.6884962421,
				"y": 3.0759091949,
				"z": 1.6371876246,
				"element": "C" 
			},
			{
				"x": -3.1912628146,
				"y": 3.2719199078,
				"z": 1.4007910626,
				"element": "C" 
			},
			{
				"x": -3.7053449986,
				"y": 2.8922759479,
				"z": 0.0005186724,
				"element": "C" 
			},
			{
				"x": -3.8171326303,
				"y": 1.3794680222,
				"z": -0.303186164,
				"element": "C" 
			},
			{
				"x": -2.5177553445,
				"y": 0.6377962175,
				"z": -0.5413472531,
				"element": "C" 
			},
			{
				"x": -2.1242560402,
				"y": -0.4227136528,
				"z": 0.286026928,
				"element": "C" 
			},
			{
				"x": -0.9387846842,
				"y": -1.1187269609,
				"z": 0.0540397311,
				"element": "C" 
			},
			{
				"x": -0.1107114324,
				"y": -0.7714382581,
				"z": -1.0233053134,
				"element": "C" 
			},
			{
				"x": -0.5046127775,
				"y": 0.2856924982,
				"z": -1.8610214451,
				"element": "C" 
			},
			{
				"x": -1.6866713868,
				"y": 0.9742307637,
				"z": -1.6241319422,
				"element": "C" 
			},
			{
				"x": 1.1713391231,
				"y": -1.4764502782,
				"z": -1.3279090073,
				"element": "C" 
			},
			{
				"x": 1.8629319312,
				"y": -1.1414222453,
				"z": -2.2816662245,
				"element": "O" 
			},
			{
				"x": 1.6058962997,
				"y": -2.6257411191,
				"z": -0.42606964,
				"element": "C" 
			},
			{
				"x": 2.9310854801,
				"y": -3.237533165,
				"z": -0.8664919373,
				"element": "C" 
			},
			{
				"x": 3.3647639727,
				"y": -4.3878252304,
				"z": 0.0286327371,
				"element": "C" 
			},
			{
				"x": 4.5442391063,
				"y": -4.9739933648,
				"z": -0.3140031423,
				"element": "O" 
			},
			{
				"x": 2.7468263153,
				"y": -4.7904986656,
				"z": 0.983094244,
				"element": "O" 
			},
			{
				"x": -1.0990762535,
				"y": 3.625448923,
				"z": 0.8943007348,
				"element": "H" 
			},
			{
				"x": -1.4020575695,
				"y": 3.4468555423,
				"z": 2.6271495472,
				"element": "H" 
			},
			{
				"x": -1.3940371106,
				"y": 2.0252864132,
				"z": 1.577777205,
				"element": "H" 
			},
			{
				"x": -3.760260468,
				"y": 2.7100700916,
				"z": 2.1547321291,
				"element": "H" 
			},
			{
				"x": -3.4351540972,
				"y": 4.3285524426,
				"z": 1.5711701393,
				"element": "H" 
			},
			{
				"x": -4.7098431461,
				"y": 3.3168901896,
				"z": -0.1203691443,
				"element": "H" 
			},
			{
				"x": -3.0808356212,
				"y": 3.3757151536,
				"z": -0.7626334781,
				"element": "H" 
			},
			{
				"x": -4.4397006276,
				"y": 1.2656418356,
				"z": -1.2009966702,
				"element": "H" 
			},
			{
				"x": -4.3677763424,
				"y": 0.8929685009,
				"z": 0.5111080933,
				"element": "H" 
			},
			{
				"x": -2.7553432983,
				"y": -0.7066136832,
				"z": 1.1242085877,
				"element": "H" 
			},
			{
				"x": -0.6680290957,
				"y": -1.9330805878,
				"z": 0.7184166263,
				"element": "H" 
			},
			{
				"x": 0.1379760296,
				"y": 0.5431957405,
				"z": -2.6964609993,
				"element": "H" 
			},
			{
				"x": -1.9764390193,
				"y": 1.783602265,
				"z": -2.2895840665,
				"element": "H" 
			},
			{
				"x": 0.824569165,
				"y": -3.3945630771,
				"z": -0.4082833588,
				"element": "H" 
			},
			{
				"x": 1.6802601205,
				"y": -2.2724946993,
				"z": 0.60909132,
				"element": "H" 
			},
			{
				"x": 3.7181411711,
				"y": -2.4733203332,
				"z": -0.8778473564,
				"element": "H" 
			},
			{
				"x": 2.8603207095,
				"y": -3.5936760112,
				"z": -1.9017452137,
				"element": "H" 
			},
			{
				"x": 4.9168315765,
				"y": -4.542128318,
				"z": -1.0960930262,
				"element": "H" 
			}
		],
		 "valence_orbital": [ 
			{
				"type": "occ",
				"energy": -0.31545,
				"method": "rhf"
			},
			{
				"type": "occ",
				"energy": -0.27334,
				"method": "rhf"
			},
			{
				"type": "occ",
				"energy": -0.2615,
				"method": "rhf"
			},
			{
				"type": "occ",
				"energy": -0.25334,
				"method": "rhf"
			},
			{
				"type": "occ",
				"energy": -0.2504,
				"method": "rhf"
			},
			{
				"type": "unocc",
				"energy": -0.05807,
				"method": "rhf"
			},
			{
				"type": "unocc",
				"energy": -0.01214,
				"method": "rhf"
			},
			{
				"type": "unocc",
				"energy": 0.0107,
				"method": "rhf"
			},
			{
				"type": "unocc",
				"energy": 0.03542,
				"method": "rhf"
			},
			{
				"type": "unocc",
				"energy": 0.05646,
				"method": "rhf"
			}
		],
		"cosmo_sigma_profile": { 
			"-0.025": 0.0,
			"-0.024": 0.0,
			"-0.023": 0.0,
			"-0.022": 0.0,
			"-0.021": 0.0,
			"-0.02": 0.0,
			"-0.019": 0.48370112668,
			"-0.018": 1.19586380412,
			"-0.017": 1.25808780908,
			"-0.016": 0.846735890447,
			"-0.015": 1.06854364746,
			"-0.014": 1.20126856039,
			"-0.013": 1.07302815789,
			"-0.012": 1.00619942367,
			"-0.011": 1.34769195864,
			"-0.01": 1.20814319699,
			"-0.009": 1.38767303252,
			"-0.008": 2.12152318137,
			"-0.007": 4.785442209,
			"-0.006": 14.0955304488,
			"-0.005": 19.8273821426,
			"-0.004": 17.4930373548,
			"-0.003": 21.5367067332,
			"-0.002": 26.4145364923,
			"-0.001": 28.6897521352,
			"0.0": 31.8071891986,
			"0.001": 25.9637574174,
			"0.002": 19.5842999224,
			"0.003": 14.174232139,
			"0.004": 13.3804999648,
			"0.005": 5.76646544044,
			"0.006": 4.27662789884,
			"0.007": 3.73509963678,
			"0.008": 4.20567496218,
			"0.009": 4.46864230904,
			"0.01": 6.94596285384,
			"0.011": 7.47863554055,
			"0.012": 9.47205799239,
			"0.013": 2.47145623851,
			"0.014": 0.100696850158,
			"0.015": 0.0,
			"0.016": 0.0,
			"0.017": 0.0,
			"0.018": 0.0,
			"0.019": 0.0,
			"0.02": 0.0,
			"0.021": 0.0,
			"0.022": 0.0,
			"0.023": 0.0,
			"0.024": 0.0,
			"0.025": 0.0
		}
	}
}
