{
	 "smiles": "FC1=CC2=C(OCC(C=O)=C2Cl)C=C1", 
	 "Tm": 358.15, 
	 "num_atms": 20, 
	 "gaussian": { 
		 "optdone": 1, 
		 "sigma_profile": "yes", 
		 "theory": "DFT", 
		 "functional": "B3LYP", 
		 "basiset": "6-31G**", 
		 "properties": { 
			 "R2extent": 3559.2356, 
			 "electric_dipole_moment_norm": 3.64671843443, 
			 "electric_quadrupole_moment_norm": 12.0885669999, 
			 "total_energy": -1095.11301807, 
			 "HOMO_LUMO_gap": 0.1374, 
			 "cosmo_polarized_energy": -10.16, 
			 "cosmo_cavitation_energy": 26.67, 
			 "cosmo_dispersion_energy": -19.79, 
			 "cosmo_repulsion_energy": 1.51, 
			 "cosmo_total_nonelectrostatic_energy": 8.38, 
			 "SMD_solvation_energy": 5.94 
		},
		"coords": [
			{
				"x": -1.87186965,
				"y": -0.0034682735,
				"z": 2.8861211334,
				"element": "F" 
			},
			{
				"x": -1.4473739082,
				"y": -0.0016478927,
				"z": 1.605724921,
				"element": "C" 
			},
			{
				"x": -0.2430145681,
				"y": -0.608467663,
				"z": 1.2957536245,
				"element": "C" 
			},
			{
				"x": 0.2119402947,
				"y": -0.5994949577,
				"z": -0.0335874827,
				"element": "C" 
			},
			{
				"x": -0.5745876027,
				"y": 0.0433794696,
				"z": -1.0194810017,
				"element": "C" 
			},
			{
				"x": -0.1894722133,
				"y": 0.0630821052,
				"z": -2.3263995365,
				"element": "O" 
			},
			{
				"x": 1.2292906925,
				"y": 0.0476089229,
				"z": -2.5152140514,
				"element": "C" 
			},
			{
				"x": 1.9062069715,
				"y": -1.0604085624,
				"z": -1.7362735959,
				"element": "C" 
			},
			{
				"x": 3.030400497,
				"y": -1.754511192,
				"z": -2.3924102122,
				"element": "C" 
			},
			{
				"x": 3.7781386203,
				"y": -2.5716596172,
				"z": -1.8895489338,
				"element": "O" 
			},
			{
				"x": 1.4118102459,
				"y": -1.2996031756,
				"z": -0.4935468129,
				"element": "C" 
			},
			{
				"x": 2.0985857125,
				"y": -2.4870989095,
				"z": 0.5763150042,
				"element": "Cl" 
			},
			{
				"x": -1.8014421652,
				"y": 0.6201739213,
				"z": -0.6865500724,
				"element": "C" 
			},
			{
				"x": -2.2424974045,
				"y": 0.6032529191,
				"z": 0.6334383767,
				"element": "C" 
			},
			{
				"x": 0.3323791666,
				"y": -1.0927183482,
				"z": 2.0748807388,
				"element": "H" 
			},
			{
				"x": 1.3836781466,
				"y": -0.0816622084,
				"z": -3.5894327708,
				"element": "H" 
			},
			{
				"x": 1.6333367507,
				"y": 1.0321990795,
				"z": -2.2277894353,
				"element": "H" 
			},
			{
				"x": 3.1588975086,
				"y": -1.4568270204,
				"z": -3.4581359903,
				"element": "H" 
			},
			{
				"x": -2.3884308076,
				"y": 1.0847754434,
				"z": -1.4709777382,
				"element": "H" 
			},
			{
				"x": -3.1841762871,
				"y": 1.0585959595,
				"z": 0.9197138353,
				"element": "H" 
			}
		],
		 "valence_orbital": [ 
			{
				"type": "occ",
				"energy": -0.32203,
				"method": "rhf"
			},
			{
				"type": "occ",
				"energy": -0.29755,
				"method": "rhf"
			},
			{
				"type": "occ",
				"energy": -0.26309,
				"method": "rhf"
			},
			{
				"type": "occ",
				"energy": -0.25581,
				"method": "rhf"
			},
			{
				"type": "occ",
				"energy": -0.23257,
				"method": "rhf"
			},
			{
				"type": "unocc",
				"energy": -0.09517,
				"method": "rhf"
			},
			{
				"type": "unocc",
				"energy": -0.01795,
				"method": "rhf"
			},
			{
				"type": "unocc",
				"energy": -0.00609,
				"method": "rhf"
			},
			{
				"type": "unocc",
				"energy": 0.02437,
				"method": "rhf"
			},
			{
				"type": "unocc",
				"energy": 0.05362,
				"method": "rhf"
			}
		],
		"cosmo_sigma_profile": { 
			"-0.025": 0.0,
			"-0.024": 0.0,
			"-0.023": 0.0,
			"-0.022": 0.0,
			"-0.021": 0.0,
			"-0.02": 0.0,
			"-0.019": 0.0,
			"-0.018": 0.0,
			"-0.017": 0.0,
			"-0.016": 0.0,
			"-0.015": 0.0,
			"-0.014": 0.0,
			"-0.013": 0.0,
			"-0.012": 0.0,
			"-0.011": 0.0,
			"-0.01": 0.0635070251086,
			"-0.009": 2.66229224453,
			"-0.008": 6.47353931515,
			"-0.007": 10.6821208265,
			"-0.006": 13.5365179393,
			"-0.005": 12.1138428461,
			"-0.004": 9.93437755549,
			"-0.003": 10.2160150025,
			"-0.002": 12.923432627,
			"-0.001": 18.3206301001,
			"0.0": 22.3031008748,
			"0.001": 24.573510369,
			"0.002": 16.2024056942,
			"0.003": 12.5339480502,
			"0.004": 14.0411909591,
			"0.005": 5.87273847447,
			"0.006": 2.6081935365,
			"0.007": 2.85152487124,
			"0.008": 3.83826832641,
			"0.009": 3.70455180441,
			"0.01": 3.41890081766,
			"0.011": 4.69102537513,
			"0.012": 3.03997636491,
			"0.013": 0.389397650106,
			"0.014": 0.0,
			"0.015": 0.0,
			"0.016": 0.0,
			"0.017": 0.0,
			"0.018": 0.0,
			"0.019": 0.0,
			"0.02": 0.0,
			"0.021": 0.0,
			"0.022": 0.0,
			"0.023": 0.0,
			"0.024": 0.0,
			"0.025": 0.0
		}
	}
}
