{
	 "smiles": "CC(C)(C)CC1=CC(N)=NN1", 
	 "Tm": 380.15, 
	 "num_atms": 26, 
	 "gaussian": { 
		 "optdone": 1, 
		 "sigma_profile": "yes", 
		 "theory": "DFT", 
		 "functional": "B3LYP", 
		 "basiset": "6-31G**", 
		 "properties": { 
			 "R2extent": 2539.9512, 
			 "electric_dipole_moment_norm": 2.04796298062, 
			 "electric_quadrupole_moment_norm": 11.9538748007, 
			 "total_energy": -478.145646953, 
			 "HOMO_LUMO_gap": 0.22813, 
			 "cosmo_polarized_energy": -12.19, 
			 "cosmo_cavitation_energy": 27.77, 
			 "cosmo_dispersion_energy": -19.62, 
			 "cosmo_repulsion_energy": 1.58, 
			 "cosmo_total_nonelectrostatic_energy": 9.73, 
			 "SMD_solvation_energy": 3.71 
		},
		"coords": [
			{
				"x": 2.2057080481,
				"y": -1.5684780995,
				"z": 0.9299216924,
				"element": "C" 
			},
			{
				"x": 1.451376435,
				"y": -0.9049146668,
				"z": -0.2383076785,
				"element": "C" 
			},
			{
				"x": 2.2535680238,
				"y": 0.3089338144,
				"z": -0.7404680135,
				"element": "C" 
			},
			{
				"x": 1.2846266828,
				"y": -1.9241366169,
				"z": -1.3803649884,
				"element": "C" 
			},
			{
				"x": 0.0564562317,
				"y": -0.4513575569,
				"z": 0.2970026661,
				"element": "C" 
			},
			{
				"x": -0.8605282847,
				"y": 0.2155764332,
				"z": -0.6851118084,
				"element": "C" 
			},
			{
				"x": -1.023169129,
				"y": 1.5450747985,
				"z": -1.0439373805,
				"element": "C" 
			},
			{
				"x": -2.0444309725,
				"y": 1.5402518853,
				"z": -2.0310016322,
				"element": "C" 
			},
			{
				"x": -2.5286249466,
				"y": 2.633650289,
				"z": -2.756276673,
				"element": "N" 
			},
			{
				"x": -2.4976347855,
				"y": 0.3104888076,
				"z": -2.2694879652,
				"element": "N" 
			},
			{
				"x": -1.750754786,
				"y": -0.4764741968,
				"z": -1.4462944766,
				"element": "N" 
			},
			{
				"x": 3.1989109184,
				"y": -1.9038271977,
				"z": 0.6119643767,
				"element": "H" 
			},
			{
				"x": 1.6643605692,
				"y": -2.4430080272,
				"z": 1.3094991758,
				"element": "H" 
			},
			{
				"x": 2.3408886797,
				"y": -0.8701986781,
				"z": 1.7639113845,
				"element": "H" 
			},
			{
				"x": 3.2413605756,
				"y": -0.0028723532,
				"z": -1.0975446831,
				"element": "H" 
			},
			{
				"x": 1.739352823,
				"y": 0.8141047221,
				"z": -1.5632056642,
				"element": "H" 
			},
			{
				"x": 2.4060629255,
				"y": 1.0409233349,
				"z": 0.0615435933,
				"element": "H" 
			},
			{
				"x": 2.2617986945,
				"y": -2.273319855,
				"z": -1.7314595827,
				"element": "H" 
			},
			{
				"x": 0.7596369462,
				"y": -1.4875670135,
				"z": -2.2354273527,
				"element": "H" 
			},
			{
				"x": 0.7216691363,
				"y": -2.8053473518,
				"z": -1.0476900844,
				"element": "H" 
			},
			{
				"x": 0.2174354889,
				"y": 0.2360442399,
				"z": 1.1356282316,
				"element": "H" 
			},
			{
				"x": -0.4509381619,
				"y": -1.3306069694,
				"z": 0.7174071941,
				"element": "H" 
			},
			{
				"x": -0.4784438788,
				"y": 2.3933724703,
				"z": -0.6562444265,
				"element": "H" 
			},
			{
				"x": -3.3828070886,
				"y": 2.397944286,
				"z": -3.2483473102,
				"element": "H" 
			},
			{
				"x": -2.6643714364,
				"y": 3.4598495787,
				"z": -2.1868178297,
				"element": "H" 
			},
			{
				"x": -1.9184087087,
				"y": -1.4694060771,
				"z": -1.4392907648,
				"element": "H" 
			}
		],
		 "valence_orbital": [ 
			{
				"type": "occ",
				"energy": -0.32162,
				"method": "rhf"
			},
			{
				"type": "occ",
				"energy": -0.30771,
				"method": "rhf"
			},
			{
				"type": "occ",
				"energy": -0.27391,
				"method": "rhf"
			},
			{
				"type": "occ",
				"energy": -0.22576,
				"method": "rhf"
			},
			{
				"type": "occ",
				"energy": -0.19612,
				"method": "rhf"
			},
			{
				"type": "unocc",
				"energy": 0.03201,
				"method": "rhf"
			},
			{
				"type": "unocc",
				"energy": 0.0708,
				"method": "rhf"
			},
			{
				"type": "unocc",
				"energy": 0.08555,
				"method": "rhf"
			},
			{
				"type": "unocc",
				"energy": 0.09969,
				"method": "rhf"
			},
			{
				"type": "unocc",
				"energy": 0.10732,
				"method": "rhf"
			}
		],
		"cosmo_sigma_profile": { 
			"-0.025": 0.0,
			"-0.024": 0.0,
			"-0.023": 0.0,
			"-0.022": 0.0,
			"-0.021": 0.0,
			"-0.02": 0.0,
			"-0.019": 0.0,
			"-0.018": 0.0,
			"-0.017": 0.0,
			"-0.016": 0.0,
			"-0.015": 0.719221657153,
			"-0.014": 0.90541327026,
			"-0.013": 1.21545580253,
			"-0.012": 1.63445241687,
			"-0.011": 3.54026232879,
			"-0.01": 2.96073340253,
			"-0.009": 3.52032337406,
			"-0.008": 4.05028335163,
			"-0.007": 3.32887679911,
			"-0.006": 4.05042896714,
			"-0.005": 5.18853674896,
			"-0.004": 7.34044453494,
			"-0.003": 17.3675279649,
			"-0.002": 27.0253657332,
			"-0.001": 23.8236055689,
			"0.0": 21.9290808194,
			"0.001": 24.301614688,
			"0.002": 18.1685251027,
			"0.003": 4.75485921535,
			"0.004": 3.67029517235,
			"0.005": 4.43042388083,
			"0.006": 5.89891562029,
			"0.007": 4.40587767901,
			"0.008": 3.24291490117,
			"0.009": 2.55156850128,
			"0.01": 2.73608067263,
			"0.011": 2.51661914651,
			"0.012": 1.91214771685,
			"0.013": 1.77823077466,
			"0.014": 1.39689302319,
			"0.015": 1.9339722016,
			"0.016": 1.86359433452,
			"0.017": 0.976285568919,
			"0.018": 0.0119923638054,
			"0.019": 0.0,
			"0.02": 0.0,
			"0.021": 0.0,
			"0.022": 0.0,
			"0.023": 0.0,
			"0.024": 0.0,
			"0.025": 0.0
		}
	}
}
