{
	 "smiles": "ClCCN1C=NC2=C(C=CC=C2)C1=O", 
	 "Tm": 398.15, 
	 "num_atms": 23, 
	 "gaussian": { 
		 "optdone": 1, 
		 "sigma_profile": "yes", 
		 "theory": "DFT", 
		 "functional": "B3LYP", 
		 "basiset": "6-31G**", 
		 "properties": { 
			 "R2extent": 3863.9267, 
			 "electric_dipole_moment_norm": 1.45419874845, 
			 "electric_quadrupole_moment_norm": 14.2159670835, 
			 "total_energy": -1031.4397994, 
			 "HOMO_LUMO_gap": 0.18728, 
			 "cosmo_polarized_energy": -12.32, 
			 "cosmo_cavitation_energy": 28.5, 
			 "cosmo_dispersion_energy": -21.01, 
			 "cosmo_repulsion_energy": 1.63, 
			 "cosmo_total_nonelectrostatic_energy": 9.12, 
			 "SMD_solvation_energy": 3.46 
		},
		"coords": [
			{
				"x": 1.4369899066,
				"y": -3.5445124604,
				"z": -0.1203293181,
				"element": "Cl" 
			},
			{
				"x": 0.2031762172,
				"y": -2.5889297203,
				"z": -1.045310689,
				"element": "C" 
			},
			{
				"x": -0.6433318064,
				"y": -1.7081807468,
				"z": -0.1331715189,
				"element": "C" 
			},
			{
				"x": 0.1096773654,
				"y": -0.6285385788,
				"z": 0.5059972517,
				"element": "N" 
			},
			{
				"x": 0.4885467135,
				"y": -0.7138841633,
				"z": 1.8302601386,
				"element": "C" 
			},
			{
				"x": 1.1436854579,
				"y": 0.1807780146,
				"z": 2.4871845664,
				"element": "N" 
			},
			{
				"x": 1.5067495534,
				"y": 1.3299765582,
				"z": 1.7966255112,
				"element": "C" 
			},
			{
				"x": 1.1779936651,
				"y": 1.5267476869,
				"z": 0.4344252204,
				"element": "C" 
			},
			{
				"x": 1.5619772656,
				"y": 2.7049438803,
				"z": -0.2277577312,
				"element": "C" 
			},
			{
				"x": 2.2669568405,
				"y": 3.6823976866,
				"z": 0.456413088,
				"element": "C" 
			},
			{
				"x": 2.5975850594,
				"y": 3.4918857797,
				"z": 1.8111629704,
				"element": "C" 
			},
			{
				"x": 2.2248224614,
				"y": 2.3337507594,
				"z": 2.4754452774,
				"element": "C" 
			},
			{
				"x": 0.435575535,
				"y": 0.4914291048,
				"z": -0.2868467332,
				"element": "C" 
			},
			{
				"x": 0.0991134023,
				"y": 0.5346777482,
				"z": -1.4669123945,
				"element": "O" 
			},
			{
				"x": 0.7387709636,
				"y": -1.9849819355,
				"z": -1.7760811285,
				"element": "H" 
			},
			{
				"x": -0.4318963835,
				"y": -3.311096734,
				"z": -1.5608297877,
				"element": "H" 
			},
			{
				"x": -1.4203817178,
				"y": -1.2483634975,
				"z": -0.7508632785,
				"element": "H" 
			},
			{
				"x": -1.1182508136,
				"y": -2.3064543228,
				"z": 0.6477501785,
				"element": "H" 
			},
			{
				"x": 0.1872652739,
				"y": -1.6312219233,
				"z": 2.3310671133,
				"element": "H" 
			},
			{
				"x": 1.2925658391,
				"y": 2.8195070758,
				"z": -1.2724056966,
				"element": "H" 
			},
			{
				"x": 2.5658570145,
				"y": 4.5946246686,
				"z": -0.0507201453,
				"element": "H" 
			},
			{
				"x": 3.1514863868,
				"y": 4.2610971015,
				"z": 2.3418167802,
				"element": "H" 
			},
			{
				"x": 2.4709657999,
				"y": 2.1688480181,
				"z": 3.5190803255,
				"element": "H" 
			}
		],
		 "valence_orbital": [ 
			{
				"type": "occ",
				"energy": -0.29226,
				"method": "rhf"
			},
			{
				"type": "occ",
				"energy": -0.27817,
				"method": "rhf"
			},
			{
				"type": "occ",
				"energy": -0.2703,
				"method": "rhf"
			},
			{
				"type": "occ",
				"energy": -0.26361,
				"method": "rhf"
			},
			{
				"type": "occ",
				"energy": -0.23354,
				"method": "rhf"
			},
			{
				"type": "unocc",
				"energy": -0.04626,
				"method": "rhf"
			},
			{
				"type": "unocc",
				"energy": -0.0389,
				"method": "rhf"
			},
			{
				"type": "unocc",
				"energy": 0.01793,
				"method": "rhf"
			},
			{
				"type": "unocc",
				"energy": 0.02437,
				"method": "rhf"
			},
			{
				"type": "unocc",
				"energy": 0.06684,
				"method": "rhf"
			}
		],
		"cosmo_sigma_profile": { 
			"-0.025": 0.0,
			"-0.024": 0.0,
			"-0.023": 0.0,
			"-0.022": 0.0,
			"-0.021": 0.0,
			"-0.02": 0.0,
			"-0.019": 0.0,
			"-0.018": 0.0,
			"-0.017": 0.0,
			"-0.016": 0.0,
			"-0.015": 0.0,
			"-0.014": 0.0,
			"-0.013": 0.0,
			"-0.012": 0.0,
			"-0.011": 0.213340333286,
			"-0.01": 1.86973844651,
			"-0.009": 2.80094326367,
			"-0.008": 6.62303998667,
			"-0.007": 11.5913264011,
			"-0.006": 15.5093268605,
			"-0.005": 16.8038873947,
			"-0.004": 18.794293165,
			"-0.003": 12.5830730024,
			"-0.002": 10.1848122782,
			"-0.001": 11.7423065368,
			"0.0": 12.5153538744,
			"0.001": 15.7065192548,
			"0.002": 19.9944084399,
			"0.003": 19.1317854759,
			"0.004": 13.7497788437,
			"0.005": 7.76298243202,
			"0.006": 10.1394937425,
			"0.007": 3.87283257644,
			"0.008": 3.31630511906,
			"0.009": 1.94245105343,
			"0.01": 1.73445444473,
			"0.011": 2.86627742103,
			"0.012": 4.14255683508,
			"0.013": 3.13447490722,
			"0.014": 0.930510876773,
			"0.015": 0.555298138697,
			"0.016": 0.134517667441,
			"0.017": 0.0,
			"0.018": 0.0,
			"0.019": 0.0,
			"0.02": 0.0,
			"0.021": 0.0,
			"0.022": 0.0,
			"0.023": 0.0,
			"0.024": 0.0,
			"0.025": 0.0
		}
	}
}
