{
	 "smiles": "CN1N(C(=O)C(NS(=O)(=O)C2=CC(N)=C(N)C=C2)=C1C)C1=CC=CC=C1", 
	 "Tm": 507.15, 
	 "num_atms": 45, 
	 "gaussian": { 
		 "optdone": 1, 
		 "sigma_profile": "yes", 
		 "theory": "DFT", 
		 "functional": "B3LYP", 
		 "basiset": "6-31G**", 
		 "properties": { 
			 "R2extent": 12618.9, 
			 "electric_dipole_moment_norm": 3.93229101415, 
			 "electric_quadrupole_moment_norm": 45.8577417237, 
			 "total_energy": -1556.79623113, 
			 "HOMO_LUMO_gap": 0.17067, 
			 "cosmo_polarized_energy": -27.32, 
			 "cosmo_cavitation_energy": 49.19, 
			 "cosmo_dispersion_energy": -34.19, 
			 "cosmo_repulsion_energy": 2.51, 
			 "cosmo_total_nonelectrostatic_energy": 17.52, 
			 "SMD_solvation_energy": 7.8 
		},
		"coords": [
			{
				"x": -0.1326389231,
				"y": 3.626870547,
				"z": 0.1650934766,
				"element": "C" 
			},
			{
				"x": 0.4008027848,
				"y": 2.8419097509,
				"z": -0.9604507449,
				"element": "N" 
			},
			{
				"x": 1.3313498788,
				"y": 1.8514123151,
				"z": -0.5733827177,
				"element": "N" 
			},
			{
				"x": 1.0679181549,
				"y": 0.6491252853,
				"z": -1.2577612381,
				"element": "C" 
			},
			{
				"x": 1.7519200464,
				"y": -0.3737669711,
				"z": -1.1900811904,
				"element": "O" 
			},
			{
				"x": -0.1198219232,
				"y": 0.9323098175,
				"z": -2.0492160998,
				"element": "C" 
			},
			{
				"x": -0.7417144041,
				"y": 0.0250525332,
				"z": -2.9202835368,
				"element": "N" 
			},
			{
				"x": -2.2215586103,
				"y": -0.738885482,
				"z": -2.4908576444,
				"element": "S" 
			},
			{
				"x": -3.0258852775,
				"y": -0.8356583094,
				"z": -3.7112289402,
				"element": "O" 
			},
			{
				"x": -2.7238503918,
				"y": 0.0216369421,
				"z": -1.3404736698,
				"element": "O" 
			},
			{
				"x": -1.7653495043,
				"y": -2.4034069215,
				"z": -2.0270410495,
				"element": "C" 
			},
			{
				"x": -0.6058613401,
				"y": -2.6418458971,
				"z": -1.28097295,
				"element": "C" 
			},
			{
				"x": -0.2878537716,
				"y": -3.9394045234,
				"z": -0.8904085376,
				"element": "C" 
			},
			{
				"x": 0.8615949488,
				"y": -4.2363379242,
				"z": -0.1338066706,
				"element": "N" 
			},
			{
				"x": -1.1640931833,
				"y": -5.0050548081,
				"z": -1.2201515421,
				"element": "C" 
			},
			{
				"x": -0.8079620992,
				"y": -6.2919882464,
				"z": -0.8108012303,
				"element": "N" 
			},
			{
				"x": -2.3065932386,
				"y": -4.7420751949,
				"z": -1.9844870691,
				"element": "C" 
			},
			{
				"x": -2.6123240129,
				"y": -3.4474593356,
				"z": -2.4006032924,
				"element": "C" 
			},
			{
				"x": -0.4981724384,
				"y": 2.2241209701,
				"z": -1.8230617367,
				"element": "C" 
			},
			{
				"x": -1.6950905644,
				"y": 2.9404044005,
				"z": -2.3467113988,
				"element": "C" 
			},
			{
				"x": 2.6018638154,
				"y": 2.2436481151,
				"z": -0.0766980986,
				"element": "C" 
			},
			{
				"x": 3.3382519746,
				"y": 1.3370745116,
				"z": 0.6982425642,
				"element": "C" 
			},
			{
				"x": 4.5891169497,
				"y": 1.7111794073,
				"z": 1.1855558643,
				"element": "C" 
			},
			{
				"x": 5.1051173975,
				"y": 2.9833546379,
				"z": 0.9286813228,
				"element": "C" 
			},
			{
				"x": 4.3642442431,
				"y": 3.8818942079,
				"z": 0.1598934161,
				"element": "C" 
			},
			{
				"x": 3.1199907499,
				"y": 3.5162023554,
				"z": -0.3533702503,
				"element": "C" 
			},
			{
				"x": -0.7946266105,
				"y": 4.3949942733,
				"z": -0.236155915,
				"element": "H" 
			},
			{
				"x": -0.6853853992,
				"y": 2.9937809861,
				"z": 0.8696995783,
				"element": "H" 
			},
			{
				"x": 0.6932681144,
				"y": 4.1149954026,
				"z": 0.6832873563,
				"element": "H" 
			},
			{
				"x": -0.1159829572,
				"y": -0.6034280643,
				"z": -3.4151668749,
				"element": "H" 
			},
			{
				"x": 0.0864470846,
				"y": -1.8398969265,
				"z": -1.0439928418,
				"element": "H" 
			},
			{
				"x": 1.4793287267,
				"y": -3.437812368,
				"z": -0.0394146216,
				"element": "H" 
			},
			{
				"x": 1.3755674094,
				"y": -5.0284051639,
				"z": -0.5095822253,
				"element": "H" 
			},
			{
				"x": -0.3837519192,
				"y": -6.3104126753,
				"z": 0.1109215853,
				"element": "H" 
			},
			{
				"x": -1.5482701464,
				"y": -6.9765464819,
				"z": -0.8934490183,
				"element": "H" 
			},
			{
				"x": -2.9660374224,
				"y": -5.5640050675,
				"z": -2.2518491536,
				"element": "H" 
			},
			{
				"x": -3.4912717155,
				"y": -3.2472001474,
				"z": -3.0016034419,
				"element": "H" 
			},
			{
				"x": -1.4726636206,
				"y": 3.9907627275,
				"z": -2.555833337,
				"element": "H" 
			},
			{
				"x": -2.5308319025,
				"y": 2.8851517083,
				"z": -1.6410563012,
				"element": "H" 
			},
			{
				"x": -2.0212255709,
				"y": 2.4515989944,
				"z": -3.2677497303,
				"element": "H" 
			},
			{
				"x": 2.9334357358,
				"y": 0.3525535536,
				"z": 0.8921520287,
				"element": "H" 
			},
			{
				"x": 5.1590645585,
				"y": 1.0032255027,
				"z": 1.7802495463,
				"element": "H" 
			},
			{
				"x": 6.0757503906,
				"y": 3.2701576343,
				"z": 1.3216676511,
				"element": "H" 
			},
			{
				"x": 4.7587523991,
				"y": 4.870593397,
				"z": -0.0562140666,
				"element": "H" 
			},
			{
				"x": 2.557131584,
				"y": 4.1987805319,
				"z": -0.9804272545,
				"element": "H" 
			}
		],
		 "valence_orbital": [ 
			{
				"type": "occ",
				"energy": -0.25078,
				"method": "rhf"
			},
			{
				"type": "occ",
				"energy": -0.23598,
				"method": "rhf"
			},
			{
				"type": "occ",
				"energy": -0.23073,
				"method": "rhf"
			},
			{
				"type": "occ",
				"energy": -0.21503,
				"method": "rhf"
			},
			{
				"type": "occ",
				"energy": -0.2002,
				"method": "rhf"
			},
			{
				"type": "unocc",
				"energy": -0.02953,
				"method": "rhf"
			},
			{
				"type": "unocc",
				"energy": -0.01239,
				"method": "rhf"
			},
			{
				"type": "unocc",
				"energy": -0.00768,
				"method": "rhf"
			},
			{
				"type": "unocc",
				"energy": 0.00164,
				"method": "rhf"
			},
			{
				"type": "unocc",
				"energy": 0.00615,
				"method": "rhf"
			}
		],
		"cosmo_sigma_profile": { 
			"-0.025": 0.0,
			"-0.024": 0.0,
			"-0.023": 0.0,
			"-0.022": 0.0,
			"-0.021": 0.0,
			"-0.02": 0.0,
			"-0.019": 0.0,
			"-0.018": 0.0,
			"-0.017": 0.0,
			"-0.016": 0.0,
			"-0.015": 0.582874595565,
			"-0.014": 0.555120400577,
			"-0.013": 2.17254072399,
			"-0.012": 3.01030391675,
			"-0.011": 5.08723546073,
			"-0.01": 6.10545620388,
			"-0.009": 6.05554259286,
			"-0.008": 5.52713838216,
			"-0.007": 9.30458378446,
			"-0.006": 20.4935182613,
			"-0.005": 29.1650973515,
			"-0.004": 32.6422132622,
			"-0.003": 28.6368224606,
			"-0.002": 27.0705311625,
			"-0.001": 23.6369838654,
			"0.0": 19.0422346778,
			"0.001": 21.04963225,
			"0.002": 20.9622810431,
			"0.003": 21.9771082878,
			"0.004": 24.5241961355,
			"0.005": 21.5971776169,
			"0.006": 9.01912703551,
			"0.007": 7.25037705459,
			"0.008": 6.79053809478,
			"0.009": 6.24923506186,
			"0.01": 7.29186343109,
			"0.011": 11.8484513232,
			"0.012": 9.14590765298,
			"0.013": 3.45158547786,
			"0.014": 0.985714660967,
			"0.015": 0.00808006142557,
			"0.016": 0.0,
			"0.017": 0.0,
			"0.018": 0.0,
			"0.019": 0.0,
			"0.02": 0.0,
			"0.021": 0.0,
			"0.022": 0.0,
			"0.023": 0.0,
			"0.024": 0.0,
			"0.025": 0.0
		}
	}
}
