{
	 "smiles": "OC1=C(C=C(Br)C=C1)C(=O)C(=O)C1=C(O)C=CC(Br)=C1", 
	 "Tm": 485.15, 
	 "num_atms": 28, 
	 "gaussian": { 
		 "optdone": 1, 
		 "sigma_profile": "yes", 
		 "theory": "DFT", 
		 "functional": "B3LYP", 
		 "basiset": "6-31G**", 
		 "properties": { 
			 "R2extent": 14007.3921, 
			 "electric_dipole_moment_norm": 4.1970880036, 
			 "electric_quadrupole_moment_norm": 14.9293943595, 
			 "total_energy": -5981.99729135, 
			 "HOMO_LUMO_gap": 0.12369, 
			 "cosmo_polarized_energy": -15.67, 
			 "cosmo_cavitation_energy": 38.56, 
			 "cosmo_dispersion_energy": -28.43, 
			 "cosmo_repulsion_energy": 2.18, 
			 "cosmo_total_nonelectrostatic_energy": 12.31, 
			 "SMD_solvation_energy": 5.61 
		},
		"coords": [
			{
				"x": -1.119286613,
				"y": -0.1991071979,
				"z": -0.766001402,
				"element": "O" 
			},
			{
				"x": -1.1042116901,
				"y": 1.101805979,
				"z": -0.3849848717,
				"element": "C" 
			},
			{
				"x": 0.0966895171,
				"y": 1.6323826947,
				"z": 0.1326623596,
				"element": "C" 
			},
			{
				"x": 0.1067948147,
				"y": 2.9440013441,
				"z": 0.6361221554,
				"element": "C" 
			},
			{
				"x": -1.0345073858,
				"y": 3.7282558672,
				"z": 0.5746929155,
				"element": "C" 
			},
			{
				"x": -0.9997390399,
				"y": 5.5192031457,
				"z": 1.2312363889,
				"element": "Br" 
			},
			{
				"x": -2.2153848989,
				"y": 3.215481907,
				"z": 0.0308559532,
				"element": "C" 
			},
			{
				"x": -2.2485491723,
				"y": 1.9061788484,
				"z": -0.4373347503,
				"element": "C" 
			},
			{
				"x": 1.352738577,
				"y": 0.8542340189,
				"z": 0.2233381396,
				"element": "C" 
			},
			{
				"x": 2.2172474715,
				"y": 1.1434099467,
				"z": 1.0534434159,
				"element": "O" 
			},
			{
				"x": 1.6685594786,
				"y": -0.1788096962,
				"z": -0.8740194516,
				"element": "C" 
			},
			{
				"x": 1.4650855025,
				"y": 0.2243091124,
				"z": -2.0105717135,
				"element": "O" 
			},
			{
				"x": 2.192220799,
				"y": -1.5362991008,
				"z": -0.5868063192,
				"element": "C" 
			},
			{
				"x": 2.8858192045,
				"y": -1.9648947728,
				"z": 0.5769542416,
				"element": "C" 
			},
			{
				"x": 3.2679879999,
				"y": -1.1816592077,
				"z": 1.5949449584,
				"element": "O" 
			},
			{
				"x": 3.2531755085,
				"y": -3.321850697,
				"z": 0.6858478986,
				"element": "C" 
			},
			{
				"x": 2.9719034765,
				"y": -4.2306202029,
				"z": -0.3178050284,
				"element": "C" 
			},
			{
				"x": 2.3170826411,
				"y": -3.7961300481,
				"z": -1.4793655797,
				"element": "C" 
			},
			{
				"x": 1.934753497,
				"y": -5.0504407679,
				"z": -2.8705957148,
				"element": "Br" 
			},
			{
				"x": 1.9440650093,
				"y": -2.4755803126,
				"z": -1.6154214779,
				"element": "C" 
			},
			{
				"x": -1.9745491496,
				"y": -0.4218098931,
				"z": -1.1564969525,
				"element": "H" 
			},
			{
				"x": 1.0285961764,
				"y": 3.3278900915,
				"z": 1.0564746745,
				"element": "H" 
			},
			{
				"x": -3.105436524,
				"y": 3.8325648318,
				"z": -0.0173585459,
				"element": "H" 
			},
			{
				"x": -3.1742461064,
				"y": 1.4998467771,
				"z": -0.8375012815,
				"element": "H" 
			},
			{
				"x": 3.0467125782,
				"y": -0.2355190719,
				"z": 1.4241753159,
				"element": "H" 
			},
			{
				"x": 3.7805297303,
				"y": -3.6267791056,
				"z": 1.5832595187,
				"element": "H" 
			},
			{
				"x": 3.2609829764,
				"y": -5.2703923696,
				"z": -0.2120495485,
				"element": "H" 
			},
			{
				"x": 1.4382656215,
				"y": -2.1256721201,
				"z": -2.5069952981,
				"element": "H" 
			}
		],
		 "valence_orbital": [ 
			{
				"type": "occ",
				"energy": -0.28781,
				"method": "rhf"
			},
			{
				"type": "occ",
				"energy": -0.2709,
				"method": "rhf"
			},
			{
				"type": "occ",
				"energy": -0.26189,
				"method": "rhf"
			},
			{
				"type": "occ",
				"energy": -0.24536,
				"method": "rhf"
			},
			{
				"type": "occ",
				"energy": -0.22546,
				"method": "rhf"
			},
			{
				"type": "unocc",
				"energy": -0.10177,
				"method": "rhf"
			},
			{
				"type": "unocc",
				"energy": -0.06242,
				"method": "rhf"
			},
			{
				"type": "unocc",
				"energy": -0.02605,
				"method": "rhf"
			},
			{
				"type": "unocc",
				"energy": -0.01122,
				"method": "rhf"
			},
			{
				"type": "unocc",
				"energy": -0.00711,
				"method": "rhf"
			}
		],
		"cosmo_sigma_profile": { 
			"-0.025": 0.0,
			"-0.024": 0.0,
			"-0.023": 0.0,
			"-0.022": 0.0,
			"-0.021": 0.0,
			"-0.02": 0.131992965151,
			"-0.019": 1.3477582707,
			"-0.018": 1.19972561857,
			"-0.017": 1.15602593149,
			"-0.016": 1.29831065641,
			"-0.015": 0.597683738604,
			"-0.014": 0.485610070205,
			"-0.013": 0.97183669611,
			"-0.012": 1.52807630139,
			"-0.011": 1.35318904269,
			"-0.01": 1.10102134516,
			"-0.009": 1.69928398415,
			"-0.008": 6.0254925684,
			"-0.007": 10.5642296299,
			"-0.006": 12.0514848091,
			"-0.005": 11.5071082823,
			"-0.004": 15.7686128688,
			"-0.003": 15.7929800493,
			"-0.002": 17.3869201617,
			"-0.001": 18.4766967238,
			"0.0": 27.7766739862,
			"0.001": 40.3174983132,
			"0.002": 37.4472770136,
			"0.003": 22.2912837585,
			"0.004": 26.6941781722,
			"0.005": 14.3844767271,
			"0.006": 5.97621254927,
			"0.007": 5.56250152229,
			"0.008": 4.54172846306,
			"0.009": 4.29012658135,
			"0.01": 5.94936933588,
			"0.011": 1.89175747243,
			"0.012": 0.0,
			"0.013": 0.0,
			"0.014": 0.0,
			"0.015": 0.0,
			"0.016": 0.0,
			"0.017": 0.0,
			"0.018": 0.0,
			"0.019": 0.0,
			"0.02": 0.0,
			"0.021": 0.0,
			"0.022": 0.0,
			"0.023": 0.0,
			"0.024": 0.0,
			"0.025": 0.0
		}
	}
}
