{
	 "smiles": "BrC1=CC2=C(CCNC2)C=C1", 
	 "Tm": 307.15, 
	 "num_atms": 21, 
	 "gaussian": { 
		 "optdone": 1, 
		 "sigma_profile": "yes", 
		 "theory": "DFT", 
		 "functional": "B3LYP", 
		 "basiset": "6-31G**", 
		 "properties": { 
			 "R2extent": 3631.4507, 
			 "electric_dipole_moment_norm": 2.16534095699, 
			 "electric_quadrupole_moment_norm": 7.18075794537, 
			 "total_energy": -2975.14148384, 
			 "HOMO_LUMO_gap": 0.21141, 
			 "cosmo_polarized_energy": -6.78, 
			 "cosmo_cavitation_energy": 25.47, 
			 "cosmo_dispersion_energy": -19.67, 
			 "cosmo_repulsion_energy": 1.57, 
			 "cosmo_total_nonelectrostatic_energy": 7.37, 
			 "SMD_solvation_energy": -0.13 
		},
		"coords": [
			{
				"x": -0.6633187018,
				"y": 3.8054210655,
				"z": -1.5115735573,
				"element": "Br" 
			},
			{
				"x": -0.0362902232,
				"y": 2.110772958,
				"z": -0.8767082173,
				"element": "C" 
			},
			{
				"x": -0.7340236349,
				"y": 1.4562637675,
				"z": 0.1316620991,
				"element": "C" 
			},
			{
				"x": -0.2896941729,
				"y": 0.2130973603,
				"z": 0.5993703242,
				"element": "C" 
			},
			{
				"x": 0.8654357533,
				"y": -0.3676759139,
				"z": 0.0494065104,
				"element": "C" 
			},
			{
				"x": 1.3519240095,
				"y": -1.7232816275,
				"z": 0.5297599429,
				"element": "C" 
			},
			{
				"x": 0.7250295984,
				"y": -2.1188080632,
				"z": 1.876752452,
				"element": "C" 
			},
			{
				"x": -0.7209975571,
				"y": -1.8931556941,
				"z": 1.9225914027,
				"element": "N" 
			},
			{
				"x": -1.0425616752,
				"y": -0.4807585629,
				"z": 1.7300883501,
				"element": "C" 
			},
			{
				"x": 1.549171032,
				"y": 0.316580772,
				"z": -0.9644290358,
				"element": "C" 
			},
			{
				"x": 1.1118139747,
				"y": 1.5517180427,
				"z": -1.4363581191,
				"element": "C" 
			},
			{
				"x": -1.6252805967,
				"y": 1.909781787,
				"z": 0.5549044149,
				"element": "H" 
			},
			{
				"x": 1.0958386728,
				"y": -2.4853825577,
				"z": -0.2214997977,
				"element": "H" 
			},
			{
				"x": 2.4471958587,
				"y": -1.7260487968,
				"z": 0.599033963,
				"element": "H" 
			},
			{
				"x": 1.1760436056,
				"y": -1.5290067156,
				"z": 2.6853961479,
				"element": "H" 
			},
			{
				"x": 0.9295182751,
				"y": -3.1715990408,
				"z": 2.0989387076,
				"element": "H" 
			},
			{
				"x": -1.1648222012,
				"y": -2.4403680133,
				"z": 1.1874151761,
				"element": "H" 
			},
			{
				"x": -2.122878584,
				"y": -0.3856332705,
				"z": 1.573353684,
				"element": "H" 
			},
			{
				"x": -0.8253903871,
				"y": 0.0470348067,
				"z": 2.6708663532,
				"element": "H" 
			},
			{
				"x": 2.4456032935,
				"y": -0.125898789,
				"z": -1.3929529334,
				"element": "H" 
			},
			{
				"x": 1.6501836607,
				"y": 2.0713464855,
				"z": -2.2206178672,
				"element": "H" 
			}
		],
		 "valence_orbital": [ 
			{
				"type": "occ",
				"energy": -0.29985,
				"method": "rhf"
			},
			{
				"type": "occ",
				"energy": -0.28311,
				"method": "rhf"
			},
			{
				"type": "occ",
				"energy": -0.2527,
				"method": "rhf"
			},
			{
				"type": "occ",
				"energy": -0.23424,
				"method": "rhf"
			},
			{
				"type": "occ",
				"energy": -0.22528,
				"method": "rhf"
			},
			{
				"type": "unocc",
				"energy": -0.01387,
				"method": "rhf"
			},
			{
				"type": "unocc",
				"energy": -0.00779,
				"method": "rhf"
			},
			{
				"type": "unocc",
				"energy": 0.01145,
				"method": "rhf"
			},
			{
				"type": "unocc",
				"energy": 0.08275,
				"method": "rhf"
			},
			{
				"type": "unocc",
				"energy": 0.11414,
				"method": "rhf"
			}
		],
		"cosmo_sigma_profile": { 
			"-0.025": 0.0,
			"-0.024": 0.0,
			"-0.023": 0.0,
			"-0.022": 0.0,
			"-0.021": 0.0,
			"-0.02": 0.0,
			"-0.019": 0.0,
			"-0.018": 0.0,
			"-0.017": 0.0,
			"-0.016": 0.0,
			"-0.015": 0.0,
			"-0.014": 0.0,
			"-0.013": 0.0,
			"-0.012": 0.0,
			"-0.011": 0.0,
			"-0.01": 0.807222818956,
			"-0.009": 1.73197215794,
			"-0.008": 1.48721552325,
			"-0.007": 1.92512006665,
			"-0.006": 7.54141663714,
			"-0.005": 10.9075618423,
			"-0.004": 19.74308944,
			"-0.003": 22.8328700593,
			"-0.002": 20.2164456666,
			"-0.001": 17.8415030918,
			"0.0": 13.2993136394,
			"0.001": 10.2812781987,
			"0.002": 13.5529640301,
			"0.003": 15.9986149744,
			"0.004": 19.1089680194,
			"0.005": 17.7943903739,
			"0.006": 1.63468014652,
			"0.007": 1.06992245428,
			"0.008": 0.695953474315,
			"0.009": 0.579746653299,
			"0.01": 0.473821146067,
			"0.011": 0.702996267968,
			"0.012": 0.405637361077,
			"0.013": 1.21524876789,
			"0.014": 0.530365899287,
			"0.015": 0.36490067285,
			"0.016": 0.355557896971,
			"0.017": 0.69179380969,
			"0.018": 0.569586982778,
			"0.019": 0.0,
			"0.02": 0.0,
			"0.021": 0.0,
			"0.022": 0.0,
			"0.023": 0.0,
			"0.024": 0.0,
			"0.025": 0.0
		}
	}
}
