{
	 "smiles": "CC1CCC2(C)CCC3(C)C(=CCC4C5(C)CCC(O)C(C)(C)C5CCC34C)C2C1C", 
	 "Tm": 459.15, 
	 "num_atms": 81, 
	 "gaussian": { 
		 "optdone": 1, 
		 "sigma_profile": "yes", 
		 "theory": "DFT", 
		 "functional": "B3LYP", 
		 "basiset": "6-31G**", 
		 "properties": { 
			 "R2extent": 15678.927, 
			 "electric_dipole_moment_norm": 1.76376859593, 
			 "electric_quadrupole_moment_norm": 11.8181542958, 
			 "total_energy": -1248.51529084, 
			 "HOMO_LUMO_gap": 0.24022, 
			 "cosmo_polarized_energy": -6.52, 
			 "cosmo_cavitation_energy": 61.89, 
			 "cosmo_dispersion_energy": -41.72, 
			 "cosmo_repulsion_energy": 2.95, 
			 "cosmo_total_nonelectrostatic_energy": 23.11, 
			 "SMD_solvation_energy": 8.81 
		},
		"coords": [
			{
				"x": 3.2944232342,
				"y": -4.0550694962,
				"z": 4.2630341422,
				"element": "C" 
			},
			{
				"x": 2.9860300485,
				"y": -2.7474534952,
				"z": 3.518200984,
				"element": "C" 
			},
			{
				"x": 2.2129774385,
				"y": -1.7896778764,
				"z": 4.4579246482,
				"element": "C" 
			},
			{
				"x": 1.6871765404,
				"y": -0.5006609002,
				"z": 3.7969584695,
				"element": "C" 
			},
			{
				"x": 0.9031109964,
				"y": -0.8083357233,
				"z": 2.5026647273,
				"element": "C" 
			},
			{
				"x": -0.3733896903,
				"y": -1.6001772476,
				"z": 2.8612502806,
				"element": "C" 
			},
			{
				"x": 0.4271506266,
				"y": 0.472084919,
				"z": 1.7419737161,
				"element": "C" 
			},
			{
				"x": 1.3397325938,
				"y": 0.9929169511,
				"z": 0.6140087302,
				"element": "C" 
			},
			{
				"x": 1.7880951485,
				"y": -0.0940021862,
				"z": -0.47496932,
				"element": "C" 
			},
			{
				"x": 3.3433889484,
				"y": 0.0365582265,
				"z": -0.511104085,
				"element": "C" 
			},
			{
				"x": 1.3902062497,
				"y": -1.4288392981,
				"z": 0.1590893949,
				"element": "C" 
			},
			{
				"x": 0.3772235416,
				"y": -2.1712920561,
				"z": -0.2965628232,
				"element": "C" 
			},
			{
				"x": -0.5731967541,
				"y": -1.7263055352,
				"z": -1.3639210196,
				"element": "C" 
			},
			{
				"x": 0.0575257373,
				"y": -0.8857136401,
				"z": -2.4868170884,
				"element": "C" 
			},
			{
				"x": -1.0307555548,
				"y": -0.2490551848,
				"z": -3.474697259,
				"element": "C" 
			},
			{
				"x": -0.425556564,
				"y": -0.1139812603,
				"z": -4.8988022117,
				"element": "C" 
			},
			{
				"x": -2.2267789679,
				"y": -1.2306857197,
				"z": -3.6242813586,
				"element": "C" 
			},
			{
				"x": -3.4322474589,
				"y": -0.6826551382,
				"z": -4.4084506872,
				"element": "C" 
			},
			{
				"x": -3.7929984707,
				"y": 0.790673501,
				"z": -4.1172989894,
				"element": "C" 
			},
			{
				"x": -3.45513793,
				"y": 1.5133169714,
				"z": -5.3105562968,
				"element": "O" 
			},
			{
				"x": -3.0807779617,
				"y": 1.3790305182,
				"z": -2.8635409566,
				"element": "C" 
			},
			{
				"x": -3.4065245026,
				"y": 2.8915737742,
				"z": -2.7905217165,
				"element": "C" 
			},
			{
				"x": -3.6800123855,
				"y": 0.7504457421,
				"z": -1.5858522427,
				"element": "C" 
			},
			{
				"x": -1.5361856893,
				"y": 1.1974739707,
				"z": -3.046740117,
				"element": "C" 
			},
			{
				"x": -0.6842476903,
				"y": 1.7869594076,
				"z": -1.9132229194,
				"element": "C" 
			},
			{
				"x": 0.799673512,
				"y": 1.5691175056,
				"z": -2.2315452251,
				"element": "C" 
			},
			{
				"x": 1.2353177584,
				"y": 0.0989891651,
				"z": -2.0174542888,
				"element": "C" 
			},
			{
				"x": 2.3872095934,
				"y": -0.1926092795,
				"z": -3.0221358587,
				"element": "C" 
			},
			{
				"x": 1.9068480044,
				"y": -1.5926778583,
				"z": 1.579240748,
				"element": "C" 
			},
			{
				"x": 2.2801438562,
				"y": -2.9788054524,
				"z": 2.1470902125,
				"element": "C" 
			},
			{
				"x": 3.1812572831,
				"y": -3.7557947187,
				"z": 1.1739530446,
				"element": "C" 
			},
			{
				"x": 3.9624106449,
				"y": -4.7094259126,
				"z": 3.6962204969,
				"element": "H" 
			},
			{
				"x": 3.7762656645,
				"y": -3.8493889492,
				"z": 5.2254743056,
				"element": "H" 
			},
			{
				"x": 2.3735305028,
				"y": -4.6144231916,
				"z": 4.469699953,
				"element": "H" 
			},
			{
				"x": 3.9472683894,
				"y": -2.2633879564,
				"z": 3.2805263342,
				"element": "H" 
			},
			{
				"x": 1.3715931464,
				"y": -2.3364310688,
				"z": 4.9025619362,
				"element": "H" 
			},
			{
				"x": 2.8671590505,
				"y": -1.5278118534,
				"z": 5.299446848,
				"element": "H" 
			},
			{
				"x": 2.5291192624,
				"y": 0.1644793029,
				"z": 3.5588455842,
				"element": "H" 
			},
			{
				"x": 1.0539214238,
				"y": 0.0439808801,
				"z": 4.5103783677,
				"element": "H" 
			},
			{
				"x": -0.1834820696,
				"y": -2.4963105212,
				"z": 3.4554511843,
				"element": "H" 
			},
			{
				"x": -1.0434988931,
				"y": -0.9585779405,
				"z": 3.4461082831,
				"element": "H" 
			},
			{
				"x": -0.9150306411,
				"y": -1.9045271876,
				"z": 1.9622111423,
				"element": "H" 
			},
			{
				"x": -0.5577444444,
				"y": 0.260461609,
				"z": 1.3086877067,
				"element": "H" 
			},
			{
				"x": 0.2645130523,
				"y": 1.2845921956,
				"z": 2.4629856051,
				"element": "H" 
			},
			{
				"x": 0.8413792525,
				"y": 1.8484599832,
				"z": 0.1604979334,
				"element": "H" 
			},
			{
				"x": 2.2488775817,
				"y": 1.4058672351,
				"z": 1.0652198882,
				"element": "H" 
			},
			{
				"x": 3.6339056726,
				"y": 0.9949975622,
				"z": -0.9519896176,
				"element": "H" 
			},
			{
				"x": 3.7658073833,
				"y": 0.0278219099,
				"z": 0.4941747954,
				"element": "H" 
			},
			{
				"x": 3.8308235391,
				"y": -0.7620322636,
				"z": -1.0720212626,
				"element": "H" 
			},
			{
				"x": 0.0963984435,
				"y": -3.0714511749,
				"z": 0.2485628817,
				"element": "H" 
			},
			{
				"x": -1.3822109216,
				"y": -1.1708665969,
				"z": -0.8620494929,
				"element": "H" 
			},
			{
				"x": -1.0547870021,
				"y": -2.6043083383,
				"z": -1.8040051042,
				"element": "H" 
			},
			{
				"x": 0.5619020198,
				"y": -1.637821686,
				"z": -3.1047449989,
				"element": "H" 
			},
			{
				"x": -1.1912453646,
				"y": 0.2274723721,
				"z": -5.6003516619,
				"element": "H" 
			},
			{
				"x": 0.3838877258,
				"y": 0.6175738406,
				"z": -4.9446069844,
				"element": "H" 
			},
			{
				"x": -0.034566244,
				"y": -1.0740452947,
				"z": -5.256083019,
				"element": "H" 
			},
			{
				"x": -2.5841063694,
				"y": -1.5447117502,
				"z": -2.6460654666,
				"element": "H" 
			},
			{
				"x": -1.8744887062,
				"y": -2.1478881472,
				"z": -4.114599725,
				"element": "H" 
			},
			{
				"x": -3.2671244589,
				"y": -0.750575466,
				"z": -5.4872657548,
				"element": "H" 
			},
			{
				"x": -4.2963515366,
				"y": -1.3216842154,
				"z": -4.1951045522,
				"element": "H" 
			},
			{
				"x": -4.879697304,
				"y": 0.8742792775,
				"z": -3.9502546979,
				"element": "H" 
			},
			{
				"x": -3.7652921444,
				"y": 2.4220507432,
				"z": -5.2107050471,
				"element": "H" 
			},
			{
				"x": -4.4879683848,
				"y": 3.0582269853,
				"z": -2.8772641757,
				"element": "H" 
			},
			{
				"x": -2.9048106398,
				"y": 3.4625370186,
				"z": -3.5796268994,
				"element": "H" 
			},
			{
				"x": -3.095551429,
				"y": 3.3233208466,
				"z": -1.8353135796,
				"element": "H" 
			},
			{
				"x": -3.5870304132,
				"y": -0.3350194786,
				"z": -1.5410100076,
				"element": "H" 
			},
			{
				"x": -3.2046975329,
				"y": 1.1597732583,
				"z": -0.6890695022,
				"element": "H" 
			},
			{
				"x": -4.7486198689,
				"y": 0.9877035062,
				"z": -1.5190132322,
				"element": "H" 
			},
			{
				"x": -1.324821472,
				"y": 1.8311332476,
				"z": -3.9160021891,
				"element": "H" 
			},
			{
				"x": -0.9351630705,
				"y": 1.3261444705,
				"z": -0.9507689916,
				"element": "H" 
			},
			{
				"x": -0.892045625,
				"y": 2.8576152844,
				"z": -1.8085368163,
				"element": "H" 
			},
			{
				"x": 0.9660345124,
				"y": 1.8522638157,
				"z": -3.2776963996,
				"element": "H" 
			},
			{
				"x": 1.4411316269,
				"y": 2.2430991542,
				"z": -1.6554738393,
				"element": "H" 
			},
			{
				"x": 2.8039698609,
				"y": -1.1944146168,
				"z": -2.8805416558,
				"element": "H" 
			},
			{
				"x": 2.002638323,
				"y": -0.1510154764,
				"z": -4.0409491371,
				"element": "H" 
			},
			{
				"x": 3.2028952312,
				"y": 0.5312984566,
				"z": -2.9623340417,
				"element": "H" 
			},
			{
				"x": 2.8405666642,
				"y": -1.028268626,
				"z": 1.6505687787,
				"element": "H" 
			},
			{
				"x": 1.3736276212,
				"y": -3.5761751443,
				"z": 2.3162931292,
				"element": "H" 
			},
			{
				"x": 4.1343932271,
				"y": -3.2331234971,
				"z": 1.0236204827,
				"element": "H" 
			},
			{
				"x": 3.4076473146,
				"y": -4.7610869663,
				"z": 1.5408114647,
				"element": "H" 
			},
			{
				"x": 2.7026859079,
				"y": -3.8555282206,
				"z": 0.1964861164,
				"element": "H" 
			}
		],
		 "valence_orbital": [ 
			{
				"type": "occ",
				"energy": -0.27248,
				"method": "rhf"
			},
			{
				"type": "occ",
				"energy": -0.27021,
				"method": "rhf"
			},
			{
				"type": "occ",
				"energy": -0.2576,
				"method": "rhf"
			},
			{
				"type": "occ",
				"energy": -0.25039,
				"method": "rhf"
			},
			{
				"type": "occ",
				"energy": -0.21429,
				"method": "rhf"
			},
			{
				"type": "unocc",
				"energy": 0.02593,
				"method": "rhf"
			},
			{
				"type": "unocc",
				"energy": 0.06586,
				"method": "rhf"
			},
			{
				"type": "unocc",
				"energy": 0.07584,
				"method": "rhf"
			},
			{
				"type": "unocc",
				"energy": 0.0797,
				"method": "rhf"
			},
			{
				"type": "unocc",
				"energy": 0.08998,
				"method": "rhf"
			}
		],
		"cosmo_sigma_profile": { 
			"-0.025": 0.0,
			"-0.024": 0.0,
			"-0.023": 0.0,
			"-0.022": 0.0,
			"-0.021": 0.0,
			"-0.02": 0.0,
			"-0.019": 0.0,
			"-0.018": 0.0,
			"-0.017": 0.0,
			"-0.016": 0.0,
			"-0.015": 0.0,
			"-0.014": 0.0995038153316,
			"-0.013": 0.856845847335,
			"-0.012": 0.62523085087,
			"-0.011": 1.1616877881,
			"-0.01": 0.70018270024,
			"-0.009": 0.788503136758,
			"-0.008": 0.993290880607,
			"-0.007": 1.07526196815,
			"-0.006": 1.22653888888,
			"-0.005": 1.69148891449,
			"-0.004": 2.96627489107,
			"-0.003": 17.6176096343,
			"-0.002": 70.3945372588,
			"-0.001": 104.907915176,
			"0.0": 95.420683322,
			"0.001": 84.1161810488,
			"0.002": 52.7774481631,
			"0.003": 12.2278514922,
			"0.004": 3.80227366614,
			"0.005": 3.52638332971,
			"0.006": 2.7135608148,
			"0.007": 2.23774451391,
			"0.008": 1.38673652619,
			"0.009": 1.39173049541,
			"0.01": 1.73442900053,
			"0.011": 1.06088233716,
			"0.012": 1.43307912421,
			"0.013": 0.939629438842,
			"0.014": 0.899484953473,
			"0.015": 0.1011208247,
			"0.016": 0.0,
			"0.017": 0.0,
			"0.018": 0.0,
			"0.019": 0.0,
			"0.02": 0.0,
			"0.021": 0.0,
			"0.022": 0.0,
			"0.023": 0.0,
			"0.024": 0.0,
			"0.025": 0.0
		}
	}
}
