{
	 "smiles": "OC(=O)CN1C2=C(C=CC=C2)N=C1C1=CSC=N1", 
	 "Tm": 530.15, 
	 "num_atms": 27, 
	 "gaussian": { 
		 "optdone": 1, 
		 "sigma_profile": "yes", 
		 "theory": "DFT", 
		 "functional": "B3LYP", 
		 "basiset": "6-31G**", 
		 "properties": { 
			 "R2extent": 5985.8022, 
			 "electric_dipole_moment_norm": 5.51051962795, 
			 "electric_quadrupole_moment_norm": 25.0585827935, 
			 "total_energy": -1175.60591748, 
			 "HOMO_LUMO_gap": 0.15544, 
			 "cosmo_polarized_energy": -17.97, 
			 "cosmo_cavitation_energy": 33.21, 
			 "cosmo_dispersion_energy": -24.58, 
			 "cosmo_repulsion_energy": 1.8, 
			 "cosmo_total_nonelectrostatic_energy": 10.42, 
			 "SMD_solvation_energy": 4.86 
		},
		"coords": [
			{
				"x": -2.5778676082,
				"y": -1.9501231749,
				"z": 1.4483298833,
				"element": "O" 
			},
			{
				"x": -1.7416469476,
				"y": -2.2510563112,
				"z": 0.4501828642,
				"element": "C" 
			},
			{
				"x": -1.5942791087,
				"y": -3.3769591518,
				"z": 0.0346146289,
				"element": "O" 
			},
			{
				"x": -0.9617514642,
				"y": -1.0604026874,
				"z": -0.1417149643,
				"element": "C" 
			},
			{
				"x": 0.0701984624,
				"y": -0.5550671469,
				"z": 0.7585155022,
				"element": "N" 
			},
			{
				"x": 1.3692050937,
				"y": -1.043645448,
				"z": 0.8000270956,
				"element": "C" 
			},
			{
				"x": 2.0815452149,
				"y": -0.1484888758,
				"z": 1.6317070555,
				"element": "C" 
			},
			{
				"x": 3.4471794124,
				"y": -0.3579787478,
				"z": 1.8731233802,
				"element": "C" 
			},
			{
				"x": 4.0515752944,
				"y": -1.455526217,
				"z": 1.2722670082,
				"element": "C" 
			},
			{
				"x": 3.3210472464,
				"y": -2.3419880678,
				"z": 0.4516466973,
				"element": "C" 
			},
			{
				"x": 1.9645285233,
				"y": -2.1568552989,
				"z": 0.2010220752,
				"element": "C" 
			},
			{
				"x": 1.2388654335,
				"y": 0.8415657923,
				"z": 2.1000119044,
				"element": "N" 
			},
			{
				"x": 0.0628535309,
				"y": 0.5709154707,
				"z": 1.5726161225,
				"element": "C" 
			},
			{
				"x": -1.1285916942,
				"y": 1.3706593856,
				"z": 1.8537435796,
				"element": "C" 
			},
			{
				"x": -1.0950281353,
				"y": 2.6789833543,
				"z": 2.2656584922,
				"element": "C" 
			},
			{
				"x": -2.6945359547,
				"y": 3.2501361176,
				"z": 2.5688836807,
				"element": "S" 
			},
			{
				"x": -3.3125421849,
				"y": 1.6931710372,
				"z": 2.1211543244,
				"element": "C" 
			},
			{
				"x": -2.4005406613,
				"y": 0.8244385019,
				"z": 1.7790270026,
				"element": "N" 
			},
			{
				"x": -2.583601466,
				"y": -0.973272666,
				"z": 1.6146925445,
				"element": "H" 
			},
			{
				"x": -1.6439189169,
				"y": -0.2447410138,
				"z": -0.3908537356,
				"element": "H" 
			},
			{
				"x": -0.4802895068,
				"y": -1.4066292615,
				"z": -1.0574553606,
				"element": "H" 
			},
			{
				"x": 4.0008075881,
				"y": 0.3223148489,
				"z": 2.5119618131,
				"element": "H" 
			},
			{
				"x": 5.1074912258,
				"y": -1.6442721956,
				"z": 1.4414119773,
				"element": "H" 
			},
			{
				"x": 3.8275445186,
				"y": -3.1967410781,
				"z": 0.0136092123,
				"element": "H" 
			},
			{
				"x": 1.393869191,
				"y": -2.8582772764,
				"z": -0.3990167381,
				"element": "H" 
			},
			{
				"x": -0.2209098858,
				"y": 3.2966231379,
				"z": 2.4057380608,
				"element": "H" 
			},
			{
				"x": -4.3733072009,
				"y": 1.4768169727,
				"z": 2.1422958936,
				"element": "H" 
			}
		],
		 "valence_orbital": [ 
			{
				"type": "occ",
				"energy": -0.28898,
				"method": "rhf"
			},
			{
				"type": "occ",
				"energy": -0.28139,
				"method": "rhf"
			},
			{
				"type": "occ",
				"energy": -0.2651,
				"method": "rhf"
			},
			{
				"type": "occ",
				"energy": -0.2283,
				"method": "rhf"
			},
			{
				"type": "occ",
				"energy": -0.2233,
				"method": "rhf"
			},
			{
				"type": "unocc",
				"energy": -0.06786,
				"method": "rhf"
			},
			{
				"type": "unocc",
				"energy": -0.03983,
				"method": "rhf"
			},
			{
				"type": "unocc",
				"energy": -0.01022,
				"method": "rhf"
			},
			{
				"type": "unocc",
				"energy": 0.00738,
				"method": "rhf"
			},
			{
				"type": "unocc",
				"energy": 0.01288,
				"method": "rhf"
			}
		],
		"cosmo_sigma_profile": { 
			"-0.025": 0.0,
			"-0.024": 0.0,
			"-0.023": 0.0,
			"-0.022": 0.0,
			"-0.021": 0.0,
			"-0.02": 0.0,
			"-0.019": 0.0,
			"-0.018": 0.0,
			"-0.017": 0.0,
			"-0.016": 0.0,
			"-0.015": 0.0,
			"-0.014": 0.0,
			"-0.013": 0.0,
			"-0.012": 0.198998133886,
			"-0.011": 2.42961613261,
			"-0.01": 3.78792438108,
			"-0.009": 5.37813277934,
			"-0.008": 7.47997597574,
			"-0.007": 9.46249070964,
			"-0.006": 14.2767597718,
			"-0.005": 16.856873735,
			"-0.004": 18.1053549069,
			"-0.003": 17.9967995565,
			"-0.002": 19.2439308255,
			"-0.001": 23.494585762,
			"0.0": 23.6304830434,
			"0.001": 17.4863297439,
			"0.002": 10.0037968073,
			"0.003": 12.0126816093,
			"0.004": 13.3714391834,
			"0.005": 12.3661756058,
			"0.006": 7.80888110717,
			"0.007": 3.72257107364,
			"0.008": 4.16958350588,
			"0.009": 4.27210805945,
			"0.01": 5.02400637217,
			"0.011": 7.4398616815,
			"0.012": 5.96238959427,
			"0.013": 2.20790503241,
			"0.014": 1.16366585173,
			"0.015": 0.732965108757,
			"0.016": 0.308798835063,
			"0.017": 0.0,
			"0.018": 0.0,
			"0.019": 0.0,
			"0.02": 0.0,
			"0.021": 0.0,
			"0.022": 0.0,
			"0.023": 0.0,
			"0.024": 0.0,
			"0.025": 0.0
		}
	}
}
