{
	 "smiles": "CC1=NC(=NN1)C1=C(Cl)C=C(Br)C=C1", 
	 "Tm": 453.15, 
	 "num_atms": 21, 
	 "gaussian": { 
		 "optdone": 1, 
		 "sigma_profile": "yes", 
		 "theory": "DFT", 
		 "functional": "B3LYP", 
		 "basiset": "6-31G**", 
		 "properties": { 
			 "R2extent": 6900.7427, 
			 "electric_dipole_moment_norm": 4.92795476745, 
			 "electric_quadrupole_moment_norm": 18.4649320946, 
			 "total_energy": -3543.02414599, 
			 "HOMO_LUMO_gap": 0.19352, 
			 "cosmo_polarized_energy": -14.0, 
			 "cosmo_cavitation_energy": 29.98, 
			 "cosmo_dispersion_energy": -22.69, 
			 "cosmo_repulsion_energy": 1.81, 
			 "cosmo_total_nonelectrostatic_energy": 9.1, 
			 "SMD_solvation_energy": 1.56 
		},
		"coords": [
			{
				"x": -3.1034396623,
				"y": 0.805765442,
				"z": 3.6950605593,
				"element": "C" 
			},
			{
				"x": -1.7790431051,
				"y": 0.542485295,
				"z": 3.0584768717,
				"element": "C" 
			},
			{
				"x": -1.3165805169,
				"y": 1.087873441,
				"z": 1.9469597818,
				"element": "N" 
			},
			{
				"x": -0.0683695464,
				"y": 0.542590462,
				"z": 1.8107561613,
				"element": "C" 
			},
			{
				"x": 0.2639477987,
				"y": -0.3152971663,
				"z": 2.7760556529,
				"element": "N" 
			},
			{
				"x": -0.8403937894,
				"y": -0.300801,
				"z": 3.5585479925,
				"element": "N" 
			},
			{
				"x": 0.8510297392,
				"y": 0.7879369667,
				"z": 0.6842687032,
				"element": "C" 
			},
			{
				"x": 0.9244199599,
				"y": 1.982909595,
				"z": -0.0552089356,
				"element": "C" 
			},
			{
				"x": -0.0540892894,
				"y": 3.386146777,
				"z": 0.3254797398,
				"element": "Cl" 
			},
			{
				"x": 1.8224332611,
				"y": 2.1262271407,
				"z": -1.1163832157,
				"element": "C" 
			},
			{
				"x": 2.6681827862,
				"y": 1.0723808322,
				"z": -1.4432226663,
				"element": "C" 
			},
			{
				"x": 3.888422102,
				"y": 1.2731559325,
				"z": -2.897227578,
				"element": "Br" 
			},
			{
				"x": 2.6386220305,
				"y": -0.1212224328,
				"z": -0.72450064,
				"element": "C" 
			},
			{
				"x": 1.7338351304,
				"y": -0.2466627862,
				"z": 0.3221362651,
				"element": "C" 
			},
			{
				"x": -3.5519396403,
				"y": -0.1110905502,
				"z": 4.0900588338,
				"element": "H" 
			},
			{
				"x": -3.0123885346,
				"y": 1.5210595991,
				"z": 4.5203403789,
				"element": "H" 
			},
			{
				"x": -3.7744231278,
				"y": 1.2338373345,
				"z": 2.9492259387,
				"element": "H" 
			},
			{
				"x": -0.8668958096,
				"y": -0.8641451426,
				"z": 4.3956289271,
				"element": "H" 
			},
			{
				"x": 1.8582728704,
				"y": 3.0573543936,
				"z": -1.6672926733,
				"element": "H" 
			},
			{
				"x": 3.3027340002,
				"y": -0.9372132296,
				"z": -0.9836016477,
				"element": "H" 
			},
			{
				"x": 1.6900633433,
				"y": -1.1701909038,
				"z": 0.8886415506,
				"element": "H" 
			}
		],
		 "valence_orbital": [ 
			{
				"type": "occ",
				"energy": -0.2889,
				"method": "rhf"
			},
			{
				"type": "occ",
				"energy": -0.27371,
				"method": "rhf"
			},
			{
				"type": "occ",
				"energy": -0.27262,
				"method": "rhf"
			},
			{
				"type": "occ",
				"energy": -0.25333,
				"method": "rhf"
			},
			{
				"type": "occ",
				"energy": -0.23129,
				"method": "rhf"
			},
			{
				"type": "unocc",
				"energy": -0.03777,
				"method": "rhf"
			},
			{
				"type": "unocc",
				"energy": -0.01826,
				"method": "rhf"
			},
			{
				"type": "unocc",
				"energy": -0.00157,
				"method": "rhf"
			},
			{
				"type": "unocc",
				"energy": 0.00863,
				"method": "rhf"
			},
			{
				"type": "unocc",
				"energy": 0.04947,
				"method": "rhf"
			}
		],
		"cosmo_sigma_profile": { 
			"-0.025": 0.0,
			"-0.024": 0.0,
			"-0.023": 0.0,
			"-0.022": 0.0,
			"-0.021": 0.0,
			"-0.02": 0.0,
			"-0.019": 0.0,
			"-0.018": 0.280704641698,
			"-0.017": 1.69131909739,
			"-0.016": 1.33466723103,
			"-0.015": 1.2045642464,
			"-0.014": 1.06876996533,
			"-0.013": 0.845976483068,
			"-0.012": 1.45479041397,
			"-0.011": 1.0050875589,
			"-0.01": 1.01591635356,
			"-0.009": 0.939624459541,
			"-0.008": 3.47692995123,
			"-0.007": 6.88076711389,
			"-0.006": 10.0150690512,
			"-0.005": 12.2608145082,
			"-0.004": 12.0026799113,
			"-0.003": 13.4546376276,
			"-0.002": 16.7131877141,
			"-0.001": 14.8604897474,
			"0.0": 19.659705252,
			"0.001": 31.1872946924,
			"0.002": 24.5086502018,
			"0.003": 18.4005109796,
			"0.004": 21.0353997001,
			"0.005": 7.83238884944,
			"0.006": 3.98097814743,
			"0.007": 3.3358741102,
			"0.008": 3.00680122815,
			"0.009": 2.37845479272,
			"0.01": 2.18862689808,
			"0.011": 2.277375581,
			"0.012": 1.38706831015,
			"0.013": 2.1360515564,
			"0.014": 1.38337254388,
			"0.015": 0.740777816194,
			"0.016": 0.375659991542,
			"0.017": 0.0,
			"0.018": 0.0,
			"0.019": 0.0,
			"0.02": 0.0,
			"0.021": 0.0,
			"0.022": 0.0,
			"0.023": 0.0,
			"0.024": 0.0,
			"0.025": 0.0
		}
	}
}
