{
	 "smiles": "COC(=O)C1=NON=C1N", 
	 "Tm": 389.15, 
	 "num_atms": 15, 
	 "gaussian": { 
		 "optdone": 1, 
		 "sigma_profile": "yes", 
		 "theory": "DFT", 
		 "functional": "B3LYP", 
		 "basiset": "6-31G**", 
		 "properties": { 
			 "R2extent": 1798.6345, 
			 "electric_dipole_moment_norm": 5.91278586455, 
			 "electric_quadrupole_moment_norm": 5.98178659934, 
			 "total_energy": -545.277911249, 
			 "HOMO_LUMO_gap": 0.18438, 
			 "cosmo_polarized_energy": -14.63, 
			 "cosmo_cavitation_energy": 20.54, 
			 "cosmo_dispersion_energy": -15.32, 
			 "cosmo_repulsion_energy": 1.26, 
			 "cosmo_total_nonelectrostatic_energy": 6.48, 
			 "SMD_solvation_energy": 4.9 
		},
		"coords": [
			{
				"x": 0.5459379762,
				"y": -2.90933549,
				"z": 0.3214932464,
				"element": "C" 
			},
			{
				"x": 0.2525138728,
				"y": -1.6774172957,
				"z": -0.366687122,
				"element": "O" 
			},
			{
				"x": 1.2632869274,
				"y": -0.7678096321,
				"z": -0.3688023692,
				"element": "C" 
			},
			{
				"x": 2.3316106359,
				"y": -0.9441372176,
				"z": 0.1652798211,
				"element": "O" 
			},
			{
				"x": 0.8522208466,
				"y": 0.4486453719,
				"z": -1.1070306814,
				"element": "C" 
			},
			{
				"x": 1.6258462438,
				"y": 1.508997271,
				"z": -1.1461218803,
				"element": "N" 
			},
			{
				"x": 0.9628093313,
				"y": 2.4313048232,
				"z": -1.8678389319,
				"element": "O" 
			},
			{
				"x": -0.2738200226,
				"y": 1.9639561589,
				"z": -2.30909419,
				"element": "N" 
			},
			{
				"x": -0.3511547789,
				"y": 0.7339911648,
				"z": -1.8480152554,
				"element": "C" 
			},
			{
				"x": -1.3942769475,
				"y": -0.1058611746,
				"z": -2.1109887199,
				"element": "N" 
			},
			{
				"x": 1.4069539487,
				"y": -3.4025219331,
				"z": -0.1345967656,
				"element": "H" 
			},
			{
				"x": -0.3484739684,
				"y": -3.5229495974,
				"z": 0.219539924,
				"element": "H" 
			},
			{
				"x": 0.7631843761,
				"y": -2.7140163501,
				"z": 1.3739004393,
				"element": "H" 
			},
			{
				"x": -1.4933970743,
				"y": -0.8912511962,
				"z": -1.4862383593,
				"element": "H" 
			},
			{
				"x": -2.2443413672,
				"y": 0.327705097,
				"z": -2.4389991558,
				"element": "H" 
			}
		],
		 "valence_orbital": [ 
			{
				"type": "occ",
				"energy": -0.32721,
				"method": "rhf"
			},
			{
				"type": "occ",
				"energy": -0.32046,
				"method": "rhf"
			},
			{
				"type": "occ",
				"energy": -0.31352,
				"method": "rhf"
			},
			{
				"type": "occ",
				"energy": -0.29564,
				"method": "rhf"
			},
			{
				"type": "occ",
				"energy": -0.25419,
				"method": "rhf"
			},
			{
				"type": "unocc",
				"energy": -0.06981,
				"method": "rhf"
			},
			{
				"type": "unocc",
				"energy": -0.00152,
				"method": "rhf"
			},
			{
				"type": "unocc",
				"energy": 0.05706,
				"method": "rhf"
			},
			{
				"type": "unocc",
				"energy": 0.08745,
				"method": "rhf"
			},
			{
				"type": "unocc",
				"energy": 0.09953,
				"method": "rhf"
			}
		],
		"cosmo_sigma_profile": { 
			"-0.025": 0.0,
			"-0.024": 0.0,
			"-0.023": 0.0,
			"-0.022": 0.0,
			"-0.021": 0.0,
			"-0.02": 0.0,
			"-0.019": 0.0,
			"-0.018": 0.0,
			"-0.017": 0.0,
			"-0.016": 0.0,
			"-0.015": 0.715310325116,
			"-0.014": 1.38879796159,
			"-0.013": 1.26406132131,
			"-0.012": 2.20668031007,
			"-0.011": 2.29404435833,
			"-0.01": 1.88314552813,
			"-0.009": 1.97158933105,
			"-0.008": 1.59339696445,
			"-0.007": 5.56795862374,
			"-0.006": 11.7475257984,
			"-0.005": 13.9882198312,
			"-0.004": 17.5111856569,
			"-0.003": 9.66394855109,
			"-0.002": 7.74571094392,
			"-0.001": 6.81022294521,
			"0.0": 5.68431558641,
			"0.001": 6.06743627933,
			"0.002": 5.41294692465,
			"0.003": 5.61739545143,
			"0.004": 6.97344328742,
			"0.005": 8.87101842299,
			"0.006": 8.02662416235,
			"0.007": 5.78788342594,
			"0.008": 4.62594982446,
			"0.009": 5.51622945574,
			"0.01": 7.75096499342,
			"0.011": 5.92600951748,
			"0.012": 1.48918621767,
			"0.013": 0.336162433212,
			"0.014": 0.0,
			"0.015": 0.0,
			"0.016": 0.0,
			"0.017": 0.0,
			"0.018": 0.0,
			"0.019": 0.0,
			"0.02": 0.0,
			"0.021": 0.0,
			"0.022": 0.0,
			"0.023": 0.0,
			"0.024": 0.0,
			"0.025": 0.0
		}
	}
}
