{
	 "smiles": "CCC(CO)NC(=O)CC1=CC=C(N)C=C1", 
	 "Tm": 381.15, 
	 "num_atms": 34, 
	 "gaussian": { 
		 "optdone": 1, 
		 "sigma_profile": "yes", 
		 "theory": "DFT", 
		 "functional": "B3LYP", 
		 "basiset": "6-31G**", 
		 "properties": { 
			 "R2extent": 4892.9288, 
			 "electric_dipole_moment_norm": 5.89395655651, 
			 "electric_quadrupole_moment_norm": 16.233212427, 
			 "total_energy": -728.092746895, 
			 "HOMO_LUMO_gap": 0.19872, 
			 "cosmo_polarized_energy": -19.92, 
			 "cosmo_cavitation_energy": 36.37, 
			 "cosmo_dispersion_energy": -24.94, 
			 "cosmo_repulsion_energy": 2.0, 
			 "cosmo_total_nonelectrostatic_energy": 13.43, 
			 "SMD_solvation_energy": 6.55 
		},
		"coords": [
			{
				"x": 3.3569279037,
				"y": -1.04091218,
				"z": -1.8817154964,
				"element": "C" 
			},
			{
				"x": 2.5945388554,
				"y": -0.8759047141,
				"z": -0.5624767149,
				"element": "C" 
			},
			{
				"x": 1.417673147,
				"y": 0.128064801,
				"z": -0.574443848,
				"element": "C" 
			},
			{
				"x": 1.837285223,
				"y": 1.5962812846,
				"z": -0.7308362092,
				"element": "C" 
			},
			{
				"x": 2.255385562,
				"y": 1.8196663186,
				"z": -2.0756493182,
				"element": "O" 
			},
			{
				"x": 0.4207835608,
				"y": -0.1709577783,
				"z": -1.5968092537,
				"element": "N" 
			},
			{
				"x": -0.763744376,
				"y": -0.8441777176,
				"z": -1.4844254876,
				"element": "C" 
			},
			{
				"x": -1.5397366334,
				"y": -0.9261177982,
				"z": -2.4325562181,
				"element": "O" 
			},
			{
				"x": -1.1143384084,
				"y": -1.463446422,
				"z": -0.1281388569,
				"element": "C" 
			},
			{
				"x": -1.8189141951,
				"y": -0.4766068128,
				"z": 0.7898270502,
				"element": "C" 
			},
			{
				"x": -1.4012278861,
				"y": -0.278640909,
				"z": 2.1107774893,
				"element": "C" 
			},
			{
				"x": -2.0592825186,
				"y": 0.6121652855,
				"z": 2.9579852895,
				"element": "C" 
			},
			{
				"x": -3.1696973006,
				"y": 1.3399675171,
				"z": 2.5027255691,
				"element": "C" 
			},
			{
				"x": -3.8741284457,
				"y": 2.1894745136,
				"z": 3.3604806238,
				"element": "N" 
			},
			{
				"x": -3.5922898303,
				"y": 1.145811264,
				"z": 1.1751411099,
				"element": "C" 
			},
			{
				"x": -2.9285403483,
				"y": 0.2546311848,
				"z": 0.3393531059,
				"element": "C" 
			},
			{
				"x": 3.8218894347,
				"y": -0.1050584439,
				"z": -2.1988365168,
				"element": "H" 
			},
			{
				"x": 4.1385994663,
				"y": -1.8001346458,
				"z": -1.7751547824,
				"element": "H" 
			},
			{
				"x": 2.6848486921,
				"y": -1.367089963,
				"z": -2.6815602053,
				"element": "H" 
			},
			{
				"x": 2.1906572432,
				"y": -1.8507362388,
				"z": -0.2599234134,
				"element": "H" 
			},
			{
				"x": 3.2861738924,
				"y": -0.5719895348,
				"z": 0.2351298409,
				"element": "H" 
			},
			{
				"x": 0.9283660248,
				"y": 0.0727845447,
				"z": 0.4033581301,
				"element": "H" 
			},
			{
				"x": 0.974894635,
				"y": 2.2306164932,
				"z": -0.4815548901,
				"element": "H" 
			},
			{
				"x": 2.6460516491,
				"y": 1.8205570795,
				"z": -0.0184812646,
				"element": "H" 
			},
			{
				"x": 2.2984488587,
				"y": 2.7708754022,
				"z": -2.2285487397,
				"element": "H" 
			},
			{
				"x": 0.5789262358,
				"y": 0.2502303108,
				"z": -2.5044403678,
				"element": "H" 
			},
			{
				"x": -0.2307480354,
				"y": -1.8719943437,
				"z": 0.3720162419,
				"element": "H" 
			},
			{
				"x": -1.7755227815,
				"y": -2.3037423797,
				"z": -0.3618298341,
				"element": "H" 
			},
			{
				"x": -0.5494179605,
				"y": -0.8368770649,
				"z": 2.4939039045,
				"element": "H" 
			},
			{
				"x": -1.7164447933,
				"y": 0.7395803877,
				"z": 3.9821982069,
				"element": "H" 
			},
			{
				"x": -3.3412582083,
				"y": 2.5493824768,
				"z": 4.1403200256,
				"element": "H" 
			},
			{
				"x": -4.4035904246,
				"y": 2.9175852361,
				"z": 2.900883782,
				"element": "H" 
			},
			{
				"x": -4.4534557822,
				"y": 1.6960735802,
				"z": 0.8028667367,
				"element": "H" 
			},
			{
				"x": -3.2660124557,
				"y": 0.1216392664,
				"z": -0.6846856889,
				"element": "H" 
			}
		],
		 "valence_orbital": [ 
			{
				"type": "occ",
				"energy": -0.28287,
				"method": "rhf"
			},
			{
				"type": "occ",
				"energy": -0.24429,
				"method": "rhf"
			},
			{
				"type": "occ",
				"energy": -0.23691,
				"method": "rhf"
			},
			{
				"type": "occ",
				"energy": -0.23213,
				"method": "rhf"
			},
			{
				"type": "occ",
				"energy": -0.19664,
				"method": "rhf"
			},
			{
				"type": "unocc",
				"energy": 0.00208,
				"method": "rhf"
			},
			{
				"type": "unocc",
				"energy": 0.01577,
				"method": "rhf"
			},
			{
				"type": "unocc",
				"energy": 0.04156,
				"method": "rhf"
			},
			{
				"type": "unocc",
				"energy": 0.05777,
				"method": "rhf"
			},
			{
				"type": "unocc",
				"energy": 0.08157,
				"method": "rhf"
			}
		],
		"cosmo_sigma_profile": { 
			"-0.025": 0.0,
			"-0.024": 0.0,
			"-0.023": 0.0,
			"-0.022": 0.0,
			"-0.021": 0.0,
			"-0.02": 0.0,
			"-0.019": 0.0,
			"-0.018": 0.0,
			"-0.017": 0.0647930861802,
			"-0.016": 0.868634224304,
			"-0.015": 1.1244892829,
			"-0.014": 0.634030920397,
			"-0.013": 1.08740445231,
			"-0.012": 3.69811238925,
			"-0.011": 2.94988796352,
			"-0.01": 3.72628325471,
			"-0.009": 4.88636687494,
			"-0.008": 3.83707616715,
			"-0.007": 4.50071721173,
			"-0.006": 9.14843026731,
			"-0.005": 13.5947219883,
			"-0.004": 24.3881697788,
			"-0.003": 24.8084099372,
			"-0.002": 22.3901638875,
			"-0.001": 22.2046207264,
			"0.0": 22.3621855083,
			"0.001": 20.4020027398,
			"0.002": 16.1010353261,
			"0.003": 11.3599072518,
			"0.004": 11.4227630792,
			"0.005": 10.419839907,
			"0.006": 12.4213447126,
			"0.007": 9.15132990173,
			"0.008": 3.34012202515,
			"0.009": 3.44317812722,
			"0.01": 2.96840187462,
			"0.011": 1.95040114191,
			"0.012": 2.53913678483,
			"0.013": 3.01296214053,
			"0.014": 5.00090313518,
			"0.015": 3.94409310527,
			"0.016": 0.306301338816,
			"0.017": 0.0,
			"0.018": 0.0,
			"0.019": 0.0,
			"0.02": 0.0,
			"0.021": 0.0,
			"0.022": 0.0,
			"0.023": 0.0,
			"0.024": 0.0,
			"0.025": 0.0
		}
	}
}
