{
	 "smiles": "OC(=O)C1=CC2=C(OC1=O)C(Br)=CC(Cl)=C2", 
	 "Tm": 480.15, 
	 "num_atms": 20, 
	 "gaussian": { 
		 "optdone": 1, 
		 "sigma_profile": "yes", 
		 "theory": "DFT", 
		 "functional": "B3LYP", 
		 "basiset": "6-31G**", 
		 "properties": { 
			 "R2extent": 7156.7424, 
			 "electric_dipole_moment_norm": 4.91142317969, 
			 "electric_quadrupole_moment_norm": 10.0143507418, 
			 "total_energy": -3715.98094753, 
			 "HOMO_LUMO_gap": 0.15338, 
			 "cosmo_polarized_energy": -14.9, 
			 "cosmo_cavitation_energy": 29.99, 
			 "cosmo_dispersion_energy": -22.84, 
			 "cosmo_repulsion_energy": 1.75, 
			 "cosmo_total_nonelectrostatic_energy": 8.9, 
			 "SMD_solvation_energy": 5.94 
		},
		"coords": [
			{
				"x": 0.200455692,
				"y": 2.639490874,
				"z": -3.4307423256,
				"element": "O" 
			},
			{
				"x": 0.7365860431,
				"y": 1.6220744685,
				"z": -2.7538880544,
				"element": "C" 
			},
			{
				"x": 1.8741594644,
				"y": 1.2438317438,
				"z": -2.9320027299,
				"element": "O" 
			},
			{
				"x": -0.1521336463,
				"y": 0.9451455154,
				"z": -1.7342895941,
				"element": "C" 
			},
			{
				"x": 0.3460859943,
				"y": -0.0961685032,
				"z": -1.018199965,
				"element": "C" 
			},
			{
				"x": -0.4489350644,
				"y": -0.77798214,
				"z": -0.0370002225,
				"element": "C" 
			},
			{
				"x": -1.7686993716,
				"y": -0.322251892,
				"z": 0.1529788503,
				"element": "C" 
			},
			{
				"x": -2.2640802146,
				"y": 0.720592309,
				"z": -0.5657609353,
				"element": "O" 
			},
			{
				"x": -1.5242701077,
				"y": 1.39356302,
				"z": -1.5137364281,
				"element": "C" 
			},
			{
				"x": -2.0729860642,
				"y": 2.3139917094,
				"z": -2.0973312238,
				"element": "O" 
			},
			{
				"x": -2.6010929347,
				"y": -0.9417848427,
				"z": 1.0947400966,
				"element": "C" 
			},
			{
				"x": -4.3753367874,
				"y": -0.3345681933,
				"z": 1.3549316945,
				"element": "Br" 
			},
			{
				"x": -2.1176824254,
				"y": -2.0100014969,
				"z": 1.8420332387,
				"element": "C" 
			},
			{
				"x": -0.8038092875,
				"y": -2.460924898,
				"z": 1.6504299034,
				"element": "C" 
			},
			{
				"x": -0.2236917989,
				"y": -3.8067660017,
				"z": 2.6051491285,
				"element": "Cl" 
			},
			{
				"x": 0.0320818416,
				"y": -1.8598741787,
				"z": 0.7237730822,
				"element": "C" 
			},
			{
				"x": -0.7287822006,
				"y": 2.7787983945,
				"z": -3.1316270778,
				"element": "H" 
			},
			{
				"x": 1.3708986294,
				"y": -0.4041201204,
				"z": -1.2073291308,
				"element": "H" 
			},
			{
				"x": -2.7577640808,
				"y": -2.4914799932,
				"z": 2.5708646288,
				"element": "H" 
			},
			{
				"x": 1.0470963191,
				"y": -2.2122657746,
				"z": 0.5794070643,
				"element": "H" 
			}
		],
		 "valence_orbital": [ 
			{
				"type": "occ",
				"energy": -0.31483,
				"method": "rhf"
			},
			{
				"type": "occ",
				"energy": -0.31086,
				"method": "rhf"
			},
			{
				"type": "occ",
				"energy": -0.28362,
				"method": "rhf"
			},
			{
				"type": "occ",
				"energy": -0.27914,
				"method": "rhf"
			},
			{
				"type": "occ",
				"energy": -0.2691,
				"method": "rhf"
			},
			{
				"type": "unocc",
				"energy": -0.11572,
				"method": "rhf"
			},
			{
				"type": "unocc",
				"energy": -0.05652,
				"method": "rhf"
			},
			{
				"type": "unocc",
				"energy": -0.03969,
				"method": "rhf"
			},
			{
				"type": "unocc",
				"energy": -0.03229,
				"method": "rhf"
			},
			{
				"type": "unocc",
				"energy": -0.00429,
				"method": "rhf"
			}
		],
		"cosmo_sigma_profile": { 
			"-0.025": 0.0,
			"-0.024": 0.0,
			"-0.023": 0.0,
			"-0.022": 0.0,
			"-0.021": 0.0,
			"-0.02": 0.0,
			"-0.019": 0.0,
			"-0.018": 0.0,
			"-0.017": 0.0,
			"-0.016": 0.0,
			"-0.015": 0.0,
			"-0.014": 0.0,
			"-0.013": 0.0,
			"-0.012": 0.0910440667086,
			"-0.011": 1.63995417436,
			"-0.01": 3.25062656011,
			"-0.009": 6.15288565196,
			"-0.008": 7.56378492387,
			"-0.007": 9.03306625751,
			"-0.006": 11.774563862,
			"-0.005": 10.9791526907,
			"-0.004": 14.4055504432,
			"-0.003": 21.5377241422,
			"-0.002": 19.3619190274,
			"-0.001": 22.7678038211,
			"0.0": 14.791159829,
			"0.001": 12.4184790862,
			"0.002": 16.0266590058,
			"0.003": 21.3972509991,
			"0.004": 11.5900939173,
			"0.005": 4.19741849057,
			"0.006": 6.03916249963,
			"0.007": 5.21724417932,
			"0.008": 4.8345845818,
			"0.009": 5.08585414845,
			"0.01": 7.63843616234,
			"0.011": 6.21917200257,
			"0.012": 3.50989576682,
			"0.013": 1.26224166596,
			"0.014": 0.0148059470318,
			"0.015": 0.0,
			"0.016": 0.0,
			"0.017": 0.0,
			"0.018": 0.0,
			"0.019": 0.0,
			"0.02": 0.0,
			"0.021": 0.0,
			"0.022": 0.0,
			"0.023": 0.0,
			"0.024": 0.0,
			"0.025": 0.0
		}
	}
}
