{
	 "smiles": "CC[Si](CC)(CC)CC", 
	 "Tm": 190.95, 
	 "num_atms": 29, 
	 "gaussian": { 
		 "optdone": 1, 
		 "sigma_profile": "yes", 
		 "theory": "DFT", 
		 "functional": "B3LYP", 
		 "basiset": "6-31G**", 
		 "properties": { 
			 "R2extent": 1905.1029, 
			 "electric_dipole_moment_norm": 0.000547722557505, 
			 "electric_quadrupole_moment_norm": 0.420980165804, 
			 "total_energy": -606.450042427, 
			 "HOMO_LUMO_gap": 0.32691, 
			 "cosmo_polarized_energy": -0.93, 
			 "cosmo_cavitation_energy": 31.24, 
			 "cosmo_dispersion_energy": -18.81, 
			 "cosmo_repulsion_energy": 1.65, 
			 "cosmo_total_nonelectrostatic_energy": 14.08, 
			 "SMD_solvation_energy": 5.83 
		},
		"coords": [
			{
				"x": -1.9103126676,
				"y": -0.4988205549,
				"z": -2.548955917,
				"element": "C" 
			},
			{
				"x": -0.5061120875,
				"y": -0.1102422604,
				"z": -2.0514784422,
				"element": "C" 
			},
			{
				"x": -0.2584219026,
				"y": -0.1558574085,
				"z": -0.1622116941,
				"element": "Si" 
			},
			{
				"x": 1.5390897643,
				"y": 0.361655095,
				"z": 0.203213265,
				"element": "C" 
			},
			{
				"x": 1.9371516765,
				"y": 0.3839002187,
				"z": 1.6902878804,
				"element": "C" 
			},
			{
				"x": -0.5908964178,
				"y": -1.9095308429,
				"z": 0.5054705969,
				"element": "C" 
			},
			{
				"x": 0.3054481896,
				"y": -3.0216955602,
				"z": -0.0688040723,
				"element": "C" 
			},
			{
				"x": -1.4756331187,
				"y": 1.0353309493,
				"z": 0.6932638794,
				"element": "C" 
			},
			{
				"x": -1.3648603349,
				"y": 2.5132831403,
				"z": 0.2766571474,
				"element": "C" 
			},
			{
				"x": -2.6806995641,
				"y": 0.1674970474,
				"z": -2.144994066,
				"element": "H" 
			},
			{
				"x": -1.9815746334,
				"y": -0.451262953,
				"z": -3.6417536828,
				"element": "H" 
			},
			{
				"x": -2.1764605044,
				"y": -1.5192462282,
				"z": -2.2513225192,
				"element": "H" 
			},
			{
				"x": -0.2564402764,
				"y": 0.8994170796,
				"z": -2.405734084,
				"element": "H" 
			},
			{
				"x": 0.2429267676,
				"y": -0.7695764676,
				"z": -2.5114021498,
				"element": "H" 
			},
			{
				"x": 2.208990138,
				"y": -0.3133605297,
				"z": -0.347091485,
				"element": "H" 
			},
			{
				"x": 1.7059277828,
				"y": 1.3542770601,
				"z": -0.2374364247,
				"element": "H" 
			},
			{
				"x": 2.9804525663,
				"y": 0.6911856692,
				"z": 1.8268362817,
				"element": "H" 
			},
			{
				"x": 1.3165855075,
				"y": 1.0811080497,
				"z": 2.264274524,
				"element": "H" 
			},
			{
				"x": 1.8273237487,
				"y": -0.6033643422,
				"z": 2.1528510873,
				"element": "H" 
			},
			{
				"x": -1.6457906487,
				"y": -2.1532900326,
				"z": 0.318234775,
				"element": "H" 
			},
			{
				"x": -0.4915452684,
				"y": -1.8843918823,
				"z": 1.5993898858,
				"element": "H" 
			},
			{
				"x": 0.0601397004,
				"y": -4.0015587767,
				"z": 0.3569023182,
				"element": "H" 
			},
			{
				"x": 0.198854172,
				"y": -3.1051713158,
				"z": -1.1561481664,
				"element": "H" 
			},
			{
				"x": 1.364848863,
				"y": -2.834365865,
				"z": 0.1390930391,
				"element": "H" 
			},
			{
				"x": -2.496659756,
				"y": 0.675443828,
				"z": 0.5056768736,
				"element": "H" 
			},
			{
				"x": -1.3350270719,
				"y": 0.9473952824,
				"z": 1.7794344821,
				"element": "H" 
			},
			{
				"x": -1.5433103006,
				"y": 2.6449060185,
				"z": -0.7964057867,
				"element": "H" 
			},
			{
				"x": -2.0924417384,
				"y": 3.1399501858,
				"z": 0.805289401,
				"element": "H" 
			},
			{
				"x": -0.3704525852,
				"y": 2.9201853958,
				"z": 0.4916630535,
				"element": "H" 
			}
		],
		 "valence_orbital": [ 
			{
				"type": "occ",
				"energy": -0.33921,
				"method": "rhf"
			},
			{
				"type": "occ",
				"energy": -0.33017,
				"method": "rhf"
			},
			{
				"type": "occ",
				"energy": -0.26787,
				"method": "rhf"
			},
			{
				"type": "occ",
				"energy": -0.26785,
				"method": "rhf"
			},
			{
				"type": "occ",
				"energy": -0.26713,
				"method": "rhf"
			},
			{
				"type": "unocc",
				"energy": 0.05978,
				"method": "rhf"
			},
			{
				"type": "unocc",
				"energy": 0.08556,
				"method": "rhf"
			},
			{
				"type": "unocc",
				"energy": 0.08559,
				"method": "rhf"
			},
			{
				"type": "unocc",
				"energy": 0.08571,
				"method": "rhf"
			},
			{
				"type": "unocc",
				"energy": 0.12908,
				"method": "rhf"
			}
		],
		"cosmo_sigma_profile": { 
			"-0.025": 0.0,
			"-0.024": 0.0,
			"-0.023": 0.0,
			"-0.022": 0.0,
			"-0.021": 0.0,
			"-0.02": 0.0,
			"-0.019": 0.0,
			"-0.018": 0.0,
			"-0.017": 0.0,
			"-0.016": 0.0,
			"-0.015": 0.0,
			"-0.014": 0.0,
			"-0.013": 0.0,
			"-0.012": 0.0,
			"-0.011": 0.0,
			"-0.01": 0.0,
			"-0.009": 0.0,
			"-0.008": 0.0,
			"-0.007": 0.0,
			"-0.006": 0.0,
			"-0.005": 0.0,
			"-0.004": 0.0,
			"-0.003": 3.03783580192,
			"-0.002": 35.7758956846,
			"-0.001": 54.9217854686,
			"0.0": 52.2939660118,
			"0.001": 46.6729283005,
			"0.002": 39.3458514703,
			"0.003": 3.3434859633,
			"0.004": 0.0,
			"0.005": 0.0,
			"0.006": 0.0,
			"0.007": 0.0,
			"0.008": 0.0,
			"0.009": 0.0,
			"0.01": 0.0,
			"0.011": 0.0,
			"0.012": 0.0,
			"0.013": 0.0,
			"0.014": 0.0,
			"0.015": 0.0,
			"0.016": 0.0,
			"0.017": 0.0,
			"0.018": 0.0,
			"0.019": 0.0,
			"0.02": 0.0,
			"0.021": 0.0,
			"0.022": 0.0,
			"0.023": 0.0,
			"0.024": 0.0,
			"0.025": 0.0
		}
	}
}
