{
	 "smiles": "CCOC(=O)NC1=CC=CC(OC(=O)NC2=CC=CC=C2)=C1", 
	 "Tm": 393.15, 
	 "num_atms": 38, 
	 "gaussian": { 
		 "optdone": 1, 
		 "sigma_profile": "yes", 
		 "theory": "DFT", 
		 "functional": "B3LYP", 
		 "basiset": "6-31G**", 
		 "properties": { 
			 "R2extent": 12088.212, 
			 "electric_dipole_moment_norm": 3.0442518342, 
			 "electric_quadrupole_moment_norm": 22.3575540104, 
			 "total_energy": -1029.78909588, 
			 "HOMO_LUMO_gap": 0.20316, 
			 "cosmo_polarized_energy": -16.62, 
			 "cosmo_cavitation_energy": 43.44, 
			 "cosmo_dispersion_energy": -31.01, 
			 "cosmo_repulsion_energy": 2.38, 
			 "cosmo_total_nonelectrostatic_energy": 14.81, 
			 "SMD_solvation_energy": 9.75 
		},
		"coords": [
			{
				"x": 0.3849178083,
				"y": 5.9728059382,
				"z": 4.615812113,
				"element": "C" 
			},
			{
				"x": 1.4078078039,
				"y": 5.9207150081,
				"z": 3.4921509154,
				"element": "C" 
			},
			{
				"x": 1.1786850768,
				"y": 4.7865812402,
				"z": 2.6190207763,
				"element": "O" 
			},
			{
				"x": 0.2575198149,
				"y": 4.9748920218,
				"z": 1.6497043673,
				"element": "C" 
			},
			{
				"x": -0.3535026392,
				"y": 6.0124179896,
				"z": 1.4631195677,
				"element": "O" 
			},
			{
				"x": 0.0575138313,
				"y": 3.8628095288,
				"z": 0.8612341024,
				"element": "N" 
			},
			{
				"x": 0.597902294,
				"y": 2.5611363685,
				"z": 0.8517726991,
				"element": "C" 
			},
			{
				"x": 1.6810449295,
				"y": 2.1421260168,
				"z": 1.6388557906,
				"element": "C" 
			},
			{
				"x": 2.1365060706,
				"y": 0.8283950632,
				"z": 1.5288606159,
				"element": "C" 
			},
			{
				"x": 1.5487250759,
				"y": -0.0778460383,
				"z": 0.650041284,
				"element": "C" 
			},
			{
				"x": 0.4760257514,
				"y": 0.3570719949,
				"z": -0.1267737142,
				"element": "C" 
			},
			{
				"x": -0.1165289237,
				"y": -0.6249430136,
				"z": -0.9226739969,
				"element": "O" 
			},
			{
				"x": -0.6133824975,
				"y": -0.3391950536,
				"z": -2.1596103098,
				"element": "C" 
			},
			{
				"x": -0.6199328956,
				"y": 0.7546519204,
				"z": -2.6871885983,
				"element": "O" 
			},
			{
				"x": -1.1238412308,
				"y": -1.4581271501,
				"z": -2.7723111503,
				"element": "N" 
			},
			{
				"x": -1.1676032018,
				"y": -2.8261911593,
				"z": -2.4130795365,
				"element": "C" 
			},
			{
				"x": -1.2884615088,
				"y": -3.7509587172,
				"z": -3.4627955548,
				"element": "C" 
			},
			{
				"x": -1.3814608334,
				"y": -5.1146625219,
				"z": -3.1983173762,
				"element": "C" 
			},
			{
				"x": -1.347580347,
				"y": -5.5807952376,
				"z": -1.8830551045,
				"element": "C" 
			},
			{
				"x": -1.2306848494,
				"y": -4.6613066157,
				"z": -0.8403545579,
				"element": "C" 
			},
			{
				"x": -1.1491606932,
				"y": -3.2911726108,
				"z": -1.0902233019,
				"element": "C" 
			},
			{
				"x": -0.0127304644,
				"y": 1.6549355971,
				"z": -0.0327333397,
				"element": "C" 
			},
			{
				"x": -0.6151502038,
				"y": 6.1484891668,
				"z": 4.21272551,
				"element": "H" 
			},
			{
				"x": 0.6287790221,
				"y": 6.7921334262,
				"z": 5.300404427,
				"element": "H" 
			},
			{
				"x": 0.3817164047,
				"y": 5.0386000345,
				"z": 5.1851605382,
				"element": "H" 
			},
			{
				"x": 1.3852716438,
				"y": 6.8334280276,
				"z": 2.8932230489,
				"element": "H" 
			},
			{
				"x": 2.4185440688,
				"y": 5.7608825169,
				"z": 3.8749760445,
				"element": "H" 
			},
			{
				"x": -0.6496186043,
				"y": 4.0480419136,
				"z": 0.1636885932,
				"element": "H" 
			},
			{
				"x": 2.1564824945,
				"y": 2.8311830162,
				"z": 2.3200837397,
				"element": "H" 
			},
			{
				"x": 2.9747090772,
				"y": 0.5096069455,
				"z": 2.1413388798,
				"element": "H" 
			},
			{
				"x": 1.8997075119,
				"y": -1.0991899004,
				"z": 0.5559314267,
				"element": "H" 
			},
			{
				"x": -1.417669493,
				"y": -1.240626034,
				"z": -3.7143541685,
				"element": "H" 
			},
			{
				"x": -1.3026927813,
				"y": -3.3950955719,
				"z": -4.4902562558,
				"element": "H" 
			},
			{
				"x": -1.4741415736,
				"y": -5.8125522933,
				"z": -4.0253629951,
				"element": "H" 
			},
			{
				"x": -1.4147751142,
				"y": -6.6439434525,
				"z": -1.6743946516,
				"element": "H" 
			},
			{
				"x": -1.2124836674,
				"y": -5.0078789058,
				"z": 0.1890514589,
				"element": "H" 
			},
			{
				"x": -1.0746849091,
				"y": -2.5923972585,
				"z": -0.269218735,
				"element": "H" 
			},
			{
				"x": -0.8406722482,
				"y": 1.9669777999,
				"z": -0.6556525515,
				"element": "H" 
			}
		],
		 "valence_orbital": [ 
			{
				"type": "occ",
				"energy": -0.27803,
				"method": "rhf"
			},
			{
				"type": "occ",
				"energy": -0.25717,
				"method": "rhf"
			},
			{
				"type": "occ",
				"energy": -0.24697,
				"method": "rhf"
			},
			{
				"type": "occ",
				"energy": -0.22637,
				"method": "rhf"
			},
			{
				"type": "occ",
				"energy": -0.21924,
				"method": "rhf"
			},
			{
				"type": "unocc",
				"energy": -0.01608,
				"method": "rhf"
			},
			{
				"type": "unocc",
				"energy": -0.00764,
				"method": "rhf"
			},
			{
				"type": "unocc",
				"energy": -0.00738,
				"method": "rhf"
			},
			{
				"type": "unocc",
				"energy": 0.00147,
				"method": "rhf"
			},
			{
				"type": "unocc",
				"energy": 0.05256,
				"method": "rhf"
			}
		],
		"cosmo_sigma_profile": { 
			"-0.025": 0.0,
			"-0.024": 0.0,
			"-0.023": 0.0,
			"-0.022": 0.0,
			"-0.021": 0.0,
			"-0.02": 0.0,
			"-0.019": 0.0,
			"-0.018": 0.0,
			"-0.017": 0.0,
			"-0.016": 0.15318058866,
			"-0.015": 1.77609488146,
			"-0.014": 1.68607824548,
			"-0.013": 3.1321091988,
			"-0.012": 1.68580341006,
			"-0.011": 2.05756589937,
			"-0.01": 1.9362487527,
			"-0.009": 2.23584868136,
			"-0.008": 2.59820859648,
			"-0.007": 2.97615748455,
			"-0.006": 12.7168899317,
			"-0.005": 20.0673969025,
			"-0.004": 29.0741210323,
			"-0.003": 28.6424181173,
			"-0.002": 27.0458628606,
			"-0.001": 28.4927694142,
			"0.0": 32.1500200288,
			"0.001": 23.3003855829,
			"0.002": 23.6587548963,
			"0.003": 23.8722443957,
			"0.004": 23.3146015723,
			"0.005": 17.9569366565,
			"0.006": 7.71451442317,
			"0.007": 2.2951416094,
			"0.008": 3.12596794962,
			"0.009": 3.0896703077,
			"0.01": 3.42691162001,
			"0.011": 3.77165578157,
			"0.012": 8.11092012102,
			"0.013": 4.81507435321,
			"0.014": 0.102768746367,
			"0.015": 0.0,
			"0.016": 0.0,
			"0.017": 0.0,
			"0.018": 0.0,
			"0.019": 0.0,
			"0.02": 0.0,
			"0.021": 0.0,
			"0.022": 0.0,
			"0.023": 0.0,
			"0.024": 0.0,
			"0.025": 0.0
		}
	}
}
