{
	 "smiles": "CCCCCCCNCCCCCCC", 
	 "Tm": 304.65, 
	 "num_atms": 46, 
	 "gaussian": { 
		 "optdone": 1, 
		 "sigma_profile": "yes", 
		 "theory": "DFT", 
		 "functional": "B3LYP", 
		 "basiset": "6-31G**", 
		 "properties": { 
			 "R2extent": 6786.2104, 
			 "electric_dipole_moment_norm": 1.05435759588, 
			 "electric_quadrupole_moment_norm": 3.25719980658, 
			 "total_energy": -606.957626472, 
			 "HOMO_LUMO_gap": 0.28854, 
			 "cosmo_polarized_energy": -3.45, 
			 "cosmo_cavitation_energy": 44.97, 
			 "cosmo_dispersion_energy": -29.95, 
			 "cosmo_repulsion_energy": 2.48, 
			 "cosmo_total_nonelectrostatic_energy": 17.5, 
			 "SMD_solvation_energy": 5.48 
		},
		"coords": [
			{
				"x": -2.6950432836,
				"y": -4.2184555743,
				"z": 3.6705856139,
				"element": "C" 
			},
			{
				"x": -1.5765571533,
				"y": -3.4572812845,
				"z": 2.9511988182,
				"element": "C" 
			},
			{
				"x": -1.2632105164,
				"y": -4.0279241431,
				"z": 1.5607211601,
				"element": "C" 
			},
			{
				"x": -0.10329685,
				"y": -3.3360966267,
				"z": 0.8249962597,
				"element": "C" 
			},
			{
				"x": -0.3833505915,
				"y": -1.8784834878,
				"z": 0.4263864025,
				"element": "C" 
			},
			{
				"x": 0.7301739622,
				"y": -1.2243069309,
				"z": -0.4068754934,
				"element": "C" 
			},
			{
				"x": 2.0213007471,
				"y": -0.9333655005,
				"z": 0.3785919731,
				"element": "C" 
			},
			{
				"x": 1.8305894663,
				"y": 0.0170977792,
				"z": 1.48410528,
				"element": "N" 
			},
			{
				"x": 2.3815471248,
				"y": 1.359349149,
				"z": 1.2779374039,
				"element": "C" 
			},
			{
				"x": 1.497780907,
				"y": 2.2636632838,
				"z": 0.4065897029,
				"element": "C" 
			},
			{
				"x": 0.130487844,
				"y": 2.5726402285,
				"z": 1.0297806583,
				"element": "C" 
			},
			{
				"x": -0.7656365555,
				"y": 3.496552964,
				"z": 0.188528798,
				"element": "C" 
			},
			{
				"x": -1.2666565184,
				"y": 2.8866621546,
				"z": -1.1284437962,
				"element": "C" 
			},
			{
				"x": -2.2170288924,
				"y": 3.8098768359,
				"z": -1.9023233323,
				"element": "C" 
			},
			{
				"x": -2.7188988253,
				"y": 3.200301167,
				"z": -3.2152008666,
				"element": "C" 
			},
			{
				"x": -2.4323356378,
				"y": -5.2738868435,
				"z": 3.8076921302,
				"element": "H" 
			},
			{
				"x": -2.8975738582,
				"y": -3.794988691,
				"z": 4.6599726059,
				"element": "H" 
			},
			{
				"x": -3.6289599762,
				"y": -4.1844299232,
				"z": 3.0976647663,
				"element": "H" 
			},
			{
				"x": -0.6641166644,
				"y": -3.4823091401,
				"z": 3.5634359319,
				"element": "H" 
			},
			{
				"x": -1.8556201285,
				"y": -2.3999137861,
				"z": 2.8663697304,
				"element": "H" 
			},
			{
				"x": -2.1681865716,
				"y": -3.9773171604,
				"z": 0.9377242016,
				"element": "H" 
			},
			{
				"x": -1.0291286464,
				"y": -5.0964939001,
				"z": 1.6654478643,
				"element": "H" 
			},
			{
				"x": 0.7957465346,
				"y": -3.3892098706,
				"z": 1.4549663652,
				"element": "H" 
			},
			{
				"x": 0.1303546972,
				"y": -3.9109029734,
				"z": -0.0821437132,
				"element": "H" 
			},
			{
				"x": -1.3199870162,
				"y": -1.8486943719,
				"z": -0.1472065011,
				"element": "H" 
			},
			{
				"x": -0.5436682659,
				"y": -1.2634543723,
				"z": 1.319276758,
				"element": "H" 
			},
			{
				"x": 0.3552052308,
				"y": -0.2835463627,
				"z": -0.8266981544,
				"element": "H" 
			},
			{
				"x": 0.9818183656,
				"y": -1.8675342796,
				"z": -1.2626909643,
				"element": "H" 
			},
			{
				"x": 2.4094002426,
				"y": -1.8755448207,
				"z": 0.7853123612,
				"element": "H" 
			},
			{
				"x": 2.7915959403,
				"y": -0.5665358016,
				"z": -0.3197437274,
				"element": "H" 
			},
			{
				"x": 2.2193439983,
				"y": -0.3682028401,
				"z": 2.3360783369,
				"element": "H" 
			},
			{
				"x": 2.4888910397,
				"y": 1.8243425732,
				"z": 2.2664413175,
				"element": "H" 
			},
			{
				"x": 3.3943909013,
				"y": 1.3234962447,
				"z": 0.8331525004,
				"element": "H" 
			},
			{
				"x": 1.3747111147,
				"y": 1.8020105,
				"z": -0.5808567486,
				"element": "H" 
			},
			{
				"x": 2.042708745,
				"y": 3.2026149265,
				"z": 0.233428059,
				"element": "H" 
			},
			{
				"x": -0.3909821244,
				"y": 1.6292711766,
				"z": 1.230724552,
				"element": "H" 
			},
			{
				"x": 0.2958456712,
				"y": 3.0404825863,
				"z": 2.010562553,
				"element": "H" 
			},
			{
				"x": -0.2274729431,
				"y": 4.4312891845,
				"z": -0.0274119857,
				"element": "H" 
			},
			{
				"x": -1.636924022,
				"y": 3.7848256094,
				"z": 0.7926725197,
				"element": "H" 
			},
			{
				"x": -1.7792132318,
				"y": 1.9374471806,
				"z": -0.9141900967,
				"element": "H" 
			},
			{
				"x": -0.4153632549,
				"y": 2.6324973057,
				"z": -1.7742556765,
				"element": "H" 
			},
			{
				"x": -1.7067595172,
				"y": 4.7601786102,
				"z": -2.1114589658,
				"element": "H" 
			},
			{
				"x": -3.0749351156,
				"y": 4.0620950208,
				"z": -1.2639821697,
				"element": "H" 
			},
			{
				"x": -3.3945733125,
				"y": 3.8820894409,
				"z": -3.7423228043,
				"element": "H" 
			},
			{
				"x": -1.8859008668,
				"y": 2.9708043677,
				"z": -3.8897457537,
				"element": "H" 
			},
			{
				"x": -3.2632121929,
				"y": 2.2659903957,
				"z": -3.0355938741,
				"element": "H" 
			}
		],
		 "valence_orbital": [ 
			{
				"type": "occ",
				"energy": -0.30377,
				"method": "rhf"
			},
			{
				"type": "occ",
				"energy": -0.30245,
				"method": "rhf"
			},
			{
				"type": "occ",
				"energy": -0.30033,
				"method": "rhf"
			},
			{
				"type": "occ",
				"energy": -0.29766,
				"method": "rhf"
			},
			{
				"type": "occ",
				"energy": -0.21329,
				"method": "rhf"
			},
			{
				"type": "unocc",
				"energy": 0.07525,
				"method": "rhf"
			},
			{
				"type": "unocc",
				"energy": 0.0875,
				"method": "rhf"
			},
			{
				"type": "unocc",
				"energy": 0.09964,
				"method": "rhf"
			},
			{
				"type": "unocc",
				"energy": 0.1038,
				"method": "rhf"
			},
			{
				"type": "unocc",
				"energy": 0.10955,
				"method": "rhf"
			}
		],
		"cosmo_sigma_profile": { 
			"-0.025": 0.0,
			"-0.024": 0.0,
			"-0.023": 0.0,
			"-0.022": 0.0,
			"-0.021": 0.0,
			"-0.02": 0.0,
			"-0.019": 0.0,
			"-0.018": 0.0,
			"-0.017": 0.0,
			"-0.016": 0.0,
			"-0.015": 0.0,
			"-0.014": 0.0,
			"-0.013": 0.0,
			"-0.012": 0.0,
			"-0.011": 0.0,
			"-0.01": 0.368950980256,
			"-0.009": 1.21153235811,
			"-0.008": 1.33295466659,
			"-0.007": 1.5565857756,
			"-0.006": 0.847986932341,
			"-0.005": 1.59493307094,
			"-0.004": 2.47305552779,
			"-0.003": 8.22933199198,
			"-0.002": 39.0237026784,
			"-0.001": 74.5400259671,
			"0.0": 87.1924910434,
			"0.001": 73.3485659856,
			"0.002": 36.7786918806,
			"0.003": 4.13835159091,
			"0.004": 2.13614706693,
			"0.005": 1.1441821489,
			"0.006": 1.8298422688,
			"0.007": 0.904372955747,
			"0.008": 0.88637724322,
			"0.009": 1.10379323095,
			"0.01": 0.878003378646,
			"0.011": 0.943806995614,
			"0.012": 0.401610627234,
			"0.013": 0.289623455434,
			"0.014": 0.0,
			"0.015": 0.0,
			"0.016": 0.0,
			"0.017": 0.0,
			"0.018": 0.0,
			"0.019": 0.0,
			"0.02": 0.0,
			"0.021": 0.0,
			"0.022": 0.0,
			"0.023": 0.0,
			"0.024": 0.0,
			"0.025": 0.0
		}
	}
}
