{
	 "smiles": "OC(=O)C1=CC(CS)=CC=C1", 
	 "Tm": 378.15, 
	 "num_atms": 19, 
	 "gaussian": { 
		 "optdone": 1, 
		 "sigma_profile": "yes", 
		 "theory": "DFT", 
		 "functional": "B3LYP", 
		 "basiset": "6-31G**", 
		 "properties": { 
			 "R2extent": 3469.7237, 
			 "electric_dipole_moment_norm": 3.72978513724, 
			 "electric_quadrupole_moment_norm": 14.8823088202, 
			 "total_energy": -858.316228052, 
			 "HOMO_LUMO_gap": 0.19032, 
			 "cosmo_polarized_energy": -16.56, 
			 "cosmo_cavitation_energy": 25.22, 
			 "cosmo_dispersion_energy": -18.75, 
			 "cosmo_repulsion_energy": 1.47, 
			 "cosmo_total_nonelectrostatic_energy": 7.95, 
			 "SMD_solvation_energy": 4.89 
		},
		"coords": [
			{
				"x": -1.2852761438,
				"y": 0.0127052309,
				"z": -2.3204418268,
				"element": "O" 
			},
			{
				"x": 0.0329173716,
				"y": -0.2852978731,
				"z": -2.1602408042,
				"element": "C" 
			},
			{
				"x": 0.5929250507,
				"y": -0.9943206568,
				"z": -2.9623302175,
				"element": "O" 
			},
			{
				"x": 0.7180581442,
				"y": 0.3049066381,
				"z": -0.9632254905,
				"element": "C" 
			},
			{
				"x": 0.2420849839,
				"y": 1.4458708994,
				"z": -0.2997668923,
				"element": "C" 
			},
			{
				"x": 0.9188784001,
				"y": 1.9745047644,
				"z": 0.803719281,
				"element": "C" 
			},
			{
				"x": 0.3973327396,
				"y": 3.2087367184,
				"z": 1.4960561977,
				"element": "C" 
			},
			{
				"x": 1.4570864607,
				"y": 4.7148273608,
				"z": 1.2928098236,
				"element": "S" 
			},
			{
				"x": 2.0882499722,
				"y": 1.3366964525,
				"z": 1.2421262736,
				"element": "C" 
			},
			{
				"x": 2.5730874126,
				"y": 0.2076171136,
				"z": 0.5835997903,
				"element": "C" 
			},
			{
				"x": 1.898749264,
				"y": -0.3039720454,
				"z": -0.5238530854,
				"element": "C" 
			},
			{
				"x": -1.6303868138,
				"y": 0.436597062,
				"z": -1.5226702832,
				"element": "H" 
			},
			{
				"x": -0.6452123821,
				"y": 1.9632950562,
				"z": -0.6603057678,
				"element": "H" 
			},
			{
				"x": 0.364637679,
				"y": 3.06525687,
				"z": 2.5800830197,
				"element": "H" 
			},
			{
				"x": -0.6179989772,
				"y": 3.4417532904,
				"z": 1.1667842062,
				"element": "H" 
			},
			{
				"x": 1.4562954035,
				"y": 4.7225506802,
				"z": -0.0555612768,
				"element": "H" 
			},
			{
				"x": 2.6272635084,
				"y": 1.7419776317,
				"z": 2.093971211,
				"element": "H" 
			},
			{
				"x": 3.4821060927,
				"y": -0.2725538518,
				"z": 0.9330704667,
				"element": "H" 
			},
			{
				"x": 2.2656018339,
				"y": -1.1722513414,
				"z": -1.0601246252,
				"element": "H" 
			}
		],
		 "valence_orbital": [ 
			{
				"type": "occ",
				"energy": -0.31908,
				"method": "rhf"
			},
			{
				"type": "occ",
				"energy": -0.28087,
				"method": "rhf"
			},
			{
				"type": "occ",
				"energy": -0.27483,
				"method": "rhf"
			},
			{
				"type": "occ",
				"energy": -0.26829,
				"method": "rhf"
			},
			{
				"type": "occ",
				"energy": -0.24696,
				"method": "rhf"
			},
			{
				"type": "unocc",
				"energy": -0.05664,
				"method": "rhf"
			},
			{
				"type": "unocc",
				"energy": -0.03196,
				"method": "rhf"
			},
			{
				"type": "unocc",
				"energy": 0.01777,
				"method": "rhf"
			},
			{
				"type": "unocc",
				"energy": 0.03619,
				"method": "rhf"
			},
			{
				"type": "unocc",
				"energy": 0.05664,
				"method": "rhf"
			}
		],
		"cosmo_sigma_profile": { 
			"-0.025": 0.0,
			"-0.024": 0.0,
			"-0.023": 0.0,
			"-0.022": 0.0,
			"-0.021": 0.0,
			"-0.02": 0.0,
			"-0.019": 0.0886801561408,
			"-0.018": 0.718660953164,
			"-0.017": 1.21735238145,
			"-0.016": 0.759263189668,
			"-0.015": 0.898550010939,
			"-0.014": 0.947014493472,
			"-0.013": 1.376576925,
			"-0.012": 0.956070788007,
			"-0.011": 0.944695014767,
			"-0.01": 1.16564448723,
			"-0.009": 3.21402199847,
			"-0.008": 4.42405472128,
			"-0.007": 9.05294752545,
			"-0.006": 15.2314058684,
			"-0.005": 13.13598042,
			"-0.004": 12.7454673949,
			"-0.003": 11.327243175,
			"-0.002": 9.8929899834,
			"-0.001": 10.8123864403,
			"0.0": 9.70375401358,
			"0.001": 10.3721395797,
			"0.002": 12.3795303672,
			"0.003": 15.894846747,
			"0.004": 9.32042462463,
			"0.005": 6.93837679061,
			"0.006": 5.57126983382,
			"0.007": 4.26229594381,
			"0.008": 5.76073976696,
			"0.009": 5.76527819255,
			"0.01": 6.4835102455,
			"0.011": 5.36226185004,
			"0.012": 5.16539196264,
			"0.013": 1.50877047959,
			"0.014": 0.09120827645,
			"0.015": 0.0,
			"0.016": 0.0,
			"0.017": 0.0,
			"0.018": 0.0,
			"0.019": 0.0,
			"0.02": 0.0,
			"0.021": 0.0,
			"0.022": 0.0,
			"0.023": 0.0,
			"0.024": 0.0,
			"0.025": 0.0
		}
	}
}
