{
	 "smiles": "BrC(Br)(Br)N(=O)=O", 
	 "Tm": 283.15, 
	 "num_atms": 7, 
	 "gaussian": { 
		 "optdone": 1, 
		 "sigma_profile": "yes", 
		 "theory": "DFT", 
		 "functional": "B3LYP", 
		 "basiset": "6-31G**", 
		 "properties": { 
			 "R2extent": 3232.2812, 
			 "electric_dipole_moment_norm": 1.96710753138, 
			 "electric_quadrupole_moment_norm": 5.59692137786, 
			 "total_energy": -7957.36634386, 
			 "HOMO_LUMO_gap": 0.19282, 
			 "cosmo_polarized_energy": -4.39, 
			 "cosmo_cavitation_energy": 19.07, 
			 "cosmo_dispersion_energy": -14.98, 
			 "cosmo_repulsion_energy": 1.26, 
			 "cosmo_total_nonelectrostatic_energy": 5.35, 
			 "SMD_solvation_energy": 2.08 
		},
		"coords": [
			{
				"x": -0.3875571266,
				"y": 1.9077547417,
				"z": -0.1929545908,
				"element": "Br" 
			},
			{
				"x": -1.4678543371,
				"y": 0.3106362211,
				"z": -0.4543074764,
				"element": "C" 
			},
			{
				"x": -3.1542221602,
				"y": 0.7285216702,
				"z": -1.3305335446,
				"element": "Br" 
			},
			{
				"x": -1.7555090884,
				"y": -0.6203311318,
				"z": 1.2102250521,
				"element": "Br" 
			},
			{
				"x": -0.6553348197,
				"y": -0.6143689,
				"z": -1.4711831065,
				"element": "N" 
			},
			{
				"x": -0.3402282955,
				"y": -1.7211226906,
				"z": -1.0865341387,
				"element": "O" 
			},
			{
				"x": -0.4307941725,
				"y": -0.1030899106,
				"z": -2.5506121951,
				"element": "O" 
			}
		],
		 "valence_orbital": [ 
			{
				"type": "occ",
				"energy": -0.33231,
				"method": "rhf"
			},
			{
				"type": "occ",
				"energy": -0.32067,
				"method": "rhf"
			},
			{
				"type": "occ",
				"energy": -0.31476,
				"method": "rhf"
			},
			{
				"type": "occ",
				"energy": -0.29973,
				"method": "rhf"
			},
			{
				"type": "occ",
				"energy": -0.29916,
				"method": "rhf"
			},
			{
				"type": "unocc",
				"energy": -0.10634,
				"method": "rhf"
			},
			{
				"type": "unocc",
				"energy": -0.0918,
				"method": "rhf"
			},
			{
				"type": "unocc",
				"energy": -0.03441,
				"method": "rhf"
			},
			{
				"type": "unocc",
				"energy": -0.01756,
				"method": "rhf"
			},
			{
				"type": "unocc",
				"energy": 0.02729,
				"method": "rhf"
			}
		],
		"cosmo_sigma_profile": { 
			"-0.025": 0.0,
			"-0.024": 0.0,
			"-0.023": 0.0,
			"-0.022": 0.0,
			"-0.021": 0.0,
			"-0.02": 0.0,
			"-0.019": 0.0,
			"-0.018": 0.0,
			"-0.017": 0.0,
			"-0.016": 0.0,
			"-0.015": 0.0,
			"-0.014": 0.0,
			"-0.013": 0.0,
			"-0.012": 0.0,
			"-0.011": 0.0,
			"-0.01": 0.0291200392741,
			"-0.009": 1.38342064265,
			"-0.008": 4.33358362274,
			"-0.007": 6.00172590138,
			"-0.006": 5.57705542266,
			"-0.005": 6.72320320646,
			"-0.004": 7.97990742912,
			"-0.003": 7.17723712741,
			"-0.002": 10.1332606269,
			"-0.001": 12.421848302,
			"0.0": 15.7347987777,
			"0.001": 31.3802010743,
			"0.002": 18.1556110018,
			"0.003": 6.63894109324,
			"0.004": 6.21091922298,
			"0.005": 11.6553628851,
			"0.006": 8.63718493656,
			"0.007": 2.63819029922,
			"0.008": 0.108793389561,
			"0.009": 0.0,
			"0.01": 0.0,
			"0.011": 0.0,
			"0.012": 0.0,
			"0.013": 0.0,
			"0.014": 0.0,
			"0.015": 0.0,
			"0.016": 0.0,
			"0.017": 0.0,
			"0.018": 0.0,
			"0.019": 0.0,
			"0.02": 0.0,
			"0.021": 0.0,
			"0.022": 0.0,
			"0.023": 0.0,
			"0.024": 0.0,
			"0.025": 0.0
		}
	}
}
