{
	 "smiles": "ClC(COCC(Cl)C(Cl)(Cl)Cl)C(Cl)(Cl)Cl", 
	 "Tm": 223.15, 
	 "num_atms": 21, 
	 "gaussian": { 
		 "optdone": 1, 
		 "sigma_profile": "yes", 
		 "theory": "DFT", 
		 "functional": "B3LYP", 
		 "basiset": "6-31G**", 
		 "properties": { 
			 "R2extent": 9956.5443, 
			 "electric_dipole_moment_norm": 2.58457609871, 
			 "electric_quadrupole_moment_norm": 10.7467224869, 
			 "total_energy": -3988.9565172, 
			 "HOMO_LUMO_gap": 0.23834, 
			 "cosmo_polarized_energy": -11.92, 
			 "cosmo_cavitation_energy": 37.99, 
			 "cosmo_dispersion_energy": -26.27, 
			 "cosmo_repulsion_energy": 2.06, 
			 "cosmo_total_nonelectrostatic_energy": 13.78, 
			 "SMD_solvation_energy": 3.74 
		},
		"coords": [
			{
				"x": 3.4125292115,
				"y": 0.4141889382,
				"z": -1.9218935487,
				"element": "Cl" 
			},
			{
				"x": 3.342692028,
				"y": 1.6863153485,
				"z": -0.6416858421,
				"element": "C" 
			},
			{
				"x": 2.2368814995,
				"y": 1.3555387774,
				"z": 0.363398888,
				"element": "C" 
			},
			{
				"x": 0.9675354337,
				"y": 1.3793040426,
				"z": -0.247775625,
				"element": "O" 
			},
			{
				"x": -0.1015337505,
				"y": 1.0887777374,
				"z": 0.6283152742,
				"element": "C" 
			},
			{
				"x": -0.3389471789,
				"y": -0.4375913588,
				"z": 0.7937639344,
				"element": "C" 
			},
			{
				"x": -0.8623799512,
				"y": -0.7845324615,
				"z": 2.494399914,
				"element": "Cl" 
			},
			{
				"x": -1.3430794782,
				"y": -1.0513617798,
				"z": -0.2172455067,
				"element": "C" 
			},
			{
				"x": -2.9882351766,
				"y": -0.3464788488,
				"z": -0.0266291169,
				"element": "Cl" 
			},
			{
				"x": -1.4349141729,
				"y": -2.8365732931,
				"z": -0.001096638,
				"element": "Cl" 
			},
			{
				"x": -0.7480265583,
				"y": -0.7103374405,
				"z": -1.8802023762,
				"element": "Cl" 
			},
			{
				"x": 3.329312655,
				"y": 3.1082563061,
				"z": -1.2738305479,
				"element": "C" 
			},
			{
				"x": 4.8763438531,
				"y": 3.366512678,
				"z": -2.168827567,
				"element": "Cl" 
			},
			{
				"x": 3.2732305178,
				"y": 4.3168624249,
				"z": 0.0797049932,
				"element": "Cl" 
			},
			{
				"x": 1.9606634286,
				"y": 3.3972825589,
				"z": -2.3771073295,
				"element": "Cl" 
			},
			{
				"x": 4.2914349663,
				"y": 1.6211860251,
				"z": -0.1041143348,
				"element": "H" 
			},
			{
				"x": 2.2861707211,
				"y": 2.0762287185,
				"z": 1.1914947555,
				"element": "H" 
			},
			{
				"x": 2.4791827067,
				"y": 0.3628422359,
				"z": 0.7712768003,
				"element": "H" 
			},
			{
				"x": -0.9923824614,
				"y": 1.5643618852,
				"z": 0.2127053085,
				"element": "H" 
			},
			{
				"x": 0.0801614412,
				"y": 1.5152088324,
				"z": 1.6217632684,
				"element": "H" 
			},
			{
				"x": 0.6001602658,
				"y": -0.9752913267,
				"z": 0.6526852964,
				"element": "H" 
			}
		],
		 "valence_orbital": [ 
			{
				"type": "occ",
				"energy": -0.31764,
				"method": "rhf"
			},
			{
				"type": "occ",
				"energy": -0.31504,
				"method": "rhf"
			},
			{
				"type": "occ",
				"energy": -0.31274,
				"method": "rhf"
			},
			{
				"type": "occ",
				"energy": -0.31132,
				"method": "rhf"
			},
			{
				"type": "occ",
				"energy": -0.2905,
				"method": "rhf"
			},
			{
				"type": "unocc",
				"energy": -0.05216,
				"method": "rhf"
			},
			{
				"type": "unocc",
				"energy": -0.04899,
				"method": "rhf"
			},
			{
				"type": "unocc",
				"energy": -0.03467,
				"method": "rhf"
			},
			{
				"type": "unocc",
				"energy": -0.03285,
				"method": "rhf"
			},
			{
				"type": "unocc",
				"energy": -0.0094,
				"method": "rhf"
			}
		],
		"cosmo_sigma_profile": { 
			"-0.025": 0.0,
			"-0.024": 0.0,
			"-0.023": 0.0,
			"-0.022": 0.0,
			"-0.021": 0.0,
			"-0.02": 0.0,
			"-0.019": 0.0,
			"-0.018": 0.0,
			"-0.017": 0.0,
			"-0.016": 0.0,
			"-0.015": 0.0,
			"-0.014": 0.0,
			"-0.013": 0.0,
			"-0.012": 0.00708633591548,
			"-0.011": 3.24629580586,
			"-0.01": 4.58221693766,
			"-0.009": 5.46710126496,
			"-0.008": 7.24183728476,
			"-0.007": 9.43638593505,
			"-0.006": 9.07427544259,
			"-0.005": 8.55983441832,
			"-0.004": 14.4948662846,
			"-0.003": 15.6549240341,
			"-0.002": 18.2970484568,
			"-0.001": 20.2018433329,
			"0.0": 24.1194079931,
			"0.001": 29.6694755826,
			"0.002": 47.1652687669,
			"0.003": 54.6034228066,
			"0.004": 22.5963765839,
			"0.005": 14.371386992,
			"0.006": 3.27660790142,
			"0.007": 2.54649237896,
			"0.008": 2.00495029839,
			"0.009": 1.73988031288,
			"0.01": 0.0477517746519,
			"0.011": 0.0,
			"0.012": 0.0,
			"0.013": 0.0,
			"0.014": 0.0,
			"0.015": 0.0,
			"0.016": 0.0,
			"0.017": 0.0,
			"0.018": 0.0,
			"0.019": 0.0,
			"0.02": 0.0,
			"0.021": 0.0,
			"0.022": 0.0,
			"0.023": 0.0,
			"0.024": 0.0,
			"0.025": 0.0
		}
	}
}
