{
	 "smiles": "CCN(C(=O)CCl)C1=NC2=C(S1)C=CC=C2", 
	 "Tm": 507.15, 
	 "num_atms": 27, 
	 "gaussian": { 
		 "optdone": 1, 
		 "sigma_profile": "yes", 
		 "theory": "DFT", 
		 "functional": "B3LYP", 
		 "basiset": "6-31G**", 
		 "properties": { 
			 "R2extent": 6036.4753, 
			 "electric_dipole_moment_norm": 3.71572513112, 
			 "electric_quadrupole_moment_norm": 20.6752703366, 
			 "total_energy": -1468.92769548, 
			 "HOMO_LUMO_gap": 0.18395, 
			 "cosmo_polarized_energy": -14.59, 
			 "cosmo_cavitation_energy": 33.56, 
			 "cosmo_dispersion_energy": -25.19, 
			 "cosmo_repulsion_energy": 1.92, 
			 "cosmo_total_nonelectrostatic_energy": 10.29, 
			 "SMD_solvation_energy": 4.54 
		},
		"coords": [
			{
				"x": 0.4007266713,
				"y": 2.2412596946,
				"z": 1.6000799361,
				"element": "C" 
			},
			{
				"x": 0.1854930754,
				"y": 0.804720731,
				"z": 2.0769461288,
				"element": "C" 
			},
			{
				"x": 0.9871960624,
				"y": -0.1856309582,
				"z": 1.3193537985,
				"element": "N" 
			},
			{
				"x": 2.2395163316,
				"y": -0.6258778093,
				"z": 1.7276287516,
				"element": "C" 
			},
			{
				"x": 2.8952664816,
				"y": -1.4159541558,
				"z": 1.072688207,
				"element": "O" 
			},
			{
				"x": 2.7341855278,
				"y": -0.0670681944,
				"z": 3.0702661432,
				"element": "C" 
			},
			{
				"x": 4.4180334549,
				"y": -0.5563368038,
				"z": 3.4174050485,
				"element": "Cl" 
			},
			{
				"x": 0.4355835091,
				"y": -0.6240751802,
				"z": 0.1069008794,
				"element": "C" 
			},
			{
				"x": -0.7219909351,
				"y": -0.1864124392,
				"z": -0.287939096,
				"element": "N" 
			},
			{
				"x": -1.077865672,
				"y": -0.7566861118,
				"z": -1.4993052282,
				"element": "C" 
			},
			{
				"x": -0.1365209045,
				"y": -1.6633270706,
				"z": -2.0353726142,
				"element": "C" 
			},
			{
				"x": 1.2490525951,
				"y": -1.7906592764,
				"z": -0.9585334503,
				"element": "S" 
			},
			{
				"x": -0.3632315119,
				"y": -2.3122070391,
				"z": -3.2514501734,
				"element": "C" 
			},
			{
				"x": -1.5498960827,
				"y": -2.0425924266,
				"z": -3.9296398411,
				"element": "C" 
			},
			{
				"x": -2.4929808957,
				"y": -1.1419784621,
				"z": -3.4047994982,
				"element": "C" 
			},
			{
				"x": -2.2675864288,
				"y": -0.4957598447,
				"z": -2.1948739023,
				"element": "C" 
			},
			{
				"x": -0.2173968943,
				"y": 2.9234349229,
				"z": 2.1924005583,
				"element": "H" 
			},
			{
				"x": 1.4449537989,
				"y": 2.5546541167,
				"z": 1.7010960338,
				"element": "H" 
			},
			{
				"x": 0.1087323827,
				"y": 2.3367533914,
				"z": 0.5521922301,
				"element": "H" 
			},
			{
				"x": 0.4225876617,
				"y": 0.6972102506,
				"z": 3.1362513665,
				"element": "H" 
			},
			{
				"x": -0.8587787304,
				"y": 0.5216711999,
				"z": 1.944079463,
				"element": "H" 
			},
			{
				"x": 2.7003258384,
				"y": 1.023216428,
				"z": 3.0827809524,
				"element": "H" 
			},
			{
				"x": 2.1121337619,
				"y": -0.4422884048,
				"z": 3.8866722641,
				"element": "H" 
			},
			{
				"x": 0.363061228,
				"y": -3.0082780657,
				"z": -3.6596628968,
				"element": "H" 
			},
			{
				"x": -1.7473100095,
				"y": -2.5359938303,
				"z": -4.8766152801,
				"element": "H" 
			},
			{
				"x": -3.4102091952,
				"y": -0.9492737544,
				"z": -3.9532964889,
				"element": "H" 
			},
			{
				"x": -2.987281121,
				"y": 0.2015790925,
				"z": -1.7784532917,
				"element": "H" 
			}
		],
		 "valence_orbital": [ 
			{
				"type": "occ",
				"energy": -0.29403,
				"method": "rhf"
			},
			{
				"type": "occ",
				"energy": -0.28541,
				"method": "rhf"
			},
			{
				"type": "occ",
				"energy": -0.27943,
				"method": "rhf"
			},
			{
				"type": "occ",
				"energy": -0.23301,
				"method": "rhf"
			},
			{
				"type": "occ",
				"energy": -0.22406,
				"method": "rhf"
			},
			{
				"type": "unocc",
				"energy": -0.04011,
				"method": "rhf"
			},
			{
				"type": "unocc",
				"energy": -0.00255,
				"method": "rhf"
			},
			{
				"type": "unocc",
				"energy": 0.00467,
				"method": "rhf"
			},
			{
				"type": "unocc",
				"energy": 0.01511,
				"method": "rhf"
			},
			{
				"type": "unocc",
				"energy": 0.02354,
				"method": "rhf"
			}
		],
		"cosmo_sigma_profile": { 
			"-0.025": 0.0,
			"-0.024": 0.0,
			"-0.023": 0.0,
			"-0.022": 0.0,
			"-0.021": 0.0,
			"-0.02": 0.0,
			"-0.019": 0.0,
			"-0.018": 0.0,
			"-0.017": 0.0,
			"-0.016": 0.0,
			"-0.015": 0.0,
			"-0.014": 0.0,
			"-0.013": 0.0,
			"-0.012": 0.288849198331,
			"-0.011": 2.01898848132,
			"-0.01": 3.44383179609,
			"-0.009": 6.48177556888,
			"-0.008": 5.78653836614,
			"-0.007": 6.91582564227,
			"-0.006": 11.2444277634,
			"-0.005": 14.9560898218,
			"-0.004": 20.4574040154,
			"-0.003": 20.1745886144,
			"-0.002": 17.4361624071,
			"-0.001": 19.0466118247,
			"0.0": 19.2905720097,
			"0.001": 15.6928176893,
			"0.002": 16.3640262535,
			"0.003": 19.3045647023,
			"0.004": 20.99843725,
			"0.005": 21.7646673843,
			"0.006": 9.60443860146,
			"0.007": 4.28629657772,
			"0.008": 3.95099871102,
			"0.009": 3.19547575626,
			"0.01": 3.79603573657,
			"0.011": 2.69594734629,
			"0.012": 2.36815205694,
			"0.013": 0.709563415724,
			"0.014": 0.0,
			"0.015": 0.0,
			"0.016": 0.0,
			"0.017": 0.0,
			"0.018": 0.0,
			"0.019": 0.0,
			"0.02": 0.0,
			"0.021": 0.0,
			"0.022": 0.0,
			"0.023": 0.0,
			"0.024": 0.0,
			"0.025": 0.0
		}
	}
}
