{
	 "smiles": "C(CC1CCCCC1)CC1CCCCC1", 
	 "Tm": 256.15, 
	 "num_atms": 43, 
	 "gaussian": { 
		 "optdone": 1, 
		 "sigma_profile": "yes", 
		 "theory": "DFT", 
		 "functional": "B3LYP", 
		 "basiset": "6-31G**", 
		 "properties": { 
			 "R2extent": 5910.1051, 
			 "electric_dipole_moment_norm": 0.0110099954587, 
			 "electric_quadrupole_moment_norm": 0.289138236835, 
			 "total_energy": -588.51260992, 
			 "HOMO_LUMO_gap": 0.35742, 
			 "cosmo_polarized_energy": -0.78, 
			 "cosmo_cavitation_energy": 38.93, 
			 "cosmo_dispersion_energy": -27.81, 
			 "cosmo_repulsion_energy": 2.22, 
			 "cosmo_total_nonelectrostatic_energy": 13.35, 
			 "SMD_solvation_energy": 4.27 
		},
		"coords": [
			{
				"x": 0.5127986644,
				"y": 1.1369629734,
				"z": 0.4252128116,
				"element": "C" 
			},
			{
				"x": 1.4273875157,
				"y": 1.0958440552,
				"z": 1.6602211245,
				"element": "C" 
			},
			{
				"x": 0.7513636738,
				"y": 0.8131847176,
				"z": 3.0201438144,
				"element": "C" 
			},
			{
				"x": 0.1982452408,
				"y": -0.6278415899,
				"z": 3.126648128,
				"element": "C" 
			},
			{
				"x": -0.7291089649,
				"y": -0.772355525,
				"z": 4.3409044933,
				"element": "C" 
			},
			{
				"x": -1.9998208272,
				"y": 0.1021360938,
				"z": 4.1883971791,
				"element": "C" 
			},
			{
				"x": -1.7650562629,
				"y": 1.3154951904,
				"z": 3.2606752099,
				"element": "C" 
			},
			{
				"x": -0.3371258467,
				"y": 1.86335518,
				"z": 3.4026047267,
				"element": "C" 
			},
			{
				"x": 1.2999008193,
				"y": 1.4383581152,
				"z": -0.8610675891,
				"element": "C" 
			},
			{
				"x": 0.4896537472,
				"y": 1.5065084234,
				"z": -2.1730942066,
				"element": "C" 
			},
			{
				"x": -0.5487498499,
				"y": 2.645716694,
				"z": -2.1925494005,
				"element": "C" 
			},
			{
				"x": -1.2695540857,
				"y": 2.738058661,
				"z": -3.5471940159,
				"element": "C" 
			},
			{
				"x": -1.9209849412,
				"y": 1.4004918395,
				"z": -3.9303079728,
				"element": "C" 
			},
			{
				"x": -0.8995288562,
				"y": 0.2532205696,
				"z": -3.9047729737,
				"element": "C" 
			},
			{
				"x": -0.1801425581,
				"y": 0.1698673528,
				"z": -2.5488181324,
				"element": "C" 
			},
			{
				"x": -0.0112485076,
				"y": 0.1797672332,
				"z": 0.3189764065,
				"element": "H" 
			},
			{
				"x": -0.2624888154,
				"y": 1.8991458195,
				"z": 0.5698939,
				"element": "H" 
			},
			{
				"x": 2.2083058452,
				"y": 0.338995673,
				"z": 1.4958060137,
				"element": "H" 
			},
			{
				"x": 1.9543706551,
				"y": 2.0580041684,
				"z": 1.7328196343,
				"element": "H" 
			},
			{
				"x": 1.550021744,
				"y": 0.8922137848,
				"z": 3.7710310417,
				"element": "H" 
			},
			{
				"x": 1.0344682688,
				"y": -1.3345641139,
				"z": 3.1911499292,
				"element": "H" 
			},
			{
				"x": -0.3572441699,
				"y": -0.8964671639,
				"z": 2.2188239287,
				"element": "H" 
			},
			{
				"x": -0.1750541882,
				"y": -0.4705054108,
				"z": 5.239832569,
				"element": "H" 
			},
			{
				"x": -1.0066673166,
				"y": -1.8213243269,
				"z": 4.4941335184,
				"element": "H" 
			},
			{
				"x": -2.8251778827,
				"y": -0.5006981574,
				"z": 3.7909046109,
				"element": "H" 
			},
			{
				"x": -2.324095497,
				"y": 0.4485315365,
				"z": 5.1771788133,
				"element": "H" 
			},
			{
				"x": -2.4981039739,
				"y": 2.1014577975,
				"z": 3.4767593495,
				"element": "H" 
			},
			{
				"x": -1.9359493132,
				"y": 1.0210687679,
				"z": 2.2180759881,
				"element": "H" 
			},
			{
				"x": -0.2161417674,
				"y": 2.7700951578,
				"z": 2.7975986996,
				"element": "H" 
			},
			{
				"x": -0.1891443318,
				"y": 2.1778262866,
				"z": 4.4438334831,
				"element": "H" 
			},
			{
				"x": 2.0833898975,
				"y": 0.6758943159,
				"z": -0.978205183,
				"element": "H" 
			},
			{
				"x": 1.828809818,
				"y": 2.3936191163,
				"z": -0.7318185306,
				"element": "H" 
			},
			{
				"x": 1.2180455794,
				"y": 1.7295607714,
				"z": -2.9695459502,
				"element": "H" 
			},
			{
				"x": -1.2953595498,
				"y": 2.4771869145,
				"z": -1.4040738851,
				"element": "H" 
			},
			{
				"x": -0.0596181781,
				"y": 3.6003194102,
				"z": -1.9582171992,
				"element": "H" 
			},
			{
				"x": -2.0232152282,
				"y": 3.5346056481,
				"z": -3.5214631417,
				"element": "H" 
			},
			{
				"x": -0.5441697641,
				"y": 3.0213026466,
				"z": -4.3234066314,
				"element": "H" 
			},
			{
				"x": -2.3872321758,
				"y": 1.4735436096,
				"z": -4.9204061194,
				"element": "H" 
			},
			{
				"x": -2.7305900062,
				"y": 1.1777619348,
				"z": -3.2202923067,
				"element": "H" 
			},
			{
				"x": -1.3926367035,
				"y": -0.7001176352,
				"z": -4.1309534971,
				"element": "H" 
			},
			{
				"x": -0.1559287082,
				"y": 0.4146036325,
				"z": -4.6984510281,
				"element": "H" 
			},
			{
				"x": 0.5702579509,
				"y": -0.6313549254,
				"z": -2.5669940681,
				"element": "H" 
			},
			{
				"x": -0.9109811497,
				"y": -0.1060752428,
				"z": -1.7759935419,
				"element": "H" 
			}
		],
		 "valence_orbital": [ 
			{
				"type": "occ",
				"energy": -0.29249,
				"method": "rhf"
			},
			{
				"type": "occ",
				"energy": -0.28683,
				"method": "rhf"
			},
			{
				"type": "occ",
				"energy": -0.28659,
				"method": "rhf"
			},
			{
				"type": "occ",
				"energy": -0.28497,
				"method": "rhf"
			},
			{
				"type": "occ",
				"energy": -0.28036,
				"method": "rhf"
			},
			{
				"type": "unocc",
				"energy": 0.07706,
				"method": "rhf"
			},
			{
				"type": "unocc",
				"energy": 0.0883,
				"method": "rhf"
			},
			{
				"type": "unocc",
				"energy": 0.09353,
				"method": "rhf"
			},
			{
				"type": "unocc",
				"energy": 0.10665,
				"method": "rhf"
			},
			{
				"type": "unocc",
				"energy": 0.11072,
				"method": "rhf"
			}
		],
		"cosmo_sigma_profile": { 
			"-0.025": 0.0,
			"-0.024": 0.0,
			"-0.023": 0.0,
			"-0.022": 0.0,
			"-0.021": 0.0,
			"-0.02": 0.0,
			"-0.019": 0.0,
			"-0.018": 0.0,
			"-0.017": 0.0,
			"-0.016": 0.0,
			"-0.015": 0.0,
			"-0.014": 0.0,
			"-0.013": 0.0,
			"-0.012": 0.0,
			"-0.011": 0.0,
			"-0.01": 0.0,
			"-0.009": 0.0,
			"-0.008": 0.0,
			"-0.007": 0.0,
			"-0.006": 0.0,
			"-0.005": 0.0,
			"-0.004": 0.0,
			"-0.003": 0.515120090762,
			"-0.002": 27.2359428099,
			"-0.001": 76.540346851,
			"0.0": 90.7897464476,
			"0.001": 68.2511891689,
			"0.002": 31.9279303502,
			"0.003": 0.792578108622,
			"0.004": 0.0,
			"0.005": 0.0,
			"0.006": 0.0,
			"0.007": 0.0,
			"0.008": 0.0,
			"0.009": 0.0,
			"0.01": 0.0,
			"0.011": 0.0,
			"0.012": 0.0,
			"0.013": 0.0,
			"0.014": 0.0,
			"0.015": 0.0,
			"0.016": 0.0,
			"0.017": 0.0,
			"0.018": 0.0,
			"0.019": 0.0,
			"0.02": 0.0,
			"0.021": 0.0,
			"0.022": 0.0,
			"0.023": 0.0,
			"0.024": 0.0,
			"0.025": 0.0
		}
	}
}
