{
	 "smiles": "NNC1=CC(Cl)=C(F)C=C1", 
	 "Tm": 347.15, 
	 "num_atms": 16, 
	 "gaussian": { 
		 "optdone": 1, 
		 "sigma_profile": "yes", 
		 "theory": "DFT", 
		 "functional": "B3LYP", 
		 "basiset": "6-31G**", 
		 "properties": { 
			 "R2extent": 2513.9262, 
			 "electric_dipole_moment_norm": 3.04672916092, 
			 "electric_quadrupole_moment_norm": 10.8856798437, 
			 "total_energy": -901.743588202, 
			 "HOMO_LUMO_gap": 0.18971, 
			 "cosmo_polarized_energy": -9.98, 
			 "cosmo_cavitation_energy": 22.42, 
			 "cosmo_dispersion_energy": -16.74, 
			 "cosmo_repulsion_energy": 1.34, 
			 "cosmo_total_nonelectrostatic_energy": 7.03, 
			 "SMD_solvation_energy": 4.43 
		},
		"coords": [
			{
				"x": 0.3770315385,
				"y": -0.0213366341,
				"z": -2.817054415,
				"element": "N" 
			},
			{
				"x": 0.8160306375,
				"y": -0.002600735,
				"z": -1.4795449815,
				"element": "N" 
			},
			{
				"x": 0.0197461464,
				"y": 0.5272523802,
				"z": -0.4597629469,
				"element": "C" 
			},
			{
				"x": 0.6259019926,
				"y": 0.9163639679,
				"z": 0.7494838328,
				"element": "C" 
			},
			{
				"x": -0.1459720009,
				"y": 1.4016467686,
				"z": 1.7983432583,
				"element": "C" 
			},
			{
				"x": 0.6109064839,
				"y": 1.8879795588,
				"z": 3.2967959292,
				"element": "Cl" 
			},
			{
				"x": -1.5320020248,
				"y": 1.5112160819,
				"z": 1.6598025619,
				"element": "C" 
			},
			{
				"x": -2.2773394699,
				"y": 1.9856409901,
				"z": 2.6744389428,
				"element": "F" 
			},
			{
				"x": -2.1398700973,
				"y": 1.1324357521,
				"z": 0.4720500377,
				"element": "C" 
			},
			{
				"x": -1.3742830989,
				"y": 0.642470149,
				"z": -0.5860299604,
				"element": "C" 
			},
			{
				"x": -0.1487668532,
				"y": 0.8255190566,
				"z": -3.0411832509,
				"element": "H" 
			},
			{
				"x": -0.2386820153,
				"y": -0.8190477766,
				"z": -2.9521771213,
				"element": "H" 
			},
			{
				"x": 1.7950963996,
				"y": 0.2436218052,
				"z": -1.4232877087,
				"element": "H" 
			},
			{
				"x": 1.7012054136,
				"y": 0.8377866958,
				"z": 0.8746656873,
				"element": "H" 
			},
			{
				"x": -3.2174130423,
				"y": 1.224953254,
				"z": 0.3863789083,
				"element": "H" 
			},
			{
				"x": -1.8641900095,
				"y": 0.3411986856,
				"z": -1.5046187735,
				"element": "H" 
			}
		],
		 "valence_orbital": [ 
			{
				"type": "occ",
				"energy": -0.31571,
				"method": "rhf"
			},
			{
				"type": "occ",
				"energy": -0.29948,
				"method": "rhf"
			},
			{
				"type": "occ",
				"energy": -0.27668,
				"method": "rhf"
			},
			{
				"type": "occ",
				"energy": -0.25528,
				"method": "rhf"
			},
			{
				"type": "occ",
				"energy": -0.21078,
				"method": "rhf"
			},
			{
				"type": "unocc",
				"energy": -0.02107,
				"method": "rhf"
			},
			{
				"type": "unocc",
				"energy": 0.00615,
				"method": "rhf"
			},
			{
				"type": "unocc",
				"energy": 0.0242,
				"method": "rhf"
			},
			{
				"type": "unocc",
				"energy": 0.06939,
				"method": "rhf"
			},
			{
				"type": "unocc",
				"energy": 0.09109,
				"method": "rhf"
			}
		],
		"cosmo_sigma_profile": { 
			"-0.025": 0.0,
			"-0.024": 0.0,
			"-0.023": 0.0,
			"-0.022": 0.0,
			"-0.021": 0.0,
			"-0.02": 0.0,
			"-0.019": 0.0,
			"-0.018": 0.0,
			"-0.017": 0.0,
			"-0.016": 0.0,
			"-0.015": 0.0,
			"-0.014": 0.0760059077149,
			"-0.013": 0.820938161964,
			"-0.012": 1.43348891215,
			"-0.011": 3.17296988849,
			"-0.01": 4.8931373549,
			"-0.009": 5.05206103727,
			"-0.008": 6.00438178241,
			"-0.007": 6.88065280002,
			"-0.006": 6.97333502939,
			"-0.005": 7.39243220041,
			"-0.004": 5.75132496761,
			"-0.003": 6.60959026898,
			"-0.002": 5.89683343821,
			"-0.001": 7.92763258812,
			"0.0": 10.3997768742,
			"0.001": 15.5618850104,
			"0.002": 16.6735644437,
			"0.003": 18.3715654128,
			"0.004": 25.9505626157,
			"0.005": 12.1175968158,
			"0.006": 2.73935829818,
			"0.007": 1.5379045897,
			"0.008": 1.48001163292,
			"0.009": 1.8619213766,
			"0.01": 1.0473159639,
			"0.011": 1.16772316151,
			"0.012": 0.252385192985,
			"0.013": 0.573692579095,
			"0.014": 0.927326670955,
			"0.015": 0.568019723137,
			"0.016": 0.517014875017,
			"0.017": 0.227683745796,
			"0.018": 0.0,
			"0.019": 0.0,
			"0.02": 0.0,
			"0.021": 0.0,
			"0.022": 0.0,
			"0.023": 0.0,
			"0.024": 0.0,
			"0.025": 0.0
		}
	}
}
