{
	 "smiles": "CC1(CO)CCN(CC2=CC=CC=C2)CC1", 
	 "Tm": 333.15, 
	 "num_atms": 37, 
	 "gaussian": { 
		 "optdone": 1, 
		 "sigma_profile": "yes", 
		 "theory": "DFT", 
		 "functional": "B3LYP", 
		 "basiset": "6-31G**", 
		 "properties": { 
			 "R2extent": 4452.6464, 
			 "electric_dipole_moment_norm": 1.37751623947, 
			 "electric_quadrupole_moment_norm": 14.3302745152, 
			 "total_energy": -676.105409383, 
			 "HOMO_LUMO_gap": 0.1923, 
			 "cosmo_polarized_energy": -9.65, 
			 "cosmo_cavitation_energy": 36.14, 
			 "cosmo_dispersion_energy": -25.09, 
			 "cosmo_repulsion_energy": 1.94, 
			 "cosmo_total_nonelectrostatic_energy": 12.99, 
			 "SMD_solvation_energy": 3.18 
		},
		"coords": [
			{
				"x": -3.616211993,
				"y": -0.5094494365,
				"z": 1.1415371698,
				"element": "C" 
			},
			{
				"x": -2.3029615386,
				"y": 0.2719845267,
				"z": 0.972426543,
				"element": "C" 
			},
			{
				"x": -2.573686655,
				"y": 1.776643216,
				"z": 1.2026567565,
				"element": "C" 
			},
			{
				"x": -3.2287413565,
				"y": 2.0804647323,
				"z": 2.4271532345,
				"element": "O" 
			},
			{
				"x": -1.7419231815,
				"y": 0.1108103031,
				"z": -0.4688663065,
				"element": "C" 
			},
			{
				"x": -0.7884540673,
				"y": -1.0853628762,
				"z": -0.5835441476,
				"element": "C" 
			},
			{
				"x": 0.3843936643,
				"y": -0.9802182927,
				"z": 0.3029320436,
				"element": "N" 
			},
			{
				"x": 1.6872550143,
				"y": -0.8373921625,
				"z": -0.351583559,
				"element": "C" 
			},
			{
				"x": 1.9586717523,
				"y": 0.4770948634,
				"z": -1.0767307335,
				"element": "C" 
			},
			{
				"x": 2.4983701815,
				"y": 1.5788078166,
				"z": -0.3956189785,
				"element": "C" 
			},
			{
				"x": 2.708160654,
				"y": 2.7960895826,
				"z": -1.0460555974,
				"element": "C" 
			},
			{
				"x": 2.3877033623,
				"y": 2.9318260972,
				"z": -2.397954027,
				"element": "C" 
			},
			{
				"x": 1.8665491424,
				"y": 1.8400878219,
				"z": -3.0950395159,
				"element": "C" 
			},
			{
				"x": 1.6583885801,
				"y": 0.6256898912,
				"z": -2.4391608729,
				"element": "C" 
			},
			{
				"x": 0.1857941623,
				"y": -0.11054973,
				"z": 1.4615108769,
				"element": "C" 
			},
			{
				"x": -1.2442607994,
				"y": -0.2585213972,
				"z": 1.9839275051,
				"element": "C" 
			},
			{
				"x": -4.3881339746,
				"y": -0.130791074,
				"z": 0.4616596344,
				"element": "H" 
			},
			{
				"x": -3.4720678747,
				"y": -1.5747649102,
				"z": 0.930170116,
				"element": "H" 
			},
			{
				"x": -3.9977820238,
				"y": -0.4090340448,
				"z": 2.1614917213,
				"element": "H" 
			},
			{
				"x": -3.2435655033,
				"y": 2.1409558753,
				"z": 0.4153783224,
				"element": "H" 
			},
			{
				"x": -1.6303006571,
				"y": 2.3388609061,
				"z": 1.1092465561,
				"element": "H" 
			},
			{
				"x": -2.6036460868,
				"y": 1.9293719945,
				"z": 3.1468837688,
				"element": "H" 
			},
			{
				"x": -1.1972754653,
				"y": 1.0167105634,
				"z": -0.7650127789,
				"element": "H" 
			},
			{
				"x": -2.5691536396,
				"y": -0.0029919614,
				"z": -1.1800117048,
				"element": "H" 
			},
			{
				"x": -0.4495125869,
				"y": -1.1872908862,
				"z": -1.6185928143,
				"element": "H" 
			},
			{
				"x": -1.3401628494,
				"y": -2.0093837515,
				"z": -0.3504913983,
				"element": "H" 
			},
			{
				"x": 2.4531634826,
				"y": -0.9817072931,
				"z": 0.4218485014,
				"element": "H" 
			},
			{
				"x": 1.7961761758,
				"y": -1.6677534826,
				"z": -1.0591581737,
				"element": "H" 
			},
			{
				"x": 2.77212763,
				"y": 1.4759283536,
				"z": 0.6516693916,
				"element": "H" 
			},
			{
				"x": 3.1294553736,
				"y": 3.635455116,
				"z": -0.4995154125,
				"element": "H" 
			},
			{
				"x": 2.5538803411,
				"y": 3.8768442503,
				"z": -2.9071565845,
				"element": "H" 
			},
			{
				"x": 1.6311410692,
				"y": 1.9309718495,
				"z": -4.1519281752,
				"element": "H" 
			},
			{
				"x": 1.2726892685,
				"y": -0.2240268408,
				"z": -2.9976110473,
				"element": "H" 
			},
			{
				"x": 0.9077817502,
				"y": -0.3987473212,
				"z": 2.2384564858,
				"element": "H" 
			},
			{
				"x": 0.3800426451,
				"y": 0.9553063974,
				"z": 1.2385101873,
				"element": "H" 
			},
			{
				"x": -1.4268439996,
				"y": -1.3194458949,
				"z": 2.1912051474,
				"element": "H" 
			},
			{
				"x": -1.3421599973,
				"y": 0.2544271989,
				"z": 2.9495678659,
				"element": "H" 
			}
		],
		 "valence_orbital": [ 
			{
				"type": "occ",
				"energy": -0.30155,
				"method": "rhf"
			},
			{
				"type": "occ",
				"energy": -0.25933,
				"method": "rhf"
			},
			{
				"type": "occ",
				"energy": -0.24958,
				"method": "rhf"
			},
			{
				"type": "occ",
				"energy": -0.2451,
				"method": "rhf"
			},
			{
				"type": "occ",
				"energy": -0.19508,
				"method": "rhf"
			},
			{
				"type": "unocc",
				"energy": -0.00278,
				"method": "rhf"
			},
			{
				"type": "unocc",
				"energy": -0.00235,
				"method": "rhf"
			},
			{
				"type": "unocc",
				"energy": 0.0607,
				"method": "rhf"
			},
			{
				"type": "unocc",
				"energy": 0.08559,
				"method": "rhf"
			},
			{
				"type": "unocc",
				"energy": 0.09851,
				"method": "rhf"
			}
		],
		"cosmo_sigma_profile": { 
			"-0.025": 0.0,
			"-0.024": 0.0,
			"-0.023": 0.0,
			"-0.022": 0.0,
			"-0.021": 0.0,
			"-0.02": 0.0,
			"-0.019": 0.0,
			"-0.018": 0.0,
			"-0.017": 0.0,
			"-0.016": 0.0,
			"-0.015": 0.222842582404,
			"-0.014": 0.883451463216,
			"-0.013": 0.810981169112,
			"-0.012": 1.29772565074,
			"-0.011": 1.23947379481,
			"-0.01": 0.853903858295,
			"-0.009": 0.770099506134,
			"-0.008": 1.0610968272,
			"-0.007": 1.10615832434,
			"-0.006": 2.83444357674,
			"-0.005": 12.5035879319,
			"-0.004": 17.5835838132,
			"-0.003": 31.913346122,
			"-0.002": 39.2615847327,
			"-0.001": 36.0982566512,
			"0.0": 31.7791033338,
			"0.001": 21.4370650997,
			"0.002": 18.6558398353,
			"0.003": 10.5747427819,
			"0.004": 10.3060543209,
			"0.005": 10.266665731,
			"0.006": 10.0365505527,
			"0.007": 3.460820322,
			"0.008": 2.22000858429,
			"0.009": 1.92880456821,
			"0.01": 1.45584131846,
			"0.011": 1.53445641193,
			"0.012": 2.92072269196,
			"0.013": 1.47961804649,
			"0.014": 2.21601195087,
			"0.015": 1.56036885058,
			"0.016": 0.191188894498,
			"0.017": 0.00119725150177,
			"0.018": 0.0,
			"0.019": 0.0,
			"0.02": 0.0,
			"0.021": 0.0,
			"0.022": 0.0,
			"0.023": 0.0,
			"0.024": 0.0,
			"0.025": 0.0
		}
	}
}
