{
	 "smiles": "CC1=CC=CC=C1OCC(O)=O", 
	 "Tm": 429.15, 
	 "num_atms": 22, 
	 "gaussian": { 
		 "optdone": 1, 
		 "sigma_profile": "yes", 
		 "theory": "DFT", 
		 "functional": "B3LYP", 
		 "basiset": "6-31G**", 
		 "properties": { 
			 "R2extent": 2692.2424, 
			 "electric_dipole_moment_norm": 4.21970652297, 
			 "electric_quadrupole_moment_norm": 17.3213135478, 
			 "total_energy": -574.648887792, 
			 "HOMO_LUMO_gap": 0.21747, 
			 "cosmo_polarized_energy": -19.09, 
			 "cosmo_cavitation_energy": 26.44, 
			 "cosmo_dispersion_energy": -19.05, 
			 "cosmo_repulsion_energy": 1.53, 
			 "cosmo_total_nonelectrostatic_energy": 8.92, 
			 "SMD_solvation_energy": 6.12 
		},
		"coords": [
			{
				"x": 0.5057161319,
				"y": -1.100465347,
				"z": -1.8497190701,
				"element": "C" 
			},
			{
				"x": 0.9593425397,
				"y": -1.1449130953,
				"z": -0.4131699146,
				"element": "C" 
			},
			{
				"x": 2.0669871291,
				"y": -1.8871051868,
				"z": -0.0041126295,
				"element": "C" 
			},
			{
				"x": 2.4793552759,
				"y": -1.9212809142,
				"z": 1.3325156476,
				"element": "C" 
			},
			{
				"x": 1.7704392433,
				"y": -1.1979910284,
				"z": 2.285352733,
				"element": "C" 
			},
			{
				"x": 0.6540541892,
				"y": -0.4424730932,
				"z": 1.9094133647,
				"element": "C" 
			},
			{
				"x": 0.2561285052,
				"y": -0.4193195487,
				"z": 0.5709823806,
				"element": "C" 
			},
			{
				"x": -0.8229674455,
				"y": 0.2888219261,
				"z": 0.0979696074,
				"element": "O" 
			},
			{
				"x": -1.5815564857,
				"y": 1.0403576196,
				"z": 1.0027943916,
				"element": "C" 
			},
			{
				"x": -2.7120856571,
				"y": 1.727895689,
				"z": 0.2354039669,
				"element": "C" 
			},
			{
				"x": -3.5186228249,
				"y": 2.4909387029,
				"z": 1.0226014951,
				"element": "O" 
			},
			{
				"x": -2.9071019254,
				"y": 1.6328469709,
				"z": -0.9434375064,
				"element": "O" 
			},
			{
				"x": 1.154723085,
				"y": -1.7131245104,
				"z": -2.4806827626,
				"element": "H" 
			},
			{
				"x": 0.5100699483,
				"y": -0.07597514,
				"z": -2.2369536527,
				"element": "H" 
			},
			{
				"x": -0.5228899594,
				"y": -1.4620350098,
				"z": -1.9536427147,
				"element": "H" 
			},
			{
				"x": 2.618328901,
				"y": -2.451145587,
				"z": -0.7522482543,
				"element": "H" 
			},
			{
				"x": 3.3459355447,
				"y": -2.5085735178,
				"z": 1.620131398,
				"element": "H" 
			},
			{
				"x": 2.0758407877,
				"y": -1.2126627926,
				"z": 3.3275573605,
				"element": "H" 
			},
			{
				"x": 0.1116048753,
				"y": 0.1161141338,
				"z": 2.6636556793,
				"element": "H" 
			},
			{
				"x": -2.0217555134,
				"y": 0.4069323568,
				"z": 1.7908261318,
				"element": "H" 
			},
			{
				"x": -0.9727821067,
				"y": 1.8113986023,
				"z": 1.503671144,
				"element": "H" 
			},
			{
				"x": -3.2314642385,
				"y": 2.4652587697,
				"z": 1.9472912046,
				"element": "H" 
			}
		],
		 "valence_orbital": [ 
			{
				"type": "occ",
				"energy": -0.3277,
				"method": "rhf"
			},
			{
				"type": "occ",
				"energy": -0.32574,
				"method": "rhf"
			},
			{
				"type": "occ",
				"energy": -0.28235,
				"method": "rhf"
			},
			{
				"type": "occ",
				"energy": -0.24751,
				"method": "rhf"
			},
			{
				"type": "occ",
				"energy": -0.22277,
				"method": "rhf"
			},
			{
				"type": "unocc",
				"energy": -0.0053,
				"method": "rhf"
			},
			{
				"type": "unocc",
				"energy": 0.00427,
				"method": "rhf"
			},
			{
				"type": "unocc",
				"energy": 0.01045,
				"method": "rhf"
			},
			{
				"type": "unocc",
				"energy": 0.03711,
				"method": "rhf"
			},
			{
				"type": "unocc",
				"energy": 0.08778,
				"method": "rhf"
			}
		],
		"cosmo_sigma_profile": { 
			"-0.025": 0.0,
			"-0.024": 0.0,
			"-0.023": 0.0,
			"-0.022": 0.0,
			"-0.021": 0.0654628327475,
			"-0.02": 0.97639111385,
			"-0.019": 0.865532198643,
			"-0.018": 1.74724267971,
			"-0.017": 1.07712823239,
			"-0.016": 0.902570601727,
			"-0.015": 0.864487715033,
			"-0.014": 0.842361078682,
			"-0.013": 1.94792992469,
			"-0.012": 1.34380965695,
			"-0.011": 1.88990640192,
			"-0.01": 1.67950276056,
			"-0.009": 3.11500586736,
			"-0.008": 6.0503719197,
			"-0.007": 5.4802859546,
			"-0.006": 5.50613880837,
			"-0.005": 10.6028415234,
			"-0.004": 13.9680491452,
			"-0.003": 14.3564605283,
			"-0.002": 11.8948294009,
			"-0.001": 12.0663542448,
			"0.0": 14.4901548052,
			"0.001": 12.1512168197,
			"0.002": 10.5689865379,
			"0.003": 11.2480542173,
			"0.004": 10.7244233171,
			"0.005": 10.8174477597,
			"0.006": 10.4428628386,
			"0.007": 5.28055727785,
			"0.008": 3.1850499284,
			"0.009": 4.78599197205,
			"0.01": 6.25825398766,
			"0.011": 5.52363125295,
			"0.012": 4.919222041,
			"0.013": 1.89473659684,
			"0.014": 0.0956579341783,
			"0.015": 0.0,
			"0.016": 0.0,
			"0.017": 0.0,
			"0.018": 0.0,
			"0.019": 0.0,
			"0.02": 0.0,
			"0.021": 0.0,
			"0.022": 0.0,
			"0.023": 0.0,
			"0.024": 0.0,
			"0.025": 0.0
		}
	}
}
