{
	 "smiles": "O=C(NNC1=CC=CC=C1)NNC1=CC=CC=C1", 
	 "Tm": 445.15, 
	 "num_atms": 32, 
	 "gaussian": { 
		 "optdone": 1, 
		 "sigma_profile": "yes", 
		 "theory": "DFT", 
		 "functional": "B3LYP", 
		 "basiset": "6-31G**", 
		 "properties": { 
			 "R2extent": 5908.6973, 
			 "electric_dipole_moment_norm": 3.77872860364, 
			 "electric_quadrupole_moment_norm": 16.2414258549, 
			 "total_energy": -798.012215259, 
			 "HOMO_LUMO_gap": 0.19191, 
			 "cosmo_polarized_energy": -17.8, 
			 "cosmo_cavitation_energy": 36.87, 
			 "cosmo_dispersion_energy": -25.5, 
			 "cosmo_repulsion_energy": 1.98, 
			 "cosmo_total_nonelectrostatic_energy": 13.35, 
			 "SMD_solvation_energy": 7.27 
		},
		"coords": [
			{
				"x": 0.3139458345,
				"y": -0.0320056174,
				"z": -3.3033405524,
				"element": "O" 
			},
			{
				"x": 0.9605176839,
				"y": -0.5047688884,
				"z": -2.3803886874,
				"element": "C" 
			},
			{
				"x": 1.2393874356,
				"y": -1.8718658867,
				"z": -2.314738839,
				"element": "N" 
			},
			{
				"x": 1.7179547278,
				"y": -2.4372401477,
				"z": -1.1334694827,
				"element": "N" 
			},
			{
				"x": 0.7973070857,
				"y": -3.0556476331,
				"z": -0.2490554455,
				"element": "C" 
			},
			{
				"x": -0.5547405175,
				"y": -2.6903153006,
				"z": -0.2195243693,
				"element": "C" 
			},
			{
				"x": -1.4131801527,
				"y": -3.2926129877,
				"z": 0.7022438112,
				"element": "C" 
			},
			{
				"x": -0.9439112041,
				"y": -4.2541800687,
				"z": 1.597005864,
				"element": "C" 
			},
			{
				"x": 0.4057355985,
				"y": -4.614587425,
				"z": 1.5636316063,
				"element": "C" 
			},
			{
				"x": 1.2725413984,
				"y": -4.0243401453,
				"z": 0.6477462585,
				"element": "C" 
			},
			{
				"x": 1.5074431109,
				"y": 0.2432656986,
				"z": -1.3620773907,
				"element": "N" 
			},
			{
				"x": 1.5063770532,
				"y": 1.6327753419,
				"z": -1.4743707141,
				"element": "N" 
			},
			{
				"x": 0.4453456002,
				"y": 2.3254940568,
				"z": -0.8369562089,
				"element": "C" 
			},
			{
				"x": -0.2701703986,
				"y": 1.773765608,
				"z": 0.2324527951,
				"element": "C" 
			},
			{
				"x": -1.2507540641,
				"y": 2.5304877542,
				"z": 0.8752513586,
				"element": "C" 
			},
			{
				"x": -1.530774557,
				"y": 3.8356266074,
				"z": 0.4691931713,
				"element": "C" 
			},
			{
				"x": -0.8140824523,
				"y": 4.3823342908,
				"z": -0.5984691385,
				"element": "C" 
			},
			{
				"x": 0.166989708,
				"y": 3.6377030973,
				"z": -1.2476736031,
				"element": "C" 
			},
			{
				"x": 0.6091485134,
				"y": -2.426735602,
				"z": -2.888562015,
				"element": "H" 
			},
			{
				"x": 2.5393827909,
				"y": -3.0043928481,
				"z": -1.3115449007,
				"element": "H" 
			},
			{
				"x": -0.9338700935,
				"y": -1.9402779389,
				"z": -0.9048961181,
				"element": "H" 
			},
			{
				"x": -2.4597489222,
				"y": -3.0020320026,
				"z": 0.7153932066,
				"element": "H" 
			},
			{
				"x": -1.6184686201,
				"y": -4.7180684294,
				"z": 2.3096242772,
				"element": "H" 
			},
			{
				"x": 0.7874288459,
				"y": -5.3646373302,
				"z": 2.2504696532,
				"element": "H" 
			},
			{
				"x": 2.3217784472,
				"y": -4.3104490548,
				"z": 0.6258497745,
				"element": "H" 
			},
			{
				"x": 2.2383069596,
				"y": -0.166914123,
				"z": -0.7976555132,
				"element": "H" 
			},
			{
				"x": 1.5951510049,
				"y": 1.8985895722,
				"z": -2.4513392842,
				"element": "H" 
			},
			{
				"x": -0.0634199482,
				"y": 0.7570636855,
				"z": 0.547382885,
				"element": "H" 
			},
			{
				"x": -1.8014846401,
				"y": 2.0889189436,
				"z": 1.7015294242,
				"element": "H" 
			},
			{
				"x": -2.2959026333,
				"y": 4.4177202548,
				"z": 0.9735297022,
				"element": "H" 
			},
			{
				"x": -1.0214712149,
				"y": 5.3950878771,
				"z": -0.932975802,
				"element": "H" 
			},
			{
				"x": 0.7228376201,
				"y": 4.0700386414,
				"z": -2.0763657233,
				"element": "H" 
			}
		],
		 "valence_orbital": [ 
			{
				"type": "occ",
				"energy": -0.26296,
				"method": "rhf"
			},
			{
				"type": "occ",
				"energy": -0.25803,
				"method": "rhf"
			},
			{
				"type": "occ",
				"energy": -0.23965,
				"method": "rhf"
			},
			{
				"type": "occ",
				"energy": -0.22523,
				"method": "rhf"
			},
			{
				"type": "occ",
				"energy": -0.20273,
				"method": "rhf"
			},
			{
				"type": "unocc",
				"energy": -0.01082,
				"method": "rhf"
			},
			{
				"type": "unocc",
				"energy": 0.0002,
				"method": "rhf"
			},
			{
				"type": "unocc",
				"energy": 0.00904,
				"method": "rhf"
			},
			{
				"type": "unocc",
				"energy": 0.021,
				"method": "rhf"
			},
			{
				"type": "unocc",
				"energy": 0.04752,
				"method": "rhf"
			}
		],
		"cosmo_sigma_profile": { 
			"-0.025": 0.0,
			"-0.024": 0.0,
			"-0.023": 0.0,
			"-0.022": 0.0,
			"-0.021": 0.0,
			"-0.02": 0.0,
			"-0.019": 0.0,
			"-0.018": 0.0,
			"-0.017": 0.0,
			"-0.016": 0.0,
			"-0.015": 0.0,
			"-0.014": 0.595737553852,
			"-0.013": 2.93992249268,
			"-0.012": 3.54037078908,
			"-0.011": 4.40063290889,
			"-0.01": 3.02739404624,
			"-0.009": 4.64943701484,
			"-0.008": 5.78316868097,
			"-0.007": 5.87065107753,
			"-0.006": 10.0414793029,
			"-0.005": 20.5171986432,
			"-0.004": 22.2910265007,
			"-0.003": 24.1175618316,
			"-0.002": 18.5876988938,
			"-0.001": 16.5986650514,
			"0.0": 16.0492926222,
			"0.001": 16.0047679244,
			"0.002": 16.3058040394,
			"0.003": 15.8171675199,
			"0.004": 17.6401925234,
			"0.005": 20.4092345741,
			"0.006": 21.7580380129,
			"0.007": 8.51006145409,
			"0.008": 2.04021336201,
			"0.009": 2.17600377027,
			"0.01": 1.63449355489,
			"0.011": 2.20842548128,
			"0.012": 1.94396385348,
			"0.013": 4.49897121633,
			"0.014": 3.65296967757,
			"0.015": 0.133205605955,
			"0.016": 0.0,
			"0.017": 0.0,
			"0.018": 0.0,
			"0.019": 0.0,
			"0.02": 0.0,
			"0.021": 0.0,
			"0.022": 0.0,
			"0.023": 0.0,
			"0.024": 0.0,
			"0.025": 0.0
		}
	}
}
