{
	 "smiles": "CC(C)C(C)C=CC(C)C1CCC2C3=CC=C4CC(O)CCC4(C)C3=CCC12C", 
	 "Tm": 419.15, 
	 "num_atms": 71, 
	 "gaussian": { 
		 "optdone": 1, 
		 "sigma_profile": "yes", 
		 "theory": "DFT", 
		 "functional": "B3LYP", 
		 "basiset": "6-31G**", 
		 "properties": { 
			 "R2extent": 17522.2278, 
			 "electric_dipole_moment_norm": 2.35163283911, 
			 "electric_quadrupole_moment_norm": 20.2174994683, 
			 "total_energy": -1167.48722735, 
			 "HOMO_LUMO_gap": 0.14865, 
			 "cosmo_polarized_energy": -7.98, 
			 "cosmo_cavitation_energy": 62.27, 
			 "cosmo_dispersion_energy": -40.95, 
			 "cosmo_repulsion_energy": 3.04, 
			 "cosmo_total_nonelectrostatic_energy": 24.36, 
			 "SMD_solvation_energy": 8.94 
		},
		"coords": [
			{
				"x": 2.3541290166,
				"y": 3.4165844345,
				"z": 1.5010049981,
				"element": "C" 
			},
			{
				"x": 2.4557017439,
				"y": 3.5846244127,
				"z": 3.0234186335,
				"element": "C" 
			},
			{
				"x": 3.6425271032,
				"y": 2.7770718148,
				"z": 3.5745518411,
				"element": "C" 
			},
			{
				"x": 1.0981836359,
				"y": 3.2793002654,
				"z": 3.725751383,
				"element": "C" 
			},
			{
				"x": 1.1250273334,
				"y": 3.6741164415,
				"z": 5.2175502239,
				"element": "C" 
			},
			{
				"x": 0.6419121406,
				"y": 1.8448755253,
				"z": 3.5798561175,
				"element": "C" 
			},
			{
				"x": -0.5484691787,
				"y": 1.4698823251,
				"z": 3.0983038956,
				"element": "C" 
			},
			{
				"x": -1.1232348303,
				"y": 0.0681433354,
				"z": 3.0392275483,
				"element": "C" 
			},
			{
				"x": -0.1100925794,
				"y": -1.0142457468,
				"z": 3.4443272293,
				"element": "C" 
			},
			{
				"x": -1.941895154,
				"y": -0.1816761692,
				"z": 1.7342250957,
				"element": "C" 
			},
			{
				"x": -2.8731935558,
				"y": -1.4222514527,
				"z": 1.8183417194,
				"element": "C" 
			},
			{
				"x": -3.1645499404,
				"y": -1.8400133294,
				"z": 0.3550758301,
				"element": "C" 
			},
			{
				"x": -2.4882193659,
				"y": -0.7542721008,
				"z": -0.5282457819,
				"element": "C" 
			},
			{
				"x": -2.1523961095,
				"y": -1.2352091115,
				"z": -1.9216894993,
				"element": "C" 
			},
			{
				"x": -3.107329177,
				"y": -1.3195357312,
				"z": -2.8851935221,
				"element": "C" 
			},
			{
				"x": -2.8780408584,
				"y": -2.0584229764,
				"z": -4.1144950099,
				"element": "C" 
			},
			{
				"x": -1.6477076516,
				"y": -2.4952038261,
				"z": -4.4522266544,
				"element": "C" 
			},
			{
				"x": -1.4209424763,
				"y": -3.5379435721,
				"z": -5.52458511,
				"element": "C" 
			},
			{
				"x": -0.1328070361,
				"y": -3.2982747293,
				"z": -6.314800505,
				"element": "C" 
			},
			{
				"x": -0.2409920818,
				"y": -2.120365628,
				"z": -7.1240412664,
				"element": "O" 
			},
			{
				"x": 1.0861151051,
				"y": -3.2361224929,
				"z": -5.3534168879,
				"element": "C" 
			},
			{
				"x": 0.7354367183,
				"y": -2.9818090255,
				"z": -3.8671449697,
				"element": "C" 
			},
			{
				"x": -0.4327789275,
				"y": -1.9888608789,
				"z": -3.6661650422,
				"element": "C" 
			},
			{
				"x": -0.0173093258,
				"y": -0.5865247746,
				"z": -4.2202316283,
				"element": "C" 
			},
			{
				"x": -0.8015872712,
				"y": -1.7404424549,
				"z": -2.1903430128,
				"element": "C" 
			},
			{
				"x": 0.0985370978,
				"y": -1.8123750482,
				"z": -1.1868216786,
				"element": "C" 
			},
			{
				"x": -0.1585682707,
				"y": -1.3400466867,
				"z": 0.2220888515,
				"element": "C" 
			},
			{
				"x": -1.2778803558,
				"y": -0.272153064,
				"z": 0.3212233889,
				"element": "C" 
			},
			{
				"x": -0.7535626306,
				"y": 1.0819866376,
				"z": -0.1795385813,
				"element": "C" 
			},
			{
				"x": 3.2784247825,
				"y": 3.7375639296,
				"z": 1.0081112175,
				"element": "H" 
			},
			{
				"x": 2.1791087645,
				"y": 2.3696486415,
				"z": 1.2303282545,
				"element": "H" 
			},
			{
				"x": 1.5305595608,
				"y": 4.0083453474,
				"z": 1.0861823633,
				"element": "H" 
			},
			{
				"x": 2.662470697,
				"y": 4.646181374,
				"z": 3.2256278229,
				"element": "H" 
			},
			{
				"x": 4.5741604145,
				"y": 3.0953459528,
				"z": 3.0943221936,
				"element": "H" 
			},
			{
				"x": 3.7692662892,
				"y": 2.908456129,
				"z": 4.6534816469,
				"element": "H" 
			},
			{
				"x": 3.526868473,
				"y": 1.7054769903,
				"z": 3.3768423648,
				"element": "H" 
			},
			{
				"x": 0.3484471637,
				"y": 3.9164913763,
				"z": 3.2352849006,
				"element": "H" 
			},
			{
				"x": 1.4806837583,
				"y": 4.7029792173,
				"z": 5.347114656,
				"element": "H" 
			},
			{
				"x": 0.123070276,
				"y": 3.60235343,
				"z": 5.6514347792,
				"element": "H" 
			},
			{
				"x": 1.7802688457,
				"y": 3.0177951924,
				"z": 5.8001039454,
				"element": "H" 
			},
			{
				"x": 1.3304953026,
				"y": 1.088422121,
				"z": 3.954309156,
				"element": "H" 
			},
			{
				"x": -1.2266939013,
				"y": 2.2520354997,
				"z": 2.7497217845,
				"element": "H" 
			},
			{
				"x": -1.9060909966,
				"y": 0.0508672836,
				"z": 3.8183201303,
				"element": "H" 
			},
			{
				"x": -0.5361305739,
				"y": -2.0178257693,
				"z": 3.3663994755,
				"element": "H" 
			},
			{
				"x": 0.795025261,
				"y": -0.9829780084,
				"z": 2.8327794614,
				"element": "H" 
			},
			{
				"x": 0.1933150136,
				"y": -0.872578372,
				"z": 4.4865081796,
				"element": "H" 
			},
			{
				"x": -2.6053316614,
				"y": 0.6935334953,
				"z": 1.6594413249,
				"element": "H" 
			},
			{
				"x": -2.3976534853,
				"y": -2.2433612956,
				"z": 2.3641331846,
				"element": "H" 
			},
			{
				"x": -3.7867957439,
				"y": -1.1773548296,
				"z": 2.3705105511,
				"element": "H" 
			},
			{
				"x": -4.2336483209,
				"y": -1.9169706553,
				"z": 0.1361383242,
				"element": "H" 
			},
			{
				"x": -2.7308045627,
				"y": -2.8204584219,
				"z": 0.1328383346,
				"element": "H" 
			},
			{
				"x": -3.1878941584,
				"y": 0.0881766821,
				"z": -0.6189871079,
				"element": "H" 
			},
			{
				"x": -4.1099320369,
				"y": -0.9494126136,
				"z": -2.6814827859,
				"element": "H" 
			},
			{
				"x": -3.7440669578,
				"y": -2.3561694141,
				"z": -4.7034369103,
				"element": "H" 
			},
			{
				"x": -1.3426733518,
				"y": -4.5261342585,
				"z": -5.0444941009,
				"element": "H" 
			},
			{
				"x": -2.2814860292,
				"y": -3.5914767261,
				"z": -6.2014940603,
				"element": "H" 
			},
			{
				"x": 0.0168823948,
				"y": -4.1193833189,
				"z": -7.0254673421,
				"element": "H" 
			},
			{
				"x": -0.9161697918,
				"y": -1.5521422523,
				"z": -6.7301927212,
				"element": "H" 
			},
			{
				"x": 1.6438743097,
				"y": -4.1780416514,
				"z": -5.4146353823,
				"element": "H" 
			},
			{
				"x": 1.7546545933,
				"y": -2.4590478074,
				"z": -5.7354755254,
				"element": "H" 
			},
			{
				"x": 1.6339006087,
				"y": -2.6189720428,
				"z": -3.357864722,
				"element": "H" 
			},
			{
				"x": 0.469317985,
				"y": -3.9292361293,
				"z": -3.3817756602,
				"element": "H" 
			},
			{
				"x": -0.835026833,
				"y": 0.1292075766,
				"z": -4.102312729,
				"element": "H" 
			},
			{
				"x": 0.8445621245,
				"y": -0.2163139095,
				"z": -3.6538754808,
				"element": "H" 
			},
			{
				"x": 0.2586284435,
				"y": -0.6317229922,
				"z": -5.2755870963,
				"element": "H" 
			},
			{
				"x": 1.0897323886,
				"y": -2.214261232,
				"z": -1.3790717266,
				"element": "H" 
			},
			{
				"x": 0.774358851,
				"y": -0.9351186738,
				"z": 0.6313604233,
				"element": "H" 
			},
			{
				"x": -0.3970245031,
				"y": -2.2083173366,
				"z": 0.8526854151,
				"element": "H" 
			},
			{
				"x": -1.550344376,
				"y": 1.8349876877,
				"z": -0.1713161822,
				"element": "H" 
			},
			{
				"x": -0.3808486965,
				"y": 1.0036406114,
				"z": -1.2053628641,
				"element": "H" 
			},
			{
				"x": 0.0602265605,
				"y": 1.4518327793,
				"z": 0.449344902,
				"element": "H" 
			}
		],
		 "valence_orbital": [ 
			{
				"type": "occ",
				"energy": -0.28286,
				"method": "rhf"
			},
			{
				"type": "occ",
				"energy": -0.25549,
				"method": "rhf"
			},
			{
				"type": "occ",
				"energy": -0.24956,
				"method": "rhf"
			},
			{
				"type": "occ",
				"energy": -0.23415,
				"method": "rhf"
			},
			{
				"type": "occ",
				"energy": -0.1885,
				"method": "rhf"
			},
			{
				"type": "unocc",
				"energy": -0.03985,
				"method": "rhf"
			},
			{
				"type": "unocc",
				"energy": 0.02577,
				"method": "rhf"
			},
			{
				"type": "unocc",
				"energy": 0.04035,
				"method": "rhf"
			},
			{
				"type": "unocc",
				"energy": 0.06992,
				"method": "rhf"
			},
			{
				"type": "unocc",
				"energy": 0.08134,
				"method": "rhf"
			}
		],
		"cosmo_sigma_profile": { 
			"-0.025": 0.0,
			"-0.024": 0.0,
			"-0.023": 0.0,
			"-0.022": 0.0,
			"-0.021": 0.0,
			"-0.02": 0.0,
			"-0.019": 0.0,
			"-0.018": 0.0,
			"-0.017": 0.0,
			"-0.016": 0.0,
			"-0.015": 0.0,
			"-0.014": 0.0,
			"-0.013": 0.0,
			"-0.012": 0.477720453702,
			"-0.011": 0.413900898521,
			"-0.01": 0.522787842485,
			"-0.009": 0.709230646952,
			"-0.008": 0.694579862448,
			"-0.007": 1.01117912092,
			"-0.006": 1.27796932272,
			"-0.005": 2.35252737245,
			"-0.004": 14.8047335545,
			"-0.003": 40.6813828858,
			"-0.002": 81.9419204368,
			"-0.001": 84.4185424499,
			"0.0": 78.4433380862,
			"0.001": 64.3627086413,
			"0.002": 48.8389934331,
			"0.003": 18.8159420405,
			"0.004": 11.1720177549,
			"0.005": 9.10079474186,
			"0.006": 6.18026622193,
			"0.007": 2.39402382315,
			"0.008": 0.948576331895,
			"0.009": 1.14585096869,
			"0.01": 1.2131651722,
			"0.011": 0.93729956546,
			"0.012": 1.38618801993,
			"0.013": 1.07847734531,
			"0.014": 2.12719319714,
			"0.015": 1.22365453821,
			"0.016": 0.0,
			"0.017": 0.0,
			"0.018": 0.0,
			"0.019": 0.0,
			"0.02": 0.0,
			"0.021": 0.0,
			"0.022": 0.0,
			"0.023": 0.0,
			"0.024": 0.0,
			"0.025": 0.0
		}
	}
}
