{
	 "smiles": "NC(=O)C1=C(F)C=CC(=C1)C(F)(F)F", 
	 "Tm": 389.15, 
	 "num_atms": 19, 
	 "gaussian": { 
		 "optdone": 1, 
		 "sigma_profile": "yes", 
		 "theory": "DFT", 
		 "functional": "B3LYP", 
		 "basiset": "6-31G**", 
		 "properties": { 
			 "R2extent": 3509.9094, 
			 "electric_dipole_moment_norm": 2.61805252239, 
			 "electric_quadrupole_moment_norm": 18.7123921429, 
			 "total_energy": -837.214762351, 
			 "HOMO_LUMO_gap": 0.20605, 
			 "cosmo_polarized_energy": -13.95, 
			 "cosmo_cavitation_energy": 26.09, 
			 "cosmo_dispersion_energy": -18.32, 
			 "cosmo_repulsion_energy": 1.38, 
			 "cosmo_total_nonelectrostatic_energy": 9.15, 
			 "SMD_solvation_energy": 6.96 
		},
		"coords": [
			{
				"x": -0.4061563044,
				"y": -2.5049263827,
				"z": 1.4819400053,
				"element": "N" 
			},
			{
				"x": 0.5305876132,
				"y": -1.6026764484,
				"z": 1.037396153,
				"element": "C" 
			},
			{
				"x": 1.7192005502,
				"y": -1.7076813052,
				"z": 1.2912849202,
				"element": "O" 
			},
			{
				"x": -0.0217248162,
				"y": -0.5090975213,
				"z": 0.1597770751,
				"element": "C" 
			},
			{
				"x": 0.5112832232,
				"y": 0.7860491934,
				"z": 0.2056912416,
				"element": "C" 
			},
			{
				"x": 1.4661336709,
				"y": 1.0839755874,
				"z": 1.0942982908,
				"element": "F" 
			},
			{
				"x": 0.0584768715,
				"y": 1.8009181615,
				"z": -0.6316142284,
				"element": "C" 
			},
			{
				"x": -0.9481079049,
				"y": 1.5278805433,
				"z": -1.5529263915,
				"element": "C" 
			},
			{
				"x": -1.4960734267,
				"y": 0.2441054314,
				"z": -1.625170439,
				"element": "C" 
			},
			{
				"x": -1.0355759783,
				"y": -0.7601114995,
				"z": -0.7726650636,
				"element": "C" 
			},
			{
				"x": -2.6203728638,
				"y": -0.0417963587,
				"z": -2.5826733616,
				"element": "C" 
			},
			{
				"x": -3.8272855121,
				"y": 0.2120665399,
				"z": -2.0228441026,
				"element": "F" 
			},
			{
				"x": -2.5375508714,
				"y": 0.7194628291,
				"z": -3.695158315,
				"element": "F" 
			},
			{
				"x": -2.6342384198,
				"y": -1.335981368,
				"z": -2.9701230894,
				"element": "F" 
			},
			{
				"x": -0.0727123736,
				"y": -3.2003591988,
				"z": 2.1343224391,
				"element": "H" 
			},
			{
				"x": -1.3819189847,
				"y": -2.2549807687,
				"z": 1.5271761959,
				"element": "H" 
			},
			{
				"x": 0.5033147295,
				"y": 2.7862618122,
				"z": -0.5491223409,
				"element": "H" 
			},
			{
				"x": -1.3007995618,
				"y": 2.3063539333,
				"z": -2.2204107343,
				"element": "H" 
			},
			{
				"x": -1.442979641,
				"y": -1.7616631802,
				"z": -0.8566782548,
				"element": "H" 
			}
		],
		 "valence_orbital": [ 
			{
				"type": "occ",
				"energy": -0.37158,
				"method": "rhf"
			},
			{
				"type": "occ",
				"energy": -0.28679,
				"method": "rhf"
			},
			{
				"type": "occ",
				"energy": -0.28233,
				"method": "rhf"
			},
			{
				"type": "occ",
				"energy": -0.27182,
				"method": "rhf"
			},
			{
				"type": "occ",
				"energy": -0.25844,
				"method": "rhf"
			},
			{
				"type": "unocc",
				"energy": -0.05239,
				"method": "rhf"
			},
			{
				"type": "unocc",
				"energy": -0.03591,
				"method": "rhf"
			},
			{
				"type": "unocc",
				"energy": 0.03145,
				"method": "rhf"
			},
			{
				"type": "unocc",
				"energy": 0.07096,
				"method": "rhf"
			},
			{
				"type": "unocc",
				"energy": 0.08694,
				"method": "rhf"
			}
		],
		"cosmo_sigma_profile": { 
			"-0.025": 0.0,
			"-0.024": 0.0,
			"-0.023": 0.0,
			"-0.022": 0.0,
			"-0.021": 0.0,
			"-0.02": 0.0,
			"-0.019": 0.0,
			"-0.018": 0.0,
			"-0.017": 0.0,
			"-0.016": 0.0,
			"-0.015": 0.633740132055,
			"-0.014": 2.07793809639,
			"-0.013": 2.29532087481,
			"-0.012": 2.06765133042,
			"-0.011": 2.53964407927,
			"-0.01": 2.99855495367,
			"-0.009": 2.99302372637,
			"-0.008": 5.56184377577,
			"-0.007": 7.22727079785,
			"-0.006": 6.74640062939,
			"-0.005": 6.52288461334,
			"-0.004": 7.27996254375,
			"-0.003": 8.08997413078,
			"-0.002": 10.9469278871,
			"-0.001": 15.7527493096,
			"0.0": 19.625481025,
			"0.001": 19.2518053859,
			"0.002": 24.1682945206,
			"0.003": 31.0856679362,
			"0.004": 6.58322963744,
			"0.005": 2.66620818894,
			"0.006": 2.23764958491,
			"0.007": 2.27101456758,
			"0.008": 1.55009466683,
			"0.009": 1.46911639264,
			"0.01": 1.7718728436,
			"0.011": 2.43993804809,
			"0.012": 3.22992829492,
			"0.013": 5.72914054504,
			"0.014": 1.59404190168,
			"0.015": 0.0,
			"0.016": 0.0,
			"0.017": 0.0,
			"0.018": 0.0,
			"0.019": 0.0,
			"0.02": 0.0,
			"0.021": 0.0,
			"0.022": 0.0,
			"0.023": 0.0,
			"0.024": 0.0,
			"0.025": 0.0
		}
	}
}
