{
	 "smiles": "CC(=C)OC(C)=O", 
	 "Tm": 180.15, 
	 "num_atms": 15, 
	 "gaussian": { 
		 "optdone": 1, 
		 "sigma_profile": "yes", 
		 "theory": "DFT", 
		 "functional": "B3LYP", 
		 "basiset": "6-31G**", 
		 "properties": { 
			 "R2extent": 1109.4993, 
			 "electric_dipole_moment_norm": 1.63420190307, 
			 "electric_quadrupole_moment_norm": 6.99495235152, 
			 "total_energy": -345.793489148, 
			 "HOMO_LUMO_gap": 0.24981, 
			 "cosmo_polarized_energy": -6.42, 
			 "cosmo_cavitation_energy": 19.15, 
			 "cosmo_dispersion_energy": -13.62, 
			 "cosmo_repulsion_energy": 1.18, 
			 "cosmo_total_nonelectrostatic_energy": 6.7, 
			 "SMD_solvation_energy": 5.65 
		},
		"coords": [
			{
				"x": -0.2707607908,
				"y": 0.475669537,
				"z": -1.0971091562,
				"element": "C" 
			},
			{
				"x": -0.313011284,
				"y": 1.360217571,
				"z": 0.111201422,
				"element": "C" 
			},
			{
				"x": 0.2265176064,
				"y": 2.5695728063,
				"z": 0.2349525868,
				"element": "C" 
			},
			{
				"x": -1.0992830411,
				"y": 0.8853001489,
				"z": 1.1796825003,
				"element": "O" 
			},
			{
				"x": -0.7104650134,
				"y": -0.2472939538,
				"z": 1.8363572549,
				"element": "C" 
			},
			{
				"x": -1.7200595686,
				"y": -0.5997658361,
				"z": 2.9017809311,
				"element": "C" 
			},
			{
				"x": 0.3006651876,
				"y": -0.8606625282,
				"z": 1.5895787361,
				"element": "O" 
			},
			{
				"x": 0.2444629842,
				"y": -0.461121074,
				"z": -0.8686128531,
				"element": "H" 
			},
			{
				"x": -1.2875467673,
				"y": 0.2301252167,
				"z": -1.4254503998,
				"element": "H" 
			},
			{
				"x": 0.2488267402,
				"y": 0.9760350552,
				"z": -1.9171311786,
				"element": "H" 
			},
			{
				"x": 0.1255880365,
				"y": 3.1383275342,
				"z": 1.1520109826,
				"element": "H" 
			},
			{
				"x": 0.7768925659,
				"y": 3.0123300334,
				"z": -0.5867704063,
				"element": "H" 
			},
			{
				"x": -1.3839656551,
				"y": -1.4858522908,
				"z": 3.4390484239,
				"element": "H" 
			},
			{
				"x": -1.8420584266,
				"y": 0.2370025508,
				"z": 3.5955186856,
				"element": "H" 
			},
			{
				"x": -2.696102574,
				"y": -0.7877847706,
				"z": 2.4444424706,
				"element": "H" 
			}
		],
		 "valence_orbital": [ 
			{
				"type": "occ",
				"energy": -0.38081,
				"method": "rhf"
			},
			{
				"type": "occ",
				"energy": -0.36161,
				"method": "rhf"
			},
			{
				"type": "occ",
				"energy": -0.31112,
				"method": "rhf"
			},
			{
				"type": "occ",
				"energy": -0.27807,
				"method": "rhf"
			},
			{
				"type": "occ",
				"energy": -0.24932,
				"method": "rhf"
			},
			{
				"type": "unocc",
				"energy": 0.00049,
				"method": "rhf"
			},
			{
				"type": "unocc",
				"energy": 0.02887,
				"method": "rhf"
			},
			{
				"type": "unocc",
				"energy": 0.10172,
				"method": "rhf"
			},
			{
				"type": "unocc",
				"energy": 0.1194,
				"method": "rhf"
			},
			{
				"type": "unocc",
				"energy": 0.12302,
				"method": "rhf"
			}
		],
		"cosmo_sigma_profile": { 
			"-0.025": 0.0,
			"-0.024": 0.0,
			"-0.023": 0.0,
			"-0.022": 0.0,
			"-0.021": 0.0,
			"-0.02": 0.0,
			"-0.019": 0.0,
			"-0.018": 0.0,
			"-0.017": 0.0,
			"-0.016": 0.0,
			"-0.015": 0.0,
			"-0.014": 0.0,
			"-0.013": 0.0,
			"-0.012": 0.0,
			"-0.011": 0.0,
			"-0.01": 0.0,
			"-0.009": 0.0,
			"-0.008": 0.0,
			"-0.007": 1.56253024368,
			"-0.006": 8.78613864223,
			"-0.005": 12.7480069798,
			"-0.004": 14.8121005127,
			"-0.003": 15.3191310282,
			"-0.002": 17.7583178066,
			"-0.001": 17.3829434349,
			"0.0": 10.7832566084,
			"0.001": 5.5720822779,
			"0.002": 7.89288943139,
			"0.003": 5.301074747,
			"0.004": 5.39663861612,
			"0.005": 6.68145446612,
			"0.006": 3.78634566773,
			"0.007": 2.68846717013,
			"0.008": 2.64609499178,
			"0.009": 2.87689228745,
			"0.01": 2.0777696892,
			"0.011": 3.85109745881,
			"0.012": 2.94789222071,
			"0.013": 0.463776196074,
			"0.014": 0.0,
			"0.015": 0.0,
			"0.016": 0.0,
			"0.017": 0.0,
			"0.018": 0.0,
			"0.019": 0.0,
			"0.02": 0.0,
			"0.021": 0.0,
			"0.022": 0.0,
			"0.023": 0.0,
			"0.024": 0.0,
			"0.025": 0.0
		}
	}
}
