{
	 "smiles": "[O-][N+](=O)C1=CC=C2NC3=C(CCN(CC4=CC=CC=C4)C3)C2=C1", 
	 "Tm": 487.15, 
	 "num_atms": 40, 
	 "gaussian": { 
		 "optdone": 1, 
		 "sigma_profile": "yes", 
		 "theory": "DFT", 
		 "functional": "B3LYP", 
		 "basiset": "6-31G**", 
		 "properties": { 
			 "R2extent": 7887.6047, 
			 "electric_dipole_moment_norm": 7.30051702895, 
			 "electric_quadrupole_moment_norm": 37.3913626261, 
			 "total_energy": -1010.76563165, 
			 "HOMO_LUMO_gap": 0.14356, 
			 "cosmo_polarized_energy": -18.33, 
			 "cosmo_cavitation_energy": 42.58, 
			 "cosmo_dispersion_energy": -29.27, 
			 "cosmo_repulsion_energy": 2.22, 
			 "cosmo_total_nonelectrostatic_energy": 15.54, 
			 "SMD_solvation_energy": 5.93 
		},
		"coords": [
			{
				"x": -0.4019099517,
				"y": 4.5736634324,
				"z": -2.6845552666,
				"element": "O" 
			},
			{
				"x": -0.6778362539,
				"y": 4.7732348887,
				"z": -1.4992207144,
				"element": "N" 
			},
			{
				"x": -1.1873186446,
				"y": 5.8126375033,
				"z": -1.0732920654,
				"element": "O" 
			},
			{
				"x": -0.3821316271,
				"y": 3.7100867793,
				"z": -0.5364784673,
				"element": "C" 
			},
			{
				"x": -0.6908731231,
				"y": 3.9308082227,
				"z": 0.8193633151,
				"element": "C" 
			},
			{
				"x": -0.4225725145,
				"y": 2.9439656597,
				"z": 1.7557277767,
				"element": "C" 
			},
			{
				"x": 0.1541647948,
				"y": 1.7510696742,
				"z": 1.3037011673,
				"element": "C" 
			},
			{
				"x": 0.5242277209,
				"y": 0.6209798432,
				"z": 1.9952326842,
				"element": "N" 
			},
			{
				"x": 1.0451509578,
				"y": -0.3098254689,
				"z": 1.1042837218,
				"element": "C" 
			},
			{
				"x": 1.0381589611,
				"y": 0.2069216187,
				"z": -0.1638202808,
				"element": "C" 
			},
			{
				"x": 1.5648088889,
				"y": -0.5643095206,
				"z": -1.3376276613,
				"element": "C" 
			},
			{
				"x": 2.407164245,
				"y": -1.760575356,
				"z": -0.822730346,
				"element": "C" 
			},
			{
				"x": 1.8412674839,
				"y": -2.4943549449,
				"z": 0.3104230482,
				"element": "N" 
			},
			{
				"x": 0.8296975083,
				"y": -3.5156204858,
				"z": 0.017048812,
				"element": "C" 
			},
			{
				"x": -0.5406975757,
				"y": -3.0908170243,
				"z": -0.5051896039,
				"element": "C" 
			},
			{
				"x": -0.8310289623,
				"y": -3.1509265099,
				"z": -1.8751375041,
				"element": "C" 
			},
			{
				"x": -2.0800458441,
				"y": -2.7649003583,
				"z": -2.3651342592,
				"element": "C" 
			},
			{
				"x": -3.066610097,
				"y": -2.3165358497,
				"z": -1.4855220771,
				"element": "C" 
			},
			{
				"x": -2.798659854,
				"y": -2.2675453181,
				"z": -0.1159683034,
				"element": "C" 
			},
			{
				"x": -1.5489300304,
				"y": -2.6566627785,
				"z": 0.3668666863,
				"element": "C" 
			},
			{
				"x": 1.6128675362,
				"y": -1.649704036,
				"z": 1.4806321594,
				"element": "C" 
			},
			{
				"x": 0.465180912,
				"y": 1.5253411735,
				"z": -0.0728173573,
				"element": "C" 
			},
			{
				"x": 0.1890008149,
				"y": 2.5305442296,
				"z": -1.0039468178,
				"element": "C" 
			},
			{
				"x": -1.1345513142,
				"y": 4.875462063,
				"z": 1.1049386422,
				"element": "H" 
			},
			{
				"x": -0.6539513497,
				"y": 3.0992623766,
				"z": 2.8052411988,
				"element": "H" 
			},
			{
				"x": 0.4098440415,
				"y": 0.4825970606,
				"z": 2.9866496625,
				"element": "H" 
			},
			{
				"x": 0.7391784784,
				"y": -0.916050634,
				"z": -1.9675262713,
				"element": "H" 
			},
			{
				"x": 2.1960420964,
				"y": 0.070112785,
				"z": -1.9739305237,
				"element": "H" 
			},
			{
				"x": 2.5921373717,
				"y": -2.4737857659,
				"z": -1.6329292429,
				"element": "H" 
			},
			{
				"x": 3.3869350851,
				"y": -1.3781907104,
				"z": -0.5041649343,
				"element": "H" 
			},
			{
				"x": 1.2810115715,
				"y": -4.1988808716,
				"z": -0.7126257392,
				"element": "H" 
			},
			{
				"x": 0.6908905469,
				"y": -4.0951025122,
				"z": 0.9383393087,
				"element": "H" 
			},
			{
				"x": -0.0713282207,
				"y": -3.5118748352,
				"z": -2.5652283342,
				"element": "H" 
			},
			{
				"x": -2.284223209,
				"y": -2.8203840548,
				"z": -3.4307516391,
				"element": "H" 
			},
			{
				"x": -4.0399727056,
				"y": -2.0167441439,
				"z": -1.8627115088,
				"element": "H" 
			},
			{
				"x": -3.5661496566,
				"y": -1.9332492292,
				"z": 0.5765451016,
				"element": "H" 
			},
			{
				"x": -1.3599510269,
				"y": -2.6334732233,
				"z": 1.4376281861,
				"element": "H" 
			},
			{
				"x": 2.5700957834,
				"y": -1.5008890991,
				"z": 2.0098689095,
				"element": "H" 
			},
			{
				"x": 0.9565326928,
				"y": -2.1790231374,
				"z": 2.1818451903,
				"element": "H" 
			},
			{
				"x": 0.4007844697,
				"y": 2.4206385574,
				"z": -2.0602266526,
				"element": "H" 
			}
		],
		 "valence_orbital": [ 
			{
				"type": "occ",
				"energy": -0.25475,
				"method": "rhf"
			},
			{
				"type": "occ",
				"energy": -0.25133,
				"method": "rhf"
			},
			{
				"type": "occ",
				"energy": -0.23886,
				"method": "rhf"
			},
			{
				"type": "occ",
				"energy": -0.21484,
				"method": "rhf"
			},
			{
				"type": "occ",
				"energy": -0.21071,
				"method": "rhf"
			},
			{
				"type": "unocc",
				"energy": -0.06715,
				"method": "rhf"
			},
			{
				"type": "unocc",
				"energy": -0.02136,
				"method": "rhf"
			},
			{
				"type": "unocc",
				"energy": -0.00973,
				"method": "rhf"
			},
			{
				"type": "unocc",
				"energy": -0.00648,
				"method": "rhf"
			},
			{
				"type": "unocc",
				"energy": 0.0323,
				"method": "rhf"
			}
		],
		"cosmo_sigma_profile": { 
			"-0.025": 0.0,
			"-0.024": 0.0,
			"-0.023": 0.0,
			"-0.022": 0.0,
			"-0.021": 0.0,
			"-0.02": 0.0,
			"-0.019": 0.0,
			"-0.018": 0.0,
			"-0.017": 0.0394900063078,
			"-0.016": 1.0689394183,
			"-0.015": 1.4330485722,
			"-0.014": 1.54006219917,
			"-0.013": 1.0248156772,
			"-0.012": 1.2627230883,
			"-0.011": 1.94899756174,
			"-0.01": 1.41892631924,
			"-0.009": 1.13208418409,
			"-0.008": 2.27224907698,
			"-0.007": 5.45370860755,
			"-0.006": 10.3935276828,
			"-0.005": 20.7731930382,
			"-0.004": 28.6850446644,
			"-0.003": 34.6064993421,
			"-0.002": 27.1852297436,
			"-0.001": 28.3716462055,
			"0.0": 22.055344207,
			"0.001": 21.0256490403,
			"0.002": 21.6553757624,
			"0.003": 27.0383683935,
			"0.004": 18.528616782,
			"0.005": 12.7243343627,
			"0.006": 12.4523904252,
			"0.007": 6.68503803819,
			"0.008": 9.7844954218,
			"0.009": 7.80253194808,
			"0.01": 4.87048551993,
			"0.011": 3.41673080318,
			"0.012": 0.507854591957,
			"0.013": 0.416031284057,
			"0.014": 0.315109769194,
			"0.015": 0.118155240749,
			"0.016": 0.0,
			"0.017": 0.0,
			"0.018": 0.0,
			"0.019": 0.0,
			"0.02": 0.0,
			"0.021": 0.0,
			"0.022": 0.0,
			"0.023": 0.0,
			"0.024": 0.0,
			"0.025": 0.0
		}
	}
}
