{
	 "smiles": "ClC1=CC=CC=C1NC1=NC(Cl)=NC(Cl)=N1", 
	 "Tm": 433.15, 
	 "num_atms": 21, 
	 "gaussian": { 
		 "optdone": 1, 
		 "sigma_profile": "yes", 
		 "theory": "DFT", 
		 "functional": "B3LYP", 
		 "basiset": "6-31G**", 
		 "properties": { 
			 "R2extent": 7728.4381, 
			 "electric_dipole_moment_norm": 3.65480793476, 
			 "electric_quadrupole_moment_norm": 7.91541715009, 
			 "total_energy": -1945.56810555, 
			 "HOMO_LUMO_gap": 0.17445, 
			 "cosmo_polarized_energy": -7.61, 
			 "cosmo_cavitation_energy": 31.98, 
			 "cosmo_dispersion_energy": -24.2, 
			 "cosmo_repulsion_energy": 1.9, 
			 "cosmo_total_nonelectrostatic_energy": 9.68, 
			 "SMD_solvation_energy": 0.85 
		},
		"coords": [
			{
				"x": 1.5536042681,
				"y": -2.6121948585,
				"z": 0.7109552982,
				"element": "Cl" 
			},
			{
				"x": 0.6243899327,
				"y": -1.2671265365,
				"z": 1.3740836281,
				"element": "C" 
			},
			{
				"x": 0.9285835056,
				"y": -0.8222884714,
				"z": 2.6559817497,
				"element": "C" 
			},
			{
				"x": 0.2120844405,
				"y": 0.2387370467,
				"z": 3.2077371537,
				"element": "C" 
			},
			{
				"x": -0.8021100416,
				"y": 0.8402406618,
				"z": 2.4639721046,
				"element": "C" 
			},
			{
				"x": -1.1097469337,
				"y": 0.3973996318,
				"z": 1.17947933,
				"element": "C" 
			},
			{
				"x": -0.3986417038,
				"y": -0.6703719347,
				"z": 0.6070047199,
				"element": "C" 
			},
			{
				"x": -0.6391888359,
				"y": -1.1828584649,
				"z": -0.6786920331,
				"element": "N" 
			},
			{
				"x": -1.5288965084,
				"y": -0.8391235019,
				"z": -1.6423761053,
				"element": "C" 
			},
			{
				"x": -1.4477559979,
				"y": -1.5887873764,
				"z": -2.7706994305,
				"element": "N" 
			},
			{
				"x": -2.3135419697,
				"y": -1.2499691552,
				"z": -3.700968689,
				"element": "C" 
			},
			{
				"x": -2.2685012125,
				"y": -2.1694684663,
				"z": -5.1800169759,
				"element": "Cl" 
			},
			{
				"x": -3.2299806049,
				"y": -0.2782564095,
				"z": -3.6478097654,
				"element": "N" 
			},
			{
				"x": -3.2031606449,
				"y": 0.3764946909,
				"z": -2.4924665423,
				"element": "C" 
			},
			{
				"x": -4.3611446803,
				"y": 1.6678379517,
				"z": -2.3180751665,
				"element": "Cl" 
			},
			{
				"x": -2.4047797566,
				"y": 0.167961632,
				"z": -1.4586751484,
				"element": "N" 
			},
			{
				"x": 1.7227631475,
				"y": -1.310062469,
				"z": 3.2099756501,
				"element": "H" 
			},
			{
				"x": 0.4484956132,
				"y": 0.586788976,
				"z": 4.2079570234,
				"element": "H" 
			},
			{
				"x": -1.3675696568,
				"y": 1.6672992812,
				"z": 2.8819511477,
				"element": "H" 
			},
			{
				"x": -1.8963759127,
				"y": 0.8660895009,
				"z": 0.6062522685,
				"element": "H" 
			},
			{
				"x": -0.046226448,
				"y": -1.9562417287,
				"z": -0.9579702177,
				"element": "H" 
			}
		],
		 "valence_orbital": [ 
			{
				"type": "occ",
				"energy": -0.3122,
				"method": "rhf"
			},
			{
				"type": "occ",
				"energy": -0.30156,
				"method": "rhf"
			},
			{
				"type": "occ",
				"energy": -0.29872,
				"method": "rhf"
			},
			{
				"type": "occ",
				"energy": -0.26606,
				"method": "rhf"
			},
			{
				"type": "occ",
				"energy": -0.24093,
				"method": "rhf"
			},
			{
				"type": "unocc",
				"energy": -0.06648,
				"method": "rhf"
			},
			{
				"type": "unocc",
				"energy": -0.06151,
				"method": "rhf"
			},
			{
				"type": "unocc",
				"energy": -0.02543,
				"method": "rhf"
			},
			{
				"type": "unocc",
				"energy": -0.00122,
				"method": "rhf"
			},
			{
				"type": "unocc",
				"energy": 0.00689,
				"method": "rhf"
			}
		],
		"cosmo_sigma_profile": { 
			"-0.025": 0.0,
			"-0.024": 0.0,
			"-0.023": 0.0,
			"-0.022": 0.0,
			"-0.021": 0.0,
			"-0.02": 0.0,
			"-0.019": 0.0,
			"-0.018": 0.0,
			"-0.017": 0.0,
			"-0.016": 0.0,
			"-0.015": 0.0,
			"-0.014": 0.0,
			"-0.013": 0.0,
			"-0.012": 0.0,
			"-0.011": 0.223942520655,
			"-0.01": 0.838199915758,
			"-0.009": 2.072695085,
			"-0.008": 2.84588735857,
			"-0.007": 7.23774714802,
			"-0.006": 11.1304882635,
			"-0.005": 13.5506809859,
			"-0.004": 16.6995452716,
			"-0.003": 17.9840644962,
			"-0.002": 18.2406481969,
			"-0.001": 20.9312483489,
			"0.0": 21.3470177841,
			"0.001": 26.1553415744,
			"0.002": 32.4777399103,
			"0.003": 35.2551503781,
			"0.004": 22.0303200385,
			"0.005": 4.5170452708,
			"0.006": 2.87994581024,
			"0.007": 3.16285714467,
			"0.008": 2.11491557904,
			"0.009": 1.28311946464,
			"0.01": 1.89813479173,
			"0.011": 0.970558607724,
			"0.012": 0.498294368615,
			"0.013": 0.0415779351017,
			"0.014": 0.0,
			"0.015": 0.0,
			"0.016": 0.0,
			"0.017": 0.0,
			"0.018": 0.0,
			"0.019": 0.0,
			"0.02": 0.0,
			"0.021": 0.0,
			"0.022": 0.0,
			"0.023": 0.0,
			"0.024": 0.0,
			"0.025": 0.0
		}
	}
}
