{
	 "smiles": "OC(=O)C1=CC(OC2CCOC2)=NC=C1", 
	 "Tm": 383.15, 
	 "num_atms": 26, 
	 "gaussian": { 
		 "optdone": 1, 
		 "sigma_profile": "yes", 
		 "theory": "DFT", 
		 "functional": "B3LYP", 
		 "basiset": "6-31G**", 
		 "properties": { 
			 "R2extent": 4753.887, 
			 "electric_dipole_moment_norm": 2.81071381325, 
			 "electric_quadrupole_moment_norm": 23.4167509715, 
			 "total_energy": -743.326451704, 
			 "HOMO_LUMO_gap": 0.18038, 
			 "cosmo_polarized_energy": -16.41, 
			 "cosmo_cavitation_energy": 30.03, 
			 "cosmo_dispersion_energy": -22.21, 
			 "cosmo_repulsion_energy": 1.76, 
			 "cosmo_total_nonelectrostatic_energy": 9.58, 
			 "SMD_solvation_energy": 5.69 
		},
		"coords": [
			{
				"x": -1.5701179317,
				"y": 4.1012616161,
				"z": 0.7927338326,
				"element": "O" 
			},
			{
				"x": -1.505368375,
				"y": 3.8417684616,
				"z": -0.5370767543,
				"element": "C" 
			},
			{
				"x": -2.2271537298,
				"y": 4.4223127058,
				"z": -1.3108324456,
				"element": "O" 
			},
			{
				"x": -0.5017946943,
				"y": 2.8094164198,
				"z": -0.9761105211,
				"element": "C" 
			},
			{
				"x": -0.0148932378,
				"y": 1.8223593292,
				"z": -0.1266311605,
				"element": "C" 
			},
			{
				"x": 0.9079415797,
				"y": 0.8946905685,
				"z": -0.6490475905,
				"element": "C" 
			},
			{
				"x": 1.3598166388,
				"y": -0.0437053929,
				"z": 0.2103663674,
				"element": "O" 
			},
			{
				"x": 2.3092844919,
				"y": -1.0255217787,
				"z": -0.2742400432,
				"element": "C" 
			},
			{
				"x": 1.5921711544,
				"y": -2.1917157421,
				"z": -0.9658723268,
				"element": "C" 
			},
			{
				"x": 1.221844486,
				"y": -3.0739305993,
				"z": 0.2278730894,
				"element": "C" 
			},
			{
				"x": 2.3506875491,
				"y": -2.989899724,
				"z": 1.0972936648,
				"element": "O" 
			},
			{
				"x": 2.9298145363,
				"y": -1.6904037553,
				"z": 0.9687481642,
				"element": "C" 
			},
			{
				"x": 1.3362193603,
				"y": 0.9148884382,
				"z": -1.9062988102,
				"element": "N" 
			},
			{
				"x": 0.8492438822,
				"y": 1.8732031471,
				"z": -2.7146805063,
				"element": "C" 
			},
			{
				"x": -0.0690202395,
				"y": 2.8311064885,
				"z": -2.3121600634,
				"element": "C" 
			},
			{
				"x": -0.8384539537,
				"y": 3.6698118567,
				"z": 1.256193804,
				"element": "H" 
			},
			{
				"x": -0.3382187676,
				"y": 1.7074999979,
				"z": 0.9031231305,
				"element": "H" 
			},
			{
				"x": 3.0338691674,
				"y": -0.5227115172,
				"z": -0.9156751508,
				"element": "H" 
			},
			{
				"x": 0.7460422279,
				"y": -1.8611340908,
				"z": -1.5708797908,
				"element": "H" 
			},
			{
				"x": 2.3012103738,
				"y": -2.7146101253,
				"z": -1.6166149468,
				"element": "H" 
			},
			{
				"x": 1.0705159047,
				"y": -4.1267927255,
				"z": -0.025432168,
				"element": "H" 
			},
			{
				"x": 0.3131180355,
				"y": -2.6982440374,
				"z": 0.723900588,
				"element": "H" 
			},
			{
				"x": 4.0144906583,
				"y": -1.8073547413,
				"z": 0.8641047146,
				"element": "H" 
			},
			{
				"x": 2.7282297796,
				"y": -1.0765465275,
				"z": 1.8562013745,
				"element": "H" 
			},
			{
				"x": 1.2190200993,
				"y": 1.8589803676,
				"z": -3.7375714329,
				"element": "H" 
			},
			{
				"x": -0.453798996,
				"y": 3.5799713605,
				"z": -2.9934150188,
				"element": "H" 
			}
		],
		 "valence_orbital": [ 
			{
				"type": "occ",
				"energy": -0.30728,
				"method": "rhf"
			},
			{
				"type": "occ",
				"energy": -0.28881,
				"method": "rhf"
			},
			{
				"type": "occ",
				"energy": -0.28066,
				"method": "rhf"
			},
			{
				"type": "occ",
				"energy": -0.25502,
				"method": "rhf"
			},
			{
				"type": "occ",
				"energy": -0.25024,
				"method": "rhf"
			},
			{
				"type": "unocc",
				"energy": -0.06986,
				"method": "rhf"
			},
			{
				"type": "unocc",
				"energy": -0.02275,
				"method": "rhf"
			},
			{
				"type": "unocc",
				"energy": 0.0367,
				"method": "rhf"
			},
			{
				"type": "unocc",
				"energy": 0.05698,
				"method": "rhf"
			},
			{
				"type": "unocc",
				"energy": 0.08477,
				"method": "rhf"
			}
		],
		"cosmo_sigma_profile": { 
			"-0.025": 0.0,
			"-0.024": 0.0,
			"-0.023": 0.0,
			"-0.022": 0.0,
			"-0.021": 0.0,
			"-0.02": 0.0,
			"-0.019": 0.292053743665,
			"-0.018": 1.31408497272,
			"-0.017": 0.738153323174,
			"-0.016": 1.0645387262,
			"-0.015": 1.45830684641,
			"-0.014": 0.651496661128,
			"-0.013": 1.28654628641,
			"-0.012": 1.43427554295,
			"-0.011": 1.16170643016,
			"-0.01": 1.29885667607,
			"-0.009": 1.32713992959,
			"-0.008": 1.75422228097,
			"-0.007": 4.65021138294,
			"-0.006": 8.2163804557,
			"-0.005": 17.5149287159,
			"-0.004": 20.3930087468,
			"-0.003": 21.8616150977,
			"-0.002": 19.3898930752,
			"-0.001": 19.0850134836,
			"0.0": 18.9531678296,
			"0.001": 15.851144866,
			"0.002": 11.6944979957,
			"0.003": 6.79466747351,
			"0.004": 7.24150997982,
			"0.005": 7.11388310721,
			"0.006": 6.19280698721,
			"0.007": 5.86836022293,
			"0.008": 6.38988055112,
			"0.009": 5.01234787279,
			"0.01": 7.31265863258,
			"0.011": 7.28417603403,
			"0.012": 4.40093051258,
			"0.013": 2.24328453184,
			"0.014": 1.14161162373,
			"0.015": 0.0,
			"0.016": 0.0,
			"0.017": 0.0,
			"0.018": 0.0,
			"0.019": 0.0,
			"0.02": 0.0,
			"0.021": 0.0,
			"0.022": 0.0,
			"0.023": 0.0,
			"0.024": 0.0,
			"0.025": 0.0
		}
	}
}
