{
	 "smiles": "OC(=O)CC1=CC=C(I)C=C1", 
	 "Tm": 411.15, 
	 "num_atms": 18, 
	 "gaussian": { 
		 "optdone": 1, 
		 "sigma_profile": "no", 
		 "theory": "DFT", 
		 "functional": "B3LYP", 
		 "basiset": "6-31G**", 
		 "properties": { 
			 "R2extent": 2680.6917, 
			 "electric_dipole_moment_norm": 4.6254016658, 
			 "electric_quadrupole_moment_norm": 22.7728101303, 
			 "total_energy": -470.909421517, 
			 "HOMO_LUMO_gap": 0.20039, 
			 "cosmo_polarized_energy": -103775.19, 
			 "cosmo_cavitation_energy": 26.19, 
			 "cosmo_dispersion_energy": -20.2, 
			 "cosmo_repulsion_energy": 1.61, 
			 "cosmo_total_nonelectrostatic_energy": 7.6, 
			 "SMD_solvation_energy": 4.73 
		},
		"coords": [
			{
				"x": 0.7179001714,
				"y": 2.6811262291,
				"z": 3.5617113576,
				"element": "O" 
			},
			{
				"x": 0.4956006163,
				"y": 2.4804294447,
				"z": 2.2331607482,
				"element": "C" 
			},
			{
				"x": 0.5480291794,
				"y": 3.4013043164,
				"z": 1.462718661,
				"element": "O" 
			},
			{
				"x": 0.1879770888,
				"y": 1.0246899627,
				"z": 1.8560838861,
				"element": "C" 
			},
			{
				"x": -0.0564720812,
				"y": 0.8159587045,
				"z": 0.3821230622,
				"element": "C" 
			},
			{
				"x": 1.0020057933,
				"y": 0.5193450158,
				"z": -0.4827135296,
				"element": "C" 
			},
			{
				"x": 0.7883961197,
				"y": 0.337041357,
				"z": -1.8492001118,
				"element": "C" 
			},
			{
				"x": -0.5062753573,
				"y": 0.4536000737,
				"z": -2.3568010572,
				"element": "C" 
			},
			{
				"x": -0.8487811369,
				"y": 0.1682354341,
				"z": -4.4305703125,
				"element": "I" 
			},
			{
				"x": -1.5789891839,
				"y": 0.7508424503,
				"z": -1.5151665889,
				"element": "C" 
			},
			{
				"x": -1.3442982882,
				"y": 0.9294427459,
				"z": -0.1516500476,
				"element": "C" 
			},
			{
				"x": 0.6409316897,
				"y": 1.8484728143,
				"z": 4.0490078852,
				"element": "H" 
			},
			{
				"x": 1.0282153574,
				"y": 0.4058802027,
				"z": 2.1981682228,
				"element": "H" 
			},
			{
				"x": -0.6855672113,
				"y": 0.7053846285,
				"z": 2.4399613129,
				"element": "H" 
			},
			{
				"x": 2.0117473473,
				"y": 0.4300398737,
				"z": -0.0902673718,
				"element": "H" 
			},
			{
				"x": 1.6208489458,
				"y": 0.1064996802,
				"z": -2.5042459864,
				"element": "H" 
			},
			{
				"x": -2.5841610524,
				"y": 0.8415582614,
				"z": -1.9109071232,
				"element": "H" 
			},
			{
				"x": -2.1813079979,
				"y": 1.1629488051,
				"z": 0.501386993,
				"element": "H" 
			}
		],
		 "valence_orbital": [ 
			{
				"type": "occ",
				"energy": -0.2966,
				"method": "rhf"
			},
			{
				"type": "occ",
				"energy": -0.27835,
				"method": "rhf"
			},
			{
				"type": "occ",
				"energy": -0.26898,
				"method": "rhf"
			},
			{
				"type": "occ",
				"energy": -0.26732,
				"method": "rhf"
			},
			{
				"type": "occ",
				"energy": -0.23985,
				"method": "rhf"
			},
			{
				"type": "unocc",
				"energy": -0.03946,
				"method": "rhf"
			},
			{
				"type": "unocc",
				"energy": -0.02427,
				"method": "rhf"
			},
			{
				"type": "unocc",
				"energy": -0.02047,
				"method": "rhf"
			},
			{
				"type": "unocc",
				"energy": 0.00643,
				"method": "rhf"
			},
			{
				"type": "unocc",
				"energy": 0.04304,
				"method": "rhf"
			}
		],
		"cosmo_sigma_profile": { 
			"0.0": 0.0,
			"0.0": 0.0,
			"0.0": 0.0,
			"0.0": 0.0,
			"0.0": 0.0,
			"0.0": 0.0,
			"0.0": 0.0,
			"0.0": 0.0,
			"0.0": 0.0,
			"0.0": 0.0,
			"0.0": 0.0,
			"0.0": 0.0,
			"0.0": 0.0,
			"0.0": 0.0,
			"0.0": 0.0,
			"0.0": 0.0,
			"0.0": 0.0,
			"0.0": 0.0,
			"0.0": 0.0,
			"0.0": 0.0,
			"0.0": 0.0,
			"0.0": 0.0,
			"0.0": 0.0,
			"0.0": 0.0,
			"0.0": 0.0,
			"0.0": 0.0,
			"0.0": 0.0,
			"0.0": 0.0,
			"0.0": 0.0,
			"0.0": 0.0,
			"0.0": 0.0,
			"0.0": 0.0,
			"0.0": 0.0,
			"0.0": 0.0,
			"0.0": 0.0,
			"0.0": 0.0,
			"0.0": 0.0,
			"0.0": 0.0,
			"0.0": 0.0,
			"0.0": 0.0,
			"0.0": 0.0,
			"0.0": 0.0,
			"0.0": 0.0,
			"0.0": 0.0,
			"0.0": 0.0,
			"0.0": 0.0,
			"0.0": 0.0,
			"0.0": 0.0,
			"0.0": 0.0,
			"0.0": 0.0,
			"0.0": 0.0
		}
	}
}
