{
	 "smiles": "CCNC1=NC2=C(S1)C=CC(Cl)=C2", 
	 "Tm": 392.15, 
	 "num_atms": 22, 
	 "gaussian": { 
		 "optdone": 1, 
		 "sigma_profile": "yes", 
		 "theory": "DFT", 
		 "functional": "B3LYP", 
		 "basiset": "6-31G**", 
		 "properties": { 
			 "R2extent": 5357.0813, 
			 "electric_dipole_moment_norm": 4.37092451319, 
			 "electric_quadrupole_moment_norm": 8.4462529485, 
			 "total_energy": -1316.28348367, 
			 "HOMO_LUMO_gap": 0.19235, 
			 "cosmo_polarized_energy": -9.93, 
			 "cosmo_cavitation_energy": 29.3, 
			 "cosmo_dispersion_energy": -22.24, 
			 "cosmo_repulsion_energy": 1.73, 
			 "cosmo_total_nonelectrostatic_energy": 8.79, 
			 "SMD_solvation_energy": 2.3 
		},
		"coords": [
			{
				"x": 0.6047056549,
				"y": -2.7499501739,
				"z": 0.827293927,
				"element": "C" 
			},
			{
				"x": -0.0089233158,
				"y": -1.5592965095,
				"z": 1.569025653,
				"element": "C" 
			},
			{
				"x": -0.9203216041,
				"y": -0.756914196,
				"z": 0.7510027224,
				"element": "N" 
			},
			{
				"x": -0.4495086531,
				"y": 0.1397447331,
				"z": -0.1554395991,
				"element": "C" 
			},
			{
				"x": 0.7959573652,
				"y": 0.4951633708,
				"z": -0.2660635211,
				"element": "N" 
			},
			{
				"x": 0.9449776672,
				"y": 1.464968894,
				"z": -1.2420514823,
				"element": "C" 
			},
			{
				"x": -0.2386715418,
				"y": 1.859444014,
				"z": -1.9150129316,
				"element": "C" 
			},
			{
				"x": -1.6052929738,
				"y": 0.96060757,
				"z": -1.2591362167,
				"element": "S" 
			},
			{
				"x": -0.2212792175,
				"y": 2.8178315728,
				"z": -2.9238432727,
				"element": "C" 
			},
			{
				"x": 0.9971893299,
				"y": 3.4016898775,
				"z": -3.2738898187,
				"element": "C" 
			},
			{
				"x": 2.1654992793,
				"y": 3.012121902,
				"z": -2.6081094222,
				"element": "C" 
			},
			{
				"x": 3.6915834722,
				"y": 3.7627407737,
				"z": -3.0669414956,
				"element": "Cl" 
			},
			{
				"x": 2.1644411462,
				"y": 2.0549326172,
				"z": -1.5991197877,
				"element": "C" 
			},
			{
				"x": -0.1686986595,
				"y": -3.4370376756,
				"z": 0.4673266299,
				"element": "H" 
			},
			{
				"x": 1.2694753944,
				"y": -3.3090736713,
				"z": 1.4941246512,
				"element": "H" 
			},
			{
				"x": 1.1895534551,
				"y": -2.4037318056,
				"z": -0.028625572,
				"element": "H" 
			},
			{
				"x": 0.7777171666,
				"y": -0.8883132239,
				"z": 1.921488008,
				"element": "H" 
			},
			{
				"x": -0.5754078789,
				"y": -1.8954555157,
				"z": 2.4437079561,
				"element": "H" 
			},
			{
				"x": -1.8496759758,
				"y": -1.1194558029,
				"z": 0.5989598399,
				"element": "H" 
			},
			{
				"x": -1.1314354749,
				"y": 3.1146208054,
				"z": -3.4348861118,
				"element": "H" 
			},
			{
				"x": 1.0436009038,
				"y": 4.1518638749,
				"z": -4.054557268,
				"element": "H" 
			},
			{
				"x": 3.0769144603,
				"y": 1.763498569,
				"z": -1.093252888,
				"element": "H" 
			}
		],
		 "valence_orbital": [ 
			{
				"type": "occ",
				"energy": -0.29961,
				"method": "rhf"
			},
			{
				"type": "occ",
				"energy": -0.28102,
				"method": "rhf"
			},
			{
				"type": "occ",
				"energy": -0.27759,
				"method": "rhf"
			},
			{
				"type": "occ",
				"energy": -0.23165,
				"method": "rhf"
			},
			{
				"type": "occ",
				"energy": -0.21096,
				"method": "rhf"
			},
			{
				"type": "unocc",
				"energy": -0.01861,
				"method": "rhf"
			},
			{
				"type": "unocc",
				"energy": -0.00806,
				"method": "rhf"
			},
			{
				"type": "unocc",
				"energy": -0.00593,
				"method": "rhf"
			},
			{
				"type": "unocc",
				"energy": 0.03892,
				"method": "rhf"
			},
			{
				"type": "unocc",
				"energy": 0.04247,
				"method": "rhf"
			}
		],
		"cosmo_sigma_profile": { 
			"-0.025": 0.0,
			"-0.024": 0.0,
			"-0.023": 0.0,
			"-0.022": 0.0,
			"-0.021": 0.0,
			"-0.02": 0.0,
			"-0.019": 0.0,
			"-0.018": 0.0,
			"-0.017": 0.0,
			"-0.016": 0.0415817276832,
			"-0.015": 1.14166740763,
			"-0.014": 1.48508873069,
			"-0.013": 1.43834851166,
			"-0.012": 1.43796462381,
			"-0.011": 0.894771800042,
			"-0.01": 1.26673328344,
			"-0.009": 1.27443278834,
			"-0.008": 2.57359689784,
			"-0.007": 6.05686594488,
			"-0.006": 7.59772570919,
			"-0.005": 9.34880767993,
			"-0.004": 12.1771717705,
			"-0.003": 15.2075028209,
			"-0.002": 18.555248113,
			"-0.001": 14.9329204569,
			"0.0": 21.3403342784,
			"0.001": 23.0348229266,
			"0.002": 22.3029973159,
			"0.003": 27.7448673922,
			"0.004": 22.4766046078,
			"0.005": 14.9562510724,
			"0.006": 3.18383717127,
			"0.007": 1.98077910693,
			"0.008": 1.27710155355,
			"0.009": 1.10346936018,
			"0.01": 1.27187068651,
			"0.011": 0.396482930071,
			"0.012": 1.13724124584,
			"0.013": 0.558099812577,
			"0.014": 0.0494397453796,
			"0.015": 0.0,
			"0.016": 0.0,
			"0.017": 0.0,
			"0.018": 0.0,
			"0.019": 0.0,
			"0.02": 0.0,
			"0.021": 0.0,
			"0.022": 0.0,
			"0.023": 0.0,
			"0.024": 0.0,
			"0.025": 0.0
		}
	}
}
