{
	 "smiles": "COCC1=CC(=O)OC2=C1C=CC(O)=C2", 
	 "Tm": 400.15, 
	 "num_atms": 25, 
	 "gaussian": { 
		 "optdone": 1, 
		 "sigma_profile": "yes", 
		 "theory": "DFT", 
		 "functional": "B3LYP", 
		 "basiset": "6-31G**", 
		 "properties": { 
			 "R2extent": 3718.2045, 
			 "electric_dipole_moment_norm": 5.55180262077, 
			 "electric_quadrupole_moment_norm": 23.4323867278, 
			 "total_energy": -726.076633645, 
			 "HOMO_LUMO_gap": 0.16267, 
			 "cosmo_polarized_energy": -16.78, 
			 "cosmo_cavitation_energy": 29.29, 
			 "cosmo_dispersion_energy": -21.29, 
			 "cosmo_repulsion_energy": 1.66, 
			 "cosmo_total_nonelectrostatic_energy": 9.66, 
			 "SMD_solvation_energy": 7.12 
		},
		"coords": [
			{
				"x": -2.1736788184,
				"y": 1.6276535773,
				"z": -0.6287999556,
				"element": "C" 
			},
			{
				"x": -2.2057702192,
				"y": 1.022847712,
				"z": 0.654337836,
				"element": "O" 
			},
			{
				"x": -1.195745834,
				"y": 1.4940184811,
				"z": 1.5295813951,
				"element": "C" 
			},
			{
				"x": 0.2164191081,
				"y": 1.0839056018,
				"z": 1.1490614975,
				"element": "C" 
			},
			{
				"x": 1.1911130846,
				"y": 2.0241866233,
				"z": 1.0529893247,
				"element": "C" 
			},
			{
				"x": 2.5800009653,
				"y": 1.6997883254,
				"z": 0.761566302,
				"element": "C" 
			},
			{
				"x": 3.492329742,
				"y": 2.4861706571,
				"z": 0.6597462686,
				"element": "O" 
			},
			{
				"x": 2.8655403442,
				"y": 0.3445778215,
				"z": 0.5879834922,
				"element": "O" 
			},
			{
				"x": 1.908488787,
				"y": -0.6234717856,
				"z": 0.6721971449,
				"element": "C" 
			},
			{
				"x": 0.5565571042,
				"y": -0.3105347618,
				"z": 0.9410073234,
				"element": "C" 
			},
			{
				"x": -0.3587911005,
				"y": -1.3806824008,
				"z": 1.0021610546,
				"element": "C" 
			},
			{
				"x": 0.0542625672,
				"y": -2.6900865236,
				"z": 0.8161383855,
				"element": "C" 
			},
			{
				"x": 1.408897304,
				"y": -2.9687097762,
				"z": 0.5573852507,
				"element": "C" 
			},
			{
				"x": 1.8686145311,
				"y": -4.2341152925,
				"z": 0.3673936145,
				"element": "O" 
			},
			{
				"x": 2.3396735734,
				"y": -1.9334960039,
				"z": 0.4824421057,
				"element": "C" 
			},
			{
				"x": -3.021908752,
				"y": 1.2264837518,
				"z": -1.1874032359,
				"element": "H" 
			},
			{
				"x": -2.2767597192,
				"y": 2.7209964611,
				"z": -0.5582379342,
				"element": "H" 
			},
			{
				"x": -1.2470935667,
				"y": 1.3989649703,
				"z": -1.1724616538,
				"element": "H" 
			},
			{
				"x": -1.4403061706,
				"y": 1.0708369426,
				"z": 2.5108946613,
				"element": "H" 
			},
			{
				"x": -1.238154639,
				"y": 2.5904092564,
				"z": 1.6168359593,
				"element": "H" 
			},
			{
				"x": 0.9859775127,
				"y": 3.0790141869,
				"z": 1.1987986695,
				"element": "H" 
			},
			{
				"x": -1.4070757906,
				"y": -1.1648510628,
				"z": 1.1698992741,
				"element": "H" 
			},
			{
				"x": -0.6672859778,
				"y": -3.502102937,
				"z": 0.8639645953,
				"element": "H" 
			},
			{
				"x": 1.134078547,
				"y": -4.8572350571,
				"z": 0.4431795591,
				"element": "H" 
			},
			{
				"x": 3.3837174174,
				"y": -2.140968767,
				"z": 0.2816390654,
				"element": "H" 
			}
		],
		 "valence_orbital": [ 
			{
				"type": "occ",
				"energy": -0.29529,
				"method": "rhf"
			},
			{
				"type": "occ",
				"energy": -0.27868,
				"method": "rhf"
			},
			{
				"type": "occ",
				"energy": -0.26526,
				"method": "rhf"
			},
			{
				"type": "occ",
				"energy": -0.25059,
				"method": "rhf"
			},
			{
				"type": "occ",
				"energy": -0.22552,
				"method": "rhf"
			},
			{
				"type": "unocc",
				"energy": -0.06285,
				"method": "rhf"
			},
			{
				"type": "unocc",
				"energy": -0.01199,
				"method": "rhf"
			},
			{
				"type": "unocc",
				"energy": 0.00656,
				"method": "rhf"
			},
			{
				"type": "unocc",
				"energy": 0.05742,
				"method": "rhf"
			},
			{
				"type": "unocc",
				"energy": 0.08104,
				"method": "rhf"
			}
		],
		"cosmo_sigma_profile": { 
			"-0.025": 0.0,
			"-0.024": 0.0,
			"-0.023": 0.0,
			"-0.022": 0.0,
			"-0.021": 0.0,
			"-0.02": 0.0,
			"-0.019": 0.10304699597,
			"-0.018": 1.34729860696,
			"-0.017": 0.782288524568,
			"-0.016": 1.70634195917,
			"-0.015": 0.847131180616,
			"-0.014": 0.901599093446,
			"-0.013": 0.681021320891,
			"-0.012": 0.774706423129,
			"-0.011": 1.52253540177,
			"-0.01": 1.07657541486,
			"-0.009": 0.978862016089,
			"-0.008": 1.74851534454,
			"-0.007": 7.92108355282,
			"-0.006": 10.1693952959,
			"-0.005": 15.0116502029,
			"-0.004": 18.3303006313,
			"-0.003": 19.4077443656,
			"-0.002": 19.6132050101,
			"-0.001": 14.7880642135,
			"0.0": 15.4674143761,
			"0.001": 14.5136593402,
			"0.002": 19.3042247341,
			"0.003": 13.7523487861,
			"0.004": 7.56766750089,
			"0.005": 4.92457005226,
			"0.006": 5.44241958329,
			"0.007": 4.2423760073,
			"0.008": 3.92755544498,
			"0.009": 4.91070886955,
			"0.01": 5.86720945382,
			"0.011": 4.67158932579,
			"0.012": 7.13743283773,
			"0.013": 3.72850520558,
			"0.014": 0.25792327218,
			"0.015": 0.0,
			"0.016": 0.0,
			"0.017": 0.0,
			"0.018": 0.0,
			"0.019": 0.0,
			"0.02": 0.0,
			"0.021": 0.0,
			"0.022": 0.0,
			"0.023": 0.0,
			"0.024": 0.0,
			"0.025": 0.0
		}
	}
}
