{
	 "smiles": "CCC(C)C1=CC=CC=C1", 
	 "Tm": 198.15, 
	 "num_atms": 24, 
	 "gaussian": { 
		 "optdone": 1, 
		 "sigma_profile": "yes", 
		 "theory": "DFT", 
		 "functional": "B3LYP", 
		 "basiset": "6-31G**", 
		 "properties": { 
			 "R2extent": 2130.1739, 
			 "electric_dipole_moment_norm": 0.310441572603, 
			 "electric_quadrupole_moment_norm": 4.16055498101, 
			 "total_energy": -389.518172199, 
			 "HOMO_LUMO_gap": 0.23935, 
			 "cosmo_polarized_energy": -3.18, 
			 "cosmo_cavitation_energy": 25.82, 
			 "cosmo_dispersion_energy": -18.53, 
			 "cosmo_repulsion_energy": 1.51, 
			 "cosmo_total_nonelectrostatic_energy": 8.8, 
			 "SMD_solvation_energy": 4.44 
		},
		"coords": [
			{
				"x": -1.7595385062,
				"y": 0.7085493525,
				"z": 3.1810834854,
				"element": "C" 
			},
			{
				"x": -1.2870894317,
				"y": 1.2979762061,
				"z": 1.8472239627,
				"element": "C" 
			},
			{
				"x": -0.6211129801,
				"y": 0.2770866308,
				"z": 0.8927105646,
				"element": "C" 
			},
			{
				"x": -1.5891909616,
				"y": -0.837611316,
				"z": 0.4515979625,
				"element": "C" 
			},
			{
				"x": 0.0066462335,
				"y": 0.9779174819,
				"z": -0.3052545206,
				"element": "C" 
			},
			{
				"x": -0.7792800939,
				"y": 1.6550342462,
				"z": -1.2507774465,
				"element": "C" 
			},
			{
				"x": -0.1959252634,
				"y": 2.3015993335,
				"z": -2.3404564235,
				"element": "C" 
			},
			{
				"x": 1.1904413972,
				"y": 2.2844492311,
				"z": -2.5092190521,
				"element": "C" 
			},
			{
				"x": 1.9852526952,
				"y": 1.6155894291,
				"z": -1.5781738277,
				"element": "C" 
			},
			{
				"x": 1.3955524446,
				"y": 0.9707197437,
				"z": -0.488837344,
				"element": "C" 
			},
			{
				"x": -0.9349763737,
				"y": 0.2174763591,
				"z": 3.7111946383,
				"element": "H" 
			},
			{
				"x": -2.1511724779,
				"y": 1.4941474574,
				"z": 3.8356075825,
				"element": "H" 
			},
			{
				"x": -2.5550877512,
				"y": -0.0310860275,
				"z": 3.0470558362,
				"element": "H" 
			},
			{
				"x": -2.1348830349,
				"y": 1.7709577689,
				"z": 1.3337915631,
				"element": "H" 
			},
			{
				"x": -0.5672817883,
				"y": 2.1017505835,
				"z": 2.0446369461,
				"element": "H" 
			},
			{
				"x": 0.1970225629,
				"y": -0.1996442147,
				"z": 1.4509518388,
				"element": "H" 
			},
			{
				"x": -2.4585028717,
				"y": -0.4255756357,
				"z": -0.0731123619,
				"element": "H" 
			},
			{
				"x": -1.0925534548,
				"y": -1.5370371856,
				"z": -0.2278827663,
				"element": "H" 
			},
			{
				"x": -1.9583408592,
				"y": -1.4086476085,
				"z": 1.308870237,
				"element": "H" 
			},
			{
				"x": -1.8599454776,
				"y": 1.6781113999,
				"z": -1.1366668698,
				"element": "H" 
			},
			{
				"x": -0.8249000895,
				"y": 2.8193813585,
				"z": -3.0596465623,
				"element": "H" 
			},
			{
				"x": 1.6450257744,
				"y": 2.7870342574,
				"z": -3.3582201927,
				"element": "H" 
			},
			{
				"x": 3.0650594263,
				"y": 1.5938786929,
				"z": -1.6980965258,
				"element": "H" 
			},
			{
				"x": 2.0234808816,
				"y": 0.4515424554,
				"z": 0.231719276,
				"element": "H" 
			}
		],
		 "valence_orbital": [ 
			{
				"type": "occ",
				"energy": -0.32217,
				"method": "rhf"
			},
			{
				"type": "occ",
				"energy": -0.31865,
				"method": "rhf"
			},
			{
				"type": "occ",
				"energy": -0.31022,
				"method": "rhf"
			},
			{
				"type": "occ",
				"energy": -0.24368,
				"method": "rhf"
			},
			{
				"type": "occ",
				"energy": -0.23547,
				"method": "rhf"
			},
			{
				"type": "unocc",
				"energy": 0.00388,
				"method": "rhf"
			},
			{
				"type": "unocc",
				"energy": 0.00663,
				"method": "rhf"
			},
			{
				"type": "unocc",
				"energy": 0.08819,
				"method": "rhf"
			},
			{
				"type": "unocc",
				"energy": 0.10229,
				"method": "rhf"
			},
			{
				"type": "unocc",
				"energy": 0.11323,
				"method": "rhf"
			}
		],
		"cosmo_sigma_profile": { 
			"-0.025": 0.0,
			"-0.024": 0.0,
			"-0.023": 0.0,
			"-0.022": 0.0,
			"-0.021": 0.0,
			"-0.02": 0.0,
			"-0.019": 0.0,
			"-0.018": 0.0,
			"-0.017": 0.0,
			"-0.016": 0.0,
			"-0.015": 0.0,
			"-0.014": 0.0,
			"-0.013": 0.0,
			"-0.012": 0.0,
			"-0.011": 0.0,
			"-0.01": 0.0,
			"-0.009": 0.0,
			"-0.008": 0.0,
			"-0.007": 0.0,
			"-0.006": 0.706761175865,
			"-0.005": 8.13650194941,
			"-0.004": 13.4026310309,
			"-0.003": 21.0870369997,
			"-0.002": 26.3848431269,
			"-0.001": 25.3976648989,
			"0.0": 28.051613135,
			"0.001": 25.4623268847,
			"0.002": 15.9919506729,
			"0.003": 8.13568562257,
			"0.004": 8.04107896413,
			"0.005": 7.89419093853,
			"0.006": 8.0723625516,
			"0.007": 5.33254296069,
			"0.008": 0.00999385926217,
			"0.009": 0.0,
			"0.01": 0.0,
			"0.011": 0.0,
			"0.012": 0.0,
			"0.013": 0.0,
			"0.014": 0.0,
			"0.015": 0.0,
			"0.016": 0.0,
			"0.017": 0.0,
			"0.018": 0.0,
			"0.019": 0.0,
			"0.02": 0.0,
			"0.021": 0.0,
			"0.022": 0.0,
			"0.023": 0.0,
			"0.024": 0.0,
			"0.025": 0.0
		}
	}
}
