{
	 "smiles": "CCOC(=O)C(=O)C(=O)OCC", 
	 "Tm": 243.15, 
	 "num_atms": 22, 
	 "gaussian": { 
		 "optdone": 1, 
		 "sigma_profile": "yes", 
		 "theory": "DFT", 
		 "functional": "B3LYP", 
		 "basiset": "6-31G**", 
		 "properties": { 
			 "R2extent": 3218.0709, 
			 "electric_dipole_moment_norm": 0.248894234566, 
			 "electric_quadrupole_moment_norm": 24.5350583596, 
			 "total_energy": -648.88315235, 
			 "HOMO_LUMO_gap": 0.17093, 
			 "cosmo_polarized_energy": -10.8, 
			 "cosmo_cavitation_energy": 28.09, 
			 "cosmo_dispersion_energy": -19.7, 
			 "cosmo_repulsion_energy": 1.66, 
			 "cosmo_total_nonelectrostatic_energy": 10.05, 
			 "SMD_solvation_energy": 8.22 
		},
		"coords": [
			{
				"x": -1.3245739841,
				"y": 0.8454268349,
				"z": 4.0354323942,
				"element": "C" 
			},
			{
				"x": 0.0467914269,
				"y": 0.3209041728,
				"z": 3.6421729345,
				"element": "C" 
			},
			{
				"x": 0.4947095275,
				"y": 0.9187699052,
				"z": 2.3922521361,
				"element": "O" 
			},
			{
				"x": 0.0879472824,
				"y": 0.3250695436,
				"z": 1.2713405678,
				"element": "C" 
			},
			{
				"x": -0.6159552657,
				"y": -0.6566714858,
				"z": 1.1782838676,
				"element": "O" 
			},
			{
				"x": 0.5412785199,
				"y": 1.081797119,
				"z": 0.0167051407,
				"element": "C" 
			},
			{
				"x": 0.4044218871,
				"y": 2.2736753276,
				"z": -0.1160294499,
				"element": "O" 
			},
			{
				"x": 1.1623861383,
				"y": 0.1760409246,
				"z": -1.0561983486,
				"element": "C" 
			},
			{
				"x": 1.8623700991,
				"y": -0.7650265669,
				"z": -0.7511599361,
				"element": "O" 
			},
			{
				"x": 0.8918216555,
				"y": 0.5975185893,
				"z": -2.2891937703,
				"element": "O" 
			},
			{
				"x": 1.501880545,
				"y": -0.1643016533,
				"z": -3.3667427175,
				"element": "C" 
			},
			{
				"x": 1.0238213966,
				"y": 0.4356739411,
				"z": -4.6735049978,
				"element": "C" 
			},
			{
				"x": -1.3205109062,
				"y": 1.9370603083,
				"z": 4.0993566355,
				"element": "H" 
			},
			{
				"x": -1.6039762817,
				"y": 0.4430485165,
				"z": 5.0146941914,
				"element": "H" 
			},
			{
				"x": -2.0801966879,
				"y": 0.5346296599,
				"z": 3.3098604079,
				"element": "H" 
			},
			{
				"x": 0.8144582576,
				"y": 0.6089931752,
				"z": 4.3627578135,
				"element": "H" 
			},
			{
				"x": 0.042889457,
				"y": -0.7653618394,
				"z": 3.5255382265,
				"element": "H" 
			},
			{
				"x": 2.5888949555,
				"y": -0.1065770723,
				"z": -3.2549034119,
				"element": "H" 
			},
			{
				"x": 1.2100588376,
				"y": -1.2130648112,
				"z": -3.2565719617,
				"element": "H" 
			},
			{
				"x": 1.3163610557,
				"y": 1.4863069693,
				"z": -4.7515662023,
				"element": "H" 
			},
			{
				"x": -0.0645199928,
				"y": 0.3721760805,
				"z": -4.7578048466,
				"element": "H" 
			},
			{
				"x": 1.4672420767,
				"y": -0.1100876388,
				"z": -5.5120186732,
				"element": "H" 
			}
		],
		 "valence_orbital": [ 
			{
				"type": "occ",
				"energy": -0.33667,
				"method": "rhf"
			},
			{
				"type": "occ",
				"energy": -0.31846,
				"method": "rhf"
			},
			{
				"type": "occ",
				"energy": -0.31201,
				"method": "rhf"
			},
			{
				"type": "occ",
				"energy": -0.3019,
				"method": "rhf"
			},
			{
				"type": "occ",
				"energy": -0.25891,
				"method": "rhf"
			},
			{
				"type": "unocc",
				"energy": -0.08798,
				"method": "rhf"
			},
			{
				"type": "unocc",
				"energy": -0.01257,
				"method": "rhf"
			},
			{
				"type": "unocc",
				"energy": 0.05942,
				"method": "rhf"
			},
			{
				"type": "unocc",
				"energy": 0.09368,
				"method": "rhf"
			},
			{
				"type": "unocc",
				"energy": 0.10203,
				"method": "rhf"
			}
		],
		"cosmo_sigma_profile": { 
			"-0.025": 0.0,
			"-0.024": 0.0,
			"-0.023": 0.0,
			"-0.022": 0.0,
			"-0.021": 0.0,
			"-0.02": 0.0,
			"-0.019": 0.0,
			"-0.018": 0.0,
			"-0.017": 0.0,
			"-0.016": 0.0,
			"-0.015": 0.0,
			"-0.014": 0.0,
			"-0.013": 0.0,
			"-0.012": 0.0,
			"-0.011": 0.0,
			"-0.01": 0.0,
			"-0.009": 0.0,
			"-0.008": 0.534403227137,
			"-0.007": 4.0796226667,
			"-0.006": 12.3038226566,
			"-0.005": 23.1106933692,
			"-0.004": 27.4764670571,
			"-0.003": 23.908866099,
			"-0.002": 18.1006304554,
			"-0.001": 20.5871764534,
			"0.0": 14.7384863038,
			"0.001": 7.18373009951,
			"0.002": 6.99583973807,
			"0.003": 5.86874168353,
			"0.004": 5.49712178848,
			"0.005": 6.21847536622,
			"0.006": 6.18411449615,
			"0.007": 10.5229710923,
			"0.008": 10.3245936634,
			"0.009": 8.35235592393,
			"0.01": 8.9889396773,
			"0.011": 1.00045179493,
			"0.012": 0.0,
			"0.013": 0.0,
			"0.014": 0.0,
			"0.015": 0.0,
			"0.016": 0.0,
			"0.017": 0.0,
			"0.018": 0.0,
			"0.019": 0.0,
			"0.02": 0.0,
			"0.021": 0.0,
			"0.022": 0.0,
			"0.023": 0.0,
			"0.024": 0.0,
			"0.025": 0.0
		}
	}
}
