{
	 "smiles": "IN1C(=O)CCC1=O", 
	 "Tm": 477.15, 
	 "num_atms": 12, 
	 "gaussian": { 
		 "optdone": 1, 
		 "sigma_profile": "no", 
		 "theory": "DFT", 
		 "functional": "B3LYP", 
		 "basiset": "6-31G**", 
		 "properties": { 
			 "R2extent": 1050.2218, 
			 "electric_dipole_moment_norm": 2.38934337842, 
			 "electric_quadrupole_moment_norm": 12.3383002055, 
			 "total_energy": -371.425155181, 
			 "HOMO_LUMO_gap": 0.17098, 
			 "cosmo_polarized_energy": -96816.97, 
			 "cosmo_cavitation_energy": 19.53, 
			 "cosmo_dispersion_energy": -16.04, 
			 "cosmo_repulsion_energy": 1.31, 
			 "cosmo_total_nonelectrostatic_energy": 4.81, 
			 "SMD_solvation_energy": 3.88 
		},
		"coords": [
			{
				"x": -0.9001126026,
				"y": -1.6066653629,
				"z": -2.8047089629,
				"element": "I" 
			},
			{
				"x": -0.1712614697,
				"y": -0.4830726054,
				"z": -1.2507501259,
				"element": "N" 
			},
			{
				"x": 0.2198884253,
				"y": 0.8577154835,
				"z": -1.4075960022,
				"element": "C" 
			},
			{
				"x": 0.1767337613,
				"y": 1.4874724759,
				"z": -2.436235449,
				"element": "O" 
			},
			{
				"x": 0.6984502465,
				"y": 1.3375422269,
				"z": -0.0380470095,
				"element": "C" 
			},
			{
				"x": 0.5385405345,
				"y": 0.1342125798,
				"z": 0.9072195613,
				"element": "C" 
			},
			{
				"x": -0.0266466397,
				"y": -0.9969895047,
				"z": 0.0493701615,
				"element": "C" 
			},
			{
				"x": -0.3026607447,
				"y": -2.1192634847,
				"z": 0.3970353838,
				"element": "O" 
			},
			{
				"x": 0.0970871243,
				"y": 2.2034358195,
				"z": 0.2522990401,
				"element": "H" 
			},
			{
				"x": 1.7318880438,
				"y": 1.6812303944,
				"z": -0.1359489486,
				"element": "H" 
			},
			{
				"x": -0.1534905072,
				"y": 0.3175734316,
				"z": 1.7337691125,
				"element": "H" 
			},
			{
				"x": 1.4812838283,
				"y": -0.2046914539,
				"z": 1.3454932389,
				"element": "H" 
			}
		],
		 "valence_orbital": [ 
			{
				"type": "occ",
				"energy": -0.3253,
				"method": "rhf"
			},
			{
				"type": "occ",
				"energy": -0.30104,
				"method": "rhf"
			},
			{
				"type": "occ",
				"energy": -0.28672,
				"method": "rhf"
			},
			{
				"type": "occ",
				"energy": -0.26972,
				"method": "rhf"
			},
			{
				"type": "occ",
				"energy": -0.26717,
				"method": "rhf"
			},
			{
				"type": "unocc",
				"energy": -0.09619,
				"method": "rhf"
			},
			{
				"type": "unocc",
				"energy": -0.02962,
				"method": "rhf"
			},
			{
				"type": "unocc",
				"energy": 0.0137,
				"method": "rhf"
			},
			{
				"type": "unocc",
				"energy": 0.04019,
				"method": "rhf"
			},
			{
				"type": "unocc",
				"energy": 0.04595,
				"method": "rhf"
			}
		],
		"cosmo_sigma_profile": { 
			"0.0": 0.0,
			"0.0": 0.0,
			"0.0": 0.0,
			"0.0": 0.0,
			"0.0": 0.0,
			"0.0": 0.0,
			"0.0": 0.0,
			"0.0": 0.0,
			"0.0": 0.0,
			"0.0": 0.0,
			"0.0": 0.0,
			"0.0": 0.0,
			"0.0": 0.0,
			"0.0": 0.0,
			"0.0": 0.0,
			"0.0": 0.0,
			"0.0": 0.0,
			"0.0": 0.0,
			"0.0": 0.0,
			"0.0": 0.0,
			"0.0": 0.0,
			"0.0": 0.0,
			"0.0": 0.0,
			"0.0": 0.0,
			"0.0": 0.0,
			"0.0": 0.0,
			"0.0": 0.0,
			"0.0": 0.0,
			"0.0": 0.0,
			"0.0": 0.0,
			"0.0": 0.0,
			"0.0": 0.0,
			"0.0": 0.0,
			"0.0": 0.0,
			"0.0": 0.0,
			"0.0": 0.0,
			"0.0": 0.0,
			"0.0": 0.0,
			"0.0": 0.0,
			"0.0": 0.0,
			"0.0": 0.0,
			"0.0": 0.0,
			"0.0": 0.0,
			"0.0": 0.0,
			"0.0": 0.0,
			"0.0": 0.0,
			"0.0": 0.0,
			"0.0": 0.0,
			"0.0": 0.0,
			"0.0": 0.0,
			"0.0": 0.0
		}
	}
}
