{
	 "smiles": "OCC1=CN=C(S)N1CC1=CC=CC=C1", 
	 "Tm": 512.15, 
	 "num_atms": 27, 
	 "gaussian": { 
		 "optdone": 1, 
		 "sigma_profile": "yes", 
		 "theory": "DFT", 
		 "functional": "B3LYP", 
		 "basiset": "6-31G**", 
		 "properties": { 
			 "R2extent": 3658.392, 
			 "electric_dipole_moment_norm": 1.44248039501, 
			 "electric_quadrupole_moment_norm": 10.933468232, 
			 "total_energy": -1009.29783606, 
			 "HOMO_LUMO_gap": 0.19771, 
			 "cosmo_polarized_energy": -13.88, 
			 "cosmo_cavitation_energy": 31.66, 
			 "cosmo_dispersion_energy": -22.91, 
			 "cosmo_repulsion_energy": 1.74, 
			 "cosmo_total_nonelectrostatic_energy": 10.5, 
			 "SMD_solvation_energy": 3.29 
		},
		"coords": [
			{
				"x": -0.5278844184,
				"y": 1.543760751,
				"z": -3.0935044426,
				"element": "O" 
			},
			{
				"x": 0.7471988311,
				"y": 2.0326622154,
				"z": -2.6551917362,
				"element": "C" 
			},
			{
				"x": 1.5543109131,
				"y": 1.0421386566,
				"z": -1.887879299,
				"element": "C" 
			},
			{
				"x": 2.6484168926,
				"y": 0.3089120074,
				"z": -2.2812261004,
				"element": "C" 
			},
			{
				"x": 3.0780354155,
				"y": -0.5308547374,
				"z": -1.2837326053,
				"element": "N" 
			},
			{
				"x": 2.2513546285,
				"y": -0.3079464094,
				"z": -0.2822975102,
				"element": "C" 
			},
			{
				"x": 2.3478010037,
				"y": -1.1002361281,
				"z": 1.3027407319,
				"element": "S" 
			},
			{
				"x": 1.2980469676,
				"y": 0.6323894105,
				"z": -0.574774074,
				"element": "N" 
			},
			{
				"x": 0.2749023464,
				"y": 1.1560002587,
				"z": 0.3395948615,
				"element": "C" 
			},
			{
				"x": -0.8937194569,
				"y": 0.2188765005,
				"z": 0.5940658781,
				"element": "C" 
			},
			{
				"x": -1.0891835093,
				"y": -0.3343852952,
				"z": 1.8640514143,
				"element": "C" 
			},
			{
				"x": -2.1727270413,
				"y": -1.1809451946,
				"z": 2.1106912575,
				"element": "C" 
			},
			{
				"x": -3.0704431583,
				"y": -1.4797540976,
				"z": 1.0864422854,
				"element": "C" 
			},
			{
				"x": -2.8842751001,
				"y": -0.9247355153,
				"z": -0.1829644729,
				"element": "C" 
			},
			{
				"x": -1.8049229569,
				"y": -0.0777752723,
				"z": -0.4293718927,
				"element": "C" 
			},
			{
				"x": -0.3624050616,
				"y": 0.7113885156,
				"z": -3.5578087789,
				"element": "H" 
			},
			{
				"x": 1.3544687189,
				"y": 2.360929074,
				"z": -3.510304851,
				"element": "H" 
			},
			{
				"x": 0.5198492248,
				"y": 2.9275085448,
				"z": -2.0661016632,
				"element": "H" 
			},
			{
				"x": 3.1550146036,
				"y": 0.3498602067,
				"z": -3.2369774289,
				"element": "H" 
			},
			{
				"x": 3.6268039495,
				"y": -1.4736052516,
				"z": 1.1125906913,
				"element": "H" 
			},
			{
				"x": -0.0815064862,
				"y": 2.0941737127,
				"z": -0.0918321434,
				"element": "H" 
			},
			{
				"x": 0.768804683,
				"y": 1.3996803938,
				"z": 1.2858106022,
				"element": "H" 
			},
			{
				"x": -0.3924608173,
				"y": -0.1020024246,
				"z": 2.6653973716,
				"element": "H" 
			},
			{
				"x": -2.3118593023,
				"y": -1.6049879785,
				"z": 3.1009275691,
				"element": "H" 
			},
			{
				"x": -3.913599323,
				"y": -2.1381071387,
				"z": 1.275311392,
				"element": "H" 
			},
			{
				"x": -3.5869782009,
				"y": -1.147466413,
				"z": -0.9810894626,
				"element": "H" 
			},
			{
				"x": -1.6638433459,
				"y": 0.369521609,
				"z": -1.4095675934,
				"element": "H" 
			}
		],
		 "valence_orbital": [ 
			{
				"type": "occ",
				"energy": -0.27172,
				"method": "rhf"
			},
			{
				"type": "occ",
				"energy": -0.27,
				"method": "rhf"
			},
			{
				"type": "occ",
				"energy": -0.25252,
				"method": "rhf"
			},
			{
				"type": "occ",
				"energy": -0.2487,
				"method": "rhf"
			},
			{
				"type": "occ",
				"energy": -0.21031,
				"method": "rhf"
			},
			{
				"type": "unocc",
				"energy": -0.0126,
				"method": "rhf"
			},
			{
				"type": "unocc",
				"energy": -0.00577,
				"method": "rhf"
			},
			{
				"type": "unocc",
				"energy": 0.01391,
				"method": "rhf"
			},
			{
				"type": "unocc",
				"energy": 0.02423,
				"method": "rhf"
			},
			{
				"type": "unocc",
				"energy": 0.056,
				"method": "rhf"
			}
		],
		"cosmo_sigma_profile": { 
			"-0.025": 0.0,
			"-0.024": 0.0,
			"-0.023": 0.0,
			"-0.022": 0.0,
			"-0.021": 0.0,
			"-0.02": 0.0,
			"-0.019": 0.0,
			"-0.018": 0.0,
			"-0.017": 0.0,
			"-0.016": 0.048201594521,
			"-0.015": 0.65673765508,
			"-0.014": 0.937874928149,
			"-0.013": 0.646421858979,
			"-0.012": 1.2773773491,
			"-0.011": 2.42086126766,
			"-0.01": 1.88016091663,
			"-0.009": 2.29325292072,
			"-0.008": 3.97310234828,
			"-0.007": 6.12781479488,
			"-0.006": 15.3749112182,
			"-0.005": 21.4707365135,
			"-0.004": 20.0102722939,
			"-0.003": 19.5277259099,
			"-0.002": 14.5975410361,
			"-0.001": 14.1891380475,
			"0.0": 12.4859753959,
			"0.001": 15.1331998139,
			"0.002": 17.0047641565,
			"0.003": 15.6726447534,
			"0.004": 16.1853301774,
			"0.005": 16.8149970074,
			"0.006": 11.6827898192,
			"0.007": 4.74597853395,
			"0.008": 3.66959885715,
			"0.009": 2.31535579192,
			"0.01": 1.84450423201,
			"0.011": 1.98312576561,
			"0.012": 2.6379929987,
			"0.013": 2.20457964265,
			"0.014": 1.97818557763,
			"0.015": 1.25165701184,
			"0.016": 0.528874217311,
			"0.017": 0.703832336627,
			"0.018": 0.0623827497744,
			"0.019": 0.0,
			"0.02": 0.0,
			"0.021": 0.0,
			"0.022": 0.0,
			"0.023": 0.0,
			"0.024": 0.0,
			"0.025": 0.0
		}
	}
}
