{
	 "smiles": "N1C2=C(C=CC=C2)C=CC2=C1C=CC=C2", 
	 "Tm": 471.15, 
	 "num_atms": 26, 
	 "gaussian": { 
		 "optdone": 1, 
		 "sigma_profile": "yes", 
		 "theory": "DFT", 
		 "functional": "B3LYP", 
		 "basiset": "6-31G**", 
		 "properties": { 
			 "R2extent": 3622.7796, 
			 "electric_dipole_moment_norm": 0.893182372195, 
			 "electric_quadrupole_moment_norm": 10.0006213817, 
			 "total_energy": -594.865378574, 
			 "HOMO_LUMO_gap": 0.138, 
			 "cosmo_polarized_energy": -8.78, 
			 "cosmo_cavitation_energy": 28.93, 
			 "cosmo_dispersion_energy": -21.67, 
			 "cosmo_repulsion_energy": 1.63, 
			 "cosmo_total_nonelectrostatic_energy": 8.89, 
			 "SMD_solvation_energy": 4.09 
		},
		"coords": [
			{
				"x": -1.0425388212,
				"y": 1.522450146,
				"z": -0.7478686165,
				"element": "N" 
			},
			{
				"x": -0.6385520775,
				"y": 1.4469486045,
				"z": 0.6064351655,
				"element": "C" 
			},
			{
				"x": 0.2445909046,
				"y": 0.4431725365,
				"z": 1.0691762997,
				"element": "C" 
			},
			{
				"x": 0.685742801,
				"y": 0.5133302915,
				"z": 2.4006713409,
				"element": "C" 
			},
			{
				"x": 0.2812144301,
				"y": 1.5274878605,
				"z": 3.2668452076,
				"element": "C" 
			},
			{
				"x": -0.5895553377,
				"y": 2.5094611124,
				"z": 2.799086747,
				"element": "C" 
			},
			{
				"x": -1.0494952463,
				"y": 2.4587773214,
				"z": 1.482874596,
				"element": "C" 
			},
			{
				"x": 0.745454942,
				"y": -0.6456757352,
				"z": 0.2268147023,
				"element": "C" 
			},
			{
				"x": 0.2048139376,
				"y": -1.1742397218,
				"z": -0.8881057229,
				"element": "C" 
			},
			{
				"x": -1.0372831598,
				"y": -0.810055662,
				"z": -1.5741081975,
				"element": "C" 
			},
			{
				"x": -1.6447258806,
				"y": 0.4632848499,
				"z": -1.4680359145,
				"element": "C" 
			},
			{
				"x": -2.8243770707,
				"y": 0.7236638763,
				"z": -2.1761511858,
				"element": "C" 
			},
			{
				"x": -3.4030334887,
				"y": -0.2410011934,
				"z": -3.0014481381,
				"element": "C" 
			},
			{
				"x": -2.8141257138,
				"y": -1.4985805672,
				"z": -3.1153878909,
				"element": "C" 
			},
			{
				"x": -1.6449359464,
				"y": -1.7652439615,
				"z": -2.4052414976,
				"element": "C" 
			},
			{
				"x": -1.515304675,
				"y": 2.3980592655,
				"z": -0.933775487,
				"element": "H" 
			},
			{
				"x": 1.3721405443,
				"y": -0.2523159537,
				"z": 2.7535800078,
				"element": "H" 
			},
			{
				"x": 0.6480185157,
				"y": 1.5530547066,
				"z": 4.2881497221,
				"element": "H" 
			},
			{
				"x": -0.9147951201,
				"y": 3.3152886324,
				"z": 3.4506227338,
				"element": "H" 
			},
			{
				"x": -1.7305633696,
				"y": 3.2253348762,
				"z": 1.1196161681,
				"element": "H" 
			},
			{
				"x": 1.6497747788,
				"y": -1.121332237,
				"z": 0.6023174013,
				"element": "H" 
			},
			{
				"x": 0.7181811248,
				"y": -2.0321189527,
				"z": -1.318853419,
				"element": "H" 
			},
			{
				"x": -3.2862343323,
				"y": 1.7045645024,
				"z": -2.0870368991,
				"element": "H" 
			},
			{
				"x": -4.3102671398,
				"y": -0.0041039149,
				"z": -3.5495762593,
				"element": "H" 
			},
			{
				"x": -3.252048825,
				"y": -2.259730291,
				"z": -3.7534608789,
				"element": "H" 
			},
			{
				"x": -1.1728957744,
				"y": -2.7404803916,
				"z": -2.4946399845,
				"element": "H" 
			}
		],
		 "valence_orbital": [ 
			{
				"type": "occ",
				"energy": -0.30288,
				"method": "rhf"
			},
			{
				"type": "occ",
				"energy": -0.25824,
				"method": "rhf"
			},
			{
				"type": "occ",
				"energy": -0.2481,
				"method": "rhf"
			},
			{
				"type": "occ",
				"energy": -0.22379,
				"method": "rhf"
			},
			{
				"type": "occ",
				"energy": -0.18319,
				"method": "rhf"
			},
			{
				"type": "unocc",
				"energy": -0.04519,
				"method": "rhf"
			},
			{
				"type": "unocc",
				"energy": 0.00251,
				"method": "rhf"
			},
			{
				"type": "unocc",
				"energy": 0.00282,
				"method": "rhf"
			},
			{
				"type": "unocc",
				"energy": 0.02325,
				"method": "rhf"
			},
			{
				"type": "unocc",
				"energy": 0.07433,
				"method": "rhf"
			}
		],
		"cosmo_sigma_profile": { 
			"-0.025": 0.0,
			"-0.024": 0.0,
			"-0.023": 0.0,
			"-0.022": 0.0,
			"-0.021": 0.0,
			"-0.02": 0.0,
			"-0.019": 0.0,
			"-0.018": 0.0,
			"-0.017": 0.0,
			"-0.016": 0.0,
			"-0.015": 0.0,
			"-0.014": 0.0314210842231,
			"-0.013": 0.850237493053,
			"-0.012": 1.57612379694,
			"-0.011": 1.46979738476,
			"-0.01": 1.39943623926,
			"-0.009": 1.85051996656,
			"-0.008": 1.90239274609,
			"-0.007": 2.00692903618,
			"-0.006": 11.2724535983,
			"-0.005": 21.1521749477,
			"-0.004": 19.5399065203,
			"-0.003": 19.0806648066,
			"-0.002": 13.4598480756,
			"-0.001": 12.0782168918,
			"0.0": 10.6748226571,
			"0.001": 12.7706166557,
			"0.002": 16.0479202145,
			"0.003": 15.9892484796,
			"0.004": 22.231362518,
			"0.005": 24.0878256517,
			"0.006": 16.4684968139,
			"0.007": 2.41058040698,
			"0.008": 1.35599242454,
			"0.009": 1.13860529636,
			"0.01": 0.65535788314,
			"0.011": 0.453318797551,
			"0.012": 0.0773735085815,
			"0.013": 0.0,
			"0.014": 0.0,
			"0.015": 0.0,
			"0.016": 0.0,
			"0.017": 0.0,
			"0.018": 0.0,
			"0.019": 0.0,
			"0.02": 0.0,
			"0.021": 0.0,
			"0.022": 0.0,
			"0.023": 0.0,
			"0.024": 0.0,
			"0.025": 0.0
		}
	}
}
