{
	 "smiles": "CC(C)N1N=CC2=C1C=CC(=C2)S(N)(=O)=O", 
	 "Tm": 442.15, 
	 "num_atms": 29, 
	 "gaussian": { 
		 "optdone": 1, 
		 "sigma_profile": "yes", 
		 "theory": "DFT", 
		 "functional": "B3LYP", 
		 "basiset": "6-31G**", 
		 "properties": { 
			 "R2extent": 5706.6331, 
			 "electric_dipole_moment_norm": 6.79608413868, 
			 "electric_quadrupole_moment_norm": 30.5821028039, 
			 "total_energy": -1101.71834484, 
			 "HOMO_LUMO_gap": 0.18521, 
			 "cosmo_polarized_energy": -21.45, 
			 "cosmo_cavitation_energy": 33.93, 
			 "cosmo_dispersion_energy": -24.72, 
			 "cosmo_repulsion_energy": 1.88, 
			 "cosmo_total_nonelectrostatic_energy": 11.1, 
			 "SMD_solvation_energy": 4.89 
		},
		"coords": [
			{
				"x": 0.1234796697,
				"y": 0.6967694166,
				"z": -4.0511370127,
				"element": "C" 
			},
			{
				"x": 1.0546339261,
				"y": 0.9279776798,
				"z": -2.8556359555,
				"element": "C" 
			},
			{
				"x": 2.2404892573,
				"y": 1.8366375904,
				"z": -3.2001029562,
				"element": "C" 
			},
			{
				"x": 0.3021475446,
				"y": 1.4764536751,
				"z": -1.719409366,
				"element": "N" 
			},
			{
				"x": -0.3181364256,
				"y": 2.6820388258,
				"z": -1.848738238,
				"element": "N" 
			},
			{
				"x": -0.8947416887,
				"y": 2.9415022085,
				"z": -0.6898029867,
				"element": "C" 
			},
			{
				"x": -0.664233498,
				"y": 1.8918028428,
				"z": 0.248355823,
				"element": "C" 
			},
			{
				"x": 0.1277015119,
				"y": 0.9525668455,
				"z": -0.4688008362,
				"element": "C" 
			},
			{
				"x": 0.5848873095,
				"y": -0.2389066398,
				"z": 0.1273725652,
				"element": "C" 
			},
			{
				"x": 0.2262991965,
				"y": -0.4726574174,
				"z": 1.4423663827,
				"element": "C" 
			},
			{
				"x": -0.5746895385,
				"y": 0.455926437,
				"z": 2.1532413845,
				"element": "C" 
			},
			{
				"x": -1.0191376433,
				"y": 1.6389125865,
				"z": 1.5828831849,
				"element": "C" 
			},
			{
				"x": -1.0357862888,
				"y": 0.0799728403,
				"z": 3.8468289092,
				"element": "S" 
			},
			{
				"x": -2.4110030724,
				"y": -0.8916519774,
				"z": 3.7798163516,
				"element": "N" 
			},
			{
				"x": 0.0116573871,
				"y": -0.7710294564,
				"z": 4.4105068679,
				"element": "O" 
			},
			{
				"x": -1.4715719793,
				"y": 1.3280452416,
				"z": 4.4719431798,
				"element": "O" 
			},
			{
				"x": 0.6814830626,
				"y": 0.2557714207,
				"z": -4.8826635708,
				"element": "H" 
			},
			{
				"x": -0.3072576251,
				"y": 1.6448018128,
				"z": -4.3830856158,
				"element": "H" 
			},
			{
				"x": -0.6943762381,
				"y": 0.0203239318,
				"z": -3.7861290971,
				"element": "H" 
			},
			{
				"x": 1.4348437085,
				"y": -0.0383118502,
				"z": -2.5084931306,
				"element": "H" 
			},
			{
				"x": 1.8833347726,
				"y": 2.8236979493,
				"z": -3.5049276173,
				"element": "H" 
			},
			{
				"x": 2.9026446408,
				"y": 1.9603129693,
				"z": -2.3382646092,
				"element": "H" 
			},
			{
				"x": 2.8196185422,
				"y": 1.4050711646,
				"z": -4.0221495614,
				"element": "H" 
			},
			{
				"x": -1.4534976315,
				"y": 3.8580349761,
				"z": -0.5556704125,
				"element": "H" 
			},
			{
				"x": 1.2077270178,
				"y": -0.9470264091,
				"z": -0.4087893979,
				"element": "H" 
			},
			{
				"x": 0.5808204522,
				"y": -1.3597620203,
				"z": 1.956216421,
				"element": "H" 
			},
			{
				"x": -1.6027084568,
				"y": 2.3430821049,
				"z": 2.1664339465,
				"element": "H" 
			},
			{
				"x": -2.2318919448,
				"y": -1.7915532531,
				"z": 3.3453918075,
				"element": "H" 
			},
			{
				"x": -3.2078359684,
				"y": -0.4103034956,
				"z": 3.3746435402,
				"element": "H" 
			}
		],
		 "valence_orbital": [ 
			{
				"type": "occ",
				"energy": -0.30084,
				"method": "rhf"
			},
			{
				"type": "occ",
				"energy": -0.29968,
				"method": "rhf"
			},
			{
				"type": "occ",
				"energy": -0.29607,
				"method": "rhf"
			},
			{
				"type": "occ",
				"energy": -0.25764,
				"method": "rhf"
			},
			{
				"type": "occ",
				"energy": -0.2341,
				"method": "rhf"
			},
			{
				"type": "unocc",
				"energy": -0.04889,
				"method": "rhf"
			},
			{
				"type": "unocc",
				"energy": -0.01929,
				"method": "rhf"
			},
			{
				"type": "unocc",
				"energy": 0.03894,
				"method": "rhf"
			},
			{
				"type": "unocc",
				"energy": 0.05374,
				"method": "rhf"
			},
			{
				"type": "unocc",
				"energy": 0.07047,
				"method": "rhf"
			}
		],
		"cosmo_sigma_profile": { 
			"-0.025": 0.0,
			"-0.024": 0.0,
			"-0.023": 0.0,
			"-0.022": 0.0,
			"-0.021": 0.0,
			"-0.02": 0.0,
			"-0.019": 0.0,
			"-0.018": 0.0,
			"-0.017": 0.0,
			"-0.016": 0.0257995408781,
			"-0.015": 2.01091062971,
			"-0.014": 2.3885547512,
			"-0.013": 2.87522280769,
			"-0.012": 2.67911721711,
			"-0.011": 2.85283372181,
			"-0.01": 2.48789246235,
			"-0.009": 2.37852738907,
			"-0.008": 6.08175683863,
			"-0.007": 10.6038172763,
			"-0.006": 10.5747023675,
			"-0.005": 9.99361119865,
			"-0.004": 18.751986048,
			"-0.003": 19.3876768971,
			"-0.002": 19.0741636059,
			"-0.001": 18.7249563833,
			"0.0": 22.1587321341,
			"0.001": 19.8736251518,
			"0.002": 20.6175837776,
			"0.003": 13.1522086223,
			"0.004": 6.20089573921,
			"0.005": 5.35549731166,
			"0.006": 5.41626939855,
			"0.007": 5.77724791183,
			"0.008": 6.18580477119,
			"0.009": 5.07920701353,
			"0.01": 8.56228302688,
			"0.011": 11.11115331,
			"0.012": 7.63750649296,
			"0.013": 0.857908251798,
			"0.014": 0.301495008527,
			"0.015": 0.0,
			"0.016": 0.0,
			"0.017": 0.0,
			"0.018": 0.0,
			"0.019": 0.0,
			"0.02": 0.0,
			"0.021": 0.0,
			"0.022": 0.0,
			"0.023": 0.0,
			"0.024": 0.0,
			"0.025": 0.0
		}
	}
}
