{
	 "smiles": "CC1=C(C)C(C)=C(C)N1", 
	 "Tm": 384.15, 
	 "num_atms": 22, 
	 "gaussian": { 
		 "optdone": 1, 
		 "sigma_profile": "yes", 
		 "theory": "DFT", 
		 "functional": "B3LYP", 
		 "basiset": "6-31G**", 
		 "properties": { 
			 "R2extent": 1662.3626, 
			 "electric_dipole_moment_norm": 1.64401215932, 
			 "electric_quadrupole_moment_norm": 4.70685972173, 
			 "total_energy": -367.454162941, 
			 "HOMO_LUMO_gap": 0.23149, 
			 "cosmo_polarized_energy": -5.76, 
			 "cosmo_cavitation_energy": 24.01, 
			 "cosmo_dispersion_energy": -17.56, 
			 "cosmo_repulsion_energy": 1.46, 
			 "cosmo_total_nonelectrostatic_energy": 7.91, 
			 "SMD_solvation_energy": 4.37 
		},
		"coords": [
			{
				"x": -2.8423715866,
				"y": 0.1378340934,
				"z": 1.1911822452,
				"element": "C" 
			},
			{
				"x": -1.769783098,
				"y": -0.1407672172,
				"z": 0.1867261944,
				"element": "C" 
			},
			{
				"x": -0.9152670746,
				"y": -1.2147191612,
				"z": 0.0237118901,
				"element": "C" 
			},
			{
				"x": -0.8398157867,
				"y": -2.4543725159,
				"z": 0.8662845425,
				"element": "C" 
			},
			{
				"x": -0.0860696026,
				"y": -0.9400105464,
				"z": -1.1199513941,
				"element": "C" 
			},
			{
				"x": 0.9837036774,
				"y": -1.8501712517,
				"z": -1.6487452977,
				"element": "C" 
			},
			{
				"x": -0.4601453147,
				"y": 0.2931057091,
				"z": -1.6195939858,
				"element": "C" 
			},
			{
				"x": 0.0383464893,
				"y": 1.0922336793,
				"z": -2.7814402028,
				"element": "C" 
			},
			{
				"x": -1.4810773486,
				"y": 0.7637377401,
				"z": -0.8167259152,
				"element": "N" 
			},
			{
				"x": -3.828282193,
				"y": 0.2601644426,
				"z": 0.7228073365,
				"element": "H" 
			},
			{
				"x": -2.6421358742,
				"y": 1.0493913163,
				"z": 1.7702235707,
				"element": "H" 
			},
			{
				"x": -2.9226009416,
				"y": -0.6865967837,
				"z": 1.9032256498,
				"element": "H" 
			},
			{
				"x": -1.5693170426,
				"y": -2.438404897,
				"z": 1.6814293025,
				"element": "H" 
			},
			{
				"x": -1.0316967034,
				"y": -3.3606997811,
				"z": 0.2772548019,
				"element": "H" 
			},
			{
				"x": 0.151631372,
				"y": -2.5792076167,
				"z": 1.3208544287,
				"element": "H" 
			},
			{
				"x": 1.7617877607,
				"y": -2.0444696555,
				"z": -0.8990451245,
				"element": "H" 
			},
			{
				"x": 1.4801270222,
				"y": -1.4283817147,
				"z": -2.527681488,
				"element": "H" 
			},
			{
				"x": 0.5795133021,
				"y": -2.8276490714,
				"z": -1.9426175998,
				"element": "H" 
			},
			{
				"x": -0.7493076622,
				"y": 1.2827864994,
				"z": -3.5228094849,
				"element": "H" 
			},
			{
				"x": 0.4378693801,
				"y": 2.0678640517,
				"z": -2.4734404092,
				"element": "H" 
			},
			{
				"x": 0.8430884443,
				"y": 0.5603847171,
				"z": -3.2939482299,
				"element": "H" 
			},
			{
				"x": -1.9509972193,
				"y": 1.6455479637,
				"z": -0.9456008307,
				"element": "H" 
			}
		],
		 "valence_orbital": [ 
			{
				"type": "occ",
				"energy": -0.34611,
				"method": "rhf"
			},
			{
				"type": "occ",
				"energy": -0.34486,
				"method": "rhf"
			},
			{
				"type": "occ",
				"energy": -0.31834,
				"method": "rhf"
			},
			{
				"type": "occ",
				"energy": -0.20785,
				"method": "rhf"
			},
			{
				"type": "occ",
				"energy": -0.17751,
				"method": "rhf"
			},
			{
				"type": "unocc",
				"energy": 0.05398,
				"method": "rhf"
			},
			{
				"type": "unocc",
				"energy": 0.08559,
				"method": "rhf"
			},
			{
				"type": "unocc",
				"energy": 0.09664,
				"method": "rhf"
			},
			{
				"type": "unocc",
				"energy": 0.10399,
				"method": "rhf"
			},
			{
				"type": "unocc",
				"energy": 0.11412,
				"method": "rhf"
			}
		],
		"cosmo_sigma_profile": { 
			"-0.025": 0.0,
			"-0.024": 0.0,
			"-0.023": 0.0,
			"-0.022": 0.0,
			"-0.021": 0.0,
			"-0.02": 0.0,
			"-0.019": 0.0,
			"-0.018": 0.0,
			"-0.017": 0.0,
			"-0.016": 0.0,
			"-0.015": 0.0,
			"-0.014": 0.618072208165,
			"-0.013": 1.11489120136,
			"-0.012": 1.19117786564,
			"-0.011": 0.748576102304,
			"-0.01": 1.0490840838,
			"-0.009": 0.891808255974,
			"-0.008": 1.59292467856,
			"-0.007": 1.43435450191,
			"-0.006": 1.1275285942,
			"-0.005": 2.44590021168,
			"-0.004": 10.673072392,
			"-0.003": 19.2894769945,
			"-0.002": 21.338629736,
			"-0.001": 22.4042997868,
			"0.0": 27.3559402457,
			"0.001": 25.1220403641,
			"0.002": 12.9621735301,
			"0.003": 7.59976361722,
			"0.004": 4.63919912905,
			"0.005": 4.35230197644,
			"0.006": 4.49308600394,
			"0.007": 4.17476235879,
			"0.008": 3.83040648831,
			"0.009": 4.13276348261,
			"0.01": 2.77753061251,
			"0.011": 0.217809829405,
			"0.012": 0.0,
			"0.013": 0.0,
			"0.014": 0.0,
			"0.015": 0.0,
			"0.016": 0.0,
			"0.017": 0.0,
			"0.018": 0.0,
			"0.019": 0.0,
			"0.02": 0.0,
			"0.021": 0.0,
			"0.022": 0.0,
			"0.023": 0.0,
			"0.024": 0.0,
			"0.025": 0.0
		}
	}
}
