{
	 "smiles": "CC1=C(C)C(C)=C(C#N)C(SCC(O)=O)=N1", 
	 "Tm": 409.15, 
	 "num_atms": 28, 
	 "gaussian": { 
		 "optdone": 1, 
		 "sigma_profile": "yes", 
		 "theory": "DFT", 
		 "functional": "B3LYP", 
		 "basiset": "6-31G**", 
		 "properties": { 
			 "R2extent": 5232.6799, 
			 "electric_dipole_moment_norm": 6.32030360188, 
			 "electric_quadrupole_moment_norm": 19.5243833524, 
			 "total_energy": -1084.54098424, 
			 "HOMO_LUMO_gap": 0.16558, 
			 "cosmo_polarized_energy": -18.01, 
			 "cosmo_cavitation_energy": 33.14, 
			 "cosmo_dispersion_energy": -23.84, 
			 "cosmo_repulsion_energy": 1.81, 
			 "cosmo_total_nonelectrostatic_energy": 11.11, 
			 "SMD_solvation_energy": 6.0 
		},
		"coords": [
			{
				"x": -1.9715308154,
				"y": -0.8187381482,
				"z": 2.7056621102,
				"element": "C" 
			},
			{
				"x": -1.2114440841,
				"y": -0.6613098008,
				"z": 1.4114202054,
				"element": "C" 
			},
			{
				"x": -0.4351235653,
				"y": 0.4826862638,
				"z": 1.1240034696,
				"element": "C" 
			},
			{
				"x": -0.279674712,
				"y": 1.6110199271,
				"z": 2.1154037947,
				"element": "C" 
			},
			{
				"x": 0.1829092672,
				"y": 0.5580381528,
				"z": -0.1313093878,
				"element": "C" 
			},
			{
				"x": 0.9920215238,
				"y": 1.7716166243,
				"z": -0.5109598434,
				"element": "C" 
			},
			{
				"x": 0.0219542585,
				"y": -0.5204450074,
				"z": -1.0368069129,
				"element": "C" 
			},
			{
				"x": 0.5771887665,
				"y": -0.4212869204,
				"z": -2.3445971287,
				"element": "C" 
			},
			{
				"x": 1.0328732627,
				"y": -0.3618104101,
				"z": -3.4162631466,
				"element": "N" 
			},
			{
				"x": -0.7106553193,
				"y": -1.6582990769,
				"z": -0.6219950373,
				"element": "C" 
			},
			{
				"x": -1.0645560855,
				"y": -3.1695689476,
				"z": -1.5046138432,
				"element": "S" 
			},
			{
				"x": 0.1715892426,
				"y": -3.4186629531,
				"z": -2.8389147534,
				"element": "C" 
			},
			{
				"x": 1.6095802553,
				"y": -3.6673569174,
				"z": -2.3532566815,
				"element": "C" 
			},
			{
				"x": 2.5596574602,
				"y": -2.8617164519,
				"z": -2.8696635545,
				"element": "O" 
			},
			{
				"x": 1.8903959683,
				"y": -4.5557075253,
				"z": -1.5894207931,
				"element": "O" 
			},
			{
				"x": -1.316418041,
				"y": -1.6903222551,
				"z": 0.5626733769,
				"element": "N" 
			},
			{
				"x": -1.2948333867,
				"y": -0.8402145663,
				"z": 3.5675701762,
				"element": "H" 
			},
			{
				"x": -2.5261064063,
				"y": -1.7567443885,
				"z": 2.6777088841,
				"element": "H" 
			},
			{
				"x": -2.6748961391,
				"y": 0.0059840915,
				"z": 2.8640673841,
				"element": "H" 
			},
			{
				"x": -0.7255485552,
				"y": 2.5397395631,
				"z": 1.7384945853,
				"element": "H" 
			},
			{
				"x": -0.7528313342,
				"y": 1.3845734894,
				"z": 3.07044514,
				"element": "H" 
			},
			{
				"x": 0.7766550809,
				"y": 1.8251871351,
				"z": 2.3132687894,
				"element": "H" 
			},
			{
				"x": 1.8432163645,
				"y": 1.8932071227,
				"z": 0.1685734211,
				"element": "H" 
			},
			{
				"x": 1.3800674273,
				"y": 1.7101339677,
				"z": -1.5282117131,
				"element": "H" 
			},
			{
				"x": 0.3889061923,
				"y": 2.6824998136,
				"z": -0.4300840538,
				"element": "H" 
			},
			{
				"x": 0.092256997,
				"y": -2.6555229603,
				"z": -3.61100331,
				"element": "H" 
			},
			{
				"x": -0.1728070708,
				"y": -4.3667234893,
				"z": -3.2641474146,
				"element": "H" 
			},
			{
				"x": 2.1710534477,
				"y": -2.1216563325,
				"z": -3.369843763,
				"element": "H" 
			}
		],
		 "valence_orbital": [ 
			{
				"type": "occ",
				"energy": -0.30241,
				"method": "rhf"
			},
			{
				"type": "occ",
				"energy": -0.28757,
				"method": "rhf"
			},
			{
				"type": "occ",
				"energy": -0.27851,
				"method": "rhf"
			},
			{
				"type": "occ",
				"energy": -0.27014,
				"method": "rhf"
			},
			{
				"type": "occ",
				"energy": -0.23609,
				"method": "rhf"
			},
			{
				"type": "unocc",
				"energy": -0.07051,
				"method": "rhf"
			},
			{
				"type": "unocc",
				"energy": -0.04423,
				"method": "rhf"
			},
			{
				"type": "unocc",
				"energy": -0.00892,
				"method": "rhf"
			},
			{
				"type": "unocc",
				"energy": 0.00162,
				"method": "rhf"
			},
			{
				"type": "unocc",
				"energy": 0.03852,
				"method": "rhf"
			}
		],
		"cosmo_sigma_profile": { 
			"-0.025": 0.0,
			"-0.024": 0.0,
			"-0.023": 0.0,
			"-0.022": 0.0,
			"-0.021": 0.0,
			"-0.02": 0.0,
			"-0.019": 0.0,
			"-0.018": 0.0,
			"-0.017": 0.0,
			"-0.016": 0.0,
			"-0.015": 0.0,
			"-0.014": 0.0383088665162,
			"-0.013": 0.487147625658,
			"-0.012": 0.447326939451,
			"-0.011": 0.7985230432,
			"-0.01": 2.82773146334,
			"-0.009": 3.50697464596,
			"-0.008": 3.53606540077,
			"-0.007": 4.90018831364,
			"-0.006": 12.5311507375,
			"-0.005": 22.3794952683,
			"-0.004": 22.5984466141,
			"-0.003": 28.5618848444,
			"-0.002": 28.8432170755,
			"-0.001": 28.8770706391,
			"0.0": 15.9404486178,
			"0.001": 6.40204168609,
			"0.002": 7.039968646,
			"0.003": 8.68774740171,
			"0.004": 7.91683402516,
			"0.005": 7.84697542413,
			"0.006": 7.16970209882,
			"0.007": 6.24675445726,
			"0.008": 8.07607303387,
			"0.009": 7.01530725533,
			"0.01": 8.53030717995,
			"0.011": 7.73646042457,
			"0.012": 5.6003740078,
			"0.013": 1.46524352104,
			"0.014": 0.0,
			"0.015": 0.0,
			"0.016": 0.0,
			"0.017": 0.0,
			"0.018": 0.0,
			"0.019": 0.0,
			"0.02": 0.0,
			"0.021": 0.0,
			"0.022": 0.0,
			"0.023": 0.0,
			"0.024": 0.0,
			"0.025": 0.0
		}
	}
}
