{
	 "smiles": "CCOC(=O)NC1=NC(N)=C(S1)C(N)=O", 
	 "Tm": 442.15, 
	 "num_atms": 25, 
	 "gaussian": { 
		 "optdone": 1, 
		 "sigma_profile": "yes", 
		 "theory": "DFT", 
		 "functional": "B3LYP", 
		 "basiset": "6-31G**", 
		 "properties": { 
			 "R2extent": 4739.2722, 
			 "electric_dipole_moment_norm": 2.91210877887, 
			 "electric_quadrupole_moment_norm": 17.9443098533, 
			 "total_energy": -1115.68809786, 
			 "HOMO_LUMO_gap": 0.15892, 
			 "cosmo_polarized_energy": -18.38, 
			 "cosmo_cavitation_energy": 31.4, 
			 "cosmo_dispersion_energy": -23.6, 
			 "cosmo_repulsion_energy": 1.85, 
			 "cosmo_total_nonelectrostatic_energy": 9.64, 
			 "SMD_solvation_energy": 5.52 
		},
		"coords": [
			{
				"x": -2.5283944653,
				"y": 0.0396718781,
				"z": -3.3662387434,
				"element": "C" 
			},
			{
				"x": -1.0927641299,
				"y": -0.4242609569,
				"z": -3.1858694768,
				"element": "C" 
			},
			{
				"x": -0.4617698028,
				"y": 0.2390492188,
				"z": -2.0577486596,
				"element": "O" 
			},
			{
				"x": 0.0672161682,
				"y": 1.4509722323,
				"z": -2.3034846766,
				"element": "C" 
			},
			{
				"x": 0.0812673463,
				"y": 2.0225539716,
				"z": -3.3742051115,
				"element": "O" 
			},
			{
				"x": 0.6235991976,
				"y": 2.0018338451,
				"z": -1.1616318707,
				"element": "N" 
			},
			{
				"x": 0.7163365888,
				"y": 1.5304623858,
				"z": 0.134990518,
				"element": "C" 
			},
			{
				"x": 1.2969023945,
				"y": 2.2744089735,
				"z": 1.038558899,
				"element": "N" 
			},
			{
				"x": 1.2972922191,
				"y": 1.6431243763,
				"z": 2.2607563348,
				"element": "C" 
			},
			{
				"x": 1.8848813303,
				"y": 2.2551816193,
				"z": 3.3175074074,
				"element": "N" 
			},
			{
				"x": 0.7032872184,
				"y": 0.3833981548,
				"z": 2.2959195167,
				"element": "C" 
			},
			{
				"x": 0.1026600309,
				"y": -0.0162067882,
				"z": 0.6814120732,
				"element": "S" 
			},
			{
				"x": 0.5633842947,
				"y": -0.4194945366,
				"z": 3.4972705084,
				"element": "C" 
			},
			{
				"x": -0.0304892095,
				"y": -1.6602785197,
				"z": 3.3816687952,
				"element": "N" 
			},
			{
				"x": 0.929018268,
				"y": 0.002288833,
				"z": 4.6055287192,
				"element": "O" 
			},
			{
				"x": -2.9989960553,
				"y": -0.5291378768,
				"z": -4.1749594436,
				"element": "H" 
			},
			{
				"x": -3.1080565407,
				"y": -0.1180917285,
				"z": -2.4522461083,
				"element": "H" 
			},
			{
				"x": -2.5591710214,
				"y": 1.0993925713,
				"z": -3.6305459304,
				"element": "H" 
			},
			{
				"x": -0.4939325376,
				"y": -0.2298369336,
				"z": -4.0780189725,
				"element": "H" 
			},
			{
				"x": -1.0370390241,
				"y": -1.4846431578,
				"z": -2.9318865256,
				"element": "H" 
			},
			{
				"x": 1.0362723477,
				"y": 2.9157485802,
				"z": -1.2995054144,
				"element": "H" 
			},
			{
				"x": 2.0723771744,
				"y": 3.2417704597,
				"z": 3.242576079,
				"element": "H" 
			},
			{
				"x": 1.7121143234,
				"y": 1.8205006518,
				"z": 4.2179145706,
				"element": "H" 
			},
			{
				"x": 0.0385522674,
				"y": -2.2331687085,
				"z": 4.2108078522,
				"element": "H" 
			},
			{
				"x": -0.0049483829,
				"y": -2.151938545,
				"z": 2.5005296598,
				"element": "H" 
			}
		],
		 "valence_orbital": [ 
			{
				"type": "occ",
				"energy": -0.29107,
				"method": "rhf"
			},
			{
				"type": "occ",
				"energy": -0.26732,
				"method": "rhf"
			},
			{
				"type": "occ",
				"energy": -0.26296,
				"method": "rhf"
			},
			{
				"type": "occ",
				"energy": -0.25057,
				"method": "rhf"
			},
			{
				"type": "occ",
				"energy": -0.19829,
				"method": "rhf"
			},
			{
				"type": "unocc",
				"energy": -0.03937,
				"method": "rhf"
			},
			{
				"type": "unocc",
				"energy": 0.00891,
				"method": "rhf"
			},
			{
				"type": "unocc",
				"energy": 0.0245,
				"method": "rhf"
			},
			{
				"type": "unocc",
				"energy": 0.05727,
				"method": "rhf"
			},
			{
				"type": "unocc",
				"energy": 0.06329,
				"method": "rhf"
			}
		],
		"cosmo_sigma_profile": { 
			"-0.025": 0.0,
			"-0.024": 0.0,
			"-0.023": 0.0,
			"-0.022": 0.0,
			"-0.021": 0.0,
			"-0.02": 0.0,
			"-0.019": 0.0,
			"-0.018": 0.0,
			"-0.017": 0.0629539182675,
			"-0.016": 0.733476467582,
			"-0.015": 0.788972290014,
			"-0.014": 1.68274753706,
			"-0.013": 4.30006279326,
			"-0.012": 3.65029334755,
			"-0.011": 4.14491080762,
			"-0.01": 4.33969933714,
			"-0.009": 3.8682063018,
			"-0.008": 4.12858126975,
			"-0.007": 6.09055462916,
			"-0.006": 6.76478373373,
			"-0.005": 10.3918993773,
			"-0.004": 16.9344001023,
			"-0.003": 19.641142082,
			"-0.002": 17.3701301682,
			"-0.001": 19.3762356863,
			"0.0": 16.6562617428,
			"0.001": 12.724366296,
			"0.002": 15.0551595398,
			"0.003": 15.7844344722,
			"0.004": 13.3619198876,
			"0.005": 7.83739721015,
			"0.006": 6.4532616032,
			"0.007": 5.75031878577,
			"0.008": 4.6587504621,
			"0.009": 5.76537894779,
			"0.01": 4.08655580492,
			"0.011": 5.74299894746,
			"0.012": 6.640547372,
			"0.013": 2.58246488946,
			"0.014": 2.53846056999,
			"0.015": 0.856792507803,
			"0.016": 0.0,
			"0.017": 0.0,
			"0.018": 0.0,
			"0.019": 0.0,
			"0.02": 0.0,
			"0.021": 0.0,
			"0.022": 0.0,
			"0.023": 0.0,
			"0.024": 0.0,
			"0.025": 0.0
		}
	}
}
