{
	 "smiles": "O=S1(=O)CCNC2CCCCC12", 
	 "Tm": 349.15, 
	 "num_atms": 27, 
	 "gaussian": { 
		 "optdone": 1, 
		 "sigma_profile": "yes", 
		 "theory": "DFT", 
		 "functional": "B3LYP", 
		 "basiset": "6-31G**", 
		 "properties": { 
			 "R2extent": 2579.6116, 
			 "electric_dipole_moment_norm": 4.80726757524, 
			 "electric_quadrupole_moment_norm": 15.8944486397, 
			 "total_energy": -917.217265803, 
			 "HOMO_LUMO_gap": 0.2886, 
			 "cosmo_polarized_energy": -15.43, 
			 "cosmo_cavitation_energy": 26.82, 
			 "cosmo_dispersion_energy": -21.02, 
			 "cosmo_repulsion_energy": 1.6, 
			 "cosmo_total_nonelectrostatic_energy": 7.39, 
			 "SMD_solvation_energy": 0.95 
		},
		"coords": [
			{
				"x": 1.494289344,
				"y": 1.4715697526,
				"z": -2.5910201857,
				"element": "O" 
			},
			{
				"x": 1.6800231978,
				"y": 0.3856235844,
				"z": -1.6136260352,
				"element": "S" 
			},
			{
				"x": 2.0796147594,
				"y": -0.9586008266,
				"z": -2.0791247227,
				"element": "O" 
			},
			{
				"x": 2.8786337071,
				"y": 0.9114530066,
				"z": -0.3554927596,
				"element": "C" 
			},
			{
				"x": 2.8430900941,
				"y": -0.0452189399,
				"z": 0.8386165801,
				"element": "C" 
			},
			{
				"x": 1.5186672898,
				"y": -0.0251676365,
				"z": 1.4627328815,
				"element": "N" 
			},
			{
				"x": 0.4160240512,
				"y": -0.6012857349,
				"z": 0.6748791495,
				"element": "C" 
			},
			{
				"x": 0.5126823687,
				"y": -2.1240921548,
				"z": 0.3967154698,
				"element": "C" 
			},
			{
				"x": -0.4301951872,
				"y": -2.6021445175,
				"z": -0.7361237326,
				"element": "C" 
			},
			{
				"x": -1.5737184882,
				"y": -1.6109088436,
				"z": -0.9834705183,
				"element": "C" 
			},
			{
				"x": -1.0290245774,
				"y": -0.2483516093,
				"z": -1.4496742197,
				"element": "C" 
			},
			{
				"x": 0.1653084802,
				"y": 0.2518489693,
				"z": -0.5907388556,
				"element": "C" 
			},
			{
				"x": 2.6085241822,
				"y": 1.929405701,
				"z": -0.0646099131,
				"element": "H" 
			},
			{
				"x": 3.8493076297,
				"y": 0.9136027155,
				"z": -0.8588856093,
				"element": "H" 
			},
			{
				"x": 3.5701439325,
				"y": 0.3025304791,
				"z": 1.5802398287,
				"element": "H" 
			},
			{
				"x": 3.1745555422,
				"y": -1.0392772882,
				"z": 0.4996008342,
				"element": "H" 
			},
			{
				"x": 1.560822419,
				"y": -0.4894125268,
				"z": 2.3652076424,
				"element": "H" 
			},
			{
				"x": -0.4835171451,
				"y": -0.4387885719,
				"z": 1.2826258816,
				"element": "H" 
			},
			{
				"x": 0.2729177823,
				"y": -2.6373408187,
				"z": 1.3365980618,
				"element": "H" 
			},
			{
				"x": 1.5402233147,
				"y": -2.3940537901,
				"z": 0.1414723225,
				"element": "H" 
			},
			{
				"x": 0.1480848338,
				"y": -2.698751855,
				"z": -1.6606723216,
				"element": "H" 
			},
			{
				"x": -0.8287707074,
				"y": -3.5949256156,
				"z": -0.5010360776,
				"element": "H" 
			},
			{
				"x": -2.2571834023,
				"y": -1.9986590909,
				"z": -1.7468138143,
				"element": "H" 
			},
			{
				"x": -2.1728633074,
				"y": -1.488286802,
				"z": -0.071221754,
				"element": "H" 
			},
			{
				"x": -0.7222004341,
				"y": -0.3273251271,
				"z": -2.4981375191,
				"element": "H" 
			},
			{
				"x": -1.8202678315,
				"y": 0.506850045,
				"z": -1.4237995924,
				"element": "H" 
			},
			{
				"x": 0.0099281518,
				"y": 1.2864074957,
				"z": -0.2702410213,
				"element": "H" 
			}
		],
		 "valence_orbital": [ 
			{
				"type": "occ",
				"energy": -0.30518,
				"method": "rhf"
			},
			{
				"type": "occ",
				"energy": -0.29991,
				"method": "rhf"
			},
			{
				"type": "occ",
				"energy": -0.28476,
				"method": "rhf"
			},
			{
				"type": "occ",
				"energy": -0.26961,
				"method": "rhf"
			},
			{
				"type": "occ",
				"energy": -0.23828,
				"method": "rhf"
			},
			{
				"type": "unocc",
				"energy": 0.05032,
				"method": "rhf"
			},
			{
				"type": "unocc",
				"energy": 0.06495,
				"method": "rhf"
			},
			{
				"type": "unocc",
				"energy": 0.07164,
				"method": "rhf"
			},
			{
				"type": "unocc",
				"energy": 0.08897,
				"method": "rhf"
			},
			{
				"type": "unocc",
				"energy": 0.09309,
				"method": "rhf"
			}
		],
		"cosmo_sigma_profile": { 
			"-0.025": 0.0,
			"-0.024": 0.0,
			"-0.023": 0.0,
			"-0.022": 0.0,
			"-0.021": 0.0,
			"-0.02": 0.0,
			"-0.019": 0.0,
			"-0.018": 0.0,
			"-0.017": 0.0,
			"-0.016": 0.0,
			"-0.015": 0.0,
			"-0.014": 0.0,
			"-0.013": 0.0,
			"-0.012": 0.0,
			"-0.011": 0.696228510947,
			"-0.01": 1.63941564431,
			"-0.009": 1.66975437355,
			"-0.008": 4.75553162536,
			"-0.007": 7.56949862955,
			"-0.006": 9.25326607229,
			"-0.005": 16.2397983625,
			"-0.004": 19.2170186458,
			"-0.003": 22.4939644071,
			"-0.002": 20.586910454,
			"-0.001": 20.0055874339,
			"0.0": 16.8996130705,
			"0.001": 11.5705457152,
			"0.002": 5.08352501689,
			"0.003": 4.16014779372,
			"0.004": 3.18011713775,
			"0.005": 2.80883983653,
			"0.006": 2.98146968508,
			"0.007": 3.92779157616,
			"0.008": 2.33708223204,
			"0.009": 3.306428671,
			"0.01": 4.31484192839,
			"0.011": 5.3860942248,
			"0.012": 10.1266649377,
			"0.013": 5.93451604603,
			"0.014": 0.382583087221,
			"0.015": 0.466064434454,
			"0.016": 0.172702162092,
			"0.017": 0.0,
			"0.018": 0.0,
			"0.019": 0.0,
			"0.02": 0.0,
			"0.021": 0.0,
			"0.022": 0.0,
			"0.023": 0.0,
			"0.024": 0.0,
			"0.025": 0.0
		}
	}
}
