{
	 "smiles": "CC1=C(CC#N)C2=C(N1)C=CC=C2", 
	 "Tm": 353.15, 
	 "num_atms": 23, 
	 "gaussian": { 
		 "optdone": 1, 
		 "sigma_profile": "yes", 
		 "theory": "DFT", 
		 "functional": "B3LYP", 
		 "basiset": "6-31G**", 
		 "properties": { 
			 "R2extent": 2547.3042, 
			 "electric_dipole_moment_norm": 5.37973711811, 
			 "electric_quadrupole_moment_norm": 15.9721866956, 
			 "total_energy": -534.697285216, 
			 "HOMO_LUMO_gap": 0.19326, 
			 "cosmo_polarized_energy": -15.51, 
			 "cosmo_cavitation_energy": 27.75, 
			 "cosmo_dispersion_energy": -19.41, 
			 "cosmo_repulsion_energy": 1.55, 
			 "cosmo_total_nonelectrostatic_energy": 9.88, 
			 "SMD_solvation_energy": 5.84 
		},
		"coords": [
			{
				"x": -2.4717251177,
				"y": -1.7063116932,
				"z": 0.6942577703,
				"element": "C" 
			},
			{
				"x": -1.1825574422,
				"y": -1.3340105759,
				"z": 0.0356900773,
				"element": "C" 
			},
			{
				"x": -0.1506728217,
				"y": -0.522992044,
				"z": 0.4561793751,
				"element": "C" 
			},
			{
				"x": -0.0554763652,
				"y": 0.2136967936,
				"z": 1.7669784742,
				"element": "C" 
			},
			{
				"x": -0.3752937711,
				"y": 1.6478718312,
				"z": 1.6632445664,
				"element": "C" 
			},
			{
				"x": -0.6320534314,
				"y": 2.7767146753,
				"z": 1.5782785606,
				"element": "N" 
			},
			{
				"x": 0.8383882555,
				"y": -0.5028544643,
				"z": -0.5923499469,
				"element": "C" 
			},
			{
				"x": 0.3524781575,
				"y": -1.3374373911,
				"z": -1.6333454803,
				"element": "C" 
			},
			{
				"x": -0.8733648501,
				"y": -1.8244309152,
				"z": -1.2227677253,
				"element": "N" 
			},
			{
				"x": 1.0701622269,
				"y": -1.5569642814,
				"z": -2.812322503,
				"element": "C" 
			},
			{
				"x": 2.2997878988,
				"y": -0.9192226465,
				"z": -2.9420508421,
				"element": "C" 
			},
			{
				"x": 2.8001937142,
				"y": -0.0839846364,
				"z": -1.9233594735,
				"element": "C" 
			},
			{
				"x": 2.0820790603,
				"y": 0.1307890237,
				"z": -0.7528008912,
				"element": "C" 
			},
			{
				"x": -2.5163524471,
				"y": -1.3216036687,
				"z": 1.7151208946,
				"element": "H" 
			},
			{
				"x": -2.598805268,
				"y": -2.7946066376,
				"z": 0.74282283,
				"element": "H" 
			},
			{
				"x": -3.3334028801,
				"y": -1.2965778235,
				"z": 0.15291298,
				"element": "H" 
			},
			{
				"x": -0.7274794029,
				"y": -0.2240880003,
				"z": 2.5134371466,
				"element": "H" 
			},
			{
				"x": 0.9574139602,
				"y": 0.1270306743,
				"z": 2.1807517269,
				"element": "H" 
			},
			{
				"x": -1.4609847952,
				"y": -2.446233924,
				"z": -1.7545343508,
				"element": "H" 
			},
			{
				"x": 0.6837360028,
				"y": -2.1991833612,
				"z": -3.5988197352,
				"element": "H" 
			},
			{
				"x": 2.8830882878,
				"y": -1.0663606254,
				"z": -3.8461648999,
				"element": "H" 
			},
			{
				"x": 3.7614815333,
				"y": 0.4023097755,
				"z": -2.0599154221,
				"element": "H" 
			},
			{
				"x": 2.4744594956,
				"y": 0.786249915,
				"z": 0.0198568686,
				"element": "H" 
			}
		],
		 "valence_orbital": [ 
			{
				"type": "occ",
				"energy": -0.31598,
				"method": "rhf"
			},
			{
				"type": "occ",
				"energy": -0.31449,
				"method": "rhf"
			},
			{
				"type": "occ",
				"energy": -0.27674,
				"method": "rhf"
			},
			{
				"type": "occ",
				"energy": -0.22253,
				"method": "rhf"
			},
			{
				"type": "occ",
				"energy": -0.20709,
				"method": "rhf"
			},
			{
				"type": "unocc",
				"energy": -0.01383,
				"method": "rhf"
			},
			{
				"type": "unocc",
				"energy": 0.0222,
				"method": "rhf"
			},
			{
				"type": "unocc",
				"energy": 0.03665,
				"method": "rhf"
			},
			{
				"type": "unocc",
				"energy": 0.04823,
				"method": "rhf"
			},
			{
				"type": "unocc",
				"energy": 0.06577,
				"method": "rhf"
			}
		],
		"cosmo_sigma_profile": { 
			"-0.025": 0.0,
			"-0.024": 0.0,
			"-0.023": 0.0,
			"-0.022": 0.0,
			"-0.021": 0.0,
			"-0.02": 0.0,
			"-0.019": 0.0,
			"-0.018": 0.0,
			"-0.017": 0.0,
			"-0.016": 0.0333358753054,
			"-0.015": 1.26012668547,
			"-0.014": 1.19210325655,
			"-0.013": 1.60167787905,
			"-0.012": 1.21621366824,
			"-0.011": 0.966478466677,
			"-0.01": 1.17153450321,
			"-0.009": 2.75715508989,
			"-0.008": 5.68312542594,
			"-0.007": 7.57661551601,
			"-0.006": 10.3802026188,
			"-0.005": 18.6368495081,
			"-0.004": 15.5924412494,
			"-0.003": 17.0689959499,
			"-0.002": 15.1564266614,
			"-0.001": 13.6593531404,
			"0.0": 11.6912994381,
			"0.001": 7.66691902888,
			"0.002": 9.42253231122,
			"0.003": 9.3356111477,
			"0.004": 15.8916158741,
			"0.005": 13.2658219919,
			"0.006": 11.2243248265,
			"0.007": 10.2294951105,
			"0.008": 3.39736842745,
			"0.009": 4.05796466821,
			"0.01": 3.11843405941,
			"0.011": 3.38477415605,
			"0.012": 2.54553529451,
			"0.013": 2.36663886888,
			"0.014": 0.667165651285,
			"0.015": 0.0,
			"0.016": 0.0,
			"0.017": 0.0,
			"0.018": 0.0,
			"0.019": 0.0,
			"0.02": 0.0,
			"0.021": 0.0,
			"0.022": 0.0,
			"0.023": 0.0,
			"0.024": 0.0,
			"0.025": 0.0
		}
	}
}
