{
	 "smiles": "COC1=C(C=C(CC(O)=O)C=C1)S(Cl)(=O)=O", 
	 "Tm": 440.15, 
	 "num_atms": 25, 
	 "gaussian": { 
		 "optdone": 1, 
		 "sigma_profile": "yes", 
		 "theory": "DFT", 
		 "functional": "B3LYP", 
		 "basiset": "6-31G**", 
		 "properties": { 
			 "R2extent": 6004.8744, 
			 "electric_dipole_moment_norm": 6.1258914135, 
			 "electric_quadrupole_moment_norm": 26.7110779736, 
			 "total_energy": -1582.81347012, 
			 "HOMO_LUMO_gap": 0.16912, 
			 "cosmo_polarized_energy": -18.42, 
			 "cosmo_cavitation_energy": 33.34, 
			 "cosmo_dispersion_energy": -24.22, 
			 "cosmo_repulsion_energy": 1.87, 
			 "cosmo_total_nonelectrostatic_energy": 11.0, 
			 "SMD_solvation_energy": 6.38 
		},
		"coords": [
			{
				"x": -3.7668024947,
				"y": 0.3276891679,
				"z": 1.9402587724,
				"element": "C" 
			},
			{
				"x": -3.0936862454,
				"y": -0.6265700752,
				"z": 1.1243247285,
				"element": "O" 
			},
			{
				"x": -1.9324044861,
				"y": -0.2836097937,
				"z": 0.5359551918,
				"element": "C" 
			},
			{
				"x": -1.2921133346,
				"y": -1.2593391703,
				"z": -0.2556888032,
				"element": "C" 
			},
			{
				"x": -0.1001946124,
				"y": -0.9854472263,
				"z": -0.928597082,
				"element": "C" 
			},
			{
				"x": 0.5013348012,
				"y": 0.2692044875,
				"z": -0.8251272089,
				"element": "C" 
			},
			{
				"x": 1.7843138666,
				"y": 0.5588789672,
				"z": -1.5705124963,
				"element": "C" 
			},
			{
				"x": 2.9310685834,
				"y": 1.0344532107,
				"z": -0.6901981444,
				"element": "C" 
			},
			{
				"x": 4.1249883248,
				"y": 0.7245497077,
				"z": -1.2435984543,
				"element": "O" 
			},
			{
				"x": 2.8281621563,
				"y": 1.6478697133,
				"z": 0.3483862089,
				"element": "O" 
			},
			{
				"x": -0.1289838706,
				"y": 1.238219085,
				"z": -0.0326865736,
				"element": "C" 
			},
			{
				"x": -1.3216573092,
				"y": 0.9744329626,
				"z": 0.6362289085,
				"element": "C" 
			},
			{
				"x": -1.9454089355,
				"y": -2.9138384654,
				"z": -0.4031398703,
				"element": "S" 
			},
			{
				"x": -3.7310453711,
				"y": -2.5806880946,
				"z": -1.5272675127,
				"element": "Cl" 
			},
			{
				"x": -2.360392318,
				"y": -3.4371340236,
				"z": 0.8903203635,
				"element": "O" 
			},
			{
				"x": -1.0631520221,
				"y": -3.6757432818,
				"z": -1.2815391826,
				"element": "O" 
			},
			{
				"x": -3.1449700077,
				"y": 0.6321450956,
				"z": 2.7898372814,
				"element": "H" 
			},
			{
				"x": -4.0590052349,
				"y": 1.2112182022,
				"z": 1.3609691631,
				"element": "H" 
			},
			{
				"x": -4.6592406162,
				"y": -0.1795828707,
				"z": 2.3057271716,
				"element": "H" 
			},
			{
				"x": 0.346923099,
				"y": -1.770508087,
				"z": -1.5284124223,
				"element": "H" 
			},
			{
				"x": 1.6282360319,
				"y": 1.35622856,
				"z": -2.3116180839,
				"element": "H" 
			},
			{
				"x": 2.1157988552,
				"y": -0.3151906379,
				"z": -2.1359510052,
				"element": "H" 
			},
			{
				"x": 4.8049230954,
				"y": 1.094637586,
				"z": -0.654910081,
				"element": "H" 
			},
			{
				"x": 0.3284072336,
				"y": 2.2151166274,
				"z": 0.0765643136,
				"element": "H" 
			},
			{
				"x": -1.7771991888,
				"y": 1.7525083536,
				"z": 1.2361748177,
				"element": "H" 
			}
		],
		 "valence_orbital": [ 
			{
				"type": "occ",
				"energy": -0.32085,
				"method": "rhf"
			},
			{
				"type": "occ",
				"energy": -0.30203,
				"method": "rhf"
			},
			{
				"type": "occ",
				"energy": -0.29439,
				"method": "rhf"
			},
			{
				"type": "occ",
				"energy": -0.28242,
				"method": "rhf"
			},
			{
				"type": "occ",
				"energy": -0.24805,
				"method": "rhf"
			},
			{
				"type": "unocc",
				"energy": -0.07893,
				"method": "rhf"
			},
			{
				"type": "unocc",
				"energy": -0.03986,
				"method": "rhf"
			},
			{
				"type": "unocc",
				"energy": -0.02044,
				"method": "rhf"
			},
			{
				"type": "unocc",
				"energy": -0.00527,
				"method": "rhf"
			},
			{
				"type": "unocc",
				"energy": 0.05033,
				"method": "rhf"
			}
		],
		"cosmo_sigma_profile": { 
			"-0.025": 0.0,
			"-0.024": 0.0,
			"-0.023": 0.0,
			"-0.022": 0.0,
			"-0.021": 0.0,
			"-0.02": 0.0,
			"-0.019": 0.03586491059,
			"-0.018": 0.941626357937,
			"-0.017": 0.946103203134,
			"-0.016": 0.728963408481,
			"-0.015": 0.875204021316,
			"-0.014": 0.41198167294,
			"-0.013": 1.00419612339,
			"-0.012": 0.756634209514,
			"-0.011": 0.820612824407,
			"-0.01": 0.722949795346,
			"-0.009": 1.37533687672,
			"-0.008": 7.5942257973,
			"-0.007": 14.7583810458,
			"-0.006": 17.8070403635,
			"-0.005": 18.797624097,
			"-0.004": 17.6692360881,
			"-0.003": 12.8687752427,
			"-0.002": 13.5417904038,
			"-0.001": 15.9344397022,
			"0.0": 15.5540714239,
			"0.001": 17.8340580179,
			"0.002": 15.3376845128,
			"0.003": 15.663218121,
			"0.004": 16.0207437464,
			"0.005": 9.28536631499,
			"0.006": 6.98553194676,
			"0.007": 8.79288868162,
			"0.008": 13.7697504952,
			"0.009": 11.540214446,
			"0.01": 4.31632936539,
			"0.011": 4.13128527067,
			"0.012": 1.65023395904,
			"0.013": 0.0,
			"0.014": 0.0,
			"0.015": 0.0,
			"0.016": 0.0,
			"0.017": 0.0,
			"0.018": 0.0,
			"0.019": 0.0,
			"0.02": 0.0,
			"0.021": 0.0,
			"0.022": 0.0,
			"0.023": 0.0,
			"0.024": 0.0,
			"0.025": 0.0
		}
	}
}
