{
	 "smiles": "CC1=NC2=CC(=CC=C2N1C1=CC=C(C)C=C1)[N+]([O-])=O", 
	 "Tm": 425.15, 
	 "num_atms": 33, 
	 "gaussian": { 
		 "optdone": 1, 
		 "sigma_profile": "yes", 
		 "theory": "DFT", 
		 "functional": "B3LYP", 
		 "basiset": "6-31G**", 
		 "properties": { 
			 "R2extent": 7834.2057, 
			 "electric_dipole_moment_norm": 9.74521825769, 
			 "electric_quadrupole_moment_norm": 23.2605988792, 
			 "total_energy": -894.064292345, 
			 "HOMO_LUMO_gap": 0.16728, 
			 "cosmo_polarized_energy": -14.69, 
			 "cosmo_cavitation_energy": 38.09, 
			 "cosmo_dispersion_energy": -26.75, 
			 "cosmo_repulsion_energy": 2.04, 
			 "cosmo_total_nonelectrostatic_energy": 13.38, 
			 "SMD_solvation_energy": 6.83 
		},
		"coords": [
			{
				"x": 1.4719724456,
				"y": 2.3963012537,
				"z": -2.4438825819,
				"element": "C" 
			},
			{
				"x": 0.4987488911,
				"y": 2.3641561568,
				"z": -1.3123150238,
				"element": "C" 
			},
			{
				"x": -0.0750191361,
				"y": 3.4196377636,
				"z": -0.790616628,
				"element": "N" 
			},
			{
				"x": -0.9109085758,
				"y": 2.9323870334,
				"z": 0.2015800221,
				"element": "C" 
			},
			{
				"x": -1.7534279135,
				"y": 3.6227672569,
				"z": 1.0724419307,
				"element": "C" 
			},
			{
				"x": -2.4816577347,
				"y": 2.8560010285,
				"z": 1.9780213246,
				"element": "C" 
			},
			{
				"x": -2.3992866717,
				"y": 1.4525055883,
				"z": 2.0469763514,
				"element": "C" 
			},
			{
				"x": -1.5616467448,
				"y": 0.7601176849,
				"z": 1.1827991125,
				"element": "C" 
			},
			{
				"x": -0.8287437974,
				"y": 1.5186593999,
				"z": 0.2649937605,
				"element": "C" 
			},
			{
				"x": 0.0875695187,
				"y": 1.1690348801,
				"z": -0.713509627,
				"element": "N" 
			},
			{
				"x": 0.4954935343,
				"y": -0.1589231527,
				"z": -1.0522979143,
				"element": "C" 
			},
			{
				"x": 1.802891375,
				"y": -0.5814922307,
				"z": -0.7963578856,
				"element": "C" 
			},
			{
				"x": 2.1896790284,
				"y": -1.877835023,
				"z": -1.1315281179,
				"element": "C" 
			},
			{
				"x": 1.2862479663,
				"y": -2.7793575927,
				"z": -1.7113151824,
				"element": "C" 
			},
			{
				"x": 1.7190594379,
				"y": -4.1747482868,
				"z": -2.0931684899,
				"element": "C" 
			},
			{
				"x": -0.0247267433,
				"y": -2.3416290248,
				"z": -1.9457190978,
				"element": "C" 
			},
			{
				"x": -0.4212973306,
				"y": -1.0437277778,
				"z": -1.6281614389,
				"element": "C" 
			},
			{
				"x": -3.3809521404,
				"y": 3.544337522,
				"z": 2.9112455226,
				"element": "N" 
			},
			{
				"x": -3.4462271217,
				"y": 4.7727716227,
				"z": 2.8474355362,
				"element": "O" 
			},
			{
				"x": -4.0217018796,
				"y": 2.8551280951,
				"z": 3.7077444558,
				"element": "O" 
			},
			{
				"x": 1.5351576177,
				"y": 3.4211342044,
				"z": -2.8102135725,
				"element": "H" 
			},
			{
				"x": 1.1557697217,
				"y": 1.7397892124,
				"z": -3.2612428726,
				"element": "H" 
			},
			{
				"x": 2.4708745774,
				"y": 2.0724037276,
				"z": -2.1332352722,
				"element": "H" 
			},
			{
				"x": -1.8442515048,
				"y": 4.7008866773,
				"z": 1.0558263632,
				"element": "H" 
			},
			{
				"x": -2.9987595161,
				"y": 0.9350128008,
				"z": 2.7844438973,
				"element": "H" 
			},
			{
				"x": -1.4832021834,
				"y": -0.3207976725,
				"z": 1.2231710155,
				"element": "H" 
			},
			{
				"x": 2.5040437242,
				"y": 0.0989383243,
				"z": -0.3233057616,
				"element": "H" 
			},
			{
				"x": 3.2079560993,
				"y": -2.1979290881,
				"z": -0.9272740609,
				"element": "H" 
			},
			{
				"x": 0.8864048762,
				"y": -4.8817697037,
				"z": -2.0367952356,
				"element": "H" 
			},
			{
				"x": 2.0997064283,
				"y": -4.2007705635,
				"z": -3.1217663738,
				"element": "H" 
			},
			{
				"x": 2.5187491158,
				"y": -4.53817094,
				"z": -1.4413584317,
				"element": "H" 
			},
			{
				"x": -0.7454998412,
				"y": -3.0237948321,
				"z": -2.3886747565,
				"element": "H" 
			},
			{
				"x": -1.435815523,
				"y": -0.7111243442,
				"z": -1.8246409674,
				"element": "H" 
			}
		],
		 "valence_orbital": [ 
			{
				"type": "occ",
				"energy": -0.27802,
				"method": "rhf"
			},
			{
				"type": "occ",
				"energy": -0.27506,
				"method": "rhf"
			},
			{
				"type": "occ",
				"energy": -0.26626,
				"method": "rhf"
			},
			{
				"type": "occ",
				"energy": -0.24336,
				"method": "rhf"
			},
			{
				"type": "occ",
				"energy": -0.23907,
				"method": "rhf"
			},
			{
				"type": "unocc",
				"energy": -0.07179,
				"method": "rhf"
			},
			{
				"type": "unocc",
				"energy": -0.03476,
				"method": "rhf"
			},
			{
				"type": "unocc",
				"energy": -0.03029,
				"method": "rhf"
			},
			{
				"type": "unocc",
				"energy": -0.02498,
				"method": "rhf"
			},
			{
				"type": "unocc",
				"energy": 0.02689,
				"method": "rhf"
			}
		],
		"cosmo_sigma_profile": { 
			"-0.025": 0.0,
			"-0.024": 0.0,
			"-0.023": 0.0,
			"-0.022": 0.0,
			"-0.021": 0.0,
			"-0.02": 0.0,
			"-0.019": 0.0,
			"-0.018": 0.0,
			"-0.017": 0.0,
			"-0.016": 0.0,
			"-0.015": 0.0,
			"-0.014": 0.0,
			"-0.013": 0.0,
			"-0.012": 0.0,
			"-0.011": 0.0,
			"-0.01": 0.0,
			"-0.009": 0.0,
			"-0.008": 0.568281807718,
			"-0.007": 7.3359199116,
			"-0.006": 16.1912872498,
			"-0.005": 24.0913234052,
			"-0.004": 27.363658985,
			"-0.003": 26.153685639,
			"-0.002": 29.4410067652,
			"-0.001": 30.0470073882,
			"0.0": 25.8982883683,
			"0.001": 24.3136532155,
			"0.002": 19.1597241597,
			"0.003": 15.1503869866,
			"0.004": 13.0302998845,
			"0.005": 5.2885240207,
			"0.006": 5.07355750457,
			"0.007": 6.78093823106,
			"0.008": 11.0207045228,
			"0.009": 5.65324790273,
			"0.01": 5.10586956294,
			"0.011": 1.88395263103,
			"0.012": 1.51549343479,
			"0.013": 0.689158437547,
			"0.014": 1.0901551131,
			"0.015": 0.809642718999,
			"0.016": 0.854189992664,
			"0.017": 0.285599968511,
			"0.018": 0.0,
			"0.019": 0.0,
			"0.02": 0.0,
			"0.021": 0.0,
			"0.022": 0.0,
			"0.023": 0.0,
			"0.024": 0.0,
			"0.025": 0.0
		}
	}
}
