{
	 "smiles": "FC1=C(C=CC=C1)C1=CNC(=N1)C1CCCN1", 
	 "Tm": 385.15, 
	 "num_atms": 31, 
	 "gaussian": { 
		 "optdone": 1, 
		 "sigma_profile": "yes", 
		 "theory": "DFT", 
		 "functional": "B3LYP", 
		 "basiset": "6-31G**", 
		 "properties": { 
			 "R2extent": 5362.5819, 
			 "electric_dipole_moment_norm": 3.54804994046, 
			 "electric_quadrupole_moment_norm": 10.34947522, 
			 "total_energy": -767.91239796, 
			 "HOMO_LUMO_gap": 0.19084, 
			 "cosmo_polarized_energy": -14.31, 
			 "cosmo_cavitation_energy": 34.05, 
			 "cosmo_dispersion_energy": -24.85, 
			 "cosmo_repulsion_energy": 1.92, 
			 "cosmo_total_nonelectrostatic_energy": 11.12, 
			 "SMD_solvation_energy": 2.86 
		},
		"coords": [
			{
				"x": 0.7341500252,
				"y": -2.3177352197,
				"z": -1.9832875367,
				"element": "F" 
			},
			{
				"x": 1.9313923024,
				"y": -1.7336364836,
				"z": -2.1841539668,
				"element": "C" 
			},
			{
				"x": 2.193813829,
				"y": -0.4727120264,
				"z": -1.6269148827,
				"element": "C" 
			},
			{
				"x": 3.4545215052,
				"y": 0.0854131788,
				"z": -1.9061432167,
				"element": "C" 
			},
			{
				"x": 4.3925091871,
				"y": -0.57251605,
				"z": -2.6991260295,
				"element": "C" 
			},
			{
				"x": 4.0956538205,
				"y": -1.8292311263,
				"z": -3.2302444766,
				"element": "C" 
			},
			{
				"x": 2.8564424314,
				"y": -2.4131327756,
				"z": -2.9685675729,
				"element": "C" 
			},
			{
				"x": 1.2116984812,
				"y": 0.2547356224,
				"z": -0.8106827472,
				"element": "C" 
			},
			{
				"x": 1.0496380572,
				"y": 1.6261321293,
				"z": -0.7374292142,
				"element": "C" 
			},
			{
				"x": 0.0361447542,
				"y": 1.8252209817,
				"z": 0.1694236472,
				"element": "N" 
			},
			{
				"x": -0.3813328459,
				"y": 0.5975183834,
				"z": 0.5967069379,
				"element": "C" 
			},
			{
				"x": 0.3046431488,
				"y": -0.3709201277,
				"z": 0.0279749034,
				"element": "N" 
			},
			{
				"x": -1.4628418408,
				"y": 0.4639838741,
				"z": 1.6386578126,
				"element": "C" 
			},
			{
				"x": -2.3860188277,
				"y": -0.7697794937,
				"z": 1.3802695694,
				"element": "C" 
			},
			{
				"x": -3.7697600191,
				"y": -0.1565179359,
				"z": 1.0500017251,
				"element": "C" 
			},
			{
				"x": -3.449344955,
				"y": 1.3162478978,
				"z": 0.7304641931,
				"element": "C" 
			},
			{
				"x": -2.3117447386,
				"y": 1.6819486047,
				"z": 1.5987837617,
				"element": "N" 
			},
			{
				"x": 3.7002695238,
				"y": 1.0477504515,
				"z": -1.4666290723,
				"element": "H" 
			},
			{
				"x": 5.3572887972,
				"y": -0.1119073485,
				"z": -2.8889669064,
				"element": "H" 
			},
			{
				"x": 4.8225435509,
				"y": -2.3559335848,
				"z": -3.8412237721,
				"element": "H" 
			},
			{
				"x": 2.5845848796,
				"y": -3.3845362745,
				"z": -3.3679683052,
				"element": "H" 
			},
			{
				"x": 1.5260725503,
				"y": 2.440048682,
				"z": -1.2614091512,
				"element": "H" 
			},
			{
				"x": -0.418762766,
				"y": 2.6834971226,
				"z": 0.4474400066,
				"element": "H" 
			},
			{
				"x": -0.9865464769,
				"y": 0.4027292103,
				"z": 2.6247858503,
				"element": "H" 
			},
			{
				"x": -1.98503329,
				"y": -1.3631105122,
				"z": 0.5559150326,
				"element": "H" 
			},
			{
				"x": -2.4322479594,
				"y": -1.4194450411,
				"z": 2.2583116109,
				"element": "H" 
			},
			{
				"x": -4.2730101403,
				"y": -0.6694385594,
				"z": 0.2248859044,
				"element": "H" 
			},
			{
				"x": -4.4337688256,
				"y": -0.2099506614,
				"z": 1.9210513357,
				"element": "H" 
			},
			{
				"x": -3.1324231572,
				"y": 1.4186835944,
				"z": -0.3147554341,
				"element": "H" 
			},
			{
				"x": -4.2870086816,
				"y": 2.0010830953,
				"z": 0.8910842391,
				"element": "H" 
			},
			{
				"x": -2.6689223197,
				"y": 1.8499103926,
				"z": 2.5368457546,
				"element": "H" 
			}
		],
		 "valence_orbital": [ 
			{
				"type": "occ",
				"energy": -0.25808,
				"method": "rhf"
			},
			{
				"type": "occ",
				"energy": -0.24988,
				"method": "rhf"
			},
			{
				"type": "occ",
				"energy": -0.24483,
				"method": "rhf"
			},
			{
				"type": "occ",
				"energy": -0.23375,
				"method": "rhf"
			},
			{
				"type": "occ",
				"energy": -0.19965,
				"method": "rhf"
			},
			{
				"type": "unocc",
				"energy": -0.00881,
				"method": "rhf"
			},
			{
				"type": "unocc",
				"energy": 0.01273,
				"method": "rhf"
			},
			{
				"type": "unocc",
				"energy": 0.03189,
				"method": "rhf"
			},
			{
				"type": "unocc",
				"energy": 0.07167,
				"method": "rhf"
			},
			{
				"type": "unocc",
				"energy": 0.08863,
				"method": "rhf"
			}
		],
		"cosmo_sigma_profile": { 
			"-0.025": 0.0,
			"-0.024": 0.0,
			"-0.023": 0.0,
			"-0.022": 0.0,
			"-0.021": 0.0,
			"-0.02": 0.0,
			"-0.019": 0.0,
			"-0.018": 0.0,
			"-0.017": 0.0,
			"-0.016": 0.0,
			"-0.015": 0.0651954167189,
			"-0.014": 0.701005534377,
			"-0.013": 0.742860418263,
			"-0.012": 0.675244116799,
			"-0.011": 1.18442811038,
			"-0.01": 2.37107038859,
			"-0.009": 2.59318674382,
			"-0.008": 4.20823168466,
			"-0.007": 5.44478680221,
			"-0.006": 12.2156620866,
			"-0.005": 14.0609894502,
			"-0.004": 18.0770549698,
			"-0.003": 23.2046903087,
			"-0.002": 22.1219501093,
			"-0.001": 24.0493783883,
			"0.0": 21.4882204943,
			"0.001": 17.9406679322,
			"0.002": 15.7567422512,
			"0.003": 16.9717662067,
			"0.004": 20.9489038565,
			"0.005": 19.8212264118,
			"0.006": 5.46761902888,
			"0.007": 3.64946586684,
			"0.008": 3.75994239528,
			"0.009": 2.61385237514,
			"0.01": 2.39561940674,
			"0.011": 1.89704980828,
			"0.012": 0.731158078295,
			"0.013": 1.92635979237,
			"0.014": 0.772291216241,
			"0.015": 0.686418092445,
			"0.016": 0.86695564239,
			"0.017": 0.442066781216,
			"0.018": 0.0273372953992,
			"0.019": 0.0,
			"0.02": 0.0,
			"0.021": 0.0,
			"0.022": 0.0,
			"0.023": 0.0,
			"0.024": 0.0,
			"0.025": 0.0
		}
	}
}
