{
	 "smiles": "OC(=O)CSC1=C(F)C=CC=C1", 
	 "Tm": 354.15, 
	 "num_atms": 19, 
	 "gaussian": { 
		 "optdone": 1, 
		 "sigma_profile": "yes", 
		 "theory": "DFT", 
		 "functional": "B3LYP", 
		 "basiset": "6-31G**", 
		 "properties": { 
			 "R2extent": 2492.1692, 
			 "electric_dipole_moment_norm": 1.18985149494, 
			 "electric_quadrupole_moment_norm": 13.0191570872, 
			 "total_energy": -957.545868944, 
			 "HOMO_LUMO_gap": 0.204, 
			 "cosmo_polarized_energy": -11.8, 
			 "cosmo_cavitation_energy": 25.69, 
			 "cosmo_dispersion_energy": -18.53, 
			 "cosmo_repulsion_energy": 1.43, 
			 "cosmo_total_nonelectrostatic_energy": 8.58, 
			 "SMD_solvation_energy": 5.48 
		},
		"coords": [
			{
				"x": -2.6242808907,
				"y": -1.1087229058,
				"z": -1.6527459739,
				"element": "O" 
			},
			{
				"x": -1.3840193242,
				"y": -1.5268075954,
				"z": -1.3193700642,
				"element": "C" 
			},
			{
				"x": -1.1183068058,
				"y": -2.0407439162,
				"z": -0.2555162907,
				"element": "O" 
			},
			{
				"x": -0.3836691381,
				"y": -1.276162484,
				"z": -2.4264869795,
				"element": "C" 
			},
			{
				"x": 0.189741127,
				"y": 0.4781539709,
				"z": -2.5202314241,
				"element": "S" 
			},
			{
				"x": 1.1506121023,
				"y": 0.6304187608,
				"z": -1.0196911689,
				"element": "C" 
			},
			{
				"x": 0.5396657684,
				"y": 0.8914777808,
				"z": 0.2128712387,
				"element": "C" 
			},
			{
				"x": -0.8010508627,
				"y": 0.9767320893,
				"z": 0.2830788056,
				"element": "F" 
			},
			{
				"x": 1.2745607117,
				"y": 1.0685299691,
				"z": 1.3791905968,
				"element": "C" 
			},
			{
				"x": 2.6660377419,
				"y": 0.9956526334,
				"z": 1.3187758131,
				"element": "C" 
			},
			{
				"x": 3.3064082351,
				"y": 0.7467115785,
				"z": 0.1027332878,
				"element": "C" 
			},
			{
				"x": 2.5508276024,
				"y": 0.5652150584,
				"z": -1.0555352822,
				"element": "C" 
			},
			{
				"x": -3.1810420166,
				"y": -1.2592417912,
				"z": -0.870604173,
				"element": "H" 
			},
			{
				"x": -0.8415888568,
				"y": -1.4637693646,
				"z": -3.400919963,
				"element": "H" 
			},
			{
				"x": 0.4730143181,
				"y": -1.9344566242,
				"z": -2.2819090079,
				"element": "H" 
			},
			{
				"x": 0.7489995242,
				"y": 1.2608594375,
				"z": 2.3082013232,
				"element": "H" 
			},
			{
				"x": 3.2482272319,
				"y": 1.134105413,
				"z": 2.2248013389,
				"element": "H" 
			},
			{
				"x": 4.389462732,
				"y": 0.6928982222,
				"z": 0.0558801108,
				"element": "H" 
			},
			{
				"x": 3.0371008,
				"y": 0.3732497675,
				"z": -2.0067221874,
				"element": "H" 
			}
		],
		 "valence_orbital": [ 
			{
				"type": "occ",
				"energy": -0.31756,
				"method": "rhf"
			},
			{
				"type": "occ",
				"energy": -0.28301,
				"method": "rhf"
			},
			{
				"type": "occ",
				"energy": -0.26407,
				"method": "rhf"
			},
			{
				"type": "occ",
				"energy": -0.25147,
				"method": "rhf"
			},
			{
				"type": "occ",
				"energy": -0.23797,
				"method": "rhf"
			},
			{
				"type": "unocc",
				"energy": -0.03397,
				"method": "rhf"
			},
			{
				"type": "unocc",
				"energy": -0.01028,
				"method": "rhf"
			},
			{
				"type": "unocc",
				"energy": -0.00105,
				"method": "rhf"
			},
			{
				"type": "unocc",
				"energy": 0.0424,
				"method": "rhf"
			},
			{
				"type": "unocc",
				"energy": 0.0721,
				"method": "rhf"
			}
		],
		"cosmo_sigma_profile": { 
			"-0.025": 0.0,
			"-0.024": 0.0,
			"-0.023": 0.0,
			"-0.022": 0.0,
			"-0.021": 0.0,
			"-0.02": 0.0,
			"-0.019": 0.147042863002,
			"-0.018": 1.08857497012,
			"-0.017": 0.75073031881,
			"-0.016": 0.910170016541,
			"-0.015": 0.43833944094,
			"-0.014": 0.6161732935,
			"-0.013": 0.422228841905,
			"-0.012": 0.941240235042,
			"-0.011": 0.945191481786,
			"-0.01": 0.880481408426,
			"-0.009": 1.11914099977,
			"-0.008": 3.52814896642,
			"-0.007": 9.61232383761,
			"-0.006": 13.1272320965,
			"-0.005": 15.3607146754,
			"-0.004": 11.4649648536,
			"-0.003": 9.7322145709,
			"-0.002": 9.48707976089,
			"-0.001": 11.5581355733,
			"0.0": 13.5852078919,
			"0.001": 13.4015798827,
			"0.002": 13.9963467542,
			"0.003": 19.0670898716,
			"0.004": 15.8954212033,
			"0.005": 6.96918966957,
			"0.006": 6.65966191753,
			"0.007": 6.01906160801,
			"0.008": 5.3405869608,
			"0.009": 4.55950525834,
			"0.01": 2.18533287376,
			"0.011": 4.25647404389,
			"0.012": 2.76858707398,
			"0.013": 0.186510549777,
			"0.014": 0.0,
			"0.015": 0.0,
			"0.016": 0.0,
			"0.017": 0.0,
			"0.018": 0.0,
			"0.019": 0.0,
			"0.02": 0.0,
			"0.021": 0.0,
			"0.022": 0.0,
			"0.023": 0.0,
			"0.024": 0.0,
			"0.025": 0.0
		}
	}
}
