{
	 "smiles": "NC1=NN=C2C=CC(Cl)=NN12", 
	 "Tm": 548.15, 
	 "num_atms": 15, 
	 "gaussian": { 
		 "optdone": 1, 
		 "sigma_profile": "yes", 
		 "theory": "DFT", 
		 "functional": "B3LYP", 
		 "basiset": "6-31G**", 
		 "properties": { 
			 "R2extent": 2470.574, 
			 "electric_dipole_moment_norm": 2.93326366698, 
			 "electric_quadrupole_moment_norm": 18.2638190368, 
			 "total_energy": -926.83034507, 
			 "HOMO_LUMO_gap": 0.13907, 
			 "cosmo_polarized_energy": -16.3, 
			 "cosmo_cavitation_energy": 21.92, 
			 "cosmo_dispersion_energy": -16.87, 
			 "cosmo_repulsion_energy": 1.36, 
			 "cosmo_total_nonelectrostatic_energy": 6.41, 
			 "SMD_solvation_energy": 0.74 
		},
		"coords": [
			{
				"x": -0.4617451646,
				"y": -1.6365378469,
				"z": 3.7109083316,
				"element": "N" 
			},
			{
				"x": -0.0978707674,
				"y": -1.6243637734,
				"z": 2.3902003343,
				"element": "C" 
			},
			{
				"x": 0.5338239967,
				"y": -2.57751338,
				"z": 1.7175546882,
				"element": "N" 
			},
			{
				"x": 0.7769149909,
				"y": -2.1303901607,
				"z": 0.4408070551,
				"element": "N" 
			},
			{
				"x": 0.2838565395,
				"y": -0.911283072,
				"z": 0.3493944664,
				"element": "C" 
			},
			{
				"x": 0.2130417605,
				"y": 0.0504636705,
				"z": -0.6849028853,
				"element": "C" 
			},
			{
				"x": -0.4052695161,
				"y": 1.2423782197,
				"z": -0.4163959142,
				"element": "C" 
			},
			{
				"x": -0.9549655367,
				"y": 1.4573817822,
				"z": 0.8935575153,
				"element": "C" 
			},
			{
				"x": -1.7550156822,
				"y": 2.977849944,
				"z": 1.2097116598,
				"element": "Cl" 
			},
			{
				"x": -0.9194412946,
				"y": 0.616910526,
				"z": 1.8855165924,
				"element": "N" 
			},
			{
				"x": -0.2878864703,
				"y": -0.54482234,
				"z": 1.5795321009,
				"element": "N" 
			},
			{
				"x": -1.2371015118,
				"y": -1.0321842166,
				"z": 3.9486549061,
				"element": "H" 
			},
			{
				"x": -0.5112464604,
				"y": -2.5644639902,
				"z": 4.1073898333,
				"element": "H" 
			},
			{
				"x": 0.6429717449,
				"y": -0.1767734238,
				"z": -1.6537554727,
				"element": "H" 
			},
			{
				"x": -0.4957666284,
				"y": 2.0241480612,
				"z": -1.1591732113,
				"element": "H" 
			}
		],
		 "valence_orbital": [ 
			{
				"type": "occ",
				"energy": -0.31858,
				"method": "rhf"
			},
			{
				"type": "occ",
				"energy": -0.31486,
				"method": "rhf"
			},
			{
				"type": "occ",
				"energy": -0.2787,
				"method": "rhf"
			},
			{
				"type": "occ",
				"energy": -0.25934,
				"method": "rhf"
			},
			{
				"type": "occ",
				"energy": -0.22011,
				"method": "rhf"
			},
			{
				"type": "unocc",
				"energy": -0.08104,
				"method": "rhf"
			},
			{
				"type": "unocc",
				"energy": -0.0161,
				"method": "rhf"
			},
			{
				"type": "unocc",
				"energy": 0.00964,
				"method": "rhf"
			},
			{
				"type": "unocc",
				"energy": 0.05458,
				"method": "rhf"
			},
			{
				"type": "unocc",
				"energy": 0.07445,
				"method": "rhf"
			}
		],
		"cosmo_sigma_profile": { 
			"-0.025": 0.0,
			"-0.024": 0.0,
			"-0.023": 0.0,
			"-0.022": 0.0,
			"-0.021": 0.0,
			"-0.02": 0.0,
			"-0.019": 0.0,
			"-0.018": 0.0,
			"-0.017": 0.0,
			"-0.016": 0.0,
			"-0.015": 0.394523048654,
			"-0.014": 1.75743249923,
			"-0.013": 2.34097073764,
			"-0.012": 2.47416331905,
			"-0.011": 2.41692428284,
			"-0.01": 3.67231759874,
			"-0.009": 5.46010166583,
			"-0.008": 6.62511543882,
			"-0.007": 4.77149846378,
			"-0.006": 5.96867543318,
			"-0.005": 7.05354898551,
			"-0.004": 9.77264058616,
			"-0.003": 14.1205295986,
			"-0.002": 12.8470861779,
			"-0.001": 13.3087581147,
			"0.0": 10.0172333803,
			"0.001": 8.92626827256,
			"0.002": 10.1154378077,
			"0.003": 12.6907190033,
			"0.004": 6.80393689918,
			"0.005": 4.70612897602,
			"0.006": 3.4708396722,
			"0.007": 3.65759981056,
			"0.008": 3.07357281244,
			"0.009": 2.74499081836,
			"0.01": 2.41286791595,
			"0.011": 3.08969122289,
			"0.012": 2.25122248091,
			"0.013": 3.53411868439,
			"0.014": 3.72133976345,
			"0.015": 2.53378479709,
			"0.016": 2.18615986917,
			"0.017": 0.40205667573,
			"0.018": 0.0,
			"0.019": 0.0,
			"0.02": 0.0,
			"0.021": 0.0,
			"0.022": 0.0,
			"0.023": 0.0,
			"0.024": 0.0,
			"0.025": 0.0
		}
	}
}
