{
	 "smiles": "BrC1=CC(NC(=O)C2CCNCC2)=CC=C1", 
	 "Tm": 452.15, 
	 "num_atms": 31, 
	 "gaussian": { 
		 "optdone": 1, 
		 "sigma_profile": "yes", 
		 "theory": "DFT", 
		 "functional": "B3LYP", 
		 "basiset": "6-31G**", 
		 "properties": { 
			 "R2extent": 7370.0466, 
			 "electric_dipole_moment_norm": 3.01640884165, 
			 "electric_quadrupole_moment_norm": 19.2829152954, 
			 "total_energy": -3222.46310708, 
			 "HOMO_LUMO_gap": 0.19257, 
			 "cosmo_polarized_energy": -14.09, 
			 "cosmo_cavitation_energy": 35.33, 
			 "cosmo_dispersion_energy": -25.25, 
			 "cosmo_repulsion_energy": 1.99, 
			 "cosmo_total_nonelectrostatic_energy": 12.08, 
			 "SMD_solvation_energy": 2.5 
		},
		"coords": [
			{
				"x": 0.2599243812,
				"y": 2.1504452694,
				"z": -4.6831504922,
				"element": "Br" 
			},
			{
				"x": 1.4923003691,
				"y": 1.226439563,
				"z": -3.5499524491,
				"element": "C" 
			},
			{
				"x": 1.32061348,
				"y": 1.3034263358,
				"z": -2.1700494855,
				"element": "C" 
			},
			{
				"x": 2.209778644,
				"y": 0.6180927465,
				"z": -1.328739245,
				"element": "C" 
			},
			{
				"x": 2.0988933585,
				"y": 0.6735426807,
				"z": 0.0775603598,
				"element": "N" 
			},
			{
				"x": 1.0120983327,
				"y": 0.5715907569,
				"z": 0.9372058229,
				"element": "C" 
			},
			{
				"x": 1.2010748391,
				"y": 0.706286353,
				"z": 2.1387293984,
				"element": "O" 
			},
			{
				"x": -0.3680409657,
				"y": 0.2480807966,
				"z": 0.3774746633,
				"element": "C" 
			},
			{
				"x": -0.9411056476,
				"y": -0.9876046689,
				"z": 1.107363317,
				"element": "C" 
			},
			{
				"x": -2.3819023483,
				"y": -1.2575817607,
				"z": 0.6636345214,
				"element": "C" 
			},
			{
				"x": -3.2056630266,
				"y": -0.075625382,
				"z": 0.9151879638,
				"element": "N" 
			},
			{
				"x": -2.7488241948,
				"y": 1.0837127047,
				"z": 0.1509842705,
				"element": "C" 
			},
			{
				"x": -1.3217428999,
				"y": 1.4491353555,
				"z": 0.5715195649,
				"element": "C" 
			},
			{
				"x": 3.2809278844,
				"y": -0.0915857277,
				"z": -1.8934445115,
				"element": "C" 
			},
			{
				"x": 3.4471185693,
				"y": -0.1286889138,
				"z": -3.2753617764,
				"element": "C" 
			},
			{
				"x": 2.5469363155,
				"y": 0.5198241295,
				"z": -4.1231030861,
				"element": "C" 
			},
			{
				"x": 0.5244198767,
				"y": 1.9074386001,
				"z": -1.7549947827,
				"element": "H" 
			},
			{
				"x": 2.9670504271,
				"y": 0.7439553699,
				"z": 0.595818782,
				"element": "H" 
			},
			{
				"x": -0.302791088,
				"y": 0.0161555636,
				"z": -0.6908618008,
				"element": "H" 
			},
			{
				"x": -0.3189408513,
				"y": -1.8674970776,
				"z": 0.9048226649,
				"element": "H" 
			},
			{
				"x": -0.9145425534,
				"y": -0.8007882908,
				"z": 2.1845986463,
				"element": "H" 
			},
			{
				"x": -2.3800349571,
				"y": -1.5573121393,
				"z": -0.40416761,
				"element": "H" 
			},
			{
				"x": -2.792793813,
				"y": -2.098589437,
				"z": 1.2331353618,
				"element": "H" 
			},
			{
				"x": -4.1771278151,
				"y": -0.2753085529,
				"z": 0.6953348614,
				"element": "H" 
			},
			{
				"x": -2.7654672419,
				"y": 0.9090347633,
				"z": -0.9440512693,
				"element": "H" 
			},
			{
				"x": -3.4211637685,
				"y": 1.924917736,
				"z": 0.3530566935,
				"element": "H" 
			},
			{
				"x": -1.3117368281,
				"y": 1.7316294294,
				"z": 1.6291925927,
				"element": "H" 
			},
			{
				"x": -0.9778265833,
				"y": 2.3171529565,
				"z": -0.0049805595,
				"element": "H" 
			},
			{
				"x": 3.9712821251,
				"y": -0.6199255973,
				"z": -1.2426021287,
				"element": "H" 
			},
			{
				"x": 4.2790510276,
				"y": -0.6811501039,
				"z": -3.7017027517,
				"element": "H" 
			},
			{
				"x": 2.6642349523,
				"y": 0.4827965414,
				"z": -5.199457536,
				"element": "H" 
			}
		],
		 "valence_orbital": [ 
			{
				"type": "occ",
				"energy": -0.29314,
				"method": "rhf"
			},
			{
				"type": "occ",
				"energy": -0.25615,
				"method": "rhf"
			},
			{
				"type": "occ",
				"energy": -0.25314,
				"method": "rhf"
			},
			{
				"type": "occ",
				"energy": -0.23598,
				"method": "rhf"
			},
			{
				"type": "occ",
				"energy": -0.22023,
				"method": "rhf"
			},
			{
				"type": "unocc",
				"energy": -0.02766,
				"method": "rhf"
			},
			{
				"type": "unocc",
				"energy": -0.02525,
				"method": "rhf"
			},
			{
				"type": "unocc",
				"energy": -0.00126,
				"method": "rhf"
			},
			{
				"type": "unocc",
				"energy": 0.0259,
				"method": "rhf"
			},
			{
				"type": "unocc",
				"energy": 0.07656,
				"method": "rhf"
			}
		],
		"cosmo_sigma_profile": { 
			"-0.025": 0.0,
			"-0.024": 0.0,
			"-0.023": 0.0,
			"-0.022": 0.0,
			"-0.021": 0.0,
			"-0.02": 0.0,
			"-0.019": 0.0,
			"-0.018": 0.0,
			"-0.017": 0.0,
			"-0.016": 0.0,
			"-0.015": 0.126084355323,
			"-0.014": 0.76713179668,
			"-0.013": 0.999772811579,
			"-0.012": 1.3136396848,
			"-0.011": 0.913857055349,
			"-0.01": 2.03249324183,
			"-0.009": 2.68580364615,
			"-0.008": 2.68158387888,
			"-0.007": 9.12847798169,
			"-0.006": 10.1809940515,
			"-0.005": 10.8024169544,
			"-0.004": 16.6315503709,
			"-0.003": 25.5867601583,
			"-0.002": 28.471026777,
			"-0.001": 31.995750329,
			"0.0": 24.0068316379,
			"0.001": 19.4241263535,
			"0.002": 21.3194516336,
			"0.003": 19.6932042526,
			"0.004": 17.367421427,
			"0.005": 8.61050397317,
			"0.006": 2.27168670099,
			"0.007": 2.80424328104,
			"0.008": 1.89430453177,
			"0.009": 1.85044515648,
			"0.01": 2.43173131945,
			"0.011": 2.1521958555,
			"0.012": 2.7430885897,
			"0.013": 5.02372168848,
			"0.014": 3.39284474112,
			"0.015": 0.494535805971,
			"0.016": 0.633517507748,
			"0.017": 0.373246916291,
			"0.018": 0.453432673944,
			"0.019": 0.0422392913667,
			"0.02": 0.0,
			"0.021": 0.0,
			"0.022": 0.0,
			"0.023": 0.0,
			"0.024": 0.0,
			"0.025": 0.0
		}
	}
}
