{
	 "smiles": "CNC(=O)NC(=O)C=C", 
	 "Tm": 448.15, 
	 "num_atms": 17, 
	 "gaussian": { 
		 "optdone": 1, 
		 "sigma_profile": "yes", 
		 "theory": "DFT", 
		 "functional": "B3LYP", 
		 "basiset": "6-31G**", 
		 "properties": { 
			 "R2extent": 2049.4424, 
			 "electric_dipole_moment_norm": 4.59512279814, 
			 "electric_quadrupole_moment_norm": 11.360159759, 
			 "total_energy": -455.305533323, 
			 "HOMO_LUMO_gap": 0.20103, 
			 "cosmo_polarized_energy": -14.55, 
			 "cosmo_cavitation_energy": 21.52, 
			 "cosmo_dispersion_energy": -15.44, 
			 "cosmo_repulsion_energy": 1.3, 
			 "cosmo_total_nonelectrostatic_energy": 7.37, 
			 "SMD_solvation_energy": 5.9 
		},
		"coords": [
			{
				"x": 0.7662568246,
				"y": 0.5084113616,
				"z": 2.3898227884,
				"element": "C" 
			},
			{
				"x": 1.1060140003,
				"y": 0.080195329,
				"z": 1.0436510902,
				"element": "N" 
			},
			{
				"x": 2.399610149,
				"y": 0.0202581879,
				"z": 0.6274814245,
				"element": "C" 
			},
			{
				"x": 3.3634839078,
				"y": 0.3171256309,
				"z": 1.3188147582,
				"element": "O" 
			},
			{
				"x": 2.642152981,
				"y": -0.3933829731,
				"z": -0.711985493,
				"element": "N" 
			},
			{
				"x": 1.8548952675,
				"y": -0.6197222066,
				"z": -1.8400998672,
				"element": "C" 
			},
			{
				"x": 2.3130456999,
				"y": -0.4168318805,
				"z": -2.9543408657,
				"element": "O" 
			},
			{
				"x": 0.4917911311,
				"y": -1.2195356941,
				"z": -1.7137126386,
				"element": "C" 
			},
			{
				"x": 0.1813028409,
				"y": -2.2281226366,
				"z": -0.8920044248,
				"element": "C" 
			},
			{
				"x": 0.2201449488,
				"y": -0.2749084611,
				"z": 2.9272853563,
				"element": "H" 
			},
			{
				"x": 1.6965307752,
				"y": 0.7194216532,
				"z": 2.9165073981,
				"element": "H" 
			},
			{
				"x": 0.1529766777,
				"y": 1.4162040094,
				"z": 2.372127137,
				"element": "H" 
			},
			{
				"x": 0.3691982277,
				"y": -0.1933971211,
				"z": 0.4129513524,
				"element": "H" 
			},
			{
				"x": 3.5999927021,
				"y": -0.1731387773,
				"z": -0.9634602197,
				"element": "H" 
			},
			{
				"x": -0.1993087851,
				"y": -0.8907855671,
				"z": -2.4850380302,
				"element": "H" 
			},
			{
				"x": -0.7843764678,
				"y": -2.7218889749,
				"z": -0.9467280491,
				"element": "H" 
			},
			{
				"x": 0.8869891193,
				"y": -2.6078018796,
				"z": -0.1589717169,
				"element": "H" 
			}
		],
		 "valence_orbital": [ 
			{
				"type": "occ",
				"energy": -0.30549,
				"method": "rhf"
			},
			{
				"type": "occ",
				"energy": -0.2927,
				"method": "rhf"
			},
			{
				"type": "occ",
				"energy": -0.27691,
				"method": "rhf"
			},
			{
				"type": "occ",
				"energy": -0.26116,
				"method": "rhf"
			},
			{
				"type": "occ",
				"energy": -0.25864,
				"method": "rhf"
			},
			{
				"type": "unocc",
				"energy": -0.05761,
				"method": "rhf"
			},
			{
				"type": "unocc",
				"energy": 0.02193,
				"method": "rhf"
			},
			{
				"type": "unocc",
				"energy": 0.0707,
				"method": "rhf"
			},
			{
				"type": "unocc",
				"energy": 0.09608,
				"method": "rhf"
			},
			{
				"type": "unocc",
				"energy": 0.10267,
				"method": "rhf"
			}
		],
		"cosmo_sigma_profile": { 
			"-0.025": 0.0,
			"-0.024": 0.0,
			"-0.023": 0.0,
			"-0.022": 0.0,
			"-0.021": 0.0,
			"-0.02": 0.0,
			"-0.019": 0.0,
			"-0.018": 0.0,
			"-0.017": 0.0,
			"-0.016": 0.0,
			"-0.015": 0.0,
			"-0.014": 0.478784745682,
			"-0.013": 0.588648031736,
			"-0.012": 0.740162564425,
			"-0.011": 1.71172184139,
			"-0.01": 1.11265853192,
			"-0.009": 1.58766977401,
			"-0.008": 4.47311453103,
			"-0.007": 8.00820628634,
			"-0.006": 8.16784023491,
			"-0.005": 14.3646820159,
			"-0.004": 16.5826969026,
			"-0.003": 16.288536571,
			"-0.002": 17.8692137841,
			"-0.001": 10.890831347,
			"0.0": 8.00953785316,
			"0.001": 7.8012605805,
			"0.002": 5.97047062731,
			"0.003": 4.83813026706,
			"0.004": 2.75283864106,
			"0.005": 3.56609662142,
			"0.006": 1.91842260734,
			"0.007": 2.4696712069,
			"0.008": 3.42250051167,
			"0.009": 2.24770410873,
			"0.01": 2.92368525024,
			"0.011": 4.76795697516,
			"0.012": 7.58550723335,
			"0.013": 7.49324940732,
			"0.014": 2.1478446757,
			"0.015": 0.0,
			"0.016": 0.0,
			"0.017": 0.0,
			"0.018": 0.0,
			"0.019": 0.0,
			"0.02": 0.0,
			"0.021": 0.0,
			"0.022": 0.0,
			"0.023": 0.0,
			"0.024": 0.0,
			"0.025": 0.0
		}
	}
}
