{
	 "smiles": "CC(C)N1N=CC(C(O)=O)=C1C1CC1", 
	 "Tm": 373.15, 
	 "num_atms": 28, 
	 "gaussian": { 
		 "optdone": 1, 
		 "sigma_profile": "yes", 
		 "theory": "DFT", 
		 "functional": "B3LYP", 
		 "basiset": "6-31G**", 
		 "properties": { 
			 "R2extent": 3035.1523, 
			 "electric_dipole_moment_norm": 2.2633062939, 
			 "electric_quadrupole_moment_norm": 8.67412607183, 
			 "total_energy": -649.435265438, 
			 "HOMO_LUMO_gap": 0.22555, 
			 "cosmo_polarized_energy": -11.97, 
			 "cosmo_cavitation_energy": 30.83, 
			 "cosmo_dispersion_energy": -21.44, 
			 "cosmo_repulsion_energy": 1.71, 
			 "cosmo_total_nonelectrostatic_energy": 11.1, 
			 "SMD_solvation_energy": 5.51 
		},
		"coords": [
			{
				"x": 1.9114749115,
				"y": 2.3009721557,
				"z": 1.5767499867,
				"element": "C" 
			},
			{
				"x": 0.6801081082,
				"y": 2.1945904821,
				"z": 0.6694268656,
				"element": "C" 
			},
			{
				"x": -0.2574678612,
				"y": 3.3982908285,
				"z": 0.8120443973,
				"element": "C" 
			},
			{
				"x": -0.0485900552,
				"y": 0.9469357492,
				"z": 0.9542094201,
				"element": "N" 
			},
			{
				"x": -0.5981184073,
				"y": 0.7901952987,
				"z": 2.1883701293,
				"element": "N" 
			},
			{
				"x": -1.1382836134,
				"y": -0.4178475335,
				"z": 2.170126865,
				"element": "C" 
			},
			{
				"x": -0.9403275514,
				"y": -1.063334905,
				"z": 0.9244708238,
				"element": "C" 
			},
			{
				"x": -1.3584750811,
				"y": -2.4162909189,
				"z": 0.5626130994,
				"element": "C" 
			},
			{
				"x": -2.0582593028,
				"y": -3.0093512876,
				"z": 1.5714854378,
				"element": "O" 
			},
			{
				"x": -1.137438721,
				"y": -3.0007238706,
				"z": -0.483299112,
				"element": "O" 
			},
			{
				"x": -0.2280697148,
				"y": -0.1362077278,
				"z": 0.148378656,
				"element": "C" 
			},
			{
				"x": 0.3039599307,
				"y": -0.2090639965,
				"z": -1.2357727112,
				"element": "C" 
			},
			{
				"x": -0.1882535754,
				"y": 0.7437490009,
				"z": -2.3191975277,
				"element": "C" 
			},
			{
				"x": -0.5524816387,
				"y": -0.7125285952,
				"z": -2.367865103,
				"element": "C" 
			},
			{
				"x": 2.4708798509,
				"y": 3.212290322,
				"z": 1.3437643793,
				"element": "H" 
			},
			{
				"x": 2.5768975613,
				"y": 1.4436163697,
				"z": 1.4378860786,
				"element": "H" 
			},
			{
				"x": 1.6071027383,
				"y": 2.3339091878,
				"z": 2.6258955452,
				"element": "H" 
			},
			{
				"x": 1.0034887616,
				"y": 2.1088851282,
				"z": -0.3702320221,
				"element": "H" 
			},
			{
				"x": -0.6356851868,
				"y": 3.4655899378,
				"z": 1.8349663538,
				"element": "H" 
			},
			{
				"x": -1.1123430049,
				"y": 3.3129353952,
				"z": 0.1345545837,
				"element": "H" 
			},
			{
				"x": 0.2802312307,
				"y": 4.3211024009,
				"z": 0.5736382694,
				"element": "H" 
			},
			{
				"x": -1.6516660585,
				"y": -0.8033525776,
				"z": 3.0397532969,
				"element": "H" 
			},
			{
				"x": -2.2764111462,
				"y": -3.8969103758,
				"z": 1.243611811,
				"element": "H" 
			},
			{
				"x": 1.3587662553,
				"y": -0.4748328201,
				"z": -1.2929878347,
				"element": "H" 
			},
			{
				"x": 0.5439532329,
				"y": 1.1286980328,
				"z": -3.0228268174,
				"element": "H" 
			},
			{
				"x": -0.968275831,
				"y": 1.4509836287,
				"z": -2.0529472092,
				"element": "H" 
			},
			{
				"x": -1.5704694891,
				"y": -0.9974402757,
				"z": -2.132119605,
				"element": "H" 
			},
			{
				"x": -0.0750463427,
				"y": -1.349459034,
				"z": -3.1046980567,
				"element": "H" 
			}
		],
		 "valence_orbital": [ 
			{
				"type": "occ",
				"energy": -0.30305,
				"method": "rhf"
			},
			{
				"type": "occ",
				"energy": -0.28266,
				"method": "rhf"
			},
			{
				"type": "occ",
				"energy": -0.26199,
				"method": "rhf"
			},
			{
				"type": "occ",
				"energy": -0.25297,
				"method": "rhf"
			},
			{
				"type": "occ",
				"energy": -0.24339,
				"method": "rhf"
			},
			{
				"type": "unocc",
				"energy": -0.01784,
				"method": "rhf"
			},
			{
				"type": "unocc",
				"energy": 0.01976,
				"method": "rhf"
			},
			{
				"type": "unocc",
				"energy": 0.08058,
				"method": "rhf"
			},
			{
				"type": "unocc",
				"energy": 0.08996,
				"method": "rhf"
			},
			{
				"type": "unocc",
				"energy": 0.09536,
				"method": "rhf"
			}
		],
		"cosmo_sigma_profile": { 
			"-0.025": 0.0,
			"-0.024": 0.0,
			"-0.023": 0.0,
			"-0.022": 0.0,
			"-0.021": 0.0,
			"-0.02": 0.0,
			"-0.019": 0.0,
			"-0.018": 0.333437303244,
			"-0.017": 0.75042447037,
			"-0.016": 0.710117439695,
			"-0.015": 1.24685712504,
			"-0.014": 0.559874936864,
			"-0.013": 0.951487718906,
			"-0.012": 0.0437881268783,
			"-0.011": 0.302559968525,
			"-0.01": 0.883393984433,
			"-0.009": 0.715644536893,
			"-0.008": 1.02915303476,
			"-0.007": 1.74201445704,
			"-0.006": 3.70319263021,
			"-0.005": 12.0058792138,
			"-0.004": 27.6956152591,
			"-0.003": 26.0006350669,
			"-0.002": 24.7439650167,
			"-0.001": 23.4094802292,
			"0.0": 25.6565103424,
			"0.001": 16.3754298836,
			"0.002": 13.7814140133,
			"0.003": 11.2553789987,
			"0.004": 9.14595032112,
			"0.005": 5.76964582598,
			"0.006": 4.48396279571,
			"0.007": 6.10009528864,
			"0.008": 4.67699651015,
			"0.009": 3.62773046076,
			"0.01": 3.03769768714,
			"0.011": 3.20544506348,
			"0.012": 5.15789130172,
			"0.013": 2.77278614074,
			"0.014": 0.5921303781,
			"0.015": 0.0,
			"0.016": 0.0,
			"0.017": 0.0,
			"0.018": 0.0,
			"0.019": 0.0,
			"0.02": 0.0,
			"0.021": 0.0,
			"0.022": 0.0,
			"0.023": 0.0,
			"0.024": 0.0,
			"0.025": 0.0
		}
	}
}
