{
	 "smiles": "OC(=O)CCC1CCCCCCCCCCC1=O", 
	 "Tm": 362.15, 
	 "num_atms": 44, 
	 "gaussian": { 
		 "optdone": 1, 
		 "sigma_profile": "yes", 
		 "theory": "DFT", 
		 "functional": "B3LYP", 
		 "basiset": "6-31G**", 
		 "properties": { 
			 "R2extent": 6204.0311, 
			 "electric_dipole_moment_norm": 3.85959314566, 
			 "electric_quadrupole_moment_norm": 18.7690114015, 
			 "total_energy": -812.961548364, 
			 "HOMO_LUMO_gap": 0.22173, 
			 "cosmo_polarized_energy": -14.94, 
			 "cosmo_cavitation_energy": 40.86, 
			 "cosmo_dispersion_energy": -27.83, 
			 "cosmo_repulsion_energy": 2.15, 
			 "cosmo_total_nonelectrostatic_energy": 15.18, 
			 "SMD_solvation_energy": 6.67 
		},
		"coords": [
			{
				"x": -4.6456120922,
				"y": -0.5864581251,
				"z": 2.7913410615,
				"element": "O" 
			},
			{
				"x": -3.5104921412,
				"y": 0.0438536349,
				"z": 3.1866813558,
				"element": "C" 
			},
			{
				"x": -3.5024959827,
				"y": 1.2030742984,
				"z": 3.5371322291,
				"element": "O" 
			},
			{
				"x": -2.32181224,
				"y": -0.8960258357,
				"z": 3.1662855103,
				"element": "C" 
			},
			{
				"x": -0.9636169478,
				"y": -0.18262051,
				"z": 3.2377748432,
				"element": "C" 
			},
			{
				"x": -0.2634187412,
				"y": 0.1534385128,
				"z": 1.894576751,
				"element": "C" 
			},
			{
				"x": -1.0029379702,
				"y": 1.1642011205,
				"z": 0.9751494353,
				"element": "C" 
			},
			{
				"x": -2.2086242451,
				"y": 0.6818530464,
				"z": 0.1384916268,
				"element": "C" 
			},
			{
				"x": -1.9840994779,
				"y": -0.3963362315,
				"z": -0.9452097317,
				"element": "C" 
			},
			{
				"x": -0.9209166498,
				"y": -0.0519594953,
				"z": -2.0183707223,
				"element": "C" 
			},
			{
				"x": 0.4125373267,
				"y": -0.7876063966,
				"z": -1.7929629799,
				"element": "C" 
			},
			{
				"x": 1.6417245267,
				"y": -0.1188590545,
				"z": -2.42438517,
				"element": "C" 
			},
			{
				"x": 2.9948439788,
				"y": -0.6989911029,
				"z": -1.9536112858,
				"element": "C" 
			},
			{
				"x": 3.1137431938,
				"y": -0.9067462038,
				"z": -0.4288960141,
				"element": "C" 
			},
			{
				"x": 2.7528273638,
				"y": 0.3286108593,
				"z": 0.4163549924,
				"element": "C" 
			},
			{
				"x": 2.3741388616,
				"y": 0.0065698252,
				"z": 1.8953337073,
				"element": "C" 
			},
			{
				"x": 1.1055701645,
				"y": 0.7548343069,
				"z": 2.2907765323,
				"element": "C" 
			},
			{
				"x": 1.1559045996,
				"y": 1.8123655101,
				"z": 2.8921561099,
				"element": "O" 
			},
			{
				"x": -5.3588589242,
				"y": 0.0693384649,
				"z": 2.87162761,
				"element": "H" 
			},
			{
				"x": -2.4097631557,
				"y": -1.5638137891,
				"z": 2.303407971,
				"element": "H" 
			},
			{
				"x": -2.4486840734,
				"y": -1.5401124617,
				"z": 4.0471009598,
				"element": "H" 
			},
			{
				"x": -1.0792859423,
				"y": 0.7449116357,
				"z": 3.805774651,
				"element": "H" 
			},
			{
				"x": -0.2807120602,
				"y": -0.8187258424,
				"z": 3.8143398347,
				"element": "H" 
			},
			{
				"x": -0.0912896398,
				"y": -0.7830725148,
				"z": 1.3490787164,
				"element": "H" 
			},
			{
				"x": -1.327278566,
				"y": 2.002382671,
				"z": 1.6004986016,
				"element": "H" 
			},
			{
				"x": -0.2677727531,
				"y": 1.5898427023,
				"z": 0.2802042325,
				"element": "H" 
			},
			{
				"x": -2.6065824601,
				"y": 1.5753848375,
				"z": -0.362031962,
				"element": "H" 
			},
			{
				"x": -3.018373453,
				"y": 0.3370866251,
				"z": 0.7880349686,
				"element": "H" 
			},
			{
				"x": -2.9554023386,
				"y": -0.5626925344,
				"z": -1.4263842,
				"element": "H" 
			},
			{
				"x": -1.7260041763,
				"y": -1.3562585922,
				"z": -0.4768864,
				"element": "H" 
			},
			{
				"x": -1.3047524565,
				"y": -0.2855784593,
				"z": -3.018661781,
				"element": "H" 
			},
			{
				"x": -0.7438797944,
				"y": 1.0323945346,
				"z": -2.0174583815,
				"element": "H" 
			},
			{
				"x": 0.3247853702,
				"y": -1.8252544892,
				"z": -2.144140847,
				"element": "H" 
			},
			{
				"x": 0.5698614541,
				"y": -0.8611783361,
				"z": -0.7139090027,
				"element": "H" 
			},
			{
				"x": 1.5872498786,
				"y": -0.1820719298,
				"z": -3.5187831379,
				"element": "H" 
			},
			{
				"x": 1.6102938431,
				"y": 0.9541821163,
				"z": -2.1933821611,
				"element": "H" 
			},
			{
				"x": 3.7979040309,
				"y": -0.0373049472,
				"z": -2.303588342,
				"element": "H" 
			},
			{
				"x": 3.1685971977,
				"y": -1.6676241098,
				"z": -2.4403201331,
				"element": "H" 
			},
			{
				"x": 2.4579199283,
				"y": -1.7363079945,
				"z": -0.1373658168,
				"element": "H" 
			},
			{
				"x": 4.1310749405,
				"y": -1.2393392124,
				"z": -0.1869072664,
				"element": "H" 
			},
			{
				"x": 1.9137318998,
				"y": 0.8463801319,
				"z": -0.0562404873,
				"element": "H" 
			},
			{
				"x": 3.5754478548,
				"y": 1.0516369146,
				"z": 0.4055782739,
				"element": "H" 
			},
			{
				"x": 2.2135693776,
				"y": -1.0722565942,
				"z": 2.0103851883,
				"element": "H" 
			},
			{
				"x": 3.1717404902,
				"y": 0.3075530141,
				"z": 2.57911066,
				"element": "H" 
			}
		],
		 "valence_orbital": [ 
			{
				"type": "occ",
				"energy": -0.31138,
				"method": "rhf"
			},
			{
				"type": "occ",
				"energy": -0.30691,
				"method": "rhf"
			},
			{
				"type": "occ",
				"energy": -0.30134,
				"method": "rhf"
			},
			{
				"type": "occ",
				"energy": -0.27707,
				"method": "rhf"
			},
			{
				"type": "occ",
				"energy": -0.23264,
				"method": "rhf"
			},
			{
				"type": "unocc",
				"energy": -0.01091,
				"method": "rhf"
			},
			{
				"type": "unocc",
				"energy": 0.00758,
				"method": "rhf"
			},
			{
				"type": "unocc",
				"energy": 0.06879,
				"method": "rhf"
			},
			{
				"type": "unocc",
				"energy": 0.07318,
				"method": "rhf"
			},
			{
				"type": "unocc",
				"energy": 0.07483,
				"method": "rhf"
			}
		],
		"cosmo_sigma_profile": { 
			"-0.025": 0.0,
			"-0.024": 0.0,
			"-0.023": 0.0,
			"-0.022": 0.0,
			"-0.021": 0.0,
			"-0.02": 0.0,
			"-0.019": 0.0,
			"-0.018": 0.533710261905,
			"-0.017": 0.808023098655,
			"-0.016": 1.23772696225,
			"-0.015": 0.71284218594,
			"-0.014": 0.70886377384,
			"-0.013": 0.190343532539,
			"-0.012": 0.462505753939,
			"-0.011": 1.44111212287,
			"-0.01": 0.955201376671,
			"-0.009": 0.492219353772,
			"-0.008": 0.723223910795,
			"-0.007": 2.58547408519,
			"-0.006": 4.79630284168,
			"-0.005": 10.6206344951,
			"-0.004": 20.6126128419,
			"-0.003": 27.016104251,
			"-0.002": 40.4412847485,
			"-0.001": 48.2966108767,
			"0.0": 51.9969602007,
			"0.001": 31.9194184044,
			"0.002": 12.1680817994,
			"0.003": 5.3236353596,
			"0.004": 4.63534932346,
			"0.005": 6.09157910669,
			"0.006": 4.56054087459,
			"0.007": 4.79500396984,
			"0.008": 4.60669819462,
			"0.009": 3.95507393783,
			"0.01": 3.95386182131,
			"0.011": 6.07589336962,
			"0.012": 7.82037227852,
			"0.013": 3.03343267974,
			"0.014": 0.602876112473,
			"0.015": 0.0,
			"0.016": 0.0,
			"0.017": 0.0,
			"0.018": 0.0,
			"0.019": 0.0,
			"0.02": 0.0,
			"0.021": 0.0,
			"0.022": 0.0,
			"0.023": 0.0,
			"0.024": 0.0,
			"0.025": 0.0
		}
	}
}
