{
	 "smiles": "CC1CN(CC(C)O1)C1=C(N)C=CC=C1", 
	 "Tm": 357.15, 
	 "num_atms": 33, 
	 "gaussian": { 
		 "optdone": 1, 
		 "sigma_profile": "yes", 
		 "theory": "DFT", 
		 "functional": "B3LYP", 
		 "basiset": "6-31G**", 
		 "properties": { 
			 "R2extent": 3809.6225, 
			 "electric_dipole_moment_norm": 1.49521349981, 
			 "electric_quadrupole_moment_norm": 7.06183044118, 
			 "total_energy": -652.851505744, 
			 "HOMO_LUMO_gap": 0.20135, 
			 "cosmo_polarized_energy": -9.33, 
			 "cosmo_cavitation_energy": 33.27, 
			 "cosmo_dispersion_energy": -23.82, 
			 "cosmo_repulsion_energy": 1.87, 
			 "cosmo_total_nonelectrostatic_energy": 11.31, 
			 "SMD_solvation_energy": 5.1 
		},
		"coords": [
			{
				"x": -1.4751126653,
				"y": 2.3485690923,
				"z": -2.4339931111,
				"element": "C" 
			},
			{
				"x": -1.5740579962,
				"y": 0.8366369625,
				"z": -2.2069068272,
				"element": "C" 
			},
			{
				"x": -1.7842102273,
				"y": 0.4510235905,
				"z": -0.7348608422,
				"element": "C" 
			},
			{
				"x": -0.5606570647,
				"y": 0.7017733926,
				"z": 0.0259713279,
				"element": "N" 
			},
			{
				"x": 0.5501721486,
				"y": -0.0896767355,
				"z": -0.535960024,
				"element": "C" 
			},
			{
				"x": 0.7617816575,
				"y": 0.2781809282,
				"z": -2.0061119697,
				"element": "C" 
			},
			{
				"x": 1.7978951136,
				"y": -0.6063949184,
				"z": -2.685590221,
				"element": "C" 
			},
			{
				"x": -0.4529064127,
				"y": 0.1272266623,
				"z": -2.7452918989,
				"element": "O" 
			},
			{
				"x": -0.6666683217,
				"y": 0.6288149846,
				"z": 1.4515132825,
				"element": "C" 
			},
			{
				"x": 0.2470097106,
				"y": 1.402416645,
				"z": 2.2123964196,
				"element": "C" 
			},
			{
				"x": 1.2160041775,
				"y": 2.1602868294,
				"z": 1.547296459,
				"element": "N" 
			},
			{
				"x": 0.1769058136,
				"y": 1.3619823887,
				"z": 3.6107578546,
				"element": "C" 
			},
			{
				"x": -0.7879870734,
				"y": 0.5894900277,
				"z": 4.2568529599,
				"element": "C" 
			},
			{
				"x": -1.7021020443,
				"y": -0.1543618254,
				"z": 3.5129168539,
				"element": "C" 
			},
			{
				"x": -1.6302256142,
				"y": -0.134311395,
				"z": 2.1173480721,
				"element": "C" 
			},
			{
				"x": -0.7217949735,
				"y": 2.808478589,
				"z": -1.7896729407,
				"element": "H" 
			},
			{
				"x": -1.2195252169,
				"y": 2.5525437455,
				"z": -3.4776738415,
				"element": "H" 
			},
			{
				"x": -2.4361322425,
				"y": 2.8264507824,
				"z": -2.215377793,
				"element": "H" 
			},
			{
				"x": -2.4287682343,
				"y": 0.4555024109,
				"z": -2.7782983396,
				"element": "H" 
			},
			{
				"x": -2.6005756367,
				"y": 1.0384208273,
				"z": -0.3027286726,
				"element": "H" 
			},
			{
				"x": -2.0763822137,
				"y": -0.6137522627,
				"z": -0.7010674883,
				"element": "H" 
			},
			{
				"x": 1.4593943963,
				"y": 0.1210292436,
				"z": 0.0333555263,
				"element": "H" 
			},
			{
				"x": 0.3362690361,
				"y": -1.170996307,
				"z": -0.4575735844,
				"element": "H" 
			},
			{
				"x": 1.094111547,
				"y": 1.3281571511,
				"z": -2.0511630471,
				"element": "H" 
			},
			{
				"x": 1.9028955356,
				"y": -0.3226109607,
				"z": -3.7361636431,
				"element": "H" 
			},
			{
				"x": 2.7729183552,
				"y": -0.5068325756,
				"z": -2.1981295156,
				"element": "H" 
			},
			{
				"x": 1.4904400661,
				"y": -1.655956932,
				"z": -2.6448901662,
				"element": "H" 
			},
			{
				"x": 1.5774288606,
				"y": 2.9354860774,
				"z": 2.0876441255,
				"element": "H" 
			},
			{
				"x": 0.9009987031,
				"y": 2.4465997649,
				"z": 0.6261297413,
				"element": "H" 
			},
			{
				"x": 0.8791044525,
				"y": 1.9562384666,
				"z": 4.1911378541,
				"element": "H" 
			},
			{
				"x": -0.8282692954,
				"y": 0.5814027401,
				"z": 5.3423841019,
				"element": "H" 
			},
			{
				"x": -2.4608350476,
				"y": -0.7526465487,
				"z": 4.0079850801,
				"element": "H" 
			},
			{
				"x": -2.3356192934,
				"y": -0.7227708412,
				"z": 1.5395642677,
				"element": "H" 
			}
		],
		 "valence_orbital": [ 
			{
				"type": "occ",
				"energy": -0.29132,
				"method": "rhf"
			},
			{
				"type": "occ",
				"energy": -0.26289,
				"method": "rhf"
			},
			{
				"type": "occ",
				"energy": -0.24462,
				"method": "rhf"
			},
			{
				"type": "occ",
				"energy": -0.21775,
				"method": "rhf"
			},
			{
				"type": "occ",
				"energy": -0.19076,
				"method": "rhf"
			},
			{
				"type": "unocc",
				"energy": 0.01059,
				"method": "rhf"
			},
			{
				"type": "unocc",
				"energy": 0.02236,
				"method": "rhf"
			},
			{
				"type": "unocc",
				"energy": 0.07243,
				"method": "rhf"
			},
			{
				"type": "unocc",
				"energy": 0.09751,
				"method": "rhf"
			},
			{
				"type": "unocc",
				"energy": 0.10069,
				"method": "rhf"
			}
		],
		"cosmo_sigma_profile": { 
			"-0.025": 0.0,
			"-0.024": 0.0,
			"-0.023": 0.0,
			"-0.022": 0.0,
			"-0.021": 0.0,
			"-0.02": 0.0,
			"-0.019": 0.0,
			"-0.018": 0.0,
			"-0.017": 0.0,
			"-0.016": 0.0,
			"-0.015": 0.0,
			"-0.014": 0.0,
			"-0.013": 0.0,
			"-0.012": 0.912279802852,
			"-0.011": 1.16695130714,
			"-0.01": 1.39740605788,
			"-0.009": 2.06480639045,
			"-0.008": 2.55738651132,
			"-0.007": 2.38351409037,
			"-0.006": 3.33132312106,
			"-0.005": 7.99751830915,
			"-0.004": 23.229245054,
			"-0.003": 34.5945445982,
			"-0.002": 33.413444141,
			"-0.001": 26.4797578687,
			"0.0": 24.7907522389,
			"0.001": 19.9551408057,
			"0.002": 11.4764509344,
			"0.003": 9.0244846201,
			"0.004": 10.3354820834,
			"0.005": 9.60302363274,
			"0.006": 10.2017612405,
			"0.007": 9.36702400055,
			"0.008": 5.16339097624,
			"0.009": 1.39788044596,
			"0.01": 1.83954355781,
			"0.011": 1.99225674334,
			"0.012": 1.85558517937,
			"0.013": 2.03721438687,
			"0.014": 0.809207024938,
			"0.015": 0.0,
			"0.016": 0.0,
			"0.017": 0.0,
			"0.018": 0.0,
			"0.019": 0.0,
			"0.02": 0.0,
			"0.021": 0.0,
			"0.022": 0.0,
			"0.023": 0.0,
			"0.024": 0.0,
			"0.025": 0.0
		}
	}
}
