{
	 "smiles": "CC(C)CCCC(C)C1CCC2C3CC(OC(C)=O)C4(O)CC(CCC4(C)C3CCC12C)OC(C)=O", 
	 "Tm": 437.15, 
	 "num_atms": 88, 
	 "gaussian": { 
		 "optdone": 1, 
		 "sigma_profile": "yes", 
		 "theory": "DFT", 
		 "functional": "B3LYP", 
		 "basiset": "6-31G**", 
		 "properties": { 
			 "R2extent": 27006.7529, 
			 "electric_dipole_moment_norm": 2.36542321795, 
			 "electric_quadrupole_moment_norm": 18.3493446169, 
			 "total_energy": -1588.80618366, 
			 "HOMO_LUMO_gap": 0.25756, 
			 "cosmo_polarized_energy": -13.58, 
			 "cosmo_cavitation_energy": 74.32, 
			 "cosmo_dispersion_energy": -48.56, 
			 "cosmo_repulsion_energy": 3.61, 
			 "cosmo_total_nonelectrostatic_energy": 29.37, 
			 "SMD_solvation_energy": 12.69 
		},
		"coords": [
			{
				"x": -3.3567351773,
				"y": -5.9083541478,
				"z": -2.0270150623,
				"element": "C" 
			},
			{
				"x": -2.1316940749,
				"y": -6.8246999253,
				"z": -1.8883669913,
				"element": "C" 
			},
			{
				"x": -1.881254902,
				"y": -7.6036260681,
				"z": -3.1896787562,
				"element": "C" 
			},
			{
				"x": -0.8609398161,
				"y": -6.0924105668,
				"z": -1.3928700207,
				"element": "C" 
			},
			{
				"x": -0.3398247435,
				"y": -4.9172869131,
				"z": -2.2552671462,
				"element": "C" 
			},
			{
				"x": -0.8206845368,
				"y": -3.5283878751,
				"z": -1.7967790149,
				"element": "C" 
			},
			{
				"x": -0.2927321152,
				"y": -2.3635230697,
				"z": -2.6721428526,
				"element": "C" 
			},
			{
				"x": 1.1964577764,
				"y": -2.077401454,
				"z": -2.4105361314,
				"element": "C" 
			},
			{
				"x": -1.248109514,
				"y": -1.1275391291,
				"z": -2.6952684123,
				"element": "C" 
			},
			{
				"x": -0.893640477,
				"y": -0.1211095395,
				"z": -3.820747768,
				"element": "C" 
			},
			{
				"x": -0.0704394851,
				"y": 0.9966932016,
				"z": -3.1596032784,
				"element": "C" 
			},
			{
				"x": -0.5692267971,
				"y": 1.096725884,
				"z": -1.6913446826,
				"element": "C" 
			},
			{
				"x": 0.6042659815,
				"y": 1.3065472229,
				"z": -0.6999527375,
				"element": "C" 
			},
			{
				"x": 1.2835534817,
				"y": 2.6684891668,
				"z": -0.9678887737,
				"element": "C" 
			},
			{
				"x": 2.3344425751,
				"y": 3.0241742191,
				"z": 0.0778614951,
				"element": "C" 
			},
			{
				"x": 3.4072550906,
				"y": 2.0660642568,
				"z": -0.1694467214,
				"element": "O" 
			},
			{
				"x": 4.6235226435,
				"y": 2.3051305315,
				"z": 0.3390183005,
				"element": "C" 
			},
			{
				"x": 5.6291432071,
				"y": 1.2922437313,
				"z": -0.1525847957,
				"element": "C" 
			},
			{
				"x": 4.876610879,
				"y": 3.2166092,
				"z": 1.1090124598,
				"element": "O" 
			},
			{
				"x": 1.7903345074,
				"y": 2.9725848437,
				"z": 1.5655017509,
				"element": "C" 
			},
			{
				"x": 2.5776559147,
				"y": 2.0566822363,
				"z": 2.3311480492,
				"element": "O" 
			},
			{
				"x": 1.8730165091,
				"y": 4.372166908,
				"z": 2.2200883736,
				"element": "C" 
			},
			{
				"x": 0.9566574399,
				"y": 4.5129768807,
				"z": 3.4524313426,
				"element": "C" 
			},
			{
				"x": 0.6652518925,
				"y": 3.1791784452,
				"z": 4.1375154678,
				"element": "C" 
			},
			{
				"x": 0.0673632332,
				"y": 2.1227872928,
				"z": 3.1667016453,
				"element": "C" 
			},
			{
				"x": 0.3249954131,
				"y": 2.417411439,
				"z": 1.654806475,
				"element": "C" 
			},
			{
				"x": -0.7437028743,
				"y": 3.4462548778,
				"z": 1.1508838202,
				"element": "C" 
			},
			{
				"x": 0.2667307201,
				"y": 1.1007103688,
				"z": 0.8238575213,
				"element": "C" 
			},
			{
				"x": -1.0319381188,
				"y": 0.2948165065,
				"z": 1.0221861424,
				"element": "C" 
			},
			{
				"x": -1.1694083302,
				"y": -0.7947689975,
				"z": -0.05105595,
				"element": "C" 
			},
			{
				"x": -1.4583164716,
				"y": -0.1867961936,
				"z": -1.4417475224,
				"element": "C" 
			},
			{
				"x": -2.9473849589,
				"y": 0.2450528662,
				"z": -1.476443729,
				"element": "C" 
			},
			{
				"x": 1.5892951369,
				"y": 5.3645026168,
				"z": 4.4493540539,
				"element": "O" 
			},
			{
				"x": 1.4814441118,
				"y": 6.6993264719,
				"z": 4.2667451492,
				"element": "C" 
			},
			{
				"x": 2.1714312757,
				"y": 7.4495166236,
				"z": 5.3828488567,
				"element": "C" 
			},
			{
				"x": 0.9092696815,
				"y": 7.2143456582,
				"z": 3.3288270338,
				"element": "O" 
			},
			{
				"x": -3.5597214286,
				"y": -5.3635713171,
				"z": -1.0984521036,
				"element": "H" 
			},
			{
				"x": -3.2195202223,
				"y": -5.1708075975,
				"z": -2.8258267963,
				"element": "H" 
			},
			{
				"x": -4.2512311718,
				"y": -6.4911174672,
				"z": -2.2739511353,
				"element": "H" 
			},
			{
				"x": -2.3697553069,
				"y": -7.5668987229,
				"z": -1.1122113256,
				"element": "H" 
			},
			{
				"x": -1.0404868985,
				"y": -8.2980943398,
				"z": -3.0827971796,
				"element": "H" 
			},
			{
				"x": -2.7639741584,
				"y": -8.1879305744,
				"z": -3.4720208599,
				"element": "H" 
			},
			{
				"x": -1.6543665869,
				"y": -6.933390333,
				"z": -4.0266765571,
				"element": "H" 
			},
			{
				"x": -0.0690345615,
				"y": -6.8471248917,
				"z": -1.3027380583,
				"element": "H" 
			},
			{
				"x": -1.040736909,
				"y": -5.7294313016,
				"z": -0.3715544524,
				"element": "H" 
			},
			{
				"x": -0.617930758,
				"y": -5.0670540778,
				"z": -3.3070532354,
				"element": "H" 
			},
			{
				"x": 0.7564871736,
				"y": -4.9337174117,
				"z": -2.2389898843,
				"element": "H" 
			},
			{
				"x": -1.9167717847,
				"y": -3.5086764053,
				"z": -1.8022947727,
				"element": "H" 
			},
			{
				"x": -0.5232772989,
				"y": -3.3884016479,
				"z": -0.7510100151,
				"element": "H" 
			},
			{
				"x": -0.3486048485,
				"y": -2.7313333856,
				"z": -3.7090553593,
				"element": "H" 
			},
			{
				"x": 1.6045753147,
				"y": -1.364046057,
				"z": -3.1319428327,
				"element": "H" 
			},
			{
				"x": 1.3749314648,
				"y": -1.677499471,
				"z": -1.407752695,
				"element": "H" 
			},
			{
				"x": 1.7867955941,
				"y": -2.9948398025,
				"z": -2.5026574078,
				"element": "H" 
			},
			{
				"x": -2.2245582776,
				"y": -1.5709669203,
				"z": -2.9289748807,
				"element": "H" 
			},
			{
				"x": -1.81524063,
				"y": 0.2976364786,
				"z": -4.2409677862,
				"element": "H" 
			},
			{
				"x": -0.3633982154,
				"y": -0.5959183729,
				"z": -4.6539780411,
				"element": "H" 
			},
			{
				"x": -0.1592019232,
				"y": 1.9460351894,
				"z": -3.6981647348,
				"element": "H" 
			},
			{
				"x": 0.9938710449,
				"y": 0.734974752,
				"z": -3.1682611701,
				"element": "H" 
			},
			{
				"x": -1.2280755825,
				"y": 1.9711316286,
				"z": -1.6083619874,
				"element": "H" 
			},
			{
				"x": 1.3536039351,
				"y": 0.5450800242,
				"z": -0.9441276506,
				"element": "H" 
			},
			{
				"x": 1.7691666053,
				"y": 2.659236639,
				"z": -1.9489671233,
				"element": "H" 
			},
			{
				"x": 0.5409629883,
				"y": 3.4705258169,
				"z": -1.0035629743,
				"element": "H" 
			},
			{
				"x": 2.7547503349,
				"y": 4.0163112605,
				"z": -0.1133344133,
				"element": "H" 
			},
			{
				"x": 5.3397033232,
				"y": 0.2942519926,
				"z": 0.1905851968,
				"element": "H" 
			},
			{
				"x": 5.6432668094,
				"y": 1.2701497562,
				"z": -1.2456963068,
				"element": "H" 
			},
			{
				"x": 6.6168477809,
				"y": 1.5432302772,
				"z": 0.2325321353,
				"element": "H" 
			},
			{
				"x": 3.4587248236,
				"y": 2.4522772573,
				"z": 2.4070177179,
				"element": "H" 
			},
			{
				"x": 2.9129840402,
				"y": 4.5374551009,
				"z": 2.5207848166,
				"element": "H" 
			},
			{
				"x": 1.6348113079,
				"y": 5.165341505,
				"z": 1.5051601278,
				"element": "H" 
			},
			{
				"x": 0.028506314,
				"y": 5.0087517727,
				"z": 3.1617794861,
				"element": "H" 
			},
			{
				"x": 1.6036794536,
				"y": 2.801119786,
				"z": 4.5496673544,
				"element": "H" 
			},
			{
				"x": -0.0114519099,
				"y": 3.3561946376,
				"z": 4.9800952139,
				"element": "H" 
			},
			{
				"x": 0.4949802002,
				"y": 1.1510406038,
				"z": 3.4231856912,
				"element": "H" 
			},
			{
				"x": -1.0135651923,
				"y": 2.0427558428,
				"z": 3.3203719064,
				"element": "H" 
			},
			{
				"x": -1.3067735296,
				"y": 3.0600726741,
				"z": 0.2990608347,
				"element": "H" 
			},
			{
				"x": -0.3198981143,
				"y": 4.4034946003,
				"z": 0.8396534346,
				"element": "H" 
			},
			{
				"x": -1.4778919989,
				"y": 3.6686975062,
				"z": 1.9298211968,
				"element": "H" 
			},
			{
				"x": 1.0778176907,
				"y": 0.4822260217,
				"z": 1.2252264911,
				"element": "H" 
			},
			{
				"x": -1.0282556594,
				"y": -0.1646044986,
				"z": 2.0162286752,
				"element": "H" 
			},
			{
				"x": -1.908896715,
				"y": 0.9526604841,
				"z": 0.9977162849,
				"element": "H" 
			},
			{
				"x": -0.2419585042,
				"y": -1.3744078803,
				"z": -0.0622955744,
				"element": "H" 
			},
			{
				"x": -1.9673961296,
				"y": -1.4970262398,
				"z": 0.218623385,
				"element": "H" 
			},
			{
				"x": -3.606460603,
				"y": -0.6167290975,
				"z": -1.32134634,
				"element": "H" 
			},
			{
				"x": -3.1769785,
				"y": 0.983658696,
				"z": -0.7018861505,
				"element": "H" 
			},
			{
				"x": -3.2103321808,
				"y": 0.696689461,
				"z": -2.4387436071,
				"element": "H" 
			},
			{
				"x": 2.0219483222,
				"y": 8.5202509567,
				"z": 5.247493077,
				"element": "H" 
			},
			{
				"x": 1.7773988784,
				"y": 7.1327863898,
				"z": 6.3526426314,
				"element": "H" 
			},
			{
				"x": 3.2417671221,
				"y": 7.2215631326,
				"z": 5.376560163,
				"element": "H" 
			}
		],
		 "valence_orbital": [ 
			{
				"type": "occ",
				"energy": -0.27892,
				"method": "rhf"
			},
			{
				"type": "occ",
				"energy": -0.27624,
				"method": "rhf"
			},
			{
				"type": "occ",
				"energy": -0.268,
				"method": "rhf"
			},
			{
				"type": "occ",
				"energy": -0.26025,
				"method": "rhf"
			},
			{
				"type": "occ",
				"energy": -0.25605,
				"method": "rhf"
			},
			{
				"type": "unocc",
				"energy": 0.00151,
				"method": "rhf"
			},
			{
				"type": "unocc",
				"energy": 0.01992,
				"method": "rhf"
			},
			{
				"type": "unocc",
				"energy": 0.06337,
				"method": "rhf"
			},
			{
				"type": "unocc",
				"energy": 0.0742,
				"method": "rhf"
			},
			{
				"type": "unocc",
				"energy": 0.08114,
				"method": "rhf"
			}
		],
		"cosmo_sigma_profile": { 
			"-0.025": 0.0,
			"-0.024": 0.0,
			"-0.023": 0.0,
			"-0.022": 0.0,
			"-0.021": 0.0,
			"-0.02": 0.0,
			"-0.019": 0.0,
			"-0.018": 0.0,
			"-0.017": 0.0,
			"-0.016": 0.0,
			"-0.015": 0.0,
			"-0.014": 0.0,
			"-0.013": 0.0,
			"-0.012": 0.0,
			"-0.011": 0.0,
			"-0.01": 0.0,
			"-0.009": 0.112134027457,
			"-0.008": 0.655750911527,
			"-0.007": 3.24481947915,
			"-0.006": 12.4403960509,
			"-0.005": 17.6283990427,
			"-0.004": 22.4216887298,
			"-0.003": 41.2604865986,
			"-0.002": 81.3921139447,
			"-0.001": 102.445636982,
			"0.0": 98.0648797645,
			"0.001": 73.4567585183,
			"0.002": 47.0393358412,
			"0.003": 10.5423806231,
			"0.004": 7.09745905608,
			"0.005": 8.24642500724,
			"0.006": 7.25189355164,
			"0.007": 5.52352595331,
			"0.008": 4.9931009597,
			"0.009": 5.58113049575,
			"0.01": 4.99803575253,
			"0.011": 5.11536272321,
			"0.012": 7.06062278645,
			"0.013": 3.02421982423,
			"0.014": 0.12824770562,
			"0.015": 0.0,
			"0.016": 0.0,
			"0.017": 0.0,
			"0.018": 0.0,
			"0.019": 0.0,
			"0.02": 0.0,
			"0.021": 0.0,
			"0.022": 0.0,
			"0.023": 0.0,
			"0.024": 0.0,
			"0.025": 0.0
		}
	}
}
