{
	 "smiles": "CN1C(C)=NC=C1C=O", 
	 "Tm": 349.65, 
	 "num_atms": 17, 
	 "gaussian": { 
		 "optdone": 1, 
		 "sigma_profile": "yes", 
		 "theory": "DFT", 
		 "functional": "B3LYP", 
		 "basiset": "6-31G**", 
		 "properties": { 
			 "R2extent": 1321.143, 
			 "electric_dipole_moment_norm": 2.30383050375, 
			 "electric_quadrupole_moment_norm": 12.0909500665, 
			 "total_energy": -418.184130296, 
			 "HOMO_LUMO_gap": 0.18759, 
			 "cosmo_polarized_energy": -10.88, 
			 "cosmo_cavitation_energy": 20.88, 
			 "cosmo_dispersion_energy": -15.23, 
			 "cosmo_repulsion_energy": 1.24, 
			 "cosmo_total_nonelectrostatic_energy": 6.89, 
			 "SMD_solvation_energy": 3.18 
		},
		"coords": [
			{
				"x": -1.5608210005,
				"y": 0.9317188485,
				"z": -0.0284759558,
				"element": "C" 
			},
			{
				"x": -0.6395788021,
				"y": -0.1436841648,
				"z": 0.3250403462,
				"element": "N" 
			},
			{
				"x": 0.2389045911,
				"y": -0.1715155235,
				"z": 1.366755107,
				"element": "C" 
			},
			{
				"x": 0.4084950116,
				"y": 0.9370105801,
				"z": 2.3545628311,
				"element": "C" 
			},
			{
				"x": 0.9338009855,
				"y": -1.3094550468,
				"z": 1.4025821253,
				"element": "N" 
			},
			{
				"x": 0.4871994185,
				"y": -2.0386055455,
				"z": 0.3480841454,
				"element": "C" 
			},
			{
				"x": -0.4940952014,
				"y": -1.352818434,
				"z": -0.3531462428,
				"element": "C" 
			},
			{
				"x": -1.2342397699,
				"y": -1.7514286735,
				"z": -1.5289561784,
				"element": "C" 
			},
			{
				"x": -2.0923033053,
				"y": -1.0850419159,
				"z": -2.0950633666,
				"element": "O" 
			},
			{
				"x": -1.4433544687,
				"y": 1.7448848015,
				"z": 0.6878240314,
				"element": "H" 
			},
			{
				"x": -2.5905191367,
				"y": 0.5707288129,
				"z": -0.0099957231,
				"element": "H" 
			},
			{
				"x": -1.3510804451,
				"y": 1.2953253719,
				"z": -1.035818721,
				"element": "H" 
			},
			{
				"x": 0.7272100946,
				"y": 1.870268637,
				"z": 1.8765146391,
				"element": "H" 
			},
			{
				"x": -0.5159803945,
				"y": 1.1432312382,
				"z": 2.9058282866,
				"element": "H" 
			},
			{
				"x": 1.1757281301,
				"y": 0.6354100936,
				"z": 3.068200318,
				"element": "H" 
			},
			{
				"x": 0.879937321,
				"y": -3.0231016911,
				"z": 0.1272636683,
				"element": "H" 
			},
			{
				"x": -0.9528030282,
				"y": -2.7597273886,
				"z": -1.9009993109,
				"element": "H" 
			}
		],
		 "valence_orbital": [ 
			{
				"type": "occ",
				"energy": -0.37326,
				"method": "rhf"
			},
			{
				"type": "occ",
				"energy": -0.28088,
				"method": "rhf"
			},
			{
				"type": "occ",
				"energy": -0.28,
				"method": "rhf"
			},
			{
				"type": "occ",
				"energy": -0.25072,
				"method": "rhf"
			},
			{
				"type": "occ",
				"energy": -0.23732,
				"method": "rhf"
			},
			{
				"type": "unocc",
				"energy": -0.04973,
				"method": "rhf"
			},
			{
				"type": "unocc",
				"energy": 0.03801,
				"method": "rhf"
			},
			{
				"type": "unocc",
				"energy": 0.0841,
				"method": "rhf"
			},
			{
				"type": "unocc",
				"energy": 0.09168,
				"method": "rhf"
			},
			{
				"type": "unocc",
				"energy": 0.11722,
				"method": "rhf"
			}
		],
		"cosmo_sigma_profile": { 
			"-0.025": 0.0,
			"-0.024": 0.0,
			"-0.023": 0.0,
			"-0.022": 0.0,
			"-0.021": 0.0,
			"-0.02": 0.0,
			"-0.019": 0.0,
			"-0.018": 0.0,
			"-0.017": 0.0,
			"-0.016": 0.0,
			"-0.015": 0.0,
			"-0.014": 0.0,
			"-0.013": 0.0,
			"-0.012": 0.0,
			"-0.011": 0.0,
			"-0.01": 0.0,
			"-0.009": 0.0,
			"-0.008": 1.18247786303,
			"-0.007": 6.50430765436,
			"-0.006": 16.7317888378,
			"-0.005": 15.1882771566,
			"-0.004": 15.1139517904,
			"-0.003": 18.0208618448,
			"-0.002": 14.3723279414,
			"-0.001": 12.5010391212,
			"0.0": 9.32585510883,
			"0.001": 7.43069530436,
			"0.002": 7.47081804204,
			"0.003": 4.82009195151,
			"0.004": 3.69355143077,
			"0.005": 3.35995412769,
			"0.006": 2.90334055825,
			"0.007": 3.16325345462,
			"0.008": 3.09512778924,
			"0.009": 3.11152599721,
			"0.01": 2.61399183566,
			"0.011": 3.76523857576,
			"0.012": 4.24719094738,
			"0.013": 3.06076650509,
			"0.014": 1.6867118128,
			"0.015": 0.87965288151,
			"0.016": 0.70629095663,
			"0.017": 1.03395169998,
			"0.018": 0.108029861055,
			"0.019": 0.0,
			"0.02": 0.0,
			"0.021": 0.0,
			"0.022": 0.0,
			"0.023": 0.0,
			"0.024": 0.0,
			"0.025": 0.0
		}
	}
}
