{
	 "smiles": "OC(=O)CC1CCC2=C(C1)C=CC=C2", 
	 "Tm": 354.15, 
	 "num_atms": 28, 
	 "gaussian": { 
		 "optdone": 1, 
		 "sigma_profile": "yes", 
		 "theory": "DFT", 
		 "functional": "B3LYP", 
		 "basiset": "6-31G**", 
		 "properties": { 
			 "R2extent": 3801.3732, 
			 "electric_dipole_moment_norm": 3.97579986166, 
			 "electric_quadrupole_moment_norm": 18.6117446818, 
			 "total_energy": -616.18893058, 
			 "HOMO_LUMO_gap": 0.23309, 
			 "cosmo_polarized_energy": -15.5, 
			 "cosmo_cavitation_energy": 30.12, 
			 "cosmo_dispersion_energy": -21.76, 
			 "cosmo_repulsion_energy": 1.7, 
			 "cosmo_total_nonelectrostatic_energy": 10.06, 
			 "SMD_solvation_energy": 5.26 
		},
		"coords": [
			{
				"x": -0.3370241825,
				"y": -2.1330421987,
				"z": -2.6115116142,
				"element": "O" 
			},
			{
				"x": -0.7301100158,
				"y": -2.5687738462,
				"z": -1.379881651,
				"element": "C" 
			},
			{
				"x": -0.399957429,
				"y": -3.6633174327,
				"z": -0.9985409763,
				"element": "O" 
			},
			{
				"x": -1.5551512838,
				"y": -1.5807411223,
				"z": -0.5674449147,
				"element": "C" 
			},
			{
				"x": -0.7566547666,
				"y": -0.3324072907,
				"z": -0.1304642301,
				"element": "C" 
			},
			{
				"x": 0.4229892458,
				"y": -0.682015245,
				"z": 0.789414099,
				"element": "C" 
			},
			{
				"x": 1.2705833759,
				"y": 0.5622981701,
				"z": 1.0781690564,
				"element": "C" 
			},
			{
				"x": 0.448523038,
				"y": 1.7776822827,
				"z": 1.4700031224,
				"element": "C" 
			},
			{
				"x": -0.9305507582,
				"y": 1.8436732605,
				"z": 1.2043974781,
				"element": "C" 
			},
			{
				"x": -1.6738544056,
				"y": 0.6754195816,
				"z": 0.5792014328,
				"element": "C" 
			},
			{
				"x": -1.6393340309,
				"y": 3.0030070841,
				"z": 1.5517801305,
				"element": "C" 
			},
			{
				"x": -1.0057802235,
				"y": 4.0848133903,
				"z": 2.157043512,
				"element": "C" 
			},
			{
				"x": 0.3639244142,
				"y": 4.0187806364,
				"z": 2.4245199638,
				"element": "C" 
			},
			{
				"x": 1.0763378417,
				"y": 2.8731802024,
				"z": 2.0807992831,
				"element": "C" 
			},
			{
				"x": -0.6875430215,
				"y": -1.2472729459,
				"z": -2.7808536266,
				"element": "H" 
			},
			{
				"x": -1.9229993632,
				"y": -2.1175332382,
				"z": 0.3108106914,
				"element": "H" 
			},
			{
				"x": -2.4293954951,
				"y": -1.2712162803,
				"z": -1.1572173346,
				"element": "H" 
			},
			{
				"x": -0.3479820223,
				"y": 0.1574936309,
				"z": -1.0290014482,
				"element": "H" 
			},
			{
				"x": 0.0254441437,
				"y": -1.0932135553,
				"z": 1.7274704318,
				"element": "H" 
			},
			{
				"x": 1.0479948207,
				"y": -1.4648108081,
				"z": 0.3466246849,
				"element": "H" 
			},
			{
				"x": 2.0036217467,
				"y": 0.3439642532,
				"z": 1.8635855517,
				"element": "H" 
			},
			{
				"x": 1.8599963869,
				"y": 0.8075021184,
				"z": 0.1821861539,
				"element": "H" 
			},
			{
				"x": -2.4321602628,
				"y": 1.0532105283,
				"z": -0.1185902795,
				"element": "H" 
			},
			{
				"x": -2.2304852974,
				"y": 0.142967177,
				"z": 1.3655798673,
				"element": "H" 
			},
			{
				"x": -2.7059415844,
				"y": 3.0516320172,
				"z": 1.3425686717,
				"element": "H" 
			},
			{
				"x": -1.5743449839,
				"y": 4.9730185523,
				"z": 2.4173848725,
				"element": "H" 
			},
			{
				"x": 0.8716266412,
				"y": 4.8540798455,
				"z": 2.8983687508,
				"element": "H" 
			},
			{
				"x": 2.1430274718,
				"y": 2.8198212323,
				"z": 2.2877983213,
				"element": "H" 
			}
		],
		 "valence_orbital": [ 
			{
				"type": "occ",
				"energy": -0.31993,
				"method": "rhf"
			},
			{
				"type": "occ",
				"energy": -0.3128,
				"method": "rhf"
			},
			{
				"type": "occ",
				"energy": -0.26657,
				"method": "rhf"
			},
			{
				"type": "occ",
				"energy": -0.24507,
				"method": "rhf"
			},
			{
				"type": "occ",
				"energy": -0.23866,
				"method": "rhf"
			},
			{
				"type": "unocc",
				"energy": -0.00557,
				"method": "rhf"
			},
			{
				"type": "unocc",
				"energy": -0.00044,
				"method": "rhf"
			},
			{
				"type": "unocc",
				"energy": 0.00851,
				"method": "rhf"
			},
			{
				"type": "unocc",
				"energy": 0.04539,
				"method": "rhf"
			},
			{
				"type": "unocc",
				"energy": 0.0965,
				"method": "rhf"
			}
		],
		"cosmo_sigma_profile": { 
			"-0.025": 0.0,
			"-0.024": 0.0,
			"-0.023": 0.0,
			"-0.022": 0.0,
			"-0.021": 0.0,
			"-0.02": 0.0,
			"-0.019": 0.0,
			"-0.018": 1.19612568024,
			"-0.017": 0.724342324158,
			"-0.016": 0.889736974288,
			"-0.015": 1.49093113294,
			"-0.014": 1.09499450123,
			"-0.013": 0.741981990135,
			"-0.012": 1.11863384769,
			"-0.011": 1.11714746464,
			"-0.01": 1.2589734504,
			"-0.009": 0.760240866778,
			"-0.008": 1.73869386963,
			"-0.007": 2.6115866073,
			"-0.006": 3.59117514845,
			"-0.005": 11.9596324985,
			"-0.004": 22.8559294519,
			"-0.003": 32.2669705666,
			"-0.002": 26.5072521093,
			"-0.001": 20.7369871983,
			"0.0": 16.5117602047,
			"0.001": 9.62664347225,
			"0.002": 8.66763690409,
			"0.003": 8.47037404701,
			"0.004": 8.77728188565,
			"0.005": 9.10282842648,
			"0.006": 10.07874953,
			"0.007": 7.69310474246,
			"0.008": 2.32732445703,
			"0.009": 3.39093049485,
			"0.01": 3.94956361219,
			"0.011": 5.61553455571,
			"0.012": 5.96104253687,
			"0.013": 3.10012268026,
			"0.014": 0.254864233897,
			"0.015": 0.0,
			"0.016": 0.0,
			"0.017": 0.0,
			"0.018": 0.0,
			"0.019": 0.0,
			"0.02": 0.0,
			"0.021": 0.0,
			"0.022": 0.0,
			"0.023": 0.0,
			"0.024": 0.0,
			"0.025": 0.0
		}
	}
}
