{
	 "smiles": "NC(=O)NC(=O)CCCl", 
	 "Tm": 445.15, 
	 "num_atms": 16, 
	 "gaussian": { 
		 "optdone": 1, 
		 "sigma_profile": "yes", 
		 "theory": "DFT", 
		 "functional": "B3LYP", 
		 "basiset": "6-31G**", 
		 "properties": { 
			 "R2extent": 2850.4052, 
			 "electric_dipole_moment_norm": 0.785527351529, 
			 "electric_quadrupole_moment_norm": 14.8590181674, 
			 "total_energy": -876.84001201, 
			 "HOMO_LUMO_gap": 0.24971, 
			 "cosmo_polarized_energy": -15.56, 
			 "cosmo_cavitation_energy": 22.26, 
			 "cosmo_dispersion_energy": -16.81, 
			 "cosmo_repulsion_energy": 1.43, 
			 "cosmo_total_nonelectrostatic_energy": 6.87, 
			 "SMD_solvation_energy": 4.98 
		},
		"coords": [
			{
				"x": 0.1567389846,
				"y": -3.8369456444,
				"z": 1.2073803211,
				"element": "N" 
			},
			{
				"x": 0.7300226627,
				"y": -2.6504272659,
				"z": 1.5067018312,
				"element": "C" 
			},
			{
				"x": 1.522707317,
				"y": -2.4365332693,
				"z": 2.408254493,
				"element": "O" 
			},
			{
				"x": 0.3447078164,
				"y": -1.5643648786,
				"z": 0.6614807094,
				"element": "N" 
			},
			{
				"x": -0.5211782021,
				"y": -1.5513335687,
				"z": -0.4065524048,
				"element": "C" 
			},
			{
				"x": -1.1231782293,
				"y": -2.543840677,
				"z": -0.8073311285,
				"element": "O" 
			},
			{
				"x": -0.6818864373,
				"y": -0.1868432289,
				"z": -1.0695800947,
				"element": "C" 
			},
			{
				"x": -1.6515320121,
				"y": -0.2577360172,
				"z": -2.2417623911,
				"element": "C" 
			},
			{
				"x": -1.8286667513,
				"y": 1.3729769693,
				"z": -3.0150656652,
				"element": "Cl" 
			},
			{
				"x": 0.4059593857,
				"y": -4.6239613625,
				"z": 1.7833761908,
				"element": "H" 
			},
			{
				"x": -0.4930207713,
				"y": -3.9067009779,
				"z": 0.4327405802,
				"element": "H" 
			},
			{
				"x": 0.8046694343,
				"y": -0.7053918387,
				"z": 0.9336409547,
				"element": "H" 
			},
			{
				"x": 0.2983364963,
				"y": 0.1690697013,
				"z": -1.4084231704,
				"element": "H" 
			},
			{
				"x": -1.0367238231,
				"y": 0.5372151926,
				"z": -0.3264806407,
				"element": "H" 
			},
			{
				"x": -2.6446105945,
				"y": -0.5710051338,
				"z": -1.9228455043,
				"element": "H" 
			},
			{
				"x": -1.2999452761,
				"y": -0.9417780003,
				"z": -3.0128340808,
				"element": "H" 
			}
		],
		 "valence_orbital": [ 
			{
				"type": "occ",
				"energy": -0.30504,
				"method": "rhf"
			},
			{
				"type": "occ",
				"energy": -0.298,
				"method": "rhf"
			},
			{
				"type": "occ",
				"energy": -0.29341,
				"method": "rhf"
			},
			{
				"type": "occ",
				"energy": -0.27487,
				"method": "rhf"
			},
			{
				"type": "occ",
				"energy": -0.27441,
				"method": "rhf"
			},
			{
				"type": "unocc",
				"energy": -0.0247,
				"method": "rhf"
			},
			{
				"type": "unocc",
				"energy": 0.01551,
				"method": "rhf"
			},
			{
				"type": "unocc",
				"energy": 0.06392,
				"method": "rhf"
			},
			{
				"type": "unocc",
				"energy": 0.06935,
				"method": "rhf"
			},
			{
				"type": "unocc",
				"energy": 0.09363,
				"method": "rhf"
			}
		],
		"cosmo_sigma_profile": { 
			"-0.025": 0.0,
			"-0.024": 0.0,
			"-0.023": 0.0,
			"-0.022": 0.0,
			"-0.021": 0.0,
			"-0.02": 0.0,
			"-0.019": 0.0,
			"-0.018": 0.0,
			"-0.017": 0.0,
			"-0.016": 0.474349527405,
			"-0.015": 1.1213367876,
			"-0.014": 2.0331700047,
			"-0.013": 3.20801318872,
			"-0.012": 1.77911821567,
			"-0.011": 2.19071450982,
			"-0.01": 2.8696593857,
			"-0.009": 3.47363689809,
			"-0.008": 5.4214475402,
			"-0.007": 11.8724034005,
			"-0.006": 10.3513524624,
			"-0.005": 7.37112090189,
			"-0.004": 7.2955856223,
			"-0.003": 8.18991354798,
			"-0.002": 8.56433977279,
			"-0.001": 8.53660686015,
			"0.0": 12.0417040286,
			"0.001": 7.14543638597,
			"0.002": 8.22123626537,
			"0.003": 7.59302006846,
			"0.004": 8.93662548144,
			"0.005": 8.34089839039,
			"0.006": 12.0749082699,
			"0.007": 5.09885362694,
			"0.008": 2.77185576158,
			"0.009": 2.4927819675,
			"0.01": 2.62919318639,
			"0.011": 3.80378430824,
			"0.012": 2.6300442394,
			"0.013": 6.00995183078,
			"0.014": 3.31632709139,
			"0.015": 0.0745334108075,
			"0.016": 0.0,
			"0.017": 0.0,
			"0.018": 0.0,
			"0.019": 0.0,
			"0.02": 0.0,
			"0.021": 0.0,
			"0.022": 0.0,
			"0.023": 0.0,
			"0.024": 0.0,
			"0.025": 0.0
		}
	}
}
