{
	 "smiles": "OCCS(=O)(=O)C1=CC=C(CC(O)=O)C=C1", 
	 "Tm": 373.15, 
	 "num_atms": 28, 
	 "gaussian": { 
		 "optdone": 1, 
		 "sigma_profile": "yes", 
		 "theory": "DFT", 
		 "functional": "B3LYP", 
		 "basiset": "6-31G**", 
		 "properties": { 
			 "R2extent": 5248.5155, 
			 "electric_dipole_moment_norm": 4.78457783091, 
			 "electric_quadrupole_moment_norm": 23.4444610171, 
			 "total_energy": -1162.54361912, 
			 "HOMO_LUMO_gap": 0.22506, 
			 "cosmo_polarized_energy": -24.12, 
			 "cosmo_cavitation_energy": 33.67, 
			 "cosmo_dispersion_energy": -24.32, 
			 "cosmo_repulsion_energy": 1.89, 
			 "cosmo_total_nonelectrostatic_energy": 11.25, 
			 "SMD_solvation_energy": 6.26 
		},
		"coords": [
			{
				"x": -0.474213926,
				"y": 3.0718729751,
				"z": 0.034127445,
				"element": "O" 
			},
			{
				"x": -0.5250893715,
				"y": 3.5753805721,
				"z": -1.2920645953,
				"element": "C" 
			},
			{
				"x": 0.4314280758,
				"y": 2.7660114243,
				"z": -2.1478271558,
				"element": "C" 
			},
			{
				"x": -0.1384300542,
				"y": 1.0649316278,
				"z": -2.5229647658,
				"element": "S" 
			},
			{
				"x": 0.686202939,
				"y": 0.6150795413,
				"z": -3.6588954762,
				"element": "O" 
			},
			{
				"x": -1.6089408974,
				"y": 1.1020461368,
				"z": -2.6183501292,
				"element": "O" 
			},
			{
				"x": 0.3063499009,
				"y": 0.0430533097,
				"z": -1.1101164988,
				"element": "C" 
			},
			{
				"x": -0.5928828937,
				"y": -0.1131394603,
				"z": -0.0542199486,
				"element": "C" 
			},
			{
				"x": -0.2494656184,
				"y": -0.9358342141,
				"z": 1.0146996191,
				"element": "C" 
			},
			{
				"x": 0.9872020723,
				"y": -1.5983345357,
				"z": 1.0377489742,
				"element": "C" 
			},
			{
				"x": 1.3626462192,
				"y": -2.5134647147,
				"z": 2.1841168025,
				"element": "C" 
			},
			{
				"x": 1.3833351101,
				"y": -1.8358937511,
				"z": 3.5468728965,
				"element": "C" 
			},
			{
				"x": 2.3789543455,
				"y": -2.3272118559,
				"z": 4.3208864154,
				"element": "O" 
			},
			{
				"x": 0.6051898191,
				"y": -0.9954655625,
				"z": 3.9377776166,
				"element": "O" 
			},
			{
				"x": 1.8708139768,
				"y": -1.4289589906,
				"z": -0.0348539044,
				"element": "C" 
			},
			{
				"x": 1.5359522285,
				"y": -0.613538003,
				"z": -1.115922677,
				"element": "C" 
			},
			{
				"x": -1.1923381913,
				"y": 3.4716463121,
				"z": 0.5395147446,
				"element": "H" 
			},
			{
				"x": -0.2091364792,
				"y": 4.630382286,
				"z": -1.3351981403,
				"element": "H" 
			},
			{
				"x": -1.5334260354,
				"y": 3.5030872358,
				"z": -1.7206824528,
				"element": "H" 
			},
			{
				"x": 1.4200959752,
				"y": 2.685044903,
				"z": -1.6885573633,
				"element": "H" 
			},
			{
				"x": 0.5374354151,
				"y": 3.2095969842,
				"z": -3.1422357795,
				"element": "H" 
			},
			{
				"x": -1.5468245704,
				"y": 0.3991754683,
				"z": -0.0805389141,
				"element": "H" 
			},
			{
				"x": -0.9355395179,
				"y": -1.0558516003,
				"z": 1.8454808013,
				"element": "H" 
			},
			{
				"x": 2.3315914883,
				"y": -2.9852624063,
				"z": 2.0087380882,
				"element": "H" 
			},
			{
				"x": 0.6292344044,
				"y": -3.3277719472,
				"z": 2.2696079415,
				"element": "H" 
			},
			{
				"x": 2.2992956331,
				"y": -1.8810480264,
				"z": 5.181493023,
				"element": "H" 
			},
			{
				"x": 2.8260636697,
				"y": -1.9470486663,
				"z": -0.0323495622,
				"element": "H" 
			},
			{
				"x": 2.2040962823,
				"y": -0.503085042,
				"z": -1.9630870047,
				"element": "H" 
			}
		],
		 "valence_orbital": [ 
			{
				"type": "occ",
				"energy": -0.28921,
				"method": "rhf"
			},
			{
				"type": "occ",
				"energy": -0.28764,
				"method": "rhf"
			},
			{
				"type": "occ",
				"energy": -0.275,
				"method": "rhf"
			},
			{
				"type": "occ",
				"energy": -0.26257,
				"method": "rhf"
			},
			{
				"type": "occ",
				"energy": -0.26062,
				"method": "rhf"
			},
			{
				"type": "unocc",
				"energy": -0.03556,
				"method": "rhf"
			},
			{
				"type": "unocc",
				"energy": -0.01495,
				"method": "rhf"
			},
			{
				"type": "unocc",
				"energy": 0.00023,
				"method": "rhf"
			},
			{
				"type": "unocc",
				"energy": 0.05922,
				"method": "rhf"
			},
			{
				"type": "unocc",
				"energy": 0.06665,
				"method": "rhf"
			}
		],
		"cosmo_sigma_profile": { 
			"-0.025": 0.0,
			"-0.024": 0.0,
			"-0.023": 0.0,
			"-0.022": 0.0,
			"-0.021": 0.0,
			"-0.02": 0.0,
			"-0.019": 0.140857970708,
			"-0.018": 0.737904507735,
			"-0.017": 0.988362934328,
			"-0.016": 1.95180476424,
			"-0.015": 1.82606470215,
			"-0.014": 1.77209805801,
			"-0.013": 1.25728382435,
			"-0.012": 1.61194596171,
			"-0.011": 1.97368363742,
			"-0.01": 1.39553491922,
			"-0.009": 2.05095172077,
			"-0.008": 8.83136856964,
			"-0.007": 14.510065383,
			"-0.006": 17.533880013,
			"-0.005": 23.0206008384,
			"-0.004": 21.2328636725,
			"-0.003": 12.8087043973,
			"-0.002": 10.4987696531,
			"-0.001": 11.2422817421,
			"0.0": 11.0720986783,
			"0.001": 11.0693758058,
			"0.002": 15.5441283851,
			"0.003": 15.5264117376,
			"0.004": 7.74861849128,
			"0.005": 7.0099094341,
			"0.006": 6.78602801529,
			"0.007": 6.61280526172,
			"0.008": 7.93642726648,
			"0.009": 7.61093209256,
			"0.01": 7.47264084296,
			"0.011": 12.7525055402,
			"0.012": 11.0609262898,
			"0.013": 2.50876934871,
			"0.014": 0.114464472368,
			"0.015": 0.0,
			"0.016": 0.0,
			"0.017": 0.0,
			"0.018": 0.0,
			"0.019": 0.0,
			"0.02": 0.0,
			"0.021": 0.0,
			"0.022": 0.0,
			"0.023": 0.0,
			"0.024": 0.0,
			"0.025": 0.0
		}
	}
}
