{
	 "smiles": "CC(C)(C)N(NC(=O)C1=CC=C(Cl)C=C1)C(=O)C1=CC=CC=C1", 
	 "Tm": 473.15, 
	 "num_atms": 42, 
	 "gaussian": { 
		 "optdone": 1, 
		 "sigma_profile": "yes", 
		 "theory": "DFT", 
		 "functional": "B3LYP", 
		 "basiset": "6-31G**", 
		 "properties": { 
			 "R2extent": 9221.0695, 
			 "electric_dipole_moment_norm": 4.04319357192, 
			 "electric_quadrupole_moment_norm": 19.6808248511, 
			 "total_energy": -1417.51483586, 
			 "HOMO_LUMO_gap": 0.18547, 
			 "cosmo_polarized_energy": -19.19, 
			 "cosmo_cavitation_energy": 46.54, 
			 "cosmo_dispersion_energy": -30.62, 
			 "cosmo_repulsion_energy": 2.34, 
			 "cosmo_total_nonelectrostatic_energy": 18.26, 
			 "SMD_solvation_energy": 8.6 
		},
		"coords": [
			{
				"x": 2.2726824142,
				"y": -1.2867643312,
				"z": 3.9289372665,
				"element": "C" 
			},
			{
				"x": 2.3573010267,
				"y": -0.8968017518,
				"z": 2.4408847062,
				"element": "C" 
			},
			{
				"x": 3.1897087685,
				"y": 0.3916535315,
				"z": 2.3303719933,
				"element": "C" 
			},
			{
				"x": 3.0086682798,
				"y": -2.0177501491,
				"z": 1.6106862902,
				"element": "C" 
			},
			{
				"x": 0.959876994,
				"y": -0.5992831953,
				"z": 1.9442955267,
				"element": "N" 
			},
			{
				"x": 0.842738429,
				"y": 0.3400519647,
				"z": 0.9231202257,
				"element": "N" 
			},
			{
				"x": 0.7489044843,
				"y": -0.032684717,
				"z": -0.4056240486,
				"element": "C" 
			},
			{
				"x": 0.7821240487,
				"y": -1.2003977806,
				"z": -0.7654935886,
				"element": "O" 
			},
			{
				"x": 0.5896976638,
				"y": 1.1026484529,
				"z": -1.3733217661,
				"element": "C" 
			},
			{
				"x": 1.0118923099,
				"y": 2.4137670564,
				"z": -1.1115954881,
				"element": "C" 
			},
			{
				"x": 0.8450735247,
				"y": 3.4180416685,
				"z": -2.0639673694,
				"element": "C" 
			},
			{
				"x": 0.2506631252,
				"y": 3.10206601,
				"z": -3.2855968429,
				"element": "C" 
			},
			{
				"x": 0.0318140211,
				"y": 4.3622767957,
				"z": -4.4861207054,
				"element": "Cl" 
			},
			{
				"x": -0.1642177506,
				"y": 1.8002881718,
				"z": -3.5734882713,
				"element": "C" 
			},
			{
				"x": 0.0148480162,
				"y": 0.8064393181,
				"z": -2.6164973677,
				"element": "C" 
			},
			{
				"x": -0.0623143912,
				"y": -1.5526933499,
				"z": 2.0315636119,
				"element": "C" 
			},
			{
				"x": 0.1202060278,
				"y": -2.6723580425,
				"z": 2.4859421807,
				"element": "O" 
			},
			{
				"x": -1.4411154793,
				"y": -1.1104716958,
				"z": 1.6225920722,
				"element": "C" 
			},
			{
				"x": -2.2329287945,
				"y": -2.0080220966,
				"z": 0.8963681021,
				"element": "C" 
			},
			{
				"x": -3.5458052286,
				"y": -1.675828609,
				"z": 0.5666955799,
				"element": "C" 
			},
			{
				"x": -4.0865820146,
				"y": -0.4564215045,
				"z": 0.9823420487,
				"element": "C" 
			},
			{
				"x": -3.3095683107,
				"y": 0.4314405344,
				"z": 1.729581248,
				"element": "C" 
			},
			{
				"x": -1.9893072287,
				"y": 0.108439033,
				"z": 2.0431276031,
				"element": "C" 
			},
			{
				"x": 1.7894773728,
				"y": -0.4927419922,
				"z": 4.50821144,
				"element": "H" 
			},
			{
				"x": 3.2856781508,
				"y": -1.4233316167,
				"z": 4.3205793161,
				"element": "H" 
			},
			{
				"x": 1.7172257686,
				"y": -2.2125106559,
				"z": 4.0695513195,
				"element": "H" 
			},
			{
				"x": 3.3501212851,
				"y": 0.6947364217,
				"z": 1.2932599988,
				"element": "H" 
			},
			{
				"x": 4.1695045125,
				"y": 0.2137963578,
				"z": 2.7824810182,
				"element": "H" 
			},
			{
				"x": 2.7194393434,
				"y": 1.2212259333,
				"z": 2.8702773134,
				"element": "H" 
			},
			{
				"x": 2.4352469235,
				"y": -2.9409895359,
				"z": 1.7003694645,
				"element": "H" 
			},
			{
				"x": 4.027435887,
				"y": -2.1988962269,
				"z": 1.970723548,
				"element": "H" 
			},
			{
				"x": 3.0574426537,
				"y": -1.7446079969,
				"z": 0.5537144258,
				"element": "H" 
			},
			{
				"x": 0.5492249102,
				"y": 1.2664285963,
				"z": 1.1964653071,
				"element": "H" 
			},
			{
				"x": 1.5081828265,
				"y": 2.6600751469,
				"z": -0.1776465759,
				"element": "H" 
			},
			{
				"x": 1.1797204633,
				"y": 4.4303887411,
				"z": -1.8675897447,
				"element": "H" 
			},
			{
				"x": -0.6165521015,
				"y": 1.5739531565,
				"z": -4.5325144348,
				"element": "H" 
			},
			{
				"x": -0.2859687913,
				"y": -0.2163270386,
				"z": -2.8157320644,
				"element": "H" 
			},
			{
				"x": -1.8046856409,
				"y": -2.9583391917,
				"z": 0.5962848195,
				"element": "H" 
			},
			{
				"x": -4.1502756023,
				"y": -2.3709724079,
				"z": -0.00869492,
				"element": "H" 
			},
			{
				"x": -5.1125212304,
				"y": -0.2021406422,
				"z": 0.7318350144,
				"element": "H" 
			},
			{
				"x": -3.7326032596,
				"y": 1.3717162832,
				"z": 2.0714937173,
				"element": "H" 
			},
			{
				"x": -1.3922534071,
				"y": 0.7895013543,
				"z": 2.64402803,
				"element": "H" 
			}
		],
		 "valence_orbital": [ 
			{
				"type": "occ",
				"energy": -0.26359,
				"method": "rhf"
			},
			{
				"type": "occ",
				"energy": -0.26127,
				"method": "rhf"
			},
			{
				"type": "occ",
				"energy": -0.25555,
				"method": "rhf"
			},
			{
				"type": "occ",
				"energy": -0.25149,
				"method": "rhf"
			},
			{
				"type": "occ",
				"energy": -0.24052,
				"method": "rhf"
			},
			{
				"type": "unocc",
				"energy": -0.05505,
				"method": "rhf"
			},
			{
				"type": "unocc",
				"energy": -0.03096,
				"method": "rhf"
			},
			{
				"type": "unocc",
				"energy": -0.02895,
				"method": "rhf"
			},
			{
				"type": "unocc",
				"energy": -0.00646,
				"method": "rhf"
			},
			{
				"type": "unocc",
				"energy": 0.01783,
				"method": "rhf"
			}
		],
		"cosmo_sigma_profile": { 
			"-0.025": 0.0,
			"-0.024": 0.0,
			"-0.023": 0.0,
			"-0.022": 0.0,
			"-0.021": 0.0,
			"-0.02": 0.0,
			"-0.019": 0.0,
			"-0.018": 0.0,
			"-0.017": 0.0,
			"-0.016": 0.0,
			"-0.015": 0.370726472465,
			"-0.014": 0.718543635092,
			"-0.013": 1.4522610691,
			"-0.012": 1.09518154887,
			"-0.011": 1.01665595913,
			"-0.01": 2.05825419396,
			"-0.009": 1.94135518438,
			"-0.008": 4.48080308164,
			"-0.007": 8.30094511538,
			"-0.006": 15.8780229113,
			"-0.005": 18.8126684539,
			"-0.004": 23.4796615029,
			"-0.003": 31.4731997302,
			"-0.002": 26.5331043219,
			"-0.001": 31.1125295915,
			"0.0": 36.8935355476,
			"0.001": 40.4194485023,
			"0.002": 33.6388917676,
			"0.003": 21.3251458582,
			"0.004": 23.9693914986,
			"0.005": 12.6684401481,
			"0.006": 4.7732394577,
			"0.007": 4.53827207362,
			"0.008": 4.12140477653,
			"0.009": 3.52152306699,
			"0.01": 3.67858580575,
			"0.011": 3.76013884927,
			"0.012": 4.94644401108,
			"0.013": 3.96125736404,
			"0.014": 0.477299784983,
			"0.015": 0.0,
			"0.016": 0.0,
			"0.017": 0.0,
			"0.018": 0.0,
			"0.019": 0.0,
			"0.02": 0.0,
			"0.021": 0.0,
			"0.022": 0.0,
			"0.023": 0.0,
			"0.024": 0.0,
			"0.025": 0.0
		}
	}
}
