{
	 "smiles": "CC(=NO)C1=CC(Cl)=C(Cl)C=C1", 
	 "Tm": 383.15, 
	 "num_atms": 19, 
	 "gaussian": { 
		 "optdone": 1, 
		 "sigma_profile": "yes", 
		 "theory": "DFT", 
		 "functional": "B3LYP", 
		 "basiset": "6-31G**", 
		 "properties": { 
			 "R2extent": 3652.4306, 
			 "electric_dipole_moment_norm": 3.11293332566, 
			 "electric_quadrupole_moment_norm": 8.74552729514, 
			 "total_energy": -1359.37556281, 
			 "HOMO_LUMO_gap": 0.1803, 
			 "cosmo_polarized_energy": -8.33, 
			 "cosmo_cavitation_energy": 26.92, 
			 "cosmo_dispersion_energy": -20.17, 
			 "cosmo_repulsion_energy": 1.62, 
			 "cosmo_total_nonelectrostatic_energy": 8.37, 
			 "SMD_solvation_energy": 4.44 
		},
		"coords": [
			{
				"x": -2.6491742877,
				"y": 0.17272839,
				"z": 2.5553402048,
				"element": "C" 
			},
			{
				"x": -1.7672967947,
				"y": 1.1091245816,
				"z": 1.7707242538,
				"element": "C" 
			},
			{
				"x": -1.6061398741,
				"y": 2.3575187354,
				"z": 2.0446887524,
				"element": "N" 
			},
			{
				"x": -2.3373878579,
				"y": 2.7764034062,
				"z": 3.1584589537,
				"element": "O" 
			},
			{
				"x": -1.0131589448,
				"y": 0.6033520457,
				"z": 0.5936849656,
				"element": "C" 
			},
			{
				"x": -0.1878056133,
				"y": 1.4630848104,
				"z": -0.1504794826,
				"element": "C" 
			},
			{
				"x": 0.5215155106,
				"y": 1.0003207298,
				"z": -1.2524250187,
				"element": "C" 
			},
			{
				"x": 1.5298172967,
				"y": 2.1248588539,
				"z": -2.1332191779,
				"element": "Cl" 
			},
			{
				"x": 0.4220947442,
				"y": -0.3457211134,
				"z": -1.6408002706,
				"element": "C" 
			},
			{
				"x": 1.2943013266,
				"y": -0.9707316939,
				"z": -3.0172880691,
				"element": "Cl" 
			},
			{
				"x": -0.394451612,
				"y": -1.2059695555,
				"z": -0.9083089718,
				"element": "C" 
			},
			{
				"x": -1.1037851756,
				"y": -0.7385032906,
				"z": 0.1953552175,
				"element": "C" 
			},
			{
				"x": -3.1285097848,
				"y": 0.6974810993,
				"z": 3.3791093302,
				"element": "H" 
			},
			{
				"x": -3.42536934,
				"y": -0.2556798308,
				"z": 1.9120068111,
				"element": "H" 
			},
			{
				"x": -2.0634617835,
				"y": -0.6589982032,
				"z": 2.9616646199,
				"element": "H" 
			},
			{
				"x": -2.1018969061,
				"y": 3.7119391918,
				"z": 3.2143636837,
				"element": "H" 
			},
			{
				"x": -0.1040699707,
				"y": 2.5025017535,
				"z": 0.1404154937,
				"element": "H" 
			},
			{
				"x": -0.469620675,
				"y": -2.2447284197,
				"z": -1.2100355039,
				"element": "H" 
			},
			{
				"x": -1.729100258,
				"y": -1.4347814904,
				"z": 0.7419442081,
				"element": "H" 
			}
		],
		 "valence_orbital": [ 
			{
				"type": "occ",
				"energy": -0.30845,
				"method": "rhf"
			},
			{
				"type": "occ",
				"energy": -0.28545,
				"method": "rhf"
			},
			{
				"type": "occ",
				"energy": -0.28283,
				"method": "rhf"
			},
			{
				"type": "occ",
				"energy": -0.25815,
				"method": "rhf"
			},
			{
				"type": "occ",
				"energy": -0.23316,
				"method": "rhf"
			},
			{
				"type": "unocc",
				"energy": -0.05286,
				"method": "rhf"
			},
			{
				"type": "unocc",
				"energy": -0.02289,
				"method": "rhf"
			},
			{
				"type": "unocc",
				"energy": 0.00416,
				"method": "rhf"
			},
			{
				"type": "unocc",
				"energy": 0.03099,
				"method": "rhf"
			},
			{
				"type": "unocc",
				"energy": 0.06242,
				"method": "rhf"
			}
		],
		"cosmo_sigma_profile": { 
			"-0.025": 0.0,
			"-0.024": 0.0,
			"-0.023": 0.0,
			"-0.022": 0.0,
			"-0.021": 0.0,
			"-0.02": 0.0,
			"-0.019": 0.0,
			"-0.018": 0.216849919076,
			"-0.017": 0.84272706094,
			"-0.016": 1.21041640489,
			"-0.015": 0.896300016499,
			"-0.014": 0.288124787657,
			"-0.013": 0.859990008151,
			"-0.012": 1.06356520485,
			"-0.011": 0.642502544723,
			"-0.01": 0.530873379113,
			"-0.009": 0.467251807526,
			"-0.008": 2.0562980102,
			"-0.007": 5.65587834229,
			"-0.006": 9.38679854838,
			"-0.005": 10.4041778882,
			"-0.004": 8.07292901364,
			"-0.003": 11.4477757733,
			"-0.002": 13.5145900175,
			"-0.001": 16.6033360083,
			"0.0": 21.9745591312,
			"0.001": 24.9354118395,
			"0.002": 24.2861131889,
			"0.003": 19.2967278803,
			"0.004": 20.7555219389,
			"0.005": 10.1748909203,
			"0.006": 4.01593636559,
			"0.007": 4.13744214941,
			"0.008": 3.53963756203,
			"0.009": 2.06145035735,
			"0.01": 0.29778104939,
			"0.011": 0.0,
			"0.012": 0.0,
			"0.013": 0.0,
			"0.014": 0.0,
			"0.015": 0.0,
			"0.016": 0.0,
			"0.017": 0.0,
			"0.018": 0.0,
			"0.019": 0.0,
			"0.02": 0.0,
			"0.021": 0.0,
			"0.022": 0.0,
			"0.023": 0.0,
			"0.024": 0.0,
			"0.025": 0.0
		}
	}
}
