{
	 "smiles": "OC(=O)C1=C(F)C=C(Cl)C(F)=C1", 
	 "Tm": 429.15, 
	 "num_atms": 15, 
	 "gaussian": { 
		 "optdone": 1, 
		 "sigma_profile": "yes", 
		 "theory": "DFT", 
		 "functional": "B3LYP", 
		 "basiset": "6-31G**", 
		 "properties": { 
			 "R2extent": 2669.7619, 
			 "electric_dipole_moment_norm": 1.53068084525, 
			 "electric_quadrupole_moment_norm": 4.55949117227, 
			 "total_energy": -1078.86795087, 
			 "HOMO_LUMO_gap": 0.19051, 
			 "cosmo_polarized_energy": -8.56, 
			 "cosmo_cavitation_energy": 23.21, 
			 "cosmo_dispersion_energy": -17.13, 
			 "cosmo_repulsion_energy": 1.32, 
			 "cosmo_total_nonelectrostatic_energy": 7.41, 
			 "SMD_solvation_energy": 6.0 
		},
		"coords": [
			{
				"x": -2.2050917208,
				"y": 1.1680883321,
				"z": -1.7075738478,
				"element": "O" 
			},
			{
				"x": -1.9749390849,
				"y": -0.1157548948,
				"z": -1.3669192723,
				"element": "C" 
			},
			{
				"x": -2.6748268275,
				"y": -1.0308102587,
				"z": -1.7541633428,
				"element": "O" 
			},
			{
				"x": -0.7934033657,
				"y": -0.3111447872,
				"z": -0.4787734965,
				"element": "C" 
			},
			{
				"x": 0.0500335121,
				"y": 0.7015643462,
				"z": -0.0007855041,
				"element": "C" 
			},
			{
				"x": -0.1545812122,
				"y": 1.9854465886,
				"z": -0.3238374096,
				"element": "F" 
			},
			{
				"x": 1.1338531903,
				"y": 0.4226814186,
				"z": 0.8271298243,
				"element": "C" 
			},
			{
				"x": 1.3932787968,
				"y": -0.8947486543,
				"z": 1.1946187712,
				"element": "C" 
			},
			{
				"x": 2.7384956387,
				"y": -1.2766202851,
				"z": 2.2272035648,
				"element": "Cl" 
			},
			{
				"x": 0.5613859151,
				"y": -1.9189735725,
				"z": 0.7267482784,
				"element": "C" 
			},
			{
				"x": 0.809064476,
				"y": -3.1879985887,
				"z": 1.0790818285,
				"element": "F" 
			},
			{
				"x": -0.5126127123,
				"y": -1.631742695,
				"z": -0.0952919253,
				"element": "C" 
			},
			{
				"x": -2.9915725565,
				"y": 1.1496432557,
				"z": -2.2788249459,
				"element": "H" 
			},
			{
				"x": 1.762019578,
				"y": 1.2334293621,
				"z": 1.1753075488,
				"element": "H" 
			},
			{
				"x": -1.1529036271,
				"y": -2.429059567,
				"z": -0.4544200717,
				"element": "H" 
			}
		],
		 "valence_orbital": [ 
			{
				"type": "occ",
				"energy": -0.33451,
				"method": "rhf"
			},
			{
				"type": "occ",
				"energy": -0.32882,
				"method": "rhf"
			},
			{
				"type": "occ",
				"energy": -0.29384,
				"method": "rhf"
			},
			{
				"type": "occ",
				"energy": -0.28071,
				"method": "rhf"
			},
			{
				"type": "occ",
				"energy": -0.26173,
				"method": "rhf"
			},
			{
				"type": "unocc",
				"energy": -0.07122,
				"method": "rhf"
			},
			{
				"type": "unocc",
				"energy": -0.02501,
				"method": "rhf"
			},
			{
				"type": "unocc",
				"energy": 0.00641,
				"method": "rhf"
			},
			{
				"type": "unocc",
				"energy": 0.03649,
				"method": "rhf"
			},
			{
				"type": "unocc",
				"energy": 0.07085,
				"method": "rhf"
			}
		],
		"cosmo_sigma_profile": { 
			"-0.025": 0.0,
			"-0.024": 0.0,
			"-0.023": 0.0,
			"-0.022": 0.0,
			"-0.021": 0.0,
			"-0.02": 0.0,
			"-0.019": 0.338434277729,
			"-0.018": 1.03789173861,
			"-0.017": 0.923915800201,
			"-0.016": 0.902668126478,
			"-0.015": 0.288670466986,
			"-0.014": 0.578995996901,
			"-0.013": 0.864613593568,
			"-0.012": 1.09601443983,
			"-0.011": 0.748892902533,
			"-0.01": 0.86406254014,
			"-0.009": 2.30683907004,
			"-0.008": 2.88409608226,
			"-0.007": 4.25081616254,
			"-0.006": 3.53670416145,
			"-0.005": 4.06342824394,
			"-0.004": 6.4644510265,
			"-0.003": 11.0132809563,
			"-0.002": 24.5119871159,
			"-0.001": 25.2843976088,
			"0.0": 12.9256520979,
			"0.001": 10.2482148149,
			"0.002": 14.2483105525,
			"0.003": 25.2128158704,
			"0.004": 11.332858467,
			"0.005": 3.14105571058,
			"0.006": 2.79900870377,
			"0.007": 3.83915616118,
			"0.008": 3.03318986751,
			"0.009": 2.73827784515,
			"0.01": 2.75950197509,
			"0.011": 4.52269439355,
			"0.012": 0.979084092811,
			"0.013": 0.0,
			"0.014": 0.0,
			"0.015": 0.0,
			"0.016": 0.0,
			"0.017": 0.0,
			"0.018": 0.0,
			"0.019": 0.0,
			"0.02": 0.0,
			"0.021": 0.0,
			"0.022": 0.0,
			"0.023": 0.0,
			"0.024": 0.0,
			"0.025": 0.0
		}
	}
}
