{
	 "smiles": "CCOC1=CC=C(C=C1)S(N)(=O)=O", 
	 "Tm": 426.15, 
	 "num_atms": 24, 
	 "gaussian": { 
		 "optdone": 1, 
		 "sigma_profile": "yes", 
		 "theory": "DFT", 
		 "functional": "B3LYP", 
		 "basiset": "6-31G**", 
		 "properties": { 
			 "R2extent": 4171.6214, 
			 "electric_dipole_moment_norm": 7.22512433319, 
			 "electric_quadrupole_moment_norm": 23.4779304384, 
			 "total_energy": -990.018877925, 
			 "HOMO_LUMO_gap": 0.21168, 
			 "cosmo_polarized_energy": -19.81, 
			 "cosmo_cavitation_energy": 29.34, 
			 "cosmo_dispersion_energy": -22.12, 
			 "cosmo_repulsion_energy": 1.73, 
			 "cosmo_total_nonelectrostatic_energy": 8.95, 
			 "SMD_solvation_energy": 5.09 
		},
		"coords": [
			{
				"x": 2.5908470359,
				"y": -2.4181455474,
				"z": 3.5179703794,
				"element": "C" 
			},
			{
				"x": 2.0312985435,
				"y": -1.2244626435,
				"z": 2.7653141745,
				"element": "C" 
			},
			{
				"x": 0.8768397912,
				"y": -1.671735964,
				"z": 2.0471730817,
				"element": "O" 
			},
			{
				"x": 0.1829970265,
				"y": -0.7838754893,
				"z": 1.2919334852,
				"element": "C" 
			},
			{
				"x": 0.5195856716,
				"y": 0.5700382087,
				"z": 1.1429450317,
				"element": "C" 
			},
			{
				"x": -0.2688474302,
				"y": 1.3931386397,
				"z": 0.3382589079,
				"element": "C" 
			},
			{
				"x": -1.3834976713,
				"y": 0.8705179243,
				"z": -0.3159727909,
				"element": "C" 
			},
			{
				"x": -1.7321702581,
				"y": -0.4778219579,
				"z": -0.1595875501,
				"element": "C" 
			},
			{
				"x": -0.9506623259,
				"y": -1.2995229494,
				"z": 0.6379335033,
				"element": "C" 
			},
			{
				"x": -2.3718198981,
				"y": 1.9288872936,
				"z": -1.3706199449,
				"element": "S" 
			},
			{
				"x": -1.758378189,
				"y": 1.7852267465,
				"z": -2.9345315788,
				"element": "N" 
			},
			{
				"x": -3.7171103595,
				"y": 1.3586320108,
				"z": -1.4302215987,
				"element": "O" 
			},
			{
				"x": -2.1078406304,
				"y": 3.3124712591,
				"z": -0.9768412606,
				"element": "O" 
			},
			{
				"x": 1.8500234391,
				"y": -2.8146312132,
				"z": 4.2175552478,
				"element": "H" 
			},
			{
				"x": 3.478804691,
				"y": -2.1206830839,
				"z": 4.0838255747,
				"element": "H" 
			},
			{
				"x": 2.872089283,
				"y": -3.21494471,
				"z": 2.8239951944,
				"element": "H" 
			},
			{
				"x": 2.7719562891,
				"y": -0.8205006083,
				"z": 2.0614228023,
				"element": "H" 
			},
			{
				"x": 1.7477167691,
				"y": -0.4201027094,
				"z": 3.4576763648,
				"element": "H" 
			},
			{
				"x": 1.3775098707,
				"y": 0.99142864,
				"z": 1.6520736912,
				"element": "H" 
			},
			{
				"x": -0.0323348379,
				"y": 2.4470205553,
				"z": 0.2357400727,
				"element": "H" 
			},
			{
				"x": -2.6236646606,
				"y": -0.8636464993,
				"z": -0.6428105457,
				"element": "H" 
			},
			{
				"x": -1.1998749693,
				"y": -2.3450977311,
				"z": 0.784426421,
				"element": "H" 
			},
			{
				"x": -1.8691069678,
				"y": 0.8484911742,
				"z": -3.3102116825,
				"element": "H" 
			},
			{
				"x": -0.8059602126,
				"y": 2.1286186546,
				"z": -3.0109469806,
				"element": "H" 
			}
		],
		 "valence_orbital": [ 
			{
				"type": "occ",
				"energy": -0.30428,
				"method": "rhf"
			},
			{
				"type": "occ",
				"energy": -0.29813,
				"method": "rhf"
			},
			{
				"type": "occ",
				"energy": -0.29776,
				"method": "rhf"
			},
			{
				"type": "occ",
				"energy": -0.27317,
				"method": "rhf"
			},
			{
				"type": "occ",
				"energy": -0.23938,
				"method": "rhf"
			},
			{
				"type": "unocc",
				"energy": -0.0277,
				"method": "rhf"
			},
			{
				"type": "unocc",
				"energy": -0.02233,
				"method": "rhf"
			},
			{
				"type": "unocc",
				"energy": 0.05517,
				"method": "rhf"
			},
			{
				"type": "unocc",
				"energy": 0.079,
				"method": "rhf"
			},
			{
				"type": "unocc",
				"energy": 0.0867,
				"method": "rhf"
			}
		],
		"cosmo_sigma_profile": { 
			"-0.025": 0.0,
			"-0.024": 0.0,
			"-0.023": 0.0,
			"-0.022": 0.0,
			"-0.021": 0.0,
			"-0.02": 0.0,
			"-0.019": 0.0,
			"-0.018": 0.0,
			"-0.017": 0.0,
			"-0.016": 0.0259373526031,
			"-0.015": 1.74439635501,
			"-0.014": 2.65997857519,
			"-0.013": 2.58275608546,
			"-0.012": 3.23075177394,
			"-0.011": 2.09980608729,
			"-0.01": 2.75949677907,
			"-0.009": 1.9638763103,
			"-0.008": 1.88007726257,
			"-0.007": 6.98311908187,
			"-0.006": 12.340962803,
			"-0.005": 15.8114622761,
			"-0.004": 18.3081618013,
			"-0.003": 16.4427465341,
			"-0.002": 14.1511404028,
			"-0.001": 13.5086658564,
			"0.0": 13.9698283032,
			"0.001": 12.19546793,
			"0.002": 16.1349957314,
			"0.003": 15.5099598654,
			"0.004": 6.3119861768,
			"0.005": 5.53145286999,
			"0.006": 4.09983905958,
			"0.007": 5.07987554165,
			"0.008": 6.0173062415,
			"0.009": 6.03281677674,
			"0.01": 6.81559903798,
			"0.011": 10.4974634167,
			"0.012": 7.21272985322,
			"0.013": 0.523258851061,
			"0.014": 0.0318748467789,
			"0.015": 0.0,
			"0.016": 0.0,
			"0.017": 0.0,
			"0.018": 0.0,
			"0.019": 0.0,
			"0.02": 0.0,
			"0.021": 0.0,
			"0.022": 0.0,
			"0.023": 0.0,
			"0.024": 0.0,
			"0.0": 0.0
		}
	}
}
