{
	 "smiles": "CC1=C2NC(=O)C=CC2=CC(Br)=C1", 
	 "Tm": 552.15, 
	 "num_atms": 21, 
	 "gaussian": { 
		 "optdone": 1, 
		 "sigma_profile": "yes", 
		 "theory": "DFT", 
		 "functional": "B3LYP", 
		 "basiset": "6-31G**", 
		 "properties": { 
			 "R2extent": 5184.1331, 
			 "electric_dipole_moment_norm": 2.10429416907, 
			 "electric_quadrupole_moment_norm": 18.8773956278, 
			 "total_energy": -3087.29581902, 
			 "HOMO_LUMO_gap": 0.15894, 
			 "cosmo_polarized_energy": -12.59, 
			 "cosmo_cavitation_energy": 27.32, 
			 "cosmo_dispersion_energy": -20.64, 
			 "cosmo_repulsion_energy": 1.61, 
			 "cosmo_total_nonelectrostatic_energy": 8.29, 
			 "SMD_solvation_energy": 3.93 
		},
		"coords": [
			{
				"x": -1.0149406337,
				"y": 2.658058945,
				"z": 2.3551804126,
				"element": "C" 
			},
			{
				"x": -1.0417013271,
				"y": 1.2077999258,
				"z": 1.9407110251,
				"element": "C" 
			},
			{
				"x": -0.2003144498,
				"y": 0.7350601008,
				"z": 0.9060381961,
				"element": "C" 
			},
			{
				"x": 0.6672699943,
				"y": 1.5841316043,
				"z": 0.2472990328,
				"element": "N" 
			},
			{
				"x": 1.5456283786,
				"y": 1.2389661963,
				"z": -0.7876342211,
				"element": "C" 
			},
			{
				"x": 2.2706078221,
				"y": 2.0866388814,
				"z": -1.2957679024,
				"element": "O" 
			},
			{
				"x": 1.4927395374,
				"y": -0.1740104167,
				"z": -1.1631735986,
				"element": "C" 
			},
			{
				"x": 0.6578381073,
				"y": -1.0432909047,
				"z": -0.5452206465,
				"element": "C" 
			},
			{
				"x": -0.2249483497,
				"y": -0.6260835948,
				"z": 0.5163742296,
				"element": "C" 
			},
			{
				"x": -1.0979845068,
				"y": -1.5165674499,
				"z": 1.1683430774,
				"element": "C" 
			},
			{
				"x": -1.9174568391,
				"y": -1.0491834937,
				"z": 2.1783055807,
				"element": "C" 
			},
			{
				"x": -3.1072227374,
				"y": -2.2485106473,
				"z": 3.0715484887,
				"element": "Br" 
			},
			{
				"x": -1.891653666,
				"y": 0.2984765681,
				"z": 2.562489527,
				"element": "C" 
			},
			{
				"x": -0.0226204918,
				"y": 2.9607692778,
				"z": 2.7134035537,
				"element": "H" 
			},
			{
				"x": -1.7249906329,
				"y": 2.8445483501,
				"z": 3.1635928363,
				"element": "H" 
			},
			{
				"x": -1.2812174475,
				"y": 3.3238247564,
				"z": 1.5242131499,
				"element": "H" 
			},
			{
				"x": 0.7055036703,
				"y": 2.5615814703,
				"z": 0.5053969381,
				"element": "H" 
			},
			{
				"x": 2.159461818,
				"y": -0.4781854647,
				"z": -1.9615820962,
				"element": "H" 
			},
			{
				"x": 0.6375106869,
				"y": -2.0889206146,
				"z": -0.8430671172,
				"element": "H" 
			},
			{
				"x": -1.1203313171,
				"y": -2.5599218877,
				"z": 0.8734474414,
				"element": "H" 
			},
			{
				"x": -2.5455776161,
				"y": 0.6383183978,
				"z": 3.3583020926,
				"element": "H" 
			}
		],
		 "valence_orbital": [ 
			{
				"type": "occ",
				"energy": -0.29286,
				"method": "rhf"
			},
			{
				"type": "occ",
				"energy": -0.28727,
				"method": "rhf"
			},
			{
				"type": "occ",
				"energy": -0.25678,
				"method": "rhf"
			},
			{
				"type": "occ",
				"energy": -0.25257,
				"method": "rhf"
			},
			{
				"type": "occ",
				"energy": -0.2219,
				"method": "rhf"
			},
			{
				"type": "unocc",
				"energy": -0.06296,
				"method": "rhf"
			},
			{
				"type": "unocc",
				"energy": -0.01984,
				"method": "rhf"
			},
			{
				"type": "unocc",
				"energy": 0.00089,
				"method": "rhf"
			},
			{
				"type": "unocc",
				"energy": 0.00477,
				"method": "rhf"
			},
			{
				"type": "unocc",
				"energy": 0.06827,
				"method": "rhf"
			}
		],
		"cosmo_sigma_profile": { 
			"-0.025": 0.0,
			"-0.024": 0.0,
			"-0.023": 0.0,
			"-0.022": 0.0,
			"-0.021": 0.0,
			"-0.02": 0.0,
			"-0.019": 0.0,
			"-0.018": 0.0,
			"-0.017": 0.0,
			"-0.016": 0.0,
			"-0.015": 0.00383298178214,
			"-0.014": 0.3173584864,
			"-0.013": 0.973892871513,
			"-0.012": 1.30989041261,
			"-0.011": 0.824656890882,
			"-0.01": 1.6887838003,
			"-0.009": 1.9352432042,
			"-0.008": 4.69715654001,
			"-0.007": 9.78338727413,
			"-0.006": 11.1186277554,
			"-0.005": 11.8765482951,
			"-0.004": 11.6567883384,
			"-0.003": 12.373828515,
			"-0.002": 13.9530768916,
			"-0.001": 20.0927384542,
			"0.0": 19.7243499074,
			"0.001": 22.2135399432,
			"0.002": 23.2114591802,
			"0.003": 14.5935948866,
			"0.004": 11.2677246141,
			"0.005": 8.1438401848,
			"0.006": 1.2701655875,
			"0.007": 0.96722121774,
			"0.008": 1.66458844954,
			"0.009": 1.22281731523,
			"0.01": 0.906671835173,
			"0.011": 1.26502242072,
			"0.012": 1.68048695547,
			"0.013": 3.84047635405,
			"0.014": 5.90432294239,
			"0.015": 1.50974854585,
			"0.016": 0.0482428866119,
			"0.017": 0.0,
			"0.018": 0.0,
			"0.019": 0.0,
			"0.02": 0.0,
			"0.021": 0.0,
			"0.022": 0.0,
			"0.023": 0.0,
			"0.024": 0.0,
			"0.025": 0.0
		}
	}
}
