{
	 "smiles": "C[C@@H]1CC2CC(=O)CCC2(C)C2CCC3(C)C(CCC3C12)OC(C)=O", 
	 "Tm": 415.15, 
	 "num_atms": 59, 
	 "gaussian": { 
		 "optdone": 1, 
		 "sigma_profile": "yes", 
		 "theory": "DFT", 
		 "functional": "B3LYP", 
		 "basiset": "6-31G**", 
		 "properties": { 
			 "R2extent": 8980.1584, 
			 "electric_dipole_moment_norm": 1.74369331592, 
			 "electric_quadrupole_moment_norm": 34.2014361282, 
			 "total_energy": -1084.53913604, 
			 "HOMO_LUMO_gap": 0.22171, 
			 "cosmo_polarized_energy": -13.13, 
			 "cosmo_cavitation_energy": 49.84, 
			 "cosmo_dispersion_energy": -33.59, 
			 "cosmo_repulsion_energy": 2.46, 
			 "cosmo_total_nonelectrostatic_energy": 18.7, 
			 "SMD_solvation_energy": 8.55 
		},
		"coords": [
			{
				"x": -1.9608662896,
				"y": -0.9099841596,
				"z": 2.1433254808,
				"element": "C" 
			},
			{
				"x": -0.9130153303,
				"y": 0.2152821623,
				"z": 2.2089778225,
				"element": "C" 
			},
			{
				"x": -1.57952931,
				"y": 1.6034621286,
				"z": 2.2407346972,
				"element": "C" 
			},
			{
				"x": -2.1135419558,
				"y": 2.0759988166,
				"z": 0.8727822751,
				"element": "C" 
			},
			{
				"x": -2.7759433664,
				"y": 3.4672521033,
				"z": 1.0299581188,
				"element": "C" 
			},
			{
				"x": -1.7547471239,
				"y": 4.5673577934,
				"z": 1.2813495251,
				"element": "C" 
			},
			{
				"x": -1.8687441077,
				"y": 5.3753483704,
				"z": 2.1843993279,
				"element": "O" 
			},
			{
				"x": -0.5865561487,
				"y": 4.5918561715,
				"z": 0.3060784043,
				"element": "C" 
			},
			{
				"x": 0.0297567668,
				"y": 3.1949853278,
				"z": 0.0739110645,
				"element": "C" 
			},
			{
				"x": -1.0083356251,
				"y": 2.0762768236,
				"z": -0.2300227806,
				"element": "C" 
			},
			{
				"x": -1.6286500222,
				"y": 2.3671567562,
				"z": -1.6159934148,
				"element": "C" 
			},
			{
				"x": -0.2695333384,
				"y": 0.6869553449,
				"z": -0.2728607921,
				"element": "C" 
			},
			{
				"x": -1.0437374804,
				"y": -0.4065150797,
				"z": -1.0478506295,
				"element": "C" 
			},
			{
				"x": -0.5367453083,
				"y": -1.848373158,
				"z": -0.8076594381,
				"element": "C" 
			},
			{
				"x": 0.8621214912,
				"y": -1.9997208663,
				"z": -0.1778502162,
				"element": "C" 
			},
			{
				"x": 1.0518138729,
				"y": -3.487062279,
				"z": 0.1960358182,
				"element": "C" 
			},
			{
				"x": 2.0675017165,
				"y": -1.6058416203,
				"z": -1.1176921824,
				"element": "C" 
			},
			{
				"x": 2.967221145,
				"y": -0.6435935851,
				"z": -0.3241319821,
				"element": "C" 
			},
			{
				"x": 2.5652917964,
				"y": -0.858484098,
				"z": 1.1428492785,
				"element": "C" 
			},
			{
				"x": 1.0391585372,
				"y": -1.108674699,
				"z": 1.0991664461,
				"element": "C" 
			},
			{
				"x": 0.2060296138,
				"y": 0.2153071374,
				"z": 1.1273794683,
				"element": "C" 
			},
			{
				"x": 1.6808240416,
				"y": -0.9482535898,
				"z": -2.3534815662,
				"element": "O" 
			},
			{
				"x": 1.5098636998,
				"y": -1.7276320044,
				"z": -3.4479476241,
				"element": "C" 
			},
			{
				"x": 1.1770891238,
				"y": -0.8843139506,
				"z": -4.657203881,
				"element": "C" 
			},
			{
				"x": 1.607715959,
				"y": -2.936372517,
				"z": -3.4481702134,
				"element": "O" 
			},
			{
				"x": -1.4974756668,
				"y": -1.9007787146,
				"z": 2.146322494,
				"element": "H" 
			},
			{
				"x": -2.6039204266,
				"y": -0.8461300663,
				"z": 1.2616255534,
				"element": "H" 
			},
			{
				"x": -2.6113883032,
				"y": -0.8560501265,
				"z": 3.0234883873,
				"element": "H" 
			},
			{
				"x": -0.3952016044,
				"y": 0.0856438756,
				"z": 3.1708377,
				"element": "H" 
			},
			{
				"x": -2.407544884,
				"y": 1.6008953875,
				"z": 2.9611282259,
				"element": "H" 
			},
			{
				"x": -0.8589623185,
				"y": 2.3381212299,
				"z": 2.6241650282,
				"element": "H" 
			},
			{
				"x": -2.8997924588,
				"y": 1.3778591112,
				"z": 0.5564698282,
				"element": "H" 
			},
			{
				"x": -3.4959400496,
				"y": 3.4710895339,
				"z": 1.8535302908,
				"element": "H" 
			},
			{
				"x": -3.325083929,
				"y": 3.7265470524,
				"z": 0.115001476,
				"element": "H" 
			},
			{
				"x": -0.9680472137,
				"y": 4.9960140582,
				"z": -0.6418892643,
				"element": "H" 
			},
			{
				"x": 0.1589472014,
				"y": 5.3003256813,
				"z": 0.677540968,
				"element": "H" 
			},
			{
				"x": 0.746185525,
				"y": 3.2509286616,
				"z": -0.755018371,
				"element": "H" 
			},
			{
				"x": 0.6159419072,
				"y": 2.9356989078,
				"z": 0.9603694317,
				"element": "H" 
			},
			{
				"x": -0.8754315828,
				"y": 2.2533291451,
				"z": -2.4040352048,
				"element": "H" 
			},
			{
				"x": -2.4571201179,
				"y": 1.6911882595,
				"z": -1.8445525477,
				"element": "H" 
			},
			{
				"x": -2.0173122961,
				"y": 3.386053408,
				"z": -1.6902075365,
				"element": "H" 
			},
			{
				"x": 0.639134508,
				"y": 0.8664585495,
				"z": -0.860571572,
				"element": "H" 
			},
			{
				"x": -0.9777930931,
				"y": -0.1746929429,
				"z": -2.1137772026,
				"element": "H" 
			},
			{
				"x": -2.1109421866,
				"y": -0.3706949672,
				"z": -0.8023318194,
				"element": "H" 
			},
			{
				"x": -0.5718347314,
				"y": -2.4189440449,
				"z": -1.7418389729,
				"element": "H" 
			},
			{
				"x": -1.2308783911,
				"y": -2.3585981156,
				"z": -0.1318466933,
				"element": "H" 
			},
			{
				"x": 2.0235686955,
				"y": -3.6681169551,
				"z": 0.6683991183,
				"element": "H" 
			},
			{
				"x": 0.2767414739,
				"y": -3.8169812942,
				"z": 0.8960886656,
				"element": "H" 
			},
			{
				"x": 0.9965416283,
				"y": -4.1146889265,
				"z": -0.699400395,
				"element": "H" 
			},
			{
				"x": 2.6011869761,
				"y": -2.5120812886,
				"z": -1.4081696982,
				"element": "H" 
			},
			{
				"x": 4.0309396621,
				"y": -0.8173730514,
				"z": -0.5136541819,
				"element": "H" 
			},
			{
				"x": 2.7502654674,
				"y": 0.3830430157,
				"z": -0.636440005,
				"element": "H" 
			},
			{
				"x": 2.8413341099,
				"y": -0.016768543,
				"z": 1.7864531948,
				"element": "H" 
			},
			{
				"x": 3.0755230232,
				"y": -1.7425178034,
				"z": 1.5434657913,
				"element": "H" 
			},
			{
				"x": 0.7493811046,
				"y": -1.693215156,
				"z": 1.9798752524,
				"element": "H" 
			},
			{
				"x": 0.9021931411,
				"y": 0.9867083739,
				"z": 1.4802938401,
				"element": "H" 
			},
			{
				"x": 1.9032179806,
				"y": -0.0750402144,
				"z": -4.7708709876,
				"element": "H" 
			},
			{
				"x": 1.1693617179,
				"y": -1.5142251189,
				"z": -5.5462154909,
				"element": "H" 
			},
			{
				"x": 0.1919627743,
				"y": -0.4243242509,
				"z": -4.5288183099,
				"element": "H" 
			}
		],
		 "valence_orbital": [ 
			{
				"type": "occ",
				"energy": -0.28391,
				"method": "rhf"
			},
			{
				"type": "occ",
				"energy": -0.27814,
				"method": "rhf"
			},
			{
				"type": "occ",
				"energy": -0.27538,
				"method": "rhf"
			},
			{
				"type": "occ",
				"energy": -0.26912,
				"method": "rhf"
			},
			{
				"type": "occ",
				"energy": -0.23243,
				"method": "rhf"
			},
			{
				"type": "unocc",
				"energy": -0.01072,
				"method": "rhf"
			},
			{
				"type": "unocc",
				"energy": 0.00995,
				"method": "rhf"
			},
			{
				"type": "unocc",
				"energy": 0.05908,
				"method": "rhf"
			},
			{
				"type": "unocc",
				"energy": 0.06883,
				"method": "rhf"
			},
			{
				"type": "unocc",
				"energy": 0.07188,
				"method": "rhf"
			}
		],
		"cosmo_sigma_profile": { 
			"-0.025": 0.0,
			"-0.024": 0.0,
			"-0.023": 0.0,
			"-0.022": 0.0,
			"-0.021": 0.0,
			"-0.02": 0.0,
			"-0.019": 0.0,
			"-0.018": 0.0,
			"-0.017": 0.0,
			"-0.016": 0.0,
			"-0.015": 0.0,
			"-0.014": 0.0,
			"-0.013": 0.0,
			"-0.012": 0.0,
			"-0.011": 0.0,
			"-0.01": 0.0,
			"-0.009": 0.0,
			"-0.008": 0.141080903657,
			"-0.007": 1.28811216066,
			"-0.006": 5.52357534461,
			"-0.005": 10.9839204765,
			"-0.004": 20.7661050543,
			"-0.003": 44.7511281782,
			"-0.002": 70.7301341944,
			"-0.001": 67.2429161727,
			"0.0": 49.5571930791,
			"0.001": 38.7070141466,
			"0.002": 18.6602013335,
			"0.003": 5.74529508363,
			"0.004": 5.72774093817,
			"0.005": 5.21914029049,
			"0.006": 4.56784637119,
			"0.007": 4.20683902908,
			"0.008": 2.93722524416,
			"0.009": 2.56317267852,
			"0.01": 3.4167634087,
			"0.011": 5.53293196356,
			"0.012": 7.32604204204,
			"0.013": 5.77624497882,
			"0.014": 1.38607803737,
			"0.015": 0.0,
			"0.016": 0.0,
			"0.017": 0.0,
			"0.018": 0.0,
			"0.019": 0.0,
			"0.02": 0.0,
			"0.021": 0.0,
			"0.022": 0.0,
			"0.023": 0.0,
			"0.024": 0.0,
			"0.025": 0.0
		}
	}
}
