{
	 "smiles": "OC(=O)C1CCCN(C1)C(=O)CC1=CC=CC=C1", 
	 "Tm": 386.15, 
	 "num_atms": 35, 
	 "gaussian": { 
		 "optdone": 1, 
		 "sigma_profile": "yes", 
		 "theory": "DFT", 
		 "functional": "B3LYP", 
		 "basiset": "6-31G**", 
		 "properties": { 
			 "R2extent": 4346.8868, 
			 "electric_dipole_moment_norm": 4.12737032625, 
			 "electric_quadrupole_moment_norm": 10.7848818223, 
			 "total_energy": -824.192940609, 
			 "HOMO_LUMO_gap": 0.22494, 
			 "cosmo_polarized_energy": -16.54, 
			 "cosmo_cavitation_energy": 35.23, 
			 "cosmo_dispersion_energy": -24.69, 
			 "cosmo_repulsion_energy": 1.88, 
			 "cosmo_total_nonelectrostatic_energy": 12.42, 
			 "SMD_solvation_energy": 5.98 
		},
		"coords": [
			{
				"x": 2.6328021575,
				"y": -0.670018974,
				"z": 1.0180834872,
				"element": "O" 
			},
			{
				"x": 2.3210791537,
				"y": 0.5643401885,
				"z": 0.5642825651,
				"element": "C" 
			},
			{
				"x": 2.5856289588,
				"y": 0.9443146952,
				"z": -0.55513012,
				"element": "O" 
			},
			{
				"x": 1.5696903681,
				"y": 1.3551032253,
				"z": 1.6303065119,
				"element": "C" 
			},
			{
				"x": 1.518377064,
				"y": 2.870597795,
				"z": 1.3088219198,
				"element": "C" 
			},
			{
				"x": 0.0961569812,
				"y": 3.337541207,
				"z": 0.9525150275,
				"element": "C" 
			},
			{
				"x": -0.5873764781,
				"y": 2.3715099581,
				"z": -0.0138507307,
				"element": "C" 
			},
			{
				"x": -0.6464408553,
				"y": 1.0140455034,
				"z": 0.5659491049,
				"element": "N" 
			},
			{
				"x": 0.1452825462,
				"y": 0.7552315391,
				"z": 1.7655068545,
				"element": "C" 
			},
			{
				"x": -1.369742395,
				"y": 0.085727163,
				"z": -0.136192223,
				"element": "C" 
			},
			{
				"x": -1.9329539861,
				"y": 0.3910495967,
				"z": -1.186159937,
				"element": "O" 
			},
			{
				"x": -1.4523276641,
				"y": -1.3540526792,
				"z": 0.3838036132,
				"element": "C" 
			},
			{
				"x": -0.2460450252,
				"y": -2.1985390039,
				"z": -0.0019549286,
				"element": "C" 
			},
			{
				"x": 0.3436457145,
				"y": -2.0665440243,
				"z": -1.2677447224,
				"element": "C" 
			},
			{
				"x": 1.4534585428,
				"y": -2.8377099812,
				"z": -1.61702566,
				"element": "C" 
			},
			{
				"x": 1.9861659232,
				"y": -3.7597316144,
				"z": -0.710376707,
				"element": "C" 
			},
			{
				"x": 1.395719256,
				"y": -3.9077450885,
				"z": 0.5466183706,
				"element": "C" 
			},
			{
				"x": 0.2898444088,
				"y": -3.1306052583,
				"z": 0.8958386776,
				"element": "C" 
			},
			{
				"x": 2.9590461007,
				"y": -1.187720286,
				"z": 0.2615385184,
				"element": "H" 
			},
			{
				"x": 2.0807292796,
				"y": 1.1688921132,
				"z": 2.5813578878,
				"element": "H" 
			},
			{
				"x": 2.1826956638,
				"y": 3.065631909,
				"z": 0.4624375918,
				"element": "H" 
			},
			{
				"x": 1.8965164189,
				"y": 3.4457123742,
				"z": 2.1599526692,
				"element": "H" 
			},
			{
				"x": -0.5122130316,
				"y": 3.4438278905,
				"z": 1.8594907542,
				"element": "H" 
			},
			{
				"x": 0.1329731384,
				"y": 4.329384681,
				"z": 0.4904192423,
				"element": "H" 
			},
			{
				"x": -0.038347265,
				"y": 2.3291220255,
				"z": -0.9624035148,
				"element": "H" 
			},
			{
				"x": -1.6059155698,
				"y": 2.6915229198,
				"z": -0.2507997281,
				"element": "H" 
			},
			{
				"x": -0.3339574169,
				"y": 1.1945139706,
				"z": 2.6512723418,
				"element": "H" 
			},
			{
				"x": 0.2225951649,
				"y": -0.3176793408,
				"z": 1.9304943609,
				"element": "H" 
			},
			{
				"x": -2.3541051516,
				"y": -1.7607216376,
				"z": -0.0842990939,
				"element": "H" 
			},
			{
				"x": -1.6049159468,
				"y": -1.3926243273,
				"z": 1.4670203207,
				"element": "H" 
			},
			{
				"x": -0.0688193698,
				"y": -1.3524967331,
				"z": -1.9743539066,
				"element": "H" 
			},
			{
				"x": 1.8998458978,
				"y": -2.720312746,
				"z": -2.6004746988,
				"element": "H" 
			},
			{
				"x": 2.8462655263,
				"y": -4.3637297918,
				"z": -0.9855280855,
				"element": "H" 
			},
			{
				"x": 1.7981965489,
				"y": -4.6236567743,
				"z": 1.257746063,
				"element": "H" 
			},
			{
				"x": -0.1586546589,
				"y": -3.245980494,
				"z": 1.8798381741,
				"element": "H" 
			}
		],
		 "valence_orbital": [ 
			{
				"type": "occ",
				"energy": -0.27563,
				"method": "rhf"
			},
			{
				"type": "occ",
				"energy": -0.25508,
				"method": "rhf"
			},
			{
				"type": "occ",
				"energy": -0.25308,
				"method": "rhf"
			},
			{
				"type": "occ",
				"energy": -0.23735,
				"method": "rhf"
			},
			{
				"type": "occ",
				"energy": -0.23406,
				"method": "rhf"
			},
			{
				"type": "unocc",
				"energy": -0.00912,
				"method": "rhf"
			},
			{
				"type": "unocc",
				"energy": -0.00884,
				"method": "rhf"
			},
			{
				"type": "unocc",
				"energy": 0.00503,
				"method": "rhf"
			},
			{
				"type": "unocc",
				"energy": 0.02928,
				"method": "rhf"
			},
			{
				"type": "unocc",
				"energy": 0.07486,
				"method": "rhf"
			}
		],
		"cosmo_sigma_profile": { 
			"-0.025": 0.0,
			"-0.024": 0.0,
			"-0.023": 0.0,
			"-0.022": 0.0,
			"-0.021": 0.0,
			"-0.02": 0.0,
			"-0.019": 0.0,
			"-0.018": 0.0,
			"-0.017": 0.0,
			"-0.016": 0.0,
			"-0.015": 0.0,
			"-0.014": 0.207671447266,
			"-0.013": 0.725274039755,
			"-0.012": 0.25858325845,
			"-0.011": 0.721906374763,
			"-0.01": 0.372729185252,
			"-0.009": 0.8510635967,
			"-0.008": 0.908422545497,
			"-0.007": 3.06711413072,
			"-0.006": 13.0324572418,
			"-0.005": 24.2037430146,
			"-0.004": 30.8956446132,
			"-0.003": 31.6197542868,
			"-0.002": 28.5010739302,
			"-0.001": 24.7430316504,
			"0.0": 17.5537747636,
			"0.001": 14.3294964651,
			"0.002": 12.0265877017,
			"0.003": 10.7326299714,
			"0.004": 11.0716731574,
			"0.005": 10.0341605126,
			"0.006": 7.24940870712,
			"0.007": 3.46070696866,
			"0.008": 4.51231284345,
			"0.009": 3.77267648419,
			"0.01": 3.75014347884,
			"0.011": 4.53924728329,
			"0.012": 4.09225301525,
			"0.013": 2.67203346643,
			"0.014": 4.76797338738,
			"0.015": 1.72626634418,
			"0.016": 0.0673897818776,
			"0.017": 0.0,
			"0.018": 0.0,
			"0.019": 0.0,
			"0.02": 0.0,
			"0.021": 0.0,
			"0.022": 0.0,
			"0.023": 0.0,
			"0.024": 0.0,
			"0.025": 0.0
		}
	}
}
