{
	 "smiles": "C1CNC2=NC=CN2C1", 
	 "Tm": 378.15, 
	 "num_atms": 18, 
	 "gaussian": { 
		 "optdone": 1, 
		 "sigma_profile": "yes", 
		 "theory": "DFT", 
		 "functional": "B3LYP", 
		 "basiset": "6-31G**", 
		 "properties": { 
			 "R2extent": 1121.6732, 
			 "electric_dipole_moment_norm": 4.2226744144, 
			 "electric_quadrupole_moment_norm": 6.2571533232, 
			 "total_energy": -398.310282026, 
			 "HOMO_LUMO_gap": 0.22876, 
			 "cosmo_polarized_energy": -12.28, 
			 "cosmo_cavitation_energy": 20.19, 
			 "cosmo_dispersion_energy": -15.71, 
			 "cosmo_repulsion_energy": 1.28, 
			 "cosmo_total_nonelectrostatic_energy": 5.76, 
			 "SMD_solvation_energy": 0.4 
		},
		"coords": [
			{
				"x": -0.9600689589,
				"y": -1.1678419299,
				"z": -1.1804306237,
				"element": "C" 
			},
			{
				"x": 0.469512477,
				"y": -0.7589522689,
				"z": -1.5571173443,
				"element": "C" 
			},
			{
				"x": 1.134817053,
				"y": -0.2446585487,
				"z": -0.3632851378,
				"element": "N" 
			},
			{
				"x": 0.4372262127,
				"y": 0.715879776,
				"z": 0.3579134899,
				"element": "C" 
			},
			{
				"x": 0.9481981844,
				"y": 1.577902432,
				"z": 1.2116629473,
				"element": "N" 
			},
			{
				"x": -0.1481872197,
				"y": 2.2623540707,
				"z": 1.7082026249,
				"element": "C" 
			},
			{
				"x": -1.3114127681,
				"y": 1.8096152707,
				"z": 1.1506632289,
				"element": "C" 
			},
			{
				"x": -0.9275159331,
				"y": 0.7955278916,
				"z": 0.2719467716,
				"element": "N" 
			},
			{
				"x": -1.753546857,
				"y": 0.0385040268,
				"z": -0.6604288378,
				"element": "C" 
			},
			{
				"x": -0.9097918456,
				"y": -1.9404097157,
				"z": -0.4057736823,
				"element": "H" 
			},
			{
				"x": -1.474033111,
				"y": -1.5929350687,
				"z": -2.0479235905,
				"element": "H" 
			},
			{
				"x": 1.0270040885,
				"y": -1.6279054522,
				"z": -1.9191756736,
				"element": "H" 
			},
			{
				"x": 0.4363303304,
				"y": -0.0201289615,
				"z": -2.3773927117,
				"element": "H" 
			},
			{
				"x": 2.1108243775,
				"y": 0.0012752149,
				"z": -0.4666071654,
				"element": "H" 
			},
			{
				"x": -0.0284009127,
				"y": 3.042550343,
				"z": 2.447384402,
				"element": "H" 
			},
			{
				"x": -2.3463740005,
				"y": 2.087561071,
				"z": 1.2769044352,
				"element": "H" 
			},
			{
				"x": -2.6664193667,
				"y": -0.289337281,
				"z": -0.151530117,
				"element": "H" 
			},
			{
				"x": -2.0559617501,
				"y": 0.6856991299,
				"z": -1.4951130157,
				"element": "H" 
			}
		],
		 "valence_orbital": [ 
			{
				"type": "occ",
				"energy": -0.35625,
				"method": "rhf"
			},
			{
				"type": "occ",
				"energy": -0.28494,
				"method": "rhf"
			},
			{
				"type": "occ",
				"energy": -0.25197,
				"method": "rhf"
			},
			{
				"type": "occ",
				"energy": -0.24935,
				"method": "rhf"
			},
			{
				"type": "occ",
				"energy": -0.18009,
				"method": "rhf"
			},
			{
				"type": "unocc",
				"energy": 0.04867,
				"method": "rhf"
			},
			{
				"type": "unocc",
				"energy": 0.07607,
				"method": "rhf"
			},
			{
				"type": "unocc",
				"energy": 0.0879,
				"method": "rhf"
			},
			{
				"type": "unocc",
				"energy": 0.11231,
				"method": "rhf"
			},
			{
				"type": "unocc",
				"energy": 0.12669,
				"method": "rhf"
			}
		],
		"cosmo_sigma_profile": { 
			"-0.025": 0.0,
			"-0.024": 0.0,
			"-0.023": 0.0,
			"-0.022": 0.0,
			"-0.021": 0.0,
			"-0.02": 0.0,
			"-0.019": 0.0,
			"-0.018": 0.0,
			"-0.017": 0.0,
			"-0.016": 0.0,
			"-0.015": 0.0,
			"-0.014": 0.0,
			"-0.013": 0.591308552707,
			"-0.012": 0.936821226693,
			"-0.011": 1.16382538417,
			"-0.01": 0.966741066391,
			"-0.009": 0.676130065427,
			"-0.008": 1.1807586953,
			"-0.007": 2.8046926076,
			"-0.006": 6.06053333229,
			"-0.005": 15.5974742296,
			"-0.004": 24.0840517532,
			"-0.003": 21.2429342286,
			"-0.002": 14.8384356603,
			"-0.001": 9.52321828389,
			"0.0": 5.1420887676,
			"0.001": 4.20888814643,
			"0.002": 4.03568626133,
			"0.003": 5.02569414297,
			"0.004": 3.81760926687,
			"0.005": 4.78965938936,
			"0.006": 5.69696240569,
			"0.007": 6.13233846016,
			"0.008": 3.95168766245,
			"0.009": 2.80392024396,
			"0.01": 2.07499288458,
			"0.011": 2.16136479344,
			"0.012": 2.06914805906,
			"0.013": 1.40000995689,
			"0.014": 0.970723228364,
			"0.015": 0.866240218678,
			"0.016": 1.34115694436,
			"0.017": 1.25183828515,
			"0.018": 0.988374757974,
			"0.019": 0.670392549812,
			"0.02": 0.0342079417041,
			"0.021": 0.0,
			"0.022": 0.0,
			"0.023": 0.0,
			"0.024": 0.0,
			"0.025": 0.0
		}
	}
}
