{
	 "smiles": "CC1=CC=C(C=C1[N+]([O-])=O)C(O)=O", 
	 "Tm": 462.15, 
	 "num_atms": 20, 
	 "gaussian": { 
		 "optdone": 1, 
		 "sigma_profile": "yes", 
		 "theory": "DFT", 
		 "functional": "B3LYP", 
		 "basiset": "6-31G**", 
		 "properties": { 
			 "R2extent": 3114.5955, 
			 "electric_dipole_moment_norm": 3.17216305697, 
			 "electric_quadrupole_moment_norm": 25.6052695272, 
			 "total_energy": -664.626732094, 
			 "HOMO_LUMO_gap": 0.17948, 
			 "cosmo_polarized_energy": -16.18, 
			 "cosmo_cavitation_energy": 25.17, 
			 "cosmo_dispersion_energy": -18.55, 
			 "cosmo_repulsion_energy": 1.45, 
			 "cosmo_total_nonelectrostatic_energy": 8.07, 
			 "SMD_solvation_energy": 7.66 
		},
		"coords": [
			{
				"x": 1.6197072074,
				"y": 2.445096296,
				"z": -2.4783335768,
				"element": "C" 
			},
			{
				"x": 0.7469992508,
				"y": 1.3466728053,
				"z": -1.9266189131,
				"element": "C" 
			},
			{
				"x": 0.9497455941,
				"y": 0.0322820947,
				"z": -2.3849970721,
				"element": "C" 
			},
			{
				"x": 0.196566341,
				"y": -1.0425324509,
				"z": -1.933635644,
				"element": "C" 
			},
			{
				"x": -0.8309944323,
				"y": -0.8453190479,
				"z": -1.0005797965,
				"element": "C" 
			},
			{
				"x": -1.0548333596,
				"y": 0.4422122107,
				"z": -0.5191021322,
				"element": "C" 
			},
			{
				"x": -0.2793407939,
				"y": 1.5107097936,
				"z": -0.9743002474,
				"element": "C" 
			},
			{
				"x": -0.6018313925,
				"y": 2.8276697073,
				"z": -0.3883477104,
				"element": "N" 
			},
			{
				"x": 0.1178189856,
				"y": 3.7848533979,
				"z": -0.6685268725,
				"element": "O" 
			},
			{
				"x": -1.5811784138,
				"y": 2.8953456284,
				"z": 0.3554560037,
				"element": "O" 
			},
			{
				"x": -1.6042975091,
				"y": -2.0486741817,
				"z": -0.5428732462,
				"element": "C" 
			},
			{
				"x": -2.7836886744,
				"y": -1.8268051176,
				"z": 0.0879534931,
				"element": "O" 
			},
			{
				"x": -1.2109171427,
				"y": -3.1774791188,
				"z": -0.7182810527,
				"element": "O" 
			},
			{
				"x": 2.2220183635,
				"y": 2.9080017236,
				"z": -1.6926755652,
				"element": "H" 
			},
			{
				"x": 1.0260968931,
				"y": 3.2503258228,
				"z": -2.9177310811,
				"element": "H" 
			},
			{
				"x": 2.2852894503,
				"y": 2.0355328938,
				"z": -3.2419230192,
				"element": "H" 
			},
			{
				"x": 1.7318529439,
				"y": -0.1385834713,
				"z": -3.1184033354,
				"element": "H" 
			},
			{
				"x": 0.3843892554,
				"y": -2.0491307275,
				"z": -2.2912463429,
				"element": "H" 
			},
			{
				"x": -1.8008799284,
				"y": 0.6663184739,
				"z": 0.2345133201,
				"element": "H" 
			},
			{
				"x": -3.0402226385,
				"y": -0.8961967323,
				"z": 0.0294527907,
				"element": "H" 
			}
		],
		 "valence_orbital": [ 
			{
				"type": "occ",
				"energy": -0.32124,
				"method": "rhf"
			},
			{
				"type": "occ",
				"energy": -0.30406,
				"method": "rhf"
			},
			{
				"type": "occ",
				"energy": -0.29816,
				"method": "rhf"
			},
			{
				"type": "occ",
				"energy": -0.29163,
				"method": "rhf"
			},
			{
				"type": "occ",
				"energy": -0.28306,
				"method": "rhf"
			},
			{
				"type": "unocc",
				"energy": -0.10358,
				"method": "rhf"
			},
			{
				"type": "unocc",
				"energy": -0.06971,
				"method": "rhf"
			},
			{
				"type": "unocc",
				"energy": -0.02263,
				"method": "rhf"
			},
			{
				"type": "unocc",
				"energy": 0.03375,
				"method": "rhf"
			},
			{
				"type": "unocc",
				"energy": 0.04723,
				"method": "rhf"
			}
		],
		"cosmo_sigma_profile": { 
			"-0.025": 0.0,
			"-0.024": 0.0,
			"-0.023": 0.0,
			"-0.022": 0.0,
			"-0.021": 0.0,
			"-0.02": 0.300337610081,
			"-0.019": 0.824579548158,
			"-0.018": 1.17416028663,
			"-0.017": 1.03274587624,
			"-0.016": 0.843856317615,
			"-0.015": 0.684690432493,
			"-0.014": 1.12117895339,
			"-0.013": 1.04535288361,
			"-0.012": 0.991195160984,
			"-0.011": 1.04388306189,
			"-0.01": 0.75372283068,
			"-0.009": 1.34784234152,
			"-0.008": 2.96351754441,
			"-0.007": 7.93432704921,
			"-0.006": 8.7349077251,
			"-0.005": 11.5717576623,
			"-0.004": 14.6479440337,
			"-0.003": 14.2159068941,
			"-0.002": 17.3212962393,
			"-0.001": 20.0249741493,
			"0.0": 15.5629420708,
			"0.001": 9.52026019687,
			"0.002": 4.40601245323,
			"0.003": 5.18189277691,
			"0.004": 5.32480727782,
			"0.005": 4.50253254589,
			"0.006": 6.56579932705,
			"0.007": 8.92195116378,
			"0.008": 8.02555067848,
			"0.009": 8.57287396733,
			"0.01": 7.21170663706,
			"0.011": 5.10202633463,
			"0.012": 3.31948489496,
			"0.013": 0.757023228494,
			"0.014": 0.0,
			"0.015": 0.0,
			"0.016": 0.0,
			"0.017": 0.0,
			"0.018": 0.0,
			"0.019": 0.0,
			"0.02": 0.0,
			"0.021": 0.0,
			"0.022": 0.0,
			"0.023": 0.0,
			"0.024": 0.0,
			"0.025": 0.0
		}
	}
}
