{
	 "smiles": "CC(C)CN1C=NC2=C1C(=O)NC(=O)N2CC1=CC=CC=C1", 
	 "Tm": 453.15, 
	 "num_atms": 40, 
	 "gaussian": { 
		 "optdone": 1, 
		 "sigma_profile": "yes", 
		 "theory": "DFT", 
		 "functional": "B3LYP", 
		 "basiset": "6-31G**", 
		 "properties": { 
			 "R2extent": 7758.2923, 
			 "electric_dipole_moment_norm": 4.30542239623, 
			 "electric_quadrupole_moment_norm": 9.75231852433, 
			 "total_energy": -990.072153728, 
			 "HOMO_LUMO_gap": 0.18572, 
			 "cosmo_polarized_energy": -16.24, 
			 "cosmo_cavitation_energy": 42.67, 
			 "cosmo_dispersion_energy": -29.49, 
			 "cosmo_repulsion_energy": 2.24, 
			 "cosmo_total_nonelectrostatic_energy": 15.42, 
			 "SMD_solvation_energy": 7.25 
		},
		"coords": [
			{
				"x": -2.1254007899,
				"y": 2.4032264981,
				"z": -1.1406730133,
				"element": "C" 
			},
			{
				"x": -3.0853577228,
				"y": 1.4618804697,
				"z": -1.8802608266,
				"element": "C" 
			},
			{
				"x": -3.9777727778,
				"y": 2.2299383792,
				"z": -2.8662982126,
				"element": "C" 
			},
			{
				"x": -2.3365865551,
				"y": 0.3543916975,
				"z": -2.6474264811,
				"element": "C" 
			},
			{
				"x": -1.4928756432,
				"y": -0.4942535998,
				"z": -1.7964774121,
				"element": "N" 
			},
			{
				"x": -1.8899169912,
				"y": -1.5063312721,
				"z": -0.9853668575,
				"element": "C" 
			},
			{
				"x": -0.8931562476,
				"y": -2.0780959329,
				"z": -0.3134082135,
				"element": "N" 
			},
			{
				"x": 0.2069053009,
				"y": -1.3888613565,
				"z": -0.7168357112,
				"element": "C" 
			},
			{
				"x": -0.118661642,
				"y": -0.3998330848,
				"z": -1.6310959703,
				"element": "C" 
			},
			{
				"x": 0.8635218708,
				"y": 0.452854401,
				"z": -2.2406618457,
				"element": "C" 
			},
			{
				"x": 0.6963782499,
				"y": 1.3477517138,
				"z": -3.0641261597,
				"element": "O" 
			},
			{
				"x": 2.1436725553,
				"y": 0.1268329381,
				"z": -1.7552873126,
				"element": "N" 
			},
			{
				"x": 2.5358377091,
				"y": -0.8456282985,
				"z": -0.8277210514,
				"element": "C" 
			},
			{
				"x": 3.7086186698,
				"y": -0.9884551828,
				"z": -0.512708066,
				"element": "O" 
			},
			{
				"x": 1.5052757268,
				"y": -1.6254047099,
				"z": -0.312976494,
				"element": "N" 
			},
			{
				"x": 1.8198293892,
				"y": -2.6627747979,
				"z": 0.6901097317,
				"element": "C" 
			},
			{
				"x": 1.757452757,
				"y": -2.1588308541,
				"z": 2.1191149008,
				"element": "C" 
			},
			{
				"x": 2.8696090013,
				"y": -1.5318918953,
				"z": 2.6978697021,
				"element": "C" 
			},
			{
				"x": 2.8113722686,
				"y": -1.0682510568,
				"z": 4.012520599,
				"element": "C" 
			},
			{
				"x": 1.6433722639,
				"y": -1.2269754728,
				"z": 4.7619759454,
				"element": "C" 
			},
			{
				"x": 0.5316229487,
				"y": -1.848409116,
				"z": 4.1902410624,
				"element": "C" 
			},
			{
				"x": 0.5881494401,
				"y": -2.3116987313,
				"z": 2.8746301749,
				"element": "C" 
			},
			{
				"x": -1.4142894041,
				"y": 2.8614609974,
				"z": -1.8360168809,
				"element": "H" 
			},
			{
				"x": -2.6823742765,
				"y": 3.2021701163,
				"z": -0.6407937183,
				"element": "H" 
			},
			{
				"x": -1.5495205076,
				"y": 1.8730636421,
				"z": -0.3762154873,
				"element": "H" 
			},
			{
				"x": -3.7345057671,
				"y": 0.9733235393,
				"z": -1.1389332467,
				"element": "H" 
			},
			{
				"x": -4.6787720442,
				"y": 1.5653458369,
				"z": -3.3837370601,
				"element": "H" 
			},
			{
				"x": -4.5639293163,
				"y": 2.991834484,
				"z": -2.3436515712,
				"element": "H" 
			},
			{
				"x": -3.3735137975,
				"y": 2.7390800012,
				"z": -3.6260503461,
				"element": "H" 
			},
			{
				"x": -3.0509494964,
				"y": -0.2983068389,
				"z": -3.159980993,
				"element": "H" 
			},
			{
				"x": -1.6746026623,
				"y": 0.796386166,
				"z": -3.3953752043,
				"element": "H" 
			},
			{
				"x": -2.9267213428,
				"y": -1.8066689177,
				"z": -0.9151152885,
				"element": "H" 
			},
			{
				"x": 2.9097246451,
				"y": 0.6787388188,
				"z": -2.1214020304,
				"element": "H" 
			},
			{
				"x": 2.8218441563,
				"y": -3.0206156545,
				"z": 0.4507841311,
				"element": "H" 
			},
			{
				"x": 1.1024292746,
				"y": -3.4705115701,
				"z": 0.5359769557,
				"element": "H" 
			},
			{
				"x": 3.7717133459,
				"y": -1.4032606148,
				"z": 2.1071657518,
				"element": "H" 
			},
			{
				"x": 3.6794962135,
				"y": -0.5860119479,
				"z": 4.4531871712,
				"element": "H" 
			},
			{
				"x": 1.6006721895,
				"y": -0.8691100686,
				"z": 5.7869326265,
				"element": "H" 
			},
			{
				"x": -0.3793366137,
				"y": -1.9748251994,
				"z": 4.7687907452,
				"element": "H" 
			},
			{
				"x": -0.2785543785,
				"y": -2.7850735256,
				"z": 2.4218959565,
				"element": "H" 
			}
		],
		 "valence_orbital": [ 
			{
				"type": "occ",
				"energy": -0.28089,
				"method": "rhf"
			},
			{
				"type": "occ",
				"energy": -0.26219,
				"method": "rhf"
			},
			{
				"type": "occ",
				"energy": -0.24536,
				"method": "rhf"
			},
			{
				"type": "occ",
				"energy": -0.24395,
				"method": "rhf"
			},
			{
				"type": "occ",
				"energy": -0.22086,
				"method": "rhf"
			},
			{
				"type": "unocc",
				"energy": -0.03514,
				"method": "rhf"
			},
			{
				"type": "unocc",
				"energy": -0.00311,
				"method": "rhf"
			},
			{
				"type": "unocc",
				"energy": 0.00316,
				"method": "rhf"
			},
			{
				"type": "unocc",
				"energy": 0.02207,
				"method": "rhf"
			},
			{
				"type": "unocc",
				"energy": 0.03005,
				"method": "rhf"
			}
		],
		"cosmo_sigma_profile": { 
			"-0.025": 0.0,
			"-0.024": 0.0,
			"-0.023": 0.0,
			"-0.022": 0.0,
			"-0.021": 0.0,
			"-0.02": 0.0,
			"-0.019": 0.0,
			"-0.018": 0.0,
			"-0.017": 0.0,
			"-0.016": 0.240151879809,
			"-0.015": 0.913046192882,
			"-0.014": 0.934183311384,
			"-0.013": 0.704565900935,
			"-0.012": 0.747082095014,
			"-0.011": 0.377937313642,
			"-0.01": 3.00470279841,
			"-0.009": 3.27715912372,
			"-0.008": 2.63330843515,
			"-0.007": 3.77404797532,
			"-0.006": 9.72283553326,
			"-0.005": 18.1458795793,
			"-0.004": 25.0485767259,
			"-0.003": 37.3879817782,
			"-0.002": 39.3487914363,
			"-0.001": 35.1649658777,
			"0.0": 27.4703977155,
			"0.001": 26.4137129876,
			"0.002": 15.4114551874,
			"0.003": 15.1137832685,
			"0.004": 14.8037303334,
			"0.005": 13.9959027587,
			"0.006": 11.4163213409,
			"0.007": 4.25590597638,
			"0.008": 2.80375681518,
			"0.009": 3.74743962467,
			"0.01": 3.71217892475,
			"0.011": 4.16890200736,
			"0.012": 6.46552984955,
			"0.013": 6.56042337599,
			"0.014": 0.465747466149,
			"0.015": 0.0,
			"0.016": 0.0,
			"0.017": 0.0,
			"0.018": 0.0,
			"0.019": 0.0,
			"0.02": 0.0,
			"0.021": 0.0,
			"0.022": 0.0,
			"0.023": 0.0,
			"0.024": 0.0,
			"0.025": 0.0
		}
	}
}
