{
	 "smiles": "OC(=O)C=CC1=C(OCC2CCCCC2)C=CC=C1", 
	 "Tm": 373.15, 
	 "num_atms": 39, 
	 "gaussian": { 
		 "optdone": 1, 
		 "sigma_profile": "yes", 
		 "theory": "DFT", 
		 "functional": "B3LYP", 
		 "basiset": "6-31G**", 
		 "properties": { 
			 "R2extent": 8282.414, 
			 "electric_dipole_moment_norm": 2.85833540544, 
			 "electric_quadrupole_moment_norm": 17.3038262821, 
			 "total_energy": -847.42361016, 
			 "HOMO_LUMO_gap": 0.17203, 
			 "cosmo_polarized_energy": -11.21, 
			 "cosmo_cavitation_energy": 40.96, 
			 "cosmo_dispersion_energy": -28.46, 
			 "cosmo_repulsion_energy": 2.24, 
			 "cosmo_total_nonelectrostatic_energy": 14.74, 
			 "SMD_solvation_energy": 7.31 
		},
		"coords": [
			{
				"x": -2.0879181065,
				"y": 0.3129185351,
				"z": -4.8338892388,
				"element": "O" 
			},
			{
				"x": -0.7363960122,
				"y": 0.4270805009,
				"z": -4.8960826076,
				"element": "C" 
			},
			{
				"x": -0.1895290712,
				"y": 1.012541705,
				"z": -5.8128424723,
				"element": "O" 
			},
			{
				"x": 0.0108136116,
				"y": -0.152689484,
				"z": -3.7628103524,
				"element": "C" 
			},
			{
				"x": -0.3801778891,
				"y": -0.9239777306,
				"z": -2.7254131767,
				"element": "C" 
			},
			{
				"x": -1.6473267787,
				"y": -1.5900111443,
				"z": -2.3962371471,
				"element": "C" 
			},
			{
				"x": -1.9680252851,
				"y": -1.7658262617,
				"z": -1.0304401531,
				"element": "C" 
			},
			{
				"x": -1.1270391181,
				"y": -1.270144734,
				"z": -0.057884146,
				"element": "O" 
			},
			{
				"x": -1.362574553,
				"y": 0.0979108584,
				"z": 0.3226161505,
				"element": "C" 
			},
			{
				"x": -0.385331369,
				"y": 0.4773295592,
				"z": 1.4279608921,
				"element": "C" 
			},
			{
				"x": -0.4813505985,
				"y": 1.9975941697,
				"z": 1.7226352472,
				"element": "C" 
			},
			{
				"x": -0.0315766556,
				"y": 2.3541718266,
				"z": 3.1592545523,
				"element": "C" 
			},
			{
				"x": 1.0592171182,
				"y": 1.3947058164,
				"z": 3.6529840122,
				"element": "C" 
			},
			{
				"x": 0.5239463564,
				"y": -0.0554668918,
				"z": 3.7444316042,
				"element": "C" 
			},
			{
				"x": -0.5953476592,
				"y": -0.3359066928,
				"z": 2.7145743736,
				"element": "C" 
			},
			{
				"x": -3.1072479791,
				"y": -2.4712957933,
				"z": -0.642343368,
				"element": "C" 
			},
			{
				"x": -3.9413392091,
				"y": -3.0314223964,
				"z": -1.6085622882,
				"element": "C" 
			},
			{
				"x": -3.6329504827,
				"y": -2.8847717321,
				"z": -2.9636522506,
				"element": "C" 
			},
			{
				"x": -2.4990399331,
				"y": -2.1761998109,
				"z": -3.3497731256,
				"element": "C" 
			},
			{
				"x": -2.4181478413,
				"y": 0.7706712933,
				"z": -5.6250417223,
				"element": "H" 
			},
			{
				"x": 1.0523105036,
				"y": 0.1518771488,
				"z": -3.7964587671,
				"element": "H" 
			},
			{
				"x": 0.3886665519,
				"y": -1.1029384028,
				"z": -1.9750556565,
				"element": "H" 
			},
			{
				"x": -2.4008908864,
				"y": 0.2048603086,
				"z": 0.6712788545,
				"element": "H" 
			},
			{
				"x": -1.2327483845,
				"y": 0.7505949495,
				"z": -0.5524740786,
				"element": "H" 
			},
			{
				"x": 0.6219183397,
				"y": 0.25377665,
				"z": 1.0494261301,
				"element": "H" 
			},
			{
				"x": 0.1289417253,
				"y": 2.5424578133,
				"z": 0.992321774,
				"element": "H" 
			},
			{
				"x": -1.5144082398,
				"y": 2.3395780929,
				"z": 1.5727287837,
				"element": "H" 
			},
			{
				"x": 0.317692401,
				"y": 3.3921018496,
				"z": 3.1934335048,
				"element": "H" 
			},
			{
				"x": -0.8889673985,
				"y": 2.2988612461,
				"z": 3.8424657201,
				"element": "H" 
			},
			{
				"x": 1.9081206631,
				"y": 1.436818753,
				"z": 2.9579097773,
				"element": "H" 
			},
			{
				"x": 1.4471883588,
				"y": 1.7178285841,
				"z": 4.6253922203,
				"element": "H" 
			},
			{
				"x": 0.1393958471,
				"y": -0.2481050784,
				"z": 4.7529868856,
				"element": "H" 
			},
			{
				"x": 1.3514684923,
				"y": -0.7586874682,
				"z": 3.5936193966,
				"element": "H" 
			},
			{
				"x": -0.6422928216,
				"y": -1.4032539381,
				"z": 2.4798166598,
				"element": "H" 
			},
			{
				"x": -1.5729874348,
				"y": -0.0673742326,
				"z": 3.1393253137,
				"element": "H" 
			},
			{
				"x": -3.3131703903,
				"y": -2.5824750984,
				"z": 0.4175322548,
				"element": "H" 
			},
			{
				"x": -4.8234233635,
				"y": -3.5878121621,
				"z": -1.3049459634,
				"element": "H" 
			},
			{
				"x": -4.2694612653,
				"y": -3.334817128,
				"z": -3.7194739862,
				"element": "H" 
			},
			{
				"x": -2.2534112429,
				"y": -2.08410348,
				"z": -4.4000136066,
				"element": "H" 
			}
		],
		 "valence_orbital": [ 
			{
				"type": "occ",
				"energy": -0.29633,
				"method": "rhf"
			},
			{
				"type": "occ",
				"energy": -0.27316,
				"method": "rhf"
			},
			{
				"type": "occ",
				"energy": -0.27038,
				"method": "rhf"
			},
			{
				"type": "occ",
				"energy": -0.24822,
				"method": "rhf"
			},
			{
				"type": "occ",
				"energy": -0.23443,
				"method": "rhf"
			},
			{
				"type": "unocc",
				"energy": -0.0624,
				"method": "rhf"
			},
			{
				"type": "unocc",
				"energy": -0.00184,
				"method": "rhf"
			},
			{
				"type": "unocc",
				"energy": 0.01206,
				"method": "rhf"
			},
			{
				"type": "unocc",
				"energy": 0.07712,
				"method": "rhf"
			},
			{
				"type": "unocc",
				"energy": 0.07862,
				"method": "rhf"
			}
		],
		"cosmo_sigma_profile": { 
			"-0.025": 0.0,
			"-0.024": 0.0,
			"-0.023": 0.0,
			"-0.022": 0.0,
			"-0.021": 0.0,
			"-0.02": 0.0,
			"-0.019": 0.0,
			"-0.018": 0.374906718546,
			"-0.017": 0.734442962761,
			"-0.016": 0.90310882846,
			"-0.015": 0.988497859457,
			"-0.014": 1.00949602248,
			"-0.013": 0.179144725689,
			"-0.012": 0.670513600987,
			"-0.011": 0.768772926152,
			"-0.01": 0.866908903526,
			"-0.009": 0.623522362011,
			"-0.008": 0.2628196188,
			"-0.007": 1.75779422498,
			"-0.006": 9.43450194227,
			"-0.005": 11.9027352758,
			"-0.004": 15.5904603251,
			"-0.003": 21.083334722,
			"-0.002": 44.8405596095,
			"-0.001": 49.1107005958,
			"0.0": 36.7539639968,
			"0.001": 34.6504830975,
			"0.002": 22.3252927303,
			"0.003": 14.6607031386,
			"0.004": 12.1884308318,
			"0.005": 9.55007281874,
			"0.006": 4.9459441514,
			"0.007": 3.28571645841,
			"0.008": 4.0982850248,
			"0.009": 3.4723496915,
			"0.01": 2.89400041642,
			"0.011": 3.19790190619,
			"0.012": 5.25334308905,
			"0.013": 2.25872691113,
			"0.014": 0.0833033950023,
			"0.015": 0.0,
			"0.016": 0.0,
			"0.017": 0.0,
			"0.018": 0.0,
			"0.019": 0.0,
			"0.02": 0.0,
			"0.021": 0.0,
			"0.022": 0.0,
			"0.023": 0.0,
			"0.024": 0.0,
			"0.025": 0.0
		}
	}
}
