{
	 "smiles": "OCCCCOC=C", 
	 "Tm": 240.15, 
	 "num_atms": 20, 
	 "gaussian": { 
		 "optdone": 1, 
		 "sigma_profile": "yes", 
		 "theory": "DFT", 
		 "functional": "B3LYP", 
		 "basiset": "6-31G**", 
		 "properties": { 
			 "R2extent": 1557.848, 
			 "electric_dipole_moment_norm": 1.40528966409, 
			 "electric_quadrupole_moment_norm": 6.53713164392, 
			 "total_energy": -386.276946903, 
			 "HOMO_LUMO_gap": 0.25616, 
			 "cosmo_polarized_energy": -6.87, 
			 "cosmo_cavitation_energy": 22.44, 
			 "cosmo_dispersion_energy": -16.18, 
			 "cosmo_repulsion_energy": 1.38, 
			 "cosmo_total_nonelectrostatic_energy": 7.64, 
			 "SMD_solvation_energy": 4.86 
		},
		"coords": [
			{
				"x": -2.3789934262,
				"y": -0.1738242646,
				"z": -1.5495417541,
				"element": "O" 
			},
			{
				"x": -2.7173880124,
				"y": -0.161818339,
				"z": -0.1662538453,
				"element": "C" 
			},
			{
				"x": -1.5811526785,
				"y": -0.6067594207,
				"z": 0.7573872497,
				"element": "C" 
			},
			{
				"x": -0.3136361084,
				"y": 0.2646544137,
				"z": 0.7411273934,
				"element": "C" 
			},
			{
				"x": 0.376839383,
				"y": 0.3865345729,
				"z": -0.6148964289,
				"element": "C" 
			},
			{
				"x": 0.5805181377,
				"y": -0.9343483476,
				"z": -1.1404545827,
				"element": "O" 
			},
			{
				"x": 1.1786443912,
				"y": -0.9949879239,
				"z": -2.364731897,
				"element": "C" 
			},
			{
				"x": 1.5819203395,
				"y": -2.1433487261,
				"z": -2.9084839149,
				"element": "C" 
			},
			{
				"x": -1.8555121448,
				"y": -0.9699616821,
				"z": -1.7154690255,
				"element": "H" 
			},
			{
				"x": -3.5978784986,
				"y": -0.7976995621,
				"z": 0.0232756649,
				"element": "H" 
			},
			{
				"x": -3.0141093097,
				"y": 0.8696380819,
				"z": 0.0612092594,
				"element": "H" 
			},
			{
				"x": -1.97097531,
				"y": -0.6370631323,
				"z": 1.7831942515,
				"element": "H" 
			},
			{
				"x": -1.3055342559,
				"y": -1.6392823416,
				"z": 0.5073640562,
				"element": "H" 
			},
			{
				"x": -0.5523809805,
				"y": 1.2813950219,
				"z": 1.0802488775,
				"element": "H" 
			},
			{
				"x": 0.3996268776,
				"y": -0.1480160487,
				"z": 1.4646755462,
				"element": "H" 
			},
			{
				"x": -0.2410247607,
				"y": 0.9594385198,
				"z": -1.3141953574,
				"element": "H" 
			},
			{
				"x": 1.3472970202,
				"y": 0.8890185595,
				"z": -0.4987992579,
				"element": "H" 
			},
			{
				"x": 1.2884589748,
				"y": -0.0394097651,
				"z": -2.8781330651,
				"element": "H" 
			},
			{
				"x": 1.4713398664,
				"y": -3.0872664095,
				"z": -2.3859931553,
				"element": "H" 
			},
			{
				"x": 2.0274404953,
				"y": -2.1465932064,
				"z": -3.8953300148,
				"element": "H" 
			}
		],
		 "valence_orbital": [ 
			{
				"type": "occ",
				"energy": -0.33617,
				"method": "rhf"
			},
			{
				"type": "occ",
				"energy": -0.32745,
				"method": "rhf"
			},
			{
				"type": "occ",
				"energy": -0.31176,
				"method": "rhf"
			},
			{
				"type": "occ",
				"energy": -0.25826,
				"method": "rhf"
			},
			{
				"type": "occ",
				"energy": -0.22178,
				"method": "rhf"
			},
			{
				"type": "unocc",
				"energy": 0.03438,
				"method": "rhf"
			},
			{
				"type": "unocc",
				"energy": 0.08092,
				"method": "rhf"
			},
			{
				"type": "unocc",
				"energy": 0.10849,
				"method": "rhf"
			},
			{
				"type": "unocc",
				"energy": 0.11138,
				"method": "rhf"
			},
			{
				"type": "unocc",
				"energy": 0.13095,
				"method": "rhf"
			}
		],
		"cosmo_sigma_profile": { 
			"-0.025": 0.0,
			"-0.024": 0.0,
			"-0.023": 0.0,
			"-0.022": 0.0,
			"-0.021": 0.0,
			"-0.02": 0.0,
			"-0.019": 0.0,
			"-0.018": 0.0,
			"-0.017": 0.0,
			"-0.016": 0.0,
			"-0.015": 0.0,
			"-0.014": 0.0,
			"-0.013": 0.0,
			"-0.012": 0.19654145345,
			"-0.011": 0.61309275055,
			"-0.01": 0.484090196815,
			"-0.009": 0.942739457565,
			"-0.008": 0.830494415151,
			"-0.007": 1.25502808727,
			"-0.006": 3.44548311282,
			"-0.005": 6.95017608025,
			"-0.004": 15.5313925964,
			"-0.003": 27.44791521,
			"-0.002": 26.7428059367,
			"-0.001": 18.7136793738,
			"0.0": 15.7406494966,
			"0.001": 8.53782451262,
			"0.002": 5.2838478819,
			"0.003": 5.69994950864,
			"0.004": 5.94459791165,
			"0.005": 5.47145231378,
			"0.006": 5.32326889386,
			"0.007": 5.45156675084,
			"0.008": 3.72662766682,
			"0.009": 1.95257644566,
			"0.01": 1.2497268135,
			"0.011": 1.59626798575,
			"0.012": 1.22360511821,
			"0.013": 1.59720988484,
			"0.014": 1.42114140416,
			"0.015": 1.21663996146,
			"0.016": 0.0,
			"0.017": 0.0,
			"0.018": 0.0,
			"0.019": 0.0,
			"0.02": 0.0,
			"0.021": 0.0,
			"0.022": 0.0,
			"0.023": 0.0,
			"0.024": 0.0,
			"0.025": 0.0
		}
	}
}
