{
	 "smiles": "S=C=NC1=CC2=C(OCCO2)C=C1", 
	 "Tm": 338.15, 
	 "num_atms": 20, 
	 "gaussian": { 
		 "optdone": 1, 
		 "sigma_profile": "yes", 
		 "theory": "DFT", 
		 "functional": "B3LYP", 
		 "basiset": "6-31G**", 
		 "properties": { 
			 "R2extent": 4448.0953, 
			 "electric_dipole_moment_norm": 5.9795264177, 
			 "electric_quadrupole_moment_norm": 16.1613340743, 
			 "total_energy": -950.536937537, 
			 "HOMO_LUMO_gap": 0.17532, 
			 "cosmo_polarized_energy": -8.84, 
			 "cosmo_cavitation_energy": 27.06, 
			 "cosmo_dispersion_energy": -20.82, 
			 "cosmo_repulsion_energy": 1.62, 
			 "cosmo_total_nonelectrostatic_energy": 7.86, 
			 "SMD_solvation_energy": 5.55 
		},
		"coords": [
			{
				"x": 2.347354415,
				"y": 5.0025352538,
				"z": 3.0284853444,
				"element": "S" 
			},
			{
				"x": 1.9040554379,
				"y": 3.7128926466,
				"z": 2.1985401922,
				"element": "C" 
			},
			{
				"x": 1.5743257691,
				"y": 2.7562722435,
				"z": 1.5799585221,
				"element": "N" 
			},
			{
				"x": 1.192312478,
				"y": 1.6483290828,
				"z": 0.8640093879,
				"element": "C" 
			},
			{
				"x": -0.1440368609,
				"y": 1.5075881331,
				"z": 0.4632072145,
				"element": "C" 
			},
			{
				"x": -0.533010145,
				"y": 0.3846125832,
				"z": -0.2617034187,
				"element": "C" 
			},
			{
				"x": 0.4091369266,
				"y": -0.6116222873,
				"z": -0.5805608176,
				"element": "C" 
			},
			{
				"x": 0.061895511,
				"y": -1.7404791486,
				"z": -1.2754683524,
				"element": "O" 
			},
			{
				"x": -1.3467754206,
				"y": -1.9779562195,
				"z": -1.3311586976,
				"element": "C" 
			},
			{
				"x": -2.0815228669,
				"y": -0.6894855044,
				"z": -1.6609012468,
				"element": "C" 
			},
			{
				"x": -1.8463893315,
				"y": 0.2851003551,
				"z": -0.6418880095,
				"element": "O" 
			},
			{
				"x": 1.7397620805,
				"y": -0.454440812,
				"z": -0.187981884,
				"element": "C" 
			},
			{
				"x": 2.141006175,
				"y": 0.6673412391,
				"z": 0.5273748054,
				"element": "C" 
			},
			{
				"x": -0.8809000222,
				"y": 2.2649515073,
				"z": 0.7037833675,
				"element": "H" 
			},
			{
				"x": -1.695445683,
				"y": -2.3723824135,
				"z": -0.36726962,
				"element": "H" 
			},
			{
				"x": -1.5020106768,
				"y": -2.7345873959,
				"z": -2.1039298187,
				"element": "H" 
			},
			{
				"x": -1.743537072,
				"y": -0.3022232752,
				"z": -2.631471718,
				"element": "H" 
			},
			{
				"x": -3.1624208481,
				"y": -0.8448194396,
				"z": -1.6952740287,
				"element": "H" 
			},
			{
				"x": 2.4477931433,
				"y": -1.2335527081,
				"z": -0.4499393776,
				"element": "H" 
			},
			{
				"x": 3.1725069904,
				"y": 0.7902261593,
				"z": 0.8364881554,
				"element": "H" 
			}
		],
		 "valence_orbital": [ 
			{
				"type": "occ",
				"energy": -0.31932,
				"method": "rhf"
			},
			{
				"type": "occ",
				"energy": -0.26939,
				"method": "rhf"
			},
			{
				"type": "occ",
				"energy": -0.24596,
				"method": "rhf"
			},
			{
				"type": "occ",
				"energy": -0.24492,
				"method": "rhf"
			},
			{
				"type": "occ",
				"energy": -0.21274,
				"method": "rhf"
			},
			{
				"type": "unocc",
				"energy": -0.03742,
				"method": "rhf"
			},
			{
				"type": "unocc",
				"energy": -0.01275,
				"method": "rhf"
			},
			{
				"type": "unocc",
				"energy": 0.01083,
				"method": "rhf"
			},
			{
				"type": "unocc",
				"energy": 0.05567,
				"method": "rhf"
			},
			{
				"type": "unocc",
				"energy": 0.06853,
				"method": "rhf"
			}
		],
		"cosmo_sigma_profile": { 
			"-0.025": 0.0,
			"-0.024": 0.0,
			"-0.023": 0.0,
			"-0.022": 0.0,
			"-0.021": 0.0,
			"-0.02": 0.0,
			"-0.019": 0.0,
			"-0.018": 0.0,
			"-0.017": 0.0,
			"-0.016": 0.0,
			"-0.015": 0.0,
			"-0.014": 0.0,
			"-0.013": 0.0,
			"-0.012": 0.0,
			"-0.011": 0.0,
			"-0.01": 0.0,
			"-0.009": 0.0,
			"-0.008": 2.56364357709,
			"-0.007": 13.2368680725,
			"-0.006": 16.3711509826,
			"-0.005": 16.9089455788,
			"-0.004": 12.5388741639,
			"-0.003": 9.44813327778,
			"-0.002": 9.98042869931,
			"-0.001": 17.6519001682,
			"0.0": 18.1475377416,
			"0.001": 16.7085176069,
			"0.002": 19.9295996836,
			"0.003": 17.2406639694,
			"0.004": 10.6666186227,
			"0.005": 9.02461660569,
			"0.006": 14.5195606951,
			"0.007": 8.51229833654,
			"0.008": 2.81363801276,
			"0.009": 2.52476748049,
			"0.01": 2.12702365404,
			"0.011": 0.0298877489731,
			"0.012": 0.0,
			"0.013": 0.0,
			"0.014": 0.0,
			"0.015": 0.0,
			"0.016": 0.0,
			"0.017": 0.0,
			"0.018": 0.0,
			"0.019": 0.0,
			"0.02": 0.0,
			"0.021": 0.0,
			"0.022": 0.0,
			"0.023": 0.0,
			"0.024": 0.0,
			"0.025": 0.0
		}
	}
}
