{
	 "smiles": "CC1=NN(C(N)=C1)C1=NC=CC=N1", 
	 "Tm": 477.15, 
	 "num_atms": 22, 
	 "gaussian": { 
		 "optdone": 1, 
		 "sigma_profile": "yes", 
		 "theory": "DFT", 
		 "functional": "B3LYP", 
		 "basiset": "6-31G**", 
		 "properties": { 
			 "R2extent": 2731.3705, 
			 "electric_dipole_moment_norm": 3.54116326226, 
			 "electric_quadrupole_moment_norm": 11.8043273536, 
			 "total_energy": -584.013853808, 
			 "HOMO_LUMO_gap": 0.14906, 
			 "cosmo_polarized_energy": -15.97, 
			 "cosmo_cavitation_energy": 26.24, 
			 "cosmo_dispersion_energy": -19.87, 
			 "cosmo_repulsion_energy": 1.58, 
			 "cosmo_total_nonelectrostatic_energy": 7.95, 
			 "SMD_solvation_energy": 2.18 
		},
		"coords": [
			{
				"x": -3.6581363287,
				"y": 1.1608815884,
				"z": 2.8283941694,
				"element": "C" 
			},
			{
				"x": -2.7850898351,
				"y": 0.4123852913,
				"z": 1.8693002678,
				"element": "C" 
			},
			{
				"x": -1.7407696281,
				"y": 1.0095443794,
				"z": 1.3268563347,
				"element": "N" 
			},
			{
				"x": -1.1693827729,
				"y": 0.0429071969,
				"z": 0.511402279,
				"element": "N" 
			},
			{
				"x": -1.8862868022,
				"y": -1.153359112,
				"z": 0.5611962907,
				"element": "C" 
			},
			{
				"x": -1.5837195907,
				"y": -2.250089321,
				"z": -0.2096760002,
				"element": "N" 
			},
			{
				"x": -2.9306811638,
				"y": -0.9355950707,
				"z": 1.4346298827,
				"element": "C" 
			},
			{
				"x": 0.0035427407,
				"y": 0.3337701097,
				"z": -0.1860873992,
				"element": "C" 
			},
			{
				"x": 0.6033685479,
				"y": -0.6922138854,
				"z": -0.8180687387,
				"element": "N" 
			},
			{
				"x": 1.7264905447,
				"y": -0.4059042124,
				"z": -1.4834378613,
				"element": "C" 
			},
			{
				"x": 2.2660175457,
				"y": 0.8742673501,
				"z": -1.5247782652,
				"element": "C" 
			},
			{
				"x": 1.5560115796,
				"y": 1.8534095048,
				"z": -0.8261982768,
				"element": "C" 
			},
			{
				"x": 0.4312742258,
				"y": 1.6031856534,
				"z": -0.1598291929,
				"element": "N" 
			},
			{
				"x": -3.2791987186,
				"y": 2.1765475798,
				"z": 2.9586593088,
				"element": "H" 
			},
			{
				"x": -4.6900167628,
				"y": 1.2161230392,
				"z": 2.463321653,
				"element": "H" 
			},
			{
				"x": -3.6852964758,
				"y": 0.6680651782,
				"z": 3.8069037447,
				"element": "H" 
			},
			{
				"x": -1.9539074385,
				"y": -3.1226144779,
				"z": 0.136295413,
				"element": "H" 
			},
			{
				"x": -0.6315545464,
				"y": -2.2673628805,
				"z": -0.5575803005,
				"element": "H" 
			},
			{
				"x": -3.6989707514,
				"y": -1.6444570436,
				"z": 1.7067695151,
				"element": "H" 
			},
			{
				"x": 2.2048348061,
				"y": -1.239133325,
				"z": -1.9946801562,
				"element": "H" 
			},
			{
				"x": 3.1783178127,
				"y": 1.0973401805,
				"z": -2.0649841254,
				"element": "H" 
			},
			{
				"x": 1.9031530117,
				"y": 2.8855022768,
				"z": -0.8028085425,
				"element": "H" 
			}
		],
		 "valence_orbital": [ 
			{
				"type": "occ",
				"energy": -0.2966,
				"method": "rhf"
			},
			{
				"type": "occ",
				"energy": -0.27588,
				"method": "rhf"
			},
			{
				"type": "occ",
				"energy": -0.25014,
				"method": "rhf"
			},
			{
				"type": "occ",
				"energy": -0.22939,
				"method": "rhf"
			},
			{
				"type": "occ",
				"energy": -0.19458,
				"method": "rhf"
			},
			{
				"type": "unocc",
				"energy": -0.04552,
				"method": "rhf"
			},
			{
				"type": "unocc",
				"energy": -0.03221,
				"method": "rhf"
			},
			{
				"type": "unocc",
				"energy": 0.05455,
				"method": "rhf"
			},
			{
				"type": "unocc",
				"energy": 0.08336,
				"method": "rhf"
			},
			{
				"type": "unocc",
				"energy": 0.09424,
				"method": "rhf"
			}
		],
		"cosmo_sigma_profile": { 
			"-0.025": 0.0,
			"-0.024": 0.0,
			"-0.023": 0.0,
			"-0.022": 0.0,
			"-0.021": 0.0,
			"-0.02": 0.0,
			"-0.019": 0.0,
			"-0.018": 0.0,
			"-0.017": 0.0,
			"-0.016": 0.0,
			"-0.015": 0.0,
			"-0.014": 0.241019924948,
			"-0.013": 1.51777610364,
			"-0.012": 0.794364042077,
			"-0.011": 1.72432940045,
			"-0.01": 1.12703498157,
			"-0.009": 2.40595293288,
			"-0.008": 6.84157137375,
			"-0.007": 10.8946235849,
			"-0.006": 10.0200769262,
			"-0.005": 9.1143378367,
			"-0.004": 12.0137755622,
			"-0.003": 12.9095567885,
			"-0.002": 16.8665327375,
			"-0.001": 22.8380028536,
			"0.0": 22.0858504706,
			"0.001": 14.5528833139,
			"0.002": 8.8766508842,
			"0.003": 7.92017372406,
			"0.004": 8.33070788127,
			"0.005": 8.33499231952,
			"0.006": 5.96925997958,
			"0.007": 3.6864365707,
			"0.008": 2.79191568075,
			"0.009": 2.00975536215,
			"0.01": 2.55421601084,
			"0.011": 2.38811525499,
			"0.012": 1.92040366435,
			"0.013": 1.57267926241,
			"0.014": 1.42866970037,
			"0.015": 0.640149998892,
			"0.016": 1.37429553314,
			"0.017": 1.26366231389,
			"0.018": 0.990605394339,
			"0.019": 0.860535327756,
			"0.02": 0.880486240065,
			"0.021": 0.554682073922,
			"0.022": 0.0172008783331,
			"0.023": 0.0,
			"0.024": 0.0,
			"0.025": 0.0
		}
	}
}
