{
	 "smiles": "NC1=C(C=CC(Cl)=C1)N1C=CC=N1", 
	 "Tm": 496.15, 
	 "num_atms": 21, 
	 "gaussian": { 
		 "optdone": 1, 
		 "sigma_profile": "yes", 
		 "theory": "DFT", 
		 "functional": "B3LYP", 
		 "basiset": "6-31G**", 
		 "properties": { 
			 "R2extent": 4482.1648, 
			 "electric_dipole_moment_norm": 2.99395373545, 
			 "electric_quadrupole_moment_norm": 7.18687846147, 
			 "total_energy": -972.2029623, 
			 "HOMO_LUMO_gap": 0.19166, 
			 "cosmo_polarized_energy": -11.24, 
			 "cosmo_cavitation_energy": 26.96, 
			 "cosmo_dispersion_energy": -20.11, 
			 "cosmo_repulsion_energy": 1.58, 
			 "cosmo_total_nonelectrostatic_energy": 8.43, 
			 "SMD_solvation_energy": 4.12 
		},
		"coords": [
			{
				"x": 0.4967114994,
				"y": -0.0402870417,
				"z": 1.6911296669,
				"element": "N" 
			},
			{
				"x": 0.4927428959,
				"y": -0.8118062592,
				"z": 0.5281964371,
				"element": "C" 
			},
			{
				"x": 0.0877558355,
				"y": -2.1650972151,
				"z": 0.535229858,
				"element": "C" 
			},
			{
				"x": 0.0928861346,
				"y": -2.9109716278,
				"z": -0.644026798,
				"element": "C" 
			},
			{
				"x": 0.4711407812,
				"y": -2.3416012931,
				"z": -1.8564237455,
				"element": "C" 
			},
			{
				"x": 0.8379686958,
				"y": -0.9966058743,
				"z": -1.8645209078,
				"element": "C" 
			},
			{
				"x": 1.3066708644,
				"y": -0.2369884709,
				"z": -3.3795551551,
				"element": "Cl" 
			},
			{
				"x": 0.8549805839,
				"y": -0.2364659693,
				"z": -0.7008711969,
				"element": "C" 
			},
			{
				"x": -0.3040091846,
				"y": -2.7998716127,
				"z": 1.748841555,
				"element": "N" 
			},
			{
				"x": -1.1760931478,
				"y": -2.3389007461,
				"z": 2.7005595716,
				"element": "C" 
			},
			{
				"x": -1.3264799567,
				"y": -3.348893123,
				"z": 3.6271318779,
				"element": "C" 
			},
			{
				"x": -0.5117260009,
				"y": -4.3974836684,
				"z": 3.1426573245,
				"element": "C" 
			},
			{
				"x": 0.1017888094,
				"y": -4.071547689,
				"z": 2.0082995418,
				"element": "N" 
			},
			{
				"x": 1.0753238361,
				"y": 0.7872084522,
				"z": 1.6347561822,
				"element": "H" 
			},
			{
				"x": 0.6668382025,
				"y": -0.5598432328,
				"z": 2.543309942,
				"element": "H" 
			},
			{
				"x": -0.1986008258,
				"y": -3.9534168823,
				"z": -0.5890734003,
				"element": "H" 
			},
			{
				"x": 0.4722349561,
				"y": -2.9219792327,
				"z": -2.7709271869,
				"element": "H" 
			},
			{
				"x": 1.1633475272,
				"y": 0.8032599342,
				"z": -0.7366591638,
				"element": "H" 
			},
			{
				"x": -1.6156773203,
				"y": -1.3558159886,
				"z": 2.6259933729,
				"element": "H" 
			},
			{
				"x": -1.9371339404,
				"y": -3.3317440646,
				"z": 4.5174218152,
				"element": "H" 
			},
			{
				"x": -0.3417702457,
				"y": -5.3739483951,
				"z": 3.5766304093,
				"element": "H" 
			}
		],
		 "valence_orbital": [ 
			{
				"type": "occ",
				"energy": -0.29016,
				"method": "rhf"
			},
			{
				"type": "occ",
				"energy": -0.27659,
				"method": "rhf"
			},
			{
				"type": "occ",
				"energy": -0.25187,
				"method": "rhf"
			},
			{
				"type": "occ",
				"energy": -0.24158,
				"method": "rhf"
			},
			{
				"type": "occ",
				"energy": -0.21541,
				"method": "rhf"
			},
			{
				"type": "unocc",
				"energy": -0.02375,
				"method": "rhf"
			},
			{
				"type": "unocc",
				"energy": -0.00394,
				"method": "rhf"
			},
			{
				"type": "unocc",
				"energy": 0.02311,
				"method": "rhf"
			},
			{
				"type": "unocc",
				"energy": 0.03035,
				"method": "rhf"
			},
			{
				"type": "unocc",
				"energy": 0.06149,
				"method": "rhf"
			}
		],
		"cosmo_sigma_profile": { 
			"-0.025": 0.0,
			"-0.024": 0.0,
			"-0.023": 0.0,
			"-0.022": 0.0,
			"-0.021": 0.0,
			"-0.02": 0.0,
			"-0.019": 0.0,
			"-0.018": 0.0,
			"-0.017": 0.0,
			"-0.016": 0.0,
			"-0.015": 0.0,
			"-0.014": 0.182389534496,
			"-0.013": 1.54167587759,
			"-0.012": 2.39220990636,
			"-0.011": 2.76367558271,
			"-0.01": 3.09251327974,
			"-0.009": 2.98631872125,
			"-0.008": 3.81143643431,
			"-0.007": 8.98023437252,
			"-0.006": 10.5275449089,
			"-0.005": 10.1842001029,
			"-0.004": 11.2507171199,
			"-0.003": 10.9111163428,
			"-0.002": 11.0923693931,
			"-0.001": 12.0786640834,
			"0.0": 13.0211301178,
			"0.001": 14.5182646297,
			"0.002": 19.5603133198,
			"0.003": 23.4790254822,
			"0.004": 23.5582083652,
			"0.005": 14.9054405926,
			"0.006": 3.99107275348,
			"0.007": 2.71215753243,
			"0.008": 2.01450592242,
			"0.009": 1.33072190495,
			"0.01": 2.51478827851,
			"0.011": 1.5744981876,
			"0.012": 1.05386594867,
			"0.013": 0.994082157634,
			"0.014": 0.856271974471,
			"0.015": 0.738164698569,
			"0.016": 0.0799764370389,
			"0.017": 0.0,
			"0.018": 0.0,
			"0.019": 0.0,
			"0.02": 0.0,
			"0.021": 0.0,
			"0.022": 0.0,
			"0.023": 0.0,
			"0.024": 0.0,
			"0.025": 0.0
		}
	}
}
