{
	 "smiles": "CC1=CC2=C(C=C1)C(C)=C(CCC(O)=O)C(=O)O2", 
	 "Tm": 435.15, 
	 "num_atms": 32, 
	 "gaussian": { 
		 "optdone": 1, 
		 "sigma_profile": "yes", 
		 "theory": "DFT", 
		 "functional": "B3LYP", 
		 "basiset": "6-31G**", 
		 "properties": { 
			 "R2extent": 5175.8955, 
			 "electric_dipole_moment_norm": 9.07007351018, 
			 "electric_quadrupole_moment_norm": 21.642808041, 
			 "total_energy": -842.852871086, 
			 "HOMO_LUMO_gap": 0.16463, 
			 "cosmo_polarized_energy": -23.59, 
			 "cosmo_cavitation_energy": 35.16, 
			 "cosmo_dispersion_energy": -24.91, 
			 "cosmo_repulsion_energy": 1.9, 
			 "cosmo_total_nonelectrostatic_energy": 12.16, 
			 "SMD_solvation_energy": 7.77 
		},
		"coords": [
			{
				"x": -4.9920284017,
				"y": -0.4194091149,
				"z": 2.091511213,
				"element": "C" 
			},
			{
				"x": -3.5424211323,
				"y": -0.1294510919,
				"z": 1.7897940334,
				"element": "C" 
			},
			{
				"x": -2.6840536259,
				"y": -1.1350965299,
				"z": 1.3514792486,
				"element": "C" 
			},
			{
				"x": -1.3461127027,
				"y": -0.845927866,
				"z": 1.0747452219,
				"element": "C" 
			},
			{
				"x": -0.8163193297,
				"y": 0.4469043599,
				"z": 1.2223746616,
				"element": "C" 
			},
			{
				"x": -1.6986708483,
				"y": 1.4544025043,
				"z": 1.6673912493,
				"element": "C" 
			},
			{
				"x": -3.0265627487,
				"y": 1.1735375029,
				"z": 1.9442445074,
				"element": "C" 
			},
			{
				"x": 0.5886468919,
				"y": 0.6634131354,
				"z": 0.9052394547,
				"element": "C" 
			},
			{
				"x": 1.1520840811,
				"y": 2.0498177675,
				"z": 1.0959515332,
				"element": "C" 
			},
			{
				"x": 1.3492542792,
				"y": -0.385580648,
				"z": 0.4607530815,
				"element": "C" 
			},
			{
				"x": 2.8195252572,
				"y": -0.3003586223,
				"z": 0.0969709721,
				"element": "C" 
			},
			{
				"x": 3.1351593467,
				"y": 0.333837723,
				"z": -1.2838371489,
				"element": "C" 
			},
			{
				"x": 2.5677923876,
				"y": -0.4136911271,
				"z": -2.4875130903,
				"element": "C" 
			},
			{
				"x": 1.211289137,
				"y": -0.405380168,
				"z": -2.6037671335,
				"element": "O" 
			},
			{
				"x": 3.2443150308,
				"y": -0.9609315754,
				"z": -3.3201774963,
				"element": "O" 
			},
			{
				"x": 0.7694761604,
				"y": -1.7383777109,
				"z": 0.3442033882,
				"element": "C" 
			},
			{
				"x": 1.3760490811,
				"y": -2.7293373823,
				"z": 0.0068717868,
				"element": "O" 
			},
			{
				"x": -0.5723074081,
				"y": -1.8860370009,
				"z": 0.6539129622,
				"element": "O" 
			},
			{
				"x": -5.2282488662,
				"y": -1.4767968939,
				"z": 1.9502580695,
				"element": "H" 
			},
			{
				"x": -5.6535106395,
				"y": 0.1638524291,
				"z": 1.4406998558,
				"element": "H" 
			},
			{
				"x": -5.240767144,
				"y": -0.1518857865,
				"z": 3.1246420125,
				"element": "H" 
			},
			{
				"x": -3.0292640025,
				"y": -2.1549284055,
				"z": 1.2162702034,
				"element": "H" 
			},
			{
				"x": -1.333927427,
				"y": 2.4678477183,
				"z": 1.7941775377,
				"element": "H" 
			},
			{
				"x": -3.6824358562,
				"y": 1.969817235,
				"z": 2.2851030668,
				"element": "H" 
			},
			{
				"x": 0.9963688645,
				"y": 2.3849983242,
				"z": 2.1272858834,
				"element": "H" 
			},
			{
				"x": 0.6449865423,
				"y": 2.7731706815,
				"z": 0.4470867205,
				"element": "H" 
			},
			{
				"x": 2.2193435332,
				"y": 2.0994185723,
				"z": 0.8854407888,
				"element": "H" 
			},
			{
				"x": 3.2243787927,
				"y": -1.3139461926,
				"z": 0.1146698798,
				"element": "H" 
			},
			{
				"x": 3.3581470745,
				"y": 0.2755771698,
				"z": 0.8566353077,
				"element": "H" 
			},
			{
				"x": 2.7656884246,
				"y": 1.3673810402,
				"z": -1.3139030483,
				"element": "H" 
			},
			{
				"x": 4.2176351689,
				"y": 0.3651756869,
				"z": -1.4223235214,
				"element": "H" 
			},
			{
				"x": 0.8159900793,
				"y": 0.0407842657,
				"z": -1.8398912012,
				"element": "H" 
			}
		],
		 "valence_orbital": [ 
			{
				"type": "occ",
				"energy": -0.30437,
				"method": "rhf"
			},
			{
				"type": "occ",
				"energy": -0.27973,
				"method": "rhf"
			},
			{
				"type": "occ",
				"energy": -0.26262,
				"method": "rhf"
			},
			{
				"type": "occ",
				"energy": -0.25959,
				"method": "rhf"
			},
			{
				"type": "occ",
				"energy": -0.23921,
				"method": "rhf"
			},
			{
				"type": "unocc",
				"energy": -0.07458,
				"method": "rhf"
			},
			{
				"type": "unocc",
				"energy": -0.02208,
				"method": "rhf"
			},
			{
				"type": "unocc",
				"energy": -0.00514,
				"method": "rhf"
			},
			{
				"type": "unocc",
				"energy": 0.01402,
				"method": "rhf"
			},
			{
				"type": "unocc",
				"energy": 0.05755,
				"method": "rhf"
			}
		],
		"cosmo_sigma_profile": { 
			"-0.025": 0.0,
			"-0.024": 0.0,
			"-0.023": 0.0,
			"-0.022": 0.0,
			"-0.021": 0.0,
			"-0.02": 0.0,
			"-0.019": 0.0,
			"-0.018": 0.0,
			"-0.017": 0.0,
			"-0.016": 0.0,
			"-0.015": 0.0,
			"-0.014": 0.89950425434,
			"-0.013": 2.52970870363,
			"-0.012": 1.53976898252,
			"-0.011": 1.44000384139,
			"-0.01": 0.709144328186,
			"-0.009": 1.26225288478,
			"-0.008": 2.03879213324,
			"-0.007": 6.42718281853,
			"-0.006": 19.9767815695,
			"-0.005": 23.25572871,
			"-0.004": 27.3881915372,
			"-0.003": 23.6986434127,
			"-0.002": 24.7305807222,
			"-0.001": 22.5903383064,
			"0.0": 16.0746635637,
			"0.001": 12.9495811776,
			"0.002": 12.685439151,
			"0.003": 14.0639584199,
			"0.004": 9.58171692716,
			"0.005": 4.93980549462,
			"0.006": 4.73027924474,
			"0.007": 4.68691657712,
			"0.008": 4.22629520495,
			"0.009": 5.29481776401,
			"0.01": 7.70506699244,
			"0.011": 8.68221101565,
			"0.012": 10.272296776,
			"0.013": 4.42109509231,
			"0.014": 0.222264240154,
			"0.015": 0.0,
			"0.016": 0.0,
			"0.017": 0.0,
			"0.018": 0.0,
			"0.019": 0.0,
			"0.02": 0.0,
			"0.021": 0.0,
			"0.022": 0.0,
			"0.023": 0.0,
			"0.024": 0.0,
			"0.025": 0.0
		}
	}
}
