{
	 "smiles": "ClC1=CC=C(NC(=O)CC2=NC3=C(S2)C=CC=C3)C=C1", 
	 "Tm": 438.15, 
	 "num_atms": 31, 
	 "gaussian": { 
		 "optdone": 1, 
		 "sigma_profile": "yes", 
		 "theory": "DFT", 
		 "functional": "B3LYP", 
		 "basiset": "6-31G**", 
		 "properties": { 
			 "R2extent": 9398.8257, 
			 "electric_dipole_moment_norm": 0.371516365723, 
			 "electric_quadrupole_moment_norm": 22.4451749612, 
			 "total_energy": -1621.35774423, 
			 "HOMO_LUMO_gap": 0.18867, 
			 "cosmo_polarized_energy": -13.99, 
			 "cosmo_cavitation_energy": 39.16, 
			 "cosmo_dispersion_energy": -28.58, 
			 "cosmo_repulsion_energy": 2.13, 
			 "cosmo_total_nonelectrostatic_energy": 12.71, 
			 "SMD_solvation_energy": 5.05 
		},
		"coords": [
			{
				"x": 3.408030596,
				"y": -1.8198637891,
				"z": 4.713178787,
				"element": "Cl" 
			},
			{
				"x": 2.4912713058,
				"y": -1.8496759707,
				"z": 3.2147985047,
				"element": "C" 
			},
			{
				"x": 2.3000433427,
				"y": -0.6701948431,
				"z": 2.4982042096,
				"element": "C" 
			},
			{
				"x": 1.5855262699,
				"y": -0.6914495525,
				"z": 1.3001641693,
				"element": "C" 
			},
			{
				"x": 1.0279448942,
				"y": -1.8919495206,
				"z": 0.8368989,
				"element": "C" 
			},
			{
				"x": 0.3108743078,
				"y": -1.9855279822,
				"z": -0.3817297955,
				"element": "N" 
			},
			{
				"x": -0.6382063642,
				"y": -1.1777095234,
				"z": -0.9694422648,
				"element": "C" 
			},
			{
				"x": -1.1126793414,
				"y": -1.4741923807,
				"z": -2.0563285392,
				"element": "O" 
			},
			{
				"x": -1.110969164,
				"y": 0.0784961332,
				"z": -0.2303523253,
				"element": "C" 
			},
			{
				"x": -0.5911667275,
				"y": 1.3323343554,
				"z": -0.8797537404,
				"element": "C" 
			},
			{
				"x": 0.3129630844,
				"y": 2.0908813312,
				"z": -0.3434229907,
				"element": "N" 
			},
			{
				"x": 0.6092130927,
				"y": 3.1747720584,
				"z": -1.1580113204,
				"element": "C" 
			},
			{
				"x": -0.1167191089,
				"y": 3.2297903417,
				"z": -2.3724086472,
				"element": "C" 
			},
			{
				"x": -1.1890270097,
				"y": 1.8475612848,
				"z": -2.4682446348,
				"element": "S" 
			},
			{
				"x": 0.0772822099,
				"y": 4.2677239926,
				"z": -3.2880945815,
				"element": "C" 
			},
			{
				"x": 1.0075000497,
				"y": 5.2545209357,
				"z": -2.9728663064,
				"element": "C" 
			},
			{
				"x": 1.7341137797,
				"y": 5.2098492904,
				"z": -1.7696074304,
				"element": "C" 
			},
			{
				"x": 1.5428048485,
				"y": 4.1779169177,
				"z": -0.8593103496,
				"element": "C" 
			},
			{
				"x": 1.2328098227,
				"y": -3.0705878643,
				"z": 1.5701747168,
				"element": "C" 
			},
			{
				"x": 1.9685768773,
				"y": -3.0570429352,
				"z": 2.7515761776,
				"element": "C" 
			},
			{
				"x": 2.7240210372,
				"y": 0.260224603,
				"z": 2.8591318727,
				"element": "H" 
			},
			{
				"x": 1.4758167019,
				"y": 0.2289851372,
				"z": 0.7361325392,
				"element": "H" 
			},
			{
				"x": 0.4480329128,
				"y": -2.8339191873,
				"z": -0.9191478706,
				"element": "H" 
			},
			{
				"x": -0.8202408038,
				"y": 0.0926204931,
				"z": 0.8198712055,
				"element": "H" 
			},
			{
				"x": -2.2031519955,
				"y": 0.0529145421,
				"z": -0.2932755095,
				"element": "H" 
			},
			{
				"x": -0.4796723239,
				"y": 4.3064333418,
				"z": -4.2187235517,
				"element": "H" 
			},
			{
				"x": 1.1731065306,
				"y": 6.0713909011,
				"z": -3.6689032648,
				"element": "H" 
			},
			{
				"x": 2.4536105143,
				"y": 5.9930580549,
				"z": -1.5510193134,
				"element": "H" 
			},
			{
				"x": 2.0957222153,
				"y": 4.1298483546,
				"z": 0.0730926215,
				"element": "H" 
			},
			{
				"x": 0.8040218844,
				"y": -4.003679713,
				"z": 1.2153972424,
				"element": "H" 
			},
			{
				"x": 2.1246465609,
				"y": -3.9711288067,
				"z": 3.3134214902,
				"element": "H" 
			}
		],
		 "valence_orbital": [ 
			{
				"type": "occ",
				"energy": -0.27295,
				"method": "rhf"
			},
			{
				"type": "occ",
				"energy": -0.26907,
				"method": "rhf"
			},
			{
				"type": "occ",
				"energy": -0.24128,
				"method": "rhf"
			},
			{
				"type": "occ",
				"energy": -0.23843,
				"method": "rhf"
			},
			{
				"type": "occ",
				"energy": -0.23276,
				"method": "rhf"
			},
			{
				"type": "unocc",
				"energy": -0.04409,
				"method": "rhf"
			},
			{
				"type": "unocc",
				"energy": -0.02611,
				"method": "rhf"
			},
			{
				"type": "unocc",
				"energy": -0.02412,
				"method": "rhf"
			},
			{
				"type": "unocc",
				"energy": -0.00917,
				"method": "rhf"
			},
			{
				"type": "unocc",
				"energy": 0.01089,
				"method": "rhf"
			}
		],
		"cosmo_sigma_profile": { 
			"-0.025": 0.0,
			"-0.024": 0.0,
			"-0.023": 0.0,
			"-0.022": 0.0,
			"-0.021": 0.0,
			"-0.02": 0.0,
			"-0.019": 0.0,
			"-0.018": 0.0,
			"-0.017": 0.0,
			"-0.016": 0.0,
			"-0.015": 0.591662457635,
			"-0.014": 1.30682634719,
			"-0.013": 0.673175906343,
			"-0.012": 1.08284930688,
			"-0.011": 1.19997312411,
			"-0.01": 1.46915382217,
			"-0.009": 1.32727384048,
			"-0.008": 4.90120242592,
			"-0.007": 11.729628723,
			"-0.006": 18.6175753714,
			"-0.005": 20.5606167004,
			"-0.004": 18.5899604884,
			"-0.003": 17.6463620939,
			"-0.002": 18.134641322,
			"-0.001": 20.0397023124,
			"0.0": 21.7988071185,
			"0.001": 28.4447536025,
			"0.002": 32.311413718,
			"0.003": 35.5306366437,
			"0.004": 25.6592263269,
			"0.005": 14.2942453663,
			"0.006": 3.06551888937,
			"0.007": 2.49292203081,
			"0.008": 2.54641213882,
			"0.009": 2.20088440283,
			"0.01": 2.24371207527,
			"0.011": 2.68586968268,
			"0.012": 3.81788508343,
			"0.013": 4.33485970386,
			"0.014": 0.221537793725,
			"0.015": 0.0,
			"0.016": 0.0,
			"0.017": 0.0,
			"0.018": 0.0,
			"0.019": 0.0,
			"0.02": 0.0,
			"0.021": 0.0,
			"0.022": 0.0,
			"0.023": 0.0,
			"0.024": 0.0,
			"0.025": 0.0
		}
	}
}
