{
	 "smiles": "FC1=C(F)C(F)=C(OC(=O)C2=CC(=NC=C2)N2CCSCC2)C(F)=C1F", 
	 "Tm": 372.95, 
	 "num_atms": 37, 
	 "gaussian": { 
		 "optdone": 1, 
		 "sigma_profile": "yes", 
		 "theory": "DFT", 
		 "functional": "B3LYP", 
		 "basiset": "6-31G**", 
		 "properties": { 
			 "R2extent": 14745.1139, 
			 "electric_dipole_moment_norm": 1.98431575612, 
			 "electric_quadrupole_moment_norm": 14.0516425912, 
			 "total_energy": -1773.60275627, 
			 "HOMO_LUMO_gap": 0.13713, 
			 "cosmo_polarized_energy": -11.29, 
			 "cosmo_cavitation_energy": 46.03, 
			 "cosmo_dispersion_energy": -31.88, 
			 "cosmo_repulsion_energy": 2.26, 
			 "cosmo_total_nonelectrostatic_energy": 16.41, 
			 "SMD_solvation_energy": 8.55 
		},
		"coords": [
			{
				"x": -2.2368656828,
				"y": 2.1711952744,
				"z": 6.7084652976,
				"element": "F" 
			},
			{
				"x": -1.657819208,
				"y": 1.7306974997,
				"z": 5.5890867012,
				"element": "C" 
			},
			{
				"x": -2.2285782576,
				"y": 0.6769330239,
				"z": 4.8782599975,
				"element": "C" 
			},
			{
				"x": -3.3535098155,
				"y": 0.1054596091,
				"z": 5.3188690002,
				"element": "F" 
			},
			{
				"x": -1.6202086963,
				"y": 0.2185476023,
				"z": 3.7114496118,
				"element": "C" 
			},
			{
				"x": -2.1661317412,
				"y": -0.7992927203,
				"z": 3.0395335398,
				"element": "F" 
			},
			{
				"x": -0.4514635016,
				"y": 0.8165147962,
				"z": 3.2417752929,
				"element": "C" 
			},
			{
				"x": 0.0919710163,
				"y": 0.3941506453,
				"z": 2.0479466822,
				"element": "O" 
			},
			{
				"x": 1.2913827816,
				"y": -0.2993381375,
				"z": 2.1155613105,
				"element": "C" 
			},
			{
				"x": 1.8367926592,
				"y": -0.5498077536,
				"z": 3.1601932437,
				"element": "O" 
			},
			{
				"x": 1.7833503376,
				"y": -0.680321487,
				"z": 0.7634782335,
				"element": "C" 
			},
			{
				"x": 1.0845969143,
				"y": -0.3569717433,
				"z": -0.3947312947,
				"element": "C" 
			},
			{
				"x": 1.6203018226,
				"y": -0.7581214091,
				"z": -1.6450439478,
				"element": "C" 
			},
			{
				"x": 2.7694824544,
				"y": -1.4587233532,
				"z": -1.7128909594,
				"element": "N" 
			},
			{
				"x": 3.4220361839,
				"y": -1.7513317091,
				"z": -0.5843687469,
				"element": "C" 
			},
			{
				"x": 2.9881898703,
				"y": -1.3929844194,
				"z": 0.6853244257,
				"element": "C" 
			},
			{
				"x": 1.0226227016,
				"y": -0.4298713041,
				"z": -2.8510205781,
				"element": "N" 
			},
			{
				"x": 1.5018696513,
				"y": -1.0465109381,
				"z": -4.0912335496,
				"element": "C" 
			},
			{
				"x": 0.7276546709,
				"y": -2.3251745651,
				"z": -4.4325407156,
				"element": "C" 
			},
			{
				"x": -1.0745540492,
				"y": -2.0217738294,
				"z": -4.6487147475,
				"element": "S" 
			},
			{
				"x": -1.3685800475,
				"y": -1.0659271515,
				"z": -3.1066635355,
				"element": "C" 
			},
			{
				"x": -0.3473327654,
				"y": 0.0669334402,
				"z": -2.9357128331,
				"element": "C" 
			},
			{
				"x": 0.1130126088,
				"y": 1.8713838027,
				"z": 3.9594497701,
				"element": "C" 
			},
			{
				"x": 1.2328509504,
				"y": 2.4496937474,
				"z": 3.5181923337,
				"element": "F" 
			},
			{
				"x": -0.4841832106,
				"y": 2.328120535,
				"z": 5.1311982149,
				"element": "C" 
			},
			{
				"x": 0.0595595297,
				"y": 3.3396410104,
				"z": 5.8141220307,
				"element": "F" 
			},
			{
				"x": 0.1552731621,
				"y": 0.1869648806,
				"z": -0.3145180259,
				"element": "H" 
			},
			{
				"x": 4.3457629521,
				"y": -2.3137711873,
				"z": -0.7090909084,
				"element": "H" 
			},
			{
				"x": 3.5379532413,
				"y": -1.6524371185,
				"z": 1.5810410231,
				"element": "H" 
			},
			{
				"x": 1.3833823405,
				"y": -0.3144922199,
				"z": -4.8981709914,
				"element": "H" 
			},
			{
				"x": 2.5601752568,
				"y": -1.275951623,
				"z": -3.970525019,
				"element": "H" 
			},
			{
				"x": 1.0721034188,
				"y": -2.7396505325,
				"z": -5.3844780335,
				"element": "H" 
			},
			{
				"x": 0.8858021353,
				"y": -3.079152308,
				"z": -3.6552431051,
				"element": "H" 
			},
			{
				"x": -2.3813746622,
				"y": -0.661953365,
				"z": -3.1946650681,
				"element": "H" 
			},
			{
				"x": -1.3421571921,
				"y": -1.7371096262,
				"z": -2.2416262942,
				"element": "H" 
			},
			{
				"x": -0.5884943328,
				"y": 0.6646970705,
				"z": -2.0545308456,
				"element": "H" 
			},
			{
				"x": -0.405873497,
				"y": 0.7391355636,
				"z": -3.7993775094,
				"element": "H" 
			}
		],
		 "valence_orbital": [ 
			{
				"type": "occ",
				"energy": -0.27084,
				"method": "rhf"
			},
			{
				"type": "occ",
				"energy": -0.26591,
				"method": "rhf"
			},
			{
				"type": "occ",
				"energy": -0.26448,
				"method": "rhf"
			},
			{
				"type": "occ",
				"energy": -0.2353,
				"method": "rhf"
			},
			{
				"type": "occ",
				"energy": -0.21115,
				"method": "rhf"
			},
			{
				"type": "unocc",
				"energy": -0.07402,
				"method": "rhf"
			},
			{
				"type": "unocc",
				"energy": -0.03114,
				"method": "rhf"
			},
			{
				"type": "unocc",
				"energy": -0.02423,
				"method": "rhf"
			},
			{
				"type": "unocc",
				"energy": -0.00992,
				"method": "rhf"
			},
			{
				"type": "unocc",
				"energy": -0.00462,
				"method": "rhf"
			}
		],
		"cosmo_sigma_profile": { 
			"-0.025": 0.0,
			"-0.024": 0.0,
			"-0.023": 0.0,
			"-0.022": 0.0,
			"-0.021": 0.0,
			"-0.02": 0.0,
			"-0.019": 0.0,
			"-0.018": 0.0,
			"-0.017": 0.0,
			"-0.016": 0.0,
			"-0.015": 0.0,
			"-0.014": 0.0,
			"-0.013": 0.0,
			"-0.012": 0.0,
			"-0.011": 0.0,
			"-0.01": 0.341161918827,
			"-0.009": 1.15640287535,
			"-0.008": 1.70262151181,
			"-0.007": 3.47620043497,
			"-0.006": 11.6930591324,
			"-0.005": 22.6893203416,
			"-0.004": 42.9212073138,
			"-0.003": 35.8456336231,
			"-0.002": 26.6755411317,
			"-0.001": 25.6154111156,
			"0.0": 24.9515218805,
			"0.001": 32.2168159931,
			"0.002": 62.3727738309,
			"0.003": 30.3065225644,
			"0.004": 8.36670540319,
			"0.005": 7.64902383567,
			"0.006": 8.48228805752,
			"0.007": 6.08049519462,
			"0.008": 3.91237254408,
			"0.009": 7.29821873914,
			"0.01": 6.41919988518,
			"0.011": 1.69398134688,
			"0.012": 0.0852929147498,
			"0.013": 0.0,
			"0.014": 0.0,
			"0.015": 0.0,
			"0.016": 0.0,
			"0.017": 0.0,
			"0.018": 0.0,
			"0.019": 0.0,
			"0.02": 0.0,
			"0.021": 0.0,
			"0.022": 0.0,
			"0.023": 0.0,
			"0.024": 0.0,
			"0.025": 0.0
		}
	}
}
