{
	 "smiles": "CN1CCCN(CC1)C1=C(CO)C=C2C=CC=CC2=N1", 
	 "Tm": 369.15, 
	 "num_atms": 41, 
	 "gaussian": { 
		 "optdone": 1, 
		 "sigma_profile": "yes", 
		 "theory": "DFT", 
		 "functional": "B3LYP", 
		 "basiset": "6-31G**", 
		 "properties": { 
			 "R2extent": 7918.3843, 
			 "electric_dipole_moment_norm": 3.12388519155, 
			 "electric_quadrupole_moment_norm": 10.9061114115, 
			 "total_energy": -861.815188507, 
			 "HOMO_LUMO_gap": 0.1632, 
			 "cosmo_polarized_energy": -12.59, 
			 "cosmo_cavitation_energy": 40.54, 
			 "cosmo_dispersion_energy": -29.46, 
			 "cosmo_repulsion_energy": 2.26, 
			 "cosmo_total_nonelectrostatic_energy": 13.34, 
			 "SMD_solvation_energy": 3.32 
		},
		"coords": [
			{
				"x": 2.5036599659,
				"y": -3.4067684827,
				"z": -1.3800932724,
				"element": "C" 
			},
			{
				"x": 1.9646314864,
				"y": -2.059238061,
				"z": -1.2900456314,
				"element": "N" 
			},
			{
				"x": 1.7721027398,
				"y": -1.4320590269,
				"z": -2.5959779023,
				"element": "C" 
			},
			{
				"x": 1.7256859514,
				"y": 0.1226612334,
				"z": -2.5103525914,
				"element": "C" 
			},
			{
				"x": 1.9927814719,
				"y": 0.6879813434,
				"z": -1.1058317062,
				"element": "C" 
			},
			{
				"x": 0.8919569984,
				"y": 0.4491516483,
				"z": -0.1412741037,
				"element": "N" 
			},
			{
				"x": 0.0276306918,
				"y": -0.6942693,
				"z": -0.4339766156,
				"element": "C" 
			},
			{
				"x": 0.7770968537,
				"y": -2.0281894438,
				"z": -0.4363313596,
				"element": "C" 
			},
			{
				"x": 0.2743782189,
				"y": 1.5684866547,
				"z": 0.4364235373,
				"element": "C" 
			},
			{
				"x": 1.0778673879,
				"y": 2.5466725392,
				"z": 1.1358275221,
				"element": "C" 
			},
			{
				"x": 2.5517164099,
				"y": 2.3273092864,
				"z": 1.3963351351,
				"element": "C" 
			},
			{
				"x": 2.9512944742,
				"y": 3.1182702,
				"z": 2.5091829239,
				"element": "O" 
			},
			{
				"x": 0.4333620699,
				"y": 3.6316600735,
				"z": 1.6760283187,
				"element": "C" 
			},
			{
				"x": -0.9769362479,
				"y": 3.7642387623,
				"z": 1.5838911319,
				"element": "C" 
			},
			{
				"x": -1.6976348865,
				"y": 4.857551392,
				"z": 2.1258265103,
				"element": "C" 
			},
			{
				"x": -3.0732621718,
				"y": 4.9004198244,
				"z": 2.0383838561,
				"element": "C" 
			},
			{
				"x": -3.7769690772,
				"y": 3.8456646622,
				"z": 1.4086011356,
				"element": "C" 
			},
			{
				"x": -3.1010480679,
				"y": 2.7684655974,
				"z": 0.8753542276,
				"element": "C" 
			},
			{
				"x": -1.684821257,
				"y": 2.7031099213,
				"z": 0.9440782211,
				"element": "C" 
			},
			{
				"x": -1.044037724,
				"y": 1.6430213567,
				"z": 0.3763483719,
				"element": "N" 
			},
			{
				"x": 1.8209156858,
				"y": -4.1233847739,
				"z": -1.877375281,
				"element": "H" 
			},
			{
				"x": 3.4479361965,
				"y": -3.3976588807,
				"z": -1.9340037399,
				"element": "H" 
			},
			{
				"x": 2.7062877636,
				"y": -3.7884749967,
				"z": -0.3735703006,
				"element": "H" 
			},
			{
				"x": 0.8698207968,
				"y": -1.8107883406,
				"z": -3.1131283446,
				"element": "H" 
			},
			{
				"x": 2.6228987697,
				"y": -1.7300655725,
				"z": -3.2170227972,
				"element": "H" 
			},
			{
				"x": 0.7709663588,
				"y": 0.5067558713,
				"z": -2.8839180845,
				"element": "H" 
			},
			{
				"x": 2.4976039994,
				"y": 0.5386781705,
				"z": -3.1679585208,
				"element": "H" 
			},
			{
				"x": 2.1272173777,
				"y": 1.7679822248,
				"z": -1.2072167871,
				"element": "H" 
			},
			{
				"x": 2.927331765,
				"y": 0.2607719846,
				"z": -0.7283676799,
				"element": "H" 
			},
			{
				"x": -0.7436633331,
				"y": -0.7341056131,
				"z": 0.3358400478,
				"element": "H" 
			},
			{
				"x": -0.5152313757,
				"y": -0.5629726453,
				"z": -1.380826492,
				"element": "H" 
			},
			{
				"x": 0.040689155,
				"y": -2.8007900969,
				"z": -0.7407682069,
				"element": "H" 
			},
			{
				"x": 1.0943811784,
				"y": -2.2723636258,
				"z": 0.5850263027,
				"element": "H" 
			},
			{
				"x": 3.152739038,
				"y": 2.5892671371,
				"z": 0.5113743883,
				"element": "H" 
			},
			{
				"x": 2.71198954,
				"y": 1.2536196272,
				"z": 1.5816992282,
				"element": "H" 
			},
			{
				"x": 3.9099279646,
				"y": 3.0476306269,
				"z": 2.5890106871,
				"element": "H" 
			},
			{
				"x": 1.009786607,
				"y": 4.3640166481,
				"z": 2.2318715788,
				"element": "H" 
			},
			{
				"x": -1.1481243325,
				"y": 5.6589926382,
				"z": 2.6137429694,
				"element": "H" 
			},
			{
				"x": -3.6212155011,
				"y": 5.7408721599,
				"z": 2.4543037895,
				"element": "H" 
			},
			{
				"x": -4.8609359495,
				"y": 3.8885848695,
				"z": 1.3467125733,
				"element": "H" 
			},
			{
				"x": -3.6229769926,
				"y": 1.9520924065,
				"z": 0.3861769606,
				"element": "H" 
			}
		],
		 "valence_orbital": [ 
			{
				"type": "occ",
				"energy": -0.25267,
				"method": "rhf"
			},
			{
				"type": "occ",
				"energy": -0.24357,
				"method": "rhf"
			},
			{
				"type": "occ",
				"energy": -0.21805,
				"method": "rhf"
			},
			{
				"type": "occ",
				"energy": -0.21066,
				"method": "rhf"
			},
			{
				"type": "occ",
				"energy": -0.19614,
				"method": "rhf"
			},
			{
				"type": "unocc",
				"energy": -0.03294,
				"method": "rhf"
			},
			{
				"type": "unocc",
				"energy": 0.00171,
				"method": "rhf"
			},
			{
				"type": "unocc",
				"energy": 0.03698,
				"method": "rhf"
			},
			{
				"type": "unocc",
				"energy": 0.0685,
				"method": "rhf"
			},
			{
				"type": "unocc",
				"energy": 0.07822,
				"method": "rhf"
			}
		],
		"cosmo_sigma_profile": { 
			"-0.025": 0.0,
			"-0.024": 0.0,
			"-0.023": 0.0,
			"-0.022": 0.0,
			"-0.021": 0.0,
			"-0.02": 0.0,
			"-0.019": 0.0,
			"-0.018": 0.0,
			"-0.017": 0.0448262679915,
			"-0.016": 0.883902537621,
			"-0.015": 1.04302861085,
			"-0.014": 0.645465036368,
			"-0.013": 1.11606735072,
			"-0.012": 1.06928638327,
			"-0.011": 1.1660371277,
			"-0.01": 0.816271014279,
			"-0.009": 0.256775787049,
			"-0.008": 0.731243540161,
			"-0.007": 1.34641813159,
			"-0.006": 6.60779879125,
			"-0.005": 13.5146669795,
			"-0.004": 23.0105661848,
			"-0.003": 38.215077017,
			"-0.002": 39.0537580405,
			"-0.001": 39.8426804849,
			"0.0": 30.0845246039,
			"0.001": 14.6946327397,
			"0.002": 17.2856810803,
			"0.003": 17.7277455722,
			"0.004": 19.5751285961,
			"0.005": 15.8355747024,
			"0.006": 9.03403234075,
			"0.007": 4.83085383222,
			"0.008": 4.47898906649,
			"0.009": 3.2898883769,
			"0.01": 3.68575624719,
			"0.011": 3.36507375151,
			"0.012": 2.05098317172,
			"0.013": 1.40033313514,
			"0.014": 0.725703081948,
			"0.015": 0.0,
			"0.016": 0.0,
			"0.017": 0.0,
			"0.018": 0.0,
			"0.019": 0.0,
			"0.02": 0.0,
			"0.021": 0.0,
			"0.022": 0.0,
			"0.023": 0.0,
			"0.024": 0.0,
			"0.025": 0.0
		}
	}
}
