{
	 "smiles": "CS(=O)(=O)OCCCNCCCOS(C)(=O)=O", 
	 "Tm": 389.15, 
	 "num_atms": 36, 
	 "gaussian": { 
		 "optdone": 1, 
		 "sigma_profile": "yes", 
		 "theory": "DFT", 
		 "functional": "B3LYP", 
		 "basiset": "6-31G**", 
		 "properties": { 
			 "R2extent": 5922.1308, 
			 "electric_dipole_moment_norm": 3.01213148617, 
			 "electric_quadrupole_moment_norm": 27.5164539663, 
			 "total_energy": -1618.63732452, 
			 "HOMO_LUMO_gap": 0.25909, 
			 "cosmo_polarized_energy": -20.68, 
			 "cosmo_cavitation_energy": 39.39, 
			 "cosmo_dispersion_energy": -27.68, 
			 "cosmo_repulsion_energy": 2.07, 
			 "cosmo_total_nonelectrostatic_energy": 13.78, 
			 "SMD_solvation_energy": 3.43 
		},
		"coords": [
			{
				"x": 3.2032929121,
				"y": -1.8728008391,
				"z": 1.0112620108,
				"element": "C" 
			},
			{
				"x": 2.2437976908,
				"y": -1.452448848,
				"z": 2.470475231,
				"element": "S" 
			},
			{
				"x": 0.9268058637,
				"y": -2.0912190258,
				"z": 2.3669431185,
				"element": "O" 
			},
			{
				"x": 3.0679441092,
				"y": -1.6371421762,
				"z": 3.655218661,
				"element": "O" 
			},
			{
				"x": 2.0731352705,
				"y": 0.1628358698,
				"z": 2.3034542251,
				"element": "O" 
			},
			{
				"x": 0.9299400348,
				"y": 0.6528188349,
				"z": 1.5360948237,
				"element": "C" 
			},
			{
				"x": 1.0535377342,
				"y": 2.1713417283,
				"z": 1.5054687525,
				"element": "C" 
			},
			{
				"x": -0.1953738353,
				"y": 2.9233066793,
				"z": 0.9741556673,
				"element": "C" 
			},
			{
				"x": -0.3947710468,
				"y": 3.0462456708,
				"z": -0.4686544164,
				"element": "N" 
			},
			{
				"x": -0.667157377,
				"y": 1.8321465283,
				"z": -1.2407760673,
				"element": "C" 
			},
			{
				"x": -2.0995427441,
				"y": 1.3235157854,
				"z": -1.024028682,
				"element": "C" 
			},
			{
				"x": -2.3305002571,
				"y": -0.071687397,
				"z": -1.5846807147,
				"element": "C" 
			},
			{
				"x": -1.6599795086,
				"y": -1.043015113,
				"z": -0.7158989776,
				"element": "O" 
			},
			{
				"x": -0.6091892156,
				"y": -2.0990600554,
				"z": -1.3922955274,
				"element": "S" 
			},
			{
				"x": -0.7686532837,
				"y": -3.3976364161,
				"z": -0.1719035498,
				"element": "C" 
			},
			{
				"x": 0.7460001588,
				"y": -1.5353497334,
				"z": -1.3223919926,
				"element": "O" 
			},
			{
				"x": -1.1249481232,
				"y": -2.5307142812,
				"z": -2.6909412289,
				"element": "O" 
			},
			{
				"x": 2.6040675876,
				"y": -1.6796549672,
				"z": 0.1196950971,
				"element": "H" 
			},
			{
				"x": 3.4405396642,
				"y": -2.9357102905,
				"z": 1.0857563778,
				"element": "H" 
			},
			{
				"x": 4.1183010944,
				"y": -1.2802953584,
				"z": 1.0239015048,
				"element": "H" 
			},
			{
				"x": 0.0125842916,
				"y": 0.3365412455,
				"z": 2.0408149569,
				"element": "H" 
			},
			{
				"x": 0.9515103579,
				"y": 0.2025452849,
				"z": 0.5420369278,
				"element": "H" 
			},
			{
				"x": 1.2328118388,
				"y": 2.5004921432,
				"z": 2.5363760618,
				"element": "H" 
			},
			{
				"x": 1.9391336184,
				"y": 2.4619908687,
				"z": 0.9267586283,
				"element": "H" 
			},
			{
				"x": -1.0962186014,
				"y": 2.4808829285,
				"z": 1.4172975964,
				"element": "H" 
			},
			{
				"x": -0.1481408677,
				"y": 3.9457641568,
				"z": 1.3660681763,
				"element": "H" 
			},
			{
				"x": 0.3946847065,
				"y": 3.5376242386,
				"z": -0.8762725318,
				"element": "H" 
			},
			{
				"x": 0.0401142762,
				"y": 1.0121007377,
				"z": -1.0500517648,
				"element": "H" 
			},
			{
				"x": -0.5480019842,
				"y": 2.0904974787,
				"z": -2.2998955835,
				"element": "H" 
			},
			{
				"x": -2.3471500331,
				"y": 1.3027785242,
				"z": 0.0428487505,
				"element": "H" 
			},
			{
				"x": -2.8103814934,
				"y": 2.0137879967,
				"z": -1.4933956048,
				"element": "H" 
			},
			{
				"x": -1.9639473497,
				"y": -0.1791843273,
				"z": -2.6094095394,
				"element": "H" 
			},
			{
				"x": -3.3902392633,
				"y": -0.3398824139,
				"z": -1.5737630206,
				"element": "H" 
			},
			{
				"x": -1.8079149717,
				"y": -3.7245688417,
				"z": -0.1509538951,
				"element": "H" 
			},
			{
				"x": -0.117804295,
				"y": -4.2095373924,
				"z": -0.501579291,
				"element": "H" 
			},
			{
				"x": -0.4371869586,
				"y": -3.0089092235,
				"z": 0.79286582,
				"element": "H" 
			}
		],
		 "valence_orbital": [ 
			{
				"type": "occ",
				"energy": -0.31292,
				"method": "rhf"
			},
			{
				"type": "occ",
				"energy": -0.31037,
				"method": "rhf"
			},
			{
				"type": "occ",
				"energy": -0.30285,
				"method": "rhf"
			},
			{
				"type": "occ",
				"energy": -0.29685,
				"method": "rhf"
			},
			{
				"type": "occ",
				"energy": -0.22561,
				"method": "rhf"
			},
			{
				"type": "unocc",
				"energy": 0.03348,
				"method": "rhf"
			},
			{
				"type": "unocc",
				"energy": 0.04448,
				"method": "rhf"
			},
			{
				"type": "unocc",
				"energy": 0.05516,
				"method": "rhf"
			},
			{
				"type": "unocc",
				"energy": 0.06999,
				"method": "rhf"
			},
			{
				"type": "unocc",
				"energy": 0.07447,
				"method": "rhf"
			}
		],
		"cosmo_sigma_profile": { 
			"-0.025": 0.0,
			"-0.024": 0.0,
			"-0.023": 0.0,
			"-0.022": 0.0,
			"-0.021": 0.0,
			"-0.02": 0.0,
			"-0.019": 0.0,
			"-0.018": 0.0,
			"-0.017": 0.0,
			"-0.016": 0.0,
			"-0.015": 0.0,
			"-0.014": 0.0,
			"-0.013": 0.0,
			"-0.012": 0.0,
			"-0.011": 0.0621166816352,
			"-0.01": 2.58279342803,
			"-0.009": 8.24579980379,
			"-0.008": 8.76495785008,
			"-0.007": 8.05968495912,
			"-0.006": 14.398067009,
			"-0.005": 23.0533162911,
			"-0.004": 36.649637207,
			"-0.003": 32.708884786,
			"-0.002": 21.4987569875,
			"-0.001": 18.5145322898,
			"0.0": 20.2044642977,
			"0.001": 14.5477600018,
			"0.002": 10.4557536217,
			"0.003": 9.58000754358,
			"0.004": 7.23850138188,
			"0.005": 6.045409497,
			"0.006": 7.72821998108,
			"0.007": 6.94111220478,
			"0.008": 8.89728718005,
			"0.009": 9.94474901737,
			"0.01": 15.7445022683,
			"0.011": 13.3114027144,
			"0.012": 1.14338135112,
			"0.013": 0.417598903092,
			"0.014": 0.768399950724,
			"0.015": 0.704708735531,
			"0.016": 0.390788416856,
			"0.017": 0.39855306212,
			"0.018": 0.133688525677,
			"0.019": 0.0,
			"0.02": 0.0,
			"0.021": 0.0,
			"0.022": 0.0,
			"0.023": 0.0,
			"0.024": 0.0,
			"0.025": 0.0
		}
	}
}
