{
	 "smiles": "OC(=O)C1=CN(N=C1)C1=C(Cl)C=C(Cl)C=C1", 
	 "Tm": 520.15, 
	 "num_atms": 22, 
	 "gaussian": { 
		 "optdone": 1, 
		 "sigma_profile": "yes", 
		 "theory": "DFT", 
		 "functional": "B3LYP", 
		 "basiset": "6-31G**", 
		 "properties": { 
			 "R2extent": 6019.0154, 
			 "electric_dipole_moment_norm": 4.58503482757, 
			 "electric_quadrupole_moment_norm": 28.436519566, 
			 "total_energy": -1564.99216134, 
			 "HOMO_LUMO_gap": 0.19486, 
			 "cosmo_polarized_energy": -17.84, 
			 "cosmo_cavitation_energy": 31.48, 
			 "cosmo_dispersion_energy": -22.99, 
			 "cosmo_repulsion_energy": 1.78, 
			 "cosmo_total_nonelectrostatic_energy": 10.27, 
			 "SMD_solvation_energy": 5.66 
		},
		"coords": [
			{
				"x": -2.0696537063,
				"y": 2.9391839106,
				"z": 3.7179399282,
				"element": "O" 
			},
			{
				"x": -2.654792076,
				"y": 1.7093846969,
				"z": 3.666730168,
				"element": "C" 
			},
			{
				"x": -3.4181544745,
				"y": 1.363398911,
				"z": 4.5371695268,
				"element": "O" 
			},
			{
				"x": -2.3000981914,
				"y": 0.8511456233,
				"z": 2.5180037448,
				"element": "C" 
			},
			{
				"x": -1.2709884729,
				"y": 0.9549135336,
				"z": 1.5964530051,
				"element": "C" 
			},
			{
				"x": -1.3814909643,
				"y": -0.113615336,
				"z": 0.7589836822,
				"element": "N" 
			},
			{
				"x": -2.4274972689,
				"y": -0.9262962718,
				"z": 1.103915257,
				"element": "N" 
			},
			{
				"x": -2.9748056553,
				"y": -0.3454173337,
				"z": 2.1570202639,
				"element": "C" 
			},
			{
				"x": -0.5158996048,
				"y": -0.5255683243,
				"z": -0.2880672972,
				"element": "C" 
			},
			{
				"x": 0.0286539354,
				"y": 0.3557501339,
				"z": -1.23585238,
				"element": "C" 
			},
			{
				"x": -0.3568522068,
				"y": 2.0671376551,
				"z": -1.249483549,
				"element": "Cl" 
			},
			{
				"x": 0.8790225505,
				"y": -0.1144340154,
				"z": -2.2375370971,
				"element": "C" 
			},
			{
				"x": 1.1683647092,
				"y": -1.4744125418,
				"z": -2.3065582914,
				"element": "C" 
			},
			{
				"x": 2.2323728221,
				"y": -2.0576563398,
				"z": -3.568158796,
				"element": "Cl" 
			},
			{
				"x": 0.6179616623,
				"y": -2.3726155587,
				"z": -1.3919094466,
				"element": "C" 
			},
			{
				"x": -0.2135746069,
				"y": -1.8899395504,
				"z": -0.3893946378,
				"element": "C" 
			},
			{
				"x": -1.6112838318,
				"y": 3.1317200515,
				"z": 2.8885275536,
				"element": "H" 
			},
			{
				"x": -0.4635068058,
				"y": 1.6630638504,
				"z": 1.4931967766,
				"element": "H" 
			},
			{
				"x": -3.8424391915,
				"y": -0.775027887,
				"z": 2.6376200285,
				"element": "H" 
			},
			{
				"x": 1.2924860907,
				"y": 0.5768851081,
				"z": -2.9611511099,
				"element": "H" 
			},
			{
				"x": 0.8445571747,
				"y": -3.4302322245,
				"z": -1.4580969923,
				"element": "H" 
			},
			{
				"x": -0.6565818876,
				"y": -2.5629680911,
				"z": 0.3347496625,
				"element": "H" 
			}
		],
		 "valence_orbital": [ 
			{
				"type": "occ",
				"energy": -0.30301,
				"method": "rhf"
			},
			{
				"type": "occ",
				"energy": -0.28447,
				"method": "rhf"
			},
			{
				"type": "occ",
				"energy": -0.28122,
				"method": "rhf"
			},
			{
				"type": "occ",
				"energy": -0.27598,
				"method": "rhf"
			},
			{
				"type": "occ",
				"energy": -0.25615,
				"method": "rhf"
			},
			{
				"type": "unocc",
				"energy": -0.06129,
				"method": "rhf"
			},
			{
				"type": "unocc",
				"energy": -0.04665,
				"method": "rhf"
			},
			{
				"type": "unocc",
				"energy": -0.02488,
				"method": "rhf"
			},
			{
				"type": "unocc",
				"energy": -0.01523,
				"method": "rhf"
			},
			{
				"type": "unocc",
				"energy": 0.00198,
				"method": "rhf"
			}
		],
		"cosmo_sigma_profile": { 
			"-0.025": 0.0,
			"-0.024": 0.0,
			"-0.023": 0.0,
			"-0.022": 0.0,
			"-0.021": 0.0,
			"-0.02": 0.0,
			"-0.019": 0.72254688661,
			"-0.018": 1.49651054867,
			"-0.017": 0.875777128571,
			"-0.016": 1.18830769217,
			"-0.015": 1.14508518473,
			"-0.014": 0.617135920721,
			"-0.013": 1.73590155848,
			"-0.012": 1.24254626186,
			"-0.011": 1.32462687965,
			"-0.01": 1.52466045178,
			"-0.009": 3.74969133461,
			"-0.008": 7.5525779233,
			"-0.007": 8.62157108705,
			"-0.006": 8.03042921972,
			"-0.005": 8.10326807582,
			"-0.004": 10.016614262,
			"-0.003": 13.0798582248,
			"-0.002": 17.2875071278,
			"-0.001": 22.4086395172,
			"0.0": 29.77945259,
			"0.001": 28.2947041564,
			"0.002": 17.0020258519,
			"0.003": 18.4688037569,
			"0.004": 14.4644829996,
			"0.005": 4.30735952434,
			"0.006": 3.43476215856,
			"0.007": 3.72966369617,
			"0.008": 3.43204933803,
			"0.009": 4.47472039841,
			"0.01": 5.55365849242,
			"0.011": 6.0679396652,
			"0.012": 6.56518175298,
			"0.013": 2.1685586478,
			"0.014": 0.171012793887,
			"0.015": 0.0,
			"0.016": 0.0,
			"0.017": 0.0,
			"0.018": 0.0,
			"0.019": 0.0,
			"0.02": 0.0,
			"0.021": 0.0,
			"0.022": 0.0,
			"0.023": 0.0,
			"0.024": 0.0,
			"0.025": 0.0
		}
	}
}
