{
	 "smiles": "COC(=O)C1C(OC(=O)C2=CC=CC=C12)C1=CC=C(C=C1)[N+]([O-])=O", 
	 "Tm": 407.15, 
	 "num_atms": 37, 
	 "gaussian": { 
		 "optdone": 1, 
		 "sigma_profile": "yes", 
		 "theory": "DFT", 
		 "functional": "B3LYP", 
		 "basiset": "6-31G**", 
		 "properties": { 
			 "R2extent": 8119.0712, 
			 "electric_dipole_moment_norm": 6.37202956129, 
			 "electric_quadrupole_moment_norm": 31.4210563884, 
			 "total_energy": -1161.65147331, 
			 "HOMO_LUMO_gap": 0.17436, 
			 "cosmo_polarized_energy": -18.03, 
			 "cosmo_cavitation_energy": 41.76, 
			 "cosmo_dispersion_energy": -28.86, 
			 "cosmo_repulsion_energy": 2.18, 
			 "cosmo_total_nonelectrostatic_energy": 15.08, 
			 "SMD_solvation_energy": 11.36 
		},
		"coords": [
			{
				"x": -3.6709376412,
				"y": 2.5249403231,
				"z": -1.2772548524,
				"element": "C" 
			},
			{
				"x": -2.2381557435,
				"y": 2.3683981975,
				"z": -1.3058663807,
				"element": "O" 
			},
			{
				"x": -1.6918155182,
				"y": 1.7891934079,
				"z": -0.218271492,
				"element": "C" 
			},
			{
				"x": -2.3414837944,
				"y": 1.4327114651,
				"z": 0.7415206495,
				"element": "O" 
			},
			{
				"x": -0.1801898766,
				"y": 1.6797879086,
				"z": -0.4123274513,
				"element": "C" 
			},
			{
				"x": 0.1767417086,
				"y": 0.7967304782,
				"z": -1.6305830376,
				"element": "C" 
			},
			{
				"x": 1.5839624581,
				"y": 0.9550785995,
				"z": -1.9194574714,
				"element": "O" 
			},
			{
				"x": 2.4924755372,
				"y": 0.7853846759,
				"z": -0.9070493413,
				"element": "C" 
			},
			{
				"x": 3.6583711813,
				"y": 0.6461042692,
				"z": -1.1943610408,
				"element": "O" 
			},
			{
				"x": 1.9762977694,
				"y": 0.8412550268,
				"z": 0.4900661987,
				"element": "C" 
			},
			{
				"x": 2.8588814464,
				"y": 0.4995263347,
				"z": 1.5214907096,
				"element": "C" 
			},
			{
				"x": 2.4478129253,
				"y": 0.5844987743,
				"z": 2.8477603586,
				"element": "C" 
			},
			{
				"x": 1.1556279792,
				"y": 1.0259672916,
				"z": 3.1397989252,
				"element": "C" 
			},
			{
				"x": 0.2705727782,
				"y": 1.3757216241,
				"z": 2.1172267753,
				"element": "C" 
			},
			{
				"x": 0.6669276556,
				"y": 1.27610204,
				"z": 0.7802298478,
				"element": "C" 
			},
			{
				"x": -0.1647606122,
				"y": -0.6908619406,
				"z": -1.5703570134,
				"element": "C" 
			},
			{
				"x": 0.2858867723,
				"y": -1.4886239605,
				"z": -2.6367306591,
				"element": "C" 
			},
			{
				"x": 0.0001400567,
				"y": -2.8472764208,
				"z": -2.6860002184,
				"element": "C" 
			},
			{
				"x": -0.7476578032,
				"y": -3.4083821982,
				"z": -1.6514213935,
				"element": "C" 
			},
			{
				"x": -1.2046502401,
				"y": -2.6487235055,
				"z": -0.5802675189,
				"element": "C" 
			},
			{
				"x": -0.9079180558,
				"y": -1.2862308742,
				"z": -0.542688752,
				"element": "C" 
			},
			{
				"x": -1.0616189757,
				"y": -4.846118467,
				"z": -1.6943325961,
				"element": "N" 
			},
			{
				"x": -0.646359949,
				"y": -5.4912226046,
				"z": -2.6562237429,
				"element": "O" 
			},
			{
				"x": -1.7213696205,
				"y": -5.3141065542,
				"z": -0.7671272652,
				"element": "O" 
			},
			{
				"x": -4.1588733156,
				"y": 1.5525112467,
				"z": -1.1807404607,
				"element": "H" 
			},
			{
				"x": -3.9672310013,
				"y": 3.1577854157,
				"z": -0.437876697,
				"element": "H" 
			},
			{
				"x": -3.9310827777,
				"y": 2.9948879103,
				"z": -2.2247951475,
				"element": "H" 
			},
			{
				"x": 0.1275605613,
				"y": 2.6885252779,
				"z": -0.7230021195,
				"element": "H" 
			},
			{
				"x": -0.3139822559,
				"y": 1.2239822456,
				"z": -2.5085507864,
				"element": "H" 
			},
			{
				"x": 3.8604892905,
				"y": 0.1796493119,
				"z": 1.2554585614,
				"element": "H" 
			},
			{
				"x": 3.1297775479,
				"y": 0.3161877566,
				"z": 3.6486900218,
				"element": "H" 
			},
			{
				"x": 0.828285123,
				"y": 1.1002445328,
				"z": 4.1728656753,
				"element": "H" 
			},
			{
				"x": -0.7320039415,
				"y": 1.7038141483,
				"z": 2.3577737824,
				"element": "H" 
			},
			{
				"x": 0.8793891046,
				"y": -1.0364498274,
				"z": -3.4246039457,
				"element": "H" 
			},
			{
				"x": 0.3409915735,
				"y": -3.4737202582,
				"z": -3.5005966601,
				"element": "H" 
			},
			{
				"x": -1.7765168116,
				"y": -3.1245913796,
				"z": 0.206354777,
				"element": "H" 
			},
			{
				"x": -1.2624835351,
				"y": -0.7032802714,
				"z": 0.2980497612,
				"element": "H" 
			}
		],
		 "valence_orbital": [ 
			{
				"type": "occ",
				"energy": -0.28799,
				"method": "rhf"
			},
			{
				"type": "occ",
				"energy": -0.28107,
				"method": "rhf"
			},
			{
				"type": "occ",
				"energy": -0.27449,
				"method": "rhf"
			},
			{
				"type": "occ",
				"energy": -0.26883,
				"method": "rhf"
			},
			{
				"type": "occ",
				"energy": -0.26628,
				"method": "rhf"
			},
			{
				"type": "unocc",
				"energy": -0.09192,
				"method": "rhf"
			},
			{
				"type": "unocc",
				"energy": -0.06089,
				"method": "rhf"
			},
			{
				"type": "unocc",
				"energy": -0.0355,
				"method": "rhf"
			},
			{
				"type": "unocc",
				"energy": -0.02252,
				"method": "rhf"
			},
			{
				"type": "unocc",
				"energy": -0.01963,
				"method": "rhf"
			}
		],
		"cosmo_sigma_profile": { 
			"-0.025": 0.0,
			"-0.024": 0.0,
			"-0.023": 0.0,
			"-0.022": 0.0,
			"-0.021": 0.0,
			"-0.02": 0.0,
			"-0.019": 0.0,
			"-0.018": 0.0,
			"-0.017": 0.0,
			"-0.016": 0.0,
			"-0.015": 0.0,
			"-0.014": 0.0,
			"-0.013": 0.0,
			"-0.012": 0.0,
			"-0.011": 0.0,
			"-0.01": 0.0,
			"-0.009": 2.12246639692,
			"-0.008": 6.0182214969,
			"-0.007": 14.9030891099,
			"-0.006": 24.6329891094,
			"-0.005": 25.9791682452,
			"-0.004": 26.8678695632,
			"-0.003": 23.6819584616,
			"-0.002": 22.8244732705,
			"-0.001": 21.7220017005,
			"0.0": 27.2066035661,
			"0.001": 27.2266031126,
			"0.002": 19.3541392509,
			"0.003": 17.136313896,
			"0.004": 8.39750876866,
			"0.005": 8.22175513977,
			"0.006": 7.14406930875,
			"0.007": 12.6576946297,
			"0.008": 11.4241671577,
			"0.009": 7.95473867153,
			"0.01": 8.14100452335,
			"0.011": 6.83906795549,
			"0.012": 3.42466497053,
			"0.013": 0.862494236879,
			"0.014": 0.0,
			"0.015": 0.0,
			"0.016": 0.0,
			"0.017": 0.0,
			"0.018": 0.0,
			"0.019": 0.0,
			"0.02": 0.0,
			"0.021": 0.0,
			"0.022": 0.0,
			"0.023": 0.0,
			"0.024": 0.0,
			"0.025": 0.0
		}
	}
}
