{
	 "smiles": "ClC(=O)C1=CC=CC2=NSN=C12", 
	 "Tm": 385.15, 
	 "num_atms": 15, 
	 "gaussian": { 
		 "optdone": 1, 
		 "sigma_profile": "yes", 
		 "theory": "DFT", 
		 "functional": "B3LYP", 
		 "basiset": "6-31G**", 
		 "properties": { 
			 "R2extent": 3055.6004, 
			 "electric_dipole_moment_norm": 3.78713631785, 
			 "electric_quadrupole_moment_norm": 13.1587574159, 
			 "total_energy": -1311.63198498, 
			 "HOMO_LUMO_gap": 0.15188, 
			 "cosmo_polarized_energy": -8.74, 
			 "cosmo_cavitation_energy": 23.66, 
			 "cosmo_dispersion_energy": -18.48, 
			 "cosmo_repulsion_energy": 1.4, 
			 "cosmo_total_nonelectrostatic_energy": 6.58, 
			 "SMD_solvation_energy": 1.62 
		},
		"coords": [
			{
				"x": -1.4569162289,
				"y": 1.0779927905,
				"z": 3.4833362051,
				"element": "Cl" 
			},
			{
				"x": -0.0286807407,
				"y": 0.37034671,
				"z": 2.6476066886,
				"element": "C" 
			},
			{
				"x": 0.9650308178,
				"y": 0.1457494249,
				"z": 3.2786237893,
				"element": "O" 
			},
			{
				"x": -0.1922799338,
				"y": 0.0424516396,
				"z": 1.2046207747,
				"element": "C" 
			},
			{
				"x": 0.7211590479,
				"y": -0.864385876,
				"z": 0.6963935881,
				"element": "C" 
			},
			{
				"x": 0.7044583489,
				"y": -1.3091074311,
				"z": -0.6548985142,
				"element": "C" 
			},
			{
				"x": -0.2254231311,
				"y": -0.8393008368,
				"z": -1.5465041977,
				"element": "C" 
			},
			{
				"x": -1.1741623879,
				"y": 0.1157323085,
				"z": -1.0861738797,
				"element": "C" 
			},
			{
				"x": -2.1193307407,
				"y": 0.6858064875,
				"z": -1.8442683717,
				"element": "N" 
			},
			{
				"x": -2.9276904184,
				"y": 1.7205386689,
				"z": -0.8639641262,
				"element": "S" 
			},
			{
				"x": -2.1195689163,
				"y": 1.4863599804,
				"z": 0.5431708851,
				"element": "N" 
			},
			{
				"x": -1.1757029302,
				"y": 0.5715559431,
				"z": 0.2970839803,
				"element": "C" 
			},
			{
				"x": 1.4739548801,
				"y": -1.2537813777,
				"z": 1.3731118947,
				"element": "H" 
			},
			{
				"x": 1.4464247851,
				"y": -2.0347051056,
				"z": -0.972258937,
				"element": "H" 
			},
			{
				"x": -0.2561724517,
				"y": -1.1643533261,
				"z": -2.5805797793,
				"element": "H" 
			}
		],
		 "valence_orbital": [ 
			{
				"type": "occ",
				"energy": -0.31857,
				"method": "rhf"
			},
			{
				"type": "occ",
				"energy": -0.30267,
				"method": "rhf"
			},
			{
				"type": "occ",
				"energy": -0.29142,
				"method": "rhf"
			},
			{
				"type": "occ",
				"energy": -0.28502,
				"method": "rhf"
			},
			{
				"type": "occ",
				"energy": -0.26638,
				"method": "rhf"
			},
			{
				"type": "unocc",
				"energy": -0.1145,
				"method": "rhf"
			},
			{
				"type": "unocc",
				"energy": -0.05767,
				"method": "rhf"
			},
			{
				"type": "unocc",
				"energy": -0.01281,
				"method": "rhf"
			},
			{
				"type": "unocc",
				"energy": -0.00329,
				"method": "rhf"
			},
			{
				"type": "unocc",
				"energy": 0.01631,
				"method": "rhf"
			}
		],
		"cosmo_sigma_profile": { 
			"-0.025": 0.0,
			"-0.024": 0.0,
			"-0.023": 0.0,
			"-0.022": 0.0,
			"-0.021": 0.0,
			"-0.02": 0.0,
			"-0.019": 0.0,
			"-0.018": 0.0,
			"-0.017": 0.0,
			"-0.016": 0.0,
			"-0.015": 0.0,
			"-0.014": 0.0,
			"-0.013": 0.0,
			"-0.012": 0.0,
			"-0.011": 0.0,
			"-0.01": 0.0,
			"-0.009": 0.898599251293,
			"-0.008": 6.30361220567,
			"-0.007": 6.62100930329,
			"-0.006": 5.89409826175,
			"-0.005": 10.3298305598,
			"-0.004": 14.0556421818,
			"-0.003": 17.0336995536,
			"-0.002": 24.1191399721,
			"-0.001": 20.0498379133,
			"0.0": 16.1282663308,
			"0.001": 11.8156089551,
			"0.002": 7.80536381655,
			"0.003": 9.89863554192,
			"0.004": 9.81904408796,
			"0.005": 7.95843748115,
			"0.006": 5.23357079941,
			"0.007": 5.03671700529,
			"0.008": 6.03291287334,
			"0.009": 5.78372107477,
			"0.01": 2.88735316577,
			"0.011": 2.21747914206,
			"0.012": 0.918337978047,
			"0.013": 0.123064196287,
			"0.014": 0.0,
			"0.015": 0.0,
			"0.016": 0.0,
			"0.017": 0.0,
			"0.018": 0.0,
			"0.019": 0.0,
			"0.02": 0.0,
			"0.021": 0.0,
			"0.022": 0.0,
			"0.023": 0.0,
			"0.024": 0.0,
			"0.025": 0.0
		}
	}
}
