{
	 "smiles": "CC1=CC=CC(Cl)=C1Cl", 
	 "Tm": 278.15, 
	 "num_atms": 15, 
	 "gaussian": { 
		 "optdone": 1, 
		 "sigma_profile": "yes", 
		 "theory": "DFT", 
		 "functional": "B3LYP", 
		 "basiset": "6-31G**", 
		 "properties": { 
			 "R2extent": 1966.2716, 
			 "electric_dipole_moment_norm": 2.77092021538, 
			 "electric_quadrupole_moment_norm": 5.00056909561, 
			 "total_energy": -1190.75052854, 
			 "HOMO_LUMO_gap": 0.22684, 
			 "cosmo_polarized_energy": -4.15, 
			 "cosmo_cavitation_energy": 21.96, 
			 "cosmo_dispersion_energy": -16.64, 
			 "cosmo_repulsion_energy": 1.35, 
			 "cosmo_total_nonelectrostatic_energy": 6.67, 
			 "SMD_solvation_energy": 3.34 
		},
		"coords": [
			{
				"x": -1.179930385,
				"y": 1.6462610571,
				"z": 0.018034018,
				"element": "C" 
			},
			{
				"x": -0.3162886451,
				"y": 0.4165500322,
				"z": 0.1424502341,
				"element": "C" 
			},
			{
				"x": -0.4947855684,
				"y": -0.4766719131,
				"z": 1.2051733902,
				"element": "C" 
			},
			{
				"x": 0.2930078746,
				"y": -1.6185451819,
				"z": 1.3378188743,
				"element": "C" 
			},
			{
				"x": 1.285319756,
				"y": -1.8944991707,
				"z": 0.4022670154,
				"element": "C" 
			},
			{
				"x": 1.4842106095,
				"y": -1.0200151114,
				"z": -0.6672543602,
				"element": "C" 
			},
			{
				"x": 2.7396175883,
				"y": -1.3951735217,
				"z": -1.8259790405,
				"element": "Cl" 
			},
			{
				"x": 0.6899978099,
				"y": 0.1279034874,
				"z": -0.7979216656,
				"element": "C" 
			},
			{
				"x": 0.9399941484,
				"y": 1.2248664468,
				"z": -2.1400407627,
				"element": "Cl" 
			},
			{
				"x": -1.8985644457,
				"y": 1.6946103575,
				"z": 0.8394967365,
				"element": "H" 
			},
			{
				"x": -0.5768492412,
				"y": 2.5601329297,
				"z": 0.0333110872,
				"element": "H" 
			},
			{
				"x": -1.7347030174,
				"y": 1.6498577464,
				"z": -0.9260590692,
				"element": "H" 
			},
			{
				"x": -1.2681723036,
				"y": -0.2651896839,
				"z": 1.937780757,
				"element": "H" 
			},
			{
				"x": 0.1357046715,
				"y": -2.2965707602,
				"z": 2.1708435941,
				"element": "H" 
			},
			{
				"x": 1.9090411482,
				"y": -2.7771167143,
				"z": 0.4869791915,
				"element": "H" 
			}
		],
		 "valence_orbital": [ 
			{
				"type": "occ",
				"energy": -0.33339,
				"method": "rhf"
			},
			{
				"type": "occ",
				"energy": -0.32585,
				"method": "rhf"
			},
			{
				"type": "occ",
				"energy": -0.30506,
				"method": "rhf"
			},
			{
				"type": "occ",
				"energy": -0.25393,
				"method": "rhf"
			},
			{
				"type": "occ",
				"energy": -0.24809,
				"method": "rhf"
			},
			{
				"type": "unocc",
				"energy": -0.02125,
				"method": "rhf"
			},
			{
				"type": "unocc",
				"energy": -0.01834,
				"method": "rhf"
			},
			{
				"type": "unocc",
				"energy": 0.00507,
				"method": "rhf"
			},
			{
				"type": "unocc",
				"energy": 0.06481,
				"method": "rhf"
			},
			{
				"type": "unocc",
				"energy": 0.09876,
				"method": "rhf"
			}
		],
		"cosmo_sigma_profile": { 
			"-0.025": 0.0,
			"-0.024": 0.0,
			"-0.023": 0.0,
			"-0.022": 0.0,
			"-0.021": 0.0,
			"-0.02": 0.0,
			"-0.019": 0.0,
			"-0.018": 0.0,
			"-0.017": 0.0,
			"-0.016": 0.0,
			"-0.015": 0.0,
			"-0.014": 0.0,
			"-0.013": 0.0,
			"-0.012": 0.0,
			"-0.011": 0.0,
			"-0.01": 0.0,
			"-0.009": 0.0,
			"-0.008": 0.35703548697,
			"-0.007": 4.45471460026,
			"-0.006": 7.76810865214,
			"-0.005": 9.34391864168,
			"-0.004": 10.3398935331,
			"-0.003": 11.4610407102,
			"-0.002": 13.2574592294,
			"-0.001": 16.1017103225,
			"0.0": 18.1210094781,
			"0.001": 20.0721650591,
			"0.002": 19.5618716467,
			"0.003": 21.2120780773,
			"0.004": 18.1444894417,
			"0.005": 7.72349934846,
			"0.006": 1.90474510235,
			"0.007": 0.0,
			"0.008": 0.0,
			"0.009": 0.0,
			"0.01": 0.0,
			"0.011": 0.0,
			"0.012": 0.0,
			"0.013": 0.0,
			"0.014": 0.0,
			"0.015": 0.0,
			"0.016": 0.0,
			"0.017": 0.0,
			"0.018": 0.0,
			"0.019": 0.0,
			"0.02": 0.0,
			"0.021": 0.0,
			"0.022": 0.0,
			"0.023": 0.0,
			"0.024": 0.0,
			"0.025": 0.0
		}
	}
}
