{
	 "smiles": "BrC1=CC2=C(C=C1)C(CC#N)=CN2", 
	 "Tm": 386.15, 
	 "num_atms": 20, 
	 "gaussian": { 
		 "optdone": 1, 
		 "sigma_profile": "yes", 
		 "theory": "DFT", 
		 "functional": "B3LYP", 
		 "basiset": "6-31G**", 
		 "properties": { 
			 "R2extent": 5875.578, 
			 "electric_dipole_moment_norm": 5.55041808335, 
			 "electric_quadrupole_moment_norm": 22.584173584, 
			 "total_energy": -3066.17610265, 
			 "HOMO_LUMO_gap": 0.18917, 
			 "cosmo_polarized_energy": -16.49, 
			 "cosmo_cavitation_energy": 27.85, 
			 "cosmo_dispersion_energy": -20.14, 
			 "cosmo_repulsion_energy": 1.6, 
			 "cosmo_total_nonelectrostatic_energy": 9.31, 
			 "SMD_solvation_energy": 4.78 
		},
		"coords": [
			{
				"x": 2.2377208486,
				"y": 1.5280564654,
				"z": 4.5308062008,
				"element": "Br" 
			},
			{
				"x": 1.1591674777,
				"y": 1.1591312341,
				"z": 2.9931344865,
				"element": "C" 
			},
			{
				"x": -0.0546942561,
				"y": 0.5107337068,
				"z": 3.1691282255,
				"element": "C" 
			},
			{
				"x": -0.8036931107,
				"y": 0.2637228238,
				"z": 2.0139261795,
				"element": "C" 
			},
			{
				"x": -0.3615323562,
				"y": 0.6472446372,
				"z": 0.7186747693,
				"element": "C" 
			},
			{
				"x": 0.8728222251,
				"y": 1.3068516503,
				"z": 0.5916971771,
				"element": "C" 
			},
			{
				"x": 1.6295167393,
				"y": 1.5593979487,
				"z": 1.7279240232,
				"element": "C" 
			},
			{
				"x": -1.3786505315,
				"y": 0.2273909359,
				"z": -0.2116591167,
				"element": "C" 
			},
			{
				"x": -1.3606505177,
				"y": 0.3815046495,
				"z": -1.7099137702,
				"element": "C" 
			},
			{
				"x": -1.3884488696,
				"y": 1.7834167365,
				"z": -2.1576480138,
				"element": "C" 
			},
			{
				"x": -1.4008893223,
				"y": 2.8895403067,
				"z": -2.5086797024,
				"element": "N" 
			},
			{
				"x": -2.3690926727,
				"y": -0.3690463559,
				"z": 0.5263812771,
				"element": "C" 
			},
			{
				"x": -2.0290356793,
				"y": -0.3520061948,
				"z": 1.8646335036,
				"element": "N" 
			},
			{
				"x": -0.3966683329,
				"y": 0.215320652,
				"z": 4.1544668782,
				"element": "H" 
			},
			{
				"x": 1.2338460847,
				"y": 1.6293823385,
				"z": -0.3802463988,
				"element": "H" 
			},
			{
				"x": 2.5828136181,
				"y": 2.0686433678,
				"z": 1.6514483243,
				"element": "H" 
			},
			{
				"x": -0.4647830327,
				"y": -0.0854199869,
				"z": -2.1409373147,
				"element": "H" 
			},
			{
				"x": -2.2207283415,
				"y": -0.1329261161,
				"z": -2.1528889464,
				"element": "H" 
			},
			{
				"x": -3.3000227851,
				"y": -0.8111467267,
				"z": 0.199887101,
				"element": "H" 
			},
			{
				"x": -2.5889971851,
				"y": -0.7298920729,
				"z": 2.6112651169,
				"element": "H" 
			}
		],
		 "valence_orbital": [ 
			{
				"type": "occ",
				"energy": -0.30646,
				"method": "rhf"
			},
			{
				"type": "occ",
				"energy": -0.28518,
				"method": "rhf"
			},
			{
				"type": "occ",
				"energy": -0.27989,
				"method": "rhf"
			},
			{
				"type": "occ",
				"energy": -0.23658,
				"method": "rhf"
			},
			{
				"type": "occ",
				"energy": -0.21834,
				"method": "rhf"
			},
			{
				"type": "unocc",
				"energy": -0.02917,
				"method": "rhf"
			},
			{
				"type": "unocc",
				"energy": 0.00675,
				"method": "rhf"
			},
			{
				"type": "unocc",
				"energy": 0.00774,
				"method": "rhf"
			},
			{
				"type": "unocc",
				"energy": 0.02864,
				"method": "rhf"
			},
			{
				"type": "unocc",
				"energy": 0.03927,
				"method": "rhf"
			}
		],
		"cosmo_sigma_profile": { 
			"-0.025": 0.0,
			"-0.024": 0.0,
			"-0.023": 0.0,
			"-0.022": 0.0,
			"-0.021": 0.0,
			"-0.02": 0.0,
			"-0.019": 0.0,
			"-0.018": 0.0,
			"-0.017": 0.0261065979518,
			"-0.016": 1.54966024279,
			"-0.015": 1.47749761508,
			"-0.014": 1.15121860899,
			"-0.013": 1.6020526233,
			"-0.012": 1.17278028771,
			"-0.011": 1.53327661413,
			"-0.01": 1.40837787283,
			"-0.009": 5.08724857388,
			"-0.008": 10.963980942,
			"-0.007": 9.6133182077,
			"-0.006": 11.8162928194,
			"-0.005": 10.7340381751,
			"-0.004": 9.89301019703,
			"-0.003": 9.35570734535,
			"-0.002": 8.94323882853,
			"-0.001": 9.00432397951,
			"0.0": 10.0464544367,
			"0.001": 11.7686065149,
			"0.002": 15.6304362273,
			"0.003": 24.9997157156,
			"0.004": 28.0276732412,
			"0.005": 17.7946602808,
			"0.006": 3.88545009914,
			"0.007": 2.56729111948,
			"0.008": 2.65688196374,
			"0.009": 3.96284128443,
			"0.01": 2.80372958147,
			"0.011": 3.29346259549,
			"0.012": 2.52476708056,
			"0.013": 2.12945827979,
			"0.014": 0.406912618057,
			"0.015": 0.0,
			"0.016": 0.0,
			"0.017": 0.0,
			"0.018": 0.0,
			"0.019": 0.0,
			"0.02": 0.0,
			"0.021": 0.0,
			"0.022": 0.0,
			"0.023": 0.0,
			"0.024": 0.0,
			"0.025": 0.0
		}
	}
}
