{
	 "smiles": "OC(=O)C(CC1=CC=CN=C1)NC(=O)OCC1C2=C(C=CC=C2)C2=C1C=CC=C2", 
	 "Tm": 439.15, 
	 "num_atms": 49, 
	 "gaussian": { 
		 "optdone": 1, 
		 "sigma_profile": "yes", 
		 "theory": "DFT", 
		 "functional": "B3LYP", 
		 "basiset": "6-31G**", 
		 "properties": { 
			 "R2extent": 11644.4445, 
			 "electric_dipole_moment_norm": 2.96023365632, 
			 "electric_quadrupole_moment_norm": 22.8392138223, 
			 "total_energy": -1298.94743032, 
			 "HOMO_LUMO_gap": 0.18357, 
			 "cosmo_polarized_energy": -23.22, 
			 "cosmo_cavitation_energy": 51.64, 
			 "cosmo_dispersion_energy": -33.16, 
			 "cosmo_repulsion_energy": 2.47, 
			 "cosmo_total_nonelectrostatic_energy": 20.94, 
			 "SMD_solvation_energy": 7.9 
		},
		"coords": [
			{
				"x": 1.3444321818,
				"y": 0.6932251202,
				"z": 1.618755627,
				"element": "O" 
			},
			{
				"x": 0.91444484,
				"y": 0.0577388826,
				"z": 0.5157733389,
				"element": "C" 
			},
			{
				"x": 0.7205047406,
				"y": -1.1367892836,
				"z": 0.4580100414,
				"element": "O" 
			},
			{
				"x": 0.7626255891,
				"y": 1.0039817508,
				"z": -0.6886467228,
				"element": "C" 
			},
			{
				"x": -0.2643016087,
				"y": 0.4319701647,
				"z": -1.6970261987,
				"element": "C" 
			},
			{
				"x": -0.2308877678,
				"y": 1.1375030069,
				"z": -3.030449717,
				"element": "C" 
			},
			{
				"x": 0.635546358,
				"y": 0.7384062165,
				"z": -4.0545096843,
				"element": "C" 
			},
			{
				"x": 0.6431367841,
				"y": 1.4378942733,
				"z": -5.2597338256,
				"element": "C" 
			},
			{
				"x": -0.2237314623,
				"y": 2.5218849207,
				"z": -5.4041585317,
				"element": "C" 
			},
			{
				"x": -1.0670649608,
				"y": 2.9222316667,
				"z": -4.4447294352,
				"element": "N" 
			},
			{
				"x": -1.0582053201,
				"y": 2.2383192234,
				"z": -3.2953035047,
				"element": "C" 
			},
			{
				"x": 0.5249318987,
				"y": 2.3931077559,
				"z": -0.3228402697,
				"element": "N" 
			},
			{
				"x": -0.4418922787,
				"y": 2.8653284447,
				"z": 0.524493608,
				"element": "C" 
			},
			{
				"x": -0.4749722096,
				"y": 4.0032840883,
				"z": 0.9522741144,
				"element": "O" 
			},
			{
				"x": -1.3677903893,
				"y": 1.9039881274,
				"z": 0.7967242906,
				"element": "O" 
			},
			{
				"x": -2.4309818288,
				"y": 2.2797127415,
				"z": 1.6899475309,
				"element": "C" 
			},
			{
				"x": -2.7656335023,
				"y": 1.0999934587,
				"z": 2.6093649445,
				"element": "C" 
			},
			{
				"x": -3.1903660757,
				"y": -0.1686201027,
				"z": 1.8839453157,
				"element": "C" 
			},
			{
				"x": -2.3543034615,
				"y": -1.242645276,
				"z": 2.2474201495,
				"element": "C" 
			},
			{
				"x": -2.5544230942,
				"y": -2.5125798228,
				"z": 1.7033376375,
				"element": "C" 
			},
			{
				"x": -3.5987264294,
				"y": -2.6981185365,
				"z": 0.7952760523,
				"element": "C" 
			},
			{
				"x": -4.430745549,
				"y": -1.6319167473,
				"z": 0.4360128595,
				"element": "C" 
			},
			{
				"x": -4.2299755873,
				"y": -0.3579872997,
				"z": 0.9803187307,
				"element": "C" 
			},
			{
				"x": -1.3599155412,
				"y": -0.7548126946,
				"z": 3.212654965,
				"element": "C" 
			},
			{
				"x": -1.5906084421,
				"y": 0.6160061421,
				"z": 3.4461687555,
				"element": "C" 
			},
			{
				"x": -0.7821013487,
				"y": 1.3321606516,
				"z": 4.3213731394,
				"element": "C" 
			},
			{
				"x": 0.2724799976,
				"y": 0.6733325284,
				"z": 4.9649230955,
				"element": "C" 
			},
			{
				"x": 0.5090828643,
				"y": -0.6874430384,
				"z": 4.7294482313,
				"element": "C" 
			},
			{
				"x": -0.3060677326,
				"y": -1.4126544713,
				"z": 3.8527988939,
				"element": "C" 
			},
			{
				"x": 1.3410550538,
				"y": 0.0451816313,
				"z": 2.3475077586,
				"element": "H" 
			},
			{
				"x": 1.7450697407,
				"y": 0.9970288564,
				"z": -1.1781779736,
				"element": "H" 
			},
			{
				"x": -1.2580915918,
				"y": 0.4977607381,
				"z": -1.247655032,
				"element": "H" 
			},
			{
				"x": -0.0377932223,
				"y": -0.630314166,
				"z": -1.8179429015,
				"element": "H" 
			},
			{
				"x": 1.2914685992,
				"y": -0.1176532807,
				"z": -3.9103339248,
				"element": "H" 
			},
			{
				"x": 1.3008292702,
				"y": 1.1476389967,
				"z": -6.0734558322,
				"element": "H" 
			},
			{
				"x": -0.2456135038,
				"y": 3.0909637156,
				"z": -6.3321293057,
				"element": "H" 
			},
			{
				"x": -1.7576899814,
				"y": 2.5779441207,
				"z": -2.5324839172,
				"element": "H" 
			},
			{
				"x": 1.2694584894,
				"y": 3.0583269623,
				"z": -0.462205835,
				"element": "H" 
			},
			{
				"x": -3.3040861677,
				"y": 2.5535011552,
				"z": 1.0868641935,
				"element": "H" 
			},
			{
				"x": -2.1210068818,
				"y": 3.1576280535,
				"z": 2.2599925275,
				"element": "H" 
			},
			{
				"x": -3.578600785,
				"y": 1.4518762933,
				"z": 3.2629097873,
				"element": "H" 
			},
			{
				"x": -1.9078052907,
				"y": -3.3423350683,
				"z": 1.9732340719,
				"element": "H" 
			},
			{
				"x": -3.7664027368,
				"y": -3.6798074154,
				"z": 0.3617407647,
				"element": "H" 
			},
			{
				"x": -5.2389475513,
				"y": -1.7939148753,
				"z": -0.2712876745,
				"element": "H" 
			},
			{
				"x": -4.881640383,
				"y": 0.4646667008,
				"z": 0.6962141755,
				"element": "H" 
			},
			{
				"x": -0.9510049374,
				"y": 2.3908949939,
				"z": 4.4993127626,
				"element": "H" 
			},
			{
				"x": 0.9134658523,
				"y": 1.221366615,
				"z": 5.6490781318,
				"element": "H" 
			},
			{
				"x": 1.3285584209,
				"y": -1.1867290938,
				"z": 5.2390570097,
				"element": "H" 
			},
			{
				"x": -0.1155130577,
				"y": -2.4661268249,
				"z": 3.6707377816,
				"element": "H" 
			}
		],
		 "valence_orbital": [ 
			{
				"type": "occ",
				"energy": -0.25635,
				"method": "rhf"
			},
			{
				"type": "occ",
				"energy": -0.24894,
				"method": "rhf"
			},
			{
				"type": "occ",
				"energy": -0.24829,
				"method": "rhf"
			},
			{
				"type": "occ",
				"energy": -0.24745,
				"method": "rhf"
			},
			{
				"type": "occ",
				"energy": -0.22058,
				"method": "rhf"
			},
			{
				"type": "unocc",
				"energy": -0.03701,
				"method": "rhf"
			},
			{
				"type": "unocc",
				"energy": -0.02233,
				"method": "rhf"
			},
			{
				"type": "unocc",
				"energy": -0.01958,
				"method": "rhf"
			},
			{
				"type": "unocc",
				"energy": -0.00857,
				"method": "rhf"
			},
			{
				"type": "unocc",
				"energy": 0.00288,
				"method": "rhf"
			}
		],
		"cosmo_sigma_profile": { 
			"-0.025": 0.0,
			"-0.024": 0.0,
			"-0.023": 0.0,
			"-0.022": 0.0,
			"-0.021": 0.0,
			"-0.02": 0.0,
			"-0.019": 0.0,
			"-0.018": 0.0,
			"-0.017": 0.0,
			"-0.016": 0.0,
			"-0.015": 0.648736250573,
			"-0.014": 1.46761089685,
			"-0.013": 1.1956161381,
			"-0.012": 1.43916647569,
			"-0.011": 1.63151475604,
			"-0.01": 2.14447991611,
			"-0.009": 2.98862737894,
			"-0.008": 3.66402135577,
			"-0.007": 8.7801244747,
			"-0.006": 33.9367617177,
			"-0.005": 36.4157961921,
			"-0.004": 33.2058998305,
			"-0.003": 30.792165958,
			"-0.002": 25.9028448328,
			"-0.001": 23.2841099262,
			"0.0": 21.2126879093,
			"0.001": 21.9874484985,
			"0.002": 26.7095624563,
			"0.003": 30.9917019649,
			"0.004": 25.5653936656,
			"0.005": 20.7901459714,
			"0.006": 12.2387083621,
			"0.007": 6.38202545394,
			"0.008": 7.90706107551,
			"0.009": 5.07104003043,
			"0.01": 4.76622367194,
			"0.011": 5.3372288099,
			"0.012": 5.36756949957,
			"0.013": 5.67881037245,
			"0.014": 1.47499046517,
			"0.015": 1.04126706905,
			"0.016": 0.629293082073,
			"0.017": 0.5872897253,
			"0.018": 0.0102515684095,
			"0.019": 0.0,
			"0.02": 0.0,
			"0.021": 0.0,
			"0.022": 0.0,
			"0.023": 0.0,
			"0.024": 0.0,
			"0.025": 0.0
		}
	}
}
