{
	 "smiles": "OC(=O)CCCC(O)=O", 
	 "Tm": 370.35, 
	 "num_atms": 17, 
	 "gaussian": { 
		 "optdone": 1, 
		 "sigma_profile": "yes", 
		 "theory": "DFT", 
		 "functional": "B3LYP", 
		 "basiset": "6-31G**", 
		 "properties": { 
			 "R2extent": 2046.1877, 
			 "electric_dipole_moment_norm": 4.63543798794, 
			 "electric_quadrupole_moment_norm": 17.0873927511, 
			 "total_energy": -496.278306864, 
			 "HOMO_LUMO_gap": 0.26735, 
			 "cosmo_polarized_energy": -18.99, 
			 "cosmo_cavitation_energy": 21.57, 
			 "cosmo_dispersion_energy": -15.69, 
			 "cosmo_repulsion_energy": 1.34, 
			 "cosmo_total_nonelectrostatic_energy": 7.21, 
			 "SMD_solvation_energy": 5.98 
		},
		"coords": [
			{
				"x": 1.3586237406,
				"y": -3.8365338169,
				"z": 1.6619158872,
				"element": "O" 
			},
			{
				"x": 0.6066036998,
				"y": -3.2379306094,
				"z": 0.6975213295,
				"element": "C" 
			},
			{
				"x": -0.3039324204,
				"y": -3.8387892941,
				"z": 0.1845654867,
				"element": "O" 
			},
			{
				"x": 1.0255608893,
				"y": -1.8193615807,
				"z": 0.3353539537,
				"element": "C" 
			},
			{
				"x": 0.0261168316,
				"y": -1.1379905438,
				"z": -0.6026927247,
				"element": "C" 
			},
			{
				"x": 0.4950482119,
				"y": 0.2240650396,
				"z": -1.1195404483,
				"element": "C" 
			},
			{
				"x": 0.6116566846,
				"y": 1.2875216493,
				"z": -0.0476266845,
				"element": "C" 
			},
			{
				"x": 0.957003806,
				"y": 2.4854799127,
				"z": -0.5754272718,
				"element": "O" 
			},
			{
				"x": 0.4288297455,
				"y": 1.1317732542,
				"z": 1.1417134177,
				"element": "O" 
			},
			{
				"x": 2.0262106281,
				"y": -3.2191178909,
				"z": 1.9932564438,
				"element": "H" 
			},
			{
				"x": 2.0193160691,
				"y": -1.8786818032,
				"z": -0.1338578649,
				"element": "H" 
			},
			{
				"x": 1.1447279205,
				"y": -1.2268344817,
				"z": 1.2495313483,
				"element": "H" 
			},
			{
				"x": -0.1652739831,
				"y": -1.7974780505,
				"z": -1.4538423233,
				"element": "H" 
			},
			{
				"x": -0.9288149771,
				"y": -1.0236615401,
				"z": -0.0807096531,
				"element": "H" 
			},
			{
				"x": 1.4699711354,
				"y": 0.1516391836,
				"z": -1.6199843834,
				"element": "H" 
			},
			{
				"x": -0.1935357901,
				"y": 0.6062127732,
				"z": -1.8823999118,
				"element": "H" 
			},
			{
				"x": 1.0093878085,
				"y": 3.1066877988,
				"z": 0.1705233989,
				"element": "H" 
			}
		],
		 "valence_orbital": [ 
			{
				"type": "occ",
				"energy": -0.35308,
				"method": "rhf"
			},
			{
				"type": "occ",
				"energy": -0.3291,
				"method": "rhf"
			},
			{
				"type": "occ",
				"energy": -0.31326,
				"method": "rhf"
			},
			{
				"type": "occ",
				"energy": -0.28608,
				"method": "rhf"
			},
			{
				"type": "occ",
				"energy": -0.26943,
				"method": "rhf"
			},
			{
				"type": "unocc",
				"energy": -0.00208,
				"method": "rhf"
			},
			{
				"type": "unocc",
				"energy": 0.01332,
				"method": "rhf"
			},
			{
				"type": "unocc",
				"energy": 0.05854,
				"method": "rhf"
			},
			{
				"type": "unocc",
				"energy": 0.07029,
				"method": "rhf"
			},
			{
				"type": "unocc",
				"energy": 0.08826,
				"method": "rhf"
			}
		],
		"cosmo_sigma_profile": { 
			"-0.025": 0.0,
			"-0.024": 0.0,
			"-0.023": 0.0,
			"-0.022": 0.0,
			"-0.021": 0.0,
			"-0.02": 0.0,
			"-0.019": 0.463945653781,
			"-0.018": 1.83601554628,
			"-0.017": 1.28990029571,
			"-0.016": 2.42951157629,
			"-0.015": 2.08595193487,
			"-0.014": 1.73739196508,
			"-0.013": 1.3879107073,
			"-0.012": 1.62046407777,
			"-0.011": 2.18674471436,
			"-0.01": 2.10889195333,
			"-0.009": 1.54799722481,
			"-0.008": 1.95491315245,
			"-0.007": 4.53846476569,
			"-0.006": 13.28768901,
			"-0.005": 8.09099025595,
			"-0.004": 11.2501951989,
			"-0.003": 14.7886879284,
			"-0.002": 10.8681127419,
			"-0.001": 6.70582732099,
			"0.0": 6.17174410856,
			"0.001": 5.70691633488,
			"0.002": 4.49246640037,
			"0.003": 4.30179366426,
			"0.004": 4.26265148445,
			"0.005": 5.06436779859,
			"0.006": 4.85184842651,
			"0.007": 5.5543878266,
			"0.008": 4.57848003236,
			"0.009": 6.36906076029,
			"0.01": 7.66515837807,
			"0.011": 8.53252115866,
			"0.012": 8.78121302101,
			"0.013": 2.22416170872,
			"0.014": 0.139104274816,
			"0.015": 0.0,
			"0.016": 0.0,
			"0.017": 0.0,
			"0.018": 0.0,
			"0.019": 0.0,
			"0.02": 0.0,
			"0.021": 0.0,
			"0.022": 0.0,
			"0.023": 0.0,
			"0.024": 0.0,
			"0.025": 0.0
		}
	}
}
