{
	 "smiles": "OC(=O)C(Cl)Cl", 
	 "Tm": 286.65, 
	 "num_atms": 8, 
	 "gaussian": { 
		 "optdone": 1, 
		 "sigma_profile": "yes", 
		 "theory": "DFT", 
		 "functional": "B3LYP", 
		 "basiset": "6-31G**", 
		 "properties": { 
			 "R2extent": 2794.6997, 
			 "electric_dipole_moment_norm": 2.22654509274, 
			 "electric_quadrupole_moment_norm": 12.7050597905, 
			 "total_energy": -1148.24289912, 
			 "HOMO_LUMO_gap": 0.24638, 
			 "cosmo_polarized_energy": -9.41, 
			 "cosmo_cavitation_energy": 16.2, 
			 "cosmo_dispersion_energy": -12.25, 
			 "cosmo_repulsion_energy": 1.08, 
			 "cosmo_total_nonelectrostatic_energy": 5.03, 
			 "SMD_solvation_energy": 3.62 
		},
		"coords": [
			{
				"x": -1.4639973791,
				"y": 1.7962934114,
				"z": 2.3265133803,
				"element": "O" 
			},
			{
				"x": -0.4517237202,
				"y": 1.9232299226,
				"z": 3.1969007412,
				"element": "C" 
			},
			{
				"x": -0.6182026244,
				"y": 2.2048405824,
				"z": 4.3536081008,
				"element": "O" 
			},
			{
				"x": 0.9663815211,
				"y": 1.6891632749,
				"z": 2.6467522324,
				"element": "C" 
			},
			{
				"x": 1.1328647345,
				"y": 0.0032856612,
				"z": 2.033298039,
				"element": "Cl" 
			},
			{
				"x": 1.3482817382,
				"y": 2.8910923556,
				"z": 1.3598344807,
				"element": "Cl" 
			},
			{
				"x": -1.138989265,
				"y": 1.5663995965,
				"z": 1.4417319106,
				"element": "H" 
			},
			{
				"x": 1.6808849948,
				"y": 1.8240951955,
				"z": 3.4536611151,
				"element": "H" 
			}
		],
		 "valence_orbital": [ 
			{
				"type": "occ",
				"energy": -0.3558,
				"method": "rhf"
			},
			{
				"type": "occ",
				"energy": -0.34423,
				"method": "rhf"
			},
			{
				"type": "occ",
				"energy": -0.34314,
				"method": "rhf"
			},
			{
				"type": "occ",
				"energy": -0.33476,
				"method": "rhf"
			},
			{
				"type": "occ",
				"energy": -0.29979,
				"method": "rhf"
			},
			{
				"type": "unocc",
				"energy": -0.05341,
				"method": "rhf"
			},
			{
				"type": "unocc",
				"energy": -0.0398,
				"method": "rhf"
			},
			{
				"type": "unocc",
				"energy": 0.04865,
				"method": "rhf"
			},
			{
				"type": "unocc",
				"energy": 0.05041,
				"method": "rhf"
			},
			{
				"type": "unocc",
				"energy": 0.0989,
				"method": "rhf"
			}
		],
		"cosmo_sigma_profile": { 
			"-0.025": 0.0,
			"-0.024": 0.0,
			"-0.023": 0.0,
			"-0.022": 0.0,
			"-0.021": 0.0,
			"-0.02": 0.0,
			"-0.019": 0.59744566773,
			"-0.018": 0.658408747027,
			"-0.017": 0.434468580761,
			"-0.016": 0.703456824588,
			"-0.015": 0.66459652271,
			"-0.014": 0.878355291294,
			"-0.013": 1.27547508977,
			"-0.012": 2.13206422393,
			"-0.011": 2.61356636002,
			"-0.01": 2.01251290279,
			"-0.009": 2.19267636159,
			"-0.008": 2.67286618429,
			"-0.007": 1.57185896588,
			"-0.006": 1.89680933465,
			"-0.005": 3.73026398855,
			"-0.004": 6.54073533058,
			"-0.003": 6.94703404566,
			"-0.002": 8.32170009796,
			"-0.001": 8.60983905239,
			"0.0": 8.6067430479,
			"0.001": 11.4503589701,
			"0.002": 15.0761145425,
			"0.003": 15.451994327,
			"0.004": 4.16148117458,
			"0.005": 2.21324162152,
			"0.006": 2.78389592723,
			"0.007": 3.50037899954,
			"0.008": 5.111425529,
			"0.009": 4.23294815007,
			"0.01": 5.17590034034,
			"0.011": 1.61055376198,
			"0.012": 0.0,
			"0.013": 0.0,
			"0.014": 0.0,
			"0.015": 0.0,
			"0.016": 0.0,
			"0.017": 0.0,
			"0.018": 0.0,
			"0.019": 0.0,
			"0.02": 0.0,
			"0.021": 0.0,
			"0.022": 0.0,
			"0.023": 0.0,
			"0.024": 0.0,
			"0.025": 0.0
		}
	}
}
