{
	 "smiles": "COC1=C(OC)C=C(CC=C)C=C1", 
	 "Tm": 343.15, 
	 "num_atms": 27, 
	 "gaussian": { 
		 "optdone": 1, 
		 "sigma_profile": "yes", 
		 "theory": "DFT", 
		 "functional": "B3LYP", 
		 "basiset": "6-31G**", 
		 "properties": { 
			 "R2extent": 3185.0091, 
			 "electric_dipole_moment_norm": 2.05236001959, 
			 "electric_quadrupole_moment_norm": 8.14601467406, 
			 "total_energy": -578.004273818, 
			 "HOMO_LUMO_gap": 0.21348, 
			 "cosmo_polarized_energy": -7.56, 
			 "cosmo_cavitation_energy": 30.44, 
			 "cosmo_dispersion_energy": -21.3, 
			 "cosmo_repulsion_energy": 1.72, 
			 "cosmo_total_nonelectrostatic_energy": 10.86, 
			 "SMD_solvation_energy": 7.25 
		},
		"coords": [
			{
				"x": 4.1490485332,
				"y": -0.1331589121,
				"z": -1.3847654249,
				"element": "C" 
			},
			{
				"x": 2.8716060315,
				"y": -0.2516686103,
				"z": -2.0133492053,
				"element": "O" 
			},
			{
				"x": 1.788876426,
				"y": 0.0975752614,
				"z": -1.2421764401,
				"element": "C" 
			},
			{
				"x": 1.3823753795,
				"y": -0.6824580001,
				"z": -0.1342873478,
				"element": "C" 
			},
			{
				"x": 2.1583072439,
				"y": -1.7722230097,
				"z": 0.1478248669,
				"element": "O" 
			},
			{
				"x": 1.7717326407,
				"y": -2.6070321417,
				"z": 1.2275788222,
				"element": "C" 
			},
			{
				"x": 0.2436210054,
				"y": -0.3153245162,
				"z": 0.584364554,
				"element": "C" 
			},
			{
				"x": -0.5165909341,
				"y": 0.8069454409,
				"z": 0.2154861264,
				"element": "C" 
			},
			{
				"x": -1.7716608324,
				"y": 1.1636029057,
				"z": 0.9988965181,
				"element": "C" 
			},
			{
				"x": -1.5474341888,
				"y": 1.260763283,
				"z": 2.4866825489,
				"element": "C" 
			},
			{
				"x": -2.1890800781,
				"y": 0.5373578139,
				"z": 3.405236043,
				"element": "C" 
			},
			{
				"x": -0.111999339,
				"y": 1.5633622251,
				"z": -0.8839745853,
				"element": "C" 
			},
			{
				"x": 1.0348139921,
				"y": 1.2089176821,
				"z": -1.601195218,
				"element": "C" 
			},
			{
				"x": 4.2421940359,
				"y": -0.80973584,
				"z": -0.5301226172,
				"element": "H" 
			},
			{
				"x": 4.8874659635,
				"y": -0.401251042,
				"z": -2.1436217989,
				"element": "H" 
			},
			{
				"x": 4.3300883255,
				"y": 0.8988233559,
				"z": -1.0556413656,
				"element": "H" 
			},
			{
				"x": 0.7733825059,
				"y": -3.0344289908,
				"z": 1.0696482478,
				"element": "H" 
			},
			{
				"x": 1.7816397886,
				"y": -2.0673449334,
				"z": 2.1833880055,
				"element": "H" 
			},
			{
				"x": 2.5062546687,
				"y": -3.4132326597,
				"z": 1.2621912299,
				"element": "H" 
			},
			{
				"x": -0.071306296,
				"y": -0.8963389738,
				"z": 1.4437274206,
				"element": "H" 
			},
			{
				"x": -2.5584997281,
				"y": 0.4226284692,
				"z": 0.8036050797,
				"element": "H" 
			},
			{
				"x": -2.1512890032,
				"y": 2.1237946855,
				"z": 0.6251578921,
				"element": "H" 
			},
			{
				"x": -0.7925672871,
				"y": 1.9806187346,
				"z": 2.8039807153,
				"element": "H" 
			},
			{
				"x": -1.9894830073,
				"y": 0.6534495369,
				"z": 4.4665345898,
				"element": "H" 
			},
			{
				"x": -2.9462540833,
				"y": -0.1930445759,
				"z": 3.1282895417,
				"element": "H" 
			},
			{
				"x": -0.6880793635,
				"y": 2.4340481157,
				"z": -1.1852402187,
				"element": "H" 
			},
			{
				"x": 1.3618376004,
				"y": 1.7863546956,
				"z": -2.4603179801,
				"element": "H" 
			}
		],
		 "valence_orbital": [ 
			{
				"type": "occ",
				"energy": -0.30832,
				"method": "rhf"
			},
			{
				"type": "occ",
				"energy": -0.26717,
				"method": "rhf"
			},
			{
				"type": "occ",
				"energy": -0.25904,
				"method": "rhf"
			},
			{
				"type": "occ",
				"energy": -0.23216,
				"method": "rhf"
			},
			{
				"type": "occ",
				"energy": -0.20825,
				"method": "rhf"
			},
			{
				"type": "unocc",
				"energy": 0.00523,
				"method": "rhf"
			},
			{
				"type": "unocc",
				"energy": 0.00867,
				"method": "rhf"
			},
			{
				"type": "unocc",
				"energy": 0.02917,
				"method": "rhf"
			},
			{
				"type": "unocc",
				"energy": 0.09421,
				"method": "rhf"
			},
			{
				"type": "unocc",
				"energy": 0.10238,
				"method": "rhf"
			}
		],
		"cosmo_sigma_profile": { 
			"-0.025": 0.0,
			"-0.024": 0.0,
			"-0.023": 0.0,
			"-0.022": 0.0,
			"-0.021": 0.0,
			"-0.02": 0.0,
			"-0.019": 0.0,
			"-0.018": 0.0,
			"-0.017": 0.0,
			"-0.016": 0.0,
			"-0.015": 0.0,
			"-0.014": 0.0,
			"-0.013": 0.0,
			"-0.012": 0.0,
			"-0.011": 0.0,
			"-0.01": 0.0,
			"-0.009": 0.0,
			"-0.008": 0.0,
			"-0.007": 0.0378503082942,
			"-0.006": 3.86376897233,
			"-0.005": 20.5151970212,
			"-0.004": 27.3930096875,
			"-0.003": 30.2029923826,
			"-0.002": 26.7312975877,
			"-0.001": 20.5032587759,
			"0.0": 16.4525077421,
			"0.001": 15.4260791308,
			"0.002": 12.8815898495,
			"0.003": 15.157746035,
			"0.004": 15.3590964948,
			"0.005": 12.5035549738,
			"0.006": 9.40203320092,
			"0.007": 3.30854734079,
			"0.008": 1.74064592963,
			"0.009": 1.94985489503,
			"0.01": 2.55112261723,
			"0.011": 2.83254840663,
			"0.012": 1.7576931213,
			"0.013": 0.113954198863,
			"0.014": 0.0,
			"0.015": 0.0,
			"0.016": 0.0,
			"0.017": 0.0,
			"0.018": 0.0,
			"0.019": 0.0,
			"0.02": 0.0,
			"0.021": 0.0,
			"0.022": 0.0,
			"0.023": 0.0,
			"0.024": 0.0,
			"0.025": 0.0
		}
	}
}
