{
	 "smiles": "COC1=CC(C=CC(O)=O)=CN=C1", 
	 "Tm": 446.15, 
	 "num_atms": 22, 
	 "gaussian": { 
		 "optdone": 1, 
		 "sigma_profile": "yes", 
		 "theory": "DFT", 
		 "functional": "B3LYP", 
		 "basiset": "6-31G**", 
		 "properties": { 
			 "R2extent": 4222.3004, 
			 "electric_dipole_moment_norm": 6.57065157043, 
			 "electric_quadrupole_moment_norm": 20.1786299622, 
			 "total_energy": -628.773074981, 
			 "HOMO_LUMO_gap": 0.16477, 
			 "cosmo_polarized_energy": -19.22, 
			 "cosmo_cavitation_energy": 27.44, 
			 "cosmo_dispersion_energy": -20.07, 
			 "cosmo_repulsion_energy": 1.58, 
			 "cosmo_total_nonelectrostatic_energy": 8.94, 
			 "SMD_solvation_energy": 5.47 
		},
		"coords": [
			{
				"x": 2.0471450425,
				"y": 0.8766338313,
				"z": -3.1040006849,
				"element": "C" 
			},
			{
				"x": 1.8766055149,
				"y": 0.8333675233,
				"z": -1.6915142816,
				"element": "O" 
			},
			{
				"x": 0.9121399791,
				"y": 0.0208852524,
				"z": -1.1864723155,
				"element": "C" 
			},
			{
				"x": 0.7783974371,
				"y": 0.0009081289,
				"z": 0.2057128049,
				"element": "C" 
			},
			{
				"x": -0.1900028439,
				"y": -0.8131131552,
				"z": 0.7992385187,
				"element": "C" 
			},
			{
				"x": -0.3216818399,
				"y": -0.8290714805,
				"z": 2.2588479164,
				"element": "C" 
			},
			{
				"x": -1.0965397566,
				"y": -1.6440072511,
				"z": 2.998234875,
				"element": "C" 
			},
			{
				"x": -1.1377734574,
				"y": -1.6506613454,
				"z": 4.4845680955,
				"element": "C" 
			},
			{
				"x": -0.7693607618,
				"y": -0.5071074581,
				"z": 5.1287438315,
				"element": "O" 
			},
			{
				"x": -1.4680192039,
				"y": -2.6257329756,
				"z": 5.1181696609,
				"element": "O" 
			},
			{
				"x": -1.0057428226,
				"y": -1.5778487713,
				"z": -0.0624254196,
				"element": "C" 
			},
			{
				"x": -0.8869565838,
				"y": -1.5652700465,
				"z": -1.3857683812,
				"element": "N" 
			},
			{
				"x": 0.0525277028,
				"y": -0.7867955108,
				"z": -1.9434336411,
				"element": "C" 
			},
			{
				"x": 2.3197789187,
				"y": -0.1067568879,
				"z": -3.5061713358,
				"element": "H" 
			},
			{
				"x": 2.8617750432,
				"y": 1.5786302942,
				"z": -3.2849788991,
				"element": "H" 
			},
			{
				"x": 1.1409443212,
				"y": 1.2350445921,
				"z": -3.6075557163,
				"element": "H" 
			},
			{
				"x": 1.4407166977,
				"y": 0.6202816858,
				"z": 0.8037947554,
				"element": "H" 
			},
			{
				"x": 0.317910587,
				"y": -0.1091150445,
				"z": 2.7715673115,
				"element": "H" 
			},
			{
				"x": -1.6876030706,
				"y": -2.4353097579,
				"z": 2.5493208398,
				"element": "H" 
			},
			{
				"x": -0.7210550913,
				"y": 0.2250701843,
				"z": 4.4986734747,
				"element": "H" 
			},
			{
				"x": -1.7884556236,
				"y": -2.2163873924,
				"z": 0.3395597352,
				"element": "H" 
			},
			{
				"x": 0.1110498112,
				"y": -0.8134444152,
				"z": -3.0273111444,
				"element": "H" 
			}
		],
		 "valence_orbital": [ 
			{
				"type": "occ",
				"energy": -0.31556,
				"method": "rhf"
			},
			{
				"type": "occ",
				"energy": -0.27601,
				"method": "rhf"
			},
			{
				"type": "occ",
				"energy": -0.26667,
				"method": "rhf"
			},
			{
				"type": "occ",
				"energy": -0.26466,
				"method": "rhf"
			},
			{
				"type": "occ",
				"energy": -0.24367,
				"method": "rhf"
			},
			{
				"type": "unocc",
				"energy": -0.0789,
				"method": "rhf"
			},
			{
				"type": "unocc",
				"energy": -0.03163,
				"method": "rhf"
			},
			{
				"type": "unocc",
				"energy": 0.00949,
				"method": "rhf"
			},
			{
				"type": "unocc",
				"energy": 0.05801,
				"method": "rhf"
			},
			{
				"type": "unocc",
				"energy": 0.07312,
				"method": "rhf"
			}
		],
		"cosmo_sigma_profile": { 
			"-0.025": 0.0,
			"-0.024": 0.0,
			"-0.023": 0.0,
			"-0.022": 0.0,
			"-0.021": 0.0,
			"-0.02": 0.0,
			"-0.019": 0.390372121989,
			"-0.018": 0.544468079032,
			"-0.017": 1.63262401978,
			"-0.016": 0.766276876011,
			"-0.015": 0.667596566432,
			"-0.014": 0.639432813792,
			"-0.013": 0.988206574937,
			"-0.012": 1.58794481896,
			"-0.011": 1.31353390233,
			"-0.01": 1.5390838294,
			"-0.009": 4.01735233285,
			"-0.008": 5.93262416254,
			"-0.007": 9.0717463799,
			"-0.006": 15.2656098466,
			"-0.005": 12.2936692857,
			"-0.004": 15.1408644887,
			"-0.003": 14.0942537898,
			"-0.002": 11.4022936219,
			"-0.001": 10.1688818497,
			"0.0": 14.6425065634,
			"0.001": 22.6236392189,
			"0.002": 11.2978463473,
			"0.003": 6.89720980989,
			"0.004": 4.87460562468,
			"0.005": 6.23789181434,
			"0.006": 3.95833218377,
			"0.007": 4.66909029971,
			"0.008": 5.76602644519,
			"0.009": 5.36772776152,
			"0.01": 6.36493500536,
			"0.011": 6.0403816213,
			"0.012": 7.08490797379,
			"0.013": 3.37237646504,
			"0.014": 1.42251228302,
			"0.015": 0.685368258975,
			"0.016": 0.645559494366,
			"0.017": 0.077611798127,
			"0.018": 0.0,
			"0.019": 0.0,
			"0.02": 0.0,
			"0.021": 0.0,
			"0.022": 0.0,
			"0.023": 0.0,
			"0.024": 0.0,
			"0.025": 0.0
		}
	}
}
