{
	 "smiles": "CC(=N/NC(N)=O)C1=CC=C(C)C=C1", 
	 "Tm": 477.15, 
	 "num_atms": 27, 
	 "gaussian": { 
		 "optdone": 1, 
		 "sigma_profile": "yes", 
		 "theory": "DFT", 
		 "functional": "B3LYP", 
		 "basiset": "6-31G**", 
		 "properties": { 
			 "R2extent": 5236.628, 
			 "electric_dipole_moment_norm": 4.07402969675, 
			 "electric_quadrupole_moment_norm": 21.2960303625, 
			 "total_energy": -628.38768891, 
			 "HOMO_LUMO_gap": 0.17241, 
			 "cosmo_polarized_energy": -14.85, 
			 "cosmo_cavitation_energy": 31.06, 
			 "cosmo_dispersion_energy": -22.56, 
			 "cosmo_repulsion_energy": 1.8, 
			 "cosmo_total_nonelectrostatic_energy": 10.29, 
			 "SMD_solvation_energy": 6.09 
		},
		"coords": [
			{
				"x": 1.9881559377,
				"y": -1.2390355163,
				"z": 0.1104889837,
				"element": "C" 
			},
			{
				"x": 0.5370356822,
				"y": -1.5907073615,
				"z": -0.1313588745,
				"element": "C" 
			},
			{
				"x": 0.1749769387,
				"y": -2.4926899723,
				"z": -0.9854121519,
				"element": "N" 
			},
			{
				"x": 1.1197791575,
				"y": -3.1532967144,
				"z": -1.6972990707,
				"element": "N" 
			},
			{
				"x": 0.7872065997,
				"y": -4.1847524271,
				"z": -2.5810248471,
				"element": "C" 
			},
			{
				"x": -0.5538284755,
				"y": -4.3641829009,
				"z": -2.7622952472,
				"element": "N" 
			},
			{
				"x": 1.6703513745,
				"y": -4.8188819531,
				"z": -3.1413899994,
				"element": "O" 
			},
			{
				"x": -0.5437099485,
				"y": -0.8946591117,
				"z": 0.6066540016,
				"element": "C" 
			},
			{
				"x": -0.313709489,
				"y": -0.2825806479,
				"z": 1.8483727111,
				"element": "C" 
			},
			{
				"x": -1.3471254476,
				"y": 0.3489813297,
				"z": 2.5412886284,
				"element": "C" 
			},
			{
				"x": -2.6441761192,
				"y": 0.4018891833,
				"z": 2.0218672655,
				"element": "C" 
			},
			{
				"x": -3.7583375372,
				"y": 1.1094399472,
				"z": 2.7548469165,
				"element": "C" 
			},
			{
				"x": -2.8738470987,
				"y": -0.2109030464,
				"z": 0.7791005931,
				"element": "C" 
			},
			{
				"x": -1.8508415167,
				"y": -0.8442116121,
				"z": 0.0856779549,
				"element": "C" 
			},
			{
				"x": 2.4949102187,
				"y": -1.0351110458,
				"z": -0.8412766142,
				"element": "H" 
			},
			{
				"x": 2.5293946817,
				"y": -2.0583908215,
				"z": 0.6019023261,
				"element": "H" 
			},
			{
				"x": 2.093668315,
				"y": -0.3473597834,
				"z": 0.7270519605,
				"element": "H" 
			},
			{
				"x": 2.114620753,
				"y": -3.0397467233,
				"z": -1.539890951,
				"element": "H" 
			},
			{
				"x": -1.1927580223,
				"y": -3.9246344488,
				"z": -2.1172966685,
				"element": "H" 
			},
			{
				"x": -0.8248496144,
				"y": -5.2036688338,
				"z": -3.2467298369,
				"element": "H" 
			},
			{
				"x": 0.6723740301,
				"y": -0.3158991426,
				"z": 2.3010309646,
				"element": "H" 
			},
			{
				"x": -1.1384503355,
				"y": 0.8051301815,
				"z": 3.5058612875,
				"element": "H" 
			},
			{
				"x": -4.0123750064,
				"y": 2.0601649549,
				"z": 2.2698428283,
				"element": "H" 
			},
			{
				"x": -4.6718437741,
				"y": 0.5053928305,
				"z": 2.7735321816,
				"element": "H" 
			},
			{
				"x": -3.4795381344,
				"y": 1.3317639474,
				"z": 3.7886724191,
				"element": "H" 
			},
			{
				"x": -3.8715274393,
				"y": -0.1823836138,
				"z": 0.3468574917,
				"element": "H" 
			},
			{
				"x": -2.04655573,
				"y": -1.3010666982,
				"z": -0.8781742529,
				"element": "H" 
			}
		],
		 "valence_orbital": [ 
			{
				"type": "occ",
				"energy": -0.26887,
				"method": "rhf"
			},
			{
				"type": "occ",
				"energy": -0.26106,
				"method": "rhf"
			},
			{
				"type": "occ",
				"energy": -0.25506,
				"method": "rhf"
			},
			{
				"type": "occ",
				"energy": -0.25299,
				"method": "rhf"
			},
			{
				"type": "occ",
				"energy": -0.21155,
				"method": "rhf"
			},
			{
				"type": "unocc",
				"energy": -0.03914,
				"method": "rhf"
			},
			{
				"type": "unocc",
				"energy": -0.00442,
				"method": "rhf"
			},
			{
				"type": "unocc",
				"energy": 0.03563,
				"method": "rhf"
			},
			{
				"type": "unocc",
				"energy": 0.0739,
				"method": "rhf"
			},
			{
				"type": "unocc",
				"energy": 0.08243,
				"method": "rhf"
			}
		],
		"cosmo_sigma_profile": { 
			"-0.025": 0.0,
			"-0.024": 0.0,
			"-0.023": 0.0,
			"-0.022": 0.0,
			"-0.021": 0.0,
			"-0.02": 0.0,
			"-0.019": 0.0,
			"-0.018": 0.0,
			"-0.017": 0.0,
			"-0.016": 0.0,
			"-0.015": 0.0140844870987,
			"-0.014": 0.804711866861,
			"-0.013": 1.50043841067,
			"-0.012": 2.75355302552,
			"-0.011": 2.38192263528,
			"-0.01": 3.25253872559,
			"-0.009": 3.43419680409,
			"-0.008": 2.82021030555,
			"-0.007": 3.7221752981,
			"-0.006": 7.44296217087,
			"-0.005": 14.8466278728,
			"-0.004": 20.1988755928,
			"-0.003": 21.9073317487,
			"-0.002": 20.5012006335,
			"-0.001": 20.12276813,
			"0.0": 18.8179062622,
			"0.001": 15.8060286814,
			"0.002": 12.9462542739,
			"0.003": 12.5688335597,
			"0.004": 13.0931736096,
			"0.005": 15.0045844717,
			"0.006": 9.3858852318,
			"0.007": 2.82032326452,
			"0.008": 2.41878296807,
			"0.009": 1.41509960567,
			"0.01": 1.23148399274,
			"0.011": 1.32955751306,
			"0.012": 1.60305465567,
			"0.013": 2.16577729563,
			"0.014": 7.23888516766,
			"0.015": 2.29516318324,
			"0.016": 0.0,
			"0.017": 0.0,
			"0.018": 0.0,
			"0.019": 0.0,
			"0.02": 0.0,
			"0.021": 0.0,
			"0.022": 0.0,
			"0.023": 0.0,
			"0.024": 0.0,
			"0.025": 0.0
		}
	}
}
