{
	 "smiles": "OC(=O)C1=NC=CC(OC2=CC=CC=C2)=C1", 
	 "Tm": 453.15, 
	 "num_atms": 25, 
	 "gaussian": { 
		 "optdone": 1, 
		 "sigma_profile": "yes", 
		 "theory": "DFT", 
		 "functional": "B3LYP", 
		 "basiset": "6-31G**", 
		 "properties": { 
			 "R2extent": 4732.2586, 
			 "electric_dipole_moment_norm": 2.2634650671, 
			 "electric_quadrupole_moment_norm": 5.71866560659, 
			 "total_energy": -743.123851177, 
			 "HOMO_LUMO_gap": 0.19685, 
			 "cosmo_polarized_energy": -13.84, 
			 "cosmo_cavitation_energy": 30.92, 
			 "cosmo_dispersion_energy": -22.06, 
			 "cosmo_repulsion_energy": 1.74, 
			 "cosmo_total_nonelectrostatic_energy": 10.6, 
			 "SMD_solvation_energy": 5.67 
		},
		"coords": [
			{
				"x": -1.8554394666,
				"y": -4.7390527591,
				"z": -2.1365486897,
				"element": "O" 
			},
			{
				"x": -1.5005808305,
				"y": -3.4463195991,
				"z": -2.0217641172,
				"element": "C" 
			},
			{
				"x": -1.8882596436,
				"y": -2.5846277156,
				"z": -2.7879022273,
				"element": "O" 
			},
			{
				"x": -0.5850794514,
				"y": -3.1730005375,
				"z": -0.8626332858,
				"element": "C" 
			},
			{
				"x": -0.2232945673,
				"y": -4.1972363002,
				"z": -0.0802156814,
				"element": "N" 
			},
			{
				"x": 0.5944992082,
				"y": -3.9083341193,
				"z": 0.9389203499,
				"element": "C" 
			},
			{
				"x": 1.0733387259,
				"y": -2.631795341,
				"z": 1.2204373489,
				"element": "C" 
			},
			{
				"x": 0.6801158444,
				"y": -1.5768566976,
				"z": 0.3894422068,
				"element": "C" 
			},
			{
				"x": 1.1791758861,
				"y": -0.3431713149,
				"z": 0.6906816803,
				"element": "O" 
			},
			{
				"x": 0.762713372,
				"y": 0.7712459863,
				"z": -0.0376731606,
				"element": "C" 
			},
			{
				"x": -0.4445120461,
				"y": 1.3937787485,
				"z": 0.2781080898,
				"element": "C" 
			},
			{
				"x": -0.8086452495,
				"y": 2.5526964828,
				"z": -0.4089452687,
				"element": "C" 
			},
			{
				"x": 0.0289525078,
				"y": 3.0807801627,
				"z": -1.394273793,
				"element": "C" 
			},
			{
				"x": 1.236966652,
				"y": 2.4479088382,
				"z": -1.6942903182,
				"element": "C" 
			},
			{
				"x": 1.6102407694,
				"y": 1.2857921526,
				"z": -1.0165361004,
				"element": "C" 
			},
			{
				"x": -0.1707089572,
				"y": -1.8494668238,
				"z": -0.6829985003,
				"element": "C" 
			},
			{
				"x": -2.4385765762,
				"y": -4.7786815215,
				"z": -2.9129466712,
				"element": "H" 
			},
			{
				"x": 0.8857613322,
				"y": -4.7447743372,
				"z": 1.5712632195,
				"element": "H" 
			},
			{
				"x": 1.735048231,
				"y": -2.4435535371,
				"z": 2.0586535257,
				"element": "H" 
			},
			{
				"x": -1.0775936925,
				"y": 0.9746635824,
				"z": 1.053437481,
				"element": "H" 
			},
			{
				"x": -1.7468864092,
				"y": 3.0443276452,
				"z": -0.1699608708,
				"element": "H" 
			},
			{
				"x": -0.2580418668,
				"y": 3.9836825758,
				"z": -1.9244217999,
				"element": "H" 
			},
			{
				"x": 1.8922310951,
				"y": 2.8568889299,
				"z": -2.4574997035,
				"element": "H" 
			},
			{
				"x": 2.5463169134,
				"y": 0.7802465272,
				"z": -1.2297015611,
				"element": "H" 
			},
			{
				"x": -0.5129417805,
				"y": -1.0844410277,
				"z": -1.3674321528,
				"element": "H" 
			}
		],
		 "valence_orbital": [ 
			{
				"type": "occ",
				"energy": -0.272,
				"method": "rhf"
			},
			{
				"type": "occ",
				"energy": -0.26663,
				"method": "rhf"
			},
			{
				"type": "occ",
				"energy": -0.2612,
				"method": "rhf"
			},
			{
				"type": "occ",
				"energy": -0.25809,
				"method": "rhf"
			},
			{
				"type": "occ",
				"energy": -0.25211,
				"method": "rhf"
			},
			{
				"type": "unocc",
				"energy": -0.05526,
				"method": "rhf"
			},
			{
				"type": "unocc",
				"energy": -0.01806,
				"method": "rhf"
			},
			{
				"type": "unocc",
				"energy": -0.01509,
				"method": "rhf"
			},
			{
				"type": "unocc",
				"energy": -0.01079,
				"method": "rhf"
			},
			{
				"type": "unocc",
				"energy": 0.05697,
				"method": "rhf"
			}
		],
		"cosmo_sigma_profile": { 
			"-0.025": 0.0,
			"-0.024": 0.0,
			"-0.023": 0.0,
			"-0.022": 0.0,
			"-0.021": 0.0,
			"-0.02": 0.0,
			"-0.019": 0.229941978474,
			"-0.018": 0.900799311591,
			"-0.017": 1.07358040542,
			"-0.016": 0.99810493111,
			"-0.015": 0.403349601955,
			"-0.014": 0.596468600804,
			"-0.013": 0.456373113174,
			"-0.012": 0.599064491561,
			"-0.011": 1.3840781614,
			"-0.01": 0.375984795175,
			"-0.009": 0.746673095825,
			"-0.008": 2.32563014167,
			"-0.007": 8.82380715469,
			"-0.006": 15.143658556,
			"-0.005": 14.9830219566,
			"-0.004": 17.2555703234,
			"-0.003": 17.8617465489,
			"-0.002": 16.0201218246,
			"-0.001": 18.1350596567,
			"0.0": 23.8769354582,
			"0.001": 19.7188851529,
			"0.002": 16.9581331284,
			"0.003": 13.3711985909,
			"0.004": 14.8549988488,
			"0.005": 8.31777878133,
			"0.006": 3.23787073027,
			"0.007": 4.51288612441,
			"0.008": 4.56350862957,
			"0.009": 2.91888830442,
			"0.01": 4.08193184899,
			"0.011": 5.51551594357,
			"0.012": 3.43210365005,
			"0.013": 1.14495978241,
			"0.014": 1.40381028976,
			"0.015": 0.975683572403,
			"0.016": 1.10038719854,
			"0.017": 0.418720084995,
			"0.018": 0.0,
			"0.019": 0.0,
			"0.02": 0.0,
			"0.021": 0.0,
			"0.022": 0.0,
			"0.023": 0.0,
			"0.024": 0.0,
			"0.025": 0.0
		}
	}
}
