{
	 "smiles": "CCNC(=O)NC1CCC(O)CC1", 
	 "Tm": 310.65, 
	 "num_atms": 31, 
	 "gaussian": { 
		 "optdone": 1, 
		 "sigma_profile": "yes", 
		 "theory": "DFT", 
		 "functional": "B3LYP", 
		 "basiset": "6-31G**", 
		 "properties": { 
			 "R2extent": 3634.9368, 
			 "electric_dipole_moment_norm": 3.15892393862, 
			 "electric_quadrupole_moment_norm": 14.6451820122, 
			 "total_energy": -613.782121758, 
			 "HOMO_LUMO_gap": 0.28896, 
			 "cosmo_polarized_energy": -18.42, 
			 "cosmo_cavitation_energy": 31.88, 
			 "cosmo_dispersion_energy": -22.73, 
			 "cosmo_repulsion_energy": 1.83, 
			 "cosmo_total_nonelectrostatic_energy": 10.98, 
			 "SMD_solvation_energy": 4.46 
		},
		"coords": [
			{
				"x": 2.5452398445,
				"y": -0.6853891761,
				"z": 3.2292861141,
				"element": "C" 
			},
			{
				"x": 3.1111692717,
				"y": -0.3916171407,
				"z": 1.8386897961,
				"element": "C" 
			},
			{
				"x": 2.0686033462,
				"y": -0.2578470467,
				"z": 0.8211019656,
				"element": "N" 
			},
			{
				"x": 1.5622348704,
				"y": -1.3844964139,
				"z": 0.2118432717,
				"element": "C" 
			},
			{
				"x": 1.8576472364,
				"y": -2.5200299762,
				"z": 0.5760220662,
				"element": "O" 
			},
			{
				"x": 0.7113523563,
				"y": -1.1697857903,
				"z": -0.866987304,
				"element": "N" 
			},
			{
				"x": -0.0944798417,
				"y": 0.0300528405,
				"z": -1.1052091871,
				"element": "C" 
			},
			{
				"x": -0.7554658099,
				"y": -0.0565061009,
				"z": -2.5090744702,
				"element": "C" 
			},
			{
				"x": -2.21627917,
				"y": -0.5194884587,
				"z": -2.4308065043,
				"element": "C" 
			},
			{
				"x": -3.0897901516,
				"y": 0.4990469946,
				"z": -1.6662204203,
				"element": "C" 
			},
			{
				"x": -4.2983501473,
				"y": -0.1013347027,
				"z": -1.2058095691,
				"element": "O" 
			},
			{
				"x": -2.289053418,
				"y": 1.1747041178,
				"z": -0.5229770464,
				"element": "C" 
			},
			{
				"x": -1.161899365,
				"y": 0.2734576699,
				"z": -0.0051309251,
				"element": "C" 
			},
			{
				"x": 3.355392236,
				"y": -0.7767924698,
				"z": 3.961002548,
				"element": "H" 
			},
			{
				"x": 1.9903876755,
				"y": -1.626391772,
				"z": 3.2102609674,
				"element": "H" 
			},
			{
				"x": 1.8715178995,
				"y": 0.1126709463,
				"z": 3.5580128056,
				"element": "H" 
			},
			{
				"x": 3.7927281763,
				"y": -1.1955404987,
				"z": 1.5423525946,
				"element": "H" 
			},
			{
				"x": 3.6795707128,
				"y": 0.5443337682,
				"z": 1.847100247,
				"element": "H" 
			},
			{
				"x": 1.9864063185,
				"y": 0.6271340297,
				"z": 0.346286943,
				"element": "H" 
			},
			{
				"x": 0.2841805944,
				"y": -2.0454946365,
				"z": -1.1424345258,
				"element": "H" 
			},
			{
				"x": 0.5897987981,
				"y": 0.8886153858,
				"z": -1.1235525503,
				"element": "H" 
			},
			{
				"x": -0.1592738592,
				"y": -0.7197999813,
				"z": -3.143605656,
				"element": "H" 
			},
			{
				"x": -0.7220634761,
				"y": 0.9306480842,
				"z": -2.9849999624,
				"element": "H" 
			},
			{
				"x": -2.630457676,
				"y": -0.6941886299,
				"z": -3.4285053585,
				"element": "H" 
			},
			{
				"x": -2.2700260547,
				"y": -1.4857496223,
				"z": -1.9082488597,
				"element": "H" 
			},
			{
				"x": -3.4290126088,
				"y": 1.2745892484,
				"z": -2.3619215208,
				"element": "H" 
			},
			{
				"x": -4.0609090396,
				"y": -0.8230181908,
				"z": -0.6074462967,
				"element": "H" 
			},
			{
				"x": -2.9918397696,
				"y": 1.4391983826,
				"z": 0.273625359,
				"element": "H" 
			},
			{
				"x": -1.8589834362,
				"y": 2.1191876221,
				"z": -0.8818940587,
				"element": "H" 
			},
			{
				"x": -0.6885106941,
				"y": 0.6916435646,
				"z": 0.8882434536,
				"element": "H" 
			},
			{
				"x": -1.5703348188,
				"y": -0.6991120471,
				"z": 0.3003960836,
				"element": "H" 
			}
		],
		 "valence_orbital": [ 
			{
				"type": "occ",
				"energy": -0.31038,
				"method": "rhf"
			},
			{
				"type": "occ",
				"energy": -0.26507,
				"method": "rhf"
			},
			{
				"type": "occ",
				"energy": -0.25142,
				"method": "rhf"
			},
			{
				"type": "occ",
				"energy": -0.24361,
				"method": "rhf"
			},
			{
				"type": "occ",
				"energy": -0.23674,
				"method": "rhf"
			},
			{
				"type": "unocc",
				"energy": 0.05222,
				"method": "rhf"
			},
			{
				"type": "unocc",
				"energy": 0.06302,
				"method": "rhf"
			},
			{
				"type": "unocc",
				"energy": 0.06406,
				"method": "rhf"
			},
			{
				"type": "unocc",
				"energy": 0.08718,
				"method": "rhf"
			},
			{
				"type": "unocc",
				"energy": 0.08875,
				"method": "rhf"
			}
		],
		"cosmo_sigma_profile": { 
			"-0.025": 0.0,
			"-0.024": 0.0,
			"-0.023": 0.0,
			"-0.022": 0.0,
			"-0.021": 0.0,
			"-0.02": 0.0,
			"-0.019": 0.0,
			"-0.018": 0.0,
			"-0.017": 0.0,
			"-0.016": 0.0,
			"-0.015": 0.0,
			"-0.014": 0.606143817553,
			"-0.013": 1.92688280897,
			"-0.012": 1.85255808692,
			"-0.011": 3.89805959037,
			"-0.01": 3.72253214271,
			"-0.009": 3.90584579083,
			"-0.008": 4.09094033301,
			"-0.007": 4.3039341097,
			"-0.006": 5.16114988233,
			"-0.005": 7.16931608954,
			"-0.004": 13.9655521041,
			"-0.003": 29.4885408896,
			"-0.002": 27.2406417751,
			"-0.001": 29.269060063,
			"0.0": 26.240738835,
			"0.001": 18.1028667298,
			"0.002": 9.69465279325,
			"0.003": 5.68846359927,
			"0.004": 5.81854251671,
			"0.005": 4.82977601826,
			"0.006": 4.43695372635,
			"0.007": 3.2514989936,
			"0.008": 3.94250976659,
			"0.009": 2.46793288642,
			"0.01": 2.68814574967,
			"0.011": 2.50465836572,
			"0.012": 3.04833741397,
			"0.013": 3.25104199553,
			"0.014": 3.98163849379,
			"0.015": 7.82541030926,
			"0.016": 1.11567260406,
			"0.017": 0.0,
			"0.018": 0.0,
			"0.019": 0.0,
			"0.02": 0.0,
			"0.021": 0.0,
			"0.022": 0.0,
			"0.023": 0.0,
			"0.024": 0.0,
			"0.025": 0.0
		}
	}
}
