{
	 "smiles": "CCN(CC1=C(N)C=CC=C1)C(C)=O", 
	 "Tm": 353.15, 
	 "num_atms": 30, 
	 "gaussian": { 
		 "optdone": 1, 
		 "sigma_profile": "yes", 
		 "theory": "DFT", 
		 "functional": "B3LYP", 
		 "basiset": "6-31G**", 
		 "properties": { 
			 "R2extent": 3198.2666, 
			 "electric_dipole_moment_norm": 3.18908565109, 
			 "electric_quadrupole_moment_norm": 12.5617007459, 
			 "total_energy": -613.571242151, 
			 "HOMO_LUMO_gap": 0.19107, 
			 "cosmo_polarized_energy": -11.65, 
			 "cosmo_cavitation_energy": 31.07, 
			 "cosmo_dispersion_energy": -22.11, 
			 "cosmo_repulsion_energy": 1.72, 
			 "cosmo_total_nonelectrostatic_energy": 10.67, 
			 "SMD_solvation_energy": 5.35 
		},
		"coords": [
			{
				"x": -1.5959706583,
				"y": 0.7761755814,
				"z": -0.8385999427,
				"element": "C" 
			},
			{
				"x": -0.4327129508,
				"y": 0.3637505157,
				"z": -1.7495649565,
				"element": "C" 
			},
			{
				"x": 0.892548409,
				"y": 0.4555542345,
				"z": -1.126340681,
				"element": "N" 
			},
			{
				"x": 1.4403661859,
				"y": -0.762199409,
				"z": -0.4847351913,
				"element": "C" 
			},
			{
				"x": 0.8486191903,
				"y": -1.1362056147,
				"z": 0.859810232,
				"element": "C" 
			},
			{
				"x": 1.319239173,
				"y": -0.5435020252,
				"z": 2.0614536067,
				"element": "C" 
			},
			{
				"x": 2.3704495969,
				"y": 0.3498549695,
				"z": 2.0625037575,
				"element": "N" 
			},
			{
				"x": 0.725401084,
				"y": -0.9387344831,
				"z": 3.2791046445,
				"element": "C" 
			},
			{
				"x": -0.2849823288,
				"y": -1.8922390924,
				"z": 3.3157655736,
				"element": "C" 
			},
			{
				"x": -0.7373528215,
				"y": -2.4926957904,
				"z": 2.1380727594,
				"element": "C" 
			},
			{
				"x": -0.1568524036,
				"y": -2.1068802352,
				"z": 0.9304036059,
				"element": "C" 
			},
			{
				"x": 1.6322930836,
				"y": 1.6046441651,
				"z": -1.114832787,
				"element": "C" 
			},
			{
				"x": 1.1274539456,
				"y": 2.793231545,
				"z": -1.9212453672,
				"element": "C" 
			},
			{
				"x": 2.6988337189,
				"y": 1.6963916855,
				"z": -0.4946616674,
				"element": "O" 
			},
			{
				"x": -1.6384878175,
				"y": 0.1470888627,
				"z": 0.0527024035,
				"element": "H" 
			},
			{
				"x": -2.5443163693,
				"y": 0.679572935,
				"z": -1.3785177345,
				"element": "H" 
			},
			{
				"x": -1.4976621567,
				"y": 1.8169176812,
				"z": -0.5144720038,
				"element": "H" 
			},
			{
				"x": -0.5665865688,
				"y": -0.6755908693,
				"z": -2.0672537151,
				"element": "H" 
			},
			{
				"x": -0.4415635592,
				"y": 0.9645303836,
				"z": -2.6633824154,
				"element": "H" 
			},
			{
				"x": 2.5181894967,
				"y": -0.6067903249,
				"z": -0.4054917313,
				"element": "H" 
			},
			{
				"x": 1.2726721952,
				"y": -1.5880155007,
				"z": -1.1851973542,
				"element": "H" 
			},
			{
				"x": 2.5147909717,
				"y": 0.8700397897,
				"z": 2.91423284,
				"element": "H" 
			},
			{
				"x": 2.596241532,
				"y": 0.8560174847,
				"z": 1.2079510465,
				"element": "H" 
			},
			{
				"x": 1.0806502064,
				"y": -0.4889101284,
				"z": 4.2036054778,
				"element": "H" 
			},
			{
				"x": -0.7172543737,
				"y": -2.1723603799,
				"z": 4.2728184497,
				"element": "H" 
			},
			{
				"x": -1.5167285966,
				"y": -3.2475812778,
				"z": 2.1606826247,
				"element": "H" 
			},
			{
				"x": -0.4883009622,
				"y": -2.5746817212,
				"z": 0.0048801728,
				"element": "H" 
			},
			{
				"x": 0.1221005895,
				"y": 3.1037125571,
				"z": -1.623159732,
				"element": "H" 
			},
			{
				"x": 1.8207598132,
				"y": 3.6163172742,
				"z": -1.7521074151,
				"element": "H" 
			},
			{
				"x": 1.1020623751,
				"y": 2.5654871871,
				"z": -2.9923244998,
				"element": "H" 
			}
		],
		 "valence_orbital": [ 
			{
				"type": "occ",
				"energy": -0.29565,
				"method": "rhf"
			},
			{
				"type": "occ",
				"energy": -0.2564,
				"method": "rhf"
			},
			{
				"type": "occ",
				"energy": -0.24604,
				"method": "rhf"
			},
			{
				"type": "occ",
				"energy": -0.23477,
				"method": "rhf"
			},
			{
				"type": "occ",
				"energy": -0.18567,
				"method": "rhf"
			},
			{
				"type": "unocc",
				"energy": 0.0054,
				"method": "rhf"
			},
			{
				"type": "unocc",
				"energy": 0.01911,
				"method": "rhf"
			},
			{
				"type": "unocc",
				"energy": 0.02802,
				"method": "rhf"
			},
			{
				"type": "unocc",
				"energy": 0.07921,
				"method": "rhf"
			},
			{
				"type": "unocc",
				"energy": 0.08933,
				"method": "rhf"
			}
		],
		"cosmo_sigma_profile": { 
			"-0.025": 0.0,
			"-0.024": 0.0,
			"-0.023": 0.0,
			"-0.022": 0.0,
			"-0.021": 0.0,
			"-0.02": 0.0,
			"-0.019": 0.0,
			"-0.018": 0.0,
			"-0.017": 0.0,
			"-0.016": 0.0,
			"-0.015": 0.0,
			"-0.014": 0.0,
			"-0.013": 0.0,
			"-0.012": 0.759457126246,
			"-0.011": 1.25297332706,
			"-0.01": 1.55456404589,
			"-0.009": 0.819514969052,
			"-0.008": 1.40635326849,
			"-0.007": 2.55083312782,
			"-0.006": 10.8227772048,
			"-0.005": 19.3034585454,
			"-0.004": 21.3445596479,
			"-0.003": 25.9737458368,
			"-0.002": 23.5861721278,
			"-0.001": 21.2136638476,
			"0.0": 19.6886994884,
			"0.001": 17.6360056077,
			"0.002": 10.9367561209,
			"0.003": 10.7336115353,
			"0.004": 9.96574769877,
			"0.005": 9.19486961835,
			"0.006": 9.66949515806,
			"0.007": 9.02625124244,
			"0.008": 3.92104224228,
			"0.009": 1.78202087101,
			"0.01": 2.21842828932,
			"0.011": 1.76056787,
			"0.012": 1.99619433449,
			"0.013": 2.75532921883,
			"0.014": 1.95107516946,
			"0.015": 0.657496651688,
			"0.016": 0.0,
			"0.017": 0.0,
			"0.018": 0.0,
			"0.019": 0.0,
			"0.02": 0.0,
			"0.021": 0.0,
			"0.022": 0.0,
			"0.023": 0.0,
			"0.024": 0.0,
			"0.025": 0.0
		}
	}
}
