{
	 "smiles": "CC1COC2=CC=CC=C2N1C(=O)C(Cl)Cl", 
	 "Tm": 381.15, 
	 "num_atms": 27, 
	 "gaussian": { 
		 "optdone": 1, 
		 "sigma_profile": "yes", 
		 "theory": "DFT", 
		 "functional": "B3LYP", 
		 "basiset": "6-31G**", 
		 "properties": { 
			 "R2extent": 5208.1943, 
			 "electric_dipole_moment_norm": 4.02731352268, 
			 "electric_quadrupole_moment_norm": 14.375631935, 
			 "total_energy": -1551.37706757, 
			 "HOMO_LUMO_gap": 0.18441, 
			 "cosmo_polarized_energy": -11.48, 
			 "cosmo_cavitation_energy": 32.93, 
			 "cosmo_dispersion_energy": -23.41, 
			 "cosmo_repulsion_energy": 1.84, 
			 "cosmo_total_nonelectrostatic_energy": 11.36, 
			 "SMD_solvation_energy": 5.55 
		},
		"coords": [
			{
				"x": 0.9856867891,
				"y": 2.6376217569,
				"z": -2.8109356193,
				"element": "C" 
			},
			{
				"x": 0.9415774253,
				"y": 2.4259034274,
				"z": -1.2958905322,
				"element": "C" 
			},
			{
				"x": 2.1016843661,
				"y": 1.5951780228,
				"z": -0.7438142073,
				"element": "C" 
			},
			{
				"x": 2.0771808292,
				"y": 0.2431831029,
				"z": -1.216480791,
				"element": "O" 
			},
			{
				"x": 0.8547848675,
				"y": -0.336418433,
				"z": -1.3905615544,
				"element": "C" 
			},
			{
				"x": 0.8435101285,
				"y": -1.6780368708,
				"z": -1.7835008377,
				"element": "C" 
			},
			{
				"x": -0.3600023969,
				"y": -2.3237970553,
				"z": -2.0490573377,
				"element": "C" 
			},
			{
				"x": -1.5651020102,
				"y": -1.622964404,
				"z": -1.9551977668,
				"element": "C" 
			},
			{
				"x": -1.5589652517,
				"y": -0.2815333335,
				"z": -1.5798661203,
				"element": "C" 
			},
			{
				"x": -0.3605347647,
				"y": 0.3647852178,
				"z": -1.2409148479,
				"element": "C" 
			},
			{
				"x": -0.2942136317,
				"y": 1.7359008639,
				"z": -0.8626847662,
				"element": "N" 
			},
			{
				"x": -1.1410560606,
				"y": 2.4311811028,
				"z": -0.0202592526,
				"element": "C" 
			},
			{
				"x": -1.0494574076,
				"y": 3.633729582,
				"z": 0.1544919315,
				"element": "O" 
			},
			{
				"x": -2.1806222611,
				"y": 1.6080632551,
				"z": 0.7702616638,
				"element": "C" 
			},
			{
				"x": -1.9792205079,
				"y": 1.9491798881,
				"z": 2.5198142518,
				"element": "Cl" 
			},
			{
				"x": -3.8391429172,
				"y": 2.0258871392,
				"z": 0.2053441448,
				"element": "Cl" 
			},
			{
				"x": 0.1274155298,
				"y": 3.2337894119,
				"z": -3.1311811193,
				"element": "H" 
			},
			{
				"x": 0.9744316257,
				"y": 1.690982403,
				"z": -3.3575045643,
				"element": "H" 
			},
			{
				"x": 1.8983803134,
				"y": 3.176360859,
				"z": -3.0842141249,
				"element": "H" 
			},
			{
				"x": 0.9386426248,
				"y": 3.3934505401,
				"z": -0.792209886,
				"element": "H" 
			},
			{
				"x": 2.0632029396,
				"y": 1.59513921,
				"z": 0.352981158,
				"element": "H" 
			},
			{
				"x": 3.0657682122,
				"y": 2.0018826411,
				"z": -1.0601833841,
				"element": "H" 
			},
			{
				"x": 1.7965275778,
				"y": -2.1882429279,
				"z": -1.876311765,
				"element": "H" 
			},
			{
				"x": -0.354666358,
				"y": -3.3676286609,
				"z": -2.3470669348,
				"element": "H" 
			},
			{
				"x": -2.5056468273,
				"y": -2.1076381056,
				"z": -2.1956075114,
				"element": "H" 
			},
			{
				"x": -2.4872203031,
				"y": 0.280045561,
				"z": -1.5666403826,
				"element": "H" 
			},
			{
				"x": -2.0709425307,
				"y": 0.5353958061,
				"z": 0.6546901557,
				"element": "H" 
			}
		],
		 "valence_orbital": [ 
			{
				"type": "occ",
				"energy": -0.30996,
				"method": "rhf"
			},
			{
				"type": "occ",
				"energy": -0.30183,
				"method": "rhf"
			},
			{
				"type": "occ",
				"energy": -0.27646,
				"method": "rhf"
			},
			{
				"type": "occ",
				"energy": -0.24904,
				"method": "rhf"
			},
			{
				"type": "occ",
				"energy": -0.22709,
				"method": "rhf"
			},
			{
				"type": "unocc",
				"energy": -0.04268,
				"method": "rhf"
			},
			{
				"type": "unocc",
				"energy": -0.02026,
				"method": "rhf"
			},
			{
				"type": "unocc",
				"energy": -0.01266,
				"method": "rhf"
			},
			{
				"type": "unocc",
				"energy": -0.00026,
				"method": "rhf"
			},
			{
				"type": "unocc",
				"energy": 0.06949,
				"method": "rhf"
			}
		],
		"cosmo_sigma_profile": { 
			"-0.025": 0.0,
			"-0.024": 0.0,
			"-0.023": 0.0,
			"-0.022": 0.0,
			"-0.021": 0.0,
			"-0.02": 0.0,
			"-0.019": 0.0,
			"-0.018": 0.0,
			"-0.017": 0.0,
			"-0.016": 0.0,
			"-0.015": 0.0,
			"-0.014": 0.0,
			"-0.013": 0.0,
			"-0.012": 0.0,
			"-0.011": 0.0336718428726,
			"-0.01": 0.761114478791,
			"-0.009": 1.586671538,
			"-0.008": 1.83462851597,
			"-0.007": 7.16294240008,
			"-0.006": 20.1938710153,
			"-0.005": 18.6630439632,
			"-0.004": 20.7533546241,
			"-0.003": 18.2026844903,
			"-0.002": 20.2287183178,
			"-0.001": 20.0583781436,
			"0.0": 19.4037531317,
			"0.001": 16.5396894988,
			"0.002": 18.3465669732,
			"0.003": 22.632357271,
			"0.004": 24.7926207054,
			"0.005": 10.1962075491,
			"0.006": 4.46783483673,
			"0.007": 3.09219535268,
			"0.008": 3.29965432178,
			"0.009": 3.04697888908,
			"0.01": 3.49021049602,
			"0.011": 3.24447302947,
			"0.012": 3.88543503713,
			"0.013": 0.578982918917,
			"0.014": 0.0,
			"0.015": 0.0,
			"0.016": 0.0,
			"0.017": 0.0,
			"0.018": 0.0,
			"0.019": 0.0,
			"0.02": 0.0,
			"0.021": 0.0,
			"0.022": 0.0,
			"0.023": 0.0,
			"0.024": 0.0,
			"0.025": 0.0
		}
	}
}
