{
	 "smiles": "NC1=C(Cl)C=C(C=C1Br)[N+]([O-])=O", 
	 "Tm": 448.15, 
	 "num_atms": 16, 
	 "gaussian": { 
		 "optdone": 1, 
		 "sigma_profile": "yes", 
		 "theory": "DFT", 
		 "functional": "B3LYP", 
		 "basiset": "6-31G**", 
		 "properties": { 
			 "R2extent": 5107.0731, 
			 "electric_dipole_moment_norm": 5.63643628279, 
			 "electric_quadrupole_moment_norm": 11.6305747631, 
			 "total_energy": -3522.50178307, 
			 "HOMO_LUMO_gap": 0.15398, 
			 "cosmo_polarized_energy": -10.97, 
			 "cosmo_cavitation_energy": 25.13, 
			 "cosmo_dispersion_energy": -19.37, 
			 "cosmo_repulsion_energy": 1.54, 
			 "cosmo_total_nonelectrostatic_energy": 7.3, 
			 "SMD_solvation_energy": 5.18 
		},
		"coords": [
			{
				"x": -2.2095011874,
				"y": -1.0506630351,
				"z": 1.3689101646,
				"element": "N" 
			},
			{
				"x": -1.1766064377,
				"y": -1.4481495492,
				"z": 0.584996849,
				"element": "C" 
			},
			{
				"x": -1.2911385433,
				"y": -1.5021239722,
				"z": -0.8293882509,
				"element": "C" 
			},
			{
				"x": -2.8088108213,
				"y": -1.0032308386,
				"z": -1.5621542847,
				"element": "Cl" 
			},
			{
				"x": -0.2583473262,
				"y": -1.9286478952,
				"z": -1.6432094164,
				"element": "C" 
			},
			{
				"x": 0.9426781278,
				"y": -2.3190426201,
				"z": -1.0518995923,
				"element": "C" 
			},
			{
				"x": 1.1178588252,
				"y": -2.284676692,
				"z": 0.3308949052,
				"element": "C" 
			},
			{
				"x": 0.0710691464,
				"y": -1.8540727941,
				"z": 1.1246992338,
				"element": "C" 
			},
			{
				"x": 0.309017414,
				"y": -1.8000595201,
				"z": 3.0208534507,
				"element": "Br" 
			},
			{
				"x": 2.0405303583,
				"y": -2.7711167208,
				"z": -1.8992261867,
				"element": "N" 
			},
			{
				"x": 1.8525537867,
				"y": -2.7881662113,
				"z": -3.1171826515,
				"element": "O" 
			},
			{
				"x": 3.0887507839,
				"y": -3.1080805866,
				"z": -1.3455579047,
				"element": "O" 
			},
			{
				"x": -3.0311223582,
				"y": -0.6532620411,
				"z": 0.9436284776,
				"element": "H" 
			},
			{
				"x": -2.0530870391,
				"y": -0.9129848337,
				"z": 2.3546524406,
				"element": "H" 
			},
			{
				"x": -0.3664519734,
				"y": -1.9625855067,
				"z": -2.719221826,
				"element": "H" 
			},
			{
				"x": 2.0626072444,
				"y": -2.5910371833,
				"z": 0.7594045918,
				"element": "H" 
			}
		],
		 "valence_orbital": [ 
			{
				"type": "occ",
				"energy": -0.30787,
				"method": "rhf"
			},
			{
				"type": "occ",
				"energy": -0.30657,
				"method": "rhf"
			},
			{
				"type": "occ",
				"energy": -0.28992,
				"method": "rhf"
			},
			{
				"type": "occ",
				"energy": -0.27092,
				"method": "rhf"
			},
			{
				"type": "occ",
				"energy": -0.24104,
				"method": "rhf"
			},
			{
				"type": "unocc",
				"energy": -0.08706,
				"method": "rhf"
			},
			{
				"type": "unocc",
				"energy": -0.04227,
				"method": "rhf"
			},
			{
				"type": "unocc",
				"energy": -0.02834,
				"method": "rhf"
			},
			{
				"type": "unocc",
				"energy": 0.00286,
				"method": "rhf"
			},
			{
				"type": "unocc",
				"energy": 0.02104,
				"method": "rhf"
			}
		],
		"cosmo_sigma_profile": { 
			"-0.025": 0.0,
			"-0.024": 0.0,
			"-0.023": 0.0,
			"-0.022": 0.0,
			"-0.021": 0.0,
			"-0.02": 0.0,
			"-0.019": 0.0,
			"-0.018": 0.0,
			"-0.017": 0.0,
			"-0.016": 0.0,
			"-0.015": 0.108132548311,
			"-0.014": 1.12672173706,
			"-0.013": 2.04517485408,
			"-0.012": 1.62773857301,
			"-0.011": 1.63880889041,
			"-0.01": 2.20610350499,
			"-0.009": 1.93323798989,
			"-0.008": 3.2528906619,
			"-0.007": 3.77616196875,
			"-0.006": 5.08394663409,
			"-0.005": 9.11123003172,
			"-0.004": 8.91093403358,
			"-0.003": 10.8574612348,
			"-0.002": 16.8693377226,
			"-0.001": 26.3424608729,
			"0.0": 26.5462306141,
			"0.001": 15.4569952942,
			"0.002": 13.8063254454,
			"0.003": 16.4296376491,
			"0.004": 9.18376100212,
			"0.005": 2.924434425,
			"0.006": 4.14789235773,
			"0.007": 5.12160580819,
			"0.008": 9.57158562269,
			"0.009": 4.86121024483,
			"0.01": 3.8852006628,
			"0.011": 0.863382378801,
			"0.012": 0.0,
			"0.013": 0.0,
			"0.014": 0.0,
			"0.015": 0.0,
			"0.016": 0.0,
			"0.017": 0.0,
			"0.018": 0.0,
			"0.019": 0.0,
			"0.02": 0.0,
			"0.021": 0.0,
			"0.022": 0.0,
			"0.023": 0.0,
			"0.024": 0.0,
			"0.025": 0.0
		}
	}
}
