{
	 "smiles": "ClC1=NC=NC(=C1)N1CCOCC1", 
	 "Tm": 422.65, 
	 "num_atms": 23, 
	 "gaussian": { 
		 "optdone": 1, 
		 "sigma_profile": "yes", 
		 "theory": "DFT", 
		 "functional": "B3LYP", 
		 "basiset": "6-31G**", 
		 "properties": { 
			 "R2extent": 4367.656, 
			 "electric_dipole_moment_norm": 3.94888814352, 
			 "electric_quadrupole_moment_norm": 19.0715174968, 
			 "total_energy": -1010.52988777, 
			 "HOMO_LUMO_gap": 0.1986, 
			 "cosmo_polarized_energy": -11.19, 
			 "cosmo_cavitation_energy": 27.41, 
			 "cosmo_dispersion_energy": -20.99, 
			 "cosmo_repulsion_energy": 1.67, 
			 "cosmo_total_nonelectrostatic_energy": 8.09, 
			 "SMD_solvation_energy": 1.28 
		},
		"coords": [
			{
				"x": 5.3053325553,
				"y": -1.1579131037,
				"z": 0.4233447963,
				"element": "Cl" 
			},
			{
				"x": 3.7739467834,
				"y": -1.1212254583,
				"z": -0.4443397822,
				"element": "C" 
			},
			{
				"x": 3.7251116125,
				"y": -1.7927939308,
				"z": -1.5880601563,
				"element": "N" 
			},
			{
				"x": 2.5386862934,
				"y": -1.7320903667,
				"z": -2.2067076242,
				"element": "C" 
			},
			{
				"x": 1.4433103886,
				"y": -1.0968832598,
				"z": -1.809623118,
				"element": "N" 
			},
			{
				"x": 1.5179414792,
				"y": -0.4177745773,
				"z": -0.6409358279,
				"element": "C" 
			},
			{
				"x": 2.7229535515,
				"y": -0.4067883655,
				"z": 0.1044806383,
				"element": "C" 
			},
			{
				"x": 0.4035816228,
				"y": 0.2436830045,
				"z": -0.217458442,
				"element": "N" 
			},
			{
				"x": -0.8414741011,
				"y": 0.2383366297,
				"z": -0.9840531494,
				"element": "C" 
			},
			{
				"x": -1.3826927441,
				"y": 1.6631203731,
				"z": -1.1220148496,
				"element": "C" 
			},
			{
				"x": -1.3497957081,
				"y": 2.4069336652,
				"z": 0.1029028769,
				"element": "O" 
			},
			{
				"x": -0.9714809708,
				"y": 1.6477740591,
				"z": 1.2345550848,
				"element": "C" 
			},
			{
				"x": 0.4002769207,
				"y": 1.000875605,
				"z": 1.0352794719,
				"element": "C" 
			},
			{
				"x": 2.4660995143,
				"y": -2.2720454438,
				"z": -3.1491582942,
				"element": "H" 
			},
			{
				"x": 2.8342257543,
				"y": 0.1186770472,
				"z": 1.0416442458,
				"element": "H" 
			},
			{
				"x": -0.63503494,
				"y": -0.1859458867,
				"z": -1.966014084,
				"element": "H" 
			},
			{
				"x": -1.5806299562,
				"y": -0.4114881275,
				"z": -0.4963183624,
				"element": "H" 
			},
			{
				"x": -2.4164199625,
				"y": 1.6215655597,
				"z": -1.493292858,
				"element": "H" 
			},
			{
				"x": -0.7824621411,
				"y": 2.2194869502,
				"z": -1.8519278752,
				"element": "H" 
			},
			{
				"x": -0.9251622542,
				"y": 2.3451124418,
				"z": 2.07517641,
				"element": "H" 
			},
			{
				"x": -1.723989595,
				"y": 0.8832316752,
				"z": 1.4829140137,
				"element": "H" 
			},
			{
				"x": 1.165507885,
				"y": 1.7878749969,
				"z": 0.9978799539,
				"element": "H" 
			},
			{
				"x": 0.6307680122,
				"y": 0.3484765126,
				"z": 1.8906269319,
				"element": "H" 
			}
		],
		 "valence_orbital": [ 
			{
				"type": "occ",
				"energy": -0.30335,
				"method": "rhf"
			},
			{
				"type": "occ",
				"energy": -0.27837,
				"method": "rhf"
			},
			{
				"type": "occ",
				"energy": -0.26502,
				"method": "rhf"
			},
			{
				"type": "occ",
				"energy": -0.26397,
				"method": "rhf"
			},
			{
				"type": "occ",
				"energy": -0.23106,
				"method": "rhf"
			},
			{
				"type": "unocc",
				"energy": -0.03246,
				"method": "rhf"
			},
			{
				"type": "unocc",
				"energy": -0.0162,
				"method": "rhf"
			},
			{
				"type": "unocc",
				"energy": 0.03309,
				"method": "rhf"
			},
			{
				"type": "unocc",
				"energy": 0.07318,
				"method": "rhf"
			},
			{
				"type": "unocc",
				"energy": 0.09837,
				"method": "rhf"
			}
		],
		"cosmo_sigma_profile": { 
			"-0.025": 0.0,
			"-0.024": 0.0,
			"-0.023": 0.0,
			"-0.022": 0.0,
			"-0.021": 0.0,
			"-0.02": 0.0,
			"-0.019": 0.0,
			"-0.018": 0.0,
			"-0.017": 0.0,
			"-0.016": 0.0,
			"-0.015": 0.0,
			"-0.014": 0.0,
			"-0.013": 0.0,
			"-0.012": 0.0,
			"-0.011": 0.0,
			"-0.01": 0.0,
			"-0.009": 0.092709464371,
			"-0.008": 1.9713108137,
			"-0.007": 4.61598409514,
			"-0.006": 13.4750552544,
			"-0.005": 26.0936689223,
			"-0.004": 22.6823120178,
			"-0.003": 14.806254678,
			"-0.002": 13.8389505661,
			"-0.001": 14.5631246896,
			"0.0": 21.5156291988,
			"0.001": 14.214137701,
			"0.002": 10.3219496181,
			"0.003": 10.9310095117,
			"0.004": 12.9955710509,
			"0.005": 7.82977885407,
			"0.006": 4.40450550472,
			"0.007": 5.27523870514,
			"0.008": 4.42790344887,
			"0.009": 3.06305022233,
			"0.01": 2.76306277709,
			"0.011": 2.9703455822,
			"0.012": 2.54139129082,
			"0.013": 2.45344925248,
			"0.014": 1.22549295831,
			"0.015": 0.685231379357,
			"0.016": 0.0444692925266,
			"0.017": 0.0,
			"0.018": 0.0,
			"0.019": 0.0,
			"0.02": 0.0,
			"0.021": 0.0,
			"0.022": 0.0,
			"0.023": 0.0,
			"0.024": 0.0,
			"0.025": 0.0
		}
	}
}
