{
	 "smiles": "CS(=O)(=O)NC1=CC(Cl)=C(N)C=C1", 
	 "Tm": 403.15, 
	 "num_atms": 22, 
	 "gaussian": { 
		 "optdone": 1, 
		 "sigma_profile": "yes", 
		 "theory": "DFT", 
		 "functional": "B3LYP", 
		 "basiset": "6-31G**", 
		 "properties": { 
			 "R2extent": 5130.8261, 
			 "electric_dipole_moment_norm": 5.6979970007, 
			 "electric_quadrupole_moment_norm": 15.0570906018, 
			 "total_energy": -1390.43694849, 
			 "HOMO_LUMO_gap": 0.19954, 
			 "cosmo_polarized_energy": -18.84, 
			 "cosmo_cavitation_energy": 29.23, 
			 "cosmo_dispersion_energy": -21.76, 
			 "cosmo_repulsion_energy": 1.69, 
			 "cosmo_total_nonelectrostatic_energy": 9.16, 
			 "SMD_solvation_energy": 4.31 
		},
		"coords": [
			{
				"x": 0.2917264637,
				"y": -1.999754312,
				"z": 2.6993613701,
				"element": "C" 
			},
			{
				"x": 0.9572447524,
				"y": -0.4739053219,
				"z": 3.3797012515,
				"element": "S" 
			},
			{
				"x": 1.8803726442,
				"y": -0.7867917487,
				"z": 4.4743924068,
				"element": "O" 
			},
			{
				"x": -0.1685313462,
				"y": 0.4430252608,
				"z": 3.5826781808,
				"element": "O" 
			},
			{
				"x": 1.967843967,
				"y": 0.049881514,
				"z": 2.1067004382,
				"element": "N" 
			},
			{
				"x": 1.4178706045,
				"y": 0.8367446876,
				"z": 1.0372716306,
				"element": "C" 
			},
			{
				"x": 0.9752251918,
				"y": 2.1508691177,
				"z": 1.2304793276,
				"element": "C" 
			},
			{
				"x": 0.4754188976,
				"y": 2.8768976182,
				"z": 0.1580057145,
				"element": "C" 
			},
			{
				"x": -0.0771731251,
				"y": 4.5293142546,
				"z": 0.4265912053,
				"element": "Cl" 
			},
			{
				"x": 0.3851926236,
				"y": 2.330887478,
				"z": -1.140648761,
				"element": "C" 
			},
			{
				"x": -0.0635541462,
				"y": 3.0744472496,
				"z": -2.2136627476,
				"element": "N" 
			},
			{
				"x": 0.8262752736,
				"y": 1.0037734339,
				"z": -1.3061749323,
				"element": "C" 
			},
			{
				"x": 1.334146605,
				"y": 0.2724434843,
				"z": -0.2398630794,
				"element": "C" 
			},
			{
				"x": 1.1127880301,
				"y": -2.6969134672,
				"z": 2.5346913471,
				"element": "H" 
			},
			{
				"x": -0.2232635355,
				"y": -1.7672547577,
				"z": 1.7660983301,
				"element": "H" 
			},
			{
				"x": -0.4149475771,
				"y": -2.392927326,
				"z": 3.4319886737,
				"element": "H" 
			},
			{
				"x": 2.8044886096,
				"y": 0.4280953166,
				"z": 2.546048144,
				"element": "H" 
			},
			{
				"x": 1.0013453922,
				"y": 2.5972565428,
				"z": 2.2173755372,
				"element": "H" 
			},
			{
				"x": -0.6110776561,
				"y": 3.8945385452,
				"z": -1.9963581179,
				"element": "H" 
			},
			{
				"x": -0.3930677907,
				"y": 2.5544916946,
				"z": -3.0129076089,
				"element": "H" 
			},
			{
				"x": 0.7776070321,
				"y": 0.5574444779,
				"z": -2.2957406008,
				"element": "H" 
			},
			{
				"x": 1.6856690895,
				"y": -0.7432637424,
				"z": -0.3903277095,
				"element": "H" 
			}
		],
		 "valence_orbital": [ 
			{
				"type": "occ",
				"energy": -0.30872,
				"method": "rhf"
			},
			{
				"type": "occ",
				"energy": -0.29715,
				"method": "rhf"
			},
			{
				"type": "occ",
				"energy": -0.27705,
				"method": "rhf"
			},
			{
				"type": "occ",
				"energy": -0.2575,
				"method": "rhf"
			},
			{
				"type": "occ",
				"energy": -0.21939,
				"method": "rhf"
			},
			{
				"type": "unocc",
				"energy": -0.01985,
				"method": "rhf"
			},
			{
				"type": "unocc",
				"energy": -0.0118,
				"method": "rhf"
			},
			{
				"type": "unocc",
				"energy": 0.02344,
				"method": "rhf"
			},
			{
				"type": "unocc",
				"energy": 0.06442,
				"method": "rhf"
			},
			{
				"type": "unocc",
				"energy": 0.0744,
				"method": "rhf"
			}
		],
		"cosmo_sigma_profile": { 
			"-0.025": 0.0,
			"-0.024": 0.0,
			"-0.023": 0.0,
			"-0.022": 0.0,
			"-0.021": 0.0,
			"-0.02": 0.0,
			"-0.019": 0.0,
			"-0.018": 0.0,
			"-0.017": 0.0,
			"-0.016": 0.0,
			"-0.015": 0.308494039579,
			"-0.014": 1.35794766526,
			"-0.013": 2.52572834444,
			"-0.012": 3.42868408478,
			"-0.011": 2.58762614217,
			"-0.01": 4.1306115277,
			"-0.009": 5.73560134658,
			"-0.008": 7.84197597055,
			"-0.007": 9.6248526171,
			"-0.006": 13.7347796196,
			"-0.005": 13.9575375161,
			"-0.004": 14.4833153142,
			"-0.003": 10.3545522802,
			"-0.002": 8.4329343206,
			"-0.001": 11.1753582687,
			"0.0": 10.3359746433,
			"0.001": 12.4009490844,
			"0.002": 15.262426146,
			"0.003": 18.7899358902,
			"0.004": 17.3388545066,
			"0.005": 9.471805137,
			"0.006": 3.72287731222,
			"0.007": 3.73420079383,
			"0.008": 4.61199391217,
			"0.009": 4.73743532165,
			"0.01": 5.70416629973,
			"0.011": 12.1766545246,
			"0.012": 6.49549759033,
			"0.013": 0.0657944124498,
			"0.014": 0.0,
			"0.015": 0.0,
			"0.016": 0.0,
			"0.017": 0.0,
			"0.018": 0.0,
			"0.019": 0.0,
			"0.02": 0.0,
			"0.021": 0.0,
			"0.022": 0.0,
			"0.023": 0.0,
			"0.024": 0.0,
			"0.025": 0.0
		}
	}
}
