{
	 "smiles": "C1=CC2=C(N=C1)C1=C(C=C2)N=CC=C1", 
	 "Tm": 352.15, 
	 "num_atms": 22, 
	 "gaussian": { 
		 "optdone": 1, 
		 "sigma_profile": "yes", 
		 "theory": "DFT", 
		 "functional": "B3LYP", 
		 "basiset": "6-31G**", 
		 "properties": { 
			 "R2extent": 2705.8905, 
			 "electric_dipole_moment_norm": 2.00831149725, 
			 "electric_quadrupole_moment_norm": 11.7388885918, 
			 "total_energy": -571.618482685, 
			 "HOMO_LUMO_gap": 0.1771, 
			 "cosmo_polarized_energy": -8.4, 
			 "cosmo_cavitation_energy": 25.87, 
			 "cosmo_dispersion_energy": -19.68, 
			 "cosmo_repulsion_energy": 1.49, 
			 "cosmo_total_nonelectrostatic_energy": 7.69, 
			 "SMD_solvation_energy": 1.58 
		},
		"coords": [
			{
				"x": -1.9190528717,
				"y": -2.5418906432,
				"z": -1.8344060116,
				"element": "C" 
			},
			{
				"x": -2.0374439786,
				"y": -1.2656675032,
				"z": -2.3472764073,
				"element": "C" 
			},
			{
				"x": -1.2298150594,
				"y": -0.2302431983,
				"z": -1.8290923566,
				"element": "C" 
			},
			{
				"x": -0.3203285276,
				"y": -0.5655146892,
				"z": -0.7862495465,
				"element": "C" 
			},
			{
				"x": -0.211886351,
				"y": -1.8211598152,
				"z": -0.2899585525,
				"element": "N" 
			},
			{
				"x": -0.9864866473,
				"y": -2.7658001783,
				"z": -0.8017652365,
				"element": "C" 
			},
			{
				"x": 0.5259095132,
				"y": 0.4719826431,
				"z": -0.228800032,
				"element": "C" 
			},
			{
				"x": 0.4323184012,
				"y": 1.798605321,
				"z": -0.7314355666,
				"element": "C" 
			},
			{
				"x": -0.4995678784,
				"y": 2.0938956612,
				"z": -1.7851985971,
				"element": "C" 
			},
			{
				"x": -1.2949190206,
				"y": 1.1212056491,
				"z": -2.3098828485,
				"element": "C" 
			},
			{
				"x": 1.1936048559,
				"y": 2.8187969686,
				"z": -0.2565299147,
				"element": "N" 
			},
			{
				"x": 2.0514640101,
				"y": 2.544678828,
				"z": 0.7141742465,
				"element": "C" 
			},
			{
				"x": 2.2204648265,
				"y": 1.264228062,
				"z": 1.280649172,
				"element": "C" 
			},
			{
				"x": 1.4511379267,
				"y": 0.2211885053,
				"z": 0.8044580894,
				"element": "C" 
			},
			{
				"x": -2.5241989852,
				"y": -3.361029657,
				"z": -2.2094095775,
				"element": "H" 
			},
			{
				"x": -2.7431886149,
				"y": -1.0452527506,
				"z": -3.1443553518,
				"element": "H" 
			},
			{
				"x": -0.8734967338,
				"y": -3.7634800262,
				"z": -0.3796752331,
				"element": "H" 
			},
			{
				"x": -0.5372714815,
				"y": 3.1192414721,
				"z": -2.137907126,
				"element": "H" 
			},
			{
				"x": -1.997362852,
				"y": 1.3520922121,
				"z": -3.1067503619,
				"element": "H" 
			},
			{
				"x": 2.6495091518,
				"y": 3.3800253765,
				"z": 1.0768476548,
				"element": "H" 
			},
			{
				"x": 2.9444413545,
				"y": 1.113384918,
				"z": 2.0752580077,
				"element": "H" 
			},
			{
				"x": 1.533368962,
				"y": -0.7860871559,
				"z": 1.1977055498,
				"element": "H" 
			}
		],
		 "valence_orbital": [ 
			{
				"type": "occ",
				"energy": -0.28879,
				"method": "rhf"
			},
			{
				"type": "occ",
				"energy": -0.25999,
				"method": "rhf"
			},
			{
				"type": "occ",
				"energy": -0.25421,
				"method": "rhf"
			},
			{
				"type": "occ",
				"energy": -0.24367,
				"method": "rhf"
			},
			{
				"type": "occ",
				"energy": -0.23235,
				"method": "rhf"
			},
			{
				"type": "unocc",
				"energy": -0.05525,
				"method": "rhf"
			},
			{
				"type": "unocc",
				"energy": -0.04987,
				"method": "rhf"
			},
			{
				"type": "unocc",
				"energy": -0.00812,
				"method": "rhf"
			},
			{
				"type": "unocc",
				"energy": 0.01904,
				"method": "rhf"
			},
			{
				"type": "unocc",
				"energy": 0.06752,
				"method": "rhf"
			}
		],
		"cosmo_sigma_profile": { 
			"-0.025": 0.0,
			"-0.024": 0.0,
			"-0.023": 0.0,
			"-0.022": 0.0,
			"-0.021": 0.0,
			"-0.02": 0.0,
			"-0.019": 0.0,
			"-0.018": 0.0,
			"-0.017": 0.0,
			"-0.016": 0.0,
			"-0.015": 0.0,
			"-0.014": 0.0,
			"-0.013": 0.0,
			"-0.012": 0.0,
			"-0.011": 0.0,
			"-0.01": 0.0,
			"-0.009": 0.0,
			"-0.008": 0.885006395139,
			"-0.007": 9.94369501042,
			"-0.006": 16.5780197946,
			"-0.005": 15.7107571764,
			"-0.004": 12.7693770532,
			"-0.003": 12.1514101358,
			"-0.002": 9.40175365827,
			"-0.001": 10.1388056926,
			"0.0": 14.9668950342,
			"0.001": 29.5201662004,
			"0.002": 32.2898735169,
			"0.003": 14.7757163117,
			"0.004": 6.48700028524,
			"0.005": 4.29382733677,
			"0.006": 2.6367820974,
			"0.007": 2.25212345652,
			"0.008": 3.99042673685,
			"0.009": 2.30565177825,
			"0.01": 1.4899302719,
			"0.011": 1.72326611654,
			"0.012": 2.17194903385,
			"0.013": 0.791410091355,
			"0.014": 0.806168759118,
			"0.015": 0.679489820432,
			"0.016": 0.63541023425,
			"0.017": 0.00178536099063,
			"0.018": 0.0,
			"0.019": 0.0,
			"0.02": 0.0,
			"0.021": 0.0,
			"0.022": 0.0,
			"0.023": 0.0,
			"0.024": 0.0,
			"0.025": 0.0
		}
	}
}
