{
	 "smiles": "NC1=NN=C(O1)C1=CC=CC=C1", 
	 "Tm": 517.15, 
	 "num_atms": 19, 
	 "gaussian": { 
		 "optdone": 1, 
		 "sigma_profile": "yes", 
		 "theory": "DFT", 
		 "functional": "B3LYP", 
		 "basiset": "6-31G**", 
		 "properties": { 
			 "R2extent": 2864.3588, 
			 "electric_dipole_moment_norm": 3.84422174959, 
			 "electric_quadrupole_moment_norm": 21.0022341833, 
			 "total_energy": -548.525227666, 
			 "HOMO_LUMO_gap": 0.17699, 
			 "cosmo_polarized_energy": -15.52, 
			 "cosmo_cavitation_energy": 24.08, 
			 "cosmo_dispersion_energy": -18.16, 
			 "cosmo_repulsion_energy": 1.44, 
			 "cosmo_total_nonelectrostatic_energy": 7.37, 
			 "SMD_solvation_energy": 2.68 
		},
		"coords": [
			{
				"x": 3.0823658906,
				"y": 2.3446823974,
				"z": -2.0965990699,
				"element": "N" 
			},
			{
				"x": 2.523864145,
				"y": 2.0710371419,
				"z": -0.8785072349,
				"element": "C" 
			},
			{
				"x": 3.004754578,
				"y": 2.3126945525,
				"z": 0.3060974945,
				"element": "N" 
			},
			{
				"x": 2.0025675804,
				"y": 1.923565614,
				"z": 1.1988473031,
				"element": "N" 
			},
			{
				"x": 1.0121961793,
				"y": 1.4704610256,
				"z": 0.4969389822,
				"element": "C" 
			},
			{
				"x": 1.2766734638,
				"y": 1.5374848335,
				"z": -0.8605417072,
				"element": "O" 
			},
			{
				"x": -0.2635126147,
				"y": 0.9287086828,
				"z": 0.9453764625,
				"element": "C" 
			},
			{
				"x": -0.5248462455,
				"y": 0.8467571587,
				"z": 2.3240250673,
				"element": "C" 
			},
			{
				"x": -1.7375785128,
				"y": 0.3330718648,
				"z": 2.7719166624,
				"element": "C" 
			},
			{
				"x": -2.7006015854,
				"y": -0.1040878923,
				"z": 1.8568856593,
				"element": "C" 
			},
			{
				"x": -2.4432877008,
				"y": -0.0236866396,
				"z": 0.4871399382,
				"element": "C" 
			},
			{
				"x": -1.2313949959,
				"y": 0.4901884668,
				"z": 0.02855272,
				"element": "C" 
			},
			{
				"x": 2.8324530266,
				"y": 1.7118826705,
				"z": -2.8439429162,
				"element": "H" 
			},
			{
				"x": 4.0700397446,
				"y": 2.5518805692,
				"z": -2.0418586875,
				"element": "H" 
			},
			{
				"x": 0.2306110566,
				"y": 1.1891207483,
				"z": 3.0231311956,
				"element": "H" 
			},
			{
				"x": -1.9334925813,
				"y": 0.2726772618,
				"z": 3.8384075152,
				"element": "H" 
			},
			{
				"x": -3.6460492939,
				"y": -0.5045975036,
				"z": 2.2107829507,
				"element": "H" 
			},
			{
				"x": -3.187933723,
				"y": -0.3609454894,
				"z": -0.2279043521,
				"element": "H" 
			},
			{
				"x": -1.0321284117,
				"y": 0.5546045371,
				"z": -1.0358479833,
				"element": "H" 
			}
		],
		 "valence_orbital": [ 
			{
				"type": "occ",
				"energy": -0.31282,
				"method": "rhf"
			},
			{
				"type": "occ",
				"energy": -0.27684,
				"method": "rhf"
			},
			{
				"type": "occ",
				"energy": -0.26836,
				"method": "rhf"
			},
			{
				"type": "occ",
				"energy": -0.25788,
				"method": "rhf"
			},
			{
				"type": "occ",
				"energy": -0.21782,
				"method": "rhf"
			},
			{
				"type": "unocc",
				"energy": -0.04083,
				"method": "rhf"
			},
			{
				"type": "unocc",
				"energy": -0.00706,
				"method": "rhf"
			},
			{
				"type": "unocc",
				"energy": 0.03818,
				"method": "rhf"
			},
			{
				"type": "unocc",
				"energy": 0.0642,
				"method": "rhf"
			},
			{
				"type": "unocc",
				"energy": 0.0713,
				"method": "rhf"
			}
		],
		"cosmo_sigma_profile": { 
			"-0.025": 0.0,
			"-0.024": 0.0,
			"-0.023": 0.0,
			"-0.022": 0.0,
			"-0.021": 0.0,
			"-0.02": 0.0,
			"-0.019": 0.0,
			"-0.018": 0.0,
			"-0.017": 0.0,
			"-0.016": 0.0810007707125,
			"-0.015": 2.20538382439,
			"-0.014": 2.73276315828,
			"-0.013": 2.52560963789,
			"-0.012": 2.53336398626,
			"-0.011": 2.45196325086,
			"-0.01": 2.06919766828,
			"-0.009": 1.63358504178,
			"-0.008": 1.56413502021,
			"-0.007": 3.38311047652,
			"-0.006": 9.61969022842,
			"-0.005": 11.0693483846,
			"-0.004": 14.3104798924,
			"-0.003": 11.9594003427,
			"-0.002": 10.706263903,
			"-0.001": 12.1439942618,
			"0.0": 12.2358011106,
			"0.001": 13.2973451859,
			"0.002": 14.230466097,
			"0.003": 14.0013724812,
			"0.004": 14.7322543604,
			"0.005": 6.1155144881,
			"0.006": 2.80098256927,
			"0.007": 2.32223155835,
			"0.008": 2.48682536186,
			"0.009": 2.60905295504,
			"0.01": 3.02093007129,
			"0.011": 3.04576084557,
			"0.012": 3.41517294162,
			"0.013": 2.76103273247,
			"0.014": 2.6746457809,
			"0.015": 1.82165748099,
			"0.016": 0.998921805808,
			"0.017": 0.00466356246438,
			"0.018": 0.0,
			"0.019": 0.0,
			"0.02": 0.0,
			"0.021": 0.0,
			"0.022": 0.0,
			"0.023": 0.0,
			"0.024": 0.0,
			"0.025": 0.0
		}
	}
}
