{
	 "smiles": "COC(=O)C1=CC(=CC(Br)=C1)S(Cl)(=O)=O", 
	 "Tm": 333.15, 
	 "num_atms": 21, 
	 "gaussian": { 
		 "optdone": 1, 
		 "sigma_profile": "yes", 
		 "theory": "DFT", 
		 "functional": "B3LYP", 
		 "basiset": "6-31G**", 
		 "properties": { 
			 "R2extent": 7920.9834, 
			 "electric_dipole_moment_norm": 5.82978636144, 
			 "electric_quadrupole_moment_norm": 7.94009342955, 
			 "total_energy": -4039.08291658, 
			 "HOMO_LUMO_gap": 0.17853, 
			 "cosmo_polarized_energy": -11.46, 
			 "cosmo_cavitation_energy": 32.59, 
			 "cosmo_dispersion_energy": -24.23, 
			 "cosmo_repulsion_energy": 1.88, 
			 "cosmo_total_nonelectrostatic_energy": 10.24, 
			 "SMD_solvation_energy": 4.76 
		},
		"coords": [
			{
				"x": -1.633440781,
				"y": 0.192832687,
				"z": -3.1653066869,
				"element": "C" 
			},
			{
				"x": -0.7821096771,
				"y": 0.573023167,
				"z": -2.0677426751,
				"element": "O" 
			},
			{
				"x": -0.5823406751,
				"y": -0.3793277875,
				"z": -1.1376584621,
				"element": "C" 
			},
			{
				"x": -1.0679082391,
				"y": -1.4900966124,
				"z": -1.186001129,
				"element": "O" 
			},
			{
				"x": 0.3118538667,
				"y": 0.0885474684,
				"z": -0.0312863264,
				"element": "C" 
			},
			{
				"x": 0.5929123543,
				"y": -0.8165567473,
				"z": 0.9973353725,
				"element": "C" 
			},
			{
				"x": 1.4191144537,
				"y": -0.3965814476,
				"z": 2.0336782607,
				"element": "C" 
			},
			{
				"x": 1.9710654285,
				"y": 0.8841793786,
				"z": 2.0916230847,
				"element": "C" 
			},
			{
				"x": 1.6734829748,
				"y": 1.7644121151,
				"z": 1.0533680585,
				"element": "C" 
			},
			{
				"x": 2.3975265026,
				"y": 3.5246825505,
				"z": 1.0886435182,
				"element": "Br" 
			},
			{
				"x": 0.8523346299,
				"y": 1.3800645459,
				"z": -0.0062777862,
				"element": "C" 
			},
			{
				"x": 1.7760395294,
				"y": -1.5342336217,
				"z": 3.3730905208,
				"element": "S" 
			},
			{
				"x": 3.5147521697,
				"y": -2.5077426774,
				"z": 2.6261968703,
				"element": "Cl" 
			},
			{
				"x": 2.2009821959,
				"y": -0.7730123887,
				"z": 4.5405013812,
				"element": "O" 
			},
			{
				"x": 0.7302684737,
				"y": -2.545503063,
				"z": 3.4333613349,
				"element": "O" 
			},
			{
				"x": -1.2067905383,
				"y": -0.6586394163,
				"z": -3.7002731732,
				"element": "H" 
			},
			{
				"x": -2.6266869194,
				"y": -0.0778289084,
				"z": -2.8000510412,
				"element": "H" 
			},
			{
				"x": -1.6849720531,
				"y": 1.0682614073,
				"z": -3.8114493995,
				"element": "H" 
			},
			{
				"x": 0.1632926032,
				"y": -1.8112613782,
				"z": 0.974138037,
				"element": "H" 
			},
			{
				"x": 2.6000759788,
				"y": 1.1803861451,
				"z": 2.9221207943,
				"element": "H" 
			},
			{
				"x": 0.6290477219,
				"y": 2.0739945838,
				"z": -0.8063105535,
				"element": "H" 
			}
		],
		 "valence_orbital": [ 
			{
				"type": "occ",
				"energy": -0.32043,
				"method": "rhf"
			},
			{
				"type": "occ",
				"energy": -0.31462,
				"method": "rhf"
			},
			{
				"type": "occ",
				"energy": -0.30524,
				"method": "rhf"
			},
			{
				"type": "occ",
				"energy": -0.30046,
				"method": "rhf"
			},
			{
				"type": "occ",
				"energy": -0.27865,
				"method": "rhf"
			},
			{
				"type": "unocc",
				"energy": -0.10012,
				"method": "rhf"
			},
			{
				"type": "unocc",
				"energy": -0.08121,
				"method": "rhf"
			},
			{
				"type": "unocc",
				"energy": -0.05697,
				"method": "rhf"
			},
			{
				"type": "unocc",
				"energy": -0.0208,
				"method": "rhf"
			},
			{
				"type": "unocc",
				"energy": 0.01214,
				"method": "rhf"
			}
		],
		"cosmo_sigma_profile": { 
			"-0.025": 0.0,
			"-0.024": 0.0,
			"-0.023": 0.0,
			"-0.022": 0.0,
			"-0.021": 0.0,
			"-0.02": 0.0,
			"-0.019": 0.0,
			"-0.018": 0.0,
			"-0.017": 0.0,
			"-0.016": 0.0,
			"-0.015": 0.0,
			"-0.014": 0.0,
			"-0.013": 0.0,
			"-0.012": 0.0,
			"-0.011": 0.0,
			"-0.01": 0.0947407189829,
			"-0.009": 1.77977153383,
			"-0.008": 3.19259198368,
			"-0.007": 7.52489129665,
			"-0.006": 13.0687118366,
			"-0.005": 16.0021860749,
			"-0.004": 21.2296390857,
			"-0.003": 22.6450347172,
			"-0.002": 30.9925198791,
			"-0.001": 22.6801511393,
			"0.0": 15.8639779725,
			"0.001": 15.1376932562,
			"0.002": 20.0651056024,
			"0.003": 28.023195937,
			"0.004": 9.43972771914,
			"0.005": 4.83444459662,
			"0.006": 5.29682461832,
			"0.007": 9.69696487696,
			"0.008": 10.1730893671,
			"0.009": 3.18758870918,
			"0.01": 2.61351314613,
			"0.011": 4.10259086451,
			"0.012": 0.443861589936,
			"0.013": 0.0,
			"0.014": 0.0,
			"0.015": 0.0,
			"0.016": 0.0,
			"0.017": 0.0,
			"0.018": 0.0,
			"0.019": 0.0,
			"0.02": 0.0,
			"0.021": 0.0,
			"0.022": 0.0,
			"0.023": 0.0,
			"0.024": 0.0,
			"0.025": 0.0
		}
	}
}
