{
	 "smiles": "NC1=NC(Cl)=NC(N)=N1", 
	 "Tm": 593.15, 
	 "num_atms": 13, 
	 "gaussian": { 
		 "optdone": 1, 
		 "sigma_profile": "yes", 
		 "theory": "DFT", 
		 "functional": "B3LYP", 
		 "basiset": "6-31G**", 
		 "properties": { 
			 "R2extent": 1812.604, 
			 "electric_dipole_moment_norm": 4.26194514746, 
			 "electric_quadrupole_moment_norm": 9.53641361467, 
			 "total_energy": -850.718544168, 
			 "HOMO_LUMO_gap": 0.23082, 
			 "cosmo_polarized_energy": -14.51, 
			 "cosmo_cavitation_energy": 19.78, 
			 "cosmo_dispersion_energy": -15.54, 
			 "cosmo_repulsion_energy": 1.32, 
			 "cosmo_total_nonelectrostatic_energy": 5.57, 
			 "SMD_solvation_energy": -1.17 
		},
		"coords": [
			{
				"x": -0.9837075107,
				"y": -0.6259320332,
				"z": 2.5276098304,
				"element": "N" 
			},
			{
				"x": 0.0250478383,
				"y": -0.1844783959,
				"z": 1.7464916423,
				"element": "C" 
			},
			{
				"x": 0.263966767,
				"y": -0.8915102543,
				"z": 0.6140205655,
				"element": "N" 
			},
			{
				"x": 1.2632979832,
				"y": -0.3980965436,
				"z": -0.0942767986,
				"element": "C" 
			},
			{
				"x": 1.6378665824,
				"y": -1.259323228,
				"z": -1.5809244771,
				"element": "Cl" 
			},
			{
				"x": 2.019897099,
				"y": 0.653610346,
				"z": 0.1612265698,
				"element": "N" 
			},
			{
				"x": 1.6820007634,
				"y": 1.2733971255,
				"z": 1.3192957081,
				"element": "C" 
			},
			{
				"x": 2.4100992278,
				"y": 2.3603720003,
				"z": 1.652416594,
				"element": "N" 
			},
			{
				"x": 0.6978444442,
				"y": 0.9026175952,
				"z": 2.151325063,
				"element": "N" 
			},
			{
				"x": -1.5026830308,
				"y": -1.4400029188,
				"z": 2.2447131924,
				"element": "H" 
			},
			{
				"x": -1.2022516003,
				"y": -0.1376725621,
				"z": 3.3792975681,
				"element": "H" 
			},
			{
				"x": 3.1541215748,
				"y": 2.6574015313,
				"z": 1.0439072854,
				"element": "H" 
			},
			{
				"x": 2.2009998619,
				"y": 2.8567173376,
				"z": 2.5017972568,
				"element": "H" 
			}
		],
		 "valence_orbital": [ 
			{
				"type": "occ",
				"energy": -0.29436,
				"method": "rhf"
			},
			{
				"type": "occ",
				"energy": -0.27057,
				"method": "rhf"
			},
			{
				"type": "occ",
				"energy": -0.27049,
				"method": "rhf"
			},
			{
				"type": "occ",
				"energy": -0.26068,
				"method": "rhf"
			},
			{
				"type": "occ",
				"energy": -0.25017,
				"method": "rhf"
			},
			{
				"type": "unocc",
				"energy": -0.01935,
				"method": "rhf"
			},
			{
				"type": "unocc",
				"energy": 0.00046,
				"method": "rhf"
			},
			{
				"type": "unocc",
				"energy": 0.04555,
				"method": "rhf"
			},
			{
				"type": "unocc",
				"energy": 0.08225,
				"method": "rhf"
			},
			{
				"type": "unocc",
				"energy": 0.08245,
				"method": "rhf"
			}
		],
		"cosmo_sigma_profile": { 
			"-0.025": 0.0,
			"-0.024": 0.0,
			"-0.023": 0.0,
			"-0.022": 0.0,
			"-0.021": 0.0,
			"-0.02": 0.0,
			"-0.019": 0.0,
			"-0.018": 0.0,
			"-0.017": 0.0,
			"-0.016": 0.0,
			"-0.015": 1.84649767514,
			"-0.014": 4.5315521719,
			"-0.013": 3.82380975086,
			"-0.012": 4.46361662098,
			"-0.011": 3.87656707163,
			"-0.01": 3.71473660489,
			"-0.009": 3.34359285929,
			"-0.008": 2.59097659529,
			"-0.007": 3.40626853961,
			"-0.006": 3.12248161637,
			"-0.005": 1.98890055353,
			"-0.004": 4.20498668701,
			"-0.003": 5.93223246441,
			"-0.002": 7.62372777842,
			"-0.001": 7.33515126861,
			"0.0": 9.61516444829,
			"0.001": 11.2600703664,
			"0.002": 14.6334964098,
			"0.003": 12.7525315748,
			"0.004": 13.8688511357,
			"0.005": 7.90856437099,
			"0.006": 5.72481957914,
			"0.007": 3.83929554569,
			"0.008": 3.66636712513,
			"0.009": 3.09261986461,
			"0.01": 3.6990218615,
			"0.011": 3.51266923338,
			"0.012": 1.9327993475,
			"0.013": 2.55273912349,
			"0.014": 0.445235573646,
			"0.015": 0.0,
			"0.016": 0.0,
			"0.017": 0.0,
			"0.018": 0.0,
			"0.019": 0.0,
			"0.02": 0.0,
			"0.021": 0.0,
			"0.022": 0.0,
			"0.023": 0.0,
			"0.024": 0.0,
			"0.025": 0.0
		}
	}
}
