{
	 "smiles": "N#CC=CC1=CC=CO1", 
	 "Tm": 311.15, 
	 "num_atms": 14, 
	 "gaussian": { 
		 "optdone": 1, 
		 "sigma_profile": "yes", 
		 "theory": "DFT", 
		 "functional": "B3LYP", 
		 "basiset": "6-31G**", 
		 "properties": { 
			 "R2extent": 1823.1878, 
			 "electric_dipole_moment_norm": 5.81151140238, 
			 "electric_quadrupole_moment_norm": 20.7073274567, 
			 "total_energy": -399.674499858, 
			 "HOMO_LUMO_gap": 0.15665, 
			 "cosmo_polarized_energy": -10.51, 
			 "cosmo_cavitation_energy": 20.32, 
			 "cosmo_dispersion_energy": -14.3, 
			 "cosmo_repulsion_energy": 1.17, 
			 "cosmo_total_nonelectrostatic_energy": 7.19, 
			 "SMD_solvation_energy": 6.22 
		},
		"coords": [
			{
				"x": -2.0169305935,
				"y": 4.4440230144,
				"z": 2.178023247,
				"element": "N" 
			},
			{
				"x": -1.399208118,
				"y": 3.537202212,
				"z": 1.785509428,
				"element": "C" 
			},
			{
				"x": -0.6249806621,
				"y": 2.4429919082,
				"z": 1.3112267136,
				"element": "C" 
			},
			{
				"x": -1.1891765997,
				"y": 1.2976498514,
				"z": 0.8621863141,
				"element": "C" 
			},
			{
				"x": -0.4683653586,
				"y": 0.1593197221,
				"z": 0.3715968302,
				"element": "C" 
			},
			{
				"x": -0.8928664561,
				"y": -1.0569426569,
				"z": -0.1113979821,
				"element": "C" 
			},
			{
				"x": 0.2779830864,
				"y": -1.794346713,
				"z": -0.4536651936,
				"element": "C" 
			},
			{
				"x": 1.3338669619,
				"y": -0.9815937131,
				"z": -0.1576289831,
				"element": "C" 
			},
			{
				"x": 0.9030406066,
				"y": 0.2053789518,
				"z": 0.3430358259,
				"element": "O" 
			},
			{
				"x": 0.4541485904,
				"y": 2.5635371927,
				"z": 1.3233016273,
				"element": "H" 
			},
			{
				"x": -2.2710117979,
				"y": 1.1981029874,
				"z": 0.8588096687,
				"element": "H" 
			},
			{
				"x": -1.9209305761,
				"y": -1.376316607,
				"z": -0.2065342157,
				"element": "H" 
			},
			{
				"x": 0.3301915136,
				"y": -2.7922061632,
				"z": -0.8637847353,
				"element": "H" 
			},
			{
				"x": 2.4036394033,
				"y": -1.0960999867,
				"z": -0.2414785451,
				"element": "H" 
			}
		],
		 "valence_orbital": [ 
			{
				"type": "occ",
				"energy": -0.35289,
				"method": "rhf"
			},
			{
				"type": "occ",
				"energy": -0.3238,
				"method": "rhf"
			},
			{
				"type": "occ",
				"energy": -0.31191,
				"method": "rhf"
			},
			{
				"type": "occ",
				"energy": -0.29853,
				"method": "rhf"
			},
			{
				"type": "occ",
				"energy": -0.22962,
				"method": "rhf"
			},
			{
				"type": "unocc",
				"energy": -0.07297,
				"method": "rhf"
			},
			{
				"type": "unocc",
				"energy": 0.02184,
				"method": "rhf"
			},
			{
				"type": "unocc",
				"energy": 0.03829,
				"method": "rhf"
			},
			{
				"type": "unocc",
				"energy": 0.07058,
				"method": "rhf"
			},
			{
				"type": "unocc",
				"energy": 0.08895,
				"method": "rhf"
			}
		],
		"cosmo_sigma_profile": { 
			"-0.025": 0.0,
			"-0.024": 0.0,
			"-0.023": 0.0,
			"-0.022": 0.0,
			"-0.021": 0.0,
			"-0.02": 0.0,
			"-0.019": 0.0,
			"-0.018": 0.0,
			"-0.017": 0.0,
			"-0.016": 0.0,
			"-0.015": 0.0,
			"-0.014": 0.0,
			"-0.013": 0.0,
			"-0.012": 0.0,
			"-0.011": 0.0115084994926,
			"-0.01": 1.46860018564,
			"-0.009": 4.60004826125,
			"-0.008": 9.39705200625,
			"-0.007": 8.7240448091,
			"-0.006": 7.2848790183,
			"-0.005": 8.92836182724,
			"-0.004": 6.49004081879,
			"-0.003": 8.62864594548,
			"-0.002": 8.50209296397,
			"-0.001": 8.68814163831,
			"0.0": 14.2484274246,
			"0.001": 20.3020523011,
			"0.002": 12.3570367917,
			"0.003": 10.2602591165,
			"0.004": 7.10888680234,
			"0.005": 3.69348994225,
			"0.006": 2.98607161466,
			"0.007": 2.85250500378,
			"0.008": 2.90345871493,
			"0.009": 3.63785232006,
			"0.01": 3.35362406519,
			"0.011": 3.18435580801,
			"0.012": 2.61407068601,
			"0.013": 2.29870453735,
			"0.014": 0.766656968741,
			"0.015": 0.0,
			"0.016": 0.0,
			"0.017": 0.0,
			"0.018": 0.0,
			"0.019": 0.0,
			"0.02": 0.0,
			"0.021": 0.0,
			"0.022": 0.0,
			"0.023": 0.0,
			"0.024": 0.0,
			"0.025": 0.0
		}
	}
}
