{
	 "smiles": "CC1=C(N)ON=C1", 
	 "Tm": 333.15, 
	 "num_atms": 13, 
	 "gaussian": { 
		 "optdone": 1, 
		 "sigma_profile": "yes", 
		 "theory": "DFT", 
		 "functional": "B3LYP", 
		 "basiset": "6-31G**", 
		 "properties": { 
			 "R2extent": 1701.3861, 
			 "electric_dipole_moment_norm": 4.06992748584, 
			 "electric_quadrupole_moment_norm": 19.2865161048, 
			 "total_energy": -340.716420472, 
			 "HOMO_LUMO_gap": 0.22318, 
			 "cosmo_polarized_energy": -12.56, 
			 "cosmo_cavitation_energy": 17.1, 
			 "cosmo_dispersion_energy": -12.82, 
			 "cosmo_repulsion_energy": 1.1, 
			 "cosmo_total_nonelectrostatic_energy": 5.38, 
			 "SMD_solvation_energy": 3.32 
		},
		"coords": [
			{
				"x": -1.412837281,
				"y": -0.0325923529,
				"z": 1.5436530726,
				"element": "C" 
			},
			{
				"x": -1.7218416017,
				"y": -0.3953101032,
				"z": 0.1224969993,
				"element": "C" 
			},
			{
				"x": -2.8533143525,
				"y": -0.9890293275,
				"z": -0.3861828514,
				"element": "C" 
			},
			{
				"x": -4.0008689654,
				"y": -1.4645796856,
				"z": 0.2082965351,
				"element": "N" 
			},
			{
				"x": -2.7498662329,
				"y": -1.1653122232,
				"z": -1.7134281611,
				"element": "O" 
			},
			{
				"x": -1.4889261258,
				"y": -0.6750566151,
				"z": -2.1449093746,
				"element": "N" 
			},
			{
				"x": -0.9245935974,
				"y": -0.2373306829,
				"z": -1.0435037772,
				"element": "C" 
			},
			{
				"x": -1.1737618998,
				"y": -0.9100551938,
				"z": 2.157435011,
				"element": "H" 
			},
			{
				"x": -0.5537651423,
				"y": 0.6424357429,
				"z": 1.5916394346,
				"element": "H" 
			},
			{
				"x": -2.2513156547,
				"y": 0.4843830024,
				"z": 2.0277805135,
				"element": "H" 
			},
			{
				"x": -4.7874656478,
				"y": -1.5563285561,
				"z": -0.4213500063,
				"element": "H" 
			},
			{
				"x": -4.2430083821,
				"y": -1.0127513469,
				"z": 1.0793805514,
				"element": "H" 
			},
			{
				"x": 0.0669648834,
				"y": 0.1965273419,
				"z": -1.1099079467,
				"element": "H" 
			}
		],
		 "valence_orbital": [ 
			{
				"type": "occ",
				"energy": -0.37162,
				"method": "rhf"
			},
			{
				"type": "occ",
				"energy": -0.33662,
				"method": "rhf"
			},
			{
				"type": "occ",
				"energy": -0.29142,
				"method": "rhf"
			},
			{
				"type": "occ",
				"energy": -0.28186,
				"method": "rhf"
			},
			{
				"type": "occ",
				"energy": -0.20958,
				"method": "rhf"
			},
			{
				"type": "unocc",
				"energy": 0.0136,
				"method": "rhf"
			},
			{
				"type": "unocc",
				"energy": 0.05539,
				"method": "rhf"
			},
			{
				"type": "unocc",
				"energy": 0.0779,
				"method": "rhf"
			},
			{
				"type": "unocc",
				"energy": 0.1102,
				"method": "rhf"
			},
			{
				"type": "unocc",
				"energy": 0.1116,
				"method": "rhf"
			}
		],
		"cosmo_sigma_profile": { 
			"-0.025": 0.0,
			"-0.024": 0.0,
			"-0.023": 0.0,
			"-0.022": 0.0,
			"-0.021": 0.0,
			"-0.02": 0.0,
			"-0.019": 0.0,
			"-0.018": 0.0,
			"-0.017": 0.0,
			"-0.016": 0.0,
			"-0.015": 0.0421863533668,
			"-0.014": 1.43027457613,
			"-0.013": 2.63262781489,
			"-0.012": 3.19794410719,
			"-0.011": 2.23980607166,
			"-0.01": 2.20520074164,
			"-0.009": 3.0687557852,
			"-0.008": 4.15871368657,
			"-0.007": 4.08967470671,
			"-0.006": 3.75049060295,
			"-0.005": 5.53986968476,
			"-0.004": 8.36825989769,
			"-0.003": 9.03391537341,
			"-0.002": 8.74375788587,
			"-0.001": 9.15331893801,
			"0.0": 9.59585873785,
			"0.001": 6.41350645368,
			"0.002": 5.30829035067,
			"0.003": 7.74131713154,
			"0.004": 6.05765871123,
			"0.005": 4.22076731678,
			"0.006": 2.75008339514,
			"0.007": 3.30779964175,
			"0.008": 3.90162243528,
			"0.009": 5.2362862384,
			"0.01": 3.67990714585,
			"0.011": 2.19741255112,
			"0.012": 2.55494217569,
			"0.013": 1.50960801001,
			"0.014": 1.63583295228,
			"0.015": 1.45809640349,
			"0.016": 0.249890583225,
			"0.017": 0.0,
			"0.018": 0.0,
			"0.019": 0.0,
			"0.02": 0.0,
			"0.021": 0.0,
			"0.022": 0.0,
			"0.023": 0.0,
			"0.024": 0.0,
			"0.025": 0.0
		}
	}
}
