{
	 "smiles": "NC1=C(C=CC=C1)C1=NC(=NN1)C1=CC=CC=C1", 
	 "Tm": 451.15, 
	 "num_atms": 30, 
	 "gaussian": { 
		 "optdone": 1, 
		 "sigma_profile": "yes", 
		 "theory": "DFT", 
		 "functional": "B3LYP", 
		 "basiset": "6-31G**", 
		 "properties": { 
			 "R2extent": 6367.7564, 
			 "electric_dipole_moment_norm": 4.09866456422, 
			 "electric_quadrupole_moment_norm": 21.5164408758, 
			 "total_energy": -759.740424598, 
			 "HOMO_LUMO_gap": 0.17524, 
			 "cosmo_polarized_energy": -15.48, 
			 "cosmo_cavitation_energy": 34.24, 
			 "cosmo_dispersion_energy": -25.58, 
			 "cosmo_repulsion_energy": 1.94, 
			 "cosmo_total_nonelectrostatic_energy": 10.61, 
			 "SMD_solvation_energy": 3.5 
		},
		"coords": [
			{
				"x": 3.8490948035,
				"y": -1.1469828894,
				"z": 1.1271198715,
				"element": "N" 
			},
			{
				"x": 3.272501579,
				"y": 0.1238692646,
				"z": 1.3723810592,
				"element": "C" 
			},
			{
				"x": 1.9109392837,
				"y": 0.3649520543,
				"z": 1.0714019345,
				"element": "C" 
			},
			{
				"x": 1.3750574666,
				"y": 1.6415715498,
				"z": 1.3044453809,
				"element": "C" 
			},
			{
				"x": 2.1435944712,
				"y": 2.6553672894,
				"z": 1.8661417736,
				"element": "C" 
			},
			{
				"x": 3.4744062649,
				"y": 2.3996588401,
				"z": 2.2046525522,
				"element": "C" 
			},
			{
				"x": 4.0327114308,
				"y": 1.149574846,
				"z": 1.9491324037,
				"element": "C" 
			},
			{
				"x": 1.0141586502,
				"y": -0.6751271073,
				"z": 0.5561891323,
				"element": "C" 
			},
			{
				"x": -0.1652024836,
				"y": -0.4748282767,
				"z": -0.02186173,
				"element": "N" 
			},
			{
				"x": -0.6353788134,
				"y": -1.7373098916,
				"z": -0.2547559949,
				"element": "C" 
			},
			{
				"x": 0.1854126332,
				"y": -2.7100385113,
				"z": 0.1457548111,
				"element": "N" 
			},
			{
				"x": 1.231883271,
				"y": -2.0153396413,
				"z": 0.6467670105,
				"element": "N" 
			},
			{
				"x": -1.9301658295,
				"y": -2.0056063075,
				"z": -0.8973835186,
				"element": "C" 
			},
			{
				"x": -2.3658702541,
				"y": -3.3230082134,
				"z": -1.1098914756,
				"element": "C" 
			},
			{
				"x": -3.5951731099,
				"y": -3.565451954,
				"z": -1.7181291661,
				"element": "C" 
			},
			{
				"x": -4.4040705547,
				"y": -2.4994877338,
				"z": -2.1217411531,
				"element": "C" 
			},
			{
				"x": -3.9744385476,
				"y": -1.1872585633,
				"z": -1.9125704865,
				"element": "C" 
			},
			{
				"x": -2.7449620337,
				"y": -0.9390736822,
				"z": -1.3043359459,
				"element": "C" 
			},
			{
				"x": 3.7145819118,
				"y": -1.457056355,
				"z": 0.1684256378,
				"element": "H" 
			},
			{
				"x": 4.8399962629,
				"y": -1.1621196733,
				"z": 1.3410252613,
				"element": "H" 
			},
			{
				"x": 0.333880355,
				"y": 1.8051343347,
				"z": 1.0484628576,
				"element": "H" 
			},
			{
				"x": 1.7065699285,
				"y": 3.6317747388,
				"z": 2.0491081522,
				"element": "H" 
			},
			{
				"x": 4.0859153555,
				"y": 3.1771566887,
				"z": 2.6531979681,
				"element": "H" 
			},
			{
				"x": 5.0777695793,
				"y": 0.9621205759,
				"z": 2.184862903,
				"element": "H" 
			},
			{
				"x": 2.0042572736,
				"y": -2.475868046,
				"z": 1.1100586037,
				"element": "H" 
			},
			{
				"x": -1.7328657508,
				"y": -4.1456378405,
				"z": -0.7939442485,
				"element": "H" 
			},
			{
				"x": -3.9238989882,
				"y": -4.5885697144,
				"z": -1.8780219112,
				"element": "H" 
			},
			{
				"x": -5.3624863311,
				"y": -2.6911999701,
				"z": -2.5960208523,
				"element": "H" 
			},
			{
				"x": -4.5984384297,
				"y": -0.3542498214,
				"z": -2.2242261011,
				"element": "H" 
			},
			{
				"x": -2.4002793944,
				"y": 0.0757340103,
				"z": -1.1372447296,
				"element": "H" 
			}
		],
		 "valence_orbital": [ 
			{
				"type": "occ",
				"energy": -0.26918,
				"method": "rhf"
			},
			{
				"type": "occ",
				"energy": -0.24763,
				"method": "rhf"
			},
			{
				"type": "occ",
				"energy": -0.24048,
				"method": "rhf"
			},
			{
				"type": "occ",
				"energy": -0.23023,
				"method": "rhf"
			},
			{
				"type": "occ",
				"energy": -0.21132,
				"method": "rhf"
			},
			{
				"type": "unocc",
				"energy": -0.03608,
				"method": "rhf"
			},
			{
				"type": "unocc",
				"energy": -0.01796,
				"method": "rhf"
			},
			{
				"type": "unocc",
				"energy": -0.00124,
				"method": "rhf"
			},
			{
				"type": "unocc",
				"energy": 0.01006,
				"method": "rhf"
			},
			{
				"type": "unocc",
				"energy": 0.05505,
				"method": "rhf"
			}
		],
		"cosmo_sigma_profile": { 
			"-0.025": 0.0,
			"-0.024": 0.0,
			"-0.023": 0.0,
			"-0.022": 0.0,
			"-0.021": 0.0,
			"-0.02": 0.0,
			"-0.019": 0.0,
			"-0.018": 0.0,
			"-0.017": 0.0,
			"-0.016": 0.0,
			"-0.015": 0.0100629242986,
			"-0.014": 0.422386226939,
			"-0.013": 1.92684930574,
			"-0.012": 3.68080401105,
			"-0.011": 4.78146860163,
			"-0.01": 4.12574937735,
			"-0.009": 4.15020196408,
			"-0.008": 3.30666912417,
			"-0.007": 3.72084414137,
			"-0.006": 10.8415061177,
			"-0.005": 16.6951130315,
			"-0.004": 19.0118066734,
			"-0.003": 18.936826297,
			"-0.002": 14.7875001895,
			"-0.001": 13.7528269789,
			"0.0": 14.8046419964,
			"0.001": 16.1523716939,
			"0.002": 20.9903079832,
			"0.003": 25.295498105,
			"0.004": 25.8183050301,
			"0.005": 24.3065930331,
			"0.006": 9.39360460966,
			"0.007": 3.8753371855,
			"0.008": 3.19155689596,
			"0.009": 3.22838225287,
			"0.01": 2.69674447736,
			"0.011": 1.6815424058,
			"0.012": 1.92740239214,
			"0.013": 1.0907768645,
			"0.014": 0.284769530018,
			"0.015": 0.0,
			"0.016": 0.0,
			"0.017": 0.0,
			"0.018": 0.0,
			"0.019": 0.0,
			"0.02": 0.0,
			"0.021": 0.0,
			"0.022": 0.0,
			"0.023": 0.0,
			"0.024": 0.0,
			"0.025": 0.0
		}
	}
}
