{
	 "smiles": "IC=C/I", 
	 "Tm": 259.15, 
	 "num_atms": 6, 
	 "gaussian": { 
		 "optdone": 1, 
		 "sigma_profile": "yes", 
		 "theory": "DFT", 
		 "functional": "B3LYP", 
		 "basiset": "6-31G**", 
		 "properties": { 
			 "R2extent": 562.0166, 
			 "electric_dipole_moment_norm": 1.25940621326, 
			 "electric_quadrupole_moment_norm": 4.62625000189, 
			 "total_energy": -100.159720322, 
			 "HOMO_LUMO_gap": 0.18903, 
			 "cosmo_polarized_energy": -4.04, 
			 "cosmo_cavitation_energy": 16.3, 
			 "cosmo_dispersion_energy": -15.11, 
			 "cosmo_repulsion_energy": 1.26, 
			 "cosmo_total_nonelectrostatic_energy": 2.44, 
			 "SMD_solvation_energy": 1.92 
		},
		"coords": [
			{
				"x": -1.109639546,
				"y": 2.6649201789,
				"z": 1.1110481598,
				"element": "I" 
			},
			{
				"x": -0.0124178567,
				"y": 0.9707103041,
				"z": 1.6599289014,
				"element": "C" 
			},
			{
				"x": -0.037970681,
				"y": -0.2322632635,
				"z": 1.0933404177,
				"element": "C" 
			},
			{
				"x": -1.1841060951,
				"y": -0.8490986556,
				"z": -0.5441595267,
				"element": "I" 
			},
			{
				"x": 0.6352823501,
				"y": 1.1532965385,
				"z": 2.5111529768,
				"element": "H" 
			},
			{
				"x": 0.5889518286,
				"y": -1.0269651025,
				"z": 1.4842890711,
				"element": "H" 
			}
		],
		 "valence_orbital": [ 
			{
				"type": "occ",
				"energy": -0.35231,
				"method": "rhf"
			},
			{
				"type": "occ",
				"energy": -0.28776,
				"method": "rhf"
			},
			{
				"type": "occ",
				"energy": -0.28644,
				"method": "rhf"
			},
			{
				"type": "occ",
				"energy": -0.26483,
				"method": "rhf"
			},
			{
				"type": "occ",
				"energy": -0.24769,
				"method": "rhf"
			},
			{
				"type": "unocc",
				"energy": -0.05866,
				"method": "rhf"
			},
			{
				"type": "unocc",
				"energy": -0.02525,
				"method": "rhf"
			},
			{
				"type": "unocc",
				"energy": -0.02426,
				"method": "rhf"
			},
			{
				"type": "unocc",
				"energy": 0.02517,
				"method": "rhf"
			},
			{
				"type": "unocc",
				"energy": 0.0302,
				"method": "rhf"
			}
		],
		"cosmo_sigma_profile": { 
			"-0.025": 0.0,
			"-0.024": 0.0,
			"-0.023": 0.0,
			"-0.022": 0.0,
			"-0.021": 0.0,
			"-0.02": 0.0,
			"-0.019": 0.0,
			"-0.018": 0.0,
			"-0.017": 0.0,
			"-0.016": 0.0,
			"-0.015": 0.0,
			"-0.014": 0.0,
			"-0.013": 0.0,
			"-0.012": 0.0,
			"-0.011": 0.0,
			"-0.01": 0.777955313987,
			"-0.009": 4.38033937952,
			"-0.008": 4.18958859952,
			"-0.007": 6.23596776035,
			"-0.006": 5.14413095933,
			"-0.005": 5.64979068222,
			"-0.004": 5.43725992438,
			"-0.003": 5.68883104201,
			"-0.002": 5.10831101276,
			"-0.001": 8.22295166962,
			"0.0": 8.30596853566,
			"0.001": 13.6203968509,
			"0.002": 16.4173623404,
			"0.003": 19.2306117826,
			"0.004": 27.1786042632,
			"0.005": 5.43551856851,
			"0.006": 0.0,
			"0.007": 0.0,
			"0.008": 0.0,
			"0.009": 0.0,
			"0.01": 0.0,
			"0.011": 0.0,
			"0.012": 0.0,
			"0.013": 0.0,
			"0.014": 0.0,
			"0.015": 0.0,
			"0.016": 0.0,
			"0.017": 0.0,
			"0.018": 0.0,
			"0.019": 0.0,
			"0.02": 0.0,
			"0.021": 0.0,
			"0.022": 0.0,
			"0.023": 0.0,
			"0.024": 0.0,
			"0.025": 0.0
		}
	}
}
