{
	 "smiles": "CN1C(=O)N(C)C2=C(C(S)=NC(=N2)C(C)(C)C)C1=O", 
	 "Tm": 417.15, 
	 "num_atms": 35, 
	 "gaussian": { 
		 "optdone": 1, 
		 "sigma_profile": "yes", 
		 "theory": "DFT", 
		 "functional": "B3LYP", 
		 "basiset": "6-31G**", 
		 "properties": { 
			 "R2extent": 6736.5752, 
			 "electric_dipole_moment_norm": 1.86224836421, 
			 "electric_quadrupole_moment_norm": 10.3866497342, 
			 "total_energy": -1234.63873467, 
			 "HOMO_LUMO_gap": 0.1816, 
			 "cosmo_polarized_energy": -10.48, 
			 "cosmo_cavitation_energy": 38.39, 
			 "cosmo_dispersion_energy": -27.58, 
			 "cosmo_repulsion_energy": 2.04, 
			 "cosmo_total_nonelectrostatic_energy": 12.84, 
			 "SMD_solvation_energy": 5.99 
		},
		"coords": [
			{
				"x": 5.1376502744,
				"y": -1.7784178288,
				"z": 0.6552222426,
				"element": "C" 
			},
			{
				"x": 3.7677976775,
				"y": -1.2457685935,
				"z": 0.6321802999,
				"element": "N" 
			},
			{
				"x": 2.8016592851,
				"y": -2.0607666989,
				"z": 1.2284776354,
				"element": "C" 
			},
			{
				"x": 3.1028112493,
				"y": -3.1332971223,
				"z": 1.7249711944,
				"element": "O" 
			},
			{
				"x": 1.4928442506,
				"y": -1.5759406475,
				"z": 1.2189859612,
				"element": "N" 
			},
			{
				"x": 0.4476855713,
				"y": -2.4047074413,
				"z": 1.8365927851,
				"element": "C" 
			},
			{
				"x": 1.1544671187,
				"y": -0.3616796243,
				"z": 0.6559680149,
				"element": "C" 
			},
			{
				"x": 2.1424670707,
				"y": 0.4488744806,
				"z": 0.0575940005,
				"element": "C" 
			},
			{
				"x": 1.6611496973,
				"y": 1.6722484363,
				"z": -0.4841484924,
				"element": "C" 
			},
			{
				"x": 2.6463003908,
				"y": 2.8871190526,
				"z": -1.2902915413,
				"element": "S" 
			},
			{
				"x": 0.369217794,
				"y": 2.0026392527,
				"z": -0.4174965164,
				"element": "N" 
			},
			{
				"x": -0.4784632688,
				"y": 1.1513450431,
				"z": 0.1762350696,
				"element": "C" 
			},
			{
				"x": -0.1386063106,
				"y": -0.0224294905,
				"z": 0.7182799106,
				"element": "N" 
			},
			{
				"x": -1.9448224368,
				"y": 1.5836885981,
				"z": 0.2222145203,
				"element": "C" 
			},
			{
				"x": -2.8218829943,
				"y": 0.5346787534,
				"z": 0.923496429,
				"element": "C" 
			},
			{
				"x": -2.4344960826,
				"y": 1.7877044441,
				"z": -1.2309735452,
				"element": "C" 
			},
			{
				"x": -2.0290465821,
				"y": 2.9283832715,
				"z": 0.9823651973,
				"element": "C" 
			},
			{
				"x": 3.534355302,
				"y": -0.0026830495,
				"z": 0.0349014942,
				"element": "C" 
			},
			{
				"x": 4.4738302289,
				"y": 0.6248595087,
				"z": -0.4605868128,
				"element": "O" 
			},
			{
				"x": 5.7808612757,
				"y": -1.0516376564,
				"z": 0.1668107064,
				"element": "H" 
			},
			{
				"x": 5.4519594927,
				"y": -1.9399696801,
				"z": 1.6878912763,
				"element": "H" 
			},
			{
				"x": 5.1692173597,
				"y": -2.735335296,
				"z": 0.1310682086,
				"element": "H" 
			},
			{
				"x": -0.0297707673,
				"y": -1.8556131822,
				"z": 2.6496995459,
				"element": "H" 
			},
			{
				"x": -0.3129745942,
				"y": -2.6565266047,
				"z": 1.0958805534,
				"element": "H" 
			},
			{
				"x": 0.9304020914,
				"y": -3.3033123997,
				"z": 2.2116781529,
				"element": "H" 
			},
			{
				"x": 3.8059222376,
				"y": 2.194188016,
				"z": -1.1465472497,
				"element": "H" 
			},
			{
				"x": -2.7861575254,
				"y": -0.4287408318,
				"z": 0.4077122243,
				"element": "H" 
			},
			{
				"x": -3.8613545633,
				"y": 0.8786749175,
				"z": 0.9369128076,
				"element": "H" 
			},
			{
				"x": -2.502214328,
				"y": 0.3689390839,
				"z": 1.9558886349,
				"element": "H" 
			},
			{
				"x": -3.4706798804,
				"y": 2.1420844366,
				"z": -1.2266126629,
				"element": "H" 
			},
			{
				"x": -1.8154659182,
				"y": 2.5221334806,
				"z": -1.7512732888,
				"element": "H" 
			},
			{
				"x": -2.4021720135,
				"y": 0.8487768518,
				"z": -1.7944411948,
				"element": "H" 
			},
			{
				"x": -3.0643834563,
				"y": 3.2851613847,
				"z": 0.9907729298,
				"element": "H" 
			},
			{
				"x": -1.4017942205,
				"y": 3.685260427,
				"z": 0.5059413441,
				"element": "H" 
			},
			{
				"x": -1.7033134255,
				"y": 2.8156667084,
				"z": 2.0222301649,
				"element": "H" 
			}
		],
		 "valence_orbital": [ 
			{
				"type": "occ",
				"energy": -0.28948,
				"method": "rhf"
			},
			{
				"type": "occ",
				"energy": -0.27918,
				"method": "rhf"
			},
			{
				"type": "occ",
				"energy": -0.2637,
				"method": "rhf"
			},
			{
				"type": "occ",
				"energy": -0.26262,
				"method": "rhf"
			},
			{
				"type": "occ",
				"energy": -0.25083,
				"method": "rhf"
			},
			{
				"type": "unocc",
				"energy": -0.06923,
				"method": "rhf"
			},
			{
				"type": "unocc",
				"energy": -0.0442,
				"method": "rhf"
			},
			{
				"type": "unocc",
				"energy": 0.00352,
				"method": "rhf"
			},
			{
				"type": "unocc",
				"energy": 0.03148,
				"method": "rhf"
			},
			{
				"type": "unocc",
				"energy": 0.04813,
				"method": "rhf"
			}
		],
		"cosmo_sigma_profile": { 
			"-0.025": 0.0,
			"-0.024": 0.0,
			"-0.023": 0.0,
			"-0.022": 0.0,
			"-0.021": 0.0,
			"-0.02": 0.0,
			"-0.019": 0.0,
			"-0.018": 0.0,
			"-0.017": 0.0,
			"-0.016": 0.0,
			"-0.015": 0.0,
			"-0.014": 0.0,
			"-0.013": 0.0,
			"-0.012": 0.0,
			"-0.011": 0.0,
			"-0.01": 0.0,
			"-0.009": 0.142512521339,
			"-0.008": 1.60095520718,
			"-0.007": 2.58108982038,
			"-0.006": 8.55090621937,
			"-0.005": 15.7906441855,
			"-0.004": 24.1521349983,
			"-0.003": 45.2086385667,
			"-0.002": 38.3151216656,
			"-0.001": 25.8639380037,
			"0.0": 26.4814776239,
			"0.001": 30.3647082089,
			"0.002": 15.7388614688,
			"0.003": 10.9036570996,
			"0.004": 12.0280528967,
			"0.005": 12.0517445354,
			"0.006": 9.53722450626,
			"0.007": 6.70562509014,
			"0.008": 4.81847508161,
			"0.009": 3.55025079334,
			"0.01": 4.84251533362,
			"0.011": 3.67836439752,
			"0.012": 3.14667086307,
			"0.013": 0.0446948359951,
			"0.014": 0.0,
			"0.015": 0.0,
			"0.016": 0.0,
			"0.017": 0.0,
			"0.018": 0.0,
			"0.019": 0.0,
			"0.02": 0.0,
			"0.021": 0.0,
			"0.022": 0.0,
			"0.023": 0.0,
			"0.024": 0.0,
			"0.025": 0.0
		}
	}
}
