{
	 "smiles": "[O-][N+](=O)C1=CC(=CC=C1)N1CCOC1=O", 
	 "Tm": 409.15, 
	 "num_atms": 23, 
	 "gaussian": { 
		 "optdone": 1, 
		 "sigma_profile": "yes", 
		 "theory": "DFT", 
		 "functional": "B3LYP", 
		 "basiset": "6-31G**", 
		 "properties": { 
			 "R2extent": 3833.2309, 
			 "electric_dipole_moment_norm": 2.97530447518, 
			 "electric_quadrupole_moment_norm": 27.6593509159, 
			 "total_energy": -758.089742061, 
			 "HOMO_LUMO_gap": 0.15347, 
			 "cosmo_polarized_energy": -15.49, 
			 "cosmo_cavitation_energy": 27.74, 
			 "cosmo_dispersion_energy": -20.77, 
			 "cosmo_repulsion_energy": 1.6, 
			 "cosmo_total_nonelectrostatic_energy": 8.57, 
			 "SMD_solvation_energy": 7.86 
		},
		"coords": [
			{
				"x": 1.6123872409,
				"y": 1.9284391349,
				"z": -4.3792552282,
				"element": "O" 
			},
			{
				"x": 1.0887956129,
				"y": 2.10353894,
				"z": -3.2805789515,
				"element": "N" 
			},
			{
				"x": 0.655858437,
				"y": 3.1832414444,
				"z": -2.875439034,
				"element": "O" 
			},
			{
				"x": 0.9719308199,
				"y": 0.938753165,
				"z": -2.3860595719,
				"element": "C" 
			},
			{
				"x": 0.3746445043,
				"y": 1.1270820395,
				"z": -1.1425779641,
				"element": "C" 
			},
			{
				"x": 0.2527679615,
				"y": 0.0354322742,
				"z": -0.2728942882,
				"element": "C" 
			},
			{
				"x": 0.7387654108,
				"y": -1.2231791256,
				"z": -0.6824936837,
				"element": "C" 
			},
			{
				"x": 1.3265259191,
				"y": -1.3699603027,
				"z": -1.9367454916,
				"element": "C" 
			},
			{
				"x": 1.4560066864,
				"y": -0.2923638628,
				"z": -2.8123618802,
				"element": "C" 
			},
			{
				"x": -0.3320876312,
				"y": 0.2348338775,
				"z": 0.9932111698,
				"element": "N" 
			},
			{
				"x": -0.8118059119,
				"y": 1.5387393225,
				"z": 1.4398822869,
				"element": "C" 
			},
			{
				"x": -1.2036287791,
				"y": 1.2281367161,
				"z": 2.8918156608,
				"element": "C" 
			},
			{
				"x": -1.3736688563,
				"y": -0.1961921167,
				"z": 2.9303661389,
				"element": "O" 
			},
			{
				"x": -0.7655283953,
				"y": -0.7724558674,
				"z": 1.8550667091,
				"element": "C" 
			},
			{
				"x": -0.6548301808,
				"y": -1.9677710525,
				"z": 1.7293301822,
				"element": "O" 
			},
			{
				"x": 0.0204742657,
				"y": 2.1169822031,
				"z": -0.8926180172,
				"element": "H" 
			},
			{
				"x": 0.639082964,
				"y": -2.0698104329,
				"z": -0.0183255027,
				"element": "H" 
			},
			{
				"x": 1.6927563319,
				"y": -2.3477162862,
				"z": -2.2333059928,
				"element": "H" 
			},
			{
				"x": 1.9119896383,
				"y": -0.3867800496,
				"z": -3.7890080176,
				"element": "H" 
			},
			{
				"x": -1.6662134541,
				"y": 1.8728340463,
				"z": 0.8364902443,
				"element": "H" 
			},
			{
				"x": -0.027246197,
				"y": 2.2982942949,
				"z": 1.3801299125,
				"element": "H" 
			},
			{
				"x": -0.4126939954,
				"y": 1.5061949116,
				"z": 3.5964998058,
				"element": "H" 
			},
			{
				"x": -2.1397823916,
				"y": 1.6985267263,
				"z": 3.1965715132,
				"element": "H" 
			}
		],
		 "valence_orbital": [ 
			{
				"type": "occ",
				"energy": -0.3106,
				"method": "rhf"
			},
			{
				"type": "occ",
				"energy": -0.29462,
				"method": "rhf"
			},
			{
				"type": "occ",
				"energy": -0.29394,
				"method": "rhf"
			},
			{
				"type": "occ",
				"energy": -0.28279,
				"method": "rhf"
			},
			{
				"type": "occ",
				"energy": -0.24513,
				"method": "rhf"
			},
			{
				"type": "unocc",
				"energy": -0.09166,
				"method": "rhf"
			},
			{
				"type": "unocc",
				"energy": -0.02922,
				"method": "rhf"
			},
			{
				"type": "unocc",
				"energy": -0.00355,
				"method": "rhf"
			},
			{
				"type": "unocc",
				"energy": 0.0383,
				"method": "rhf"
			},
			{
				"type": "unocc",
				"energy": 0.06298,
				"method": "rhf"
			}
		],
		"cosmo_sigma_profile": { 
			"-0.025": 0.0,
			"-0.024": 0.0,
			"-0.023": 0.0,
			"-0.022": 0.0,
			"-0.021": 0.0,
			"-0.02": 0.0,
			"-0.019": 0.0,
			"-0.018": 0.0,
			"-0.017": 0.0,
			"-0.016": 0.0,
			"-0.015": 0.0,
			"-0.014": 0.0,
			"-0.013": 0.0,
			"-0.012": 0.0,
			"-0.011": 0.0,
			"-0.01": 0.0,
			"-0.009": 0.572947799112,
			"-0.008": 7.62616027867,
			"-0.007": 22.7178988249,
			"-0.006": 20.4020629987,
			"-0.005": 14.4623804827,
			"-0.004": 10.021251627,
			"-0.003": 10.6166309708,
			"-0.002": 12.482129639,
			"-0.001": 13.7803750185,
			"0.0": 13.9888439349,
			"0.001": 16.951761231,
			"0.002": 13.7245300425,
			"0.003": 6.03763237973,
			"0.004": 4.04795513145,
			"0.005": 5.67754383085,
			"0.006": 6.77535523594,
			"0.007": 10.0294085042,
			"0.008": 10.0607129575,
			"0.009": 8.57120652966,
			"0.01": 6.30199411574,
			"0.011": 3.4374158054,
			"0.012": 3.29628012964,
			"0.013": 0.942227417954,
			"0.014": 0.0,
			"0.015": 0.0,
			"0.016": 0.0,
			"0.017": 0.0,
			"0.018": 0.0,
			"0.019": 0.0,
			"0.02": 0.0,
			"0.021": 0.0,
			"0.022": 0.0,
			"0.023": 0.0,
			"0.024": 0.0,
			"0.025": 0.0
		}
	}
}
