{
	 "smiles": "NC(=O)NCC#C", 
	 "Tm": 403.15, 
	 "num_atms": 13, 
	 "gaussian": { 
		 "optdone": 1, 
		 "sigma_profile": "yes", 
		 "theory": "DFT", 
		 "functional": "B3LYP", 
		 "basiset": "6-31G**", 
		 "properties": { 
			 "R2extent": 945.2096, 
			 "electric_dipole_moment_norm": 3.64449294278, 
			 "electric_quadrupole_moment_norm": 12.5484873822, 
			 "total_energy": -340.711371723, 
			 "HOMO_LUMO_gap": 0.26755, 
			 "cosmo_polarized_energy": -14.45, 
			 "cosmo_cavitation_energy": 17.98, 
			 "cosmo_dispersion_energy": -12.76, 
			 "cosmo_repulsion_energy": 1.1, 
			 "cosmo_total_nonelectrostatic_energy": 6.32, 
			 "SMD_solvation_energy": 4.74 
		},
		"coords": [
			{
				"x": -0.3630635828,
				"y": -0.5674529968,
				"z": -1.4716389084,
				"element": "N" 
			},
			{
				"x": 1.0098445495,
				"y": -0.4216808279,
				"z": -1.5922254378,
				"element": "C" 
			},
			{
				"x": 1.6324253657,
				"y": -0.7155556751,
				"z": -2.6032708424,
				"element": "O" 
			},
			{
				"x": 1.6374705687,
				"y": 0.1140590451,
				"z": -0.477877307,
				"element": "N" 
			},
			{
				"x": 0.9624630786,
				"y": 0.8643026662,
				"z": 0.5751299859,
				"element": "C" 
			},
			{
				"x": 0.2432440269,
				"y": 0.0138328258,
				"z": 1.5370380777,
				"element": "C" 
			},
			{
				"x": -0.3842754447,
				"y": -0.6821218728,
				"z": 2.2993933601,
				"element": "C" 
			},
			{
				"x": -0.7555882867,
				"y": -1.1170486181,
				"z": -2.2225370614,
				"element": "H" 
			},
			{
				"x": -0.7443610123,
				"y": -0.7632695285,
				"z": -0.5543250671,
				"element": "H" 
			},
			{
				"x": 2.6108512176,
				"y": 0.3180936221,
				"z": -0.6473850841,
				"element": "H" 
			},
			{
				"x": 1.7231151624,
				"y": 1.4423099482,
				"z": 1.1101070995,
				"element": "H" 
			},
			{
				"x": 0.2541510151,
				"y": 1.5900700883,
				"z": 0.1500034696,
				"element": "H" 
			},
			{
				"x": -0.9129766579,
				"y": -1.2987386766,
				"z": 2.9894877154,
				"element": "H" 
			}
		],
		 "valence_orbital": [ 
			{
				"type": "occ",
				"energy": -0.29269,
				"method": "rhf"
			},
			{
				"type": "occ",
				"energy": -0.28538,
				"method": "rhf"
			},
			{
				"type": "occ",
				"energy": -0.2707,
				"method": "rhf"
			},
			{
				"type": "occ",
				"energy": -0.25801,
				"method": "rhf"
			},
			{
				"type": "occ",
				"energy": -0.24426,
				"method": "rhf"
			},
			{
				"type": "unocc",
				"energy": 0.02329,
				"method": "rhf"
			},
			{
				"type": "unocc",
				"energy": 0.037,
				"method": "rhf"
			},
			{
				"type": "unocc",
				"energy": 0.05858,
				"method": "rhf"
			},
			{
				"type": "unocc",
				"energy": 0.08825,
				"method": "rhf"
			},
			{
				"type": "unocc",
				"energy": 0.11,
				"method": "rhf"
			}
		],
		"cosmo_sigma_profile": { 
			"-0.025": 0.0,
			"-0.024": 0.0,
			"-0.023": 0.0,
			"-0.022": 0.0,
			"-0.021": 0.0,
			"-0.02": 0.0,
			"-0.019": 0.0,
			"-0.018": 0.0,
			"-0.017": 0.0,
			"-0.016": 0.0,
			"-0.015": 0.0,
			"-0.014": 0.612191204265,
			"-0.013": 2.47426564618,
			"-0.012": 2.999674843,
			"-0.011": 3.97735631696,
			"-0.01": 4.50151356143,
			"-0.009": 4.8194079641,
			"-0.008": 5.54452154716,
			"-0.007": 6.07884592703,
			"-0.006": 6.75919425805,
			"-0.005": 7.37940542137,
			"-0.004": 6.89506982459,
			"-0.003": 6.16288038116,
			"-0.002": 6.27829067595,
			"-0.001": 7.32824344503,
			"0.0": 6.29474094176,
			"0.001": 5.88280802701,
			"0.002": 5.72362791316,
			"0.003": 5.60155142677,
			"0.004": 6.46157555126,
			"0.005": 8.41670525229,
			"0.006": 8.34844765892,
			"0.007": 4.01563292431,
			"0.008": 1.72703536246,
			"0.009": 1.70873380109,
			"0.01": 2.10213501218,
			"0.011": 1.47331920471,
			"0.012": 1.61981527185,
			"0.013": 1.83103961169,
			"0.014": 6.31666536765,
			"0.015": 3.83001453996,
			"0.016": 0.0685025896594,
			"0.017": 0.0,
			"0.018": 0.0,
			"0.019": 0.0,
			"0.02": 0.0,
			"0.021": 0.0,
			"0.022": 0.0,
			"0.023": 0.0,
			"0.024": 0.0,
			"0.025": 0.0
		}
	}
}
