{
	 "smiles": "OC1CCCC2=C1SC(=N2)C1=CC=CC=C1", 
	 "Tm": 370.15, 
	 "num_atms": 29, 
	 "gaussian": { 
		 "optdone": 1, 
		 "sigma_profile": "yes", 
		 "theory": "DFT", 
		 "functional": "B3LYP", 
		 "basiset": "6-31G**", 
		 "properties": { 
			 "R2extent": 5164.0754, 
			 "electric_dipole_moment_norm": 1.06336560505, 
			 "electric_quadrupole_moment_norm": 12.922115174, 
			 "total_energy": -1031.38940053, 
			 "HOMO_LUMO_gap": 0.16293, 
			 "cosmo_polarized_energy": -10.0, 
			 "cosmo_cavitation_energy": 32.89, 
			 "cosmo_dispersion_energy": -24.96, 
			 "cosmo_repulsion_energy": 1.89, 
			 "cosmo_total_nonelectrostatic_energy": 9.82, 
			 "SMD_solvation_energy": 3.04 
		},
		"coords": [
			{
				"x": 0.3042609985,
				"y": 0.4302485185,
				"z": -3.7501203703,
				"element": "O" 
			},
			{
				"x": 1.112752924,
				"y": -0.3152880198,
				"z": -2.8436260002,
				"element": "C" 
			},
			{
				"x": 2.5184097973,
				"y": 0.2888660757,
				"z": -2.6702738644,
				"element": "C" 
			},
			{
				"x": 3.3019673953,
				"y": -0.3999666391,
				"z": -1.541588683,
				"element": "C" 
			},
			{
				"x": 2.6188787644,
				"y": -0.209669051,
				"z": -0.1747684823,
				"element": "C" 
			},
			{
				"x": 1.1331293244,
				"y": -0.4288839765,
				"z": -0.2824813541,
				"element": "C" 
			},
			{
				"x": 0.4779278731,
				"y": -0.4659326822,
				"z": -1.4867476858,
				"element": "C" 
			},
			{
				"x": -1.223128493,
				"y": -0.7305098617,
				"z": -1.2231744895,
				"element": "S" 
			},
			{
				"x": -0.910801666,
				"y": -0.7672471086,
				"z": 0.5182874562,
				"element": "C" 
			},
			{
				"x": 0.3484965441,
				"y": -0.5958819581,
				"z": 0.83202656,
				"element": "N" 
			},
			{
				"x": -1.9805791743,
				"y": -0.96061295,
				"z": 1.5069982975,
				"element": "C" 
			},
			{
				"x": -1.6571181236,
				"y": -0.9300877275,
				"z": 2.8756604732,
				"element": "C" 
			},
			{
				"x": -2.6471405584,
				"y": -1.1095794789,
				"z": 3.8371376576,
				"element": "C" 
			},
			{
				"x": -3.9743545106,
				"y": -1.3216960826,
				"z": 3.4537356782,
				"element": "C" 
			},
			{
				"x": -4.3041560725,
				"y": -1.354239455,
				"z": 2.0972481907,
				"element": "C" 
			},
			{
				"x": -3.3164572946,
				"y": -1.1763934412,
				"z": 1.1308999265,
				"element": "C" 
			},
			{
				"x": 0.1450668299,
				"y": 1.2967783705,
				"z": -3.3495752514,
				"element": "H" 
			},
			{
				"x": 1.2021784038,
				"y": -1.3005748992,
				"z": -3.3202088194,
				"element": "H" 
			},
			{
				"x": 2.4068548697,
				"y": 1.3581117353,
				"z": -2.4394006193,
				"element": "H" 
			},
			{
				"x": 3.0520702857,
				"y": 0.2213132089,
				"z": -3.6236542899,
				"element": "H" 
			},
			{
				"x": 4.3262352466,
				"y": -0.0142891549,
				"z": -1.5049291948,
				"element": "H" 
			},
			{
				"x": 3.3800358927,
				"y": -1.4728847277,
				"z": -1.7617716304,
				"element": "H" 
			},
			{
				"x": 2.806997408,
				"y": 0.8047223997,
				"z": 0.2049532171,
				"element": "H" 
			},
			{
				"x": 3.0360550648,
				"y": -0.8945152541,
				"z": 0.5717532323,
				"element": "H" 
			},
			{
				"x": -0.6238980083,
				"y": -0.7643481925,
				"z": 3.1595217583,
				"element": "H" 
			},
			{
				"x": -2.3830758102,
				"y": -1.0834664831,
				"z": 4.8905300451,
				"element": "H" 
			},
			{
				"x": -4.745205361,
				"y": -1.4613023942,
				"z": 4.2060137597,
				"element": "H" 
			},
			{
				"x": -5.3324702932,
				"y": -1.5201049393,
				"z": 1.7896614442,
				"element": "H" 
			},
			{
				"x": -3.5883322567,
				"y": -1.2083658315,
				"z": 0.0793930382,
				"element": "H" 
			}
		],
		 "valence_orbital": [ 
			{
				"type": "occ",
				"energy": -0.27428,
				"method": "rhf"
			},
			{
				"type": "occ",
				"energy": -0.26867,
				"method": "rhf"
			},
			{
				"type": "occ",
				"energy": -0.2631,
				"method": "rhf"
			},
			{
				"type": "occ",
				"energy": -0.25332,
				"method": "rhf"
			},
			{
				"type": "occ",
				"energy": -0.21394,
				"method": "rhf"
			},
			{
				"type": "unocc",
				"energy": -0.05101,
				"method": "rhf"
			},
			{
				"type": "unocc",
				"energy": -0.00373,
				"method": "rhf"
			},
			{
				"type": "unocc",
				"energy": 0.02105,
				"method": "rhf"
			},
			{
				"type": "unocc",
				"energy": 0.02582,
				"method": "rhf"
			},
			{
				"type": "unocc",
				"energy": 0.05985,
				"method": "rhf"
			}
		],
		"cosmo_sigma_profile": { 
			"-0.025": 0.0,
			"-0.024": 0.0,
			"-0.023": 0.0,
			"-0.022": 0.0,
			"-0.021": 0.0,
			"-0.02": 0.0,
			"-0.019": 0.0,
			"-0.018": 0.0,
			"-0.017": 0.0,
			"-0.016": 0.0528192702079,
			"-0.015": 0.835867560054,
			"-0.014": 0.751500647467,
			"-0.013": 0.644028771006,
			"-0.012": 0.878027914487,
			"-0.011": 1.0661473596,
			"-0.01": 0.821529261336,
			"-0.009": 0.884103921497,
			"-0.008": 1.25215938575,
			"-0.007": 1.84576614815,
			"-0.006": 8.66228116235,
			"-0.005": 13.7872409425,
			"-0.004": 22.8591156797,
			"-0.003": 26.3405236939,
			"-0.002": 26.0963656774,
			"-0.001": 22.7461283604,
			"0.0": 20.6544282946,
			"0.001": 19.4189254195,
			"0.002": 22.0581612359,
			"0.003": 20.1236573753,
			"0.004": 16.5719995424,
			"0.005": 12.3337240959,
			"0.006": 3.6715778693,
			"0.007": 2.96795810184,
			"0.008": 3.07108067575,
			"0.009": 2.18209700787,
			"0.01": 1.85405637935,
			"0.011": 2.43185487691,
			"0.012": 2.5675968464,
			"0.013": 1.90666150957,
			"0.014": 1.35309842761,
			"0.015": 0.0,
			"0.016": 0.0,
			"0.017": 0.0,
			"0.018": 0.0,
			"0.019": 0.0,
			"0.02": 0.0,
			"0.021": 0.0,
			"0.022": 0.0,
			"0.023": 0.0,
			"0.024": 0.0,
			"0.025": 0.0
		}
	}
}
