{
	 "smiles": "IC1=C(C=CC=C1C1=CC=CC=C1)C1=CC=CC=C1", 
	 "Tm": 388.15, 
	 "num_atms": 32, 
	 "gaussian": { 
		 "optdone": 1, 
		 "sigma_profile": "no", 
		 "theory": "DFT", 
		 "functional": "B3LYP", 
		 "basiset": "6-31G**", 
		 "properties": { 
			 "R2extent": 6340.7893, 
			 "electric_dipole_moment_norm": 1.485922074, 
			 "electric_quadrupole_moment_norm": 7.90044294201, 
			 "total_energy": -705.139798946, 
			 "HOMO_LUMO_gap": 0.19612, 
			 "cosmo_polarized_energy": -68123.19, 
			 "cosmo_cavitation_energy": 38.88, 
			 "cosmo_dispersion_energy": -27.84, 
			 "cosmo_repulsion_energy": 2.13, 
			 "cosmo_total_nonelectrostatic_energy": 13.17, 
			 "SMD_solvation_energy": 5.5 
		},
		"coords": [
			{
				"x": 0.2060480369,
				"y": -1.9122496314,
				"z": 0.2263557582,
				"element": "I" 
			},
			{
				"x": 0.1149314286,
				"y": 0.2194409605,
				"z": 0.116947179,
				"element": "C" 
			},
			{
				"x": 0.2603042583,
				"y": 0.9739020667,
				"z": 1.2980514001,
				"element": "C" 
			},
			{
				"x": 0.2085868224,
				"y": 2.3739487129,
				"z": 1.1961593323,
				"element": "C" 
			},
			{
				"x": -0.002300775,
				"y": 3.0035331519,
				"z": -0.0261086728,
				"element": "C" 
			},
			{
				"x": -0.1546475262,
				"y": 2.2367232173,
				"z": -1.1765733814,
				"element": "C" 
			},
			{
				"x": -0.0884481003,
				"y": 0.8342071324,
				"z": -1.1344215401,
				"element": "C" 
			},
			{
				"x": -0.2352432725,
				"y": 0.096606239,
				"z": -2.4255632729,
				"element": "C" 
			},
			{
				"x": -1.4675078398,
				"y": 0.0954957456,
				"z": -3.0942050433,
				"element": "C" 
			},
			{
				"x": -1.6076472907,
				"y": -0.5473438673,
				"z": -4.3253132132,
				"element": "C" 
			},
			{
				"x": -0.5135773021,
				"y": -1.1869004248,
				"z": -4.9095386128,
				"element": "C" 
			},
			{
				"x": 0.7215743685,
				"y": -1.1791631185,
				"z": -4.2572907384,
				"element": "C" 
			},
			{
				"x": 0.8600988415,
				"y": -0.5427937151,
				"z": -3.0244121023,
				"element": "C" 
			},
			{
				"x": 0.4617889299,
				"y": 0.3871503102,
				"z": 2.6573303399,
				"element": "C" 
			},
			{
				"x": -0.5788184288,
				"y": -0.278653272,
				"z": 3.3214942856,
				"element": "C" 
			},
			{
				"x": -0.3940346313,
				"y": -0.7716933213,
				"z": 4.6125729756,
				"element": "C" 
			},
			{
				"x": 0.8333964807,
				"y": -0.6076121842,
				"z": 5.2587713346,
				"element": "C" 
			},
			{
				"x": 1.8725956706,
				"y": 0.0598148051,
				"z": 4.6092017616,
				"element": "C" 
			},
			{
				"x": 1.6856378669,
				"y": 0.5593535258,
				"z": 3.3192330081,
				"element": "C" 
			},
			{
				"x": 0.3201330128,
				"y": 2.9602764434,
				"z": 2.1031224323,
				"element": "H" 
			},
			{
				"x": -0.0478080744,
				"y": 4.0870852634,
				"z": -0.0818014633,
				"element": "H" 
			},
			{
				"x": -0.3112420521,
				"y": 2.7157210187,
				"z": -2.1382603311,
				"element": "H" 
			},
			{
				"x": -2.3196837009,
				"y": 0.5930756901,
				"z": -2.6399007024,
				"element": "H" 
			},
			{
				"x": -2.5713191542,
				"y": -0.5468507096,
				"z": -4.8267682689,
				"element": "H" 
			},
			{
				"x": -0.6207981355,
				"y": -1.6852114526,
				"z": -5.8687612501,
				"element": "H" 
			},
			{
				"x": 1.5799585691,
				"y": -1.6671729397,
				"z": -4.7101525458,
				"element": "H" 
			},
			{
				"x": 1.8224064215,
				"y": -0.5365585642,
				"z": -2.5216455549,
				"element": "H" 
			},
			{
				"x": -1.5351618158,
				"y": -0.4057545821,
				"z": 2.8233974312,
				"element": "H" 
			},
			{
				"x": -1.2105395552,
				"y": -1.2821901363,
				"z": 5.1153452861,
				"element": "H" 
			},
			{
				"x": 0.9768547489,
				"y": -0.9944828591,
				"z": 6.2635935942,
				"element": "H" 
			},
			{
				"x": 2.8297548523,
				"y": 0.1935185574,
				"z": 5.105275046,
				"element": "H" 
			},
			{
				"x": 2.495207346,
				"y": 1.0784779381,
				"z": 2.8139655292,
				"element": "H" 
			}
		],
		 "valence_orbital": [ 
			{
				"type": "occ",
				"energy": -0.25021,
				"method": "rhf"
			},
			{
				"type": "occ",
				"energy": -0.24834,
				"method": "rhf"
			},
			{
				"type": "occ",
				"energy": -0.23911,
				"method": "rhf"
			},
			{
				"type": "occ",
				"energy": -0.23884,
				"method": "rhf"
			},
			{
				"type": "occ",
				"energy": -0.22739,
				"method": "rhf"
			},
			{
				"type": "unocc",
				"energy": -0.03127,
				"method": "rhf"
			},
			{
				"type": "unocc",
				"energy": -0.02252,
				"method": "rhf"
			},
			{
				"type": "unocc",
				"energy": -0.02175,
				"method": "rhf"
			},
			{
				"type": "unocc",
				"energy": -0.00131,
				"method": "rhf"
			},
			{
				"type": "unocc",
				"energy": -0.0004,
				"method": "rhf"
			}
		],
		"cosmo_sigma_profile": { 
			"0.0": 0.0,
			"0.0": 0.0,
			"0.0": 0.0,
			"0.0": 0.0,
			"0.0": 0.0,
			"0.0": 0.0,
			"0.0": 0.0,
			"0.0": 0.0,
			"0.0": 0.0,
			"0.0": 0.0,
			"0.0": 0.0,
			"0.0": 0.0,
			"0.0": 0.0,
			"0.0": 0.0,
			"0.0": 0.0,
			"0.0": 0.0,
			"0.0": 0.0,
			"0.0": 0.0,
			"0.0": 0.0,
			"0.0": 0.0,
			"0.0": 0.0,
			"0.0": 0.0,
			"0.0": 0.0,
			"0.0": 0.0,
			"0.0": 0.0,
			"0.0": 0.0,
			"0.0": 0.0,
			"0.0": 0.0,
			"0.0": 0.0,
			"0.0": 0.0,
			"0.0": 0.0,
			"0.0": 0.0,
			"0.0": 0.0,
			"0.0": 0.0,
			"0.0": 0.0,
			"0.0": 0.0,
			"0.0": 0.0,
			"0.0": 0.0,
			"0.0": 0.0,
			"0.0": 0.0,
			"0.0": 0.0,
			"0.0": 0.0,
			"0.0": 0.0,
			"0.0": 0.0,
			"0.0": 0.0,
			"0.0": 0.0,
			"0.0": 0.0,
			"0.0": 0.0,
			"0.0": 0.0,
			"0.0": 0.0,
			"0.0": 0.0
		}
	}
}
