{
	 "smiles": "NC1=CC=CC=C1C1=CN=CO1", 
	 "Tm": 328.15, 
	 "num_atms": 20, 
	 "gaussian": { 
		 "optdone": 1, 
		 "sigma_profile": "yes", 
		 "theory": "DFT", 
		 "functional": "B3LYP", 
		 "basiset": "6-31G**", 
		 "properties": { 
			 "R2extent": 2272.4914, 
			 "electric_dipole_moment_norm": 2.2137733398, 
			 "electric_quadrupole_moment_norm": 13.0656108897, 
			 "total_energy": -532.492925684, 
			 "HOMO_LUMO_gap": 0.17201, 
			 "cosmo_polarized_energy": -10.69, 
			 "cosmo_cavitation_energy": 24.01, 
			 "cosmo_dispersion_energy": -18.13, 
			 "cosmo_repulsion_energy": 1.41, 
			 "cosmo_total_nonelectrostatic_energy": 7.3, 
			 "SMD_solvation_energy": 3.26 
		},
		"coords": [
			{
				"x": -2.091593148,
				"y": -0.5436323304,
				"z": -2.1242433801,
				"element": "N" 
			},
			{
				"x": -1.3988751198,
				"y": 0.3941521045,
				"z": -1.3569627547,
				"element": "C" 
			},
			{
				"x": -1.8791385844,
				"y": 1.7104264255,
				"z": -1.2540811385,
				"element": "C" 
			},
			{
				"x": -1.2214910308,
				"y": 2.6592468297,
				"z": -0.4795284158,
				"element": "C" 
			},
			{
				"x": -0.0517153921,
				"y": 2.3198105256,
				"z": 0.2063887671,
				"element": "C" 
			},
			{
				"x": 0.4328099216,
				"y": 1.0201810694,
				"z": 0.1193235373,
				"element": "C" 
			},
			{
				"x": -0.2263200938,
				"y": 0.0372466284,
				"z": -0.6410085901,
				"element": "C" 
			},
			{
				"x": 0.3012536919,
				"y": -1.3210899455,
				"z": -0.6788392083,
				"element": "C" 
			},
			{
				"x": -0.1976280386,
				"y": -2.5739680357,
				"z": -0.9283253927,
				"element": "C" 
			},
			{
				"x": 0.8014759923,
				"y": -3.5248377352,
				"z": -0.7679925426,
				"element": "N" 
			},
			{
				"x": 1.842578942,
				"y": -2.8333108604,
				"z": -0.4347385758,
				"element": "C" 
			},
			{
				"x": 1.6334461883,
				"y": -1.4947309675,
				"z": -0.3578955048,
				"element": "O" 
			},
			{
				"x": -1.5077391494,
				"y": -1.2479913467,
				"z": -2.5592615149,
				"element": "H" 
			},
			{
				"x": -2.737836427,
				"y": -0.1348606344,
				"z": -2.786388449,
				"element": "H" 
			},
			{
				"x": -2.7795204201,
				"y": 1.9824761676,
				"z": -1.799862144,
				"element": "H" 
			},
			{
				"x": -1.6184056137,
				"y": 3.6686218565,
				"z": -0.4201013397,
				"element": "H" 
			},
			{
				"x": 0.4712320833,
				"y": 3.0574720837,
				"z": 0.8064107323,
				"element": "H" 
			},
			{
				"x": 1.3347238036,
				"y": 0.7393152647,
				"z": 0.6525498658,
				"element": "H" 
			},
			{
				"x": -1.2127668424,
				"y": -2.8577256672,
				"z": -1.1590491194,
				"element": "H" 
			},
			{
				"x": 2.8414092372,
				"y": -3.1816014325,
				"z": -0.216394832,
				"element": "H" 
			}
		],
		 "valence_orbital": [ 
			{
				"type": "occ",
				"energy": -0.31384,
				"method": "rhf"
			},
			{
				"type": "occ",
				"energy": -0.2895,
				"method": "rhf"
			},
			{
				"type": "occ",
				"energy": -0.28269,
				"method": "rhf"
			},
			{
				"type": "occ",
				"energy": -0.23038,
				"method": "rhf"
			},
			{
				"type": "occ",
				"energy": -0.20348,
				"method": "rhf"
			},
			{
				"type": "unocc",
				"energy": -0.03147,
				"method": "rhf"
			},
			{
				"type": "unocc",
				"energy": 0.00876,
				"method": "rhf"
			},
			{
				"type": "unocc",
				"energy": 0.02489,
				"method": "rhf"
			},
			{
				"type": "unocc",
				"energy": 0.0667,
				"method": "rhf"
			},
			{
				"type": "unocc",
				"energy": 0.08515,
				"method": "rhf"
			}
		],
		"cosmo_sigma_profile": { 
			"-0.025": 0.0,
			"-0.024": 0.0,
			"-0.023": 0.0,
			"-0.022": 0.0,
			"-0.021": 0.0,
			"-0.02": 0.0,
			"-0.019": 0.0,
			"-0.018": 0.0,
			"-0.017": 0.0,
			"-0.016": 0.0,
			"-0.015": 0.0,
			"-0.014": 0.0,
			"-0.013": 0.616510424262,
			"-0.012": 1.56950409899,
			"-0.011": 2.68634347333,
			"-0.01": 5.34556019818,
			"-0.009": 4.25668508429,
			"-0.008": 4.73387762966,
			"-0.007": 5.53201623848,
			"-0.006": 7.07203069763,
			"-0.005": 10.9342194413,
			"-0.004": 11.5171402619,
			"-0.003": 11.5727304389,
			"-0.002": 10.7416976672,
			"-0.001": 11.245928406,
			"0.0": 12.331147572,
			"0.001": 12.6392519999,
			"0.002": 12.854886385,
			"0.003": 14.636738796,
			"0.004": 13.4999711901,
			"0.005": 12.4310470474,
			"0.006": 10.2708909135,
			"0.007": 3.18223830538,
			"0.008": 2.0209948087,
			"0.009": 1.76869880935,
			"0.01": 1.61534193414,
			"0.011": 1.51400004534,
			"0.012": 1.99529576175,
			"0.013": 1.49605761981,
			"0.014": 1.06062979478,
			"0.015": 1.18520310262,
			"0.016": 0.579093685061,
			"0.017": 0.0,
			"0.018": 0.0,
			"0.019": 0.0,
			"0.02": 0.0,
			"0.021": 0.0,
			"0.022": 0.0,
			"0.023": 0.0,
			"0.024": 0.0,
			"0.025": 0.0
		}
	}
}
