{
	 "smiles": "OC(=O)C=CC1=CC=CC=C1", 
	 "Tm": 407.15, 
	 "num_atms": 19, 
	 "gaussian": { 
		 "optdone": 1, 
		 "sigma_profile": "yes", 
		 "theory": "DFT", 
		 "functional": "B3LYP", 
		 "basiset": "6-31G**", 
		 "properties": { 
			 "R2extent": 3050.9554, 
			 "electric_dipole_moment_norm": 5.223289543, 
			 "electric_quadrupole_moment_norm": 22.0110569044, 
			 "total_energy": -498.220907368, 
			 "HOMO_LUMO_gap": 0.17051, 
			 "cosmo_polarized_energy": -15.76, 
			 "cosmo_cavitation_energy": 24.07, 
			 "cosmo_dispersion_energy": -17.62, 
			 "cosmo_repulsion_energy": 1.41, 
			 "cosmo_total_nonelectrostatic_energy": 7.85, 
			 "SMD_solvation_energy": 5.48 
		},
		"coords": [
			{
				"x": 3.9866240299,
				"y": -2.6663656616,
				"z": 0.3367124103,
				"element": "O" 
			},
			{
				"x": 2.7084751637,
				"y": -2.6977925492,
				"z": -0.1373685639,
				"element": "C" 
			},
			{
				"x": 2.1376985521,
				"y": -3.759543194,
				"z": -0.2492046607,
				"element": "O" 
			},
			{
				"x": 2.1176117973,
				"y": -1.380097618,
				"z": -0.4835112367,
				"element": "C" 
			},
			{
				"x": 0.8606590006,
				"y": -1.318984615,
				"z": -0.9604111457,
				"element": "C" 
			},
			{
				"x": 0.0991800349,
				"y": -0.1356940124,
				"z": -1.3579221875,
				"element": "C" 
			},
			{
				"x": 0.6121615548,
				"y": 1.174613355,
				"z": -1.2892444665,
				"element": "C" 
			},
			{
				"x": -0.1608441947,
				"y": 2.2617106767,
				"z": -1.6820532298,
				"element": "C" 
			},
			{
				"x": -1.4640825696,
				"y": 2.0676112769,
				"z": -2.1527681028,
				"element": "C" 
			},
			{
				"x": -1.9880595974,
				"y": 0.7764839041,
				"z": -2.2273725789,
				"element": "C" 
			},
			{
				"x": -1.2131673064,
				"y": -0.3126555007,
				"z": -1.8336390677,
				"element": "C" 
			},
			{
				"x": 4.3106848645,
				"y": -1.7558383276,
				"z": 0.3698082721,
				"element": "H" 
			},
			{
				"x": 2.7189102272,
				"y": -0.4841252033,
				"z": -0.3428189534,
				"element": "H" 
			},
			{
				"x": 0.3493924445,
				"y": -2.2754039202,
				"z": -1.0614397209,
				"element": "H" 
			},
			{
				"x": 1.6214361747,
				"y": 1.3436417685,
				"z": -0.9264741397,
				"element": "H" 
			},
			{
				"x": 0.2507435973,
				"y": 3.2650347057,
				"z": -1.6223977091,
				"element": "H" 
			},
			{
				"x": -2.0645866791,
				"y": 2.9192628166,
				"z": -2.4586065811,
				"element": "H" 
			},
			{
				"x": -2.9986681798,
				"y": 0.6174032111,
				"z": -2.5915540536,
				"element": "H" 
			},
			{
				"x": -1.6219689146,
				"y": -1.3178611127,
				"z": -1.8920342844,
				"element": "H" 
			}
		],
		 "valence_orbital": [ 
			{
				"type": "occ",
				"energy": -0.32104,
				"method": "rhf"
			},
			{
				"type": "occ",
				"energy": -0.30289,
				"method": "rhf"
			},
			{
				"type": "occ",
				"energy": -0.26792,
				"method": "rhf"
			},
			{
				"type": "occ",
				"energy": -0.26659,
				"method": "rhf"
			},
			{
				"type": "occ",
				"energy": -0.24199,
				"method": "rhf"
			},
			{
				"type": "unocc",
				"energy": -0.07148,
				"method": "rhf"
			},
			{
				"type": "unocc",
				"energy": -0.01539,
				"method": "rhf"
			},
			{
				"type": "unocc",
				"energy": 0.01713,
				"method": "rhf"
			},
			{
				"type": "unocc",
				"energy": 0.05835,
				"method": "rhf"
			},
			{
				"type": "unocc",
				"energy": 0.08146,
				"method": "rhf"
			}
		],
		"cosmo_sigma_profile": { 
			"-0.025": 0.0,
			"-0.024": 0.0,
			"-0.023": 0.0,
			"-0.022": 0.0,
			"-0.021": 0.0,
			"-0.02": 0.0,
			"-0.019": 0.578724228775,
			"-0.018": 1.06936209227,
			"-0.017": 1.79181409566,
			"-0.016": 0.875186760834,
			"-0.015": 0.629028926677,
			"-0.014": 1.20655433787,
			"-0.013": 1.04250812042,
			"-0.012": 1.13032778147,
			"-0.011": 0.818542252365,
			"-0.01": 1.60486087099,
			"-0.009": 2.01799439587,
			"-0.008": 2.38693582885,
			"-0.007": 5.32244826238,
			"-0.006": 12.4391055722,
			"-0.005": 12.9924113124,
			"-0.004": 12.8636315917,
			"-0.003": 10.0396998583,
			"-0.002": 10.6545657937,
			"-0.001": 9.48095295551,
			"0.0": 10.8927239459,
			"0.001": 12.5346128597,
			"0.002": 14.4868416889,
			"0.003": 15.3595961323,
			"0.004": 14.3212897551,
			"0.005": 7.16105466812,
			"0.006": 2.51871083298,
			"0.007": 1.92625992488,
			"0.008": 2.86813159871,
			"0.009": 3.4650945477,
			"0.01": 2.96897265087,
			"0.011": 5.58168323805,
			"0.012": 5.64455782291,
			"0.013": 3.33600554902,
			"0.014": 0.761920091578,
			"0.015": 0.0,
			"0.016": 0.0,
			"0.017": 0.0,
			"0.018": 0.0,
			"0.019": 0.0,
			"0.02": 0.0,
			"0.021": 0.0,
			"0.022": 0.0,
			"0.023": 0.0,
			"0.024": 0.0,
			"0.025": 0.0
		}
	}
}
