{
	 "smiles": "OC(=O)CC1=C(CC#N)C=CC=C1", 
	 "Tm": 373.15, 
	 "num_atms": 22, 
	 "gaussian": { 
		 "optdone": 1, 
		 "sigma_profile": "yes", 
		 "theory": "DFT", 
		 "functional": "B3LYP", 
		 "basiset": "6-31G**", 
		 "properties": { 
			 "R2extent": 2405.1028, 
			 "electric_dipole_moment_norm": 4.04757365467, 
			 "electric_quadrupole_moment_norm": 11.4978139387, 
			 "total_energy": -591.685143374, 
			 "HOMO_LUMO_gap": 0.23072, 
			 "cosmo_polarized_energy": -16.33, 
			 "cosmo_cavitation_energy": 27.11, 
			 "cosmo_dispersion_energy": -18.55, 
			 "cosmo_repulsion_energy": 1.47, 
			 "cosmo_total_nonelectrostatic_energy": 10.03, 
			 "SMD_solvation_energy": 7.0 
		},
		"coords": [
			{
				"x": -0.0904222497,
				"y": 1.0765835884,
				"z": 2.8768738862,
				"element": "O" 
			},
			{
				"x": 1.1351057216,
				"y": 0.662481459,
				"z": 2.4750311921,
				"element": "C" 
			},
			{
				"x": 1.8199764633,
				"y": -0.1014114157,
				"z": 3.1133738071,
				"element": "O" 
			},
			{
				"x": 1.5024617445,
				"y": 1.2503221537,
				"z": 1.1195978393,
				"element": "C" 
			},
			{
				"x": 1.1184211275,
				"y": 0.309281269,
				"z": -0.0150392523,
				"element": "C" 
			},
			{
				"x": -0.1836143544,
				"y": 0.2303027015,
				"z": -0.5469285388,
				"element": "C" 
			},
			{
				"x": -1.3439878393,
				"y": 1.0796936244,
				"z": -0.0333330882,
				"element": "C" 
			},
			{
				"x": -2.2750539235,
				"y": 0.3140247692,
				"z": 0.8070563694,
				"element": "C" 
			},
			{
				"x": -3.0161077713,
				"y": -0.2981855023,
				"z": 1.4575184371,
				"element": "N" 
			},
			{
				"x": -0.4446457474,
				"y": -0.6667912844,
				"z": -1.5911406283,
				"element": "C" 
			},
			{
				"x": 0.5528016187,
				"y": -1.4907634864,
				"z": -2.1052669447,
				"element": "C" 
			},
			{
				"x": 1.8406747659,
				"y": -1.4226278405,
				"z": -1.5734999651,
				"element": "C" 
			},
			{
				"x": 2.1125947365,
				"y": -0.5291805181,
				"z": -0.5408345897,
				"element": "C" 
			},
			{
				"x": -0.3033126107,
				"y": 0.5960597224,
				"z": 3.6950358604,
				"element": "H" 
			},
			{
				"x": 1.0335179226,
				"y": 2.2316056614,
				"z": 1.0093296701,
				"element": "H" 
			},
			{
				"x": 2.5851202398,
				"y": 1.3901001087,
				"z": 1.11785539,
				"element": "H" 
			},
			{
				"x": -1.9122284096,
				"y": 1.4800129796,
				"z": -0.8812933236,
				"element": "H" 
			},
			{
				"x": -1.0001602408,
				"y": 1.9343034164,
				"z": 0.5532261907,
				"element": "H" 
			},
			{
				"x": -1.4508006604,
				"y": -0.721040434,
				"z": -1.999217042,
				"element": "H" 
			},
			{
				"x": 0.3255939051,
				"y": -2.1786982848,
				"z": -2.9139724775,
				"element": "H" 
			},
			{
				"x": 2.6307161048,
				"y": -2.0582918277,
				"z": -1.9618554729,
				"element": "H" 
			},
			{
				"x": 3.1150494569,
				"y": -0.4755808597,
				"z": -0.1259173191,
				"element": "H" 
			}
		],
		 "valence_orbital": [ 
			{
				"type": "occ",
				"energy": -0.32128,
				"method": "rhf"
			},
			{
				"type": "occ",
				"energy": -0.31874,
				"method": "rhf"
			},
			{
				"type": "occ",
				"energy": -0.28825,
				"method": "rhf"
			},
			{
				"type": "occ",
				"energy": -0.26246,
				"method": "rhf"
			},
			{
				"type": "occ",
				"energy": -0.25665,
				"method": "rhf"
			},
			{
				"type": "unocc",
				"energy": -0.02593,
				"method": "rhf"
			},
			{
				"type": "unocc",
				"energy": -0.02244,
				"method": "rhf"
			},
			{
				"type": "unocc",
				"energy": 0.00745,
				"method": "rhf"
			},
			{
				"type": "unocc",
				"energy": 0.04099,
				"method": "rhf"
			},
			{
				"type": "unocc",
				"energy": 0.04259,
				"method": "rhf"
			}
		],
		"cosmo_sigma_profile": { 
			"-0.025": 0.0,
			"-0.024": 0.0,
			"-0.023": 0.0,
			"-0.022": 0.0,
			"-0.021": 0.0,
			"-0.02": 0.0,
			"-0.019": 0.0,
			"-0.018": 1.15318101881,
			"-0.017": 0.626908519576,
			"-0.016": 0.360538652977,
			"-0.015": 1.24629478603,
			"-0.014": 0.83265319519,
			"-0.013": 0.601219334841,
			"-0.012": 0.330210894322,
			"-0.011": 0.881928223983,
			"-0.01": 0.981361384692,
			"-0.009": 3.57385489042,
			"-0.008": 5.76689569992,
			"-0.007": 10.3107954727,
			"-0.006": 16.2338430798,
			"-0.005": 17.1633810246,
			"-0.004": 15.6659776156,
			"-0.003": 13.5790951828,
			"-0.002": 11.3917250487,
			"-0.001": 9.04384737041,
			"0.0": 8.52862442066,
			"0.001": 10.2705394093,
			"0.002": 10.8217367651,
			"0.003": 11.6918358788,
			"0.004": 15.690115215,
			"0.005": 9.21587871958,
			"0.006": 3.92748814627,
			"0.007": 5.86454641427,
			"0.008": 4.19872713294,
			"0.009": 4.95920440406,
			"0.01": 5.44837948424,
			"0.011": 7.33431185658,
			"0.012": 6.01366322347,
			"0.013": 2.55160339362,
			"0.014": 0.453710813728,
			"0.015": 0.0,
			"0.016": 0.0,
			"0.017": 0.0,
			"0.018": 0.0,
			"0.019": 0.0,
			"0.02": 0.0,
			"0.021": 0.0,
			"0.022": 0.0,
			"0.023": 0.0,
			"0.024": 0.0,
			"0.025": 0.0
		}
	}
}
