{
	 "smiles": "CC1=C(CC(O)=O)C(=O)NC(=N1)C1=CN=CC=C1", 
	 "Tm": 537.15, 
	 "num_atms": 29, 
	 "gaussian": { 
		 "optdone": 1, 
		 "sigma_profile": "yes", 
		 "theory": "DFT", 
		 "functional": "B3LYP", 
		 "basiset": "6-31G**", 
		 "properties": { 
			 "R2extent": 5979.7445, 
			 "electric_dipole_moment_norm": 7.14597949129, 
			 "electric_quadrupole_moment_norm": 18.2534743482, 
			 "total_energy": -853.871724177, 
			 "HOMO_LUMO_gap": 0.15225, 
			 "cosmo_polarized_energy": -22.73, 
			 "cosmo_cavitation_energy": 33.72, 
			 "cosmo_dispersion_energy": -24.5, 
			 "cosmo_repulsion_energy": 1.86, 
			 "cosmo_total_nonelectrostatic_energy": 11.07, 
			 "SMD_solvation_energy": 4.77 
		},
		"coords": [
			{
				"x": 1.4076386468,
				"y": 1.5801590306,
				"z": 2.9304971531,
				"element": "C" 
			},
			{
				"x": 0.9649976274,
				"y": 1.001916404,
				"z": 1.6114841131,
				"element": "C" 
			},
			{
				"x": 0.8021351125,
				"y": -0.3556818206,
				"z": 1.4173264797,
				"element": "C" 
			},
			{
				"x": 1.1037765173,
				"y": -1.4112813875,
				"z": 2.4526134143,
				"element": "C" 
			},
			{
				"x": -0.1573401871,
				"y": -1.9681995969,
				"z": 3.1408084868,
				"element": "C" 
			},
			{
				"x": -0.9821855477,
				"y": -2.6669496732,
				"z": 2.3470307125,
				"element": "O" 
			},
			{
				"x": -0.3882925804,
				"y": -1.7896720666,
				"z": 4.313889839,
				"element": "O" 
			},
			{
				"x": 0.276221616,
				"y": -0.8183695739,
				"z": 0.1557526449,
				"element": "C" 
			},
			{
				"x": -0.0343367025,
				"y": -1.9885076609,
				"z": -0.1208166866,
				"element": "O" 
			},
			{
				"x": 0.0986981471,
				"y": 0.1849336893,
				"z": -0.7965970221,
				"element": "N" 
			},
			{
				"x": 0.3466526356,
				"y": 1.5087505108,
				"z": -0.5555099603,
				"element": "C" 
			},
			{
				"x": 0.7534801258,
				"y": 1.9242253281,
				"z": 0.6156379416,
				"element": "N" 
			},
			{
				"x": 0.1356799465,
				"y": 2.4770600545,
				"z": -1.6512556272,
				"element": "C" 
			},
			{
				"x": -0.0394208711,
				"y": 3.8380765569,
				"z": -1.3398081507,
				"element": "C" 
			},
			{
				"x": -0.237978256,
				"y": 4.7887138341,
				"z": -2.2535580504,
				"element": "N" 
			},
			{
				"x": -0.2672420918,
				"y": 4.4162617452,
				"z": -3.5406229636,
				"element": "C" 
			},
			{
				"x": -0.099109028,
				"y": 3.0972909061,
				"z": -3.9646572458,
				"element": "C" 
			},
			{
				"x": 0.1078340422,
				"y": 2.1118929924,
				"z": -3.0040766441,
				"element": "C" 
			},
			{
				"x": 0.8895030131,
				"y": 1.1080389587,
				"z": 3.7691864839,
				"element": "H" 
			},
			{
				"x": 2.4844347684,
				"y": 1.4314236323,
				"z": 3.0789873263,
				"element": "H" 
			},
			{
				"x": 1.2130677092,
				"y": 2.6533192025,
				"z": 2.9384924281,
				"element": "H" 
			},
			{
				"x": 1.7519384133,
				"y": -1.0232193161,
				"z": 3.2364165481,
				"element": "H" 
			},
			{
				"x": 1.6177651403,
				"y": -2.2445436327,
				"z": 1.9575688702,
				"element": "H" 
			},
			{
				"x": -0.6541912014,
				"y": -2.6511444606,
				"z": 1.4166666239,
				"element": "H" 
			},
			{
				"x": -0.3130706308,
				"y": -0.1234688074,
				"z": -1.6695083802,
				"element": "H" 
			},
			{
				"x": -0.0169386092,
				"y": 4.1465130405,
				"z": -0.2987103602,
				"element": "H" 
			},
			{
				"x": -0.4282682506,
				"y": 5.2109982531,
				"z": -4.2662955829,
				"element": "H" 
			},
			{
				"x": -0.1190256139,
				"y": 2.8515466944,
				"z": -5.0212130827,
				"element": "H" 
			},
			{
				"x": 0.2760761089,
				"y": 1.0849171629,
				"z": -3.3177293089,
				"element": "H" 
			}
		],
		 "valence_orbital": [ 
			{
				"type": "occ",
				"energy": -0.29403,
				"method": "rhf"
			},
			{
				"type": "occ",
				"energy": -0.29186,
				"method": "rhf"
			},
			{
				"type": "occ",
				"energy": -0.27589,
				"method": "rhf"
			},
			{
				"type": "occ",
				"energy": -0.26632,
				"method": "rhf"
			},
			{
				"type": "occ",
				"energy": -0.24128,
				"method": "rhf"
			},
			{
				"type": "unocc",
				"energy": -0.08903,
				"method": "rhf"
			},
			{
				"type": "unocc",
				"energy": -0.04904,
				"method": "rhf"
			},
			{
				"type": "unocc",
				"energy": -0.04023,
				"method": "rhf"
			},
			{
				"type": "unocc",
				"energy": -0.00123,
				"method": "rhf"
			},
			{
				"type": "unocc",
				"energy": 0.02593,
				"method": "rhf"
			}
		],
		"cosmo_sigma_profile": { 
			"-0.025": 0.0,
			"-0.024": 0.0,
			"-0.023": 0.0,
			"-0.022": 0.0,
			"-0.021": 0.0,
			"-0.02": 0.0,
			"-0.019": 0.0,
			"-0.018": 0.155822236945,
			"-0.017": 0.923223883108,
			"-0.016": 1.3245401003,
			"-0.015": 1.1367664332,
			"-0.014": 1.07795490946,
			"-0.013": 1.3887787558,
			"-0.012": 1.04336330617,
			"-0.011": 1.51426955693,
			"-0.01": 1.10969403592,
			"-0.009": 2.39102611108,
			"-0.008": 3.88285169707,
			"-0.007": 9.98795659836,
			"-0.006": 15.6708470051,
			"-0.005": 17.0746404694,
			"-0.004": 22.6842360258,
			"-0.003": 24.1096294908,
			"-0.002": 21.4779030583,
			"-0.001": 21.9670228384,
			"0.0": 20.5850574609,
			"0.001": 16.841610983,
			"0.002": 9.18218838113,
			"0.003": 7.616020266,
			"0.004": 6.84021162811,
			"0.005": 4.6268932703,
			"0.006": 6.6465959709,
			"0.007": 6.59471360486,
			"0.008": 5.4933285533,
			"0.009": 4.30255331803,
			"0.01": 6.60626775152,
			"0.011": 9.07417533876,
			"0.012": 9.33888968021,
			"0.013": 4.88394023937,
			"0.014": 1.10794110518,
			"0.015": 1.07236312869,
			"0.016": 0.416221061624,
			"0.017": 0.0,
			"0.018": 0.0,
			"0.019": 0.0,
			"0.02": 0.0,
			"0.021": 0.0,
			"0.022": 0.0,
			"0.023": 0.0,
			"0.024": 0.0,
			"0.025": 0.0
		}
	}
}
