{
	 "smiles": "OCCNC(=O)C1CCCNC1", 
	 "Tm": 392.15, 
	 "num_atms": 28, 
	 "gaussian": { 
		 "optdone": 1, 
		 "sigma_profile": "yes", 
		 "theory": "DFT", 
		 "functional": "B3LYP", 
		 "basiset": "6-31G**", 
		 "properties": { 
			 "R2extent": 3136.2906, 
			 "electric_dipole_moment_norm": 6.84328507224, 
			 "electric_quadrupole_moment_norm": 20.0117002976, 
			 "total_energy": -574.453988417, 
			 "HOMO_LUMO_gap": 0.2578, 
			 "cosmo_polarized_energy": -13.71, 
			 "cosmo_cavitation_energy": 28.09, 
			 "cosmo_dispersion_energy": -21.01, 
			 "cosmo_repulsion_energy": 1.71, 
			 "cosmo_total_nonelectrostatic_energy": 8.79, 
			 "SMD_solvation_energy": 3.43 
		},
		"coords": [
			{
				"x": -2.230689056,
				"y": 4.3054282098,
				"z": 0.4116677851,
				"element": "O" 
			},
			{
				"x": -0.9496645067,
				"y": 4.2916044614,
				"z": 0.9886708103,
				"element": "C" 
			},
			{
				"x": 0.0352355176,
				"y": 3.3352743729,
				"z": 0.2935025866,
				"element": "C" 
			},
			{
				"x": -0.0492492115,
				"y": 1.9327955965,
				"z": 0.7097499707,
				"element": "N" 
			},
			{
				"x": -1.1521464635,
				"y": 1.153011278,
				"z": 0.5905811851,
				"element": "C" 
			},
			{
				"x": -2.2584416592,
				"y": 1.5659822274,
				"z": 0.2240705501,
				"element": "O" 
			},
			{
				"x": -0.9331525538,
				"y": -0.3258374238,
				"z": 0.9245927646,
				"element": "C" 
			},
			{
				"x": -0.21852959,
				"y": -1.0440017235,
				"z": -0.264922868,
				"element": "C" 
			},
			{
				"x": 0.7117677473,
				"y": -2.1542744353,
				"z": 0.2373454432,
				"element": "C" 
			},
			{
				"x": 1.8113387204,
				"y": -1.5853085463,
				"z": 1.1579399828,
				"element": "C" 
			},
			{
				"x": 1.3069871313,
				"y": -0.4159858697,
				"z": 1.9112903358,
				"element": "N" 
			},
			{
				"x": -0.1228664291,
				"y": -0.5257903396,
				"z": 2.227982606,
				"element": "C" 
			},
			{
				"x": -2.4881357843,
				"y": 3.368311328,
				"z": 0.2992890968,
				"element": "H" 
			},
			{
				"x": -0.9687752085,
				"y": 4.0479872702,
				"z": 2.0665486716,
				"element": "H" 
			},
			{
				"x": -0.5503085663,
				"y": 5.3097494843,
				"z": 0.896858954,
				"element": "H" 
			},
			{
				"x": 1.0614474639,
				"y": 3.6513431992,
				"z": 0.5063367417,
				"element": "H" 
			},
			{
				"x": -0.1234293273,
				"y": 3.4193957078,
				"z": -0.7896890117,
				"element": "H" 
			},
			{
				"x": 0.7962167632,
				"y": 1.4477085784,
				"z": 1.0078575658,
				"element": "H" 
			},
			{
				"x": -1.9338990793,
				"y": -0.7436433166,
				"z": 1.0621851465,
				"element": "H" 
			},
			{
				"x": 0.3724908093,
				"y": -0.3155407899,
				"z": -0.8313831055,
				"element": "H" 
			},
			{
				"x": -0.9647442899,
				"y": -1.4451612957,
				"z": -0.9567750738,
				"element": "H" 
			},
			{
				"x": 0.122761324,
				"y": -2.9052483182,
				"z": 0.7773273997,
				"element": "H" 
			},
			{
				"x": 1.1781499933,
				"y": -2.6776972522,
				"z": -0.6037115724,
				"element": "H" 
			},
			{
				"x": 2.6701821988,
				"y": -1.2582617258,
				"z": 0.5589462148,
				"element": "H" 
			},
			{
				"x": 2.1706424161,
				"y": -2.3827038576,
				"z": 1.8279617535,
				"element": "H" 
			},
			{
				"x": 1.850837624,
				"y": -0.2895210508,
				"z": 2.7592164027,
				"element": "H" 
			},
			{
				"x": -0.3884473358,
				"y": -1.4946616712,
				"z": 2.6829648118,
				"element": "H" 
			},
			{
				"x": -0.3805786483,
				"y": 0.2470459021,
				"z": 2.9584948522,
				"element": "H" 
			}
		],
		 "valence_orbital": [ 
			{
				"type": "occ",
				"energy": -0.3099,
				"method": "rhf"
			},
			{
				"type": "occ",
				"energy": -0.25212,
				"method": "rhf"
			},
			{
				"type": "occ",
				"energy": -0.24718,
				"method": "rhf"
			},
			{
				"type": "occ",
				"energy": -0.24101,
				"method": "rhf"
			},
			{
				"type": "occ",
				"energy": -0.23297,
				"method": "rhf"
			},
			{
				"type": "unocc",
				"energy": 0.02483,
				"method": "rhf"
			},
			{
				"type": "unocc",
				"energy": 0.0581,
				"method": "rhf"
			},
			{
				"type": "unocc",
				"energy": 0.0926,
				"method": "rhf"
			},
			{
				"type": "unocc",
				"energy": 0.10563,
				"method": "rhf"
			},
			{
				"type": "unocc",
				"energy": 0.10867,
				"method": "rhf"
			}
		],
		"cosmo_sigma_profile": { 
			"-0.025": 0.0,
			"-0.024": 0.0,
			"-0.023": 0.0,
			"-0.022": 0.0,
			"-0.021": 0.0,
			"-0.02": 0.0,
			"-0.019": 0.0,
			"-0.018": 0.0,
			"-0.017": 0.0,
			"-0.016": 0.0,
			"-0.015": 0.0,
			"-0.014": 0.0,
			"-0.013": 0.0,
			"-0.012": 0.0,
			"-0.011": 0.59669988977,
			"-0.01": 1.41914386694,
			"-0.009": 1.65167873761,
			"-0.008": 2.0860566851,
			"-0.007": 2.76290571095,
			"-0.006": 4.57088905474,
			"-0.005": 6.21894051256,
			"-0.004": 15.8005376867,
			"-0.003": 32.4856914926,
			"-0.002": 39.7077341408,
			"-0.001": 30.6708369511,
			"0.0": 20.3569308676,
			"0.001": 9.64331396998,
			"0.002": 6.38612674981,
			"0.003": 4.02817404583,
			"0.004": 4.05601022988,
			"0.005": 4.32635535954,
			"0.006": 3.79423128603,
			"0.007": 1.97448782075,
			"0.008": 2.55289401733,
			"0.009": 3.5759087653,
			"0.01": 2.31796197224,
			"0.011": 2.28183152742,
			"0.012": 2.91268421186,
			"0.013": 2.79195863753,
			"0.014": 3.56740835105,
			"0.015": 2.93503876886,
			"0.016": 1.52591928908,
			"0.017": 0.0,
			"0.018": 0.0,
			"0.019": 0.0,
			"0.02": 0.0,
			"0.021": 0.0,
			"0.022": 0.0,
			"0.023": 0.0,
			"0.024": 0.0,
			"0.025": 0.0
		}
	}
}
