{
	 "smiles": "NC(=O)C1CC(=NN1C1=CC=CC=C1)C(O)=O", 
	 "Tm": 483.15, 
	 "num_atms": 28, 
	 "gaussian": { 
		 "optdone": 1, 
		 "sigma_profile": "yes", 
		 "theory": "DFT", 
		 "functional": "B3LYP", 
		 "basiset": "6-31G**", 
		 "properties": { 
			 "R2extent": 4503.1513, 
			 "electric_dipole_moment_norm": 6.85520417566, 
			 "electric_quadrupole_moment_norm": 21.5114964937, 
			 "total_energy": -815.716533108, 
			 "HOMO_LUMO_gap": 0.14733, 
			 "cosmo_polarized_energy": -25.7, 
			 "cosmo_cavitation_energy": 32.87, 
			 "cosmo_dispersion_energy": -23.28, 
			 "cosmo_repulsion_energy": 1.83, 
			 "cosmo_total_nonelectrostatic_energy": 11.42, 
			 "SMD_solvation_energy": 6.72 
		},
		"coords": [
			{
				"x": 2.8920499849,
				"y": 1.7937975102,
				"z": -1.4548145848,
				"element": "N" 
			},
			{
				"x": 2.14127427,
				"y": 1.1535456562,
				"z": -0.5109700914,
				"element": "C" 
			},
			{
				"x": 2.5510480981,
				"y": 0.8741498546,
				"z": 0.6006252182,
				"element": "O" 
			},
			{
				"x": 0.6895585844,
				"y": 0.858070856,
				"z": -0.9401560744,
				"element": "C" 
			},
			{
				"x": -0.2996140631,
				"y": 1.8218239577,
				"z": -0.2212758336,
				"element": "C" 
			},
			{
				"x": -1.1531854291,
				"y": 0.8455167879,
				"z": 0.544908005,
				"element": "C" 
			},
			{
				"x": -0.8107735263,
				"y": -0.3888545743,
				"z": 0.3724863816,
				"element": "N" 
			},
			{
				"x": 0.2458127103,
				"y": -0.466434772,
				"z": -0.4606542098,
				"element": "N" 
			},
			{
				"x": 0.7159022091,
				"y": -1.7019351014,
				"z": -0.9269798991,
				"element": "C" 
			},
			{
				"x": 0.1450828325,
				"y": -2.9025260571,
				"z": -0.4686896296,
				"element": "C" 
			},
			{
				"x": 0.6167685915,
				"y": -4.1204685073,
				"z": -0.9461036092,
				"element": "C" 
			},
			{
				"x": 1.6542225704,
				"y": -4.1743706515,
				"z": -1.881515113,
				"element": "C" 
			},
			{
				"x": 2.2191872131,
				"y": -2.9829105954,
				"z": -2.332364365,
				"element": "C" 
			},
			{
				"x": 1.7607109442,
				"y": -1.7512947253,
				"z": -1.8640135988,
				"element": "C" 
			},
			{
				"x": -2.2856924452,
				"y": 1.2164354287,
				"z": 1.4150026998,
				"element": "C" 
			},
			{
				"x": -2.9019475823,
				"y": 0.1877623355,
				"z": 2.0399960794,
				"element": "O" 
			},
			{
				"x": -2.645100947,
				"y": 2.3657701233,
				"z": 1.5549468596,
				"element": "O" 
			},
			{
				"x": 3.8231745383,
				"y": 2.0896155652,
				"z": -1.2014359137,
				"element": "H" 
			},
			{
				"x": 2.5295977933,
				"y": 2.0526806508,
				"z": -2.3580875623,
				"element": "H" 
			},
			{
				"x": 0.5860222716,
				"y": 0.9033114231,
				"z": -2.0321552701,
				"element": "H" 
			},
			{
				"x": -0.8928469535,
				"y": 2.4224936753,
				"z": -0.9161430476,
				"element": "H" 
			},
			{
				"x": 0.213592514,
				"y": 2.510418434,
				"z": 0.4564186586,
				"element": "H" 
			},
			{
				"x": -0.6598268941,
				"y": -2.8662375976,
				"z": 0.2540216955,
				"element": "H" 
			},
			{
				"x": 0.1654728228,
				"y": -5.0388284522,
				"z": -0.5814451605,
				"element": "H" 
			},
			{
				"x": 2.0162846771,
				"y": -5.1295041654,
				"z": -2.2482689589,
				"element": "H" 
			},
			{
				"x": 3.0298533692,
				"y": -3.0023151761,
				"z": -3.0550799701,
				"element": "H" 
			},
			{
				"x": 2.2296751579,
				"y": -0.8419229951,
				"z": -2.2211386533,
				"element": "H" 
			},
			{
				"x": -2.4472033121,
				"y": -0.635488888,
				"z": 1.7927859477,
				"element": "H" 
			}
		],
		 "valence_orbital": [ 
			{
				"type": "occ",
				"energy": -0.2875,
				"method": "rhf"
			},
			{
				"type": "occ",
				"energy": -0.27157,
				"method": "rhf"
			},
			{
				"type": "occ",
				"energy": -0.27085,
				"method": "rhf"
			},
			{
				"type": "occ",
				"energy": -0.25795,
				"method": "rhf"
			},
			{
				"type": "occ",
				"energy": -0.2085,
				"method": "rhf"
			},
			{
				"type": "unocc",
				"energy": -0.06117,
				"method": "rhf"
			},
			{
				"type": "unocc",
				"energy": -0.00999,
				"method": "rhf"
			},
			{
				"type": "unocc",
				"energy": 0.0035,
				"method": "rhf"
			},
			{
				"type": "unocc",
				"energy": 0.00972,
				"method": "rhf"
			},
			{
				"type": "unocc",
				"energy": 0.04402,
				"method": "rhf"
			}
		],
		"cosmo_sigma_profile": { 
			"-0.025": 0.0,
			"-0.024": 0.0,
			"-0.023": 0.0,
			"-0.022": 0.0,
			"-0.021": 0.0,
			"-0.02": 0.0,
			"-0.019": 0.0,
			"-0.018": 0.0,
			"-0.017": 0.0,
			"-0.016": 0.143322456479,
			"-0.015": 2.23745517512,
			"-0.014": 3.03321477504,
			"-0.013": 3.78067212027,
			"-0.012": 4.27259949899,
			"-0.011": 2.91777810423,
			"-0.01": 4.09999951603,
			"-0.009": 3.56014413578,
			"-0.008": 4.89460578442,
			"-0.007": 9.33023721248,
			"-0.006": 13.8670104329,
			"-0.005": 15.8674926053,
			"-0.004": 20.1911667441,
			"-0.003": 17.1481307106,
			"-0.002": 12.0426049786,
			"-0.001": 11.727129327,
			"0.0": 12.1675013092,
			"0.001": 13.2007419462,
			"0.002": 14.3726879813,
			"0.003": 13.3923386238,
			"0.004": 13.0954046112,
			"0.005": 14.8613391509,
			"0.006": 8.07763498279,
			"0.007": 4.13088548901,
			"0.008": 3.94421181775,
			"0.009": 5.157824294,
			"0.01": 6.18588497869,
			"0.011": 6.34704929742,
			"0.012": 8.19658929594,
			"0.013": 7.30340999054,
			"0.014": 2.1457710898,
			"0.015": 0.0,
			"0.016": 0.0,
			"0.017": 0.0,
			"0.018": 0.0,
			"0.019": 0.0,
			"0.02": 0.0,
			"0.021": 0.0,
			"0.022": 0.0,
			"0.023": 0.0,
			"0.024": 0.0,
			"0.025": 0.0
		}
	}
}
