{
	 "smiles": "FC1=CC(=CC=C1)N1C=CNC1=S", 
	 "Tm": 436.15, 
	 "num_atms": 20, 
	 "gaussian": { 
		 "optdone": 1, 
		 "sigma_profile": "yes", 
		 "theory": "DFT", 
		 "functional": "B3LYP", 
		 "basiset": "6-31G**", 
		 "properties": { 
			 "R2extent": 3219.473, 
			 "electric_dipole_moment_norm": 4.66121736996, 
			 "electric_quadrupole_moment_norm": 20.7398221309, 
			 "total_energy": -954.700423497, 
			 "HOMO_LUMO_gap": 0.16164, 
			 "cosmo_polarized_energy": -17.59, 
			 "cosmo_cavitation_energy": 26.59, 
			 "cosmo_dispersion_energy": -19.77, 
			 "cosmo_repulsion_energy": 1.49, 
			 "cosmo_total_nonelectrostatic_energy": 8.31, 
			 "SMD_solvation_energy": 4.78 
		},
		"coords": [
			{
				"x": 3.3300604182,
				"y": -1.9886033121,
				"z": -1.6220329805,
				"element": "F" 
			},
			{
				"x": 2.7803427538,
				"y": -0.8393635055,
				"z": -1.1787823508,
				"element": "C" 
			},
			{
				"x": 1.6120029117,
				"y": -0.9115200071,
				"z": -0.430659717,
				"element": "C" 
			},
			{
				"x": 1.0388113088,
				"y": 0.2800653985,
				"z": 0.0271534438,
				"element": "C" 
			},
			{
				"x": 1.6368444369,
				"y": 1.5126403798,
				"z": -0.2536576949,
				"element": "C" 
			},
			{
				"x": 2.8166968108,
				"y": 1.5425638685,
				"z": -0.9964460349,
				"element": "C" 
			},
			{
				"x": 3.4016080616,
				"y": 0.3679305286,
				"z": -1.4726669049,
				"element": "C" 
			},
			{
				"x": -0.1863724127,
				"y": 0.2084503443,
				"z": 0.7521832461,
				"element": "N" 
			},
			{
				"x": -1.2445485615,
				"y": -0.6345872284,
				"z": 0.3878940368,
				"element": "C" 
			},
			{
				"x": -2.222205479,
				"y": -0.4897031198,
				"z": 1.309674653,
				"element": "C" 
			},
			{
				"x": -1.7601145926,
				"y": 0.4340725727,
				"z": 2.2328883611,
				"element": "N" 
			},
			{
				"x": -0.5002778282,
				"y": 0.8850239126,
				"z": 1.9268677443,
				"element": "C" 
			},
			{
				"x": 0.3923899931,
				"y": 1.9756041382,
				"z": 2.8329125081,
				"element": "S" 
			},
			{
				"x": 1.1819233032,
				"y": -1.8784029722,
				"z": -0.1967139823,
				"element": "H" 
			},
			{
				"x": 1.1874468582,
				"y": 2.4245208071,
				"z": 0.1159347207,
				"element": "H" 
			},
			{
				"x": 3.2838102583,
				"y": 2.497950096,
				"z": -1.213319649,
				"element": "H" 
			},
			{
				"x": 4.3164639423,
				"y": 0.3749709039,
				"z": -2.0544830564,
				"element": "H" 
			},
			{
				"x": -1.2089808964,
				"y": -1.2220850447,
				"z": -0.5142480056,
				"element": "H" 
			},
			{
				"x": -3.1969653661,
				"y": -0.9444737392,
				"z": 1.3779652437,
				"element": "H" 
			},
			{
				"x": -2.2343359203,
				"y": 0.7596459786,
				"z": 3.0606364187,
				"element": "H" 
			}
		],
		 "valence_orbital": [ 
			{
				"type": "occ",
				"energy": -0.29166,
				"method": "rhf"
			},
			{
				"type": "occ",
				"energy": -0.26477,
				"method": "rhf"
			},
			{
				"type": "occ",
				"energy": -0.25232,
				"method": "rhf"
			},
			{
				"type": "occ",
				"energy": -0.20348,
				"method": "rhf"
			},
			{
				"type": "occ",
				"energy": -0.19205,
				"method": "rhf"
			},
			{
				"type": "unocc",
				"energy": -0.03041,
				"method": "rhf"
			},
			{
				"type": "unocc",
				"energy": -0.00903,
				"method": "rhf"
			},
			{
				"type": "unocc",
				"energy": 0.01357,
				"method": "rhf"
			},
			{
				"type": "unocc",
				"energy": 0.02245,
				"method": "rhf"
			},
			{
				"type": "unocc",
				"energy": 0.06821,
				"method": "rhf"
			}
		],
		"cosmo_sigma_profile": { 
			"-0.025": 0.0,
			"-0.024": 0.0,
			"-0.023": 0.0,
			"-0.022": 0.0,
			"-0.021": 0.0,
			"-0.02": 0.0,
			"-0.019": 0.0,
			"-0.018": 0.0,
			"-0.017": 1.08712331894,
			"-0.016": 0.910531565459,
			"-0.015": 1.11152868064,
			"-0.014": 0.946437689529,
			"-0.013": 1.17640291467,
			"-0.012": 1.04465547294,
			"-0.011": 1.12500535879,
			"-0.01": 4.72919306193,
			"-0.009": 4.21696211218,
			"-0.008": 7.79426713321,
			"-0.007": 8.63244653999,
			"-0.006": 10.0302841653,
			"-0.005": 10.2876575442,
			"-0.004": 9.07326149076,
			"-0.003": 9.88672950622,
			"-0.002": 9.90883042252,
			"-0.001": 13.1906153844,
			"0.0": 16.4035940683,
			"0.001": 18.6756710771,
			"0.002": 16.2974647728,
			"0.003": 14.5688811138,
			"0.004": 15.722122659,
			"0.005": 4.68172154146,
			"0.006": 4.39929390075,
			"0.007": 3.47627173163,
			"0.008": 3.48728944139,
			"0.009": 4.81288542475,
			"0.01": 5.18424714772,
			"0.011": 5.83742772244,
			"0.012": 6.89847633777,
			"0.013": 1.37277161139,
			"0.014": 0.0,
			"0.015": 0.0,
			"0.016": 0.0,
			"0.017": 0.0,
			"0.018": 0.0,
			"0.019": 0.0,
			"0.02": 0.0,
			"0.021": 0.0,
			"0.022": 0.0,
			"0.023": 0.0,
			"0.024": 0.0,
			"0.025": 0.0
		}
	}
}
