{
	 "smiles": "OC(=O)C1=CNC=C1C1=CC=C(F)C=C1", 
	 "Tm": 473.15, 
	 "num_atms": 23, 
	 "gaussian": { 
		 "optdone": 1, 
		 "sigma_profile": "yes", 
		 "theory": "DFT", 
		 "functional": "B3LYP", 
		 "basiset": "6-31G**", 
		 "properties": { 
			 "R2extent": 4080.4753, 
			 "electric_dipole_moment_norm": 6.15923354323, 
			 "electric_quadrupole_moment_norm": 25.9585126662, 
			 "total_energy": -729.031686258, 
			 "HOMO_LUMO_gap": 0.20054, 
			 "cosmo_polarized_energy": -18.19, 
			 "cosmo_cavitation_energy": 28.34, 
			 "cosmo_dispersion_energy": -20.38, 
			 "cosmo_repulsion_energy": 1.56, 
			 "cosmo_total_nonelectrostatic_energy": 9.52, 
			 "SMD_solvation_energy": 6.63 
		},
		"coords": [
			{
				"x": -0.6658566306,
				"y": -2.8299879095,
				"z": 1.8022223564,
				"element": "O" 
			},
			{
				"x": 0.0788734368,
				"y": -3.1439518903,
				"z": 0.7105106576,
				"element": "C" 
			},
			{
				"x": 0.2913540471,
				"y": -4.3073848427,
				"z": 0.4436022016,
				"element": "O" 
			},
			{
				"x": 0.5824588572,
				"y": -2.0271622932,
				"z": -0.1220238916,
				"element": "C" 
			},
			{
				"x": 1.1322442788,
				"y": -2.2807435913,
				"z": -1.3669907369,
				"element": "C" 
			},
			{
				"x": 1.4389579732,
				"y": -1.0875660091,
				"z": -1.9467304212,
				"element": "N" 
			},
			{
				"x": 1.103873084,
				"y": -0.0541756052,
				"z": -1.1013915375,
				"element": "C" 
			},
			{
				"x": 0.5685234419,
				"y": -0.5917880927,
				"z": 0.0528418483,
				"element": "C" 
			},
			{
				"x": 0.1155725798,
				"y": 0.2100225049,
				"z": 1.2106917047,
				"element": "C" 
			},
			{
				"x": -0.7443175855,
				"y": 1.3084351966,
				"z": 1.0232711383,
				"element": "C" 
			},
			{
				"x": -1.1438212008,
				"y": 2.1059990583,
				"z": 2.093156651,
				"element": "C" 
			},
			{
				"x": -0.6875805888,
				"y": 1.7925219023,
				"z": 3.3693189909,
				"element": "C" 
			},
			{
				"x": -1.0774729681,
				"y": 2.5554887435,
				"z": 4.409679525,
				"element": "F" 
			},
			{
				"x": 0.1572757863,
				"y": 0.7135869525,
				"z": 3.6005078986,
				"element": "C" 
			},
			{
				"x": 0.5609683938,
				"y": -0.0680901604,
				"z": 2.5178563743,
				"element": "C" 
			},
			{
				"x": -0.7876854323,
				"y": -1.8702983863,
				"z": 1.8724058704,
				"element": "H" 
			},
			{
				"x": 1.2920516345,
				"y": -3.228700894,
				"z": -1.8564722472,
				"element": "H" 
			},
			{
				"x": 1.8601394544,
				"y": -0.9773600607,
				"z": -2.8557813713,
				"element": "H" 
			},
			{
				"x": 1.3062857098,
				"y": 0.9745926231,
				"z": -1.3592796331,
				"element": "H" 
			},
			{
				"x": -1.1103461093,
				"y": 1.5277145515,
				"z": 0.0250161198,
				"element": "H" 
			},
			{
				"x": -1.8084981449,
				"y": 2.9519219077,
				"z": 1.9548391045,
				"element": "H" 
			},
			{
				"x": 0.4988012799,
				"y": 0.5047759997,
				"z": 4.6084498493,
				"element": "H" 
			},
			{
				"x": 1.2451987028,
				"y": -0.8939497049,
				"z": 2.6859995478,
				"element": "H" 
			}
		],
		 "valence_orbital": [ 
			{
				"type": "occ",
				"energy": -0.28056,
				"method": "rhf"
			},
			{
				"type": "occ",
				"energy": -0.27375,
				"method": "rhf"
			},
			{
				"type": "occ",
				"energy": -0.25843,
				"method": "rhf"
			},
			{
				"type": "occ",
				"energy": -0.24578,
				"method": "rhf"
			},
			{
				"type": "occ",
				"energy": -0.227,
				"method": "rhf"
			},
			{
				"type": "unocc",
				"energy": -0.02646,
				"method": "rhf"
			},
			{
				"type": "unocc",
				"energy": -0.02578,
				"method": "rhf"
			},
			{
				"type": "unocc",
				"energy": -0.00883,
				"method": "rhf"
			},
			{
				"type": "unocc",
				"energy": 0.03443,
				"method": "rhf"
			},
			{
				"type": "unocc",
				"energy": 0.05991,
				"method": "rhf"
			}
		],
		"cosmo_sigma_profile": { 
			"-0.025": 0.0,
			"-0.024": 0.0,
			"-0.023": 0.0,
			"-0.022": 0.0,
			"-0.021": 0.0,
			"-0.02": 0.0,
			"-0.019": 0.0,
			"-0.018": 0.0,
			"-0.017": 0.652487454446,
			"-0.016": 2.25492407278,
			"-0.015": 1.24438228169,
			"-0.014": 1.56532733562,
			"-0.013": 0.945317517547,
			"-0.012": 1.33038934909,
			"-0.011": 1.58262442899,
			"-0.01": 2.12351750742,
			"-0.009": 3.71453307127,
			"-0.008": 6.89210054319,
			"-0.007": 8.72546738273,
			"-0.006": 11.4580410754,
			"-0.005": 12.7999330732,
			"-0.004": 11.8087354076,
			"-0.003": 10.0213742019,
			"-0.002": 10.6563734092,
			"-0.001": 11.4406454462,
			"0.0": 14.983555704,
			"0.001": 18.6148935723,
			"0.002": 16.3544456867,
			"0.003": 20.4369111227,
			"0.004": 21.3727803718,
			"0.005": 7.42571501008,
			"0.006": 1.53254188119,
			"0.007": 3.10787610883,
			"0.008": 2.2989058983,
			"0.009": 2.380572581,
			"0.01": 3.43495710655,
			"0.011": 4.57401753746,
			"0.012": 5.64535132805,
			"0.013": 4.83143824881,
			"0.014": 1.59725659576,
			"0.015": 0.0392996112743,
			"0.016": 0.0,
			"0.017": 0.0,
			"0.018": 0.0,
			"0.019": 0.0,
			"0.02": 0.0,
			"0.021": 0.0,
			"0.022": 0.0,
			"0.023": 0.0,
			"0.024": 0.0,
			"0.025": 0.0
		}
	}
}
