{
	 "smiles": "COC1=CC(C=CC=O)=CC=C1O", 
	 "Tm": 357.15, 
	 "num_atms": 23, 
	 "gaussian": { 
		 "optdone": 1, 
		 "sigma_profile": "yes", 
		 "theory": "DFT", 
		 "functional": "B3LYP", 
		 "basiset": "6-31G**", 
		 "properties": { 
			 "R2extent": 3844.8783, 
			 "electric_dipole_moment_norm": 6.6065217823, 
			 "electric_quadrupole_moment_norm": 23.0531604219, 
			 "total_energy": -612.716078157, 
			 "HOMO_LUMO_gap": 0.1525, 
			 "cosmo_polarized_energy": -16.63, 
			 "cosmo_cavitation_energy": 28.16, 
			 "cosmo_dispersion_energy": -20.28, 
			 "cosmo_repulsion_energy": 1.61, 
			 "cosmo_total_nonelectrostatic_energy": 9.49, 
			 "SMD_solvation_energy": 7.24 
		},
		"coords": [
			{
				"x": -0.5465145326,
				"y": 1.7617002393,
				"z": -2.0613031359,
				"element": "C" 
			},
			{
				"x": -0.237575202,
				"y": 0.4032641191,
				"z": -1.7306952082,
				"element": "O" 
			},
			{
				"x": -0.3643937643,
				"y": 0.0545316366,
				"z": -0.4119606284,
				"element": "C" 
			},
			{
				"x": 0.7651398734,
				"y": -0.3506107264,
				"z": 0.2845117543,
				"element": "C" 
			},
			{
				"x": 0.6947598402,
				"y": -0.7915527898,
				"z": 1.6220957828,
				"element": "C" 
			},
			{
				"x": 1.8641161103,
				"y": -1.2267085962,
				"z": 2.3755396636,
				"element": "C" 
			},
			{
				"x": 3.1486562185,
				"y": -1.3001491039,
				"z": 1.9635428713,
				"element": "C" 
			},
			{
				"x": 4.1955041337,
				"y": -1.7648517541,
				"z": 2.874012251,
				"element": "C" 
			},
			{
				"x": 5.3762723434,
				"y": -1.8586942454,
				"z": 2.5850048756,
				"element": "O" 
			},
			{
				"x": -0.5639117544,
				"y": -0.7979173929,
				"z": 2.2461395177,
				"element": "C" 
			},
			{
				"x": -1.7061940282,
				"y": -0.3946111375,
				"z": 1.5608903466,
				"element": "C" 
			},
			{
				"x": -1.6242740282,
				"y": 0.0248317831,
				"z": 0.2312063625,
				"element": "C" 
			},
			{
				"x": -2.7135244861,
				"y": 0.4025343504,
				"z": -0.4945288985,
				"element": "O" 
			},
			{
				"x": -0.3347013918,
				"y": 1.866409591,
				"z": -3.1269371397,
				"element": "H" 
			},
			{
				"x": -1.5984122266,
				"y": 1.9939448921,
				"z": -1.8729900636,
				"element": "H" 
			},
			{
				"x": 0.0906226556,
				"y": 2.4543778658,
				"z": -1.4967623576,
				"element": "H" 
			},
			{
				"x": 1.7095305435,
				"y": -0.3235041263,
				"z": -0.2481742736,
				"element": "H" 
			},
			{
				"x": 1.658711938,
				"y": -1.5290607188,
				"z": 3.4040911918,
				"element": "H" 
			},
			{
				"x": 3.4662648619,
				"y": -1.0258205606,
				"z": 0.9612383692,
				"element": "H" 
			},
			{
				"x": 3.8321175929,
				"y": -2.0393312155,
				"z": 3.8922476976,
				"element": "H" 
			},
			{
				"x": -0.6491569995,
				"y": -1.1270649856,
				"z": 3.2778491297,
				"element": "H" 
			},
			{
				"x": -2.6752698738,
				"y": -0.4145938023,
				"z": 2.0553227388,
				"element": "H" 
			},
			{
				"x": -3.5045678242,
				"y": 0.3195766778,
				"z": 0.054359153,
				"element": "H" 
			}
		],
		 "valence_orbital": [ 
			{
				"type": "occ",
				"energy": -0.29285,
				"method": "rhf"
			},
			{
				"type": "occ",
				"energy": -0.28762,
				"method": "rhf"
			},
			{
				"type": "occ",
				"energy": -0.25248,
				"method": "rhf"
			},
			{
				"type": "occ",
				"energy": -0.24124,
				"method": "rhf"
			},
			{
				"type": "occ",
				"energy": -0.2219,
				"method": "rhf"
			},
			{
				"type": "unocc",
				"energy": -0.0694,
				"method": "rhf"
			},
			{
				"type": "unocc",
				"energy": -0.01375,
				"method": "rhf"
			},
			{
				"type": "unocc",
				"energy": 0.01747,
				"method": "rhf"
			},
			{
				"type": "unocc",
				"energy": 0.04986,
				"method": "rhf"
			},
			{
				"type": "unocc",
				"energy": 0.07907,
				"method": "rhf"
			}
		],
		"cosmo_sigma_profile": { 
			"-0.025": 0.0,
			"-0.024": 0.0,
			"-0.023": 0.0,
			"-0.022": 0.0,
			"-0.021": 0.0,
			"-0.02": 0.0,
			"-0.019": 0.312200564054,
			"-0.018": 1.07811041114,
			"-0.017": 1.42969421583,
			"-0.016": 1.03689101949,
			"-0.015": 0.855432765768,
			"-0.014": 0.830604430515,
			"-0.013": 0.799590029135,
			"-0.012": 1.15054717906,
			"-0.011": 1.18810666778,
			"-0.01": 1.03659891296,
			"-0.009": 0.891526365487,
			"-0.008": 3.42619499725,
			"-0.007": 10.1740523924,
			"-0.006": 12.020681575,
			"-0.005": 12.873195765,
			"-0.004": 14.1086260629,
			"-0.003": 15.5691886357,
			"-0.002": 15.946905005,
			"-0.001": 13.0021813114,
			"0.0": 12.6488834863,
			"0.001": 14.9873909908,
			"0.002": 17.8623856816,
			"0.003": 20.0767578214,
			"0.004": 11.1181462882,
			"0.005": 4.74534316152,
			"0.006": 3.80129226319,
			"0.007": 3.81467830711,
			"0.008": 3.58531132185,
			"0.009": 4.68201724601,
			"0.01": 4.37006812555,
			"0.011": 4.41600246177,
			"0.012": 5.77604023033,
			"0.013": 3.54726657639,
			"0.014": 1.34632113708,
			"0.015": 0.0,
			"0.016": 0.0,
			"0.017": 0.0,
			"0.018": 0.0,
			"0.019": 0.0,
			"0.02": 0.0,
			"0.021": 0.0,
			"0.022": 0.0,
			"0.023": 0.0,
			"0.024": 0.0,
			"0.025": 0.0
		}
	}
}
