{
	 "smiles": "O=CC1=NC2=CC=CC=C2N=C1", 
	 "Tm": 383.15, 
	 "num_atms": 18, 
	 "gaussian": { 
		 "optdone": 1, 
		 "sigma_profile": "yes", 
		 "theory": "DFT", 
		 "functional": "B3LYP", 
		 "basiset": "6-31G**", 
		 "properties": { 
			 "R2extent": 2365.1293, 
			 "electric_dipole_moment_norm": 3.88252491814, 
			 "electric_quadrupole_moment_norm": 5.67750815147, 
			 "total_energy": -531.285410121, 
			 "HOMO_LUMO_gap": 0.15474, 
			 "cosmo_polarized_energy": -8.34, 
			 "cosmo_cavitation_energy": 23.22, 
			 "cosmo_dispersion_energy": -17.29, 
			 "cosmo_repulsion_energy": 1.35, 
			 "cosmo_total_nonelectrostatic_energy": 7.28, 
			 "SMD_solvation_energy": 2.04 
		},
		"coords": [
			{
				"x": -1.283551954,
				"y": -1.9988682564,
				"z": -4.1796210246,
				"element": "O" 
			},
			{
				"x": -1.0939426461,
				"y": -1.0233392739,
				"z": -3.4810722664,
				"element": "C" 
			},
			{
				"x": -0.4871696353,
				"y": -1.0857523678,
				"z": -2.1219160488,
				"element": "C" 
			},
			{
				"x": -0.3449007496,
				"y": 0.0631949482,
				"z": -1.4833494559,
				"element": "N" 
			},
			{
				"x": 0.2093016273,
				"y": 0.0039176076,
				"z": -0.2429328022,
				"element": "C" 
			},
			{
				"x": 0.3923466291,
				"y": 1.1993234918,
				"z": 0.5009437778,
				"element": "C" 
			},
			{
				"x": 0.9528423726,
				"y": 1.1451635543,
				"z": 1.7566908255,
				"element": "C" 
			},
			{
				"x": 1.3508578606,
				"y": -0.0966418939,
				"z": 2.3174065294,
				"element": "C" 
			},
			{
				"x": 1.1853275964,
				"y": -1.2725511685,
				"z": 1.6187923954,
				"element": "C" 
			},
			{
				"x": 0.6112920604,
				"y": -1.2502097811,
				"z": 0.3235732716,
				"element": "C" 
			},
			{
				"x": 0.4513074355,
				"y": -2.4218870459,
				"z": -0.3612678809,
				"element": "N" 
			},
			{
				"x": -0.0870033193,
				"y": -2.3325030142,
				"z": -1.5572380231,
				"element": "C" 
			},
			{
				"x": -1.3595950539,
				"y": 0.0050993391,
				"z": -3.8006998497,
				"element": "H" 
			},
			{
				"x": 0.0788776647,
				"y": 2.1339881932,
				"z": 0.0474223069,
				"element": "H" 
			},
			{
				"x": 1.0944255599,
				"y": 2.0572186986,
				"z": 2.3286085992,
				"element": "H" 
			},
			{
				"x": 1.7908547119,
				"y": -0.1142139864,
				"z": 3.310086098,
				"element": "H" 
			},
			{
				"x": 1.4818993895,
				"y": -2.2331001245,
				"z": 2.0270179631,
				"element": "H" 
			},
			{
				"x": -0.2294695495,
				"y": -3.2449389202,
				"z": -2.1311444155,
				"element": "H" 
			}
		],
		 "valence_orbital": [ 
			{
				"type": "occ",
				"energy": -0.32285,
				"method": "rhf"
			},
			{
				"type": "occ",
				"energy": -0.28025,
				"method": "rhf"
			},
			{
				"type": "occ",
				"energy": -0.27237,
				"method": "rhf"
			},
			{
				"type": "occ",
				"energy": -0.2591,
				"method": "rhf"
			},
			{
				"type": "occ",
				"energy": -0.25208,
				"method": "rhf"
			},
			{
				"type": "unocc",
				"energy": -0.09734,
				"method": "rhf"
			},
			{
				"type": "unocc",
				"energy": -0.06002,
				"method": "rhf"
			},
			{
				"type": "unocc",
				"energy": -0.00636,
				"method": "rhf"
			},
			{
				"type": "unocc",
				"energy": 0.00455,
				"method": "rhf"
			},
			{
				"type": "unocc",
				"energy": 0.08558,
				"method": "rhf"
			}
		],
		"cosmo_sigma_profile": { 
			"-0.025": 0.0,
			"-0.024": 0.0,
			"-0.023": 0.0,
			"-0.022": 0.0,
			"-0.021": 0.0,
			"-0.02": 0.0,
			"-0.019": 0.0,
			"-0.018": 0.0,
			"-0.017": 0.0,
			"-0.016": 0.0,
			"-0.015": 0.0,
			"-0.014": 0.0,
			"-0.013": 0.0,
			"-0.012": 0.0,
			"-0.011": 0.0,
			"-0.01": 0.0,
			"-0.009": 0.0,
			"-0.008": 0.764405143111,
			"-0.007": 10.0015075616,
			"-0.006": 12.7535584888,
			"-0.005": 15.0794364364,
			"-0.004": 14.5012619247,
			"-0.003": 15.5816272978,
			"-0.002": 12.9297181958,
			"-0.001": 13.2180389464,
			"0.0": 14.6521807897,
			"0.001": 16.4179953967,
			"0.002": 17.0917963976,
			"0.003": 8.74642407135,
			"0.004": 4.23465926185,
			"0.005": 4.37555501604,
			"0.006": 3.15865655372,
			"0.007": 3.1376935358,
			"0.008": 4.48597786136,
			"0.009": 4.06975763784,
			"0.01": 5.17619463631,
			"0.011": 4.32964973437,
			"0.012": 1.93013424405,
			"0.013": 0.808848071001,
			"0.014": 0.633342212277,
			"0.015": 0.0276793904912,
			"0.016": 0.0,
			"0.017": 0.0,
			"0.018": 0.0,
			"0.019": 0.0,
			"0.02": 0.0,
			"0.021": 0.0,
			"0.022": 0.0,
			"0.023": 0.0,
			"0.024": 0.0,
			"0.025": 0.0
		}
	}
}
