{
	 "smiles": "CC(=O)N[C@@H](CC1=CC=C(O)C=C1)C(O)=O", 
	 "Tm": 424.15, 
	 "num_atms": 29, 
	 "gaussian": { 
		 "optdone": 1, 
		 "sigma_profile": "yes", 
		 "theory": "DFT", 
		 "functional": "B3LYP", 
		 "basiset": "6-31G**", 
		 "properties": { 
			 "R2extent": 5000.5026, 
			 "electric_dipole_moment_norm": 3.64140802712, 
			 "electric_quadrupole_moment_norm": 22.7564224794, 
			 "total_energy": -782.679475265, 
			 "HOMO_LUMO_gap": 0.20935, 
			 "cosmo_polarized_energy": -22.45, 
			 "cosmo_cavitation_energy": 33.9, 
			 "cosmo_dispersion_energy": -22.62, 
			 "cosmo_repulsion_energy": 1.8, 
			 "cosmo_total_nonelectrostatic_energy": 13.08, 
			 "SMD_solvation_energy": 8.04 
		},
		"coords": [
			{
				"x": -1.4379016452,
				"y": 1.5959381812,
				"z": 2.1687508013,
				"element": "C" 
			},
			{
				"x": -0.9190546492,
				"y": 2.8530156389,
				"z": 1.4894986585,
				"element": "C" 
			},
			{
				"x": -1.4530305739,
				"y": 3.9434337812,
				"z": 1.6354983019,
				"element": "O" 
			},
			{
				"x": 0.1947595652,
				"y": 2.7290144347,
				"z": 0.6868834647,
				"element": "N" 
			},
			{
				"x": 0.9911979848,
				"y": 1.5522015557,
				"z": 0.4033206464,
				"element": "C" 
			},
			{
				"x": 0.8719871494,
				"y": 1.0791804614,
				"z": -1.079932405,
				"element": "C" 
			},
			{
				"x": -0.5097099948,
				"y": 0.5812657645,
				"z": -1.4334063429,
				"element": "C" 
			},
			{
				"x": -0.8481496019,
				"y": -0.7672901389,
				"z": -1.2636229863,
				"element": "C" 
			},
			{
				"x": -2.1288398803,
				"y": -1.236489277,
				"z": -1.5552737899,
				"element": "C" 
			},
			{
				"x": -3.1032816985,
				"y": -0.3511634516,
				"z": -2.0287978189,
				"element": "C" 
			},
			{
				"x": -4.3736842136,
				"y": -0.744619861,
				"z": -2.3376842299,
				"element": "O" 
			},
			{
				"x": -2.7839389967,
				"y": 0.9996085902,
				"z": -2.2065670107,
				"element": "C" 
			},
			{
				"x": -1.5016363163,
				"y": 1.451938388,
				"z": -1.9103262866,
				"element": "C" 
			},
			{
				"x": 2.4671054862,
				"y": 1.7786919448,
				"z": 0.725472558,
				"element": "C" 
			},
			{
				"x": 2.8797350996,
				"y": 3.0175224172,
				"z": 0.3663990662,
				"element": "O" 
			},
			{
				"x": 3.2079944876,
				"y": 0.9441551212,
				"z": 1.1921545909,
				"element": "O" 
			},
			{
				"x": -1.6854394082,
				"y": 0.8175872377,
				"z": 1.440633896,
				"element": "H" 
			},
			{
				"x": -0.7002804817,
				"y": 1.1851883007,
				"z": 2.8671380802,
				"element": "H" 
			},
			{
				"x": -2.3343470442,
				"y": 1.8700944131,
				"z": 2.7239218667,
				"element": "H" 
			},
			{
				"x": 0.5101203505,
				"y": 3.6074117879,
				"z": 0.2945259878,
				"element": "H" 
			},
			{
				"x": 0.6694321071,
				"y": 0.7371255963,
				"z": 1.0515163816,
				"element": "H" 
			},
			{
				"x": 1.1594524017,
				"y": 1.9165545927,
				"z": -1.7258744068,
				"element": "H" 
			},
			{
				"x": 1.6099464691,
				"y": 0.2839619014,
				"z": -1.2361126943,
				"element": "H" 
			},
			{
				"x": -0.0986205877,
				"y": -1.468614211,
				"z": -0.9039362665,
				"element": "H" 
			},
			{
				"x": -2.3670691444,
				"y": -2.2899310644,
				"z": -1.4226443749,
				"element": "H" 
			},
			{
				"x": -4.4620812202,
				"y": -1.6925545169,
				"z": -2.1743628209,
				"element": "H" 
			},
			{
				"x": -3.5477761618,
				"y": 1.6750978814,
				"z": -2.5769209328,
				"element": "H" 
			},
			{
				"x": -1.2670272412,
				"y": 2.5028524034,
				"z": -2.0535953787,
				"element": "H" 
			},
			{
				"x": 3.8270377585,
				"y": 3.0680221272,
				"z": 0.5785434449,
				"element": "H" 
			}
		],
		 "valence_orbital": [ 
			{
				"type": "occ",
				"energy": -0.29865,
				"method": "rhf"
			},
			{
				"type": "occ",
				"energy": -0.25979,
				"method": "rhf"
			},
			{
				"type": "occ",
				"energy": -0.2471,
				"method": "rhf"
			},
			{
				"type": "occ",
				"energy": -0.24261,
				"method": "rhf"
			},
			{
				"type": "occ",
				"energy": -0.22387,
				"method": "rhf"
			},
			{
				"type": "unocc",
				"energy": -0.01452,
				"method": "rhf"
			},
			{
				"type": "unocc",
				"energy": -0.00888,
				"method": "rhf"
			},
			{
				"type": "unocc",
				"energy": 0.00889,
				"method": "rhf"
			},
			{
				"type": "unocc",
				"energy": 0.03229,
				"method": "rhf"
			},
			{
				"type": "unocc",
				"energy": 0.05995,
				"method": "rhf"
			}
		],
		"cosmo_sigma_profile": { 
			"-0.025": 0.0,
			"-0.024": 0.0,
			"-0.023": 0.0,
			"-0.022": 0.0,
			"-0.021": 0.0,
			"-0.02": 0.0,
			"-0.019": 0.332769888604,
			"-0.018": 1.32810360913,
			"-0.017": 2.00338999029,
			"-0.016": 1.62924929796,
			"-0.015": 1.94308809917,
			"-0.014": 1.93896607007,
			"-0.013": 1.81988368295,
			"-0.012": 1.33373940215,
			"-0.011": 2.7683156041,
			"-0.01": 2.01680088701,
			"-0.009": 2.6226121871,
			"-0.008": 3.68147910999,
			"-0.007": 5.97726059163,
			"-0.006": 12.8801327052,
			"-0.005": 20.5234081644,
			"-0.004": 19.1863956468,
			"-0.003": 21.075913056,
			"-0.002": 16.6772550569,
			"-0.001": 18.4355947552,
			"0.0": 14.357468355,
			"0.001": 12.396203975,
			"0.002": 14.1500390761,
			"0.003": 13.0861340643,
			"0.004": 13.9247290576,
			"0.005": 10.8292751306,
			"0.006": 7.32783641451,
			"0.007": 4.32684144846,
			"0.008": 4.15076268825,
			"0.009": 4.51221761493,
			"0.01": 4.99079745217,
			"0.011": 8.68171746914,
			"0.012": 5.15940959449,
			"0.013": 4.01125600212,
			"0.014": 5.44115711068,
			"0.015": 1.68253584923,
			"0.016": 0.0147629607191,
			"0.017": 0.0,
			"0.018": 0.0,
			"0.019": 0.0,
			"0.02": 0.0,
			"0.021": 0.0,
			"0.022": 0.0,
			"0.023": 0.0,
			"0.024": 0.0,
			"0.025": 0.0
		}
	}
}
