{
	 "smiles": "CC1=CC=C(C=C1)C(Br)C(=O)C1=CC=C(Cl)C=C1", 
	 "Tm": 350.15, 
	 "num_atms": 30, 
	 "gaussian": { 
		 "optdone": 1, 
		 "sigma_profile": "yes", 
		 "theory": "DFT", 
		 "functional": "B3LYP", 
		 "basiset": "6-31G**", 
		 "properties": { 
			 "R2extent": 7897.6291, 
			 "electric_dipole_moment_norm": 2.95988475113, 
			 "electric_quadrupole_moment_norm": 11.2965887077, 
			 "total_energy": -3685.65587943, 
			 "HOMO_LUMO_gap": 0.16823, 
			 "cosmo_polarized_energy": -7.86, 
			 "cosmo_cavitation_energy": 37.85, 
			 "cosmo_dispersion_energy": -26.9, 
			 "cosmo_repulsion_energy": 2.1, 
			 "cosmo_total_nonelectrostatic_energy": 13.05, 
			 "SMD_solvation_energy": 5.47 
		},
		"coords": [
			{
				"x": -3.5210439093,
				"y": 1.0487893144,
				"z": -3.3276189487,
				"element": "C" 
			},
			{
				"x": -2.7006450158,
				"y": 0.1879085669,
				"z": -2.3970162462,
				"element": "C" 
			},
			{
				"x": -1.3126772935,
				"y": 0.0698967209,
				"z": -2.560661111,
				"element": "C" 
			},
			{
				"x": -0.5470847588,
				"y": -0.7021656092,
				"z": -1.6923450137,
				"element": "C" 
			},
			{
				"x": -1.1472774343,
				"y": -1.3868966856,
				"z": -0.6218953573,
				"element": "C" 
			},
			{
				"x": -2.53032748,
				"y": -1.2827203303,
				"z": -0.4594287296,
				"element": "C" 
			},
			{
				"x": -3.2907493037,
				"y": -0.5052462405,
				"z": -1.3356824031,
				"element": "C" 
			},
			{
				"x": -0.2387636918,
				"y": -2.244946636,
				"z": 0.2423907949,
				"element": "C" 
			},
			{
				"x": -1.1191365422,
				"y": -3.0612719079,
				"z": 1.831662819,
				"element": "Br" 
			},
			{
				"x": 1.0556004417,
				"y": -1.5428408701,
				"z": 0.7006406927,
				"element": "C" 
			},
			{
				"x": 2.1076415832,
				"y": -1.9876825622,
				"z": 0.2668177496,
				"element": "O" 
			},
			{
				"x": 1.0365205674,
				"y": -0.3486530744,
				"z": 1.5972008494,
				"element": "C" 
			},
			{
				"x": -0.1362377928,
				"y": 0.2809302448,
				"z": 2.0421247542,
				"element": "C" 
			},
			{
				"x": -0.0703305256,
				"y": 1.403720996,
				"z": 2.8632817768,
				"element": "C" 
			},
			{
				"x": 1.1779036338,
				"y": 1.8959849926,
				"z": 3.2458743378,
				"element": "C" 
			},
			{
				"x": 1.2642316426,
				"y": 3.3074106641,
				"z": 4.2827531008,
				"element": "Cl" 
			},
			{
				"x": 2.3599189238,
				"y": 1.2870958838,
				"z": 2.8180719459,
				"element": "C" 
			},
			{
				"x": 2.2800536156,
				"y": 0.1707291741,
				"z": 1.9943511707,
				"element": "C" 
			},
			{
				"x": -3.4014044028,
				"y": 2.113277749,
				"z": -3.0910147395,
				"element": "H" 
			},
			{
				"x": -3.2151885519,
				"y": 0.9147721603,
				"z": -4.3702930151,
				"element": "H" 
			},
			{
				"x": -4.586542248,
				"y": 0.8138715869,
				"z": -3.2546226521,
				"element": "H" 
			},
			{
				"x": -0.8231306548,
				"y": 0.5880643576,
				"z": -3.3816092567,
				"element": "H" 
			},
			{
				"x": 0.5248003855,
				"y": -0.78117723,
				"z": -1.852823947,
				"element": "H" 
			},
			{
				"x": -3.0182390938,
				"y": -1.8135812545,
				"z": 0.3504044062,
				"element": "H" 
			},
			{
				"x": -4.3660058434,
				"y": -0.4424666478,
				"z": -1.1882217277,
				"element": "H" 
			},
			{
				"x": 0.1013329176,
				"y": -3.1178248867,
				"z": -0.3145221092,
				"element": "H" 
			},
			{
				"x": -1.1079223044,
				"y": -0.0953025645,
				"z": 1.7486881479,
				"element": "H" 
			},
			{
				"x": -0.9753731851,
				"y": 1.8927844691,
				"z": 3.205228794,
				"element": "H" 
			},
			{
				"x": 3.3199205439,
				"y": 1.6852670019,
				"z": 3.1269268583,
				"element": "H" 
			},
			{
				"x": 3.1800557772,
				"y": -0.3215273826,
				"z": 1.6424370592,
				"element": "H" 
			}
		],
		 "valence_orbital": [ 
			{
				"type": "occ",
				"energy": -0.27262,
				"method": "rhf"
			},
			{
				"type": "occ",
				"energy": -0.26794,
				"method": "rhf"
			},
			{
				"type": "occ",
				"energy": -0.26056,
				"method": "rhf"
			},
			{
				"type": "occ",
				"energy": -0.25613,
				"method": "rhf"
			},
			{
				"type": "occ",
				"energy": -0.24448,
				"method": "rhf"
			},
			{
				"type": "unocc",
				"energy": -0.07625,
				"method": "rhf"
			},
			{
				"type": "unocc",
				"energy": -0.02366,
				"method": "rhf"
			},
			{
				"type": "unocc",
				"energy": -0.01995,
				"method": "rhf"
			},
			{
				"type": "unocc",
				"energy": -0.0149,
				"method": "rhf"
			},
			{
				"type": "unocc",
				"energy": -0.01016,
				"method": "rhf"
			}
		],
		"cosmo_sigma_profile": { 
			"-0.025": 0.0,
			"-0.024": 0.0,
			"-0.023": 0.0,
			"-0.022": 0.0,
			"-0.021": 0.0,
			"-0.02": 0.0,
			"-0.019": 0.0,
			"-0.018": 0.0,
			"-0.017": 0.0,
			"-0.016": 0.0,
			"-0.015": 0.0,
			"-0.014": 0.0,
			"-0.013": 0.0,
			"-0.012": 0.0,
			"-0.011": 0.0,
			"-0.01": 0.0,
			"-0.009": 0.208269509137,
			"-0.008": 3.40541103138,
			"-0.007": 5.6335143947,
			"-0.006": 11.7748395248,
			"-0.005": 16.2398449723,
			"-0.004": 23.3432588381,
			"-0.003": 21.9941506599,
			"-0.002": 23.6746340864,
			"-0.001": 27.7650638774,
			"0.0": 33.3605778512,
			"0.001": 33.092065182,
			"0.002": 32.1220969153,
			"0.003": 24.4815124251,
			"0.004": 25.4864728283,
			"0.005": 12.7649566333,
			"0.006": 1.56746354816,
			"0.007": 1.18648992137,
			"0.008": 2.07599045584,
			"0.009": 1.75397966889,
			"0.01": 3.05238635683,
			"0.011": 2.88047728338,
			"0.012": 0.330556212255,
			"0.013": 0.0,
			"0.014": 0.0,
			"0.015": 0.0,
			"0.016": 0.0,
			"0.017": 0.0,
			"0.018": 0.0,
			"0.019": 0.0,
			"0.02": 0.0,
			"0.021": 0.0,
			"0.022": 0.0,
			"0.023": 0.0,
			"0.024": 0.0,
			"0.025": 0.0
		}
	}
}
