{
	 "smiles": "COC(=O)CCCCCC(=O)OC", 
	 "Tm": 252.15, 
	 "num_atms": 29, 
	 "gaussian": { 
		 "optdone": 1, 
		 "sigma_profile": "yes", 
		 "theory": "DFT", 
		 "functional": "B3LYP", 
		 "basiset": "6-31G**", 
		 "properties": { 
			 "R2extent": 3615.4029, 
			 "electric_dipole_moment_norm": 2.4895478003, 
			 "electric_quadrupole_moment_norm": 11.6060366478, 
			 "total_energy": -653.521312835, 
			 "HOMO_LUMO_gap": 0.27109, 
			 "cosmo_polarized_energy": -11.68, 
			 "cosmo_cavitation_energy": 32.23, 
			 "cosmo_dispersion_energy": -21.98, 
			 "cosmo_repulsion_energy": 1.81, 
			 "cosmo_total_nonelectrostatic_energy": 12.07, 
			 "SMD_solvation_energy": 8.07 
		},
		"coords": [
			{
				"x": 0.4998633758,
				"y": -2.1845316088,
				"z": -2.9408211649,
				"element": "C" 
			},
			{
				"x": 0.5232563723,
				"y": -1.7455269779,
				"z": -1.5713440168,
				"element": "O" 
			},
			{
				"x": 1.6442325536,
				"y": -1.0864047181,
				"z": -1.1938038936,
				"element": "C" 
			},
			{
				"x": 2.5630694965,
				"y": -0.8503833479,
				"z": -1.949129532,
				"element": "O" 
			},
			{
				"x": 1.5985640168,
				"y": -0.7138782188,
				"z": 0.275580465,
				"element": "C" 
			},
			{
				"x": 2.3397352444,
				"y": 0.5961312808,
				"z": 0.5791570152,
				"element": "C" 
			},
			{
				"x": 1.7493382271,
				"y": 1.8654914074,
				"z": -0.0613997487,
				"element": "C" 
			},
			{
				"x": 0.2970475223,
				"y": 2.20214318,
				"z": 0.3461268515,
				"element": "C" 
			},
			{
				"x": -0.7687654197,
				"y": 1.6906104961,
				"z": -0.6480613372,
				"element": "C" 
			},
			{
				"x": -2.1815056836,
				"y": 1.9816845809,
				"z": -0.1868604454,
				"element": "C" 
			},
			{
				"x": -2.9621268358,
				"y": 2.738867896,
				"z": -0.7218446793,
				"element": "O" 
			},
			{
				"x": -2.4794981634,
				"y": 1.2821835159,
				"z": 0.9364007246,
				"element": "O" 
			},
			{
				"x": -3.7960307514,
				"y": 1.5038770969,
				"z": 1.4654068815,
				"element": "C" 
			},
			{
				"x": 0.590043608,
				"y": -1.3328704293,
				"z": -3.6194086527,
				"element": "H" 
			},
			{
				"x": 1.3216995791,
				"y": -2.877911007,
				"z": -3.136292076,
				"element": "H" 
			},
			{
				"x": -0.4607089806,
				"y": -2.6817028989,
				"z": -3.0745347332,
				"element": "H" 
			},
			{
				"x": 2.0810226883,
				"y": -1.5373137775,
				"z": 0.8195639662,
				"element": "H" 
			},
			{
				"x": 0.5599628435,
				"y": -0.69429754,
				"z": 0.6162194265,
				"element": "H" 
			},
			{
				"x": 3.3766803578,
				"y": 0.4868639624,
				"z": 0.2446934905,
				"element": "H" 
			},
			{
				"x": 2.3676119275,
				"y": 0.7245970614,
				"z": 1.6684483694,
				"element": "H" 
			},
			{
				"x": 2.3988557639,
				"y": 2.7017592955,
				"z": 0.2224338534,
				"element": "H" 
			},
			{
				"x": 1.8240279588,
				"y": 1.7903361512,
				"z": -1.1534361588,
				"element": "H" 
			},
			{
				"x": 0.1841804156,
				"y": 3.2897769588,
				"z": 0.4251028619,
				"element": "H" 
			},
			{
				"x": 0.0830839983,
				"y": 1.7999909585,
				"z": 1.3433912913,
				"element": "H" 
			},
			{
				"x": -0.6743241699,
				"y": 0.6095216517,
				"z": -0.7945304015,
				"element": "H" 
			},
			{
				"x": -0.641976673,
				"y": 2.1747848552,
				"z": -1.6197267761,
				"element": "H" 
			},
			{
				"x": -3.866762765,
				"y": 0.8784725031,
				"z": 2.3555195217,
				"element": "H" 
			},
			{
				"x": -4.5582260491,
				"y": 1.218749487,
				"z": 0.735663529,
				"element": "H" 
			},
			{
				"x": -3.9366504582,
				"y": 2.5564781853,
				"z": 1.7242853682,
				"element": "H" 
			}
		],
		 "valence_orbital": [ 
			{
				"type": "occ",
				"energy": -0.32207,
				"method": "rhf"
			},
			{
				"type": "occ",
				"energy": -0.30425,
				"method": "rhf"
			},
			{
				"type": "occ",
				"energy": -0.29777,
				"method": "rhf"
			},
			{
				"type": "occ",
				"energy": -0.27268,
				"method": "rhf"
			},
			{
				"type": "occ",
				"energy": -0.26375,
				"method": "rhf"
			},
			{
				"type": "unocc",
				"energy": 0.00734,
				"method": "rhf"
			},
			{
				"type": "unocc",
				"energy": 0.01519,
				"method": "rhf"
			},
			{
				"type": "unocc",
				"energy": 0.08279,
				"method": "rhf"
			},
			{
				"type": "unocc",
				"energy": 0.10702,
				"method": "rhf"
			},
			{
				"type": "unocc",
				"energy": 0.11116,
				"method": "rhf"
			}
		],
		"cosmo_sigma_profile": { 
			"-0.025": 0.0,
			"-0.024": 0.0,
			"-0.023": 0.0,
			"-0.022": 0.0,
			"-0.021": 0.0,
			"-0.02": 0.0,
			"-0.019": 0.0,
			"-0.018": 0.0,
			"-0.017": 0.0,
			"-0.016": 0.0,
			"-0.015": 0.0,
			"-0.014": 0.0,
			"-0.013": 0.0,
			"-0.012": 0.0,
			"-0.011": 0.0,
			"-0.01": 0.0,
			"-0.009": 0.0,
			"-0.008": 0.0,
			"-0.007": 0.943746650185,
			"-0.006": 10.4300975802,
			"-0.005": 16.0963040811,
			"-0.004": 25.290014203,
			"-0.003": 45.311265559,
			"-0.002": 33.7581836399,
			"-0.001": 25.3857829481,
			"0.0": 18.7761288176,
			"0.001": 9.1719969941,
			"0.002": 7.71623370837,
			"0.003": 7.32197704086,
			"0.004": 5.46348539759,
			"0.005": 5.40402466309,
			"0.006": 5.42745680162,
			"0.007": 4.64407344767,
			"0.008": 5.33039503463,
			"0.009": 3.75279554922,
			"0.01": 3.4343631981,
			"0.011": 5.41626196628,
			"0.012": 9.27776158455,
			"0.013": 2.95642843416,
			"0.014": 0.0684003696283,
			"0.015": 0.0,
			"0.016": 0.0,
			"0.017": 0.0,
			"0.018": 0.0,
			"0.019": 0.0,
			"0.02": 0.0,
			"0.021": 0.0,
			"0.022": 0.0,
			"0.023": 0.0,
			"0.024": 0.0,
			"0.025": 0.0
		}
	}
}
