{
	 "smiles": "NN=C1C(=O)N(CC=C)C2=C1C=CC=C2", 
	 "Tm": 403.15, 
	 "num_atms": 26, 
	 "gaussian": { 
		 "optdone": 1, 
		 "sigma_profile": "yes", 
		 "theory": "DFT", 
		 "functional": "B3LYP", 
		 "basiset": "6-31G**", 
		 "properties": { 
			 "R2extent": 3430.7722, 
			 "electric_dipole_moment_norm": 4.18438412912, 
			 "electric_quadrupole_moment_norm": 17.3498332289, 
			 "total_energy": -665.230894654, 
			 "HOMO_LUMO_gap": 0.14611, 
			 "cosmo_polarized_energy": -18.36, 
			 "cosmo_cavitation_energy": 30.48, 
			 "cosmo_dispersion_energy": -21.66, 
			 "cosmo_repulsion_energy": 1.68, 
			 "cosmo_total_nonelectrostatic_energy": 10.5, 
			 "SMD_solvation_energy": 5.71 
		},
		"coords": [
			{
				"x": -3.0691656799,
				"y": -2.2968094156,
				"z": 1.9957992019,
				"element": "N" 
			},
			{
				"x": -2.6413968621,
				"y": -1.0564216747,
				"z": 1.6952073861,
				"element": "N" 
			},
			{
				"x": -1.5212582702,
				"y": -0.9069672661,
				"z": 1.066596838,
				"element": "C" 
			},
			{
				"x": -1.0844602584,
				"y": 0.4839579138,
				"z": 0.6880118384,
				"element": "C" 
			},
			{
				"x": -1.6075581094,
				"y": 1.5558529276,
				"z": 0.9278955707,
				"element": "O" 
			},
			{
				"x": 0.0802373057,
				"y": 0.3129535928,
				"z": -0.0712840881,
				"element": "N" 
			},
			{
				"x": 0.8304376732,
				"y": 1.4409785221,
				"z": -0.6106317253,
				"element": "C" 
			},
			{
				"x": 2.0263623187,
				"y": 1.818818018,
				"z": 0.2298696365,
				"element": "C" 
			},
			{
				"x": 2.1982463457,
				"y": 3.0232802735,
				"z": 0.7717513934,
				"element": "C" 
			},
			{
				"x": 0.433934159,
				"y": -1.0347261975,
				"z": -0.153992741,
				"element": "C" 
			},
			{
				"x": -0.5151991444,
				"y": -1.832530646,
				"z": 0.5387503236,
				"element": "C" 
			},
			{
				"x": -0.3148162903,
				"y": -3.2120734309,
				"z": 0.6204804632,
				"element": "C" 
			},
			{
				"x": 0.7913505871,
				"y": -3.7887239209,
				"z": -0.0170991671,
				"element": "C" 
			},
			{
				"x": 1.6952848564,
				"y": -2.9904184179,
				"z": -0.7189258927,
				"element": "C" 
			},
			{
				"x": 1.534165423,
				"y": -1.6001393174,
				"z": -0.7892115564,
				"element": "C" 
			},
			{
				"x": -2.7986497988,
				"y": -3.0568315106,
				"z": 1.3770272584,
				"element": "H" 
			},
			{
				"x": -4.0496363848,
				"y": -2.2991277292,
				"z": 2.2419546993,
				"element": "H" 
			},
			{
				"x": 0.1274905461,
				"y": 2.2759683774,
				"z": -0.663017668,
				"element": "H" 
			},
			{
				"x": 1.1378472401,
				"y": 1.1882199561,
				"z": -1.6340782456,
				"element": "H" 
			},
			{
				"x": 2.7736491099,
				"y": 1.04142681,
				"z": 0.3851825557,
				"element": "H" 
			},
			{
				"x": 3.0767998937,
				"y": 3.2622938089,
				"z": 1.3637613532,
				"element": "H" 
			},
			{
				"x": 1.4623543952,
				"y": 3.8137440196,
				"z": 0.646575532,
				"element": "H" 
			},
			{
				"x": -0.9777873791,
				"y": -3.8456381977,
				"z": 1.1999982527,
				"element": "H" 
			},
			{
				"x": 0.9483080918,
				"y": -4.8608381321,
				"z": 0.04434241,
				"element": "H" 
			},
			{
				"x": 2.5484982861,
				"y": -3.4486661679,
				"z": -1.2105308765,
				"element": "H" 
			},
			{
				"x": 2.2556619454,
				"y": -0.9870821954,
				"z": -1.3190327525,
				"element": "H" 
			}
		],
		 "valence_orbital": [ 
			{
				"type": "occ",
				"energy": -0.28035,
				"method": "rhf"
			},
			{
				"type": "occ",
				"energy": -0.26855,
				"method": "rhf"
			},
			{
				"type": "occ",
				"energy": -0.24911,
				"method": "rhf"
			},
			{
				"type": "occ",
				"energy": -0.23485,
				"method": "rhf"
			},
			{
				"type": "occ",
				"energy": -0.20831,
				"method": "rhf"
			},
			{
				"type": "unocc",
				"energy": -0.0622,
				"method": "rhf"
			},
			{
				"type": "unocc",
				"energy": -0.00857,
				"method": "rhf"
			},
			{
				"type": "unocc",
				"energy": 0.01002,
				"method": "rhf"
			},
			{
				"type": "unocc",
				"energy": 0.02524,
				"method": "rhf"
			},
			{
				"type": "unocc",
				"energy": 0.06198,
				"method": "rhf"
			}
		],
		"cosmo_sigma_profile": { 
			"-0.025": 0.0,
			"-0.024": 0.0,
			"-0.023": 0.0,
			"-0.022": 0.0,
			"-0.021": 0.0,
			"-0.02": 0.0,
			"-0.019": 0.0,
			"-0.018": 0.0,
			"-0.017": 0.0,
			"-0.016": 0.0,
			"-0.015": 0.328159729301,
			"-0.014": 1.89062049476,
			"-0.013": 3.29598484812,
			"-0.012": 2.97571015188,
			"-0.011": 2.29899347002,
			"-0.01": 2.1647211383,
			"-0.009": 2.49094527768,
			"-0.008": 2.02437682196,
			"-0.007": 5.63659783299,
			"-0.006": 12.5666950683,
			"-0.005": 19.115979851,
			"-0.004": 16.9318965733,
			"-0.003": 16.1974812912,
			"-0.002": 16.6001324204,
			"-0.001": 15.8020275661,
			"0.0": 16.3767928237,
			"0.001": 15.1978448898,
			"0.002": 14.5201914262,
			"0.003": 13.41507475,
			"0.004": 15.0253511072,
			"0.005": 14.3619967143,
			"0.006": 6.16822579986,
			"0.007": 2.80625368503,
			"0.008": 3.22126720532,
			"0.009": 2.55654402171,
			"0.01": 2.46537550121,
			"0.011": 2.828435926,
			"0.012": 3.77868146812,
			"0.013": 5.55920844163,
			"0.014": 2.52819022212,
			"0.015": 2.00720567135,
			"0.016": 0.472757413082,
			"0.017": 0.0,
			"0.018": 0.0,
			"0.019": 0.0,
			"0.02": 0.0,
			"0.021": 0.0,
			"0.022": 0.0,
			"0.023": 0.0,
			"0.024": 0.0,
			"0.025": 0.0
		}
	}
}
