{
	 "smiles": "OC(=O)C1=CC(=CN=C1)N1CCOCC1", 
	 "Tm": 532.15, 
	 "num_atms": 27, 
	 "gaussian": { 
		 "optdone": 1, 
		 "sigma_profile": "yes", 
		 "theory": "DFT", 
		 "functional": "B3LYP", 
		 "basiset": "6-31G**", 
		 "properties": { 
			 "R2extent": 4401.8099, 
			 "electric_dipole_moment_norm": 3.70356106066, 
			 "electric_quadrupole_moment_norm": 13.6831327078, 
			 "total_energy": -723.443935584, 
			 "HOMO_LUMO_gap": 0.16046, 
			 "cosmo_polarized_energy": -18.17, 
			 "cosmo_cavitation_energy": 29.78, 
			 "cosmo_dispersion_energy": -22.31, 
			 "cosmo_repulsion_energy": 1.73, 
			 "cosmo_total_nonelectrostatic_energy": 9.2, 
			 "SMD_solvation_energy": 3.76 
		},
		"coords": [
			{
				"x": -0.0481128888,
				"y": -3.5427414296,
				"z": 4.016858471,
				"element": "O" 
			},
			{
				"x": -0.4953676787,
				"y": -2.963814164,
				"z": 2.8727856964,
				"element": "C" 
			},
			{
				"x": -1.4706293982,
				"y": -3.4057885707,
				"z": 2.3113332967,
				"element": "O" 
			},
			{
				"x": 0.2772777066,
				"y": -1.7815645966,
				"z": 2.3687321309,
				"element": "C" 
			},
			{
				"x": 0.095517265,
				"y": -1.4120578325,
				"z": 1.0362382137,
				"element": "C" 
			},
			{
				"x": 0.7983366379,
				"y": -0.3108239843,
				"z": 0.5136618197,
				"element": "C" 
			},
			{
				"x": 1.6611222704,
				"y": 0.3638641289,
				"z": 1.418251026,
				"element": "C" 
			},
			{
				"x": 1.8258078099,
				"y": 0.0212258767,
				"z": 2.6938530086,
				"element": "N" 
			},
			{
				"x": 1.1466871133,
				"y": -1.0280572723,
				"z": 3.1665953382,
				"element": "C" 
			},
			{
				"x": 0.6576159546,
				"y": 0.0962909114,
				"z": -0.795479727,
				"element": "N" 
			},
			{
				"x": 1.5822183427,
				"y": 1.0443481365,
				"z": -1.4143093138,
				"element": "C" 
			},
			{
				"x": 1.6289054311,
				"y": 0.8065765526,
				"z": -2.9228525348,
				"element": "C" 
			},
			{
				"x": 0.3619573097,
				"y": 0.9401971383,
				"z": -3.5547641529,
				"element": "O" 
			},
			{
				"x": -0.7483377096,
				"y": 0.6041018903,
				"z": -2.7292771988,
				"element": "C" 
			},
			{
				"x": -0.4127719694,
				"y": -0.4198009076,
				"z": -1.6466042068,
				"element": "C" 
			},
			{
				"x": 0.80960216,
				"y": -3.1720431764,
				"z": 4.2678382411,
				"element": "H" 
			},
			{
				"x": -0.5803099963,
				"y": -2.0060936688,
				"z": 0.4335210854,
				"element": "H" 
			},
			{
				"x": 2.2250880533,
				"y": 1.2328656838,
				"z": 1.0907656774,
				"element": "H" 
			},
			{
				"x": 1.2782624921,
				"y": -1.2351517494,
				"z": 4.2282195297,
				"element": "H" 
			},
			{
				"x": 2.5909282533,
				"y": 0.8911450056,
				"z": -1.0150379108,
				"element": "H" 
			},
			{
				"x": 1.3004542668,
				"y": 2.0879731398,
				"z": -1.2046072663,
				"element": "H" 
			},
			{
				"x": 2.0434635573,
				"y": -0.1958195454,
				"z": -3.1121215431,
				"element": "H" 
			},
			{
				"x": 2.2971689481,
				"y": 1.5373763523,
				"z": -3.3896669138,
				"element": "H" 
			},
			{
				"x": -1.5268324691,
				"y": 0.2028810474,
				"z": -3.3862403501,
				"element": "H" 
			},
			{
				"x": -1.1479293162,
				"y": 1.5107170656,
				"z": -2.2494463677,
				"element": "H" 
			},
			{
				"x": -0.1428091469,
				"y": -1.3838662486,
				"z": -2.1052617691,
				"element": "H" 
			},
			{
				"x": -1.3129129989,
				"y": -0.585639783,
				"z": -1.0449842795,
				"element": "H" 
			}
		],
		 "valence_orbital": [ 
			{
				"type": "occ",
				"energy": -0.29057,
				"method": "rhf"
			},
			{
				"type": "occ",
				"energy": -0.27951,
				"method": "rhf"
			},
			{
				"type": "occ",
				"energy": -0.2646,
				"method": "rhf"
			},
			{
				"type": "occ",
				"energy": -0.25947,
				"method": "rhf"
			},
			{
				"type": "occ",
				"energy": -0.21539,
				"method": "rhf"
			},
			{
				"type": "unocc",
				"energy": -0.05493,
				"method": "rhf"
			},
			{
				"type": "unocc",
				"energy": -0.02237,
				"method": "rhf"
			},
			{
				"type": "unocc",
				"energy": 0.0487,
				"method": "rhf"
			},
			{
				"type": "unocc",
				"energy": 0.06564,
				"method": "rhf"
			},
			{
				"type": "unocc",
				"energy": 0.06775,
				"method": "rhf"
			}
		],
		"cosmo_sigma_profile": { 
			"-0.025": 0.0,
			"-0.024": 0.0,
			"-0.023": 0.0,
			"-0.022": 0.0,
			"-0.021": 0.0,
			"-0.02": 0.0,
			"-0.019": 0.307129475394,
			"-0.018": 0.585158332214,
			"-0.017": 1.17360793402,
			"-0.016": 0.946465593913,
			"-0.015": 0.996978317134,
			"-0.014": 0.620148683309,
			"-0.013": 0.88252168082,
			"-0.012": 1.63352094374,
			"-0.011": 1.1955902434,
			"-0.01": 0.963348996571,
			"-0.009": 1.43260688073,
			"-0.008": 1.37650456731,
			"-0.007": 5.59081431993,
			"-0.006": 13.6573387767,
			"-0.005": 21.774353051,
			"-0.004": 31.1497326659,
			"-0.003": 19.8138465945,
			"-0.002": 13.8848315263,
			"-0.001": 11.1889526904,
			"0.0": 9.67249543078,
			"0.001": 16.1090558225,
			"0.002": 13.4968004752,
			"0.003": 7.31237678369,
			"0.004": 5.48050045904,
			"0.005": 5.49715669858,
			"0.006": 4.57659329626,
			"0.007": 5.26511645937,
			"0.008": 5.16271212021,
			"0.009": 5.63075499557,
			"0.01": 7.72322096859,
			"0.011": 6.93880806673,
			"0.012": 7.27774931357,
			"0.013": 3.42017903237,
			"0.014": 1.57731250362,
			"0.015": 0.729389048915,
			"0.016": 0.634073648815,
			"0.017": 0.0664700418789,
			"0.018": 0.0,
			"0.019": 0.0,
			"0.02": 0.0,
			"0.021": 0.0,
			"0.022": 0.0,
			"0.023": 0.0,
			"0.024": 0.0,
			"0.025": 0.0
		}
	}
}
