{
	 "smiles": "NC(=S)NC1=CC=CC=N1", 
	 "Tm": 422.15, 
	 "num_atms": 17, 
	 "gaussian": { 
		 "optdone": 1, 
		 "sigma_profile": "yes", 
		 "theory": "DFT", 
		 "functional": "B3LYP", 
		 "basiset": "6-31G**", 
		 "properties": { 
			 "R2extent": 2868.5758, 
			 "electric_dipole_moment_norm": 6.14467724213, 
			 "electric_quadrupole_moment_norm": 20.5379504476, 
			 "total_energy": -795.325795817, 
			 "HOMO_LUMO_gap": 0.15944, 
			 "cosmo_polarized_energy": -15.73, 
			 "cosmo_cavitation_energy": 22.85, 
			 "cosmo_dispersion_energy": -17.86, 
			 "cosmo_repulsion_energy": 1.4, 
			 "cosmo_total_nonelectrostatic_energy": 6.39, 
			 "SMD_solvation_energy": 2.51 
		},
		"coords": [
			{
				"x": 1.7429171311,
				"y": -0.1774226235,
				"z": -1.7846419324,
				"element": "N" 
			},
			{
				"x": 2.1964027459,
				"y": 0.1607575616,
				"z": -0.5691326948,
				"element": "C" 
			},
			{
				"x": 3.261986297,
				"y": 1.4293300959,
				"z": -0.2743112779,
				"element": "S" 
			},
			{
				"x": 1.7450886722,
				"y": -0.5982840519,
				"z": 0.5017872557,
				"element": "N" 
			},
			{
				"x": 0.8782119918,
				"y": -1.6864578658,
				"z": 0.5627655217,
				"element": "C" 
			},
			{
				"x": 0.6067379423,
				"y": -2.257469833,
				"z": 1.8242675694,
				"element": "C" 
			},
			{
				"x": -0.2549882688,
				"y": -3.3396920424,
				"z": 1.8868634104,
				"element": "C" 
			},
			{
				"x": -0.8286881599,
				"y": -3.8341515716,
				"z": 0.7086473285,
				"element": "C" 
			},
			{
				"x": -0.4994558908,
				"y": -3.2040604522,
				"z": -0.483950867,
				"element": "C" 
			},
			{
				"x": 0.332530803,
				"y": -2.1547361035,
				"z": -0.568452014,
				"element": "N" 
			},
			{
				"x": 1.0983292772,
				"y": -0.9609445821,
				"z": -1.8774787178,
				"element": "H" 
			},
			{
				"x": 2.0665569915,
				"y": 0.36912445,
				"z": -2.565843316,
				"element": "H" 
			},
			{
				"x": 2.1341055725,
				"y": -0.2774406645,
				"z": 1.3774908475,
				"element": "H" 
			},
			{
				"x": 1.0669779824,
				"y": -1.8516679075,
				"z": 2.7198645176,
				"element": "H" 
			},
			{
				"x": -0.4802482192,
				"y": -3.797239651,
				"z": 2.8456595414,
				"element": "H" 
			},
			{
				"x": -1.5075289068,
				"y": -4.679306417,
				"z": 0.7180474167,
				"element": "H" 
			},
			{
				"x": -0.9172359613,
				"y": -3.5482383415,
				"z": -1.4273825891,
				"element": "H" 
			}
		],
		 "valence_orbital": [ 
			{
				"type": "occ",
				"energy": -0.30708,
				"method": "rhf"
			},
			{
				"type": "occ",
				"energy": -0.28913,
				"method": "rhf"
			},
			{
				"type": "occ",
				"energy": -0.25057,
				"method": "rhf"
			},
			{
				"type": "occ",
				"energy": -0.20776,
				"method": "rhf"
			},
			{
				"type": "occ",
				"energy": -0.20405,
				"method": "rhf"
			},
			{
				"type": "unocc",
				"energy": -0.04461,
				"method": "rhf"
			},
			{
				"type": "unocc",
				"energy": -0.03292,
				"method": "rhf"
			},
			{
				"type": "unocc",
				"energy": 0.02581,
				"method": "rhf"
			},
			{
				"type": "unocc",
				"energy": 0.06224,
				"method": "rhf"
			},
			{
				"type": "unocc",
				"energy": 0.08562,
				"method": "rhf"
			}
		],
		"cosmo_sigma_profile": { 
			"-0.025": 0.0,
			"-0.024": 0.0,
			"-0.023": 0.0,
			"-0.022": 0.0,
			"-0.021": 0.0,
			"-0.02": 0.0,
			"-0.019": 0.0,
			"-0.018": 0.0,
			"-0.017": 0.0,
			"-0.016": 0.0430276077408,
			"-0.015": 1.06599960174,
			"-0.014": 2.22195151934,
			"-0.013": 1.8951812333,
			"-0.012": 1.76222154415,
			"-0.011": 2.14319882691,
			"-0.01": 2.6522142228,
			"-0.009": 3.3360460645,
			"-0.008": 3.60709954176,
			"-0.007": 9.28180554224,
			"-0.006": 11.1383497055,
			"-0.005": 9.96601044304,
			"-0.004": 8.1503170503,
			"-0.003": 7.87996986969,
			"-0.002": 6.69147992854,
			"-0.001": 9.80846358482,
			"0.0": 14.7074967879,
			"0.001": 17.7725277228,
			"0.002": 15.8075831098,
			"0.003": 12.8503972372,
			"0.004": 4.81078313541,
			"0.005": 4.12465029684,
			"0.006": 3.04117794585,
			"0.007": 3.33511535817,
			"0.008": 3.57500404052,
			"0.009": 4.46414950054,
			"0.01": 4.8150976201,
			"0.011": 7.46964228837,
			"0.012": 6.27237682274,
			"0.013": 1.23804236945,
			"0.014": 0.0,
			"0.015": 0.0,
			"0.016": 0.0,
			"0.017": 0.0,
			"0.018": 0.0,
			"0.019": 0.0,
			"0.02": 0.0,
			"0.021": 0.0,
			"0.022": 0.0,
			"0.023": 0.0,
			"0.024": 0.0,
			"0.025": 0.0
		}
	}
}
