{
	 "smiles": "OCCC1=C(Cl)C=CC=C1Cl", 
	 "Tm": 335.15, 
	 "num_atms": 19, 
	 "gaussian": { 
		 "optdone": 1, 
		 "sigma_profile": "yes", 
		 "theory": "DFT", 
		 "functional": "B3LYP", 
		 "basiset": "6-31G**", 
		 "properties": { 
			 "R2extent": 2923.732, 
			 "electric_dipole_moment_norm": 1.36591975606, 
			 "electric_quadrupole_moment_norm": 9.38104719794, 
			 "total_energy": -1305.27181993, 
			 "HOMO_LUMO_gap": 0.22589, 
			 "cosmo_polarized_energy": -8.78, 
			 "cosmo_cavitation_energy": 25.5, 
			 "cosmo_dispersion_energy": -18.98, 
			 "cosmo_repulsion_energy": 1.54, 
			 "cosmo_total_nonelectrostatic_energy": 8.06, 
			 "SMD_solvation_energy": 3.89 
		},
		"coords": [
			{
				"x": 2.4701034722,
				"y": 0.9539344636,
				"z": -0.0308028622,
				"element": "O" 
			},
			{
				"x": 1.363174069,
				"y": 1.7536772794,
				"z": -0.417617332,
				"element": "C" 
			},
			{
				"x": 0.0828524216,
				"y": 0.9297590563,
				"z": -0.2359849486,
				"element": "C" 
			},
			{
				"x": 0.018713998,
				"y": -0.2956082948,
				"z": -1.1198956818,
				"element": "C" 
			},
			{
				"x": -0.3688043934,
				"y": -0.2175808257,
				"z": -2.4702711712,
				"element": "C" 
			},
			{
				"x": -0.8263569173,
				"y": 1.3420742267,
				"z": -3.1643677566,
				"element": "Cl" 
			},
			{
				"x": -0.4261056819,
				"y": -1.3229370373,
				"z": -3.3164161421,
				"element": "C" 
			},
			{
				"x": -0.0879475612,
				"y": -2.5768086253,
				"z": -2.8146074935,
				"element": "C" 
			},
			{
				"x": 0.2932126101,
				"y": -2.7135920073,
				"z": -1.4830028031,
				"element": "C" 
			},
			{
				"x": 0.3405040372,
				"y": -1.5872020479,
				"z": -0.6614345743,
				"element": "C" 
			},
			{
				"x": 0.8058414474,
				"y": -1.8506715488,
				"z": 1.0150361399,
				"element": "Cl" 
			},
			{
				"x": 3.2788850582,
				"y": 1.4268987894,
				"z": -0.2607809999,
				"element": "H" 
			},
			{
				"x": 1.2815047642,
				"y": 2.6587286757,
				"z": 0.2063522991,
				"element": "H" 
			},
			{
				"x": 1.4480195832,
				"y": 2.0805503737,
				"z": -1.4639143476,
				"element": "H" 
			},
			{
				"x": -0.7702695944,
				"y": 1.5799116962,
				"z": -0.4522417599,
				"element": "H" 
			},
			{
				"x": 0.0129778884,
				"y": 0.6305281964,
				"z": 0.8114812838,
				"element": "H" 
			},
			{
				"x": -0.7338062715,
				"y": -1.1951361121,
				"z": -4.3477418954,
				"element": "H" 
			},
			{
				"x": -0.1266746491,
				"y": -3.4483847083,
				"z": -3.4604714403,
				"element": "H" 
			},
			{
				"x": 0.5527757192,
				"y": -3.6830415498,
				"z": -1.0738185143,
				"element": "H" 
			}
		],
		 "valence_orbital": [ 
			{
				"type": "occ",
				"energy": -0.31732,
				"method": "rhf"
			},
			{
				"type": "occ",
				"energy": -0.30555,
				"method": "rhf"
			},
			{
				"type": "occ",
				"energy": -0.2668,
				"method": "rhf"
			},
			{
				"type": "occ",
				"energy": -0.25221,
				"method": "rhf"
			},
			{
				"type": "occ",
				"energy": -0.24539,
				"method": "rhf"
			},
			{
				"type": "unocc",
				"energy": -0.0195,
				"method": "rhf"
			},
			{
				"type": "unocc",
				"energy": -0.01786,
				"method": "rhf"
			},
			{
				"type": "unocc",
				"energy": 0.01005,
				"method": "rhf"
			},
			{
				"type": "unocc",
				"energy": 0.0556,
				"method": "rhf"
			},
			{
				"type": "unocc",
				"energy": 0.07822,
				"method": "rhf"
			}
		],
		"cosmo_sigma_profile": { 
			"-0.025": 0.0,
			"-0.024": 0.0,
			"-0.023": 0.0,
			"-0.022": 0.0,
			"-0.021": 0.0,
			"-0.02": 0.0,
			"-0.019": 0.0,
			"-0.018": 0.0,
			"-0.017": 0.0,
			"-0.016": 0.318791752177,
			"-0.015": 1.11962046613,
			"-0.014": 1.33286129826,
			"-0.013": 0.552427962053,
			"-0.012": 0.79593163117,
			"-0.011": 1.27084954068,
			"-0.01": 0.929395153533,
			"-0.009": 0.759755303422,
			"-0.008": 1.66799396293,
			"-0.007": 5.98686020432,
			"-0.006": 7.62002028901,
			"-0.005": 7.69640457394,
			"-0.004": 11.9135265232,
			"-0.003": 14.6786630915,
			"-0.002": 18.0754741862,
			"-0.001": 17.5426740114,
			"0.0": 14.7662938426,
			"0.001": 18.2788293876,
			"0.002": 22.8744217184,
			"0.003": 20.1084088108,
			"0.004": 15.4769867629,
			"0.005": 7.60443594057,
			"0.006": 1.61549048919,
			"0.007": 1.85263276813,
			"0.008": 1.66882052178,
			"0.009": 2.16286650247,
			"0.01": 2.30195024665,
			"0.011": 1.90520206438,
			"0.012": 2.58830459813,
			"0.013": 0.974853740035,
			"0.014": 0.392194410477,
			"0.015": 0.0,
			"0.016": 0.0,
			"0.017": 0.0,
			"0.018": 0.0,
			"0.019": 0.0,
			"0.02": 0.0,
			"0.021": 0.0,
			"0.022": 0.0,
			"0.023": 0.0,
			"0.024": 0.0,
			"0.025": 0.0
		}
	}
}
