{
	 "smiles": "CCCCCCCCCCCCCCCCCC(Cl)=O", 
	 "Tm": 296.15, 
	 "num_atms": 55, 
	 "gaussian": { 
		 "optdone": 1, 
		 "sigma_profile": "yes", 
		 "theory": "DFT", 
		 "functional": "B3LYP", 
		 "basiset": "6-31G**", 
		 "properties": { 
			 "R2extent": 11132.3648, 
			 "electric_dipole_moment_norm": 3.3852538664, 
			 "electric_quadrupole_moment_norm": 14.7548169487, 
			 "total_energy": -1242.48580041, 
			 "HOMO_LUMO_gap": 0.25243, 
			 "cosmo_polarized_energy": -5.81, 
			 "cosmo_cavitation_energy": 56.07, 
			 "cosmo_dispersion_energy": -34.77, 
			 "cosmo_repulsion_energy": 2.77, 
			 "cosmo_total_nonelectrostatic_energy": 24.06, 
			 "SMD_solvation_energy": 7.56 
		},
		"coords": [
			{
				"x": 0.9590967338,
				"y": 5.9638005452,
				"z": -1.8156974519,
				"element": "C" 
			},
			{
				"x": 0.9285228991,
				"y": 5.8681323028,
				"z": -0.285513758,
				"element": "C" 
			},
			{
				"x": 0.9507966897,
				"y": 4.4293062916,
				"z": 0.2573549699,
				"element": "C" 
			},
			{
				"x": 2.2738432868,
				"y": 3.6814317096,
				"z": 0.040089752,
				"element": "C" 
			},
			{
				"x": 2.2637704928,
				"y": 2.2534255905,
				"z": 0.6021541497,
				"element": "C" 
			},
			{
				"x": 3.614752238,
				"y": 1.534787303,
				"z": 0.4724545296,
				"element": "C" 
			},
			{
				"x": 3.6410068815,
				"y": 0.1075745753,
				"z": 1.0461806066,
				"element": "C" 
			},
			{
				"x": 2.8652258772,
				"y": -0.9316087823,
				"z": 0.2231597245,
				"element": "C" 
			},
			{
				"x": 2.8768129446,
				"y": -2.3287011262,
				"z": 0.8599124785,
				"element": "C" 
			},
			{
				"x": 2.2687595008,
				"y": -3.4424921035,
				"z": -0.0115182628,
				"element": "C" 
			},
			{
				"x": 0.8000337061,
				"y": -3.2498136797,
				"z": -0.429826416,
				"element": "C" 
			},
			{
				"x": -0.1910594023,
				"y": -3.1987536381,
				"z": 0.7446392541,
				"element": "C" 
			},
			{
				"x": -1.684432028,
				"y": -3.1483110772,
				"z": 0.353999623,
				"element": "C" 
			},
			{
				"x": -2.284949002,
				"y": -1.7526251904,
				"z": 0.0976805954,
				"element": "C" 
			},
			{
				"x": -1.7599476064,
				"y": -1.0134971794,
				"z": -1.1423388047,
				"element": "C" 
			},
			{
				"x": -2.5367635984,
				"y": 0.2649869318,
				"z": -1.4982604833,
				"element": "C" 
			},
			{
				"x": -2.4191650297,
				"y": 1.360032016,
				"z": -0.4139984414,
				"element": "C" 
			},
			{
				"x": -3.0279253716,
				"y": 2.6656520785,
				"z": -0.8566671327,
				"element": "C" 
			},
			{
				"x": -4.8670567227,
				"y": 2.6115609487,
				"z": -0.8691175555,
				"element": "Cl" 
			},
			{
				"x": -2.4670524453,
				"y": 3.6567671521,
				"z": -1.1982310067,
				"element": "O" 
			},
			{
				"x": 1.8766548452,
				"y": 5.5379526767,
				"z": -2.2355077292,
				"element": "H" 
			},
			{
				"x": 0.1098301058,
				"y": 5.4279291158,
				"z": -2.2544330742,
				"element": "H" 
			},
			{
				"x": 0.9019665493,
				"y": 7.0061999958,
				"z": -2.1465975734,
				"element": "H" 
			},
			{
				"x": 0.020786413,
				"y": 6.3645222109,
				"z": 0.0796665422,
				"element": "H" 
			},
			{
				"x": 1.7736309867,
				"y": 6.4291061412,
				"z": 0.1376467123,
				"element": "H" 
			},
			{
				"x": 0.1264273704,
				"y": 3.868119912,
				"z": -0.2045084516,
				"element": "H" 
			},
			{
				"x": 0.7375558189,
				"y": 4.4535796598,
				"z": 1.3351483157,
				"element": "H" 
			},
			{
				"x": 3.0885881268,
				"y": 4.2497676584,
				"z": 0.5121185701,
				"element": "H" 
			},
			{
				"x": 2.5137414579,
				"y": 3.6412554698,
				"z": -1.0306373393,
				"element": "H" 
			},
			{
				"x": 1.9763450007,
				"y": 2.2827349164,
				"z": 1.6634070903,
				"element": "H" 
			},
			{
				"x": 1.4801166056,
				"y": 1.675983349,
				"z": 0.0919299039,
				"element": "H" 
			},
			{
				"x": 4.3768694852,
				"y": 2.1362926588,
				"z": 0.985946711,
				"element": "H" 
			},
			{
				"x": 3.91543432,
				"y": 1.507306044,
				"z": -0.5848724639,
				"element": "H" 
			},
			{
				"x": 4.684710861,
				"y": -0.2244307186,
				"z": 1.1288932844,
				"element": "H" 
			},
			{
				"x": 3.2491888563,
				"y": 0.1250908301,
				"z": 2.0736510527,
				"element": "H" 
			},
			{
				"x": 1.8284370638,
				"y": -0.5978477648,
				"z": 0.0893311915,
				"element": "H" 
			},
			{
				"x": 3.2993539858,
				"y": -0.9857852034,
				"z": -0.7860396009,
				"element": "H" 
			},
			{
				"x": 2.3606747914,
				"y": -2.2863588243,
				"z": 1.8285017866,
				"element": "H" 
			},
			{
				"x": 3.915053301,
				"y": -2.6041570829,
				"z": 1.0903469504,
				"element": "H" 
			},
			{
				"x": 2.8764950975,
				"y": -3.5475715444,
				"z": -0.9206344979,
				"element": "H" 
			},
			{
				"x": 2.3614761253,
				"y": -4.3964720225,
				"z": 0.5257577263,
				"element": "H" 
			},
			{
				"x": 0.711937608,
				"y": -2.3483709471,
				"z": -1.0458705639,
				"element": "H" 
			},
			{
				"x": 0.5175414512,
				"y": -4.0849764883,
				"z": -1.0852868173,
				"element": "H" 
			},
			{
				"x": -0.0244426062,
				"y": -4.0937966309,
				"z": 1.3594635316,
				"element": "H" 
			},
			{
				"x": 0.0365671078,
				"y": -2.3453960398,
				"z": 1.3980185723,
				"element": "H" 
			},
			{
				"x": -1.8537224448,
				"y": -3.7851086134,
				"z": -0.5260280797,
				"element": "H" 
			},
			{
				"x": -2.2665127991,
				"y": -3.602463217,
				"z": 1.1655020809,
				"element": "H" 
			},
			{
				"x": -3.3737951841,
				"y": -1.8640403252,
				"z": -0.0032314013,
				"element": "H" 
			},
			{
				"x": -2.1265774384,
				"y": -1.1374081182,
				"z": 0.9942095716,
				"element": "H" 
			},
			{
				"x": -0.7013040556,
				"y": -0.7583050684,
				"z": -1.0124324576,
				"element": "H" 
			},
			{
				"x": -1.8075396391,
				"y": -1.6876767827,
				"z": -2.0074289823,
				"element": "H" 
			},
			{
				"x": -3.5948578888,
				"y": 0.0301360174,
				"z": -1.6584037308,
				"element": "H" 
			},
			{
				"x": -2.152704933,
				"y": 0.6651794766,
				"z": -2.4439186307,
				"element": "H" 
			},
			{
				"x": -1.3661187669,
				"y": 1.5684355204,
				"z": -0.1978814401,
				"element": "H" 
			},
			{
				"x": -2.9128776227,
				"y": 1.0396190712,
				"z": 0.5075168698,
				"element": "H" 
			}
		],
		 "valence_orbital": [ 
			{
				"type": "occ",
				"energy": -0.30946,
				"method": "rhf"
			},
			{
				"type": "occ",
				"energy": -0.3055,
				"method": "rhf"
			},
			{
				"type": "occ",
				"energy": -0.3047,
				"method": "rhf"
			},
			{
				"type": "occ",
				"energy": -0.29466,
				"method": "rhf"
			},
			{
				"type": "occ",
				"energy": -0.29246,
				"method": "rhf"
			},
			{
				"type": "unocc",
				"energy": -0.04003,
				"method": "rhf"
			},
			{
				"type": "unocc",
				"energy": 0.01499,
				"method": "rhf"
			},
			{
				"type": "unocc",
				"energy": 0.05388,
				"method": "rhf"
			},
			{
				"type": "unocc",
				"energy": 0.08051,
				"method": "rhf"
			},
			{
				"type": "unocc",
				"energy": 0.08771,
				"method": "rhf"
			}
		],
		"cosmo_sigma_profile": { 
			"-0.025": 0.0,
			"-0.024": 0.0,
			"-0.023": 0.0,
			"-0.022": 0.0,
			"-0.021": 0.0,
			"-0.02": 0.0,
			"-0.019": 0.0,
			"-0.018": 0.0,
			"-0.017": 0.0,
			"-0.016": 0.0,
			"-0.015": 0.0,
			"-0.014": 0.0,
			"-0.013": 0.0,
			"-0.012": 0.0,
			"-0.011": 0.0,
			"-0.01": 0.0,
			"-0.009": 0.0,
			"-0.008": 0.0,
			"-0.007": 1.00749234953,
			"-0.006": 3.09904008327,
			"-0.005": 5.40126375936,
			"-0.004": 12.1673942565,
			"-0.003": 21.8727466703,
			"-0.002": 52.0058398308,
			"-0.001": 91.1111884382,
			"0.0": 88.3430662572,
			"0.001": 76.1299398203,
			"0.002": 37.3405089799,
			"0.003": 10.3734833107,
			"0.004": 12.2795176211,
			"0.005": 11.1600124749,
			"0.006": 5.08857067923,
			"0.007": 1.97628117421,
			"0.008": 1.82368446293,
			"0.009": 1.37347870264,
			"0.01": 0.122915746927,
			"0.011": 0.0,
			"0.012": 0.0,
			"0.013": 0.0,
			"0.014": 0.0,
			"0.015": 0.0,
			"0.016": 0.0,
			"0.017": 0.0,
			"0.018": 0.0,
			"0.019": 0.0,
			"0.02": 0.0,
			"0.021": 0.0,
			"0.022": 0.0,
			"0.023": 0.0,
			"0.024": 0.0,
			"0.025": 0.0
		}
	}
}
