{
	 "smiles": "CC1=C(C=CC(O)=N1)[N+]([O-])=O", 
	 "Tm": 508.15, 
	 "num_atms": 17, 
	 "gaussian": { 
		 "optdone": 1, 
		 "sigma_profile": "yes", 
		 "theory": "DFT", 
		 "functional": "B3LYP", 
		 "basiset": "6-31G**", 
		 "properties": { 
			 "R2extent": 1982.358, 
			 "electric_dipole_moment_norm": 4.47397811573, 
			 "electric_quadrupole_moment_norm": 23.1916972376, 
			 "total_energy": -567.327828988, 
			 "HOMO_LUMO_gap": 0.17741, 
			 "cosmo_polarized_energy": -15.42, 
			 "cosmo_cavitation_energy": 21.92, 
			 "cosmo_dispersion_energy": -16.49, 
			 "cosmo_repulsion_energy": 1.32, 
			 "cosmo_total_nonelectrostatic_energy": 6.75, 
			 "SMD_solvation_energy": 5.13 
		},
		"coords": [
			{
				"x": -0.7509847399,
				"y": 0.5197141239,
				"z": 1.4836324915,
				"element": "C" 
			},
			{
				"x": -0.4044504849,
				"y": 0.6360919035,
				"z": 0.0235242483,
				"element": "C" 
			},
			{
				"x": 0.8813611236,
				"y": 0.450393589,
				"z": -0.5324553517,
				"element": "C" 
			},
			{
				"x": 1.0733511521,
				"y": 0.5870665911,
				"z": -1.9118167964,
				"element": "C" 
			},
			{
				"x": -0.0017080356,
				"y": 0.9035242397,
				"z": -2.7172971487,
				"element": "C" 
			},
			{
				"x": -1.2487205173,
				"y": 1.0722074689,
				"z": -2.0876913156,
				"element": "C" 
			},
			{
				"x": -2.3666745178,
				"y": 1.3824857311,
				"z": -2.7774022698,
				"element": "O" 
			},
			{
				"x": -1.4345355727,
				"y": 0.9430973229,
				"z": -0.7785313356,
				"element": "N" 
			},
			{
				"x": 2.0584334314,
				"y": 0.1142931671,
				"z": 0.2678355983,
				"element": "N" 
			},
			{
				"x": 3.1303293667,
				"y": -0.0248312523,
				"z": -0.3268084799,
				"element": "O" 
			},
			{
				"x": 1.9265882696,
				"y": -0.013044037,
				"z": 1.4863034907,
				"element": "O" 
			},
			{
				"x": -1.8175984848,
				"y": 0.7179427252,
				"z": 1.5927400975,
				"element": "H" 
			},
			{
				"x": -0.5117657305,
				"y": -0.4740611024,
				"z": 1.8708434229,
				"element": "H" 
			},
			{
				"x": -0.173804356,
				"y": 1.2255239513,
				"z": 2.086481887,
				"element": "H" 
			},
			{
				"x": 2.0669512619,
				"y": 0.4402622431,
				"z": -2.3160328796,
				"element": "H" 
			},
			{
				"x": 0.1147079103,
				"y": 1.0164469064,
				"z": -3.7910928117,
				"element": "H" 
			},
			{
				"x": -2.156680076,
				"y": 1.4597864286,
				"z": -3.7178328474,
				"element": "H" 
			}
		],
		 "valence_orbital": [ 
			{
				"type": "occ",
				"energy": -0.30956,
				"method": "rhf"
			},
			{
				"type": "occ",
				"energy": -0.30658,
				"method": "rhf"
			},
			{
				"type": "occ",
				"energy": -0.29064,
				"method": "rhf"
			},
			{
				"type": "occ",
				"energy": -0.27958,
				"method": "rhf"
			},
			{
				"type": "occ",
				"energy": -0.26434,
				"method": "rhf"
			},
			{
				"type": "unocc",
				"energy": -0.08693,
				"method": "rhf"
			},
			{
				"type": "unocc",
				"energy": -0.04345,
				"method": "rhf"
			},
			{
				"type": "unocc",
				"energy": -0.00011,
				"method": "rhf"
			},
			{
				"type": "unocc",
				"energy": 0.04524,
				"method": "rhf"
			},
			{
				"type": "unocc",
				"energy": 0.09174,
				"method": "rhf"
			}
		],
		"cosmo_sigma_profile": { 
			"-0.025": 0.0,
			"-0.024": 0.0,
			"-0.023": 0.0,
			"-0.022": 0.0,
			"-0.021": 0.0,
			"-0.02": 0.296082462618,
			"-0.019": 1.09775084087,
			"-0.018": 1.46363029542,
			"-0.017": 1.08990154404,
			"-0.016": 0.76483722923,
			"-0.015": 1.367053562,
			"-0.014": 1.26893048387,
			"-0.013": 0.854313846946,
			"-0.012": 1.04875761392,
			"-0.011": 0.972907797675,
			"-0.01": 1.43923922213,
			"-0.009": 1.55901258396,
			"-0.008": 3.51804332706,
			"-0.007": 4.40708904546,
			"-0.006": 4.55717405379,
			"-0.005": 8.1197985969,
			"-0.004": 11.7205424465,
			"-0.003": 11.8394644199,
			"-0.002": 17.805471622,
			"-0.001": 17.8740694367,
			"0.0": 12.306859774,
			"0.001": 8.10195100607,
			"0.002": 4.34643004953,
			"0.003": 4.90782019824,
			"0.004": 4.96285506667,
			"0.005": 5.50998137384,
			"0.006": 4.69292768254,
			"0.007": 7.4151943635,
			"0.008": 9.40121467225,
			"0.009": 6.63596864518,
			"0.01": 6.62983233734,
			"0.011": 3.6053307611,
			"0.012": 1.52882586991,
			"0.013": 0.989172640859,
			"0.014": 0.846124875598,
			"0.015": 0.204236141503,
			"0.016": 0.0,
			"0.017": 0.0,
			"0.018": 0.0,
			"0.019": 0.0,
			"0.02": 0.0,
			"0.021": 0.0,
			"0.022": 0.0,
			"0.023": 0.0,
			"0.024": 0.0,
			"0.025": 0.0
		}
	}
}
