{
	 "smiles": "OC(=O)C(=O)CC1=CC(Cl)=C(Cl)C=C1", 
	 "Tm": 443.15, 
	 "num_atms": 20, 
	 "gaussian": { 
		 "optdone": 1, 
		 "sigma_profile": "yes", 
		 "theory": "DFT", 
		 "functional": "B3LYP", 
		 "basiset": "6-31G**", 
		 "properties": { 
			 "R2extent": 5663.7141, 
			 "electric_dipole_moment_norm": 2.00680225982, 
			 "electric_quadrupole_moment_norm": 10.0146019961, 
			 "total_energy": -1492.62987849, 
			 "HOMO_LUMO_gap": 0.15278, 
			 "cosmo_polarized_energy": -11.39, 
			 "cosmo_cavitation_energy": 29.15, 
			 "cosmo_dispersion_energy": -21.07, 
			 "cosmo_repulsion_energy": 1.67, 
			 "cosmo_total_nonelectrostatic_energy": 9.75, 
			 "SMD_solvation_energy": 6.25 
		},
		"coords": [
			{
				"x": 0.1119708224,
				"y": -0.0169526377,
				"z": 3.6744855633,
				"element": "O" 
			},
			{
				"x": -0.6247451112,
				"y": -0.0458663059,
				"z": 2.5629043357,
				"element": "C" 
			},
			{
				"x": -1.7631438599,
				"y": -0.4478534048,
				"z": 2.5059569215,
				"element": "O" 
			},
			{
				"x": 0.1379930255,
				"y": 0.5158370997,
				"z": 1.3372321327,
				"element": "C" 
			},
			{
				"x": 1.2685672482,
				"y": 0.9327580772,
				"z": 1.5157220462,
				"element": "O" 
			},
			{
				"x": -0.5668469038,
				"y": 0.4786429405,
				"z": -0.0006406627,
				"element": "C" 
			},
			{
				"x": -0.3753775985,
				"y": -0.8881379052,
				"z": -0.6465802006,
				"element": "C" 
			},
			{
				"x": 0.7172517962,
				"y": -1.1097272191,
				"z": -1.4894902947,
				"element": "C" 
			},
			{
				"x": 0.9185848587,
				"y": -2.3567477198,
				"z": -2.0837610004,
				"element": "C" 
			},
			{
				"x": 2.2934778085,
				"y": -2.5688276961,
				"z": -3.1386120136,
				"element": "Cl" 
			},
			{
				"x": 0.0226073701,
				"y": -3.4038416616,
				"z": -1.8281250553,
				"element": "C" 
			},
			{
				"x": 0.2284123267,
				"y": -4.9789020405,
				"z": -2.5498704524,
				"element": "Cl" 
			},
			{
				"x": -1.0628243652,
				"y": -3.1866743321,
				"z": -0.9759315447,
				"element": "C" 
			},
			{
				"x": -1.2599949631,
				"y": -1.9417519274,
				"z": -0.3857505127,
				"element": "C" 
			},
			{
				"x": 0.9770367655,
				"y": 0.3656237683,
				"z": 3.4213977055,
				"element": "H" 
			},
			{
				"x": -1.6308169351,
				"y": 0.6742286462,
				"z": 0.1524999627,
				"element": "H" 
			},
			{
				"x": -0.134804363,
				"y": 1.2628203442,
				"z": -0.6265058481,
				"element": "H" 
			},
			{
				"x": 1.4220905949,
				"y": -0.3117557715,
				"z": -1.6978539578,
				"element": "H" 
			},
			{
				"x": -1.7491992026,
				"y": -4.0030691337,
				"z": -0.7807037495,
				"element": "H" 
			},
			{
				"x": -2.0966393143,
				"y": -1.7889031206,
				"z": 0.287826625,
				"element": "H" 
			}
		],
		 "valence_orbital": [ 
			{
				"type": "occ",
				"energy": -0.33434,
				"method": "rhf"
			},
			{
				"type": "occ",
				"energy": -0.31527,
				"method": "rhf"
			},
			{
				"type": "occ",
				"energy": -0.28351,
				"method": "rhf"
			},
			{
				"type": "occ",
				"energy": -0.27037,
				"method": "rhf"
			},
			{
				"type": "occ",
				"energy": -0.25468,
				"method": "rhf"
			},
			{
				"type": "unocc",
				"energy": -0.1019,
				"method": "rhf"
			},
			{
				"type": "unocc",
				"energy": -0.0338,
				"method": "rhf"
			},
			{
				"type": "unocc",
				"energy": -0.03247,
				"method": "rhf"
			},
			{
				"type": "unocc",
				"energy": -0.00409,
				"method": "rhf"
			},
			{
				"type": "unocc",
				"energy": 0.04107,
				"method": "rhf"
			}
		],
		"cosmo_sigma_profile": { 
			"-0.025": 0.0,
			"-0.024": 0.0,
			"-0.023": 0.0,
			"-0.022": 0.0,
			"-0.021": 0.0,
			"-0.02": 0.0,
			"-0.019": 0.0,
			"-0.018": 0.0,
			"-0.017": 0.0115059671956,
			"-0.016": 0.440248461934,
			"-0.015": 0.641459679233,
			"-0.014": 0.425495399076,
			"-0.013": 0.534137130445,
			"-0.012": 1.03103639205,
			"-0.011": 1.28699562097,
			"-0.01": 1.09276063354,
			"-0.009": 3.79510469241,
			"-0.008": 8.13128440399,
			"-0.007": 10.1490891396,
			"-0.006": 10.8606148628,
			"-0.005": 11.5965518171,
			"-0.004": 11.2777138116,
			"-0.003": 11.4402167325,
			"-0.002": 10.436571275,
			"-0.001": 14.1095927403,
			"0.0": 22.406447773,
			"0.001": 25.4941196851,
			"0.002": 18.9032192437,
			"0.003": 17.8543419084,
			"0.004": 19.5716189928,
			"0.005": 8.23593057587,
			"0.006": 4.91778760124,
			"0.007": 5.03667816316,
			"0.008": 6.26698635493,
			"0.009": 6.24658397492,
			"0.01": 3.63356714954,
			"0.011": 2.23467212814,
			"0.012": 0.385180303514,
			"0.013": 0.0,
			"0.014": 0.0,
			"0.015": 0.0,
			"0.016": 0.0,
			"0.017": 0.0,
			"0.018": 0.0,
			"0.019": 0.0,
			"0.02": 0.0,
			"0.021": 0.0,
			"0.022": 0.0,
			"0.023": 0.0,
			"0.024": 0.0,
			"0.025": 0.0
		}
	}
}
