{
	 "smiles": "S=C1SCCS1", 
	 "Tm": 308.15, 
	 "num_atms": 10, 
	 "gaussian": { 
		 "optdone": 1, 
		 "sigma_profile": "yes", 
		 "theory": "DFT", 
		 "functional": "B3LYP", 
		 "basiset": "6-31G**", 
		 "properties": { 
			 "R2extent": 2482.6103, 
			 "electric_dipole_moment_norm": 5.2492636074, 
			 "electric_quadrupole_moment_norm": 13.0043929789, 
			 "total_energy": -1311.28626203, 
			 "HOMO_LUMO_gap": 0.15332, 
			 "cosmo_polarized_energy": -10.6, 
			 "cosmo_cavitation_energy": 18.18, 
			 "cosmo_dispersion_energy": -15.39, 
			 "cosmo_repulsion_energy": 1.16, 
			 "cosmo_total_nonelectrostatic_energy": 3.96, 
			 "SMD_solvation_energy": 1.27 
		},
		"coords": [
			{
				"x": -2.6932487588,
				"y": 1.7923108352,
				"z": -2.2716230536,
				"element": "S" 
			},
			{
				"x": -1.7994805648,
				"y": 1.8987689776,
				"z": -0.8995163826,
				"element": "C" 
			},
			{
				"x": -1.9568060141,
				"y": 0.7643491189,
				"z": 0.4519830544,
				"element": "S" 
			},
			{
				"x": -0.9425856746,
				"y": 1.7127802412,
				"z": 1.6538200384,
				"element": "C" 
			},
			{
				"x": 0.1643318381,
				"y": 2.4209084999,
				"z": 0.8779183599,
				"element": "C" 
			},
			{
				"x": -0.5847127255,
				"y": 3.1591731652,
				"z": -0.6275549681,
				"element": "S" 
			},
			{
				"x": -0.5327654295,
				"y": 1.0085790321,
				"z": 2.3828922361,
				"element": "H" 
			},
			{
				"x": -1.5873721191,
				"y": 2.4282365516,
				"z": 2.1711481437,
				"element": "H" 
			},
			{
				"x": 0.9484303973,
				"y": 1.7220881559,
				"z": 0.5744437688,
				"element": "H" 
			},
			{
				"x": 0.6118090509,
				"y": 3.2273054224,
				"z": 1.465188803,
				"element": "H" 
			}
		],
		 "valence_orbital": [ 
			{
				"type": "occ",
				"energy": -0.36956,
				"method": "rhf"
			},
			{
				"type": "occ",
				"energy": -0.33397,
				"method": "rhf"
			},
			{
				"type": "occ",
				"energy": -0.26367,
				"method": "rhf"
			},
			{
				"type": "occ",
				"energy": -0.24409,
				"method": "rhf"
			},
			{
				"type": "occ",
				"energy": -0.22476,
				"method": "rhf"
			},
			{
				"type": "unocc",
				"energy": -0.07144,
				"method": "rhf"
			},
			{
				"type": "unocc",
				"energy": -0.021,
				"method": "rhf"
			},
			{
				"type": "unocc",
				"energy": 0.03886,
				"method": "rhf"
			},
			{
				"type": "unocc",
				"energy": 0.04366,
				"method": "rhf"
			},
			{
				"type": "unocc",
				"energy": 0.06773,
				"method": "rhf"
			}
		],
		"cosmo_sigma_profile": { 
			"-0.025": 0.0,
			"-0.024": 0.0,
			"-0.023": 0.0,
			"-0.022": 0.0,
			"-0.021": 0.0,
			"-0.02": 0.0,
			"-0.019": 0.0,
			"-0.018": 0.0,
			"-0.017": 0.0,
			"-0.016": 0.0,
			"-0.015": 0.0,
			"-0.014": 0.0,
			"-0.013": 0.0,
			"-0.012": 0.0,
			"-0.011": 0.0,
			"-0.01": 0.0,
			"-0.009": 1.84664806828,
			"-0.008": 8.23760372414,
			"-0.007": 13.0580665683,
			"-0.006": 11.1489977843,
			"-0.005": 10.6163993105,
			"-0.004": 7.71621278394,
			"-0.003": 3.65920101334,
			"-0.002": 4.23089164876,
			"-0.001": 3.71101686333,
			"0.0": 3.62864157401,
			"0.001": 10.080135411,
			"0.002": 15.6030863341,
			"0.003": 12.5136656891,
			"0.004": 13.1499290416,
			"0.005": 12.3023713781,
			"0.006": 7.29158924796,
			"0.007": 5.01857628392,
			"0.008": 3.69392850635,
			"0.009": 3.25980360599,
			"0.01": 1.40005210588,
			"0.011": 0.0,
			"0.012": 0.0,
			"0.013": 0.0,
			"0.014": 0.0,
			"0.015": 0.0,
			"0.016": 0.0,
			"0.017": 0.0,
			"0.018": 0.0,
			"0.019": 0.0,
			"0.02": 0.0,
			"0.021": 0.0,
			"0.022": 0.0,
			"0.023": 0.0,
			"0.024": 0.0,
			"0.025": 0.0
		}
	}
}
