{
	 "smiles": "CC1=CC(Cl)=CC=C1", 
	 "Tm": 225.25, 
	 "num_atms": 15, 
	 "gaussian": { 
		 "optdone": 1, 
		 "sigma_profile": "yes", 
		 "theory": "DFT", 
		 "functional": "B3LYP", 
		 "basiset": "6-31G**", 
		 "properties": { 
			 "R2extent": 1429.7941, 
			 "electric_dipole_moment_norm": 2.17869738605, 
			 "electric_quadrupole_moment_norm": 5.35688972912, 
			 "total_energy": -731.164628754, 
			 "HOMO_LUMO_gap": 0.23118, 
			 "cosmo_polarized_energy": -3.7, 
			 "cosmo_cavitation_energy": 20.31, 
			 "cosmo_dispersion_energy": -15.27, 
			 "cosmo_repulsion_energy": 1.27, 
			 "cosmo_total_nonelectrostatic_energy": 6.31, 
			 "SMD_solvation_energy": 3.33 
		},
		"coords": [
			{
				"x": 0.5270849119,
				"y": -2.2355441865,
				"z": -0.6357067782,
				"element": "C" 
			},
			{
				"x": 0.151002314,
				"y": -0.7872650069,
				"z": -0.424803905,
				"element": "C" 
			},
			{
				"x": 1.1283303482,
				"y": 0.1550328249,
				"z": -0.0789745028,
				"element": "C" 
			},
			{
				"x": 0.7683212691,
				"y": 1.4828398995,
				"z": 0.1431164319,
				"element": "C" 
			},
			{
				"x": 2.0164110615,
				"y": 2.648372046,
				"z": 0.5738108219,
				"element": "Cl" 
			},
			{
				"x": -0.5533165693,
				"y": 1.9100307412,
				"z": 0.027509542,
				"element": "C" 
			},
			{
				"x": -1.5248902025,
				"y": 0.9708431048,
				"z": -0.3201745054,
				"element": "C" 
			},
			{
				"x": -1.1785078627,
				"y": -0.361383233,
				"z": -0.5451390225,
				"element": "C" 
			},
			{
				"x": 0.4689804769,
				"y": -2.7989193828,
				"z": 0.303998008,
				"element": "H" 
			},
			{
				"x": 1.5499312416,
				"y": -2.3340228475,
				"z": -1.010710364,
				"element": "H" 
			},
			{
				"x": -0.1452174244,
				"y": -2.7220661151,
				"z": -1.3484186987,
				"element": "H" 
			},
			{
				"x": 2.1678020086,
				"y": -0.1424272224,
				"z": 0.0159335888,
				"element": "H" 
			},
			{
				"x": -0.8100727769,
				"y": 2.9488519815,
				"z": 0.2014169178,
				"element": "H" 
			},
			{
				"x": -2.5595397007,
				"y": 1.2863108461,
				"z": -0.4194384089,
				"element": "H" 
			},
			{
				"x": -1.9467190952,
				"y": -1.0795534499,
				"z": -0.8190191248,
				"element": "H" 
			}
		],
		 "valence_orbital": [ 
			{
				"type": "occ",
				"energy": -0.35333,
				"method": "rhf"
			},
			{
				"type": "occ",
				"energy": -0.32482,
				"method": "rhf"
			},
			{
				"type": "occ",
				"energy": -0.30852,
				"method": "rhf"
			},
			{
				"type": "occ",
				"energy": -0.25385,
				"method": "rhf"
			},
			{
				"type": "occ",
				"energy": -0.24161,
				"method": "rhf"
			},
			{
				"type": "unocc",
				"energy": -0.01043,
				"method": "rhf"
			},
			{
				"type": "unocc",
				"energy": -0.00905,
				"method": "rhf"
			},
			{
				"type": "unocc",
				"energy": 0.03296,
				"method": "rhf"
			},
			{
				"type": "unocc",
				"energy": 0.10177,
				"method": "rhf"
			},
			{
				"type": "unocc",
				"energy": 0.11983,
				"method": "rhf"
			}
		],
		"cosmo_sigma_profile": { 
			"-0.025": 0.0,
			"-0.024": 0.0,
			"-0.023": 0.0,
			"-0.022": 0.0,
			"-0.021": 0.0,
			"-0.02": 0.0,
			"-0.019": 0.0,
			"-0.018": 0.0,
			"-0.017": 0.0,
			"-0.016": 0.0,
			"-0.015": 0.0,
			"-0.014": 0.0,
			"-0.013": 0.0,
			"-0.012": 0.0,
			"-0.011": 0.0,
			"-0.01": 0.0,
			"-0.009": 0.0,
			"-0.008": 0.000534101010894,
			"-0.007": 1.56837651652,
			"-0.006": 6.70125512366,
			"-0.005": 10.4254671185,
			"-0.004": 15.4521200579,
			"-0.003": 11.5526764844,
			"-0.002": 13.7920766203,
			"-0.001": 14.2192083191,
			"0.0": 15.4619341865,
			"0.001": 11.3915029763,
			"0.002": 14.0421192162,
			"0.003": 15.3016944238,
			"0.004": 17.6205454351,
			"0.005": 16.0286358652,
			"0.006": 0.649706193538,
			"0.007": 0.0,
			"0.008": 0.0,
			"0.009": 0.0,
			"0.01": 0.0,
			"0.011": 0.0,
			"0.012": 0.0,
			"0.013": 0.0,
			"0.014": 0.0,
			"0.015": 0.0,
			"0.016": 0.0,
			"0.017": 0.0,
			"0.018": 0.0,
			"0.019": 0.0,
			"0.02": 0.0,
			"0.021": 0.0,
			"0.022": 0.0,
			"0.023": 0.0,
			"0.024": 0.0,
			"0.025": 0.0
		}
	}
}
