{
	 "smiles": "COC1=CC=C(C=C1)C1=NN=C(N)S1", 
	 "Tm": 459.15, 
	 "num_atms": 23, 
	 "gaussian": { 
		 "optdone": 1, 
		 "sigma_profile": "yes", 
		 "theory": "DFT", 
		 "functional": "B3LYP", 
		 "basiset": "6-31G**", 
		 "properties": { 
			 "R2extent": 5061.3368, 
			 "electric_dipole_moment_norm": 1.93488053636, 
			 "electric_quadrupole_moment_norm": 33.4086911954, 
			 "total_energy": -986.012648995, 
			 "HOMO_LUMO_gap": 0.1633, 
			 "cosmo_polarized_energy": -16.46, 
			 "cosmo_cavitation_energy": 29.19, 
			 "cosmo_dispersion_energy": -22.41, 
			 "cosmo_repulsion_energy": 1.71, 
			 "cosmo_total_nonelectrostatic_energy": 8.48, 
			 "SMD_solvation_energy": 3.69 
		},
		"coords": [
			{
				"x": 5.193483095,
				"y": -1.4989100177,
				"z": -1.1259464988,
				"element": "C" 
			},
			{
				"x": 4.147010979,
				"y": -0.5750499017,
				"z": -1.3865062266,
				"element": "O" 
			},
			{
				"x": 3.0816791271,
				"y": -0.5478081474,
				"z": -0.5385435416,
				"element": "C" 
			},
			{
				"x": 2.9336815855,
				"y": -1.3728539602,
				"z": 0.5856962378,
				"element": "C" 
			},
			{
				"x": 1.7990815071,
				"y": -1.2584945813,
				"z": 1.3841633593,
				"element": "C" 
			},
			{
				"x": 0.7910732026,
				"y": -0.3272484404,
				"z": 1.0878159344,
				"element": "C" 
			},
			{
				"x": 0.9555015862,
				"y": 0.4932737659,
				"z": -0.0428746116,
				"element": "C" 
			},
			{
				"x": 2.0811778288,
				"y": 0.3868155475,
				"z": -0.8457015217,
				"element": "C" 
			},
			{
				"x": -0.3846382684,
				"y": -0.240727881,
				"z": 1.9561275228,
				"element": "C" 
			},
			{
				"x": -0.5690743746,
				"y": -0.9681841685,
				"z": 3.0199238821,
				"element": "N" 
			},
			{
				"x": -1.7483452847,
				"y": -0.7425260681,
				"z": 3.6693041284,
				"element": "N" 
			},
			{
				"x": -2.4677400525,
				"y": 0.1859288116,
				"z": 3.0977453147,
				"element": "C" 
			},
			{
				"x": -3.656442821,
				"y": 0.6463072417,
				"z": 3.6146173045,
				"element": "N" 
			},
			{
				"x": -1.7355865975,
				"y": 0.8836760774,
				"z": 1.6576037408,
				"element": "S" 
			},
			{
				"x": 5.6647448412,
				"y": -1.3120907679,
				"z": -0.1527162694,
				"element": "H" 
			},
			{
				"x": 5.9304172989,
				"y": -1.3489468631,
				"z": -1.9162654633,
				"element": "H" 
			},
			{
				"x": 4.8351208522,
				"y": -2.5355955898,
				"z": -1.1585510403,
				"element": "H" 
			},
			{
				"x": 3.6907826069,
				"y": -2.1029500657,
				"z": 0.8457597325,
				"element": "H" 
			},
			{
				"x": 1.6793510694,
				"y": -1.8942555636,
				"z": 2.2544327102,
				"element": "H" 
			},
			{
				"x": 0.1960994346,
				"y": 1.2264126659,
				"z": -0.300742443,
				"element": "H" 
			},
			{
				"x": 2.2112115673,
				"y": 1.0181648377,
				"z": -1.7182202343,
				"element": "H" 
			},
			{
				"x": -4.3635936267,
				"y": 0.9248182818,
				"z": 2.9490735201,
				"element": "H" 
			},
			{
				"x": -4.0077955565,
				"y": 0.0520447871,
				"z": 4.355504463,
				"element": "H" 
			}
		],
		 "valence_orbital": [ 
			{
				"type": "occ",
				"energy": -0.28511,
				"method": "rhf"
			},
			{
				"type": "occ",
				"energy": -0.25671,
				"method": "rhf"
			},
			{
				"type": "occ",
				"energy": -0.25274,
				"method": "rhf"
			},
			{
				"type": "occ",
				"energy": -0.24941,
				"method": "rhf"
			},
			{
				"type": "occ",
				"energy": -0.20314,
				"method": "rhf"
			},
			{
				"type": "unocc",
				"energy": -0.03984,
				"method": "rhf"
			},
			{
				"type": "unocc",
				"energy": -0.00606,
				"method": "rhf"
			},
			{
				"type": "unocc",
				"energy": 0.00266,
				"method": "rhf"
			},
			{
				"type": "unocc",
				"energy": 0.02686,
				"method": "rhf"
			},
			{
				"type": "unocc",
				"energy": 0.06497,
				"method": "rhf"
			}
		],
		"cosmo_sigma_profile": { 
			"-0.025": 0.0,
			"-0.024": 0.0,
			"-0.023": 0.0,
			"-0.022": 0.0,
			"-0.021": 0.0,
			"-0.02": 0.0,
			"-0.019": 0.0,
			"-0.018": 0.0,
			"-0.017": 0.0,
			"-0.016": 0.00790226625583,
			"-0.015": 0.877547291758,
			"-0.014": 2.8658114,
			"-0.013": 2.34602845974,
			"-0.012": 2.72356956687,
			"-0.011": 3.13722838135,
			"-0.01": 1.98843156075,
			"-0.009": 2.01685241693,
			"-0.008": 2.10716243008,
			"-0.007": 4.85207180727,
			"-0.006": 12.3503414684,
			"-0.005": 18.1692136687,
			"-0.004": 16.3327848159,
			"-0.003": 15.4667375957,
			"-0.002": 10.5521949183,
			"-0.001": 13.0127138946,
			"0.0": 14.6789860299,
			"0.001": 15.4861976226,
			"0.002": 18.262535062,
			"0.003": 19.9591837475,
			"0.004": 17.7579321032,
			"0.005": 6.87850227485,
			"0.006": 4.41534841444,
			"0.007": 3.77326572186,
			"0.008": 5.23221121516,
			"0.009": 4.05090841745,
			"0.01": 3.84284583853,
			"0.011": 2.96526085816,
			"0.012": 3.32299383265,
			"0.013": 3.14719235798,
			"0.014": 1.95328397455,
			"0.015": 0.927963733147,
			"0.016": 0.237450872286,
			"0.017": 0.0,
			"0.018": 0.0,
			"0.019": 0.0,
			"0.02": 0.0,
			"0.021": 0.0,
			"0.022": 0.0,
			"0.023": 0.0,
			"0.024": 0.0,
			"0.025": 0.0
		}
	}
}
