{
	 "smiles": "OC(CCN1CCCCC1)(C1=CC=CC=C1)C1=CC=CC=C1", 
	 "Tm": 393.15, 
	 "num_atms": 47, 
	 "gaussian": { 
		 "optdone": 1, 
		 "sigma_profile": "yes", 
		 "theory": "DFT", 
		 "functional": "B3LYP", 
		 "basiset": "6-31G**", 
		 "properties": { 
			 "R2extent": 8483.4609, 
			 "electric_dipole_moment_norm": 1.56895702299, 
			 "electric_quadrupole_moment_norm": 2.70119572042, 
			 "total_energy": -907.170541293, 
			 "HOMO_LUMO_gap": 0.20231, 
			 "cosmo_polarized_energy": -9.83, 
			 "cosmo_cavitation_energy": 46.04, 
			 "cosmo_dispersion_energy": -31.98, 
			 "cosmo_repulsion_energy": 2.48, 
			 "cosmo_total_nonelectrostatic_energy": 16.54, 
			 "SMD_solvation_energy": 4.46 
		},
		"coords": [
			{
				"x": 0.5045443338,
				"y": -1.9112882551,
				"z": -1.1985697059,
				"element": "O" 
			},
			{
				"x": 0.7361556747,
				"y": -1.0483294928,
				"z": -0.0734701401,
				"element": "C" 
			},
			{
				"x": 0.4975341992,
				"y": 0.4204887988,
				"z": -0.5164853105,
				"element": "C" 
			},
			{
				"x": -0.9126770719,
				"y": 0.7043083947,
				"z": -1.0558055536,
				"element": "C" 
			},
			{
				"x": -1.1847399272,
				"y": 2.1326918039,
				"z": -1.2230081817,
				"element": "N" 
			},
			{
				"x": -2.6191702023,
				"y": 2.3859944827,
				"z": -1.3905866159,
				"element": "C" 
			},
			{
				"x": -2.9203649692,
				"y": 3.8877040852,
				"z": -1.4112833398,
				"element": "C" 
			},
			{
				"x": -2.1207357862,
				"y": 4.590517025,
				"z": -2.5155083268,
				"element": "C" 
			},
			{
				"x": -0.6315761223,
				"y": 4.2496837623,
				"z": -2.3812936615,
				"element": "C" 
			},
			{
				"x": -0.4172862698,
				"y": 2.7335288362,
				"z": -2.3191281693,
				"element": "C" 
			},
			{
				"x": 2.2216644132,
				"y": -1.2097710285,
				"z": 0.2900597982,
				"element": "C" 
			},
			{
				"x": 3.1028176426,
				"y": -1.8661613473,
				"z": -0.5774490921,
				"element": "C" 
			},
			{
				"x": 4.4600096033,
				"y": -1.970234249,
				"z": -0.2638460459,
				"element": "C" 
			},
			{
				"x": 4.9575415893,
				"y": -1.4171231616,
				"z": 0.9158254057,
				"element": "C" 
			},
			{
				"x": 4.0846466486,
				"y": -0.759877505,
				"z": 1.7852101075,
				"element": "C" 
			},
			{
				"x": 2.7287572709,
				"y": -0.659937765,
				"z": 1.4753288263,
				"element": "C" 
			},
			{
				"x": -0.1491626639,
				"y": -1.5009611487,
				"z": 1.1026425001,
				"element": "C" 
			},
			{
				"x": -0.3970630313,
				"y": -2.8728222392,
				"z": 1.2666901343,
				"element": "C" 
			},
			{
				"x": -1.1650408783,
				"y": -3.340762376,
				"z": 2.331653724,
				"element": "C" 
			},
			{
				"x": -1.7018926932,
				"y": -2.4450849,
				"z": 3.2591696523,
				"element": "C" 
			},
			{
				"x": -1.4612731521,
				"y": -1.0799175432,
				"z": 3.1095383455,
				"element": "C" 
			},
			{
				"x": -0.6920353586,
				"y": -0.6117356577,
				"z": 2.0408184456,
				"element": "C" 
			},
			{
				"x": -0.4469431086,
				"y": -1.9203069087,
				"z": -1.3634604293,
				"element": "H" 
			},
			{
				"x": 1.2485935586,
				"y": 0.6260091131,
				"z": -1.2846169852,
				"element": "H" 
			},
			{
				"x": 0.7044116545,
				"y": 1.1051202747,
				"z": 0.3119938191,
				"element": "H" 
			},
			{
				"x": -1.6517504171,
				"y": 0.3173943973,
				"z": -0.3455678766,
				"element": "H" 
			},
			{
				"x": -1.063388736,
				"y": 0.1517426348,
				"z": -2.0055740563,
				"element": "H" 
			},
			{
				"x": -3.0045058459,
				"y": 1.9237509569,
				"z": -2.3240980832,
				"element": "H" 
			},
			{
				"x": -3.1507483872,
				"y": 1.9095496237,
				"z": -0.5587127011,
				"element": "H" 
			},
			{
				"x": -3.9970764887,
				"y": 4.0416413088,
				"z": -1.5501401759,
				"element": "H" 
			},
			{
				"x": -2.6528766231,
				"y": 4.3123286951,
				"z": -0.4355761635,
				"element": "H" 
			},
			{
				"x": -2.4834167779,
				"y": 4.2530671823,
				"z": -3.4968781797,
				"element": "H" 
			},
			{
				"x": -2.2764502349,
				"y": 5.6749807953,
				"z": -2.4779767782,
				"element": "H" 
			},
			{
				"x": -0.0593340582,
				"y": 4.6629028665,
				"z": -3.2202896547,
				"element": "H" 
			},
			{
				"x": -0.2323138275,
				"y": 4.697758772,
				"z": -1.4627866771,
				"element": "H" 
			},
			{
				"x": -0.6984546562,
				"y": 2.2811464493,
				"z": -3.2939016682,
				"element": "H" 
			},
			{
				"x": 0.6447566638,
				"y": 2.5215740196,
				"z": -2.1667274088,
				"element": "H" 
			},
			{
				"x": 2.7191099461,
				"y": -2.2969466616,
				"z": -1.4940527491,
				"element": "H" 
			},
			{
				"x": 5.1286819725,
				"y": -2.4870056441,
				"z": -0.9470828724,
				"element": "H" 
			},
			{
				"x": 6.0132896055,
				"y": -1.4993819511,
				"z": 1.1583163131,
				"element": "H" 
			},
			{
				"x": 4.4571948127,
				"y": -0.329398133,
				"z": 2.7106586656,
				"element": "H" 
			},
			{
				"x": 2.0590898213,
				"y": -0.1628329972,
				"z": 2.1708045694,
				"element": "H" 
			},
			{
				"x": 0.0228543648,
				"y": -3.5690871908,
				"z": 0.5483808371,
				"element": "H" 
			},
			{
				"x": -1.3422307544,
				"y": -4.4074115664,
				"z": 2.4388759598,
				"element": "H" 
			},
			{
				"x": -2.3012106782,
				"y": -2.8081680339,
				"z": 4.0891480047,
				"element": "H" 
			},
			{
				"x": -1.8751079567,
				"y": -0.3715705575,
				"z": 3.8218924872,
				"element": "H" 
			},
			{
				"x": -0.5259270987,
				"y": 0.4563320349,
				"z": 1.9436690069,
				"element": "H" 
			}
		],
		 "valence_orbital": [ 
			{
				"type": "occ",
				"energy": -0.24987,
				"method": "rhf"
			},
			{
				"type": "occ",
				"energy": -0.24573,
				"method": "rhf"
			},
			{
				"type": "occ",
				"energy": -0.24019,
				"method": "rhf"
			},
			{
				"type": "occ",
				"energy": -0.2319,
				"method": "rhf"
			},
			{
				"type": "occ",
				"energy": -0.21062,
				"method": "rhf"
			},
			{
				"type": "unocc",
				"energy": -0.00831,
				"method": "rhf"
			},
			{
				"type": "unocc",
				"energy": -0.00364,
				"method": "rhf"
			},
			{
				"type": "unocc",
				"energy": 0.00704,
				"method": "rhf"
			},
			{
				"type": "unocc",
				"energy": 0.01255,
				"method": "rhf"
			},
			{
				"type": "unocc",
				"energy": 0.08174,
				"method": "rhf"
			}
		],
		"cosmo_sigma_profile": { 
			"-0.025": 0.0,
			"-0.024": 0.0,
			"-0.023": 0.0,
			"-0.022": 0.0,
			"-0.021": 0.0,
			"-0.02": 0.0,
			"-0.019": 0.0,
			"-0.018": 0.0,
			"-0.017": 0.0,
			"-0.016": 0.0,
			"-0.015": 0.0766973041199,
			"-0.014": 0.553562389834,
			"-0.013": 0.955053359724,
			"-0.012": 0.549159384271,
			"-0.011": 0.856812609772,
			"-0.01": 1.0186099808,
			"-0.009": 0.991940646512,
			"-0.008": 0.635548645287,
			"-0.007": 1.04886259626,
			"-0.006": 7.52339006173,
			"-0.005": 16.8214814657,
			"-0.004": 24.1611298391,
			"-0.003": 33.7886762879,
			"-0.002": 35.6759599723,
			"-0.001": 52.4362322135,
			"0.0": 48.4546193742,
			"0.001": 31.2682039172,
			"0.002": 17.5454582188,
			"0.003": 17.0537658281,
			"0.004": 18.4192490893,
			"0.005": 20.1832597971,
			"0.006": 16.7216700766,
			"0.007": 4.40292318206,
			"0.008": 1.733247911,
			"0.009": 2.23718860218,
			"0.01": 2.47892113389,
			"0.011": 1.47524183371,
			"0.012": 0.524966277978,
			"0.013": 0.3278702991,
			"0.014": 0.222030226259,
			"0.015": 0.259452739278,
			"0.016": 0.247634051471,
			"0.017": 0.0,
			"0.018": 0.0,
			"0.019": 0.0,
			"0.02": 0.0,
			"0.021": 0.0,
			"0.022": 0.0,
			"0.023": 0.0,
			"0.024": 0.0,
			"0.025": 0.0
		}
	}
}
