{
	 "smiles": "CC(=O)C1=CC=C(C=C1)N1CCCC1=O", 
	 "Tm": 402.15, 
	 "num_atms": 28, 
	 "gaussian": { 
		 "optdone": 1, 
		 "sigma_profile": "yes", 
		 "theory": "DFT", 
		 "functional": "B3LYP", 
		 "basiset": "6-31G**", 
		 "properties": { 
			 "R2extent": 4742.9867, 
			 "electric_dipole_moment_norm": 4.07064243333, 
			 "electric_quadrupole_moment_norm": 17.0646758709, 
			 "total_energy": -670.33878209, 
			 "HOMO_LUMO_gap": 0.17432, 
			 "cosmo_polarized_energy": -14.2, 
			 "cosmo_cavitation_energy": 30.92, 
			 "cosmo_dispersion_energy": -22.91, 
			 "cosmo_repulsion_energy": 1.77, 
			 "cosmo_total_nonelectrostatic_energy": 9.78, 
			 "SMD_solvation_energy": 5.85 
		},
		"coords": [
			{
				"x": 4.054954027,
				"y": -1.8220310613,
				"z": 2.636987904,
				"element": "C" 
			},
			{
				"x": 3.4797671359,
				"y": -0.6654365728,
				"z": 1.8349467352,
				"element": "C" 
			},
			{
				"x": 4.1201885958,
				"y": 0.3671076302,
				"z": 1.6906211571,
				"element": "O" 
			},
			{
				"x": 2.1225978292,
				"y": -0.8142399359,
				"z": 1.2284889646,
				"element": "C" 
			},
			{
				"x": 1.3373511118,
				"y": -1.969510586,
				"z": 1.3620434609,
				"element": "C" 
			},
			{
				"x": 0.0773358387,
				"y": -2.0668885759,
				"z": 0.7826924748,
				"element": "C" 
			},
			{
				"x": -0.4382056457,
				"y": -0.9878267257,
				"z": 0.0377908619,
				"element": "C" 
			},
			{
				"x": 0.3475502836,
				"y": 0.1745220383,
				"z": -0.1037750257,
				"element": "C" 
			},
			{
				"x": 1.6020796513,
				"y": 0.2533875135,
				"z": 0.48347449,
				"element": "C" 
			},
			{
				"x": -1.7165813873,
				"y": -1.0371107693,
				"z": -0.5550461997,
				"element": "N" 
			},
			{
				"x": -2.3157821547,
				"y": 0.1478007876,
				"z": -1.1867911037,
				"element": "C" 
			},
			{
				"x": -3.7821664199,
				"y": -0.2548680128,
				"z": -1.4209750502,
				"element": "C" 
			},
			{
				"x": -3.7158271941,
				"y": -1.7775925442,
				"z": -1.5663345381,
				"element": "C" 
			},
			{
				"x": -2.4897958389,
				"y": -2.1824066088,
				"z": -0.753259175,
				"element": "C" 
			},
			{
				"x": -2.230700899,
				"y": -3.3095076656,
				"z": -0.3705270974,
				"element": "O" 
			},
			{
				"x": 5.0437001372,
				"y": -1.5378852261,
				"z": 2.9982003803,
				"element": "H" 
			},
			{
				"x": 4.1379365013,
				"y": -2.7250135826,
				"z": 2.022089246,
				"element": "H" 
			},
			{
				"x": 3.4129655266,
				"y": -2.0671699815,
				"z": 3.4903590576,
				"element": "H" 
			},
			{
				"x": 1.7054665648,
				"y": -2.8175179747,
				"z": 1.9309052522,
				"element": "H" 
			},
			{
				"x": -0.5102204249,
				"y": -2.9666070737,
				"z": 0.8884053224,
				"element": "H" 
			},
			{
				"x": -0.0133740981,
				"y": 1.0166105834,
				"z": -0.6819121108,
				"element": "H" 
			},
			{
				"x": 2.2090581109,
				"y": 1.1459698301,
				"z": 0.3740700531,
				"element": "H" 
			},
			{
				"x": -2.2229368924,
				"y": 1.01729218,
				"z": -0.5303071446,
				"element": "H" 
			},
			{
				"x": -1.8020344638,
				"y": 0.3803181864,
				"z": -2.1299003288,
				"element": "H" 
			},
			{
				"x": -4.3816360039,
				"y": 0.0137760741,
				"z": -0.5455579175,
				"element": "H" 
			},
			{
				"x": -4.2099218273,
				"y": 0.2533687333,
				"z": -2.288041639,
				"element": "H" 
			},
			{
				"x": -3.5447992276,
				"y": -2.0858442552,
				"z": -2.6055833929,
				"element": "H" 
			},
			{
				"x": -4.5971688366,
				"y": -2.3127964047,
				"z": -1.2077646365,
				"element": "H" 
			}
		],
		 "valence_orbital": [ 
			{
				"type": "occ",
				"energy": -0.29964,
				"method": "rhf"
			},
			{
				"type": "occ",
				"energy": -0.26003,
				"method": "rhf"
			},
			{
				"type": "occ",
				"energy": -0.25628,
				"method": "rhf"
			},
			{
				"type": "occ",
				"energy": -0.24104,
				"method": "rhf"
			},
			{
				"type": "occ",
				"energy": -0.22578,
				"method": "rhf"
			},
			{
				"type": "unocc",
				"energy": -0.05146,
				"method": "rhf"
			},
			{
				"type": "unocc",
				"energy": -0.00681,
				"method": "rhf"
			},
			{
				"type": "unocc",
				"energy": 0.00954,
				"method": "rhf"
			},
			{
				"type": "unocc",
				"energy": 0.05958,
				"method": "rhf"
			},
			{
				"type": "unocc",
				"energy": 0.07386,
				"method": "rhf"
			}
		],
		"cosmo_sigma_profile": { 
			"-0.025": 0.0,
			"-0.024": 0.0,
			"-0.023": 0.0,
			"-0.022": 0.0,
			"-0.021": 0.0,
			"-0.02": 0.0,
			"-0.019": 0.0,
			"-0.018": 0.0,
			"-0.017": 0.0,
			"-0.016": 0.0,
			"-0.015": 0.0,
			"-0.014": 0.0,
			"-0.013": 0.0,
			"-0.012": 0.0,
			"-0.011": 0.0,
			"-0.01": 0.0,
			"-0.009": 0.0,
			"-0.008": 0.0186706522257,
			"-0.007": 2.8572063745,
			"-0.006": 17.2055251917,
			"-0.005": 28.017461039,
			"-0.004": 30.6903375695,
			"-0.003": 23.6499142107,
			"-0.002": 19.713229483,
			"-0.001": 18.2655486392,
			"0.0": 13.3419337953,
			"0.001": 11.4227983664,
			"0.002": 11.1004571442,
			"0.003": 14.7279877454,
			"0.004": 15.6198514982,
			"0.005": 3.26678753882,
			"0.006": 4.06077324881,
			"0.007": 4.18268265023,
			"0.008": 2.4716141061,
			"0.009": 2.20257052609,
			"0.01": 4.37783021105,
			"0.011": 4.3194869003,
			"0.012": 7.16272455557,
			"0.013": 5.24052982663,
			"0.014": 1.38003791417,
			"0.015": 0.0,
			"0.016": 0.0,
			"0.017": 0.0,
			"0.018": 0.0,
			"0.019": 0.0,
			"0.02": 0.0,
			"0.021": 0.0,
			"0.022": 0.0,
			"0.023": 0.0,
			"0.024": 0.0,
			"0.025": 0.0
		}
	}
}
