{
	 "smiles": "CC1CCCC(C)N1C(=O)C1=C(N)C=CC(Cl)=C1", 
	 "Tm": 443.15, 
	 "num_atms": 37, 
	 "gaussian": { 
		 "optdone": 1, 
		 "sigma_profile": "yes", 
		 "theory": "DFT", 
		 "functional": "B3LYP", 
		 "basiset": "6-31G**", 
		 "properties": { 
			 "R2extent": 6174.8935, 
			 "electric_dipole_moment_norm": 2.30803709892, 
			 "electric_quadrupole_moment_norm": 15.2895913657, 
			 "total_energy": -1189.89854916, 
			 "HOMO_LUMO_gap": 0.17234, 
			 "cosmo_polarized_energy": -11.02, 
			 "cosmo_cavitation_energy": 38.43, 
			 "cosmo_dispersion_energy": -26.86, 
			 "cosmo_repulsion_energy": 2.08, 
			 "cosmo_total_nonelectrostatic_energy": 13.65, 
			 "SMD_solvation_energy": 5.55 
		},
		"coords": [
			{
				"x": -0.5301572942,
				"y": -0.4500191919,
				"z": 1.6721244835,
				"element": "C" 
			},
			{
				"x": 0.5215781952,
				"y": -0.0889220637,
				"z": 0.6061818484,
				"element": "C" 
			},
			{
				"x": 1.8394611646,
				"y": 0.4271657277,
				"z": 1.2109586992,
				"element": "C" 
			},
			{
				"x": 1.7428678705,
				"y": 1.8794800613,
				"z": 1.6900342349,
				"element": "C" 
			},
			{
				"x": 1.2952369301,
				"y": 2.7691039123,
				"z": 0.5256660677,
				"element": "C" 
			},
			{
				"x": -0.0411912742,
				"y": 2.3211271081,
				"z": -0.0916045072,
				"element": "C" 
			},
			{
				"x": -1.2662646407,
				"y": 2.7345734482,
				"z": 0.7419796458,
				"element": "C" 
			},
			{
				"x": 0.0058151976,
				"y": 0.8684636447,
				"z": -0.4067158609,
				"element": "N" 
			},
			{
				"x": -0.7500564107,
				"y": 0.4689341626,
				"z": -1.4827787758,
				"element": "C" 
			},
			{
				"x": -1.5207401619,
				"y": 1.2520529906,
				"z": -2.0564661444,
				"element": "O" 
			},
			{
				"x": -0.6101487901,
				"y": -0.9334247177,
				"z": -2.0105900642,
				"element": "C" 
			},
			{
				"x": -1.7771178251,
				"y": -1.658476954,
				"z": -2.3659083455,
				"element": "C" 
			},
			{
				"x": -3.0378945423,
				"y": -1.1325657687,
				"z": -2.1352942884,
				"element": "N" 
			},
			{
				"x": -1.6205005465,
				"y": -2.9502571095,
				"z": -2.9035777569,
				"element": "C" 
			},
			{
				"x": -0.3631875257,
				"y": -3.4928267611,
				"z": -3.1393373066,
				"element": "C" 
			},
			{
				"x": 0.7749322955,
				"y": -2.7438781257,
				"z": -2.8392173194,
				"element": "C" 
			},
			{
				"x": 2.3741036111,
				"y": -3.4038653541,
				"z": -3.1715665657,
				"element": "Cl" 
			},
			{
				"x": 0.6524277915,
				"y": -1.4774520636,
				"z": -2.2789004212,
				"element": "C" 
			},
			{
				"x": -0.7586509003,
				"y": 0.3793239174,
				"z": 2.3451708094,
				"element": "H" 
			},
			{
				"x": -0.1591243311,
				"y": -1.2814591047,
				"z": 2.2812934168,
				"element": "H" 
			},
			{
				"x": -1.462806018,
				"y": -0.7693124391,
				"z": 1.1977290432,
				"element": "H" 
			},
			{
				"x": 0.7453130317,
				"y": -1.0121267587,
				"z": 0.0742159777,
				"element": "H" 
			},
			{
				"x": 2.1330549275,
				"y": -0.2399019641,
				"z": 2.0292850971,
				"element": "H" 
			},
			{
				"x": 2.6256738691,
				"y": 0.3595842418,
				"z": 0.4477067767,
				"element": "H" 
			},
			{
				"x": 2.7142348471,
				"y": 2.2147266563,
				"z": 2.0705320145,
				"element": "H" 
			},
			{
				"x": 1.0394577643,
				"y": 1.9607593154,
				"z": 2.5280034313,
				"element": "H" 
			},
			{
				"x": 2.0679690694,
				"y": 2.7434098879,
				"z": -0.253508504,
				"element": "H" 
			},
			{
				"x": 1.1994147089,
				"y": 3.8136445521,
				"z": 0.8433573289,
				"element": "H" 
			},
			{
				"x": -0.1528555941,
				"y": 2.807435534,
				"z": -1.0628727772,
				"element": "H" 
			},
			{
				"x": -1.2155262025,
				"y": 2.3902282226,
				"z": 1.7780909028,
				"element": "H" 
			},
			{
				"x": -2.177999416,
				"y": 2.344833877,
				"z": 0.2847134079,
				"element": "H" 
			},
			{
				"x": -1.3387325799,
				"y": 3.8275620808,
				"z": 0.7598438539,
				"element": "H" 
			},
			{
				"x": -3.7888591787,
				"y": -1.5865820365,
				"z": -2.6353205613,
				"element": "H" 
			},
			{
				"x": -3.0649933011,
				"y": -0.1200384643,
				"z": -2.1865906535,
				"element": "H" 
			},
			{
				"x": -2.5065050624,
				"y": -3.527192262,
				"z": -3.1559623186,
				"element": "H" 
			},
			{
				"x": -0.2656071333,
				"y": -4.4840744049,
				"z": -3.5686489157,
				"element": "H" 
			},
			{
				"x": 1.5424774545,
				"y": -0.8966337968,
				"z": -2.061525953,
				"element": "H" 
			}
		],
		 "valence_orbital": [ 
			{
				"type": "occ",
				"energy": -0.29145,
				"method": "rhf"
			},
			{
				"type": "occ",
				"energy": -0.26658,
				"method": "rhf"
			},
			{
				"type": "occ",
				"energy": -0.24869,
				"method": "rhf"
			},
			{
				"type": "occ",
				"energy": -0.23771,
				"method": "rhf"
			},
			{
				"type": "occ",
				"energy": -0.20415,
				"method": "rhf"
			},
			{
				"type": "unocc",
				"energy": -0.03181,
				"method": "rhf"
			},
			{
				"type": "unocc",
				"energy": 0.00191,
				"method": "rhf"
			},
			{
				"type": "unocc",
				"energy": 0.03129,
				"method": "rhf"
			},
			{
				"type": "unocc",
				"energy": 0.04159,
				"method": "rhf"
			},
			{
				"type": "unocc",
				"energy": 0.07176,
				"method": "rhf"
			}
		],
		"cosmo_sigma_profile": { 
			"-0.025": 0.0,
			"-0.024": 0.0,
			"-0.023": 0.0,
			"-0.022": 0.0,
			"-0.021": 0.0,
			"-0.02": 0.0,
			"-0.019": 0.0,
			"-0.018": 0.0,
			"-0.017": 0.0,
			"-0.016": 0.0,
			"-0.015": 0.0,
			"-0.014": 0.0,
			"-0.013": 0.671583380244,
			"-0.012": 1.42078997496,
			"-0.011": 1.59258871447,
			"-0.01": 1.68604195424,
			"-0.009": 1.62270785582,
			"-0.008": 2.66880514576,
			"-0.007": 5.21007578805,
			"-0.006": 6.52449320007,
			"-0.005": 8.4789062974,
			"-0.004": 13.2869137748,
			"-0.003": 31.4149929927,
			"-0.002": 36.4607232274,
			"-0.001": 38.2951126662,
			"0.0": 36.5186900821,
			"0.001": 28.6473521864,
			"0.002": 16.2926496069,
			"0.003": 17.5583712437,
			"0.004": 18.9912277,
			"0.005": 13.8846243677,
			"0.006": 4.87785264392,
			"0.007": 2.09357771184,
			"0.008": 1.85555895792,
			"0.009": 2.62127489487,
			"0.01": 2.0062681535,
			"0.011": 1.96316731507,
			"0.012": 1.95889284492,
			"0.013": 3.52635907069,
			"0.014": 1.28864392644,
			"0.015": 0.0,
			"0.016": 0.0,
			"0.017": 0.0,
			"0.018": 0.0,
			"0.019": 0.0,
			"0.02": 0.0,
			"0.021": 0.0,
			"0.022": 0.0,
			"0.023": 0.0,
			"0.024": 0.0,
			"0.025": 0.0
		}
	}
}
