{
	 "smiles": "COC(=O)C1=CC=C(O)C=C1O", 
	 "Tm": 392.15, 
	 "num_atms": 20, 
	 "gaussian": { 
		 "optdone": 1, 
		 "sigma_profile": "yes", 
		 "theory": "DFT", 
		 "functional": "B3LYP", 
		 "basiset": "6-31G**", 
		 "properties": { 
			 "R2extent": 2361.3826, 
			 "electric_dipole_moment_norm": 3.8809241554, 
			 "electric_quadrupole_moment_norm": 9.2659475959, 
			 "total_energy": -610.585631868, 
			 "HOMO_LUMO_gap": 0.18498, 
			 "cosmo_polarized_energy": -11.99, 
			 "cosmo_cavitation_energy": 24.36, 
			 "cosmo_dispersion_energy": -18.51, 
			 "cosmo_repulsion_energy": 1.47, 
			 "cosmo_total_nonelectrostatic_energy": 7.32, 
			 "SMD_solvation_energy": 6.41 
		},
		"coords": [
			{
				"x": -3.6012939562,
				"y": 1.8511673758,
				"z": 0.2802652652,
				"element": "C" 
			},
			{
				"x": -2.5395748717,
				"y": 0.8894202449,
				"z": 0.3917534707,
				"element": "O" 
			},
			{
				"x": -1.4371249763,
				"y": 1.1499409035,
				"z": -0.3356651103,
				"element": "C" 
			},
			{
				"x": -1.3564140659,
				"y": 2.1550389594,
				"z": -1.0495882999,
				"element": "O" 
			},
			{
				"x": -0.375993952,
				"y": 0.1530399268,
				"z": -0.2008163834,
				"element": "C" 
			},
			{
				"x": -0.5065929557,
				"y": -0.9799900707,
				"z": 0.6232354648,
				"element": "C" 
			},
			{
				"x": 0.5105742355,
				"y": -1.9101417316,
				"z": 0.7353784713,
				"element": "C" 
			},
			{
				"x": 1.7016048253,
				"y": -1.7154538004,
				"z": 0.0072247057,
				"element": "C" 
			},
			{
				"x": 2.7366731548,
				"y": -2.5943316299,
				"z": 0.0760182044,
				"element": "O" 
			},
			{
				"x": 1.8628823336,
				"y": -0.6055094494,
				"z": -0.8167426516,
				"element": "C" 
			},
			{
				"x": 0.8341940307,
				"y": 0.3354102122,
				"z": -0.9302628606,
				"element": "C" 
			},
			{
				"x": 1.032208919,
				"y": 1.3891513938,
				"z": -1.7348808712,
				"element": "O" 
			},
			{
				"x": -3.9485330193,
				"y": 1.923895456,
				"z": -0.7531871845,
				"element": "H" 
			},
			{
				"x": -4.3970972857,
				"y": 1.4819299921,
				"z": 0.9268157494,
				"element": "H" 
			},
			{
				"x": -3.2646117742,
				"y": 2.8369525059,
				"z": 0.6100554431,
				"element": "H" 
			},
			{
				"x": -1.4290388723,
				"y": -1.114852614,
				"z": 1.1765138303,
				"element": "H" 
			},
			{
				"x": 0.3966101132,
				"y": -2.7811298379,
				"z": 1.3756619496,
				"element": "H" 
			},
			{
				"x": 2.5036200891,
				"y": -3.3152971588,
				"z": 0.6755943768,
				"element": "H" 
			},
			{
				"x": 2.7820411906,
				"y": -0.4643225895,
				"z": -1.3725794153,
				"element": "H" 
			},
			{
				"x": 0.2121668376,
				"y": 1.9395819118,
				"z": -1.6914941546,
				"element": "H" 
			}
		],
		 "valence_orbital": [ 
			{
				"type": "occ",
				"energy": -0.31997,
				"method": "rhf"
			},
			{
				"type": "occ",
				"energy": -0.30963,
				"method": "rhf"
			},
			{
				"type": "occ",
				"energy": -0.2841,
				"method": "rhf"
			},
			{
				"type": "occ",
				"energy": -0.2381,
				"method": "rhf"
			},
			{
				"type": "occ",
				"energy": -0.22497,
				"method": "rhf"
			},
			{
				"type": "unocc",
				"energy": -0.03999,
				"method": "rhf"
			},
			{
				"type": "unocc",
				"energy": 0.00531,
				"method": "rhf"
			},
			{
				"type": "unocc",
				"energy": 0.06116,
				"method": "rhf"
			},
			{
				"type": "unocc",
				"energy": 0.06346,
				"method": "rhf"
			},
			{
				"type": "unocc",
				"energy": 0.0981,
				"method": "rhf"
			}
		],
		"cosmo_sigma_profile": { 
			"-0.025": 0.0,
			"-0.024": 0.0,
			"-0.023": 0.0,
			"-0.022": 0.0,
			"-0.021": 0.0,
			"-0.02": 0.0,
			"-0.019": 0.143796975428,
			"-0.018": 0.98799493649,
			"-0.017": 1.30310616362,
			"-0.016": 0.729593500686,
			"-0.015": 1.13581334531,
			"-0.014": 1.12761668991,
			"-0.013": 0.981177228979,
			"-0.012": 0.75360838047,
			"-0.011": 1.00567151112,
			"-0.01": 1.14375659594,
			"-0.009": 1.20968864781,
			"-0.008": 1.25260728564,
			"-0.007": 3.45409522172,
			"-0.006": 10.7438682341,
			"-0.005": 12.4577309788,
			"-0.004": 12.6940753423,
			"-0.003": 14.316204566,
			"-0.002": 13.2431194696,
			"-0.001": 10.2003769354,
			"0.0": 9.68830035097,
			"0.001": 12.8494598881,
			"0.002": 15.0455713359,
			"0.003": 21.1118825309,
			"0.004": 12.148060649,
			"0.005": 6.26586487483,
			"0.006": 4.72862509536,
			"0.007": 4.26441386475,
			"0.008": 4.49736792059,
			"0.009": 4.13876931932,
			"0.01": 5.49488902908,
			"0.011": 4.19102090676,
			"0.012": 1.00291155305,
			"0.013": 0.0,
			"0.014": 0.0,
			"0.015": 0.0,
			"0.016": 0.0,
			"0.017": 0.0,
			"0.018": 0.0,
			"0.019": 0.0,
			"0.02": 0.0,
			"0.021": 0.0,
			"0.022": 0.0,
			"0.023": 0.0,
			"0.024": 0.0,
			"0.025": 0.0
		}
	}
}
