{
	 "smiles": "NC1=NN(CC(=O)N2CCOCC2)C=C1", 
	 "Tm": 442.15, 
	 "num_atms": 29, 
	 "gaussian": { 
		 "optdone": 1, 
		 "sigma_profile": "yes", 
		 "theory": "DFT", 
		 "functional": "B3LYP", 
		 "basiset": "6-31G**", 
		 "properties": { 
			 "R2extent": 3938.9426, 
			 "electric_dipole_moment_norm": 3.93088008848, 
			 "electric_quadrupole_moment_norm": 19.0112896012, 
			 "total_energy": -720.808268214, 
			 "HOMO_LUMO_gap": 0.22335, 
			 "cosmo_polarized_energy": -20.7, 
			 "cosmo_cavitation_energy": 31.33, 
			 "cosmo_dispersion_energy": -22.43, 
			 "cosmo_repulsion_energy": 1.8, 
			 "cosmo_total_nonelectrostatic_energy": 10.7, 
			 "SMD_solvation_energy": 4.63 
		},
		"coords": [
			{
				"x": 2.5493081975,
				"y": 0.3762492632,
				"z": -1.4131332563,
				"element": "N" 
			},
			{
				"x": 1.9036023593,
				"y": -0.0216304233,
				"z": -0.2439127557,
				"element": "C" 
			},
			{
				"x": 1.0540612441,
				"y": -1.0506508765,
				"z": -0.2505966601,
				"element": "N" 
			},
			{
				"x": 0.6793417082,
				"y": -1.1974959352,
				"z": 1.0524645171,
				"element": "N" 
			},
			{
				"x": -0.1774355188,
				"y": -2.3034890699,
				"z": 1.4278156894,
				"element": "C" 
			},
			{
				"x": -1.4039083493,
				"y": -2.537887307,
				"z": 0.5266045146,
				"element": "C" 
			},
			{
				"x": -1.647184428,
				"y": -3.6820449948,
				"z": 0.1565683432,
				"element": "O" 
			},
			{
				"x": -2.2137926564,
				"y": -1.4823864953,
				"z": 0.2145483253,
				"element": "N" 
			},
			{
				"x": -3.3256701838,
				"y": -1.7240595189,
				"z": -0.7134429833,
				"element": "C" 
			},
			{
				"x": -3.5461291192,
				"y": -0.4917512976,
				"z": -1.5816185097,
				"element": "C" 
			},
			{
				"x": -3.832774142,
				"y": 0.6864517247,
				"z": -0.8235549208,
				"element": "O" 
			},
			{
				"x": -3.3447650375,
				"y": 0.6594323112,
				"z": 0.5105839743,
				"element": "C" 
			},
			{
				"x": -2.022798177,
				"y": -0.093257521,
				"z": 0.6480887745,
				"element": "C" 
			},
			{
				"x": 1.275569506,
				"y": -0.2834624687,
				"z": 1.8600798645,
				"element": "C" 
			},
			{
				"x": 2.078396245,
				"y": 0.5075410001,
				"z": 1.0630297688,
				"element": "C" 
			},
			{
				"x": 2.1186592296,
				"y": -0.0221121632,
				"z": -2.2387076346,
				"element": "H" 
			},
			{
				"x": 2.6567224178,
				"y": 1.3782751165,
				"z": -1.5019773602,
				"element": "H" 
			},
			{
				"x": -0.5048829486,
				"y": -2.1344871833,
				"z": 2.4598494173,
				"element": "H" 
			},
			{
				"x": 0.37330836,
				"y": -3.2472427976,
				"z": 1.3946627922,
				"element": "H" 
			},
			{
				"x": -3.0712079691,
				"y": -2.5908081731,
				"z": -1.3265182167,
				"element": "H" 
			},
			{
				"x": -4.2424809067,
				"y": -1.9739614367,
				"z": -0.1622835478,
				"element": "H" 
			},
			{
				"x": -2.6538141498,
				"y": -0.3233307833,
				"z": -2.20297756,
				"element": "H" 
			},
			{
				"x": -4.3962287381,
				"y": -0.6563931057,
				"z": -2.2523643236,
				"element": "H" 
			},
			{
				"x": -3.204467349,
				"y": 1.7012835855,
				"z": 0.8160048238,
				"element": "H" 
			},
			{
				"x": -4.0908192011,
				"y": 0.2114983469,
				"z": 1.1863126132,
				"element": "H" 
			},
			{
				"x": -1.7088184352,
				"y": -0.060621824,
				"z": 1.6956582443,
				"element": "H" 
			},
			{
				"x": -1.2451325496,
				"y": 0.3993506374,
				"z": 0.0518240862,
				"element": "H" 
			},
			{
				"x": 1.0941175762,
				"y": -0.2660886921,
				"z": 2.9256835812,
				"element": "H" 
			},
			{
				"x": 2.7071230154,
				"y": 1.3291800817,
				"z": 1.3717083989,
				"element": "H" 
			}
		],
		 "valence_orbital": [ 
			{
				"type": "occ",
				"energy": -0.25767,
				"method": "rhf"
			},
			{
				"type": "occ",
				"energy": -0.25021,
				"method": "rhf"
			},
			{
				"type": "occ",
				"energy": -0.24398,
				"method": "rhf"
			},
			{
				"type": "occ",
				"energy": -0.23832,
				"method": "rhf"
			},
			{
				"type": "occ",
				"energy": -0.20523,
				"method": "rhf"
			},
			{
				"type": "unocc",
				"energy": 0.01812,
				"method": "rhf"
			},
			{
				"type": "unocc",
				"energy": 0.01893,
				"method": "rhf"
			},
			{
				"type": "unocc",
				"energy": 0.07043,
				"method": "rhf"
			},
			{
				"type": "unocc",
				"energy": 0.07699,
				"method": "rhf"
			},
			{
				"type": "unocc",
				"energy": 0.09624,
				"method": "rhf"
			}
		],
		"cosmo_sigma_profile": { 
			"-0.025": 0.0,
			"-0.024": 0.0,
			"-0.023": 0.0,
			"-0.022": 0.0,
			"-0.021": 0.0,
			"-0.02": 0.0,
			"-0.019": 0.0,
			"-0.018": 0.0,
			"-0.017": 0.0,
			"-0.016": 0.0,
			"-0.015": 0.0,
			"-0.014": 0.0,
			"-0.013": 0.240259728242,
			"-0.012": 1.66154992163,
			"-0.011": 2.43724599125,
			"-0.01": 2.83337216245,
			"-0.009": 8.42136020621,
			"-0.008": 7.71884538281,
			"-0.007": 6.42145838758,
			"-0.006": 13.3724330964,
			"-0.005": 21.980814602,
			"-0.004": 28.7197361693,
			"-0.003": 21.3212323428,
			"-0.002": 14.0392802992,
			"-0.001": 11.3829292695,
			"0.0": 9.15014444567,
			"0.001": 10.4732174836,
			"0.002": 8.14052260092,
			"0.003": 7.8879017229,
			"0.004": 7.37155437815,
			"0.005": 7.69093444555,
			"0.006": 8.7691656493,
			"0.007": 5.86413467591,
			"0.008": 5.16273675876,
			"0.009": 5.2355252001,
			"0.01": 5.05108640752,
			"0.011": 4.19087518991,
			"0.012": 5.43977578479,
			"0.013": 7.02013211934,
			"0.014": 6.11644470787,
			"0.015": 1.56316434365,
			"0.016": 0.273355166624,
			"0.017": 0.0,
			"0.018": 0.0,
			"0.019": 0.0,
			"0.02": 0.0,
			"0.021": 0.0,
			"0.022": 0.0,
			"0.023": 0.0,
			"0.024": 0.0,
			"0.025": 0.0
		}
	}
}
