{
	 "smiles": "O=C(C1=CC=CC=C1)C1=CC=CC2=C1C=CC=C2", 
	 "Tm": 349.15, 
	 "num_atms": 30, 
	 "gaussian": { 
		 "optdone": 1, 
		 "sigma_profile": "yes", 
		 "theory": "DFT", 
		 "functional": "B3LYP", 
		 "basiset": "6-31G**", 
		 "properties": { 
			 "R2extent": 4562.7836, 
			 "electric_dipole_moment_norm": 3.10061367152, 
			 "electric_quadrupole_moment_norm": 10.440951471, 
			 "total_energy": -730.273862361, 
			 "HOMO_LUMO_gap": 0.15574, 
			 "cosmo_polarized_energy": -9.73, 
			 "cosmo_cavitation_energy": 33.78, 
			 "cosmo_dispersion_energy": -24.05, 
			 "cosmo_repulsion_energy": 1.83, 
			 "cosmo_total_nonelectrostatic_energy": 11.56, 
			 "SMD_solvation_energy": 5.91 
		},
		"coords": [
			{
				"x": 0.819225951,
				"y": -0.8570099932,
				"z": -2.3769944481,
				"element": "O" 
			},
			{
				"x": 0.7815706419,
				"y": -0.2536500867,
				"z": -1.311345239,
				"element": "C" 
			},
			{
				"x": 0.4042482961,
				"y": 1.1971448773,
				"z": -1.2804819462,
				"element": "C" 
			},
			{
				"x": -0.2284609512,
				"y": 1.7392175617,
				"z": -2.4110710177,
				"element": "C" 
			},
			{
				"x": -0.5557766649,
				"y": 3.0910666642,
				"z": -2.4538539946,
				"element": "C" 
			},
			{
				"x": -0.2370651748,
				"y": 3.921672845,
				"z": -1.3745993713,
				"element": "C" 
			},
			{
				"x": 0.4070085746,
				"y": 3.3947135478,
				"z": -0.2532383676,
				"element": "C" 
			},
			{
				"x": 0.7227705403,
				"y": 2.0371949544,
				"z": -0.2024284516,
				"element": "C" 
			},
			{
				"x": 1.2020654195,
				"y": -0.9600851182,
				"z": -0.0460127116,
				"element": "C" 
			},
			{
				"x": 2.4244907931,
				"y": -1.6085031874,
				"z": -0.0860841701,
				"element": "C" 
			},
			{
				"x": 2.9305456217,
				"y": -2.2915881859,
				"z": 1.0407350334,
				"element": "C" 
			},
			{
				"x": 2.1908004075,
				"y": -2.3484628487,
				"z": 2.1993820958,
				"element": "C" 
			},
			{
				"x": 0.9090512939,
				"y": -1.7416038695,
				"z": 2.2745536371,
				"element": "C" 
			},
			{
				"x": 0.3926054774,
				"y": -1.0342226887,
				"z": 1.1359305141,
				"element": "C" 
			},
			{
				"x": -0.9186459244,
				"y": -0.4864196359,
				"z": 1.225414779,
				"element": "C" 
			},
			{
				"x": -1.6612122943,
				"y": -0.6042475233,
				"z": 2.3791468231,
				"element": "C" 
			},
			{
				"x": -1.1381046363,
				"y": -1.2784115824,
				"z": 3.5082590818,
				"element": "C" 
			},
			{
				"x": 0.1176769742,
				"y": -1.8363858545,
				"z": 3.4518232128,
				"element": "C" 
			},
			{
				"x": -0.4481926394,
				"y": 1.0786592071,
				"z": -3.2432033882,
				"element": "H" 
			},
			{
				"x": -1.053917862,
				"y": 3.5015525284,
				"z": -3.3274258181,
				"element": "H" 
			},
			{
				"x": -0.4878274277,
				"y": 4.9781723962,
				"z": -1.4098425481,
				"element": "H" 
			},
			{
				"x": 0.6639907715,
				"y": 4.0406705067,
				"z": 0.5811509913,
				"element": "H" 
			},
			{
				"x": 1.225030957,
				"y": 1.6306217583,
				"z": 0.6689279071,
				"element": "H" 
			},
			{
				"x": 3.0022519393,
				"y": -1.5752710173,
				"z": -1.004313615,
				"element": "H" 
			},
			{
				"x": 3.9034993778,
				"y": -2.770582135,
				"z": 0.9853644266,
				"element": "H" 
			},
			{
				"x": 2.5715476375,
				"y": -2.8715953014,
				"z": 3.0728456745,
				"element": "H" 
			},
			{
				"x": -1.341638516,
				"y": 0.024859652,
				"z": 0.3682916539,
				"element": "H" 
			},
			{
				"x": -2.6602431177,
				"y": -0.1801743694,
				"z": 2.4216221009,
				"element": "H" 
			},
			{
				"x": -1.7343850183,
				"y": -1.3613906001,
				"z": 4.4121808402,
				"element": "H" 
			},
			{
				"x": 0.5232895525,
				"y": -2.3700425013,
				"z": 4.3075663157,
				"element": "H" 
			}
		],
		 "valence_orbital": [ 
			{
				"type": "occ",
				"energy": -0.25986,
				"method": "rhf"
			},
			{
				"type": "occ",
				"energy": -0.25861,
				"method": "rhf"
			},
			{
				"type": "occ",
				"energy": -0.24927,
				"method": "rhf"
			},
			{
				"type": "occ",
				"energy": -0.24618,
				"method": "rhf"
			},
			{
				"type": "occ",
				"energy": -0.21908,
				"method": "rhf"
			},
			{
				"type": "unocc",
				"energy": -0.06334,
				"method": "rhf"
			},
			{
				"type": "unocc",
				"energy": -0.04093,
				"method": "rhf"
			},
			{
				"type": "unocc",
				"energy": -0.01517,
				"method": "rhf"
			},
			{
				"type": "unocc",
				"energy": -0.00614,
				"method": "rhf"
			},
			{
				"type": "unocc",
				"energy": 0.01667,
				"method": "rhf"
			}
		],
		"cosmo_sigma_profile": { 
			"-0.025": 0.0,
			"-0.024": 0.0,
			"-0.023": 0.0,
			"-0.022": 0.0,
			"-0.021": 0.0,
			"-0.02": 0.0,
			"-0.019": 0.0,
			"-0.018": 0.0,
			"-0.017": 0.0,
			"-0.016": 0.0,
			"-0.015": 0.0,
			"-0.014": 0.0,
			"-0.013": 0.0,
			"-0.012": 0.0,
			"-0.011": 0.0,
			"-0.01": 0.0,
			"-0.009": 0.0,
			"-0.008": 0.0,
			"-0.007": 2.69605133831,
			"-0.006": 20.1815035417,
			"-0.005": 25.4986890558,
			"-0.004": 26.1410053082,
			"-0.003": 19.8620319136,
			"-0.002": 19.1407500602,
			"-0.001": 15.1707865574,
			"0.0": 17.34465521,
			"0.001": 18.9375833118,
			"0.002": 20.8461747338,
			"0.003": 30.6367659279,
			"0.004": 28.6729761985,
			"0.005": 8.93102413891,
			"0.006": 2.24380987277,
			"0.007": 1.84020439688,
			"0.008": 1.75353133893,
			"0.009": 1.53006993972,
			"0.01": 2.93206231888,
			"0.011": 2.43950937554,
			"0.012": 4.04480008605,
			"0.013": 1.02083267446,
			"0.014": 0.0395158667264,
			"0.015": 0.0,
			"0.016": 0.0,
			"0.017": 0.0,
			"0.018": 0.0,
			"0.019": 0.0,
			"0.02": 0.0,
			"0.021": 0.0,
			"0.022": 0.0,
			"0.023": 0.0,
			"0.024": 0.0,
			"0.025": 0.0
		}
	}
}
