{
	 "smiles": "OC1=CC(=NC2=C1C=CC=C2C(F)(F)F)C(F)(F)F", 
	 "Tm": 405.15, 
	 "num_atms": 24, 
	 "gaussian": { 
		 "optdone": 1, 
		 "sigma_profile": "yes", 
		 "theory": "DFT", 
		 "functional": "B3LYP", 
		 "basiset": "6-31G**", 
		 "properties": { 
			 "R2extent": 5705.3228, 
			 "electric_dipole_moment_norm": 6.07415231781, 
			 "electric_quadrupole_moment_norm": 15.3982822779, 
			 "total_energy": -1151.21549813, 
			 "HOMO_LUMO_gap": 0.17406, 
			 "cosmo_polarized_energy": -13.64, 
			 "cosmo_cavitation_energy": 31.78, 
			 "cosmo_dispersion_energy": -22.01, 
			 "cosmo_repulsion_energy": 1.56, 
			 "cosmo_total_nonelectrostatic_energy": 11.33, 
			 "SMD_solvation_energy": 7.24 
		},
		"coords": [
			{
				"x": -2.6271492688,
				"y": -2.2046700352,
				"z": 0.8412310446,
				"element": "O" 
			},
			{
				"x": -1.6512285579,
				"y": -1.8190111856,
				"z": -0.0133824944,
				"element": "C" 
			},
			{
				"x": -1.3657966847,
				"y": -2.4788576263,
				"z": -1.1927976421,
				"element": "C" 
			},
			{
				"x": -0.3222108726,
				"y": -1.9730074691,
				"z": -1.9941792056,
				"element": "C" 
			},
			{
				"x": 0.4080639257,
				"y": -0.9171358195,
				"z": -1.7106286202,
				"element": "N" 
			},
			{
				"x": 0.1380822082,
				"y": -0.2576489516,
				"z": -0.5527326896,
				"element": "C" 
			},
			{
				"x": -0.8939027736,
				"y": -0.6672039015,
				"z": 0.3489227567,
				"element": "C" 
			},
			{
				"x": -1.132159115,
				"y": 0.0579708171,
				"z": 1.5430660278,
				"element": "C" 
			},
			{
				"x": -0.3671651859,
				"y": 1.162441741,
				"z": 1.8380016504,
				"element": "C" 
			},
			{
				"x": 0.6565851402,
				"y": 1.5793051366,
				"z": 0.9561883786,
				"element": "C" 
			},
			{
				"x": 0.9121852647,
				"y": 0.8948560182,
				"z": -0.2125257796,
				"element": "C" 
			},
			{
				"x": 2.0128476781,
				"y": 1.361551801,
				"z": -1.1381885104,
				"element": "C" 
			},
			{
				"x": 2.6272061132,
				"y": 2.4652551096,
				"z": -0.6417740133,
				"element": "F" 
			},
			{
				"x": 1.5429342378,
				"y": 1.6907021043,
				"z": -2.3559219797,
				"element": "F" 
			},
			{
				"x": 2.9656340615,
				"y": 0.4248872761,
				"z": -1.3022930616,
				"element": "F" 
			},
			{
				"x": 0.031179395,
				"y": -2.66415303,
				"z": -3.3020038865,
				"element": "C" 
			},
			{
				"x": -0.1115122919,
				"y": -1.8328489814,
				"z": -4.3479183183,
				"element": "F" 
			},
			{
				"x": -0.7693207421,
				"y": -3.7362175665,
				"z": -3.5216381691,
				"element": "F" 
			},
			{
				"x": 1.3010248128,
				"y": -3.1035948083,
				"z": -3.2944115287,
				"element": "F" 
			},
			{
				"x": -3.0715391345,
				"y": -2.9907572818,
				"z": 0.4954127249,
				"element": "H" 
			},
			{
				"x": -1.9192940334,
				"y": -3.3580139285,
				"z": -1.5027905838,
				"element": "H" 
			},
			{
				"x": -1.9202297818,
				"y": -0.2725805774,
				"z": 2.2101432036,
				"element": "H" 
			},
			{
				"x": -0.5442755763,
				"y": 1.7223066546,
				"z": 2.7507003,
				"element": "H" 
			},
			{
				"x": 1.2526411812,
				"y": 2.4509245041,
				"z": 1.1993203962,
				"element": "H" 
			}
		],
		 "valence_orbital": [ 
			{
				"type": "occ",
				"energy": -0.36221,
				"method": "rhf"
			},
			{
				"type": "occ",
				"energy": -0.30015,
				"method": "rhf"
			},
			{
				"type": "occ",
				"energy": -0.27826,
				"method": "rhf"
			},
			{
				"type": "occ",
				"energy": -0.27739,
				"method": "rhf"
			},
			{
				"type": "occ",
				"energy": -0.24817,
				"method": "rhf"
			},
			{
				"type": "unocc",
				"energy": -0.07411,
				"method": "rhf"
			},
			{
				"type": "unocc",
				"energy": -0.04248,
				"method": "rhf"
			},
			{
				"type": "unocc",
				"energy": -0.0021,
				"method": "rhf"
			},
			{
				"type": "unocc",
				"energy": 0.04068,
				"method": "rhf"
			},
			{
				"type": "unocc",
				"energy": 0.0607,
				"method": "rhf"
			}
		],
		"cosmo_sigma_profile": { 
			"-0.025": 0.0,
			"-0.024": 0.0,
			"-0.023": 0.0,
			"-0.022": 0.0,
			"-0.021": 0.0,
			"-0.02": 0.114344567316,
			"-0.019": 1.21380997812,
			"-0.018": 1.54456219146,
			"-0.017": 0.925312477917,
			"-0.016": 1.01171246524,
			"-0.015": 1.50471039781,
			"-0.014": 0.974812958079,
			"-0.013": 0.69449717981,
			"-0.012": 1.45051797783,
			"-0.011": 0.842294918977,
			"-0.01": 1.00664422833,
			"-0.009": 1.4275351781,
			"-0.008": 1.97519722764,
			"-0.007": 5.98793865827,
			"-0.006": 7.81277460985,
			"-0.005": 6.40335186349,
			"-0.004": 8.37608984177,
			"-0.003": 9.35930010109,
			"-0.002": 14.6228039004,
			"-0.001": 20.196370284,
			"0.0": 26.7981305222,
			"0.001": 23.3120820928,
			"0.002": 41.2106456213,
			"0.003": 47.2263601438,
			"0.004": 9.68450980573,
			"0.005": 5.63581076199,
			"0.006": 4.09004578672,
			"0.007": 5.07068414758,
			"0.008": 2.63538556174,
			"0.009": 1.3596086985,
			"0.01": 1.49755970597,
			"0.011": 0.494163847178,
			"0.012": 0.0,
			"0.013": 0.0,
			"0.014": 0.0,
			"0.015": 0.0,
			"0.016": 0.0,
			"0.017": 0.0,
			"0.018": 0.0,
			"0.019": 0.0,
			"0.02": 0.0,
			"0.021": 0.0,
			"0.022": 0.0,
			"0.023": 0.0,
			"0.024": 0.0,
			"0.025": 0.0
		}
	}
}
