{
	 "smiles": "C1CC2CC1C1OC21", 
	 "Tm": 396.15, 
	 "num_atms": 18, 
	 "gaussian": { 
		 "optdone": 1, 
		 "sigma_profile": "yes", 
		 "theory": "DFT", 
		 "functional": "B3LYP", 
		 "basiset": "6-31G**", 
		 "properties": { 
			 "R2extent": 1257.743, 
			 "electric_dipole_moment_norm": 1.83999009236, 
			 "electric_quadrupole_moment_norm": 7.67804375802, 
			 "total_energy": -347.935563171, 
			 "HOMO_LUMO_gap": 0.34618, 
			 "cosmo_polarized_energy": -4.17, 
			 "cosmo_cavitation_energy": 18.57, 
			 "cosmo_dispersion_energy": -14.86, 
			 "cosmo_repulsion_energy": 1.23, 
			 "cosmo_total_nonelectrostatic_energy": 4.94, 
			 "SMD_solvation_energy": 2.13 
		},
		"coords": [
			{
				"x": 0.2757745642,
				"y": -1.090536953,
				"z": 0.6679145203,
				"element": "C" 
			},
			{
				"x": -0.9507895321,
				"y": -0.50564062,
				"z": -0.1069276544,
				"element": "C" 
			},
			{
				"x": -0.4362508068,
				"y": -0.4173332209,
				"z": -1.5656905618,
				"element": "C" 
			},
			{
				"x": 1.0519178865,
				"y": -0.0323301876,
				"z": -1.3407712452,
				"element": "C" 
			},
			{
				"x": 1.3425100543,
				"y": -1.2656901457,
				"z": -0.4419844161,
				"element": "C" 
			},
			{
				"x": 0.8987766821,
				"y": -2.3970131324,
				"z": -1.3977215334,
				"element": "C" 
			},
			{
				"x": -0.4266103262,
				"y": -2.9173060524,
				"z": -1.1783886351,
				"element": "O" 
			},
			{
				"x": -0.2553969875,
				"y": -1.8465383822,
				"z": -2.1268670738,
				"element": "C" 
			},
			{
				"x": 0.0370347554,
				"y": -2.0355230672,
				"z": 1.1596549152,
				"element": "H" 
			},
			{
				"x": 0.6421138368,
				"y": -0.3924033462,
				"z": 1.4277010706,
				"element": "H" 
			},
			{
				"x": -1.8319835714,
				"y": -1.144354944,
				"z": -0.0212279454,
				"element": "H" 
			},
			{
				"x": -1.2158731747,
				"y": 0.493485269,
				"z": 0.2541051937,
				"element": "H" 
			},
			{
				"x": -1.0183196984,
				"y": 0.2409422173,
				"z": -2.2151840179,
				"element": "H" 
			},
			{
				"x": 1.6374119341,
				"y": -0.0314048504,
				"z": -2.2668641912,
				"element": "H" 
			},
			{
				"x": 1.1898737027,
				"y": 0.9295799913,
				"z": -0.8328998415,
				"element": "H" 
			},
			{
				"x": 2.366693269,
				"y": -1.3734817026,
				"z": -0.0767381815,
				"element": "H" 
			},
			{
				"x": 1.6145931315,
				"y": -3.1031681784,
				"z": -1.813330358,
				"element": "H" 
			},
			{
				"x": -0.5109757196,
				"y": -2.0893826945,
				"z": -3.1561800447,
				"element": "H" 
			}
		],
		 "valence_orbital": [ 
			{
				"type": "occ",
				"energy": -0.32771,
				"method": "rhf"
			},
			{
				"type": "occ",
				"energy": -0.31726,
				"method": "rhf"
			},
			{
				"type": "occ",
				"energy": -0.30416,
				"method": "rhf"
			},
			{
				"type": "occ",
				"energy": -0.27966,
				"method": "rhf"
			},
			{
				"type": "occ",
				"energy": -0.25575,
				"method": "rhf"
			},
			{
				"type": "unocc",
				"energy": 0.09043,
				"method": "rhf"
			},
			{
				"type": "unocc",
				"energy": 0.09394,
				"method": "rhf"
			},
			{
				"type": "unocc",
				"energy": 0.11043,
				"method": "rhf"
			},
			{
				"type": "unocc",
				"energy": 0.11878,
				"method": "rhf"
			},
			{
				"type": "unocc",
				"energy": 0.13435,
				"method": "rhf"
			}
		],
		"cosmo_sigma_profile": { 
			"-0.025": 0.0,
			"-0.024": 0.0,
			"-0.023": 0.0,
			"-0.022": 0.0,
			"-0.021": 0.0,
			"-0.02": 0.0,
			"-0.019": 0.0,
			"-0.018": 0.0,
			"-0.017": 0.0,
			"-0.016": 0.0,
			"-0.015": 0.0,
			"-0.014": 0.0,
			"-0.013": 0.0,
			"-0.012": 0.0,
			"-0.011": 0.0,
			"-0.01": 0.0,
			"-0.009": 0.0,
			"-0.008": 0.0,
			"-0.007": 0.295471941891,
			"-0.006": 3.59604240232,
			"-0.005": 3.51257323619,
			"-0.004": 7.06769591149,
			"-0.003": 15.5354874196,
			"-0.002": 24.6831778402,
			"-0.001": 23.1485125978,
			"0.0": 21.2498726238,
			"0.001": 18.8023808639,
			"0.002": 6.84982744296,
			"0.003": 2.3557009377,
			"0.004": 1.63757127558,
			"0.005": 1.85862467541,
			"0.006": 1.38037016026,
			"0.007": 1.56940470542,
			"0.008": 1.99324074922,
			"0.009": 0.982837873182,
			"0.01": 1.95647352716,
			"0.011": 2.06442909976,
			"0.012": 2.72598463379,
			"0.013": 1.11930898354,
			"0.014": 0.0444414298662,
			"0.015": 0.0,
			"0.016": 0.0,
			"0.017": 0.0,
			"0.018": 0.0,
			"0.019": 0.0,
			"0.02": 0.0,
			"0.021": 0.0,
			"0.022": 0.0,
			"0.023": 0.0,
			"0.024": 0.0,
			"0.025": 0.0
		}
	}
}
