{
	 "smiles": "CN1C(=O)C(C2=NNC(=O)C2=C/NC2=CC=C(Cl)C=C2)=C(O)C2=CC=CC=C12", 
	 "Tm": 563.15, 
	 "num_atms": 43, 
	 "gaussian": { 
		 "optdone": 1, 
		 "sigma_profile": "yes", 
		 "theory": "DFT", 
		 "functional": "B3LYP", 
		 "basiset": "6-31G**", 
		 "properties": { 
			 "R2extent": 16412.106, 
			 "electric_dipole_moment_norm": 7.028245318, 
			 "electric_quadrupole_moment_norm": 18.7173733649, 
			 "total_energy": -1676.04936427, 
			 "HOMO_LUMO_gap": 0.12715, 
			 "cosmo_polarized_energy": -26.53, 
			 "cosmo_cavitation_energy": 49.19, 
			 "cosmo_dispersion_energy": -35.77, 
			 "cosmo_repulsion_energy": 2.63, 
			 "cosmo_total_nonelectrostatic_energy": 16.05, 
			 "SMD_solvation_energy": 8.02 
		},
		"coords": [
			{
				"x": -1.2340785335,
				"y": -3.2054294117,
				"z": -0.4708070361,
				"element": "C" 
			},
			{
				"x": -1.5141725374,
				"y": -1.9091350134,
				"z": -1.0892251144,
				"element": "N" 
			},
			{
				"x": -0.4272770254,
				"y": -1.0211637009,
				"z": -1.2284962455,
				"element": "C" 
			},
			{
				"x": 0.6845488516,
				"y": -1.352428612,
				"z": -0.8048700436,
				"element": "O" 
			},
			{
				"x": -0.6936468851,
				"y": 0.2758964224,
				"z": -1.8497121154,
				"element": "C" 
			},
			{
				"x": 0.4306814752,
				"y": 1.213702677,
				"z": -2.0442214805,
				"element": "C" 
			},
			{
				"x": 0.5035716354,
				"y": 1.9100051754,
				"z": -3.1592708454,
				"element": "N" 
			},
			{
				"x": 1.5983222002,
				"y": 2.7335247997,
				"z": -3.0396887803,
				"element": "N" 
			},
			{
				"x": 2.2687375872,
				"y": 2.6112231784,
				"z": -1.8454394078,
				"element": "C" 
			},
			{
				"x": 3.2741267755,
				"y": 3.2456650426,
				"z": -1.4764923842,
				"element": "O" 
			},
			{
				"x": 1.5142081936,
				"y": 1.5718986371,
				"z": -1.1461144355,
				"element": "C" 
			},
			{
				"x": 1.9025272898,
				"y": 1.1159712162,
				"z": 0.0915222476,
				"element": "C" 
			},
			{
				"x": 2.9645016243,
				"y": 1.6494162483,
				"z": 0.7237289232,
				"element": "N" 
			},
			{
				"x": 3.5211583438,
				"y": 1.2252184306,
				"z": 1.9385228303,
				"element": "C" 
			},
			{
				"x": 3.2260444607,
				"y": -0.0229844584,
				"z": 2.5088166037,
				"element": "C" 
			},
			{
				"x": 3.7959068534,
				"y": -0.3893019514,
				"z": 3.725603089,
				"element": "C" 
			},
			{
				"x": 4.6759985749,
				"y": 0.4799310337,
				"z": 4.369446526,
				"element": "C" 
			},
			{
				"x": 5.3979457131,
				"y": 0.0098174334,
				"z": 5.9015003345,
				"element": "Cl" 
			},
			{
				"x": 4.9960929356,
				"y": 1.7143547827,
				"z": 3.8046126551,
				"element": "C" 
			},
			{
				"x": 4.4167602657,
				"y": 2.0838930495,
				"z": 2.5947814109,
				"element": "C" 
			},
			{
				"x": -1.9761624227,
				"y": 0.6019481283,
				"z": -2.2269409577,
				"element": "C" 
			},
			{
				"x": -2.2357389945,
				"y": 1.8372472859,
				"z": -2.7123947859,
				"element": "O" 
			},
			{
				"x": -3.0602939017,
				"y": -0.3538733797,
				"z": -2.1167011131,
				"element": "C" 
			},
			{
				"x": -4.3577990897,
				"y": -0.0851128557,
				"z": -2.5955917831,
				"element": "C" 
			},
			{
				"x": -5.3854987803,
				"y": -1.0047153329,
				"z": -2.4610745026,
				"element": "C" 
			},
			{
				"x": -5.1243697118,
				"y": -2.234002987,
				"z": -1.8434204682,
				"element": "C" 
			},
			{
				"x": -3.8507174827,
				"y": -2.5406881775,
				"z": -1.3853457766,
				"element": "C" 
			},
			{
				"x": -2.7964682786,
				"y": -1.6145000835,
				"z": -1.5220406302,
				"element": "C" 
			},
			{
				"x": -0.1746902642,
				"y": -3.2209199062,
				"z": -0.2275414092,
				"element": "H" 
			},
			{
				"x": -1.8236668059,
				"y": -3.3333144779,
				"z": 0.4424873608,
				"element": "H" 
			},
			{
				"x": -1.4632172559,
				"y": -4.0204742998,
				"z": -1.1640686338,
				"element": "H" 
			},
			{
				"x": 1.8338924474,
				"y": 3.356951237,
				"z": -3.7956129171,
				"element": "H" 
			},
			{
				"x": 1.3741730436,
				"y": 0.3064838642,
				"z": 0.5774840712,
				"element": "H" 
			},
			{
				"x": 3.4125212639,
				"y": 2.4164340966,
				"z": 0.2020553979,
				"element": "H" 
			},
			{
				"x": 2.5777224706,
				"y": -0.7251095724,
				"z": 1.9959157808,
				"element": "H" 
			},
			{
				"x": 3.5698432103,
				"y": -1.3550373801,
				"z": 4.1638699008,
				"element": "H" 
			},
			{
				"x": 5.6861772691,
				"y": 2.3818702515,
				"z": 4.308384638,
				"element": "H" 
			},
			{
				"x": 4.6516462506,
				"y": 3.0494888193,
				"z": 2.1562690327,
				"element": "H" 
			},
			{
				"x": -3.1853059135,
				"y": 2.0071505828,
				"z": -2.6632007955,
				"element": "H" 
			},
			{
				"x": -4.5637506376,
				"y": 0.8455689267,
				"z": -3.1180942585,
				"element": "H" 
			},
			{
				"x": -6.3759199555,
				"y": -0.777294663,
				"z": -2.8409027082,
				"element": "H" 
			},
			{
				"x": -5.9193793452,
				"y": -2.9645679421,
				"z": -1.7283174347,
				"element": "H" 
			},
			{
				"x": -3.6721549139,
				"y": -3.5028071137,
				"z": -0.9237147394,
				"element": "H" 
			}
		],
		 "valence_orbital": [ 
			{
				"type": "occ",
				"energy": -0.2515,
				"method": "rhf"
			},
			{
				"type": "occ",
				"energy": -0.2411,
				"method": "rhf"
			},
			{
				"type": "occ",
				"energy": -0.23341,
				"method": "rhf"
			},
			{
				"type": "occ",
				"energy": -0.2163,
				"method": "rhf"
			},
			{
				"type": "occ",
				"energy": -0.19226,
				"method": "rhf"
			},
			{
				"type": "unocc",
				"energy": -0.06511,
				"method": "rhf"
			},
			{
				"type": "unocc",
				"energy": -0.05076,
				"method": "rhf"
			},
			{
				"type": "unocc",
				"energy": -0.02023,
				"method": "rhf"
			},
			{
				"type": "unocc",
				"energy": -0.01796,
				"method": "rhf"
			},
			{
				"type": "unocc",
				"energy": 0.0088,
				"method": "rhf"
			}
		],
		"cosmo_sigma_profile": { 
			"-0.025": 0.0,
			"-0.024": 0.0,
			"-0.023": 0.0,
			"-0.022": 0.0,
			"-0.021": 0.0,
			"-0.02": 0.0,
			"-0.019": 0.398288569453,
			"-0.018": 0.640119310223,
			"-0.017": 1.13828497407,
			"-0.016": 1.28079039522,
			"-0.015": 2.0890267402,
			"-0.014": 1.61512329598,
			"-0.013": 2.29392116925,
			"-0.012": 2.2497298347,
			"-0.011": 2.10059212585,
			"-0.01": 2.33457876891,
			"-0.009": 3.45033294314,
			"-0.008": 6.30198482324,
			"-0.007": 14.6884884073,
			"-0.006": 23.974757505,
			"-0.005": 22.6108375563,
			"-0.004": 21.8715789623,
			"-0.003": 21.1590374513,
			"-0.002": 23.3005654913,
			"-0.001": 28.079393925,
			"0.0": 29.5286018158,
			"0.001": 30.7621033364,
			"0.002": 38.3926667689,
			"0.003": 32.7152445056,
			"0.004": 23.4447850135,
			"0.005": 13.1763059701,
			"0.006": 5.324276344,
			"0.007": 3.90618213937,
			"0.008": 5.86978284095,
			"0.009": 4.40779814047,
			"0.01": 4.79455174913,
			"0.011": 4.60851824156,
			"0.012": 5.08979908827,
			"0.013": 5.94163054704,
			"0.014": 4.51133143587,
			"0.015": 2.36977299042,
			"0.016": 1.36745619801,
			"0.017": 0.420813674734,
			"0.018": 0.0,
			"0.019": 0.0,
			"0.02": 0.0,
			"0.021": 0.0,
			"0.022": 0.0,
			"0.023": 0.0,
			"0.024": 0.0,
			"0.025": 0.0
		}
	}
}
