{
	 "smiles": "CN1C(S)=NC2=C(C(C)=CC(C)=N2)C1=O", 
	 "Tm": 508.15, 
	 "num_atms": 26, 
	 "gaussian": { 
		 "optdone": 1, 
		 "sigma_profile": "yes", 
		 "theory": "DFT", 
		 "functional": "B3LYP", 
		 "basiset": "6-31G**", 
		 "properties": { 
			 "R2extent": 4176.1535, 
			 "electric_dipole_moment_norm": 0.55964478913, 
			 "electric_quadrupole_moment_norm": 14.7984614765, 
			 "total_energy": -1025.39577078, 
			 "HOMO_LUMO_gap": 0.1814, 
			 "cosmo_polarized_energy": -12.74, 
			 "cosmo_cavitation_energy": 30.77, 
			 "cosmo_dispersion_energy": -23.47, 
			 "cosmo_repulsion_energy": 1.76, 
			 "cosmo_total_nonelectrostatic_energy": 9.06, 
			 "SMD_solvation_energy": 2.58 
		},
		"coords": [
			{
				"x": -2.7177253165,
				"y": -2.1952758534,
				"z": 1.9575926964,
				"element": "C" 
			},
			{
				"x": -1.9421793733,
				"y": -1.0779327017,
				"z": 1.4093684161,
				"element": "N" 
			},
			{
				"x": -2.548738382,
				"y": 0.0698944095,
				"z": 0.9531443973,
				"element": "C" 
			},
			{
				"x": -4.3335362214,
				"y": 0.1090049844,
				"z": 1.0722000025,
				"element": "S" 
			},
			{
				"x": -1.9417514069,
				"y": 1.095750208,
				"z": 0.4577000737,
				"element": "N" 
			},
			{
				"x": -0.5643452808,
				"y": 1.0581044521,
				"z": 0.3690613345,
				"element": "C" 
			},
			{
				"x": 0.1809329074,
				"y": -0.0667362424,
				"z": 0.8047352005,
				"element": "C" 
			},
			{
				"x": 1.5964178694,
				"y": -0.0344116775,
				"z": 0.6826353194,
				"element": "C" 
			},
			{
				"x": 2.4934315335,
				"y": -1.1667042406,
				"z": 1.1101188077,
				"element": "C" 
			},
			{
				"x": 2.1466916924,
				"y": 1.1167548198,
				"z": 0.1365219431,
				"element": "C" 
			},
			{
				"x": 1.3265969603,
				"y": 2.1887018294,
				"z": -0.2702776549,
				"element": "C" 
			},
			{
				"x": 1.9377260647,
				"y": 3.434098293,
				"z": -0.8621314277,
				"element": "C" 
			},
			{
				"x": 0.0010750335,
				"y": 2.1620398751,
				"z": -0.1574457814,
				"element": "N" 
			},
			{
				"x": -0.5262587693,
				"y": -1.2189090274,
				"z": 1.3629514665,
				"element": "C" 
			},
			{
				"x": -0.0064775187,
				"y": -2.2507585532,
				"z": 1.7751370701,
				"element": "O" 
			},
			{
				"x": -3.4062977664,
				"y": -2.5880348489,
				"z": 1.2043384532,
				"element": "H" 
			},
			{
				"x": -2.0043273953,
				"y": -2.9663263626,
				"z": 2.2411080578,
				"element": "H" 
			},
			{
				"x": -3.282354,
				"y": -1.8730184884,
				"z": 2.8368633163,
				"element": "H" 
			},
			{
				"x": -4.3941942095,
				"y": 1.341796595,
				"z": 0.5369015976,
				"element": "H" 
			},
			{
				"x": 2.2454715504,
				"y": -2.090361479,
				"z": 0.5806686456,
				"element": "H" 
			},
			{
				"x": 2.3670754324,
				"y": -1.3932001164,
				"z": 2.1720501106,
				"element": "H" 
			},
			{
				"x": 3.5391134012,
				"y": -0.9119655473,
				"z": 0.9186565832,
				"element": "H" 
			},
			{
				"x": 3.2239195092,
				"y": 1.1948299519,
				"z": 0.0201318369,
				"element": "H" 
			},
			{
				"x": 2.5090687102,
				"y": 3.1985882079,
				"z": -1.7673701384,
				"element": "H" 
			},
			{
				"x": 1.151413087,
				"y": 4.1466128198,
				"z": -1.1139427907,
				"element": "H" 
			},
			{
				"x": 2.6321518887,
				"y": 3.9038586928,
				"z": -0.1561175359,
				"element": "H" 
			}
		],
		 "valence_orbital": [ 
			{
				"type": "occ",
				"energy": -0.28037,
				"method": "rhf"
			},
			{
				"type": "occ",
				"energy": -0.2734,
				"method": "rhf"
			},
			{
				"type": "occ",
				"energy": -0.27308,
				"method": "rhf"
			},
			{
				"type": "occ",
				"energy": -0.25082,
				"method": "rhf"
			},
			{
				"type": "occ",
				"energy": -0.22911,
				"method": "rhf"
			},
			{
				"type": "unocc",
				"energy": -0.04771,
				"method": "rhf"
			},
			{
				"type": "unocc",
				"energy": -0.03969,
				"method": "rhf"
			},
			{
				"type": "unocc",
				"energy": 0.00203,
				"method": "rhf"
			},
			{
				"type": "unocc",
				"energy": 0.01931,
				"method": "rhf"
			},
			{
				"type": "unocc",
				"energy": 0.06099,
				"method": "rhf"
			}
		],
		"cosmo_sigma_profile": { 
			"-0.025": 0.0,
			"-0.024": 0.0,
			"-0.023": 0.0,
			"-0.022": 0.0,
			"-0.021": 0.0,
			"-0.02": 0.0,
			"-0.019": 0.0,
			"-0.018": 0.0,
			"-0.017": 0.0,
			"-0.016": 0.0,
			"-0.015": 0.0,
			"-0.014": 0.0,
			"-0.013": 0.00711999471239,
			"-0.012": 0.849611123785,
			"-0.011": 1.36692734982,
			"-0.01": 1.312698976,
			"-0.009": 0.918213853173,
			"-0.008": 1.26895605233,
			"-0.007": 3.33402437001,
			"-0.006": 10.0489530616,
			"-0.005": 16.3908217266,
			"-0.004": 26.2475424754,
			"-0.003": 25.7888091724,
			"-0.002": 21.0274389179,
			"-0.001": 25.2337302298,
			"0.0": 26.9482193056,
			"0.001": 18.8954943564,
			"0.002": 13.0021115433,
			"0.003": 8.56480561151,
			"0.004": 7.19369962815,
			"0.005": 5.143286061,
			"0.006": 5.82556161682,
			"0.007": 2.88284564392,
			"0.008": 3.59905718351,
			"0.009": 3.48393138125,
			"0.01": 3.44909475904,
			"0.011": 3.30651953604,
			"0.012": 3.97919723621,
			"0.013": 1.72221998972,
			"0.014": 1.05897992426,
			"0.015": 1.3615724852,
			"0.016": 1.69510734849,
			"0.017": 1.12303094148,
			"0.018": 0.483129999385,
			"0.019": 0.0,
			"0.02": 0.0,
			"0.021": 0.0,
			"0.022": 0.0,
			"0.023": 0.0,
			"0.024": 0.0,
			"0.025": 0.0
		}
	}
}
