{
	 "smiles": "CC1=C(CC2=CC(Br)=CC=C2)SC(N)=N1", 
	 "Tm": 360.15, 
	 "num_atms": 26, 
	 "gaussian": { 
		 "optdone": 1, 
		 "sigma_profile": "yes", 
		 "theory": "DFT", 
		 "functional": "B3LYP", 
		 "basiset": "6-31G**", 
		 "properties": { 
			 "R2extent": 9258.7334, 
			 "electric_dipole_moment_norm": 2.38954646324, 
			 "electric_quadrupole_moment_norm": 14.9740316181, 
			 "total_energy": -3504.90309105, 
			 "HOMO_LUMO_gap": 0.19129, 
			 "cosmo_polarized_energy": -12.04, 
			 "cosmo_cavitation_energy": 34.07, 
			 "cosmo_dispersion_energy": -25.04, 
			 "cosmo_repulsion_energy": 1.96, 
			 "cosmo_total_nonelectrostatic_energy": 10.98, 
			 "SMD_solvation_energy": 2.52 
		},
		"coords": [
			{
				"x": -0.3482932851,
				"y": -2.4066491617,
				"z": -0.7334045219,
				"element": "C" 
			},
			{
				"x": 0.3067487136,
				"y": -1.3108389057,
				"z": 0.0583201544,
				"element": "C" 
			},
			{
				"x": -0.2943454988,
				"y": -0.1866658853,
				"z": 0.5561557832,
				"element": "C" 
			},
			{
				"x": -1.7250771988,
				"y": 0.2662437776,
				"z": 0.4884794532,
				"element": "C" 
			},
			{
				"x": -1.9669724904,
				"y": 1.5618066104,
				"z": -0.2782776583,
				"element": "C" 
			},
			{
				"x": -2.8405976301,
				"y": 2.5252503115,
				"z": 0.2384396609,
				"element": "C" 
			},
			{
				"x": -3.0934756872,
				"y": 3.6910924326,
				"z": -0.48258224,
				"element": "C" 
			},
			{
				"x": -4.2903682849,
				"y": 4.9963104375,
				"z": 0.2457370422,
				"element": "Br" 
			},
			{
				"x": -2.4930976363,
				"y": 3.9288566656,
				"z": -1.7157891713,
				"element": "C" 
			},
			{
				"x": -1.6190259343,
				"y": 2.9664196018,
				"z": -2.2265384918,
				"element": "C" 
			},
			{
				"x": -1.3562087089,
				"y": 1.7959429489,
				"z": -1.5171394449,
				"element": "C" 
			},
			{
				"x": 0.9108979105,
				"y": 0.7826480098,
				"z": 1.4146251149,
				"element": "S" 
			},
			{
				"x": 2.1084416914,
				"y": -0.4554524877,
				"z": 1.0291577755,
				"element": "C" 
			},
			{
				"x": 3.4303062456,
				"y": -0.2987632121,
				"z": 1.3834897691,
				"element": "N" 
			},
			{
				"x": 1.659182515,
				"y": -1.4577544175,
				"z": 0.3345101751,
				"element": "N" 
			},
			{
				"x": -1.4043807856,
				"y": -2.2090807959,
				"z": -0.9275902808,
				"element": "H" 
			},
			{
				"x": -0.268914329,
				"y": -3.3609490851,
				"z": -0.2010698301,
				"element": "H" 
			},
			{
				"x": 0.1600801128,
				"y": -2.534130445,
				"z": -1.6951796868,
				"element": "H" 
			},
			{
				"x": -2.3077826432,
				"y": -0.5354064963,
				"z": 0.0188605177,
				"element": "H" 
			},
			{
				"x": -2.1359284597,
				"y": 0.3756630604,
				"z": 1.5001990168,
				"element": "H" 
			},
			{
				"x": -3.3220262289,
				"y": 2.3692167219,
				"z": 1.1983406231,
				"element": "H" 
			},
			{
				"x": -2.6996088674,
				"y": 4.8428980111,
				"z": -2.2604084083,
				"element": "H" 
			},
			{
				"x": -1.1394158357,
				"y": 3.1382320056,
				"z": -3.185883747,
				"element": "H" 
			},
			{
				"x": -0.665181549,
				"y": 1.0596930417,
				"z": -1.9167377052,
				"element": "H" 
			},
			{
				"x": 3.9670547212,
				"y": -1.1495783433,
				"z": 1.2738582732,
				"element": "H" 
			},
			{
				"x": 3.616389143,
				"y": 0.1944955991,
				"z": 2.2450278272,
				"element": "H" 
			}
		],
		 "valence_orbital": [ 
			{
				"type": "occ",
				"energy": -0.26904,
				"method": "rhf"
			},
			{
				"type": "occ",
				"energy": -0.26645,
				"method": "rhf"
			},
			{
				"type": "occ",
				"energy": -0.25406,
				"method": "rhf"
			},
			{
				"type": "occ",
				"energy": -0.23767,
				"method": "rhf"
			},
			{
				"type": "occ",
				"energy": -0.20454,
				"method": "rhf"
			},
			{
				"type": "unocc",
				"energy": -0.01325,
				"method": "rhf"
			},
			{
				"type": "unocc",
				"energy": -0.011,
				"method": "rhf"
			},
			{
				"type": "unocc",
				"energy": -0.00251,
				"method": "rhf"
			},
			{
				"type": "unocc",
				"energy": 0.01208,
				"method": "rhf"
			},
			{
				"type": "unocc",
				"energy": 0.01452,
				"method": "rhf"
			}
		],
		"cosmo_sigma_profile": { 
			"-0.025": 0.0,
			"-0.024": 0.0,
			"-0.023": 0.0,
			"-0.022": 0.0,
			"-0.021": 0.0,
			"-0.02": 0.0,
			"-0.019": 0.0,
			"-0.018": 0.0,
			"-0.017": 0.0,
			"-0.016": 0.0,
			"-0.015": 0.162618801962,
			"-0.014": 1.60089757617,
			"-0.013": 2.51226617806,
			"-0.012": 2.13334568536,
			"-0.011": 2.87431873949,
			"-0.01": 2.77595136206,
			"-0.009": 2.47332096137,
			"-0.008": 1.20529462322,
			"-0.007": 4.72917244182,
			"-0.006": 11.3658441178,
			"-0.005": 14.6089906258,
			"-0.004": 17.6943008554,
			"-0.003": 18.0000942882,
			"-0.002": 20.217125087,
			"-0.001": 19.7102436396,
			"0.0": 21.2992078879,
			"0.001": 16.6648393668,
			"0.002": 23.5192181181,
			"0.003": 26.9879180792,
			"0.004": 30.1616665637,
			"0.005": 17.8391111131,
			"0.006": 3.66148236102,
			"0.007": 2.51662684385,
			"0.008": 2.31213353115,
			"0.009": 1.36022166974,
			"0.01": 2.01868403572,
			"0.011": 1.51367056479,
			"0.012": 1.83158783536,
			"0.013": 0.968284163624,
			"0.014": 0.956884954053,
			"0.015": 0.436706255314,
			"0.016": 0.692466249588,
			"0.017": 0.0104664216357,
			"0.018": 0.0,
			"0.019": 0.0,
			"0.02": 0.0,
			"0.021": 0.0,
			"0.022": 0.0,
			"0.023": 0.0,
			"0.024": 0.0,
			"0.025": 0.0
		}
	}
}
