{
	 "smiles": "CC1CC(C)(C)CC1=O", 
	 "Tm": 247.55, 
	 "num_atms": 23, 
	 "gaussian": { 
		 "optdone": 1, 
		 "sigma_profile": "yes", 
		 "theory": "DFT", 
		 "functional": "B3LYP", 
		 "basiset": "6-31G**", 
		 "properties": { 
			 "R2extent": 1477.2812, 
			 "electric_dipole_moment_norm": 2.81779580169, 
			 "electric_quadrupole_moment_norm": 4.22652646389, 
			 "total_energy": -388.530057625, 
			 "HOMO_LUMO_gap": 0.21975, 
			 "cosmo_polarized_energy": -6.59, 
			 "cosmo_cavitation_energy": 23.98, 
			 "cosmo_dispersion_energy": -17.18, 
			 "cosmo_repulsion_energy": 1.41, 
			 "cosmo_total_nonelectrostatic_energy": 8.21, 
			 "SMD_solvation_energy": 4.7 
		},
		"coords": [
			{
				"x": 1.4990363945,
				"y": -1.6712995176,
				"z": 1.4110473613,
				"element": "C" 
			},
			{
				"x": 0.1782786861,
				"y": -1.0180343228,
				"z": 1.0016382995,
				"element": "C" 
			},
			{
				"x": -0.38830552,
				"y": 0.0585850062,
				"z": 1.9435850839,
				"element": "C" 
			},
			{
				"x": -1.2889388844,
				"y": 0.9755034933,
				"z": 1.0624510838,
				"element": "C" 
			},
			{
				"x": -2.6724302946,
				"y": 0.330170337,
				"z": 0.8469325796,
				"element": "C" 
			},
			{
				"x": -1.4659393882,
				"y": 2.3654729285,
				"z": 1.6872823123,
				"element": "C" 
			},
			{
				"x": -0.5058220838,
				"y": 1.019327358,
				"z": -0.2719293073,
				"element": "C" 
			},
			{
				"x": 0.2602946029,
				"y": -0.3025532929,
				"z": -0.356998513,
				"element": "C" 
			},
			{
				"x": 0.8561238528,
				"y": -0.7155517986,
				"z": -1.3289217248,
				"element": "O" 
			},
			{
				"x": 2.2666404766,
				"y": -0.9138104547,
				"z": 1.6047624579,
				"element": "H" 
			},
			{
				"x": 1.8624108626,
				"y": -2.3186661839,
				"z": 0.6082886849,
				"element": "H" 
			},
			{
				"x": 1.381167553,
				"y": -2.2714805965,
				"z": 2.3186037212,
				"element": "H" 
			},
			{
				"x": -0.5724312844,
				"y": -1.8115363831,
				"z": 0.8647223851,
				"element": "H" 
			},
			{
				"x": 0.4410581396,
				"y": 0.6521156399,
				"z": 2.3522922132,
				"element": "H" 
			},
			{
				"x": -0.9347939023,
				"y": -0.3585811935,
				"z": 2.7961605284,
				"element": "H" 
			},
			{
				"x": -2.6007255009,
				"y": -0.6609971722,
				"z": 0.3861659312,
				"element": "H" 
			},
			{
				"x": -3.2025456658,
				"y": 0.2166125587,
				"z": 1.7991265372,
				"element": "H" 
			},
			{
				"x": -3.29210535,
				"y": 0.9514241319,
				"z": 0.1907742304,
				"element": "H" 
			},
			{
				"x": -0.4987493326,
				"y": 2.8561215712,
				"z": 1.8440331005,
				"element": "H" 
			},
			{
				"x": -2.0722524306,
				"y": 3.0156182478,
				"z": 1.0463483398,
				"element": "H" 
			},
			{
				"x": -1.9680870493,
				"y": 2.2974805765,
				"z": 2.6593557777,
				"element": "H" 
			},
			{
				"x": 0.2461338335,
				"y": 1.8213413004,
				"z": -0.2572203373,
				"element": "H" 
			},
			{
				"x": -1.1212177147,
				"y": 1.1802377663,
				"z": -1.1626007454,
				"element": "H" 
			}
		],
		 "valence_orbital": [ 
			{
				"type": "occ",
				"energy": -0.33788,
				"method": "rhf"
			},
			{
				"type": "occ",
				"energy": -0.32566,
				"method": "rhf"
			},
			{
				"type": "occ",
				"energy": -0.32205,
				"method": "rhf"
			},
			{
				"type": "occ",
				"energy": -0.31396,
				"method": "rhf"
			},
			{
				"type": "occ",
				"energy": -0.234,
				"method": "rhf"
			},
			{
				"type": "unocc",
				"energy": -0.01425,
				"method": "rhf"
			},
			{
				"type": "unocc",
				"energy": 0.07064,
				"method": "rhf"
			},
			{
				"type": "unocc",
				"energy": 0.11039,
				"method": "rhf"
			},
			{
				"type": "unocc",
				"energy": 0.11521,
				"method": "rhf"
			},
			{
				"type": "unocc",
				"energy": 0.13107,
				"method": "rhf"
			}
		],
		"cosmo_sigma_profile": { 
			"-0.025": 0.0,
			"-0.024": 0.0,
			"-0.023": 0.0,
			"-0.022": 0.0,
			"-0.021": 0.0,
			"-0.02": 0.0,
			"-0.019": 0.0,
			"-0.018": 0.0,
			"-0.017": 0.0,
			"-0.016": 0.0,
			"-0.015": 0.0,
			"-0.014": 0.0,
			"-0.013": 0.0,
			"-0.012": 0.0,
			"-0.011": 0.0,
			"-0.01": 0.0,
			"-0.009": 0.0,
			"-0.008": 0.0,
			"-0.007": 0.0,
			"-0.006": 1.47089238244,
			"-0.005": 8.30415177996,
			"-0.004": 10.6710084151,
			"-0.003": 25.1699906346,
			"-0.002": 33.5269935268,
			"-0.001": 26.7481687028,
			"0.0": 22.4186713756,
			"0.001": 24.1345084243,
			"0.002": 7.93151004008,
			"0.003": 1.89512140811,
			"0.004": 1.50307888773,
			"0.005": 1.21037474673,
			"0.006": 2.0764172241,
			"0.007": 1.79564850883,
			"0.008": 1.6112049881,
			"0.009": 1.75237575515,
			"0.01": 1.62066026637,
			"0.011": 3.13625648519,
			"0.012": 4.6678746515,
			"0.013": 2.97635900301,
			"0.014": 0.408485623446,
			"0.015": 0.0,
			"0.016": 0.0,
			"0.017": 0.0,
			"0.018": 0.0,
			"0.019": 0.0,
			"0.02": 0.0,
			"0.021": 0.0,
			"0.022": 0.0,
			"0.023": 0.0,
			"0.024": 0.0,
			"0.025": 0.0
		}
	}
}
