{
	 "smiles": "CC(CC1=CC(=O)C2=C(O1)C1=C(C=CC=C1)C1=C2C2OC(=O)CC2O1)O[Si](C)(C)C(C)(C)C", 
	 "Tm": 461.15, 
	 "num_atms": 63, 
	 "gaussian": { 
		 "optdone": 1, 
		 "sigma_profile": "yes", 
		 "theory": "DFT", 
		 "functional": "B3LYP", 
		 "basiset": "6-31G**", 
		 "properties": { 
			 "R2extent": 20859.7896, 
			 "electric_dipole_moment_norm": 7.16218623257, 
			 "electric_quadrupole_moment_norm": 50.7779976562, 
			 "total_energy": -1749.78645343, 
			 "HOMO_LUMO_gap": 0.15366, 
			 "cosmo_polarized_energy": -23.7, 
			 "cosmo_cavitation_energy": 65.83, 
			 "cosmo_dispersion_energy": -40.34, 
			 "cosmo_repulsion_energy": 3.05, 
			 "cosmo_total_nonelectrostatic_energy": 28.54, 
			 "SMD_solvation_energy": 12.68 
		},
		"coords": [
			{
				"x": -1.4091789797,
				"y": 1.2222510591,
				"z": 3.1304604333,
				"element": "C" 
			},
			{
				"x": -0.639885534,
				"y": 2.2628052744,
				"z": 2.3173709459,
				"element": "C" 
			},
			{
				"x": 0.865234778,
				"y": 1.9362601726,
				"z": 2.1376421147,
				"element": "C" 
			},
			{
				"x": 1.1626108458,
				"y": 0.6800258788,
				"z": 1.3746325116,
				"element": "C" 
			},
			{
				"x": 1.4594699484,
				"y": 0.6040669953,
				"z": 0.0571151576,
				"element": "C" 
			},
			{
				"x": 1.7137581351,
				"y": -0.665189826,
				"z": -0.6114181761,
				"element": "C" 
			},
			{
				"x": 1.9234056029,
				"y": -0.7681533011,
				"z": -1.8218925084,
				"element": "O" 
			},
			{
				"x": 1.6813782396,
				"y": -1.8348431938,
				"z": 0.2952019628,
				"element": "C" 
			},
			{
				"x": 1.3538907592,
				"y": -1.6674991526,
				"z": 1.6344057947,
				"element": "C" 
			},
			{
				"x": 1.098924526,
				"y": -0.4290922444,
				"z": 2.164763558,
				"element": "O" 
			},
			{
				"x": 1.2594645708,
				"y": -2.7628327577,
				"z": 2.5545096834,
				"element": "C" 
			},
			{
				"x": 1.4987706183,
				"y": -4.0891077867,
				"z": 2.0725780578,
				"element": "C" 
			},
			{
				"x": 1.400437222,
				"y": -5.187928593,
				"z": 2.9572900892,
				"element": "C" 
			},
			{
				"x": 1.0761668593,
				"y": -4.9837181827,
				"z": 4.2825857963,
				"element": "C" 
			},
			{
				"x": 0.8394855917,
				"y": -3.6767960521,
				"z": 4.7642508729,
				"element": "C" 
			},
			{
				"x": 0.9278952936,
				"y": -2.5879685698,
				"z": 3.9206791536,
				"element": "C" 
			},
			{
				"x": 1.8393871134,
				"y": -4.2237021805,
				"z": 0.6979284293,
				"element": "C" 
			},
			{
				"x": 1.9350752349,
				"y": -3.1564119405,
				"z": -0.1563174731,
				"element": "C" 
			},
			{
				"x": 2.4079401048,
				"y": -3.6730403912,
				"z": -1.4845377144,
				"element": "C" 
			},
			{
				"x": 3.8340303122,
				"y": -3.4455368169,
				"z": -1.6541997254,
				"element": "O" 
			},
			{
				"x": 4.5261530854,
				"y": -4.6082246851,
				"z": -1.8039933106,
				"element": "C" 
			},
			{
				"x": 5.7213204986,
				"y": -4.6422147445,
				"z": -1.9331565795,
				"element": "O" 
			},
			{
				"x": 3.5540773795,
				"y": -5.7882649195,
				"z": -1.8109420022,
				"element": "C" 
			},
			{
				"x": 2.2465297348,
				"y": -5.2071642145,
				"z": -1.309023397,
				"element": "C" 
			},
			{
				"x": 2.0963561171,
				"y": -5.4340747429,
				"z": 0.1219691715,
				"element": "O" 
			},
			{
				"x": -1.2372893102,
				"y": 2.3987338642,
				"z": 1.035155711,
				"element": "O" 
			},
			{
				"x": -2.0538239684,
				"y": 3.7527585413,
				"z": 0.4525505148,
				"element": "Si" 
			},
			{
				"x": -3.4617911301,
				"y": 4.2100066716,
				"z": 1.6301737563,
				"element": "C" 
			},
			{
				"x": -0.8608935524,
				"y": 5.2170701015,
				"z": 0.3470148208,
				"element": "C" 
			},
			{
				"x": -2.6971176207,
				"y": 3.222436364,
				"z": -1.2647847347,
				"element": "C" 
			},
			{
				"x": -3.6362537718,
				"y": 2.0055546845,
				"z": -1.1161278579,
				"element": "C" 
			},
			{
				"x": -1.5112308122,
				"y": 2.8306115054,
				"z": -2.1731539154,
				"element": "C" 
			},
			{
				"x": -3.4733856509,
				"y": 4.3878625307,
				"z": -1.9167838056,
				"element": "C" 
			},
			{
				"x": -0.9529819761,
				"y": 1.0743540886,
				"z": 4.1151525959,
				"element": "H" 
			},
			{
				"x": -2.4409292252,
				"y": 1.5544982479,
				"z": 3.2755320659,
				"element": "H" 
			},
			{
				"x": -1.4303480857,
				"y": 0.2621221148,
				"z": 2.6092738462,
				"element": "H" 
			},
			{
				"x": -0.6716873645,
				"y": 3.2195289918,
				"z": 2.8627614523,
				"element": "H" 
			},
			{
				"x": 1.3310494797,
				"y": 1.8678131621,
				"z": 3.1277586073,
				"element": "H" 
			},
			{
				"x": 1.3284269079,
				"y": 2.7732022648,
				"z": 1.6082552003,
				"element": "H" 
			},
			{
				"x": 1.4927119364,
				"y": 1.5083027658,
				"z": -0.5378652268,
				"element": "H" 
			},
			{
				"x": 1.5865146582,
				"y": -6.1847511823,
				"z": 2.5722432509,
				"element": "H" 
			},
			{
				"x": 1.0021162443,
				"y": -5.8290517342,
				"z": 4.9600306238,
				"element": "H" 
			},
			{
				"x": 0.5856447025,
				"y": -3.5280576549,
				"z": 5.809613669,
				"element": "H" 
			},
			{
				"x": 0.7460194231,
				"y": -1.5863763149,
				"z": 4.292515173,
				"element": "H" 
			},
			{
				"x": 1.9022768045,
				"y": -3.2444587529,
				"z": -2.348277024,
				"element": "H" 
			},
			{
				"x": 3.4655757137,
				"y": -6.1538983205,
				"z": -2.839770705,
				"element": "H" 
			},
			{
				"x": 3.9278420589,
				"y": -6.6063985947,
				"z": -1.1934126916,
				"element": "H" 
			},
			{
				"x": 1.3518815777,
				"y": -5.6020750767,
				"z": -1.798032163,
				"element": "H" 
			},
			{
				"x": -3.0817023429,
				"y": 4.4440251086,
				"z": 2.6313255335,
				"element": "H" 
			},
			{
				"x": -4.1870941128,
				"y": 3.3966157058,
				"z": 1.7333047003,
				"element": "H" 
			},
			{
				"x": -4.0009367677,
				"y": 5.0959502734,
				"z": 1.2766352969,
				"element": "H" 
			},
			{
				"x": -0.0213962855,
				"y": 5.0105531217,
				"z": -0.3245289974,
				"element": "H" 
			},
			{
				"x": -0.4457474089,
				"y": 5.46193115,
				"z": 1.331636239,
				"element": "H" 
			},
			{
				"x": -1.3676876678,
				"y": 6.1166945563,
				"z": -0.0196500629,
				"element": "H" 
			},
			{
				"x": -4.5186652697,
				"y": 2.2395908632,
				"z": -0.5094454911,
				"element": "H" 
			},
			{
				"x": -3.1234839559,
				"y": 1.1573126071,
				"z": -0.6519326325,
				"element": "H" 
			},
			{
				"x": -3.9962642796,
				"y": 1.6803812364,
				"z": -2.1017721971,
				"element": "H" 
			},
			{
				"x": -0.8234293905,
				"y": 3.6685909715,
				"z": -2.3350541919,
				"element": "H" 
			},
			{
				"x": -0.937434391,
				"y": 1.9991087921,
				"z": -1.7525386299,
				"element": "H" 
			},
			{
				"x": -1.8761269441,
				"y": 2.516209714,
				"z": -3.1604080427,
				"element": "H" 
			},
			{
				"x": -2.8427422758,
				"y": 5.2722723481,
				"z": -2.064050262,
				"element": "H" 
			},
			{
				"x": -3.8469859281,
				"y": 4.0889167465,
				"z": -2.9054120267,
				"element": "H" 
			},
			{
				"x": -4.3423280762,
				"y": 4.6906134523,
				"z": -1.3209352448,
				"element": "H" 
			}
		],
		 "valence_orbital": [ 
			{
				"type": "occ",
				"energy": -0.26442,
				"method": "rhf"
			},
			{
				"type": "occ",
				"energy": -0.25855,
				"method": "rhf"
			},
			{
				"type": "occ",
				"energy": -0.25112,
				"method": "rhf"
			},
			{
				"type": "occ",
				"energy": -0.23733,
				"method": "rhf"
			},
			{
				"type": "occ",
				"energy": -0.21132,
				"method": "rhf"
			},
			{
				"type": "unocc",
				"energy": -0.05766,
				"method": "rhf"
			},
			{
				"type": "unocc",
				"energy": -0.0496,
				"method": "rhf"
			},
			{
				"type": "unocc",
				"energy": -0.01726,
				"method": "rhf"
			},
			{
				"type": "unocc",
				"energy": 0.01521,
				"method": "rhf"
			},
			{
				"type": "unocc",
				"energy": 0.02285,
				"method": "rhf"
			}
		],
		"cosmo_sigma_profile": { 
			"-0.025": 0.0,
			"-0.024": 0.0,
			"-0.023": 0.0,
			"-0.022": 0.0,
			"-0.021": 0.0,
			"-0.02": 0.0,
			"-0.019": 0.0,
			"-0.018": 0.0,
			"-0.017": 0.0,
			"-0.016": 0.0,
			"-0.015": 0.0,
			"-0.014": 0.0,
			"-0.013": 0.0,
			"-0.012": 0.0,
			"-0.011": 0.0,
			"-0.01": 0.0187080706583,
			"-0.009": 2.76682669024,
			"-0.008": 10.4713556762,
			"-0.007": 11.3056700463,
			"-0.006": 16.9011600931,
			"-0.005": 24.6051989891,
			"-0.004": 32.1413756177,
			"-0.003": 39.9843298326,
			"-0.002": 53.215653972,
			"-0.001": 58.7471417426,
			"0.0": 62.6131470152,
			"0.001": 62.0828337181,
			"0.002": 43.083118322,
			"0.003": 20.9801585755,
			"0.004": 10.909853326,
			"0.005": 7.55277064482,
			"0.006": 7.40399225236,
			"0.007": 7.26096315013,
			"0.008": 5.27829900049,
			"0.009": 7.92838677485,
			"0.01": 6.80647829613,
			"0.011": 6.89189745109,
			"0.012": 7.58309889553,
			"0.013": 4.02141955272,
			"0.014": 2.08029617437,
			"0.015": 0.914544219227,
			"0.016": 0.0,
			"0.017": 0.0,
			"0.018": 0.0,
			"0.019": 0.0,
			"0.02": 0.0,
			"0.021": 0.0,
			"0.022": 0.0,
			"0.023": 0.0,
			"0.024": 0.0,
			"0.025": 0.0
		}
	}
}
