{
	 "smiles": "BrC1=CC(=CC=C1)C1NC(=O)NC1=O", 
	 "Tm": 459.15, 
	 "num_atms": 21, 
	 "gaussian": { 
		 "optdone": 1, 
		 "sigma_profile": "yes", 
		 "theory": "DFT", 
		 "functional": "B3LYP", 
		 "basiset": "6-31G**", 
		 "properties": { 
			 "R2extent": 4976.8212, 
			 "electric_dipole_moment_norm": 2.08842531348, 
			 "electric_quadrupole_moment_norm": 13.8239700524, 
			 "total_energy": -3178.56840384, 
			 "HOMO_LUMO_gap": 0.21616, 
			 "cosmo_polarized_energy": -17.78, 
			 "cosmo_cavitation_energy": 28.56, 
			 "cosmo_dispersion_energy": -21.06, 
			 "cosmo_repulsion_energy": 1.68, 
			 "cosmo_total_nonelectrostatic_energy": 9.18, 
			 "SMD_solvation_energy": 5.13 
		},
		"coords": [
			{
				"x": 2.0746434155,
				"y": -3.4564821024,
				"z": 1.4335602296,
				"element": "Br" 
			},
			{
				"x": 0.7246417491,
				"y": -2.1858737384,
				"z": 0.96938976,
				"element": "C" 
			},
			{
				"x": 0.9807774956,
				"y": -1.2589603932,
				"z": -0.0368002981,
				"element": "C" 
			},
			{
				"x": -0.0075410893,
				"y": -0.3298926,
				"z": -0.3833022613,
				"element": "C" 
			},
			{
				"x": -1.2346453482,
				"y": -0.3407794011,
				"z": 0.2855924969,
				"element": "C" 
			},
			{
				"x": -1.4745855354,
				"y": -1.2807879349,
				"z": 1.2890376211,
				"element": "C" 
			},
			{
				"x": -0.4977242493,
				"y": -2.2122484719,
				"z": 1.6400843925,
				"element": "C" 
			},
			{
				"x": 0.3057786498,
				"y": 0.6941209994,
				"z": -1.4620609764,
				"element": "C" 
			},
			{
				"x": -0.8420655626,
				"y": 1.3876461111,
				"z": -2.0182077872,
				"element": "N" 
			},
			{
				"x": -0.726959712,
				"y": 2.7590384296,
				"z": -1.9824899815,
				"element": "C" 
			},
			{
				"x": -1.475218388,
				"y": 3.5895572436,
				"z": -2.4493788955,
				"element": "O" 
			},
			{
				"x": 0.4638782046,
				"y": 3.0157015999,
				"z": -1.2711505973,
				"element": "N" 
			},
			{
				"x": 1.1542310727,
				"y": 1.8761556835,
				"z": -0.9189532243,
				"element": "C" 
			},
			{
				"x": 2.2049151281,
				"y": 1.799802063,
				"z": -0.3245683341,
				"element": "O" 
			},
			{
				"x": 1.9416019743,
				"y": -1.2525007538,
				"z": -0.5389473583,
				"element": "H" 
			},
			{
				"x": -1.9977424757,
				"y": 0.3823282545,
				"z": 0.0179358746,
				"element": "H" 
			},
			{
				"x": -2.4305284533,
				"y": -1.2894652709,
				"z": 1.8041888664,
				"element": "H" 
			},
			{
				"x": -0.6793828825,
				"y": -2.9461481516,
				"z": 2.4166870973,
				"element": "H" 
			},
			{
				"x": 0.9071196636,
				"y": 0.214746031,
				"z": -2.247868429,
				"element": "H" 
			},
			{
				"x": -1.5106222423,
				"y": 0.9624103302,
				"z": -2.6419481852,
				"element": "H" 
			},
			{
				"x": 0.770828585,
				"y": 3.9541320726,
				"z": -1.0582000101,
				"element": "H" 
			}
		],
		 "valence_orbital": [ 
			{
				"type": "occ",
				"energy": -0.2917,
				"method": "rhf"
			},
			{
				"type": "occ",
				"energy": -0.28372,
				"method": "rhf"
			},
			{
				"type": "occ",
				"energy": -0.27426,
				"method": "rhf"
			},
			{
				"type": "occ",
				"energy": -0.26524,
				"method": "rhf"
			},
			{
				"type": "occ",
				"energy": -0.24898,
				"method": "rhf"
			},
			{
				"type": "unocc",
				"energy": -0.03282,
				"method": "rhf"
			},
			{
				"type": "unocc",
				"energy": -0.02333,
				"method": "rhf"
			},
			{
				"type": "unocc",
				"energy": -0.0131,
				"method": "rhf"
			},
			{
				"type": "unocc",
				"energy": 0.00451,
				"method": "rhf"
			},
			{
				"type": "unocc",
				"energy": 0.05065,
				"method": "rhf"
			}
		],
		"cosmo_sigma_profile": { 
			"-0.025": 0.0,
			"-0.024": 0.0,
			"-0.023": 0.0,
			"-0.022": 0.0,
			"-0.021": 0.0,
			"-0.02": 0.0,
			"-0.019": 0.0,
			"-0.018": 0.0,
			"-0.017": 0.674618039684,
			"-0.016": 1.72509468311,
			"-0.015": 2.34813979364,
			"-0.014": 2.38916960736,
			"-0.013": 2.24034243325,
			"-0.012": 1.3715029717,
			"-0.011": 1.6192356744,
			"-0.01": 1.71081359459,
			"-0.009": 3.92143614567,
			"-0.008": 7.99154155628,
			"-0.007": 8.4992642234,
			"-0.006": 10.2125063343,
			"-0.005": 11.5745307726,
			"-0.004": 13.2206337129,
			"-0.003": 13.3917196944,
			"-0.002": 12.9525020252,
			"-0.001": 11.619079299,
			"0.0": 11.0793666906,
			"0.001": 13.0820402979,
			"0.002": 17.8195951759,
			"0.003": 20.9042058355,
			"0.004": 17.3721249075,
			"0.005": 8.71071616532,
			"0.006": 2.40982157092,
			"0.007": 2.22351569608,
			"0.008": 2.69480632228,
			"0.009": 3.1426682953,
			"0.01": 4.49542724807,
			"0.011": 6.54800953075,
			"0.012": 8.99144643931,
			"0.013": 4.72152510453,
			"0.014": 0.266513718648,
			"0.015": 0.0,
			"0.016": 0.0,
			"0.017": 0.0,
			"0.018": 0.0,
			"0.019": 0.0,
			"0.02": 0.0,
			"0.021": 0.0,
			"0.022": 0.0,
			"0.023": 0.0,
			"0.024": 0.0,
			"0.025": 0.0
		}
	}
}
