{
	 "smiles": "OC(=O)CCC1=NC2=C(N1)C=CC=C2", 
	 "Tm": 503.15, 
	 "num_atms": 24, 
	 "gaussian": { 
		 "optdone": 1, 
		 "sigma_profile": "yes", 
		 "theory": "DFT", 
		 "functional": "B3LYP", 
		 "basiset": "6-31G**", 
		 "properties": { 
			 "R2extent": 3760.7039, 
			 "electric_dipole_moment_norm": 4.04794384472, 
			 "electric_quadrupole_moment_norm": 13.2244945673, 
			 "total_energy": -647.083380192, 
			 "HOMO_LUMO_gap": 0.19808, 
			 "cosmo_polarized_energy": -14.93, 
			 "cosmo_cavitation_energy": 28.09, 
			 "cosmo_dispersion_energy": -20.95, 
			 "cosmo_repulsion_energy": 1.66, 
			 "cosmo_total_nonelectrostatic_energy": 8.8, 
			 "SMD_solvation_energy": 3.23 
		},
		"coords": [
			{
				"x": -1.7524006735,
				"y": 2.7726557673,
				"z": -4.3682319078,
				"element": "O" 
			},
			{
				"x": -0.8560539402,
				"y": 2.0136476162,
				"z": -3.707296702,
				"element": "C" 
			},
			{
				"x": -0.7315076119,
				"y": 0.8232407289,
				"z": -3.9312292335,
				"element": "O" 
			},
			{
				"x": -0.0682525421,
				"y": 2.8286127809,
				"z": -2.7052232281,
				"element": "C" 
			},
			{
				"x": 1.111970396,
				"y": 2.0810571352,
				"z": -2.0585236577,
				"element": "C" 
			},
			{
				"x": 0.7338438235,
				"y": 1.063557625,
				"z": -1.0232745321,
				"element": "C" 
			},
			{
				"x": 0.9874260642,
				"y": 1.1799727976,
				"z": 0.2613219224,
				"element": "N" 
			},
			{
				"x": 0.475015535,
				"y": 0.0225988875,
				"z": 0.8328466694,
				"element": "C" 
			},
			{
				"x": -0.103252989,
				"y": -0.804217255,
				"z": -0.1634854648,
				"element": "C" 
			},
			{
				"x": 0.0857843179,
				"y": -0.1093400258,
				"z": -1.3429845618,
				"element": "N" 
			},
			{
				"x": -0.6979621136,
				"y": -2.0325007771,
				"z": 0.1340106987,
				"element": "C" 
			},
			{
				"x": -0.6998938391,
				"y": -2.4211134209,
				"z": 1.4716304197,
				"element": "C" 
			},
			{
				"x": -0.1280650081,
				"y": -1.6127039998,
				"z": 2.4751509598,
				"element": "C" 
			},
			{
				"x": 0.4626718653,
				"y": -0.390019217,
				"z": 2.1714672896,
				"element": "C" 
			},
			{
				"x": -2.2227128572,
				"y": 2.1802881504,
				"z": -4.9793904263,
				"element": "H" 
			},
			{
				"x": 0.2878786085,
				"y": 3.723677561,
				"z": -3.2277754973,
				"element": "H" 
			},
			{
				"x": -0.768803227,
				"y": 3.1895829061,
				"z": -1.9423202973,
				"element": "H" 
			},
			{
				"x": 1.7482744201,
				"y": 2.8096198378,
				"z": -1.5518182029,
				"element": "H" 
			},
			{
				"x": 1.7112512228,
				"y": 1.6094921106,
				"z": -2.846393751,
				"element": "H" 
			},
			{
				"x": -0.2340731027,
				"y": -0.332724753,
				"z": -2.2769802507,
				"element": "H" 
			},
			{
				"x": -1.1375708874,
				"y": -2.6585276109,
				"z": -0.636797894,
				"element": "H" 
			},
			{
				"x": -1.1516160462,
				"y": -3.3696150112,
				"z": 1.7474592122,
				"element": "H" 
			},
			{
				"x": -0.1510590398,
				"y": -1.9555525748,
				"z": 3.5055092153,
				"element": "H" 
			},
			{
				"x": 0.9044076244,
				"y": 0.2364107409,
				"z": 2.9399292202,
				"element": "H" 
			}
		],
		 "valence_orbital": [ 
			{
				"type": "occ",
				"energy": -0.30162,
				"method": "rhf"
			},
			{
				"type": "occ",
				"energy": -0.29291,
				"method": "rhf"
			},
			{
				"type": "occ",
				"energy": -0.2609,
				"method": "rhf"
			},
			{
				"type": "occ",
				"energy": -0.2166,
				"method": "rhf"
			},
			{
				"type": "occ",
				"energy": -0.2128,
				"method": "rhf"
			},
			{
				"type": "unocc",
				"energy": -0.01472,
				"method": "rhf"
			},
			{
				"type": "unocc",
				"energy": -0.00618,
				"method": "rhf"
			},
			{
				"type": "unocc",
				"energy": 0.03201,
				"method": "rhf"
			},
			{
				"type": "unocc",
				"energy": 0.05756,
				"method": "rhf"
			},
			{
				"type": "unocc",
				"energy": 0.06616,
				"method": "rhf"
			}
		],
		"cosmo_sigma_profile": { 
			"-0.025": 0.0,
			"-0.024": 0.0,
			"-0.023": 0.0,
			"-0.022": 0.0,
			"-0.021": 0.0,
			"-0.02": 0.0,
			"-0.019": 0.0844064790409,
			"-0.018": 0.911123181973,
			"-0.017": 1.12571351822,
			"-0.016": 1.06504700382,
			"-0.015": 0.241392970753,
			"-0.014": 0.804090986896,
			"-0.013": 0.24103397863,
			"-0.012": 1.34997211863,
			"-0.011": 1.85647913669,
			"-0.01": 1.22690507189,
			"-0.009": 1.1581261065,
			"-0.008": 2.33010349815,
			"-0.007": 6.44841349399,
			"-0.006": 11.93927214,
			"-0.005": 20.304850085,
			"-0.004": 19.2713539127,
			"-0.003": 17.7835718407,
			"-0.002": 14.7423714421,
			"-0.001": 12.3934014287,
			"0.0": 10.4768924672,
			"0.001": 8.81191923803,
			"0.002": 11.6012492605,
			"0.003": 11.361801396,
			"0.004": 11.9388234131,
			"0.005": 13.7084884695,
			"0.006": 12.3008406763,
			"0.007": 7.40885620842,
			"0.008": 4.62501181274,
			"0.009": 4.11198668118,
			"0.01": 2.61040696441,
			"0.011": 2.80860367221,
			"0.012": 1.355291151,
			"0.013": 0.738969508819,
			"0.014": 0.895561149997,
			"0.015": 1.42289076358,
			"0.016": 0.87129260288,
			"0.017": 0.63943133214,
			"0.018": 0.682320536427,
			"0.019": 0.065333381138,
			"0.02": 0.0,
			"0.021": 0.0,
			"0.022": 0.0,
			"0.023": 0.0,
			"0.024": 0.0,
			"0.025": 0.0
		}
	}
}
