{
	 "smiles": "NC1=CC=C(OC2=CC=C(C=C2)S(N)(=O)=O)C=C1", 
	 "Tm": 470.15, 
	 "num_atms": 30, 
	 "gaussian": { 
		 "optdone": 1, 
		 "sigma_profile": "yes", 
		 "theory": "DFT", 
		 "functional": "B3LYP", 
		 "basiset": "6-31G**", 
		 "properties": { 
			 "R2extent": 8134.3787, 
			 "electric_dipole_moment_norm": 8.70365679126, 
			 "electric_quadrupole_moment_norm": 31.7033362924, 
			 "total_energy": -1197.79479661, 
			 "HOMO_LUMO_gap": 0.18586, 
			 "cosmo_polarized_energy": -24.47, 
			 "cosmo_cavitation_energy": 36.47, 
			 "cosmo_dispersion_energy": -26.76, 
			 "cosmo_repulsion_energy": 2.03, 
			 "cosmo_total_nonelectrostatic_energy": 11.74, 
			 "SMD_solvation_energy": 5.97 
		},
		"coords": [
			{
				"x": 0.1522680554,
				"y": 4.5928472417,
				"z": -3.3055189208,
				"element": "N" 
			},
			{
				"x": 0.395763901,
				"y": 3.6346445968,
				"z": -2.3215231253,
				"element": "C" 
			},
			{
				"x": 0.0245764521,
				"y": 3.8655417075,
				"z": -0.9847978248,
				"element": "C" 
			},
			{
				"x": 0.2132957219,
				"y": 2.8855100468,
				"z": -0.013477729,
				"element": "C" 
			},
			{
				"x": 0.7778553914,
				"y": 1.6607384106,
				"z": -0.3636643317,
				"element": "C" 
			},
			{
				"x": 1.0411418303,
				"y": 0.7162284875,
				"z": 0.629629995,
				"element": "O" 
			},
			{
				"x": 0.1604947359,
				"y": -0.30803439,
				"z": 0.8449122494,
				"element": "C" 
			},
			{
				"x": 0.5528386509,
				"y": -1.251547308,
				"z": 1.8066260484,
				"element": "C" 
			},
			{
				"x": -0.2753628647,
				"y": -2.3259124414,
				"z": 2.1020925366,
				"element": "C" 
			},
			{
				"x": -1.501207726,
				"y": -2.4571658131,
				"z": 1.4385387894,
				"element": "C" 
			},
			{
				"x": -1.8887494137,
				"y": -1.5263533195,
				"z": 0.4729329356,
				"element": "C" 
			},
			{
				"x": -1.0607197118,
				"y": -0.4462537192,
				"z": 0.1729655975,
				"element": "C" 
			},
			{
				"x": -2.5868216126,
				"y": -3.8244360275,
				"z": 1.8404880531,
				"element": "S" 
			},
			{
				"x": -3.5758887834,
				"y": -3.3165479845,
				"z": 3.1087911537,
				"element": "N" 
			},
			{
				"x": -3.4863511293,
				"y": -4.0226604738,
				"z": 0.7045153312,
				"element": "O" 
			},
			{
				"x": -1.7607255983,
				"y": -4.8938476033,
				"z": 2.3997712469,
				"element": "O" 
			},
			{
				"x": 1.1587347141,
				"y": 1.4137834836,
				"z": -1.6820401848,
				"element": "C" 
			},
			{
				"x": 0.9670716622,
				"y": 2.3925159022,
				"z": -2.6532678853,
				"element": "C" 
			},
			{
				"x": 0.0804845296,
				"y": 5.5449352658,
				"z": -2.9746225613,
				"element": "H" 
			},
			{
				"x": 0.7308779056,
				"y": 4.5224770741,
				"z": -4.1309936744,
				"element": "H" 
			},
			{
				"x": -0.4165239773,
				"y": 4.8195529083,
				"z": -0.7078366003,
				"element": "H" 
			},
			{
				"x": -0.0644450056,
				"y": 3.0688747124,
				"z": 1.019574755,
				"element": "H" 
			},
			{
				"x": 1.5122353148,
				"y": -1.126817656,
				"z": 2.2972507655,
				"element": "H" 
			},
			{
				"x": 0.0301806034,
				"y": -3.0765779158,
				"z": 2.8232988133,
				"element": "H" 
			},
			{
				"x": -2.826029879,
				"y": -1.6610676628,
				"z": -0.0567476171,
				"element": "H" 
			},
			{
				"x": -1.353106426,
				"y": 0.2755282221,
				"z": -0.5801177258,
				"element": "H" 
			},
			{
				"x": -4.1828363366,
				"y": -2.5476748091,
				"z": 2.841311274,
				"element": "H" 
			},
			{
				"x": -3.0498416404,
				"y": -3.122646945,
				"z": 3.9554135458,
				"element": "H" 
			},
			{
				"x": 1.611020639,
				"y": 0.461276818,
				"z": -1.9393682755,
				"element": "H" 
			},
			{
				"x": 1.2629699968,
				"y": 2.1956891915,
				"z": -3.680436634,
				"element": "H" 
			}
		],
		 "valence_orbital": [ 
			{
				"type": "occ",
				"energy": -0.29579,
				"method": "rhf"
			},
			{
				"type": "occ",
				"energy": -0.27111,
				"method": "rhf"
			},
			{
				"type": "occ",
				"energy": -0.26399,
				"method": "rhf"
			},
			{
				"type": "occ",
				"energy": -0.23827,
				"method": "rhf"
			},
			{
				"type": "occ",
				"energy": -0.2129,
				"method": "rhf"
			},
			{
				"type": "unocc",
				"energy": -0.02704,
				"method": "rhf"
			},
			{
				"type": "unocc",
				"energy": -0.02224,
				"method": "rhf"
			},
			{
				"type": "unocc",
				"energy": -0.01046,
				"method": "rhf"
			},
			{
				"type": "unocc",
				"energy": 0.00428,
				"method": "rhf"
			},
			{
				"type": "unocc",
				"energy": 0.05775,
				"method": "rhf"
			}
		],
		"cosmo_sigma_profile": { 
			"-0.025": 0.0,
			"-0.024": 0.0,
			"-0.023": 0.0,
			"-0.022": 0.0,
			"-0.021": 0.0,
			"-0.02": 0.0,
			"-0.019": 0.0,
			"-0.018": 0.0,
			"-0.017": 0.0,
			"-0.016": 0.0628566427652,
			"-0.015": 2.0220412976,
			"-0.014": 2.62120666711,
			"-0.013": 2.87415311124,
			"-0.012": 5.60406524889,
			"-0.011": 5.54712737646,
			"-0.01": 5.48782820222,
			"-0.009": 5.31510917657,
			"-0.008": 5.25229690905,
			"-0.007": 9.38407242833,
			"-0.006": 17.9681696108,
			"-0.005": 15.434153394,
			"-0.004": 15.5711724737,
			"-0.003": 12.2536662356,
			"-0.002": 13.3745909545,
			"-0.001": 15.2489171077,
			"0.0": 14.5849250852,
			"0.001": 15.8338030898,
			"0.002": 22.1516337513,
			"0.003": 19.8648572277,
			"0.004": 14.2596994096,
			"0.005": 15.0568512125,
			"0.006": 8.21526395549,
			"0.007": 6.03244313905,
			"0.008": 6.64196792486,
			"0.009": 5.84647841539,
			"0.01": 7.63545196366,
			"0.011": 11.527038384,
			"0.012": 7.61728863396,
			"0.013": 0.951946600519,
			"0.014": 0.543101422452,
			"0.015": 0.101789086031,
			"0.016": 0.0,
			"0.017": 0.0,
			"0.018": 0.0,
			"0.019": 0.0,
			"0.02": 0.0,
			"0.021": 0.0,
			"0.022": 0.0,
			"0.023": 0.0,
			"0.024": 0.0,
			"0.025": 0.0
		}
	}
}
