{
	 "smiles": "CCOC1=CC=C(C=C1)C1=NN=C(S)N1CCC(O)=O", 
	 "Tm": 290.15, 
	 "num_atms": 35, 
	 "gaussian": { 
		 "optdone": 1, 
		 "sigma_profile": "yes", 
		 "theory": "DFT", 
		 "functional": "B3LYP", 
		 "basiset": "6-31G**", 
		 "properties": { 
			 "R2extent": 9032.4496, 
			 "electric_dipole_moment_norm": 5.29631927757, 
			 "electric_quadrupole_moment_norm": 25.989765749, 
			 "total_energy": -1292.52732871, 
			 "HOMO_LUMO_gap": 0.19037, 
			 "cosmo_polarized_energy": -23.6, 
			 "cosmo_cavitation_energy": 41.73, 
			 "cosmo_dispersion_energy": -29.42, 
			 "cosmo_repulsion_energy": 2.28, 
			 "cosmo_total_nonelectrostatic_energy": 14.59, 
			 "SMD_solvation_energy": 5.79 
		},
		"coords": [
			{
				"x": 6.0514981883,
				"y": -0.3840544624,
				"z": 2.3475221075,
				"element": "C" 
			},
			{
				"x": 4.8755556045,
				"y": 0.1517423449,
				"z": 1.5501949743,
				"element": "C" 
			},
			{
				"x": 3.7638989043,
				"y": 0.2572794481,
				"z": 2.4415808089,
				"element": "O" 
			},
			{
				"x": 2.5768001946,
				"y": 0.7171426948,
				"z": 1.962316299,
				"element": "C" 
			},
			{
				"x": 1.5334284931,
				"y": 0.8077705834,
				"z": 2.8988350805,
				"element": "C" 
			},
			{
				"x": 0.2804936073,
				"y": 1.2543122798,
				"z": 2.5101262272,
				"element": "C" 
			},
			{
				"x": 0.0267142106,
				"y": 1.6246760736,
				"z": 1.175443926,
				"element": "C" 
			},
			{
				"x": 1.0813789655,
				"y": 1.5541418469,
				"z": 0.256021808,
				"element": "C" 
			},
			{
				"x": 2.3457706531,
				"y": 1.0985905599,
				"z": 0.6343402229,
				"element": "C" 
			},
			{
				"x": -1.3082364756,
				"y": 2.1283430062,
				"z": 0.8207473297,
				"element": "C" 
			},
			{
				"x": -2.0016725632,
				"y": 2.9758795202,
				"z": 1.5508825014,
				"element": "N" 
			},
			{
				"x": -3.2068956651,
				"y": 3.2074534939,
				"z": 0.9182148197,
				"element": "N" 
			},
			{
				"x": -3.2029364344,
				"y": 2.4882176504,
				"z": -0.1777535485,
				"element": "C" 
			},
			{
				"x": -4.5085631621,
				"y": 2.4138329492,
				"z": -1.3702053218,
				"element": "S" 
			},
			{
				"x": -2.0321678989,
				"y": 1.7828673539,
				"z": -0.3144009825,
				"element": "N" 
			},
			{
				"x": -1.7767464479,
				"y": 0.7124521362,
				"z": -1.2767721892,
				"element": "C" 
			},
			{
				"x": -2.3855106422,
				"y": -0.6203739194,
				"z": -0.8261650812,
				"element": "C" 
			},
			{
				"x": -2.0872312865,
				"y": -1.7210386278,
				"z": -1.8193939551,
				"element": "C" 
			},
			{
				"x": -2.6575371808,
				"y": -2.890103113,
				"z": -1.4547099343,
				"element": "O" 
			},
			{
				"x": -1.419432131,
				"y": -1.5955578257,
				"z": -2.8233647572,
				"element": "O" 
			},
			{
				"x": 6.298804959,
				"y": 0.291838654,
				"z": 3.1707058228,
				"element": "H" 
			},
			{
				"x": 6.9295500884,
				"y": -0.4814105935,
				"z": 1.7018427191,
				"element": "H" 
			},
			{
				"x": 5.8176498646,
				"y": -1.3666484377,
				"z": 2.7665323654,
				"element": "H" 
			},
			{
				"x": 5.1069451831,
				"y": 1.1383374955,
				"z": 1.1249182738,
				"element": "H" 
			},
			{
				"x": 4.6244035036,
				"y": -0.5228324205,
				"z": 0.7195538437,
				"element": "H" 
			},
			{
				"x": 1.7339938764,
				"y": 0.5186787989,
				"z": 3.9251793509,
				"element": "H" 
			},
			{
				"x": -0.5222462825,
				"y": 1.3304123554,
				"z": 3.2358242622,
				"element": "H" 
			},
			{
				"x": 0.9362827048,
				"y": 1.8929041162,
				"z": -0.7655056704,
				"element": "H" 
			},
			{
				"x": 3.1377057511,
				"y": 1.0627372946,
				"z": -0.1036839878,
				"element": "H" 
			},
			{
				"x": -5.2800637015,
				"y": 3.2660345478,
				"z": -0.6697233259,
				"element": "H" 
			},
			{
				"x": -0.7017828422,
				"y": 0.6018509452,
				"z": -1.4047629495,
				"element": "H" 
			},
			{
				"x": -2.1797210363,
				"y": 1.0114819926,
				"z": -2.2478252727,
				"element": "H" 
			},
			{
				"x": -3.4710962569,
				"y": -0.5419821792,
				"z": -0.701608996,
				"element": "H" 
			},
			{
				"x": -1.9840151582,
				"y": -0.9148633199,
				"z": 0.1504093995,
				"element": "H" 
			},
			{
				"x": -2.4160195869,
				"y": -3.5388132424,
				"z": -2.1375161702,
				"element": "H" 
			}
		],
		 "valence_orbital": [ 
			{
				"type": "occ",
				"energy": -0.2848,
				"method": "rhf"
			},
			{
				"type": "occ",
				"energy": -0.26098,
				"method": "rhf"
			},
			{
				"type": "occ",
				"energy": -0.25176,
				"method": "rhf"
			},
			{
				"type": "occ",
				"energy": -0.244,
				"method": "rhf"
			},
			{
				"type": "occ",
				"energy": -0.21231,
				"method": "rhf"
			},
			{
				"type": "unocc",
				"energy": -0.02194,
				"method": "rhf"
			},
			{
				"type": "unocc",
				"energy": -0.01051,
				"method": "rhf"
			},
			{
				"type": "unocc",
				"energy": -0.00585,
				"method": "rhf"
			},
			{
				"type": "unocc",
				"energy": 0.005,
				"method": "rhf"
			},
			{
				"type": "unocc",
				"energy": 0.02945,
				"method": "rhf"
			}
		],
		"cosmo_sigma_profile": { 
			"-0.025": 0.0,
			"-0.024": 0.0,
			"-0.023": 0.0,
			"-0.022": 0.0,
			"-0.021": 0.0,
			"-0.02": 0.0,
			"-0.019": 0.0774925139109,
			"-0.018": 0.745338958016,
			"-0.017": 1.47599352536,
			"-0.016": 0.427523007599,
			"-0.015": 0.72044203462,
			"-0.014": 0.932948602473,
			"-0.013": 0.774773901449,
			"-0.012": 2.01303427711,
			"-0.011": 2.15590100825,
			"-0.01": 2.05023015061,
			"-0.009": 1.99417818407,
			"-0.008": 4.45476667914,
			"-0.007": 11.8375815367,
			"-0.006": 18.2279568127,
			"-0.005": 26.2778390548,
			"-0.004": 29.3372609002,
			"-0.003": 26.673111733,
			"-0.002": 23.6861611062,
			"-0.001": 21.3458111448,
			"0.0": 19.8118154539,
			"0.001": 18.6863959213,
			"0.002": 16.3517893403,
			"0.003": 18.2216335141,
			"0.004": 19.6839818192,
			"0.005": 10.3330385613,
			"0.006": 8.41239062066,
			"0.007": 6.49813313463,
			"0.008": 5.73015807748,
			"0.009": 7.41727263359,
			"0.01": 4.33969489805,
			"0.011": 6.75363718843,
			"0.012": 5.09373335745,
			"0.013": 3.19725086185,
			"0.014": 2.79201892158,
			"0.015": 2.92403307206,
			"0.016": 1.77268287181,
			"0.017": 0.617585925206,
			"0.018": 0.0,
			"0.019": 0.0,
			"0.02": 0.0,
			"0.021": 0.0,
			"0.022": 0.0,
			"0.023": 0.0,
			"0.024": 0.0,
			"0.025": 0.0
		}
	}
}
