{
	 "smiles": "CON(C)S(=O)(=O)C1=CC=C(Br)C=C1", 
	 "Tm": 355.15, 
	 "num_atms": 24, 
	 "gaussian": { 
		 "optdone": 1, 
		 "sigma_profile": "yes", 
		 "theory": "DFT", 
		 "functional": "B3LYP", 
		 "basiset": "6-31G**", 
		 "properties": { 
			 "R2extent": 5981.6572, 
			 "electric_dipole_moment_norm": 3.63936492537, 
			 "electric_quadrupole_moment_norm": 15.3927122743, 
			 "total_energy": -3560.75520214, 
			 "HOMO_LUMO_gap": 0.20727, 
			 "cosmo_polarized_energy": -11.94, 
			 "cosmo_cavitation_energy": 31.44, 
			 "cosmo_dispersion_energy": -23.1, 
			 "cosmo_repulsion_energy": 1.78, 
			 "cosmo_total_nonelectrostatic_energy": 10.12, 
			 "SMD_solvation_energy": 4.3 
		},
		"coords": [
			{
				"x": -0.6150807705,
				"y": -1.0575278013,
				"z": -3.4435856826,
				"element": "C" 
			},
			{
				"x": -0.5833604615,
				"y": -0.8072212199,
				"z": -2.0315129358,
				"element": "O" 
			},
			{
				"x": -1.1776971509,
				"y": 0.4605113938,
				"z": -1.7622236642,
				"element": "N" 
			},
			{
				"x": -2.1789839559,
				"y": 0.2769319298,
				"z": -0.7064026774,
				"element": "C" 
			},
			{
				"x": 0.0976916656,
				"y": 1.5782083437,
				"z": -1.382946562,
				"element": "S" 
			},
			{
				"x": 1.0049788053,
				"y": 1.5361982098,
				"z": -2.5285557229,
				"element": "O" 
			},
			{
				"x": -0.5886150337,
				"y": 2.8036952649,
				"z": -0.9675257267,
				"element": "O" 
			},
			{
				"x": 0.9650141801,
				"y": 0.9116663456,
				"z": 0.0390083439,
				"element": "C" 
			},
			{
				"x": 1.9219248422,
				"y": -0.0906449658,
				"z": -0.1432275656,
				"element": "C" 
			},
			{
				"x": 2.5821908424,
				"y": -0.6136442988,
				"z": 0.9663995748,
				"element": "C" 
			},
			{
				"x": 2.274980344,
				"y": -0.1239026782,
				"z": 2.2373150167,
				"element": "C" 
			},
			{
				"x": 3.1811997408,
				"y": -0.8392163336,
				"z": 3.7546500832,
				"element": "Br" 
			},
			{
				"x": 1.3251846484,
				"y": 0.8810506339,
				"z": 2.4220917585,
				"element": "C" 
			},
			{
				"x": 0.6622557476,
				"y": 1.4019045995,
				"z": 1.3113380127,
				"element": "C" 
			},
			{
				"x": -0.1934983744,
				"y": -2.0591753099,
				"z": -3.5595008692,
				"element": "H" 
			},
			{
				"x": -1.6442369564,
				"y": -1.0408567956,
				"z": -3.817822079,
				"element": "H" 
			},
			{
				"x": -0.0075303591,
				"y": -0.3266089589,
				"z": -3.9824037926,
				"element": "H" 
			},
			{
				"x": -2.5786565572,
				"y": 1.2573904242,
				"z": -0.4454244326,
				"element": "H" 
			},
			{
				"x": -2.9794306069,
				"y": -0.3390384922,
				"z": -1.1210885132,
				"element": "H" 
			},
			{
				"x": -1.7680415013,
				"y": -0.2177153876,
				"z": 0.1826555404,
				"element": "H" 
			},
			{
				"x": 2.1543633593,
				"y": -0.4435871874,
				"z": -1.1405485498,
				"element": "H" 
			},
			{
				"x": 3.3304150651,
				"y": -1.3885106106,
				"z": 0.847104423,
				"element": "H" 
			},
			{
				"x": 1.1112087695,
				"y": 1.2543894435,
				"z": 3.416752829,
				"element": "H" 
			},
			{
				"x": -0.0672762827,
				"y": 2.1964034509,
				"z": 1.4233531915,
				"element": "H" 
			}
		],
		 "valence_orbital": [ 
			{
				"type": "occ",
				"energy": -0.30125,
				"method": "rhf"
			},
			{
				"type": "occ",
				"energy": -0.29171,
				"method": "rhf"
			},
			{
				"type": "occ",
				"energy": -0.28434,
				"method": "rhf"
			},
			{
				"type": "occ",
				"energy": -0.26823,
				"method": "rhf"
			},
			{
				"type": "occ",
				"energy": -0.26041,
				"method": "rhf"
			},
			{
				"type": "unocc",
				"energy": -0.05314,
				"method": "rhf"
			},
			{
				"type": "unocc",
				"energy": -0.03446,
				"method": "rhf"
			},
			{
				"type": "unocc",
				"energy": -0.00754,
				"method": "rhf"
			},
			{
				"type": "unocc",
				"energy": 0.05252,
				"method": "rhf"
			},
			{
				"type": "unocc",
				"energy": 0.05637,
				"method": "rhf"
			}
		],
		"cosmo_sigma_profile": { 
			"-0.025": 0.0,
			"-0.024": 0.0,
			"-0.023": 0.0,
			"-0.022": 0.0,
			"-0.021": 0.0,
			"-0.02": 0.0,
			"-0.019": 0.0,
			"-0.018": 0.0,
			"-0.017": 0.0,
			"-0.016": 0.0,
			"-0.015": 0.0,
			"-0.014": 0.0,
			"-0.013": 0.0,
			"-0.012": 0.0,
			"-0.011": 0.0,
			"-0.01": 0.0,
			"-0.009": 0.401370054735,
			"-0.008": 5.66571140765,
			"-0.007": 8.34388476054,
			"-0.006": 12.1854499491,
			"-0.005": 16.5807792783,
			"-0.004": 22.7704945584,
			"-0.003": 25.8622363515,
			"-0.002": 15.3059237807,
			"-0.001": 16.99346175,
			"0.0": 21.5284534288,
			"0.001": 24.9229362459,
			"0.002": 13.836316629,
			"0.003": 14.7401877953,
			"0.004": 14.8847562046,
			"0.005": 5.96827096343,
			"0.006": 5.48752757897,
			"0.007": 4.76791364759,
			"0.008": 5.35417111146,
			"0.009": 5.10563116206,
			"0.01": 7.62637231937,
			"0.011": 5.51494402437,
			"0.012": 0.195581319193,
			"0.013": 0.0,
			"0.014": 0.0,
			"0.015": 0.0,
			"0.016": 0.0,
			"0.017": 0.0,
			"0.018": 0.0,
			"0.019": 0.0,
			"0.02": 0.0,
			"0.021": 0.0,
			"0.022": 0.0,
			"0.023": 0.0,
			"0.024": 0.0,
			"0.025": 0.0
		}
	}
}
