{
	 "smiles": "COC(=O)C1=CN=CC=C1N", 
	 "Tm": 446.15, 
	 "num_atms": 19, 
	 "gaussian": { 
		 "optdone": 1, 
		 "sigma_profile": "yes", 
		 "theory": "DFT", 
		 "functional": "B3LYP", 
		 "basiset": "6-31G**", 
		 "properties": { 
			 "R2extent": 2810.4841, 
			 "electric_dipole_moment_norm": 5.53821476471, 
			 "electric_quadrupole_moment_norm": 14.3877289754, 
			 "total_energy": -531.529400684, 
			 "HOMO_LUMO_gap": 0.18612, 
			 "cosmo_polarized_energy": -14.21, 
			 "cosmo_cavitation_energy": 23.13, 
			 "cosmo_dispersion_energy": -17.41, 
			 "cosmo_repulsion_energy": 1.39, 
			 "cosmo_total_nonelectrostatic_energy": 7.12, 
			 "SMD_solvation_energy": 4.06 
		},
		"coords": [
			{
				"x": 1.0705059433,
				"y": 1.3187459724,
				"z": 2.6062835291,
				"element": "C" 
			},
			{
				"x": 1.3063993795,
				"y": 0.551370203,
				"z": 1.4127135938,
				"element": "O" 
			},
			{
				"x": 1.1343023947,
				"y": -0.7997648846,
				"z": 1.5514782598,
				"element": "C" 
			},
			{
				"x": 0.8029531951,
				"y": -1.2875398145,
				"z": 2.6140256816,
				"element": "O" 
			},
			{
				"x": 1.3818366805,
				"y": -1.5647426976,
				"z": 0.3090011535,
				"element": "C" 
			},
			{
				"x": 1.1773092087,
				"y": -2.9548469232,
				"z": 0.3957246071,
				"element": "C" 
			},
			{
				"x": 1.3315851429,
				"y": -3.8264257919,
				"z": -0.5964071589,
				"element": "N" 
			},
			{
				"x": 1.7187099539,
				"y": -3.3030948685,
				"z": -1.7767002821,
				"element": "C" 
			},
			{
				"x": 1.9557808806,
				"y": -1.9601364758,
				"z": -1.9981839354,
				"element": "C" 
			},
			{
				"x": 1.7950604291,
				"y": -1.0300608214,
				"z": -0.9446991805,
				"element": "C" 
			},
			{
				"x": 2.0544259619,
				"y": 0.2871880733,
				"z": -1.1610952519,
				"element": "N" 
			},
			{
				"x": 1.2538087246,
				"y": 2.3571837038,
				"z": 2.329694242,
				"element": "H" 
			},
			{
				"x": 0.0417383431,
				"y": 1.1875398167,
				"z": 2.9491554333,
				"element": "H" 
			},
			{
				"x": 1.7500147895,
				"y": 1.0068026468,
				"z": 3.4024572065,
				"element": "H" 
			},
			{
				"x": 0.8632536678,
				"y": -3.3524081599,
				"z": 1.3576286044,
				"element": "H" 
			},
			{
				"x": 1.8454354192,
				"y": -4.0117414181,
				"z": -2.5937790087,
				"element": "H" 
			},
			{
				"x": 2.2697388704,
				"y": -1.6132120427,
				"z": -2.9788793456,
				"element": "H" 
			},
			{
				"x": 1.8445785533,
				"y": 0.9557757949,
				"z": -0.4373809423,
				"element": "H" 
			},
			{
				"x": 2.2275624617,
				"y": 0.6079676871,
				"z": -2.0989372057,
				"element": "H" 
			}
		],
		 "valence_orbital": [ 
			{
				"type": "occ",
				"energy": -0.30843,
				"method": "rhf"
			},
			{
				"type": "occ",
				"energy": -0.27979,
				"method": "rhf"
			},
			{
				"type": "occ",
				"energy": -0.26142,
				"method": "rhf"
			},
			{
				"type": "occ",
				"energy": -0.24788,
				"method": "rhf"
			},
			{
				"type": "occ",
				"energy": -0.22847,
				"method": "rhf"
			},
			{
				"type": "unocc",
				"energy": -0.04235,
				"method": "rhf"
			},
			{
				"type": "unocc",
				"energy": -0.00131,
				"method": "rhf"
			},
			{
				"type": "unocc",
				"energy": 0.05337,
				"method": "rhf"
			},
			{
				"type": "unocc",
				"energy": 0.078,
				"method": "rhf"
			},
			{
				"type": "unocc",
				"energy": 0.10043,
				"method": "rhf"
			}
		],
		"cosmo_sigma_profile": { 
			"-0.025": 0.0,
			"-0.024": 0.0,
			"-0.023": 0.0,
			"-0.022": 0.0,
			"-0.021": 0.0,
			"-0.02": 0.0,
			"-0.019": 0.0,
			"-0.018": 0.0,
			"-0.017": 0.0,
			"-0.016": 0.0,
			"-0.015": 0.151664739696,
			"-0.014": 1.31017507806,
			"-0.013": 1.45685744924,
			"-0.012": 1.29371939393,
			"-0.011": 2.05482403731,
			"-0.01": 2.91368108972,
			"-0.009": 1.80451836087,
			"-0.008": 2.4063104579,
			"-0.007": 4.29981138025,
			"-0.006": 9.79940672462,
			"-0.005": 13.9917547531,
			"-0.004": 12.9375818435,
			"-0.003": 12.9233702086,
			"-0.002": 12.5254220611,
			"-0.001": 10.3427831243,
			"0.0": 12.0793924748,
			"0.001": 14.3628666328,
			"0.002": 17.1299637672,
			"0.003": 11.7282040617,
			"0.004": 5.22252322295,
			"0.005": 4.58060411936,
			"0.006": 3.80068898606,
			"0.007": 3.00277612589,
			"0.008": 2.58699670825,
			"0.009": 3.42696384258,
			"0.01": 2.94178241025,
			"0.011": 3.3571621741,
			"0.012": 5.18341361711,
			"0.013": 1.31533312378,
			"0.014": 0.83558783987,
			"0.015": 0.9531184489,
			"0.016": 1.04581519379,
			"0.017": 0.794080223825,
			"0.018": 0.118809475506,
			"0.019": 0.0,
			"0.02": 0.0,
			"0.021": 0.0,
			"0.022": 0.0,
			"0.023": 0.0,
			"0.024": 0.0,
			"0.025": 0.0
		}
	}
}
