{
	 "smiles": "CC1=NC(=NC(Cl)=C1)C1=CC=NC=C1", 
	 "Tm": 393.15, 
	 "num_atms": 22, 
	 "gaussian": { 
		 "optdone": 1, 
		 "sigma_profile": "yes", 
		 "theory": "DFT", 
		 "functional": "B3LYP", 
		 "basiset": "6-31G**", 
		 "properties": { 
			 "R2extent": 4272.8739, 
			 "electric_dipole_moment_norm": 4.1212970798, 
			 "electric_quadrupole_moment_norm": 4.04143920652, 
			 "total_energy": -1010.34069708, 
			 "HOMO_LUMO_gap": 0.17999, 
			 "cosmo_polarized_energy": -8.98, 
			 "cosmo_cavitation_energy": 28.74, 
			 "cosmo_dispersion_energy": -21.3, 
			 "cosmo_repulsion_energy": 1.68, 
			 "cosmo_total_nonelectrostatic_energy": 9.12, 
			 "SMD_solvation_energy": 1.29 
		},
		"coords": [
			{
				"x": 2.2908140916,
				"y": -1.1504379125,
				"z": -2.3343818393,
				"element": "C" 
			},
			{
				"x": 0.8275750561,
				"y": -1.0586466889,
				"z": -1.9913185019,
				"element": "C" 
			},
			{
				"x": 0.4882003058,
				"y": -0.3506911538,
				"z": -0.9051129672,
				"element": "N" 
			},
			{
				"x": -0.8145383013,
				"y": -0.2673179027,
				"z": -0.596953663,
				"element": "C" 
			},
			{
				"x": -1.8143031154,
				"y": -0.8389314078,
				"z": -1.2925188888,
				"element": "N" 
			},
			{
				"x": -1.4614454408,
				"y": -1.5315172293,
				"z": -2.3582349939,
				"element": "C" 
			},
			{
				"x": -2.7517701059,
				"y": -2.286249993,
				"z": -3.2806217941,
				"element": "Cl" 
			},
			{
				"x": -0.1447791453,
				"y": -1.6897963453,
				"z": -2.7779503383,
				"element": "C" 
			},
			{
				"x": -1.1905082363,
				"y": 0.5177325478,
				"z": 0.6069293147,
				"element": "C" 
			},
			{
				"x": -2.5298456472,
				"y": 0.6509549003,
				"z": 0.9937882704,
				"element": "C" 
			},
			{
				"x": -2.8249796214,
				"y": 1.3991330718,
				"z": 2.1321707006,
				"element": "C" 
			},
			{
				"x": -1.9012218713,
				"y": 2.0061289584,
				"z": 2.8891937923,
				"element": "N" 
			},
			{
				"x": -0.6235078257,
				"y": 1.8718393879,
				"z": 2.5095651076,
				"element": "C" 
			},
			{
				"x": -0.2157967563,
				"y": 1.1478634552,
				"z": 1.3906003944,
				"element": "C" 
			},
			{
				"x": 2.4834290362,
				"y": -0.7413619482,
				"z": -3.3321369475,
				"element": "H" 
			},
			{
				"x": 2.6245647432,
				"y": -2.1937601088,
				"z": -2.3415540906,
				"element": "H" 
			},
			{
				"x": 2.8777605739,
				"y": -0.5943570051,
				"z": -1.6026844672,
				"element": "H" 
			},
			{
				"x": 0.1094511249,
				"y": -2.2660176885,
				"z": -3.6589011778,
				"element": "H" 
			},
			{
				"x": -3.3134812342,
				"y": 0.1782989703,
				"z": 0.4134808466,
				"element": "H" 
			},
			{
				"x": -3.8587081736,
				"y": 1.5166741354,
				"z": 2.4523526052,
				"element": "H" 
			},
			{
				"x": 0.1160840458,
				"y": 2.3702280964,
				"z": 3.1338396752,
				"element": "H" 
			},
			{
				"x": 0.8309064971,
				"y": 1.0673318603,
				"z": 1.1228489625,
				"element": "H" 
			}
		],
		 "valence_orbital": [ 
			{
				"type": "occ",
				"energy": -0.30277,
				"method": "rhf"
			},
			{
				"type": "occ",
				"energy": -0.2722,
				"method": "rhf"
			},
			{
				"type": "occ",
				"energy": -0.26476,
				"method": "rhf"
			},
			{
				"type": "occ",
				"energy": -0.26221,
				"method": "rhf"
			},
			{
				"type": "occ",
				"energy": -0.25467,
				"method": "rhf"
			},
			{
				"type": "unocc",
				"energy": -0.07468,
				"method": "rhf"
			},
			{
				"type": "unocc",
				"energy": -0.05176,
				"method": "rhf"
			},
			{
				"type": "unocc",
				"energy": -0.00829,
				"method": "rhf"
			},
			{
				"type": "unocc",
				"energy": 0.00724,
				"method": "rhf"
			},
			{
				"type": "unocc",
				"energy": 0.02133,
				"method": "rhf"
			}
		],
		"cosmo_sigma_profile": { 
			"-0.025": 0.0,
			"-0.024": 0.0,
			"-0.023": 0.0,
			"-0.022": 0.0,
			"-0.021": 0.0,
			"-0.02": 0.0,
			"-0.019": 0.0,
			"-0.018": 0.0,
			"-0.017": 0.0,
			"-0.016": 0.0,
			"-0.015": 0.0,
			"-0.014": 0.0,
			"-0.013": 0.0,
			"-0.012": 0.0,
			"-0.011": 0.0,
			"-0.01": 0.0,
			"-0.009": 1.3433516404,
			"-0.008": 1.71052216483,
			"-0.007": 3.77863072567,
			"-0.006": 13.4755516951,
			"-0.005": 15.6419136174,
			"-0.004": 14.4196646175,
			"-0.003": 17.3904752459,
			"-0.002": 24.7580497303,
			"-0.001": 23.7568637751,
			"0.0": 16.0420840637,
			"0.001": 22.3247975803,
			"0.002": 22.8281301435,
			"0.003": 15.085008902,
			"0.004": 11.907181791,
			"0.005": 6.88187685494,
			"0.006": 4.87429450051,
			"0.007": 4.17888481086,
			"0.008": 4.94657328911,
			"0.009": 2.39608323108,
			"0.01": 0.591324455821,
			"0.011": 0.627833623717,
			"0.012": 1.48405020145,
			"0.013": 0.573980629583,
			"0.014": 1.2600389283,
			"0.015": 0.588178709608,
			"0.016": 0.847323125927,
			"0.017": 0.196447592273,
			"0.018": 0.0,
			"0.019": 0.0,
			"0.02": 0.0,
			"0.021": 0.0,
			"0.022": 0.0,
			"0.023": 0.0,
			"0.024": 0.0,
			"0.025": 0.0
		}
	}
}
