{
	 "smiles": "COC1=C(F)C=CC(C(O)=O)=C1F", 
	 "Tm": 467.15, 
	 "num_atms": 19, 
	 "gaussian": { 
		 "optdone": 1, 
		 "sigma_profile": "yes", 
		 "theory": "DFT", 
		 "functional": "B3LYP", 
		 "basiset": "6-31G**", 
		 "properties": { 
			 "R2extent": 3327.063, 
			 "electric_dipole_moment_norm": 5.39041079047, 
			 "electric_quadrupole_moment_norm": 15.1067997561, 
			 "total_energy": -733.792452511, 
			 "HOMO_LUMO_gap": 0.19158, 
			 "cosmo_polarized_energy": -11.44, 
			 "cosmo_cavitation_energy": 24.42, 
			 "cosmo_dispersion_energy": -18.2, 
			 "cosmo_repulsion_energy": 1.39, 
			 "cosmo_total_nonelectrostatic_energy": 7.6, 
			 "SMD_solvation_energy": 7.05 
		},
		"coords": [
			{
				"x": -0.3828282302,
				"y": 3.1377070662,
				"z": -1.3727862054,
				"element": "C" 
			},
			{
				"x": -0.3633399916,
				"y": 1.7322557662,
				"z": -1.6450173643,
				"element": "O" 
			},
			{
				"x": 0.6248645806,
				"y": 0.9403407592,
				"z": -1.1699272593,
				"element": "C" 
			},
			{
				"x": 1.7322400937,
				"y": 1.2957554661,
				"z": -0.3857459497,
				"element": "C" 
			},
			{
				"x": 1.9055312516,
				"y": 2.583270544,
				"z": -0.0134540703,
				"element": "F" 
			},
			{
				"x": 2.6754091036,
				"y": 0.3602348144,
				"z": 0.0312628096,
				"element": "C" 
			},
			{
				"x": 2.535150553,
				"y": -0.9709340627,
				"z": -0.3287121094,
				"element": "C" 
			},
			{
				"x": 1.4484779851,
				"y": -1.3906074704,
				"z": -1.1126065731,
				"element": "C" 
			},
			{
				"x": 1.3753795052,
				"y": -2.8566433024,
				"z": -1.4567811598,
				"element": "C" 
			},
			{
				"x": 0.3401668837,
				"y": -3.2806862529,
				"z": -2.2090322645,
				"element": "O" 
			},
			{
				"x": 2.2168450349,
				"y": -3.6369657461,
				"z": -1.0742641279,
				"element": "O" 
			},
			{
				"x": 0.5289954719,
				"y": -0.4205210008,
				"z": -1.5073592836,
				"element": "C" 
			},
			{
				"x": -0.5479405334,
				"y": -0.7623332953,
				"z": -2.2692295689,
				"element": "F" 
			},
			{
				"x": 0.5000351685,
				"y": 3.637521176,
				"z": -1.7801474717,
				"element": "H" 
			},
			{
				"x": -1.2783257429,
				"y": 3.5059211358,
				"z": -1.8742788356,
				"element": "H" 
			},
			{
				"x": -0.4520674772,
				"y": 3.3376864159,
				"z": -0.3002023035,
				"element": "H" 
			},
			{
				"x": 3.50690224,
				"y": 0.705072869,
				"z": 0.6358919923,
				"element": "H" 
			},
			{
				"x": 3.2516742533,
				"y": -1.7227659017,
				"z": -0.0203156072,
				"element": "H" 
			},
			{
				"x": -0.2446701498,
				"y": -2.5405089807,
				"z": -2.4350946476,
				"element": "H" 
			}
		],
		 "valence_orbital": [ 
			{
				"type": "occ",
				"energy": -0.34728,
				"method": "rhf"
			},
			{
				"type": "occ",
				"energy": -0.31199,
				"method": "rhf"
			},
			{
				"type": "occ",
				"energy": -0.27673,
				"method": "rhf"
			},
			{
				"type": "occ",
				"energy": -0.27187,
				"method": "rhf"
			},
			{
				"type": "occ",
				"energy": -0.24505,
				"method": "rhf"
			},
			{
				"type": "unocc",
				"energy": -0.05347,
				"method": "rhf"
			},
			{
				"type": "unocc",
				"energy": -0.02242,
				"method": "rhf"
			},
			{
				"type": "unocc",
				"energy": 0.0367,
				"method": "rhf"
			},
			{
				"type": "unocc",
				"energy": 0.0529,
				"method": "rhf"
			},
			{
				"type": "unocc",
				"energy": 0.09796,
				"method": "rhf"
			}
		],
		"cosmo_sigma_profile": { 
			"-0.025": 0.0,
			"-0.024": 0.0,
			"-0.023": 0.0,
			"-0.022": 0.0,
			"-0.021": 0.0,
			"-0.02": 0.0,
			"-0.019": 0.0,
			"-0.018": 0.0,
			"-0.017": 0.0,
			"-0.016": 0.0,
			"-0.015": 0.0,
			"-0.014": 0.0384668299135,
			"-0.013": 0.396088719731,
			"-0.012": 0.991092577496,
			"-0.011": 0.826329056666,
			"-0.01": 1.73869248216,
			"-0.009": 2.10075464442,
			"-0.008": 3.90374143867,
			"-0.007": 4.51876912324,
			"-0.006": 11.2444034318,
			"-0.005": 14.0932202994,
			"-0.004": 15.1668138096,
			"-0.003": 13.1403646848,
			"-0.002": 15.915875784,
			"-0.001": 18.9874081433,
			"0.0": 13.8542327702,
			"0.001": 12.8780050754,
			"0.002": 13.8086669955,
			"0.003": 10.8676890796,
			"0.004": 5.98576781593,
			"0.005": 3.6492333215,
			"0.006": 3.46157053526,
			"0.007": 4.82944042488,
			"0.008": 4.77770346503,
			"0.009": 3.72889201974,
			"0.01": 5.21950222935,
			"0.011": 5.3849645383,
			"0.012": 3.63739407918,
			"0.013": 1.28378951714,
			"0.014": 0.0163956068677,
			"0.015": 0.0,
			"0.016": 0.0,
			"0.017": 0.0,
			"0.018": 0.0,
			"0.019": 0.0,
			"0.02": 0.0,
			"0.021": 0.0,
			"0.022": 0.0,
			"0.023": 0.0,
			"0.024": 0.0,
			"0.025": 0.0
		}
	}
}
