{
	 "smiles": "CN1N=CNC1=O", 
	 "Tm": 443.15, 
	 "num_atms": 12, 
	 "gaussian": { 
		 "optdone": 1, 
		 "sigma_profile": "yes", 
		 "theory": "DFT", 
		 "functional": "B3LYP", 
		 "basiset": "6-31G**", 
		 "properties": { 
			 "R2extent": 639.2777, 
			 "electric_dipole_moment_norm": 2.52429036563, 
			 "electric_quadrupole_moment_norm": 13.6617646766, 
			 "total_energy": -356.804929158, 
			 "HOMO_LUMO_gap": 0.23406, 
			 "cosmo_polarized_energy": -13.7, 
			 "cosmo_cavitation_energy": 16.19, 
			 "cosmo_dispersion_energy": -12.37, 
			 "cosmo_repulsion_energy": 1.06, 
			 "cosmo_total_nonelectrostatic_energy": 4.88, 
			 "SMD_solvation_energy": 3.61 
		},
		"coords": [
			{
				"x": 1.2404449472,
				"y": -1.2809302672,
				"z": 0.6616991808,
				"element": "C" 
			},
			{
				"x": 0.3017119324,
				"y": -0.3233910932,
				"z": 0.1245403151,
				"element": "N" 
			},
			{
				"x": -0.0637666934,
				"y": -0.3417785145,
				"z": -1.2048838454,
				"element": "N" 
			},
			{
				"x": -0.9036046577,
				"y": 0.6413445347,
				"z": -1.323697417,
				"element": "C" 
			},
			{
				"x": -1.1002358621,
				"y": 1.2972254576,
				"z": -0.1328225421,
				"element": "N" 
			},
			{
				"x": -0.3136586741,
				"y": 0.6810857218,
				"z": 0.8506499949,
				"element": "C" 
			},
			{
				"x": -0.2061936656,
				"y": 0.9631877379,
				"z": 2.0337288002,
				"element": "O" 
			},
			{
				"x": 0.8618617216,
				"y": -2.3005638742,
				"z": 0.5444069257,
				"element": "H" 
			},
			{
				"x": 1.3563946193,
				"y": -1.0516227564,
				"z": 1.7221425528,
				"element": "H" 
			},
			{
				"x": 2.2082140446,
				"y": -1.1970430624,
				"z": 0.1585908866,
				"element": "H" 
			},
			{
				"x": -1.3907597351,
				"y": 0.9125307785,
				"z": -2.2488889096,
				"element": "H" 
			},
			{
				"x": -1.6953079773,
				"y": 2.0881553375,
				"z": 0.053034058,
				"element": "H" 
			}
		],
		 "valence_orbital": [ 
			{
				"type": "occ",
				"energy": -0.35356,
				"method": "rhf"
			},
			{
				"type": "occ",
				"energy": -0.32769,
				"method": "rhf"
			},
			{
				"type": "occ",
				"energy": -0.31106,
				"method": "rhf"
			},
			{
				"type": "occ",
				"energy": -0.2606,
				"method": "rhf"
			},
			{
				"type": "occ",
				"energy": -0.22044,
				"method": "rhf"
			},
			{
				"type": "unocc",
				"energy": 0.01362,
				"method": "rhf"
			},
			{
				"type": "unocc",
				"energy": 0.06302,
				"method": "rhf"
			},
			{
				"type": "unocc",
				"energy": 0.07561,
				"method": "rhf"
			},
			{
				"type": "unocc",
				"energy": 0.11775,
				"method": "rhf"
			},
			{
				"type": "unocc",
				"energy": 0.12204,
				"method": "rhf"
			}
		],
		"cosmo_sigma_profile": { 
			"-0.025": 0.0,
			"-0.024": 0.0,
			"-0.023": 0.0,
			"-0.022": 0.0,
			"-0.021": 0.0,
			"-0.02": 0.0,
			"-0.019": 0.0,
			"-0.018": 0.00750999936063,
			"-0.017": 1.20213059074,
			"-0.016": 1.61772765875,
			"-0.015": 1.66011634212,
			"-0.014": 0.540241267526,
			"-0.013": 1.04666224612,
			"-0.012": 1.07807824384,
			"-0.011": 2.65789236542,
			"-0.01": 3.57786642305,
			"-0.009": 2.49512065613,
			"-0.008": 2.45866261499,
			"-0.007": 1.43534054978,
			"-0.006": 5.44483854871,
			"-0.005": 7.99803569524,
			"-0.004": 7.43779800504,
			"-0.003": 10.7342837007,
			"-0.002": 9.85355402769,
			"-0.001": 10.0085622612,
			"0.0": 9.53869460688,
			"0.001": 4.80087449319,
			"0.002": 3.92853945745,
			"0.003": 2.63355813713,
			"0.004": 3.17476256769,
			"0.005": 3.50927877378,
			"0.006": 2.98581918479,
			"0.007": 1.90111939383,
			"0.008": 2.58254497319,
			"0.009": 2.19644822413,
			"0.01": 2.51363488831,
			"0.011": 2.2999367832,
			"0.012": 2.91679683613,
			"0.013": 4.53099778111,
			"0.014": 7.59219622014,
			"0.015": 0.834816022684,
			"0.016": 0.0,
			"0.017": 0.0,
			"0.018": 0.0,
			"0.019": 0.0,
			"0.02": 0.0,
			"0.021": 0.0,
			"0.022": 0.0,
			"0.023": 0.0,
			"0.024": 0.0,
			"0.025": 0.0
		}
	}
}
