{
	 "smiles": "NC1=CC(=C(C=CC2=C(C=C(N)C=C2)S(O)(=O)=O)C=C1)S(O)(=O)=O", 
	 "Tm": 573.15, 
	 "num_atms": 38, 
	 "gaussian": { 
		 "optdone": 1, 
		 "sigma_profile": "yes", 
		 "theory": "DFT", 
		 "functional": "B3LYP", 
		 "basiset": "6-31G**", 
		 "properties": { 
			 "R2extent": 8314.4827, 
			 "electric_dipole_moment_norm": 10.3617395055, 
			 "electric_quadrupole_moment_norm": 16.8242191328, 
			 "total_energy": -1899.01268395, 
			 "HOMO_LUMO_gap": 0.17119, 
			 "cosmo_polarized_energy": -27.72, 
			 "cosmo_cavitation_energy": 42.6, 
			 "cosmo_dispersion_energy": -31.35, 
			 "cosmo_repulsion_energy": 2.28, 
			 "cosmo_total_nonelectrostatic_energy": 13.53, 
			 "SMD_solvation_energy": 4.83 
		},
		"coords": [
			{
				"x": -3.4769825663,
				"y": 2.7016927538,
				"z": -3.0006740858,
				"element": "N" 
			},
			{
				"x": -2.9292250405,
				"y": 1.6903057427,
				"z": -2.224431281,
				"element": "C" 
			},
			{
				"x": -1.9782306436,
				"y": 0.8077948584,
				"z": -2.7570934556,
				"element": "C" 
			},
			{
				"x": -1.4799486033,
				"y": -0.2415081156,
				"z": -1.9863843794,
				"element": "C" 
			},
			{
				"x": -1.899873532,
				"y": -0.4789500493,
				"z": -0.6640983983,
				"element": "C" 
			},
			{
				"x": -1.499444378,
				"y": -1.6592279834,
				"z": 0.1377350108,
				"element": "C" 
			},
			{
				"x": -0.9488965167,
				"y": -1.6730958817,
				"z": 1.3590417052,
				"element": "C" 
			},
			{
				"x": -0.5119004737,
				"y": -0.5227095653,
				"z": 2.1979744128,
				"element": "C" 
			},
			{
				"x": 0.7165015808,
				"y": 0.1524261688,
				"z": 2.06642903,
				"element": "C" 
			},
			{
				"x": 1.1225163819,
				"y": 1.1482800819,
				"z": 2.9551602103,
				"element": "C" 
			},
			{
				"x": 0.3030605832,
				"y": 1.5209656814,
				"z": 4.0313588964,
				"element": "C" 
			},
			{
				"x": 0.7254098171,
				"y": 2.4729022697,
				"z": 4.9482171,
				"element": "N" 
			},
			{
				"x": -0.9231826371,
				"y": 0.851949421,
				"z": 4.1872970844,
				"element": "C" 
			},
			{
				"x": -1.3002525382,
				"y": -0.1472402777,
				"z": 3.2992527089,
				"element": "C" 
			},
			{
				"x": 1.8699606652,
				"y": -0.1142848565,
				"z": 0.7094590211,
				"element": "S" 
			},
			{
				"x": 1.8359916697,
				"y": -1.6859649083,
				"z": 0.4187795724,
				"element": "O" 
			},
			{
				"x": 1.3315461836,
				"y": 0.588564202,
				"z": -0.4799455359,
				"element": "O" 
			},
			{
				"x": 3.2061445574,
				"y": 0.2287699688,
				"z": 1.1713749351,
				"element": "O" 
			},
			{
				"x": -2.8430025802,
				"y": 0.4285558506,
				"z": -0.1494916312,
				"element": "C" 
			},
			{
				"x": -3.3436858119,
				"y": 1.486207669,
				"z": -0.8957014413,
				"element": "C" 
			},
			{
				"x": -0.1687803489,
				"y": -1.1894446209,
				"z": -2.7719744696,
				"element": "S" 
			},
			{
				"x": 0.9563731658,
				"y": -0.0697366939,
				"z": -3.0247531322,
				"element": "O" 
			},
			{
				"x": -0.5971533714,
				"y": -1.6486353331,
				"z": -4.0821125073,
				"element": "O" 
			},
			{
				"x": 0.3653898839,
				"y": -2.1736853597,
				"z": -1.8050602828,
				"element": "O" 
			},
			{
				"x": -3.8706513828,
				"y": 3.4849829518,
				"z": -2.4996219186,
				"element": "H" 
			},
			{
				"x": -2.9436269445,
				"y": 2.9816264296,
				"z": -3.8112818928,
				"element": "H" 
			},
			{
				"x": -1.6172080927,
				"y": 0.9476026374,
				"z": -3.7712189696,
				"element": "H" 
			},
			{
				"x": -1.6934377757,
				"y": -2.6256160504,
				"z": -0.3213809525,
				"element": "H" 
			},
			{
				"x": -0.7831006619,
				"y": -2.6509568004,
				"z": 1.8113129611,
				"element": "H" 
			},
			{
				"x": 2.0917628733,
				"y": 1.6159516596,
				"z": 2.8197307976,
				"element": "H" 
			},
			{
				"x": 1.4444448146,
				"y": 3.1091155973,
				"z": 4.6357765536,
				"element": "H" 
			},
			{
				"x": 0.0036089237,
				"y": 2.9258619159,
				"z": 5.4894499963,
				"element": "H" 
			},
			{
				"x": -1.5732193881,
				"y": 1.10708049,
				"z": 5.0202535028,
				"element": "H" 
			},
			{
				"x": -2.2418337934,
				"y": -0.6656749097,
				"z": 3.457282682,
				"element": "H" 
			},
			{
				"x": 1.2695029701,
				"y": -1.8813952775,
				"z": -0.3811229081,
				"element": "H" 
			},
			{
				"x": -3.2013115351,
				"y": 0.278149958,
				"z": 0.863255686,
				"element": "H" 
			},
			{
				"x": -4.0777351067,
				"y": 2.1557707084,
				"z": -0.4548706268,
				"element": "H" 
			},
			{
				"x": 1.2803696524,
				"y": 0.2405696671,
				"z": -2.1351239981,
				"element": "H" 
			}
		],
		 "valence_orbital": [ 
			{
				"type": "occ",
				"energy": -0.275,
				"method": "rhf"
			},
			{
				"type": "occ",
				"energy": -0.27197,
				"method": "rhf"
			},
			{
				"type": "occ",
				"energy": -0.27042,
				"method": "rhf"
			},
			{
				"type": "occ",
				"energy": -0.22582,
				"method": "rhf"
			},
			{
				"type": "occ",
				"energy": -0.21869,
				"method": "rhf"
			},
			{
				"type": "unocc",
				"energy": -0.0475,
				"method": "rhf"
			},
			{
				"type": "unocc",
				"energy": -0.03943,
				"method": "rhf"
			},
			{
				"type": "unocc",
				"energy": -0.0224,
				"method": "rhf"
			},
			{
				"type": "unocc",
				"energy": -0.0111,
				"method": "rhf"
			},
			{
				"type": "unocc",
				"energy": 0.01957,
				"method": "rhf"
			}
		],
		"cosmo_sigma_profile": { 
			"-0.025": -0.848893783592,
			"-0.024": 0.00011708606322,
			"-0.023": 0.0,
			"-0.022": 0.0,
			"-0.021": 0.0,
			"-0.02": 0.0,
			"-0.019": 0.0,
			"-0.018": 0.0,
			"-0.017": 0.0,
			"-0.016": 0.0,
			"-0.015": 0.0590636856725,
			"-0.014": 0.683908224507,
			"-0.013": 5.84559653556,
			"-0.012": 6.49974939377,
			"-0.011": 7.11454060839,
			"-0.01": 6.36873140785,
			"-0.009": 7.37274609042,
			"-0.008": 7.74800699687,
			"-0.007": 10.4735805355,
			"-0.006": 15.5009313322,
			"-0.005": 18.5488765994,
			"-0.004": 16.826202719,
			"-0.003": 15.9170633105,
			"-0.002": 16.7357891001,
			"-0.001": 15.4378505779,
			"0.0": 17.6199689741,
			"0.001": 19.6688519458,
			"0.002": 22.8703448337,
			"0.003": 31.267336804,
			"0.004": 18.33602883,
			"0.005": 10.096577839,
			"0.006": 10.5342874527,
			"0.007": 11.6213889555,
			"0.008": 11.7659421457,
			"0.009": 14.3411043117,
			"0.01": 15.1983104993,
			"0.011": 3.22868962479,
			"0.012": 1.31851919247,
			"0.013": 0.6030450167,
			"0.014": 0.0186756498419,
			"0.015": 0.0,
			"0.016": 0.0,
			"0.017": 0.0,
			"0.018": 0.0,
			"0.019": 1.78096546907,
			"0.02": 1.26764179941,
			"0.021": 0.441392280803,
			"0.022": -0.709205800442,
			"0.023": -1.47637919554,
			"0.024": 1.29659320567,
			"0.025": -2.30365987444
		}
	}
}
