{
	 "smiles": "O=C1N(CC2=CC=CC=C2)C(=S)NC2=C1C=CC=C2", 
	 "Tm": 529.15, 
	 "num_atms": 31, 
	 "gaussian": { 
		 "optdone": 1, 
		 "sigma_profile": "yes", 
		 "theory": "DFT", 
		 "functional": "B3LYP", 
		 "basiset": "6-31G**", 
		 "properties": { 
			 "R2extent": 6263.9938, 
			 "electric_dipole_moment_norm": 4.40026795661, 
			 "electric_quadrupole_moment_norm": 18.489179438, 
			 "total_energy": -1161.78916838, 
			 "HOMO_LUMO_gap": 0.15915, 
			 "cosmo_polarized_energy": -14.64, 
			 "cosmo_cavitation_energy": 35.95, 
			 "cosmo_dispersion_energy": -26.58, 
			 "cosmo_repulsion_energy": 1.95, 
			 "cosmo_total_nonelectrostatic_energy": 11.32, 
			 "SMD_solvation_energy": 5.2 
		},
		"coords": [
			{
				"x": -1.7222927195,
				"y": -1.9794294085,
				"z": 0.5076183781,
				"element": "O" 
			},
			{
				"x": -0.7316005887,
				"y": -1.6482133523,
				"z": -0.1285538721,
				"element": "C" 
			},
			{
				"x": 0.5594255899,
				"y": -1.722316154,
				"z": 0.4547840992,
				"element": "N" 
			},
			{
				"x": 0.6038864679,
				"y": -2.1919455146,
				"z": 1.8690995492,
				"element": "C" 
			},
			{
				"x": 0.4340350556,
				"y": -1.0773624629,
				"z": 2.8855541509,
				"element": "C" 
			},
			{
				"x": 1.5546876205,
				"y": -0.4729144642,
				"z": 3.4718551184,
				"element": "C" 
			},
			{
				"x": 1.3985274714,
				"y": 0.5378662822,
				"z": 4.4218221461,
				"element": "C" 
			},
			{
				"x": 0.1211999296,
				"y": 0.9554308442,
				"z": 4.7987256353,
				"element": "C" 
			},
			{
				"x": -1.0004552115,
				"y": 0.3544152051,
				"z": 4.2236368001,
				"element": "C" 
			},
			{
				"x": -0.8464352234,
				"y": -0.6566248629,
				"z": 3.2746293583,
				"element": "C" 
			},
			{
				"x": 1.7352142446,
				"y": -1.4289554945,
				"z": -0.2151459682,
				"element": "C" 
			},
			{
				"x": 3.2844423959,
				"y": -1.5989695877,
				"z": 0.4046768313,
				"element": "S" 
			},
			{
				"x": 1.5868955015,
				"y": -0.9729543824,
				"z": -1.4991321408,
				"element": "N" 
			},
			{
				"x": 0.392315259,
				"y": -0.8181908711,
				"z": -2.1792597018,
				"element": "C" 
			},
			{
				"x": -0.7925667898,
				"y": -1.1576333132,
				"z": -1.5120646374,
				"element": "C" 
			},
			{
				"x": -2.0241890977,
				"y": -1.0233174641,
				"z": -2.1676711997,
				"element": "C" 
			},
			{
				"x": -2.0700802276,
				"y": -0.5547031274,
				"z": -3.4734527137,
				"element": "C" 
			},
			{
				"x": -0.8775826436,
				"y": -0.2159959063,
				"z": -4.1330676145,
				"element": "C" 
			},
			{
				"x": 0.3518873688,
				"y": -0.3428521988,
				"z": -3.4991373702,
				"element": "C" 
			},
			{
				"x": 1.5627763466,
				"y": -2.6912577693,
				"z": 1.9971259656,
				"element": "H" 
			},
			{
				"x": -0.2040423965,
				"y": -2.9171431052,
				"z": 1.9621048782,
				"element": "H" 
			},
			{
				"x": 2.5478806999,
				"y": -0.7961902748,
				"z": 3.1772344096,
				"element": "H" 
			},
			{
				"x": 2.2761835403,
				"y": 0.996067209,
				"z": 4.8691912561,
				"element": "H" 
			},
			{
				"x": 0.0000659345,
				"y": 1.7407246808,
				"z": 5.5397874866,
				"element": "H" 
			},
			{
				"x": -1.9979596777,
				"y": 0.6692265632,
				"z": 4.517625718,
				"element": "H" 
			},
			{
				"x": -1.7163355481,
				"y": -1.123683247,
				"z": 2.8248193632,
				"element": "H" 
			},
			{
				"x": 2.4611831156,
				"y": -0.7653098577,
				"z": -1.9630211011,
				"element": "H" 
			},
			{
				"x": -2.9221841931,
				"y": -1.2946498027,
				"z": -1.6235105733,
				"element": "H" 
			},
			{
				"x": -3.0217155305,
				"y": -0.4491551266,
				"z": -3.9836759547,
				"element": "H" 
			},
			{
				"x": -0.9114847442,
				"y": 0.1510905737,
				"z": -5.1545407534,
				"element": "H" 
			},
			{
				"x": 1.2732180501,
				"y": -0.0809536098,
				"z": -4.0113575434,
				"element": "H" 
			}
		],
		 "valence_orbital": [ 
			{
				"type": "occ",
				"energy": -0.26181,
				"method": "rhf"
			},
			{
				"type": "occ",
				"energy": -0.24363,
				"method": "rhf"
			},
			{
				"type": "occ",
				"energy": -0.242,
				"method": "rhf"
			},
			{
				"type": "occ",
				"energy": -0.22516,
				"method": "rhf"
			},
			{
				"type": "occ",
				"energy": -0.2222,
				"method": "rhf"
			},
			{
				"type": "unocc",
				"energy": -0.06305,
				"method": "rhf"
			},
			{
				"type": "unocc",
				"energy": -0.04679,
				"method": "rhf"
			},
			{
				"type": "unocc",
				"energy": -0.00446,
				"method": "rhf"
			},
			{
				"type": "unocc",
				"energy": -0.00174,
				"method": "rhf"
			},
			{
				"type": "unocc",
				"energy": 0.00543,
				"method": "rhf"
			}
		],
		"cosmo_sigma_profile": { 
			"-0.025": 0.0,
			"-0.024": 0.0,
			"-0.023": 0.0,
			"-0.022": 0.0,
			"-0.021": 0.0,
			"-0.02": 0.0,
			"-0.019": 0.0,
			"-0.018": 0.0,
			"-0.017": 0.063222508802,
			"-0.016": 1.05075954932,
			"-0.015": 1.30467152,
			"-0.014": 1.12826893867,
			"-0.013": 1.37678225109,
			"-0.012": 0.986312015643,
			"-0.011": 0.519482092888,
			"-0.01": 1.35225924195,
			"-0.009": 1.56116634119,
			"-0.008": 2.18848120049,
			"-0.007": 7.13153837889,
			"-0.006": 13.95011547,
			"-0.005": 18.2278519857,
			"-0.004": 22.5921606649,
			"-0.003": 24.2932523106,
			"-0.002": 20.3162807263,
			"-0.001": 19.3559925369,
			"0.0": 19.19733521,
			"0.001": 20.4576521535,
			"0.002": 22.8517361761,
			"0.003": 21.9608332447,
			"0.004": 15.1481331729,
			"0.005": 16.1204105446,
			"0.006": 11.0625732066,
			"0.007": 6.59490795938,
			"0.008": 5.77935678495,
			"0.009": 6.63152312186,
			"0.01": 4.78302529686,
			"0.011": 2.36478779754,
			"0.012": 1.28188578163,
			"0.013": 0.0,
			"0.014": 0.0,
			"0.015": 0.0,
			"0.016": 0.0,
			"0.017": 0.0,
			"0.018": 0.0,
			"0.019": 0.0,
			"0.02": 0.0,
			"0.021": 0.0,
			"0.022": 0.0,
			"0.023": 0.0,
			"0.024": 0.0,
			"0.025": 0.0
		}
	}
}
