{
	 "smiles": "NCC(O)=O", 
	 "Tm": 455.15, 
	 "num_atms": 10, 
	 "gaussian": { 
		 "optdone": 1, 
		 "sigma_profile": "yes", 
		 "theory": "DFT", 
		 "functional": "B3LYP", 
		 "basiset": "6-31G**", 
		 "properties": { 
			 "R2extent": 669.9709, 
			 "electric_dipole_moment_norm": 4.20500898572, 
			 "electric_quadrupole_moment_norm": 12.2916455611, 
			 "total_energy": -284.422129767, 
			 "HOMO_LUMO_gap": 0.25903, 
			 "cosmo_polarized_energy": -16.47, 
			 "cosmo_cavitation_energy": 13.81, 
			 "cosmo_dispersion_energy": -10.48, 
			 "cosmo_repulsion_energy": 0.96, 
			 "cosmo_total_nonelectrostatic_energy": 4.3, 
			 "SMD_solvation_energy": 2.97 
		},
		"coords": [
			{
				"x": -0.5007043859,
				"y": 1.0119080025,
				"z": -0.4236797647,
				"element": "N" 
			},
			{
				"x": -0.904861328,
				"y": -0.1934220336,
				"z": -1.1211993751,
				"element": "C" 
			},
			{
				"x": -1.1684089772,
				"y": -1.4737970632,
				"z": -0.305255872,
				"element": "C" 
			},
			{
				"x": -0.9947637697,
				"y": -1.3634316393,
				"z": 1.0322438182,
				"element": "O" 
			},
			{
				"x": -1.5071924332,
				"y": -2.5107242023,
				"z": -0.8187556891,
				"element": "O" 
			},
			{
				"x": 0.41315937,
				"y": 0.9833813006,
				"z": 0.0093073458,
				"element": "H" 
			},
			{
				"x": -1.1990286493,
				"y": 1.4247964918,
				"z": 0.1807294163,
				"element": "H" 
			},
			{
				"x": -1.8200461417,
				"y": 0.0047431183,
				"z": -1.689019849,
				"element": "H" 
			},
			{
				"x": -0.1465051337,
				"y": -0.4533384008,
				"z": -1.8672477257,
				"element": "H" 
			},
			{
				"x": -0.7242485512,
				"y": -0.447415574,
				"z": 1.2138776952,
				"element": "H" 
			}
		],
		 "valence_orbital": [ 
			{
				"type": "occ",
				"energy": -0.38791,
				"method": "rhf"
			},
			{
				"type": "occ",
				"energy": -0.37936,
				"method": "rhf"
			},
			{
				"type": "occ",
				"energy": -0.31063,
				"method": "rhf"
			},
			{
				"type": "occ",
				"energy": -0.30146,
				"method": "rhf"
			},
			{
				"type": "occ",
				"energy": -0.2451,
				"method": "rhf"
			},
			{
				"type": "unocc",
				"energy": 0.01393,
				"method": "rhf"
			},
			{
				"type": "unocc",
				"energy": 0.03958,
				"method": "rhf"
			},
			{
				"type": "unocc",
				"energy": 0.11377,
				"method": "rhf"
			},
			{
				"type": "unocc",
				"energy": 0.11639,
				"method": "rhf"
			},
			{
				"type": "unocc",
				"energy": 0.12507,
				"method": "rhf"
			}
		],
		"cosmo_sigma_profile": { 
			"-0.025": 0.0,
			"-0.024": 0.0,
			"-0.023": 0.0,
			"-0.022": 0.0,
			"-0.021": 0.0,
			"-0.02": 0.0,
			"-0.019": 0.0,
			"-0.018": 0.0,
			"-0.017": 0.0471008437597,
			"-0.016": 0.808354608284,
			"-0.015": 1.92776054468,
			"-0.014": 2.06315874412,
			"-0.013": 2.96134761041,
			"-0.012": 4.39813274153,
			"-0.011": 3.5238024565,
			"-0.01": 2.73656557243,
			"-0.009": 2.99803659184,
			"-0.008": 2.18317678875,
			"-0.007": 5.86385356959,
			"-0.006": 7.41324742232,
			"-0.005": 3.71522140186,
			"-0.004": 4.95997017594,
			"-0.003": 4.6499469392,
			"-0.002": 3.12842113864,
			"-0.001": 2.43763162167,
			"0.0": 2.99963296724,
			"0.001": 2.78425767989,
			"0.002": 1.68671562672,
			"0.003": 2.71490591212,
			"0.004": 2.90252893181,
			"0.005": 2.81803052607,
			"0.006": 2.74793736546,
			"0.007": 2.59635647754,
			"0.008": 3.17290730557,
			"0.009": 4.03540235834,
			"0.01": 5.4044548345,
			"0.011": 4.73077212534,
			"0.012": 6.41958517756,
			"0.013": 4.82205647991,
			"0.014": 1.36021814163,
			"0.015": 0.443873607136,
			"0.016": 0.490242235512,
			"0.017": 0.106241724126,
			"0.018": 0.0,
			"0.019": 0.0,
			"0.02": 0.0,
			"0.021": 0.0,
			"0.022": 0.0,
			"0.023": 0.0,
			"0.024": 0.0,
			"0.025": 0.0
		}
	}
}
