{
	 "smiles": "CC1=C(C=CC(F)=C1F)C#N", 
	 "Tm": 314.65, 
	 "num_atms": 16, 
	 "gaussian": { 
		 "optdone": 1, 
		 "sigma_profile": "yes", 
		 "theory": "DFT", 
		 "functional": "B3LYP", 
		 "basiset": "6-31G**", 
		 "properties": { 
			 "R2extent": 2054.3242, 
			 "electric_dipole_moment_norm": 2.28605642538, 
			 "electric_quadrupole_moment_norm": 14.7150848869, 
			 "total_energy": -562.267480398, 
			 "HOMO_LUMO_gap": 0.20565, 
			 "cosmo_polarized_energy": -7.64, 
			 "cosmo_cavitation_energy": 22.31, 
			 "cosmo_dispersion_energy": -15.51, 
			 "cosmo_repulsion_energy": 1.2, 
			 "cosmo_total_nonelectrostatic_energy": 7.99, 
			 "SMD_solvation_energy": 6.16 
		},
		"coords": [
			{
				"x": -2.02330242,
				"y": -0.1794504317,
				"z": 1.5194500871,
				"element": "C" 
			},
			{
				"x": -1.2954795562,
				"y": -0.3224428085,
				"z": 0.2086180255,
				"element": "C" 
			},
			{
				"x": -0.3009519468,
				"y": 0.5943819261,
				"z": -0.2086492852,
				"element": "C" 
			},
			{
				"x": 0.3664552852,
				"y": 0.4440672248,
				"z": -1.4343841098,
				"element": "C" 
			},
			{
				"x": 0.0595202621,
				"y": -0.6227959448,
				"z": -2.2738211836,
				"element": "C" 
			},
			{
				"x": -0.9139827921,
				"y": -1.5276471169,
				"z": -1.8744572351,
				"element": "C" 
			},
			{
				"x": -1.2372059859,
				"y": -2.567132921,
				"z": -2.654656803,
				"element": "F" 
			},
			{
				"x": -1.5770845426,
				"y": -1.3767935707,
				"z": -0.6548888954,
				"element": "C" 
			},
			{
				"x": -2.5098991289,
				"y": -2.2890214339,
				"z": -0.3280563052,
				"element": "F" 
			},
			{
				"x": 0.0304992682,
				"y": 1.7001853615,
				"z": 0.6408695218,
				"element": "C" 
			},
			{
				"x": 0.2958240922,
				"y": 2.5964793905,
				"z": 1.3337732885,
				"element": "N" 
			},
			{
				"x": -2.7460683229,
				"y": -0.9843932817,
				"z": 1.651847433,
				"element": "H" 
			},
			{
				"x": -2.5526316762,
				"y": 0.777694273,
				"z": 1.5673470589,
				"element": "H" 
			},
			{
				"x": -1.3200335025,
				"y": -0.198960304,
				"z": 2.3582838399,
				"element": "H" 
			},
			{
				"x": 1.1227338796,
				"y": 1.1657269316,
				"z": -1.7215090385,
				"element": "H" 
			},
			{
				"x": 0.5576070868,
				"y": -0.7652972944,
				"z": -3.225966399,
				"element": "H" 
			}
		],
		 "valence_orbital": [ 
			{
				"type": "occ",
				"energy": -0.36403,
				"method": "rhf"
			},
			{
				"type": "occ",
				"energy": -0.3456,
				"method": "rhf"
			},
			{
				"type": "occ",
				"energy": -0.33871,
				"method": "rhf"
			},
			{
				"type": "occ",
				"energy": -0.27501,
				"method": "rhf"
			},
			{
				"type": "occ",
				"energy": -0.26379,
				"method": "rhf"
			},
			{
				"type": "unocc",
				"energy": -0.05814,
				"method": "rhf"
			},
			{
				"type": "unocc",
				"energy": -0.03051,
				"method": "rhf"
			},
			{
				"type": "unocc",
				"energy": 0.02608,
				"method": "rhf"
			},
			{
				"type": "unocc",
				"energy": 0.05767,
				"method": "rhf"
			},
			{
				"type": "unocc",
				"energy": 0.07522,
				"method": "rhf"
			}
		],
		"cosmo_sigma_profile": { 
			"-0.025": 0.0,
			"-0.024": 0.0,
			"-0.023": 0.0,
			"-0.022": 0.0,
			"-0.021": 0.0,
			"-0.02": 0.0,
			"-0.019": 0.0,
			"-0.018": 0.0,
			"-0.017": 0.0,
			"-0.016": 0.0,
			"-0.015": 0.0,
			"-0.014": 0.0,
			"-0.013": 0.0,
			"-0.012": 0.0,
			"-0.011": 0.0,
			"-0.01": 0.00494652458383,
			"-0.009": 2.01370736038,
			"-0.008": 4.28866902242,
			"-0.007": 4.48007826298,
			"-0.006": 7.16896948976,
			"-0.005": 9.07252537297,
			"-0.004": 9.09792516763,
			"-0.003": 13.0699413059,
			"-0.002": 26.1282305132,
			"-0.001": 21.5610523115,
			"0.0": 14.5145908009,
			"0.001": 10.657342482,
			"0.002": 9.23690015401,
			"0.003": 19.7083021254,
			"0.004": 6.64490675864,
			"0.005": 1.76320765765,
			"0.006": 2.4233725221,
			"0.007": 2.64566392289,
			"0.008": 3.13710749687,
			"0.009": 3.48475868399,
			"0.01": 3.05202743667,
			"0.011": 2.73583088646,
			"0.012": 2.41513668103,
			"0.013": 1.27567114046,
			"0.014": 0.0203813245725,
			"0.015": 0.0,
			"0.016": 0.0,
			"0.017": 0.0,
			"0.018": 0.0,
			"0.019": 0.0,
			"0.02": 0.0,
			"0.021": 0.0,
			"0.022": 0.0,
			"0.023": 0.0,
			"0.024": 0.0,
			"0.025": 0.0
		}
	}
}
