{
	 "smiles": "SC1=NC=C(C=C1)S(=O)(=O)N1CCOCC1", 
	 "Tm": 345.15, 
	 "num_atms": 28, 
	 "gaussian": { 
		 "optdone": 1, 
		 "sigma_profile": "yes", 
		 "theory": "DFT", 
		 "functional": "B3LYP", 
		 "basiset": "6-31G**", 
		 "properties": { 
			 "R2extent": 5902.4898, 
			 "electric_dipole_moment_norm": 3.16484525056, 
			 "electric_quadrupole_moment_norm": 26.6886626804, 
			 "total_energy": -1481.63896283, 
			 "HOMO_LUMO_gap": 0.18337, 
			 "cosmo_polarized_energy": -17.57, 
			 "cosmo_cavitation_energy": 33.68, 
			 "cosmo_dispersion_energy": -25.3, 
			 "cosmo_repulsion_energy": 1.87, 
			 "cosmo_total_nonelectrostatic_energy": 10.24, 
			 "SMD_solvation_energy": 2.35 
		},
		"coords": [
			{
				"x": 3.2285389414,
				"y": 0.7066597743,
				"z": 4.1744881257,
				"element": "S" 
			},
			{
				"x": 1.826559331,
				"y": 0.3826295712,
				"z": 3.1285228248,
				"element": "C" 
			},
			{
				"x": 2.0899178267,
				"y": 0.5486620103,
				"z": 1.8256463905,
				"element": "N" 
			},
			{
				"x": 1.1063482702,
				"y": 0.3309435148,
				"z": 0.9531194013,
				"element": "C" 
			},
			{
				"x": -0.1748489208,
				"y": -0.0686501642,
				"z": 1.3428923267,
				"element": "C" 
			},
			{
				"x": -0.4495283944,
				"y": -0.2367135292,
				"z": 2.7009593549,
				"element": "C" 
			},
			{
				"x": 0.5699758312,
				"y": -0.0098151675,
				"z": 3.6177469938,
				"element": "C" 
			},
			{
				"x": -1.4807654693,
				"y": -0.2768191274,
				"z": 0.1350601405,
				"element": "S" 
			},
			{
				"x": -1.626280977,
				"y": 0.9615747479,
				"z": -0.6362170592,
				"element": "O" 
			},
			{
				"x": -2.6291380604,
				"y": -0.8383123231,
				"z": 0.8640048138,
				"element": "O" 
			},
			{
				"x": -0.7848342149,
				"y": -1.4063258898,
				"z": -0.9110753831,
				"element": "N" 
			},
			{
				"x": -1.0596328457,
				"y": -1.2610775882,
				"z": -2.35689876,
				"element": "C" 
			},
			{
				"x": -2.293642638,
				"y": -2.061386182,
				"z": -2.7756393924,
				"element": "C" 
			},
			{
				"x": -2.1759032361,
				"y": -3.4234307343,
				"z": -2.3800749078,
				"element": "O" 
			},
			{
				"x": -2.0545127156,
				"y": -3.5440538634,
				"z": -0.9672286647,
				"element": "C" 
			},
			{
				"x": -0.8045454421,
				"y": -2.8161156837,
				"z": -0.466590354,
				"element": "C" 
			},
			{
				"x": 2.6117825423,
				"y": 0.4561077063,
				"z": 5.3463851145,
				"element": "H" 
			},
			{
				"x": 1.3473714821,
				"y": 0.4706833541,
				"z": -0.0974127481,
				"element": "H" 
			},
			{
				"x": -1.442040627,
				"y": -0.5397088262,
				"z": 3.0172147685,
				"element": "H" 
			},
			{
				"x": 0.3937811958,
				"y": -0.1332115341,
				"z": 4.6806228902,
				"element": "H" 
			},
			{
				"x": -0.1770181881,
				"y": -1.6467689176,
				"z": -2.8812541317,
				"element": "H" 
			},
			{
				"x": -1.1698607066,
				"y": -0.2013140457,
				"z": -2.5907630767,
				"element": "H" 
			},
			{
				"x": -2.3972360254,
				"y": -2.0606992276,
				"z": -3.8650630002,
				"element": "H" 
			},
			{
				"x": -3.1999133358,
				"y": -1.6119311902,
				"z": -2.3387732579,
				"element": "H" 
			},
			{
				"x": -2.9439176607,
				"y": -3.1354025045,
				"z": -0.4657459985,
				"element": "H" 
			},
			{
				"x": -1.9852494479,
				"y": -4.6145437786,
				"z": -0.7506712648,
				"element": "H" 
			},
			{
				"x": -0.7345869314,
				"y": -2.8590986466,
				"z": 0.6234940285,
				"element": "H" 
			},
			{
				"x": 0.0925804163,
				"y": -3.2909817551,
				"z": -0.8811491745,
				"element": "H" 
			}
		],
		 "valence_orbital": [ 
			{
				"type": "occ",
				"energy": -0.30769,
				"method": "rhf"
			},
			{
				"type": "occ",
				"energy": -0.28855,
				"method": "rhf"
			},
			{
				"type": "occ",
				"energy": -0.28063,
				"method": "rhf"
			},
			{
				"type": "occ",
				"energy": -0.2518,
				"method": "rhf"
			},
			{
				"type": "occ",
				"energy": -0.23786,
				"method": "rhf"
			},
			{
				"type": "unocc",
				"energy": -0.05449,
				"method": "rhf"
			},
			{
				"type": "unocc",
				"energy": -0.04732,
				"method": "rhf"
			},
			{
				"type": "unocc",
				"energy": 0.00277,
				"method": "rhf"
			},
			{
				"type": "unocc",
				"energy": 0.05607,
				"method": "rhf"
			},
			{
				"type": "unocc",
				"energy": 0.06057,
				"method": "rhf"
			}
		],
		"cosmo_sigma_profile": { 
			"-0.025": 0.0,
			"-0.024": 0.0,
			"-0.023": 0.0,
			"-0.022": 0.0,
			"-0.021": 0.0,
			"-0.02": 0.0,
			"-0.019": 0.0,
			"-0.018": 0.0,
			"-0.017": 0.0,
			"-0.016": 0.0,
			"-0.015": 0.0,
			"-0.014": 0.0,
			"-0.013": 0.0586132457185,
			"-0.012": 2.04480838389,
			"-0.011": 3.12301469036,
			"-0.01": 1.8292904334,
			"-0.009": 3.7307088382,
			"-0.008": 5.78791386347,
			"-0.007": 5.87598564021,
			"-0.006": 14.9586761823,
			"-0.005": 24.1224295626,
			"-0.004": 21.9746978315,
			"-0.003": 23.3239250494,
			"-0.002": 19.3129288597,
			"-0.001": 18.4034370363,
			"0.0": 19.2567373017,
			"0.001": 11.589767112,
			"0.002": 11.1576663671,
			"0.003": 12.4855480575,
			"0.004": 11.1159916468,
			"0.005": 7.97556145661,
			"0.006": 8.4131214755,
			"0.007": 7.77916828749,
			"0.008": 5.81162394251,
			"0.009": 5.68322968665,
			"0.01": 7.95039538939,
			"0.011": 10.0038074071,
			"0.012": 3.52039673053,
			"0.013": 2.32173515119,
			"0.014": 0.190451755873,
			"0.015": 0.0,
			"0.016": 0.0,
			"0.017": 0.0,
			"0.018": 0.0,
			"0.019": 0.0,
			"0.02": 0.0,
			"0.021": 0.0,
			"0.022": 0.0,
			"0.023": 0.0,
			"0.024": 0.0,
			"0.025": 0.0
		}
	}
}
