{
	 "smiles": "C[C@@]1(O)CC[C@@](C)(O)C#CCCCCC#C1", 
	 "Tm": 417.15, 
	 "num_atms": 36, 
	 "gaussian": { 
		 "optdone": 1, 
		 "sigma_profile": "yes", 
		 "theory": "DFT", 
		 "functional": "B3LYP", 
		 "basiset": "6-31G**", 
		 "properties": { 
			 "R2extent": 4471.7311, 
			 "electric_dipole_moment_norm": 2.76451805022, 
			 "electric_quadrupole_moment_norm": 4.04511294404, 
			 "total_energy": -695.859272471, 
			 "HOMO_LUMO_gap": 0.26197, 
			 "cosmo_polarized_energy": -12.78, 
			 "cosmo_cavitation_energy": 36.57, 
			 "cosmo_dispersion_energy": -24.9, 
			 "cosmo_repulsion_energy": 1.99, 
			 "cosmo_total_nonelectrostatic_energy": 13.66, 
			 "SMD_solvation_energy": 6.02 
		},
		"coords": [
			{
				"x": 3.5251610883,
				"y": -0.49164494,
				"z": -1.8344709717,
				"element": "C" 
			},
			{
				"x": 2.0199396632,
				"y": -0.1476340595,
				"z": -1.8771884979,
				"element": "C" 
			},
			{
				"x": 1.8596972979,
				"y": 1.215290933,
				"z": -2.3073984736,
				"element": "O" 
			},
			{
				"x": 1.3289475328,
				"y": -1.0285656549,
				"z": -2.9496604417,
				"element": "C" 
			},
			{
				"x": -0.0416392001,
				"y": -0.5836194668,
				"z": -3.4915337478,
				"element": "C" 
			},
			{
				"x": -1.3169065386,
				"y": -1.0370691424,
				"z": -2.7354078733,
				"element": "C" 
			},
			{
				"x": -2.5355888406,
				"y": -0.9024682236,
				"z": -3.6748618994,
				"element": "C" 
			},
			{
				"x": -1.1234004228,
				"y": -2.4244786434,
				"z": -2.4098344033,
				"element": "O" 
			},
			{
				"x": -1.5776723935,
				"y": -0.2475030733,
				"z": -1.5168078712,
				"element": "C" 
			},
			{
				"x": -1.8421031362,
				"y": 0.3961426468,
				"z": -0.5269715954,
				"element": "C" 
			},
			{
				"x": -2.1133016499,
				"y": 1.1986289528,
				"z": 0.6650238305,
				"element": "C" 
			},
			{
				"x": -1.8404153041,
				"y": 0.514598172,
				"z": 2.0281576728,
				"element": "C" 
			},
			{
				"x": -0.3799078353,
				"y": 0.439287503,
				"z": 2.5126919803,
				"element": "C" 
			},
			{
				"x": 0.5100026332,
				"y": -0.6952455335,
				"z": 1.9458376696,
				"element": "C" 
			},
			{
				"x": 1.0481922985,
				"y": -0.4851108019,
				"z": 0.6024864184,
				"element": "C" 
			},
			{
				"x": 1.4596879347,
				"y": -0.3364700957,
				"z": -0.5255941418,
				"element": "C" 
			},
			{
				"x": 3.6814249719,
				"y": -1.5482942209,
				"z": -1.596270716,
				"element": "H" 
			},
			{
				"x": 4.0319849148,
				"y": 0.1055622778,
				"z": -1.0698326682,
				"element": "H" 
			},
			{
				"x": 3.9760117435,
				"y": -0.2731725029,
				"z": -2.8069905669,
				"element": "H" 
			},
			{
				"x": 2.1173217088,
				"y": 1.7805001784,
				"z": -1.5674145407,
				"element": "H" 
			},
			{
				"x": 1.2646742324,
				"y": -2.0532330093,
				"z": -2.5752640627,
				"element": "H" 
			},
			{
				"x": 2.0129774593,
				"y": -1.0420770108,
				"z": -3.8065445197,
				"element": "H" 
			},
			{
				"x": -0.0631359826,
				"y": 0.5038730415,
				"z": -3.5970153227,
				"element": "H" 
			},
			{
				"x": -0.1298687189,
				"y": -1.0059252473,
				"z": -4.4995984537,
				"element": "H" 
			},
			{
				"x": -3.4525461032,
				"y": -1.1995665064,
				"z": -3.1560893773,
				"element": "H" 
			},
			{
				"x": -2.6593030962,
				"y": 0.1304644156,
				"z": -4.0145859506,
				"element": "H" 
			},
			{
				"x": -2.3978479176,
				"y": -1.5515672917,
				"z": -4.5446228438,
				"element": "H" 
			},
			{
				"x": -1.8176365245,
				"y": -2.6706275042,
				"z": -1.7846524383,
				"element": "H" 
			},
			{
				"x": -3.1683797068,
				"y": 1.5042082529,
				"z": 0.6482646195,
				"element": "H" 
			},
			{
				"x": -1.5329703376,
				"y": 2.1304314107,
				"z": 0.6107216273,
				"element": "H" 
			},
			{
				"x": -2.3973326453,
				"y": 1.0900065983,
				"z": 2.7779896694,
				"element": "H" 
			},
			{
				"x": -2.2835939621,
				"y": -0.4890384815,
				"z": 2.0244159694,
				"element": "H" 
			},
			{
				"x": 0.1164995571,
				"y": 1.4040735309,
				"z": 2.3499671486,
				"element": "H" 
			},
			{
				"x": -0.4101596052,
				"y": 0.2925240699,
				"z": 3.5994530886,
				"element": "H" 
			},
			{
				"x": 1.3489816021,
				"y": -0.8419616712,
				"z": 2.6396972864,
				"element": "H" 
			},
			{
				"x": -0.0576947177,
				"y": -1.6362189024,
				"z": 1.962504397,
				"element": "H" 
			}
		],
		 "valence_orbital": [ 
			{
				"type": "occ",
				"energy": -0.27024,
				"method": "rhf"
			},
			{
				"type": "occ",
				"energy": -0.25283,
				"method": "rhf"
			},
			{
				"type": "occ",
				"energy": -0.24322,
				"method": "rhf"
			},
			{
				"type": "occ",
				"energy": -0.24206,
				"method": "rhf"
			},
			{
				"type": "occ",
				"energy": -0.22187,
				"method": "rhf"
			},
			{
				"type": "unocc",
				"energy": 0.0401,
				"method": "rhf"
			},
			{
				"type": "unocc",
				"energy": 0.05111,
				"method": "rhf"
			},
			{
				"type": "unocc",
				"energy": 0.05265,
				"method": "rhf"
			},
			{
				"type": "unocc",
				"energy": 0.07739,
				"method": "rhf"
			},
			{
				"type": "unocc",
				"energy": 0.08095,
				"method": "rhf"
			}
		],
		"cosmo_sigma_profile": { 
			"-0.025": 0.0,
			"-0.024": 0.0,
			"-0.023": 0.0,
			"-0.022": 0.0,
			"-0.021": 0.0,
			"-0.02": 0.0,
			"-0.019": 0.0,
			"-0.018": 0.0,
			"-0.017": 0.0,
			"-0.016": 0.0,
			"-0.015": 0.93975345399,
			"-0.014": 1.30134361194,
			"-0.013": 2.24641959267,
			"-0.012": 0.890688731999,
			"-0.011": 1.31633087532,
			"-0.01": 1.40944614917,
			"-0.009": 1.84626011612,
			"-0.008": 1.71933000206,
			"-0.007": 1.97094253567,
			"-0.006": 1.669504415,
			"-0.005": 6.9158347033,
			"-0.004": 19.9395282095,
			"-0.003": 40.6435421806,
			"-0.002": 40.4681199848,
			"-0.001": 32.6662641843,
			"0.0": 31.6805603884,
			"0.001": 18.3905419179,
			"0.002": 10.0234375235,
			"0.003": 7.67773381669,
			"0.004": 7.86939882657,
			"0.005": 8.61892549647,
			"0.006": 9.8385011858,
			"0.007": 9.60064861723,
			"0.008": 5.01215443275,
			"0.009": 4.32279514944,
			"0.01": 5.31352998962,
			"0.011": 4.50499929784,
			"0.012": 1.63432297978,
			"0.013": 2.0087625071,
			"0.014": 1.1118654895,
			"0.015": 0.0703858198833,
			"0.016": 0.0,
			"0.017": 0.0,
			"0.018": 0.0,
			"0.019": 0.0,
			"0.02": 0.0,
			"0.021": 0.0,
			"0.022": 0.0,
			"0.023": 0.0,
			"0.024": 0.0,
			"0.025": 0.0
		}
	}
}
