{
	 "smiles": "CN1C(C)=NC=C1[N+]([O-])=O", 
	 "Tm": 411.15, 
	 "num_atms": 17, 
	 "gaussian": { 
		 "optdone": 1, 
		 "sigma_profile": "yes", 
		 "theory": "DFT", 
		 "functional": "B3LYP", 
		 "basiset": "6-31G**", 
		 "properties": { 
			 "R2extent": 2406.49, 
			 "electric_dipole_moment_norm": 4.85698703416, 
			 "electric_quadrupole_moment_norm": 15.3224330519, 
			 "total_energy": -509.349153659, 
			 "HOMO_LUMO_gap": 0.1715, 
			 "cosmo_polarized_energy": -12.21, 
			 "cosmo_cavitation_energy": 21.43, 
			 "cosmo_dispersion_energy": -15.79, 
			 "cosmo_repulsion_energy": 1.27, 
			 "cosmo_total_nonelectrostatic_energy": 6.91, 
			 "SMD_solvation_energy": 4.55 
		},
		"coords": [
			{
				"x": 1.1360687418,
				"y": 1.7506635187,
				"z": -0.0534405176,
				"element": "C" 
			},
			{
				"x": 0.3611164602,
				"y": 0.9778814042,
				"z": 0.91684776,
				"element": "N" 
			},
			{
				"x": 0.133179533,
				"y": -0.3694300415,
				"z": 0.8875018507,
				"element": "C" 
			},
			{
				"x": 0.6560683816,
				"y": -1.2851924124,
				"z": -0.1706982411,
				"element": "C" 
			},
			{
				"x": -0.6117859403,
				"y": -0.7767602467,
				"z": 1.9143693801,
				"element": "N" 
			},
			{
				"x": -0.8837617206,
				"y": 0.3346876577,
				"z": 2.6432773039,
				"element": "C" 
			},
			{
				"x": -0.2965326319,
				"y": 1.4346753406,
				"z": 2.0527300571,
				"element": "C" 
			},
			{
				"x": -0.3292212242,
				"y": 2.7867899006,
				"z": 2.4825983224,
				"element": "N" 
			},
			{
				"x": -0.9594809197,
				"y": 3.0261421966,
				"z": 3.515273844,
				"element": "O" 
			},
			{
				"x": 0.2691599409,
				"y": 3.6352526637,
				"z": 1.8045616313,
				"element": "O" 
			},
			{
				"x": 1.5063480278,
				"y": 1.0648892961,
				"z": -0.8145161267,
				"element": "H" 
			},
			{
				"x": 1.9740761003,
				"y": 2.2463564341,
				"z": 0.4374086333,
				"element": "H" 
			},
			{
				"x": 0.5116003755,
				"y": 2.5152614964,
				"z": -0.5163717856,
				"element": "H" 
			},
			{
				"x": 1.7510960757,
				"y": -1.2887544464,
				"z": -0.2097664245,
				"element": "H" 
			},
			{
				"x": 0.3159529019,
				"y": -2.2935927942,
				"z": 0.0668413053,
				"element": "H" 
			},
			{
				"x": 0.2851011451,
				"y": -1.0197683523,
				"z": -1.1669673694,
				"element": "H" 
			},
			{
				"x": -1.475785247,
				"y": 0.3205983849,
				"z": 3.5462503768,
				"element": "H" 
			}
		],
		 "valence_orbital": [ 
			{
				"type": "occ",
				"energy": -0.30609,
				"method": "rhf"
			},
			{
				"type": "occ",
				"energy": -0.29804,
				"method": "rhf"
			},
			{
				"type": "occ",
				"energy": -0.29401,
				"method": "rhf"
			},
			{
				"type": "occ",
				"energy": -0.28299,
				"method": "rhf"
			},
			{
				"type": "occ",
				"energy": -0.25452,
				"method": "rhf"
			},
			{
				"type": "unocc",
				"energy": -0.08302,
				"method": "rhf"
			},
			{
				"type": "unocc",
				"energy": 0.01473,
				"method": "rhf"
			},
			{
				"type": "unocc",
				"energy": 0.06038,
				"method": "rhf"
			},
			{
				"type": "unocc",
				"energy": 0.07585,
				"method": "rhf"
			},
			{
				"type": "unocc",
				"energy": 0.11409,
				"method": "rhf"
			}
		],
		"cosmo_sigma_profile": { 
			"-0.025": 0.0,
			"-0.024": 0.0,
			"-0.023": 0.0,
			"-0.022": 0.0,
			"-0.021": 0.0,
			"-0.02": 0.0,
			"-0.019": 0.0,
			"-0.018": 0.0,
			"-0.017": 0.0,
			"-0.016": 0.0,
			"-0.015": 0.0,
			"-0.014": 0.0,
			"-0.013": 0.0,
			"-0.012": 0.0,
			"-0.011": 0.0,
			"-0.01": 0.0,
			"-0.009": 0.62302780041,
			"-0.008": 2.06270133889,
			"-0.007": 9.07788322593,
			"-0.006": 16.3569560753,
			"-0.005": 16.2131269416,
			"-0.004": 17.0239613187,
			"-0.003": 15.1030996926,
			"-0.002": 13.8734631189,
			"-0.001": 10.3855280731,
			"0.0": 7.2564843011,
			"0.001": 6.01734819588,
			"0.002": 4.77540506113,
			"0.003": 4.3905682556,
			"0.004": 4.13998316857,
			"0.005": 4.92661461648,
			"0.006": 4.7157086863,
			"0.007": 5.04584227741,
			"0.008": 9.84069259156,
			"0.009": 6.55551842642,
			"0.01": 5.57823494926,
			"0.011": 2.09665872984,
			"0.012": 0.949064330135,
			"0.013": 1.02217461638,
			"0.014": 0.818356910469,
			"0.015": 1.10024489145,
			"0.016": 0.65124945952,
			"0.017": 0.140527896946,
			"0.018": 0.0,
			"0.019": 0.0,
			"0.02": 0.0,
			"0.021": 0.0,
			"0.022": 0.0,
			"0.023": 0.0,
			"0.024": 0.0,
			"0.025": 0.0
		}
	}
}
