{
	 "smiles": "[O-][N+](=O)C1=CC(=CC(=C1)C(=O)NC1=NC=CC=C1)[N+]([O-])=O", 
	 "Tm": 474.15, 
	 "num_atms": 29, 
	 "gaussian": { 
		 "optdone": 1, 
		 "sigma_profile": "yes", 
		 "theory": "DFT", 
		 "functional": "B3LYP", 
		 "basiset": "6-31G**", 
		 "properties": { 
			 "R2extent": 10002.2057, 
			 "electric_dipole_moment_norm": 4.95918730943, 
			 "electric_quadrupole_moment_norm": 17.5066317557, 
			 "total_energy": -1057.03714893, 
			 "HOMO_LUMO_gap": 0.13179, 
			 "cosmo_polarized_energy": -17.79, 
			 "cosmo_cavitation_energy": 36.76, 
			 "cosmo_dispersion_energy": -26.6, 
			 "cosmo_repulsion_energy": 2.0, 
			 "cosmo_total_nonelectrostatic_energy": 12.15, 
			 "SMD_solvation_energy": 10.01 
		},
		"coords": [
			{
				"x": 5.0975152656,
				"y": -2.3324383357,
				"z": -3.7842306427,
				"element": "O" 
			},
			{
				"x": 4.1860280615,
				"y": -1.5114852935,
				"z": -3.723636097,
				"element": "N" 
			},
			{
				"x": 3.7761536675,
				"y": -0.8303373255,
				"z": -4.6586708553,
				"element": "O" 
			},
			{
				"x": 3.5280365412,
				"y": -1.3284423496,
				"z": -2.4117908447,
				"element": "C" 
			},
			{
				"x": 3.9772576269,
				"y": -2.0849685375,
				"z": -1.3342106896,
				"element": "C" 
			},
			{
				"x": 3.3324063912,
				"y": -1.8904387056,
				"z": -0.1196669476,
				"element": "C" 
			},
			{
				"x": 2.2892327898,
				"y": -0.9802261273,
				"z": 0.0394828014,
				"element": "C" 
			},
			{
				"x": 1.8662569127,
				"y": -0.2264495417,
				"z": -1.060045177,
				"element": "C" 
			},
			{
				"x": 2.4861042716,
				"y": -0.4157041075,
				"z": -2.3021235595,
				"element": "C" 
			},
			{
				"x": 0.7305660038,
				"y": 0.7700730223,
				"z": -1.0218456087,
				"element": "C" 
			},
			{
				"x": 0.1815877338,
				"y": 1.1169971481,
				"z": -2.0610695329,
				"element": "O" 
			},
			{
				"x": 0.3965760968,
				"y": 1.2361405053,
				"z": 0.2220730381,
				"element": "N" 
			},
			{
				"x": -0.6150968466,
				"y": 2.1497985722,
				"z": 0.5798413915,
				"element": "C" 
			},
			{
				"x": -0.6057197915,
				"y": 2.4225345206,
				"z": 1.89055522,
				"element": "N" 
			},
			{
				"x": -1.5254821634,
				"y": 3.2735364762,
				"z": 2.35564819,
				"element": "C" 
			},
			{
				"x": -2.4847725321,
				"y": 3.8839079738,
				"z": 1.5490840477,
				"element": "C" 
			},
			{
				"x": -2.4760435933,
				"y": 3.5862913429,
				"z": 0.1855002363,
				"element": "C" 
			},
			{
				"x": -1.5290452454,
				"y": 2.7039768911,
				"z": -0.3276559516,
				"element": "C" 
			},
			{
				"x": 3.7650004977,
				"y": -2.684555245,
				"z": 1.0484994123,
				"element": "N" 
			},
			{
				"x": 3.1703984486,
				"y": -2.4962185599,
				"z": 2.1077659585,
				"element": "O" 
			},
			{
				"x": 4.6884599603,
				"y": -3.4754102086,
				"z": 0.8820055991,
				"element": "O" 
			},
			{
				"x": 4.7862504763,
				"y": -2.7949542794,
				"z": -1.438568048,
				"element": "H" 
			},
			{
				"x": 1.823684393,
				"y": -0.9121746095,
				"z": 1.0154331581,
				"element": "H" 
			},
			{
				"x": 2.1462269507,
				"y": 0.1443124192,
				"z": -3.1642008361,
				"element": "H" 
			},
			{
				"x": 0.959470852,
				"y": 0.977748372,
				"z": 1.0218084138,
				"element": "H" 
			},
			{
				"x": -1.4888638134,
				"y": 3.4728720672,
				"z": 3.4246762415,
				"element": "H" 
			},
			{
				"x": -3.2101687925,
				"y": 4.5678180134,
				"z": 1.9762745087,
				"element": "H" 
			},
			{
				"x": -3.2032521895,
				"y": 4.0387269413,
				"z": -0.4823201303,
				"element": "H" 
			},
			{
				"x": -1.4801679733,
				"y": 2.4479689608,
				"z": -1.376113296,
				"element": "H" 
			}
		],
		 "valence_orbital": [ 
			{
				"type": "occ",
				"energy": -0.31215,
				"method": "rhf"
			},
			{
				"type": "occ",
				"energy": -0.29873,
				"method": "rhf"
			},
			{
				"type": "occ",
				"energy": -0.289,
				"method": "rhf"
			},
			{
				"type": "occ",
				"energy": -0.28351,
				"method": "rhf"
			},
			{
				"type": "occ",
				"energy": -0.25161,
				"method": "rhf"
			},
			{
				"type": "unocc",
				"energy": -0.11982,
				"method": "rhf"
			},
			{
				"type": "unocc",
				"energy": -0.11134,
				"method": "rhf"
			},
			{
				"type": "unocc",
				"energy": -0.07534,
				"method": "rhf"
			},
			{
				"type": "unocc",
				"energy": -0.0367,
				"method": "rhf"
			},
			{
				"type": "unocc",
				"energy": -0.01972,
				"method": "rhf"
			}
		],
		"cosmo_sigma_profile": { 
			"-0.025": 0.0,
			"-0.024": 0.0,
			"-0.023": 0.0,
			"-0.022": 0.0,
			"-0.021": 0.0,
			"-0.02": 0.0,
			"-0.019": 0.0,
			"-0.018": 0.0,
			"-0.017": 0.165434395942,
			"-0.016": 0.882887278289,
			"-0.015": 0.928544216451,
			"-0.014": 0.876729336956,
			"-0.013": 1.26008183178,
			"-0.012": 1.29511734402,
			"-0.011": 1.14519516605,
			"-0.01": 0.676101940768,
			"-0.009": 2.81315560427,
			"-0.008": 5.22323345971,
			"-0.007": 11.3074853185,
			"-0.006": 15.9124960127,
			"-0.005": 23.0090049994,
			"-0.004": 28.052514337,
			"-0.003": 24.9972318488,
			"-0.002": 15.33383384,
			"-0.001": 13.615724291,
			"0.0": 14.6241411697,
			"0.001": 17.5371651723,
			"0.002": 21.5204655524,
			"0.003": 14.9388551586,
			"0.004": 8.73779131534,
			"0.005": 9.63261642899,
			"0.006": 16.3731208356,
			"0.007": 18.1754728494,
			"0.008": 11.2757849574,
			"0.009": 7.81123057991,
			"0.01": 3.0424242507,
			"0.011": 3.6128017749,
			"0.012": 1.81609140311,
			"0.013": 0.500139843359,
			"0.014": 0.341866990697,
			"0.015": 0.0,
			"0.016": 0.0,
			"0.017": 0.0,
			"0.018": 0.0,
			"0.019": 0.0,
			"0.02": 0.0,
			"0.021": 0.0,
			"0.022": 0.0,
			"0.023": 0.0,
			"0.024": 0.0,
			"0.025": 0.0
		}
	}
}
