{
	 "smiles": "OC1=CC(=CC=C1)N1C=CN=C1", 
	 "Tm": 446.15, 
	 "num_atms": 20, 
	 "gaussian": { 
		 "optdone": 1, 
		 "sigma_profile": "yes", 
		 "theory": "DFT", 
		 "functional": "B3LYP", 
		 "basiset": "6-31G**", 
		 "properties": { 
			 "R2extent": 2396.656, 
			 "electric_dipole_moment_norm": 2.29182169027, 
			 "electric_quadrupole_moment_norm": 15.3156647521, 
			 "total_energy": -532.486961181, 
			 "HOMO_LUMO_gap": 0.19649, 
			 "cosmo_polarized_energy": -14.75, 
			 "cosmo_cavitation_energy": 24.13, 
			 "cosmo_dispersion_energy": -18.18, 
			 "cosmo_repulsion_energy": 1.4, 
			 "cosmo_total_nonelectrostatic_energy": 7.35, 
			 "SMD_solvation_energy": 3.67 
		},
		"coords": [
			{
				"x": 0.8678711424,
				"y": 3.947020325,
				"z": -1.1150625487,
				"element": "O" 
			},
			{
				"x": 0.4032709034,
				"y": 2.6649211993,
				"z": -1.1158652537,
				"element": "C" 
			},
			{
				"x": 0.6037586644,
				"y": 1.8018235183,
				"z": -0.0360179322,
				"element": "C" 
			},
			{
				"x": 0.1075367132,
				"y": 0.4910347015,
				"z": -0.0816662765,
				"element": "C" 
			},
			{
				"x": -0.5885207613,
				"y": 0.0568862012,
				"z": -1.2160252965,
				"element": "C" 
			},
			{
				"x": -0.7784688617,
				"y": 0.9343965267,
				"z": -2.2846196568,
				"element": "C" 
			},
			{
				"x": -0.2917171215,
				"y": 2.2359048855,
				"z": -2.2518823943,
				"element": "C" 
			},
			{
				"x": 0.3126790378,
				"y": -0.3857979925,
				"z": 1.0182886132,
				"element": "N" 
			},
			{
				"x": -0.111579263,
				"y": -1.7057276122,
				"z": 1.1297531395,
				"element": "C" 
			},
			{
				"x": 0.3145302455,
				"y": -2.1368970667,
				"z": 2.3554552332,
				"element": "C" 
			},
			{
				"x": 0.9918354518,
				"y": -1.1351669921,
				"z": 3.0186335766,
				"element": "N" 
			},
			{
				"x": 0.9726378175,
				"y": -0.1118338048,
				"z": 2.1997458249,
				"element": "C" 
			},
			{
				"x": 1.3271656689,
				"y": 4.125257946,
				"z": -0.2841282519,
				"element": "H" 
			},
			{
				"x": 1.1463474221,
				"y": 2.1625907839,
				"z": 0.8310603381,
				"element": "H" 
			},
			{
				"x": -0.9816448197,
				"y": -0.9494813558,
				"z": -1.2766217345,
				"element": "H" 
			},
			{
				"x": -1.319628277,
				"y": 0.5886960522,
				"z": -3.1603136114,
				"element": "H" 
			},
			{
				"x": -0.4347537932,
				"y": 2.923893853,
				"z": -3.0773635344,
				"element": "H" 
			},
			{
				"x": -0.6619288802,
				"y": -2.2063957507,
				"z": 0.351923736,
				"element": "H" 
			},
			{
				"x": 0.1725151788,
				"y": -3.1125601521,
				"z": 2.7991572163,
				"element": "H" 
			},
			{
				"x": 1.4180935317,
				"y": 0.8488347342,
				"z": 2.4065488131,
				"element": "H" 
			}
		],
		 "valence_orbital": [ 
			{
				"type": "occ",
				"energy": -0.30196,
				"method": "rhf"
			},
			{
				"type": "occ",
				"energy": -0.26821,
				"method": "rhf"
			},
			{
				"type": "occ",
				"energy": -0.25245,
				"method": "rhf"
			},
			{
				"type": "occ",
				"energy": -0.23248,
				"method": "rhf"
			},
			{
				"type": "occ",
				"energy": -0.22522,
				"method": "rhf"
			},
			{
				"type": "unocc",
				"energy": -0.02873,
				"method": "rhf"
			},
			{
				"type": "unocc",
				"energy": -0.00475,
				"method": "rhf"
			},
			{
				"type": "unocc",
				"energy": 0.04759,
				"method": "rhf"
			},
			{
				"type": "unocc",
				"energy": 0.05663,
				"method": "rhf"
			},
			{
				"type": "unocc",
				"energy": 0.06992,
				"method": "rhf"
			}
		],
		"cosmo_sigma_profile": { 
			"-0.025": 0.0,
			"-0.024": 0.0,
			"-0.023": 0.0,
			"-0.022": 0.0,
			"-0.021": 0.0,
			"-0.02": 0.0,
			"-0.019": 0.00251828754648,
			"-0.018": 0.894247590094,
			"-0.017": 1.32743999007,
			"-0.016": 0.926804308683,
			"-0.015": 1.07739585943,
			"-0.014": 1.49840485908,
			"-0.013": 0.342073188379,
			"-0.012": 1.16721241947,
			"-0.011": 2.81842938109,
			"-0.01": 4.14058830327,
			"-0.009": 4.97823551382,
			"-0.008": 3.39470163249,
			"-0.007": 5.23507697948,
			"-0.006": 9.97739128147,
			"-0.005": 9.49269969015,
			"-0.004": 10.5276551236,
			"-0.003": 9.71895466241,
			"-0.002": 8.33932099409,
			"-0.001": 8.50053177997,
			"0.0": 12.7172719079,
			"0.001": 11.73743942,
			"0.002": 12.8629484985,
			"0.003": 16.0346718504,
			"0.004": 16.7925877709,
			"0.005": 12.7581143649,
			"0.006": 4.2680887156,
			"0.007": 3.23067372189,
			"0.008": 2.28940696516,
			"0.009": 3.9389663482,
			"0.01": 3.56626568807,
			"0.011": 1.96949392606,
			"0.012": 1.40571520769,
			"0.013": 1.11976318071,
			"0.014": 1.61381464061,
			"0.015": 0.936050808713,
			"0.016": 0.957620087377,
			"0.017": 1.28018716707,
			"0.018": 0.417244775581,
			"0.019": 0.0,
			"0.02": 0.0,
			"0.021": 0.0,
			"0.022": 0.0,
			"0.023": 0.0,
			"0.024": 0.0,
			"0.025": 0.0
		}
	}
}
