{
	 "smiles": "CC(C)(C)C1=CC=CC=C1O", 
	 "Tm": 266.25, 
	 "num_atms": 25, 
	 "gaussian": { 
		 "optdone": 1, 
		 "sigma_profile": "yes", 
		 "theory": "DFT", 
		 "functional": "B3LYP", 
		 "basiset": "6-31G**", 
		 "properties": { 
			 "R2extent": 2208.6982, 
			 "electric_dipole_moment_norm": 1.33063553988, 
			 "electric_quadrupole_moment_norm": 8.56655567542, 
			 "total_energy": -464.733604861, 
			 "HOMO_LUMO_gap": 0.21958, 
			 "cosmo_polarized_energy": -6.85, 
			 "cosmo_cavitation_energy": 25.95, 
			 "cosmo_dispersion_energy": -18.99, 
			 "cosmo_repulsion_energy": 1.51, 
			 "cosmo_total_nonelectrostatic_energy": 8.46, 
			 "SMD_solvation_energy": 4.98 
		},
		"coords": [
			{
				"x": 1.8615611024,
				"y": -1.6824794851,
				"z": 0.4787068561,
				"element": "C" 
			},
			{
				"x": 0.9676591993,
				"y": -0.6183386878,
				"z": -0.2051067352,
				"element": "C" 
			},
			{
				"x": -0.2467330834,
				"y": -1.3523102788,
				"z": -0.808944096,
				"element": "C" 
			},
			{
				"x": 1.7379164327,
				"y": 0.0455261383,
				"z": -1.3734291653,
				"element": "C" 
			},
			{
				"x": 0.5401894854,
				"y": 0.4509370372,
				"z": 0.8215305866,
				"element": "C" 
			},
			{
				"x": -0.8064045479,
				"y": 0.6868789429,
				"z": 1.1328610552,
				"element": "C" 
			},
			{
				"x": -1.2171101884,
				"y": 1.6488386018,
				"z": 2.0592873425,
				"element": "C" 
			},
			{
				"x": -0.2640368132,
				"y": 2.4206052386,
				"z": 2.7159413351,
				"element": "C" 
			},
			{
				"x": 1.085308741,
				"y": 2.2174638684,
				"z": 2.434909408,
				"element": "C" 
			},
			{
				"x": 1.4844761213,
				"y": 1.2520094041,
				"z": 1.5059703849,
				"element": "C" 
			},
			{
				"x": 2.8216644366,
				"y": 1.0690227346,
				"z": 1.2446951671,
				"element": "O" 
			},
			{
				"x": 2.1589413503,
				"y": -2.4455095,
				"z": -0.2500483427,
				"element": "H" 
			},
			{
				"x": 2.7659378006,
				"y": -1.2401509721,
				"z": 0.8984638742,
				"element": "H" 
			},
			{
				"x": 1.316511231,
				"y": -2.1836464587,
				"z": 1.2860688999,
				"element": "H" 
			},
			{
				"x": -0.8295926489,
				"y": -1.881077413,
				"z": -0.0473865701,
				"element": "H" 
			},
			{
				"x": -0.916482883,
				"y": -0.6706758983,
				"z": -1.343826541,
				"element": "H" 
			},
			{
				"x": 0.105506127,
				"y": -2.0980804762,
				"z": -1.5288218279,
				"element": "H" 
			},
			{
				"x": 2.0346729441,
				"y": -0.7145994044,
				"z": -2.1054425569,
				"element": "H" 
			},
			{
				"x": 2.6376950183,
				"y": 0.5547038506,
				"z": -1.0257827992,
				"element": "H" 
			},
			{
				"x": 1.1047652621,
				"y": 0.7772031004,
				"z": -1.887098788,
				"element": "H" 
			},
			{
				"x": -1.5703476798,
				"y": 0.1005515404,
				"z": 0.6368560557,
				"element": "H" 
			},
			{
				"x": -2.2748745727,
				"y": 1.7878793377,
				"z": 2.2607238999,
				"element": "H" 
			},
			{
				"x": -0.5586013454,
				"y": 3.1743940782,
				"z": 3.440190563,
				"element": "H" 
			},
			{
				"x": 1.8452433526,
				"y": 2.8124456861,
				"z": 2.9394548485,
				"element": "H" 
			},
			{
				"x": 3.329135158,
				"y": 1.6864090151,
				"z": 1.7870271456,
				"element": "H" 
			}
		],
		 "valence_orbital": [ 
			{
				"type": "occ",
				"energy": -0.31924,
				"method": "rhf"
			},
			{
				"type": "occ",
				"energy": -0.31222,
				"method": "rhf"
			},
			{
				"type": "occ",
				"energy": -0.3067,
				"method": "rhf"
			},
			{
				"type": "occ",
				"energy": -0.24149,
				"method": "rhf"
			},
			{
				"type": "occ",
				"energy": -0.2155,
				"method": "rhf"
			},
			{
				"type": "unocc",
				"energy": 0.00408,
				"method": "rhf"
			},
			{
				"type": "unocc",
				"energy": 0.01598,
				"method": "rhf"
			},
			{
				"type": "unocc",
				"energy": 0.06837,
				"method": "rhf"
			},
			{
				"type": "unocc",
				"energy": 0.09842,
				"method": "rhf"
			},
			{
				"type": "unocc",
				"energy": 0.10259,
				"method": "rhf"
			}
		],
		"cosmo_sigma_profile": { 
			"-0.025": 0.0,
			"-0.024": 0.0,
			"-0.023": 0.0,
			"-0.022": 0.0,
			"-0.021": 0.0,
			"-0.02": 0.0,
			"-0.019": 0.0,
			"-0.018": 0.163578036361,
			"-0.017": 0.827631554107,
			"-0.016": 1.17768907363,
			"-0.015": 1.15613687588,
			"-0.014": 1.18792706279,
			"-0.013": 0.547540887474,
			"-0.012": 0.34262413677,
			"-0.011": 0.754653663055,
			"-0.01": 1.61382607802,
			"-0.009": 1.648106318,
			"-0.008": 0.822468604744,
			"-0.007": 0.980186459517,
			"-0.006": 2.00845344584,
			"-0.005": 6.16738870951,
			"-0.004": 7.99325035259,
			"-0.003": 14.2822109987,
			"-0.002": 24.6540457108,
			"-0.001": 19.3096532392,
			"0.0": 19.7899505999,
			"0.001": 22.5840800485,
			"0.002": 23.1174884541,
			"0.003": 11.4043035565,
			"0.004": 11.0971250835,
			"0.005": 11.1026518425,
			"0.006": 11.3431658936,
			"0.007": 6.21370298729,
			"0.008": 0.637619515433,
			"0.009": 0.0144290946975,
			"0.01": 0.0,
			"0.011": 0.0,
			"0.012": 0.0,
			"0.013": 0.0,
			"0.014": 0.0,
			"0.015": 0.0,
			"0.016": 0.0,
			"0.017": 0.0,
			"0.018": 0.0,
			"0.019": 0.0,
			"0.02": 0.0,
			"0.021": 0.0,
			"0.022": 0.0,
			"0.023": 0.0,
			"0.024": 0.0,
			"0.025": 0.0
		}
	}
}
