{
	 "smiles": "OC(=O)C1CCN(C1=O)C1=CC=C(F)C=C1", 
	 "Tm": 419.15, 
	 "num_atms": 26, 
	 "gaussian": { 
		 "optdone": 1, 
		 "sigma_profile": "yes", 
		 "theory": "DFT", 
		 "functional": "B3LYP", 
		 "basiset": "6-31G**", 
		 "properties": { 
			 "R2extent": 5252.531, 
			 "electric_dipole_moment_norm": 4.9855870196, 
			 "electric_quadrupole_moment_norm": 20.2895685782, 
			 "total_energy": -805.48973689, 
			 "HOMO_LUMO_gap": 0.2013, 
			 "cosmo_polarized_energy": -15.85, 
			 "cosmo_cavitation_energy": 29.97, 
			 "cosmo_dispersion_energy": -22.26, 
			 "cosmo_repulsion_energy": 1.68, 
			 "cosmo_total_nonelectrostatic_energy": 9.39, 
			 "SMD_solvation_energy": 6.64 
		},
		"coords": [
			{
				"x": -1.6530115627,
				"y": 0.0657961007,
				"z": 4.2105039324,
				"element": "O" 
			},
			{
				"x": -1.3056965328,
				"y": 1.1203062234,
				"z": 3.4650576095,
				"element": "C" 
			},
			{
				"x": -1.9028680493,
				"y": 2.1704354052,
				"z": 3.4893074725,
				"element": "O" 
			},
			{
				"x": -0.0426569467,
				"y": 0.9298602564,
				"z": 2.6094509703,
				"element": "C" 
			},
			{
				"x": 0.0596401959,
				"y": 1.8542782734,
				"z": 1.3945818887,
				"element": "C" 
			},
			{
				"x": 0.8612424825,
				"y": 1.0264688088,
				"z": 0.375186618,
				"element": "C" 
			},
			{
				"x": 0.6075522063,
				"y": -0.3746883581,
				"z": 0.7597954684,
				"element": "N" 
			},
			{
				"x": 0.1113859853,
				"y": -0.4732223844,
				"z": 2.029590727,
				"element": "C" 
			},
			{
				"x": -0.1665199104,
				"y": -1.5059246681,
				"z": 2.6466949428,
				"element": "O" 
			},
			{
				"x": 0.976542153,
				"y": -1.4573980834,
				"z": -0.0858315875,
				"element": "C" 
			},
			{
				"x": 0.5149965774,
				"y": -2.7651081747,
				"z": 0.1480826845,
				"element": "C" 
			},
			{
				"x": 0.8836402244,
				"y": -3.7990451374,
				"z": -0.7082727981,
				"element": "C" 
			},
			{
				"x": 1.705627253,
				"y": -3.5297482861,
				"z": -1.7963088339,
				"element": "C" 
			},
			{
				"x": 2.0568658458,
				"y": -4.5347183166,
				"z": -2.6237070514,
				"element": "F" 
			},
			{
				"x": 2.1731087106,
				"y": -2.2476416218,
				"z": -2.0495210009,
				"element": "C" 
			},
			{
				"x": 1.8075437344,
				"y": -1.2121628515,
				"z": -1.1906740967,
				"element": "C" 
			},
			{
				"x": -1.1333778698,
				"y": -0.72099595,
				"z": 3.9134143164,
				"element": "H" 
			},
			{
				"x": 0.8070543933,
				"y": 1.0726665579,
				"z": 3.2943055958,
				"element": "H" 
			},
			{
				"x": 0.5388258495,
				"y": 2.8081880973,
				"z": 1.6179732322,
				"element": "H" 
			},
			{
				"x": -0.9439883491,
				"y": 2.069979331,
				"z": 1.0197100503,
				"element": "H" 
			},
			{
				"x": 0.5336855594,
				"y": 1.194702229,
				"z": -0.6541138378,
				"element": "H" 
			},
			{
				"x": 1.9365641573,
				"y": 1.2406516821,
				"z": 0.4295594796,
				"element": "H" 
			},
			{
				"x": -0.1171923688,
				"y": -2.9665112597,
				"z": 1.0004845328,
				"element": "H" 
			},
			{
				"x": 0.534269224,
				"y": -4.8116713202,
				"z": -0.538684015,
				"element": "H" 
			},
			{
				"x": 2.815158486,
				"y": -2.0665568923,
				"z": -2.9043681345,
				"element": "H" 
			},
			{
				"x": 2.1852085514,
				"y": -0.216639661,
				"z": -1.3899181651,
				"element": "H" 
			}
		],
		 "valence_orbital": [ 
			{
				"type": "occ",
				"energy": -0.30689,
				"method": "rhf"
			},
			{
				"type": "occ",
				"energy": -0.28979,
				"method": "rhf"
			},
			{
				"type": "occ",
				"energy": -0.27428,
				"method": "rhf"
			},
			{
				"type": "occ",
				"energy": -0.27009,
				"method": "rhf"
			},
			{
				"type": "occ",
				"energy": -0.23622,
				"method": "rhf"
			},
			{
				"type": "unocc",
				"energy": -0.03492,
				"method": "rhf"
			},
			{
				"type": "unocc",
				"energy": -0.02507,
				"method": "rhf"
			},
			{
				"type": "unocc",
				"energy": 0.00999,
				"method": "rhf"
			},
			{
				"type": "unocc",
				"energy": 0.02302,
				"method": "rhf"
			},
			{
				"type": "unocc",
				"energy": 0.06908,
				"method": "rhf"
			}
		],
		"cosmo_sigma_profile": { 
			"-0.025": 0.0,
			"-0.024": 0.0,
			"-0.023": 0.0,
			"-0.022": 0.0,
			"-0.021": 0.0,
			"-0.02": 0.0,
			"-0.019": 0.0,
			"-0.018": 0.0,
			"-0.017": 0.0,
			"-0.016": 0.0,
			"-0.015": 0.0,
			"-0.014": 0.0,
			"-0.013": 0.0,
			"-0.012": 0.0,
			"-0.011": 0.0,
			"-0.01": 0.627534945749,
			"-0.009": 4.99519656014,
			"-0.008": 6.7609015687,
			"-0.007": 13.0917420665,
			"-0.006": 20.4520322679,
			"-0.005": 21.6615994742,
			"-0.004": 14.5484327681,
			"-0.003": 12.1427004955,
			"-0.002": 11.103936153,
			"-0.001": 10.4519200359,
			"0.0": 13.8349684529,
			"0.001": 14.5172686624,
			"0.002": 14.4766287169,
			"0.003": 19.4304383701,
			"0.004": 17.5962124924,
			"0.005": 7.37998497297,
			"0.006": 4.14425672844,
			"0.007": 3.36717633004,
			"0.008": 4.88824328589,
			"0.009": 4.8115573139,
			"0.01": 6.01084863683,
			"0.011": 5.93263421921,
			"0.012": 5.15853233566,
			"0.013": 1.93375538094,
			"0.014": 0.0830828577769,
			"0.015": 0.0,
			"0.016": 0.0,
			"0.017": 0.0,
			"0.018": 0.0,
			"0.019": 0.0,
			"0.02": 0.0,
			"0.021": 0.0,
			"0.022": 0.0,
			"0.023": 0.0,
			"0.024": 0.0,
			"0.025": 0.0
		}
	}
}
