{
	 "smiles": "CN(C)S(=O)(=O)C1=CC=C(C=C1)C(O)=O", 
	 "Tm": 523.15, 
	 "num_atms": 26, 
	 "gaussian": { 
		 "optdone": 1, 
		 "sigma_profile": "yes", 
		 "theory": "DFT", 
		 "functional": "B3LYP", 
		 "basiset": "6-31G**", 
		 "properties": { 
			 "R2extent": 4569.0957, 
			 "electric_dipole_moment_norm": 3.75803697959, 
			 "electric_quadrupole_moment_norm": 17.4200055637, 
			 "total_energy": -1103.36303652, 
			 "HOMO_LUMO_gap": 0.18084, 
			 "cosmo_polarized_energy": -16.58, 
			 "cosmo_cavitation_energy": 31.56, 
			 "cosmo_dispersion_energy": -22.91, 
			 "cosmo_repulsion_energy": 1.74, 
			 "cosmo_total_nonelectrostatic_energy": 10.4, 
			 "SMD_solvation_energy": 5.66 
		},
		"coords": [
			{
				"x": -1.277610688,
				"y": 3.0102082632,
				"z": -1.0181661037,
				"element": "C" 
			},
			{
				"x": -1.1912706705,
				"y": 2.3748246715,
				"z": 0.3023550702,
				"element": "N" 
			},
			{
				"x": -1.8338436269,
				"y": 3.1470704248,
				"z": 1.3769787697,
				"element": "C" 
			},
			{
				"x": 0.3637155782,
				"y": 1.7988107775,
				"z": 0.6859426551,
				"element": "S" 
			},
			{
				"x": 0.318637362,
				"y": 1.4033931787,
				"z": 2.0967475231,
				"element": "O" 
			},
			{
				"x": 1.4092959765,
				"y": 2.7098079619,
				"z": 0.1979610994,
				"element": "O" 
			},
			{
				"x": 0.4354105086,
				"y": 0.310916652,
				"z": -0.3247609339,
				"element": "C" 
			},
			{
				"x": -0.4111690115,
				"y": -0.7602573717,
				"z": -0.0223904682,
				"element": "C" 
			},
			{
				"x": -0.3221364828,
				"y": -1.9218544876,
				"z": -0.7798216498,
				"element": "C" 
			},
			{
				"x": 0.6095659384,
				"y": -2.0121810517,
				"z": -1.8251396302,
				"element": "C" 
			},
			{
				"x": 1.4575212342,
				"y": -0.9350534777,
				"z": -2.1094873285,
				"element": "C" 
			},
			{
				"x": 1.3727641471,
				"y": 0.2350458905,
				"z": -1.3545210309,
				"element": "C" 
			},
			{
				"x": 0.6569077505,
				"y": -3.2834477844,
				"z": -2.6023054896,
				"element": "C" 
			},
			{
				"x": 1.5918389943,
				"y": -3.2696465747,
				"z": -3.5822772503,
				"element": "O" 
			},
			{
				"x": -0.0579026108,
				"y": -4.2433810952,
				"z": -2.3976674651,
				"element": "O" 
			},
			{
				"x": -0.7652496922,
				"y": 3.9803850345,
				"z": -1.0564395875,
				"element": "H" 
			},
			{
				"x": -0.8480469312,
				"y": 2.3538222686,
				"z": -1.7784266756,
				"element": "H" 
			},
			{
				"x": -2.3360479426,
				"y": 3.1512408539,
				"z": -1.2537209839,
				"element": "H" 
			},
			{
				"x": -1.7158598276,
				"y": 2.6200176141,
				"z": 2.3228813268,
				"element": "H" 
			},
			{
				"x": -2.8989195201,
				"y": 3.2206718871,
				"z": 1.1392249336,
				"element": "H" 
			},
			{
				"x": -1.4224544315,
				"y": 4.1617757528,
				"z": 1.4744542424,
				"element": "H" 
			},
			{
				"x": -1.121374791,
				"y": -0.6789326963,
				"z": 0.7928094955,
				"element": "H" 
			},
			{
				"x": -0.9620167878,
				"y": -2.773924007,
				"z": -0.5783659103,
				"element": "H" 
			},
			{
				"x": 2.1786333765,
				"y": -1.01525107,
				"z": -2.9144714763,
				"element": "H" 
			},
			{
				"x": 2.0238742178,
				"y": 1.0803248325,
				"z": -1.547305313,
				"element": "H" 
			},
			{
				"x": 1.5370379305,
				"y": -4.1367864476,
				"z": -4.0166878191,
				"element": "H" 
			}
		],
		 "valence_orbital": [ 
			{
				"type": "occ",
				"energy": -0.30282,
				"method": "rhf"
			},
			{
				"type": "occ",
				"energy": -0.29036,
				"method": "rhf"
			},
			{
				"type": "occ",
				"energy": -0.28619,
				"method": "rhf"
			},
			{
				"type": "occ",
				"energy": -0.28016,
				"method": "rhf"
			},
			{
				"type": "occ",
				"energy": -0.25538,
				"method": "rhf"
			},
			{
				"type": "unocc",
				"energy": -0.07454,
				"method": "rhf"
			},
			{
				"type": "unocc",
				"energy": -0.02897,
				"method": "rhf"
			},
			{
				"type": "unocc",
				"energy": 0.0246,
				"method": "rhf"
			},
			{
				"type": "unocc",
				"energy": 0.05581,
				"method": "rhf"
			},
			{
				"type": "unocc",
				"energy": 0.06982,
				"method": "rhf"
			}
		],
		"cosmo_sigma_profile": { 
			"-0.025": 0.0,
			"-0.024": 0.0,
			"-0.023": 0.0,
			"-0.022": 0.0,
			"-0.021": 0.0,
			"-0.02": 0.0,
			"-0.019": 0.259347188596,
			"-0.018": 1.12709787308,
			"-0.017": 1.00462219273,
			"-0.016": 0.454108927591,
			"-0.015": 0.727249417057,
			"-0.014": 0.661887940752,
			"-0.013": 0.376163096955,
			"-0.012": 1.03863347146,
			"-0.011": 0.88873893317,
			"-0.01": 1.0605702015,
			"-0.009": 0.278146467442,
			"-0.008": 2.66335849866,
			"-0.007": 8.37554552209,
			"-0.006": 12.3484463026,
			"-0.005": 14.5361076395,
			"-0.004": 22.7215448484,
			"-0.003": 23.3871402666,
			"-0.002": 23.5688346966,
			"-0.001": 18.242146216,
			"0.0": 19.3749869072,
			"0.001": 20.1400712537,
			"0.002": 9.73547075082,
			"0.003": 8.11992903104,
			"0.004": 5.25651148163,
			"0.005": 5.37224879393,
			"0.006": 6.83652377392,
			"0.007": 6.27380000474,
			"0.008": 4.74377906769,
			"0.009": 4.83114167701,
			"0.01": 10.4309730098,
			"0.011": 12.4530680373,
			"0.012": 3.71864196834,
			"0.013": 0.0,
			"0.014": 0.0,
			"0.015": 0.0,
			"0.016": 0.0,
			"0.017": 0.0,
			"0.018": 0.0,
			"0.019": 0.0,
			"0.02": 0.0,
			"0.021": 0.0,
			"0.022": 0.0,
			"0.023": 0.0,
			"0.024": 0.0,
			"0.0": 0.0
		}
	}
}
