{
	 "smiles": "OC(=O)C1=CN=C(NCC2=CC=CC=C2)S1", 
	 "Tm": 437.15, 
	 "num_atms": 26, 
	 "gaussian": { 
		 "optdone": 1, 
		 "sigma_profile": "yes", 
		 "theory": "DFT", 
		 "functional": "B3LYP", 
		 "basiset": "6-31G**", 
		 "properties": { 
			 "R2extent": 7472.3567, 
			 "electric_dipole_moment_norm": 7.9697865536, 
			 "electric_quadrupole_moment_norm": 32.8868397757, 
			 "total_energy": -1083.33520049, 
			 "HOMO_LUMO_gap": 0.17538, 
			 "cosmo_polarized_energy": -19.23, 
			 "cosmo_cavitation_energy": 32.91, 
			 "cosmo_dispersion_energy": -24.44, 
			 "cosmo_repulsion_energy": 1.86, 
			 "cosmo_total_nonelectrostatic_energy": 10.33, 
			 "SMD_solvation_energy": 4.36 
		},
		"coords": [
			{
				"x": 4.8203501676,
				"y": 4.0209645394,
				"z": 1.7967861454,
				"element": "O" 
			},
			{
				"x": 3.5773268385,
				"y": 4.4296568831,
				"z": 2.1816476589,
				"element": "C" 
			},
			{
				"x": 3.44233323,
				"y": 5.4955916712,
				"z": 2.7399655763,
				"element": "O" 
			},
			{
				"x": 2.4441909278,
				"y": 3.537447159,
				"z": 1.8952063732,
				"element": "C" 
			},
			{
				"x": 1.1264508884,
				"y": 3.8452836213,
				"z": 2.1232752264,
				"element": "C" 
			},
			{
				"x": 0.1893352205,
				"y": 2.9128140757,
				"z": 1.797523522,
				"element": "N" 
			},
			{
				"x": 0.7601715834,
				"y": 1.8408213768,
				"z": 1.2948031825,
				"element": "C" 
			},
			{
				"x": 0.0690956508,
				"y": 0.7628427735,
				"z": 0.851423244,
				"element": "N" 
			},
			{
				"x": 0.6768986415,
				"y": -0.5116118977,
				"z": 0.4846978346,
				"element": "C" 
			},
			{
				"x": -0.3265068424,
				"y": -1.4164388202,
				"z": -0.1981127421,
				"element": "C" 
			},
			{
				"x": -0.9896491035,
				"y": -0.9920432424,
				"z": -1.358496335,
				"element": "C" 
			},
			{
				"x": -1.9070972609,
				"y": -1.8281403422,
				"z": -1.9928859709,
				"element": "C" 
			},
			{
				"x": -2.1697406517,
				"y": -3.1004996196,
				"z": -1.4777490608,
				"element": "C" 
			},
			{
				"x": -1.5131925315,
				"y": -3.5301746629,
				"z": -0.3245283917,
				"element": "C" 
			},
			{
				"x": -0.5983755032,
				"y": -2.6893712582,
				"z": 0.313510067,
				"element": "C" 
			},
			{
				"x": 2.53002696,
				"y": 1.9063587082,
				"z": 1.2152255477,
				"element": "S" 
			},
			{
				"x": 4.7839639345,
				"y": 3.1964618665,
				"z": 1.2918714971,
				"element": "H" 
			},
			{
				"x": 0.8199998712,
				"y": 4.7952710033,
				"z": 2.5453195709,
				"element": "H" 
			},
			{
				"x": -0.9135026579,
				"y": 0.768565522,
				"z": 1.0931752056,
				"element": "H" 
			},
			{
				"x": 1.5130983405,
				"y": -0.2999592023,
				"z": -0.1961313636,
				"element": "H" 
			},
			{
				"x": 1.1015668233,
				"y": -1.0170322119,
				"z": 1.3644299241,
				"element": "H" 
			},
			{
				"x": -0.78555991,
				"y": -0.0031978875,
				"z": -1.7604478192,
				"element": "H" 
			},
			{
				"x": -2.4146657243,
				"y": -1.4891178683,
				"z": -2.8912485575,
				"element": "H" 
			},
			{
				"x": -2.8833761488,
				"y": -3.7519141994,
				"z": -1.9735775643,
				"element": "H" 
			},
			{
				"x": -1.7147202874,
				"y": -4.5164175954,
				"z": 0.0831112241,
				"element": "H" 
			},
			{
				"x": -0.0925224562,
				"y": -3.0250603922,
				"z": 1.2153060052,
				"element": "H" 
			}
		],
		 "valence_orbital": [ 
			{
				"type": "occ",
				"energy": -0.28977,
				"method": "rhf"
			},
			{
				"type": "occ",
				"energy": -0.26945,
				"method": "rhf"
			},
			{
				"type": "occ",
				"energy": -0.2679,
				"method": "rhf"
			},
			{
				"type": "occ",
				"energy": -0.2658,
				"method": "rhf"
			},
			{
				"type": "occ",
				"energy": -0.22165,
				"method": "rhf"
			},
			{
				"type": "unocc",
				"energy": -0.04627,
				"method": "rhf"
			},
			{
				"type": "unocc",
				"energy": -0.02835,
				"method": "rhf"
			},
			{
				"type": "unocc",
				"energy": -0.02001,
				"method": "rhf"
			},
			{
				"type": "unocc",
				"energy": -0.0129,
				"method": "rhf"
			},
			{
				"type": "unocc",
				"energy": 0.0262,
				"method": "rhf"
			}
		],
		"cosmo_sigma_profile": { 
			"-0.025": 0.0,
			"-0.024": 0.0,
			"-0.023": 0.0,
			"-0.022": 0.0,
			"-0.021": 0.0,
			"-0.02": 0.0,
			"-0.019": 0.0,
			"-0.018": 0.484653420236,
			"-0.017": 0.824560686764,
			"-0.016": 0.922458183293,
			"-0.015": 1.09416555029,
			"-0.014": 1.43537609547,
			"-0.013": 2.1112546182,
			"-0.012": 1.9106015846,
			"-0.011": 1.64272182699,
			"-0.01": 1.55884791704,
			"-0.009": 1.66262828241,
			"-0.008": 3.20838765695,
			"-0.007": 4.92048032675,
			"-0.006": 15.9560865243,
			"-0.005": 20.4024374397,
			"-0.004": 22.3009251844,
			"-0.003": 17.4460090618,
			"-0.002": 14.484654773,
			"-0.001": 16.8846565976,
			"0.0": 17.2836517814,
			"0.001": 20.002523653,
			"0.002": 17.9627970866,
			"0.003": 14.7640969847,
			"0.004": 12.251362454,
			"0.005": 11.913299711,
			"0.006": 8.02187585767,
			"0.007": 3.90063813406,
			"0.008": 2.29884994324,
			"0.009": 4.2049052903,
			"0.01": 5.44547459131,
			"0.011": 5.47160874251,
			"0.012": 7.80598481363,
			"0.013": 3.36463900307,
			"0.014": 1.21688836722,
			"0.015": 0.21847679965,
			"0.016": 0.0,
			"0.017": 0.0,
			"0.018": 0.0,
			"0.019": 0.0,
			"0.02": 0.0,
			"0.021": 0.0,
			"0.022": 0.0,
			"0.023": 0.0,
			"0.024": 0.0,
			"0.025": 0.0
		}
	}
}
