{
	 "smiles": "CC(C)(CC1=CC=CC=C1)C#N", 
	 "Tm": 321.15, 
	 "num_atms": 25, 
	 "gaussian": { 
		 "optdone": 1, 
		 "sigma_profile": "yes", 
		 "theory": "DFT", 
		 "functional": "B3LYP", 
		 "basiset": "6-31G**", 
		 "properties": { 
			 "R2extent": 2849.049, 
			 "electric_dipole_moment_norm": 3.65925125401, 
			 "electric_quadrupole_moment_norm": 13.3554677058, 
			 "total_energy": -481.753939918, 
			 "HOMO_LUMO_gap": 0.23921, 
			 "cosmo_polarized_energy": -9.88, 
			 "cosmo_cavitation_energy": 28.17, 
			 "cosmo_dispersion_energy": -19.16, 
			 "cosmo_repulsion_energy": 1.53, 
			 "cosmo_total_nonelectrostatic_energy": 10.54, 
			 "SMD_solvation_energy": 5.9 
		},
		"coords": [
			{
				"x": -0.8267556691,
				"y": -2.4494214461,
				"z": 1.6977193559,
				"element": "C" 
			},
			{
				"x": -1.3398890144,
				"y": -1.2466290464,
				"z": 0.8764845539,
				"element": "C" 
			},
			{
				"x": -2.4207623012,
				"y": -0.4808521691,
				"z": 1.6755220531,
				"element": "C" 
			},
			{
				"x": -0.1792378633,
				"y": -0.2577828999,
				"z": 0.5195857263,
				"element": "C" 
			},
			{
				"x": 0.9930952105,
				"y": -0.8423385133,
				"z": -0.2397237628,
				"element": "C" 
			},
			{
				"x": 0.9404703118,
				"y": -1.009716082,
				"z": -1.6316062978,
				"element": "C" 
			},
			{
				"x": 2.0224116079,
				"y": -1.5513676225,
				"z": -2.3260753948,
				"element": "C" 
			},
			{
				"x": 3.1793869313,
				"y": -1.9297445785,
				"z": -1.642097134,
				"element": "C" 
			},
			{
				"x": 3.2478859275,
				"y": -1.7614746904,
				"z": -0.2584352147,
				"element": "C" 
			},
			{
				"x": 2.1629615728,
				"y": -1.2213103495,
				"z": 0.4338961018,
				"element": "C" 
			},
			{
				"x": -1.9610363726,
				"y": -1.7462921888,
				"z": -0.3671757385,
				"element": "C" 
			},
			{
				"x": -2.4676559829,
				"y": -2.1278004101,
				"z": -1.3401709361,
				"element": "N" 
			},
			{
				"x": -0.3797896689,
				"y": -2.0898944804,
				"z": 2.6305849108,
				"element": "H" 
			},
			{
				"x": -0.0709014879,
				"y": -3.0137061321,
				"z": 1.1478542514,
				"element": "H" 
			},
			{
				"x": -1.6494098191,
				"y": -3.1244345262,
				"z": 1.9496258313,
				"element": "H" 
			},
			{
				"x": -1.989650963,
				"y": -0.1093122057,
				"z": 2.6106962081,
				"element": "H" 
			},
			{
				"x": -3.2627024354,
				"y": -1.1340812353,
				"z": 1.9204865293,
				"element": "H" 
			},
			{
				"x": -2.8031190914,
				"y": 0.3723926283,
				"z": 1.1080735133,
				"element": "H" 
			},
			{
				"x": -0.6125437205,
				"y": 0.5738998108,
				"z": -0.0475678665,
				"element": "H" 
			},
			{
				"x": 0.1728168482,
				"y": 0.1585874129,
				"z": 1.4706265993,
				"element": "H" 
			},
			{
				"x": 0.0454899776,
				"y": -0.7187867583,
				"z": -2.1735816645,
				"element": "H" 
			},
			{
				"x": 1.9619513658,
				"y": -1.6738411673,
				"z": -3.4036837329,
				"element": "H" 
			},
			{
				"x": 4.0228742072,
				"y": -2.3473788793,
				"z": -2.184272656,
				"element": "H" 
			},
			{
				"x": 4.14625471,
				"y": -2.0454471645,
				"z": 0.2824684753,
				"element": "H" 
			},
			{
				"x": 2.2273557189,
				"y": -1.0846673063,
				"z": 1.5108662886,
				"element": "H" 
			}
		],
		 "valence_orbital": [ 
			{
				"type": "occ",
				"energy": -0.3392,
				"method": "rhf"
			},
			{
				"type": "occ",
				"energy": -0.31575,
				"method": "rhf"
			},
			{
				"type": "occ",
				"energy": -0.31261,
				"method": "rhf"
			},
			{
				"type": "occ",
				"energy": -0.25097,
				"method": "rhf"
			},
			{
				"type": "occ",
				"energy": -0.24595,
				"method": "rhf"
			},
			{
				"type": "unocc",
				"energy": -0.00674,
				"method": "rhf"
			},
			{
				"type": "unocc",
				"energy": -0.00377,
				"method": "rhf"
			},
			{
				"type": "unocc",
				"energy": 0.04272,
				"method": "rhf"
			},
			{
				"type": "unocc",
				"energy": 0.04336,
				"method": "rhf"
			},
			{
				"type": "unocc",
				"energy": 0.07185,
				"method": "rhf"
			}
		],
		"cosmo_sigma_profile": { 
			"-0.025": 0.0,
			"-0.024": 0.0,
			"-0.023": 0.0,
			"-0.022": 0.0,
			"-0.021": 0.0,
			"-0.02": 0.0,
			"-0.019": 0.0,
			"-0.018": 0.0,
			"-0.017": 0.0,
			"-0.016": 0.0,
			"-0.015": 0.0,
			"-0.014": 0.0,
			"-0.013": 0.0,
			"-0.012": 0.0,
			"-0.011": 0.0,
			"-0.01": 0.0,
			"-0.009": 0.0,
			"-0.008": 0.0,
			"-0.007": 0.0,
			"-0.006": 4.86221174472,
			"-0.005": 26.7982367343,
			"-0.004": 26.468306752,
			"-0.003": 24.8827299334,
			"-0.002": 20.891850891,
			"-0.001": 23.6158822633,
			"0.0": 17.4670582253,
			"0.001": 9.33772991903,
			"0.002": 8.82303685798,
			"0.003": 8.99139100255,
			"0.004": 9.73413763464,
			"0.005": 10.609325711,
			"0.006": 9.82955703121,
			"0.007": 2.98928024658,
			"0.008": 2.2749774997,
			"0.009": 3.31387352533,
			"0.01": 3.03288994281,
			"0.011": 2.85978630628,
			"0.012": 2.59557612534,
			"0.013": 2.30101155755,
			"0.014": 0.815525508013,
			"0.015": 0.0,
			"0.016": 0.0,
			"0.017": 0.0,
			"0.018": 0.0,
			"0.019": 0.0,
			"0.02": 0.0,
			"0.021": 0.0,
			"0.022": 0.0,
			"0.023": 0.0,
			"0.024": 0.0,
			"0.025": 0.0
		}
	}
}
