{
	 "smiles": "O=CC1=NC=CN1", 
	 "Tm": 482.15, 
	 "num_atms": 11, 
	 "gaussian": { 
		 "optdone": 1, 
		 "sigma_profile": "yes", 
		 "theory": "DFT", 
		 "functional": "B3LYP", 
		 "basiset": "6-31G**", 
		 "properties": { 
			 "R2extent": 858.3883, 
			 "electric_dipole_moment_norm": 3.22846183344, 
			 "electric_quadrupole_moment_norm": 8.35281196963, 
			 "total_energy": -339.54669561, 
			 "HOMO_LUMO_gap": 0.1844, 
			 "cosmo_polarized_energy": -11.51, 
			 "cosmo_cavitation_energy": 15.87, 
			 "cosmo_dispersion_energy": -11.85, 
			 "cosmo_repulsion_energy": 1.0, 
			 "cosmo_total_nonelectrostatic_energy": 5.02, 
			 "SMD_solvation_energy": 2.58 
		},
		"coords": [
			{
				"x": 0.4555396561,
				"y": 3.2449609696,
				"z": 0.0919026103,
				"element": "O" 
			},
			{
				"x": -0.1991490802,
				"y": 2.3770948104,
				"z": 0.6498427772,
				"element": "C" 
			},
			{
				"x": 0.1940435901,
				"y": 0.9729868359,
				"z": 0.646597501,
				"element": "C" 
			},
			{
				"x": -0.4435357926,
				"y": -0.0418434737,
				"z": 1.2192129715,
				"element": "N" 
			},
			{
				"x": 0.3101169872,
				"y": -1.1428851953,
				"z": 0.9389824002,
				"element": "C" 
			},
			{
				"x": 1.421446391,
				"y": -0.7972118181,
				"z": 0.1861986142,
				"element": "C" 
			},
			{
				"x": 1.3317190976,
				"y": 0.5525205189,
				"z": 0.0094020368,
				"element": "N" 
			},
			{
				"x": -1.1364618481,
				"y": 2.5893546779,
				"z": 1.1978608391,
				"element": "H" 
			},
			{
				"x": 0.0292476806,
				"y": -2.1283787277,
				"z": 1.2841091181,
				"element": "H" 
			},
			{
				"x": 2.2321956178,
				"y": -1.3837848825,
				"z": -0.2183716586,
				"element": "H" 
			},
			{
				"x": 1.9583377004,
				"y": 1.1699862846,
				"z": -0.4879372098,
				"element": "H" 
			}
		],
		 "valence_orbital": [ 
			{
				"type": "occ",
				"energy": -0.386,
				"method": "rhf"
			},
			{
				"type": "occ",
				"energy": -0.30355,
				"method": "rhf"
			},
			{
				"type": "occ",
				"energy": -0.28988,
				"method": "rhf"
			},
			{
				"type": "occ",
				"energy": -0.26532,
				"method": "rhf"
			},
			{
				"type": "occ",
				"energy": -0.24743,
				"method": "rhf"
			},
			{
				"type": "unocc",
				"energy": -0.06303,
				"method": "rhf"
			},
			{
				"type": "unocc",
				"energy": 0.03756,
				"method": "rhf"
			},
			{
				"type": "unocc",
				"energy": 0.07667,
				"method": "rhf"
			},
			{
				"type": "unocc",
				"energy": 0.08947,
				"method": "rhf"
			},
			{
				"type": "unocc",
				"energy": 0.12169,
				"method": "rhf"
			}
		],
		"cosmo_sigma_profile": { 
			"-0.025": 0.0,
			"-0.024": 0.0,
			"-0.023": 0.0,
			"-0.022": 0.0,
			"-0.021": 0.0,
			"-0.02": 0.0,
			"-0.019": 0.0,
			"-0.018": 0.0,
			"-0.017": 0.515999845003,
			"-0.016": 1.2733126957,
			"-0.015": 1.21162391702,
			"-0.014": 0.550110452467,
			"-0.013": 1.15477799024,
			"-0.012": 0.949158292051,
			"-0.011": 0.880537489386,
			"-0.01": 2.33350618849,
			"-0.009": 3.68644453472,
			"-0.008": 2.89702899784,
			"-0.007": 6.64670092058,
			"-0.006": 6.13467017044,
			"-0.005": 6.72561329653,
			"-0.004": 6.29613495835,
			"-0.003": 7.77975042985,
			"-0.002": 7.78177726947,
			"-0.001": 7.92541100192,
			"0.0": 6.85351924531,
			"0.001": 7.22688361338,
			"0.002": 6.94335442042,
			"0.003": 6.24811859992,
			"0.004": 4.34662027002,
			"0.005": 3.82433742556,
			"0.006": 2.1150204709,
			"0.007": 2.29260349277,
			"0.008": 4.0172208334,
			"0.009": 2.58918972805,
			"0.01": 3.68980617768,
			"0.011": 5.38156129903,
			"0.012": 3.06462684836,
			"0.013": 1.43098416623,
			"0.014": 0.959326736731,
			"0.015": 1.06929501862,
			"0.016": 0.954540160738,
			"0.017": 0.0897199448266,
			"0.018": 0.0,
			"0.019": 0.0,
			"0.02": 0.0,
			"0.021": 0.0,
			"0.022": 0.0,
			"0.023": 0.0,
			"0.024": 0.0,
			"0.025": 0.0
		}
	}
}
