{
	 "smiles": "CC(=O)NCC1=CC=CC=C1C(C1=CC=C(C)O1)C1=CC=C(C)O1", 
	 "Tm": 338.15, 
	 "num_atms": 45, 
	 "gaussian": { 
		 "optdone": 1, 
		 "sigma_profile": "yes", 
		 "theory": "DFT", 
		 "functional": "B3LYP", 
		 "basiset": "6-31G**", 
		 "properties": { 
			 "R2extent": 9084.5587, 
			 "electric_dipole_moment_norm": 3.77709790448, 
			 "electric_quadrupole_moment_norm": 20.9707645135, 
			 "total_energy": -1055.19871799, 
			 "HOMO_LUMO_gap": 0.20048, 
			 "cosmo_polarized_energy": -16.53, 
			 "cosmo_cavitation_energy": 49.26, 
			 "cosmo_dispersion_energy": -32.24, 
			 "cosmo_repulsion_energy": 2.56, 
			 "cosmo_total_nonelectrostatic_energy": 19.57, 
			 "SMD_solvation_energy": 9.27 
		},
		"coords": [
			{
				"x": 0.9768262687,
				"y": -5.3744171421,
				"z": -1.7072318319,
				"element": "C" 
			},
			{
				"x": 0.4749525104,
				"y": -4.1877896116,
				"z": -2.5162811863,
				"element": "C" 
			},
			{
				"x": 0.4757875112,
				"y": -4.195203327,
				"z": -3.7426369758,
				"element": "O" 
			},
			{
				"x": 0.0166820397,
				"y": -3.1276869051,
				"z": -1.7804915169,
				"element": "N" 
			},
			{
				"x": -0.3875785546,
				"y": -1.8728890322,
				"z": -2.4151729671,
				"element": "C" 
			},
			{
				"x": 0.7209185283,
				"y": -0.8318138648,
				"z": -2.457690287,
				"element": "C" 
			},
			{
				"x": 1.6389827944,
				"y": -0.8941287438,
				"z": -3.5159507066,
				"element": "C" 
			},
			{
				"x": 2.6843535359,
				"y": 0.0216211335,
				"z": -3.61973473,
				"element": "C" 
			},
			{
				"x": 2.8225399467,
				"y": 1.0197305194,
				"z": -2.6553442336,
				"element": "C" 
			},
			{
				"x": 1.9221710565,
				"y": 1.0852812508,
				"z": -1.5925459478,
				"element": "C" 
			},
			{
				"x": 0.872106283,
				"y": 0.1663735185,
				"z": -1.4739974845,
				"element": "C" 
			},
			{
				"x": -0.1124202169,
				"y": 0.2842602932,
				"z": -0.2984758435,
				"element": "C" 
			},
			{
				"x": -1.3023015874,
				"y": 1.1230876679,
				"z": -0.6763004591,
				"element": "C" 
			},
			{
				"x": -1.5455113334,
				"y": 2.0369023901,
				"z": -1.6578297579,
				"element": "C" 
			},
			{
				"x": -2.8900979322,
				"y": 2.497911799,
				"z": -1.4602250915,
				"element": "C" 
			},
			{
				"x": -3.3783914501,
				"y": 1.8325958771,
				"z": -0.3748658207,
				"element": "C" 
			},
			{
				"x": -4.6853162084,
				"y": 1.8419317942,
				"z": 0.337522439,
				"element": "C" 
			},
			{
				"x": -2.4166618437,
				"y": 0.9874463574,
				"z": 0.1142726052,
				"element": "O" 
			},
			{
				"x": 0.5260615323,
				"y": 0.778894135,
				"z": 0.970971722,
				"element": "C" 
			},
			{
				"x": 0.5186014017,
				"y": 1.9621402454,
				"z": 1.6458883454,
				"element": "C" 
			},
			{
				"x": 1.35318521,
				"y": 1.7769483234,
				"z": 2.799524811,
				"element": "C" 
			},
			{
				"x": 1.8117014736,
				"y": 0.4943226649,
				"z": 2.7518134633,
				"element": "C" 
			},
			{
				"x": 2.6987855989,
				"y": -0.3169601562,
				"z": 3.6294788048,
				"element": "C" 
			},
			{
				"x": 1.3105329498,
				"y": -0.1285455173,
				"z": 1.636747501,
				"element": "O" 
			},
			{
				"x": 2.0541366752,
				"y": -5.4797369666,
				"z": -1.8674077296,
				"element": "H" 
			},
			{
				"x": 0.7852087298,
				"y": -5.2904046148,
				"z": -0.6338302008,
				"element": "H" 
			},
			{
				"x": 0.5004061027,
				"y": -6.2813876306,
				"z": -2.0868462472,
				"element": "H" 
			},
			{
				"x": 0.1755662848,
				"y": -3.1295866043,
				"z": -0.7836938246,
				"element": "H" 
			},
			{
				"x": -0.6737954709,
				"y": -2.1392239498,
				"z": -3.43420516,
				"element": "H" 
			},
			{
				"x": -1.2801297675,
				"y": -1.4924789963,
				"z": -1.9121942284,
				"element": "H" 
			},
			{
				"x": 1.5233021977,
				"y": -1.6818377154,
				"z": -4.2551972459,
				"element": "H" 
			},
			{
				"x": 3.3831021842,
				"y": -0.0431648421,
				"z": -4.4489454418,
				"element": "H" 
			},
			{
				"x": 3.6296927475,
				"y": 1.743595732,
				"z": -2.7247185143,
				"element": "H" 
			},
			{
				"x": 2.0380351991,
				"y": 1.8519570468,
				"z": -0.8325462003,
				"element": "H" 
			},
			{
				"x": -0.490015417,
				"y": -0.7197443773,
				"z": -0.0651975193,
				"element": "H" 
			},
			{
				"x": -0.8528630305,
				"y": 2.3392392603,
				"z": -2.4290636924,
				"element": "H" 
			},
			{
				"x": -3.424536448,
				"y": 3.2258479219,
				"z": -2.0541208719,
				"element": "H" 
			},
			{
				"x": -5.362697631,
				"y": 2.5531095132,
				"z": -0.1408657212,
				"element": "H" 
			},
			{
				"x": -4.5686064395,
				"y": 2.1322914354,
				"z": 1.3880875747,
				"element": "H" 
			},
			{
				"x": -5.159528985,
				"y": 0.8536272334,
				"z": 0.3217559502,
				"element": "H" 
			},
			{
				"x": -0.0226358793,
				"y": 2.8523670697,
				"z": 1.3606354115,
				"element": "H" 
			},
			{
				"x": 1.5778688445,
				"y": 2.5045330187,
				"z": 3.5666577043,
				"element": "H" 
			},
			{
				"x": 3.5855023059,
				"y": -0.6698905038,
				"z": 3.0900086135,
				"element": "H" 
			},
			{
				"x": 3.0326833273,
				"y": 0.2862875378,
				"z": 4.4769101863,
				"element": "H" 
			},
			{
				"x": 2.1804949557,
				"y": -1.1999132376,
				"z": 4.0218323054,
				"element": "H" 
			}
		],
		 "valence_orbital": [ 
			{
				"type": "occ",
				"energy": -0.24474,
				"method": "rhf"
			},
			{
				"type": "occ",
				"energy": -0.24131,
				"method": "rhf"
			},
			{
				"type": "occ",
				"energy": -0.23719,
				"method": "rhf"
			},
			{
				"type": "occ",
				"energy": -0.21584,
				"method": "rhf"
			},
			{
				"type": "occ",
				"energy": -0.20675,
				"method": "rhf"
			},
			{
				"type": "unocc",
				"energy": -0.00627,
				"method": "rhf"
			},
			{
				"type": "unocc",
				"energy": -0.00126,
				"method": "rhf"
			},
			{
				"type": "unocc",
				"energy": 0.0154,
				"method": "rhf"
			},
			{
				"type": "unocc",
				"energy": 0.01803,
				"method": "rhf"
			},
			{
				"type": "unocc",
				"energy": 0.03575,
				"method": "rhf"
			}
		],
		"cosmo_sigma_profile": { 
			"-0.025": 0.0,
			"-0.024": 0.0,
			"-0.023": 0.0,
			"-0.022": 0.0,
			"-0.021": 0.0,
			"-0.02": 0.0,
			"-0.019": 0.0,
			"-0.018": 0.0,
			"-0.017": 0.0,
			"-0.016": 0.0,
			"-0.015": 0.0,
			"-0.014": 0.145230395955,
			"-0.013": 1.12997355041,
			"-0.012": 1.85682164743,
			"-0.011": 2.22358686663,
			"-0.01": 2.3715669776,
			"-0.009": 1.79845477692,
			"-0.008": 2.19311539674,
			"-0.007": 3.36438808155,
			"-0.006": 11.1104284201,
			"-0.005": 27.3294559254,
			"-0.004": 33.0532590884,
			"-0.003": 38.3093801021,
			"-0.002": 37.0259521113,
			"-0.001": 39.2506318951,
			"0.0": 31.9716110686,
			"0.001": 22.2155747443,
			"0.002": 24.9015778634,
			"0.003": 24.6424019987,
			"0.004": 23.0851329421,
			"0.005": 22.9794623793,
			"0.006": 14.8346367514,
			"0.007": 5.72927529124,
			"0.008": 4.45307770369,
			"0.009": 2.59072450428,
			"0.01": 1.12727125668,
			"0.011": 1.01365452245,
			"0.012": 1.34063586799,
			"0.013": 2.44297525331,
			"0.014": 4.21882815594,
			"0.015": 1.95771435874,
			"0.016": 0.263197825217,
			"0.017": 0.0,
			"0.018": 0.0,
			"0.019": 0.0,
			"0.02": 0.0,
			"0.021": 0.0,
			"0.022": 0.0,
			"0.023": 0.0,
			"0.024": 0.0,
			"0.025": 0.0
		}
	}
}
