{
	 "smiles": "IC1=CC=C(CN2C=CC=N2)C=C1", 
	 "Tm": 353.65, 
	 "num_atms": 22, 
	 "gaussian": { 
		 "optdone": 1, 
		 "sigma_profile": "no", 
		 "theory": "DFT", 
		 "functional": "B3LYP", 
		 "basiset": "6-31G**", 
		 "properties": { 
			 "R2extent": 4054.2904, 
			 "electric_dipole_moment_norm": 2.32473560862, 
			 "electric_quadrupole_moment_norm": 11.3322862892, 
			 "total_energy": -507.352252125, 
			 "HOMO_LUMO_gap": 0.19948, 
			 "cosmo_polarized_energy": -105822.42, 
			 "cosmo_cavitation_energy": 29.55, 
			 "cosmo_dispersion_energy": -22.67, 
			 "cosmo_repulsion_energy": 1.76, 
			 "cosmo_total_nonelectrostatic_energy": 8.64, 
			 "SMD_solvation_energy": 3.78 
		},
		"coords": [
			{
				"x": -1.8925052695,
				"y": 1.8142057231,
				"z": 6.4272850058,
				"element": "I" 
			},
			{
				"x": -1.5824838287,
				"y": 1.0276620842,
				"z": 4.4809477452,
				"element": "C" 
			},
			{
				"x": -1.7360887067,
				"y": 1.8592334723,
				"z": 3.3683762713,
				"element": "C" 
			},
			{
				"x": -1.5323477299,
				"y": 1.3375807514,
				"z": 2.0918503134,
				"element": "C" 
			},
			{
				"x": -1.1713959053,
				"y": -0.0043839691,
				"z": 1.9154100958,
				"element": "C" 
			},
			{
				"x": -0.9765903599,
				"y": -0.5753284463,
				"z": 0.5212648135,
				"element": "C" 
			},
			{
				"x": -0.1023848039,
				"y": 0.2241893739,
				"z": -0.3263867282,
				"element": "N" 
			},
			{
				"x": 1.2568285852,
				"y": 0.2034056602,
				"z": -0.3851385374,
				"element": "C" 
			},
			{
				"x": 1.6348432399,
				"y": 1.2048215663,
				"z": -1.2589627318,
				"element": "C" 
			},
			{
				"x": 0.4171487895,
				"y": 1.7875139718,
				"z": -1.6720700085,
				"element": "C" 
			},
			{
				"x": -0.6348439668,
				"y": 1.1958844191,
				"z": -1.104474272,
				"element": "N" 
			},
			{
				"x": -1.0197190207,
				"y": -0.816659469,
				"z": 3.0422041986,
				"element": "C" 
			},
			{
				"x": -1.2259290891,
				"y": -0.311481142,
				"z": 4.328449491,
				"element": "C" 
			},
			{
				"x": -2.0129519469,
				"y": 2.9001919277,
				"z": 3.4920413451,
				"element": "H" 
			},
			{
				"x": -1.6465551849,
				"y": 1.9767170354,
				"z": 1.2211555019,
				"element": "H" 
			},
			{
				"x": -1.9321007702,
				"y": -0.6357655435,
				"z": -0.0076113246,
				"element": "H" 
			},
			{
				"x": -0.5648367233,
				"y": -1.5870502547,
				"z": 0.5819310137,
				"element": "H" 
			},
			{
				"x": 1.8355537106,
				"y": -0.5094170998,
				"z": 0.1843507203,
				"element": "H" 
			},
			{
				"x": 2.6382000411,
				"y": 1.4661572644,
				"z": -1.5600716695,
				"element": "H" 
			},
			{
				"x": 0.2607894672,
				"y": 2.6041454009,
				"z": -2.3643167642,
				"element": "H" 
			},
			{
				"x": -0.73726665,
				"y": -1.8601900917,
				"z": 2.9243484837,
				"element": "H" 
			},
			{
				"x": -1.1031638778,
				"y": -0.9544326346,
				"z": 5.1927170369,
				"element": "H" 
			}
		],
		 "valence_orbital": [ 
			{
				"type": "occ",
				"energy": -0.26903,
				"method": "rhf"
			},
			{
				"type": "occ",
				"energy": -0.267,
				"method": "rhf"
			},
			{
				"type": "occ",
				"energy": -0.25208,
				"method": "rhf"
			},
			{
				"type": "occ",
				"energy": -0.24614,
				"method": "rhf"
			},
			{
				"type": "occ",
				"energy": -0.23877,
				"method": "rhf"
			},
			{
				"type": "unocc",
				"energy": -0.03929,
				"method": "rhf"
			},
			{
				"type": "unocc",
				"energy": -0.02451,
				"method": "rhf"
			},
			{
				"type": "unocc",
				"energy": -0.01812,
				"method": "rhf"
			},
			{
				"type": "unocc",
				"energy": 0.01622,
				"method": "rhf"
			},
			{
				"type": "unocc",
				"energy": 0.04298,
				"method": "rhf"
			}
		],
		"cosmo_sigma_profile": { 
			"0.0": 0.0,
			"0.0": 0.0,
			"0.0": 0.0,
			"0.0": 0.0,
			"0.0": 0.0,
			"0.0": 0.0,
			"0.0": 0.0,
			"0.0": 0.0,
			"0.0": 0.0,
			"0.0": 0.0,
			"0.0": 0.0,
			"0.0": 0.0,
			"0.0": 0.0,
			"0.0": 0.0,
			"0.0": 0.0,
			"0.0": 0.0,
			"0.0": 0.0,
			"0.0": 0.0,
			"0.0": 0.0,
			"0.0": 0.0,
			"0.0": 0.0,
			"0.0": 0.0,
			"0.0": 0.0,
			"0.0": 0.0,
			"0.0": 0.0,
			"0.0": 0.0,
			"0.0": 0.0,
			"0.0": 0.0,
			"0.0": 0.0,
			"0.0": 0.0,
			"0.0": 0.0,
			"0.0": 0.0,
			"0.0": 0.0,
			"0.0": 0.0,
			"0.0": 0.0,
			"0.0": 0.0,
			"0.0": 0.0,
			"0.0": 0.0,
			"0.0": 0.0,
			"0.0": 0.0,
			"0.0": 0.0,
			"0.0": 0.0,
			"0.0": 0.0,
			"0.0": 0.0,
			"0.0": 0.0,
			"0.0": 0.0,
			"0.0": 0.0,
			"0.0": 0.0,
			"0.0": 0.0,
			"0.0": 0.0,
			"0.0": 0.0
		}
	}
}
