{
	 "smiles": "FC1=CC(=CC=C1)C(=O)NC1CCN(CC2=CC=CC=C2)CC1", 
	 "Tm": 417.15, 
	 "num_atms": 44, 
	 "gaussian": { 
		 "optdone": 1, 
		 "sigma_profile": "yes", 
		 "theory": "DFT", 
		 "functional": "B3LYP", 
		 "basiset": "6-31G**", 
		 "properties": { 
			 "R2extent": 12733.6434, 
			 "electric_dipole_moment_norm": 4.26806075988, 
			 "electric_quadrupole_moment_norm": 20.2309082248, 
			 "total_energy": -1021.24358772, 
			 "HOMO_LUMO_gap": 0.17372, 
			 "cosmo_polarized_energy": -15.03, 
			 "cosmo_cavitation_energy": 46.72, 
			 "cosmo_dispersion_energy": -32.04, 
			 "cosmo_repulsion_energy": 2.42, 
			 "cosmo_total_nonelectrostatic_energy": 17.09, 
			 "SMD_solvation_energy": 6.46 
		},
		"coords": [
			{
				"x": 6.9938502837,
				"y": 0.3129917446,
				"z": 1.5760817854,
				"element": "F" 
			},
			{
				"x": 5.8023861829,
				"y": -0.2699466889,
				"z": 1.8209104711,
				"element": "C" 
			},
			{
				"x": 4.66065381,
				"y": 0.5177593545,
				"z": 1.8401498491,
				"element": "C" 
			},
			{
				"x": 3.4215935058,
				"y": -0.0910368122,
				"z": 2.073694024,
				"element": "C" 
			},
			{
				"x": 3.360539681,
				"y": -1.4698305586,
				"z": 2.3227278957,
				"element": "C" 
			},
			{
				"x": 4.5280282322,
				"y": -2.235484396,
				"z": 2.3163325382,
				"element": "C" 
			},
			{
				"x": 5.762824321,
				"y": -1.6416072859,
				"z": 2.054099787,
				"element": "C" 
			},
			{
				"x": 2.2171283273,
				"y": 0.8087403875,
				"z": 2.1550612082,
				"element": "C" 
			},
			{
				"x": 2.3027179259,
				"y": 1.9153212843,
				"z": 2.6785179047,
				"element": "O" 
			},
			{
				"x": 1.010055255,
				"y": 0.3339726144,
				"z": 1.6886067717,
				"element": "N" 
			},
			{
				"x": 0.7755379487,
				"y": -0.5725475803,
				"z": 0.5577581993,
				"element": "C" 
			},
			{
				"x": 0.5064948304,
				"y": 0.1896288738,
				"z": -0.7699549112,
				"element": "C" 
			},
			{
				"x": -0.9977288329,
				"y": 0.3854424874,
				"z": -0.9993414637,
				"element": "C" 
			},
			{
				"x": -1.7322225132,
				"y": -0.8931407876,
				"z": -1.1112617458,
				"element": "N" 
			},
			{
				"x": -2.0861201536,
				"y": -1.2589182168,
				"z": -2.4803643529,
				"element": "C" 
			},
			{
				"x": -3.1110136595,
				"y": -0.3331525522,
				"z": -3.1107814068,
				"element": "C" 
			},
			{
				"x": -4.2175454353,
				"y": 0.1129286965,
				"z": -2.3747827717,
				"element": "C" 
			},
			{
				"x": -5.1842876857,
				"y": 0.9236478329,
				"z": -2.9681458146,
				"element": "C" 
			},
			{
				"x": -5.0610810295,
				"y": 1.3005877935,
				"z": -4.3083906238,
				"element": "C" 
			},
			{
				"x": -3.9618485962,
				"y": 0.8643072744,
				"z": -5.048287591,
				"element": "C" 
			},
			{
				"x": -2.9925150058,
				"y": 0.0557712608,
				"z": -4.4497809157,
				"element": "C" 
			},
			{
				"x": -1.0816513928,
				"y": -2.0052165742,
				"z": -0.4062787071,
				"element": "C" 
			},
			{
				"x": -0.4116580355,
				"y": -1.511414548,
				"z": 0.8758318519,
				"element": "C" 
			},
			{
				"x": 4.7257226691,
				"y": 1.5889931553,
				"z": 1.689163976,
				"element": "H" 
			},
			{
				"x": 2.4079918371,
				"y": -1.9351662874,
				"z": 2.5534162957,
				"element": "H" 
			},
			{
				"x": 4.4786401972,
				"y": -3.3004148062,
				"z": 2.5226305305,
				"element": "H" 
			},
			{
				"x": 6.6835754745,
				"y": -2.2145857023,
				"z": 2.0376568168,
				"element": "H" 
			},
			{
				"x": 0.2817249341,
				"y": 1.0253615363,
				"z": 1.8393963797,
				"element": "H" 
			},
			{
				"x": 1.6828670375,
				"y": -1.1654822993,
				"z": 0.4340533141,
				"element": "H" 
			},
			{
				"x": 1.0266364769,
				"y": 1.1532777403,
				"z": -0.7572872967,
				"element": "H" 
			},
			{
				"x": 0.9266341463,
				"y": -0.3832210705,
				"z": -1.605591224,
				"element": "H" 
			},
			{
				"x": -1.1759347819,
				"y": 0.9715197273,
				"z": -1.9047654243,
				"element": "H" 
			},
			{
				"x": -1.4198957603,
				"y": 0.9765683391,
				"z": -0.1733226613,
				"element": "H" 
			},
			{
				"x": -1.2016044905,
				"y": -1.3297594095,
				"z": -3.144266691,
				"element": "H" 
			},
			{
				"x": -2.507164534,
				"y": -2.2731514934,
				"z": -2.4378775755,
				"element": "H" 
			},
			{
				"x": -4.3003236363,
				"y": -0.1747656375,
				"z": -1.3310373806,
				"element": "H" 
			},
			{
				"x": -6.035917678,
				"y": 1.2631022495,
				"z": -2.3847595875,
				"element": "H" 
			},
			{
				"x": -5.8141228749,
				"y": 1.9332668475,
				"z": -4.7696363079,
				"element": "H" 
			},
			{
				"x": -3.8532408186,
				"y": 1.1576596226,
				"z": -6.0887844866,
				"element": "H" 
			},
			{
				"x": -2.1342254167,
				"y": -0.2768575452,
				"z": -5.029378017,
				"element": "H" 
			},
			{
				"x": -0.3205949179,
				"y": -2.5095748521,
				"z": -1.0353193571,
				"element": "H" 
			},
			{
				"x": -1.8394550582,
				"y": -2.7637432077,
				"z": -0.1741132604,
				"element": "H" 
			},
			{
				"x": -1.1550810061,
				"y": -0.9701538743,
				"z": 1.4736699189,
				"element": "H" 
			},
			{
				"x": -0.0763697633,
				"y": -2.3571766364,
				"z": 1.484850056,
				"element": "H" 
			}
		],
		 "valence_orbital": [ 
			{
				"type": "occ",
				"energy": -0.25142,
				"method": "rhf"
			},
			{
				"type": "occ",
				"energy": -0.24861,
				"method": "rhf"
			},
			{
				"type": "occ",
				"energy": -0.24361,
				"method": "rhf"
			},
			{
				"type": "occ",
				"energy": -0.24154,
				"method": "rhf"
			},
			{
				"type": "occ",
				"energy": -0.21153,
				"method": "rhf"
			},
			{
				"type": "unocc",
				"energy": -0.03781,
				"method": "rhf"
			},
			{
				"type": "unocc",
				"energy": -0.00941,
				"method": "rhf"
			},
			{
				"type": "unocc",
				"energy": -0.00293,
				"method": "rhf"
			},
			{
				"type": "unocc",
				"energy": 0.00021,
				"method": "rhf"
			},
			{
				"type": "unocc",
				"energy": 0.04609,
				"method": "rhf"
			}
		],
		"cosmo_sigma_profile": { 
			"-0.025": 0.0,
			"-0.024": 0.0,
			"-0.023": 0.0,
			"-0.022": 0.0,
			"-0.021": 0.0,
			"-0.02": 0.0,
			"-0.019": 0.0,
			"-0.018": 0.0,
			"-0.017": 0.0,
			"-0.016": 0.0,
			"-0.015": 0.0,
			"-0.014": 0.0,
			"-0.013": 0.0,
			"-0.012": 0.305960194717,
			"-0.011": 1.05459301772,
			"-0.01": 1.53456492038,
			"-0.009": 1.81752114627,
			"-0.008": 1.93117923332,
			"-0.007": 5.53828674833,
			"-0.006": 10.3684465435,
			"-0.005": 18.8512570275,
			"-0.004": 30.3607043652,
			"-0.003": 44.9033268534,
			"-0.002": 42.1111184288,
			"-0.001": 36.13701522,
			"0.0": 30.9651757743,
			"0.001": 22.9810199121,
			"0.002": 23.4020284835,
			"0.003": 22.9917836996,
			"0.004": 24.0851797676,
			"0.005": 13.732616664,
			"0.006": 10.3191115902,
			"0.007": 5.46324089691,
			"0.008": 2.75989162552,
			"0.009": 1.89003376925,
			"0.01": 1.8339440832,
			"0.011": 2.10357193506,
			"0.012": 2.07584915498,
			"0.013": 4.67851241909,
			"0.014": 4.17032934522,
			"0.015": 0.290747823164,
			"0.016": 0.0,
			"0.017": 0.0,
			"0.018": 0.0,
			"0.019": 0.0,
			"0.02": 0.0,
			"0.021": 0.0,
			"0.022": 0.0,
			"0.023": 0.0,
			"0.024": 0.0,
			"0.025": 0.0
		}
	}
}
