{
	 "smiles": "CN1C=CC=C(C(O)=O)C1=O", 
	 "Tm": 459.15, 
	 "num_atms": 18, 
	 "gaussian": { 
		 "optdone": 1, 
		 "sigma_profile": "yes", 
		 "theory": "DFT", 
		 "functional": "B3LYP", 
		 "basiset": "6-31G**", 
		 "properties": { 
			 "R2extent": 1743.7642, 
			 "electric_dipole_moment_norm": 8.17144258133, 
			 "electric_quadrupole_moment_norm": 7.23913911664, 
			 "total_energy": -551.413272239, 
			 "HOMO_LUMO_gap": 0.16784, 
			 "cosmo_polarized_energy": -17.4, 
			 "cosmo_cavitation_energy": 22.03, 
			 "cosmo_dispersion_energy": -16.78, 
			 "cosmo_repulsion_energy": 1.32, 
			 "cosmo_total_nonelectrostatic_energy": 6.57, 
			 "SMD_solvation_energy": 5.99 
		},
		"coords": [
			{
				"x": 0.6169308785,
				"y": -1.4308408913,
				"z": -2.1369752637,
				"element": "C" 
			},
			{
				"x": 0.6794725645,
				"y": -0.5828049379,
				"z": -0.9379227108,
				"element": "N" 
			},
			{
				"x": 1.8810677932,
				"y": -0.3841689355,
				"z": -0.322261225,
				"element": "C" 
			},
			{
				"x": 2.0025704021,
				"y": 0.3937902836,
				"z": 0.7957805275,
				"element": "C" 
			},
			{
				"x": 0.8379751665,
				"y": 1.002666538,
				"z": 1.3154611718,
				"element": "C" 
			},
			{
				"x": -0.3851099587,
				"y": 0.8203776678,
				"z": 0.716472484,
				"element": "C" 
			},
			{
				"x": -1.5914916428,
				"y": 1.4971140338,
				"z": 1.3187858188,
				"element": "C" 
			},
			{
				"x": -2.7551765409,
				"y": 1.2880211037,
				"z": 0.69851412,
				"element": "O" 
			},
			{
				"x": -1.4950753419,
				"y": 2.1901499738,
				"z": 2.3114294057,
				"element": "O" 
			},
			{
				"x": -0.5137103114,
				"y": -0.0038438722,
				"z": -0.4679775452,
				"element": "C" 
			},
			{
				"x": -1.5851831094,
				"y": -0.2188985235,
				"z": -1.0693743657,
				"element": "O" 
			},
			{
				"x": -0.4183023823,
				"y": -1.4588643462,
				"z": -2.4688918766,
				"element": "H" 
			},
			{
				"x": 0.9560861736,
				"y": -2.4419084173,
				"z": -1.8970965116,
				"element": "H" 
			},
			{
				"x": 1.2468674589,
				"y": -1.0099997567,
				"z": -2.9249410286,
				"element": "H" 
			},
			{
				"x": 2.7264450822,
				"y": -0.8851573259,
				"z": -0.7816810545,
				"element": "H" 
			},
			{
				"x": 2.9719168828,
				"y": 0.529744425,
				"z": 1.2586391047,
				"element": "H" 
			},
			{
				"x": 0.8730796531,
				"y": 1.6308459458,
				"z": 2.2004409393,
				"element": "H" 
			},
			{
				"x": -2.5933627679,
				"y": 0.6950770351,
				"z": -0.0821019903,
				"element": "H" 
			}
		],
		 "valence_orbital": [ 
			{
				"type": "occ",
				"energy": -0.317,
				"method": "rhf"
			},
			{
				"type": "occ",
				"energy": -0.28975,
				"method": "rhf"
			},
			{
				"type": "occ",
				"energy": -0.28504,
				"method": "rhf"
			},
			{
				"type": "occ",
				"energy": -0.25892,
				"method": "rhf"
			},
			{
				"type": "occ",
				"energy": -0.24423,
				"method": "rhf"
			},
			{
				"type": "unocc",
				"energy": -0.07639,
				"method": "rhf"
			},
			{
				"type": "unocc",
				"energy": -0.01675,
				"method": "rhf"
			},
			{
				"type": "unocc",
				"energy": 0.0394,
				"method": "rhf"
			},
			{
				"type": "unocc",
				"energy": 0.0688,
				"method": "rhf"
			},
			{
				"type": "unocc",
				"energy": 0.09249,
				"method": "rhf"
			}
		],
		"cosmo_sigma_profile": { 
			"-0.025": 0.0,
			"-0.024": 0.0,
			"-0.023": 0.0,
			"-0.022": 0.0,
			"-0.021": 0.0,
			"-0.02": 0.0,
			"-0.019": 0.0,
			"-0.018": 0.0,
			"-0.017": 0.0,
			"-0.016": 0.0,
			"-0.015": 0.0,
			"-0.014": 0.0,
			"-0.013": 0.0,
			"-0.012": 0.0,
			"-0.011": 0.378509653744,
			"-0.01": 2.84222206727,
			"-0.009": 3.2538597873,
			"-0.008": 5.88621504306,
			"-0.007": 11.4843386079,
			"-0.006": 10.1258131168,
			"-0.005": 10.8634561964,
			"-0.004": 13.6406228068,
			"-0.003": 18.738274341,
			"-0.002": 13.12551987,
			"-0.001": 10.9576455991,
			"0.0": 11.739732946,
			"0.001": 8.96024542304,
			"0.002": 5.47356974609,
			"0.003": 3.35390499326,
			"0.004": 3.77940005827,
			"0.005": 3.16771128653,
			"0.006": 3.7721970181,
			"0.007": 2.95847487302,
			"0.008": 4.02845710454,
			"0.009": 4.41908251229,
			"0.01": 4.67932313916,
			"0.011": 7.41174714424,
			"0.012": 6.62948785722,
			"0.013": 3.64177588052,
			"0.014": 1.34881560667,
			"0.015": 0.0236857616153,
			"0.016": 0.0,
			"0.017": 0.0,
			"0.018": 0.0,
			"0.019": 0.0,
			"0.02": 0.0,
			"0.021": 0.0,
			"0.022": 0.0,
			"0.023": 0.0,
			"0.024": 0.0,
			"0.025": 0.0
		}
	}
}
