{
	 "smiles": "FC1=C(C=O)C=CC(Cl)=C1", 
	 "Tm": 332.15, 
	 "num_atms": 14, 
	 "gaussian": { 
		 "optdone": 1, 
		 "sigma_profile": "yes", 
		 "theory": "DFT", 
		 "functional": "B3LYP", 
		 "basiset": "6-31G**", 
		 "properties": { 
			 "R2extent": 2239.3565, 
			 "electric_dipole_moment_norm": 3.07865505375, 
			 "electric_quadrupole_moment_norm": 14.6679768244, 
			 "total_energy": -904.390631455, 
			 "HOMO_LUMO_gap": 0.1849, 
			 "cosmo_polarized_energy": -8.66, 
			 "cosmo_cavitation_energy": 21.33, 
			 "cosmo_dispersion_energy": -15.68, 
			 "cosmo_repulsion_energy": 1.25, 
			 "cosmo_total_nonelectrostatic_energy": 6.89, 
			 "SMD_solvation_energy": 4.96 
		},
		"coords": [
			{
				"x": -1.589396039,
				"y": 0.321291684,
				"z": -1.3559169079,
				"element": "F" 
			},
			{
				"x": -0.7917061898,
				"y": 0.7448569819,
				"z": -0.3718809632,
				"element": "C" 
			},
			{
				"x": -0.2445371273,
				"y": 2.0380404573,
				"z": -0.4124276574,
				"element": "C" 
			},
			{
				"x": -0.495940277,
				"y": 3.0040050305,
				"z": -1.5070585473,
				"element": "C" 
			},
			{
				"x": -1.1868570259,
				"y": 2.8147349385,
				"z": -2.4863222027,
				"element": "O" 
			},
			{
				"x": 0.585767265,
				"y": 2.4222127002,
				"z": 0.652257855,
				"element": "C" 
			},
			{
				"x": 0.8664397453,
				"y": 1.5692315009,
				"z": 1.7135529072,
				"element": "C" 
			},
			{
				"x": 0.298569888,
				"y": 0.2924944088,
				"z": 1.7090064387,
				"element": "C" 
			},
			{
				"x": 0.6339061369,
				"y": -0.8025073063,
				"z": 3.0311298476,
				"element": "Cl" 
			},
			{
				"x": -0.5324695916,
				"y": -0.1337607294,
				"z": 0.6731604895,
				"element": "C" 
			},
			{
				"x": 0.0284137198,
				"y": 3.9751043687,
				"z": -1.3550330823,
				"element": "H" 
			},
			{
				"x": 1.0183135548,
				"y": 3.4196003853,
				"z": 0.6379809168,
				"element": "H" 
			},
			{
				"x": 1.509062162,
				"y": 1.8780305413,
				"z": 2.5293869388,
				"element": "H" 
			},
			{
				"x": -0.9740662212,
				"y": -1.1227349616,
				"z": 0.666863967,
				"element": "H" 
			}
		],
		 "valence_orbital": [ 
			{
				"type": "occ",
				"energy": -0.34449,
				"method": "rhf"
			},
			{
				"type": "occ",
				"energy": -0.33284,
				"method": "rhf"
			},
			{
				"type": "occ",
				"energy": -0.28099,
				"method": "rhf"
			},
			{
				"type": "occ",
				"energy": -0.26723,
				"method": "rhf"
			},
			{
				"type": "occ",
				"energy": -0.26154,
				"method": "rhf"
			},
			{
				"type": "unocc",
				"energy": -0.07664,
				"method": "rhf"
			},
			{
				"type": "unocc",
				"energy": -0.03129,
				"method": "rhf"
			},
			{
				"type": "unocc",
				"energy": 0.00952,
				"method": "rhf"
			},
			{
				"type": "unocc",
				"energy": 0.02047,
				"method": "rhf"
			},
			{
				"type": "unocc",
				"energy": 0.09837,
				"method": "rhf"
			}
		],
		"cosmo_sigma_profile": { 
			"-0.025": 0.0,
			"-0.024": 0.0,
			"-0.023": 0.0,
			"-0.022": 0.0,
			"-0.021": 0.0,
			"-0.02": 0.0,
			"-0.019": 0.0,
			"-0.018": 0.0,
			"-0.017": 0.0,
			"-0.016": 0.0,
			"-0.015": 0.0,
			"-0.014": 0.0,
			"-0.013": 0.0,
			"-0.012": 0.0,
			"-0.011": 0.0,
			"-0.01": 0.139737052618,
			"-0.009": 3.15765092019,
			"-0.008": 7.6060207942,
			"-0.007": 7.70605009183,
			"-0.006": 7.59944137241,
			"-0.005": 6.49080561357,
			"-0.004": 7.7493124327,
			"-0.003": 8.6730028035,
			"-0.002": 14.0865488103,
			"-0.001": 16.6905707429,
			"0.0": 21.1666537556,
			"0.001": 14.3576719386,
			"0.002": 10.9277988214,
			"0.003": 15.569397797,
			"0.004": 10.8978908708,
			"0.005": 2.0255010263,
			"0.006": 1.85182400429,
			"0.007": 2.15319364635,
			"0.008": 2.36959927954,
			"0.009": 2.26467969653,
			"0.01": 3.51996080751,
			"0.011": 4.86348642642,
			"0.012": 2.44546903268,
			"0.013": 0.279402188818,
			"0.014": 0.0,
			"0.015": 0.0,
			"0.016": 0.0,
			"0.017": 0.0,
			"0.018": 0.0,
			"0.019": 0.0,
			"0.02": 0.0,
			"0.021": 0.0,
			"0.022": 0.0,
			"0.023": 0.0,
			"0.024": 0.0,
			"0.025": 0.0
		}
	}
}
