{
	 "smiles": "CC(C)C1=NC(=NN1)C1=C2C=CC=NC2=CC=C1", 
	 "Tm": 417.15, 
	 "num_atms": 32, 
	 "gaussian": { 
		 "optdone": 1, 
		 "sigma_profile": "yes", 
		 "theory": "DFT", 
		 "functional": "B3LYP", 
		 "basiset": "6-31G**", 
		 "properties": { 
			 "R2extent": 5590.46, 
			 "electric_dipole_moment_norm": 5.57817733135, 
			 "electric_quadrupole_moment_norm": 11.7837263936, 
			 "total_energy": -760.949215011, 
			 "HOMO_LUMO_gap": 0.16116, 
			 "cosmo_polarized_energy": -14.57, 
			 "cosmo_cavitation_energy": 35.46, 
			 "cosmo_dispersion_energy": -25.6, 
			 "cosmo_repulsion_energy": 1.97, 
			 "cosmo_total_nonelectrostatic_energy": 11.83, 
			 "SMD_solvation_energy": 2.76 
		},
		"coords": [
			{
				"x": -1.0815002072,
				"y": -4.243248756,
				"z": -1.0690236447,
				"element": "C" 
			},
			{
				"x": -2.3317348962,
				"y": -3.3436362243,
				"z": -1.0560127431,
				"element": "C" 
			},
			{
				"x": -2.5905253377,
				"y": -2.7207694711,
				"z": -2.4405708691,
				"element": "C" 
			},
			{
				"x": -2.2021750627,
				"y": -2.2717450671,
				"z": -0.0099108849,
				"element": "C" 
			},
			{
				"x": -1.2952291091,
				"y": -1.3088560163,
				"z": 0.0314941594,
				"element": "N" 
			},
			{
				"x": -1.6012667375,
				"y": -0.6014569668,
				"z": 1.1677056881,
				"element": "C" 
			},
			{
				"x": -2.6555595843,
				"y": -1.0878827457,
				"z": 1.8279058382,
				"element": "N" 
			},
			{
				"x": -3.0184287818,
				"y": -2.141756462,
				"z": 1.0610399338,
				"element": "N" 
			},
			{
				"x": -0.8873988302,
				"y": 0.5957280756,
				"z": 1.6628193469,
				"element": "C" 
			},
			{
				"x": 0.3383139915,
				"y": 1.0935560004,
				"z": 1.0968730035,
				"element": "C" 
			},
			{
				"x": 1.0251789448,
				"y": 0.5104703948,
				"z": -0.0045117905,
				"element": "C" 
			},
			{
				"x": 2.1954629814,
				"y": 1.0774138628,
				"z": -0.4532281419,
				"element": "C" 
			},
			{
				"x": 2.6945016562,
				"y": 2.2333949333,
				"z": 0.1906152766,
				"element": "C" 
			},
			{
				"x": 2.1018185287,
				"y": 2.8133810348,
				"z": 1.2130399607,
				"element": "N" 
			},
			{
				"x": 0.9384431764,
				"y": 2.2647460652,
				"z": 1.6757699873,
				"element": "C" 
			},
			{
				"x": 0.323621853,
				"y": 2.9066623795,
				"z": 2.7809181386,
				"element": "C" 
			},
			{
				"x": -0.8475326706,
				"y": 2.4104192971,
				"z": 3.3033253703,
				"element": "C" 
			},
			{
				"x": -1.4458601317,
				"y": 1.2636805173,
				"z": 2.7446901829,
				"element": "C" 
			},
			{
				"x": -1.1864452744,
				"y": -5.029628873,
				"z": -1.8231561286,
				"element": "H" 
			},
			{
				"x": -0.1921191372,
				"y": -3.6525237498,
				"z": -1.3060054055,
				"element": "H" 
			},
			{
				"x": -0.9211222303,
				"y": -4.7197226746,
				"z": -0.0970548529,
				"element": "H" 
			},
			{
				"x": -3.1996122675,
				"y": -3.9614896017,
				"z": -0.7858597561,
				"element": "H" 
			},
			{
				"x": -2.6915455352,
				"y": -3.5046828622,
				"z": -3.1977899232,
				"element": "H" 
			},
			{
				"x": -1.7590506827,
				"y": -2.0692310419,
				"z": -2.7235979879,
				"element": "H" 
			},
			{
				"x": -3.5054576963,
				"y": -2.120537764,
				"z": -2.4442484147,
				"element": "H" 
			},
			{
				"x": -3.8075874986,
				"y": -2.7101004743,
				"z": 1.3312231727,
				"element": "H" 
			},
			{
				"x": 0.608535433,
				"y": -0.3687307703,
				"z": -0.47739563,
				"element": "H" 
			},
			{
				"x": 2.7359134069,
				"y": 0.6493393452,
				"z": -1.2922308026,
				"element": "H" 
			},
			{
				"x": 3.620212872,
				"y": 2.6919864631,
				"z": -0.1574552762,
				"element": "H" 
			},
			{
				"x": 0.8122767727,
				"y": 3.7878672712,
				"z": 3.1830620509,
				"element": "H" 
			},
			{
				"x": -1.3231070936,
				"y": 2.8988393092,
				"z": 4.1488542932,
				"element": "H" 
			},
			{
				"x": -2.3703208519,
				"y": 0.8838145714,
				"z": 3.1647158489,
				"element": "H" 
			}
		],
		 "valence_orbital": [ 
			{
				"type": "occ",
				"energy": -0.27684,
				"method": "rhf"
			},
			{
				"type": "occ",
				"energy": -0.26748,
				"method": "rhf"
			},
			{
				"type": "occ",
				"energy": -0.24207,
				"method": "rhf"
			},
			{
				"type": "occ",
				"energy": -0.24168,
				"method": "rhf"
			},
			{
				"type": "occ",
				"energy": -0.21173,
				"method": "rhf"
			},
			{
				"type": "unocc",
				"energy": -0.05057,
				"method": "rhf"
			},
			{
				"type": "unocc",
				"energy": -0.0069,
				"method": "rhf"
			},
			{
				"type": "unocc",
				"energy": -0.00011,
				"method": "rhf"
			},
			{
				"type": "unocc",
				"energy": 0.02176,
				"method": "rhf"
			},
			{
				"type": "unocc",
				"energy": 0.061,
				"method": "rhf"
			}
		],
		"cosmo_sigma_profile": { 
			"-0.025": 0.0,
			"-0.024": 0.0,
			"-0.023": 0.0,
			"-0.022": 0.0,
			"-0.021": 0.0,
			"-0.02": 0.0,
			"-0.019": 0.0,
			"-0.018": 0.136123766983,
			"-0.017": 1.55821027619,
			"-0.016": 1.2400318484,
			"-0.015": 1.02176573159,
			"-0.014": 1.2987279961,
			"-0.013": 1.21583996311,
			"-0.012": 1.54249004619,
			"-0.011": 1.14988483911,
			"-0.01": 0.79539932975,
			"-0.009": 1.30159150977,
			"-0.008": 1.03478312134,
			"-0.007": 2.42090806537,
			"-0.006": 10.1397647202,
			"-0.005": 12.2074382673,
			"-0.004": 18.9280727728,
			"-0.003": 25.2993644655,
			"-0.002": 20.3821396261,
			"-0.001": 21.7390129411,
			"0.0": 25.6342543533,
			"0.001": 26.0015644803,
			"0.002": 31.3614281396,
			"0.003": 25.0100332699,
			"0.004": 16.2471283015,
			"0.005": 7.77370565105,
			"0.006": 6.34324935738,
			"0.007": 4.128243566,
			"0.008": 4.17374118099,
			"0.009": 2.74883406467,
			"0.01": 2.87652127164,
			"0.011": 1.42750317177,
			"0.012": 1.79760441696,
			"0.013": 1.72179435089,
			"0.014": 0.824314465193,
			"0.015": 0.478636533076,
			"0.016": 0.777068755121,
			"0.017": 0.0677191307594,
			"0.018": 0.0,
			"0.019": 0.0,
			"0.02": 0.0,
			"0.021": 0.0,
			"0.022": 0.0,
			"0.023": 0.0,
			"0.024": 0.0,
			"0.025": 0.0
		}
	}
}
