{
	 "smiles": "CCOC(=O)C1=C(C)N=C(S1)C1CCN(CC1)C(=O)OC(C)(C)C", 
	 "Tm": 320.15, 
	 "num_atms": 50, 
	 "gaussian": { 
		 "optdone": 1, 
		 "sigma_profile": "yes", 
		 "theory": "DFT", 
		 "functional": "B3LYP", 
		 "basiset": "6-31G**", 
		 "properties": { 
			 "R2extent": 16683.5183, 
			 "electric_dipole_moment_norm": 2.45640047631, 
			 "electric_quadrupole_moment_norm": 23.8042202943, 
			 "total_energy": -1472.12691924, 
			 "HOMO_LUMO_gap": 0.174, 
			 "cosmo_polarized_energy": -14.26, 
			 "cosmo_cavitation_energy": 52.63, 
			 "cosmo_dispersion_energy": -36.45, 
			 "cosmo_repulsion_energy": 2.78, 
			 "cosmo_total_nonelectrostatic_energy": 18.97, 
			 "SMD_solvation_energy": 8.49 
		},
		"coords": [
			{
				"x": 7.2288760105,
				"y": 1.7005478945,
				"z": 3.2122782772,
				"element": "C" 
			},
			{
				"x": 6.5830838924,
				"y": 0.3349526575,
				"z": 3.3909164683,
				"element": "C" 
			},
			{
				"x": 5.1638863475,
				"y": 0.3784428278,
				"z": 3.1004706078,
				"element": "O" 
			},
			{
				"x": 4.8167437971,
				"y": 0.246588925,
				"z": 1.7984869882,
				"element": "C" 
			},
			{
				"x": 5.616571362,
				"y": 0.0916744673,
				"z": 0.8920636178,
				"element": "O" 
			},
			{
				"x": 3.3637313198,
				"y": 0.3046749298,
				"z": 1.6011777466,
				"element": "C" 
			},
			{
				"x": 2.3149024956,
				"y": 0.473026866,
				"z": 2.4886780465,
				"element": "C" 
			},
			{
				"x": 2.4041412442,
				"y": 0.6447740928,
				"z": 3.9784123751,
				"element": "C" 
			},
			{
				"x": 1.0705104411,
				"y": 0.4792173065,
				"z": 1.9055691409,
				"element": "N" 
			},
			{
				"x": 1.1330456367,
				"y": 0.323195676,
				"z": 0.6063265952,
				"element": "C" 
			},
			{
				"x": 2.7488610398,
				"y": 0.152930584,
				"z": -0.0240677394,
				"element": "S" 
			},
			{
				"x": -0.0811146758,
				"y": 0.2453964671,
				"z": -0.282245647,
				"element": "C" 
			},
			{
				"x": -1.0561929439,
				"y": 1.4348685139,
				"z": -0.0347496369,
				"element": "C" 
			},
			{
				"x": -2.5275030996,
				"y": 1.01330815,
				"z": -0.1982121779,
				"element": "C" 
			},
			{
				"x": -2.6820560656,
				"y": 0.0235077418,
				"z": -1.2606908748,
				"element": "N" 
			},
			{
				"x": -1.9505477204,
				"y": -1.240888629,
				"z": -1.1213371039,
				"element": "C" 
			},
			{
				"x": -0.8239030328,
				"y": -1.0960466668,
				"z": -0.087349412,
				"element": "C" 
			},
			{
				"x": -3.5723615758,
				"y": 0.2577608777,
				"z": -2.2753494817,
				"element": "C" 
			},
			{
				"x": -4.221790191,
				"y": 1.2881505888,
				"z": -2.3989581937,
				"element": "O" 
			},
			{
				"x": -3.6202390794,
				"y": -0.8100350034,
				"z": -3.1124931436,
				"element": "O" 
			},
			{
				"x": -4.4837663924,
				"y": -0.7974061782,
				"z": -4.3023767849,
				"element": "C" 
			},
			{
				"x": -4.206991529,
				"y": -2.1675606269,
				"z": -4.9276175636,
				"element": "C" 
			},
			{
				"x": -4.0582587183,
				"y": 0.3279265848,
				"z": -5.2518145623,
				"element": "C" 
			},
			{
				"x": -5.9534961839,
				"y": -0.6794468763,
				"z": -3.8840222395,
				"element": "C" 
			},
			{
				"x": 8.2811747271,
				"y": 1.654343739,
				"z": 3.5120821922,
				"element": "H" 
			},
			{
				"x": 6.7289310187,
				"y": 2.4527533611,
				"z": 3.8296655268,
				"element": "H" 
			},
			{
				"x": 7.1839117135,
				"y": 2.0121534781,
				"z": 2.1661201975,
				"element": "H" 
			},
			{
				"x": 7.0511475706,
				"y": -0.4103865706,
				"z": 2.7439444712,
				"element": "H" 
			},
			{
				"x": 6.6339112204,
				"y": -0.0005032059,
				"z": 4.4294750314,
				"element": "H" 
			},
			{
				"x": 2.872083083,
				"y": -0.2237807958,
				"z": 4.4508745067,
				"element": "H" 
			},
			{
				"x": 3.014332897,
				"y": 1.5127308331,
				"z": 4.2429008124,
				"element": "H" 
			},
			{
				"x": 1.3978405212,
				"y": 0.7738744375,
				"z": 4.3798117045,
				"element": "H" 
			},
			{
				"x": 0.2592488758,
				"y": 0.2788797451,
				"z": -1.3244807029,
				"element": "H" 
			},
			{
				"x": -0.9101686598,
				"y": 1.8183434247,
				"z": 0.9790070294,
				"element": "H" 
			},
			{
				"x": -0.8163484884,
				"y": 2.2439697167,
				"z": -0.7320037253,
				"element": "H" 
			},
			{
				"x": -3.1567274027,
				"y": 1.8648523153,
				"z": -0.4548367092,
				"element": "H" 
			},
			{
				"x": -2.9060570175,
				"y": 0.5963514571,
				"z": 0.7452096182,
				"element": "H" 
			},
			{
				"x": -1.5286536021,
				"y": -1.5095417386,
				"z": -2.0943385551,
				"element": "H" 
			},
			{
				"x": -2.6268704715,
				"y": -2.0570827523,
				"z": -0.8312072371,
				"element": "H" 
			},
			{
				"x": -0.1344121869,
				"y": -1.9389753666,
				"z": -0.2000680794,
				"element": "H" 
			},
			{
				"x": -1.2113261088,
				"y": -1.1413022718,
				"z": 0.9359243281,
				"element": "H" 
			},
			{
				"x": -3.1492848243,
				"y": -2.2670660895,
				"z": -5.1889435484,
				"element": "H" 
			},
			{
				"x": -4.8014330592,
				"y": -2.2928465445,
				"z": -5.8375270669,
				"element": "H" 
			},
			{
				"x": -4.4670259871,
				"y": -2.9697211007,
				"z": -4.2307213616,
				"element": "H" 
			},
			{
				"x": -4.6288596571,
				"y": 0.2581527899,
				"z": -6.1837356213,
				"element": "H" 
			},
			{
				"x": -4.234087239,
				"y": 1.3047582435,
				"z": -4.8012148463,
				"element": "H" 
			},
			{
				"x": -2.9953925779,
				"y": 0.2354476658,
				"z": -5.4975966387,
				"element": "H" 
			},
			{
				"x": -6.5959978009,
				"y": -0.7844904145,
				"z": -4.7644234733,
				"element": "H" 
			},
			{
				"x": -6.148449737,
				"y": 0.2854333516,
				"z": -3.4159778779,
				"element": "H" 
			},
			{
				"x": -6.2119191857,
				"y": -1.4757088786,
				"z": -3.1785352774,
				"element": "H" 
			}
		],
		 "valence_orbital": [ 
			{
				"type": "occ",
				"energy": -0.28338,
				"method": "rhf"
			},
			{
				"type": "occ",
				"energy": -0.26499,
				"method": "rhf"
			},
			{
				"type": "occ",
				"energy": -0.25633,
				"method": "rhf"
			},
			{
				"type": "occ",
				"energy": -0.2439,
				"method": "rhf"
			},
			{
				"type": "occ",
				"energy": -0.23115,
				"method": "rhf"
			},
			{
				"type": "unocc",
				"energy": -0.05715,
				"method": "rhf"
			},
			{
				"type": "unocc",
				"energy": 0.01247,
				"method": "rhf"
			},
			{
				"type": "unocc",
				"energy": 0.01543,
				"method": "rhf"
			},
			{
				"type": "unocc",
				"energy": 0.05635,
				"method": "rhf"
			},
			{
				"type": "unocc",
				"energy": 0.0792,
				"method": "rhf"
			}
		],
		"cosmo_sigma_profile": { 
			"-0.025": 0.0,
			"-0.024": 0.0,
			"-0.023": 0.0,
			"-0.022": 0.0,
			"-0.021": 0.0,
			"-0.02": 0.0,
			"-0.019": 0.0,
			"-0.018": 0.0,
			"-0.017": 0.0,
			"-0.016": 0.0,
			"-0.015": 0.0,
			"-0.014": 0.0,
			"-0.013": 0.0,
			"-0.012": 0.0,
			"-0.011": 0.0,
			"-0.01": 0.0,
			"-0.009": 0.0,
			"-0.008": 0.0,
			"-0.007": 0.421541303027,
			"-0.006": 4.56955530962,
			"-0.005": 15.1251571033,
			"-0.004": 45.2502692991,
			"-0.003": 53.6603180052,
			"-0.002": 47.3166326284,
			"-0.001": 51.4150461316,
			"0.0": 56.8863567642,
			"0.001": 41.4916821444,
			"0.002": 22.8780001635,
			"0.003": 15.0164969974,
			"0.004": 10.285612534,
			"0.005": 8.41919953918,
			"0.006": 7.17042413542,
			"0.007": 4.9483761802,
			"0.008": 4.41967451433,
			"0.009": 4.06765981983,
			"0.01": 4.00407322879,
			"0.011": 4.60974110709,
			"0.012": 6.20192232093,
			"0.013": 3.39987527131,
			"0.014": 1.83989248216,
			"0.015": 0.0,
			"0.016": 0.0,
			"0.017": 0.0,
			"0.018": 0.0,
			"0.019": 0.0,
			"0.02": 0.0,
			"0.021": 0.0,
			"0.022": 0.0,
			"0.023": 0.0,
			"0.024": 0.0,
			"0.025": 0.0
		}
	}
}
