{
	 "smiles": "CC1(C)N(O)C(NC1=S)C1=CC=CC=C1", 
	 "Tm": 467.15, 
	 "num_atms": 29, 
	 "gaussian": { 
		 "optdone": 1, 
		 "sigma_profile": "yes", 
		 "theory": "DFT", 
		 "functional": "B3LYP", 
		 "basiset": "6-31G**", 
		 "properties": { 
			 "R2extent": 4240.1316, 
			 "electric_dipole_moment_norm": 5.02291299248, 
			 "electric_quadrupole_moment_norm": 16.42811934, 
			 "total_energy": -1010.47158165, 
			 "HOMO_LUMO_gap": 0.17597, 
			 "cosmo_polarized_energy": -16.46, 
			 "cosmo_cavitation_energy": 32.72, 
			 "cosmo_dispersion_energy": -23.07, 
			 "cosmo_repulsion_energy": 1.76, 
			 "cosmo_total_nonelectrostatic_energy": 11.4, 
			 "SMD_solvation_energy": 3.73 
		},
		"coords": [
			{
				"x": -0.0994037381,
				"y": -0.5083728567,
				"z": 2.14420231,
				"element": "C" 
			},
			{
				"x": -0.2590160953,
				"y": 1.0150598402,
				"z": 2.3332476506,
				"element": "C" 
			},
			{
				"x": 0.0841064107,
				"y": 1.4005933362,
				"z": 3.7708991431,
				"element": "C" 
			},
			{
				"x": 0.6305819512,
				"y": 1.701610488,
				"z": 1.3253623548,
				"element": "N" 
			},
			{
				"x": 0.9397171161,
				"y": 3.0366644855,
				"z": 1.8090655426,
				"element": "O" 
			},
			{
				"x": -0.2212383344,
				"y": 1.9275737853,
				"z": 0.1367234831,
				"element": "C" 
			},
			{
				"x": -1.5809061503,
				"y": 1.92933573,
				"z": 0.6797452072,
				"element": "N" 
			},
			{
				"x": -1.6860371406,
				"y": 1.429564055,
				"z": 1.9231591224,
				"element": "C" 
			},
			{
				"x": -3.0861723781,
				"y": 1.2554374287,
				"z": 2.7932087609,
				"element": "S" 
			},
			{
				"x": 0.0167605151,
				"y": 0.9009789389,
				"z": -0.968495876,
				"element": "C" 
			},
			{
				"x": -1.0149140654,
				"y": 0.133608176,
				"z": -1.5165109567,
				"element": "C" 
			},
			{
				"x": -0.755175274,
				"y": -0.7566185352,
				"z": -2.5625855218,
				"element": "C" 
			},
			{
				"x": 0.5368630452,
				"y": -0.8854412467,
				"z": -3.0697813448,
				"element": "C" 
			},
			{
				"x": 1.5727720493,
				"y": -0.1209098765,
				"z": -2.5250470707,
				"element": "C" 
			},
			{
				"x": 1.3133539933,
				"y": 0.7666003609,
				"z": -1.4832821244,
				"element": "C" 
			},
			{
				"x": -0.3175508897,
				"y": -0.8215778335,
				"z": 1.121402083,
				"element": "H" 
			},
			{
				"x": -0.7845917256,
				"y": -1.029201214,
				"z": 2.817450937,
				"element": "H" 
			},
			{
				"x": 0.928581001,
				"y": -0.7969449125,
				"z": 2.3802882367,
				"element": "H" 
			},
			{
				"x": -0.0439471031,
				"y": 2.4682358589,
				"z": 3.9436915048,
				"element": "H" 
			},
			{
				"x": -0.5811846721,
				"y": 0.8560008328,
				"z": 4.4439013414,
				"element": "H" 
			},
			{
				"x": 1.1186177693,
				"y": 1.1227591518,
				"z": 3.9967871218,
				"element": "H" 
			},
			{
				"x": 1.8919874512,
				"y": 2.9762981346,
				"z": 1.9625774124,
				"element": "H" 
			},
			{
				"x": 0.0306317434,
				"y": 2.9229579119,
				"z": -0.2393524032,
				"element": "H" 
			},
			{
				"x": -2.3940463103,
				"y": 2.254502161,
				"z": 0.175450309,
				"element": "H" 
			},
			{
				"x": -2.0223550378,
				"y": 0.2160567952,
				"z": -1.1207592983,
				"element": "H" 
			},
			{
				"x": -1.5657487342,
				"y": -1.3495457278,
				"z": -2.9762130023,
				"element": "H" 
			},
			{
				"x": 0.7384168463,
				"y": -1.5773934436,
				"z": -3.8822536878,
				"element": "H" 
			},
			{
				"x": 2.5831379197,
				"y": -0.2186264,
				"z": -2.9117815905,
				"element": "H" 
			},
			{
				"x": 2.1200598371,
				"y": 1.3521945754,
				"z": -1.0519996445,
				"element": "H" 
			}
		],
		 "valence_orbital": [ 
			{
				"type": "occ",
				"energy": -0.26559,
				"method": "rhf"
			},
			{
				"type": "occ",
				"energy": -0.26108,
				"method": "rhf"
			},
			{
				"type": "occ",
				"energy": -0.25429,
				"method": "rhf"
			},
			{
				"type": "occ",
				"energy": -0.2253,
				"method": "rhf"
			},
			{
				"type": "occ",
				"energy": -0.20185,
				"method": "rhf"
			},
			{
				"type": "unocc",
				"energy": -0.02588,
				"method": "rhf"
			},
			{
				"type": "unocc",
				"energy": -0.0179,
				"method": "rhf"
			},
			{
				"type": "unocc",
				"energy": -0.01258,
				"method": "rhf"
			},
			{
				"type": "unocc",
				"energy": 0.05754,
				"method": "rhf"
			},
			{
				"type": "unocc",
				"energy": 0.06967,
				"method": "rhf"
			}
		],
		"cosmo_sigma_profile": { 
			"-0.025": 0.0,
			"-0.024": 0.0,
			"-0.023": 0.0,
			"-0.022": 0.0,
			"-0.021": 0.0,
			"-0.02": 0.0,
			"-0.019": 0.0,
			"-0.018": 0.0,
			"-0.017": 0.140986128501,
			"-0.016": 1.45004504962,
			"-0.015": 2.1013508502,
			"-0.014": 2.316104576,
			"-0.013": 1.68850248908,
			"-0.012": 1.43508232348,
			"-0.011": 2.39750760127,
			"-0.01": 2.08517096968,
			"-0.009": 1.57794500478,
			"-0.008": 3.24563853639,
			"-0.007": 4.06389885071,
			"-0.006": 9.03184774415,
			"-0.005": 14.249001969,
			"-0.004": 20.3816165278,
			"-0.003": 19.4808079527,
			"-0.002": 20.0261230225,
			"-0.001": 19.8090359238,
			"0.0": 22.3825592598,
			"0.001": 14.1144515936,
			"0.002": 13.2347375489,
			"0.003": 13.0500832986,
			"0.004": 15.1808104114,
			"0.005": 14.5252020666,
			"0.006": 7.90978759082,
			"0.007": 7.13703380369,
			"0.008": 6.98922761794,
			"0.009": 8.38717227139,
			"0.01": 6.39867102639,
			"0.011": 4.26339830938,
			"0.012": 1.45257756211,
			"0.013": 0.0812137369409,
			"0.014": 0.0,
			"0.015": 0.0,
			"0.016": 0.0,
			"0.017": 0.0,
			"0.018": 0.0,
			"0.019": 0.0,
			"0.02": 0.0,
			"0.021": 0.0,
			"0.022": 0.0,
			"0.023": 0.0,
			"0.024": 0.0,
			"0.025": 0.0
		}
	}
}
