{
	 "smiles": "CCCCCCCCCCCCCCCCCBr", 
	 "Tm": 305.15, 
	 "num_atms": 53, 
	 "gaussian": { 
		 "optdone": 1, 
		 "sigma_profile": "yes", 
		 "theory": "DFT", 
		 "functional": "B3LYP", 
		 "basiset": "6-31G**", 
		 "properties": { 
			 "R2extent": 18321.0096, 
			 "electric_dipole_moment_norm": 2.34343325486, 
			 "electric_quadrupole_moment_norm": 19.3576580647, 
			 "total_energy": -3240.36011485, 
			 "HOMO_LUMO_gap": 0.27155, 
			 "cosmo_polarized_energy": -4.41, 
			 "cosmo_cavitation_energy": 52.79, 
			 "cosmo_dispersion_energy": -36.06, 
			 "cosmo_repulsion_energy": 2.92, 
			 "cosmo_total_nonelectrostatic_energy": 19.65, 
			 "SMD_solvation_energy": 5.64 
		},
		"coords": [
			{
				"x": 5.536598694,
				"y": 0.8818035093,
				"z": -4.5209646642,
				"element": "C" 
			},
			{
				"x": 5.229784865,
				"y": 2.3713396159,
				"z": -4.7181394851,
				"element": "C" 
			},
			{
				"x": 4.1791703536,
				"y": 2.9402219665,
				"z": -3.7499740563,
				"element": "C" 
			},
			{
				"x": 2.7649571603,
				"y": 2.3689472495,
				"z": -3.9266019214,
				"element": "C" 
			},
			{
				"x": 1.7385320144,
				"y": 3.0110956047,
				"z": -2.9824207363,
				"element": "C" 
			},
			{
				"x": 0.288408909,
				"y": 2.5399051071,
				"z": -3.1901412158,
				"element": "C" 
			},
			{
				"x": 0.0248507666,
				"y": 1.0422559055,
				"z": -2.9421597796,
				"element": "C" 
			},
			{
				"x": 0.3394918804,
				"y": 0.5258876275,
				"z": -1.5262329362,
				"element": "C" 
			},
			{
				"x": -0.5054740316,
				"y": 1.1654078672,
				"z": -0.4140473216,
				"element": "C" 
			},
			{
				"x": -0.2152864746,
				"y": 0.6318963038,
				"z": 1.0005107859,
				"element": "C" 
			},
			{
				"x": -0.639103587,
				"y": -0.8262059985,
				"z": 1.2345896788,
				"element": "C" 
			},
			{
				"x": -0.3125335864,
				"y": -1.3662839627,
				"z": 2.6390847421,
				"element": "C" 
			},
			{
				"x": -1.0254206029,
				"y": -0.6743251574,
				"z": 3.8157566374,
				"element": "C" 
			},
			{
				"x": -2.5641588518,
				"y": -0.7574215904,
				"z": 3.8561222713,
				"element": "C" 
			},
			{
				"x": -3.1544332145,
				"y": -2.1691072323,
				"z": 4.0743673644,
				"element": "C" 
			},
			{
				"x": -3.481660435,
				"y": -2.9807898363,
				"z": 2.8087260985,
				"element": "C" 
			},
			{
				"x": -4.6224572361,
				"y": -2.4379567449,
				"z": 1.9580271055,
				"element": "C" 
			},
			{
				"x": -6.3770764861,
				"y": -2.4995173845,
				"z": 2.8954299067,
				"element": "Br" 
			},
			{
				"x": 4.6589121072,
				"y": 0.2546264248,
				"z": -4.7079318855,
				"element": "H" 
			},
			{
				"x": 5.8743525632,
				"y": 0.6813500086,
				"z": -3.4972458169,
				"element": "H" 
			},
			{
				"x": 6.3271646932,
				"y": 0.5487957841,
				"z": -5.2016188778,
				"element": "H" 
			},
			{
				"x": 4.8975407588,
				"y": 2.5422093706,
				"z": -5.7514977257,
				"element": "H" 
			},
			{
				"x": 6.1593333404,
				"y": 2.9432800475,
				"z": -4.6016673743,
				"element": "H" 
			},
			{
				"x": 4.5122281478,
				"y": 2.7696624091,
				"z": -2.7157068933,
				"element": "H" 
			},
			{
				"x": 4.136297701,
				"y": 4.0307199315,
				"z": -3.8768055084,
				"element": "H" 
			},
			{
				"x": 2.4423356955,
				"y": 2.5196599902,
				"z": -4.9675485273,
				"element": "H" 
			},
			{
				"x": 2.7834720711,
				"y": 1.2837993674,
				"z": -3.7684310155,
				"element": "H" 
			},
			{
				"x": 2.0445795839,
				"y": 2.833920401,
				"z": -1.9422284233,
				"element": "H" 
			},
			{
				"x": 1.7688678209,
				"y": 4.1009587092,
				"z": -3.1176215225,
				"element": "H" 
			},
			{
				"x": -0.3699773865,
				"y": 3.1371069061,
				"z": -2.5467544126,
				"element": "H" 
			},
			{
				"x": -0.0131599781,
				"y": 2.7740151514,
				"z": -4.2203616819,
				"element": "H" 
			},
			{
				"x": -1.0319133932,
				"y": 0.8385270194,
				"z": -3.1636407829,
				"element": "H" 
			},
			{
				"x": 0.5982007278,
				"y": 0.4490877449,
				"z": -3.6657000476,
				"element": "H" 
			},
			{
				"x": 0.1881312097,
				"y": -0.5607040071,
				"z": -1.5229876208,
				"element": "H" 
			},
			{
				"x": 1.4037890448,
				"y": 0.6785632017,
				"z": -1.2997221838,
				"element": "H" 
			},
			{
				"x": -1.5721339717,
				"y": 1.0239185158,
				"z": -0.6432606526,
				"element": "H" 
			},
			{
				"x": -0.340222132,
				"y": 2.249882542,
				"z": -0.4128129116,
				"element": "H" 
			},
			{
				"x": -0.726771421,
				"y": 1.2782492759,
				"z": 1.724478027,
				"element": "H" 
			},
			{
				"x": 0.8592962376,
				"y": 0.733300179,
				"z": 1.2121883794,
				"element": "H" 
			},
			{
				"x": -1.7158076629,
				"y": -0.9193008671,
				"z": 1.0342497103,
				"element": "H" 
			},
			{
				"x": -0.1432808747,
				"y": -1.4731749903,
				"z": 0.5004966839,
				"element": "H" 
			},
			{
				"x": 0.7709711447,
				"y": -1.279735142,
				"z": 2.7998902866,
				"element": "H" 
			},
			{
				"x": -0.5256185666,
				"y": -2.4426088811,
				"z": 2.6661860735,
				"element": "H" 
			},
			{
				"x": -0.6358764318,
				"y": -1.1027774358,
				"z": 4.7494292947,
				"element": "H" 
			},
			{
				"x": -0.7379495852,
				"y": 0.3845098418,
				"z": 3.8364398715,
				"element": "H" 
			},
			{
				"x": -2.9889930875,
				"y": -0.3018168135,
				"z": 2.9519134749,
				"element": "H" 
			},
			{
				"x": -2.8991947965,
				"y": -0.1165659481,
				"z": 4.6805456119,
				"element": "H" 
			},
			{
				"x": -2.4600034757,
				"y": -2.754810586,
				"z": 4.6905023375,
				"element": "H" 
			},
			{
				"x": -4.078082518,
				"y": -2.0877540044,
				"z": 4.6582121577,
				"element": "H" 
			},
			{
				"x": -3.7169910688,
				"y": -4.0135418415,
				"z": 3.0895318231,
				"element": "H" 
			},
			{
				"x": -2.6052776178,
				"y": -3.0322245966,
				"z": 2.1487157871,
				"element": "H" 
			},
			{
				"x": -4.7741983473,
				"y": -3.0300032084,
				"z": 1.0561957695,
				"element": "H" 
			},
			{
				"x": -4.4920106696,
				"y": -1.39127735,
				"z": 1.6838361017,
				"element": "H" 
			}
		],
		 "valence_orbital": [ 
			{
				"type": "occ",
				"energy": -0.30394,
				"method": "rhf"
			},
			{
				"type": "occ",
				"energy": -0.3006,
				"method": "rhf"
			},
			{
				"type": "occ",
				"energy": -0.29389,
				"method": "rhf"
			},
			{
				"type": "occ",
				"energy": -0.26828,
				"method": "rhf"
			},
			{
				"type": "occ",
				"energy": -0.26616,
				"method": "rhf"
			},
			{
				"type": "unocc",
				"energy": 0.00539,
				"method": "rhf"
			},
			{
				"type": "unocc",
				"energy": 0.06956,
				"method": "rhf"
			},
			{
				"type": "unocc",
				"energy": 0.07751,
				"method": "rhf"
			},
			{
				"type": "unocc",
				"energy": 0.09135,
				"method": "rhf"
			},
			{
				"type": "unocc",
				"energy": 0.0954,
				"method": "rhf"
			}
		],
		"cosmo_sigma_profile": { 
			"-0.025": 0.0,
			"-0.024": 0.0,
			"-0.023": 0.0,
			"-0.022": 0.0,
			"-0.021": 0.0,
			"-0.02": 0.0,
			"-0.019": 0.0,
			"-0.018": 0.0,
			"-0.017": 0.0,
			"-0.016": 0.0,
			"-0.015": 0.0,
			"-0.014": 0.0,
			"-0.013": 0.0,
			"-0.012": 0.0,
			"-0.011": 0.0,
			"-0.01": 0.0,
			"-0.009": 0.0,
			"-0.008": 0.0,
			"-0.007": 0.881565215108,
			"-0.006": 3.73904825383,
			"-0.005": 5.46174382435,
			"-0.004": 8.33182165037,
			"-0.003": 16.5279039386,
			"-0.002": 47.6406639207,
			"-0.001": 83.6698400968,
			"0.0": 93.3263905269,
			"0.001": 82.0724506789,
			"0.002": 33.3618966759,
			"0.003": 6.03199882522,
			"0.004": 4.75914460436,
			"0.005": 6.37513413071,
			"0.006": 8.71961355044,
			"0.007": 6.74002451454,
			"0.008": 0.00152468534917,
			"0.009": 0.0,
			"0.01": 0.0,
			"0.011": 0.0,
			"0.012": 0.0,
			"0.013": 0.0,
			"0.014": 0.0,
			"0.015": 0.0,
			"0.016": 0.0,
			"0.017": 0.0,
			"0.018": 0.0,
			"0.019": 0.0,
			"0.02": 0.0,
			"0.021": 0.0,
			"0.022": 0.0,
			"0.023": 0.0,
			"0.024": 0.0,
			"0.025": 0.0
		}
	}
}
