{
	 "smiles": "ClC1=CC=C(C=C1)C(=O)C1=NOC(=C1S(=O)(=O)C1=CC=CC=C1)C1=CC2=C(C=CC=C2)C=C1", 
	 "Tm": 408.15, 
	 "num_atms": 49, 
	 "gaussian": { 
		 "optdone": 1, 
		 "sigma_profile": "yes", 
		 "theory": "DFT", 
		 "functional": "B3LYP", 
		 "basiset": "6-31G**", 
		 "properties": { 
			 "R2extent": 20278.9321, 
			 "electric_dipole_moment_norm": 5.24330584841, 
			 "electric_quadrupole_moment_norm": 19.5623952519, 
			 "total_energy": -2214.3220853, 
			 "HOMO_LUMO_gap": 0.14965, 
			 "cosmo_polarized_energy": -17.53, 
			 "cosmo_cavitation_energy": 57.66, 
			 "cosmo_dispersion_energy": -39.85, 
			 "cosmo_repulsion_energy": 2.91, 
			 "cosmo_total_nonelectrostatic_energy": 20.72, 
			 "SMD_solvation_energy": 8.47 
		},
		"coords": [
			{
				"x": -3.4831115158,
				"y": 6.988972483,
				"z": 2.2861550167,
				"element": "Cl" 
			},
			{
				"x": -2.5097670493,
				"y": 5.5534801743,
				"z": 2.0377706353,
				"element": "C" 
			},
			{
				"x": -3.0719768291,
				"y": 4.4496474829,
				"z": 1.3959506291,
				"element": "C" 
			},
			{
				"x": -2.2934717324,
				"y": 3.3116631514,
				"z": 1.2000130738,
				"element": "C" 
			},
			{
				"x": -0.9633931805,
				"y": 3.2745096557,
				"z": 1.6446933251,
				"element": "C" 
			},
			{
				"x": -0.4196332976,
				"y": 4.3995433849,
				"z": 2.2877863336,
				"element": "C" 
			},
			{
				"x": -1.1854040331,
				"y": 5.5400916777,
				"z": 2.4873240741,
				"element": "C" 
			},
			{
				"x": -0.0884847467,
				"y": 2.0934165083,
				"z": 1.4569045858,
				"element": "C" 
			},
			{
				"x": 1.0589941603,
				"y": 2.0489307082,
				"z": 1.8724551376,
				"element": "O" 
			},
			{
				"x": -0.6459780263,
				"y": 0.8607168202,
				"z": 0.768717853,
				"element": "C" 
			},
			{
				"x": -1.5525985528,
				"y": 0.154091872,
				"z": 1.3988175881,
				"element": "N" 
			},
			{
				"x": -1.7566966466,
				"y": -0.9799620924,
				"z": 0.6104521218,
				"element": "O" 
			},
			{
				"x": -0.9736846458,
				"y": -0.944048698,
				"z": -0.4918196093,
				"element": "C" 
			},
			{
				"x": -0.2409763392,
				"y": 0.2296744048,
				"z": -0.4518727119,
				"element": "C" 
			},
			{
				"x": 0.96231727,
				"y": 0.9271346295,
				"z": -1.5730976349,
				"element": "S" 
			},
			{
				"x": 0.5666519196,
				"y": 0.6133231834,
				"z": -2.9554828387,
				"element": "O" 
			},
			{
				"x": 1.1126723677,
				"y": 2.3245201985,
				"z": -1.1483913653,
				"element": "O" 
			},
			{
				"x": 2.4805612135,
				"y": 0.0332719909,
				"z": -1.2230304408,
				"element": "C" 
			},
			{
				"x": 2.9719154709,
				"y": -0.8552531191,
				"z": -2.180749355,
				"element": "C" 
			},
			{
				"x": 4.1643792264,
				"y": -1.5316242352,
				"z": -1.9191931765,
				"element": "C" 
			},
			{
				"x": 4.8414707839,
				"y": -1.3167171271,
				"z": -0.7172082905,
				"element": "C" 
			},
			{
				"x": 4.3338774332,
				"y": -0.4232860985,
				"z": 0.2306873344,
				"element": "C" 
			},
			{
				"x": 3.146512257,
				"y": 0.2648668418,
				"z": -0.0155675419,
				"element": "C" 
			},
			{
				"x": -1.0799401753,
				"y": -2.1261692193,
				"z": -1.3536956102,
				"element": "C" 
			},
			{
				"x": -1.3959086273,
				"y": -3.3428508296,
				"z": -0.7623553254,
				"element": "C" 
			},
			{
				"x": -1.5267351936,
				"y": -4.521719403,
				"z": -1.5339557513,
				"element": "C" 
			},
			{
				"x": -1.3377517792,
				"y": -4.4489091058,
				"z": -2.9526768913,
				"element": "C" 
			},
			{
				"x": -1.4711359269,
				"y": -5.6336348961,
				"z": -3.724055953,
				"element": "C" 
			},
			{
				"x": -1.7753284516,
				"y": -6.8338329204,
				"z": -3.1212970506,
				"element": "C" 
			},
			{
				"x": -1.9610235752,
				"y": -6.9067223465,
				"z": -1.7176556154,
				"element": "C" 
			},
			{
				"x": -1.8392296799,
				"y": -5.7769953029,
				"z": -0.941917738,
				"element": "C" 
			},
			{
				"x": -1.0280751743,
				"y": -3.1894352756,
				"z": -3.5323552255,
				"element": "C" 
			},
			{
				"x": -0.8997637129,
				"y": -2.055908102,
				"z": -2.7661835249,
				"element": "C" 
			},
			{
				"x": -4.1008393419,
				"y": 4.483826906,
				"z": 1.0564961472,
				"element": "H" 
			},
			{
				"x": -2.7287322112,
				"y": 2.4491068485,
				"z": 0.7089172546,
				"element": "H" 
			},
			{
				"x": 0.611429353,
				"y": 4.3575560084,
				"z": 2.6214875764,
				"element": "H" 
			},
			{
				"x": -0.7711561213,
				"y": 6.4118954769,
				"z": 2.9809993203,
				"element": "H" 
			},
			{
				"x": 2.4314200619,
				"y": -0.9981217447,
				"z": -3.1094226959,
				"element": "H" 
			},
			{
				"x": 4.5631136815,
				"y": -2.223257602,
				"z": -2.655043774,
				"element": "H" 
			},
			{
				"x": 5.7687469046,
				"y": -1.8460284987,
				"z": -0.5178738961,
				"element": "H" 
			},
			{
				"x": 4.8647589549,
				"y": -0.2583665339,
				"z": 1.1632887976,
				"element": "H" 
			},
			{
				"x": 2.7372217684,
				"y": 0.9569944746,
				"z": 0.7138230771,
				"element": "H" 
			},
			{
				"x": -1.5384865885,
				"y": -3.4009422881,
				"z": 0.3118567697,
				"element": "H" 
			},
			{
				"x": -1.3293373199,
				"y": -5.5770128483,
				"z": -4.8000568438,
				"element": "H" 
			},
			{
				"x": -1.8748272985,
				"y": -7.7335023379,
				"z": -3.7215487512,
				"element": "H" 
			},
			{
				"x": -2.2007426874,
				"y": -7.8605603625,
				"z": -1.257285749,
				"element": "H" 
			},
			{
				"x": -1.9815555036,
				"y": -5.8274327529,
				"z": 0.1343051478,
				"element": "H" 
			},
			{
				"x": -0.8994305108,
				"y": -3.1271008776,
				"z": -4.6096902756,
				"element": "H" 
			},
			{
				"x": -0.6739663523,
				"y": -1.1030402638,
				"z": -3.2265181631,
				"element": "H" 
			}
		],
		 "valence_orbital": [ 
			{
				"type": "occ",
				"energy": -0.27174,
				"method": "rhf"
			},
			{
				"type": "occ",
				"energy": -0.2688,
				"method": "rhf"
			},
			{
				"type": "occ",
				"energy": -0.25925,
				"method": "rhf"
			},
			{
				"type": "occ",
				"energy": -0.251,
				"method": "rhf"
			},
			{
				"type": "occ",
				"energy": -0.22901,
				"method": "rhf"
			},
			{
				"type": "unocc",
				"energy": -0.07936,
				"method": "rhf"
			},
			{
				"type": "unocc",
				"energy": -0.07373,
				"method": "rhf"
			},
			{
				"type": "unocc",
				"energy": -0.04368,
				"method": "rhf"
			},
			{
				"type": "unocc",
				"energy": -0.03879,
				"method": "rhf"
			},
			{
				"type": "unocc",
				"energy": -0.02429,
				"method": "rhf"
			}
		],
		"cosmo_sigma_profile": { 
			"-0.025": 0.0,
			"-0.024": 0.0,
			"-0.023": 0.0,
			"-0.022": 0.0,
			"-0.021": 0.0,
			"-0.02": 0.0,
			"-0.019": 0.0,
			"-0.018": 0.0,
			"-0.017": 0.0,
			"-0.016": 0.0,
			"-0.015": 0.0,
			"-0.014": 0.0,
			"-0.013": 0.0,
			"-0.012": 0.0,
			"-0.011": 0.0,
			"-0.01": 0.0,
			"-0.009": 0.172461693059,
			"-0.008": 4.52364878744,
			"-0.007": 19.7784216541,
			"-0.006": 30.1919215859,
			"-0.005": 28.9992772231,
			"-0.004": 29.0050158236,
			"-0.003": 30.0349133468,
			"-0.002": 30.7109122298,
			"-0.001": 32.2198898612,
			"0.0": 39.7334388033,
			"0.001": 49.62828366,
			"0.002": 50.0041835534,
			"0.003": 44.8531972115,
			"0.004": 27.0022831267,
			"0.005": 9.46116350445,
			"0.006": 7.0838131149,
			"0.007": 7.13977272475,
			"0.008": 6.9666735448,
			"0.009": 7.42993168467,
			"0.01": 6.69648874151,
			"0.011": 6.85216273929,
			"0.012": 0.67935780885,
			"0.013": 0.0,
			"0.014": 0.0,
			"0.015": 0.0,
			"0.016": 0.0,
			"0.017": 0.0,
			"0.018": 0.0,
			"0.019": 0.0,
			"0.02": 0.0,
			"0.021": 0.0,
			"0.022": 0.0,
			"0.023": 0.0,
			"0.024": 0.0,
			"0.025": 0.0
		}
	}
}
