{
	 "smiles": "CC(=O)C1=CC(F)=C(C=C1)C(O)=O", 
	 "Tm": 433.15, 
	 "num_atms": 20, 
	 "gaussian": { 
		 "optdone": 1, 
		 "sigma_profile": "yes", 
		 "theory": "DFT", 
		 "functional": "B3LYP", 
		 "basiset": "6-31G**", 
		 "properties": { 
			 "R2extent": 3123.6359, 
			 "electric_dipole_moment_norm": 5.86179672541, 
			 "electric_quadrupole_moment_norm": 17.8049799621, 
			 "total_energy": -672.685661396, 
			 "HOMO_LUMO_gap": 0.18038, 
			 "cosmo_polarized_energy": -19.08, 
			 "cosmo_cavitation_energy": 25.81, 
			 "cosmo_dispersion_energy": -18.56, 
			 "cosmo_repulsion_energy": 1.44, 
			 "cosmo_total_nonelectrostatic_energy": 8.7, 
			 "SMD_solvation_energy": 6.79 
		},
		"coords": [
			{
				"x": 2.7420901071,
				"y": 0.791558104,
				"z": -1.6808259914,
				"element": "C" 
			},
			{
				"x": 1.6976818832,
				"y": 1.4538849808,
				"z": -0.8023025202,
				"element": "C" 
			},
			{
				"x": 1.8824175569,
				"y": 2.5634432952,
				"z": -0.3309515162,
				"element": "O" 
			},
			{
				"x": 0.4158044009,
				"y": 0.7161564487,
				"z": -0.5157802277,
				"element": "C" 
			},
			{
				"x": -0.5239465218,
				"y": 1.3451187199,
				"z": 0.3110929584,
				"element": "C" 
			},
			{
				"x": -1.7150381592,
				"y": 0.7041266877,
				"z": 0.6109555396,
				"element": "C" 
			},
			{
				"x": -2.6011202523,
				"y": 1.3325757773,
				"z": 1.3928823184,
				"element": "F" 
			},
			{
				"x": -2.0257252215,
				"y": -0.5613397931,
				"z": 0.0903484193,
				"element": "C" 
			},
			{
				"x": -1.0763484031,
				"y": -1.1766325864,
				"z": -0.7397533608,
				"element": "C" 
			},
			{
				"x": 0.1333021735,
				"y": -0.554098286,
				"z": -1.037720402,
				"element": "C" 
			},
			{
				"x": -3.3003621231,
				"y": -1.2600650738,
				"z": 0.4695275281,
				"element": "C" 
			},
			{
				"x": -3.8741319504,
				"y": -1.9970276216,
				"z": -0.5218657994,
				"element": "O" 
			},
			{
				"x": -3.7912800382,
				"y": -1.2224580066,
				"z": 1.5681334362,
				"element": "O" 
			},
			{
				"x": 3.5947132766,
				"y": 1.4639491567,
				"z": -1.7765959335,
				"element": "H" 
			},
			{
				"x": 3.0746932429,
				"y": -0.1580290123,
				"z": -1.2471330412,
				"element": "H" 
			},
			{
				"x": 2.337867475,
				"y": 0.5735382897,
				"z": -2.6755992395,
				"element": "H" 
			},
			{
				"x": -0.3133819748,
				"y": 2.3297185805,
				"z": 0.7125641688,
				"element": "H" 
			},
			{
				"x": -1.274449634,
				"y": -2.172731752,
				"z": -1.1260232069,
				"element": "H" 
			},
			{
				"x": 0.8509045789,
				"y": -1.0639707501,
				"z": -1.6705304214,
				"element": "H" 
			},
			{
				"x": -3.4524904167,
				"y": -1.7983171586,
				"z": -1.3699227087,
				"element": "H" 
			}
		],
		 "valence_orbital": [ 
			{
				"type": "occ",
				"energy": -0.32657,
				"method": "rhf"
			},
			{
				"type": "occ",
				"energy": -0.29206,
				"method": "rhf"
			},
			{
				"type": "occ",
				"energy": -0.28104,
				"method": "rhf"
			},
			{
				"type": "occ",
				"energy": -0.27234,
				"method": "rhf"
			},
			{
				"type": "occ",
				"energy": -0.26858,
				"method": "rhf"
			},
			{
				"type": "unocc",
				"energy": -0.0882,
				"method": "rhf"
			},
			{
				"type": "unocc",
				"energy": -0.03435,
				"method": "rhf"
			},
			{
				"type": "unocc",
				"energy": -0.01143,
				"method": "rhf"
			},
			{
				"type": "unocc",
				"energy": 0.04282,
				"method": "rhf"
			},
			{
				"type": "unocc",
				"energy": 0.05878,
				"method": "rhf"
			}
		],
		"cosmo_sigma_profile": { 
			"-0.025": 0.0,
			"-0.024": 0.0,
			"-0.023": 0.0,
			"-0.022": 0.0,
			"-0.021": 0.0,
			"-0.02": 0.0,
			"-0.019": 0.413825209106,
			"-0.018": 0.951551451104,
			"-0.017": 0.795814100182,
			"-0.016": 1.51223735474,
			"-0.015": 0.758354922771,
			"-0.014": 0.587018875421,
			"-0.013": 1.18290235282,
			"-0.012": 1.76282973779,
			"-0.011": 1.23699102152,
			"-0.01": 1.08509229915,
			"-0.009": 1.56052167346,
			"-0.008": 3.98182696384,
			"-0.007": 11.8898801143,
			"-0.006": 12.4637033283,
			"-0.005": 10.6081420216,
			"-0.004": 11.0918256821,
			"-0.003": 10.380753368,
			"-0.002": 14.5715593085,
			"-0.001": 17.9804161424,
			"0.0": 16.7656620692,
			"0.001": 12.6977045105,
			"0.002": 7.85969964194,
			"0.003": 8.2926770115,
			"0.004": 7.85595137171,
			"0.005": 4.60635568491,
			"0.006": 3.85135809718,
			"0.007": 4.77069047525,
			"0.008": 5.4419529654,
			"0.009": 6.45665161329,
			"0.01": 8.0390097431,
			"0.011": 9.98606730114,
			"0.012": 4.7760269024,
			"0.013": 0.582668592421,
			"0.014": 0.0,
			"0.015": 0.0,
			"0.016": 0.0,
			"0.017": 0.0,
			"0.018": 0.0,
			"0.019": 0.0,
			"0.02": 0.0,
			"0.021": 0.0,
			"0.022": 0.0,
			"0.023": 0.0,
			"0.024": 0.0,
			"0.025": 0.0
		}
	}
}
