{
	 "smiles": "O=C1NOC2=CC=CC=C12", 
	 "Tm": 412.15, 
	 "num_atms": 15, 
	 "gaussian": { 
		 "optdone": 1, 
		 "sigma_profile": "yes", 
		 "theory": "DFT", 
		 "functional": "B3LYP", 
		 "basiset": "6-31G**", 
		 "properties": { 
			 "R2extent": 2226.4325, 
			 "electric_dipole_moment_norm": 3.22537694851, 
			 "electric_quadrupole_moment_norm": 12.8318870152, 
			 "total_energy": -474.906615254, 
			 "HOMO_LUMO_gap": 0.1857, 
			 "cosmo_polarized_energy": -10.86, 
			 "cosmo_cavitation_energy": 19.68, 
			 "cosmo_dispersion_energy": -15.03, 
			 "cosmo_repulsion_energy": 1.21, 
			 "cosmo_total_nonelectrostatic_energy": 5.86, 
			 "SMD_solvation_energy": 4.98 
		},
		"coords": [
			{
				"x": -2.8043791121,
				"y": 3.0894498111,
				"z": -0.9237981934,
				"element": "O" 
			},
			{
				"x": -2.2746355614,
				"y": 2.117118878,
				"z": -1.429539708,
				"element": "C" 
			},
			{
				"x": -2.7483600898,
				"y": 1.4758662963,
				"z": -2.5989831859,
				"element": "N" 
			},
			{
				"x": -2.0689336739,
				"y": 0.2378035263,
				"z": -2.8130591285,
				"element": "O" 
			},
			{
				"x": -1.0276751099,
				"y": 0.2522791201,
				"z": -1.9289075387,
				"element": "C" 
			},
			{
				"x": -0.0228981175,
				"y": -0.711045032,
				"z": -1.8630694895,
				"element": "C" 
			},
			{
				"x": 0.9439365755,
				"y": -0.5238965905,
				"z": -0.8762570332,
				"element": "C" 
			},
			{
				"x": 0.9136171668,
				"y": 0.5777053213,
				"z": 0.0012584431,
				"element": "C" 
			},
			{
				"x": -0.0980497435,
				"y": 1.5285497112,
				"z": -0.0907855826,
				"element": "C" 
			},
			{
				"x": -1.0699090948,
				"y": 1.3548316906,
				"z": -1.0790194743,
				"element": "C" 
			},
			{
				"x": -3.745784089,
				"y": 1.3322965074,
				"z": -2.7156710536,
				"element": "H" 
			},
			{
				"x": -0.0035873225,
				"y": -1.558034345,
				"z": -2.5394342369,
				"element": "H" 
			},
			{
				"x": 1.7442754801,
				"y": -1.2520929559,
				"z": -0.7822802885,
				"element": "H" 
			},
			{
				"x": 1.6901085262,
				"y": 0.6812046515,
				"z": 0.7522774289,
				"element": "H" 
			},
			{
				"x": -0.1427258344,
				"y": 2.3855634096,
				"z": 0.5735690411,
				"element": "H" 
			}
		],
		 "valence_orbital": [ 
			{
				"type": "occ",
				"energy": -0.36832,
				"method": "rhf"
			},
			{
				"type": "occ",
				"energy": -0.28718,
				"method": "rhf"
			},
			{
				"type": "occ",
				"energy": -0.27322,
				"method": "rhf"
			},
			{
				"type": "occ",
				"energy": -0.26328,
				"method": "rhf"
			},
			{
				"type": "occ",
				"energy": -0.23641,
				"method": "rhf"
			},
			{
				"type": "unocc",
				"energy": -0.05071,
				"method": "rhf"
			},
			{
				"type": "unocc",
				"energy": -0.00815,
				"method": "rhf"
			},
			{
				"type": "unocc",
				"energy": 0.04024,
				"method": "rhf"
			},
			{
				"type": "unocc",
				"energy": 0.06492,
				"method": "rhf"
			},
			{
				"type": "unocc",
				"energy": 0.08687,
				"method": "rhf"
			}
		],
		"cosmo_sigma_profile": { 
			"-0.025": 0.0,
			"-0.024": 0.0,
			"-0.023": 0.0,
			"-0.022": 0.0,
			"-0.021": 0.0,
			"-0.02": 0.0,
			"-0.019": 0.0,
			"-0.018": 0.0143088062362,
			"-0.017": 1.06153111502,
			"-0.016": 1.4582868518,
			"-0.015": 0.936402690146,
			"-0.014": 0.99130627438,
			"-0.013": 0.956258627821,
			"-0.012": 0.866584818517,
			"-0.011": 1.04656401629,
			"-0.01": 0.741924748258,
			"-0.009": 0.676963733333,
			"-0.008": 2.31179019616,
			"-0.007": 7.31059738902,
			"-0.006": 10.1175849772,
			"-0.005": 9.94501988567,
			"-0.004": 8.16255038524,
			"-0.003": 7.54323775216,
			"-0.002": 7.14855410316,
			"-0.001": 9.74249658651,
			"0.0": 12.2113411571,
			"0.001": 12.9692429049,
			"0.002": 13.2073354085,
			"0.003": 13.1319873556,
			"0.004": 6.19347750745,
			"0.005": 3.62750058846,
			"0.006": 4.16366081219,
			"0.007": 4.77351281382,
			"0.008": 1.77562950345,
			"0.009": 1.15556939499,
			"0.01": 1.88921749134,
			"0.011": 2.45014599436,
			"0.012": 5.26137720592,
			"0.013": 4.37102109483,
			"0.014": 0.303627858247,
			"0.015": 0.0,
			"0.016": 0.0,
			"0.017": 0.0,
			"0.018": 0.0,
			"0.019": 0.0,
			"0.02": 0.0,
			"0.021": 0.0,
			"0.022": 0.0,
			"0.023": 0.0,
			"0.024": 0.0,
			"0.025": 0.0
		}
	}
}
