{
	 "smiles": "COC1=CC=C(C=C1)C1=NC(CN)=CS1", 
	 "Tm": 341.15, 
	 "num_atms": 27, 
	 "gaussian": { 
		 "optdone": 1, 
		 "sigma_profile": "yes", 
		 "theory": "DFT", 
		 "functional": "B3LYP", 
		 "basiset": "6-31G**", 
		 "properties": { 
			 "R2extent": 5504.8606, 
			 "electric_dipole_moment_norm": 2.18159712367, 
			 "electric_quadrupole_moment_norm": 18.4278333583, 
			 "total_energy": -1009.30227777, 
			 "HOMO_LUMO_gap": 0.16109, 
			 "cosmo_polarized_energy": -11.15, 
			 "cosmo_cavitation_energy": 32.53, 
			 "cosmo_dispersion_energy": -24.37, 
			 "cosmo_repulsion_energy": 1.87, 
			 "cosmo_total_nonelectrostatic_energy": 10.03, 
			 "SMD_solvation_energy": 3.65 
		},
		"coords": [
			{
				"x": 0.9245049593,
				"y": 4.8198429332,
				"z": -3.0301866323,
				"element": "C" 
			},
			{
				"x": 0.8692231652,
				"y": 4.8433910291,
				"z": -1.6113159957,
				"element": "O" 
			},
			{
				"x": 0.5317620299,
				"y": 3.6982123201,
				"z": -0.9573667801,
				"element": "C" 
			},
			{
				"x": 0.4930623262,
				"y": 3.7850304416,
				"z": 0.4436090709,
				"element": "C" 
			},
			{
				"x": 0.1599982549,
				"y": 2.674306534,
				"z": 1.2023060362,
				"element": "C" 
			},
			{
				"x": -0.1452647389,
				"y": 1.4431676876,
				"z": 0.5920607032,
				"element": "C" 
			},
			{
				"x": -0.1026456454,
				"y": 1.3707022914,
				"z": -0.8086245864,
				"element": "C" 
			},
			{
				"x": 0.231033323,
				"y": 2.4797938659,
				"z": -1.5819822439,
				"element": "C" 
			},
			{
				"x": -0.501356438,
				"y": 0.247819868,
				"z": 1.3625768987,
				"element": "C" 
			},
			{
				"x": -0.7536092184,
				"y": -0.9211176472,
				"z": 0.8335392132,
				"element": "N" 
			},
			{
				"x": -1.0681574328,
				"y": -1.8704520416,
				"z": 1.7815823341,
				"element": "C" 
			},
			{
				"x": -1.3664456313,
				"y": -3.2778391599,
				"z": 1.3177386711,
				"element": "C" 
			},
			{
				"x": -0.3144826168,
				"y": -3.8987298038,
				"z": 0.5046612611,
				"element": "N" 
			},
			{
				"x": -1.0524983016,
				"y": -1.4240950201,
				"z": 3.0738159006,
				"element": "C" 
			},
			{
				"x": -0.6376565814,
				"y": 0.2601711928,
				"z": 3.1284694268,
				"element": "S" 
			},
			{
				"x": -0.050245869,
				"y": 4.5710475747,
				"z": -3.4684724466,
				"element": "H" 
			},
			{
				"x": 1.6747519268,
				"y": 4.106274664,
				"z": -3.393664459,
				"element": "H" 
			},
			{
				"x": 1.2092812562,
				"y": 5.8273681119,
				"z": -3.336499809,
				"element": "H" 
			},
			{
				"x": 0.7293516208,
				"y": 4.73533216,
				"z": 0.9104348063,
				"element": "H" 
			},
			{
				"x": 0.1393548622,
				"y": 2.7671140932,
				"z": 2.2846759678,
				"element": "H" 
			},
			{
				"x": -0.3380201061,
				"y": 0.4256588117,
				"z": -1.2854484516,
				"element": "H" 
			},
			{
				"x": 0.2525109314,
				"y": 2.3855940078,
				"z": -2.661145136,
				"element": "H" 
			},
			{
				"x": -1.5660359897,
				"y": -3.9143817973,
				"z": 2.186177538,
				"element": "H" 
			},
			{
				"x": -2.2848415886,
				"y": -3.2663225753,
				"z": 0.7177556625,
				"element": "H" 
			},
			{
				"x": -0.1204804124,
				"y": -3.2819655195,
				"z": -0.2822681682,
				"element": "H" 
			},
			{
				"x": 0.5484110826,
				"y": -3.9283046661,
				"z": 1.0450235501,
				"element": "H" 
			},
			{
				"x": -1.259305168,
				"y": -1.977419356,
				"z": 3.9789476681,
				"element": "H" 
			}
		],
		 "valence_orbital": [ 
			{
				"type": "occ",
				"energy": -0.27089,
				"method": "rhf"
			},
			{
				"type": "occ",
				"energy": -0.26183,
				"method": "rhf"
			},
			{
				"type": "occ",
				"energy": -0.25615,
				"method": "rhf"
			},
			{
				"type": "occ",
				"energy": -0.23235,
				"method": "rhf"
			},
			{
				"type": "occ",
				"energy": -0.20611,
				"method": "rhf"
			},
			{
				"type": "unocc",
				"energy": -0.04502,
				"method": "rhf"
			},
			{
				"type": "unocc",
				"energy": -0.00777,
				"method": "rhf"
			},
			{
				"type": "unocc",
				"energy": 0.02355,
				"method": "rhf"
			},
			{
				"type": "unocc",
				"energy": 0.02761,
				"method": "rhf"
			},
			{
				"type": "unocc",
				"energy": 0.06626,
				"method": "rhf"
			}
		],
		"cosmo_sigma_profile": { 
			"-0.025": 0.0,
			"-0.024": 0.0,
			"-0.023": 0.0,
			"-0.022": 0.0,
			"-0.021": 0.0,
			"-0.02": 0.0,
			"-0.019": 0.0,
			"-0.018": 0.0,
			"-0.017": 0.0,
			"-0.016": 0.0,
			"-0.015": 0.0,
			"-0.014": 0.0,
			"-0.013": 0.0,
			"-0.012": 0.0,
			"-0.011": 0.0,
			"-0.01": 0.589254986333,
			"-0.009": 2.06616032965,
			"-0.008": 3.94168616998,
			"-0.007": 7.06995213167,
			"-0.006": 15.350586471,
			"-0.005": 22.6355751712,
			"-0.004": 22.5730529123,
			"-0.003": 19.8868878229,
			"-0.002": 16.3694160587,
			"-0.001": 15.5487726236,
			"0.0": 14.0107458623,
			"0.001": 17.6458768627,
			"0.002": 21.4400977336,
			"0.003": 25.8057392607,
			"0.004": 23.0499896722,
			"0.005": 9.18489781655,
			"0.006": 3.94027246208,
			"0.007": 4.31087318008,
			"0.008": 3.74329313653,
			"0.009": 2.41961473945,
			"0.01": 2.72186581992,
			"0.011": 1.18567335904,
			"0.012": 0.875036225427,
			"0.013": 0.458125098728,
			"0.014": 0.333857341864,
			"0.015": 0.940837935297,
			"0.016": 0.624087390156,
			"0.017": 0.655585292495,
			"0.018": 0.703328554811,
			"0.019": 0.63706255081,
			"0.02": 0.218636800976,
			"0.021": 0.0,
			"0.022": 0.0,
			"0.023": 0.0,
			"0.024": 0.0,
			"0.025": 0.0
		}
	}
}
