{
	 "smiles": "NC(=S)CS(=O)(=O)CC1=CC=CO1", 
	 "Tm": 402.15, 
	 "num_atms": 22, 
	 "gaussian": { 
		 "optdone": 1, 
		 "sigma_profile": "yes", 
		 "theory": "DFT", 
		 "functional": "B3LYP", 
		 "basiset": "6-31G**", 
		 "properties": { 
			 "R2extent": 3541.7593, 
			 "electric_dipole_moment_norm": 1.68877737432, 
			 "electric_quadrupole_moment_norm": 24.6270955338, 
			 "total_energy": -1348.88559843, 
			 "HOMO_LUMO_gap": 0.16665, 
			 "cosmo_polarized_energy": -19.57, 
			 "cosmo_cavitation_energy": 29.23, 
			 "cosmo_dispersion_energy": -21.41, 
			 "cosmo_repulsion_energy": 1.6, 
			 "cosmo_total_nonelectrostatic_energy": 9.42, 
			 "SMD_solvation_energy": 4.07 
		},
		"coords": [
			{
				"x": -0.295322635,
				"y": -0.5580827541,
				"z": 3.0629668739,
				"element": "N" 
			},
			{
				"x": -0.391800834,
				"y": -0.8223838542,
				"z": 1.7511303934,
				"element": "C" 
			},
			{
				"x": -0.1508640704,
				"y": -2.3290388144,
				"z": 1.0835265431,
				"element": "S" 
			},
			{
				"x": -0.8034778026,
				"y": 0.358672766,
				"z": 0.888631443,
				"element": "C" 
			},
			{
				"x": 0.1894261493,
				"y": 1.8915975808,
				"z": 1.0902865822,
				"element": "S" 
			},
			{
				"x": 0.2903109184,
				"y": 2.17094309,
				"z": 2.5422995736,
				"element": "O" 
			},
			{
				"x": -0.3783276085,
				"y": 2.8950564628,
				"z": 0.1835896015,
				"element": "O" 
			},
			{
				"x": 1.8814812532,
				"y": 1.4151199355,
				"z": 0.5176152472,
				"element": "C" 
			},
			{
				"x": 1.9752217278,
				"y": 1.1149287043,
				"z": -0.9251567742,
				"element": "C" 
			},
			{
				"x": 1.8331818016,
				"y": -0.0336739885,
				"z": -1.6548260583,
				"element": "C" 
			},
			{
				"x": 2.0147389216,
				"y": 0.3366658823,
				"z": -3.0252160039,
				"element": "C" 
			},
			{
				"x": 2.2509600722,
				"y": 1.678578488,
				"z": -3.0260702118,
				"element": "C" 
			},
			{
				"x": 2.2296323142,
				"y": 2.1698125009,
				"z": -1.7582042792,
				"element": "O" 
			},
			{
				"x": -0.2802466748,
				"y": 0.4046718095,
				"z": 3.3906934971,
				"element": "H" 
			},
			{
				"x": -0.0065256466,
				"y": -1.3029178948,
				"z": 3.6812394606,
				"element": "H" 
			},
			{
				"x": -0.7725885563,
				"y": 0.0969915841,
				"z": -0.1673913059,
				"element": "H" 
			},
			{
				"x": -1.8140546457,
				"y": 0.6945814489,
				"z": 1.1474459401,
				"element": "H" 
			},
			{
				"x": 2.1669008125,
				"y": 0.5616357748,
				"z": 1.1371129645,
				"element": "H" 
			},
			{
				"x": 2.4872584531,
				"y": 2.2808758185,
				"z": 0.799695088,
				"element": "H" 
			},
			{
				"x": 1.6192699789,
				"y": -1.0170633121,
				"z": -1.258473943,
				"element": "H" 
			},
			{
				"x": 1.9767482675,
				"y": -0.3116410147,
				"z": -3.88837973,
				"element": "H" 
			},
			{
				"x": 2.4497778034,
				"y": 2.3986697865,
				"z": -3.8045149019,
				"element": "H" 
			}
		],
		 "valence_orbital": [ 
			{
				"type": "occ",
				"energy": -0.31118,
				"method": "rhf"
			},
			{
				"type": "occ",
				"energy": -0.28992,
				"method": "rhf"
			},
			{
				"type": "occ",
				"energy": -0.25038,
				"method": "rhf"
			},
			{
				"type": "occ",
				"energy": -0.23716,
				"method": "rhf"
			},
			{
				"type": "occ",
				"energy": -0.22674,
				"method": "rhf"
			},
			{
				"type": "unocc",
				"energy": -0.06009,
				"method": "rhf"
			},
			{
				"type": "unocc",
				"energy": -0.0167,
				"method": "rhf"
			},
			{
				"type": "unocc",
				"energy": 0.04216,
				"method": "rhf"
			},
			{
				"type": "unocc",
				"energy": 0.04638,
				"method": "rhf"
			},
			{
				"type": "unocc",
				"energy": 0.06107,
				"method": "rhf"
			}
		],
		"cosmo_sigma_profile": { 
			"-0.025": 0.0,
			"-0.024": 0.0,
			"-0.023": 0.0,
			"-0.022": 0.0,
			"-0.021": 0.0,
			"-0.02": 0.0,
			"-0.019": 0.0,
			"-0.018": 0.0,
			"-0.017": 0.0,
			"-0.016": 0.226295493069,
			"-0.015": 1.4201813223,
			"-0.014": 0.890858169895,
			"-0.013": 1.31901875148,
			"-0.012": 2.30622341747,
			"-0.011": 4.28940141933,
			"-0.01": 5.64381441488,
			"-0.009": 8.62607656287,
			"-0.008": 8.95967046481,
			"-0.007": 11.5979110903,
			"-0.006": 13.1574029753,
			"-0.005": 11.3208691788,
			"-0.004": 10.0863123853,
			"-0.003": 11.316650021,
			"-0.002": 11.8094499826,
			"-0.001": 9.32222761812,
			"0.0": 10.3326819118,
			"0.001": 9.37317795851,
			"0.002": 13.6541255842,
			"0.003": 12.8211887487,
			"0.004": 12.1467979693,
			"0.005": 9.74903797153,
			"0.006": 7.07600825619,
			"0.007": 9.05947332001,
			"0.008": 9.94457691891,
			"0.009": 7.52509991271,
			"0.01": 11.3219643842,
			"0.011": 9.65646753041,
			"0.012": 1.10219923108,
			"0.013": 0.0,
			"0.014": 0.0,
			"0.015": 0.0,
			"0.016": 0.0,
			"0.017": 0.0,
			"0.018": 0.0,
			"0.019": 0.0,
			"0.02": 0.0,
			"0.021": 0.0,
			"0.022": 0.0,
			"0.023": 0.0,
			"0.024": 0.0,
			"0.025": 0.0
		}
	}
}
