{
	 "smiles": "BrC1=CC2=C(NC(=O)CC2)C=C1", 
	 "Tm": 443.15, 
	 "num_atms": 20, 
	 "gaussian": { 
		 "optdone": 1, 
		 "sigma_profile": "yes", 
		 "theory": "DFT", 
		 "functional": "B3LYP", 
		 "basiset": "6-31G**", 
		 "properties": { 
			 "R2extent": 4496.3326, 
			 "electric_dipole_moment_norm": 0.932110127614, 
			 "electric_quadrupole_moment_norm": 17.5093324813, 
			 "total_energy": -3049.18907696, 
			 "HOMO_LUMO_gap": 0.1968, 
			 "cosmo_polarized_energy": -11.69, 
			 "cosmo_cavitation_energy": 25.85, 
			 "cosmo_dispersion_energy": -19.83, 
			 "cosmo_repulsion_energy": 1.58, 
			 "cosmo_total_nonelectrostatic_energy": 7.6, 
			 "SMD_solvation_energy": 3.44 
		},
		"coords": [
			{
				"x": -3.065946815,
				"y": -2.1697102704,
				"z": 2.4093185425,
				"element": "Br" 
			},
			{
				"x": -1.977730954,
				"y": -0.7796966963,
				"z": 1.6758406462,
				"element": "C" 
			},
			{
				"x": -1.4497504443,
				"y": -0.9253128984,
				"z": 0.3931516609,
				"element": "C" 
			},
			{
				"x": -0.6513039244,
				"y": 0.0764523546,
				"z": -0.1569246292,
				"element": "C" 
			},
			{
				"x": -0.4045049747,
				"y": 1.2413141893,
				"z": 0.5940696588,
				"element": "C" 
			},
			{
				"x": 0.3944797774,
				"y": 2.2523181863,
				"z": 0.0369443596,
				"element": "N" 
			},
			{
				"x": 0.6943497065,
				"y": 2.3962277968,
				"z": -1.3066116494,
				"element": "C" 
			},
			{
				"x": 1.3605790482,
				"y": 3.3344650998,
				"z": -1.710477437,
				"element": "O" 
			},
			{
				"x": 0.0911114085,
				"y": 1.3254209377,
				"z": -2.2041505405,
				"element": "C" 
			},
			{
				"x": 0.0040162215,
				"y": -0.0435878742,
				"z": -1.5134643621,
				"element": "C" 
			},
			{
				"x": -0.9373993552,
				"y": 1.3778259221,
				"z": 1.8801328254,
				"element": "C" 
			},
			{
				"x": -1.7221234763,
				"y": 0.3643744283,
				"z": 2.4276438486,
				"element": "C" 
			},
			{
				"x": -1.6531105174,
				"y": -1.8256305712,
				"z": -0.1772477107,
				"element": "H" 
			},
			{
				"x": 0.7104155319,
				"y": 3.0126416626,
				"z": 0.625578127,
				"element": "H" 
			},
			{
				"x": -0.9145537937,
				"y": 1.6693503064,
				"z": -2.4823241302,
				"element": "H" 
			},
			{
				"x": 0.6863816475,
				"y": 1.2895771768,
				"z": -3.1185390424,
				"element": "H" 
			},
			{
				"x": -0.5378322079,
				"y": -0.7564152486,
				"z": -2.1424899358,
				"element": "H" 
			},
			{
				"x": 1.0192268129,
				"y": -0.4470453509,
				"z": -1.3873301339,
				"element": "H" 
			},
			{
				"x": -0.7444339444,
				"y": 2.280496213,
				"z": 2.4535895074,
				"element": "H" 
			},
			{
				"x": -2.1361697472,
				"y": 0.4701346364,
				"z": 3.4235903946,
				"element": "H" 
			}
		],
		 "valence_orbital": [ 
			{
				"type": "occ",
				"energy": -0.28939,
				"method": "rhf"
			},
			{
				"type": "occ",
				"energy": -0.28708,
				"method": "rhf"
			},
			{
				"type": "occ",
				"energy": -0.26622,
				"method": "rhf"
			},
			{
				"type": "occ",
				"energy": -0.25928,
				"method": "rhf"
			},
			{
				"type": "occ",
				"energy": -0.22182,
				"method": "rhf"
			},
			{
				"type": "unocc",
				"energy": -0.02502,
				"method": "rhf"
			},
			{
				"type": "unocc",
				"energy": -0.02172,
				"method": "rhf"
			},
			{
				"type": "unocc",
				"energy": 0.00459,
				"method": "rhf"
			},
			{
				"type": "unocc",
				"energy": 0.02698,
				"method": "rhf"
			},
			{
				"type": "unocc",
				"energy": 0.08242,
				"method": "rhf"
			}
		],
		"cosmo_sigma_profile": { 
			"-0.025": 0.0,
			"-0.024": 0.0,
			"-0.023": 0.0,
			"-0.022": 0.0,
			"-0.021": 0.0,
			"-0.02": 0.0,
			"-0.019": 0.0,
			"-0.018": 0.0,
			"-0.017": 0.0,
			"-0.016": 0.0,
			"-0.015": 0.503170868864,
			"-0.014": 1.35532615575,
			"-0.013": 1.14982762155,
			"-0.012": 1.25295745845,
			"-0.011": 1.26936369637,
			"-0.01": 1.21679681141,
			"-0.009": 1.48389488082,
			"-0.008": 1.21109003336,
			"-0.007": 5.55631372581,
			"-0.006": 10.3863653959,
			"-0.005": 16.7696042161,
			"-0.004": 17.2253643247,
			"-0.003": 15.308910178,
			"-0.002": 16.466720649,
			"-0.001": 10.3685774664,
			"0.0": 11.6036521096,
			"0.001": 13.1080532629,
			"0.002": 15.8701834796,
			"0.003": 18.973694396,
			"0.004": 17.6344676329,
			"0.005": 10.820238163,
			"0.006": 1.29970480539,
			"0.007": 1.78867430375,
			"0.008": 0.807830739101,
			"0.009": 0.576046785842,
			"0.01": 1.57043273433,
			"0.011": 2.52742892152,
			"0.012": 2.85795539786,
			"0.013": 5.3152678137,
			"0.014": 2.72723569465,
			"0.015": 0.141439673517,
			"0.016": 0.0,
			"0.017": 0.0,
			"0.018": 0.0,
			"0.019": 0.0,
			"0.02": 0.0,
			"0.021": 0.0,
			"0.022": 0.0,
			"0.023": 0.0,
			"0.024": 0.0,
			"0.025": 0.0
		}
	}
}
