{
	 "smiles": "CS(=O)(=O)NC1CCC(O)CC1", 
	 "Tm": 423.15, 
	 "num_atms": 27, 
	 "gaussian": { 
		 "optdone": 1, 
		 "sigma_profile": "yes", 
		 "theory": "DFT", 
		 "functional": "B3LYP", 
		 "basiset": "6-31G**", 
		 "properties": { 
			 "R2extent": 3985.3378, 
			 "electric_dipole_moment_norm": 3.40340614826, 
			 "electric_quadrupole_moment_norm": 8.9215472083, 
			 "total_energy": -954.328858725, 
			 "HOMO_LUMO_gap": 0.3128, 
			 "cosmo_polarized_energy": -16.24, 
			 "cosmo_cavitation_energy": 29.48, 
			 "cosmo_dispersion_energy": -21.7, 
			 "cosmo_repulsion_energy": 1.69, 
			 "cosmo_total_nonelectrostatic_energy": 9.47, 
			 "SMD_solvation_energy": 3.52 
		},
		"coords": [
			{
				"x": -1.6473593521,
				"y": 1.9002931339,
				"z": 0.1235317125,
				"element": "C" 
			},
			{
				"x": -0.8100567774,
				"y": 1.0436922752,
				"z": -1.2204634493,
				"element": "S" 
			},
			{
				"x": -1.3268138176,
				"y": -0.3298100417,
				"z": -1.2446720856,
				"element": "O" 
			},
			{
				"x": -0.8578514459,
				"y": 1.9033104411,
				"z": -2.4079918573,
				"element": "O" 
			},
			{
				"x": 0.7986502938,
				"y": 1.0452591205,
				"z": -0.6979979597,
				"element": "N" 
			},
			{
				"x": 1.4157527325,
				"y": -0.220133596,
				"z": -0.2353890908,
				"element": "C" 
			},
			{
				"x": 2.6091966476,
				"y": 0.0928375946,
				"z": 0.7093937821,
				"element": "C" 
			},
			{
				"x": 3.9591809959,
				"y": -0.0145592685,
				"z": -0.0118807526,
				"element": "C" 
			},
			{
				"x": 4.2222527693,
				"y": -1.4535789957,
				"z": -0.5066123484,
				"element": "C" 
			},
			{
				"x": 5.2166264154,
				"y": -1.4728496287,
				"z": -1.5287311946,
				"element": "O" 
			},
			{
				"x": 2.9051648079,
				"y": -2.1453249945,
				"z": -0.944036904,
				"element": "C" 
			},
			{
				"x": 1.8471843103,
				"y": -1.13524286,
				"z": -1.4051348618,
				"element": "C" 
			},
			{
				"x": -2.7076202576,
				"y": 1.9391137151,
				"z": -0.1327923922,
				"element": "H" 
			},
			{
				"x": -1.2338467262,
				"y": 2.9049998894,
				"z": 0.2102353211,
				"element": "H" 
			},
			{
				"x": -1.5010903287,
				"y": 1.3366444386,
				"z": 1.0457337704,
				"element": "H" 
			},
			{
				"x": 1.3405554845,
				"y": 1.5326135851,
				"z": -1.4084763136,
				"element": "H" 
			},
			{
				"x": 0.6389034988,
				"y": -0.7337746659,
				"z": 0.3377021481,
				"element": "H" 
			},
			{
				"x": 2.5965201932,
				"y": -0.6174347981,
				"z": 1.5454327724,
				"element": "H" 
			},
			{
				"x": 2.4695883292,
				"y": 1.086286914,
				"z": 1.1454368254,
				"element": "H" 
			},
			{
				"x": 4.7802739626,
				"y": 0.3163831138,
				"z": 0.6314187978,
				"element": "H" 
			},
			{
				"x": 3.9680543921,
				"y": 0.6593837594,
				"z": -0.8812543625,
				"element": "H" 
			},
			{
				"x": 4.6696941875,
				"y": -2.0355771373,
				"z": 0.3067252056,
				"element": "H" 
			},
			{
				"x": 4.8829967382,
				"y": -0.9576462327,
				"z": -2.2760010911,
				"element": "H" 
			},
			{
				"x": 3.1439516014,
				"y": -2.8635079118,
				"z": -1.7348494661,
				"element": "H" 
			},
			{
				"x": 2.499966337,
				"y": -2.7306063487,
				"z": -0.1084754469,
				"element": "H" 
			},
			{
				"x": 2.2602875081,
				"y": -0.5115701875,
				"z": -2.2116287648,
				"element": "H" 
			},
			{
				"x": 0.9659375005,
				"y": -1.6283013135,
				"z": -1.8233219943,
				"element": "H" 
			}
		],
		 "valence_orbital": [ 
			{
				"type": "occ",
				"energy": -0.31435,
				"method": "rhf"
			},
			{
				"type": "occ",
				"energy": -0.30486,
				"method": "rhf"
			},
			{
				"type": "occ",
				"energy": -0.29749,
				"method": "rhf"
			},
			{
				"type": "occ",
				"energy": -0.26853,
				"method": "rhf"
			},
			{
				"type": "occ",
				"energy": -0.26434,
				"method": "rhf"
			},
			{
				"type": "unocc",
				"energy": 0.04846,
				"method": "rhf"
			},
			{
				"type": "unocc",
				"energy": 0.06396,
				"method": "rhf"
			},
			{
				"type": "unocc",
				"energy": 0.07415,
				"method": "rhf"
			},
			{
				"type": "unocc",
				"energy": 0.0778,
				"method": "rhf"
			},
			{
				"type": "unocc",
				"energy": 0.08728,
				"method": "rhf"
			}
		],
		"cosmo_sigma_profile": { 
			"-0.025": 0.0,
			"-0.024": 0.0,
			"-0.023": 0.0,
			"-0.022": 0.00982962459248,
			"-0.021": 0.192142172408,
			"-0.02": 0.0,
			"-0.019": 0.0,
			"-0.018": 0.0,
			"-0.017": 0.0,
			"-0.016": 0.190616646836,
			"-0.015": 0.0666528437313,
			"-0.014": 0.792573480271,
			"-0.013": 1.44829423494,
			"-0.012": 1.96660109285,
			"-0.011": 2.78838392549,
			"-0.01": 3.10756725404,
			"-0.009": 3.67950214732,
			"-0.008": 7.33506489678,
			"-0.007": 9.7962950508,
			"-0.006": 7.63895964827,
			"-0.005": 9.97423528034,
			"-0.004": 18.698074219,
			"-0.003": 24.9096147645,
			"-0.002": 20.5142218669,
			"-0.001": 19.5857786377,
			"0.0": 18.4140817406,
			"0.001": 9.26387807135,
			"0.002": 5.26560148195,
			"0.003": 5.00139260792,
			"0.004": 4.02725781732,
			"0.005": 4.62614102828,
			"0.006": 3.24710680914,
			"0.007": 4.82464285253,
			"0.008": 3.82991424621,
			"0.009": 3.89206948687,
			"0.01": 3.88622765964,
			"0.011": 7.70892641172,
			"0.012": 10.3753122241,
			"0.013": 5.97234763572,
			"0.014": 2.63329095421,
			"0.015": 1.94222416813,
			"0.016": 0.364091886517,
			"0.017": 0.0,
			"0.018": 0.119203770343,
			"0.019": 0.0476219586566,
			"0.02": 0.0,
			"0.021": 0.0,
			"0.022": 0.0,
			"0.023": 0.0,
			"0.024": 0.0,
			"0.025": 0.0
		}
	}
}
