{
	 "smiles": "[O-][N+](=O)C1=CC(=C(C=C1C(Cl)=O)C(Cl)=O)[N+]([O-])=O", 
	 "Tm": 380.15, 
	 "num_atms": 20, 
	 "gaussian": { 
		 "optdone": 1, 
		 "sigma_profile": "yes", 
		 "theory": "DFT", 
		 "functional": "B3LYP", 
		 "basiset": "6-31G**", 
		 "properties": { 
			 "R2extent": 6458.7466, 
			 "electric_dipole_moment_norm": 0.370699851632, 
			 "electric_quadrupole_moment_norm": 16.8658807268, 
			 "total_energy": -1787.05328411, 
			 "HOMO_LUMO_gap": 0.17615, 
			 "cosmo_polarized_energy": -15.58, 
			 "cosmo_cavitation_energy": 32.13, 
			 "cosmo_dispersion_energy": -22.27, 
			 "cosmo_repulsion_energy": 1.75, 
			 "cosmo_total_nonelectrostatic_energy": 11.6, 
			 "SMD_solvation_energy": 10.37 
		},
		"coords": [
			{
				"x": -3.072234075,
				"y": -1.9841060241,
				"z": -0.3835273519,
				"element": "O" 
			},
			{
				"x": -2.0049769814,
				"y": -2.4746824331,
				"z": -0.0199752491,
				"element": "N" 
			},
			{
				"x": -1.6675658509,
				"y": -3.6430033086,
				"z": -0.1644169117,
				"element": "O" 
			},
			{
				"x": -1.049383787,
				"y": -1.5632771642,
				"z": 0.6363338115,
				"element": "C" 
			},
			{
				"x": 0.2256025923,
				"y": -2.0405741905,
				"z": 0.9057338929,
				"element": "C" 
			},
			{
				"x": 1.1462700603,
				"y": -1.180527109,
				"z": 1.4877360822,
				"element": "C" 
			},
			{
				"x": 0.8242514642,
				"y": 0.1467361752,
				"z": 1.7908256803,
				"element": "C" 
			},
			{
				"x": -0.4724912463,
				"y": 0.5940704758,
				"z": 1.521679548,
				"element": "C" 
			},
			{
				"x": -1.4262312312,
				"y": -0.2529719817,
				"z": 0.949874479,
				"element": "C" 
			},
			{
				"x": -2.791165749,
				"y": 0.3325626948,
				"z": 0.6947800289,
				"element": "C" 
			},
			{
				"x": -3.9707172851,
				"y": -0.1066189641,
				"z": 1.9795271557,
				"element": "Cl" 
			},
			{
				"x": -3.0383615134,
				"y": 1.1262956974,
				"z": -0.1545046111,
				"element": "O" 
			},
			{
				"x": 1.7710047613,
				"y": 1.1390497881,
				"z": 2.4153013361,
				"element": "C" 
			},
			{
				"x": 2.8661710996,
				"y": 1.8902521332,
				"z": 1.2023989704,
				"element": "Cl" 
			},
			{
				"x": 1.7083329197,
				"y": 1.5178657564,
				"z": 3.5400037179,
				"element": "O" 
			},
			{
				"x": 2.4844586378,
				"y": -1.7120082331,
				"z": 1.8060771084,
				"element": "N" 
			},
			{
				"x": 2.7546421083,
				"y": -2.8408120557,
				"z": 1.4155808694,
				"element": "O" 
			},
			{
				"x": 3.2285516558,
				"y": -0.9775429306,
				"z": 2.4531965047,
				"element": "O" 
			},
			{
				"x": 0.4959867,
				"y": -3.0609679431,
				"z": 0.6671440996,
				"element": "H" 
			},
			{
				"x": -0.7435442803,
				"y": 1.6168596167,
				"z": 1.7608308387,
				"element": "H" 
			}
		],
		 "valence_orbital": [ 
			{
				"type": "occ",
				"energy": -0.33915,
				"method": "rhf"
			},
			{
				"type": "occ",
				"energy": -0.33788,
				"method": "rhf"
			},
			{
				"type": "occ",
				"energy": -0.33632,
				"method": "rhf"
			},
			{
				"type": "occ",
				"energy": -0.32456,
				"method": "rhf"
			},
			{
				"type": "occ",
				"energy": -0.32428,
				"method": "rhf"
			},
			{
				"type": "unocc",
				"energy": -0.14813,
				"method": "rhf"
			},
			{
				"type": "unocc",
				"energy": -0.13214,
				"method": "rhf"
			},
			{
				"type": "unocc",
				"energy": -0.07916,
				"method": "rhf"
			},
			{
				"type": "unocc",
				"energy": -0.07569,
				"method": "rhf"
			},
			{
				"type": "unocc",
				"energy": -0.06513,
				"method": "rhf"
			}
		],
		"cosmo_sigma_profile": { 
			"-0.025": 0.0,
			"-0.024": 0.0,
			"-0.023": 0.0,
			"-0.022": 0.0,
			"-0.021": 0.0,
			"-0.02": 0.0,
			"-0.019": 0.0,
			"-0.018": 0.0,
			"-0.017": 0.0,
			"-0.016": 0.0,
			"-0.015": 0.0,
			"-0.014": 0.0,
			"-0.013": 0.982014533589,
			"-0.012": 3.09337931831,
			"-0.011": 2.48185391278,
			"-0.01": 4.78963647295,
			"-0.009": 5.58569988032,
			"-0.008": 8.69348071705,
			"-0.007": 12.7918146722,
			"-0.006": 14.4473978852,
			"-0.005": 12.2091892541,
			"-0.004": 11.0036595512,
			"-0.003": 10.8304928724,
			"-0.002": 9.76585060673,
			"-0.001": 11.8152275221,
			"0.0": 12.4460353435,
			"0.001": 17.645268199,
			"0.002": 24.5976650642,
			"0.003": 24.9594408357,
			"0.004": 16.5100277007,
			"0.005": 16.0550544588,
			"0.006": 18.9110971581,
			"0.007": 17.4638866706,
			"0.008": 7.58095424925,
			"0.009": 0.114465133286,
			"0.01": 0.0,
			"0.011": 0.0,
			"0.012": 0.0,
			"0.013": 0.0,
			"0.014": 0.0,
			"0.015": 0.0,
			"0.016": 0.0,
			"0.017": 0.0,
			"0.018": 0.0,
			"0.019": 0.0,
			"0.02": 0.0,
			"0.021": 0.0,
			"0.022": 0.0,
			"0.023": 0.0,
			"0.024": 0.0,
			"0.025": 0.0
		}
	}
}
