{
	 "smiles": "CC(C)N1C=NN=C1C1=C(N)C=CC=C1", 
	 "Tm": 371.15, 
	 "num_atms": 29, 
	 "gaussian": { 
		 "optdone": 1, 
		 "sigma_profile": "yes", 
		 "theory": "DFT", 
		 "functional": "B3LYP", 
		 "basiset": "6-31G**", 
		 "properties": { 
			 "R2extent": 3128.2592, 
			 "electric_dipole_moment_norm": 4.29891523643, 
			 "electric_quadrupole_moment_norm": 16.9322054836, 
			 "total_energy": -646.607455602, 
			 "HOMO_LUMO_gap": 0.17715, 
			 "cosmo_polarized_energy": -16.8, 
			 "cosmo_cavitation_energy": 30.92, 
			 "cosmo_dispersion_energy": -22.05, 
			 "cosmo_repulsion_energy": 1.71, 
			 "cosmo_total_nonelectrostatic_energy": 10.57, 
			 "SMD_solvation_energy": 3.89 
		},
		"coords": [
			{
				"x": 0.4082737429,
				"y": 2.1939635503,
				"z": 1.2864764133,
				"element": "C" 
			},
			{
				"x": 1.2898815542,
				"y": 1.9161665046,
				"z": 0.0651040757,
				"element": "C" 
			},
			{
				"x": 2.7643037512,
				"y": 1.684548636,
				"z": 0.4203287689,
				"element": "C" 
			},
			{
				"x": 0.7367216154,
				"y": 0.851359879,
				"z": -0.808993289,
				"element": "N" 
			},
			{
				"x": 0.6224727403,
				"y": 1.0165650798,
				"z": -2.1668688937,
				"element": "C" 
			},
			{
				"x": -0.03189933,
				"y": 0.0333176097,
				"z": -2.726695583,
				"element": "N" 
			},
			{
				"x": -0.3705598607,
				"y": -0.8313944508,
				"z": -1.7151616623,
				"element": "N" 
			},
			{
				"x": 0.0920600426,
				"y": -0.3527609136,
				"z": -0.5694605092,
				"element": "C" 
			},
			{
				"x": -0.1150341897,
				"y": -1.0402923787,
				"z": 0.7186957452,
				"element": "C" 
			},
			{
				"x": -1.3959736951,
				"y": -1.5857147549,
				"z": 1.0194053115,
				"element": "C" 
			},
			{
				"x": -2.4534721024,
				"y": -1.4623682901,
				"z": 0.1374055513,
				"element": "N" 
			},
			{
				"x": -1.5774267251,
				"y": -2.2118763059,
				"z": 2.2686552419,
				"element": "C" 
			},
			{
				"x": -0.5319265821,
				"y": -2.338690319,
				"z": 3.174440025,
				"element": "C" 
			},
			{
				"x": 0.7410522394,
				"y": -1.8557132927,
				"z": 2.8583472272,
				"element": "C" 
			},
			{
				"x": 0.931508485,
				"y": -1.2203061444,
				"z": 1.6344726302,
				"element": "C" 
			},
			{
				"x": -0.630873255,
				"y": 2.357802154,
				"z": 0.9882891215,
				"element": "H" 
			},
			{
				"x": 0.7690876062,
				"y": 3.0993345642,
				"z": 1.7843201906,
				"element": "H" 
			},
			{
				"x": 0.4349421009,
				"y": 1.3749925199,
				"z": 2.0068832933,
				"element": "H" 
			},
			{
				"x": 1.2501768181,
				"y": 2.8073302825,
				"z": -0.5709130517,
				"element": "H" 
			},
			{
				"x": 3.17519736,
				"y": 2.5933398578,
				"z": 0.8715833752,
				"element": "H" 
			},
			{
				"x": 2.8908196515,
				"y": 0.8724351099,
				"z": 1.1391270587,
				"element": "H" 
			},
			{
				"x": 3.3510458149,
				"y": 1.4519300714,
				"z": -0.4728707731,
				"element": "H" 
			},
			{
				"x": 1.0282183925,
				"y": 1.8758870864,
				"z": -2.6828225176,
				"element": "H" 
			},
			{
				"x": -3.2337620449,
				"y": -2.078647887,
				"z": 0.3121267086,
				"element": "H" 
			},
			{
				"x": -2.1808130074,
				"y": -1.4003363259,
				"z": -0.838615562,
				"element": "H" 
			},
			{
				"x": -2.5594047799,
				"y": -2.6097412752,
				"z": 2.5130584034,
				"element": "H" 
			},
			{
				"x": -0.7075369975,
				"y": -2.835214702,
				"z": 4.1248013447,
				"element": "H" 
			},
			{
				"x": 1.5708754918,
				"y": -1.9820283163,
				"z": 3.545936462,
				"element": "H" 
			},
			{
				"x": 1.9233451631,
				"y": -0.8771875491,
				"z": 1.3621448935,
				"element": "H" 
			}
		],
		 "valence_orbital": [ 
			{
				"type": "occ",
				"energy": -0.28447,
				"method": "rhf"
			},
			{
				"type": "occ",
				"energy": -0.27487,
				"method": "rhf"
			},
			{
				"type": "occ",
				"energy": -0.24902,
				"method": "rhf"
			},
			{
				"type": "occ",
				"energy": -0.23504,
				"method": "rhf"
			},
			{
				"type": "occ",
				"energy": -0.19759,
				"method": "rhf"
			},
			{
				"type": "unocc",
				"energy": -0.02044,
				"method": "rhf"
			},
			{
				"type": "unocc",
				"energy": 0.01188,
				"method": "rhf"
			},
			{
				"type": "unocc",
				"energy": 0.03187,
				"method": "rhf"
			},
			{
				"type": "unocc",
				"energy": 0.05404,
				"method": "rhf"
			},
			{
				"type": "unocc",
				"energy": 0.0717,
				"method": "rhf"
			}
		],
		"cosmo_sigma_profile": { 
			"-0.025": 0.0,
			"-0.024": 0.0,
			"-0.023": 0.0,
			"-0.022": 0.0,
			"-0.021": 0.0,
			"-0.02": 0.0,
			"-0.019": 0.0,
			"-0.018": 0.0,
			"-0.017": 0.0,
			"-0.016": 0.0,
			"-0.015": 0.0,
			"-0.014": 0.0,
			"-0.013": 0.234098570051,
			"-0.012": 1.26572191471,
			"-0.011": 1.54468145138,
			"-0.01": 3.56309204146,
			"-0.009": 4.74245188385,
			"-0.008": 3.30260273177,
			"-0.007": 6.73035033341,
			"-0.006": 9.56245600942,
			"-0.005": 17.7477488,
			"-0.004": 23.1593781295,
			"-0.003": 20.0787544457,
			"-0.002": 19.4288147757,
			"-0.001": 21.6336288995,
			"0.0": 20.4117554282,
			"0.001": 11.4892337363,
			"0.002": 10.2700186818,
			"0.003": 9.35646315851,
			"0.004": 11.236693476,
			"0.005": 11.948804216,
			"0.006": 9.11590960943,
			"0.007": 3.47220296783,
			"0.008": 2.51624683887,
			"0.009": 2.51997533368,
			"0.01": 2.37480312601,
			"0.011": 3.54510765516,
			"0.012": 2.89982985129,
			"0.013": 3.63582470748,
			"0.014": 3.31715803923,
			"0.015": 2.14467370574,
			"0.016": 1.39189038782,
			"0.017": 0.651821004549,
			"0.018": 0.00860202667717,
			"0.019": 0.0,
			"0.02": 0.0,
			"0.021": 0.0,
			"0.022": 0.0,
			"0.023": 0.0,
			"0.024": 0.0,
			"0.025": 0.0
		}
	}
}
