{
	 "smiles": "O=CC1=CC=CC(=C1)C1=CN=CN=C1", 
	 "Tm": 421.15, 
	 "num_atms": 22, 
	 "gaussian": { 
		 "optdone": 1, 
		 "sigma_profile": "yes", 
		 "theory": "DFT", 
		 "functional": "B3LYP", 
		 "basiset": "6-31G**", 
		 "properties": { 
			 "R2extent": 3428.2224, 
			 "electric_dipole_moment_norm": 4.07143724132, 
			 "electric_quadrupole_moment_norm": 11.8138360201, 
			 "total_energy": -608.703720879, 
			 "HOMO_LUMO_gap": 0.17833, 
			 "cosmo_polarized_energy": -12.54, 
			 "cosmo_cavitation_energy": 27.41, 
			 "cosmo_dispersion_energy": -19.81, 
			 "cosmo_repulsion_energy": 1.52, 
			 "cosmo_total_nonelectrostatic_energy": 9.12, 
			 "SMD_solvation_energy": 2.77 
		},
		"coords": [
			{
				"x": 2.7166275408,
				"y": -3.5443065246,
				"z": 1.1100059849,
				"element": "O" 
			},
			{
				"x": 1.653464916,
				"y": -3.5204621149,
				"z": 1.6989549659,
				"element": "C" 
			},
			{
				"x": 0.6938623935,
				"y": -2.3907113026,
				"z": 1.6533975414,
				"element": "C" 
			},
			{
				"x": -0.5042503046,
				"y": -2.4612679746,
				"z": 2.3738330853,
				"element": "C" 
			},
			{
				"x": -1.4001172192,
				"y": -1.3936196752,
				"z": 2.3315957441,
				"element": "C" 
			},
			{
				"x": -1.1008739124,
				"y": -0.2638930332,
				"z": 1.571870976,
				"element": "C" 
			},
			{
				"x": 0.1020476845,
				"y": -0.1738772152,
				"z": 0.8433335214,
				"element": "C" 
			},
			{
				"x": 0.9932783655,
				"y": -1.2511829118,
				"z": 0.8958601073,
				"element": "C" 
			},
			{
				"x": 0.4124547903,
				"y": 1.031780262,
				"z": 0.0425681091,
				"element": "C" 
			},
			{
				"x": 0.0883944456,
				"y": 2.3274285099,
				"z": 0.471116983,
				"element": "C" 
			},
			{
				"x": 0.3569771134,
				"y": 3.4223253276,
				"z": -0.2449824365,
				"element": "N" 
			},
			{
				"x": 0.9737394912,
				"y": 3.2208727081,
				"z": -1.4143522131,
				"element": "C" 
			},
			{
				"x": 1.3422171032,
				"y": 2.0450392679,
				"z": -1.9339932432,
				"element": "N" 
			},
			{
				"x": 1.0540172879,
				"y": 0.9648870002,
				"z": -1.2035169911,
				"element": "C" 
			},
			{
				"x": 1.3287449718,
				"y": -4.3784105084,
				"z": 2.3285763439,
				"element": "H" 
			},
			{
				"x": -0.729232328,
				"y": -3.3483353197,
				"z": 2.961019536,
				"element": "H" 
			},
			{
				"x": -2.3354605532,
				"y": -1.4420176748,
				"z": 2.8806959015,
				"element": "H" 
			},
			{
				"x": -1.8166165973,
				"y": 0.5514803379,
				"z": 1.5226728065,
				"element": "H" 
			},
			{
				"x": 1.9434479216,
				"y": -1.2231214447,
				"z": 0.3715378299,
				"element": "H" 
			},
			{
				"x": -0.3893150577,
				"y": 2.4860656887,
				"z": 1.4370426933,
				"element": "H" 
			},
			{
				"x": 1.2009694623,
				"y": 4.106576781,
				"z": -2.0040076072,
				"element": "H" 
			},
			{
				"x": 1.3290224848,
				"y": 0.0019498164,
				"z": -1.6313296384,
				"element": "H" 
			}
		],
		 "valence_orbital": [ 
			{
				"type": "occ",
				"energy": -0.30746,
				"method": "rhf"
			},
			{
				"type": "occ",
				"energy": -0.27646,
				"method": "rhf"
			},
			{
				"type": "occ",
				"energy": -0.26533,
				"method": "rhf"
			},
			{
				"type": "occ",
				"energy": -0.26174,
				"method": "rhf"
			},
			{
				"type": "occ",
				"energy": -0.25346,
				"method": "rhf"
			},
			{
				"type": "unocc",
				"energy": -0.07513,
				"method": "rhf"
			},
			{
				"type": "unocc",
				"energy": -0.05538,
				"method": "rhf"
			},
			{
				"type": "unocc",
				"energy": -0.04796,
				"method": "rhf"
			},
			{
				"type": "unocc",
				"energy": -0.00733,
				"method": "rhf"
			},
			{
				"type": "unocc",
				"energy": 0.02983,
				"method": "rhf"
			}
		],
		"cosmo_sigma_profile": { 
			"-0.025": 0.0,
			"-0.024": 0.0,
			"-0.023": 0.0,
			"-0.022": 0.0,
			"-0.021": 0.0,
			"-0.02": 0.0,
			"-0.019": 0.0,
			"-0.018": 0.0,
			"-0.017": 0.0,
			"-0.016": 0.0,
			"-0.015": 0.0,
			"-0.014": 0.0,
			"-0.013": 0.0,
			"-0.012": 0.0,
			"-0.011": 0.0,
			"-0.01": 0.0,
			"-0.009": 0.0424438201638,
			"-0.008": 6.94574562546,
			"-0.007": 16.5481300198,
			"-0.006": 16.3868007589,
			"-0.005": 14.0785871902,
			"-0.004": 13.550135492,
			"-0.003": 11.4017406092,
			"-0.002": 16.4173890343,
			"-0.001": 20.9217054703,
			"0.0": 17.2007836663,
			"0.001": 14.3768486053,
			"0.002": 17.1085685038,
			"0.003": 12.0230962199,
			"0.004": 4.3106447641,
			"0.005": 3.67648820046,
			"0.006": 4.99054217675,
			"0.007": 3.21818457503,
			"0.008": 3.15177851582,
			"0.009": 4.75437835714,
			"0.01": 4.92195879175,
			"0.011": 5.37795211019,
			"0.012": 4.48337281276,
			"0.013": 2.19850412583,
			"0.014": 1.74147596188,
			"0.015": 1.4356446351,
			"0.016": 0.156973027513,
			"0.017": 0.0,
			"0.018": 0.0,
			"0.019": 0.0,
			"0.02": 0.0,
			"0.021": 0.0,
			"0.022": 0.0,
			"0.023": 0.0,
			"0.024": 0.0,
			"0.025": 0.0
		}
	}
}
