{
	 "smiles": "CC(C)(C)C1=CC=C(C=C1)C(N)=S", 
	 "Tm": 419.15, 
	 "num_atms": 28, 
	 "gaussian": { 
		 "optdone": 1, 
		 "sigma_profile": "yes", 
		 "theory": "DFT", 
		 "functional": "B3LYP", 
		 "basiset": "6-31G**", 
		 "properties": { 
			 "R2extent": 4745.2831, 
			 "electric_dipole_moment_norm": 4.90371168912, 
			 "electric_quadrupole_moment_norm": 24.3150637618, 
			 "total_energy": -881.175526049, 
			 "HOMO_LUMO_gap": 0.14714, 
			 "cosmo_polarized_energy": -14.89, 
			 "cosmo_cavitation_energy": 31.45, 
			 "cosmo_dispersion_energy": -22.95, 
			 "cosmo_repulsion_energy": 1.76, 
			 "cosmo_total_nonelectrostatic_energy": 10.26, 
			 "SMD_solvation_energy": 4.6 
		},
		"coords": [
			{
				"x": -0.7490399147,
				"y": -0.1075118955,
				"z": 2.9373354978,
				"element": "C" 
			},
			{
				"x": 0.6182971016,
				"y": -0.1579606534,
				"z": 2.2296885471,
				"element": "C" 
			},
			{
				"x": 1.6034321776,
				"y": -0.9346978174,
				"z": 3.1361998193,
				"element": "C" 
			},
			{
				"x": 1.1235192724,
				"y": 1.2936290888,
				"z": 2.0483570593,
				"element": "C" 
			},
			{
				"x": 0.5413111719,
				"y": -0.8458707835,
				"z": 0.8559379266,
				"element": "C" 
			},
			{
				"x": 1.7009753996,
				"y": -0.9788582489,
				"z": 0.0690732276,
				"element": "C" 
			},
			{
				"x": 1.6758967853,
				"y": -1.5864200081,
				"z": -1.1790379256,
				"element": "C" 
			},
			{
				"x": 0.4806337406,
				"y": -2.1103197174,
				"z": -1.696946301,
				"element": "C" 
			},
			{
				"x": -0.6828562994,
				"y": -1.9789819797,
				"z": -0.9240077549,
				"element": "C" 
			},
			{
				"x": -0.650636587,
				"y": -1.3549680884,
				"z": 0.3235117922,
				"element": "C" 
			},
			{
				"x": 0.460188029,
				"y": -2.773630718,
				"z": -3.0282933219,
				"element": "C" 
			},
			{
				"x": -0.4931178676,
				"y": -3.7226962497,
				"z": -3.1826626828,
				"element": "N" 
			},
			{
				"x": 1.4987241556,
				"y": -2.3793002013,
				"z": -4.2754148622,
				"element": "S" 
			},
			{
				"x": -1.4868697143,
				"y": 0.4596095574,
				"z": 2.3603276266,
				"element": "H" 
			},
			{
				"x": -1.1518132143,
				"y": -1.1094234074,
				"z": 3.11938497,
				"element": "H" 
			},
			{
				"x": -0.6422534813,
				"y": 0.3855059284,
				"z": 3.9088063543,
				"element": "H" 
			},
			{
				"x": 2.6096839631,
				"y": -0.9708084269,
				"z": 2.7087624955,
				"element": "H" 
			},
			{
				"x": 1.6756550344,
				"y": -0.4529148125,
				"z": 4.1176412532,
				"element": "H" 
			},
			{
				"x": 1.2674127201,
				"y": -1.9657113075,
				"z": 3.2881387479,
				"element": "H" 
			},
			{
				"x": 1.1905011899,
				"y": 1.7958892924,
				"z": 3.0198944681,
				"element": "H" 
			},
			{
				"x": 0.4419658921,
				"y": 1.869701929,
				"z": 1.4141149428,
				"element": "H" 
			},
			{
				"x": 2.1152178444,
				"y": 1.3260984338,
				"z": 1.5879927338,
				"element": "H" 
			},
			{
				"x": 2.6484328687,
				"y": -0.5972231462,
				"z": 0.4373046965,
				"element": "H" 
			},
			{
				"x": 2.5799446954,
				"y": -1.6685958305,
				"z": -1.7725443362,
				"element": "H" 
			},
			{
				"x": -1.6376258442,
				"y": -2.3221133937,
				"z": -1.3126977404,
				"element": "H" 
			},
			{
				"x": -1.5790398972,
				"y": -1.2624676986,
				"z": 0.8748788716,
				"element": "H" 
			},
			{
				"x": -0.5286743379,
				"y": -4.2194546152,
				"z": -4.0607353053,
				"element": "H" 
			},
			{
				"x": -0.972664884,
				"y": -4.1155052301,
				"z": -2.3863108,
				"element": "H" 
			}
		],
		 "valence_orbital": [ 
			{
				"type": "occ",
				"energy": -0.32253,
				"method": "rhf"
			},
			{
				"type": "occ",
				"energy": -0.25903,
				"method": "rhf"
			},
			{
				"type": "occ",
				"energy": -0.25477,
				"method": "rhf"
			},
			{
				"type": "occ",
				"energy": -0.2247,
				"method": "rhf"
			},
			{
				"type": "occ",
				"energy": -0.20345,
				"method": "rhf"
			},
			{
				"type": "unocc",
				"energy": -0.05631,
				"method": "rhf"
			},
			{
				"type": "unocc",
				"energy": -0.01008,
				"method": "rhf"
			},
			{
				"type": "unocc",
				"energy": 0.02415,
				"method": "rhf"
			},
			{
				"type": "unocc",
				"energy": 0.0731,
				"method": "rhf"
			},
			{
				"type": "unocc",
				"energy": 0.07877,
				"method": "rhf"
			}
		],
		"cosmo_sigma_profile": { 
			"-0.025": 0.0,
			"-0.024": 0.0,
			"-0.023": 0.0,
			"-0.022": 0.0,
			"-0.021": 0.0,
			"-0.02": 0.0,
			"-0.019": 0.0,
			"-0.018": 0.0,
			"-0.017": 0.0,
			"-0.016": 0.0983832562002,
			"-0.015": 1.25783838833,
			"-0.014": 2.63196708422,
			"-0.013": 2.7832369409,
			"-0.012": 2.45695955987,
			"-0.011": 1.54134006457,
			"-0.01": 2.59870974119,
			"-0.009": 2.33812605477,
			"-0.008": 1.6231421094,
			"-0.007": 2.71657403137,
			"-0.006": 4.39869810171,
			"-0.005": 8.83084559676,
			"-0.004": 12.1474377226,
			"-0.003": 22.8213275408,
			"-0.002": 26.2855406368,
			"-0.001": 21.4137021534,
			"0.0": 22.3222711294,
			"0.001": 30.6763128104,
			"0.002": 13.8173882486,
			"0.003": 10.982345681,
			"0.004": 14.9687250091,
			"0.005": 8.66240439851,
			"0.006": 3.36364517652,
			"0.007": 5.06578148433,
			"0.008": 6.51710390198,
			"0.009": 6.43067208522,
			"0.01": 5.06537506188,
			"0.011": 3.49306058532,
			"0.012": 2.22418362329,
			"0.013": 0.132507713635,
			"0.014": 0.0,
			"0.015": 0.0,
			"0.016": 0.0,
			"0.017": 0.0,
			"0.018": 0.0,
			"0.019": 0.0,
			"0.02": 0.0,
			"0.021": 0.0,
			"0.022": 0.0,
			"0.023": 0.0,
			"0.024": 0.0,
			"0.025": 0.0
		}
	}
}
