{
	 "smiles": "NCCOC1=NC=C(C=C1)C#N", 
	 "Tm": 375.15, 
	 "num_atms": 21, 
	 "gaussian": { 
		 "optdone": 1, 
		 "sigma_profile": "yes", 
		 "theory": "DFT", 
		 "functional": "B3LYP", 
		 "basiset": "6-31G**", 
		 "properties": { 
			 "R2extent": 2861.868, 
			 "electric_dipole_moment_norm": 4.59107675715, 
			 "electric_quadrupole_moment_norm": 19.0741874519, 
			 "total_energy": -549.727091349, 
			 "HOMO_LUMO_gap": 0.18929, 
			 "cosmo_polarized_energy": -13.63, 
			 "cosmo_cavitation_energy": 26.48, 
			 "cosmo_dispersion_energy": -18.7, 
			 "cosmo_repulsion_energy": 1.53, 
			 "cosmo_total_nonelectrostatic_energy": 9.31, 
			 "SMD_solvation_energy": 4.27 
		},
		"coords": [
			{
				"x": 2.6426989374,
				"y": 0.967082864,
				"z": -2.3323213404,
				"element": "N" 
			},
			{
				"x": 2.4825487985,
				"y": 0.1384135077,
				"z": -1.1404941978,
				"element": "C" 
			},
			{
				"x": 2.0068714198,
				"y": 0.8614131672,
				"z": 0.1225533625,
				"element": "C" 
			},
			{
				"x": 0.7384778581,
				"y": 1.524368425,
				"z": -0.0987708907,
				"element": "O" 
			},
			{
				"x": -0.3994414747,
				"y": 0.8335079469,
				"z": 0.0933528296,
				"element": "C" 
			},
			{
				"x": -0.3494263733,
				"y": -0.4439510104,
				"z": 0.4686027029,
				"element": "N" 
			},
			{
				"x": -1.5043234441,
				"y": -1.0871440093,
				"z": 0.6595591158,
				"element": "C" 
			},
			{
				"x": -2.758462116,
				"y": -0.4905838848,
				"z": 0.4812811864,
				"element": "C" 
			},
			{
				"x": -2.7924207269,
				"y": 0.8631333323,
				"z": 0.080279033,
				"element": "C" 
			},
			{
				"x": -1.6046565206,
				"y": 1.5365665488,
				"z": -0.1165887535,
				"element": "C" 
			},
			{
				"x": -3.9584619761,
				"y": -1.2355591871,
				"z": 0.6992380154,
				"element": "C" 
			},
			{
				"x": -4.9349452613,
				"y": -1.8429714214,
				"z": 0.8777450963,
				"element": "N" 
			},
			{
				"x": 1.7677615537,
				"y": 1.4469649316,
				"z": -2.5297725941,
				"element": "H" 
			},
			{
				"x": 3.333616177,
				"y": 1.6952409696,
				"z": -2.1630726566,
				"element": "H" 
			},
			{
				"x": 1.7794273976,
				"y": -0.6697153923,
				"z": -1.3678537322,
				"element": "H" 
			},
			{
				"x": 3.4433369966,
				"y": -0.3391844743,
				"z": -0.91009472,
				"element": "H" 
			},
			{
				"x": 2.6875202371,
				"y": 1.6773564467,
				"z": 0.3844993208,
				"element": "H" 
			},
			{
				"x": 1.9190355279,
				"y": 0.1721651765,
				"z": 0.9659045349,
				"element": "H" 
			},
			{
				"x": -1.435208055,
				"y": -2.1279872292,
				"z": 0.9665160376,
				"element": "H" 
			},
			{
				"x": -3.7450231572,
				"y": 1.3610436565,
				"z": -0.067234901,
				"element": "H" 
			},
			{
				"x": -1.5730257984,
				"y": 2.576439636,
				"z": -0.419727449,
				"element": "H" 
			}
		],
		 "valence_orbital": [ 
			{
				"type": "occ",
				"energy": -0.33514,
				"method": "rhf"
			},
			{
				"type": "occ",
				"energy": -0.30994,
				"method": "rhf"
			},
			{
				"type": "occ",
				"energy": -0.28905,
				"method": "rhf"
			},
			{
				"type": "occ",
				"energy": -0.25534,
				"method": "rhf"
			},
			{
				"type": "occ",
				"energy": -0.23973,
				"method": "rhf"
			},
			{
				"type": "unocc",
				"energy": -0.05044,
				"method": "rhf"
			},
			{
				"type": "unocc",
				"energy": -0.04644,
				"method": "rhf"
			},
			{
				"type": "unocc",
				"energy": 0.0303,
				"method": "rhf"
			},
			{
				"type": "unocc",
				"energy": 0.07126,
				"method": "rhf"
			},
			{
				"type": "unocc",
				"energy": 0.08092,
				"method": "rhf"
			}
		],
		"cosmo_sigma_profile": { 
			"-0.025": 0.0,
			"-0.024": 0.0,
			"-0.023": 0.0,
			"-0.022": 0.0,
			"-0.021": 0.0,
			"-0.02": 0.0,
			"-0.019": 0.0,
			"-0.018": 0.0,
			"-0.017": 0.0,
			"-0.016": 0.0,
			"-0.015": 0.0,
			"-0.014": 0.0,
			"-0.013": 0.0,
			"-0.012": 0.0,
			"-0.011": 0.0,
			"-0.01": 0.649859230739,
			"-0.009": 4.46983195536,
			"-0.008": 8.97162325249,
			"-0.007": 10.161993625,
			"-0.006": 10.4442909183,
			"-0.005": 13.444361677,
			"-0.004": 16.4017441458,
			"-0.003": 15.5485888962,
			"-0.002": 17.3078375758,
			"-0.001": 20.385013275,
			"0.0": 17.952709372,
			"0.001": 11.4352635847,
			"0.002": 6.38450190504,
			"0.003": 6.26425478581,
			"0.004": 5.76987504689,
			"0.005": 6.29450697229,
			"0.006": 4.44258834369,
			"0.007": 5.97959273285,
			"0.008": 5.5948771195,
			"0.009": 5.85262598099,
			"0.01": 4.50281036796,
			"0.011": 3.73314149746,
			"0.012": 3.03349663364,
			"0.013": 2.3719992092,
			"0.014": 0.746156874214,
			"0.015": 0.396343777883,
			"0.016": 0.606757011313,
			"0.017": 0.931218779759,
			"0.018": 0.626096834874,
			"0.019": 0.506363267921,
			"0.02": 0.310082303443,
			"0.021": 0.0,
			"0.022": 0.0,
			"0.023": 0.0,
			"0.024": 0.0,
			"0.025": 0.0
		}
	}
}
