{
	 "smiles": "OC(=O)C1=C(Cl)C=CC(=C1)S(=O)(=O)NC1=CC=C(F)C=C1", 
	 "Tm": 479.15, 
	 "num_atms": 30, 
	 "gaussian": { 
		 "optdone": 1, 
		 "sigma_profile": "yes", 
		 "theory": "DFT", 
		 "functional": "B3LYP", 
		 "basiset": "6-31G**", 
		 "properties": { 
			 "R2extent": 8261.1531, 
			 "electric_dipole_moment_norm": 5.84862243439, 
			 "electric_quadrupole_moment_norm": 24.0250587635, 
			 "total_energy": -1814.5981073, 
			 "HOMO_LUMO_gap": 0.15729, 
			 "cosmo_polarized_energy": -22.92, 
			 "cosmo_cavitation_energy": 39.18, 
			 "cosmo_dispersion_energy": -27.18, 
			 "cosmo_repulsion_energy": 2.01, 
			 "cosmo_total_nonelectrostatic_energy": 14.01, 
			 "SMD_solvation_energy": 7.21 
		},
		"coords": [
			{
				"x": -3.4969681412,
				"y": 3.1199291907,
				"z": 2.3925365722,
				"element": "O" 
			},
			{
				"x": -2.3843918616,
				"y": 2.384966679,
				"z": 2.2381842346,
				"element": "C" 
			},
			{
				"x": -2.1070292793,
				"y": 1.5274218845,
				"z": 3.0441504185,
				"element": "O" 
			},
			{
				"x": -1.4629202442,
				"y": 2.6541257371,
				"z": 1.0571412187,
				"element": "C" 
			},
			{
				"x": -1.6841820435,
				"y": 3.4508303639,
				"z": -0.0806156626,
				"element": "C" 
			},
			{
				"x": -3.1936540334,
				"y": 4.3313740642,
				"z": -0.3526223726,
				"element": "Cl" 
			},
			{
				"x": -0.7211009846,
				"y": 3.5942325317,
				"z": -1.0824817221,
				"element": "C" 
			},
			{
				"x": 0.4974459975,
				"y": 2.9344165662,
				"z": -0.9741897195,
				"element": "C" 
			},
			{
				"x": 0.7337462816,
				"y": 2.1326103425,
				"z": 0.1443870392,
				"element": "C" 
			},
			{
				"x": -0.2238044009,
				"y": 1.9961263889,
				"z": 1.1420331436,
				"element": "C" 
			},
			{
				"x": 2.3028409815,
				"y": 1.2584217891,
				"z": 0.2791866804,
				"element": "S" 
			},
			{
				"x": 2.617464158,
				"y": 1.1553743262,
				"z": 1.700940326,
				"element": "O" 
			},
			{
				"x": 3.214178941,
				"y": 1.8513482743,
				"z": -0.6994796028,
				"element": "O" 
			},
			{
				"x": 2.0383656592,
				"y": -0.310777093,
				"z": -0.2957460291,
				"element": "N" 
			},
			{
				"x": 1.1106572203,
				"y": -1.2150145087,
				"z": 0.3017024589,
				"element": "C" 
			},
			{
				"x": 1.2717693577,
				"y": -1.6163620361,
				"z": 1.6356199497,
				"element": "C" 
			},
			{
				"x": 0.3773240905,
				"y": -2.5218436087,
				"z": 2.2014901403,
				"element": "C" 
			},
			{
				"x": -0.647160253,
				"y": -3.0440983008,
				"z": 1.4187837729,
				"element": "C" 
			},
			{
				"x": -1.4986807603,
				"y": -3.935825508,
				"z": 1.9615972301,
				"element": "F" 
			},
			{
				"x": -0.8133890101,
				"y": -2.6763917587,
				"z": 0.0886240849,
				"element": "C" 
			},
			{
				"x": 0.0630159362,
				"y": -1.7438200065,
				"z": -0.4634841428,
				"element": "C" 
			},
			{
				"x": -3.6084761974,
				"y": 3.7678346877,
				"z": 1.6782487423,
				"element": "H" 
			},
			{
				"x": -0.9315313675,
				"y": 4.2264692475,
				"z": -1.9374881632,
				"element": "H" 
			},
			{
				"x": 1.2640083065,
				"y": 3.0518005332,
				"z": -1.7322926819,
				"element": "H" 
			},
			{
				"x": -0.0400940475,
				"y": 1.3888299051,
				"z": 2.0202801877,
				"element": "H" 
			},
			{
				"x": 2.0640514541,
				"y": -0.3137579251,
				"z": -1.3103486369,
				"element": "H" 
			},
			{
				"x": 2.0918200809,
				"y": -1.2139203174,
				"z": 2.2175548645,
				"element": "H" 
			},
			{
				"x": 0.4768955131,
				"y": -2.8390897366,
				"z": 3.2335439266,
				"element": "H" 
			},
			{
				"x": -1.6233057166,
				"y": -3.1050054901,
				"z": -0.4910692466,
				"element": "H" 
			},
			{
				"x": -0.0651956368,
				"y": -1.4307062222,
				"z": -1.496287011,
				"element": "H" 
			}
		],
		 "valence_orbital": [ 
			{
				"type": "occ",
				"energy": -0.30031,
				"method": "rhf"
			},
			{
				"type": "occ",
				"energy": -0.29036,
				"method": "rhf"
			},
			{
				"type": "occ",
				"energy": -0.28864,
				"method": "rhf"
			},
			{
				"type": "occ",
				"energy": -0.27394,
				"method": "rhf"
			},
			{
				"type": "occ",
				"energy": -0.23999,
				"method": "rhf"
			},
			{
				"type": "unocc",
				"energy": -0.0827,
				"method": "rhf"
			},
			{
				"type": "unocc",
				"energy": -0.06328,
				"method": "rhf"
			},
			{
				"type": "unocc",
				"energy": -0.0256,
				"method": "rhf"
			},
			{
				"type": "unocc",
				"energy": -0.01722,
				"method": "rhf"
			},
			{
				"type": "unocc",
				"energy": -0.0154,
				"method": "rhf"
			}
		],
		"cosmo_sigma_profile": { 
			"-0.025": 0.0,
			"-0.024": 0.0,
			"-0.023": 0.0,
			"-0.022": 0.0,
			"-0.021": 0.0,
			"-0.02": 0.0,
			"-0.019": 0.0,
			"-0.018": 0.0,
			"-0.017": 0.0676152594268,
			"-0.016": 0.828394909321,
			"-0.015": 0.959273735195,
			"-0.014": 1.72706665089,
			"-0.013": 1.559823406,
			"-0.012": 3.09045000127,
			"-0.011": 2.20575933422,
			"-0.01": 3.07297724398,
			"-0.009": 4.95320489914,
			"-0.008": 10.0382148405,
			"-0.007": 12.0083225416,
			"-0.006": 12.8857985,
			"-0.005": 14.5435794676,
			"-0.004": 14.7469408111,
			"-0.003": 18.452315625,
			"-0.002": 23.1261162268,
			"-0.001": 26.5094327154,
			"0.0": 25.0199743698,
			"0.001": 22.796873005,
			"0.002": 22.9854713627,
			"0.003": 18.6930580259,
			"0.004": 17.086784515,
			"0.005": 8.32442269,
			"0.006": 6.12563831635,
			"0.007": 6.5067994509,
			"0.008": 6.43745280654,
			"0.009": 9.12267381126,
			"0.01": 12.5677380519,
			"0.011": 9.06729587372,
			"0.012": 2.18382888554,
			"0.013": 0.420152348952,
			"0.014": 0.0,
			"0.015": 0.0,
			"0.016": 0.0,
			"0.017": 0.0,
			"0.018": 0.0,
			"0.019": 0.0,
			"0.02": 0.0,
			"0.021": 0.0,
			"0.022": 0.0,
			"0.023": 0.0,
			"0.024": 0.0,
			"0.0": 0.0
		}
	}
}
