{
	 "smiles": "ClC1=C(C=C(Br)C=N1)S(Cl)(=O)=O", 
	 "Tm": 335.15, 
	 "num_atms": 14, 
	 "gaussian": { 
		 "optdone": 1, 
		 "sigma_profile": "yes", 
		 "theory": "DFT", 
		 "functional": "B3LYP", 
		 "basiset": "6-31G**", 
		 "properties": { 
			 "R2extent": 4576.9564, 
			 "electric_dipole_moment_norm": 4.08931654925, 
			 "electric_quadrupole_moment_norm": 4.66092956716, 
			 "total_energy": -4286.81312359, 
			 "HOMO_LUMO_gap": 0.18058, 
			 "cosmo_polarized_energy": -9.53, 
			 "cosmo_cavitation_energy": 26.61, 
			 "cosmo_dispersion_energy": -20.63, 
			 "cosmo_repulsion_energy": 1.6, 
			 "cosmo_total_nonelectrostatic_energy": 7.58, 
			 "SMD_solvation_energy": 0.65 
		},
		"coords": [
			{
				"x": -2.7633799035,
				"y": 2.2793937715,
				"z": -0.437250744,
				"element": "Cl" 
			},
			{
				"x": -1.8044226179,
				"y": 0.8430629592,
				"z": -0.2148803476,
				"element": "C" 
			},
			{
				"x": -0.4839743436,
				"y": 0.7503276889,
				"z": -0.7027976892,
				"element": "C" 
			},
			{
				"x": 0.2228004333,
				"y": -0.4287635254,
				"z": -0.4882377995,
				"element": "C" 
			},
			{
				"x": -0.4074924742,
				"y": -1.4645229287,
				"z": 0.1995842546,
				"element": "C" 
			},
			{
				"x": 0.4992414575,
				"y": -3.0964149976,
				"z": 0.5250476305,
				"element": "Br" 
			},
			{
				"x": -1.7151548375,
				"y": -1.2841034472,
				"z": 0.6455286179,
				"element": "C" 
			},
			{
				"x": -2.3857277005,
				"y": -0.1489660124,
				"z": 0.4350081547,
				"element": "N" 
			},
			{
				"x": 0.23902244,
				"y": 2.1656172373,
				"z": -1.5876454986,
				"element": "S" 
			},
			{
				"x": 2.195381126,
				"y": 1.4612971524,
				"z": -2.071546776,
				"element": "Cl" 
			},
			{
				"x": -0.4521594804,
				"y": 2.3288390858,
				"z": -2.8562138883,
				"element": "O" 
			},
			{
				"x": 0.4288552977,
				"y": 3.2591102361,
				"z": -0.6485615275,
				"element": "O" 
			},
			{
				"x": 1.2374888298,
				"y": -0.5426141749,
				"z": -0.8452634876,
				"element": "H" 
			},
			{
				"x": -2.2366782268,
				"y": -2.069463045,
				"z": 1.1845291007,
				"element": "H" 
			}
		],
		 "valence_orbital": [ 
			{
				"type": "occ",
				"energy": -0.33112,
				"method": "rhf"
			},
			{
				"type": "occ",
				"energy": -0.33101,
				"method": "rhf"
			},
			{
				"type": "occ",
				"energy": -0.32956,
				"method": "rhf"
			},
			{
				"type": "occ",
				"energy": -0.31065,
				"method": "rhf"
			},
			{
				"type": "occ",
				"energy": -0.28371,
				"method": "rhf"
			},
			{
				"type": "unocc",
				"energy": -0.10313,
				"method": "rhf"
			},
			{
				"type": "unocc",
				"energy": -0.08811,
				"method": "rhf"
			},
			{
				"type": "unocc",
				"energy": -0.07573,
				"method": "rhf"
			},
			{
				"type": "unocc",
				"energy": -0.0348,
				"method": "rhf"
			},
			{
				"type": "unocc",
				"energy": -0.00207,
				"method": "rhf"
			}
		],
		"cosmo_sigma_profile": { 
			"-0.025": 0.0,
			"-0.024": 0.0,
			"-0.023": 0.0,
			"-0.022": 0.0,
			"-0.021": 0.0,
			"-0.02": 0.0,
			"-0.019": 0.0,
			"-0.018": 0.0,
			"-0.017": 0.0,
			"-0.016": 0.0,
			"-0.015": 0.0,
			"-0.014": 0.0,
			"-0.013": 0.0,
			"-0.012": 0.0,
			"-0.011": 0.0,
			"-0.01": 1.50549605277,
			"-0.009": 4.13441239141,
			"-0.008": 4.3546066719,
			"-0.007": 5.67609014166,
			"-0.006": 8.91318709498,
			"-0.005": 11.6730947398,
			"-0.004": 17.4812814623,
			"-0.003": 17.5228125595,
			"-0.002": 14.5377583394,
			"-0.001": 14.2756214603,
			"0.0": 15.8163833194,
			"0.001": 19.298111273,
			"0.002": 26.7176298285,
			"0.003": 20.9542582262,
			"0.004": 7.32182351896,
			"0.005": 4.13281740335,
			"0.006": 5.64884897455,
			"0.007": 12.8120589818,
			"0.008": 8.29595451327,
			"0.009": 0.770592749377,
			"0.01": 0.873054037733,
			"0.011": 0.822745453437,
			"0.012": 0.0914253633789,
			"0.013": 0.0,
			"0.014": 0.0,
			"0.015": 0.0,
			"0.016": 0.0,
			"0.017": 0.0,
			"0.018": 0.0,
			"0.019": 0.0,
			"0.02": 0.0,
			"0.021": 0.0,
			"0.022": 0.0,
			"0.023": 0.0,
			"0.024": 0.0,
			"0.025": 0.0
		}
	}
}
