{
	 "smiles": "OC(=O)COC1=C(Cl)C=C(Br)C=C1", 
	 "Tm": 420.15, 
	 "num_atms": 19, 
	 "gaussian": { 
		 "optdone": 1, 
		 "sigma_profile": "yes", 
		 "theory": "DFT", 
		 "functional": "B3LYP", 
		 "basiset": "6-31G**", 
		 "properties": { 
			 "R2extent": 6084.7177, 
			 "electric_dipole_moment_norm": 3.29081672234, 
			 "electric_quadrupole_moment_norm": 16.798426662, 
			 "total_energy": -3565.7271511, 
			 "HOMO_LUMO_gap": 0.20452, 
			 "cosmo_polarized_energy": -13.53, 
			 "cosmo_cavitation_energy": 28.92, 
			 "cosmo_dispersion_energy": -21.23, 
			 "cosmo_repulsion_energy": 1.69, 
			 "cosmo_total_nonelectrostatic_energy": 9.38, 
			 "SMD_solvation_energy": 5.07 
		},
		"coords": [
			{
				"x": -2.344674779,
				"y": -1.0379433853,
				"z": -2.6076254952,
				"element": "O" 
			},
			{
				"x": -1.746742808,
				"y": -2.1258843814,
				"z": -2.1015230191,
				"element": "C" 
			},
			{
				"x": -1.8536235931,
				"y": -3.224873167,
				"z": -2.5837527534,
				"element": "O" 
			},
			{
				"x": -0.8980669362,
				"y": -1.9015854343,
				"z": -0.8468894118,
				"element": "C" 
			},
			{
				"x": -0.9494950497,
				"y": -0.5212885072,
				"z": -0.5048932251,
				"element": "O" 
			},
			{
				"x": -0.2728301009,
				"y": -0.0620978399,
				"z": 0.5857684203,
				"element": "C" 
			},
			{
				"x": -0.3738872205,
				"y": 1.3131311323,
				"z": 0.8634387258,
				"element": "C" 
			},
			{
				"x": -1.3383691869,
				"y": 2.3351876505,
				"z": -0.1785219345,
				"element": "Cl" 
			},
			{
				"x": 0.2820090122,
				"y": 1.8723496609,
				"z": 1.9546188323,
				"element": "C" 
			},
			{
				"x": 1.0494564858,
				"y": 1.0513971525,
				"z": 2.7814502459,
				"element": "C" 
			},
			{
				"x": 1.9499873352,
				"y": 1.816226749,
				"z": 4.2782533692,
				"element": "Br" 
			},
			{
				"x": 1.1629552025,
				"y": -0.3107932856,
				"z": 2.5254145431,
				"element": "C" 
			},
			{
				"x": 0.5014403766,
				"y": -0.8648731338,
				"z": 1.4278169649,
				"element": "C" 
			},
			{
				"x": -2.1172166971,
				"y": -0.2673311427,
				"z": -2.0570421054,
				"element": "H" 
			},
			{
				"x": 0.1279040457,
				"y": -2.2226616764,
				"z": -1.0626955897,
				"element": "H" 
			},
			{
				"x": -1.2999570637,
				"y": -2.5285783457,
				"z": -0.0420831741,
				"element": "H" 
			},
			{
				"x": 0.1917496266,
				"y": 2.9332588055,
				"z": 2.1515577936,
				"element": "H" 
			},
			{
				"x": 1.7608796677,
				"y": -0.9417362379,
				"z": 3.172271712,
				"element": "H" 
			},
			{
				"x": 0.5962816827,
				"y": -1.9271046135,
				"z": 1.2366361011,
				"element": "H" 
			}
		],
		 "valence_orbital": [ 
			{
				"type": "occ",
				"energy": -0.31147,
				"method": "rhf"
			},
			{
				"type": "occ",
				"energy": -0.30222,
				"method": "rhf"
			},
			{
				"type": "occ",
				"energy": -0.28431,
				"method": "rhf"
			},
			{
				"type": "occ",
				"energy": -0.27781,
				"method": "rhf"
			},
			{
				"type": "occ",
				"energy": -0.24653,
				"method": "rhf"
			},
			{
				"type": "unocc",
				"energy": -0.04201,
				"method": "rhf"
			},
			{
				"type": "unocc",
				"energy": -0.02925,
				"method": "rhf"
			},
			{
				"type": "unocc",
				"energy": -0.01927,
				"method": "rhf"
			},
			{
				"type": "unocc",
				"energy": 0.00049,
				"method": "rhf"
			},
			{
				"type": "unocc",
				"energy": 0.02449,
				"method": "rhf"
			}
		],
		"cosmo_sigma_profile": { 
			"-0.025": 0.0,
			"-0.024": 0.0,
			"-0.023": 0.0,
			"-0.022": 0.0,
			"-0.021": 0.0,
			"-0.02": 0.0,
			"-0.019": 0.0,
			"-0.018": 0.0,
			"-0.017": 0.0,
			"-0.016": 0.0,
			"-0.015": 0.0,
			"-0.014": 0.0,
			"-0.013": 0.0,
			"-0.012": 0.0,
			"-0.011": 0.0,
			"-0.01": 0.77174295258,
			"-0.009": 10.4782230561,
			"-0.008": 11.5114645395,
			"-0.007": 11.9141286324,
			"-0.006": 8.50569524924,
			"-0.005": 9.3768032965,
			"-0.004": 13.2163814942,
			"-0.003": 9.25944355978,
			"-0.002": 11.2529899836,
			"-0.001": 14.1393252369,
			"0.0": 19.0078724848,
			"0.001": 25.3237219744,
			"0.002": 24.4803812529,
			"0.003": 15.4758320053,
			"0.004": 20.4460397496,
			"0.005": 5.28553997165,
			"0.006": 2.00701505968,
			"0.007": 2.38971312083,
			"0.008": 3.40155035828,
			"0.009": 4.64030208771,
			"0.01": 4.31579014439,
			"0.011": 4.94158772989,
			"0.012": 4.37468106439,
			"0.013": 0.687159386363,
			"0.014": 0.0,
			"0.015": 0.0,
			"0.016": 0.0,
			"0.017": 0.0,
			"0.018": 0.0,
			"0.019": 0.0,
			"0.02": 0.0,
			"0.021": 0.0,
			"0.022": 0.0,
			"0.023": 0.0,
			"0.024": 0.0,
			"0.025": 0.0
		}
	}
}
