{
	 "smiles": "CN(CC(O)=O)C1=NC=C(Cl)C=C1", 
	 "Tm": 409.15, 
	 "num_atms": 22, 
	 "gaussian": { 
		 "optdone": 1, 
		 "sigma_profile": "yes", 
		 "theory": "DFT", 
		 "functional": "B3LYP", 
		 "basiset": "6-31G**", 
		 "properties": { 
			 "R2extent": 5273.353, 
			 "electric_dipole_moment_norm": 5.47152205332, 
			 "electric_quadrupole_moment_norm": 7.0161967176, 
			 "total_energy": -1030.42742224, 
			 "HOMO_LUMO_gap": 0.16996, 
			 "cosmo_polarized_energy": -13.92, 
			 "cosmo_cavitation_energy": 27.66, 
			 "cosmo_dispersion_energy": -20.3, 
			 "cosmo_repulsion_energy": 1.6, 
			 "cosmo_total_nonelectrostatic_energy": 8.96, 
			 "SMD_solvation_energy": 5.43 
		},
		"coords": [
			{
				"x": -0.5286741895,
				"y": -1.5513721031,
				"z": -0.7063089696,
				"element": "C" 
			},
			{
				"x": -0.1667998319,
				"y": -0.8859254111,
				"z": 0.5369068726,
				"element": "N" 
			},
			{
				"x": 1.2212024671,
				"y": -0.4491091887,
				"z": 0.7101030523,
				"element": "C" 
			},
			{
				"x": 1.4465903478,
				"y": 1.0477789443,
				"z": 0.4203094797,
				"element": "C" 
			},
			{
				"x": 0.8077760698,
				"y": 1.8834531185,
				"z": 1.2483396977,
				"element": "O" 
			},
			{
				"x": 2.1539782454,
				"y": 1.4322354814,
				"z": -0.4824362684,
				"element": "O" 
			},
			{
				"x": -1.0581902577,
				"y": -0.7959516404,
				"z": 1.5762647818,
				"element": "C" 
			},
			{
				"x": -0.7238378207,
				"y": 0.031227295,
				"z": 2.592120803,
				"element": "N" 
			},
			{
				"x": -1.5381318075,
				"y": 0.1447596349,
				"z": 3.6491081385,
				"element": "C" 
			},
			{
				"x": -2.7403472573,
				"y": -0.5421966326,
				"z": 3.7440424113,
				"element": "C" 
			},
			{
				"x": -3.7670353463,
				"y": -0.3431895278,
				"z": 5.1481111485,
				"element": "Cl" 
			},
			{
				"x": -3.1143526207,
				"y": -1.3870156553,
				"z": 2.6928880051,
				"element": "C" 
			},
			{
				"x": -2.2740560521,
				"y": -1.5232178384,
				"z": 1.6015879723,
				"element": "C" 
			},
			{
				"x": 0.1643583868,
				"y": -1.2369280378,
				"z": -1.4879631125,
				"element": "H" 
			},
			{
				"x": -0.4895741529,
				"y": -2.6476917438,
				"z": -0.6269359659,
				"element": "H" 
			},
			{
				"x": -1.5348903058,
				"y": -1.2598280364,
				"z": -1.021428118,
				"element": "H" 
			},
			{
				"x": 1.8537355326,
				"y": -1.0120521953,
				"z": 0.0234215243,
				"element": "H" 
			},
			{
				"x": 1.5385547676,
				"y": -0.6658364234,
				"z": 1.7362538838,
				"element": "H" 
			},
			{
				"x": 0.2909401933,
				"y": 1.3496621368,
				"z": 1.9062969326,
				"element": "H" 
			},
			{
				"x": -1.2215604282,
				"y": 0.8214002384,
				"z": 4.4380601009,
				"element": "H" 
			},
			{
				"x": -4.0469387695,
				"y": -1.9391856888,
				"z": 2.7420136647,
				"element": "H" 
			},
			{
				"x": -2.5379471704,
				"y": -2.1984167262,
				"z": 0.7977439653,
				"element": "H" 
			}
		],
		 "valence_orbital": [ 
			{
				"type": "occ",
				"energy": -0.30846,
				"method": "rhf"
			},
			{
				"type": "occ",
				"energy": -0.2977,
				"method": "rhf"
			},
			{
				"type": "occ",
				"energy": -0.29492,
				"method": "rhf"
			},
			{
				"type": "occ",
				"energy": -0.26065,
				"method": "rhf"
			},
			{
				"type": "occ",
				"energy": -0.22174,
				"method": "rhf"
			},
			{
				"type": "unocc",
				"energy": -0.05178,
				"method": "rhf"
			},
			{
				"type": "unocc",
				"energy": -0.02179,
				"method": "rhf"
			},
			{
				"type": "unocc",
				"energy": 0.01557,
				"method": "rhf"
			},
			{
				"type": "unocc",
				"energy": 0.01827,
				"method": "rhf"
			},
			{
				"type": "unocc",
				"energy": 0.08022,
				"method": "rhf"
			}
		],
		"cosmo_sigma_profile": { 
			"-0.025": 0.0,
			"-0.024": 0.0,
			"-0.023": 0.0,
			"-0.022": 0.0,
			"-0.021": 0.0,
			"-0.02": 0.0,
			"-0.019": 0.0,
			"-0.018": 0.0,
			"-0.017": 0.0,
			"-0.016": 0.0,
			"-0.015": 0.0,
			"-0.014": 0.0,
			"-0.013": 0.0,
			"-0.012": 0.0,
			"-0.011": 0.0,
			"-0.01": 0.0,
			"-0.009": 0.280529242119,
			"-0.008": 4.7939216983,
			"-0.007": 11.6413501569,
			"-0.006": 14.868844835,
			"-0.005": 17.1167701021,
			"-0.004": 17.8642455265,
			"-0.003": 17.7137824443,
			"-0.002": 17.1399065331,
			"-0.001": 14.2523336022,
			"0.0": 16.9941938005,
			"0.001": 18.2641569602,
			"0.002": 13.3856770518,
			"0.003": 9.03393321237,
			"0.004": 13.1114865617,
			"0.005": 7.21992502047,
			"0.006": 1.85125277695,
			"0.007": 2.18225812348,
			"0.008": 2.07924866671,
			"0.009": 3.06878863056,
			"0.01": 3.55250581912,
			"0.011": 5.40095856975,
			"0.012": 6.67537742504,
			"0.013": 3.86626044689,
			"0.014": 0.705275846684,
			"0.015": 0.0,
			"0.016": 0.0,
			"0.017": 0.0,
			"0.018": 0.0,
			"0.019": 0.0,
			"0.02": 0.0,
			"0.021": 0.0,
			"0.022": 0.0,
			"0.023": 0.0,
			"0.024": 0.0,
			"0.025": 0.0
		}
	}
}
