{
	 "smiles": "CN1C=CC2=C1C=CC=C2C(O)=O", 
	 "Tm": 517.15, 
	 "num_atms": 22, 
	 "gaussian": { 
		 "optdone": 1, 
		 "sigma_profile": "yes", 
		 "theory": "DFT", 
		 "functional": "B3LYP", 
		 "basiset": "6-31G**", 
		 "properties": { 
			 "R2extent": 2576.6835, 
			 "electric_dipole_moment_norm": 4.67921677314, 
			 "electric_quadrupole_moment_norm": 8.65000119133, 
			 "total_energy": -591.709098163, 
			 "HOMO_LUMO_gap": 0.16339, 
			 "cosmo_polarized_energy": -12.8, 
			 "cosmo_cavitation_energy": 25.93, 
			 "cosmo_dispersion_energy": -19.26, 
			 "cosmo_repulsion_energy": 1.49, 
			 "cosmo_total_nonelectrostatic_energy": 8.16, 
			 "SMD_solvation_energy": 5.81 
		},
		"coords": [
			{
				"x": 1.550528506,
				"y": -2.5257636841,
				"z": 0.3014417068,
				"element": "C" 
			},
			{
				"x": 1.0818168875,
				"y": -1.2694833991,
				"z": -0.2464303343,
				"element": "N" 
			},
			{
				"x": 1.5458411018,
				"y": -0.6532051788,
				"z": -1.3919733887,
				"element": "C" 
			},
			{
				"x": 0.8747147158,
				"y": 0.522523716,
				"z": -1.6112663871,
				"element": "C" 
			},
			{
				"x": -0.0724633577,
				"y": 0.6666028979,
				"z": -0.5453920635,
				"element": "C" 
			},
			{
				"x": 0.0857551612,
				"y": -0.4786715395,
				"z": 0.2942432226,
				"element": "C" 
			},
			{
				"x": -0.6770100656,
				"y": -0.6854537608,
				"z": 1.4455955088,
				"element": "C" 
			},
			{
				"x": -1.6287058166,
				"y": 0.2765565357,
				"z": 1.7747934853,
				"element": "C" 
			},
			{
				"x": -1.8094879809,
				"y": 1.411734131,
				"z": 0.9727936201,
				"element": "C" 
			},
			{
				"x": -1.0501291199,
				"y": 1.6260851046,
				"z": -0.1811271806,
				"element": "C" 
			},
			{
				"x": -1.3328349275,
				"y": 2.8634809861,
				"z": -0.9472225647,
				"element": "C" 
			},
			{
				"x": -0.5606783078,
				"y": 3.0111813573,
				"z": -2.0571919731,
				"element": "O" 
			},
			{
				"x": -2.1685025515,
				"y": 3.6965988443,
				"z": -0.6478240436,
				"element": "O" 
			},
			{
				"x": 0.7412783769,
				"y": -3.2632450414,
				"z": 0.3473598739,
				"element": "H" 
			},
			{
				"x": 2.3409391072,
				"y": -2.9200007158,
				"z": -0.3394946411,
				"element": "H" 
			},
			{
				"x": 1.9573917617,
				"y": -2.389803864,
				"z": 1.3098308688,
				"element": "H" 
			},
			{
				"x": 2.3349284583,
				"y": -1.1152722398,
				"z": -1.9694625238,
				"element": "H" 
			},
			{
				"x": 1.031456299,
				"y": 1.2057219976,
				"z": -2.429336232,
				"element": "H" 
			},
			{
				"x": -0.5359904541,
				"y": -1.5655062786,
				"z": 2.0661885081,
				"element": "H" 
			},
			{
				"x": -2.2386457591,
				"y": 0.1466613788,
				"z": 2.6632909919,
				"element": "H" 
			},
			{
				"x": -2.5521962189,
				"y": 2.1573515858,
				"z": 1.2343313436,
				"element": "H" 
			},
			{
				"x": -0.8479058157,
				"y": 3.8494071666,
				"z": -2.4553477977,
				"element": "H" 
			}
		],
		 "valence_orbital": [ 
			{
				"type": "occ",
				"energy": -0.30569,
				"method": "rhf"
			},
			{
				"type": "occ",
				"energy": -0.27627,
				"method": "rhf"
			},
			{
				"type": "occ",
				"energy": -0.26508,
				"method": "rhf"
			},
			{
				"type": "occ",
				"energy": -0.22509,
				"method": "rhf"
			},
			{
				"type": "occ",
				"energy": -0.2066,
				"method": "rhf"
			},
			{
				"type": "unocc",
				"energy": -0.04321,
				"method": "rhf"
			},
			{
				"type": "unocc",
				"energy": 0.01545,
				"method": "rhf"
			},
			{
				"type": "unocc",
				"energy": 0.0581,
				"method": "rhf"
			},
			{
				"type": "unocc",
				"energy": 0.08023,
				"method": "rhf"
			},
			{
				"type": "unocc",
				"energy": 0.08242,
				"method": "rhf"
			}
		],
		"cosmo_sigma_profile": { 
			"-0.025": 0.0,
			"-0.024": 0.0,
			"-0.023": 0.0,
			"-0.022": 0.0,
			"-0.021": 0.0,
			"-0.02": 0.0,
			"-0.019": 0.0,
			"-0.018": 0.411004937473,
			"-0.017": 0.808836231207,
			"-0.016": 0.837862422949,
			"-0.015": 0.809357016761,
			"-0.014": 1.00066134214,
			"-0.013": 0.448070501474,
			"-0.012": 0.160656112843,
			"-0.011": 0.918881163723,
			"-0.01": 1.00859828264,
			"-0.009": 1.27524501674,
			"-0.008": 3.82290417236,
			"-0.007": 5.01653994572,
			"-0.006": 10.8015604529,
			"-0.005": 16.9898601955,
			"-0.004": 15.9042255038,
			"-0.003": 16.6324579287,
			"-0.002": 12.3472400399,
			"-0.001": 10.8579439581,
			"0.0": 9.4393897145,
			"0.001": 9.14553603101,
			"0.002": 11.5365079974,
			"0.003": 15.2880644034,
			"0.004": 19.4378127152,
			"0.005": 16.9432473779,
			"0.006": 8.50420898921,
			"0.007": 3.25985773862,
			"0.008": 1.12886883239,
			"0.009": 1.82685403802,
			"0.01": 1.58790274096,
			"0.011": 2.55714425549,
			"0.012": 5.30718838992,
			"0.013": 1.27595893796,
			"0.014": 0.0,
			"0.015": 0.0,
			"0.016": 0.0,
			"0.017": 0.0,
			"0.018": 0.0,
			"0.019": 0.0,
			"0.02": 0.0,
			"0.021": 0.0,
			"0.022": 0.0,
			"0.023": 0.0,
			"0.024": 0.0,
			"0.025": 0.0
		}
	}
}
