{
	 "smiles": "C1=CC=C(C=C1)C1=NC2=CC=CC=C2N=C1C1=CC=CC=C1", 
	 "Tm": 399.15, 
	 "num_atms": 36, 
	 "gaussian": { 
		 "optdone": 1, 
		 "sigma_profile": "yes", 
		 "theory": "DFT", 
		 "functional": "B3LYP", 
		 "basiset": "6-31G**", 
		 "properties": { 
			 "R2extent": 7764.1762, 
			 "electric_dipole_moment_norm": 0.387279588928, 
			 "electric_quadrupole_moment_norm": 14.6064967025, 
			 "total_energy": -880.080559258, 
			 "HOMO_LUMO_gap": 0.15288, 
			 "cosmo_polarized_energy": -9.44, 
			 "cosmo_cavitation_energy": 39.99, 
			 "cosmo_dispersion_energy": -28.34, 
			 "cosmo_repulsion_energy": 2.15, 
			 "cosmo_total_nonelectrostatic_energy": 13.8, 
			 "SMD_solvation_energy": 3.92 
		},
		"coords": [
			{
				"x": 2.4301066935,
				"y": 0.8083612989,
				"z": 3.2143547388,
				"element": "C" 
			},
			{
				"x": 2.6519359912,
				"y": 0.0446597203,
				"z": 2.066672383,
				"element": "C" 
			},
			{
				"x": 1.7942551089,
				"y": 0.1542097065,
				"z": 0.9730330615,
				"element": "C" 
			},
			{
				"x": 0.6935419316,
				"y": 1.0249549477,
				"z": 1.015253743,
				"element": "C" 
			},
			{
				"x": 0.4671252559,
				"y": 1.7724039012,
				"z": 2.1821984798,
				"element": "C" 
			},
			{
				"x": 1.3340965503,
				"y": 1.6725078482,
				"z": 3.2684947325,
				"element": "C" 
			},
			{
				"x": -0.2867499279,
				"y": 1.1092455156,
				"z": -0.1042484606,
				"element": "C" 
			},
			{
				"x": -1.5576896433,
				"y": 1.1568665681,
				"z": 0.2590460846,
				"element": "N" 
			},
			{
				"x": -2.5156119762,
				"y": 1.1056107091,
				"z": -0.7038677428,
				"element": "C" 
			},
			{
				"x": -3.8866359892,
				"y": 1.1580597361,
				"z": -0.3443548385,
				"element": "C" 
			},
			{
				"x": -4.85401534,
				"y": 1.0404749033,
				"z": -1.3182355669,
				"element": "C" 
			},
			{
				"x": -4.4932951648,
				"y": 0.8661639292,
				"z": -2.6796041045,
				"element": "C" 
			},
			{
				"x": -3.1686163631,
				"y": 0.8228185194,
				"z": -3.0556744913,
				"element": "C" 
			},
			{
				"x": -2.1533578418,
				"y": 0.9524901367,
				"z": -2.0737659644,
				"element": "C" 
			},
			{
				"x": -0.8462851358,
				"y": 0.974615234,
				"z": -2.4459256669,
				"element": "N" 
			},
			{
				"x": 0.0802650728,
				"y": 1.0933554396,
				"z": -1.5094778303,
				"element": "C" 
			},
			{
				"x": 1.475146919,
				"y": 1.2535143342,
				"z": -2.0095133105,
				"element": "C" 
			},
			{
				"x": 2.3609143043,
				"y": 2.1880388603,
				"z": -1.4495122876,
				"element": "C" 
			},
			{
				"x": 3.6348393101,
				"y": 2.3656810199,
				"z": -1.9873232641,
				"element": "C" 
			},
			{
				"x": 4.0474196712,
				"y": 1.6076413596,
				"z": -3.0849513931,
				"element": "C" 
			},
			{
				"x": 3.1711721726,
				"y": 0.6801291472,
				"z": -3.6531297603,
				"element": "C" 
			},
			{
				"x": 1.8921352512,
				"y": 0.5117553362,
				"z": -3.1264784336,
				"element": "C" 
			},
			{
				"x": 3.1038363603,
				"y": 0.7267787691,
				"z": 4.0625660445,
				"element": "H" 
			},
			{
				"x": 3.4931588101,
				"y": -0.6410175052,
				"z": 2.0221825045,
				"element": "H" 
			},
			{
				"x": 1.9733393746,
				"y": -0.4475233921,
				"z": 0.0884215173,
				"element": "H" 
			},
			{
				"x": -0.3990089735,
				"y": 2.424201733,
				"z": 2.2245732631,
				"element": "H" 
			},
			{
				"x": 1.151590545,
				"y": 2.2659965826,
				"z": 4.1598854501,
				"element": "H" 
			},
			{
				"x": -4.1358881867,
				"y": 1.278605692,
				"z": 0.7050293874,
				"element": "H" 
			},
			{
				"x": -5.9048994296,
				"y": 1.0757557294,
				"z": -1.0462657652,
				"element": "H" 
			},
			{
				"x": -5.2735375405,
				"y": 0.7716151772,
				"z": -3.4291724382,
				"element": "H" 
			},
			{
				"x": -2.8663307931,
				"y": 0.7040373985,
				"z": -4.0912314847,
				"element": "H" 
			},
			{
				"x": 2.0492073347,
				"y": 2.7858215857,
				"z": -0.599703277,
				"element": "H" 
			},
			{
				"x": 4.3046228096,
				"y": 3.0999047298,
				"z": -1.5490381154,
				"element": "H" 
			},
			{
				"x": 5.043114632,
				"y": 1.742493796,
				"z": -3.4977919215,
				"element": "H" 
			},
			{
				"x": 3.4827272952,
				"y": 0.0904232359,
				"z": -4.5106229058,
				"element": "H" 
			},
			{
				"x": 1.1975709112,
				"y": -0.1901517034,
				"z": -3.5756223669,
				"element": "H" 
			}
		],
		 "valence_orbital": [ 
			{
				"type": "occ",
				"energy": -0.25368,
				"method": "rhf"
			},
			{
				"type": "occ",
				"energy": -0.24643,
				"method": "rhf"
			},
			{
				"type": "occ",
				"energy": -0.24266,
				"method": "rhf"
			},
			{
				"type": "occ",
				"energy": -0.23376,
				"method": "rhf"
			},
			{
				"type": "occ",
				"energy": -0.22284,
				"method": "rhf"
			},
			{
				"type": "unocc",
				"energy": -0.06996,
				"method": "rhf"
			},
			{
				"type": "unocc",
				"energy": -0.04328,
				"method": "rhf"
			},
			{
				"type": "unocc",
				"energy": -0.00709,
				"method": "rhf"
			},
			{
				"type": "unocc",
				"energy": 0.00357,
				"method": "rhf"
			},
			{
				"type": "unocc",
				"energy": 0.00705,
				"method": "rhf"
			}
		],
		"cosmo_sigma_profile": { 
			"-0.025": 0.0,
			"-0.024": 0.0,
			"-0.023": 0.0,
			"-0.022": 0.0,
			"-0.021": 0.0,
			"-0.02": 0.0,
			"-0.019": 0.0,
			"-0.018": 0.0,
			"-0.017": 0.0,
			"-0.016": 0.0,
			"-0.015": 0.0,
			"-0.014": 0.0,
			"-0.013": 0.0,
			"-0.012": 0.0,
			"-0.011": 0.0,
			"-0.01": 0.0,
			"-0.009": 0.0,
			"-0.008": 0.0,
			"-0.007": 2.17478071069,
			"-0.006": 17.1036325161,
			"-0.005": 28.24325567,
			"-0.004": 32.4376767821,
			"-0.003": 24.8938405926,
			"-0.002": 26.1024230751,
			"-0.001": 21.8046136063,
			"0.0": 20.1981682105,
			"0.001": 25.3304476066,
			"0.002": 28.6309867528,
			"0.003": 28.1012137379,
			"0.004": 26.6906118386,
			"0.005": 22.00674181,
			"0.006": 5.33961229407,
			"0.007": 3.17861440564,
			"0.008": 2.52986196885,
			"0.009": 1.86653319173,
			"0.01": 2.01314601615,
			"0.011": 1.45572375157,
			"0.012": 1.36294231964,
			"0.013": 0.821883503235,
			"0.014": 0.0950207108068,
			"0.015": 0.0,
			"0.016": 0.0,
			"0.017": 0.0,
			"0.018": 0.0,
			"0.019": 0.0,
			"0.02": 0.0,
			"0.021": 0.0,
			"0.022": 0.0,
			"0.023": 0.0,
			"0.024": 0.0,
			"0.025": 0.0
		}
	}
}
