{
	 "smiles": "CS(=O)(=O)NC1=CC=C(CCl)C=C1", 
	 "Tm": 381.15, 
	 "num_atms": 23, 
	 "gaussian": { 
		 "optdone": 1, 
		 "sigma_profile": "yes", 
		 "theory": "DFT", 
		 "functional": "B3LYP", 
		 "basiset": "6-31G**", 
		 "properties": { 
			 "R2extent": 4850.7773, 
			 "electric_dipole_moment_norm": 2.94181679579, 
			 "electric_quadrupole_moment_norm": 24.2314698236, 
			 "total_energy": -1374.39834399, 
			 "HOMO_LUMO_gap": 0.20181, 
			 "cosmo_polarized_energy": -18.48, 
			 "cosmo_cavitation_energy": 30.06, 
			 "cosmo_dispersion_energy": -22.19, 
			 "cosmo_repulsion_energy": 1.73, 
			 "cosmo_total_nonelectrostatic_energy": 9.6, 
			 "SMD_solvation_energy": 4.38 
		},
		"coords": [
			{
				"x": 2.4828588519,
				"y": 1.5458112941,
				"z": -2.3704536865,
				"element": "C" 
			},
			{
				"x": 1.7077848564,
				"y": -0.0208907547,
				"z": -2.821151144,
				"element": "S" 
			},
			{
				"x": 2.7526643782,
				"y": -0.982903725,
				"z": -3.1662810411,
				"element": "O" 
			},
			{
				"x": 0.6062447666,
				"y": 0.2863232555,
				"z": -3.7309976324,
				"element": "O" 
			},
			{
				"x": 1.0596674388,
				"y": -0.6204978253,
				"z": -1.3757899076,
				"element": "N" 
			},
			{
				"x": 0.1414042215,
				"y": 0.0630541819,
				"z": -0.5439177023,
				"element": "C" 
			},
			{
				"x": 0.2732727399,
				"y": -0.05651885,
				"z": 0.8481280194,
				"element": "C" 
			},
			{
				"x": -0.6367775119,
				"y": 0.5676495669,
				"z": 1.6942910735,
				"element": "C" 
			},
			{
				"x": -1.6844596179,
				"y": 1.34189615,
				"z": 1.1796550075,
				"element": "C" 
			},
			{
				"x": -2.6524710133,
				"y": 2.0267543592,
				"z": 2.0922778424,
				"element": "C" 
			},
			{
				"x": -2.0942935757,
				"y": 3.7158855088,
				"z": 2.5729190862,
				"element": "Cl" 
			},
			{
				"x": -1.8022090077,
				"y": 1.4576923725,
				"z": -0.2111833896,
				"element": "C" 
			},
			{
				"x": -0.9156538411,
				"y": 0.8191524846,
				"z": -1.0739627415,
				"element": "C" 
			},
			{
				"x": 2.8493671684,
				"y": 1.993443345,
				"z": -3.2957677038,
				"element": "H" 
			},
			{
				"x": 1.7341722576,
				"y": 2.191415959,
				"z": -1.9089800047,
				"element": "H" 
			},
			{
				"x": 3.309614575,
				"y": 1.3486835706,
				"z": -1.6871429966,
				"element": "H" 
			},
			{
				"x": 1.7352774437,
				"y": -1.215003132,
				"z": -0.9087385864,
				"element": "H" 
			},
			{
				"x": 1.087765864,
				"y": -0.6434833449,
				"z": 1.2651471558,
				"element": "H" 
			},
			{
				"x": -0.5215411213,
				"y": 0.4631525829,
				"z": 2.7698269348,
				"element": "H" 
			},
			{
				"x": -2.7798981543,
				"y": 1.4923344929,
				"z": 3.0337018232,
				"element": "H" 
			},
			{
				"x": -3.6258626466,
				"y": 2.171874605,
				"z": 1.6238700156,
				"element": "H" 
			},
			{
				"x": -2.6128806346,
				"y": 2.0467957997,
				"z": -0.6319018106,
				"element": "H" 
			},
			{
				"x": -1.0431474377,
				"y": 0.8871781035,
				"z": -2.1475486112,
				"element": "H" 
			}
		],
		 "valence_orbital": [ 
			{
				"type": "occ",
				"energy": -0.31032,
				"method": "rhf"
			},
			{
				"type": "occ",
				"energy": -0.29825,
				"method": "rhf"
			},
			{
				"type": "occ",
				"energy": -0.29677,
				"method": "rhf"
			},
			{
				"type": "occ",
				"energy": -0.27149,
				"method": "rhf"
			},
			{
				"type": "occ",
				"energy": -0.23906,
				"method": "rhf"
			},
			{
				"type": "unocc",
				"energy": -0.03725,
				"method": "rhf"
			},
			{
				"type": "unocc",
				"energy": -0.0232,
				"method": "rhf"
			},
			{
				"type": "unocc",
				"energy": 0.03159,
				"method": "rhf"
			},
			{
				"type": "unocc",
				"energy": 0.05328,
				"method": "rhf"
			},
			{
				"type": "unocc",
				"energy": 0.06435,
				"method": "rhf"
			}
		],
		"cosmo_sigma_profile": { 
			"-0.025": 0.0,
			"-0.024": 0.0,
			"-0.023": 0.0,
			"-0.022": 0.0,
			"-0.021": 0.0,
			"-0.02": 0.0,
			"-0.019": 0.0,
			"-0.018": 0.0,
			"-0.017": 0.0,
			"-0.016": 0.229622016852,
			"-0.015": 1.32335873079,
			"-0.014": 1.29313267347,
			"-0.013": 1.49447305821,
			"-0.012": 1.28182607204,
			"-0.011": 1.48610591798,
			"-0.01": 1.84479541584,
			"-0.009": 4.9412363786,
			"-0.008": 6.89106440126,
			"-0.007": 16.4959947461,
			"-0.006": 15.573608753,
			"-0.005": 17.5784968942,
			"-0.004": 17.3313977509,
			"-0.003": 10.5134009301,
			"-0.002": 9.34460763611,
			"-0.001": 7.82639090365,
			"0.0": 9.50140293443,
			"0.001": 10.7817860677,
			"0.002": 12.00560527,
			"0.003": 13.420234126,
			"0.004": 18.4218201248,
			"0.005": 10.8703544643,
			"0.006": 11.5560111358,
			"0.007": 12.7451199597,
			"0.008": 3.64213768239,
			"0.009": 4.09325988882,
			"0.01": 7.7765534511,
			"0.011": 9.32988961235,
			"0.012": 1.93891967551,
			"0.013": 0.0,
			"0.014": 0.0,
			"0.015": 0.0,
			"0.016": 0.0,
			"0.017": 0.0,
			"0.018": 0.0,
			"0.019": 0.0,
			"0.02": 0.0,
			"0.021": 0.0,
			"0.022": 0.0,
			"0.023": 0.0,
			"0.024": 0.0,
			"0.025": 0.0
		}
	}
}
