{
	 "smiles": "CCOC(=O)C1=C(N)SC=C1C1=CC=C(Br)C=C1", 
	 "Tm": 394.15, 
	 "num_atms": 30, 
	 "gaussian": { 
		 "optdone": 1, 
		 "sigma_profile": "yes", 
		 "theory": "DFT", 
		 "functional": "B3LYP", 
		 "basiset": "6-31G**", 
		 "properties": { 
			 "R2extent": 8303.0552, 
			 "electric_dipole_moment_norm": 2.11073334649, 
			 "electric_quadrupole_moment_norm": 9.26478355818, 
			 "total_energy": -3677.4212928, 
			 "HOMO_LUMO_gap": 0.17672, 
			 "cosmo_polarized_energy": -11.2, 
			 "cosmo_cavitation_energy": 38.21, 
			 "cosmo_dispersion_energy": -27.23, 
			 "cosmo_repulsion_energy": 2.09, 
			 "cosmo_total_nonelectrostatic_energy": 13.08, 
			 "SMD_solvation_energy": 5.8 
		},
		"coords": [
			{
				"x": -0.4532888182,
				"y": -0.7260028139,
				"z": -3.1108463975,
				"element": "C" 
			},
			{
				"x": 1.0002796944,
				"y": -0.5128358873,
				"z": -2.7319814685,
				"element": "C" 
			},
			{
				"x": 1.0408347667,
				"y": -0.2408759144,
				"z": -1.3131384468,
				"element": "O" 
			},
			{
				"x": 2.2663599444,
				"y": -0.1056610054,
				"z": -0.7679860783,
				"element": "C" 
			},
			{
				"x": 3.2913858151,
				"y": -0.2127573232,
				"z": -1.4440957961,
				"element": "O" 
			},
			{
				"x": 2.2591038301,
				"y": 0.1473796608,
				"z": 0.6714845745,
				"element": "C" 
			},
			{
				"x": 3.4741991499,
				"y": 0.0956646366,
				"z": 1.3650180805,
				"element": "C" 
			},
			{
				"x": 4.7003141704,
				"y": -0.15147356,
				"z": 0.8461923584,
				"element": "N" 
			},
			{
				"x": 3.2438592848,
				"y": 0.2916438959,
				"z": 3.0870667143,
				"element": "S" 
			},
			{
				"x": 1.5141339064,
				"y": 0.4597238409,
				"z": 2.8720505021,
				"element": "C" 
			},
			{
				"x": 1.131608193,
				"y": 0.3722653544,
				"z": 1.5660211727,
				"element": "C" 
			},
			{
				"x": -0.2933155845,
				"y": 0.5730447813,
				"z": 1.1967797518,
				"element": "C" 
			},
			{
				"x": -1.2945622691,
				"y": -0.1853861938,
				"z": 1.8198889211,
				"element": "C" 
			},
			{
				"x": -2.6459736416,
				"y": 0.0376795334,
				"z": 1.5507330051,
				"element": "C" 
			},
			{
				"x": -2.9999236956,
				"y": 1.0357557918,
				"z": 0.6477396682,
				"element": "C" 
			},
			{
				"x": -4.8479384893,
				"y": 1.3534792992,
				"z": 0.2675674649,
				"element": "Br" 
			},
			{
				"x": -2.0267778397,
				"y": 1.8097074649,
				"z": 0.0144634846,
				"element": "C" 
			},
			{
				"x": -0.6829279795,
				"y": 1.5730558116,
				"z": 0.2913396423,
				"element": "C" 
			},
			{
				"x": -0.87608667,
				"y": -1.5777874546,
				"z": -2.5708420326,
				"element": "H" 
			},
			{
				"x": -1.0537717898,
				"y": 0.157332967,
				"z": -2.8772841152,
				"element": "H" 
			},
			{
				"x": -0.5306045338,
				"y": -0.92461791,
				"z": -4.1844682142,
				"element": "H" 
			},
			{
				"x": 1.445814878,
				"y": 0.3318969894,
				"z": -3.2679424628,
				"element": "H" 
			},
			{
				"x": 1.6146781437,
				"y": -1.393484194,
				"z": -2.9420722737,
				"element": "H" 
			},
			{
				"x": 4.7383836562,
				"y": -0.1569761553,
				"z": -0.1693688033,
				"element": "H" 
			},
			{
				"x": 5.5304371407,
				"y": 0.0186700979,
				"z": 1.3891450968,
				"element": "H" 
			},
			{
				"x": 0.893680477,
				"y": 0.6862139656,
				"z": 3.7266640073,
				"element": "H" 
			},
			{
				"x": -1.0109373174,
				"y": -0.9697742928,
				"z": 2.514928984,
				"element": "H" 
			},
			{
				"x": -3.410607579,
				"y": -0.5599180435,
				"z": 2.0339378771,
				"element": "H" 
			},
			{
				"x": -2.317837569,
				"y": 2.5909181691,
				"z": -0.6787565412,
				"element": "H" 
			},
			{
				"x": 0.0743807256,
				"y": 2.1787184884,
				"z": -0.1951386754,
				"element": "H" 
			}
		],
		 "valence_orbital": [ 
			{
				"type": "occ",
				"energy": -0.27361,
				"method": "rhf"
			},
			{
				"type": "occ",
				"energy": -0.26124,
				"method": "rhf"
			},
			{
				"type": "occ",
				"energy": -0.25876,
				"method": "rhf"
			},
			{
				"type": "occ",
				"energy": -0.2331,
				"method": "rhf"
			},
			{
				"type": "occ",
				"energy": -0.20072,
				"method": "rhf"
			},
			{
				"type": "unocc",
				"energy": -0.024,
				"method": "rhf"
			},
			{
				"type": "unocc",
				"energy": -0.01997,
				"method": "rhf"
			},
			{
				"type": "unocc",
				"energy": -0.00982,
				"method": "rhf"
			},
			{
				"type": "unocc",
				"energy": 0.00611,
				"method": "rhf"
			},
			{
				"type": "unocc",
				"energy": 0.01036,
				"method": "rhf"
			}
		],
		"cosmo_sigma_profile": { 
			"-0.025": 0.0,
			"-0.024": 0.0,
			"-0.023": 0.0,
			"-0.022": 0.0,
			"-0.021": 0.0,
			"-0.02": 0.0,
			"-0.019": 0.0,
			"-0.018": 0.0,
			"-0.017": 0.0,
			"-0.016": 0.0410816770126,
			"-0.015": 0.940302365208,
			"-0.014": 1.38828679481,
			"-0.013": 1.0788220885,
			"-0.012": 1.2332546343,
			"-0.011": 1.14541366502,
			"-0.01": 2.46042631582,
			"-0.009": 1.80852055101,
			"-0.008": 3.08171992211,
			"-0.007": 6.07477417678,
			"-0.006": 10.0172641107,
			"-0.005": 15.2687422234,
			"-0.004": 20.4645464651,
			"-0.003": 22.8396584402,
			"-0.002": 23.4847521903,
			"-0.001": 22.8517811765,
			"0.0": 23.3985805379,
			"0.001": 25.8900796398,
			"0.002": 30.9111646498,
			"0.003": 32.7269504328,
			"0.004": 29.6494472241,
			"0.005": 14.5749965598,
			"0.006": 4.84194830634,
			"0.007": 3.22224576016,
			"0.008": 3.3603146915,
			"0.009": 1.38361606525,
			"0.01": 1.56418140159,
			"0.011": 1.85712715686,
			"0.012": 1.93449222998,
			"0.013": 0.798666834438,
			"0.014": 0.0,
			"0.015": 0.0,
			"0.016": 0.0,
			"0.017": 0.0,
			"0.018": 0.0,
			"0.019": 0.0,
			"0.02": 0.0,
			"0.021": 0.0,
			"0.022": 0.0,
			"0.023": 0.0,
			"0.024": 0.0,
			"0.025": 0.0
		}
	}
}
