{
	 "smiles": "CCCCCCCCCCCCCCCCCC(=O)OCCC", 
	 "Tm": 302.05, 
	 "num_atms": 65, 
	 "gaussian": { 
		 "optdone": 1, 
		 "sigma_profile": "yes", 
		 "theory": "DFT", 
		 "functional": "B3LYP", 
		 "basiset": "6-31G**", 
		 "properties": { 
			 "R2extent": 13193.5466, 
			 "electric_dipole_moment_norm": 1.94912798451, 
			 "electric_quadrupole_moment_norm": 16.5744466294, 
			 "total_energy": -976.061085178, 
			 "HOMO_LUMO_gap": 0.27609, 
			 "cosmo_polarized_energy": -6.98, 
			 "cosmo_cavitation_energy": 63.13, 
			 "cosmo_dispersion_energy": -37.7, 
			 "cosmo_repulsion_energy": 3.01, 
			 "cosmo_total_nonelectrostatic_energy": 28.44, 
			 "SMD_solvation_energy": 9.07 
		},
		"coords": [
			{
				"x": -1.552193499,
				"y": 3.0495452822,
				"z": -5.3635811675,
				"element": "C" 
			},
			{
				"x": -2.0571906809,
				"y": 2.3742315907,
				"z": -4.0812573308,
				"element": "C" 
			},
			{
				"x": -1.2166406108,
				"y": 2.6422052881,
				"z": -2.813700768,
				"element": "C" 
			},
			{
				"x": -0.0380819696,
				"y": 1.684984057,
				"z": -2.5537342806,
				"element": "C" 
			},
			{
				"x": 1.1219708892,
				"y": 1.7556879992,
				"z": -3.5608213612,
				"element": "C" 
			},
			{
				"x": 2.4072476035,
				"y": 1.0011561979,
				"z": -3.1581463114,
				"element": "C" 
			},
			{
				"x": 2.4569642175,
				"y": -0.5087028524,
				"z": -3.4691361037,
				"element": "C" 
			},
			{
				"x": 1.5777292202,
				"y": -1.4537104342,
				"z": -2.6294957983,
				"element": "C" 
			},
			{
				"x": 1.9120681085,
				"y": -1.4666152401,
				"z": -1.1301665087,
				"element": "C" 
			},
			{
				"x": 1.2174589339,
				"y": -2.5873835222,
				"z": -0.3350139223,
				"element": "C" 
			},
			{
				"x": -0.3186360494,
				"y": -2.5204080265,
				"z": -0.2703963386,
				"element": "C" 
			},
			{
				"x": -0.8778788417,
				"y": -1.3002411034,
				"z": 0.476123224,
				"element": "C" 
			},
			{
				"x": -2.4093217311,
				"y": -1.326556485,
				"z": 0.5842868574,
				"element": "C" 
			},
			{
				"x": -3.074719667,
				"y": -0.0747226884,
				"z": 1.1842273178,
				"element": "C" 
			},
			{
				"x": -2.74770786,
				"y": 0.2294596935,
				"z": 2.6625350822,
				"element": "C" 
			},
			{
				"x": -1.5362629321,
				"y": 1.1499044718,
				"z": 2.8790896317,
				"element": "C" 
			},
			{
				"x": -1.2569464208,
				"y": 1.4622158043,
				"z": 4.3660462781,
				"element": "C" 
			},
			{
				"x": -0.8559966607,
				"y": 0.2278654622,
				"z": 5.1474243867,
				"element": "C" 
			},
			{
				"x": -1.5907564756,
				"y": -0.4266473006,
				"z": 5.8571905589,
				"element": "O" 
			},
			{
				"x": 0.4436967653,
				"y": -0.0866433913,
				"z": 4.9321525293,
				"element": "O" 
			},
			{
				"x": 0.9274848462,
				"y": -1.2715060085,
				"z": 5.6057725027,
				"element": "C" 
			},
			{
				"x": 2.4130057866,
				"y": -1.4093202486,
				"z": 5.3081697853,
				"element": "C" 
			},
			{
				"x": 2.7282050181,
				"y": -1.6316789325,
				"z": 3.8256257563,
				"element": "C" 
			},
			{
				"x": -1.50256612,
				"y": 4.1372366279,
				"z": -5.2365815963,
				"element": "H" 
			},
			{
				"x": -2.2251126841,
				"y": 2.8462120958,
				"z": -6.2037828624,
				"element": "H" 
			},
			{
				"x": -0.5540676952,
				"y": 2.7075738877,
				"z": -5.6505308989,
				"element": "H" 
			},
			{
				"x": -2.1379619777,
				"y": 1.2898086112,
				"z": -4.2397361733,
				"element": "H" 
			},
			{
				"x": -3.081385935,
				"y": 2.7232871598,
				"z": -3.8980732723,
				"element": "H" 
			},
			{
				"x": -0.849165408,
				"y": 3.6785186829,
				"z": -2.8343431252,
				"element": "H" 
			},
			{
				"x": -1.8807931242,
				"y": 2.5797932019,
				"z": -1.9418169845,
				"element": "H" 
			},
			{
				"x": -0.4291999244,
				"y": 0.6616129324,
				"z": -2.4973747522,
				"element": "H" 
			},
			{
				"x": 0.3633450377,
				"y": 1.9090699448,
				"z": -1.5551765731,
				"element": "H" 
			},
			{
				"x": 0.7934609174,
				"y": 1.3933059282,
				"z": -4.543489655,
				"element": "H" 
			},
			{
				"x": 1.378297398,
				"y": 2.8148107366,
				"z": -3.7017725491,
				"element": "H" 
			},
			{
				"x": 3.2445285739,
				"y": 1.4605950258,
				"z": -3.6991060143,
				"element": "H" 
			},
			{
				"x": 2.61582933,
				"y": 1.1767159411,
				"z": -2.0940866963,
				"element": "H" 
			},
			{
				"x": 3.5000254476,
				"y": -0.8381952649,
				"z": -3.3614212885,
				"element": "H" 
			},
			{
				"x": 2.2089119498,
				"y": -0.6491740154,
				"z": -4.5304751958,
				"element": "H" 
			},
			{
				"x": 1.7091433412,
				"y": -2.4715198029,
				"z": -3.0237910014,
				"element": "H" 
			},
			{
				"x": 0.518664061,
				"y": -1.214409256,
				"z": -2.7788901497,
				"element": "H" 
			},
			{
				"x": 2.9982707768,
				"y": -1.5889784437,
				"z": -1.0155547815,
				"element": "H" 
			},
			{
				"x": 1.6742285643,
				"y": -0.4932393991,
				"z": -0.6838672492,
				"element": "H" 
			},
			{
				"x": 1.6116452314,
				"y": -2.5864178235,
				"z": 0.6906988466,
				"element": "H" 
			},
			{
				"x": 1.507993492,
				"y": -3.5540596909,
				"z": -0.7691067243,
				"element": "H" 
			},
			{
				"x": -0.6828647685,
				"y": -3.4313410674,
				"z": 0.2242679466,
				"element": "H" 
			},
			{
				"x": -0.7377477266,
				"y": -2.5472560091,
				"z": -1.2853352269,
				"element": "H" 
			},
			{
				"x": -0.569410311,
				"y": -0.3766716933,
				"z": -0.0317536608,
				"element": "H" 
			},
			{
				"x": -0.4305800888,
				"y": -1.2647411583,
				"z": 1.4784489815,
				"element": "H" 
			},
			{
				"x": -2.7114317466,
				"y": -2.204947811,
				"z": 1.1725396068,
				"element": "H" 
			},
			{
				"x": -2.8251526403,
				"y": -1.48332987,
				"z": -0.4209426905,
				"element": "H" 
			},
			{
				"x": -2.8284682184,
				"y": 0.8017273124,
				"z": 0.5670816224,
				"element": "H" 
			},
			{
				"x": -4.1597741279,
				"y": -0.2063651889,
				"z": 1.0903877198,
				"element": "H" 
			},
			{
				"x": -3.617763322,
				"y": 0.7100554492,
				"z": 3.1286046135,
				"element": "H" 
			},
			{
				"x": -2.6074065442,
				"y": -0.7119865716,
				"z": 3.2095587939,
				"element": "H" 
			},
			{
				"x": -0.6332965725,
				"y": 0.7211940904,
				"z": 2.4327564321,
				"element": "H" 
			},
			{
				"x": -1.7142183326,
				"y": 2.1012672975,
				"z": 2.3618099215,
				"element": "H" 
			},
			{
				"x": -2.1530326099,
				"y": 1.870180652,
				"z": 4.8421777931,
				"element": "H" 
			},
			{
				"x": -0.4532156626,
				"y": 2.2018613149,
				"z": 4.4384314086,
				"element": "H" 
			},
			{
				"x": 0.73446406,
				"y": -1.1704676521,
				"z": 6.6782430271,
				"element": "H" 
			},
			{
				"x": 0.35865725,
				"y": -2.1378525768,
				"z": 5.2489809973,
				"element": "H" 
			},
			{
				"x": 2.7894962043,
				"y": -2.2511797312,
				"z": 5.9031039066,
				"element": "H" 
			},
			{
				"x": 2.9300635059,
				"y": -0.5135179351,
				"z": 5.672992482,
				"element": "H" 
			},
			{
				"x": 2.3656381935,
				"y": -0.7961301744,
				"z": 3.2204101113,
				"element": "H" 
			},
			{
				"x": 2.2526445607,
				"y": -2.5470757228,
				"z": 3.4546635419,
				"element": "H" 
			},
			{
				"x": 3.8061096546,
				"y": -1.726189647,
				"z": 3.6619573497,
				"element": "H" 
			}
		],
		 "valence_orbital": [ 
			{
				"type": "occ",
				"energy": -0.29851,
				"method": "rhf"
			},
			{
				"type": "occ",
				"energy": -0.29686,
				"method": "rhf"
			},
			{
				"type": "occ",
				"energy": -0.2949,
				"method": "rhf"
			},
			{
				"type": "occ",
				"energy": -0.29269,
				"method": "rhf"
			},
			{
				"type": "occ",
				"energy": -0.26111,
				"method": "rhf"
			},
			{
				"type": "unocc",
				"energy": 0.01498,
				"method": "rhf"
			},
			{
				"type": "unocc",
				"energy": 0.06201,
				"method": "rhf"
			},
			{
				"type": "unocc",
				"energy": 0.07478,
				"method": "rhf"
			},
			{
				"type": "unocc",
				"energy": 0.08817,
				"method": "rhf"
			},
			{
				"type": "unocc",
				"energy": 0.09101,
				"method": "rhf"
			}
		],
		"cosmo_sigma_profile": { 
			"-0.025": 0.0,
			"-0.024": 0.0,
			"-0.023": 0.0,
			"-0.022": 0.0,
			"-0.021": 0.0,
			"-0.02": 0.0,
			"-0.019": 0.0,
			"-0.018": 0.0,
			"-0.017": 0.0,
			"-0.016": 0.0,
			"-0.015": 0.0,
			"-0.014": 0.0,
			"-0.013": 0.0,
			"-0.012": 0.0,
			"-0.011": 0.0,
			"-0.01": 0.0,
			"-0.009": 0.0,
			"-0.008": 0.0,
			"-0.007": 0.0,
			"-0.006": 0.0924780060953,
			"-0.005": 5.01535472906,
			"-0.004": 13.8955960585,
			"-0.003": 26.1946967805,
			"-0.002": 62.9225028679,
			"-0.001": 105.255266094,
			"0.0": 118.260358549,
			"0.001": 86.0616183783,
			"0.002": 34.028148501,
			"0.003": 4.86637848961,
			"0.004": 3.7326456771,
			"0.005": 3.36795492917,
			"0.006": 2.81503112373,
			"0.007": 1.82572981702,
			"0.008": 2.44268078956,
			"0.009": 1.66631511811,
			"0.01": 2.04843860071,
			"0.011": 1.68473785882,
			"0.012": 4.54305676341,
			"0.013": 2.53692085713,
			"0.014": 0.170671772032,
			"0.015": 0.0,
			"0.016": 0.0,
			"0.017": 0.0,
			"0.018": 0.0,
			"0.019": 0.0,
			"0.02": 0.0,
			"0.021": 0.0,
			"0.022": 0.0,
			"0.023": 0.0,
			"0.024": 0.0,
			"0.025": 0.0
		}
	}
}
