{
	 "smiles": "COC(=O)CN1CC2=C(C=CC=C2)C1=O", 
	 "Tm": 388.15, 
	 "num_atms": 26, 
	 "gaussian": { 
		 "optdone": 1, 
		 "sigma_profile": "yes", 
		 "theory": "DFT", 
		 "functional": "B3LYP", 
		 "basiset": "6-31G**", 
		 "properties": { 
			 "R2extent": 3997.5566, 
			 "electric_dipole_moment_norm": 3.46238051202, 
			 "electric_quadrupole_moment_norm": 17.4917898109, 
			 "total_energy": -706.249980962, 
			 "HOMO_LUMO_gap": 0.20795, 
			 "cosmo_polarized_energy": -14.31, 
			 "cosmo_cavitation_energy": 30.46, 
			 "cosmo_dispersion_energy": -22.06, 
			 "cosmo_repulsion_energy": 1.73, 
			 "cosmo_total_nonelectrostatic_energy": 10.13, 
			 "SMD_solvation_energy": 6.8 
		},
		"coords": [
			{
				"x": 4.4851255834,
				"y": 2.7668368771,
				"z": 0.9971106054,
				"element": "C" 
			},
			{
				"x": 3.22003524,
				"y": 2.4096021043,
				"z": 1.5813411888,
				"element": "O" 
			},
			{
				"x": 2.4300123976,
				"y": 1.6269381756,
				"z": 0.8203042481,
				"element": "C" 
			},
			{
				"x": 2.7194764425,
				"y": 1.2412711893,
				"z": -0.2904414404,
				"element": "O" 
			},
			{
				"x": 1.1299347006,
				"y": 1.326569948,
				"z": 1.561613322,
				"element": "C" 
			},
			{
				"x": 0.2337530075,
				"y": 0.4849769302,
				"z": 0.8230456557,
				"element": "N" 
			},
			{
				"x": -0.3938008829,
				"y": 0.8562754779,
				"z": -0.4413753975,
				"element": "C" 
			},
			{
				"x": -1.1720686565,
				"y": -0.3896732002,
				"z": -0.7942226148,
				"element": "C" 
			},
			{
				"x": -0.954417698,
				"y": -1.3607277243,
				"z": 0.184590331,
				"element": "C" 
			},
			{
				"x": -1.544236461,
				"y": -2.6198172535,
				"z": 0.1158480133,
				"element": "C" 
			},
			{
				"x": -2.3735723176,
				"y": -2.8933681138,
				"z": -0.9726000511,
				"element": "C" 
			},
			{
				"x": -2.5967886823,
				"y": -1.9216552772,
				"z": -1.9586621277,
				"element": "C" 
			},
			{
				"x": -1.998589928,
				"y": -0.659399618,
				"z": -1.8808488515,
				"element": "C" 
			},
			{
				"x": -0.0407194893,
				"y": -0.8143602599,
				"z": 1.2220070511,
				"element": "C" 
			},
			{
				"x": 0.392176151,
				"y": -1.3551949058,
				"z": 2.2301116631,
				"element": "O" 
			},
			{
				"x": 4.3359082291,
				"y": 3.3200975633,
				"z": 0.0665182529,
				"element": "H" 
			},
			{
				"x": 5.0756226218,
				"y": 1.8721861393,
				"z": 0.7855514997,
				"element": "H" 
			},
			{
				"x": 4.9856432979,
				"y": 3.3899569917,
				"z": 1.7377344886,
				"element": "H" 
			},
			{
				"x": 1.3676373279,
				"y": 0.8019443504,
				"z": 2.493124553,
				"element": "H" 
			},
			{
				"x": 0.6631365707,
				"y": 2.2830425397,
				"z": 1.8345105412,
				"element": "H" 
			},
			{
				"x": -1.0467331237,
				"y": 1.732908122,
				"z": -0.3171481547,
				"element": "H" 
			},
			{
				"x": 0.3665544373,
				"y": 1.0999917797,
				"z": -1.1928920741,
				"element": "H" 
			},
			{
				"x": -1.3541537649,
				"y": -3.3542048709,
				"z": 0.8923596369,
				"element": "H" 
			},
			{
				"x": -2.851162548,
				"y": -3.864749878,
				"z": -1.0604599411,
				"element": "H" 
			},
			{
				"x": -3.2453662709,
				"y": -2.1534734772,
				"z": -2.7987510455,
				"element": "H" 
			},
			{
				"x": -2.1788061842,
				"y": 0.0837263902,
				"z": -2.6529693525,
				"element": "H" 
			}
		],
		 "valence_orbital": [ 
			{
				"type": "occ",
				"energy": -0.28528,
				"method": "rhf"
			},
			{
				"type": "occ",
				"energy": -0.25926,
				"method": "rhf"
			},
			{
				"type": "occ",
				"energy": -0.25335,
				"method": "rhf"
			},
			{
				"type": "occ",
				"energy": -0.25013,
				"method": "rhf"
			},
			{
				"type": "occ",
				"energy": -0.24085,
				"method": "rhf"
			},
			{
				"type": "unocc",
				"energy": -0.0329,
				"method": "rhf"
			},
			{
				"type": "unocc",
				"energy": -0.01018,
				"method": "rhf"
			},
			{
				"type": "unocc",
				"energy": 0.00507,
				"method": "rhf"
			},
			{
				"type": "unocc",
				"energy": 0.06607,
				"method": "rhf"
			},
			{
				"type": "unocc",
				"energy": 0.09544,
				"method": "rhf"
			}
		],
		"cosmo_sigma_profile": { 
			"-0.025": 0.0,
			"-0.024": 0.0,
			"-0.023": 0.0,
			"-0.022": 0.0,
			"-0.021": 0.0,
			"-0.02": 0.0,
			"-0.019": 0.0,
			"-0.018": 0.0,
			"-0.017": 0.0,
			"-0.016": 0.0,
			"-0.015": 0.0,
			"-0.014": 0.0,
			"-0.013": 0.0,
			"-0.012": 0.0,
			"-0.011": 0.0,
			"-0.01": 0.0,
			"-0.009": 0.0,
			"-0.008": 1.82565884408,
			"-0.007": 7.90821471175,
			"-0.006": 21.8122646792,
			"-0.005": 24.9072631771,
			"-0.004": 26.6561537613,
			"-0.003": 18.8597687409,
			"-0.002": 13.6364800335,
			"-0.001": 15.1081895832,
			"0.0": 13.3876681823,
			"0.001": 14.5137023329,
			"0.002": 13.0922737782,
			"0.003": 14.0459073002,
			"0.004": 15.0529408505,
			"0.005": 5.68528983466,
			"0.006": 4.99473881427,
			"0.007": 3.81944939056,
			"0.008": 4.04672609834,
			"0.009": 3.25865047248,
			"0.01": 3.34966534472,
			"0.011": 5.05285835383,
			"0.012": 3.78093691087,
			"0.013": 4.89641481782,
			"0.014": 3.010031923,
			"0.015": 0.103981724437,
			"0.016": 0.0,
			"0.017": 0.0,
			"0.018": 0.0,
			"0.019": 0.0,
			"0.02": 0.0,
			"0.021": 0.0,
			"0.022": 0.0,
			"0.023": 0.0,
			"0.024": 0.0,
			"0.025": 0.0
		}
	}
}
