{
	 "smiles": "CN1C(C(CC1=O)C(O)=O)C1=CC(F)=C(Cl)C=C1", 
	 "Tm": 499.15, 
	 "num_atms": 29, 
	 "gaussian": { 
		 "optdone": 1, 
		 "sigma_profile": "yes", 
		 "theory": "DFT", 
		 "functional": "B3LYP", 
		 "basiset": "6-31G**", 
		 "properties": { 
			 "R2extent": 5317.2122, 
			 "electric_dipole_moment_norm": 2.52582900055, 
			 "electric_quadrupole_moment_norm": 22.4136506174, 
			 "total_energy": -1304.38342502, 
			 "HOMO_LUMO_gap": 0.21125, 
			 "cosmo_polarized_energy": -18.46, 
			 "cosmo_cavitation_energy": 34.91, 
			 "cosmo_dispersion_energy": -23.92, 
			 "cosmo_repulsion_energy": 1.85, 
			 "cosmo_total_nonelectrostatic_energy": 12.83, 
			 "SMD_solvation_energy": 7.97 
		},
		"coords": [
			{
				"x": 1.7195068425,
				"y": -0.3034198216,
				"z": -2.8035918359,
				"element": "C" 
			},
			{
				"x": 1.05872133,
				"y": 0.7056353095,
				"z": -1.9941755564,
				"element": "N" 
			},
			{
				"x": 1.2277040768,
				"y": 0.7610993426,
				"z": -0.5476075941,
				"element": "C" 
			},
			{
				"x": 0.3997721934,
				"y": 2.040471756,
				"z": -0.1310872645,
				"element": "C" 
			},
			{
				"x": 0.3489276339,
				"y": 2.8743758706,
				"z": -1.4251627555,
				"element": "C" 
			},
			{
				"x": 0.6424889844,
				"y": 1.8945756663,
				"z": -2.5567709815,
				"element": "C" 
			},
			{
				"x": 0.5691992269,
				"y": 2.1241494301,
				"z": -3.7508307577,
				"element": "O" 
			},
			{
				"x": -0.9749748403,
				"y": 1.713165952,
				"z": 0.4267287928,
				"element": "C" 
			},
			{
				"x": -1.8676783415,
				"y": 1.3858153303,
				"z": -0.5398508076,
				"element": "O" 
			},
			{
				"x": -1.2645632405,
				"y": 1.7432227543,
				"z": 1.6007552013,
				"element": "O" 
			},
			{
				"x": 0.8531702949,
				"y": -0.5233393608,
				"z": 0.1718584686,
				"element": "C" 
			},
			{
				"x": -0.2179717665,
				"y": -1.3138606387,
				"z": -0.2611132034,
				"element": "C" 
			},
			{
				"x": -0.5476573499,
				"y": -2.4705301478,
				"z": 0.4323458895,
				"element": "C" 
			},
			{
				"x": -1.5741178823,
				"y": -3.2194785702,
				"z": 0.0015294724,
				"element": "F" 
			},
			{
				"x": 0.1694372333,
				"y": -2.8659372547,
				"z": 1.5637525271,
				"element": "C" 
			},
			{
				"x": -0.2723501128,
				"y": -4.3284926567,
				"z": 2.4048181608,
				"element": "Cl" 
			},
			{
				"x": 1.2369869761,
				"y": -2.0814955327,
				"z": 1.9979434083,
				"element": "C" 
			},
			{
				"x": 1.5771682857,
				"y": -0.9231262916,
				"z": 1.3007614951,
				"element": "C" 
			},
			{
				"x": 1.5290562235,
				"y": -0.0537116051,
				"z": -3.8483469633,
				"element": "H" 
			},
			{
				"x": 2.8036476993,
				"y": -0.3044390499,
				"z": -2.6257289696,
				"element": "H" 
			},
			{
				"x": 1.3318238879,
				"y": -1.3022091392,
				"z": -2.5870037751,
				"element": "H" 
			},
			{
				"x": 2.2830285823,
				"y": 0.9691921963,
				"z": -0.3066934119,
				"element": "H" 
			},
			{
				"x": 0.920843778,
				"y": 2.5466185358,
				"z": 0.6821783378,
				"element": "H" 
			},
			{
				"x": -0.6036074432,
				"y": 3.377843843,
				"z": -1.5953768966,
				"element": "H" 
			},
			{
				"x": 1.1342011761,
				"y": 3.6382970214,
				"z": -1.4362872698,
				"element": "H" 
			},
			{
				"x": -2.7034225842,
				"y": 1.1876201521,
				"z": -0.0839827899,
				"element": "H" 
			},
			{
				"x": -0.8036564218,
				"y": -1.0366128374,
				"z": -1.1302587978,
				"element": "H" 
			},
			{
				"x": 1.7977928422,
				"y": -2.3873683008,
				"z": 2.8741498632,
				"element": "H" 
			},
			{
				"x": 2.4168227162,
				"y": -0.325261953,
				"z": 1.6438480136,
				"element": "H" 
			}
		],
		 "valence_orbital": [ 
			{
				"type": "occ",
				"energy": -0.28672,
				"method": "rhf"
			},
			{
				"type": "occ",
				"energy": -0.27153,
				"method": "rhf"
			},
			{
				"type": "occ",
				"energy": -0.25919,
				"method": "rhf"
			},
			{
				"type": "occ",
				"energy": -0.25837,
				"method": "rhf"
			},
			{
				"type": "occ",
				"energy": -0.24674,
				"method": "rhf"
			},
			{
				"type": "unocc",
				"energy": -0.03549,
				"method": "rhf"
			},
			{
				"type": "unocc",
				"energy": -0.02245,
				"method": "rhf"
			},
			{
				"type": "unocc",
				"energy": -0.00865,
				"method": "rhf"
			},
			{
				"type": "unocc",
				"energy": 0.01558,
				"method": "rhf"
			},
			{
				"type": "unocc",
				"energy": 0.02106,
				"method": "rhf"
			}
		],
		"cosmo_sigma_profile": { 
			"-0.025": 0.0,
			"-0.024": 0.0,
			"-0.023": 0.0,
			"-0.022": 0.0,
			"-0.021": 0.0,
			"-0.02": 0.0,
			"-0.019": 0.26238772752,
			"-0.018": 0.80735624776,
			"-0.017": 0.914949125631,
			"-0.016": 0.888307606684,
			"-0.015": 0.790503602968,
			"-0.014": 0.628154089847,
			"-0.013": 0.405073676622,
			"-0.012": 0.82292729349,
			"-0.011": 0.927322205816,
			"-0.01": 0.246730005074,
			"-0.009": 0.547389880885,
			"-0.008": 4.20347237981,
			"-0.007": 17.1729469367,
			"-0.006": 17.6397582928,
			"-0.005": 17.0311615239,
			"-0.004": 16.8376111637,
			"-0.003": 19.0733742281,
			"-0.002": 19.1950232804,
			"-0.001": 19.7055420684,
			"0.0": 15.3398847311,
			"0.001": 20.6175977308,
			"0.002": 16.7930234795,
			"0.003": 20.8157900537,
			"0.004": 22.0686828834,
			"0.005": 8.50270823065,
			"0.006": 3.60442363515,
			"0.007": 3.68512549408,
			"0.008": 2.59996671658,
			"0.009": 2.61710414052,
			"0.01": 4.40117133722,
			"0.011": 6.06420704915,
			"0.012": 5.3830396646,
			"0.013": 5.5381663094,
			"0.014": 3.00096178801,
			"0.015": 0.225964040103,
			"0.016": 0.0,
			"0.017": 0.0,
			"0.018": 0.0,
			"0.019": 0.0,
			"0.02": 0.0,
			"0.021": 0.0,
			"0.022": 0.0,
			"0.023": 0.0,
			"0.024": 0.0,
			"0.025": 0.0
		}
	}
}
