{
	 "smiles": "[O-][N+](=O)C1=NN(CCBr)C=C1", 
	 "Tm": 324.15, 
	 "num_atms": 17, 
	 "gaussian": { 
		 "optdone": 1, 
		 "sigma_profile": "yes", 
		 "theory": "DFT", 
		 "functional": "B3LYP", 
		 "basiset": "6-31G**", 
		 "properties": { 
			 "R2extent": 4299.1977, 
			 "electric_dipole_moment_norm": 7.52909238687, 
			 "electric_quadrupole_moment_norm": 20.3189320896, 
			 "total_energy": -3080.12182038, 
			 "HOMO_LUMO_gap": 0.20365, 
			 "cosmo_polarized_energy": -18.71, 
			 "cosmo_cavitation_energy": 24.9, 
			 "cosmo_dispersion_energy": -18.04, 
			 "cosmo_repulsion_energy": 1.48, 
			 "cosmo_total_nonelectrostatic_energy": 8.34, 
			 "SMD_solvation_energy": 5.05 
		},
		"coords": [
			{
				"x": 2.1644733274,
				"y": -4.2473274303,
				"z": 0.8401171038,
				"element": "O" 
			},
			{
				"x": 2.3579159822,
				"y": -3.4874027434,
				"z": -0.1126866304,
				"element": "N" 
			},
			{
				"x": 3.2051960531,
				"y": -3.6334632106,
				"z": -0.9863162929,
				"element": "O" 
			},
			{
				"x": 1.4890991821,
				"y": -2.3293203607,
				"z": -0.1789710684,
				"element": "C" 
			},
			{
				"x": 1.617898072,
				"y": -1.4445627396,
				"z": -1.1616748368,
				"element": "N" 
			},
			{
				"x": 0.6633211735,
				"y": -0.5411482527,
				"z": -0.9013606651,
				"element": "N" 
			},
			{
				"x": 0.5057335087,
				"y": 0.6066155867,
				"z": -1.7850268548,
				"element": "C" 
			},
			{
				"x": 0.7826014346,
				"y": 1.9477574039,
				"z": -1.1164806156,
				"element": "C" 
			},
			{
				"x": 2.6497931714,
				"y": 2.1313022166,
				"z": -0.5250189045,
				"element": "Br" 
			},
			{
				"x": -0.0592591182,
				"y": -0.8435048712,
				"z": 0.2211431965,
				"element": "C" 
			},
			{
				"x": 0.4565169156,
				"y": -2.0163515784,
				"z": 0.7269190894,
				"element": "C" 
			},
			{
				"x": -0.5232365871,
				"y": 0.6204652394,
				"z": -2.1675342611,
				"element": "H" 
			},
			{
				"x": 1.1830088211,
				"y": 0.4372243635,
				"z": -2.6223426445,
				"element": "H" 
			},
			{
				"x": 0.6017524354,
				"y": 2.7572985799,
				"z": -1.8236866741,
				"element": "H" 
			},
			{
				"x": 0.1680081783,
				"y": 2.1021913017,
				"z": -0.2294797919,
				"element": "H" 
			},
			{
				"x": -0.8703542138,
				"y": -0.2164280639,
				"z": 0.5616868164,
				"element": "H" 
			},
			{
				"x": 0.1524316638,
				"y": -2.5724454409,
				"z": 1.5981130339,
				"element": "H" 
			}
		],
		 "valence_orbital": [ 
			{
				"type": "occ",
				"energy": -0.29408,
				"method": "rhf"
			},
			{
				"type": "occ",
				"energy": -0.28992,
				"method": "rhf"
			},
			{
				"type": "occ",
				"energy": -0.28446,
				"method": "rhf"
			},
			{
				"type": "occ",
				"energy": -0.28378,
				"method": "rhf"
			},
			{
				"type": "occ",
				"energy": -0.28097,
				"method": "rhf"
			},
			{
				"type": "unocc",
				"energy": -0.07732,
				"method": "rhf"
			},
			{
				"type": "unocc",
				"energy": -0.01693,
				"method": "rhf"
			},
			{
				"type": "unocc",
				"energy": -0.00884,
				"method": "rhf"
			},
			{
				"type": "unocc",
				"energy": 0.06319,
				"method": "rhf"
			},
			{
				"type": "unocc",
				"energy": 0.06681,
				"method": "rhf"
			}
		],
		"cosmo_sigma_profile": { 
			"-0.025": 0.0,
			"-0.024": 0.0,
			"-0.023": 0.0,
			"-0.022": 0.0,
			"-0.021": 0.0,
			"-0.02": 0.0,
			"-0.019": 0.0,
			"-0.018": 0.0,
			"-0.017": 0.0,
			"-0.016": 0.0,
			"-0.015": 0.0,
			"-0.014": 0.0,
			"-0.013": 0.0111217318283,
			"-0.012": 0.738592023661,
			"-0.011": 2.86180197378,
			"-0.01": 3.34787749674,
			"-0.009": 9.36673241619,
			"-0.008": 12.7111505641,
			"-0.007": 10.054828624,
			"-0.006": 10.7285463,
			"-0.005": 9.8668337981,
			"-0.004": 7.99142308541,
			"-0.003": 7.17987265796,
			"-0.002": 8.58261863792,
			"-0.001": 9.93234682256,
			"0.0": 12.2467177431,
			"0.001": 11.3013206164,
			"0.002": 9.34562725415,
			"0.003": 8.41806162779,
			"0.004": 8.34649713929,
			"0.005": 13.0121157047,
			"0.006": 11.9661221344,
			"0.007": 8.40054765401,
			"0.008": 10.7296947375,
			"0.009": 6.59606298354,
			"0.01": 3.99045172018,
			"0.011": 1.5998594818,
			"0.012": 1.4719115539,
			"0.013": 1.1476294035,
			"0.014": 0.319085022391,
			"0.015": 0.0,
			"0.016": 0.0,
			"0.017": 0.0,
			"0.018": 0.0,
			"0.019": 0.0,
			"0.02": 0.0,
			"0.021": 0.0,
			"0.022": 0.0,
			"0.023": 0.0,
			"0.024": 0.0,
			"0.025": 0.0
		}
	}
}
