{
	 "smiles": "CC(=O)OC1OC(COC(=O)C2=CC=CC=C2)C(OC(=O)C2=CC=CC=C2)C1OC(=O)C1=CC=CC=C1", 
	 "Tm": 402.15, 
	 "num_atms": 61, 
	 "gaussian": { 
		 "optdone": 1, 
		 "sigma_profile": "yes", 
		 "theory": "DFT", 
		 "functional": "B3LYP", 
		 "basiset": "6-31G**", 
		 "properties": { 
			 "R2extent": 20840.0392, 
			 "electric_dipole_moment_norm": 4.7231644784, 
			 "electric_quadrupole_moment_norm": 20.274991965, 
			 "total_energy": -1758.50514826, 
			 "HOMO_LUMO_gap": 0.2059, 
			 "cosmo_polarized_energy": -23.65, 
			 "cosmo_cavitation_energy": 68.28, 
			 "cosmo_dispersion_energy": -43.78, 
			 "cosmo_repulsion_energy": 3.38, 
			 "cosmo_total_nonelectrostatic_energy": 27.88, 
			 "SMD_solvation_energy": 14.62 
		},
		"coords": [
			{
				"x": -1.5229596174,
				"y": -5.5768459763,
				"z": 1.8902835607,
				"element": "C" 
			},
			{
				"x": -0.4087603786,
				"y": -4.5610669394,
				"z": 1.8803281082,
				"element": "C" 
			},
			{
				"x": 0.6598098633,
				"y": -4.6757713583,
				"z": 2.4320365471,
				"element": "O" 
			},
			{
				"x": -0.7782393168,
				"y": -3.462538621,
				"z": 1.1538089207,
				"element": "O" 
			},
			{
				"x": 0.217400588,
				"y": -2.4460250506,
				"z": 0.9643712464,
				"element": "C" 
			},
			{
				"x": 0.9200500322,
				"y": -2.6672315421,
				"z": -0.2323175583,
				"element": "O" 
			},
			{
				"x": 0.2788235221,
				"y": -1.9399562382,
				"z": -1.2881687343,
				"element": "C" 
			},
			{
				"x": 1.2360992701,
				"y": -1.8040671504,
				"z": -2.4576449408,
				"element": "C" 
			},
			{
				"x": 2.3864766735,
				"y": -1.0284747578,
				"z": -2.0857463825,
				"element": "O" 
			},
			{
				"x": 3.5912279206,
				"y": -1.6648902316,
				"z": -2.0685842993,
				"element": "C" 
			},
			{
				"x": 3.7485049177,
				"y": -2.8170867944,
				"z": -2.4138861939,
				"element": "O" 
			},
			{
				"x": 4.6883817561,
				"y": -0.7732998587,
				"z": -1.5978969627,
				"element": "C" 
			},
			{
				"x": 5.9727543979,
				"y": -1.3254240875,
				"z": -1.4931297545,
				"element": "C" 
			},
			{
				"x": 7.0375164838,
				"y": -0.539647096,
				"z": -1.0598628874,
				"element": "C" 
			},
			{
				"x": 6.8269345369,
				"y": 0.8025147674,
				"z": -0.7320057068,
				"element": "C" 
			},
			{
				"x": 5.5491138275,
				"y": 1.357166509,
				"z": -0.8380663004,
				"element": "C" 
			},
			{
				"x": 4.4798190935,
				"y": 0.5734555149,
				"z": -1.2688788973,
				"element": "C" 
			},
			{
				"x": -0.1046557919,
				"y": -0.6264547029,
				"z": -0.5788041732,
				"element": "C" 
			},
			{
				"x": -1.017929624,
				"y": 0.2275503775,
				"z": -1.2762302413,
				"element": "O" 
			},
			{
				"x": -2.294002873,
				"y": -0.1855393209,
				"z": -1.4982970847,
				"element": "C" 
			},
			{
				"x": -2.7004684881,
				"y": -1.2942717569,
				"z": -1.2061802905,
				"element": "O" 
			},
			{
				"x": -3.1165681566,
				"y": 0.8656324516,
				"z": -2.1547967626,
				"element": "C" 
			},
			{
				"x": -2.6168178858,
				"y": 2.1440659631,
				"z": -2.4411211735,
				"element": "C" 
			},
			{
				"x": -3.4366482756,
				"y": 3.0859791663,
				"z": -3.0598599233,
				"element": "C" 
			},
			{
				"x": -4.7530832416,
				"y": 2.758406697,
				"z": -3.3941079217,
				"element": "C" 
			},
			{
				"x": -5.2536523102,
				"y": 1.4852493561,
				"z": -3.1078975735,
				"element": "C" 
			},
			{
				"x": -4.4388176285,
				"y": 0.5407990202,
				"z": -2.4896140653,
				"element": "C" 
			},
			{
				"x": -0.5161503423,
				"y": -1.0987169379,
				"z": 0.8262773064,
				"element": "C" 
			},
			{
				"x": -0.0386846762,
				"y": -0.2163779213,
				"z": 1.8557925313,
				"element": "O" 
			},
			{
				"x": -0.8835793962,
				"y": 0.7805715423,
				"z": 2.238161822,
				"element": "C" 
			},
			{
				"x": -1.9730452793,
				"y": 0.9582529709,
				"z": 1.7311789513,
				"element": "O" 
			},
			{
				"x": -0.3155085984,
				"y": 1.6102771129,
				"z": 3.3354464295,
				"element": "C" 
			},
			{
				"x": -1.0891249716,
				"y": 2.6798091286,
				"z": 3.8084335077,
				"element": "C" 
			},
			{
				"x": -0.6080223732,
				"y": 3.4878028762,
				"z": 4.8351628195,
				"element": "C" 
			},
			{
				"x": 0.6471546728,
				"y": 3.2323525811,
				"z": 5.3945807258,
				"element": "C" 
			},
			{
				"x": 1.4204909093,
				"y": 2.1674662385,
				"z": 4.925650806,
				"element": "C" 
			},
			{
				"x": 0.9435020122,
				"y": 1.3555145076,
				"z": 3.8980129471,
				"element": "C" 
			},
			{
				"x": -2.4571632428,
				"y": -5.1113004333,
				"z": 2.2160242802,
				"element": "H" 
			},
			{
				"x": -1.2577723367,
				"y": -6.4009563148,
				"z": 2.551699811,
				"element": "H" 
			},
			{
				"x": -1.6838240811,
				"y": -5.9529828301,
				"z": 0.8751995334,
				"element": "H" 
			},
			{
				"x": 0.9247260287,
				"y": -2.4823642295,
				"z": 1.7920899282,
				"element": "H" 
			},
			{
				"x": -0.6203139391,
				"y": -2.4645088449,
				"z": -1.6323407424,
				"element": "H" 
			},
			{
				"x": 1.5595630283,
				"y": -2.7887949157,
				"z": -2.7992476589,
				"element": "H" 
			},
			{
				"x": 0.7380343035,
				"y": -1.2727408355,
				"z": -3.2746753414,
				"element": "H" 
			},
			{
				"x": 6.1107948293,
				"y": -2.3690068971,
				"z": -1.7544386703,
				"element": "H" 
			},
			{
				"x": 8.0306543343,
				"y": -0.9711665762,
				"z": -0.9775927004,
				"element": "H" 
			},
			{
				"x": 7.6578757677,
				"y": 1.4157823414,
				"z": -0.3948359328,
				"element": "H" 
			},
			{
				"x": 5.3861798773,
				"y": 2.400747471,
				"z": -0.5852458405,
				"element": "H" 
			},
			{
				"x": 3.4870518567,
				"y": 0.9990679904,
				"z": -1.3569514525,
				"element": "H" 
			},
			{
				"x": 0.7980793709,
				"y": -0.0202514354,
				"z": -0.4789278659,
				"element": "H" 
			},
			{
				"x": -1.5961536366,
				"y": 2.3914935205,
				"z": -2.1743659535,
				"element": "H" 
			},
			{
				"x": -3.0498964015,
				"y": 4.0765688158,
				"z": -3.2799768172,
				"element": "H" 
			},
			{
				"x": -5.3891362555,
				"y": 3.4955146158,
				"z": -3.8760891616,
				"element": "H" 
			},
			{
				"x": -6.2774801651,
				"y": 1.2316152409,
				"z": -3.3660489867,
				"element": "H" 
			},
			{
				"x": -4.8047673732,
				"y": -0.4529014272,
				"z": -2.2548992954,
				"element": "H" 
			},
			{
				"x": -1.5931349436,
				"y": -1.2221441146,
				"z": 0.9147485591,
				"element": "H" 
			},
			{
				"x": -2.0602074243,
				"y": 2.8564819517,
				"z": 3.3585561424,
				"element": "H" 
			},
			{
				"x": -1.2090837392,
				"y": 4.3151919748,
				"z": 5.2004063436,
				"element": "H" 
			},
			{
				"x": 1.0221616998,
				"y": 3.8624889626,
				"z": 6.196120782,
				"element": "H" 
			},
			{
				"x": 2.3949455505,
				"y": 1.9688541162,
				"z": 5.3617798245,
				"element": "H" 
			},
			{
				"x": 1.5377256396,
				"y": 0.527131414,
				"z": 3.5302828132,
				"element": "H" 
			}
		],
		 "valence_orbital": [ 
			{
				"type": "occ",
				"energy": -0.26232,
				"method": "rhf"
			},
			{
				"type": "occ",
				"energy": -0.26189,
				"method": "rhf"
			},
			{
				"type": "occ",
				"energy": -0.26066,
				"method": "rhf"
			},
			{
				"type": "occ",
				"energy": -0.26028,
				"method": "rhf"
			},
			{
				"type": "occ",
				"energy": -0.2586,
				"method": "rhf"
			},
			{
				"type": "unocc",
				"energy": -0.0527,
				"method": "rhf"
			},
			{
				"type": "unocc",
				"energy": -0.04981,
				"method": "rhf"
			},
			{
				"type": "unocc",
				"energy": -0.04593,
				"method": "rhf"
			},
			{
				"type": "unocc",
				"energy": -0.01164,
				"method": "rhf"
			},
			{
				"type": "unocc",
				"energy": -0.00985,
				"method": "rhf"
			}
		],
		"cosmo_sigma_profile": { 
			"-0.025": 0.0,
			"-0.024": 0.0,
			"-0.023": 0.0,
			"-0.022": 0.0,
			"-0.021": 0.0,
			"-0.02": 0.0,
			"-0.019": 0.0,
			"-0.018": 0.0,
			"-0.017": 0.0,
			"-0.016": 0.0,
			"-0.015": 0.0,
			"-0.014": 0.0,
			"-0.013": 0.0,
			"-0.012": 0.0,
			"-0.011": 0.0,
			"-0.01": 0.0,
			"-0.009": 0.000909476283897,
			"-0.008": 1.76613862246,
			"-0.007": 14.4589754087,
			"-0.006": 39.839277452,
			"-0.005": 47.5004401023,
			"-0.004": 49.3915593077,
			"-0.003": 38.1498002556,
			"-0.002": 38.5179254161,
			"-0.001": 35.1389329516,
			"0.0": 35.3131329074,
			"0.001": 42.2400472044,
			"0.002": 43.6180885631,
			"0.003": 48.4119110927,
			"0.004": 41.8591319927,
			"0.005": 11.8447534705,
			"0.006": 9.08038276858,
			"0.007": 8.02702637356,
			"0.008": 8.13292296767,
			"0.009": 7.21778601918,
			"0.01": 9.23763497823,
			"0.011": 12.5226895419,
			"0.012": 4.06222488283,
			"0.013": 0.114305092443,
			"0.014": 0.0,
			"0.015": 0.0,
			"0.016": 0.0,
			"0.017": 0.0,
			"0.018": 0.0,
			"0.019": 0.0,
			"0.02": 0.0,
			"0.021": 0.0,
			"0.022": 0.0,
			"0.023": 0.0,
			"0.024": 0.0,
			"0.025": 0.0
		}
	}
}
