{
	 "smiles": "COC1=C(CNC(=O)N2C=CN=C2)C=CC=C1", 
	 "Tm": 402.15, 
	 "num_atms": 30, 
	 "gaussian": { 
		 "optdone": 1, 
		 "sigma_profile": "yes", 
		 "theory": "DFT", 
		 "functional": "B3LYP", 
		 "basiset": "6-31G**", 
		 "properties": { 
			 "R2extent": 5191.1344, 
			 "electric_dipole_moment_norm": 5.11000926614, 
			 "electric_quadrupole_moment_norm": 11.4937470039, 
			 "total_energy": -779.811427445, 
			 "HOMO_LUMO_gap": 0.21351, 
			 "cosmo_polarized_energy": -15.92, 
			 "cosmo_cavitation_energy": 34.49, 
			 "cosmo_dispersion_energy": -24.2, 
			 "cosmo_repulsion_energy": 1.85, 
			 "cosmo_total_nonelectrostatic_energy": 12.14, 
			 "SMD_solvation_energy": 5.92 
		},
		"coords": [
			{
				"x": 0.8340982208,
				"y": 2.001132903,
				"z": 2.2493678768,
				"element": "C" 
			},
			{
				"x": 1.065230631,
				"y": 1.2433929818,
				"z": 1.0679521656,
				"element": "O" 
			},
			{
				"x": 1.4629490627,
				"y": -0.0671115243,
				"z": 1.1979536044,
				"element": "C" 
			},
			{
				"x": 1.7555119394,
				"y": -0.7283095478,
				"z": -0.012501456,
				"element": "C" 
			},
			{
				"x": 1.6612318903,
				"y": 0.0187470475,
				"z": -1.3267038042,
				"element": "C" 
			},
			{
				"x": 0.3182107241,
				"y": 0.5265881449,
				"z": -1.5952609222,
				"element": "N" 
			},
			{
				"x": -0.3829088649,
				"y": 0.1618280707,
				"z": -2.6971229509,
				"element": "C" 
			},
			{
				"x": 0.0350559175,
				"y": -0.5313438948,
				"z": -3.6090990912,
				"element": "O" 
			},
			{
				"x": -1.717611982,
				"y": 0.6784909848,
				"z": -2.732780013,
				"element": "N" 
			},
			{
				"x": -2.5022066147,
				"y": 0.6926254529,
				"z": -3.8775051937,
				"element": "C" 
			},
			{
				"x": -3.6943363261,
				"y": 1.2416157521,
				"z": -3.4975707417,
				"element": "C" 
			},
			{
				"x": -3.6859212962,
				"y": 1.5578270706,
				"z": -2.1492579225,
				"element": "N" 
			},
			{
				"x": -2.4986135976,
				"y": 1.2109432802,
				"z": -1.7228743541,
				"element": "C" 
			},
			{
				"x": 2.1521382011,
				"y": -2.0636379573,
				"z": 0.0393790602,
				"element": "C" 
			},
			{
				"x": 2.2685721096,
				"y": -2.7417170246,
				"z": 1.2567837508,
				"element": "C" 
			},
			{
				"x": 1.9790355708,
				"y": -2.0713992249,
				"z": 2.4412950163,
				"element": "C" 
			},
			{
				"x": 1.573839358,
				"y": -0.7325861929,
				"z": 2.4205176031,
				"element": "C" 
			},
			{
				"x": 0.0025666615,
				"y": 1.5907871919,
				"z": 2.8354049042,
				"element": "H" 
			},
			{
				"x": 1.7317826571,
				"y": 2.0440754622,
				"z": 2.8775173499,
				"element": "H" 
			},
			{
				"x": 0.5780645566,
				"y": 3.0082688815,
				"z": 1.9172683166,
				"element": "H" 
			},
			{
				"x": 2.3636636895,
				"y": 0.8617381524,
				"z": -1.32959083,
				"element": "H" 
			},
			{
				"x": 1.9201715176,
				"y": -0.6363917567,
				"z": -2.1591526803,
				"element": "H" 
			},
			{
				"x": -0.053126784,
				"y": 1.1901582656,
				"z": -0.9331203968,
				"element": "H" 
			},
			{
				"x": -2.1172643729,
				"y": 0.3157557431,
				"z": -4.8104653538,
				"element": "H" 
			},
			{
				"x": -4.5646847293,
				"y": 1.4283505847,
				"z": -4.1107953472,
				"element": "H" 
			},
			{
				"x": -2.1597445395,
				"y": 1.2774449222,
				"z": -0.6983209805,
				"element": "H" 
			},
			{
				"x": 2.3746043654,
				"y": -2.5790128343,
				"z": -0.8912725982,
				"element": "H" 
			},
			{
				"x": 2.5798051588,
				"y": -3.7812926692,
				"z": 1.2742301029,
				"element": "H" 
			},
			{
				"x": 2.0626786294,
				"y": -2.5839764164,
				"z": 3.3951746374,
				"element": "H" 
			},
			{
				"x": 1.3484082456,
				"y": -0.2271918488,
				"z": 3.3519502483,
				"element": "H" 
			}
		],
		 "valence_orbital": [ 
			{
				"type": "occ",
				"energy": -0.26569,
				"method": "rhf"
			},
			{
				"type": "occ",
				"energy": -0.26112,
				"method": "rhf"
			},
			{
				"type": "occ",
				"energy": -0.25896,
				"method": "rhf"
			},
			{
				"type": "occ",
				"energy": -0.23407,
				"method": "rhf"
			},
			{
				"type": "occ",
				"energy": -0.23034,
				"method": "rhf"
			},
			{
				"type": "unocc",
				"energy": -0.01683,
				"method": "rhf"
			},
			{
				"type": "unocc",
				"energy": -0.00876,
				"method": "rhf"
			},
			{
				"type": "unocc",
				"energy": -0.00165,
				"method": "rhf"
			},
			{
				"type": "unocc",
				"energy": 0.06499,
				"method": "rhf"
			},
			{
				"type": "unocc",
				"energy": 0.07186,
				"method": "rhf"
			}
		],
		"cosmo_sigma_profile": { 
			"-0.025": 0.0,
			"-0.024": 0.0,
			"-0.023": 0.0,
			"-0.022": 0.0,
			"-0.021": 0.0,
			"-0.02": 0.0,
			"-0.019": 0.0,
			"-0.018": 0.0,
			"-0.017": 0.0,
			"-0.016": 0.0,
			"-0.015": 0.0,
			"-0.014": 0.0,
			"-0.013": 0.320508440982,
			"-0.012": 0.739039057188,
			"-0.011": 1.26392952742,
			"-0.01": 2.37416485801,
			"-0.009": 3.02213867439,
			"-0.008": 2.41693120599,
			"-0.007": 5.82275925151,
			"-0.006": 16.1866015552,
			"-0.005": 24.4425046492,
			"-0.004": 26.7624842424,
			"-0.003": 25.3231942906,
			"-0.002": 19.0339347334,
			"-0.001": 18.5940541673,
			"0.0": 16.2291648383,
			"0.001": 14.5875584709,
			"0.002": 15.3686372616,
			"0.003": 15.830573675,
			"0.004": 16.1381297213,
			"0.005": 14.326989274,
			"0.006": 9.07209707165,
			"0.007": 2.5845651633,
			"0.008": 3.01599775665,
			"0.009": 3.45635137915,
			"0.01": 2.75166025617,
			"0.011": 3.03185108494,
			"0.012": 5.70590884077,
			"0.013": 3.52078799689,
			"0.014": 0.625082100866,
			"0.015": 1.31319220793,
			"0.016": 1.08449899939,
			"0.017": 0.752117792187,
			"0.018": 0.148514500433,
			"0.019": 0.0,
			"0.02": 0.0,
			"0.021": 0.0,
			"0.022": 0.0,
			"0.023": 0.0,
			"0.024": 0.0,
			"0.025": 0.0
		}
	}
}
