{
	 "smiles": "FC(F)(F)C(F)(F)C(Cl)Cl", 
	 "Tm": 179.15, 
	 "num_atms": 11, 
	 "gaussian": { 
		 "optdone": 1, 
		 "sigma_profile": "yes", 
		 "theory": "DFT", 
		 "functional": "B3LYP", 
		 "basiset": "6-31G**", 
		 "properties": { 
			 "R2extent": 2402.2864, 
			 "electric_dipole_moment_norm": 1.18715933219, 
			 "electric_quadrupole_moment_norm": 3.52811392248, 
			 "total_energy": -1534.48901217, 
			 "HOMO_LUMO_gap": 0.29293, 
			 "cosmo_polarized_energy": -3.58, 
			 "cosmo_cavitation_energy": 20.79, 
			 "cosmo_dispersion_energy": -14.77, 
			 "cosmo_repulsion_energy": 1.12, 
			 "cosmo_total_nonelectrostatic_energy": 7.13, 
			 "SMD_solvation_energy": 4.82 
		},
		"coords": [
			{
				"x": 2.0477905779,
				"y": -0.4116614337,
				"z": -0.0600916426,
				"element": "F" 
			},
			{
				"x": 0.7654332874,
				"y": -0.3781345403,
				"z": -0.4354958071,
				"element": "C" 
			},
			{
				"x": 0.7063392507,
				"y": -0.4726189332,
				"z": -1.7781380436,
				"element": "F" 
			},
			{
				"x": 0.241504508,
				"y": 0.7909565001,
				"z": -0.059886452,
				"element": "F" 
			},
			{
				"x": 0.0098342711,
				"y": -1.5769736907,
				"z": 0.2031598405,
				"element": "C" 
			},
			{
				"x": -0.1287178781,
				"y": -1.33081477,
				"z": 1.5217231122,
				"element": "F" 
			},
			{
				"x": 0.8132338528,
				"y": -2.6592908322,
				"z": 0.0387060128,
				"element": "F" 
			},
			{
				"x": -1.3480006178,
				"y": -1.9065504064,
				"z": -0.4525125655,
				"element": "C" 
			},
			{
				"x": -2.5065275706,
				"y": -0.5550875789,
				"z": -0.292478545,
				"element": "Cl" 
			},
			{
				"x": -2.0034043919,
				"y": -3.415805551,
				"z": 0.2498979759,
				"element": "Cl" 
			},
			{
				"x": -1.1906852895,
				"y": -2.0810187635,
				"z": -1.5146838855,
				"element": "H" 
			}
		],
		 "valence_orbital": [ 
			{
				"type": "occ",
				"energy": -0.3866,
				"method": "rhf"
			},
			{
				"type": "occ",
				"energy": -0.3504,
				"method": "rhf"
			},
			{
				"type": "occ",
				"energy": -0.3437,
				"method": "rhf"
			},
			{
				"type": "occ",
				"energy": -0.32848,
				"method": "rhf"
			},
			{
				"type": "occ",
				"energy": -0.32521,
				"method": "rhf"
			},
			{
				"type": "unocc",
				"energy": -0.03228,
				"method": "rhf"
			},
			{
				"type": "unocc",
				"energy": -0.00936,
				"method": "rhf"
			},
			{
				"type": "unocc",
				"energy": 0.06704,
				"method": "rhf"
			},
			{
				"type": "unocc",
				"energy": 0.09047,
				"method": "rhf"
			},
			{
				"type": "unocc",
				"energy": 0.10542,
				"method": "rhf"
			}
		],
		"cosmo_sigma_profile": { 
			"-0.025": 0.0,
			"-0.024": 0.0,
			"-0.023": 0.0,
			"-0.022": 0.0,
			"-0.021": 0.0,
			"-0.02": 0.0,
			"-0.019": 0.0,
			"-0.018": 0.0,
			"-0.017": 0.0,
			"-0.016": 0.0,
			"-0.015": 0.0,
			"-0.014": 0.0,
			"-0.013": 0.97798500792,
			"-0.012": 1.5028079864,
			"-0.011": 1.96803407808,
			"-0.01": 1.4833769825,
			"-0.009": 1.45282644258,
			"-0.008": 1.2606242495,
			"-0.007": 1.24114710147,
			"-0.006": 1.02368119889,
			"-0.005": 1.91348236762,
			"-0.004": 4.50566696721,
			"-0.003": 7.8131951788,
			"-0.002": 9.69172542555,
			"-0.001": 13.0651998003,
			"0.0": 18.9684197113,
			"0.001": 44.6780396028,
			"0.002": 37.3693649208,
			"0.003": 20.2983830476,
			"0.004": 1.82999901574,
			"0.005": 0.0,
			"0.006": 0.0,
			"0.007": 0.0,
			"0.008": 0.0,
			"0.009": 0.0,
			"0.01": 0.0,
			"0.011": 0.0,
			"0.012": 0.0,
			"0.013": 0.0,
			"0.014": 0.0,
			"0.015": 0.0,
			"0.016": 0.0,
			"0.017": 0.0,
			"0.018": 0.0,
			"0.019": 0.0,
			"0.02": 0.0,
			"0.021": 0.0,
			"0.022": 0.0,
			"0.023": 0.0,
			"0.024": 0.0,
			"0.025": 0.0
		}
	}
}
