{
	 "smiles": "CC(C)(C)C1=CC=C(C=C1)C1=NN=C(S)N1CC1=CC=CO1", 
	 "Tm": 430.15, 
	 "num_atms": 41, 
	 "gaussian": { 
		 "optdone": 1, 
		 "sigma_profile": "yes", 
		 "theory": "DFT", 
		 "functional": "B3LYP", 
		 "basiset": "6-31G**", 
		 "properties": { 
			 "R2extent": 11075.4745, 
			 "electric_dipole_moment_norm": 4.60158578753, 
			 "electric_quadrupole_moment_norm": 16.3180156217, 
			 "total_energy": -1296.88730661, 
			 "HOMO_LUMO_gap": 0.18765, 
			 "cosmo_polarized_energy": -16.58, 
			 "cosmo_cavitation_energy": 45.15, 
			 "cosmo_dispersion_energy": -31.39, 
			 "cosmo_repulsion_energy": 2.34, 
			 "cosmo_total_nonelectrostatic_energy": 16.1, 
			 "SMD_solvation_energy": 6.21 
		},
		"coords": [
			{
				"x": 0.407731652,
				"y": 4.3575623401,
				"z": 0.6051965387,
				"element": "C" 
			},
			{
				"x": 0.5589150575,
				"y": 3.4423152998,
				"z": 1.8439898709,
				"element": "C" 
			},
			{
				"x": 1.9524076548,
				"y": 3.6655502192,
				"z": 2.4791632692,
				"element": "C" 
			},
			{
				"x": -0.5105601263,
				"y": 3.8488552845,
				"z": 2.8754071908,
				"element": "C" 
			},
			{
				"x": 0.424879055,
				"y": 1.9718664899,
				"z": 1.4109817149,
				"element": "C" 
			},
			{
				"x": 1.3239024303,
				"y": 1.429789347,
				"z": 0.4732428852,
				"element": "C" 
			},
			{
				"x": 1.2345448465,
				"y": 0.1107599605,
				"z": 0.0487841016,
				"element": "C" 
			},
			{
				"x": 0.2315752868,
				"y": -0.7357941587,
				"z": 0.5524008895,
				"element": "C" 
			},
			{
				"x": -0.6585157204,
				"y": -0.2157031555,
				"z": 1.5016097735,
				"element": "C" 
			},
			{
				"x": -0.5624833632,
				"y": 1.1151210804,
				"z": 1.9139075125,
				"element": "C" 
			},
			{
				"x": 0.1989273811,
				"y": -2.1309739996,
				"z": 0.0962051567,
				"element": "C" 
			},
			{
				"x": 1.2678283595,
				"y": -2.8318159367,
				"z": -0.2210760181,
				"element": "N" 
			},
			{
				"x": 0.8641709035,
				"y": -4.0906514219,
				"z": -0.6102000911,
				"element": "N" 
			},
			{
				"x": -0.4445970775,
				"y": -4.114127092,
				"z": -0.5279053224,
				"element": "C" 
			},
			{
				"x": -1.4876699315,
				"y": -5.4849409948,
				"z": -0.9259057388,
				"element": "S" 
			},
			{
				"x": -0.9381797818,
				"y": -2.9084797608,
				"z": -0.0864174247,
				"element": "N" 
			},
			{
				"x": -2.3394377087,
				"y": -2.5093807902,
				"z": -0.0540999687,
				"element": "C" 
			},
			{
				"x": -3.0380952321,
				"y": -2.9684958568,
				"z": 1.1907350139,
				"element": "C" 
			},
			{
				"x": -2.6305113097,
				"y": -3.5614163928,
				"z": 2.3491165624,
				"element": "C" 
			},
			{
				"x": -3.8127430397,
				"y": -3.7340728257,
				"z": 3.1466598422,
				"element": "C" 
			},
			{
				"x": -4.8424321984,
				"y": -3.2341811709,
				"z": 2.414099582,
				"element": "C" 
			},
			{
				"x": -4.3874794027,
				"y": -2.7618912201,
				"z": 1.213858654,
				"element": "O" 
			},
			{
				"x": 1.1681066206,
				"y": 4.1471434413,
				"z": -0.1525988268,
				"element": "H" 
			},
			{
				"x": -0.5742319757,
				"y": 4.2269505612,
				"z": 0.1385739656,
				"element": "H" 
			},
			{
				"x": 0.5088011957,
				"y": 5.4094605283,
				"z": 0.8951312366,
				"element": "H" 
			},
			{
				"x": 2.7613601906,
				"y": 3.4352279729,
				"z": 1.7797607309,
				"element": "H" 
			},
			{
				"x": 2.0663660161,
				"y": 4.7108910273,
				"z": 2.7875219769,
				"element": "H" 
			},
			{
				"x": 2.0857876614,
				"y": 3.033788969,
				"z": 3.363357858,
				"element": "H" 
			},
			{
				"x": -1.5245907532,
				"y": 3.7395061663,
				"z": 2.4767291225,
				"element": "H" 
			},
			{
				"x": -0.3763932924,
				"y": 4.9001212451,
				"z": 3.1497082482,
				"element": "H" 
			},
			{
				"x": -0.4374595711,
				"y": 3.2573388224,
				"z": 3.7939614762,
				"element": "H" 
			},
			{
				"x": 2.1113769944,
				"y": 2.0522648677,
				"z": 0.0589195463,
				"element": "H" 
			},
			{
				"x": 1.9392409039,
				"y": -0.2864877926,
				"z": -0.6738458563,
				"element": "H" 
			},
			{
				"x": -1.4109851309,
				"y": -0.8537639806,
				"z": 1.9551185205,
				"element": "H" 
			},
			{
				"x": -1.2707923808,
				"y": 1.4721447856,
				"z": 2.6524636299,
				"element": "H" 
			},
			{
				"x": -0.5254619042,
				"y": -6.0973756517,
				"z": -1.6413436242,
				"element": "H" 
			},
			{
				"x": -2.3782344648,
				"y": -1.4193415885,
				"z": -0.1454880172,
				"element": "H" 
			},
			{
				"x": -2.8391140735,
				"y": -2.9242529136,
				"z": -0.9375825399,
				"element": "H" 
			},
			{
				"x": -1.6204406255,
				"y": -3.8488270048,
				"z": 2.6015097232,
				"element": "H" 
			},
			{
				"x": -3.8764327152,
				"y": -4.1758970336,
				"z": 4.1304039722,
				"element": "H" 
			},
			{
				"x": -5.9039804305,
				"y": -3.1409876665,
				"z": 2.5815448634,
				"element": "H" 
			}
		],
		 "valence_orbital": [ 
			{
				"type": "occ",
				"energy": -0.26027,
				"method": "rhf"
			},
			{
				"type": "occ",
				"energy": -0.25565,
				"method": "rhf"
			},
			{
				"type": "occ",
				"energy": -0.25166,
				"method": "rhf"
			},
			{
				"type": "occ",
				"energy": -0.23529,
				"method": "rhf"
			},
			{
				"type": "occ",
				"energy": -0.21717,
				"method": "rhf"
			},
			{
				"type": "unocc",
				"energy": -0.02952,
				"method": "rhf"
			},
			{
				"type": "unocc",
				"energy": -0.00867,
				"method": "rhf"
			},
			{
				"type": "unocc",
				"energy": -0.0021,
				"method": "rhf"
			},
			{
				"type": "unocc",
				"energy": 0.01026,
				"method": "rhf"
			},
			{
				"type": "unocc",
				"energy": 0.02919,
				"method": "rhf"
			}
		],
		"cosmo_sigma_profile": { 
			"-0.025": 0.0,
			"-0.024": 0.0,
			"-0.023": 0.0,
			"-0.022": 0.0,
			"-0.021": 0.0,
			"-0.02": 0.0,
			"-0.019": 0.0,
			"-0.018": 0.0,
			"-0.017": 0.0,
			"-0.016": 0.0,
			"-0.015": 0.0,
			"-0.014": 0.0,
			"-0.013": 0.128870345737,
			"-0.012": 1.57930329842,
			"-0.011": 1.51351592797,
			"-0.01": 1.2209109016,
			"-0.009": 2.54069667622,
			"-0.008": 4.75208740239,
			"-0.007": 10.8861349417,
			"-0.006": 13.7634155609,
			"-0.005": 19.2909213972,
			"-0.004": 22.3054646813,
			"-0.003": 30.9867363236,
			"-0.002": 37.308935495,
			"-0.001": 30.7026247563,
			"0.0": 30.7500392394,
			"0.001": 37.6487057329,
			"0.002": 24.8171885153,
			"0.003": 20.3361411602,
			"0.004": 20.9629283158,
			"0.005": 16.4050992381,
			"0.006": 6.3742119131,
			"0.007": 4.04577732637,
			"0.008": 3.34704496031,
			"0.009": 1.54258822976,
			"0.01": 2.33756541249,
			"0.011": 2.28256310006,
			"0.012": 1.8343754265,
			"0.013": 3.94413869197,
			"0.014": 2.91605785437,
			"0.015": 2.43985035583,
			"0.016": 1.61597143736,
			"0.017": 0.203677456965,
			"0.018": 0.0,
			"0.019": 0.0,
			"0.02": 0.0,
			"0.021": 0.0,
			"0.022": 0.0,
			"0.023": 0.0,
			"0.024": 0.0,
			"0.025": 0.0
		}
	}
}
