{
	 "smiles": "COC1=CC=C(CC#N)C=C1", 
	 "Tm": 281.15, 
	 "num_atms": 20, 
	 "gaussian": { 
		 "optdone": 1, 
		 "sigma_profile": "yes", 
		 "theory": "DFT", 
		 "functional": "B3LYP", 
		 "basiset": "6-31G**", 
		 "properties": { 
			 "R2extent": 2415.8519, 
			 "electric_dipole_moment_norm": 4.87829110038, 
			 "electric_quadrupole_moment_norm": 19.2774599605, 
			 "total_energy": -478.327684911, 
			 "HOMO_LUMO_gap": 0.21379, 
			 "cosmo_polarized_energy": -12.16, 
			 "cosmo_cavitation_energy": 25.04, 
			 "cosmo_dispersion_energy": -17.71, 
			 "cosmo_repulsion_energy": 1.43, 
			 "cosmo_total_nonelectrostatic_energy": 8.76, 
			 "SMD_solvation_energy": 6.51 
		},
		"coords": [
			{
				"x": -2.5910991872,
				"y": 1.8206016035,
				"z": 0.4130022413,
				"element": "C" 
			},
			{
				"x": -2.2410941892,
				"y": 0.7503211369,
				"z": -0.4511253779,
				"element": "O" 
			},
			{
				"x": -0.9573393553,
				"y": 0.2939365011,
				"z": -0.4271134009,
				"element": "C" 
			},
			{
				"x": -0.6749439864,
				"y": -0.7736222587,
				"z": -1.2949593787,
				"element": "C" 
			},
			{
				"x": 0.6034239444,
				"y": -1.3094827532,
				"z": -1.34796103,
				"element": "C" 
			},
			{
				"x": 1.6331103098,
				"y": -0.7993426957,
				"z": -0.5420218665,
				"element": "C" 
			},
			{
				"x": 3.0344943616,
				"y": -1.3892936403,
				"z": -0.6058909938,
				"element": "C" 
			},
			{
				"x": 3.1318381267,
				"y": -2.7192432277,
				"z": 0.0130992816,
				"element": "C" 
			},
			{
				"x": 3.1999973421,
				"y": -3.7718676638,
				"z": 0.4975475572,
				"element": "N" 
			},
			{
				"x": 1.3415955024,
				"y": 0.2590294983,
				"z": 0.3170981884,
				"element": "C" 
			},
			{
				"x": 0.059011421,
				"y": 0.8122919436,
				"z": 0.3824198131,
				"element": "C" 
			},
			{
				"x": -3.6496436757,
				"y": 2.0163525479,
				"z": 0.2362780521,
				"element": "H" 
			},
			{
				"x": -2.4446032299,
				"y": 1.553632652,
				"z": 1.4674100718,
				"element": "H" 
			},
			{
				"x": -2.0144559685,
				"y": 2.7272277544,
				"z": 0.1886657936,
				"element": "H" 
			},
			{
				"x": -1.4756695025,
				"y": -1.162099455,
				"z": -1.9154162212,
				"element": "H" 
			},
			{
				"x": 0.8053223109,
				"y": -2.1384424486,
				"z": -2.0215094482,
				"element": "H" 
			},
			{
				"x": 3.749032195,
				"y": -0.728329949,
				"z": -0.1032252011,
				"element": "H" 
			},
			{
				"x": 3.3712672384,
				"y": -1.4798327053,
				"z": -1.6461881951,
				"element": "H" 
			},
			{
				"x": 2.122768264,
				"y": 0.668626842,
				"z": 0.9525966596,
				"element": "H" 
			},
			{
				"x": -0.1300119217,
				"y": 1.6357363175,
				"z": 1.0604934547,
				"element": "H" 
			}
		],
		 "valence_orbital": [ 
			{
				"type": "occ",
				"energy": -0.32734,
				"method": "rhf"
			},
			{
				"type": "occ",
				"energy": -0.31818,
				"method": "rhf"
			},
			{
				"type": "occ",
				"energy": -0.31792,
				"method": "rhf"
			},
			{
				"type": "occ",
				"energy": -0.26145,
				"method": "rhf"
			},
			{
				"type": "occ",
				"energy": -0.2276,
				"method": "rhf"
			},
			{
				"type": "unocc",
				"energy": -0.01381,
				"method": "rhf"
			},
			{
				"type": "unocc",
				"energy": -0.00423,
				"method": "rhf"
			},
			{
				"type": "unocc",
				"energy": 0.04127,
				"method": "rhf"
			},
			{
				"type": "unocc",
				"energy": 0.04702,
				"method": "rhf"
			},
			{
				"type": "unocc",
				"energy": 0.08847,
				"method": "rhf"
			}
		],
		"cosmo_sigma_profile": { 
			"-0.025": 0.0,
			"-0.024": 0.0,
			"-0.023": 0.0,
			"-0.022": 0.0,
			"-0.021": 0.0,
			"-0.02": 0.0,
			"-0.019": 0.0,
			"-0.018": 0.0,
			"-0.017": 0.0,
			"-0.016": 0.0,
			"-0.015": 0.0,
			"-0.014": 0.0,
			"-0.013": 0.0,
			"-0.012": 0.0,
			"-0.011": 0.0,
			"-0.01": 0.0,
			"-0.009": 1.38283845953,
			"-0.008": 7.14803054091,
			"-0.007": 8.31176235609,
			"-0.006": 15.2967890002,
			"-0.005": 21.4231176291,
			"-0.004": 16.583510362,
			"-0.003": 15.419129688,
			"-0.002": 11.6444128757,
			"-0.001": 7.65803235197,
			"0.0": 7.66375323623,
			"0.001": 8.50100711628,
			"0.002": 9.61543463448,
			"0.003": 12.3901193189,
			"0.004": 13.9687947118,
			"0.005": 11.4234069413,
			"0.006": 5.21694763049,
			"0.007": 3.84289141067,
			"0.008": 4.74170785773,
			"0.009": 4.87273139158,
			"0.01": 4.94309603748,
			"0.011": 3.02928242512,
			"0.012": 2.71865466695,
			"0.013": 2.17950250978,
			"0.014": 0.412390195757,
			"0.015": 0.0,
			"0.016": 0.0,
			"0.017": 0.0,
			"0.018": 0.0,
			"0.019": 0.0,
			"0.02": 0.0,
			"0.021": 0.0,
			"0.022": 0.0,
			"0.023": 0.0,
			"0.024": 0.0,
			"0.025": 0.0
		}
	}
}
