{
	 "smiles": "FC1=C(C=CC=C1Cl)C#N", 
	 "Tm": 315.15, 
	 "num_atms": 13, 
	 "gaussian": { 
		 "optdone": 1, 
		 "sigma_profile": "yes", 
		 "theory": "DFT", 
		 "functional": "B3LYP", 
		 "basiset": "6-31G**", 
		 "properties": { 
			 "R2extent": 2012.5664, 
			 "electric_dipole_moment_norm": 4.74150256143, 
			 "electric_quadrupole_moment_norm": 13.4512055471, 
			 "total_energy": -883.305739418, 
			 "HOMO_LUMO_gap": 0.20332, 
			 "cosmo_polarized_energy": -8.54, 
			 "cosmo_cavitation_energy": 21.12, 
			 "cosmo_dispersion_energy": -15.09, 
			 "cosmo_repulsion_energy": 1.21, 
			 "cosmo_total_nonelectrostatic_energy": 7.24, 
			 "SMD_solvation_energy": 5.26 
		},
		"coords": [
			{
				"x": 1.9963827023,
				"y": 0.4630380791,
				"z": -0.0720759731,
				"element": "F" 
			},
			{
				"x": 0.9099946666,
				"y": 0.3638494311,
				"z": 0.695471965,
				"element": "C" 
			},
			{
				"x": 0.7184554888,
				"y": -0.794545012,
				"z": 1.462077213,
				"element": "C" 
			},
			{
				"x": -0.4257627666,
				"y": -0.8999090258,
				"z": 2.2710047915,
				"element": "C" 
			},
			{
				"x": -1.351400136,
				"y": 0.1381505901,
				"z": 2.3038876593,
				"element": "C" 
			},
			{
				"x": -1.1521332197,
				"y": 1.2879265297,
				"z": 1.5369745094,
				"element": "C" 
			},
			{
				"x": -0.0196449944,
				"y": 1.4032234937,
				"z": 0.7302287529,
				"element": "C" 
			},
			{
				"x": 0.2517990095,
				"y": 2.8264878166,
				"z": -0.2353891572,
				"element": "Cl" 
			},
			{
				"x": 1.6868343474,
				"y": -1.8470063721,
				"z": 1.4091727572,
				"element": "C" 
			},
			{
				"x": 2.4602657676,
				"y": -2.7145529452,
				"z": 1.381842355,
				"element": "N" 
			},
			{
				"x": -0.5706138989,
				"y": -1.796919793,
				"z": 2.8623635199,
				"element": "H" 
			},
			{
				"x": -2.2346699402,
				"y": 0.0570693643,
				"z": 2.9282159306,
				"element": "H" 
			},
			{
				"x": -1.8686070265,
				"y": 2.1016878435,
				"z": 1.5567256763,
				"element": "H" 
			}
		],
		 "valence_orbital": [ 
			{
				"type": "occ",
				"energy": -0.34594,
				"method": "rhf"
			},
			{
				"type": "occ",
				"energy": -0.34417,
				"method": "rhf"
			},
			{
				"type": "occ",
				"energy": -0.33586,
				"method": "rhf"
			},
			{
				"type": "occ",
				"energy": -0.28063,
				"method": "rhf"
			},
			{
				"type": "occ",
				"energy": -0.27342,
				"method": "rhf"
			},
			{
				"type": "unocc",
				"energy": -0.0701,
				"method": "rhf"
			},
			{
				"type": "unocc",
				"energy": -0.03777,
				"method": "rhf"
			},
			{
				"type": "unocc",
				"energy": -0.00176,
				"method": "rhf"
			},
			{
				"type": "unocc",
				"energy": 0.02853,
				"method": "rhf"
			},
			{
				"type": "unocc",
				"energy": 0.05919,
				"method": "rhf"
			}
		],
		"cosmo_sigma_profile": { 
			"-0.025": 0.0,
			"-0.024": 0.0,
			"-0.023": 0.0,
			"-0.022": 0.0,
			"-0.021": 0.0,
			"-0.02": 0.0,
			"-0.019": 0.0,
			"-0.018": 0.0,
			"-0.017": 0.0,
			"-0.016": 0.0,
			"-0.015": 0.0,
			"-0.014": 0.0,
			"-0.013": 0.0,
			"-0.012": 0.0,
			"-0.011": 0.0,
			"-0.01": 0.0200862144067,
			"-0.009": 3.21477080471,
			"-0.008": 7.18251299164,
			"-0.007": 7.61252498002,
			"-0.006": 5.69063482456,
			"-0.005": 5.48181040211,
			"-0.004": 8.33236690294,
			"-0.003": 13.1301462527,
			"-0.002": 15.5244467759,
			"-0.001": 15.8169175201,
			"0.0": 14.5513439012,
			"0.001": 14.9089905857,
			"0.002": 16.6116077395,
			"0.003": 15.3603669801,
			"0.004": 8.15003577231,
			"0.005": 3.17267261306,
			"0.006": 2.16275357286,
			"0.007": 3.13095626174,
			"0.008": 3.27662297877,
			"0.009": 3.40014953297,
			"0.01": 2.72677825269,
			"0.011": 2.57274514716,
			"0.012": 2.00239855841,
			"0.013": 0.383211058561,
			"0.014": 0.0,
			"0.015": 0.0,
			"0.016": 0.0,
			"0.017": 0.0,
			"0.018": 0.0,
			"0.019": 0.0,
			"0.02": 0.0,
			"0.021": 0.0,
			"0.022": 0.0,
			"0.023": 0.0,
			"0.024": 0.0,
			"0.025": 0.0
		}
	}
}
