{
	 "smiles": "CCN1CCCC1CNC(=O)C1=CC(=CC=C1OC)S(N)(=O)=O", 
	 "Tm": 451.15, 
	 "num_atms": 46, 
	 "gaussian": { 
		 "optdone": 1, 
		 "sigma_profile": "yes", 
		 "theory": "DFT", 
		 "functional": "B3LYP", 
		 "basiset": "6-31G**", 
		 "properties": { 
			 "R2extent": 8264.3751, 
			 "electric_dipole_moment_norm": 8.74753231775, 
			 "electric_quadrupole_moment_norm": 34.8240731693, 
			 "total_energy": -1448.71483231, 
			 "HOMO_LUMO_gap": 0.17345, 
			 "cosmo_polarized_energy": -27.72, 
			 "cosmo_cavitation_energy": 47.94, 
			 "cosmo_dispersion_energy": -31.02, 
			 "cosmo_repulsion_energy": 2.32, 
			 "cosmo_total_nonelectrostatic_energy": 19.24, 
			 "SMD_solvation_energy": 7.59 
		},
		"coords": [
			{
				"x": 0.7394959284,
				"y": -1.2023677195,
				"z": 2.6188876216,
				"element": "C" 
			},
			{
				"x": 0.6428900885,
				"y": -2.4092029899,
				"z": 1.6842548965,
				"element": "C" 
			},
			{
				"x": 0.837519156,
				"y": -2.0581030743,
				"z": 0.2720751569,
				"element": "N" 
			},
			{
				"x": 0.4360152939,
				"y": -3.1249074885,
				"z": -0.6699937114,
				"element": "C" 
			},
			{
				"x": 1.7289549025,
				"y": -3.8740974704,
				"z": -1.0250140336,
				"element": "C" 
			},
			{
				"x": 2.7361251987,
				"y": -2.7182566736,
				"z": -1.1160590364,
				"element": "C" 
			},
			{
				"x": 2.23268484,
				"y": -1.682794834,
				"z": -0.067068429,
				"element": "C" 
			},
			{
				"x": 2.321135553,
				"y": -0.2164321069,
				"z": -0.5476313986,
				"element": "C" 
			},
			{
				"x": 1.4676980849,
				"y": 0.0709967768,
				"z": -1.6951504645,
				"element": "N" 
			},
			{
				"x": 0.1157799707,
				"y": 0.3234855374,
				"z": -1.6519402212,
				"element": "C" 
			},
			{
				"x": -0.6216954174,
				"y": -0.0296675165,
				"z": -2.5684287947,
				"element": "O" 
			},
			{
				"x": -0.4547035187,
				"y": 1.1059466538,
				"z": -0.4943445464,
				"element": "C" 
			},
			{
				"x": -1.7106345033,
				"y": 0.6923805069,
				"z": -0.0327409231,
				"element": "C" 
			},
			{
				"x": -2.3359562279,
				"y": 1.3655589923,
				"z": 1.0130703994,
				"element": "C" 
			},
			{
				"x": -1.7512359682,
				"y": 2.4952944943,
				"z": 1.5945364577,
				"element": "C" 
			},
			{
				"x": -0.5264895901,
				"y": 2.9405101908,
				"z": 1.1108360461,
				"element": "C" 
			},
			{
				"x": 0.1241625688,
				"y": 2.2569748394,
				"z": 0.075466509,
				"element": "C" 
			},
			{
				"x": 1.3490746308,
				"y": 2.7368078734,
				"z": -0.3209347776,
				"element": "O" 
			},
			{
				"x": 1.3711025072,
				"y": 3.4164629126,
				"z": -1.5820981416,
				"element": "C" 
			},
			{
				"x": -3.9045489148,
				"y": 0.7594447695,
				"z": 1.6491376922,
				"element": "S" 
			},
			{
				"x": -3.5339404851,
				"y": -0.4160663608,
				"z": 2.797846984,
				"element": "N" 
			},
			{
				"x": -4.5807307729,
				"y": 0.0484474299,
				"z": 0.5670445602,
				"element": "O" 
			},
			{
				"x": -4.5220539372,
				"y": 1.854766426,
				"z": 2.3955076962,
				"element": "O" 
			},
			{
				"x": 1.73445936,
				"y": -0.746081279,
				"z": 2.5978326687,
				"element": "H" 
			},
			{
				"x": 0.0132995788,
				"y": -0.4349670084,
				"z": 2.3354664081,
				"element": "H" 
			},
			{
				"x": 0.5465348289,
				"y": -1.5089823529,
				"z": 3.6527282463,
				"element": "H" 
			},
			{
				"x": -0.3594807754,
				"y": -2.8430169202,
				"z": 1.7756752277,
				"element": "H" 
			},
			{
				"x": 1.351224615,
				"y": -3.1887476047,
				"z": 2.0259742627,
				"element": "H" 
			},
			{
				"x": -0.3340772394,
				"y": -3.7610090904,
				"z": -0.2246992899,
				"element": "H" 
			},
			{
				"x": 0.003956527,
				"y": -2.6682785155,
				"z": -1.5703909069,
				"element": "H" 
			},
			{
				"x": 1.6548079149,
				"y": -4.454851211,
				"z": -1.9494344779,
				"element": "H" 
			},
			{
				"x": 2.0038104056,
				"y": -4.5634089805,
				"z": -0.2178871984,
				"element": "H" 
			},
			{
				"x": 3.7683825942,
				"y": -3.0224886924,
				"z": -0.9211968962,
				"element": "H" 
			},
			{
				"x": 2.716525192,
				"y": -2.2927516673,
				"z": -2.1270234895,
				"element": "H" 
			},
			{
				"x": 2.8584882584,
				"y": -1.7560755323,
				"z": 0.8336349031,
				"element": "H" 
			},
			{
				"x": 3.3572771975,
				"y": 0.0195397279,
				"z": -0.8201065123,
				"element": "H" 
			},
			{
				"x": 2.0474615928,
				"y": 0.4568012466,
				"z": 0.2632668655,
				"element": "H" 
			},
			{
				"x": 1.6883373574,
				"y": -0.4430874611,
				"z": -2.5410400332,
				"element": "H" 
			},
			{
				"x": -2.1901961871,
				"y": -0.1531620987,
				"z": -0.5131716845,
				"element": "H" 
			},
			{
				"x": -2.2691753145,
				"y": 3.0255208316,
				"z": 2.3864118047,
				"element": "H" 
			},
			{
				"x": -0.0503616829,
				"y": 3.8266382328,
				"z": 1.5175881452,
				"element": "H" 
			},
			{
				"x": 1.0722702027,
				"y": 2.7569240035,
				"z": -2.4027522624,
				"element": "H" 
			},
			{
				"x": 2.4027625556,
				"y": 3.7373577598,
				"z": -1.7356526743,
				"element": "H" 
			},
			{
				"x": 0.7145184043,
				"y": 4.2947069046,
				"z": -1.5595454504,
				"element": "H" 
			},
			{
				"x": -3.0766417134,
				"y": -1.2263192689,
				"z": 2.3915713862,
				"element": "H" 
			},
			{
				"x": -3.0334330603,
				"y": -0.038742192,
				"z": 3.5964914158,
				"element": "H" 
			}
		],
		 "valence_orbital": [ 
			{
				"type": "occ",
				"energy": -0.27922,
				"method": "rhf"
			},
			{
				"type": "occ",
				"energy": -0.26487,
				"method": "rhf"
			},
			{
				"type": "occ",
				"energy": -0.25686,
				"method": "rhf"
			},
			{
				"type": "occ",
				"energy": -0.24661,
				"method": "rhf"
			},
			{
				"type": "occ",
				"energy": -0.22001,
				"method": "rhf"
			},
			{
				"type": "unocc",
				"energy": -0.04656,
				"method": "rhf"
			},
			{
				"type": "unocc",
				"energy": -0.03287,
				"method": "rhf"
			},
			{
				"type": "unocc",
				"energy": 0.02804,
				"method": "rhf"
			},
			{
				"type": "unocc",
				"energy": 0.04144,
				"method": "rhf"
			},
			{
				"type": "unocc",
				"energy": 0.06334,
				"method": "rhf"
			}
		],
		"cosmo_sigma_profile": { 
			"-0.025": 0.0,
			"-0.024": 0.0,
			"-0.023": 0.0,
			"-0.022": 0.0,
			"-0.021": 0.0,
			"-0.02": 0.0,
			"-0.019": 0.0,
			"-0.018": 0.0,
			"-0.017": 0.0,
			"-0.016": 0.0,
			"-0.015": 1.1855609928,
			"-0.014": 1.3442880588,
			"-0.013": 1.80069164262,
			"-0.012": 3.55490086336,
			"-0.011": 4.48827620117,
			"-0.01": 3.80978776125,
			"-0.009": 3.18031459654,
			"-0.008": 4.23239564079,
			"-0.007": 7.90974119365,
			"-0.006": 8.99489358022,
			"-0.005": 15.5113890565,
			"-0.004": 28.335691256,
			"-0.003": 41.6129126428,
			"-0.002": 40.3151251264,
			"-0.001": 38.7330638793,
			"0.0": 33.8064887384,
			"0.001": 29.7100921661,
			"0.002": 15.35784992,
			"0.003": 8.46972810239,
			"0.004": 9.06386547005,
			"0.005": 9.48007851987,
			"0.006": 7.39627219921,
			"0.007": 7.37958077255,
			"0.008": 7.28209241578,
			"0.009": 6.01101045427,
			"0.01": 10.1411358831,
			"0.011": 12.1309735669,
			"0.012": 6.75388961816,
			"0.013": 4.12797519765,
			"0.014": 3.29624031716,
			"0.015": 0.118203257252,
			"0.016": 0.0,
			"0.017": 0.0,
			"0.018": 0.0,
			"0.019": 0.0,
			"0.02": 0.0,
			"0.021": 0.0,
			"0.022": 0.0,
			"0.023": 0.0,
			"0.024": 0.0,
			"0.025": 0.0
		}
	}
}
