{
	 "smiles": "BrCC(=O)CS(=O)(=O)C1=CC=CC=C1", 
	 "Tm": 370.15, 
	 "num_atms": 23, 
	 "gaussian": { 
		 "optdone": 1, 
		 "sigma_profile": "yes", 
		 "theory": "DFT", 
		 "functional": "B3LYP", 
		 "basiset": "6-31G**", 
		 "properties": { 
			 "R2extent": 5332.1336, 
			 "electric_dipole_moment_norm": 6.50449586133, 
			 "electric_quadrupole_moment_norm": 20.6816312732, 
			 "total_energy": -3543.56143178, 
			 "HOMO_LUMO_gap": 0.19971, 
			 "cosmo_polarized_energy": -21.01, 
			 "cosmo_cavitation_energy": 31.51, 
			 "cosmo_dispersion_energy": -22.5, 
			 "cosmo_repulsion_energy": 1.74, 
			 "cosmo_total_nonelectrostatic_energy": 10.74, 
			 "SMD_solvation_energy": 4.24 
		},
		"coords": [
			{
				"x": -1.8257061168,
				"y": -3.3663953508,
				"z": 0.6594499078,
				"element": "Br" 
			},
			{
				"x": -0.6333810679,
				"y": -4.107752969,
				"z": -0.7239113494,
				"element": "C" 
			},
			{
				"x": 0.6845777166,
				"y": -3.3525331572,
				"z": -0.8526760189,
				"element": "C" 
			},
			{
				"x": 1.7279451545,
				"y": -3.965739967,
				"z": -0.8715207878,
				"element": "O" 
			},
			{
				"x": 0.6307066389,
				"y": -1.8392928772,
				"z": -1.0446792633,
				"element": "C" 
			},
			{
				"x": 1.6729794593,
				"y": -0.9664044531,
				"z": 0.2049480518,
				"element": "S" 
			},
			{
				"x": 1.3357029393,
				"y": -1.532347478,
				"z": 1.5176509887,
				"element": "O" 
			},
			{
				"x": 3.0534880065,
				"y": -0.9307039628,
				"z": -0.2917285384,
				"element": "O" 
			},
			{
				"x": 1.0120838963,
				"y": 0.7069274731,
				"z": 0.1302859947,
				"element": "C" 
			},
			{
				"x": 1.6278806277,
				"y": 1.6437151708,
				"z": -0.7014617547,
				"element": "C" 
			},
			{
				"x": 1.1114710629,
				"y": 2.939215,
				"z": -0.752961964,
				"element": "C" 
			},
			{
				"x": -0.0007104788,
				"y": 3.2808173626,
				"z": 0.0201835849,
				"element": "C" 
			},
			{
				"x": -0.6000850338,
				"y": 2.3340823377,
				"z": 0.8556481636,
				"element": "C" 
			},
			{
				"x": -0.0935294631,
				"y": 1.036046447,
				"z": 0.9182128108,
				"element": "C" 
			},
			{
				"x": -0.4253289279,
				"y": -5.1419706615,
				"z": -0.4587876012,
				"element": "H" 
			},
			{
				"x": -1.1973459303,
				"y": -4.0574830756,
				"z": -1.6584860479,
				"element": "H" 
			},
			{
				"x": 1.0495233112,
				"y": -1.5823540716,
				"z": -2.0211268749,
				"element": "H" 
			},
			{
				"x": -0.3823689298,
				"y": -1.4467162916,
				"z": -0.9487112851,
				"element": "H" 
			},
			{
				"x": 2.5035561716,
				"y": 1.3606015915,
				"z": -1.2757350147,
				"element": "H" 
			},
			{
				"x": 1.5815131449,
				"y": 3.6819679949,
				"z": -1.3903074224,
				"element": "H" 
			},
			{
				"x": -0.397671792,
				"y": 4.2908400645,
				"z": -0.0221994988,
				"element": "H" 
			},
			{
				"x": -1.4559608304,
				"y": 2.6086672861,
				"z": 1.4646595867,
				"element": "H" 
			},
			{
				"x": -0.5292395588,
				"y": 0.2912135871,
				"z": 1.5758543324,
				"element": "H" 
			}
		],
		 "valence_orbital": [ 
			{
				"type": "occ",
				"energy": -0.29569,
				"method": "rhf"
			},
			{
				"type": "occ",
				"energy": -0.29168,
				"method": "rhf"
			},
			{
				"type": "occ",
				"energy": -0.28119,
				"method": "rhf"
			},
			{
				"type": "occ",
				"energy": -0.27744,
				"method": "rhf"
			},
			{
				"type": "occ",
				"energy": -0.26935,
				"method": "rhf"
			},
			{
				"type": "unocc",
				"energy": -0.06964,
				"method": "rhf"
			},
			{
				"type": "unocc",
				"energy": -0.04451,
				"method": "rhf"
			},
			{
				"type": "unocc",
				"energy": -0.02816,
				"method": "rhf"
			},
			{
				"type": "unocc",
				"energy": -0.00346,
				"method": "rhf"
			},
			{
				"type": "unocc",
				"energy": 0.05579,
				"method": "rhf"
			}
		],
		"cosmo_sigma_profile": { 
			"-0.025": 0.0,
			"-0.024": 0.0,
			"-0.023": 0.0,
			"-0.022": 0.0,
			"-0.021": 0.0,
			"-0.02": 0.0,
			"-0.019": 0.0,
			"-0.018": 0.0,
			"-0.017": 0.0,
			"-0.016": 0.0,
			"-0.015": 0.0,
			"-0.014": 0.0,
			"-0.013": 0.0,
			"-0.012": 0.189019885359,
			"-0.011": 2.70911824983,
			"-0.01": 6.18728468358,
			"-0.009": 6.07148936699,
			"-0.008": 7.60525905419,
			"-0.007": 14.3279566353,
			"-0.006": 20.1091744349,
			"-0.005": 15.8620235764,
			"-0.004": 12.3343707383,
			"-0.003": 12.1943567428,
			"-0.002": 12.3302404792,
			"-0.001": 12.0088594726,
			"0.0": 12.3893826793,
			"0.001": 15.9433041415,
			"0.002": 18.2066458077,
			"0.003": 18.0698383976,
			"0.004": 10.7585891821,
			"0.005": 9.56496970077,
			"0.006": 5.11042321619,
			"0.007": 5.53462825431,
			"0.008": 6.5529703355,
			"0.009": 8.29989154678,
			"0.01": 11.2849023169,
			"0.011": 9.07755016471,
			"0.012": 2.41285297927,
			"0.013": 0.0,
			"0.014": 0.0,
			"0.015": 0.0,
			"0.016": 0.0,
			"0.017": 0.0,
			"0.018": 0.0,
			"0.019": 0.0,
			"0.02": 0.0,
			"0.021": 0.0,
			"0.022": 0.0,
			"0.023": 0.0,
			"0.024": 0.0,
			"0.025": 0.0
		}
	}
}
