{
	 "smiles": "CN(C)CCOC1=CC=C(N)C=C1", 
	 "Tm": 329.15, 
	 "num_atms": 29, 
	 "gaussian": { 
		 "optdone": 1, 
		 "sigma_profile": "yes", 
		 "theory": "DFT", 
		 "functional": "B3LYP", 
		 "basiset": "6-31G**", 
		 "properties": { 
			 "R2extent": 4375.6032, 
			 "electric_dipole_moment_norm": 2.362490764, 
			 "electric_quadrupole_moment_norm": 14.3096991887, 
			 "total_energy": -575.410027922, 
			 "HOMO_LUMO_gap": 0.18561, 
			 "cosmo_polarized_energy": -11.23, 
			 "cosmo_cavitation_energy": 31.33, 
			 "cosmo_dispersion_energy": -22.62, 
			 "cosmo_repulsion_energy": 1.81, 
			 "cosmo_total_nonelectrostatic_energy": 10.51, 
			 "SMD_solvation_energy": 3.2 
		},
		"coords": [
			{
				"x": 2.3976441959,
				"y": 2.1007529748,
				"z": -1.5740166053,
				"element": "C" 
			},
			{
				"x": 1.0223096158,
				"y": 1.7922246376,
				"z": -1.202078523,
				"element": "N" 
			},
			{
				"x": 0.1836110628,
				"y": 1.6624553278,
				"z": -2.3879860358,
				"element": "C" 
			},
			{
				"x": 0.9448305398,
				"y": 0.6233102631,
				"z": -0.3270381839,
				"element": "C" 
			},
			{
				"x": -0.3540856703,
				"y": 0.6040296203,
				"z": 0.4895353138,
				"element": "C" 
			},
			{
				"x": -0.3544395922,
				"y": -0.4486259642,
				"z": 1.4484057621,
				"element": "O" 
			},
			{
				"x": -0.7696558654,
				"y": -1.7067650987,
				"z": 1.0825625824,
				"element": "C" 
			},
			{
				"x": -1.1431378352,
				"y": -2.0998859486,
				"z": -0.2059867259,
				"element": "C" 
			},
			{
				"x": -1.5584880487,
				"y": -3.4125541608,
				"z": -0.4475671127,
				"element": "C" 
			},
			{
				"x": -1.6090506763,
				"y": -4.362397419,
				"z": 0.5795459532,
				"element": "C" 
			},
			{
				"x": -2.0854927508,
				"y": -5.6645335664,
				"z": 0.3457865884,
				"element": "N" 
			},
			{
				"x": -1.2271833203,
				"y": -3.9556360889,
				"z": 1.8700443623,
				"element": "C" 
			},
			{
				"x": -0.8157549808,
				"y": -2.6518583577,
				"z": 2.1161988112,
				"element": "C" 
			},
			{
				"x": 2.8829734217,
				"y": 1.3018717069,
				"z": -2.1678065759,
				"element": "H" 
			},
			{
				"x": 2.4195934001,
				"y": 3.0194606881,
				"z": -2.1695053537,
				"element": "H" 
			},
			{
				"x": 2.9987250896,
				"y": 2.2670822694,
				"z": -0.6747969286,
				"element": "H" 
			},
			{
				"x": 0.4911482121,
				"y": 0.8266166932,
				"z": -3.0471154549,
				"element": "H" 
			},
			{
				"x": -0.8614908709,
				"y": 1.5041349124,
				"z": -2.107973228,
				"element": "H" 
			},
			{
				"x": 0.2293301897,
				"y": 2.5865798577,
				"z": -2.9729608561,
				"element": "H" 
			},
			{
				"x": 1.7697804279,
				"y": 0.6724594874,
				"z": 0.3912383998,
				"element": "H" 
			},
			{
				"x": 1.065440923,
				"y": -0.3265707274,
				"z": -0.881315416,
				"element": "H" 
			},
			{
				"x": -1.246525709,
				"y": 0.5446469288,
				"z": -0.1451629985,
				"element": "H" 
			},
			{
				"x": -0.4193157885,
				"y": 1.531215047,
				"z": 1.065163192,
				"element": "H" 
			},
			{
				"x": -1.1083190409,
				"y": -1.4048550316,
				"z": -1.0367863149,
				"element": "H" 
			},
			{
				"x": -1.8476295797,
				"y": -3.6979278013,
				"z": -1.4563826876,
				"element": "H" 
			},
			{
				"x": -1.9731410643,
				"y": -5.9771690035,
				"z": -0.6100052346,
				"element": "H" 
			},
			{
				"x": -1.7217276129,
				"y": -6.3556623748,
				"z": 0.9891993649,
				"element": "H" 
			},
			{
				"x": -1.261637069,
				"y": -4.6696213921,
				"z": 2.6896051634,
				"element": "H" 
			},
			{
				"x": -0.5243116035,
				"y": -2.3406774791,
				"z": 3.1142987422,
				"element": "H" 
			}
		],
		 "valence_orbital": [ 
			{
				"type": "occ",
				"energy": -0.3103,
				"method": "rhf"
			},
			{
				"type": "occ",
				"energy": -0.26927,
				"method": "rhf"
			},
			{
				"type": "occ",
				"energy": -0.24184,
				"method": "rhf"
			},
			{
				"type": "occ",
				"energy": -0.21487,
				"method": "rhf"
			},
			{
				"type": "occ",
				"energy": -0.18001,
				"method": "rhf"
			},
			{
				"type": "unocc",
				"energy": 0.0056,
				"method": "rhf"
			},
			{
				"type": "unocc",
				"energy": 0.03503,
				"method": "rhf"
			},
			{
				"type": "unocc",
				"energy": 0.07252,
				"method": "rhf"
			},
			{
				"type": "unocc",
				"energy": 0.08624,
				"method": "rhf"
			},
			{
				"type": "unocc",
				"energy": 0.10816,
				"method": "rhf"
			}
		],
		"cosmo_sigma_profile": { 
			"-0.025": 0.0,
			"-0.024": 0.0,
			"-0.023": 0.0,
			"-0.022": 0.0,
			"-0.021": 0.0,
			"-0.02": 0.0,
			"-0.019": 0.0,
			"-0.018": 0.0,
			"-0.017": 0.0,
			"-0.016": 0.0,
			"-0.015": 0.0,
			"-0.014": 0.0,
			"-0.013": 0.0,
			"-0.012": 1.20109438929,
			"-0.011": 2.84396919993,
			"-0.01": 2.98618098241,
			"-0.009": 2.58663615954,
			"-0.008": 2.83805552345,
			"-0.007": 3.36197871749,
			"-0.006": 6.91915667314,
			"-0.005": 12.232277168,
			"-0.004": 21.3865592901,
			"-0.003": 21.4392984345,
			"-0.002": 24.2133301213,
			"-0.001": 29.5319883092,
			"0.0": 25.1785783135,
			"0.001": 10.6784212533,
			"0.002": 9.82182681054,
			"0.003": 8.63095465275,
			"0.004": 8.56733958623,
			"0.005": 11.7924346769,
			"0.006": 11.9940240783,
			"0.007": 11.1825379068,
			"0.008": 2.63456573159,
			"0.009": 2.59373022326,
			"0.01": 2.80316047665,
			"0.011": 2.42521702777,
			"0.012": 1.40105697051,
			"0.013": 1.12339724806,
			"0.014": 0.780727752562,
			"0.015": 1.40072531043,
			"0.016": 0.572293979511,
			"0.017": 0.0,
			"0.018": 0.0,
			"0.019": 0.0,
			"0.02": 0.0,
			"0.021": 0.0,
			"0.022": 0.0,
			"0.023": 0.0,
			"0.024": 0.0,
			"0.025": 0.0
		}
	}
}
