{
	 "smiles": "CCC(C)[C@H](NC(=O)OC(C)(C)C)C(O)=O", 
	 "Tm": 342.15, 
	 "num_atms": 37, 
	 "gaussian": { 
		 "optdone": 1, 
		 "sigma_profile": "yes", 
		 "theory": "DFT", 
		 "functional": "B3LYP", 
		 "basiset": "6-31G**", 
		 "properties": { 
			 "R2extent": 4829.3665, 
			 "electric_dipole_moment_norm": 3.23089193413, 
			 "electric_quadrupole_moment_norm": 10.8268509337, 
			 "total_energy": -787.535427395, 
			 "HOMO_LUMO_gap": 0.25557, 
			 "cosmo_polarized_energy": -15.25, 
			 "cosmo_cavitation_energy": 37.85, 
			 "cosmo_dispersion_energy": -25.53, 
			 "cosmo_repulsion_energy": 2.04, 
			 "cosmo_total_nonelectrostatic_energy": 14.35, 
			 "SMD_solvation_energy": 8.3 
		},
		"coords": [
			{
				"x": 2.9181722226,
				"y": 3.5645444371,
				"z": -0.2394044786,
				"element": "C" 
			},
			{
				"x": 2.6562968555,
				"y": 2.4244832385,
				"z": -1.2339807283,
				"element": "C" 
			},
			{
				"x": 1.8106231739,
				"y": 1.2364470743,
				"z": -0.7099305472,
				"element": "C" 
			},
			{
				"x": 2.4650227459,
				"y": 0.5779149937,
				"z": 0.5140574927,
				"element": "C" 
			},
			{
				"x": 0.3418266311,
				"y": 1.6501321499,
				"z": -0.4149799536,
				"element": "C" 
			},
			{
				"x": -0.390008448,
				"y": 0.7158012098,
				"z": 0.4320526138,
				"element": "N" 
			},
			{
				"x": -0.8455031925,
				"y": -0.4758740102,
				"z": -0.0621181961,
				"element": "C" 
			},
			{
				"x": -0.5588090777,
				"y": -0.8993837709,
				"z": -1.1720142604,
				"element": "O" 
			},
			{
				"x": -1.6247667655,
				"y": -1.0831600107,
				"z": 0.8614326077,
				"element": "O" 
			},
			{
				"x": -2.2324708622,
				"y": -2.3968267125,
				"z": 0.5913693653,
				"element": "C" 
			},
			{
				"x": -3.0020924232,
				"y": -2.6783001041,
				"z": 1.8843339487,
				"element": "C" 
			},
			{
				"x": -1.1368785055,
				"y": -3.4449669558,
				"z": 0.3699809212,
				"element": "C" 
			},
			{
				"x": -3.1892709948,
				"y": -2.2953042892,
				"z": -0.6013316467,
				"element": "C" 
			},
			{
				"x": -0.444599037,
				"y": 1.9501593076,
				"z": -1.7042538564,
				"element": "C" 
			},
			{
				"x": -1.7675955094,
				"y": 2.1001997088,
				"z": -1.4527663021,
				"element": "O" 
			},
			{
				"x": 0.0239391419,
				"y": 2.1017040945,
				"z": -2.8089051185,
				"element": "O" 
			},
			{
				"x": 3.5305724764,
				"y": 4.3413605568,
				"z": -0.7086739523,
				"element": "H" 
			},
			{
				"x": 3.4527249761,
				"y": 3.222218922,
				"z": 0.6525523425,
				"element": "H" 
			},
			{
				"x": 1.9945982612,
				"y": 4.0514594978,
				"z": 0.0958301183,
				"element": "H" 
			},
			{
				"x": 3.6226095709,
				"y": 2.014092935,
				"z": -1.5539604187,
				"element": "H" 
			},
			{
				"x": 2.1832816289,
				"y": 2.8229933491,
				"z": -2.1347757192,
				"element": "H" 
			},
			{
				"x": 1.7689127925,
				"y": 0.4938596336,
				"z": -1.5129286318,
				"element": "H" 
			},
			{
				"x": 2.420722062,
				"y": 1.2173349051,
				"z": 1.4030062697,
				"element": "H" 
			},
			{
				"x": 1.984414992,
				"y": -0.3695488971,
				"z": 0.766249969,
				"element": "H" 
			},
			{
				"x": 3.5207606321,
				"y": 0.3741577789,
				"z": 0.3054545702,
				"element": "H" 
			},
			{
				"x": 0.3516174928,
				"y": 2.5934780558,
				"z": 0.144823181,
				"element": "H" 
			},
			{
				"x": -0.8187395062,
				"y": 1.0497832394,
				"z": 1.2808993667,
				"element": "H" 
			},
			{
				"x": -3.510770703,
				"y": -3.6444196387,
				"z": 1.8156492813,
				"element": "H" 
			},
			{
				"x": -3.7530367865,
				"y": -1.903281132,
				"z": 2.0635551346,
				"element": "H" 
			},
			{
				"x": -2.3221554275,
				"y": -2.7047065924,
				"z": 2.7408523302,
				"element": "H" 
			},
			{
				"x": -0.5722774761,
				"y": -3.2339953268,
				"z": -0.5385416523,
				"element": "H" 
			},
			{
				"x": -1.5904897477,
				"y": -4.4375601704,
				"z": 0.2820895854,
				"element": "H" 
			},
			{
				"x": -0.4487083021,
				"y": -3.4606896927,
				"z": 1.2211730041,
				"element": "H" 
			},
			{
				"x": -2.645687384,
				"y": -2.0742043925,
				"z": -1.5201441858,
				"element": "H" 
			},
			{
				"x": -3.7235859967,
				"y": -3.2428880106,
				"z": -0.7252058858,
				"element": "H" 
			},
			{
				"x": -3.9294431188,
				"y": -1.5077370139,
				"z": -0.427845776,
				"element": "H" 
			},
			{
				"x": -2.1776063919,
				"y": 2.2876216329,
				"z": -2.3137007926,
				"element": "H" 
			}
		],
		 "valence_orbital": [ 
			{
				"type": "occ",
				"energy": -0.31159,
				"method": "rhf"
			},
			{
				"type": "occ",
				"energy": -0.28997,
				"method": "rhf"
			},
			{
				"type": "occ",
				"energy": -0.2833,
				"method": "rhf"
			},
			{
				"type": "occ",
				"energy": -0.26554,
				"method": "rhf"
			},
			{
				"type": "occ",
				"energy": -0.2486,
				"method": "rhf"
			},
			{
				"type": "unocc",
				"energy": 0.00697,
				"method": "rhf"
			},
			{
				"type": "unocc",
				"energy": 0.05093,
				"method": "rhf"
			},
			{
				"type": "unocc",
				"energy": 0.07344,
				"method": "rhf"
			},
			{
				"type": "unocc",
				"energy": 0.08318,
				"method": "rhf"
			},
			{
				"type": "unocc",
				"energy": 0.08792,
				"method": "rhf"
			}
		],
		"cosmo_sigma_profile": { 
			"-0.025": 0.0,
			"-0.024": 0.0,
			"-0.023": 0.0,
			"-0.022": 0.0,
			"-0.021": 0.0,
			"-0.02": 0.0,
			"-0.019": 0.0185425269209,
			"-0.018": 0.650634310318,
			"-0.017": 1.06555573188,
			"-0.016": 0.578995702055,
			"-0.015": 1.29488278755,
			"-0.014": 2.04602191601,
			"-0.013": 1.23009671253,
			"-0.012": 1.58868778836,
			"-0.011": 2.32154622246,
			"-0.01": 1.88491278684,
			"-0.009": 1.31562080585,
			"-0.008": 3.70209724864,
			"-0.007": 3.10960634288,
			"-0.006": 4.01258569287,
			"-0.005": 3.71234688354,
			"-0.004": 13.9493975748,
			"-0.003": 24.4517702677,
			"-0.002": 33.5642635322,
			"-0.001": 34.5041880065,
			"0.0": 42.9388238342,
			"0.001": 37.1566777582,
			"0.002": 15.6345114419,
			"0.003": 9.4496307948,
			"0.004": 6.13209391897,
			"0.005": 7.9029907297,
			"0.006": 6.54767555909,
			"0.007": 6.45926960095,
			"0.008": 5.25265418909,
			"0.009": 4.8748066781,
			"0.01": 4.46238295306,
			"0.011": 5.044787152,
			"0.012": 4.40346434855,
			"0.013": 1.52337090939,
			"0.014": 0.0131341970861,
			"0.015": 0.0,
			"0.016": 0.0,
			"0.017": 0.0,
			"0.018": 0.0,
			"0.019": 0.0,
			"0.02": 0.0,
			"0.021": 0.0,
			"0.022": 0.0,
			"0.023": 0.0,
			"0.024": 0.0,
			"0.025": 0.0
		}
	}
}
