{
	 "smiles": "COC1=CC=C(C=C1)S(=O)(=O)NC1=C(C=CC=C1)C(O)=O", 
	 "Tm": 457.15, 
	 "num_atms": 34, 
	 "gaussian": { 
		 "optdone": 1, 
		 "sigma_profile": "yes", 
		 "theory": "DFT", 
		 "functional": "B3LYP", 
		 "basiset": "6-31G**", 
		 "properties": { 
			 "R2extent": 7624.3539, 
			 "electric_dipole_moment_norm": 5.31096160784, 
			 "electric_quadrupole_moment_norm": 34.004326881, 
			 "total_energy": -1370.3217223, 
			 "HOMO_LUMO_gap": 0.17408, 
			 "cosmo_polarized_energy": -19.69, 
			 "cosmo_cavitation_energy": 40.39, 
			 "cosmo_dispersion_energy": -28.11, 
			 "cosmo_repulsion_energy": 2.12, 
			 "cosmo_total_nonelectrostatic_energy": 14.39, 
			 "SMD_solvation_energy": 7.8 
		},
		"coords": [
			{
				"x": 5.8627418806,
				"y": 0.8450801999,
				"z": -0.7530907528,
				"element": "C" 
			},
			{
				"x": 4.7483485652,
				"y": 1.6157180247,
				"z": -0.3204677766,
				"element": "O" 
			},
			{
				"x": 3.5676289829,
				"y": 1.4776308593,
				"z": -0.9744355423,
				"element": "C" 
			},
			{
				"x": 2.5141101048,
				"y": 2.2766583655,
				"z": -0.4974397419,
				"element": "C" 
			},
			{
				"x": 1.2641214415,
				"y": 2.2147305844,
				"z": -1.0942826996,
				"element": "C" 
			},
			{
				"x": 1.0583054844,
				"y": 1.3469715254,
				"z": -2.1751144272,
				"element": "C" 
			},
			{
				"x": 2.0998400978,
				"y": 0.5557632891,
				"z": -2.6602307927,
				"element": "C" 
			},
			{
				"x": 3.3581635827,
				"y": 0.618215883,
				"z": -2.0639207564,
				"element": "C" 
			},
			{
				"x": -0.5534453965,
				"y": 1.2307026685,
				"z": -2.9357408618,
				"element": "S" 
			},
			{
				"x": -0.3844593921,
				"y": 0.7466975895,
				"z": -4.3060828459,
				"element": "O" 
			},
			{
				"x": -1.2804907174,
				"y": 2.4623954231,
				"z": -2.6273029495,
				"element": "O" 
			},
			{
				"x": -1.3543708762,
				"y": -0.0646131108,
				"z": -2.1737980086,
				"element": "N" 
			},
			{
				"x": -1.6266707528,
				"y": -0.1554738715,
				"z": -0.7951814741,
				"element": "C" 
			},
			{
				"x": -1.4387093165,
				"y": -1.3639659059,
				"z": -0.0695499704,
				"element": "C" 
			},
			{
				"x": -1.7670862835,
				"y": -1.3976097192,
				"z": 1.2987900981,
				"element": "C" 
			},
			{
				"x": -2.2550861152,
				"y": -0.280991656,
				"z": 1.9588755486,
				"element": "C" 
			},
			{
				"x": -2.4411000948,
				"y": 0.902688473,
				"z": 1.2380489427,
				"element": "C" 
			},
			{
				"x": -2.1441931682,
				"y": 0.9640368283,
				"z": -0.11786293,
				"element": "C" 
			},
			{
				"x": -0.9191661231,
				"y": -2.646950343,
				"z": -0.6101723862,
				"element": "C" 
			},
			{
				"x": -0.6808972225,
				"y": -2.6530310504,
				"z": -1.957122865,
				"element": "O" 
			},
			{
				"x": -0.7120851442,
				"y": -3.6452121957,
				"z": 0.0494963792,
				"element": "O" 
			},
			{
				"x": 6.6867493835,
				"y": 1.1147369952,
				"z": -0.0916743661,
				"element": "H" 
			},
			{
				"x": 6.1374082069,
				"y": 1.0812913977,
				"z": -1.7884077355,
				"element": "H" 
			},
			{
				"x": 5.6659378369,
				"y": -0.2305151322,
				"z": -0.6661512214,
				"element": "H" 
			},
			{
				"x": 2.7070043628,
				"y": 2.9422598221,
				"z": 0.3369555514,
				"element": "H" 
			},
			{
				"x": 0.4540514425,
				"y": 2.8444580252,
				"z": -0.7455655897,
				"element": "H" 
			},
			{
				"x": 1.9322030907,
				"y": -0.090302019,
				"z": -3.5153373713,
				"element": "H" 
			},
			{
				"x": 4.1616511128,
				"y": 0.0068885792,
				"z": -2.4558944678,
				"element": "H" 
			},
			{
				"x": -1.0818438053,
				"y": -0.9368009233,
				"z": -2.6177949688,
				"element": "H" 
			},
			{
				"x": -1.6170459764,
				"y": -2.3358606748,
				"z": 1.8210133804,
				"element": "H" 
			},
			{
				"x": -2.4982215242,
				"y": -0.3312378317,
				"z": 3.015171146,
				"element": "H" 
			},
			{
				"x": -2.8400756604,
				"y": 1.7847389079,
				"z": 1.7309888359,
				"element": "H" 
			},
			{
				"x": -2.3234860784,
				"y": 1.8715906296,
				"z": -0.6801918175,
				"element": "H" 
			},
			{
				"x": -0.3624319284,
				"y": -3.5467896373,
				"z": -2.166525563,
				"element": "H" 
			}
		],
		 "valence_orbital": [ 
			{
				"type": "occ",
				"energy": -0.29079,
				"method": "rhf"
			},
			{
				"type": "occ",
				"energy": -0.27524,
				"method": "rhf"
			},
			{
				"type": "occ",
				"energy": -0.26684,
				"method": "rhf"
			},
			{
				"type": "occ",
				"energy": -0.24853,
				"method": "rhf"
			},
			{
				"type": "occ",
				"energy": -0.23157,
				"method": "rhf"
			},
			{
				"type": "unocc",
				"energy": -0.05749,
				"method": "rhf"
			},
			{
				"type": "unocc",
				"energy": -0.03393,
				"method": "rhf"
			},
			{
				"type": "unocc",
				"energy": -0.0227,
				"method": "rhf"
			},
			{
				"type": "unocc",
				"energy": -0.01109,
				"method": "rhf"
			},
			{
				"type": "unocc",
				"energy": 0.04703,
				"method": "rhf"
			}
		],
		"cosmo_sigma_profile": { 
			"-0.025": 0.0,
			"-0.024": 0.0,
			"-0.023": 0.0,
			"-0.022": 0.0,
			"-0.021": 0.0,
			"-0.02": 0.0,
			"-0.019": 0.281661537815,
			"-0.018": 1.20756285611,
			"-0.017": 0.612227844718,
			"-0.016": 0.907000645514,
			"-0.015": 0.347487062462,
			"-0.014": 1.64670526878,
			"-0.013": 0.558940273108,
			"-0.012": 0.0961390305913,
			"-0.011": 0.65227435804,
			"-0.01": 0.6195840718,
			"-0.009": 0.621595385354,
			"-0.008": 2.65128220538,
			"-0.007": 10.6324912203,
			"-0.006": 22.5292932804,
			"-0.005": 24.7022866211,
			"-0.004": 23.8340243616,
			"-0.003": 23.3971069766,
			"-0.002": 23.5065348039,
			"-0.001": 17.5327824241,
			"0.0": 19.4914361721,
			"0.001": 25.7156639537,
			"0.002": 30.9174272032,
			"0.003": 24.5145552607,
			"0.004": 10.3247990178,
			"0.005": 7.46119578108,
			"0.006": 6.31332714341,
			"0.007": 5.13381867621,
			"0.008": 6.96709972312,
			"0.009": 7.23671073998,
			"0.01": 9.69263194394,
			"0.011": 11.5172453731,
			"0.012": 2.35178247398,
			"0.013": 0.0,
			"0.014": 0.0,
			"0.015": 0.0,
			"0.016": 0.0,
			"0.017": 0.0,
			"0.018": 0.0,
			"0.019": 0.0,
			"0.02": 0.0,
			"0.021": 0.0,
			"0.022": 0.0,
			"0.023": 0.0,
			"0.024": 0.0,
			"0.0": 0.0
		}
	}
}
