{
	 "smiles": "FC(F)=C(F)C(F)(F)F", 
	 "Tm": 117.15, 
	 "num_atms": 9, 
	 "gaussian": { 
		 "optdone": 1, 
		 "sigma_profile": "yes", 
		 "theory": "DFT", 
		 "functional": "B3LYP", 
		 "basiset": "6-31G**", 
		 "properties": { 
			 "R2extent": 2462.331, 
			 "electric_dipole_moment_norm": 0.998017424698, 
			 "electric_quadrupole_moment_norm": 3.60062802022, 
			 "total_energy": -713.296831966, 
			 "HOMO_LUMO_gap": 0.26594, 
			 "cosmo_polarized_energy": -1.64, 
			 "cosmo_cavitation_energy": 16.98, 
			 "cosmo_dispersion_energy": -11.59, 
			 "cosmo_repulsion_energy": 0.86, 
			 "cosmo_total_nonelectrostatic_energy": 6.25, 
			 "SMD_solvation_energy": 6.18 
		},
		"coords": [
			{
				"x": 1.6513664617,
				"y": 2.5205215617,
				"z": 1.2929832477,
				"element": "F" 
			},
			{
				"x": 0.4513290871,
				"y": 2.40889211,
				"z": 0.7653832727,
				"element": "C" 
			},
			{
				"x": 0.3400289794,
				"y": 3.062892414,
				"z": -0.3727883938,
				"element": "F" 
			},
			{
				"x": -0.5585636105,
				"y": 1.7204977407,
				"z": 1.2959325954,
				"element": "C" 
			},
			{
				"x": -1.7391611185,
				"y": 1.6857636294,
				"z": 0.653471289,
				"element": "F" 
			},
			{
				"x": -0.5478488514,
				"y": 0.943595006,
				"z": 2.5764052673,
				"element": "C" 
			},
			{
				"x": -1.4806860073,
				"y": 1.4174065013,
				"z": 3.4251426686,
				"element": "F" 
			},
			{
				"x": 0.6485763947,
				"y": 1.0071126034,
				"z": 3.1820559075,
				"element": "F" 
			},
			{
				"x": -0.8409413352,
				"y": -0.3511815666,
				"z": 2.3468141456,
				"element": "F" 
			}
		],
		 "valence_orbital": [ 
			{
				"type": "occ",
				"energy": -0.43284,
				"method": "rhf"
			},
			{
				"type": "occ",
				"energy": -0.43159,
				"method": "rhf"
			},
			{
				"type": "occ",
				"energy": -0.41501,
				"method": "rhf"
			},
			{
				"type": "occ",
				"energy": -0.39379,
				"method": "rhf"
			},
			{
				"type": "occ",
				"energy": -0.28072,
				"method": "rhf"
			},
			{
				"type": "unocc",
				"energy": -0.01478,
				"method": "rhf"
			},
			{
				"type": "unocc",
				"energy": 0.03983,
				"method": "rhf"
			},
			{
				"type": "unocc",
				"energy": 0.12463,
				"method": "rhf"
			},
			{
				"type": "unocc",
				"energy": 0.16464,
				"method": "rhf"
			},
			{
				"type": "unocc",
				"energy": 0.1955,
				"method": "rhf"
			}
		],
		"cosmo_sigma_profile": { 
			"-0.025": 0.0,
			"-0.024": 0.0,
			"-0.023": 0.0,
			"-0.022": 0.0,
			"-0.021": 0.0,
			"-0.02": 0.0,
			"-0.019": 0.0,
			"-0.018": 0.0,
			"-0.017": 0.0,
			"-0.016": 0.0,
			"-0.015": 0.0,
			"-0.014": 0.0,
			"-0.013": 0.0,
			"-0.012": 0.0,
			"-0.011": 0.0,
			"-0.01": 0.0,
			"-0.009": 0.0,
			"-0.008": 0.129249998536,
			"-0.007": 1.50444045269,
			"-0.006": 5.06803941138,
			"-0.005": 5.04551008001,
			"-0.004": 5.21243513918,
			"-0.003": 5.14158007745,
			"-0.002": 8.30993338109,
			"-0.001": 9.29795843144,
			"0.0": 17.3927747471,
			"0.001": 38.066445393,
			"0.002": 37.61419163,
			"0.003": 4.90035579514,
			"0.004": 0.0,
			"0.005": 0.0,
			"0.006": 0.0,
			"0.007": 0.0,
			"0.008": 0.0,
			"0.009": 0.0,
			"0.01": 0.0,
			"0.011": 0.0,
			"0.012": 0.0,
			"0.013": 0.0,
			"0.014": 0.0,
			"0.015": 0.0,
			"0.016": 0.0,
			"0.017": 0.0,
			"0.018": 0.0,
			"0.019": 0.0,
			"0.02": 0.0,
			"0.021": 0.0,
			"0.022": 0.0,
			"0.023": 0.0,
			"0.024": 0.0,
			"0.025": 0.0
		}
	}
}
