{
	 "smiles": "CC1COC2=C(C(F)=CC3=C2N1C=C(C(O)=O)C3=O)C1(N)CC1", 
	 "Tm": 542.15, 
	 "num_atms": 38, 
	 "gaussian": { 
		 "optdone": 1, 
		 "sigma_profile": "yes", 
		 "theory": "DFT", 
		 "functional": "B3LYP", 
		 "basiset": "6-31G**", 
		 "properties": { 
			 "R2extent": 8296.1581, 
			 "electric_dipole_moment_norm": 8.26281111063, 
			 "electric_quadrupole_moment_norm": 47.3606642469, 
			 "total_energy": -1128.97533038, 
			 "HOMO_LUMO_gap": 0.16343, 
			 "cosmo_polarized_energy": -24.4, 
			 "cosmo_cavitation_energy": 40.49, 
			 "cosmo_dispersion_energy": -28.81, 
			 "cosmo_repulsion_energy": 2.12, 
			 "cosmo_total_nonelectrostatic_energy": 13.8, 
			 "SMD_solvation_energy": 7.41 
		},
		"coords": [
			{
				"x": 2.5251794985,
				"y": 3.4452881605,
				"z": 0.494930177,
				"element": "C" 
			},
			{
				"x": 1.8377378132,
				"y": 2.2050763519,
				"z": -0.074367513,
				"element": "C" 
			},
			{
				"x": 0.3513080292,
				"y": 2.4688916692,
				"z": -0.3055544715,
				"element": "C" 
			},
			{
				"x": -0.2969805926,
				"y": 1.3495035549,
				"z": -0.9018467669,
				"element": "O" 
			},
			{
				"x": -0.0875890341,
				"y": 0.1577874404,
				"z": -0.2585351075,
				"element": "C" 
			},
			{
				"x": -0.9939365268,
				"y": -0.8769480736,
				"z": -0.5160946609,
				"element": "C" 
			},
			{
				"x": -0.8010363695,
				"y": -2.0754793641,
				"z": 0.1944277518,
				"element": "C" 
			},
			{
				"x": -1.6820444265,
				"y": -3.0795199653,
				"z": 0.0030006407,
				"element": "F" 
			},
			{
				"x": 0.2311913068,
				"y": -2.2736940546,
				"z": 1.0877698203,
				"element": "C" 
			},
			{
				"x": 1.1522071417,
				"y": -1.2412301125,
				"z": 1.3060945194,
				"element": "C" 
			},
			{
				"x": 1.0045364244,
				"y": -0.0155382803,
				"z": 0.6203848332,
				"element": "C" 
			},
			{
				"x": 1.9416653939,
				"y": 1.0130865124,
				"z": 0.8029951032,
				"element": "N" 
			},
			{
				"x": 2.9764611231,
				"y": 0.8241507635,
				"z": 1.6521813237,
				"element": "C" 
			},
			{
				"x": 3.1722810639,
				"y": -0.321518334,
				"z": 2.3808976547,
				"element": "C" 
			},
			{
				"x": 4.3653507919,
				"y": -0.3513864609,
				"z": 3.2897541864,
				"element": "C" 
			},
			{
				"x": 4.535325104,
				"y": -1.4858407398,
				"z": 3.9712464802,
				"element": "O" 
			},
			{
				"x": 5.1213318785,
				"y": 0.597409285,
				"z": 3.3922094446,
				"element": "O" 
			},
			{
				"x": 2.2683058739,
				"y": -1.441825396,
				"z": 2.2464101722,
				"element": "C" 
			},
			{
				"x": 2.4085223374,
				"y": -2.5152393742,
				"z": 2.8722813641,
				"element": "O" 
			},
			{
				"x": -2.1599366245,
				"y": -0.6541201921,
				"z": -1.4463385538,
				"element": "C" 
			},
			{
				"x": -3.2706995227,
				"y": 0.1203549258,
				"z": -0.9280116795,
				"element": "N" 
			},
			{
				"x": -2.5304789689,
				"y": -1.7242926891,
				"z": -2.4449474622,
				"element": "C" 
			},
			{
				"x": -1.8821246228,
				"y": -0.4513152571,
				"z": -2.9202406939,
				"element": "C" 
			},
			{
				"x": 2.1586609726,
				"y": 3.6816681333,
				"z": 1.4984697202,
				"element": "H" 
			},
			{
				"x": 2.3121606943,
				"y": 4.2963618026,
				"z": -0.1583035092,
				"element": "H" 
			},
			{
				"x": 3.6107531431,
				"y": 3.3380372117,
				"z": 0.5363068629,
				"element": "H" 
			},
			{
				"x": 2.2876117622,
				"y": 1.9466742504,
				"z": -1.042343817,
				"element": "H" 
			},
			{
				"x": 0.2196082517,
				"y": 3.2979312655,
				"z": -1.003231909,
				"element": "H" 
			},
			{
				"x": -0.1351295683,
				"y": 2.7224514195,
				"z": 0.6471221068,
				"element": "H" 
			},
			{
				"x": 0.3457389274,
				"y": -3.2087766902,
				"z": 1.6222975458,
				"element": "H" 
			},
			{
				"x": 3.6917296451,
				"y": 1.6280092047,
				"z": 1.7674035168,
				"element": "H" 
			},
			{
				"x": 3.7999370012,
				"y": -2.1115970186,
				"z": 3.7231224223,
				"element": "H" 
			},
			{
				"x": -2.9492324689,
				"y": 1.0481865647,
				"z": -0.6613686873,
				"element": "H" 
			},
			{
				"x": -3.6528981715,
				"y": -0.3222249945,
				"z": -0.095105738,
				"element": "H" 
			},
			{
				"x": -1.9479196841,
				"y": -2.6384200679,
				"z": -2.4589621201,
				"element": "H" 
			},
			{
				"x": -3.591853081,
				"y": -1.852444334,
				"z": -2.6278513796,
				"element": "H" 
			},
			{
				"x": -0.8510035826,
				"y": -0.4932215648,
				"z": -3.2563881517,
				"element": "H" 
			},
			{
				"x": -2.5029409334,
				"y": 0.2821644474,
				"z": -3.4235134253,
				"element": "H" 
			}
		],
		 "valence_orbital": [ 
			{
				"type": "occ",
				"energy": -0.26729,
				"method": "rhf"
			},
			{
				"type": "occ",
				"energy": -0.26336,
				"method": "rhf"
			},
			{
				"type": "occ",
				"energy": -0.25579,
				"method": "rhf"
			},
			{
				"type": "occ",
				"energy": -0.24608,
				"method": "rhf"
			},
			{
				"type": "occ",
				"energy": -0.23156,
				"method": "rhf"
			},
			{
				"type": "unocc",
				"energy": -0.06813,
				"method": "rhf"
			},
			{
				"type": "unocc",
				"energy": -0.05042,
				"method": "rhf"
			},
			{
				"type": "unocc",
				"energy": -0.00481,
				"method": "rhf"
			},
			{
				"type": "unocc",
				"energy": 0.02979,
				"method": "rhf"
			},
			{
				"type": "unocc",
				"energy": 0.05221,
				"method": "rhf"
			}
		],
		"cosmo_sigma_profile": { 
			"-0.025": 0.0,
			"-0.024": 0.0,
			"-0.023": 0.0,
			"-0.022": 0.0,
			"-0.021": 0.0,
			"-0.02": 0.0,
			"-0.019": 0.0,
			"-0.018": 0.0,
			"-0.017": 0.0,
			"-0.016": 0.0,
			"-0.015": 0.0,
			"-0.014": 0.0,
			"-0.013": 0.0,
			"-0.012": 0.0,
			"-0.011": 0.0161374536155,
			"-0.01": 1.63813611215,
			"-0.009": 2.85213402717,
			"-0.008": 9.23275878108,
			"-0.007": 18.0810138148,
			"-0.006": 20.1651229156,
			"-0.005": 18.517474406,
			"-0.004": 23.271990961,
			"-0.003": 26.2115479682,
			"-0.002": 26.9741479363,
			"-0.001": 27.564282384,
			"0.0": 24.7215628766,
			"0.001": 20.151965136,
			"0.002": 13.9936377307,
			"0.003": 12.4888965433,
			"0.004": 15.4488242139,
			"0.005": 8.44250188916,
			"0.006": 5.45442795983,
			"0.007": 6.0557939263,
			"0.008": 5.38892484602,
			"0.009": 5.14679268533,
			"0.01": 5.00637060723,
			"0.011": 7.09609315318,
			"0.012": 8.27806091817,
			"0.013": 4.9937767675,
			"0.014": 2.42346588891,
			"0.015": 0.794477007601,
			"0.016": 0.363621551429,
			"0.017": 0.391178535282,
			"0.018": 0.239390668718,
			"0.019": 0.0,
			"0.02": 0.0,
			"0.021": 0.0,
			"0.022": 0.0,
			"0.023": 0.0,
			"0.024": 0.0,
			"0.025": 0.0
		}
	}
}
