{
	 "smiles": "CCOC(=O)C1=C(CBr)NC(=O)NC1C", 
	 "Tm": 421.15, 
	 "num_atms": 28, 
	 "gaussian": { 
		 "optdone": 1, 
		 "sigma_profile": "yes", 
		 "theory": "DFT", 
		 "functional": "B3LYP", 
		 "basiset": "6-31G**", 
		 "properties": { 
			 "R2extent": 4856.962, 
			 "electric_dipole_moment_norm": 3.7870048574, 
			 "electric_quadrupole_moment_norm": 10.0070949581, 
			 "total_energy": -3257.41277044, 
			 "HOMO_LUMO_gap": 0.17229, 
			 "cosmo_polarized_energy": -15.92, 
			 "cosmo_cavitation_energy": 33.5, 
			 "cosmo_dispersion_energy": -23.69, 
			 "cosmo_repulsion_energy": 1.9, 
			 "cosmo_total_nonelectrostatic_energy": 11.72, 
			 "SMD_solvation_energy": 5.75 
		},
		"coords": [
			{
				"x": 3.5464730369,
				"y": -1.855116463,
				"z": -1.0081991103,
				"element": "C" 
			},
			{
				"x": 2.221943928,
				"y": -1.6828263078,
				"z": -1.7356716282,
				"element": "C" 
			},
			{
				"x": 1.3244908296,
				"y": -0.8054858657,
				"z": -1.0085602976,
				"element": "O" 
			},
			{
				"x": 0.5803313302,
				"y": -1.37947003,
				"z": -0.0291002104,
				"element": "C" 
			},
			{
				"x": 0.6557248056,
				"y": -2.5704464761,
				"z": 0.2324728684,
				"element": "O" 
			},
			{
				"x": -0.3442209502,
				"y": -0.479572464,
				"z": 0.6862329951,
				"element": "C" 
			},
			{
				"x": -0.4804217086,
				"y": 0.8710922328,
				"z": 0.5555943253,
				"element": "C" 
			},
			{
				"x": 0.3737068857,
				"y": 1.7834416531,
				"z": -0.2682405619,
				"element": "C" 
			},
			{
				"x": -0.6979794547,
				"y": 2.7621456852,
				"z": -1.6362301303,
				"element": "Br" 
			},
			{
				"x": -1.4383253183,
				"y": 1.5328235082,
				"z": 1.3068560035,
				"element": "N" 
			},
			{
				"x": -2.5472993893,
				"y": 0.9011870452,
				"z": 1.901944827,
				"element": "C" 
			},
			{
				"x": -3.495085431,
				"y": 1.5494048259,
				"z": 2.3151315979,
				"element": "O" 
			},
			{
				"x": -2.4491397475,
				"y": -0.4582173234,
				"z": 1.9150574292,
				"element": "N" 
			},
			{
				"x": -1.1900733518,
				"y": -1.188623498,
				"z": 1.7364931746,
				"element": "C" 
			},
			{
				"x": -0.428105209,
				"y": -1.3686576129,
				"z": 3.0628948637,
				"element": "C" 
			},
			{
				"x": 4.2260569224,
				"y": -2.4605086322,
				"z": -1.617198168,
				"element": "H" 
			},
			{
				"x": 3.3966918089,
				"y": -2.3643823993,
				"z": -0.0534208562,
				"element": "H" 
			},
			{
				"x": 4.0228325491,
				"y": -0.8871471188,
				"z": -0.82532712,
				"element": "H" 
			},
			{
				"x": 2.3540096756,
				"y": -1.1872909726,
				"z": -2.7002739603,
				"element": "H" 
			},
			{
				"x": 1.7253613363,
				"y": -2.6435647775,
				"z": -1.8849416562,
				"element": "H" 
			},
			{
				"x": 1.141884318,
				"y": 1.2521477263,
				"z": -0.8115286743,
				"element": "H" 
			},
			{
				"x": 0.8006364285,
				"y": 2.5709590507,
				"z": 0.3541712636,
				"element": "H" 
			},
			{
				"x": -1.6112678968,
				"y": 2.5098157704,
				"z": 1.1073972104,
				"element": "H" 
			},
			{
				"x": -3.1986377614,
				"y": -0.9138429914,
				"z": 2.4165092397,
				"element": "H" 
			},
			{
				"x": -1.4398395973,
				"y": -2.1792301131,
				"z": 1.3484152307,
				"element": "H" 
			},
			{
				"x": -1.0549654797,
				"y": -1.8861007439,
				"z": 3.7975135613,
				"element": "H" 
			},
			{
				"x": -0.1387308123,
				"y": -0.3990577967,
				"z": 3.4804154452,
				"element": "H" 
			},
			{
				"x": 0.470348253,
				"y": -1.9684759116,
				"z": 2.8970923381,
				"element": "H" 
			}
		],
		 "valence_orbital": [ 
			{
				"type": "occ",
				"energy": -0.28658,
				"method": "rhf"
			},
			{
				"type": "occ",
				"energy": -0.28371,
				"method": "rhf"
			},
			{
				"type": "occ",
				"energy": -0.27067,
				"method": "rhf"
			},
			{
				"type": "occ",
				"energy": -0.25725,
				"method": "rhf"
			},
			{
				"type": "occ",
				"energy": -0.23749,
				"method": "rhf"
			},
			{
				"type": "unocc",
				"energy": -0.0652,
				"method": "rhf"
			},
			{
				"type": "unocc",
				"energy": -0.00107,
				"method": "rhf"
			},
			{
				"type": "unocc",
				"energy": 0.05029,
				"method": "rhf"
			},
			{
				"type": "unocc",
				"energy": 0.07008,
				"method": "rhf"
			},
			{
				"type": "unocc",
				"energy": 0.07665,
				"method": "rhf"
			}
		],
		"cosmo_sigma_profile": { 
			"-0.025": 0.0,
			"-0.024": 0.0,
			"-0.023": 0.0,
			"-0.022": 0.0,
			"-0.021": 0.0,
			"-0.02": 0.0,
			"-0.019": 0.0,
			"-0.018": 0.0,
			"-0.017": 0.0,
			"-0.016": 0.0,
			"-0.015": 0.162871897478,
			"-0.014": 1.45714799652,
			"-0.013": 2.38570192652,
			"-0.012": 2.19073850577,
			"-0.011": 1.54018064122,
			"-0.01": 2.5096836754,
			"-0.009": 4.19789880504,
			"-0.008": 3.90364644168,
			"-0.007": 3.50108179719,
			"-0.006": 7.02781996692,
			"-0.005": 10.4608687823,
			"-0.004": 20.6149190308,
			"-0.003": 23.0805872918,
			"-0.002": 26.7917456159,
			"-0.001": 28.2834109405,
			"0.0": 28.4937723064,
			"0.001": 18.8728200344,
			"0.002": 12.0698981468,
			"0.003": 11.4511072913,
			"0.004": 11.1798915367,
			"0.005": 11.9868061073,
			"0.006": 6.17261350038,
			"0.007": 2.05001463436,
			"0.008": 2.91011768525,
			"0.009": 2.83933611543,
			"0.01": 2.65771613023,
			"0.011": 2.98956204238,
			"0.012": 4.79368663755,
			"0.013": 6.88970810134,
			"0.014": 3.68787251724,
			"0.015": 0.135799488818,
			"0.016": 0.0,
			"0.017": 0.0,
			"0.018": 0.0,
			"0.019": 0.0,
			"0.02": 0.0,
			"0.021": 0.0,
			"0.022": 0.0,
			"0.023": 0.0,
			"0.024": 0.0,
			"0.025": 0.0
		}
	}
}
