{
	 "smiles": "CC(=O)OCC1=CN(C(C)=O)C2=C1C=CC=C2", 
	 "Tm": 358.65, 
	 "num_atms": 30, 
	 "gaussian": { 
		 "optdone": 1, 
		 "sigma_profile": "yes", 
		 "theory": "DFT", 
		 "functional": "B3LYP", 
		 "basiset": "6-31G**", 
		 "properties": { 
			 "R2extent": 5114.3359, 
			 "electric_dipole_moment_norm": 3.728906518, 
			 "electric_quadrupole_moment_norm": 9.42121013565, 
			 "total_energy": -783.669184816, 
			 "HOMO_LUMO_gap": 0.18343, 
			 "cosmo_polarized_energy": -13.65, 
			 "cosmo_cavitation_energy": 34.58, 
			 "cosmo_dispersion_energy": -24.45, 
			 "cosmo_repulsion_energy": 1.89, 
			 "cosmo_total_nonelectrostatic_energy": 12.02, 
			 "SMD_solvation_energy": 8.02 
		},
		"coords": [
			{
				"x": 4.4796457916,
				"y": -0.6490149876,
				"z": 2.9851452702,
				"element": "C" 
			},
			{
				"x": 3.2456981123,
				"y": 0.221161272,
				"z": 3.0342604012,
				"element": "C" 
			},
			{
				"x": 2.9631043235,
				"y": 0.9963895943,
				"z": 3.9216423009,
				"element": "O" 
			},
			{
				"x": 2.478267124,
				"y": 0.0312492041,
				"z": 1.9348269828,
				"element": "O" 
			},
			{
				"x": 1.2685499685,
				"y": 0.8330534348,
				"z": 1.8774205814,
				"element": "C" 
			},
			{
				"x": 0.5294179209,
				"y": 0.4863026615,
				"z": 0.6314825978,
				"element": "C" 
			},
			{
				"x": 0.2256241678,
				"y": 1.3378248778,
				"z": -0.3820630991,
				"element": "C" 
			},
			{
				"x": -0.5238463481,
				"y": 0.6828023442,
				"z": -1.3697560299,
				"element": "N" 
			},
			{
				"x": -0.950508232,
				"y": 1.3921042227,
				"z": -2.5124939515,
				"element": "C" 
			},
			{
				"x": -1.7541394765,
				"y": 0.6516226737,
				"z": -3.5556808388,
				"element": "C" 
			},
			{
				"x": -0.6644333536,
				"y": 2.5693886658,
				"z": -2.6302216382,
				"element": "O" 
			},
			{
				"x": -0.6998830507,
				"y": -0.659665632,
				"z": -0.961351772,
				"element": "C" 
			},
			{
				"x": -0.0447507934,
				"y": -0.7995245574,
				"z": 0.2901909708,
				"element": "C" 
			},
			{
				"x": -0.0432898085,
				"y": -2.0341829117,
				"z": 0.950003365,
				"element": "C" 
			},
			{
				"x": -0.6999661683,
				"y": -3.1114754595,
				"z": 0.3647183969,
				"element": "C" 
			},
			{
				"x": -1.3476071741,
				"y": -2.9633634883,
				"z": -0.8710783383,
				"element": "C" 
			},
			{
				"x": -1.3567738744,
				"y": -1.745116127,
				"z": -1.550378761,
				"element": "C" 
			},
			{
				"x": 5.0503009797,
				"y": -0.5200608774,
				"z": 3.9042411978,
				"element": "H" 
			},
			{
				"x": 5.0956799085,
				"y": -0.3718544864,
				"z": 2.1242862636,
				"element": "H" 
			},
			{
				"x": 4.1992596032,
				"y": -1.6986168702,
				"z": 2.8594727498,
				"element": "H" 
			},
			{
				"x": 1.5367622736,
				"y": 1.8929870365,
				"z": 1.901729711,
				"element": "H" 
			},
			{
				"x": 0.6779761607,
				"y": 0.6240375063,
				"z": 2.7761478842,
				"element": "H" 
			},
			{
				"x": 0.4573831252,
				"y": 2.3818268215,
				"z": -0.5224859962,
				"element": "H" 
			},
			{
				"x": -2.6861067377,
				"y": 0.2617304296,
				"z": -3.1356417813,
				"element": "H" 
			},
			{
				"x": -1.9847835169,
				"y": 1.3590822683,
				"z": -4.3515016963,
				"element": "H" 
			},
			{
				"x": -1.1888087631,
				"y": -0.1886322758,
				"z": -3.9695946924,
				"element": "H" 
			},
			{
				"x": 0.4731533771,
				"y": -2.1441247465,
				"z": 1.8983480673,
				"element": "H" 
			},
			{
				"x": -0.7096241075,
				"y": -4.0759565312,
				"z": 0.86335392,
				"element": "H" 
			},
			{
				"x": -1.8537989267,
				"y": -3.8145904092,
				"z": -1.3164185609,
				"element": "H" 
			},
			{
				"x": -1.8647025052,
				"y": -1.673483653,
				"z": -2.5016035045,
				"element": "H" 
			}
		],
		 "valence_orbital": [ 
			{
				"type": "occ",
				"energy": -0.28853,
				"method": "rhf"
			},
			{
				"type": "occ",
				"energy": -0.27568,
				"method": "rhf"
			},
			{
				"type": "occ",
				"energy": -0.26904,
				"method": "rhf"
			},
			{
				"type": "occ",
				"energy": -0.23875,
				"method": "rhf"
			},
			{
				"type": "occ",
				"energy": -0.2232,
				"method": "rhf"
			},
			{
				"type": "unocc",
				"energy": -0.03977,
				"method": "rhf"
			},
			{
				"type": "unocc",
				"energy": -0.01524,
				"method": "rhf"
			},
			{
				"type": "unocc",
				"energy": 0.01306,
				"method": "rhf"
			},
			{
				"type": "unocc",
				"energy": 0.02469,
				"method": "rhf"
			},
			{
				"type": "unocc",
				"energy": 0.05586,
				"method": "rhf"
			}
		],
		"cosmo_sigma_profile": { 
			"-0.025": 0.0,
			"-0.024": 0.0,
			"-0.023": 0.0,
			"-0.022": 0.0,
			"-0.021": 0.0,
			"-0.02": 0.0,
			"-0.019": 0.0,
			"-0.018": 0.0,
			"-0.017": 0.0,
			"-0.016": 0.0,
			"-0.015": 0.0,
			"-0.014": 0.0,
			"-0.013": 0.0,
			"-0.012": 0.0,
			"-0.011": 0.0,
			"-0.01": 0.0,
			"-0.009": 0.0,
			"-0.008": 1.54822332232,
			"-0.007": 12.0817459019,
			"-0.006": 20.0558956587,
			"-0.005": 24.6296733915,
			"-0.004": 26.8599442918,
			"-0.003": 25.5541678855,
			"-0.002": 22.9779952311,
			"-0.001": 18.6620728722,
			"0.0": 13.4348710827,
			"0.001": 14.706343476,
			"0.002": 13.0568655996,
			"0.003": 13.5982201239,
			"0.004": 13.334400917,
			"0.005": 14.9877606703,
			"0.006": 7.15441974798,
			"0.007": 4.93774742355,
			"0.008": 3.58848536418,
			"0.009": 3.56723094261,
			"0.01": 4.34187030707,
			"0.011": 6.46977675279,
			"0.012": 7.96008858619,
			"0.013": 2.10832057682,
			"0.014": 0.0205446043631,
			"0.015": 0.0,
			"0.016": 0.0,
			"0.017": 0.0,
			"0.018": 0.0,
			"0.019": 0.0,
			"0.02": 0.0,
			"0.021": 0.0,
			"0.022": 0.0,
			"0.023": 0.0,
			"0.024": 0.0,
			"0.025": 0.0
		}
	}
}
