{
	 "smiles": "OC(=O)[C@@H](Cl)C1=CC=CC=C1", 
	 "Tm": 330.15, 
	 "num_atms": 18, 
	 "gaussian": { 
		 "optdone": 1, 
		 "sigma_profile": "yes", 
		 "theory": "DFT", 
		 "functional": "B3LYP", 
		 "basiset": "6-31G**", 
		 "properties": { 
			 "R2extent": 2910.4558, 
			 "electric_dipole_moment_norm": 3.28871258093, 
			 "electric_quadrupole_moment_norm": 15.1055095349, 
			 "total_energy": -919.717122366, 
			 "HOMO_LUMO_gap": 0.21484, 
			 "cosmo_polarized_energy": -11.61, 
			 "cosmo_cavitation_energy": 24.14, 
			 "cosmo_dispersion_energy": -17.49, 
			 "cosmo_repulsion_energy": 1.42, 
			 "cosmo_total_nonelectrostatic_energy": 8.07, 
			 "SMD_solvation_energy": 4.97 
		},
		"coords": [
			{
				"x": 0.3510604359,
				"y": 4.0888851003,
				"z": -1.2811764708,
				"element": "O" 
			},
			{
				"x": 1.1669091171,
				"y": 3.4182836078,
				"z": -0.4504353021,
				"element": "C" 
			},
			{
				"x": 2.3648289665,
				"y": 3.4284478064,
				"z": -0.5745229064,
				"element": "O" 
			},
			{
				"x": 0.526369994,
				"y": 2.5541400781,
				"z": 0.6508919314,
				"element": "C" 
			},
			{
				"x": -1.1654192528,
				"y": 3.1858760525,
				"z": 1.1026768689,
				"element": "Cl" 
			},
			{
				"x": 0.4674345579,
				"y": 1.0962440932,
				"z": 0.275998759,
				"element": "C" 
			},
			{
				"x": 0.037966171,
				"y": 0.692312718,
				"z": -0.9960270367,
				"element": "C" 
			},
			{
				"x": -0.0114339096,
				"y": -0.6610051762,
				"z": -1.3221871709,
				"element": "C" 
			},
			{
				"x": 0.3657729063,
				"y": -1.6234181711,
				"z": -0.3821599296,
				"element": "C" 
			},
			{
				"x": 0.7951846566,
				"y": -1.2272846162,
				"z": 0.8852407523,
				"element": "C" 
			},
			{
				"x": 0.8455092932,
				"y": 0.1275205388,
				"z": 1.212969538,
				"element": "C" 
			},
			{
				"x": -0.5618536903,
				"y": 4.0405612626,
				"z": -0.9470695879,
				"element": "H" 
			},
			{
				"x": 1.1185102251,
				"y": 2.6984172796,
				"z": 1.5528622993,
				"element": "H" 
			},
			{
				"x": -0.2513741287,
				"y": 1.4363693663,
				"z": -1.732560007,
				"element": "H" 
			},
			{
				"x": -0.3410628533,
				"y": -0.9646707026,
				"z": -2.3111618202,
				"element": "H" 
			},
			{
				"x": 0.3279280775,
				"y": -2.6779232681,
				"z": -0.6388724514,
				"element": "H" 
			},
			{
				"x": 1.0933209694,
				"y": -1.9709109128,
				"z": 1.6181448082,
				"element": "H" 
			},
			{
				"x": 1.1806484643,
				"y": 0.4354549435,
				"z": 2.1996877259,
				"element": "H" 
			}
		],
		 "valence_orbital": [ 
			{
				"type": "occ",
				"energy": -0.33152,
				"method": "rhf"
			},
			{
				"type": "occ",
				"energy": -0.31843,
				"method": "rhf"
			},
			{
				"type": "occ",
				"energy": -0.28199,
				"method": "rhf"
			},
			{
				"type": "occ",
				"energy": -0.26869,
				"method": "rhf"
			},
			{
				"type": "occ",
				"energy": -0.26515,
				"method": "rhf"
			},
			{
				"type": "unocc",
				"energy": -0.05031,
				"method": "rhf"
			},
			{
				"type": "unocc",
				"energy": -0.02092,
				"method": "rhf"
			},
			{
				"type": "unocc",
				"energy": -0.00086,
				"method": "rhf"
			},
			{
				"type": "unocc",
				"energy": 0.02085,
				"method": "rhf"
			},
			{
				"type": "unocc",
				"energy": 0.07225,
				"method": "rhf"
			}
		],
		"cosmo_sigma_profile": { 
			"-0.025": 0.0,
			"-0.024": 0.0,
			"-0.023": 0.0,
			"-0.022": 0.0,
			"-0.021": 0.0,
			"-0.02": 0.0,
			"-0.019": 0.0,
			"-0.018": 0.0,
			"-0.017": 0.0,
			"-0.016": 0.157649649638,
			"-0.015": 0.586298518159,
			"-0.014": 0.462796788802,
			"-0.013": 0.605252900133,
			"-0.012": 1.69296675263,
			"-0.011": 1.26241237292,
			"-0.01": 2.73749295272,
			"-0.009": 4.00045515924,
			"-0.008": 3.32670700116,
			"-0.007": 5.99986283299,
			"-0.006": 13.4160954954,
			"-0.005": 13.6528987727,
			"-0.004": 12.5542721658,
			"-0.003": 9.52959544167,
			"-0.002": 9.7077057586,
			"-0.001": 9.3113184127,
			"0.0": 10.2245873883,
			"0.001": 12.3557830122,
			"0.002": 11.8965222532,
			"0.003": 15.1818608849,
			"0.004": 21.2204840355,
			"0.005": 10.3117252674,
			"0.006": 2.35079753138,
			"0.007": 2.68973135913,
			"0.008": 3.87413628207,
			"0.009": 4.9057821124,
			"0.01": 4.15408545285,
			"0.011": 5.31243034142,
			"0.012": 1.69476609155,
			"0.013": 0.0140197784433,
			"0.014": 0.0,
			"0.015": 0.0,
			"0.016": 0.0,
			"0.017": 0.0,
			"0.018": 0.0,
			"0.019": 0.0,
			"0.02": 0.0,
			"0.021": 0.0,
			"0.022": 0.0,
			"0.023": 0.0,
			"0.024": 0.0,
			"0.025": 0.0
		}
	}
}
