{
	 "smiles": "O=C(CC#N)N1CCSCC1", 
	 "Tm": 377.15, 
	 "num_atms": 21, 
	 "gaussian": { 
		 "optdone": 1, 
		 "sigma_profile": "yes", 
		 "theory": "DFT", 
		 "functional": "B3LYP", 
		 "basiset": "6-31G**", 
		 "properties": { 
			 "R2extent": 2486.7897, 
			 "electric_dipole_moment_norm": 2.94262604658, 
			 "electric_quadrupole_moment_norm": 14.356679318, 
			 "total_energy": -855.670126566, 
			 "HOMO_LUMO_gap": 0.22988, 
			 "cosmo_polarized_energy": -16.43, 
			 "cosmo_cavitation_energy": 25.72, 
			 "cosmo_dispersion_energy": -18.79, 
			 "cosmo_repulsion_energy": 1.47, 
			 "cosmo_total_nonelectrostatic_energy": 8.39, 
			 "SMD_solvation_energy": 4.88 
		},
		"coords": [
			{
				"x": -1.9702940712,
				"y": 2.1512907937,
				"z": 0.225269391,
				"element": "O" 
			},
			{
				"x": -1.9344926111,
				"y": 0.9295296642,
				"z": 0.2922187835,
				"element": "C" 
			},
			{
				"x": -3.2702920457,
				"y": 0.1451574974,
				"z": 0.2882925851,
				"element": "C" 
			},
			{
				"x": -3.4824446017,
				"y": -0.6933989861,
				"z": 1.4678038546,
				"element": "C" 
			},
			{
				"x": -3.6281261277,
				"y": -1.3556744786,
				"z": 2.4100956646,
				"element": "N" 
			},
			{
				"x": -0.7688964343,
				"y": 0.2178766849,
				"z": 0.3554679148,
				"element": "N" 
			},
			{
				"x": 0.4805867763,
				"y": 0.9960592865,
				"z": 0.4250101938,
				"element": "C" 
			},
			{
				"x": 1.5196601881,
				"y": 0.3272020067,
				"z": 1.3180923411,
				"element": "C" 
			},
			{
				"x": 2.1125815739,
				"y": -1.2813238269,
				"z": 0.6348926748,
				"element": "S" 
			},
			{
				"x": 0.5898367009,
				"y": -1.7553674202,
				"z": -0.2847261009,
				"element": "C" 
			},
			{
				"x": -0.6860559905,
				"y": -1.2506326605,
				"z": 0.3882411857,
				"element": "C" 
			},
			{
				"x": -4.0503724173,
				"y": 0.907879878,
				"z": 0.2382995316,
				"element": "H" 
			},
			{
				"x": -3.3539011093,
				"y": -0.4751669626,
				"z": -0.6122682788,
				"element": "H" 
			},
			{
				"x": 0.2158844748,
				"y": 1.9798725214,
				"z": 0.8172437322,
				"element": "H" 
			},
			{
				"x": 0.8909223065,
				"y": 1.1475650968,
				"z": -0.5815997039,
				"element": "H" 
			},
			{
				"x": 1.1193203674,
				"y": 0.175862955,
				"z": 2.3246459772,
				"element": "H" 
			},
			{
				"x": 2.3988187982,
				"y": 0.9713294464,
				"z": 1.3964080271,
				"element": "H" 
			},
			{
				"x": 0.64524036,
				"y": -1.3939312531,
				"z": -1.3158626964,
				"element": "H" 
			},
			{
				"x": 0.574529816,
				"y": -2.8477009889,
				"z": -0.3090048983,
				"element": "H" 
			},
			{
				"x": -1.5424222973,
				"y": -1.6687987497,
				"z": -0.1472367097,
				"element": "H" 
			},
			{
				"x": -0.734883656,
				"y": -1.6244305045,
				"z": 1.4182165307,
				"element": "H" 
			}
		],
		 "valence_orbital": [ 
			{
				"type": "occ",
				"energy": -0.33612,
				"method": "rhf"
			},
			{
				"type": "occ",
				"energy": -0.31802,
				"method": "rhf"
			},
			{
				"type": "occ",
				"energy": -0.27034,
				"method": "rhf"
			},
			{
				"type": "occ",
				"energy": -0.25898,
				"method": "rhf"
			},
			{
				"type": "occ",
				"energy": -0.23383,
				"method": "rhf"
			},
			{
				"type": "unocc",
				"energy": -0.00395,
				"method": "rhf"
			},
			{
				"type": "unocc",
				"energy": 0.01714,
				"method": "rhf"
			},
			{
				"type": "unocc",
				"energy": 0.02648,
				"method": "rhf"
			},
			{
				"type": "unocc",
				"energy": 0.03479,
				"method": "rhf"
			},
			{
				"type": "unocc",
				"energy": 0.04645,
				"method": "rhf"
			}
		],
		"cosmo_sigma_profile": { 
			"-0.025": 0.0,
			"-0.024": 0.0,
			"-0.023": 0.0,
			"-0.022": 0.0,
			"-0.021": 0.0,
			"-0.02": 0.0,
			"-0.019": 0.0,
			"-0.018": 0.0,
			"-0.017": 0.0,
			"-0.016": 0.0,
			"-0.015": 0.0,
			"-0.014": 0.0,
			"-0.013": 0.0,
			"-0.012": 0.218112355221,
			"-0.011": 2.62422029299,
			"-0.01": 3.38133506462,
			"-0.009": 4.93782041821,
			"-0.008": 4.44374597829,
			"-0.007": 7.78253907998,
			"-0.006": 13.9128635819,
			"-0.005": 23.8268129792,
			"-0.004": 19.2196896134,
			"-0.003": 16.7993942877,
			"-0.002": 12.8508768974,
			"-0.001": 8.77829569228,
			"0.0": 7.24103893204,
			"0.001": 5.84392712662,
			"0.002": 5.04838451693,
			"0.003": 5.56112250605,
			"0.004": 6.48854200505,
			"0.005": 6.33259376332,
			"0.006": 7.55018448895,
			"0.007": 5.95536495924,
			"0.008": 6.35716963484,
			"0.009": 6.2636075266,
			"0.01": 6.15577317087,
			"0.011": 5.50253464061,
			"0.012": 5.7107166198,
			"0.013": 5.94911468412,
			"0.014": 0.676159922869,
			"0.015": 0.0,
			"0.016": 0.0,
			"0.017": 0.0,
			"0.018": 0.0,
			"0.019": 0.0,
			"0.02": 0.0,
			"0.021": 0.0,
			"0.022": 0.0,
			"0.023": 0.0,
			"0.024": 0.0,
			"0.025": 0.0
		}
	}
}
