{
	 "smiles": "CC1=C(O)C(C)=C(N)C=C1", 
	 "Tm": 376.15, 
	 "num_atms": 21, 
	 "gaussian": { 
		 "optdone": 1, 
		 "sigma_profile": "yes", 
		 "theory": "DFT", 
		 "functional": "B3LYP", 
		 "basiset": "6-31G**", 
		 "properties": { 
			 "R2extent": 1697.1721, 
			 "electric_dipole_moment_norm": 2.5665564498, 
			 "electric_quadrupole_moment_norm": 7.75934377444, 
			 "total_energy": -441.466865575, 
			 "HOMO_LUMO_gap": 0.2069, 
			 "cosmo_polarized_energy": -11.2, 
			 "cosmo_cavitation_energy": 23.34, 
			 "cosmo_dispersion_energy": -17.62, 
			 "cosmo_repulsion_energy": 1.43, 
			 "cosmo_total_nonelectrostatic_energy": 7.14, 
			 "SMD_solvation_energy": 4.19 
		},
		"coords": [
			{
				"x": 1.663903586,
				"y": 1.0163241271,
				"z": 2.2592447979,
				"element": "C" 
			},
			{
				"x": 1.3779903162,
				"y": 0.2793305663,
				"z": 0.9757422815,
				"element": "C" 
			},
			{
				"x": 0.211933641,
				"y": -0.4962384205,
				"z": 0.8484625122,
				"element": "C" 
			},
			{
				"x": -0.6072031654,
				"y": -0.5213125688,
				"z": 1.9500502279,
				"element": "O" 
			},
			{
				"x": -0.1122048727,
				"y": -1.1897925992,
				"z": -0.328321345,
				"element": "C" 
			},
			{
				"x": -1.4136461541,
				"y": -1.9474786232,
				"z": -0.4606542353,
				"element": "C" 
			},
			{
				"x": 0.800007401,
				"y": -1.1443475524,
				"z": -1.4055863204,
				"element": "C" 
			},
			{
				"x": 0.4969739029,
				"y": -1.8131739393,
				"z": -2.6066250673,
				"element": "N" 
			},
			{
				"x": 1.9684435355,
				"y": -0.3811266868,
				"z": -1.2945726889,
				"element": "C" 
			},
			{
				"x": 2.2357555818,
				"y": 0.3236319074,
				"z": -0.1225172903,
				"element": "C" 
			},
			{
				"x": 0.8785505458,
				"y": 1.7453942584,
				"z": 2.4901074287,
				"element": "H" 
			},
			{
				"x": 2.6157651797,
				"y": 1.5510790519,
				"z": 2.1945677518,
				"element": "H" 
			},
			{
				"x": 1.7124290931,
				"y": 0.3323211113,
				"z": 3.1142710875,
				"element": "H" 
			},
			{
				"x": -1.3274097446,
				"y": -1.144977281,
				"z": 1.7993985112,
				"element": "H" 
			},
			{
				"x": -1.757794995,
				"y": -1.9330791922,
				"z": -1.4990836845,
				"element": "H" 
			},
			{
				"x": -1.3388272493,
				"y": -3.000162173,
				"z": -0.1519106013,
				"element": "H" 
			},
			{
				"x": -2.2189370755,
				"y": -1.4917676068,
				"z": 0.1287811285,
				"element": "H" 
			},
			{
				"x": 0.096729768,
				"y": -2.7345787443,
				"z": -2.4846473974,
				"element": "H" 
			},
			{
				"x": 1.28186325,
				"y": -1.856283273,
				"z": -3.2440008926,
				"element": "H" 
			},
			{
				"x": 2.6670117388,
				"y": -0.3437262879,
				"z": -2.1266506988,
				"element": "H" 
			},
			{
				"x": 3.1474657167,
				"y": 0.9119639261,
				"z": -0.0525555054,
				"element": "H" 
			}
		],
		 "valence_orbital": [ 
			{
				"type": "occ",
				"energy": -0.33761,
				"method": "rhf"
			},
			{
				"type": "occ",
				"energy": -0.32953,
				"method": "rhf"
			},
			{
				"type": "occ",
				"energy": -0.27958,
				"method": "rhf"
			},
			{
				"type": "occ",
				"energy": -0.21336,
				"method": "rhf"
			},
			{
				"type": "occ",
				"energy": -0.18898,
				"method": "rhf"
			},
			{
				"type": "unocc",
				"energy": 0.01792,
				"method": "rhf"
			},
			{
				"type": "unocc",
				"energy": 0.0321,
				"method": "rhf"
			},
			{
				"type": "unocc",
				"energy": 0.0643,
				"method": "rhf"
			},
			{
				"type": "unocc",
				"energy": 0.09529,
				"method": "rhf"
			},
			{
				"type": "unocc",
				"energy": 0.1126,
				"method": "rhf"
			}
		],
		"cosmo_sigma_profile": { 
			"-0.025": 0.0,
			"-0.024": 0.0,
			"-0.023": 0.0,
			"-0.022": 0.0,
			"-0.021": 0.0,
			"-0.02": 0.0,
			"-0.019": 0.0,
			"-0.018": 0.0,
			"-0.017": 0.0,
			"-0.016": 0.289324556086,
			"-0.015": 0.844695967531,
			"-0.014": 0.873944208319,
			"-0.013": 0.985013657414,
			"-0.012": 1.81320129523,
			"-0.011": 2.8160518631,
			"-0.01": 3.50900338474,
			"-0.009": 4.23721032157,
			"-0.008": 4.35956837161,
			"-0.007": 3.32318596008,
			"-0.006": 3.73634159457,
			"-0.005": 7.09906560144,
			"-0.004": 11.6524916433,
			"-0.003": 14.8492359437,
			"-0.002": 13.9319878337,
			"-0.001": 12.7206529051,
			"0.0": 14.0797042948,
			"0.001": 13.405075225,
			"0.002": 8.99937234733,
			"0.003": 7.22331372052,
			"0.004": 8.2318191524,
			"0.005": 9.66227356819,
			"0.006": 9.09001848344,
			"0.007": 9.5288313705,
			"0.008": 5.97884175051,
			"0.009": 2.54952349587,
			"0.01": 2.60236465042,
			"0.011": 2.23095432226,
			"0.012": 0.65211678298,
			"0.013": 0.880649815519,
			"0.014": 0.5943251064,
			"0.015": 0.415955502523,
			"0.016": 0.1322444699,
			"0.017": 0.0,
			"0.018": 0.0,
			"0.019": 0.0,
			"0.02": 0.0,
			"0.021": 0.0,
			"0.022": 0.0,
			"0.023": 0.0,
			"0.024": 0.0,
			"0.025": 0.0
		}
	}
}
