{
	 "smiles": "CC1=CC=CC=C1NCCNC1=CC=CC=C1C", 
	 "Tm": 345.15, 
	 "num_atms": 38, 
	 "gaussian": { 
		 "optdone": 1, 
		 "sigma_profile": "yes", 
		 "theory": "DFT", 
		 "functional": "B3LYP", 
		 "basiset": "6-31G**", 
		 "properties": { 
			 "R2extent": 7340.3396, 
			 "electric_dipole_moment_norm": 1.53117566595, 
			 "electric_quadrupole_moment_norm": 6.53193028744, 
			 "total_energy": -731.27045833, 
			 "HOMO_LUMO_gap": 0.20361, 
			 "cosmo_polarized_energy": -10.07, 
			 "cosmo_cavitation_energy": 39.65, 
			 "cosmo_dispersion_energy": -27.85, 
			 "cosmo_repulsion_energy": 2.15, 
			 "cosmo_total_nonelectrostatic_energy": 13.96, 
			 "SMD_solvation_energy": 5.34 
		},
		"coords": [
			{
				"x": -3.6372650012,
				"y": -0.2359787961,
				"z": -0.7109740001,
				"element": "C" 
			},
			{
				"x": -3.4210309068,
				"y": 1.1210827849,
				"z": -0.0863728723,
				"element": "C" 
			},
			{
				"x": -4.4119277334,
				"y": 1.7118328653,
				"z": 0.6984223318,
				"element": "C" 
			},
			{
				"x": -4.2356917951,
				"y": 2.9621841481,
				"z": 1.2958078477,
				"element": "C" 
			},
			{
				"x": -3.0323223683,
				"y": 3.6354537558,
				"z": 1.1021667963,
				"element": "C" 
			},
			{
				"x": -2.0227860086,
				"y": 3.0722833889,
				"z": 0.3210119695,
				"element": "C" 
			},
			{
				"x": -2.2003604104,
				"y": 1.8169002519,
				"z": -0.2846857621,
				"element": "C" 
			},
			{
				"x": -1.1970377484,
				"y": 1.214501835,
				"z": -1.0535521764,
				"element": "N" 
			},
			{
				"x": -0.0329029881,
				"y": 1.942687661,
				"z": -1.5506740005,
				"element": "C" 
			},
			{
				"x": 1.1556704715,
				"y": 1.8982658094,
				"z": -0.5825194273,
				"element": "C" 
			},
			{
				"x": 1.5357914884,
				"y": 0.5015979524,
				"z": -0.3439050001,
				"element": "N" 
			},
			{
				"x": 2.5792733968,
				"y": 0.2469906014,
				"z": 0.5847974453,
				"element": "C" 
			},
			{
				"x": 2.2874002413,
				"y": -0.3619145371,
				"z": 1.8157209582,
				"element": "C" 
			},
			{
				"x": 3.2952022349,
				"y": -0.6753329942,
				"z": 2.7252885822,
				"element": "C" 
			},
			{
				"x": 4.6203844758,
				"y": -0.3652076047,
				"z": 2.4213475638,
				"element": "C" 
			},
			{
				"x": 4.9172200667,
				"y": 0.2338606371,
				"z": 1.1968986413,
				"element": "C" 
			},
			{
				"x": 3.9237912664,
				"y": 0.5399325097,
				"z": 0.2594105637,
				"element": "C" 
			},
			{
				"x": 4.2994086345,
				"y": 1.1188658717,
				"z": -1.0829202026,
				"element": "C" 
			},
			{
				"x": -2.8591904394,
				"y": -0.950553049,
				"z": -0.4124979065,
				"element": "H" 
			},
			{
				"x": -4.6027703724,
				"y": -0.6524761497,
				"z": -0.4137185332,
				"element": "H" 
			},
			{
				"x": -3.6308713275,
				"y": -0.1949243572,
				"z": -1.8102382797,
				"element": "H" 
			},
			{
				"x": -5.3456329028,
				"y": 1.1733588968,
				"z": 0.8440840717,
				"element": "H" 
			},
			{
				"x": -5.0234354571,
				"y": 3.3957262123,
				"z": 1.9038995089,
				"element": "H" 
			},
			{
				"x": -2.8679761245,
				"y": 4.607304737,
				"z": 1.5594466046,
				"element": "H" 
			},
			{
				"x": -1.0922073686,
				"y": 3.6126120091,
				"z": 0.1909156801,
				"element": "H" 
			},
			{
				"x": -1.5423511104,
				"y": 0.5160283538,
				"z": -1.6935612465,
				"element": "H" 
			},
			{
				"x": 0.2759087195,
				"y": 1.4649714423,
				"z": -2.4855406792,
				"element": "H" 
			},
			{
				"x": -0.283530707,
				"y": 2.98760679,
				"z": -1.781743254,
				"element": "H" 
			},
			{
				"x": 0.9036198279,
				"y": 2.4214514985,
				"z": 0.3541989623,
				"element": "H" 
			},
			{
				"x": 1.9906199079,
				"y": 2.4389179592,
				"z": -1.037940923,
				"element": "H" 
			},
			{
				"x": 0.6922756972,
				"y": 0.0072060192,
				"z": -0.0640802257,
				"element": "H" 
			},
			{
				"x": 1.2503693003,
				"y": -0.5851765441,
				"z": 2.0575228225,
				"element": "H" 
			},
			{
				"x": 3.0424247458,
				"y": -1.1493385784,
				"z": 3.6696308653,
				"element": "H" 
			},
			{
				"x": 5.4166678492,
				"y": -0.5977997125,
				"z": 3.1222488827,
				"element": "H" 
			},
			{
				"x": 5.9525865139,
				"y": 0.4529987405,
				"z": 0.9455200283,
				"element": "H" 
			},
			{
				"x": 3.6440385858,
				"y": 0.7273932135,
				"z": -1.8672911292,
				"element": "H" 
			},
			{
				"x": 5.3343485468,
				"y": 0.8710699242,
				"z": -1.3362424668,
				"element": "H" 
			},
			{
				"x": 4.2176887994,
				"y": 2.2135164542,
				"z": -1.1046820409,
				"element": "H" 
			}
		],
		 "valence_orbital": [ 
			{
				"type": "occ",
				"energy": -0.2658,
				"method": "rhf"
			},
			{
				"type": "occ",
				"energy": -0.23732,
				"method": "rhf"
			},
			{
				"type": "occ",
				"energy": -0.23344,
				"method": "rhf"
			},
			{
				"type": "occ",
				"energy": -0.20262,
				"method": "rhf"
			},
			{
				"type": "occ",
				"energy": -0.19594,
				"method": "rhf"
			},
			{
				"type": "unocc",
				"energy": 0.00767,
				"method": "rhf"
			},
			{
				"type": "unocc",
				"energy": 0.00984,
				"method": "rhf"
			},
			{
				"type": "unocc",
				"energy": 0.01461,
				"method": "rhf"
			},
			{
				"type": "unocc",
				"energy": 0.02067,
				"method": "rhf"
			},
			{
				"type": "unocc",
				"energy": 0.07053,
				"method": "rhf"
			}
		],
		"cosmo_sigma_profile": { 
			"-0.025": 0.0,
			"-0.024": 0.0,
			"-0.023": 0.0,
			"-0.022": 0.0,
			"-0.021": 0.0,
			"-0.02": 0.0,
			"-0.019": 0.0,
			"-0.018": 0.0,
			"-0.017": 0.0,
			"-0.016": 0.0,
			"-0.015": 0.0,
			"-0.014": 0.0,
			"-0.013": 0.0,
			"-0.012": 0.462934511994,
			"-0.011": 0.837155253659,
			"-0.01": 1.47300302802,
			"-0.009": 2.14354560061,
			"-0.008": 2.59475774929,
			"-0.007": 3.0587202165,
			"-0.006": 3.83872073556,
			"-0.005": 17.1472795957,
			"-0.004": 30.7027968432,
			"-0.003": 34.2656229189,
			"-0.002": 34.2396500473,
			"-0.001": 30.117532896,
			"0.0": 28.6591322174,
			"0.001": 21.0944347112,
			"0.002": 16.4343700779,
			"0.003": 14.5397537682,
			"0.004": 15.6546787593,
			"0.005": 15.0137198384,
			"0.006": 15.9462520057,
			"0.007": 15.4103874957,
			"0.008": 6.20479136367,
			"0.009": 0.516077244422,
			"0.01": 0.604183670669,
			"0.011": 0.603656398849,
			"0.012": 0.59649611902,
			"0.013": 0.207388071056,
			"0.014": 0.423181132944,
			"0.015": 0.0,
			"0.016": 0.0,
			"0.017": 0.0,
			"0.018": 0.0,
			"0.019": 0.0,
			"0.02": 0.0,
			"0.021": 0.0,
			"0.022": 0.0,
			"0.023": 0.0,
			"0.024": 0.0,
			"0.025": 0.0
		}
	}
}
