{
	 "smiles": "OC(=O)C1=NN(C=C1O)C1=C(C=CC=C1)C(F)(F)F", 
	 "Tm": 416.15, 
	 "num_atms": 26, 
	 "gaussian": { 
		 "optdone": 1, 
		 "sigma_profile": "yes", 
		 "theory": "DFT", 
		 "functional": "B3LYP", 
		 "basiset": "6-31G**", 
		 "properties": { 
			 "R2extent": 7962.2454, 
			 "electric_dipole_moment_norm": 6.31355300049, 
			 "electric_quadrupole_moment_norm": 8.64529018541, 
			 "total_energy": -1058.07522645, 
			 "HOMO_LUMO_gap": 0.16863, 
			 "cosmo_polarized_energy": -12.65, 
			 "cosmo_cavitation_energy": 32.25, 
			 "cosmo_dispersion_energy": -23.28, 
			 "cosmo_repulsion_energy": 1.72, 
			 "cosmo_total_nonelectrostatic_energy": 10.69, 
			 "SMD_solvation_energy": 7.87 
		},
		"coords": [
			{
				"x": -3.4086931355,
				"y": 1.8120757033,
				"z": -0.8385930491,
				"element": "O" 
			},
			{
				"x": -3.3546660351,
				"y": 1.0019715396,
				"z": -1.9093486809,
				"element": "C" 
			},
			{
				"x": -4.3356063348,
				"y": 0.7852811901,
				"z": -2.6050651383,
				"element": "O" 
			},
			{
				"x": -2.0614681034,
				"y": 0.3849031555,
				"z": -2.2079816644,
				"element": "C" 
			},
			{
				"x": -0.9621430778,
				"y": 0.5736046843,
				"z": -1.469471873,
				"element": "N" 
			},
			{
				"x": -0.0072985429,
				"y": -0.140761847,
				"z": -2.0915530692,
				"element": "N" 
			},
			{
				"x": -0.480808422,
				"y": -0.8026251798,
				"z": -3.2071876689,
				"element": "C" 
			},
			{
				"x": -1.8170766655,
				"y": -0.4713104677,
				"z": -3.3109800228,
				"element": "C" 
			},
			{
				"x": -2.7084889326,
				"y": -0.8667422789,
				"z": -4.2349578713,
				"element": "O" 
			},
			{
				"x": 1.2819900693,
				"y": -0.230715059,
				"z": -1.489993511,
				"element": "C" 
			},
			{
				"x": 2.4853687262,
				"y": -0.1194539431,
				"z": -2.214703797,
				"element": "C" 
			},
			{
				"x": 3.6989223864,
				"y": -0.2420250055,
				"z": -1.5280632519,
				"element": "C" 
			},
			{
				"x": 3.7329292419,
				"y": -0.445618807,
				"z": -0.1513017774,
				"element": "C" 
			},
			{
				"x": 2.5378103521,
				"y": -0.5253538481,
				"z": 0.562637723,
				"element": "C" 
			},
			{
				"x": 1.3212720597,
				"y": -0.4240972568,
				"z": -0.1049083466,
				"element": "C" 
			},
			{
				"x": 2.542139172,
				"y": 0.1442627321,
				"z": -3.7022655272,
				"element": "C" 
			},
			{
				"x": 2.289380634,
				"y": -0.9806667704,
				"z": -4.4236888392,
				"element": "F" 
			},
			{
				"x": 1.6539926545,
				"y": 1.0769928723,
				"z": -4.0932359154,
				"element": "F" 
			},
			{
				"x": 3.764094472,
				"y": 0.5710533858,
				"z": -4.0807565169,
				"element": "F" 
			},
			{
				"x": -2.5205297493,
				"y": 1.8516751036,
				"z": -0.4428378232,
				"element": "H" 
			},
			{
				"x": 0.1511322129,
				"y": -1.4276584463,
				"z": -3.813007781,
				"element": "H" 
			},
			{
				"x": -3.5544224524,
				"y": -0.4405506984,
				"z": -3.9865904417,
				"element": "H" 
			},
			{
				"x": 4.6228726944,
				"y": -0.1526627799,
				"z": -2.0862378705,
				"element": "H" 
			},
			{
				"x": 4.6870165174,
				"y": -0.5325445895,
				"z": 0.3582347033,
				"element": "H" 
			},
			{
				"x": 2.5480158822,
				"y": -0.6781031627,
				"z": 1.637320533,
				"element": "H" 
			},
			{
				"x": 0.3818643758,
				"y": -0.4943302269,
				"z": 0.4298374776,
				"element": "H" 
			}
		],
		 "valence_orbital": [ 
			{
				"type": "occ",
				"energy": -0.3044,
				"method": "rhf"
			},
			{
				"type": "occ",
				"energy": -0.29027,
				"method": "rhf"
			},
			{
				"type": "occ",
				"energy": -0.28784,
				"method": "rhf"
			},
			{
				"type": "occ",
				"energy": -0.26703,
				"method": "rhf"
			},
			{
				"type": "occ",
				"energy": -0.23304,
				"method": "rhf"
			},
			{
				"type": "unocc",
				"energy": -0.06441,
				"method": "rhf"
			},
			{
				"type": "unocc",
				"energy": -0.0437,
				"method": "rhf"
			},
			{
				"type": "unocc",
				"energy": -0.0271,
				"method": "rhf"
			},
			{
				"type": "unocc",
				"energy": 0.02547,
				"method": "rhf"
			},
			{
				"type": "unocc",
				"energy": 0.07074,
				"method": "rhf"
			}
		],
		"cosmo_sigma_profile": { 
			"-0.025": 0.0,
			"-0.024": 0.0,
			"-0.023": 0.0,
			"-0.022": 0.0,
			"-0.021": 0.0,
			"-0.02": 0.0,
			"-0.019": 0.0,
			"-0.018": 0.0,
			"-0.017": 0.0801662850126,
			"-0.016": 0.57779217465,
			"-0.015": 0.883268164237,
			"-0.014": 0.483196953101,
			"-0.013": 0.297734619404,
			"-0.012": 0.616404298208,
			"-0.011": 1.04987222815,
			"-0.01": 1.19771962101,
			"-0.009": 1.39524087432,
			"-0.008": 4.53602056713,
			"-0.007": 11.5839663439,
			"-0.006": 12.8396088968,
			"-0.005": 13.0224915363,
			"-0.004": 14.3221228883,
			"-0.003": 15.3336155373,
			"-0.002": 14.2525849362,
			"-0.001": 19.6951378502,
			"0.0": 20.692359635,
			"0.001": 26.7078875253,
			"0.002": 40.7543099516,
			"0.003": 18.6970104821,
			"0.004": 4.39882183937,
			"0.005": 4.53187432907,
			"0.006": 4.92179653145,
			"0.007": 4.30390909966,
			"0.008": 5.35692245828,
			"0.009": 6.58776368393,
			"0.01": 5.35438166705,
			"0.011": 3.46901368396,
			"0.012": 1.97948654092,
			"0.013": 0.375445731095,
			"0.014": 0.0,
			"0.015": 0.0,
			"0.016": 0.0,
			"0.017": 0.0,
			"0.018": 0.0,
			"0.019": 0.0,
			"0.02": 0.0,
			"0.021": 0.0,
			"0.022": 0.0,
			"0.023": 0.0,
			"0.024": 0.0,
			"0.025": 0.0
		}
	}
}
