{
	 "smiles": "OC(=O)C1CCCCC1C(=O)NC1CCS(=O)(=O)C1", 
	 "Tm": 411.15, 
	 "num_atms": 38, 
	 "gaussian": { 
		 "optdone": 1, 
		 "sigma_profile": "yes", 
		 "theory": "DFT", 
		 "functional": "B3LYP", 
		 "basiset": "6-31G**", 
		 "properties": { 
			 "R2extent": 6003.5917, 
			 "electric_dipole_moment_norm": 3.00304444356, 
			 "electric_quadrupole_moment_norm": 24.1290821939, 
			 "total_energy": -1297.76648657, 
			 "HOMO_LUMO_gap": 0.24794, 
			 "cosmo_polarized_energy": -23.72, 
			 "cosmo_cavitation_energy": 39.07, 
			 "cosmo_dispersion_energy": -27.34, 
			 "cosmo_repulsion_energy": 2.07, 
			 "cosmo_total_nonelectrostatic_energy": 13.8, 
			 "SMD_solvation_energy": 5.82 
		},
		"coords": [
			{
				"x": -1.2368236319,
				"y": -3.1197384934,
				"z": 2.2643553181,
				"element": "O" 
			},
			{
				"x": -0.9483835663,
				"y": -2.613498561,
				"z": 1.0451335034,
				"element": "C" 
			},
			{
				"x": -1.5357660488,
				"y": -2.9677035743,
				"z": 0.0418525158,
				"element": "O" 
			},
			{
				"x": 0.1372593457,
				"y": -1.5568847703,
				"z": 1.0825089784,
				"element": "C" 
			},
			{
				"x": 1.3251994893,
				"y": -1.8940814954,
				"z": 2.0009336944,
				"element": "C" 
			},
			{
				"x": 2.4816158656,
				"y": -0.8774664637,
				"z": 1.8044564756,
				"element": "C" 
			},
			{
				"x": 2.0049622087,
				"y": 0.4541006617,
				"z": 1.1877602273,
				"element": "C" 
			},
			{
				"x": 0.6395754978,
				"y": 0.8806158743,
				"z": 1.7465940011,
				"element": "C" 
			},
			{
				"x": -0.4804978366,
				"y": -0.1849695587,
				"z": 1.5163700078,
				"element": "C" 
			},
			{
				"x": -1.5693748094,
				"y": 0.2317720739,
				"z": 0.5239167939,
				"element": "C" 
			},
			{
				"x": -2.7581785953,
				"y": 0.1998986254,
				"z": 0.8153495825,
				"element": "O" 
			},
			{
				"x": -1.1189984168,
				"y": 0.6050355985,
				"z": -0.7239195635,
				"element": "N" 
			},
			{
				"x": -2.0265048607,
				"y": 0.5563865615,
				"z": -1.8650598482,
				"element": "C" 
			},
			{
				"x": -1.7985132246,
				"y": 1.7243350566,
				"z": -2.863234788,
				"element": "C" 
			},
			{
				"x": -0.6280707058,
				"y": 1.3847898391,
				"z": -3.8130644099,
				"element": "C" 
			},
			{
				"x": -0.2960515921,
				"y": -0.4150910163,
				"z": -3.5992524603,
				"element": "S" 
			},
			{
				"x": 0.8290977759,
				"y": -0.5340154633,
				"z": -2.6383098153,
				"element": "O" 
			},
			{
				"x": -0.2435356661,
				"y": -1.1197372384,
				"z": -4.8865637163,
				"element": "O" 
			},
			{
				"x": -1.8291634578,
				"y": -0.7419019124,
				"z": -2.6721069203,
				"element": "C" 
			},
			{
				"x": -1.9730563714,
				"y": -3.7413255733,
				"z": 2.133794503,
				"element": "H" 
			},
			{
				"x": 0.4886969506,
				"y": -1.4884724629,
				"z": 0.0482375609,
				"element": "H" 
			},
			{
				"x": 0.9741454495,
				"y": -1.8868734549,
				"z": 3.0382545811,
				"element": "H" 
			},
			{
				"x": 1.6766781237,
				"y": -2.9119567857,
				"z": 1.8038418373,
				"element": "H" 
			},
			{
				"x": 2.9555211313,
				"y": -0.684320572,
				"z": 2.7737118864,
				"element": "H" 
			},
			{
				"x": 3.2566571518,
				"y": -1.3107647675,
				"z": 1.1631950838,
				"element": "H" 
			},
			{
				"x": 1.9498089881,
				"y": 0.3557817105,
				"z": 0.09607349,
				"element": "H" 
			},
			{
				"x": 2.7439718902,
				"y": 1.2399187288,
				"z": 1.3785588201,
				"element": "H" 
			},
			{
				"x": 0.3349456516,
				"y": 1.8392972192,
				"z": 1.314142469,
				"element": "H" 
			},
			{
				"x": 0.7379291988,
				"y": 1.0497573451,
				"z": 2.8249799888,
				"element": "H" 
			},
			{
				"x": -1.0192556821,
				"y": -0.3494535543,
				"z": 2.4529688754,
				"element": "H" 
			},
			{
				"x": -0.148518785,
				"y": 0.4050285964,
				"z": -0.9417089882,
				"element": "H" 
			},
			{
				"x": -3.0340121343,
				"y": 0.5946451213,
				"z": -1.4478067895,
				"element": "H" 
			},
			{
				"x": -2.712742672,
				"y": 1.858100216,
				"z": -3.4496530234,
				"element": "H" 
			},
			{
				"x": -1.6144108251,
				"y": 2.6522286516,
				"z": -2.3177711289,
				"element": "H" 
			},
			{
				"x": -0.8558956559,
				"y": 1.5537621928,
				"z": -4.8665096023,
				"element": "H" 
			},
			{
				"x": 0.3077452304,
				"y": 1.8858182807,
				"z": -3.5588983821,
				"element": "H" 
			},
			{
				"x": -1.6926790123,
				"y": -1.6295271657,
				"z": -2.0493226023,
				"element": "H" 
			},
			{
				"x": -2.6269763988,
				"y": -0.8987894702,
				"z": -3.4035081557,
				"element": "H" 
			}
		],
		 "valence_orbital": [ 
			{
				"type": "occ",
				"energy": -0.303,
				"method": "rhf"
			},
			{
				"type": "occ",
				"energy": -0.28775,
				"method": "rhf"
			},
			{
				"type": "occ",
				"energy": -0.27551,
				"method": "rhf"
			},
			{
				"type": "occ",
				"energy": -0.26295,
				"method": "rhf"
			},
			{
				"type": "occ",
				"energy": -0.24713,
				"method": "rhf"
			},
			{
				"type": "unocc",
				"energy": 0.00081,
				"method": "rhf"
			},
			{
				"type": "unocc",
				"energy": 0.01438,
				"method": "rhf"
			},
			{
				"type": "unocc",
				"energy": 0.04663,
				"method": "rhf"
			},
			{
				"type": "unocc",
				"energy": 0.05326,
				"method": "rhf"
			},
			{
				"type": "unocc",
				"energy": 0.06127,
				"method": "rhf"
			}
		],
		"cosmo_sigma_profile": { 
			"-0.025": 0.0,
			"-0.024": 0.0,
			"-0.023": 0.0,
			"-0.022": 0.0,
			"-0.021": 0.0,
			"-0.02": 0.0,
			"-0.019": 0.0767118397172,
			"-0.018": 0.835147808504,
			"-0.017": 1.10168369646,
			"-0.016": 0.565816344965,
			"-0.015": 1.11925698693,
			"-0.014": 0.524250100654,
			"-0.013": 0.363796847768,
			"-0.012": 0.960208571057,
			"-0.011": 1.15846662111,
			"-0.01": 1.54427684848,
			"-0.009": 3.43760594219,
			"-0.008": 7.4148060009,
			"-0.007": 10.5079959351,
			"-0.006": 15.9228825026,
			"-0.005": 15.5190147276,
			"-0.004": 23.1308060271,
			"-0.003": 32.7897568879,
			"-0.002": 32.5639787219,
			"-0.001": 26.4734988536,
			"0.0": 21.7006766498,
			"0.001": 12.3608599521,
			"0.002": 9.09773268135,
			"0.003": 8.05095957512,
			"0.004": 7.20735214456,
			"0.005": 6.55348574337,
			"0.006": 7.54707645578,
			"0.007": 6.27904928968,
			"0.008": 7.46749474929,
			"0.009": 5.55903158457,
			"0.01": 7.88540806353,
			"0.011": 12.454370716,
			"0.012": 9.31508425643,
			"0.013": 5.1671028546,
			"0.014": 1.95793490312,
			"0.015": 0.137562461271,
			"0.016": 0.0,
			"0.017": 0.0,
			"0.018": 0.0,
			"0.019": 0.0,
			"0.02": 0.0,
			"0.021": 0.0,
			"0.022": 0.0,
			"0.023": 0.0,
			"0.024": 0.0,
			"0.025": 0.0
		}
	}
}
