{
	 "smiles": "CN(C)C1=CC(OC2=CC=C(C=C2)C(N)=S)=CC=C1", 
	 "Tm": 456.15, 
	 "num_atms": 35, 
	 "gaussian": { 
		 "optdone": 1, 
		 "sigma_profile": "yes", 
		 "theory": "DFT", 
		 "functional": "B3LYP", 
		 "basiset": "6-31G**", 
		 "properties": { 
			 "R2extent": 9202.3993, 
			 "electric_dipole_moment_norm": 3.38303670982, 
			 "electric_quadrupole_moment_norm": 42.2097076045, 
			 "total_energy": -1164.14929899, 
			 "HOMO_LUMO_gap": 0.14535, 
			 "cosmo_polarized_energy": -18.42, 
			 "cosmo_cavitation_energy": 40.2, 
			 "cosmo_dispersion_energy": -29.03, 
			 "cosmo_repulsion_energy": 2.2, 
			 "cosmo_total_nonelectrostatic_energy": 13.38, 
			 "SMD_solvation_energy": 5.75 
		},
		"coords": [
			{
				"x": 2.4290062768,
				"y": -4.6914194319,
				"z": 1.7338999156,
				"element": "C" 
			},
			{
				"x": 1.5273282039,
				"y": -3.9612814408,
				"z": 0.8593689789,
				"element": "N" 
			},
			{
				"x": 0.2501721635,
				"y": -4.5636219059,
				"z": 0.5152471561,
				"element": "C" 
			},
			{
				"x": 1.7141666726,
				"y": -2.6007258946,
				"z": 0.6670862539,
				"element": "C" 
			},
			{
				"x": 0.7631614436,
				"y": -1.8293264922,
				"z": -0.0380337934,
				"element": "C" 
			},
			{
				"x": 0.9788972349,
				"y": -0.4690116036,
				"z": -0.2411096868,
				"element": "C" 
			},
			{
				"x": 0.0701092199,
				"y": 0.2624436286,
				"z": -1.0038702098,
				"element": "O" 
			},
			{
				"x": -1.194140229,
				"y": 0.4974135783,
				"z": -0.5361596732,
				"element": "C" 
			},
			{
				"x": -1.586093542,
				"y": 0.3107471524,
				"z": 0.7962032357,
				"element": "C" 
			},
			{
				"x": -2.8911928891,
				"y": 0.6030451872,
				"z": 1.1741888369,
				"element": "C" 
			},
			{
				"x": -3.8269479881,
				"y": 1.1013964144,
				"z": 0.253506754,
				"element": "C" 
			},
			{
				"x": -3.4108357692,
				"y": 1.2823808417,
				"z": -1.0801598511,
				"element": "C" 
			},
			{
				"x": -2.1143317192,
				"y": 0.9805790015,
				"z": -1.4753378252,
				"element": "C" 
			},
			{
				"x": -5.2107684001,
				"y": 1.4169245922,
				"z": 0.6849516296,
				"element": "C" 
			},
			{
				"x": -5.8459327108,
				"y": 2.3613231431,
				"z": -0.0518673951,
				"element": "N" 
			},
			{
				"x": -5.9840144726,
				"y": 0.6618655822,
				"z": 1.9612965814,
				"element": "S" 
			},
			{
				"x": 2.1155495532,
				"y": 0.1832368734,
				"z": 0.2266507111,
				"element": "C" 
			},
			{
				"x": 3.0540622036,
				"y": -0.5777083338,
				"z": 0.9260554523,
				"element": "C" 
			},
			{
				"x": 2.8663505601,
				"y": -1.9370458353,
				"z": 1.1546778641,
				"element": "C" 
			},
			{
				"x": 2.411535031,
				"y": -4.3228509076,
				"z": 2.7712868414,
				"element": "H" 
			},
			{
				"x": 3.4625345339,
				"y": -4.6344808949,
				"z": 1.3728204096,
				"element": "H" 
			},
			{
				"x": 2.1432537753,
				"y": -5.7442067118,
				"z": 1.7427253143,
				"element": "H" 
			},
			{
				"x": -0.5910276671,
				"y": -4.1309729365,
				"z": 1.0781358551,
				"element": "H" 
			},
			{
				"x": 0.0341774485,
				"y": -4.4509372161,
				"z": -0.5538399964,
				"element": "H" 
			},
			{
				"x": 0.2891143463,
				"y": -5.6323952741,
				"z": 0.7299648477,
				"element": "H" 
			},
			{
				"x": -0.1399295808,
				"y": -2.2714539113,
				"z": -0.4373910965,
				"element": "H" 
			},
			{
				"x": -0.8745456304,
				"y": -0.0580099242,
				"z": 1.5253284937,
				"element": "H" 
			},
			{
				"x": -3.2062064856,
				"y": 0.455516879,
				"z": 2.2014836238,
				"element": "H" 
			},
			{
				"x": -4.1204395533,
				"y": 1.6141600729,
				"z": -1.832505542,
				"element": "H" 
			},
			{
				"x": -1.7960757255,
				"y": 1.0986413922,
				"z": -2.505680638,
				"element": "H" 
			},
			{
				"x": -6.7769656238,
				"y": 2.6291654718,
				"z": 0.2317457183,
				"element": "H" 
			},
			{
				"x": -5.329233217,
				"y": 2.9885990109,
				"z": -0.6503206282,
				"element": "H" 
			},
			{
				"x": 2.2489202864,
				"y": 1.2429482303,
				"z": 0.0429843667,
				"element": "H" 
			},
			{
				"x": 3.9509566713,
				"y": -0.0995457822,
				"z": 1.3096321386,
				"element": "H" 
			},
			{
				"x": 3.6178855788,
				"y": -2.4821925555,
				"z": 1.7111353572,
				"element": "H" 
			}
		],
		 "valence_orbital": [ 
			{
				"type": "occ",
				"energy": -0.25096,
				"method": "rhf"
			},
			{
				"type": "occ",
				"energy": -0.23393,
				"method": "rhf"
			},
			{
				"type": "occ",
				"energy": -0.21708,
				"method": "rhf"
			},
			{
				"type": "occ",
				"energy": -0.19926,
				"method": "rhf"
			},
			{
				"type": "occ",
				"energy": -0.19616,
				"method": "rhf"
			},
			{
				"type": "unocc",
				"energy": -0.05081,
				"method": "rhf"
			},
			{
				"type": "unocc",
				"energy": -0.01246,
				"method": "rhf"
			},
			{
				"type": "unocc",
				"energy": 0.00065,
				"method": "rhf"
			},
			{
				"type": "unocc",
				"energy": 0.01409,
				"method": "rhf"
			},
			{
				"type": "unocc",
				"energy": 0.03507,
				"method": "rhf"
			}
		],
		"cosmo_sigma_profile": { 
			"-0.025": 0.0,
			"-0.024": 0.0,
			"-0.023": 0.0,
			"-0.022": 0.0,
			"-0.021": 0.0,
			"-0.02": 0.0,
			"-0.019": 0.0,
			"-0.018": 0.0,
			"-0.017": 0.0,
			"-0.016": 0.0351955026773,
			"-0.015": 1.39245760225,
			"-0.014": 2.34535244503,
			"-0.013": 2.47093017619,
			"-0.012": 2.88579241788,
			"-0.011": 2.45448265725,
			"-0.01": 2.32374775066,
			"-0.009": 1.68579364609,
			"-0.008": 2.21363198995,
			"-0.007": 4.79537777796,
			"-0.006": 13.1451543955,
			"-0.005": 19.9638762739,
			"-0.004": 23.5945275513,
			"-0.003": 26.9740712273,
			"-0.002": 27.0389316774,
			"-0.001": 24.5972875405,
			"0.0": 20.4816590205,
			"0.001": 19.4208294838,
			"0.002": 19.1657304686,
			"0.003": 22.9197868709,
			"0.004": 20.6887469562,
			"0.005": 15.3295542495,
			"0.006": 13.3506818307,
			"0.007": 7.71750675143,
			"0.008": 6.57604049034,
			"0.009": 7.43168452096,
			"0.01": 5.50642935978,
			"0.011": 3.97862890277,
			"0.012": 2.10730443184,
			"0.013": 0.140992332838,
			"0.014": 0.0,
			"0.015": 0.0,
			"0.016": 0.0,
			"0.017": 0.0,
			"0.018": 0.0,
			"0.019": 0.0,
			"0.02": 0.0,
			"0.021": 0.0,
			"0.022": 0.0,
			"0.023": 0.0,
			"0.024": 0.0,
			"0.025": 0.0
		}
	}
}
