{
	 "smiles": "NC(=O)C1=C(F)C=C(N)C=C1", 
	 "Tm": 422.15, 
	 "num_atms": 18, 
	 "gaussian": { 
		 "optdone": 1, 
		 "sigma_profile": "yes", 
		 "theory": "DFT", 
		 "functional": "B3LYP", 
		 "basiset": "6-31G**", 
		 "properties": { 
			 "R2extent": 2655.4593, 
			 "electric_dipole_moment_norm": 4.62384034975, 
			 "electric_quadrupole_moment_norm": 9.9383886692, 
			 "total_energy": -555.551803311, 
			 "HOMO_LUMO_gap": 0.19503, 
			 "cosmo_polarized_energy": -16.25, 
			 "cosmo_cavitation_energy": 22.57, 
			 "cosmo_dispersion_energy": -17.05, 
			 "cosmo_repulsion_energy": 1.35, 
			 "cosmo_total_nonelectrostatic_energy": 6.88, 
			 "SMD_solvation_energy": 4.98 
		},
		"coords": [
			{
				"x": 0.6036931871,
				"y": 3.8522127793,
				"z": -1.5309017971,
				"element": "N" 
			},
			{
				"x": -0.0983832869,
				"y": 2.7513541294,
				"z": -1.1361095122,
				"element": "C" 
			},
			{
				"x": -1.3225778061,
				"y": 2.701266265,
				"z": -1.2260844246,
				"element": "O" 
			},
			{
				"x": 0.6805272089,
				"y": 1.5934590322,
				"z": -0.5812663896,
				"element": "C" 
			},
			{
				"x": 2.0654903286,
				"y": 1.5021905543,
				"z": -0.4130591311,
				"element": "C" 
			},
			{
				"x": 2.8717442039,
				"y": 2.5441189621,
				"z": -0.7701735932,
				"element": "F" 
			},
			{
				"x": 2.70602528,
				"y": 0.3928652996,
				"z": 0.1135310845,
				"element": "C" 
			},
			{
				"x": 1.9451930948,
				"y": -0.7206127898,
				"z": 0.5074550535,
				"element": "C" 
			},
			{
				"x": 2.56250556,
				"y": -1.8633640175,
				"z": 0.988375106,
				"element": "N" 
			},
			{
				"x": 0.5448964497,
				"y": -0.6646375497,
				"z": 0.3513077051,
				"element": "C" 
			},
			{
				"x": -0.0552520624,
				"y": 0.4648069258,
				"z": -0.178608077,
				"element": "C" 
			},
			{
				"x": 1.6066463343,
				"y": 3.9009059032,
				"z": -1.4734287136,
				"element": "H" 
			},
			{
				"x": 0.0729069549,
				"y": 4.6199239753,
				"z": -1.9106708628,
				"element": "H" 
			},
			{
				"x": 3.7870630934,
				"y": 0.4041772508,
				"z": 0.2061182492,
				"element": "H" 
			},
			{
				"x": 3.4911438134,
				"y": -1.7528359438,
				"z": 1.3683789311,
				"element": "H" 
			},
			{
				"x": 1.983718384,
				"y": -2.4933516582,
				"z": 1.5243125229,
				"element": "H" 
			},
			{
				"x": -0.061250521,
				"y": -1.5166837997,
				"z": 0.6465907276,
				"element": "H" 
			},
			{
				"x": -1.1316902165,
				"y": 0.5205046816,
				"z": -0.3011668788,
				"element": "H" 
			}
		],
		 "valence_orbital": [ 
			{
				"type": "occ",
				"energy": -0.31165,
				"method": "rhf"
			},
			{
				"type": "occ",
				"energy": -0.25563,
				"method": "rhf"
			},
			{
				"type": "occ",
				"energy": -0.25117,
				"method": "rhf"
			},
			{
				"type": "occ",
				"energy": -0.24265,
				"method": "rhf"
			},
			{
				"type": "occ",
				"energy": -0.21657,
				"method": "rhf"
			},
			{
				"type": "unocc",
				"energy": -0.02154,
				"method": "rhf"
			},
			{
				"type": "unocc",
				"energy": -0.00274,
				"method": "rhf"
			},
			{
				"type": "unocc",
				"energy": 0.06505,
				"method": "rhf"
			},
			{
				"type": "unocc",
				"energy": 0.08176,
				"method": "rhf"
			},
			{
				"type": "unocc",
				"energy": 0.09252,
				"method": "rhf"
			}
		],
		"cosmo_sigma_profile": { 
			"-0.025": 0.0,
			"-0.024": 0.0,
			"-0.023": 0.0,
			"-0.022": 0.0,
			"-0.021": 0.0,
			"-0.02": 0.0,
			"-0.019": 0.0,
			"-0.018": 0.0,
			"-0.017": 0.0,
			"-0.016": 0.0,
			"-0.015": 0.0,
			"-0.014": 0.688227580493,
			"-0.013": 3.6710433266,
			"-0.012": 4.24855990666,
			"-0.011": 4.85245357289,
			"-0.01": 5.72162343958,
			"-0.009": 5.21527214179,
			"-0.008": 4.37182301482,
			"-0.007": 5.21541793634,
			"-0.006": 6.47026583209,
			"-0.005": 5.69295202959,
			"-0.004": 7.57294158649,
			"-0.003": 6.51290933105,
			"-0.002": 7.10711785959,
			"-0.001": 8.47043397264,
			"0.0": 9.27171362403,
			"0.001": 14.3654037426,
			"0.002": 12.6426756331,
			"0.003": 19.3193515375,
			"0.004": 16.5327249448,
			"0.005": 6.40085531541,
			"0.006": 2.58104233142,
			"0.007": 1.98199459722,
			"0.008": 1.9260782988,
			"0.009": 2.62291038594,
			"0.01": 2.13602017909,
			"0.011": 2.11801879634,
			"0.012": 2.11150312931,
			"0.013": 2.53797343621,
			"0.014": 5.65412198589,
			"0.015": 1.83525980299,
			"0.016": 0.0208938177549,
			"0.017": 0.0,
			"0.018": 0.0,
			"0.019": 0.0,
			"0.02": 0.0,
			"0.021": 0.0,
			"0.022": 0.0,
			"0.023": 0.0,
			"0.024": 0.0,
			"0.025": 0.0
		}
	}
}
