{
	 "smiles": "OC(=O)CNC(=O)C1=CC=NC=C1", 
	 "Tm": 504.15, 
	 "num_atms": 21, 
	 "gaussian": { 
		 "optdone": 1, 
		 "sigma_profile": "yes", 
		 "theory": "DFT", 
		 "functional": "B3LYP", 
		 "basiset": "6-31G**", 
		 "properties": { 
			 "R2extent": 2979.7437, 
			 "electric_dipole_moment_norm": 2.38512139104, 
			 "electric_quadrupole_moment_norm": 13.3751002415, 
			 "total_energy": -644.854710706, 
			 "HOMO_LUMO_gap": 0.19444, 
			 "cosmo_polarized_energy": -21.07, 
			 "cosmo_cavitation_energy": 26.07, 
			 "cosmo_dispersion_energy": -18.7, 
			 "cosmo_repulsion_energy": 1.49, 
			 "cosmo_total_nonelectrostatic_energy": 8.86, 
			 "SMD_solvation_energy": 5.2 
		},
		"coords": [
			{
				"x": 0.5057801264,
				"y": -0.4477174684,
				"z": 3.6484173855,
				"element": "O" 
			},
			{
				"x": 0.4012776123,
				"y": 0.8127806053,
				"z": 3.1796277635,
				"element": "C" 
			},
			{
				"x": 0.8418677311,
				"y": 1.7668411408,
				"z": 3.7676249427,
				"element": "O" 
			},
			{
				"x": -0.2979872746,
				"y": 0.9453360719,
				"z": 1.8174827016,
				"element": "C" 
			},
			{
				"x": -0.9105424528,
				"y": -0.2983175988,
				"z": 1.3445441852,
				"element": "N" 
			},
			{
				"x": -0.6491405255,
				"y": -0.9233921497,
				"z": 0.1215703334,
				"element": "C" 
			},
			{
				"x": -1.5297834305,
				"y": -1.5499082975,
				"z": -0.4452166519,
				"element": "O" 
			},
			{
				"x": 0.7432818744,
				"y": -0.8545036018,
				"z": -0.4386853051,
				"element": "C" 
			},
			{
				"x": 0.8873465295,
				"y": -0.8912371141,
				"z": -1.8301640825,
				"element": "C" 
			},
			{
				"x": 2.1715442182,
				"y": -0.8820761799,
				"z": -2.3704285986,
				"element": "C" 
			},
			{
				"x": 3.2894453293,
				"y": -0.8619543504,
				"z": -1.6313088226,
				"element": "N" 
			},
			{
				"x": 3.1429700042,
				"y": -0.8532986606,
				"z": -0.3020466224,
				"element": "C" 
			},
			{
				"x": 1.9042096565,
				"y": -0.8440604252,
				"z": 0.3433651999,
				"element": "C" 
			},
			{
				"x": 0.0345934102,
				"y": -1.029329555,
				"z": 3.0211985872,
				"element": "H" 
			},
			{
				"x": 0.4487466644,
				"y": 1.2967119592,
				"z": 1.1021384073,
				"element": "H" 
			},
			{
				"x": -1.0473716563,
				"y": 1.7373922427,
				"z": 1.9065498287,
				"element": "H" 
			},
			{
				"x": -1.8977805742,
				"y": -0.3969901388,
				"z": 1.5602322885,
				"element": "H" 
			},
			{
				"x": 0.0085012111,
				"y": -0.9325635403,
				"z": -2.4638829821,
				"element": "H" 
			},
			{
				"x": 2.3108649579,
				"y": -0.8966977705,
				"z": -3.4495089331,
				"element": "H" 
			},
			{
				"x": 4.0598716781,
				"y": -0.8545748433,
				"z": 0.2839375545,
				"element": "H" 
			},
			{
				"x": 1.8634049104,
				"y": -0.8558403256,
				"z": 1.4271528203,
				"element": "H" 
			}
		],
		 "valence_orbital": [ 
			{
				"type": "occ",
				"energy": -0.31011,
				"method": "rhf"
			},
			{
				"type": "occ",
				"energy": -0.29336,
				"method": "rhf"
			},
			{
				"type": "occ",
				"energy": -0.28285,
				"method": "rhf"
			},
			{
				"type": "occ",
				"energy": -0.27442,
				"method": "rhf"
			},
			{
				"type": "occ",
				"energy": -0.26845,
				"method": "rhf"
			},
			{
				"type": "unocc",
				"energy": -0.07401,
				"method": "rhf"
			},
			{
				"type": "unocc",
				"energy": -0.03268,
				"method": "rhf"
			},
			{
				"type": "unocc",
				"energy": -0.00441,
				"method": "rhf"
			},
			{
				"type": "unocc",
				"energy": 0.01535,
				"method": "rhf"
			},
			{
				"type": "unocc",
				"energy": 0.05021,
				"method": "rhf"
			}
		],
		"cosmo_sigma_profile": { 
			"-0.025": 0.0,
			"-0.024": 0.0,
			"-0.023": 0.0,
			"-0.022": 0.0,
			"-0.021": 0.0,
			"-0.02": 0.0,
			"-0.019": 0.0,
			"-0.018": 0.0,
			"-0.017": 0.0,
			"-0.016": 0.0118752636598,
			"-0.015": 1.31149864969,
			"-0.014": 2.4211930349,
			"-0.013": 2.37724815689,
			"-0.012": 2.76911682703,
			"-0.011": 3.13287367971,
			"-0.01": 4.49226935519,
			"-0.009": 4.47816426015,
			"-0.008": 6.60322443475,
			"-0.007": 14.1300017226,
			"-0.006": 14.7263016945,
			"-0.005": 11.8499284428,
			"-0.004": 10.4162568709,
			"-0.003": 9.80996301509,
			"-0.002": 7.51098202206,
			"-0.001": 10.0022120317,
			"0.0": 11.3867687462,
			"0.001": 13.9923532779,
			"0.002": 6.79716342039,
			"0.003": 6.56585336784,
			"0.004": 5.33215486887,
			"0.005": 4.80952407644,
			"0.006": 4.61494516178,
			"0.007": 4.95264418249,
			"0.008": 5.09737792101,
			"0.009": 6.6955043245,
			"0.01": 7.70705462812,
			"0.011": 8.92283253853,
			"0.012": 10.3573323862,
			"0.013": 2.61880899512,
			"0.014": 1.26197154272,
			"0.015": 0.832070550294,
			"0.016": 0.464194796638,
			"0.017": 0.0174997932328,
			"0.018": 0.0,
			"0.019": 0.0,
			"0.02": 0.0,
			"0.021": 0.0,
			"0.022": 0.0,
			"0.023": 0.0,
			"0.024": 0.0,
			"0.025": 0.0
		}
	}
}
