{
	 "smiles": "NC(=O)N1CCN(CC1)C1=C(F)C=CC=C1", 
	 "Tm": 424.15, 
	 "num_atms": 30, 
	 "gaussian": { 
		 "optdone": 1, 
		 "sigma_profile": "yes", 
		 "theory": "DFT", 
		 "functional": "B3LYP", 
		 "basiset": "6-31G**", 
		 "properties": { 
			 "R2extent": 4945.2315, 
			 "electric_dipole_moment_norm": 3.29738146413, 
			 "electric_quadrupole_moment_norm": 17.1394943315, 
			 "total_energy": -766.929486472, 
			 "HOMO_LUMO_gap": 0.19664, 
			 "cosmo_polarized_energy": -15.7, 
			 "cosmo_cavitation_energy": 32.17, 
			 "cosmo_dispersion_energy": -23.73, 
			 "cosmo_repulsion_energy": 1.82, 
			 "cosmo_total_nonelectrostatic_energy": 10.26, 
			 "SMD_solvation_energy": 4.76 
		},
		"coords": [
			{
				"x": -2.4361362005,
				"y": -1.7159905287,
				"z": -2.3271930585,
				"element": "N" 
			},
			{
				"x": -2.6650259735,
				"y": -0.6282025787,
				"z": -1.4842468766,
				"element": "C" 
			},
			{
				"x": -3.7634294423,
				"y": -0.0859680048,
				"z": -1.4085562047,
				"element": "O" 
			},
			{
				"x": -1.5893368604,
				"y": -0.2406321453,
				"z": -0.7167044851,
				"element": "N" 
			},
			{
				"x": -1.7424393874,
				"y": 0.9214603093,
				"z": 0.1554283572,
				"element": "C" 
			},
			{
				"x": -0.4062403698,
				"y": 1.6450976235,
				"z": 0.292305233,
				"element": "C" 
			},
			{
				"x": 0.5973836652,
				"y": 0.7585961587,
				"z": 0.8759817098,
				"element": "N" 
			},
			{
				"x": 0.4048225877,
				"y": -0.6792605588,
				"z": 0.6557090101,
				"element": "C" 
			},
			{
				"x": -0.3163491463,
				"y": -0.9547460078,
				"z": -0.6675446667,
				"element": "C" 
			},
			{
				"x": 1.8204097392,
				"y": 1.2881839519,
				"z": 1.2797688639,
				"element": "C" 
			},
			{
				"x": 2.6891939389,
				"y": 0.5959082308,
				"z": 2.1513371219,
				"element": "C" 
			},
			{
				"x": 2.3171736841,
				"y": -0.6268123994,
				"z": 2.6215144687,
				"element": "F" 
			},
			{
				"x": 3.90233482,
				"y": 1.1082838115,
				"z": 2.5761804346,
				"element": "C" 
			},
			{
				"x": 4.3001148473,
				"y": 2.3832530609,
				"z": 2.1659025418,
				"element": "C" 
			},
			{
				"x": 3.456894285,
				"y": 3.1127230415,
				"z": 1.3307393794,
				"element": "C" 
			},
			{
				"x": 2.2453377626,
				"y": 2.5764936424,
				"z": 0.8921622869,
				"element": "C" 
			},
			{
				"x": -3.2058970779,
				"y": -1.8451465203,
				"z": -2.9690804437,
				"element": "H" 
			},
			{
				"x": -1.5268090066,
				"y": -1.804333156,
				"z": -2.759355626,
				"element": "H" 
			},
			{
				"x": -2.4914243566,
				"y": 1.5795007381,
				"z": -0.2877968159,
				"element": "H" 
			},
			{
				"x": -2.1131561842,
				"y": 0.6281604728,
				"z": 1.1476539855,
				"element": "H" 
			},
			{
				"x": -0.1033796108,
				"y": 2.0193831944,
				"z": -0.7007709883,
				"element": "H" 
			},
			{
				"x": -0.5347235795,
				"y": 2.5189965169,
				"z": 0.9419203395,
				"element": "H" 
			},
			{
				"x": -0.1652796594,
				"y": -1.1333620276,
				"z": 1.4774421328,
				"element": "H" 
			},
			{
				"x": 1.3736988235,
				"y": -1.176476542,
				"z": 0.6266494237,
				"element": "H" 
			},
			{
				"x": 0.3400944744,
				"y": -0.6640480351,
				"z": -1.504198841,
				"element": "H" 
			},
			{
				"x": -0.4985206137,
				"y": -2.0322309092,
				"z": -0.7441202018,
				"element": "H" 
			},
			{
				"x": 4.5069726913,
				"y": 0.5052881749,
				"z": 3.2457881027,
				"element": "H" 
			},
			{
				"x": 5.2457599653,
				"y": 2.7945749435,
				"z": 2.5029807685,
				"element": "H" 
			},
			{
				"x": 3.7414565359,
				"y": 4.1080831404,
				"z": 1.0024187475,
				"element": "H" 
			},
			{
				"x": 1.6221996486,
				"y": 3.1627224026,
				"z": 0.2273853008,
				"element": "H" 
			}
		],
		 "valence_orbital": [ 
			{
				"type": "occ",
				"energy": -0.27204,
				"method": "rhf"
			},
			{
				"type": "occ",
				"energy": -0.24941,
				"method": "rhf"
			},
			{
				"type": "occ",
				"energy": -0.24502,
				"method": "rhf"
			},
			{
				"type": "occ",
				"energy": -0.2345,
				"method": "rhf"
			},
			{
				"type": "occ",
				"energy": -0.19546,
				"method": "rhf"
			},
			{
				"type": "unocc",
				"energy": 0.00118,
				"method": "rhf"
			},
			{
				"type": "unocc",
				"energy": 0.00958,
				"method": "rhf"
			},
			{
				"type": "unocc",
				"energy": 0.0563,
				"method": "rhf"
			},
			{
				"type": "unocc",
				"energy": 0.07004,
				"method": "rhf"
			},
			{
				"type": "unocc",
				"energy": 0.0821,
				"method": "rhf"
			}
		],
		"cosmo_sigma_profile": { 
			"-0.025": 0.0,
			"-0.024": 0.0,
			"-0.023": 0.0,
			"-0.022": 0.0,
			"-0.021": 0.0,
			"-0.02": 0.0,
			"-0.019": 0.0,
			"-0.018": 0.0,
			"-0.017": 0.0,
			"-0.016": 0.0,
			"-0.015": 0.0,
			"-0.014": 0.0279876958167,
			"-0.013": 1.19917555542,
			"-0.012": 2.52387673008,
			"-0.011": 3.12659979763,
			"-0.01": 1.62561850913,
			"-0.009": 2.74487625398,
			"-0.008": 2.55452162655,
			"-0.007": 2.95684168251,
			"-0.006": 7.96448391541,
			"-0.005": 21.6331615147,
			"-0.004": 32.2233179366,
			"-0.003": 26.7238473939,
			"-0.002": 15.9949140709,
			"-0.001": 12.4579514288,
			"0.0": 12.2193222478,
			"0.001": 11.9493794713,
			"0.002": 13.7527963849,
			"0.003": 14.1529526876,
			"0.004": 17.4034183893,
			"0.005": 16.8598818096,
			"0.006": 9.49327722233,
			"0.007": 3.1965837737,
			"0.008": 1.58058081158,
			"0.009": 2.79092904225,
			"0.01": 1.88394328659,
			"0.011": 1.34719979469,
			"0.012": 1.57847556077,
			"0.013": 2.28571606811,
			"0.014": 3.74880351834,
			"0.015": 5.18003115681,
			"0.016": 0.335399736028,
			"0.017": 0.0,
			"0.018": 0.0,
			"0.019": 0.0,
			"0.02": 0.0,
			"0.021": 0.0,
			"0.022": 0.0,
			"0.023": 0.0,
			"0.024": 0.0,
			"0.025": 0.0
		}
	}
}
