{
	 "smiles": "OC1(CCCCC1)C#CC1=CC=CC=C1", 
	 "Tm": 334.15, 
	 "num_atms": 31, 
	 "gaussian": { 
		 "optdone": 1, 
		 "sigma_profile": "yes", 
		 "theory": "DFT", 
		 "functional": "B3LYP", 
		 "basiset": "6-31G**", 
		 "properties": { 
			 "R2extent": 4577.8219, 
			 "electric_dipole_moment_norm": 1.61604622768, 
			 "electric_quadrupole_moment_norm": 8.52715792688, 
			 "total_energy": -618.298566961, 
			 "HOMO_LUMO_gap": 0.19533, 
			 "cosmo_polarized_energy": -8.08, 
			 "cosmo_cavitation_energy": 33.53, 
			 "cosmo_dispersion_energy": -23.76, 
			 "cosmo_repulsion_energy": 1.91, 
			 "cosmo_total_nonelectrostatic_energy": 11.68, 
			 "SMD_solvation_energy": 5.09 
		},
		"coords": [
			{
				"x": 1.1672624534,
				"y": 2.7994475388,
				"z": 1.6566238125,
				"element": "O" 
			},
			{
				"x": 0.9702752637,
				"y": 1.3872998164,
				"z": 1.4786403094,
				"element": "C" 
			},
			{
				"x": 2.3448551799,
				"y": 0.6632378385,
				"z": 1.2999192963,
				"element": "C" 
			},
			{
				"x": 2.4088765603,
				"y": -0.7234412712,
				"z": 1.9809462214,
				"element": "C" 
			},
			{
				"x": 1.0458664727,
				"y": -1.4267367514,
				"z": 1.9573412212,
				"element": "C" 
			},
			{
				"x": -0.0150341971,
				"y": -0.6155569587,
				"z": 2.7414265093,
				"element": "C" 
			},
			{
				"x": 0.2948678606,
				"y": 0.8962759924,
				"z": 2.7718615772,
				"element": "C" 
			},
			{
				"x": 0.0981423187,
				"y": 1.1620755823,
				"z": 0.3089465361,
				"element": "C" 
			},
			{
				"x": -0.5992599848,
				"y": 1.0171105213,
				"z": -0.6745957604,
				"element": "C" 
			},
			{
				"x": -1.4312007086,
				"y": 0.8438285867,
				"z": -1.8242718703,
				"element": "C" 
			},
			{
				"x": -2.7071511091,
				"y": 1.4382874783,
				"z": -1.8798611882,
				"element": "C" 
			},
			{
				"x": -3.5148813367,
				"y": 1.2687233081,
				"z": -3.0016388807,
				"element": "C" 
			},
			{
				"x": -3.0679091601,
				"y": 0.5056235245,
				"z": -4.0831920711,
				"element": "C" 
			},
			{
				"x": -1.8044281289,
				"y": -0.0887635704,
				"z": -4.0379614444,
				"element": "C" 
			},
			{
				"x": -0.9898638738,
				"y": 0.0772792794,
				"z": -2.920579425,
				"element": "C" 
			},
			{
				"x": 1.4739888714,
				"y": 3.156492374,
				"z": 0.8117543504,
				"element": "H" 
			},
			{
				"x": 3.0978437517,
				"y": 1.3286494191,
				"z": 1.7348780047,
				"element": "H" 
			},
			{
				"x": 2.5669754794,
				"y": 0.5733141322,
				"z": 0.2309158002,
				"element": "H" 
			},
			{
				"x": 3.1711794299,
				"y": -1.3394674118,
				"z": 1.4912168968,
				"element": "H" 
			},
			{
				"x": 2.7338572565,
				"y": -0.6078622085,
				"z": 3.0228689273,
				"element": "H" 
			},
			{
				"x": 1.1294479204,
				"y": -2.4381324882,
				"z": 2.3702265236,
				"element": "H" 
			},
			{
				"x": 0.7246002391,
				"y": -1.5413221535,
				"z": 0.915445017,
				"element": "H" 
			},
			{
				"x": -0.0752217983,
				"y": -0.9758889721,
				"z": 3.7748455218,
				"element": "H" 
			},
			{
				"x": -1.0014316304,
				"y": -0.7819005972,
				"z": 2.2963889076,
				"element": "H" 
			},
			{
				"x": -0.612285069,
				"y": 1.4830382348,
				"z": 2.9410811578,
				"element": "H" 
			},
			{
				"x": 0.9845163997,
				"y": 1.1359410376,
				"z": 3.5896269817,
				"element": "H" 
			},
			{
				"x": -3.0507997719,
				"y": 2.0296195655,
				"z": -1.0372381933,
				"element": "H" 
			},
			{
				"x": -4.4964914761,
				"y": 1.7328437332,
				"z": -3.0319570338,
				"element": "H" 
			},
			{
				"x": -3.7006017843,
				"y": 0.3748405413,
				"z": -4.9562506173,
				"element": "H" 
			},
			{
				"x": -1.4523572859,
				"y": -0.6831324327,
				"z": -4.8762283785,
				"element": "H" 
			},
			{
				"x": -0.0074381427,
				"y": -0.3825236887,
				"z": -2.8822787095,
				"element": "H" 
			}
		],
		 "valence_orbital": [ 
			{
				"type": "occ",
				"energy": -0.29812,
				"method": "rhf"
			},
			{
				"type": "occ",
				"energy": -0.26959,
				"method": "rhf"
			},
			{
				"type": "occ",
				"energy": -0.25582,
				"method": "rhf"
			},
			{
				"type": "occ",
				"energy": -0.2555,
				"method": "rhf"
			},
			{
				"type": "occ",
				"energy": -0.22554,
				"method": "rhf"
			},
			{
				"type": "unocc",
				"energy": -0.03021,
				"method": "rhf"
			},
			{
				"type": "unocc",
				"energy": -0.00442,
				"method": "rhf"
			},
			{
				"type": "unocc",
				"energy": 0.05402,
				"method": "rhf"
			},
			{
				"type": "unocc",
				"energy": 0.07087,
				"method": "rhf"
			},
			{
				"type": "unocc",
				"energy": 0.08365,
				"method": "rhf"
			}
		],
		"cosmo_sigma_profile": { 
			"-0.025": 0.0,
			"-0.024": 0.0,
			"-0.023": 0.0,
			"-0.022": 0.0,
			"-0.021": 0.0,
			"-0.02": 0.0,
			"-0.019": 0.0,
			"-0.018": 0.0,
			"-0.017": 0.0,
			"-0.016": 0.0220324550045,
			"-0.015": 0.838032198053,
			"-0.014": 0.800727994093,
			"-0.013": 0.755194954406,
			"-0.012": 1.03733119993,
			"-0.011": 0.460720991151,
			"-0.01": 0.428203795832,
			"-0.009": 0.897847473209,
			"-0.008": 0.715650323496,
			"-0.007": 1.46385259528,
			"-0.006": 9.40513443513,
			"-0.005": 11.7474291882,
			"-0.004": 12.1153758204,
			"-0.003": 21.0742015072,
			"-0.002": 31.1796707964,
			"-0.001": 31.3256101646,
			"0.0": 32.3093173823,
			"0.001": 24.911362946,
			"0.002": 15.1003904187,
			"0.003": 17.1067517545,
			"0.004": 21.5541406716,
			"0.005": 14.1253561844,
			"0.006": 2.56218653453,
			"0.007": 1.55068909096,
			"0.008": 1.96919942528,
			"0.009": 1.50493872909,
			"0.01": 0.737645945411,
			"0.011": 1.34633383583,
			"0.012": 1.64292904215,
			"0.013": 1.80583546114,
			"0.014": 1.23292865174,
			"0.015": 0.0,
			"0.016": 0.0,
			"0.017": 0.0,
			"0.018": 0.0,
			"0.019": 0.0,
			"0.02": 0.0,
			"0.021": 0.0,
			"0.022": 0.0,
			"0.023": 0.0,
			"0.024": 0.0,
			"0.025": 0.0
		}
	}
}
