{
	 "smiles": "SCCS", 
	 "Tm": 232.05, 
	 "num_atms": 10, 
	 "gaussian": { 
		 "optdone": 1, 
		 "sigma_profile": "yes", 
		 "theory": "DFT", 
		 "functional": "B3LYP", 
		 "basiset": "6-31G**", 
		 "properties": { 
			 "R2extent": 895.3175, 
			 "electric_dipole_moment_norm": 1.00505706803, 
			 "electric_quadrupole_moment_norm": 6.128154165, 
			 "total_energy": -876.201005085, 
			 "HOMO_LUMO_gap": 0.25915, 
			 "cosmo_polarized_energy": -6.48, 
			 "cosmo_cavitation_energy": 16.15, 
			 "cosmo_dispersion_energy": -13.09, 
			 "cosmo_repulsion_energy": 1.07, 
			 "cosmo_total_nonelectrostatic_energy": 4.13, 
			 "SMD_solvation_energy": 1.72 
		},
		"coords": [
			{
				"x": -0.9179637961,
				"y": 0.4290473353,
				"z": -2.5020555064,
				"element": "S" 
			},
			{
				"x": -0.7721993672,
				"y": 0.3470737887,
				"z": -0.6695587137,
				"element": "C" 
			},
			{
				"x": 0.3686397465,
				"y": -0.5238677104,
				"z": -0.1419680475,
				"element": "C" 
			},
			{
				"x": 2.0634326875,
				"y": 0.1060686265,
				"z": -0.4839112632,
				"element": "S" 
			},
			{
				"x": 0.1388430535,
				"y": 1.2410235346,
				"z": -2.7065638118,
				"element": "H" 
			},
			{
				"x": -0.7056396089,
				"y": 1.3621023596,
				"z": -0.2711600903,
				"element": "H" 
			},
			{
				"x": -1.7267926892,
				"y": -0.0779020817,
				"z": -0.3411408073,
				"element": "H" 
			},
			{
				"x": 0.2856499054,
				"y": -1.5464519816,
				"z": -0.5172888466,
				"element": "H" 
			},
			{
				"x": 0.3105544833,
				"y": -0.5643236713,
				"z": 0.9510544739,
				"element": "H" 
			},
			{
				"x": 2.0863755852,
				"y": -0.2109701998,
				"z": -1.794207387,
				"element": "H" 
			}
		],
		 "valence_orbital": [ 
			{
				"type": "occ",
				"energy": -0.3711,
				"method": "rhf"
			},
			{
				"type": "occ",
				"energy": -0.33755,
				"method": "rhf"
			},
			{
				"type": "occ",
				"energy": -0.32931,
				"method": "rhf"
			},
			{
				"type": "occ",
				"energy": -0.25026,
				"method": "rhf"
			},
			{
				"type": "occ",
				"energy": -0.24314,
				"method": "rhf"
			},
			{
				"type": "unocc",
				"energy": 0.01601,
				"method": "rhf"
			},
			{
				"type": "unocc",
				"energy": 0.0316,
				"method": "rhf"
			},
			{
				"type": "unocc",
				"energy": 0.05584,
				"method": "rhf"
			},
			{
				"type": "unocc",
				"energy": 0.07069,
				"method": "rhf"
			},
			{
				"type": "unocc",
				"energy": 0.0991,
				"method": "rhf"
			}
		],
		"cosmo_sigma_profile": { 
			"-0.025": 0.0,
			"-0.024": 0.0,
			"-0.023": 0.0,
			"-0.022": 0.0,
			"-0.021": 0.0,
			"-0.02": 0.0,
			"-0.019": 0.0,
			"-0.018": 0.0,
			"-0.017": 0.0,
			"-0.016": 0.0,
			"-0.015": 0.0,
			"-0.014": 0.0,
			"-0.013": 0.0,
			"-0.012": 0.0,
			"-0.011": 0.0,
			"-0.01": 0.0,
			"-0.009": 0.662836443676,
			"-0.008": 3.22048831168,
			"-0.007": 5.41968760812,
			"-0.006": 9.97736790382,
			"-0.005": 14.0842022474,
			"-0.004": 13.3244886018,
			"-0.003": 10.5562377817,
			"-0.002": 7.9831610032,
			"-0.001": 5.2194834615,
			"0.0": 5.45120774197,
			"0.001": 5.16219621237,
			"0.002": 5.17633443432,
			"0.003": 5.46629423421,
			"0.004": 5.18272792566,
			"0.005": 8.27446655678,
			"0.006": 6.50043982316,
			"0.007": 4.82872032634,
			"0.008": 4.97555213658,
			"0.009": 4.54844148744,
			"0.01": 3.93824346617,
			"0.011": 1.57161479808,
			"0.012": 0.0,
			"0.013": 0.0,
			"0.014": 0.0,
			"0.015": 0.0,
			"0.016": 0.0,
			"0.017": 0.0,
			"0.018": 0.0,
			"0.019": 0.0,
			"0.02": 0.0,
			"0.021": 0.0,
			"0.022": 0.0,
			"0.023": 0.0,
			"0.024": 0.0,
			"0.025": 0.0
		}
	}
}
