{
	 "smiles": "O=S(=O)(NC1CC1)C1CCN(CC2=CC=CC=C2)C1", 
	 "Tm": 368.15, 
	 "num_atms": 39, 
	 "gaussian": { 
		 "optdone": 1, 
		 "sigma_profile": "yes", 
		 "theory": "DFT", 
		 "functional": "B3LYP", 
		 "basiset": "6-31G**", 
		 "properties": { 
			 "R2extent": 9451.2531, 
			 "electric_dipole_moment_norm": 3.09058040827, 
			 "electric_quadrupole_moment_norm": 16.2050217593, 
			 "total_energy": -1203.57370115, 
			 "HOMO_LUMO_gap": 0.22129, 
			 "cosmo_polarized_energy": -17.05, 
			 "cosmo_cavitation_energy": 42.18, 
			 "cosmo_dispersion_energy": -29.6, 
			 "cosmo_repulsion_energy": 2.25, 
			 "cosmo_total_nonelectrostatic_energy": 14.83, 
			 "SMD_solvation_energy": 3.22 
		},
		"coords": [
			{
				"x": 0.1907682631,
				"y": -1.9894456228,
				"z": -3.1001977742,
				"element": "O" 
			},
			{
				"x": 0.1779421199,
				"y": -2.5693826222,
				"z": -1.7526445971,
				"element": "S" 
			},
			{
				"x": -0.9220574951,
				"y": -3.4436011032,
				"z": -1.3155320842,
				"element": "O" 
			},
			{
				"x": 1.6698362069,
				"y": -3.3763123575,
				"z": -1.5431733922,
				"element": "N" 
			},
			{
				"x": 2.2969668912,
				"y": -3.8892240285,
				"z": -2.7504591789,
				"element": "C" 
			},
			{
				"x": 1.7721249399,
				"y": -5.1027518573,
				"z": -3.4769288553,
				"element": "C" 
			},
			{
				"x": 3.0409479475,
				"y": -5.1927545672,
				"z": -2.6576151641,
				"element": "C" 
			},
			{
				"x": 0.3260058963,
				"y": -1.2404956136,
				"z": -0.5237691413,
				"element": "C" 
			},
			{
				"x": 1.4150094878,
				"y": -0.1896511669,
				"z": -0.8639663836,
				"element": "C" 
			},
			{
				"x": 0.6311918336,
				"y": 1.1295683659,
				"z": -0.9710986048,
				"element": "C" 
			},
			{
				"x": -0.5321680877,
				"y": 0.905893369,
				"z": -0.1071857832,
				"element": "N" 
			},
			{
				"x": -1.5735558356,
				"y": 1.9222735314,
				"z": -0.2021215639,
				"element": "C" 
			},
			{
				"x": -1.1439467427,
				"y": 3.2624106426,
				"z": 0.3656084838,
				"element": "C" 
			},
			{
				"x": -1.447861029,
				"y": 4.452351502,
				"z": -0.3043169035,
				"element": "C" 
			},
			{
				"x": -1.0930758114,
				"y": 5.6891571979,
				"z": 0.2395324157,
				"element": "C" 
			},
			{
				"x": -0.4205381155,
				"y": 5.7487138365,
				"z": 1.4603412737,
				"element": "C" 
			},
			{
				"x": -0.105948521,
				"y": 4.5649299407,
				"z": 2.1333200104,
				"element": "C" 
			},
			{
				"x": -0.4667900024,
				"y": 3.3320011275,
				"z": 1.5911203692,
				"element": "C" 
			},
			{
				"x": -0.9932372236,
				"y": -0.4410882642,
				"z": -0.441576001,
				"element": "C" 
			},
			{
				"x": 1.5392644531,
				"y": -4.0965878367,
				"z": -0.8360525269,
				"element": "H" 
			},
			{
				"x": 2.7358772981,
				"y": -3.0989029539,
				"z": -3.3493152908,
				"element": "H" 
			},
			{
				"x": 1.8453401787,
				"y": -5.1166787532,
				"z": -4.5597498213,
				"element": "H" 
			},
			{
				"x": 0.8796724577,
				"y": -5.5766779103,
				"z": -3.079790003,
				"element": "H" 
			},
			{
				"x": 2.9998850802,
				"y": -5.7384432192,
				"z": -1.7181198648,
				"element": "H" 
			},
			{
				"x": 3.9967023103,
				"y": -5.2693610557,
				"z": -3.166329874,
				"element": "H" 
			},
			{
				"x": 0.5351537572,
				"y": -1.7540829591,
				"z": 0.4175569453,
				"element": "H" 
			},
			{
				"x": 2.1480828047,
				"y": -0.1510432219,
				"z": -0.0550173938,
				"element": "H" 
			},
			{
				"x": 1.9448940119,
				"y": -0.4246170917,
				"z": -1.788847367,
				"element": "H" 
			},
			{
				"x": 0.3278898646,
				"y": 1.3064662245,
				"z": -2.0202113183,
				"element": "H" 
			},
			{
				"x": 1.2025444319,
				"y": 1.9984163946,
				"z": -0.6344856826,
				"element": "H" 
			},
			{
				"x": -2.4403474554,
				"y": 1.5535407186,
				"z": 0.3634246293,
				"element": "H" 
			},
			{
				"x": -1.9185493888,
				"y": 2.0581264451,
				"z": -1.24574931,
				"element": "H" 
			},
			{
				"x": -1.9654643331,
				"y": 4.4108956262,
				"z": -1.2598827597,
				"element": "H" 
			},
			{
				"x": -1.3365939747,
				"y": 6.6035163512,
				"z": -0.2944041032,
				"element": "H" 
			},
			{
				"x": -0.1399620683,
				"y": 6.709069122,
				"z": 1.8835685705,
				"element": "H" 
			},
			{
				"x": 0.4203214107,
				"y": 4.6035632946,
				"z": 3.0832808741,
				"element": "H" 
			},
			{
				"x": -0.2174214724,
				"y": 2.4079219842,
				"z": 2.1041686716,
				"element": "H" 
			},
			{
				"x": -1.6757576167,
				"y": -0.8304529723,
				"z": 0.3183391961,
				"element": "H" 
			},
			{
				"x": -1.5164464718,
				"y": -0.4696604972,
				"z": -1.4157206968,
				"element": "H" 
			}
		],
		 "valence_orbital": [ 
			{
				"type": "occ",
				"energy": -0.28901,
				"method": "rhf"
			},
			{
				"type": "occ",
				"energy": -0.25262,
				"method": "rhf"
			},
			{
				"type": "occ",
				"energy": -0.24761,
				"method": "rhf"
			},
			{
				"type": "occ",
				"energy": -0.24205,
				"method": "rhf"
			},
			{
				"type": "occ",
				"energy": -0.22294,
				"method": "rhf"
			},
			{
				"type": "unocc",
				"energy": -0.00165,
				"method": "rhf"
			},
			{
				"type": "unocc",
				"energy": 0.00156,
				"method": "rhf"
			},
			{
				"type": "unocc",
				"energy": 0.05903,
				"method": "rhf"
			},
			{
				"type": "unocc",
				"energy": 0.06211,
				"method": "rhf"
			},
			{
				"type": "unocc",
				"energy": 0.07604,
				"method": "rhf"
			}
		],
		"cosmo_sigma_profile": { 
			"-0.025": 0.0,
			"-0.024": 0.0,
			"-0.023": 0.0,
			"-0.022": 0.0,
			"-0.021": 0.0,
			"-0.02": 0.0,
			"-0.019": 0.0,
			"-0.018": 0.0,
			"-0.017": 0.0,
			"-0.016": 0.0,
			"-0.015": 0.125949266774,
			"-0.014": 1.19839220873,
			"-0.013": 0.989409897798,
			"-0.012": 1.76520219807,
			"-0.011": 1.75184494922,
			"-0.01": 1.54855633803,
			"-0.009": 2.32954820261,
			"-0.008": 2.88191075581,
			"-0.007": 2.79429170657,
			"-0.006": 7.97377271958,
			"-0.005": 27.5618830982,
			"-0.004": 30.6280263424,
			"-0.003": 38.0637080634,
			"-0.002": 34.7515889569,
			"-0.001": 28.1524181448,
			"0.0": 20.24396391,
			"0.001": 17.2792814794,
			"0.002": 17.6944524708,
			"0.003": 14.4151375993,
			"0.004": 14.811565255,
			"0.005": 13.4832562901,
			"0.006": 12.0365308604,
			"0.007": 6.42918015601,
			"0.008": 3.96990536433,
			"0.009": 5.29225386789,
			"0.01": 4.66576217271,
			"0.011": 11.6293548803,
			"0.012": 6.20569150133,
			"0.013": 0.4453826775,
			"0.014": 0.0,
			"0.015": 0.0,
			"0.016": 0.0,
			"0.017": 0.0,
			"0.018": 0.0,
			"0.019": 0.0,
			"0.02": 0.0,
			"0.021": 0.0,
			"0.022": 0.0,
			"0.023": 0.0,
			"0.024": 0.0,
			"0.025": 0.0
		}
	}
}
