{
	 "smiles": "COC(=O)C1=C(F)C=C(Br)C(N)=C1", 
	 "Tm": 361.15, 
	 "num_atms": 20, 
	 "gaussian": { 
		 "optdone": 1, 
		 "sigma_profile": "yes", 
		 "theory": "DFT", 
		 "functional": "B3LYP", 
		 "basiset": "6-31G**", 
		 "properties": { 
			 "R2extent": 5133.003, 
			 "electric_dipole_moment_norm": 4.02817773565, 
			 "electric_quadrupole_moment_norm": 8.90847841385, 
			 "total_energy": -3185.51438079, 
			 "HOMO_LUMO_gap": 0.16229, 
			 "cosmo_polarized_energy": -11.96, 
			 "cosmo_cavitation_energy": 27.43, 
			 "cosmo_dispersion_energy": -20.61, 
			 "cosmo_repulsion_energy": 1.62, 
			 "cosmo_total_nonelectrostatic_energy": 8.44, 
			 "SMD_solvation_energy": 5.57 
		},
		"coords": [
			{
				"x": -1.4394698159,
				"y": 3.2551695607,
				"z": -0.7621366241,
				"element": "C" 
			},
			{
				"x": -0.9415283379,
				"y": 1.9212474573,
				"z": -0.9427243334,
				"element": "O" 
			},
			{
				"x": -0.65472681,
				"y": 1.2578313351,
				"z": 0.207003772,
				"element": "C" 
			},
			{
				"x": -0.8101273248,
				"y": 1.749252975,
				"z": 1.3045009131,
				"element": "O" 
			},
			{
				"x": -0.1392788257,
				"y": -0.1142589224,
				"z": -0.0676124638,
				"element": "C" 
			},
			{
				"x": 0.2050822985,
				"y": -0.9810871057,
				"z": 0.9803689053,
				"element": "C" 
			},
			{
				"x": 0.0832589955,
				"y": -0.6106779979,
				"z": 2.2634197473,
				"element": "F" 
			},
			{
				"x": 0.6814021938,
				"y": -2.2598943575,
				"z": 0.7225986113,
				"element": "C" 
			},
			{
				"x": 0.821646125,
				"y": -2.6884231432,
				"z": -0.5923323596,
				"element": "C" 
			},
			{
				"x": 1.4660042928,
				"y": -4.4595200532,
				"z": -0.9127812868,
				"element": "Br" 
			},
			{
				"x": 0.4977482908,
				"y": -1.8590149497,
				"z": -1.6843400556,
				"element": "C" 
			},
			{
				"x": 0.6907719166,
				"y": -2.2541854553,
				"z": -3.0006676211,
				"element": "N" 
			},
			{
				"x": 0.0162170649,
				"y": -0.5770451619,
				"z": -1.3808719643,
				"element": "C" 
			},
			{
				"x": -1.6145758134,
				"y": 3.6418155005,
				"z": -1.7661711553,
				"element": "H" 
			},
			{
				"x": -2.3684300254,
				"y": 3.2455862494,
				"z": -0.1864361243,
				"element": "H" 
			},
			{
				"x": -0.7073761248,
				"y": 3.8721300432,
				"z": -0.235058894,
				"element": "H" 
			},
			{
				"x": 0.9333202857,
				"y": -2.9085932569,
				"z": 1.5522379136,
				"element": "H" 
			},
			{
				"x": 0.7413664262,
				"y": -3.2521755504,
				"z": -3.1521511071,
				"element": "H" 
			},
			{
				"x": 0.124479193,
				"y": -1.7730387785,
				"z": -3.6841755474,
				"element": "H" 
			},
			{
				"x": -0.241884005,
				"y": 0.0919816112,
				"z": -2.1936703257,
				"element": "H" 
			}
		],
		 "valence_orbital": [ 
			{
				"type": "occ",
				"energy": -0.30344,
				"method": "rhf"
			},
			{
				"type": "occ",
				"energy": -0.30297,
				"method": "rhf"
			},
			{
				"type": "occ",
				"energy": -0.27181,
				"method": "rhf"
			},
			{
				"type": "occ",
				"energy": -0.2603,
				"method": "rhf"
			},
			{
				"type": "occ",
				"energy": -0.21574,
				"method": "rhf"
			},
			{
				"type": "unocc",
				"energy": -0.05345,
				"method": "rhf"
			},
			{
				"type": "unocc",
				"energy": -0.00457,
				"method": "rhf"
			},
			{
				"type": "unocc",
				"energy": -0.00278,
				"method": "rhf"
			},
			{
				"type": "unocc",
				"energy": 0.05207,
				"method": "rhf"
			},
			{
				"type": "unocc",
				"energy": 0.07749,
				"method": "rhf"
			}
		],
		"cosmo_sigma_profile": { 
			"-0.025": 0.0,
			"-0.024": 0.0,
			"-0.023": 0.0,
			"-0.022": 0.0,
			"-0.021": 0.0,
			"-0.02": 0.0,
			"-0.019": 0.0,
			"-0.018": 0.0,
			"-0.017": 0.0,
			"-0.016": 0.0,
			"-0.015": 0.0,
			"-0.014": 0.316311007333,
			"-0.013": 1.5179370932,
			"-0.012": 2.03002687262,
			"-0.011": 2.62631663614,
			"-0.01": 2.70692775967,
			"-0.009": 2.59071498445,
			"-0.008": 3.60243188489,
			"-0.007": 4.51902084868,
			"-0.006": 8.34348753058,
			"-0.005": 11.15780876,
			"-0.004": 13.9096526391,
			"-0.003": 16.3408741583,
			"-0.002": 12.5800318163,
			"-0.001": 14.4583449688,
			"0.0": 18.7691989111,
			"0.001": 24.4123054749,
			"0.002": 20.7193338414,
			"0.003": 15.2757366746,
			"0.004": 16.671154035,
			"0.005": 5.68907002066,
			"0.006": 3.58631766225,
			"0.007": 2.74841773009,
			"0.008": 2.77355209402,
			"0.009": 2.16122517871,
			"0.01": 3.11680500078,
			"0.011": 4.19395444656,
			"0.012": 5.25478779636,
			"0.013": 0.586345559505,
			"0.014": 0.0,
			"0.015": 0.0,
			"0.016": 0.0,
			"0.017": 0.0,
			"0.018": 0.0,
			"0.019": 0.0,
			"0.02": 0.0,
			"0.021": 0.0,
			"0.022": 0.0,
			"0.023": 0.0,
			"0.024": 0.0,
			"0.025": 0.0
		}
	}
}
