{
	 "smiles": "CN1C2=C(C=C(C=C2)C(O)=O)N=C1C(F)(F)F", 
	 "Tm": 528.15, 
	 "num_atms": 24, 
	 "gaussian": { 
		 "optdone": 1, 
		 "sigma_profile": "yes", 
		 "theory": "DFT", 
		 "functional": "B3LYP", 
		 "basiset": "6-31G**", 
		 "properties": { 
			 "R2extent": 5453.8626, 
			 "electric_dipole_moment_norm": 5.12721865537, 
			 "electric_quadrupole_moment_norm": 26.4727378312, 
			 "total_energy": -944.774032556, 
			 "HOMO_LUMO_gap": 0.19641, 
			 "cosmo_polarized_energy": -18.08, 
			 "cosmo_cavitation_energy": 30.33, 
			 "cosmo_dispersion_energy": -21.8, 
			 "cosmo_repulsion_energy": 1.6, 
			 "cosmo_total_nonelectrostatic_energy": 10.12, 
			 "SMD_solvation_energy": 5.47 
		},
		"coords": [
			{
				"x": 1.8847345143,
				"y": 2.0218527167,
				"z": 0.2320745143,
				"element": "C" 
			},
			{
				"x": 1.2814311129,
				"y": 0.7915210717,
				"z": 0.7301210655,
				"element": "N" 
			},
			{
				"x": 0.0558837817,
				"y": 0.2762450814,
				"z": 0.3548944469,
				"element": "C" 
			},
			{
				"x": -0.1174945245,
				"y": -0.8885888753,
				"z": 1.1405124638,
				"element": "C" 
			},
			{
				"x": -1.2716533786,
				"y": -1.6654725368,
				"z": 0.9988731351,
				"element": "C" 
			},
			{
				"x": -2.2311679938,
				"y": -1.2580361124,
				"z": 0.0703913914,
				"element": "C" 
			},
			{
				"x": -2.0460879175,
				"y": -0.0750289843,
				"z": -0.6883897194,
				"element": "C" 
			},
			{
				"x": -0.9066754919,
				"y": 0.7049102789,
				"z": -0.5675075807,
				"element": "C" 
			},
			{
				"x": -3.5130921444,
				"y": -2.0036114601,
				"z": -0.1479964288,
				"element": "C" 
			},
			{
				"x": -3.5498916257,
				"y": -3.2987026412,
				"z": 0.2650418816,
				"element": "O" 
			},
			{
				"x": -4.4881319787,
				"y": -1.5088159966,
				"z": -0.6644767883,
				"element": "O" 
			},
			{
				"x": 0.9668587637,
				"y": -1.0688939299,
				"z": 1.9805683255,
				"element": "N" 
			},
			{
				"x": 1.7560462415,
				"y": -0.0622075453,
				"z": 1.7081880082,
				"element": "C" 
			},
			{
				"x": 3.0770559268,
				"y": 0.1719332938,
				"z": 2.3865371774,
				"element": "C" 
			},
			{
				"x": 3.107237899,
				"y": 1.3966560893,
				"z": 2.9660382902,
				"element": "F" 
			},
			{
				"x": 3.318275335,
				"y": -0.744787962,
				"z": 3.3200160527,
				"element": "F" 
			},
			{
				"x": 4.0942783074,
				"y": 0.1457906363,
				"z": 1.488141652,
				"element": "F" 
			},
			{
				"x": 1.4804685714,
				"y": 2.896341103,
				"z": 0.751004745,
				"element": "H" 
			},
			{
				"x": 2.9631545742,
				"y": 1.9842614637,
				"z": 0.3753668531,
				"element": "H" 
			},
			{
				"x": 1.6797556461,
				"y": 2.1112553609,
				"z": -0.8368428368,
				"element": "H" 
			},
			{
				"x": -1.4017000903,
				"y": -2.5331895744,
				"z": 1.6393751212,
				"element": "H" 
			},
			{
				"x": -2.8376460244,
				"y": 0.2066514666,
				"z": -1.373581921,
				"element": "H" 
			},
			{
				"x": -0.7815538283,
				"y": 1.6069322502,
				"z": -1.1574700394,
				"element": "H" 
			},
			{
				"x": -2.6617856759,
				"y": -3.6019151942,
				"z": 0.4983201905,
				"element": "H" 
			}
		],
		 "valence_orbital": [ 
			{
				"type": "occ",
				"energy": -0.315,
				"method": "rhf"
			},
			{
				"type": "occ",
				"energy": -0.30366,
				"method": "rhf"
			},
			{
				"type": "occ",
				"energy": -0.27507,
				"method": "rhf"
			},
			{
				"type": "occ",
				"energy": -0.25608,
				"method": "rhf"
			},
			{
				"type": "occ",
				"energy": -0.2554,
				"method": "rhf"
			},
			{
				"type": "unocc",
				"energy": -0.05899,
				"method": "rhf"
			},
			{
				"type": "unocc",
				"energy": -0.0383,
				"method": "rhf"
			},
			{
				"type": "unocc",
				"energy": 0.01276,
				"method": "rhf"
			},
			{
				"type": "unocc",
				"energy": 0.05373,
				"method": "rhf"
			},
			{
				"type": "unocc",
				"energy": 0.06544,
				"method": "rhf"
			}
		],
		"cosmo_sigma_profile": { 
			"-0.025": 0.0,
			"-0.024": 0.0,
			"-0.023": 0.0,
			"-0.022": 0.0,
			"-0.021": 0.0,
			"-0.02": 0.0,
			"-0.019": 0.230805069758,
			"-0.018": 1.01807502348,
			"-0.017": 0.977861361004,
			"-0.016": 1.01762492327,
			"-0.015": 1.18185850237,
			"-0.014": 0.611211584121,
			"-0.013": 0.740729277002,
			"-0.012": 1.32961839628,
			"-0.011": 1.61472363629,
			"-0.01": 0.911677761655,
			"-0.009": 1.73162628037,
			"-0.008": 5.28872103714,
			"-0.007": 9.96009452471,
			"-0.006": 12.0080469865,
			"-0.005": 14.5760948286,
			"-0.004": 14.3468692397,
			"-0.003": 14.757216424,
			"-0.002": 13.3141140812,
			"-0.001": 13.8808818937,
			"0.0": 14.1388435016,
			"0.001": 26.0481452657,
			"0.002": 36.0062587377,
			"0.003": 12.1993153458,
			"0.004": 4.73286880732,
			"0.005": 2.6418776582,
			"0.006": 4.30408407213,
			"0.007": 4.01687592033,
			"0.008": 3.7785946778,
			"0.009": 4.46208835101,
			"0.01": 6.18269456811,
			"0.011": 5.84006225235,
			"0.012": 6.1046962654,
			"0.013": 2.70863321477,
			"0.014": 0.875955983283,
			"0.015": 0.449417296299,
			"0.016": 0.0,
			"0.017": 0.0,
			"0.018": 0.0,
			"0.019": 0.0,
			"0.02": 0.0,
			"0.021": 0.0,
			"0.022": 0.0,
			"0.023": 0.0,
			"0.024": 0.0,
			"0.025": 0.0
		}
	}
}
