{
	 "smiles": "CC(=O)NC1=CC=C(C=C1)S(=O)(=O)NCCC(O)=O", 
	 "Tm": 434.15, 
	 "num_atms": 33, 
	 "gaussian": { 
		 "optdone": 1, 
		 "sigma_profile": "yes", 
		 "theory": "DFT", 
		 "functional": "B3LYP", 
		 "basiset": "6-31G**", 
		 "properties": { 
			 "R2extent": 9934.2953, 
			 "electric_dipole_moment_norm": 8.56861475211, 
			 "electric_quadrupole_moment_norm": 25.6544546097, 
			 "total_energy": -1311.38279521, 
			 "HOMO_LUMO_gap": 0.19602, 
			 "cosmo_polarized_energy": -31.71, 
			 "cosmo_cavitation_energy": 39.06, 
			 "cosmo_dispersion_energy": -28.21, 
			 "cosmo_repulsion_energy": 2.15, 
			 "cosmo_total_nonelectrostatic_energy": 13.0, 
			 "SMD_solvation_energy": 7.21 
		},
		"coords": [
			{
				"x": -2.8032921981,
				"y": 3.2696137493,
				"z": -5.2058151634,
				"element": "C" 
			},
			{
				"x": -1.7144542901,
				"y": 2.3163359114,
				"z": -4.7365784605,
				"element": "C" 
			},
			{
				"x": -0.7482089036,
				"y": 2.045762566,
				"z": -5.4313832801,
				"element": "O" 
			},
			{
				"x": -1.9385614296,
				"y": 1.7755600978,
				"z": -3.4817438358,
				"element": "N" 
			},
			{
				"x": -1.1711011312,
				"y": 0.8340450928,
				"z": -2.7753458717,
				"element": "C" 
			},
			{
				"x": 0.0091929678,
				"y": 0.2631239239,
				"z": -3.2879142827,
				"element": "C" 
			},
			{
				"x": 0.7076555578,
				"y": -0.66556059,
				"z": -2.5245964528,
				"element": "C" 
			},
			{
				"x": 0.2492535909,
				"y": -1.02401472,
				"z": -1.253955266,
				"element": "C" 
			},
			{
				"x": -0.921249577,
				"y": -0.4662185634,
				"z": -0.7387331328,
				"element": "C" 
			},
			{
				"x": -1.6251360217,
				"y": 0.4605442095,
				"z": -1.4989854562,
				"element": "C" 
			},
			{
				"x": 1.1173867317,
				"y": -2.2687044569,
				"z": -0.3073287584,
				"element": "S" 
			},
			{
				"x": 1.2765065258,
				"y": -3.483911939,
				"z": -1.1099509382,
				"element": "O" 
			},
			{
				"x": 0.4657483072,
				"y": -2.3214135171,
				"z": 1.0140077287,
				"element": "O" 
			},
			{
				"x": 2.6650516222,
				"y": -1.6196472061,
				"z": -0.1902541676,
				"element": "N" 
			},
			{
				"x": 2.9702438427,
				"y": -0.6952247266,
				"z": 0.905790925,
				"element": "C" 
			},
			{
				"x": 3.1666825559,
				"y": -1.3583044967,
				"z": 2.276945596,
				"element": "C" 
			},
			{
				"x": 4.3236424326,
				"y": -2.3463379457,
				"z": 2.2769441097,
				"element": "C" 
			},
			{
				"x": 4.6218103273,
				"y": -2.9085425657,
				"z": 3.4728779361,
				"element": "O" 
			},
			{
				"x": 4.9623835005,
				"y": -2.6466030496,
				"z": 1.2942962154,
				"element": "O" 
			},
			{
				"x": -3.4798048696,
				"y": 2.7346564006,
				"z": -5.8808499098,
				"element": "H" 
			},
			{
				"x": -3.3947659062,
				"y": 3.6990422417,
				"z": -4.3920153844,
				"element": "H" 
			},
			{
				"x": -2.33461594,
				"y": 4.0736748743,
				"z": -5.7753214486,
				"element": "H" 
			},
			{
				"x": -2.774186376,
				"y": 2.0860105304,
				"z": -3.0073254184,
				"element": "H" 
			},
			{
				"x": 0.3557089302,
				"y": 0.5533565468,
				"z": -4.2690627407,
				"element": "H" 
			},
			{
				"x": 1.6171528308,
				"y": -1.1082235094,
				"z": -2.9163854121,
				"element": "H" 
			},
			{
				"x": -1.2683304081,
				"y": -0.7618867061,
				"z": 0.24476568,
				"element": "H" 
			},
			{
				"x": -2.5373535111,
				"y": 0.898496673,
				"z": -1.1005827703,
				"element": "H" 
			},
			{
				"x": 3.3585802548,
				"y": -2.3605579613,
				"z": -0.2849140553,
				"element": "H" 
			},
			{
				"x": 3.8813665692,
				"y": -0.162066017,
				"z": 0.6191254105,
				"element": "H" 
			},
			{
				"x": 2.1670730434,
				"y": 0.0441635407,
				"z": 0.9678018459,
				"element": "H" 
			},
			{
				"x": 2.2477430704,
				"y": -1.8815350835,
				"z": 2.5663312029,
				"element": "H" 
			},
			{
				"x": 3.3576995638,
				"y": -0.5884424516,
				"z": 3.0372480004,
				"element": "H" 
			},
			{
				"x": 4.0135783374,
				"y": -2.5896908526,
				"z": 4.1552075552,
				"element": "H" 
			}
		],
		 "valence_orbital": [ 
			{
				"type": "occ",
				"energy": -0.28268,
				"method": "rhf"
			},
			{
				"type": "occ",
				"energy": -0.27303,
				"method": "rhf"
			},
			{
				"type": "occ",
				"energy": -0.26855,
				"method": "rhf"
			},
			{
				"type": "occ",
				"energy": -0.26738,
				"method": "rhf"
			},
			{
				"type": "occ",
				"energy": -0.23815,
				"method": "rhf"
			},
			{
				"type": "unocc",
				"energy": -0.04213,
				"method": "rhf"
			},
			{
				"type": "unocc",
				"energy": -0.02019,
				"method": "rhf"
			},
			{
				"type": "unocc",
				"energy": -0.00072,
				"method": "rhf"
			},
			{
				"type": "unocc",
				"energy": 0.01978,
				"method": "rhf"
			},
			{
				"type": "unocc",
				"energy": 0.0488,
				"method": "rhf"
			}
		],
		"cosmo_sigma_profile": { 
			"-0.025": 0.0,
			"-0.024": 0.0,
			"-0.023": 0.0,
			"-0.022": 0.0,
			"-0.021": 0.0,
			"-0.02": 0.0582451027409,
			"-0.019": 0.967942389996,
			"-0.018": 1.235406887,
			"-0.017": 0.797791305885,
			"-0.016": 2.14042869244,
			"-0.015": 2.40756860628,
			"-0.014": 2.62124415344,
			"-0.013": 2.59356801713,
			"-0.012": 2.72651446504,
			"-0.011": 2.73685844582,
			"-0.01": 2.66055369173,
			"-0.009": 3.6984144068,
			"-0.008": 5.9888811803,
			"-0.007": 11.7782169449,
			"-0.006": 20.5650070272,
			"-0.005": 21.7921693759,
			"-0.004": 16.9157164573,
			"-0.003": 18.1861762795,
			"-0.002": 18.1917247036,
			"-0.001": 18.5682201087,
			"0.0": 15.7491069521,
			"0.001": 15.2439707054,
			"0.002": 18.7354554844,
			"0.003": 19.0936785877,
			"0.004": 7.63307169351,
			"0.005": 6.82572886896,
			"0.006": 7.22841227144,
			"0.007": 5.80058954222,
			"0.008": 7.9682166509,
			"0.009": 8.95292126688,
			"0.01": 12.4776278493,
			"0.011": 14.0255219335,
			"0.012": 9.45102022311,
			"0.013": 3.53414900974,
			"0.014": 0.805611020095,
			"0.015": 0.0,
			"0.016": 0.0,
			"0.017": 0.0,
			"0.018": 0.0,
			"0.019": 0.0,
			"0.02": 0.0,
			"0.021": 0.0,
			"0.022": 0.0,
			"0.023": 0.0,
			"0.024": 0.0,
			"0.025": 0.0
		}
	}
}
