{
	 "smiles": "BrC1=CC=C(C=C1)N1C=C(C=O)C=N1", 
	 "Tm": 398.15, 
	 "num_atms": 21, 
	 "gaussian": { 
		 "optdone": 1, 
		 "sigma_profile": "yes", 
		 "theory": "DFT", 
		 "functional": "B3LYP", 
		 "basiset": "6-31G**", 
		 "properties": { 
			 "R2extent": 6558.5989, 
			 "electric_dipole_moment_norm": 3.05544223477, 
			 "electric_quadrupole_moment_norm": 21.4139233792, 
			 "total_energy": -3141.37946782, 
			 "HOMO_LUMO_gap": 0.17593, 
			 "cosmo_polarized_energy": -12.71, 
			 "cosmo_cavitation_energy": 28.92, 
			 "cosmo_dispersion_energy": -21.59, 
			 "cosmo_repulsion_energy": 1.67, 
			 "cosmo_total_nonelectrostatic_energy": 9.0, 
			 "SMD_solvation_energy": 4.65 
		},
		"coords": [
			{
				"x": 1.2225038853,
				"y": -2.9465711548,
				"z": 3.9271515559,
				"element": "Br" 
			},
			{
				"x": 1.0140775514,
				"y": -1.7176017736,
				"z": 2.4830853793,
				"element": "C" 
			},
			{
				"x": -0.1176172315,
				"y": -1.792402825,
				"z": 1.673568528,
				"element": "C" 
			},
			{
				"x": -0.2708588417,
				"y": -0.8952287504,
				"z": 0.6186492462,
				"element": "C" 
			},
			{
				"x": 0.7081312954,
				"y": 0.0747300611,
				"z": 0.375817608,
				"element": "C" 
			},
			{
				"x": 1.8419543167,
				"y": 0.1429535269,
				"z": 1.1937537988,
				"element": "C" 
			},
			{
				"x": 1.9937883639,
				"y": -0.7540755395,
				"z": 2.2473997721,
				"element": "C" 
			},
			{
				"x": 0.569551301,
				"y": 0.9991187143,
				"z": -0.6956830586,
				"element": "N" 
			},
			{
				"x": -0.4380258513,
				"y": 1.1103615155,
				"z": -1.6001233503,
				"element": "C" 
			},
			{
				"x": -0.1153812549,
				"y": 2.1629055789,
				"z": -2.4439148579,
				"element": "C" 
			},
			{
				"x": -0.888175364,
				"y": 2.6684200508,
				"z": -3.5752001941,
				"element": "C" 
			},
			{
				"x": -0.5413309654,
				"y": 3.6026439481,
				"z": -4.2760269364,
				"element": "O" 
			},
			{
				"x": 1.1351962378,
				"y": 2.631675316,
				"z": -1.9533577485,
				"element": "C" 
			},
			{
				"x": 1.5453355763,
				"y": 1.9366279471,
				"z": -0.9086360389,
				"element": "N" 
			},
			{
				"x": -0.875670139,
				"y": -2.5436669316,
				"z": 1.8618323372,
				"element": "H" 
			},
			{
				"x": -1.1570081891,
				"y": -0.9671651611,
				"z": -0.0014636486,
				"element": "H" 
			},
			{
				"x": 2.5909592897,
				"y": 0.8983314794,
				"z": 0.9941267151,
				"element": "H" 
			},
			{
				"x": 2.8713139498,
				"y": -0.702170707,
				"z": 2.881484801,
				"element": "H" 
			},
			{
				"x": -1.2989081803,
				"y": 0.4601238644,
				"z": -1.5964042271,
				"element": "H" 
			},
			{
				"x": -1.8448503367,
				"y": 2.1333580262,
				"z": -3.7660212713,
				"element": "H" 
			},
			{
				"x": 1.7296145869,
				"y": 3.4483328142,
				"z": -2.3387384099,
				"element": "H" 
			}
		],
		 "valence_orbital": [ 
			{
				"type": "occ",
				"energy": -0.29279,
				"method": "rhf"
			},
			{
				"type": "occ",
				"energy": -0.28333,
				"method": "rhf"
			},
			{
				"type": "occ",
				"energy": -0.2748,
				"method": "rhf"
			},
			{
				"type": "occ",
				"energy": -0.25687,
				"method": "rhf"
			},
			{
				"type": "occ",
				"energy": -0.23881,
				"method": "rhf"
			},
			{
				"type": "unocc",
				"energy": -0.06288,
				"method": "rhf"
			},
			{
				"type": "unocc",
				"energy": -0.03511,
				"method": "rhf"
			},
			{
				"type": "unocc",
				"energy": -0.02834,
				"method": "rhf"
			},
			{
				"type": "unocc",
				"energy": -0.00302,
				"method": "rhf"
			},
			{
				"type": "unocc",
				"energy": 0.01691,
				"method": "rhf"
			}
		],
		"cosmo_sigma_profile": { 
			"-0.025": 0.0,
			"-0.024": 0.0,
			"-0.023": 0.0,
			"-0.022": 0.0,
			"-0.021": 0.0,
			"-0.02": 0.0,
			"-0.019": 0.0,
			"-0.018": 0.0,
			"-0.017": 0.0,
			"-0.016": 0.0,
			"-0.015": 0.0,
			"-0.014": 0.0,
			"-0.013": 0.234258083868,
			"-0.012": 1.8836590575,
			"-0.011": 2.03097770836,
			"-0.01": 2.56513538834,
			"-0.009": 3.65179130495,
			"-0.008": 6.12054043434,
			"-0.007": 9.94816653296,
			"-0.006": 12.3408170051,
			"-0.005": 10.079383854,
			"-0.004": 11.4352234841,
			"-0.003": 11.629589017,
			"-0.002": 12.7063129793,
			"-0.001": 17.0722235801,
			"0.0": 18.9954835383,
			"0.001": 25.6963371282,
			"0.002": 26.7061191882,
			"0.003": 16.0597347144,
			"0.004": 14.5037024065,
			"0.005": 7.30821154956,
			"0.006": 2.99234023648,
			"0.007": 3.38403527179,
			"0.008": 2.24276068791,
			"0.009": 3.88991828728,
			"0.01": 3.6724538359,
			"0.011": 4.37019158026,
			"0.012": 4.22712527517,
			"0.013": 1.32195995056,
			"0.014": 0.104469717541,
			"0.015": 0.0,
			"0.016": 0.0,
			"0.017": 0.0,
			"0.018": 0.0,
			"0.019": 0.0,
			"0.02": 0.0,
			"0.021": 0.0,
			"0.022": 0.0,
			"0.023": 0.0,
			"0.024": 0.0,
			"0.025": 0.0
		}
	}
}
