{
	 "smiles": "CC(C(O)=O)C1=CN=CC=C1", 
	 "Tm": 359.15, 
	 "num_atms": 20, 
	 "gaussian": { 
		 "optdone": 1, 
		 "sigma_profile": "yes", 
		 "theory": "DFT", 
		 "functional": "B3LYP", 
		 "basiset": "6-31G**", 
		 "properties": { 
			 "R2extent": 1899.8507, 
			 "electric_dipole_moment_norm": 3.21707994772, 
			 "electric_quadrupole_moment_norm": 8.24061365433, 
			 "total_energy": -515.487291148, 
			 "HOMO_LUMO_gap": 0.22351, 
			 "cosmo_polarized_energy": -12.28, 
			 "cosmo_cavitation_energy": 24.27, 
			 "cosmo_dispersion_energy": -17.28, 
			 "cosmo_repulsion_energy": 1.41, 
			 "cosmo_total_nonelectrostatic_energy": 8.4, 
			 "SMD_solvation_energy": 3.96 
		},
		"coords": [
			{
				"x": -2.6614479642,
				"y": 0.5800253363,
				"z": -0.0299998441,
				"element": "C" 
			},
			{
				"x": -1.1972971089,
				"y": 0.4295002844,
				"z": 0.4151496703,
				"element": "C" 
			},
			{
				"x": -0.3790352875,
				"y": 1.6387858319,
				"z": -0.024599292,
				"element": "C" 
			},
			{
				"x": 0.65002288,
				"y": 1.8819579666,
				"z": 0.8195957929,
				"element": "O" 
			},
			{
				"x": -0.5846291267,
				"y": 2.3049845852,
				"z": -1.0157276353,
				"element": "O" 
			},
			{
				"x": -0.5549884903,
				"y": -0.8433276998,
				"z": -0.12830541,
				"element": "C" 
			},
			{
				"x": -0.300882832,
				"y": -1.0034432124,
				"z": -1.4988630881,
				"element": "C" 
			},
			{
				"x": 0.2285694171,
				"y": -2.1055140873,
				"z": -2.0409669499,
				"element": "N" 
			},
			{
				"x": 0.5326025519,
				"y": -3.1143939494,
				"z": -1.2147155588,
				"element": "C" 
			},
			{
				"x": 0.3297584217,
				"y": -3.0645141685,
				"z": 0.164501407,
				"element": "C" 
			},
			{
				"x": -0.2210945745,
				"y": -1.907777576,
				"z": 0.7130953919,
				"element": "C" 
			},
			{
				"x": -3.2378615488,
				"y": -0.2997501577,
				"z": 0.2683387562,
				"element": "H" 
			},
			{
				"x": -3.1170028503,
				"y": 1.4652580366,
				"z": 0.4239201614,
				"element": "H" 
			},
			{
				"x": -2.7246796669,
				"y": 0.6898142941,
				"z": -1.1147282682,
				"element": "H" 
			},
			{
				"x": -1.1451176626,
				"y": 0.3874819285,
				"z": 1.5080508617,
				"element": "H" 
			},
			{
				"x": 1.1389586802,
				"y": 2.6335506871,
				"z": 0.4430737067,
				"element": "H" 
			},
			{
				"x": -0.5300498917,
				"y": -0.1932282686,
				"z": -2.1891329403,
				"element": "H" 
			},
			{
				"x": 0.9604487843,
				"y": -4.0020101026,
				"z": -1.6775393619,
				"element": "H" 
			},
			{
				"x": 0.5986658651,
				"y": -3.9091039496,
				"z": 0.7913590376,
				"element": "H" 
			},
			{
				"x": -0.3915395957,
				"y": -1.8308957787,
				"z": 1.7841935628,
				"element": "H" 
			}
		],
		 "valence_orbital": [ 
			{
				"type": "occ",
				"energy": -0.32468,
				"method": "rhf"
			},
			{
				"type": "occ",
				"energy": -0.28996,
				"method": "rhf"
			},
			{
				"type": "occ",
				"energy": -0.28053,
				"method": "rhf"
			},
			{
				"type": "occ",
				"energy": -0.25761,
				"method": "rhf"
			},
			{
				"type": "occ",
				"energy": -0.2529,
				"method": "rhf"
			},
			{
				"type": "unocc",
				"energy": -0.02939,
				"method": "rhf"
			},
			{
				"type": "unocc",
				"energy": -0.01794,
				"method": "rhf"
			},
			{
				"type": "unocc",
				"energy": 0.01006,
				"method": "rhf"
			},
			{
				"type": "unocc",
				"energy": 0.07488,
				"method": "rhf"
			},
			{
				"type": "unocc",
				"energy": 0.09098,
				"method": "rhf"
			}
		],
		"cosmo_sigma_profile": { 
			"-0.025": 0.0,
			"-0.024": 0.0,
			"-0.023": 0.0,
			"-0.022": 0.0,
			"-0.021": 0.0,
			"-0.02": 0.0,
			"-0.019": 0.0203414984546,
			"-0.018": 0.732205132426,
			"-0.017": 1.13248900737,
			"-0.016": 0.545173198754,
			"-0.015": 1.02244775786,
			"-0.014": 0.632612815348,
			"-0.013": 0.9185997286,
			"-0.012": 0.899974494807,
			"-0.011": 0.649758910583,
			"-0.01": 0.67395946278,
			"-0.009": 0.16839962182,
			"-0.008": 1.35014750798,
			"-0.007": 7.60349967474,
			"-0.006": 8.81412440418,
			"-0.005": 13.5524078531,
			"-0.004": 14.7478317946,
			"-0.003": 13.9865635293,
			"-0.002": 13.8516234831,
			"-0.001": 14.788356445,
			"0.0": 15.7632171069,
			"0.001": 12.9749918647,
			"0.002": 14.9740378989,
			"0.003": 10.0489865436,
			"0.004": 5.89166796666,
			"0.005": 5.06507637613,
			"0.006": 3.24987886153,
			"0.007": 4.10816475536,
			"0.008": 4.5822214934,
			"0.009": 3.83811000881,
			"0.01": 3.27859511601,
			"0.011": 4.29791052776,
			"0.012": 4.49073182034,
			"0.013": 0.90280565928,
			"0.014": 0.820969406498,
			"0.015": 0.735754974118,
			"0.016": 1.07396133087,
			"0.017": 0.235005459349,
			"0.018": 0.0,
			"0.019": 0.0,
			"0.02": 0.0,
			"0.021": 0.0,
			"0.022": 0.0,
			"0.023": 0.0,
			"0.024": 0.0,
			"0.025": 0.0
		}
	}
}
