{
	 "smiles": "CCOC(=O)C1=C(NC(=S)NC2=CC=C(Br)C=C2)SC2=C1CCCC2", 
	 "Tm": 477.15, 
	 "num_atms": 44, 
	 "gaussian": { 
		 "optdone": 1, 
		 "sigma_profile": "yes", 
		 "theory": "DFT", 
		 "functional": "B3LYP", 
		 "basiset": "6-31G**", 
		 "properties": { 
			 "R2extent": 14046.0451, 
			 "electric_dipole_moment_norm": 2.0101357392, 
			 "electric_quadrupole_moment_norm": 18.6171198726, 
			 "total_energy": -4325.12973989, 
			 "HOMO_LUMO_gap": 0.13888, 
			 "cosmo_polarized_energy": -16.04, 
			 "cosmo_cavitation_energy": 51.84, 
			 "cosmo_dispersion_energy": -35.62, 
			 "cosmo_repulsion_energy": 2.72, 
			 "cosmo_total_nonelectrostatic_energy": 18.93, 
			 "SMD_solvation_energy": 6.36 
		},
		"coords": [
			{
				"x": -4.6663558926,
				"y": -3.0013478926,
				"z": 1.534002395,
				"element": "C" 
			},
			{
				"x": -3.2195009283,
				"y": -3.3069034459,
				"z": 1.8709859966,
				"element": "C" 
			},
			{
				"x": -2.4259588095,
				"y": -2.1594743031,
				"z": 1.4772756066,
				"element": "O" 
			},
			{
				"x": -1.0791221019,
				"y": -2.265041071,
				"z": 1.6818992755,
				"element": "C" 
			},
			{
				"x": -0.5842459516,
				"y": -3.2679724897,
				"z": 2.1616364617,
				"element": "O" 
			},
			{
				"x": -0.3348065186,
				"y": -1.0566487559,
				"z": 1.2819421229,
				"element": "C" 
			},
			{
				"x": -0.8796906574,
				"y": 0.0710021713,
				"z": 0.6706950002,
				"element": "C" 
			},
			{
				"x": -2.2250516196,
				"y": 0.2707261561,
				"z": 0.3834375507,
				"element": "N" 
			},
			{
				"x": -2.8595515487,
				"y": 1.2574144113,
				"z": -0.328907696,
				"element": "C" 
			},
			{
				"x": -4.4245562429,
				"y": 1.7128890643,
				"z": 0.0479208549,
				"element": "S" 
			},
			{
				"x": -2.1574500345,
				"y": 1.8696295542,
				"z": -1.3461933159,
				"element": "N" 
			},
			{
				"x": -1.3549323163,
				"y": 1.2658589336,
				"z": -2.3501766253,
				"element": "C" 
			},
			{
				"x": -0.6319816526,
				"y": 2.117026651,
				"z": -3.1977471193,
				"element": "C" 
			},
			{
				"x": 0.1394196143,
				"y": 1.5995674054,
				"z": -4.2341292451,
				"element": "C" 
			},
			{
				"x": 0.2003603408,
				"y": 0.2189791309,
				"z": -4.4179825008,
				"element": "C" 
			},
			{
				"x": 1.2676227484,
				"y": -0.5007379217,
				"z": -5.8287698881,
				"element": "Br" 
			},
			{
				"x": -0.5121616124,
				"y": -0.6396527838,
				"z": -3.5838179024,
				"element": "C" 
			},
			{
				"x": -1.296171584,
				"y": -0.1187280677,
				"z": -2.5556295381,
				"element": "C" 
			},
			{
				"x": 0.3205551247,
				"y": 1.3135433061,
				"z": 0.4389469738,
				"element": "S" 
			},
			{
				"x": 1.568533298,
				"y": 0.3049623844,
				"z": 1.139007467,
				"element": "C" 
			},
			{
				"x": 1.0869825792,
				"y": -0.9111266082,
				"z": 1.5309436749,
				"element": "C" 
			},
			{
				"x": 1.9961174995,
				"y": -1.9488853761,
				"z": 2.1517872333,
				"element": "C" 
			},
			{
				"x": 3.4810571921,
				"y": -1.6015159944,
				"z": 1.9492861367,
				"element": "C" 
			},
			{
				"x": 3.7689695164,
				"y": -0.1198169078,
				"z": 2.2231938741,
				"element": "C" 
			},
			{
				"x": 2.9934636961,
				"y": 0.7767515107,
				"z": 1.2418236065,
				"element": "C" 
			},
			{
				"x": -4.7939604516,
				"y": -2.8289744093,
				"z": 0.4614114268,
				"element": "H" 
			},
			{
				"x": -5.2969668885,
				"y": -3.8482465922,
				"z": 1.8216304807,
				"element": "H" 
			},
			{
				"x": -5.0195242659,
				"y": -2.1152716372,
				"z": 2.0696211999,
				"element": "H" 
			},
			{
				"x": -2.8468145145,
				"y": -4.1865163561,
				"z": 1.3383491764,
				"element": "H" 
			},
			{
				"x": -3.0718188092,
				"y": -3.4818146303,
				"z": 2.9408873594,
				"element": "H" 
			},
			{
				"x": -2.8474824455,
				"y": -0.3159358031,
				"z": 0.9295223559,
				"element": "H" 
			},
			{
				"x": -2.6202083662,
				"y": 2.7201174533,
				"z": -1.6419717885,
				"element": "H" 
			},
			{
				"x": -0.669941139,
				"y": 3.1911934865,
				"z": -3.0395588143,
				"element": "H" 
			},
			{
				"x": 0.6934337086,
				"y": 2.2638751675,
				"z": -4.8872811829,
				"element": "H" 
			},
			{
				"x": -0.4681947194,
				"y": -1.7113775238,
				"z": -3.7402482225,
				"element": "H" 
			},
			{
				"x": -1.8638260922,
				"y": -0.792253566,
				"z": -1.9252133562,
				"element": "H" 
			},
			{
				"x": 1.7716109935,
				"y": -2.9350032159,
				"z": 1.7393820351,
				"element": "H" 
			},
			{
				"x": 1.7682401096,
				"y": -2.030053857,
				"z": 3.2233664764,
				"element": "H" 
			},
			{
				"x": 3.7716924072,
				"y": -1.8359398558,
				"z": 0.9163568722,
				"element": "H" 
			},
			{
				"x": 4.094410936,
				"y": -2.236005066,
				"z": 2.5983372459,
				"element": "H" 
			},
			{
				"x": 4.8412886692,
				"y": 0.0890081123,
				"z": 2.1415496849,
				"element": "H" 
			},
			{
				"x": 3.4723457337,
				"y": 0.1265407513,
				"z": 3.250855963,
				"element": "H" 
			},
			{
				"x": 3.471799163,
				"y": 0.7458870674,
				"z": 0.2520442008,
				"element": "H" 
			},
			{
				"x": 3.0336718328,
				"y": 1.8229714131,
				"z": 1.5689284877,
				"element": "H" 
			}
		],
		 "valence_orbital": [ 
			{
				"type": "occ",
				"energy": -0.2652,
				"method": "rhf"
			},
			{
				"type": "occ",
				"energy": -0.25207,
				"method": "rhf"
			},
			{
				"type": "occ",
				"energy": -0.23147,
				"method": "rhf"
			},
			{
				"type": "occ",
				"energy": -0.22,
				"method": "rhf"
			},
			{
				"type": "occ",
				"energy": -0.20677,
				"method": "rhf"
			},
			{
				"type": "unocc",
				"energy": -0.06789,
				"method": "rhf"
			},
			{
				"type": "unocc",
				"energy": -0.0277,
				"method": "rhf"
			},
			{
				"type": "unocc",
				"energy": -0.02118,
				"method": "rhf"
			},
			{
				"type": "unocc",
				"energy": 0.00017,
				"method": "rhf"
			},
			{
				"type": "unocc",
				"energy": 0.00303,
				"method": "rhf"
			}
		],
		"cosmo_sigma_profile": { 
			"-0.025": 0.0,
			"-0.024": 0.0,
			"-0.023": 0.0,
			"-0.022": 0.0,
			"-0.021": 0.0,
			"-0.02": 0.0,
			"-0.019": 0.0,
			"-0.018": 0.0,
			"-0.017": 0.0,
			"-0.016": 0.127332470968,
			"-0.015": 0.690621879118,
			"-0.014": 0.850370606937,
			"-0.013": 0.953749909384,
			"-0.012": 1.55679947103,
			"-0.011": 1.23589722979,
			"-0.01": 0.754771675609,
			"-0.009": 1.00842047096,
			"-0.008": 2.98192886867,
			"-0.007": 7.82308457214,
			"-0.006": 10.3484632715,
			"-0.005": 18.007595495,
			"-0.004": 30.3903063142,
			"-0.003": 40.2230317129,
			"-0.002": 47.207512859,
			"-0.001": 45.8881025248,
			"0.0": 40.3995192981,
			"0.001": 30.7807810931,
			"0.002": 31.7997801674,
			"0.003": 30.6944286369,
			"0.004": 22.2280857995,
			"0.005": 11.6473741642,
			"0.006": 4.33777241853,
			"0.007": 6.20595818743,
			"0.008": 8.60773609828,
			"0.009": 8.18787513044,
			"0.01": 5.22878670899,
			"0.011": 5.22133040116,
			"0.012": 3.21834148478,
			"0.013": 0.21935284399,
			"0.014": 0.0,
			"0.015": 0.0,
			"0.016": 0.0,
			"0.017": 0.0,
			"0.018": 0.0,
			"0.019": 0.0,
			"0.02": 0.0,
			"0.021": 0.0,
			"0.022": 0.0,
			"0.023": 0.0,
			"0.024": 0.0,
			"0.025": 0.0
		}
	}
}
