{
	 "smiles": "OCC1=CC(=O)N2C=CC=CC2=N1", 
	 "Tm": 446.15, 
	 "num_atms": 21, 
	 "gaussian": { 
		 "optdone": 1, 
		 "sigma_profile": "yes", 
		 "theory": "DFT", 
		 "functional": "B3LYP", 
		 "basiset": "6-31G**", 
		 "properties": { 
			 "R2extent": 3258.8512, 
			 "electric_dipole_moment_norm": 4.43731249407, 
			 "electric_quadrupole_moment_norm": 10.7999268729, 
			 "total_energy": -607.726947994, 
			 "HOMO_LUMO_gap": 0.15409, 
			 "cosmo_polarized_energy": -13.11, 
			 "cosmo_cavitation_energy": 25.0, 
			 "cosmo_dispersion_energy": -19.02, 
			 "cosmo_repulsion_energy": 1.48, 
			 "cosmo_total_nonelectrostatic_energy": 7.46, 
			 "SMD_solvation_energy": 4.39 
		},
		"coords": [
			{
				"x": -0.5567142774,
				"y": -2.6602467923,
				"z": -3.840048271,
				"element": "O" 
			},
			{
				"x": 0.3148273297,
				"y": -3.3364800222,
				"z": -2.9705912881,
				"element": "C" 
			},
			{
				"x": 0.6729955844,
				"y": -2.511108614,
				"z": -1.7445844109,
				"element": "C" 
			},
			{
				"x": 1.2475465447,
				"y": -3.0762748353,
				"z": -0.625907134,
				"element": "C" 
			},
			{
				"x": 1.6170084704,
				"y": -2.2855700066,
				"z": 0.4976503203,
				"element": "C" 
			},
			{
				"x": 2.131507017,
				"y": -2.630984294,
				"z": 1.5518436243,
				"element": "O" 
			},
			{
				"x": 1.306032123,
				"y": -0.8561152068,
				"z": 0.3057103132,
				"element": "N" 
			},
			{
				"x": 1.6228227254,
				"y": -0.0115414229,
				"z": 1.3435692148,
				"element": "C" 
			},
			{
				"x": 1.3742915565,
				"y": 1.3264460152,
				"z": 1.2655503505,
				"element": "C" 
			},
			{
				"x": 0.7765450476,
				"y": 1.8513594213,
				"z": 0.0880267189,
				"element": "C" 
			},
			{
				"x": 0.4593601127,
				"y": 1.0132954999,
				"z": -0.9466535596,
				"element": "C" 
			},
			{
				"x": 0.7192259058,
				"y": -0.3864796938,
				"z": -0.8659558778,
				"element": "C" 
			},
			{
				"x": 0.4100834107,
				"y": -1.1924267018,
				"z": -1.8748311512,
				"element": "N" 
			},
			{
				"x": -0.4811452184,
				"y": -1.7213376458,
				"z": -3.5950570953,
				"element": "H" 
			},
			{
				"x": 1.259399204,
				"y": -3.6039111119,
				"z": -3.4783257507,
				"element": "H" 
			},
			{
				"x": -0.1472035953,
				"y": -4.2801568531,
				"z": -2.6520941218,
				"element": "H" 
			},
			{
				"x": 1.4355184061,
				"y": -4.141472437,
				"z": -0.558557043,
				"element": "H" 
			},
			{
				"x": 2.0720664997,
				"y": -0.5182898632,
				"z": 2.1880646505,
				"element": "H" 
			},
			{
				"x": 1.6343550396,
				"y": 1.9688503235,
				"z": 2.0983681048,
				"element": "H" 
			},
			{
				"x": 0.5723821613,
				"y": 2.9147333479,
				"z": 0.0113283153,
				"element": "H" 
			},
			{
				"x": 0.0023959525,
				"y": 1.3645108928,
				"z": -1.8639059094,
				"element": "H" 
			}
		],
		 "valence_orbital": [ 
			{
				"type": "occ",
				"energy": -0.29466,
				"method": "rhf"
			},
			{
				"type": "occ",
				"energy": -0.28583,
				"method": "rhf"
			},
			{
				"type": "occ",
				"energy": -0.27142,
				"method": "rhf"
			},
			{
				"type": "occ",
				"energy": -0.25591,
				"method": "rhf"
			},
			{
				"type": "occ",
				"energy": -0.2244,
				"method": "rhf"
			},
			{
				"type": "unocc",
				"energy": -0.07031,
				"method": "rhf"
			},
			{
				"type": "unocc",
				"energy": -0.05285,
				"method": "rhf"
			},
			{
				"type": "unocc",
				"energy": 0.00657,
				"method": "rhf"
			},
			{
				"type": "unocc",
				"energy": 0.07367,
				"method": "rhf"
			},
			{
				"type": "unocc",
				"energy": 0.07556,
				"method": "rhf"
			}
		],
		"cosmo_sigma_profile": { 
			"-0.025": 0.0,
			"-0.024": 0.0,
			"-0.023": 0.0,
			"-0.022": 0.0,
			"-0.021": 0.0,
			"-0.02": 0.0,
			"-0.019": 0.0,
			"-0.018": 0.0,
			"-0.017": 0.0,
			"-0.016": 0.0,
			"-0.015": 0.0,
			"-0.014": 0.0,
			"-0.013": 0.0,
			"-0.012": 0.0,
			"-0.011": 0.0,
			"-0.01": 0.0,
			"-0.009": 0.804888662275,
			"-0.008": 7.73183845089,
			"-0.007": 10.6512080113,
			"-0.006": 12.2317126481,
			"-0.005": 12.8859677616,
			"-0.004": 17.9532316539,
			"-0.003": 14.2237578671,
			"-0.002": 15.3098067162,
			"-0.001": 15.134223559,
			"0.0": 17.7514410797,
			"0.001": 18.6976364432,
			"0.002": 9.29228121804,
			"0.003": 6.03113007807,
			"0.004": 4.46481621739,
			"0.005": 5.75277514083,
			"0.006": 2.39706666117,
			"0.007": 2.40039432163,
			"0.008": 3.96119075072,
			"0.009": 2.38214205378,
			"0.01": 2.73841386931,
			"0.011": 2.24274632292,
			"0.012": 4.76858267651,
			"0.013": 6.17761761409,
			"0.014": 3.61431857109,
			"0.015": 1.01642021913,
			"0.016": 0.0,
			"0.017": 0.0,
			"0.018": 0.0,
			"0.019": 0.0,
			"0.02": 0.0,
			"0.021": 0.0,
			"0.022": 0.0,
			"0.023": 0.0,
			"0.024": 0.0,
			"0.025": 0.0
		}
	}
}
