{
	 "smiles": "C(CC1=CC=CC=C1)C1=CC=CC=C1", 
	 "Tm": 326.15, 
	 "num_atms": 28, 
	 "gaussian": { 
		 "optdone": 1, 
		 "sigma_profile": "yes", 
		 "theory": "DFT", 
		 "functional": "B3LYP", 
		 "basiset": "6-31G**", 
		 "properties": { 
			 "R2extent": 3369.7778, 
			 "electric_dipole_moment_norm": 0.238772318329, 
			 "electric_quadrupole_moment_norm": 8.32974782812, 
			 "total_energy": -541.939150947, 
			 "HOMO_LUMO_gap": 0.23319, 
			 "cosmo_polarized_energy": -5.53, 
			 "cosmo_cavitation_energy": 31.06, 
			 "cosmo_dispersion_energy": -21.43, 
			 "cosmo_repulsion_energy": 1.7, 
			 "cosmo_total_nonelectrostatic_energy": 11.33, 
			 "SMD_solvation_energy": 4.79 
		},
		"coords": [
			{
				"x": -1.2287962775,
				"y": -1.5087436776,
				"z": -0.287404843,
				"element": "C" 
			},
			{
				"x": -1.242981731,
				"y": -1.3206331917,
				"z": -1.8302020681,
				"element": "C" 
			},
			{
				"x": -1.3142168817,
				"y": 0.1232616549,
				"z": -2.2785796643,
				"element": "C" 
			},
			{
				"x": -0.1579311203,
				"y": 0.837811929,
				"z": -2.619187765,
				"element": "C" 
			},
			{
				"x": -0.2308124774,
				"y": 2.1753894534,
				"z": -3.0125325557,
				"element": "C" 
			},
			{
				"x": -1.4654135321,
				"y": 2.8235983322,
				"z": -3.0706020109,
				"element": "C" 
			},
			{
				"x": -2.6262921152,
				"y": 2.1240574573,
				"z": -2.733702783,
				"element": "C" 
			},
			{
				"x": -2.5481839086,
				"y": 0.7870941903,
				"z": -2.3428059467,
				"element": "C" 
			},
			{
				"x": 0.0287015004,
				"y": -1.0046508607,
				"z": 0.3874950342,
				"element": "C" 
			},
			{
				"x": 1.1779145999,
				"y": -1.8072095233,
				"z": 0.4389061646,
				"element": "C" 
			},
			{
				"x": 2.3504964204,
				"y": -1.3469545755,
				"z": 1.0385852096,
				"element": "C" 
			},
			{
				"x": 2.3937025762,
				"y": -0.0696946366,
				"z": 1.6018022628,
				"element": "C" 
			},
			{
				"x": 1.2572999168,
				"y": 0.7393528293,
				"z": 1.5590914066,
				"element": "C" 
			},
			{
				"x": 0.0868602705,
				"y": 0.2746431869,
				"z": 0.9564044604,
				"element": "C" 
			},
			{
				"x": -2.105323306,
				"y": -1.0052285277,
				"z": 0.1362525263,
				"element": "H" 
			},
			{
				"x": -1.3479759392,
				"y": -2.5788164435,
				"z": -0.077806021,
				"element": "H" 
			},
			{
				"x": -2.1076480959,
				"y": -1.8661115286,
				"z": -2.2277082055,
				"element": "H" 
			},
			{
				"x": -0.349723156,
				"y": -1.7966766926,
				"z": -2.2506436046,
				"element": "H" 
			},
			{
				"x": 0.8073592677,
				"y": 0.3405772584,
				"z": -2.5746523046,
				"element": "H" 
			},
			{
				"x": 0.6779673735,
				"y": 2.710045019,
				"z": -3.2749492167,
				"element": "H" 
			},
			{
				"x": -1.5238023962,
				"y": 3.8634156604,
				"z": -3.3796012156,
				"element": "H" 
			},
			{
				"x": -3.593241326,
				"y": 2.6175130384,
				"z": -2.7817318346,
				"element": "H" 
			},
			{
				"x": -3.458134147,
				"y": 0.2467252378,
				"z": -2.0902276752,
				"element": "H" 
			},
			{
				"x": 1.149852583,
				"y": -2.8067351854,
				"z": 0.010003558,
				"element": "H" 
			},
			{
				"x": 3.2277458036,
				"y": -1.9873472945,
				"z": 1.0721627776,
				"element": "H" 
			},
			{
				"x": 3.3040410358,
				"y": 0.2894963338,
				"z": 2.0733702905,
				"element": "H" 
			},
			{
				"x": 1.2798327398,
				"y": 1.7336920586,
				"z": 1.9965629796,
				"element": "H" 
			},
			{
				"x": -0.7932976775,
				"y": 0.9113284979,
				"z": 0.9254010443,
				"element": "H" 
			}
		],
		 "valence_orbital": [ 
			{
				"type": "occ",
				"energy": -0.32191,
				"method": "rhf"
			},
			{
				"type": "occ",
				"energy": -0.24621,
				"method": "rhf"
			},
			{
				"type": "occ",
				"energy": -0.24367,
				"method": "rhf"
			},
			{
				"type": "occ",
				"energy": -0.23796,
				"method": "rhf"
			},
			{
				"type": "occ",
				"energy": -0.23238,
				"method": "rhf"
			},
			{
				"type": "unocc",
				"energy": 0.00081,
				"method": "rhf"
			},
			{
				"type": "unocc",
				"energy": 0.00118,
				"method": "rhf"
			},
			{
				"type": "unocc",
				"energy": 0.00735,
				"method": "rhf"
			},
			{
				"type": "unocc",
				"energy": 0.00822,
				"method": "rhf"
			},
			{
				"type": "unocc",
				"energy": 0.09381,
				"method": "rhf"
			}
		],
		"cosmo_sigma_profile": { 
			"-0.025": 0.0,
			"-0.024": 0.0,
			"-0.023": 0.0,
			"-0.022": 0.0,
			"-0.021": 0.0,
			"-0.02": 0.0,
			"-0.019": 0.0,
			"-0.018": 0.0,
			"-0.017": 0.0,
			"-0.016": 0.0,
			"-0.015": 0.0,
			"-0.014": 0.0,
			"-0.013": 0.0,
			"-0.012": 0.0,
			"-0.011": 0.0,
			"-0.01": 0.0,
			"-0.009": 0.0,
			"-0.008": 0.0,
			"-0.007": 0.0,
			"-0.006": 2.0892380334,
			"-0.005": 16.2809273304,
			"-0.004": 25.5097612553,
			"-0.003": 35.357518115,
			"-0.002": 26.7985302307,
			"-0.001": 22.0430649533,
			"0.0": 19.1311595232,
			"0.001": 14.6539670106,
			"0.002": 15.4222991898,
			"0.003": 13.7538090857,
			"0.004": 15.6669873515,
			"0.005": 16.0907731703,
			"0.006": 16.8698481408,
			"0.007": 6.76575819705,
			"0.008": 0.0,
			"0.009": 0.0,
			"0.01": 0.0,
			"0.011": 0.0,
			"0.012": 0.0,
			"0.013": 0.0,
			"0.014": 0.0,
			"0.015": 0.0,
			"0.016": 0.0,
			"0.017": 0.0,
			"0.018": 0.0,
			"0.019": 0.0,
			"0.02": 0.0,
			"0.021": 0.0,
			"0.022": 0.0,
			"0.023": 0.0,
			"0.024": 0.0,
			"0.025": 0.0
		}
	}
}
