{
	 "smiles": "N(C1=CC=CC=C1)C1=CC=C(NC2=CC=CC=C2)C=C1", 
	 "Tm": 419.15, 
	 "num_atms": 36, 
	 "gaussian": { 
		 "optdone": 1, 
		 "sigma_profile": "yes", 
		 "theory": "DFT", 
		 "functional": "B3LYP", 
		 "basiset": "6-31G**", 
		 "properties": { 
			 "R2extent": 9881.5894, 
			 "electric_dipole_moment_norm": 0.000173205080757, 
			 "electric_quadrupole_moment_norm": 13.5187022517, 
			 "total_energy": -805.065514423, 
			 "HOMO_LUMO_gap": 0.16232, 
			 "cosmo_polarized_energy": -12.1, 
			 "cosmo_cavitation_energy": 39.66, 
			 "cosmo_dispersion_energy": -29.06, 
			 "cosmo_repulsion_energy": 2.2, 
			 "cosmo_total_nonelectrostatic_energy": 12.8, 
			 "SMD_solvation_energy": 6.15 
		},
		"coords": [
			{
				"x": 2.3232096719,
				"y": 0.0303482797,
				"z": -0.199553251,
				"element": "N" 
			},
			{
				"x": 3.2630801963,
				"y": 0.983481588,
				"z": 0.19794262,
				"element": "C" 
			},
			{
				"x": 4.5806815716,
				"y": 0.5580221586,
				"z": 0.4549604036,
				"element": "C" 
			},
			{
				"x": 5.5658502186,
				"y": 1.4720531359,
				"z": 0.8157087839,
				"element": "C" 
			},
			{
				"x": 5.2642244973,
				"y": 2.830104482,
				"z": 0.9441227366,
				"element": "C" 
			},
			{
				"x": 3.9602709385,
				"y": 3.2568291538,
				"z": 0.6874795816,
				"element": "C" 
			},
			{
				"x": 2.9666430421,
				"y": 2.3542266918,
				"z": 0.3110471263,
				"element": "C" 
			},
			{
				"x": 0.9221606222,
				"y": 0.1091650479,
				"z": -0.1977653393,
				"element": "C" 
			},
			{
				"x": 0.1980949766,
				"y": 0.8481264008,
				"z": 0.7526933045,
				"element": "C" 
			},
			{
				"x": -1.1929111532,
				"y": 0.8443173899,
				"z": 0.7420805667,
				"element": "C" 
			},
			{
				"x": -1.9184131238,
				"y": 0.1068691114,
				"z": -0.2078312945,
				"element": "C" 
			},
			{
				"x": -3.319462765,
				"y": 0.1856231124,
				"z": -0.2060471203,
				"element": "N" 
			},
			{
				"x": -4.2592139487,
				"y": -0.7675408864,
				"z": -0.6037226829,
				"element": "C" 
			},
			{
				"x": -5.5768968967,
				"y": -0.3422451946,
				"z": -0.8605954736,
				"element": "C" 
			},
			{
				"x": -6.5619111416,
				"y": -1.2563639932,
				"z": -1.2215412492,
				"element": "C" 
			},
			{
				"x": -6.2600356966,
				"y": -2.6143259863,
				"z": -1.3503329379,
				"element": "C" 
			},
			{
				"x": -4.9559867582,
				"y": -3.0408759534,
				"z": -1.0938787308,
				"element": "C" 
			},
			{
				"x": -3.9625145324,
				"y": -2.1381908218,
				"z": -0.7172351042,
				"element": "C" 
			},
			{
				"x": -1.19435408,
				"y": -0.6321118813,
				"z": -1.1582696488,
				"element": "C" 
			},
			{
				"x": 0.1966521669,
				"y": -0.6283191474,
				"z": -1.1476453929,
				"element": "C" 
			},
			{
				"x": 2.7075965668,
				"y": -0.8216354594,
				"z": -0.5784098525,
				"element": "H" 
			},
			{
				"x": 4.8222831217,
				"y": -0.4994402213,
				"z": 0.3741182546,
				"element": "H" 
			},
			{
				"x": 6.5748718729,
				"y": 1.116814108,
				"z": 1.0065453383,
				"element": "H" 
			},
			{
				"x": 6.031083707,
				"y": 3.5409940673,
				"z": 1.2350819026,
				"element": "H" 
			},
			{
				"x": 3.7091329219,
				"y": 4.3112308231,
				"z": 0.7665576911,
				"element": "H" 
			},
			{
				"x": 1.9699127337,
				"y": 2.7125567001,
				"z": 0.0820133818,
				"element": "H" 
			},
			{
				"x": 0.7231390949,
				"y": 1.4007721633,
				"z": 1.5233243862,
				"element": "H" 
			},
			{
				"x": -1.7310295968,
				"y": 1.4081418,
				"z": 1.5004117953,
				"element": "H" 
			},
			{
				"x": -3.703918643,
				"y": 1.0375356621,
				"z": 0.1729000184,
				"element": "H" 
			},
			{
				"x": -5.8186863282,
				"y": 0.7151527706,
				"z": -0.7794711561,
				"element": "H" 
			},
			{
				"x": -7.5710062694,
				"y": -0.9012614724,
				"z": -1.4122445168,
				"element": "H" 
			},
			{
				"x": -7.0267732197,
				"y": -3.3252790587,
				"z": -1.6414575213,
				"element": "H" 
			},
			{
				"x": -4.7046466235,
				"y": -4.0952053662,
				"z": -1.1732792823,
				"element": "H" 
			},
			{
				"x": -2.9656838292,
				"y": -2.4963783578,
				"z": -0.4883949567,
				"element": "H" 
			},
			{
				"x": -1.7194096208,
				"y": -1.1848089055,
				"z": -1.9288610176,
				"element": "H" 
			},
			{
				"x": 0.7347663058,
				"y": -1.1921819408,
				"z": -1.9059513629,
				"element": "H" 
			}
		],
		 "valence_orbital": [ 
			{
				"type": "occ",
				"energy": -0.25023,
				"method": "rhf"
			},
			{
				"type": "occ",
				"energy": -0.24535,
				"method": "rhf"
			},
			{
				"type": "occ",
				"energy": -0.24511,
				"method": "rhf"
			},
			{
				"type": "occ",
				"energy": -0.20678,
				"method": "rhf"
			},
			{
				"type": "occ",
				"energy": -0.17079,
				"method": "rhf"
			},
			{
				"type": "unocc",
				"energy": -0.00847,
				"method": "rhf"
			},
			{
				"type": "unocc",
				"energy": -0.00468,
				"method": "rhf"
			},
			{
				"type": "unocc",
				"energy": 0.00347,
				"method": "rhf"
			},
			{
				"type": "unocc",
				"energy": 0.00434,
				"method": "rhf"
			},
			{
				"type": "unocc",
				"energy": 0.01734,
				"method": "rhf"
			}
		],
		"cosmo_sigma_profile": { 
			"-0.025": 0.0,
			"-0.024": 0.0,
			"-0.023": 0.0,
			"-0.022": 0.0,
			"-0.021": 0.0,
			"-0.02": 0.0,
			"-0.019": 0.0,
			"-0.018": 0.0,
			"-0.017": 0.0,
			"-0.016": 0.0,
			"-0.015": 0.0,
			"-0.014": 0.140026498416,
			"-0.013": 2.65833973426,
			"-0.012": 1.88563287592,
			"-0.011": 2.97858576425,
			"-0.01": 3.09302806605,
			"-0.009": 3.2348571447,
			"-0.008": 2.99827762933,
			"-0.007": 4.64824048031,
			"-0.006": 8.08571882437,
			"-0.005": 21.5688899572,
			"-0.004": 25.087791287,
			"-0.003": 29.7770884764,
			"-0.002": 23.9894038231,
			"-0.001": 18.9408664124,
			"0.0": 17.9335269294,
			"0.001": 15.9546240496,
			"0.002": 19.3123801096,
			"0.003": 21.3687387333,
			"0.004": 26.1982147878,
			"0.005": 28.8392622924,
			"0.006": 23.7444933542,
			"0.007": 14.2208758384,
			"0.008": 0.73284260165,
			"0.009": 0.0,
			"0.01": 0.0,
			"0.011": 0.0,
			"0.012": 0.0,
			"0.013": 0.0,
			"0.014": 0.0,
			"0.015": 0.0,
			"0.016": 0.0,
			"0.017": 0.0,
			"0.018": 0.0,
			"0.019": 0.0,
			"0.02": 0.0,
			"0.021": 0.0,
			"0.022": 0.0,
			"0.023": 0.0,
			"0.024": 0.0,
			"0.025": 0.0
		}
	}
}
