{
	 "smiles": "COC1=C(C=C(Br)C(C)=C1)S(Cl)(=O)=O", 
	 "Tm": 411.15, 
	 "num_atms": 22, 
	 "gaussian": { 
		 "optdone": 1, 
		 "sigma_profile": "yes", 
		 "theory": "DFT", 
		 "functional": "B3LYP", 
		 "basiset": "6-31G**", 
		 "properties": { 
			 "R2extent": 5941.3547, 
			 "electric_dipole_moment_norm": 6.84892327085, 
			 "electric_quadrupole_moment_norm": 7.13391098627, 
			 "total_energy": -3965.04922214, 
			 "HOMO_LUMO_gap": 0.1629, 
			 "cosmo_polarized_energy": -12.29, 
			 "cosmo_cavitation_energy": 31.58, 
			 "cosmo_dispersion_energy": -23.45, 
			 "cosmo_repulsion_energy": 1.81, 
			 "cosmo_total_nonelectrostatic_energy": 9.95, 
			 "SMD_solvation_energy": 3.94 
		},
		"coords": [
			{
				"x": -1.7028526379,
				"y": 2.0062652247,
				"z": 0.3547920907,
				"element": "C" 
			},
			{
				"x": -0.6770314896,
				"y": 1.3355013178,
				"z": -0.3718983875,
				"element": "O" 
			},
			{
				"x": -0.1926537884,
				"y": 0.1698811223,
				"z": 0.0943837496,
				"element": "C" 
			},
			{
				"x": 0.8210739317,
				"y": -0.4572975996,
				"z": -0.6590167575,
				"element": "C" 
			},
			{
				"x": 1.3579011909,
				"y": -1.6818094061,
				"z": -0.265627717,
				"element": "C" 
			},
			{
				"x": 0.8976468448,
				"y": -2.2876002111,
				"z": 0.8973544478,
				"element": "C" 
			},
			{
				"x": 1.6675436975,
				"y": -3.9602138126,
				"z": 1.4070032393,
				"element": "Br" 
			},
			{
				"x": -0.1034760327,
				"y": -1.6955382473,
				"z": 1.6836506895,
				"element": "C" 
			},
			{
				"x": -0.6127492889,
				"y": -2.338237951,
				"z": 2.9457613698,
				"element": "C" 
			},
			{
				"x": -0.6328250248,
				"y": -0.4695829853,
				"z": 1.2594211955,
				"element": "C" 
			},
			{
				"x": 1.5050625429,
				"y": 0.2961775125,
				"z": -2.1260860306,
				"element": "S" 
			},
			{
				"x": -0.1401086596,
				"y": 0.1844232741,
				"z": -3.4778339435,
				"element": "Cl" 
			},
			{
				"x": 2.523647864,
				"y": -0.5998121024,
				"z": -2.6624907667,
				"element": "O" 
			},
			{
				"x": 1.7735051856,
				"y": 1.7105177588,
				"z": -1.9116627551,
				"element": "O" 
			},
			{
				"x": -1.916980123,
				"y": 2.911137678,
				"z": -0.2130989955,
				"element": "H" 
			},
			{
				"x": -2.6087314785,
				"y": 1.3928433397,
				"z": 0.4220036894,
				"element": "H" 
			},
			{
				"x": -1.3635923599,
				"y": 2.2775949312,
				"z": 1.3609933217,
				"element": "H" 
			},
			{
				"x": 2.1296707632,
				"y": -2.1433059175,
				"z": -0.868563156,
				"element": "H" 
			},
			{
				"x": -1.3890221011,
				"y": -1.7280177359,
				"z": 3.4125404892,
				"element": "H" 
			},
			{
				"x": -1.0265905734,
				"y": -3.3307187284,
				"z": 2.7393282996,
				"element": "H" 
			},
			{
				"x": 0.199183655,
				"y": -2.4803074125,
				"z": 3.6665954305,
				"element": "H" 
			},
			{
				"x": -1.4096221179,
				"y": -0.0115000493,
				"z": 1.8595504969,
				"element": "H" 
			}
		],
		 "valence_orbital": [ 
			{
				"type": "occ",
				"energy": -0.31245,
				"method": "rhf"
			},
			{
				"type": "occ",
				"energy": -0.30579,
				"method": "rhf"
			},
			{
				"type": "occ",
				"energy": -0.30121,
				"method": "rhf"
			},
			{
				"type": "occ",
				"energy": -0.28678,
				"method": "rhf"
			},
			{
				"type": "occ",
				"energy": -0.24627,
				"method": "rhf"
			},
			{
				"type": "unocc",
				"energy": -0.08337,
				"method": "rhf"
			},
			{
				"type": "unocc",
				"energy": -0.04637,
				"method": "rhf"
			},
			{
				"type": "unocc",
				"energy": -0.0295,
				"method": "rhf"
			},
			{
				"type": "unocc",
				"energy": -0.00582,
				"method": "rhf"
			},
			{
				"type": "unocc",
				"energy": 0.04858,
				"method": "rhf"
			}
		],
		"cosmo_sigma_profile": { 
			"-0.025": 0.0,
			"-0.024": 0.0,
			"-0.023": 0.0,
			"-0.022": 0.0,
			"-0.021": 0.0,
			"-0.02": 0.0,
			"-0.019": 0.0,
			"-0.018": 0.0,
			"-0.017": 0.0,
			"-0.016": 0.0,
			"-0.015": 0.0,
			"-0.014": 0.0,
			"-0.013": 0.0,
			"-0.012": 0.0,
			"-0.011": 0.0,
			"-0.01": 0.0,
			"-0.009": 0.411532727504,
			"-0.008": 3.97779878275,
			"-0.007": 9.40136734072,
			"-0.006": 13.8142265729,
			"-0.005": 15.4812404553,
			"-0.004": 20.2218513783,
			"-0.003": 16.6072940927,
			"-0.002": 19.0865953423,
			"-0.001": 26.0418915736,
			"0.0": 22.9030690343,
			"0.001": 18.2345343452,
			"0.002": 16.0364842539,
			"0.003": 19.910768043,
			"0.004": 19.1617410472,
			"0.005": 7.39311367937,
			"0.006": 3.5849673849,
			"0.007": 5.76758184964,
			"0.008": 11.1537659142,
			"0.009": 7.4173678303,
			"0.01": 1.3694258434,
			"0.011": 0.111691660591,
			"0.012": 0.0,
			"0.013": 0.0,
			"0.014": 0.0,
			"0.015": 0.0,
			"0.016": 0.0,
			"0.017": 0.0,
			"0.018": 0.0,
			"0.019": 0.0,
			"0.02": 0.0,
			"0.021": 0.0,
			"0.022": 0.0,
			"0.023": 0.0,
			"0.024": 0.0,
			"0.025": 0.0
		}
	}
}
