{
	 "smiles": "N#CC(C#N)=C(C#N)C#N", 
	 "Tm": 471.15, 
	 "num_atms": 10, 
	 "gaussian": { 
		 "optdone": 1, 
		 "sigma_profile": "yes", 
		 "theory": "DFT", 
		 "functional": "B3LYP", 
		 "basiset": "6-31G**", 
		 "properties": { 
			 "R2extent": 2287.5293, 
			 "electric_dipole_moment_norm": 0.00022360679775, 
			 "electric_quadrupole_moment_norm": 13.108896531, 
			 "total_energy": -447.50608945, 
			 "HOMO_LUMO_gap": 0.15284, 
			 "cosmo_polarized_energy": -12.41, 
			 "cosmo_cavitation_energy": 20.65, 
			 "cosmo_dispersion_energy": -12.3, 
			 "cosmo_repulsion_energy": 1.04, 
			 "cosmo_total_nonelectrostatic_energy": 9.39, 
			 "SMD_solvation_energy": 9.33 
		},
		"coords": [
			{
				"x": -0.3146683381,
				"y": 0.8615294435,
				"z": -0.8234171615,
				"element": "N" 
			},
			{
				"x": 0.3271612756,
				"y": 0.0514280191,
				"z": -0.2906416347,
				"element": "C" 
			},
			{
				"x": 1.0964030985,
				"y": -0.9636907623,
				"z": 0.3589030149,
				"element": "C" 
			},
			{
				"x": 0.5346984966,
				"y": -2.2778564581,
				"z": 0.3982221774,
				"element": "C" 
			},
			{
				"x": 0.0595345283,
				"y": -3.3389235096,
				"z": 0.4188079738,
				"element": "N" 
			},
			{
				"x": 2.3190312353,
				"y": -0.6889367114,
				"z": 0.9195036673,
				"element": "C" 
			},
			{
				"x": 2.8806885591,
				"y": 0.6252563862,
				"z": 0.8802227657,
				"element": "C" 
			},
			{
				"x": 3.3557397736,
				"y": 1.6863728542,
				"z": 0.859603389,
				"element": "N" 
			},
			{
				"x": 3.0882633974,
				"y": -1.7040226215,
				"z": 1.5691045277,
				"element": "C" 
			},
			{
				"x": 3.7300479738,
				"y": -2.5141566401,
				"z": 2.1018912804,
				"element": "N" 
			}
		],
		 "valence_orbital": [ 
			{
				"type": "occ",
				"energy": -0.40485,
				"method": "rhf"
			},
			{
				"type": "occ",
				"energy": -0.39988,
				"method": "rhf"
			},
			{
				"type": "occ",
				"energy": -0.39889,
				"method": "rhf"
			},
			{
				"type": "occ",
				"energy": -0.38557,
				"method": "rhf"
			},
			{
				"type": "occ",
				"energy": -0.33503,
				"method": "rhf"
			},
			{
				"type": "unocc",
				"energy": -0.18219,
				"method": "rhf"
			},
			{
				"type": "unocc",
				"energy": -0.06732,
				"method": "rhf"
			},
			{
				"type": "unocc",
				"energy": -0.0544,
				"method": "rhf"
			},
			{
				"type": "unocc",
				"energy": -0.02581,
				"method": "rhf"
			},
			{
				"type": "unocc",
				"energy": -0.02574,
				"method": "rhf"
			}
		],
		"cosmo_sigma_profile": { 
			"-0.025": 0.0,
			"-0.024": 0.0,
			"-0.023": 0.0,
			"-0.022": 0.0,
			"-0.021": 0.0,
			"-0.02": 0.0,
			"-0.019": 0.0,
			"-0.018": 0.0,
			"-0.017": 0.0,
			"-0.016": 0.0,
			"-0.015": 0.0,
			"-0.014": 0.0,
			"-0.013": 0.0,
			"-0.012": 0.54467058845,
			"-0.011": 6.30836200283,
			"-0.01": 10.1405584204,
			"-0.009": 5.68795610559,
			"-0.008": 5.90219355926,
			"-0.007": 5.68754507748,
			"-0.006": 6.54483137463,
			"-0.005": 6.58882052241,
			"-0.004": 6.32931834977,
			"-0.003": 4.50375725602,
			"-0.002": 9.8135343083,
			"-0.001": 7.31401646472,
			"0.0": 8.89131994647,
			"0.001": 8.29931360745,
			"0.002": 9.09912659053,
			"0.003": 9.84695972273,
			"0.004": 9.94964060444,
			"0.005": 12.164568689,
			"0.006": 10.4284203488,
			"0.007": 9.97648502822,
			"0.008": 8.95107607663,
			"0.009": 8.07459902329,
			"0.01": 1.50262331159,
			"0.011": 0.0,
			"0.012": 0.0,
			"0.013": 0.0,
			"0.014": 0.0,
			"0.015": 0.0,
			"0.016": 0.0,
			"0.017": 0.0,
			"0.018": 0.0,
			"0.019": 0.0,
			"0.02": 0.0,
			"0.021": 0.0,
			"0.022": 0.0,
			"0.023": 0.0,
			"0.024": 0.0,
			"0.025": 0.0
		}
	}
}
