{
	 "smiles": "CN1C=C(C=C1C(O)=O)S(N)(=O)=O", 
	 "Tm": 476.15, 
	 "num_atms": 21, 
	 "gaussian": { 
		 "optdone": 1, 
		 "sigma_profile": "yes", 
		 "theory": "DFT", 
		 "functional": "B3LYP", 
		 "basiset": "6-31G**", 
		 "properties": { 
			 "R2extent": 3660.7681, 
			 "electric_dipole_moment_norm": 2.38934157039, 
			 "electric_quadrupole_moment_norm": 27.3839933903, 
			 "total_energy": -1041.97575551, 
			 "HOMO_LUMO_gap": 0.20861, 
			 "cosmo_polarized_energy": -24.79, 
			 "cosmo_cavitation_energy": 27.34, 
			 "cosmo_dispersion_energy": -20.48, 
			 "cosmo_repulsion_energy": 1.58, 
			 "cosmo_total_nonelectrostatic_energy": 8.44, 
			 "SMD_solvation_energy": 5.78 
		},
		"coords": [
			{
				"x": 2.9515481863,
				"y": 0.5829404264,
				"z": -1.6333785729,
				"element": "C" 
			},
			{
				"x": 1.553283206,
				"y": 0.6712646678,
				"z": -1.2085019287,
				"element": "N" 
			},
			{
				"x": 0.8797529786,
				"y": 1.8368564938,
				"z": -1.0422062401,
				"element": "C" 
			},
			{
				"x": -0.4123046202,
				"y": 1.542401182,
				"z": -0.6324756058,
				"element": "C" 
			},
			{
				"x": -0.5254710208,
				"y": 0.1389421787,
				"z": -0.5351885937,
				"element": "C" 
			},
			{
				"x": 0.706962055,
				"y": -0.3886764291,
				"z": -0.895747778,
				"element": "C" 
			},
			{
				"x": 1.1436740003,
				"y": -1.7910259827,
				"z": -1.0066782173,
				"element": "C" 
			},
			{
				"x": 0.3118224528,
				"y": -2.7136094698,
				"z": -0.4596876143,
				"element": "O" 
			},
			{
				"x": 2.1675923208,
				"y": -2.1440517602,
				"z": -1.5522243248,
				"element": "O" 
			},
			{
				"x": -1.6241620947,
				"y": 2.7561355848,
				"z": -0.2471601447,
				"element": "S" 
			},
			{
				"x": -2.80692944,
				"y": 2.4891868443,
				"z": -1.4319363668,
				"element": "N" 
			},
			{
				"x": -2.2757079722,
				"y": 2.4112965419,
				"z": 1.0180780076,
				"element": "O" 
			},
			{
				"x": -0.9868616993,
				"y": 4.0617291643,
				"z": -0.4547215633,
				"element": "O" 
			},
			{
				"x": 3.0279601812,
				"y": 0.0551317777,
				"z": -2.583869043,
				"element": "H" 
			},
			{
				"x": 3.3347733875,
				"y": 1.5993482974,
				"z": -1.7337296207,
				"element": "H" 
			},
			{
				"x": 3.5401182319,
				"y": 0.038790593,
				"z": -0.8937466513,
				"element": "H" 
			},
			{
				"x": 1.3410816017,
				"y": 2.7983767443,
				"z": -1.2087338648,
				"element": "H" 
			},
			{
				"x": -1.4202568416,
				"y": -0.4040409204,
				"z": -0.2641888935,
				"element": "H" 
			},
			{
				"x": -0.383118643,
				"y": -2.2834840385,
				"z": 0.0578711325,
				"element": "H" 
			},
			{
				"x": -2.6650575325,
				"y": 3.1134415052,
				"z": -2.2227531264,
				"element": "H" 
			},
			{
				"x": -3.7178987379,
				"y": 2.6448465993,
				"z": -1.0060209899,
				"element": "H" 
			}
		],
		 "valence_orbital": [ 
			{
				"type": "occ",
				"energy": -0.30903,
				"method": "rhf"
			},
			{
				"type": "occ",
				"energy": -0.3022,
				"method": "rhf"
			},
			{
				"type": "occ",
				"energy": -0.28552,
				"method": "rhf"
			},
			{
				"type": "occ",
				"energy": -0.27335,
				"method": "rhf"
			},
			{
				"type": "occ",
				"energy": -0.25595,
				"method": "rhf"
			},
			{
				"type": "unocc",
				"energy": -0.04734,
				"method": "rhf"
			},
			{
				"type": "unocc",
				"energy": -0.00431,
				"method": "rhf"
			},
			{
				"type": "unocc",
				"energy": 0.04831,
				"method": "rhf"
			},
			{
				"type": "unocc",
				"energy": 0.05904,
				"method": "rhf"
			},
			{
				"type": "unocc",
				"energy": 0.07791,
				"method": "rhf"
			}
		],
		"cosmo_sigma_profile": { 
			"-0.025": 0.0,
			"-0.024": 0.0,
			"-0.023": 0.0,
			"-0.022": 0.0,
			"-0.021": 0.0,
			"-0.02": 0.0356662136967,
			"-0.019": 0.813915632183,
			"-0.018": 1.22673230288,
			"-0.017": 0.791860627245,
			"-0.016": 0.618436673822,
			"-0.015": 2.04286728414,
			"-0.014": 3.49283559618,
			"-0.013": 4.25784901793,
			"-0.012": 5.06229472428,
			"-0.011": 2.77041243105,
			"-0.01": 5.70996345677,
			"-0.009": 4.95826858446,
			"-0.008": 4.92624058717,
			"-0.007": 5.78017248908,
			"-0.006": 9.6300426658,
			"-0.005": 10.5694620939,
			"-0.004": 12.1174073722,
			"-0.003": 14.3068361032,
			"-0.002": 10.1238726553,
			"-0.001": 10.3479362808,
			"0.0": 9.67928494535,
			"0.001": 9.19303852692,
			"0.002": 7.5095809852,
			"0.003": 7.7640635696,
			"0.004": 5.86908786545,
			"0.005": 6.37678331144,
			"0.006": 5.01197123587,
			"0.007": 5.62709245427,
			"0.008": 6.88731711173,
			"0.009": 6.70937637335,
			"0.01": 11.785201426,
			"0.011": 16.0327630682,
			"0.012": 7.89544980075,
			"0.013": 1.59860718081,
			"0.014": 0.0526310658327,
			"0.015": 0.0,
			"0.016": 0.0,
			"0.017": 0.0,
			"0.018": 0.0,
			"0.019": 0.0,
			"0.02": 0.0,
			"0.021": 0.0,
			"0.022": 0.0,
			"0.023": 0.0,
			"0.024": 0.0,
			"0.025": 0.0
		}
	}
}
