{
	 "smiles": "OC(=O)C1=CN=C(OC2=CC=C(OC3=CC=CC=C3)C=C2)C=C1", 
	 "Tm": 426.15, 
	 "num_atms": 36, 
	 "gaussian": { 
		 "optdone": 1, 
		 "sigma_profile": "yes", 
		 "theory": "DFT", 
		 "functional": "B3LYP", 
		 "basiset": "6-31G**", 
		 "properties": { 
			 "R2extent": 12001.3133, 
			 "electric_dipole_moment_norm": 1.21830925877, 
			 "electric_quadrupole_moment_norm": 13.2600994532, 
			 "total_energy": -1049.39845121, 
			 "HOMO_LUMO_gap": 0.16533, 
			 "cosmo_polarized_energy": -14.22, 
			 "cosmo_cavitation_energy": 42.65, 
			 "cosmo_dispersion_energy": -30.41, 
			 "cosmo_repulsion_energy": 2.32, 
			 "cosmo_total_nonelectrostatic_energy": 14.56, 
			 "SMD_solvation_energy": 8.01 
		},
		"coords": [
			{
				"x": -2.3887923846,
				"y": -5.2011634786,
				"z": 1.8926065631,
				"element": "O" 
			},
			{
				"x": -1.7571503828,
				"y": -5.53546449,
				"z": 0.7390890911,
				"element": "C" 
			},
			{
				"x": -1.6709734056,
				"y": -6.6866337009,
				"z": 0.3572692438,
				"element": "O" 
			},
			{
				"x": -1.2019809932,
				"y": -4.3663608217,
				"z": 0.0223252265,
				"element": "C" 
			},
			{
				"x": -1.3217427488,
				"y": -3.0556030405,
				"z": 0.4909500993,
				"element": "C" 
			},
			{
				"x": -0.8226629646,
				"y": -1.9921613601,
				"z": -0.1509324556,
				"element": "N" 
			},
			{
				"x": -0.1821264248,
				"y": -2.2121122214,
				"z": -1.2930604211,
				"element": "C" 
			},
			{
				"x": 0.3319625174,
				"y": -1.1685059213,
				"z": -1.9935732467,
				"element": "O" 
			},
			{
				"x": 0.2782142477,
				"y": 0.1315919976,
				"z": -1.4864988926,
				"element": "C" 
			},
			{
				"x": 0.9884581655,
				"y": 0.4943906749,
				"z": -0.3427920063,
				"element": "C" 
			},
			{
				"x": 0.9911950308,
				"y": 1.8236917083,
				"z": 0.0723302816,
				"element": "C" 
			},
			{
				"x": 0.2787622244,
				"y": 2.7805877578,
				"z": -0.6596969134,
				"element": "C" 
			},
			{
				"x": 0.3039135034,
				"y": 4.1249652661,
				"z": -0.3467323422,
				"element": "O" 
			},
			{
				"x": 0.2151781593,
				"y": 4.5472952952,
				"z": 0.9665311462,
				"element": "C" 
			},
			{
				"x": 0.9222136741,
				"y": 5.7062263966,
				"z": 1.2953708139,
				"element": "C" 
			},
			{
				"x": 0.8190375634,
				"y": 6.2323145328,
				"z": 2.5825384321,
				"element": "C" 
			},
			{
				"x": 0.021247289,
				"y": 5.604298782,
				"z": 3.5418121031,
				"element": "C" 
			},
			{
				"x": -0.6816518919,
				"y": 4.447106438,
				"z": 3.2003684941,
				"element": "C" 
			},
			{
				"x": -0.594912312,
				"y": 3.9134177827,
				"z": 1.9137043642,
				"element": "C" 
			},
			{
				"x": -0.4221696549,
				"y": 2.4127442905,
				"z": -1.808985322,
				"element": "C" 
			},
			{
				"x": -0.4199417944,
				"y": 1.0819256746,
				"z": -2.2253647459,
				"element": "C" 
			},
			{
				"x": 0.0036781838,
				"y": -3.485240977,
				"z": -1.8654322252,
				"element": "C" 
			},
			{
				"x": -0.5182468192,
				"y": -4.5707113555,
				"z": -1.190494555,
				"element": "C" 
			},
			{
				"x": -2.7086813813,
				"y": -6.0368011968,
				"z": 2.2703674932,
				"element": "H" 
			},
			{
				"x": -1.8433275325,
				"y": -2.8532087299,
				"z": 1.4221200289,
				"element": "H" 
			},
			{
				"x": 1.5377866986,
				"y": -0.2560007156,
				"z": 0.2143017056,
				"element": "H" 
			},
			{
				"x": 1.5456909136,
				"y": 2.1196755549,
				"z": 0.9559532655,
				"element": "H" 
			},
			{
				"x": 1.5373594035,
				"y": 6.1773644941,
				"z": 0.5358507201,
				"element": "H" 
			},
			{
				"x": 1.3691679622,
				"y": 7.1339645711,
				"z": 2.8360821604,
				"element": "H" 
			},
			{
				"x": -0.0536845923,
				"y": 6.0136431409,
				"z": 4.5445142391,
				"element": "H" 
			},
			{
				"x": -1.3112508097,
				"y": 3.9555501984,
				"z": 3.9366401903,
				"element": "H" 
			},
			{
				"x": -1.1490918064,
				"y": 3.0206183901,
				"z": 1.6452952754,
				"element": "H" 
			},
			{
				"x": -0.9579806103,
				"y": 3.1742046527,
				"z": -2.3652931224,
				"element": "H" 
			},
			{
				"x": -0.9556344589,
				"y": 0.7747791005,
				"z": -3.1172251919,
				"element": "H" 
			},
			{
				"x": 0.5396196332,
				"y": -3.5819259936,
				"z": -2.8023526638,
				"element": "H" 
			},
			{
				"x": -0.4142822018,
				"y": -5.5813626971,
				"z": -1.5711868331,
				"element": "H" 
			}
		],
		 "valence_orbital": [ 
			{
				"type": "occ",
				"energy": -0.26174,
				"method": "rhf"
			},
			{
				"type": "occ",
				"energy": -0.25741,
				"method": "rhf"
			},
			{
				"type": "occ",
				"energy": -0.25332,
				"method": "rhf"
			},
			{
				"type": "occ",
				"energy": -0.2429,
				"method": "rhf"
			},
			{
				"type": "occ",
				"energy": -0.21631,
				"method": "rhf"
			},
			{
				"type": "unocc",
				"energy": -0.05098,
				"method": "rhf"
			},
			{
				"type": "unocc",
				"energy": -0.03428,
				"method": "rhf"
			},
			{
				"type": "unocc",
				"energy": -0.01402,
				"method": "rhf"
			},
			{
				"type": "unocc",
				"energy": -0.00546,
				"method": "rhf"
			},
			{
				"type": "unocc",
				"energy": -0.00068,
				"method": "rhf"
			}
		],
		"cosmo_sigma_profile": { 
			"-0.025": 0.0,
			"-0.024": 0.0,
			"-0.023": 0.0,
			"-0.022": 0.0,
			"-0.021": 0.0,
			"-0.02": 0.0,
			"-0.019": 0.109469195145,
			"-0.018": 0.79803139132,
			"-0.017": 0.881159989256,
			"-0.016": 0.994779403382,
			"-0.015": 1.01256329587,
			"-0.014": 0.545173469524,
			"-0.013": 0.399902138604,
			"-0.012": 0.308244539744,
			"-0.011": 1.40140437061,
			"-0.01": 0.476293211886,
			"-0.009": 0.390335806281,
			"-0.008": 2.52885701597,
			"-0.007": 9.82811808935,
			"-0.006": 20.4541118885,
			"-0.005": 22.3274584129,
			"-0.004": 22.5754079896,
			"-0.003": 21.4581226133,
			"-0.002": 22.8205749974,
			"-0.001": 28.2377965189,
			"0.0": 31.2203035953,
			"0.001": 25.3406394867,
			"0.002": 25.7511649186,
			"0.003": 25.664630224,
			"0.004": 22.6448141983,
			"0.005": 16.1072505986,
			"0.006": 10.3723630751,
			"0.007": 7.03443469144,
			"0.008": 4.83940008064,
			"0.009": 3.49953394861,
			"0.01": 3.03396133436,
			"0.011": 4.92116104633,
			"0.012": 4.19499210617,
			"0.013": 1.00717486158,
			"0.014": 0.0249456985983,
			"0.015": 0.0,
			"0.016": 0.0,
			"0.017": 0.0,
			"0.018": 0.0,
			"0.019": 0.0,
			"0.02": 0.0,
			"0.021": 0.0,
			"0.022": 0.0,
			"0.023": 0.0,
			"0.024": 0.0,
			"0.025": 0.0
		}
	}
}
