{
	 "smiles": "CN1C(=O)NC(=O)C(C)(C1=O)C1=CCCCC1", 
	 "Tm": 419.15, 
	 "num_atms": 33, 
	 "gaussian": { 
		 "optdone": 1, 
		 "sigma_profile": "yes", 
		 "theory": "DFT", 
		 "functional": "B3LYP", 
		 "basiset": "6-31G**", 
		 "properties": { 
			 "R2extent": 4422.7336, 
			 "electric_dipole_moment_norm": 1.77673050573, 
			 "electric_quadrupole_moment_norm": 6.47425691257, 
			 "total_energy": -802.142342459, 
			 "HOMO_LUMO_gap": 0.20023, 
			 "cosmo_polarized_energy": -12.75, 
			 "cosmo_cavitation_energy": 34.12, 
			 "cosmo_dispersion_energy": -23.97, 
			 "cosmo_repulsion_energy": 1.87, 
			 "cosmo_total_nonelectrostatic_energy": 12.02, 
			 "SMD_solvation_energy": 7.16 
		},
		"coords": [
			{
				"x": -3.7896088975,
				"y": 0.3147844495,
				"z": -1.2705353551,
				"element": "C" 
			},
			{
				"x": -2.7784295757,
				"y": 0.9408872833,
				"z": -0.409268837,
				"element": "N" 
			},
			{
				"x": -2.410316964,
				"y": 2.2600414579,
				"z": -0.6814010616,
				"element": "C" 
			},
			{
				"x": -2.811636858,
				"y": 2.8866039788,
				"z": -1.643707042,
				"element": "O" 
			},
			{
				"x": -1.5735099837,
				"y": 2.8477974187,
				"z": 0.2635078154,
				"element": "N" 
			},
			{
				"x": -1.0827171559,
				"y": 2.2826067404,
				"z": 1.4319393739,
				"element": "C" 
			},
			{
				"x": -0.5887068773,
				"y": 2.9768259863,
				"z": 2.2991613851,
				"element": "O" 
			},
			{
				"x": -1.1396739507,
				"y": 0.7536756816,
				"z": 1.4850522385,
				"element": "C" 
			},
			{
				"x": -1.2303148677,
				"y": 0.2926442288,
				"z": 2.9532773444,
				"element": "C" 
			},
			{
				"x": -2.343592209,
				"y": 0.2140444903,
				"z": 0.7017360604,
				"element": "C" 
			},
			{
				"x": -2.8697538512,
				"y": -0.8513049469,
				"z": 0.9720467681,
				"element": "O" 
			},
			{
				"x": 0.1662619474,
				"y": 0.2039895909,
				"z": 0.8327503238,
				"element": "C" 
			},
			{
				"x": 0.1746298678,
				"y": -0.9394231058,
				"z": 0.1324682973,
				"element": "C" 
			},
			{
				"x": 1.4093294161,
				"y": -1.5508421717,
				"z": -0.4825364471,
				"element": "C" 
			},
			{
				"x": 2.6105721179,
				"y": -0.5967351346,
				"z": -0.4872493002,
				"element": "C" 
			},
			{
				"x": 2.704319617,
				"y": 0.1436754084,
				"z": 0.8502514853,
				"element": "C" 
			},
			{
				"x": 1.4436189947,
				"y": 0.9827513104,
				"z": 1.1011624344,
				"element": "C" 
			},
			{
				"x": -4.7291800933,
				"y": 0.1971107325,
				"z": -0.7255250432,
				"element": "H" 
			},
			{
				"x": -3.9336581265,
				"y": 0.9581591584,
				"z": -2.1350172362,
				"element": "H" 
			},
			{
				"x": -3.4416290981,
				"y": -0.6728232926,
				"z": -1.5766034384,
				"element": "H" 
			},
			{
				"x": -1.4516558097,
				"y": 3.8477971989,
				"z": 0.1537276626,
				"element": "H" 
			},
			{
				"x": -1.3150359928,
				"y": -0.7932934854,
				"z": 2.9823096641,
				"element": "H" 
			},
			{
				"x": -2.1048399919,
				"y": 0.7269442684,
				"z": 3.4465140119,
				"element": "H" 
			},
			{
				"x": -0.3428742411,
				"y": 0.6111113087,
				"z": 3.501009488,
				"element": "H" 
			},
			{
				"x": -0.7461735555,
				"y": -1.5019039289,
				"z": 0.0022252868,
				"element": "H" 
			},
			{
				"x": 1.6579622181,
				"y": -2.469908645,
				"z": 0.0700838874,
				"element": "H" 
			},
			{
				"x": 1.1768286882,
				"y": -1.8817582791,
				"z": -1.5034127887,
				"element": "H" 
			},
			{
				"x": 2.4930057754,
				"y": 0.1357112085,
				"z": -1.2968968373,
				"element": "H" 
			},
			{
				"x": 3.5330992783,
				"y": -1.1502667571,
				"z": -0.6942899731,
				"element": "H" 
			},
			{
				"x": 3.5877097783,
				"y": 0.7912283905,
				"z": 0.8779154836,
				"element": "H" 
			},
			{
				"x": 2.8213075136,
				"y": -0.5866042107,
				"z": 1.6619425442,
				"element": "H" 
			},
			{
				"x": 1.4407940753,
				"y": 1.3641714574,
				"z": 2.1275913917,
				"element": "H" 
			},
			{
				"x": 1.4659688111,
				"y": 1.8785022091,
				"z": 0.4627704131,
				"element": "H" 
			}
		],
		 "valence_orbital": [ 
			{
				"type": "occ",
				"energy": -0.29934,
				"method": "rhf"
			},
			{
				"type": "occ",
				"energy": -0.2904,
				"method": "rhf"
			},
			{
				"type": "occ",
				"energy": -0.2854,
				"method": "rhf"
			},
			{
				"type": "occ",
				"energy": -0.26316,
				"method": "rhf"
			},
			{
				"type": "occ",
				"energy": -0.24768,
				"method": "rhf"
			},
			{
				"type": "unocc",
				"energy": -0.04745,
				"method": "rhf"
			},
			{
				"type": "unocc",
				"energy": -0.00257,
				"method": "rhf"
			},
			{
				"type": "unocc",
				"energy": 0.01364,
				"method": "rhf"
			},
			{
				"type": "unocc",
				"energy": 0.053,
				"method": "rhf"
			},
			{
				"type": "unocc",
				"energy": 0.08226,
				"method": "rhf"
			}
		],
		"cosmo_sigma_profile": { 
			"-0.025": 0.0,
			"-0.024": 0.0,
			"-0.023": 0.0,
			"-0.022": 0.0,
			"-0.021": 0.0,
			"-0.02": 0.0,
			"-0.019": 0.0,
			"-0.018": 0.0,
			"-0.017": 0.0517853109718,
			"-0.016": 0.766179878305,
			"-0.015": 1.22082461753,
			"-0.014": 0.651947051012,
			"-0.013": 0.476132385333,
			"-0.012": 0.771815345623,
			"-0.011": 1.03156612761,
			"-0.01": 1.56883552979,
			"-0.009": 1.55146276768,
			"-0.008": 2.61105660267,
			"-0.007": 2.28511629077,
			"-0.006": 4.82887436349,
			"-0.005": 10.298808832,
			"-0.004": 18.7338395953,
			"-0.003": 32.6397481692,
			"-0.002": 39.7026795574,
			"-0.001": 34.8593194057,
			"0.0": 28.1831452493,
			"0.001": 15.9810829852,
			"0.002": 9.397477651,
			"0.003": 6.69009096656,
			"0.004": 6.57379810773,
			"0.005": 4.49868602439,
			"0.006": 4.27174991831,
			"0.007": 3.41860565008,
			"0.008": 4.57680454945,
			"0.009": 5.22452977427,
			"0.01": 5.97768252419,
			"0.011": 12.8913545796,
			"0.012": 5.39314685712,
			"0.013": 0.0107631274788,
			"0.014": 0.0,
			"0.015": 0.0,
			"0.016": 0.0,
			"0.017": 0.0,
			"0.018": 0.0,
			"0.019": 0.0,
			"0.02": 0.0,
			"0.021": 0.0,
			"0.022": 0.0,
			"0.023": 0.0,
			"0.024": 0.0,
			"0.025": 0.0
		}
	}
}
