{
	 "smiles": "CC1=C(Br)SC(=C1)S(N)(=O)=O", 
	 "Tm": 423.15, 
	 "num_atms": 17, 
	 "gaussian": { 
		 "optdone": 1, 
		 "sigma_profile": "yes", 
		 "theory": "DFT", 
		 "functional": "B3LYP", 
		 "basiset": "6-31G**", 
		 "properties": { 
			 "R2extent": 4847.4792, 
			 "electric_dipole_moment_norm": 5.38339633038, 
			 "electric_quadrupole_moment_norm": 15.5839718134, 
			 "total_energy": -3767.03502424, 
			 "HOMO_LUMO_gap": 0.19114, 
			 "cosmo_polarized_energy": -16.81, 
			 "cosmo_cavitation_energy": 26.69, 
			 "cosmo_dispersion_energy": -20.86, 
			 "cosmo_repulsion_energy": 1.6, 
			 "cosmo_total_nonelectrostatic_energy": 7.43, 
			 "SMD_solvation_energy": 2.98 
		},
		"coords": [
			{
				"x": 3.7461347205,
				"y": 1.6174911885,
				"z": -2.3400874028,
				"element": "C" 
			},
			{
				"x": 2.508913068,
				"y": 1.0719009369,
				"z": -1.6854709345,
				"element": "C" 
			},
			{
				"x": 2.3138712793,
				"y": 0.9005636823,
				"z": -0.3353938668,
				"element": "C" 
			},
			{
				"x": 3.5322969856,
				"y": 1.3007510122,
				"z": 1.0496408535,
				"element": "Br" 
			},
			{
				"x": 0.7725748578,
				"y": 0.2043663194,
				"z": 0.0769211281,
				"element": "S" 
			},
			{
				"x": 0.347482518,
				"y": 0.1651043642,
				"z": -1.6125529466,
				"element": "C" 
			},
			{
				"x": 1.35246231,
				"y": 0.6387409274,
				"z": -2.4110734327,
				"element": "C" 
			},
			{
				"x": -1.2356248078,
				"y": -0.4204462926,
				"z": -2.1722754953,
				"element": "S" 
			},
			{
				"x": -2.3138956023,
				"y": 0.8554519688,
				"z": -2.0383026493,
				"element": "N" 
			},
			{
				"x": -1.0942161013,
				"y": -0.6756233172,
				"z": -3.6023214032,
				"element": "O" 
			},
			{
				"x": -1.6882017488,
				"y": -1.4183749093,
				"z": -1.2077640029,
				"element": "O" 
			},
			{
				"x": 4.4783020791,
				"y": 1.9380267527,
				"z": -1.5970257249,
				"element": "H" 
			},
			{
				"x": 4.2165495472,
				"y": 0.8592898103,
				"z": -2.9758281485,
				"element": "H" 
			},
			{
				"x": 3.5058942149,
				"y": 2.4757775086,
				"z": -2.9766455956,
				"element": "H" 
			},
			{
				"x": 1.2733646141,
				"y": 0.6637253937,
				"z": -3.4921306348,
				"element": "H" 
			},
			{
				"x": -2.0835355401,
				"y": 1.6397490767,
				"z": -2.6396648771,
				"element": "H" 
			},
			{
				"x": -2.500472394,
				"y": 1.1219055773,
				"z": -1.0769248665,
				"element": "H" 
			}
		],
		 "valence_orbital": [ 
			{
				"type": "occ",
				"energy": -0.31489,
				"method": "rhf"
			},
			{
				"type": "occ",
				"energy": -0.31312,
				"method": "rhf"
			},
			{
				"type": "occ",
				"energy": -0.30842,
				"method": "rhf"
			},
			{
				"type": "occ",
				"energy": -0.2762,
				"method": "rhf"
			},
			{
				"type": "occ",
				"energy": -0.24802,
				"method": "rhf"
			},
			{
				"type": "unocc",
				"energy": -0.05688,
				"method": "rhf"
			},
			{
				"type": "unocc",
				"energy": -0.02092,
				"method": "rhf"
			},
			{
				"type": "unocc",
				"energy": -0.00067,
				"method": "rhf"
			},
			{
				"type": "unocc",
				"energy": 0.02307,
				"method": "rhf"
			},
			{
				"type": "unocc",
				"energy": 0.0517,
				"method": "rhf"
			}
		],
		"cosmo_sigma_profile": { 
			"-0.025": 0.0,
			"-0.024": 0.0,
			"-0.023": 0.0,
			"-0.022": 0.0,
			"-0.021": 0.0,
			"-0.02": 0.0,
			"-0.019": 0.0,
			"-0.018": 0.0,
			"-0.017": 0.0,
			"-0.016": 0.416889255791,
			"-0.015": 2.70719581007,
			"-0.014": 2.7704614171,
			"-0.013": 2.71010981304,
			"-0.012": 3.23882559684,
			"-0.011": 2.4174807007,
			"-0.01": 2.28811574097,
			"-0.009": 1.93130460691,
			"-0.008": 3.15279658778,
			"-0.007": 3.37311736497,
			"-0.006": 4.94392118754,
			"-0.005": 10.037218684,
			"-0.004": 11.4888110161,
			"-0.003": 11.3973192536,
			"-0.002": 14.7844591746,
			"-0.001": 20.4545700013,
			"0.0": 21.6134200766,
			"0.001": 23.924374727,
			"0.002": 16.2939397826,
			"0.003": 12.17831958,
			"0.004": 3.89330550901,
			"0.005": 3.27823778631,
			"0.006": 4.37152234517,
			"0.007": 4.81072373271,
			"0.008": 4.82078820411,
			"0.009": 4.59300333331,
			"0.01": 9.67725033827,
			"0.011": 9.77757923679,
			"0.012": 1.11185885185,
			"0.013": 0.0,
			"0.014": 0.0,
			"0.015": 0.0,
			"0.016": 0.0,
			"0.017": 0.0,
			"0.018": 0.0,
			"0.019": 0.0,
			"0.02": 0.0,
			"0.021": 0.0,
			"0.022": 0.0,
			"0.023": 0.0,
			"0.024": 0.0,
			"0.025": 0.0
		}
	}
}
