{
	 "smiles": "OC(=O)C1=CNN=C1C1=C(F)C=CC=C1", 
	 "Tm": 562.15, 
	 "num_atms": 22, 
	 "gaussian": { 
		 "optdone": 1, 
		 "sigma_profile": "yes", 
		 "theory": "DFT", 
		 "functional": "B3LYP", 
		 "basiset": "6-31G**", 
		 "properties": { 
			 "R2extent": 3128.4375, 
			 "electric_dipole_moment_norm": 4.81502094388, 
			 "electric_quadrupole_moment_norm": 25.9555737163, 
			 "total_energy": -745.058030722, 
			 "HOMO_LUMO_gap": 0.21071, 
			 "cosmo_polarized_energy": -18.63, 
			 "cosmo_cavitation_energy": 27.33, 
			 "cosmo_dispersion_energy": -19.87, 
			 "cosmo_repulsion_energy": 1.54, 
			 "cosmo_total_nonelectrostatic_energy": 8.99, 
			 "SMD_solvation_energy": 5.43 
		},
		"coords": [
			{
				"x": -1.9891138342,
				"y": 0.285990672,
				"z": 0.9433664362,
				"element": "O" 
			},
			{
				"x": -1.6867383769,
				"y": 1.060848204,
				"z": -0.1277607643,
				"element": "C" 
			},
			{
				"x": -2.5179484285,
				"y": 1.8096634656,
				"z": -0.5904702599,
				"element": "O" 
			},
			{
				"x": -0.336433434,
				"y": 0.9063406712,
				"z": -0.7163312332,
				"element": "C" 
			},
			{
				"x": -0.038523323,
				"y": 1.3335609305,
				"z": -2.0004245923,
				"element": "C" 
			},
			{
				"x": 1.2367375358,
				"y": 0.9658487441,
				"z": -2.2373855433,
				"element": "N" 
			},
			{
				"x": 1.8198876303,
				"y": 0.3366316461,
				"z": -1.1927227415,
				"element": "N" 
			},
			{
				"x": 0.8717504085,
				"y": 0.2950736196,
				"z": -0.2533925324,
				"element": "C" 
			},
			{
				"x": 1.1756017541,
				"y": -0.3355735406,
				"z": 1.0482140736,
				"element": "C" 
			},
			{
				"x": 0.897707147,
				"y": 0.3074175783,
				"z": 2.2626589918,
				"element": "C" 
			},
			{
				"x": 0.320238075,
				"y": 1.5264042516,
				"z": 2.238161073,
				"element": "F" 
			},
			{
				"x": 1.2062981298,
				"y": -0.2554930436,
				"z": 3.4956293119,
				"element": "C" 
			},
			{
				"x": 1.8325151925,
				"y": -1.5008169406,
				"z": 3.5297965575,
				"element": "C" 
			},
			{
				"x": 2.1438725215,
				"y": -2.1627563678,
				"z": 2.3386080078,
				"element": "C" 
			},
			{
				"x": 1.8185616469,
				"y": -1.5839714182,
				"z": 1.1143467578,
				"element": "C" 
			},
			{
				"x": -1.2494090535,
				"y": -0.2997547527,
				"z": 1.1643946155,
				"element": "H" 
			},
			{
				"x": -0.6566120271,
				"y": 1.8445539803,
				"z": -2.7229802989,
				"element": "H" 
			},
			{
				"x": 1.7803291959,
				"y": 1.1235860134,
				"z": -3.072342015,
				"element": "H" 
			},
			{
				"x": 0.9641324135,
				"y": 0.2926153328,
				"z": 4.3994844198,
				"element": "H" 
			},
			{
				"x": 2.0789170958,
				"y": -1.9505110917,
				"z": 4.4867181048,
				"element": "H" 
			},
			{
				"x": 2.636052805,
				"y": -3.1296943324,
				"z": 2.3649222349,
				"element": "H" 
			},
			{
				"x": 2.0586769256,
				"y": -2.0862636218,
				"z": 0.1832093961,
				"element": "H" 
			}
		],
		 "valence_orbital": [ 
			{
				"type": "occ",
				"energy": -0.29957,
				"method": "rhf"
			},
			{
				"type": "occ",
				"energy": -0.26983,
				"method": "rhf"
			},
			{
				"type": "occ",
				"energy": -0.26469,
				"method": "rhf"
			},
			{
				"type": "occ",
				"energy": -0.25966,
				"method": "rhf"
			},
			{
				"type": "occ",
				"energy": -0.2512,
				"method": "rhf"
			},
			{
				"type": "unocc",
				"energy": -0.04049,
				"method": "rhf"
			},
			{
				"type": "unocc",
				"energy": -0.01962,
				"method": "rhf"
			},
			{
				"type": "unocc",
				"energy": -0.01573,
				"method": "rhf"
			},
			{
				"type": "unocc",
				"energy": 0.01688,
				"method": "rhf"
			},
			{
				"type": "unocc",
				"energy": 0.063,
				"method": "rhf"
			}
		],
		"cosmo_sigma_profile": { 
			"-0.025": 0.0,
			"-0.024": 0.0,
			"-0.023": 0.0,
			"-0.022": 0.0,
			"-0.021": 0.0,
			"-0.02": 0.0,
			"-0.019": 0.0,
			"-0.018": 0.848871602953,
			"-0.017": 1.76512642583,
			"-0.016": 1.40257486832,
			"-0.015": 1.42977864325,
			"-0.014": 1.53052676344,
			"-0.013": 1.55544898785,
			"-0.012": 2.45912496968,
			"-0.011": 2.63364124746,
			"-0.01": 3.73018962242,
			"-0.009": 3.16371594551,
			"-0.008": 3.79367341129,
			"-0.007": 6.80326048915,
			"-0.006": 10.8584297347,
			"-0.005": 11.1731077066,
			"-0.004": 10.0626075035,
			"-0.003": 9.81651480365,
			"-0.002": 9.96258457158,
			"-0.001": 12.7097399217,
			"0.0": 16.0995335262,
			"0.001": 17.8355527349,
			"0.002": 16.2067869172,
			"0.003": 18.6633175426,
			"0.004": 13.6468588695,
			"0.005": 4.44106207104,
			"0.006": 3.6790995057,
			"0.007": 3.50091109968,
			"0.008": 4.29130371578,
			"0.009": 4.14129405174,
			"0.01": 5.70240403059,
			"0.011": 5.48094064163,
			"0.012": 6.45473871461,
			"0.013": 2.97428314664,
			"0.014": 1.20181507047,
			"0.015": 0.110632667802,
			"0.016": 0.0,
			"0.017": 0.0,
			"0.018": 0.0,
			"0.019": 0.0,
			"0.02": 0.0,
			"0.021": 0.0,
			"0.022": 0.0,
			"0.023": 0.0,
			"0.024": 0.0,
			"0.025": 0.0
		}
	}
}
