{
	 "smiles": "CC1=CC2=C(N=C(N)S2)C(C)=C1", 
	 "Tm": 409.15, 
	 "num_atms": 22, 
	 "gaussian": { 
		 "optdone": 1, 
		 "sigma_profile": "yes", 
		 "theory": "DFT", 
		 "functional": "B3LYP", 
		 "basiset": "6-31G**", 
		 "properties": { 
			 "R2extent": 2617.0877, 
			 "electric_dipole_moment_norm": 1.59080032059, 
			 "electric_quadrupole_moment_norm": 15.1730022046, 
			 "total_energy": -856.703794022, 
			 "HOMO_LUMO_gap": 0.19336, 
			 "cosmo_polarized_energy": -10.39, 
			 "cosmo_cavitation_energy": 27.01, 
			 "cosmo_dispersion_energy": -20.55, 
			 "cosmo_repulsion_energy": 1.6, 
			 "cosmo_total_nonelectrostatic_energy": 8.06, 
			 "SMD_solvation_energy": 2.77 
		},
		"coords": [
			{
				"x": 1.616236088,
				"y": -1.0222449037,
				"z": -2.9110514756,
				"element": "C" 
			},
			{
				"x": 1.1335512442,
				"y": -0.6153183588,
				"z": -1.5375672228,
				"element": "C" 
			},
			{
				"x": 0.0103560955,
				"y": -1.2177616389,
				"z": -0.9663693025,
				"element": "C" 
			},
			{
				"x": -0.3969414755,
				"y": -0.8032471498,
				"z": 0.3011620017,
				"element": "C" 
			},
			{
				"x": 0.2889924097,
				"y": 0.1975639683,
				"z": 1.0226398562,
				"element": "C" 
			},
			{
				"x": -0.2211856033,
				"y": 0.4966146157,
				"z": 2.280069786,
				"element": "N" 
			},
			{
				"x": -1.2660778897,
				"y": -0.2232862075,
				"z": 2.5356728144,
				"element": "C" 
			},
			{
				"x": -2.0262733766,
				"y": -0.1043345425,
				"z": 3.673521377,
				"element": "N" 
			},
			{
				"x": -1.7656690199,
				"y": -1.370826781,
				"z": 1.2582257497,
				"element": "S" 
			},
			{
				"x": 1.4231379356,
				"y": 0.8092622853,
				"z": 0.4526198103,
				"element": "C" 
			},
			{
				"x": 2.1668155274,
				"y": 1.8798534779,
				"z": 1.208467546,
				"element": "C" 
			},
			{
				"x": 1.8152377667,
				"y": 0.3847450714,
				"z": -0.8159088082,
				"element": "C" 
			},
			{
				"x": 2.6517458941,
				"y": -1.3810959051,
				"z": -2.8816822366,
				"element": "H" 
			},
			{
				"x": 0.9992946774,
				"y": -1.8216019703,
				"z": -3.3310727823,
				"element": "H" 
			},
			{
				"x": 1.5893341259,
				"y": -0.1788381016,
				"z": -3.6112152902,
				"element": "H" 
			},
			{
				"x": -0.5311415017,
				"y": -1.9903952002,
				"z": -1.504056458,
				"element": "H" 
			},
			{
				"x": -2.5119014356,
				"y": -0.929833512,
				"z": 3.9932686345,
				"element": "H" 
			},
			{
				"x": -1.5685117101,
				"y": 0.4216073789,
				"z": 4.4064407376,
				"element": "H" 
			},
			{
				"x": 1.5111397518,
				"y": 2.725547251,
				"z": 1.4424468036,
				"element": "H" 
			},
			{
				"x": 3.0174239029,
				"y": 2.2514116156,
				"z": 0.6305609222,
				"element": "H" 
			},
			{
				"x": 2.5383559638,
				"y": 1.5007955791,
				"z": 2.1667255227,
				"element": "H" 
			},
			{
				"x": 2.6891806295,
				"y": 0.848183028,
				"z": -1.2692979855,
				"element": "H" 
			}
		],
		 "valence_orbital": [ 
			{
				"type": "occ",
				"energy": -0.28583,
				"method": "rhf"
			},
			{
				"type": "occ",
				"energy": -0.28487,
				"method": "rhf"
			},
			{
				"type": "occ",
				"energy": -0.27003,
				"method": "rhf"
			},
			{
				"type": "occ",
				"energy": -0.22111,
				"method": "rhf"
			},
			{
				"type": "occ",
				"energy": -0.20164,
				"method": "rhf"
			},
			{
				"type": "unocc",
				"energy": -0.00828,
				"method": "rhf"
			},
			{
				"type": "unocc",
				"energy": 0.00732,
				"method": "rhf"
			},
			{
				"type": "unocc",
				"energy": 0.00808,
				"method": "rhf"
			},
			{
				"type": "unocc",
				"energy": 0.05184,
				"method": "rhf"
			},
			{
				"type": "unocc",
				"energy": 0.07158,
				"method": "rhf"
			}
		],
		"cosmo_sigma_profile": { 
			"-0.025": 0.0,
			"-0.024": 0.0,
			"-0.023": 0.0,
			"-0.022": 0.0,
			"-0.021": 0.0,
			"-0.02": 0.0,
			"-0.019": 0.0,
			"-0.018": 0.0,
			"-0.017": 0.0,
			"-0.016": 0.0,
			"-0.015": 0.556060658099,
			"-0.014": 2.16687271218,
			"-0.013": 2.67099027101,
			"-0.012": 2.37288995391,
			"-0.011": 3.03956980933,
			"-0.01": 2.38709490526,
			"-0.009": 2.05326300395,
			"-0.008": 1.24817897714,
			"-0.007": 1.7322836717,
			"-0.006": 4.87265426019,
			"-0.005": 5.30474343821,
			"-0.004": 14.3590365308,
			"-0.003": 15.6862063621,
			"-0.002": 17.9723865108,
			"-0.001": 16.4597127132,
			"0.0": 21.1768626785,
			"0.001": 20.1201900509,
			"0.002": 15.2625558626,
			"0.003": 15.2820641296,
			"0.004": 15.4778424376,
			"0.005": 13.4205815036,
			"0.006": 9.88093727729,
			"0.007": 2.29983866525,
			"0.008": 2.76687613524,
			"0.009": 1.85179269354,
			"0.01": 1.9294175007,
			"0.011": 1.39947491859,
			"0.012": 0.951739680264,
			"0.013": 1.09832166446,
			"0.014": 0.53057468993,
			"0.015": 0.0705929959872,
			"0.016": 0.0,
			"0.017": 0.0,
			"0.018": 0.0,
			"0.019": 0.0,
			"0.02": 0.0,
			"0.021": 0.0,
			"0.022": 0.0,
			"0.023": 0.0,
			"0.024": 0.0,
			"0.025": 0.0
		}
	}
}
