{
	 "smiles": "IC1=CC=CC(C=O)=C1", 
	 "Tm": 330.15, 
	 "num_atms": 14, 
	 "gaussian": { 
		 "optdone": 1, 
		 "sigma_profile": "no", 
		 "theory": "DFT", 
		 "functional": "B3LYP", 
		 "basiset": "6-31G**", 
		 "properties": { 
			 "R2extent": 1640.6267, 
			 "electric_dipole_moment_norm": 1.85042516736, 
			 "electric_quadrupole_moment_norm": 8.90237312406, 
			 "total_energy": -356.356854121, 
			 "HOMO_LUMO_gap": 0.17714, 
			 "cosmo_polarized_energy": -98521.57, 
			 "cosmo_cavitation_energy": 21.99, 
			 "cosmo_dispersion_energy": -17.5, 
			 "cosmo_repulsion_energy": 1.39, 
			 "cosmo_total_nonelectrostatic_energy": 5.88, 
			 "SMD_solvation_energy": 3.99 
		},
		"coords": [
			{
				"x": 3.0353041269,
				"y": 2.6519408514,
				"z": 1.333883398,
				"element": "I" 
			},
			{
				"x": 1.3694771584,
				"y": 1.4012852113,
				"z": 0.9363983966,
				"element": "C" 
			},
			{
				"x": 0.5476232033,
				"y": 1.6727286676,
				"z": -0.1602912521,
				"element": "C" 
			},
			{
				"x": -0.5513769274,
				"y": 0.84535876,
				"z": -0.4202535302,
				"element": "C" 
			},
			{
				"x": -0.8267043656,
				"y": -0.2396811935,
				"z": 0.4043276052,
				"element": "C" 
			},
			{
				"x": 0.003498535,
				"y": -0.5044843589,
				"z": 1.502628911,
				"element": "C" 
			},
			{
				"x": -0.2772600296,
				"y": -1.6587472119,
				"z": 2.3919511083,
				"element": "C" 
			},
			{
				"x": -1.2061555033,
				"y": -2.4277506158,
				"z": 2.2428586986,
				"element": "O" 
			},
			{
				"x": 1.1058452034,
				"y": 0.3170848767,
				"z": 1.7718214779,
				"element": "C" 
			},
			{
				"x": 0.7580423578,
				"y": 2.5177327726,
				"z": -0.8064555506,
				"element": "H" 
			},
			{
				"x": -1.187288187,
				"y": 1.0603686968,
				"z": -1.2738688309,
				"element": "H" 
			},
			{
				"x": -1.6723986845,
				"y": -0.8948462953,
				"z": 0.2230495071,
				"element": "H" 
			},
			{
				"x": 0.4398934122,
				"y": -1.7816461675,
				"z": 3.233476627,
				"element": "H" 
			},
			{
				"x": 1.7426997004,
				"y": 0.1034560063,
				"z": 2.624973434,
				"element": "H" 
			}
		],
		 "valence_orbital": [ 
			{
				"type": "occ",
				"energy": -0.3083,
				"method": "rhf"
			},
			{
				"type": "occ",
				"energy": -0.28057,
				"method": "rhf"
			},
			{
				"type": "occ",
				"energy": -0.27918,
				"method": "rhf"
			},
			{
				"type": "occ",
				"energy": -0.26489,
				"method": "rhf"
			},
			{
				"type": "occ",
				"energy": -0.25265,
				"method": "rhf"
			},
			{
				"type": "unocc",
				"energy": -0.07551,
				"method": "rhf"
			},
			{
				"type": "unocc",
				"energy": -0.04902,
				"method": "rhf"
			},
			{
				"type": "unocc",
				"energy": -0.03168,
				"method": "rhf"
			},
			{
				"type": "unocc",
				"energy": 0.0235,
				"method": "rhf"
			},
			{
				"type": "unocc",
				"energy": 0.03625,
				"method": "rhf"
			}
		],
		"cosmo_sigma_profile": { 
			"0.0": 0.0,
			"0.0": 0.0,
			"0.0": 0.0,
			"0.0": 0.0,
			"0.0": 0.0,
			"0.0": 0.0,
			"0.0": 0.0,
			"0.0": 0.0,
			"0.0": 0.0,
			"0.0": 0.0,
			"0.0": 0.0,
			"0.0": 0.0,
			"0.0": 0.0,
			"0.0": 0.0,
			"0.0": 0.0,
			"0.0": 0.0,
			"0.0": 0.0,
			"0.0": 0.0,
			"0.0": 0.0,
			"0.0": 0.0,
			"0.0": 0.0,
			"0.0": 0.0,
			"0.0": 0.0,
			"0.0": 0.0,
			"0.0": 0.0,
			"0.0": 0.0,
			"0.0": 0.0,
			"0.0": 0.0,
			"0.0": 0.0,
			"0.0": 0.0,
			"0.0": 0.0,
			"0.0": 0.0,
			"0.0": 0.0,
			"0.0": 0.0,
			"0.0": 0.0,
			"0.0": 0.0,
			"0.0": 0.0,
			"0.0": 0.0,
			"0.0": 0.0,
			"0.0": 0.0,
			"0.0": 0.0,
			"0.0": 0.0,
			"0.0": 0.0,
			"0.0": 0.0,
			"0.0": 0.0,
			"0.0": 0.0,
			"0.0": 0.0,
			"0.0": 0.0,
			"0.0": 0.0,
			"0.0": 0.0,
			"0.0": 0.0
		}
	}
}
