{
	 "smiles": "CCCCCCCCOP(=O)(OCCCCCCCC)OCCCCCCCC", 
	 "Tm": 199.15, 
	 "num_atms": 80, 
	 "gaussian": { 
		 "optdone": 1, 
		 "sigma_profile": "yes", 
		 "theory": "DFT", 
		 "functional": "B3LYP", 
		 "basiset": "6-31G**", 
		 "properties": { 
			 "R2extent": 26944.5294, 
			 "electric_dipole_moment_norm": 3.59930475787, 
			 "electric_quadrupole_moment_norm": 18.7954416897, 
			 "total_energy": -1587.69186462, 
			 "HOMO_LUMO_gap": 0.33642, 
			 "cosmo_polarized_energy": -12.74, 
			 "cosmo_cavitation_energy": 79.62, 
			 "cosmo_dispersion_energy": -51.17, 
			 "cosmo_repulsion_energy": 4.19, 
			 "cosmo_total_nonelectrostatic_energy": 32.64, 
			 "SMD_solvation_energy": 12.35 
		},
		"coords": [
			{
				"x": -4.2341748314,
				"y": 1.4410939898,
				"z": 5.5433215891,
				"element": "C" 
			},
			{
				"x": -5.1977912761,
				"y": 0.2796413664,
				"z": 5.2703759559,
				"element": "C" 
			},
			{
				"x": -4.9930865501,
				"y": -0.4141686646,
				"z": 3.9134131382,
				"element": "C" 
			},
			{
				"x": -3.659668053,
				"y": -1.1612457228,
				"z": 3.7662646011,
				"element": "C" 
			},
			{
				"x": -3.52581756,
				"y": -1.8780917326,
				"z": 2.4149117224,
				"element": "C" 
			},
			{
				"x": -2.2566452625,
				"y": -2.7342348952,
				"z": 2.2595205935,
				"element": "C" 
			},
			{
				"x": -0.9175353354,
				"y": -1.9832792599,
				"z": 2.3668665962,
				"element": "C" 
			},
			{
				"x": -0.747177946,
				"y": -0.8378466823,
				"z": 1.3787584942,
				"element": "C" 
			},
			{
				"x": -0.835035335,
				"y": -1.3607662096,
				"z": 0.0268291459,
				"element": "O" 
			},
			{
				"x": -1.528627176,
				"y": -0.469587849,
				"z": -1.1152909055,
				"element": "P" 
			},
			{
				"x": -2.8380320837,
				"y": 0.1438894902,
				"z": -0.8079627087,
				"element": "O" 
			},
			{
				"x": -0.3436862417,
				"y": 0.5831381538,
				"z": -1.4510907594,
				"element": "O" 
			},
			{
				"x": -0.6647406754,
				"y": 1.7754380856,
				"z": -2.2146030809,
				"element": "C" 
			},
			{
				"x": 0.5283505651,
				"y": 2.71762458,
				"z": -2.1636228141,
				"element": "C" 
			},
			{
				"x": 0.8461302448,
				"y": 3.247651777,
				"z": -0.7599120997,
				"element": "C" 
			},
			{
				"x": 2.0527213175,
				"y": 4.1963115068,
				"z": -0.7414058138,
				"element": "C" 
			},
			{
				"x": 2.4517519925,
				"y": 4.700307593,
				"z": 0.6554257878,
				"element": "C" 
			},
			{
				"x": 1.4208940693,
				"y": 5.6166319176,
				"z": 1.3295186641,
				"element": "C" 
			},
			{
				"x": 1.8885529033,
				"y": 6.1594977141,
				"z": 2.6863203483,
				"element": "C" 
			},
			{
				"x": 0.8607694718,
				"y": 7.0750802614,
				"z": 3.3588957139,
				"element": "C" 
			},
			{
				"x": -1.5794567876,
				"y": -1.4940052458,
				"z": -2.3466459294,
				"element": "O" 
			},
			{
				"x": -0.4041371334,
				"y": -2.2271813415,
				"z": -2.7727363452,
				"element": "C" 
			},
			{
				"x": -0.7530295132,
				"y": -2.9474650847,
				"z": -4.0675455968,
				"element": "C" 
			},
			{
				"x": 0.3776610025,
				"y": -3.8492103692,
				"z": -4.5890087868,
				"element": "C" 
			},
			{
				"x": 1.646098355,
				"y": -3.1059435844,
				"z": -5.0357261289,
				"element": "C" 
			},
			{
				"x": 2.6985686185,
				"y": -4.0423974589,
				"z": -5.6460468197,
				"element": "C" 
			},
			{
				"x": 4.0249305963,
				"y": -3.3592058344,
				"z": -6.0225213156,
				"element": "C" 
			},
			{
				"x": 3.9393291344,
				"y": -2.2776021845,
				"z": -7.1142096453,
				"element": "C" 
			},
			{
				"x": 3.4705104879,
				"y": -2.7936001467,
				"z": -8.4797440583,
				"element": "C" 
			},
			{
				"x": -4.4640585782,
				"y": 1.9289251426,
				"z": 6.4965277475,
				"element": "H" 
			},
			{
				"x": -3.1926255475,
				"y": 1.1065787039,
				"z": 5.5907963794,
				"element": "H" 
			},
			{
				"x": -4.3017135335,
				"y": 2.2014748829,
				"z": 4.7563587077,
				"element": "H" 
			},
			{
				"x": -5.1095856049,
				"y": -0.4646595281,
				"z": 6.0741232114,
				"element": "H" 
			},
			{
				"x": -6.2278283439,
				"y": 0.6556715084,
				"z": 5.3192017798,
				"element": "H" 
			},
			{
				"x": -5.8133816703,
				"y": -1.1273150014,
				"z": 3.7542515709,
				"element": "H" 
			},
			{
				"x": -5.0802533718,
				"y": 0.3299296643,
				"z": 3.1089785301,
				"element": "H" 
			},
			{
				"x": -3.5646808268,
				"y": -1.8954862782,
				"z": 4.5805738365,
				"element": "H" 
			},
			{
				"x": -2.8291107996,
				"y": -0.4556372245,
				"z": 3.8970532295,
				"element": "H" 
			},
			{
				"x": -3.5839871743,
				"y": -1.1462491977,
				"z": 1.5989480972,
				"element": "H" 
			},
			{
				"x": -4.393865206,
				"y": -2.5373627181,
				"z": 2.2795300262,
				"element": "H" 
			},
			{
				"x": -2.2916769325,
				"y": -3.2388505746,
				"z": 1.2873956058,
				"element": "H" 
			},
			{
				"x": -2.2600616219,
				"y": -3.5280427873,
				"z": 3.0185313845,
				"element": "H" 
			},
			{
				"x": -0.0945107469,
				"y": -2.6945610492,
				"z": 2.2250738448,
				"element": "H" 
			},
			{
				"x": -0.789791497,
				"y": -1.5613137838,
				"z": 3.3721216153,
				"element": "H" 
			},
			{
				"x": 0.2342027723,
				"y": -0.3643622683,
				"z": 1.4902226267,
				"element": "H" 
			},
			{
				"x": -1.5202165719,
				"y": -0.0762346136,
				"z": 1.518261765,
				"element": "H" 
			},
			{
				"x": -1.5620298445,
				"y": 2.23524027,
				"z": -1.7878543828,
				"element": "H" 
			},
			{
				"x": -0.8854634431,
				"y": 1.4818336737,
				"z": -3.2478477571,
				"element": "H" 
			},
			{
				"x": 1.4048794675,
				"y": 2.2028980227,
				"z": -2.5780981324,
				"element": "H" 
			},
			{
				"x": 0.3114983039,
				"y": 3.5567390825,
				"z": -2.8388347246,
				"element": "H" 
			},
			{
				"x": 1.0384496383,
				"y": 2.3983469011,
				"z": -0.0927048758,
				"element": "H" 
			},
			{
				"x": -0.0419328738,
				"y": 3.7572794256,
				"z": -0.3638989507,
				"element": "H" 
			},
			{
				"x": 1.8483472799,
				"y": 5.0588557706,
				"z": -1.392385055,
				"element": "H" 
			},
			{
				"x": 2.9128642479,
				"y": 3.6788185142,
				"z": -1.1878640861,
				"element": "H" 
			},
			{
				"x": 2.6518911227,
				"y": 3.8376399764,
				"z": 1.3072460322,
				"element": "H" 
			},
			{
				"x": 3.4033443269,
				"y": 5.2430376586,
				"z": 0.5736388674,
				"element": "H" 
			},
			{
				"x": 1.195333011,
				"y": 6.4602625281,
				"z": 0.6607315126,
				"element": "H" 
			},
			{
				"x": 0.4735184837,
				"y": 5.0792137275,
				"z": 1.4692863992,
				"element": "H" 
			},
			{
				"x": 2.1193340294,
				"y": 5.3167246517,
				"z": 3.3523369795,
				"element": "H" 
			},
			{
				"x": 2.8326733984,
				"y": 6.7049132216,
				"z": 2.5512905616,
				"element": "H" 
			},
			{
				"x": -0.0822876476,
				"y": 6.5467750584,
				"z": 3.5402196043,
				"element": "H" 
			},
			{
				"x": 0.6349175405,
				"y": 7.9452392421,
				"z": 2.7318252755,
				"element": "H" 
			},
			{
				"x": 1.2241172438,
				"y": 7.4460191589,
				"z": 4.3229423837,
				"element": "H" 
			},
			{
				"x": 0.4240497563,
				"y": -1.5236294837,
				"z": -2.9056544694,
				"element": "H" 
			},
			{
				"x": -0.1307528346,
				"y": -2.9384892582,
				"z": -1.9855664785,
				"element": "H" 
			},
			{
				"x": -1.0219493063,
				"y": -2.2023030658,
				"z": -4.8266343456,
				"element": "H" 
			},
			{
				"x": -1.6510756837,
				"y": -3.5493159981,
				"z": -3.8873275372,
				"element": "H" 
			},
			{
				"x": 0.6406251506,
				"y": -4.5887096216,
				"z": -3.8192493802,
				"element": "H" 
			},
			{
				"x": -0.0102498521,
				"y": -4.4265734758,
				"z": -5.4380326558,
				"element": "H" 
			},
			{
				"x": 1.3656331964,
				"y": -2.331283522,
				"z": -5.7621298931,
				"element": "H" 
			},
			{
				"x": 2.0944862716,
				"y": -2.576145365,
				"z": -4.1838869066,
				"element": "H" 
			},
			{
				"x": 2.9155373289,
				"y": -4.8441179801,
				"z": -4.9270170841,
				"element": "H" 
			},
			{
				"x": 2.270649436,
				"y": -4.5413647119,
				"z": -6.5258763976,
				"element": "H" 
			},
			{
				"x": 4.7348376044,
				"y": -4.1312001701,
				"z": -6.3498222152,
				"element": "H" 
			},
			{
				"x": 4.4599602655,
				"y": -2.912875014,
				"z": -5.1176056544,
				"element": "H" 
			},
			{
				"x": 3.279100973,
				"y": -1.4652888046,
				"z": -6.7841065204,
				"element": "H" 
			},
			{
				"x": 4.9329299544,
				"y": -1.8251677947,
				"z": -7.2264657072,
				"element": "H" 
			},
			{
				"x": 3.4905761178,
				"y": -1.9965300299,
				"z": -9.2302493736,
				"element": "H" 
			},
			{
				"x": 4.1161903536,
				"y": -3.6037726102,
				"z": -8.8385316828,
				"element": "H" 
			},
			{
				"x": 2.4468152396,
				"y": -3.1807490249,
				"z": -8.4422728509,
				"element": "H" 
			}
		],
		 "valence_orbital": [ 
			{
				"type": "occ",
				"energy": -0.30158,
				"method": "rhf"
			},
			{
				"type": "occ",
				"energy": -0.29638,
				"method": "rhf"
			},
			{
				"type": "occ",
				"energy": -0.29431,
				"method": "rhf"
			},
			{
				"type": "occ",
				"energy": -0.28474,
				"method": "rhf"
			},
			{
				"type": "occ",
				"energy": -0.27795,
				"method": "rhf"
			},
			{
				"type": "unocc",
				"energy": 0.05847,
				"method": "rhf"
			},
			{
				"type": "unocc",
				"energy": 0.07368,
				"method": "rhf"
			},
			{
				"type": "unocc",
				"energy": 0.08541,
				"method": "rhf"
			},
			{
				"type": "unocc",
				"energy": 0.08861,
				"method": "rhf"
			},
			{
				"type": "unocc",
				"energy": 0.09129,
				"method": "rhf"
			}
		],
		"cosmo_sigma_profile": { 
			"-0.025": 0.0,
			"-0.024": 0.0,
			"-0.023": 0.0,
			"-0.022": 0.0,
			"-0.021": 0.0,
			"-0.02": 0.0,
			"-0.019": 0.0,
			"-0.018": 0.0,
			"-0.017": 0.0,
			"-0.016": 0.0,
			"-0.015": 0.0,
			"-0.014": 0.0,
			"-0.013": 0.0,
			"-0.012": 0.0,
			"-0.011": 0.0,
			"-0.01": 0.0,
			"-0.009": 0.0,
			"-0.008": 0.0,
			"-0.007": 0.0,
			"-0.006": 0.561762881163,
			"-0.005": 7.4629627431,
			"-0.004": 24.6355792406,
			"-0.003": 42.3544264678,
			"-0.002": 93.5930938101,
			"-0.001": 120.515611968,
			"0.0": 119.86099652,
			"0.001": 99.676597638,
			"0.002": 46.638873999,
			"0.003": 8.4402203171,
			"0.004": 8.18630398055,
			"0.005": 6.26061116163,
			"0.006": 5.32339796197,
			"0.007": 3.68358234454,
			"0.008": 2.97596089487,
			"0.009": 3.72648405798,
			"0.01": 2.9537279613,
			"0.011": 1.89107798667,
			"0.012": 1.36761398002,
			"0.013": 1.89730651587,
			"0.014": 4.76403885301,
			"0.015": 1.61637401394,
			"0.016": 0.0,
			"0.017": 0.0,
			"0.018": 0.0,
			"0.019": 0.0,
			"0.02": 0.0,
			"0.021": 0.0,
			"0.022": 0.0,
			"0.023": 0.0,
			"0.024": 0.0,
			"0.025": 0.0
		}
	}
}
