{
	 "smiles": "CC1=CC(C)=C(C)C(C)=C1", 
	 "Tm": 249.25, 
	 "num_atms": 24, 
	 "gaussian": { 
		 "optdone": 1, 
		 "sigma_profile": "yes", 
		 "theory": "DFT", 
		 "functional": "B3LYP", 
		 "basiset": "6-31G**", 
		 "properties": { 
			 "R2extent": 1762.9486, 
			 "electric_dipole_moment_norm": 0.340463933479, 
			 "electric_quadrupole_moment_norm": 4.84537383078, 
			 "total_energy": -389.528759514, 
			 "HOMO_LUMO_gap": 0.22821, 
			 "cosmo_polarized_energy": -3.45, 
			 "cosmo_cavitation_energy": 25.65, 
			 "cosmo_dispersion_energy": -18.7, 
			 "cosmo_repulsion_energy": 1.51, 
			 "cosmo_total_nonelectrostatic_energy": 8.46, 
			 "SMD_solvation_energy": 4.47 
		},
		"coords": [
			{
				"x": 2.680741023,
				"y": 0.8378068628,
				"z": 0.841822607,
				"element": "C" 
			},
			{
				"x": 1.2805894499,
				"y": 0.6735052838,
				"z": 0.2986352998,
				"element": "C" 
			},
			{
				"x": 0.1625949424,
				"y": 0.8597812108,
				"z": 1.115249307,
				"element": "C" 
			},
			{
				"x": -1.140788672,
				"y": 0.680644241,
				"z": 0.6390776409,
				"element": "C" 
			},
			{
				"x": -2.3057795411,
				"y": 0.9121836054,
				"z": 1.5763182983,
				"element": "C" 
			},
			{
				"x": -1.3457616266,
				"y": 0.2994507722,
				"z": -0.7034299408,
				"element": "C" 
			},
			{
				"x": -2.7478548527,
				"y": 0.1156817409,
				"z": -1.2424407247,
				"element": "C" 
			},
			{
				"x": -0.2278533731,
				"y": 0.1219130143,
				"z": -1.5451229645,
				"element": "C" 
			},
			{
				"x": -0.3928655187,
				"y": -0.2585041716,
				"z": -3.0002111754,
				"element": "C" 
			},
			{
				"x": 1.060158448,
				"y": 0.3104603109,
				"z": -1.0321807201,
				"element": "C" 
			},
			{
				"x": 3.3770165689,
				"y": 1.1650397563,
				"z": 0.0633317796,
				"element": "H" 
			},
			{
				"x": 3.0663771266,
				"y": -0.1077465918,
				"z": 1.2444151956,
				"element": "H" 
			},
			{
				"x": 2.7123488044,
				"y": 1.571125297,
				"z": 1.6537138191,
				"element": "H" 
			},
			{
				"x": 0.3059973633,
				"y": 1.1561101683,
				"z": 2.1525671476,
				"element": "H" 
			},
			{
				"x": -2.9994359162,
				"y": 1.6677057634,
				"z": 1.1891784416,
				"element": "H" 
			},
			{
				"x": -1.9561813846,
				"y": 1.2534744345,
				"z": 2.5543387629,
				"element": "H" 
			},
			{
				"x": -2.8909573398,
				"y": -0.001791806,
				"z": 1.7374299013,
				"element": "H" 
			},
			{
				"x": -3.4424647622,
				"y": -0.2174406955,
				"z": -0.4674594992,
				"element": "H" 
			},
			{
				"x": -2.7814918014,
				"y": -0.6203815763,
				"z": -2.04935281,
				"element": "H" 
			},
			{
				"x": -3.1507361268,
				"y": 1.0537024475,
				"z": -1.6497168817,
				"element": "H" 
			},
			{
				"x": 0.5763465107,
				"y": -0.2962017313,
				"z": -3.504625359,
				"element": "H" 
			},
			{
				"x": -0.86194201,
				"y": -1.2435042357,
				"z": -3.1163643518,
				"element": "H" 
			},
			{
				"x": -1.021951127,
				"y": 0.4572593271,
				"z": -3.5422275275,
				"element": "H" 
			},
			{
				"x": 1.9134938146,
				"y": 0.172326572,
				"z": -1.6933462459,
				"element": "H" 
			}
		],
		 "valence_orbital": [ 
			{
				"type": "occ",
				"energy": -0.32049,
				"method": "rhf"
			},
			{
				"type": "occ",
				"energy": -0.31932,
				"method": "rhf"
			},
			{
				"type": "occ",
				"energy": -0.31916,
				"method": "rhf"
			},
			{
				"type": "occ",
				"energy": -0.22605,
				"method": "rhf"
			},
			{
				"type": "occ",
				"energy": -0.21777,
				"method": "rhf"
			},
			{
				"type": "unocc",
				"energy": 0.01044,
				"method": "rhf"
			},
			{
				"type": "unocc",
				"energy": 0.01507,
				"method": "rhf"
			},
			{
				"type": "unocc",
				"energy": 0.09439,
				"method": "rhf"
			},
			{
				"type": "unocc",
				"energy": 0.10971,
				"method": "rhf"
			},
			{
				"type": "unocc",
				"energy": 0.12176,
				"method": "rhf"
			}
		],
		"cosmo_sigma_profile": { 
			"-0.025": 0.0,
			"-0.024": 0.0,
			"-0.023": 0.0,
			"-0.022": 0.0,
			"-0.021": 0.0,
			"-0.02": 0.0,
			"-0.019": 0.0,
			"-0.018": 0.0,
			"-0.017": 0.0,
			"-0.016": 0.0,
			"-0.015": 0.0,
			"-0.014": 0.0,
			"-0.013": 0.0,
			"-0.012": 0.0,
			"-0.011": 0.0,
			"-0.01": 0.0,
			"-0.009": 0.0,
			"-0.008": 0.172722199296,
			"-0.007": 0.526506596341,
			"-0.006": 0.672336470324,
			"-0.005": 1.90996445386,
			"-0.004": 14.7002393273,
			"-0.003": 27.2364007109,
			"-0.002": 24.1959220078,
			"-0.001": 29.473064745,
			"0.0": 28.936975586,
			"0.001": 26.562600872,
			"0.002": 10.4064435131,
			"0.003": 7.55100368374,
			"0.004": 6.41455314345,
			"0.005": 6.29359638068,
			"0.006": 6.05310104219,
			"0.007": 6.15921938541,
			"0.008": 3.44797628373,
			"0.009": 0.00371320904814,
			"0.01": 0.0,
			"0.011": 0.0,
			"0.012": 0.0,
			"0.013": 0.0,
			"0.014": 0.0,
			"0.015": 0.0,
			"0.016": 0.0,
			"0.017": 0.0,
			"0.018": 0.0,
			"0.019": 0.0,
			"0.02": 0.0,
			"0.021": 0.0,
			"0.022": 0.0,
			"0.023": 0.0,
			"0.024": 0.0,
			"0.025": 0.0
		}
	}
}
