{
	 "smiles": "CCCCCCC", 
	 "Tm": 182.35, 
	 "num_atms": 23, 
	 "gaussian": { 
		 "optdone": 1, 
		 "sigma_profile": "yes", 
		 "theory": "DFT", 
		 "functional": "B3LYP", 
		 "basiset": "6-31G**", 
		 "properties": { 
			 "R2extent": 1960.6867, 
			 "electric_dipole_moment_norm": 0.0356809472968, 
			 "electric_quadrupole_moment_norm": 0.687448958105, 
			 "total_energy": -276.414961916, 
			 "HOMO_LUMO_gap": 0.39681, 
			 "cosmo_polarized_energy": -0.58, 
			 "cosmo_cavitation_energy": 24.02, 
			 "cosmo_dispersion_energy": -17.46, 
			 "cosmo_repulsion_energy": 1.52, 
			 "cosmo_total_nonelectrostatic_energy": 8.07, 
			 "SMD_solvation_energy": 3.78 
		},
		"coords": [
			{
				"x": 1.1053184924,
				"y": 3.6717434093,
				"z": 0.3929463756,
				"element": "C" 
			},
			{
				"x": -0.0137974658,
				"y": 2.6918073978,
				"z": 0.760700045,
				"element": "C" 
			},
			{
				"x": -0.249243802,
				"y": 1.6221864916,
				"z": -0.3154006129,
				"element": "C" 
			},
			{
				"x": -1.4099569377,
				"y": 0.6565301749,
				"z": -0.0250636468,
				"element": "C" 
			},
			{
				"x": -1.1934224369,
				"y": -0.269586703,
				"z": 1.1800689222,
				"element": "C" 
			},
			{
				"x": -2.3387480913,
				"y": -1.2687475823,
				"z": 1.3899231419,
				"element": "C" 
			},
			{
				"x": -2.1231182167,
				"y": -2.1942664451,
				"z": 2.5916025114,
				"element": "C" 
			},
			{
				"x": 1.2523116979,
				"y": 4.4253191565,
				"z": 1.1737477954,
				"element": "H" 
			},
			{
				"x": 0.879044293,
				"y": 4.1996509788,
				"z": -0.5407000817,
				"element": "H" 
			},
			{
				"x": 2.0586202571,
				"y": 3.1493147452,
				"z": 0.252094747,
				"element": "H" 
			},
			{
				"x": 0.2271929401,
				"y": 2.2127116804,
				"z": 1.7178525286,
				"element": "H" 
			},
			{
				"x": -0.9477107193,
				"y": 3.2472177084,
				"z": 0.9252999705,
				"element": "H" 
			},
			{
				"x": 0.6756412957,
				"y": 1.0447501822,
				"z": -0.4593454047,
				"element": "H" 
			},
			{
				"x": -0.4410659334,
				"y": 2.1260924115,
				"z": -1.2727782328,
				"element": "H" 
			},
			{
				"x": -2.3331753538,
				"y": 1.2351815458,
				"z": 0.1239997046,
				"element": "H" 
			},
			{
				"x": -1.5836991363,
				"y": 0.0374404672,
				"z": -0.9159029697,
				"element": "H" 
			},
			{
				"x": -0.2514884638,
				"y": -0.8218061976,
				"z": 1.0468755347,
				"element": "H" 
			},
			{
				"x": -1.068785974,
				"y": 0.3255633998,
				"z": 2.0945040605,
				"element": "H" 
			},
			{
				"x": -2.4629305674,
				"y": -1.8722517203,
				"z": 0.4802734105,
				"element": "H" 
			},
			{
				"x": -3.2804111145,
				"y": -0.7172050645,
				"z": 1.517075556,
				"element": "H" 
			},
			{
				"x": -2.0319547326,
				"y": -1.6215981201,
				"z": 3.5217868094,
				"element": "H" 
			},
			{
				"x": -1.2064943461,
				"y": -2.7844738582,
				"z": 2.4777896829,
				"element": "H" 
			},
			{
				"x": -2.9559256844,
				"y": -2.8947740583,
				"z": 2.7134501525,
				"element": "H" 
			}
		],
		 "valence_orbital": [ 
			{
				"type": "occ",
				"energy": -0.33251,
				"method": "rhf"
			},
			{
				"type": "occ",
				"energy": -0.32134,
				"method": "rhf"
			},
			{
				"type": "occ",
				"energy": -0.31504,
				"method": "rhf"
			},
			{
				"type": "occ",
				"energy": -0.30592,
				"method": "rhf"
			},
			{
				"type": "occ",
				"energy": -0.30403,
				"method": "rhf"
			},
			{
				"type": "unocc",
				"energy": 0.09278,
				"method": "rhf"
			},
			{
				"type": "unocc",
				"energy": 0.10229,
				"method": "rhf"
			},
			{
				"type": "unocc",
				"energy": 0.11831,
				"method": "rhf"
			},
			{
				"type": "unocc",
				"energy": 0.12364,
				"method": "rhf"
			},
			{
				"type": "unocc",
				"energy": 0.12772,
				"method": "rhf"
			}
		],
		"cosmo_sigma_profile": { 
			"-0.025": 0.0,
			"-0.024": 0.0,
			"-0.023": 0.0,
			"-0.022": 0.0,
			"-0.021": 0.0,
			"-0.02": 0.0,
			"-0.019": 0.0,
			"-0.018": 0.0,
			"-0.017": 0.0,
			"-0.016": 0.0,
			"-0.015": 0.0,
			"-0.014": 0.0,
			"-0.013": 0.0,
			"-0.012": 0.0,
			"-0.011": 0.0,
			"-0.01": 0.0,
			"-0.009": 0.0,
			"-0.008": 0.0,
			"-0.007": 0.0,
			"-0.006": 0.0,
			"-0.005": 0.0,
			"-0.004": 0.0,
			"-0.003": 2.74616438206,
			"-0.002": 22.7181538056,
			"-0.001": 41.6975251282,
			"0.0": 46.7330447383,
			"0.001": 44.4060484876,
			"0.002": 24.4913453689,
			"0.003": 0.948223122283,
			"0.004": 0.0,
			"0.005": 0.0,
			"0.006": 0.0,
			"0.007": 0.0,
			"0.008": 0.0,
			"0.009": 0.0,
			"0.01": 0.0,
			"0.011": 0.0,
			"0.012": 0.0,
			"0.013": 0.0,
			"0.014": 0.0,
			"0.015": 0.0,
			"0.016": 0.0,
			"0.017": 0.0,
			"0.018": 0.0,
			"0.019": 0.0,
			"0.02": 0.0,
			"0.021": 0.0,
			"0.022": 0.0,
			"0.023": 0.0,
			"0.024": 0.0,
			"0.025": 0.0
		}
	}
}
