{
	 "smiles": "NC(=O)C1CCCCN1C(=O)C1=CC(Br)=CC=C1", 
	 "Tm": 451.15, 
	 "num_atms": 33, 
	 "gaussian": { 
		 "optdone": 1, 
		 "sigma_profile": "yes", 
		 "theory": "DFT", 
		 "functional": "B3LYP", 
		 "basiset": "6-31G**", 
		 "properties": { 
			 "R2extent": 8477.9127, 
			 "electric_dipole_moment_norm": 3.1190426496, 
			 "electric_quadrupole_moment_norm": 16.1692568311, 
			 "total_energy": -3335.82295712, 
			 "HOMO_LUMO_gap": 0.18441, 
			 "cosmo_polarized_energy": -14.34, 
			 "cosmo_cavitation_energy": 36.94, 
			 "cosmo_dispersion_energy": -26.84, 
			 "cosmo_repulsion_energy": 2.08, 
			 "cosmo_total_nonelectrostatic_energy": 12.19, 
			 "SMD_solvation_energy": 5.13 
		},
		"coords": [
			{
				"x": 2.7641783821,
				"y": 0.5476648351,
				"z": -1.4714901401,
				"element": "N" 
			},
			{
				"x": 2.4682247479,
				"y": 1.7253039368,
				"z": -0.8636448638,
				"element": "C" 
			},
			{
				"x": 3.3098945446,
				"y": 2.5547190086,
				"z": -0.5376504698,
				"element": "O" 
			},
			{
				"x": 0.9482509337,
				"y": 1.9261390522,
				"z": -0.6252619358,
				"element": "C" 
			},
			{
				"x": 0.5936478913,
				"y": 3.367655426,
				"z": -0.2289389371,
				"element": "C" 
			},
			{
				"x": 0.9670845275,
				"y": 3.7144526316,
				"z": 1.2194510727,
				"element": "C" 
			},
			{
				"x": 0.3975642187,
				"y": 2.6731854202,
				"z": 2.1914499641,
				"element": "C" 
			},
			{
				"x": 0.8314509561,
				"y": 1.2659132606,
				"z": 1.7764146769,
				"element": "C" 
			},
			{
				"x": 0.4350517072,
				"y": 0.9755315221,
				"z": 0.3860684029,
				"element": "N" 
			},
			{
				"x": -0.0201440092,
				"y": -0.2418259311,
				"z": -0.0495715694,
				"element": "C" 
			},
			{
				"x": 0.13033503,
				"y": -0.6191259816,
				"z": -1.2198423957,
				"element": "O" 
			},
			{
				"x": -0.7777439943,
				"y": -1.1232987097,
				"z": 0.9062525292,
				"element": "C" 
			},
			{
				"x": -0.5663549616,
				"y": -2.5050359433,
				"z": 0.8101102702,
				"element": "C" 
			},
			{
				"x": -1.2989000077,
				"y": -3.3666185645,
				"z": 1.6195287865,
				"element": "C" 
			},
			{
				"x": -0.9877725779,
				"y": -5.2487200074,
				"z": 1.5079382215,
				"element": "Br" 
			},
			{
				"x": -2.263410473,
				"y": -2.8858092096,
				"z": 2.5056359257,
				"element": "C" 
			},
			{
				"x": -2.4911942736,
				"y": -1.5108423943,
				"z": 2.574344149,
				"element": "C" 
			},
			{
				"x": -1.7523461835,
				"y": -0.6301896366,
				"z": 1.7843687486,
				"element": "C" 
			},
			{
				"x": 2.0235883991,
				"y": -0.1085141265,
				"z": -1.698917229,
				"element": "H" 
			},
			{
				"x": 3.7338757382,
				"y": 0.3242121074,
				"z": -1.6369108249,
				"element": "H" 
			},
			{
				"x": 0.4412383142,
				"y": 1.6676248351,
				"z": -1.5583098783,
				"element": "H" 
			},
			{
				"x": 1.0976945625,
				"y": 4.0472469686,
				"z": -0.9219529337,
				"element": "H" 
			},
			{
				"x": -0.4872200533,
				"y": 3.4935186861,
				"z": -0.3704960028,
				"element": "H" 
			},
			{
				"x": 2.0576775942,
				"y": 3.7404902758,
				"z": 1.3043995912,
				"element": "H" 
			},
			{
				"x": 0.5938689575,
				"y": 4.7139554665,
				"z": 1.469311275,
				"element": "H" 
			},
			{
				"x": 0.7433131798,
				"y": 2.8644578728,
				"z": 3.2138672068,
				"element": "H" 
			},
			{
				"x": -0.6996958765,
				"y": 2.725155819,
				"z": 2.2052512886,
				"element": "H" 
			},
			{
				"x": 0.4117306185,
				"y": 0.5036046495,
				"z": 2.4309462782,
				"element": "H" 
			},
			{
				"x": 1.9264612375,
				"y": 1.1895237178,
				"z": 1.8458439772,
				"element": "H" 
			},
			{
				"x": 0.1570725797,
				"y": -2.8864203607,
				"z": 0.0999181243,
				"element": "H" 
			},
			{
				"x": -2.829532921,
				"y": -3.5748165793,
				"z": 3.1219161039,
				"element": "H" 
			},
			{
				"x": -3.2539419413,
				"y": -1.1283569375,
				"z": 3.2458754466,
				"element": "H" 
			},
			{
				"x": -1.9479468471,
				"y": 0.4362188903,
				"z": 1.8303951411,
				"element": "H" 
			}
		],
		 "valence_orbital": [ 
			{
				"type": "occ",
				"energy": -0.27321,
				"method": "rhf"
			},
			{
				"type": "occ",
				"energy": -0.26158,
				"method": "rhf"
			},
			{
				"type": "occ",
				"energy": -0.25963,
				"method": "rhf"
			},
			{
				"type": "occ",
				"energy": -0.2534,
				"method": "rhf"
			},
			{
				"type": "occ",
				"energy": -0.23475,
				"method": "rhf"
			},
			{
				"type": "unocc",
				"energy": -0.05034,
				"method": "rhf"
			},
			{
				"type": "unocc",
				"energy": -0.02622,
				"method": "rhf"
			},
			{
				"type": "unocc",
				"energy": -0.00055,
				"method": "rhf"
			},
			{
				"type": "unocc",
				"energy": 0.02065,
				"method": "rhf"
			},
			{
				"type": "unocc",
				"energy": 0.03196,
				"method": "rhf"
			}
		],
		"cosmo_sigma_profile": { 
			"-0.025": 0.0,
			"-0.024": 0.0,
			"-0.023": 0.0,
			"-0.022": 0.0,
			"-0.021": 0.0,
			"-0.02": 0.0,
			"-0.019": 0.0,
			"-0.018": 0.0,
			"-0.017": 0.0,
			"-0.016": 0.0,
			"-0.015": 0.0,
			"-0.014": 0.398179759566,
			"-0.013": 1.14581005254,
			"-0.012": 1.00632383111,
			"-0.011": 0.974923956242,
			"-0.01": 1.20418525304,
			"-0.009": 1.46658688224,
			"-0.008": 1.99312563227,
			"-0.007": 6.4404532702,
			"-0.006": 10.4917251677,
			"-0.005": 14.5427919868,
			"-0.004": 22.5583171301,
			"-0.003": 33.7963601447,
			"-0.002": 29.2140854523,
			"-0.001": 27.7719802739,
			"0.0": 26.2041572739,
			"0.001": 21.8563138997,
			"0.002": 23.5305784457,
			"0.003": 17.8001049201,
			"0.004": 15.1872492041,
			"0.005": 7.69320514647,
			"0.006": 3.14213205593,
			"0.007": 1.84989824423,
			"0.008": 2.37522597536,
			"0.009": 2.97125271932,
			"0.01": 2.53605659571,
			"0.011": 3.09788547083,
			"0.012": 3.81322419741,
			"0.013": 5.14666900192,
			"0.014": 4.29754821054,
			"0.015": 0.665480801154,
			"0.016": 0.0,
			"0.017": 0.0,
			"0.018": 0.0,
			"0.019": 0.0,
			"0.02": 0.0,
			"0.021": 0.0,
			"0.022": 0.0,
			"0.023": 0.0,
			"0.024": 0.0,
			"0.025": 0.0
		}
	}
}
