{
	 "smiles": "CCN(CC)S(=O)(=O)C1=C(F)C=CC(=C1)C(O)=O", 
	 "Tm": 433.15, 
	 "num_atms": 32, 
	 "gaussian": { 
		 "optdone": 1, 
		 "sigma_profile": "yes", 
		 "theory": "DFT", 
		 "functional": "B3LYP", 
		 "basiset": "6-31G**", 
		 "properties": { 
			 "R2extent": 5569.0672, 
			 "electric_dipole_moment_norm": 4.40369110293, 
			 "electric_quadrupole_moment_norm": 13.2714782986, 
			 "total_energy": -1281.22237335, 
			 "HOMO_LUMO_gap": 0.19405, 
			 "cosmo_polarized_energy": -18.09, 
			 "cosmo_cavitation_energy": 37.07, 
			 "cosmo_dispersion_energy": -25.53, 
			 "cosmo_repulsion_energy": 1.91, 
			 "cosmo_total_nonelectrostatic_energy": 13.45, 
			 "SMD_solvation_energy": 7.69 
		},
		"coords": [
			{
				"x": -1.630917322,
				"y": -1.4057974648,
				"z": 2.7228956098,
				"element": "C" 
			},
			{
				"x": -0.9209356641,
				"y": -0.2033999655,
				"z": 2.0963870646,
				"element": "C" 
			},
			{
				"x": -1.0681417221,
				"y": -0.0969826132,
				"z": 0.6301892277,
				"element": "N" 
			},
			{
				"x": -2.369573503,
				"y": 0.3339926801,
				"z": 0.083705694,
				"element": "C" 
			},
			{
				"x": -2.5734222521,
				"y": 1.8492833376,
				"z": 0.1382623385,
				"element": "C" 
			},
			{
				"x": -0.0026312388,
				"y": -0.9526492278,
				"z": -0.3284015038,
				"element": "S" 
			},
			{
				"x": 0.6231432801,
				"y": -1.9964847262,
				"z": 0.487340523,
				"element": "O" 
			},
			{
				"x": -0.6716268194,
				"y": -1.272789657,
				"z": -1.5914886318,
				"element": "O" 
			},
			{
				"x": 1.3040650467,
				"y": 0.2376142224,
				"z": -0.711227961,
				"element": "C" 
			},
			{
				"x": 2.3861153615,
				"y": -0.1861008791,
				"z": -1.4921623401,
				"element": "C" 
			},
			{
				"x": 2.4257116842,
				"y": -1.4471228258,
				"z": -1.935204526,
				"element": "F" 
			},
			{
				"x": 3.4267098163,
				"y": 0.6741317187,
				"z": -1.8258763423,
				"element": "C" 
			},
			{
				"x": 3.3896879385,
				"y": 1.9871268909,
				"z": -1.3690639782,
				"element": "C" 
			},
			{
				"x": 2.3176620296,
				"y": 2.4330767016,
				"z": -0.5853808811,
				"element": "C" 
			},
			{
				"x": 1.2766631392,
				"y": 1.5529463266,
				"z": -0.2589514616,
				"element": "C" 
			},
			{
				"x": 2.326297644,
				"y": 3.8462295708,
				"z": -0.1267332977,
				"element": "C" 
			},
			{
				"x": 1.2369114344,
				"y": 4.1695149883,
				"z": 0.6142484139,
				"element": "O" 
			},
			{
				"x": 3.2031548883,
				"y": 4.6487271403,
				"z": -0.3760839229,
				"element": "O" 
			},
			{
				"x": -1.5038424806,
				"y": -1.3851255952,
				"z": 3.8105926656,
				"element": "H" 
			},
			{
				"x": -1.2064426691,
				"y": -2.336089463,
				"z": 2.3402884981,
				"element": "H" 
			},
			{
				"x": -2.7056000285,
				"y": -1.397490171,
				"z": 2.5156184438,
				"element": "H" 
			},
			{
				"x": -1.302867208,
				"y": 0.7337002901,
				"z": 2.5174179426,
				"element": "H" 
			},
			{
				"x": 0.1455617329,
				"y": -0.2404620337,
				"z": 2.3295897136,
				"element": "H" 
			},
			{
				"x": -3.1646135705,
				"y": -0.1751918789,
				"z": 0.641969662,
				"element": "H" 
			},
			{
				"x": -2.4313488534,
				"y": -0.0232115839,
				"z": -0.9446802556,
				"element": "H" 
			},
			{
				"x": -3.5715907754,
				"y": 2.1014484021,
				"z": -0.2351137212,
				"element": "H" 
			},
			{
				"x": -2.4960106697,
				"y": 2.2375367863,
				"z": 1.1591634101,
				"element": "H" 
			},
			{
				"x": -1.8386810927,
				"y": 2.3711871714,
				"z": -0.4818375192,
				"element": "H" 
			},
			{
				"x": 4.2420624223,
				"y": 0.3001439469,
				"z": -2.4350294171,
				"element": "H" 
			},
			{
				"x": 4.1839939681,
				"y": 2.6848457955,
				"z": -1.6104283372,
				"element": "H" 
			},
			{
				"x": 0.4456274034,
				"y": 1.8914194742,
				"z": 0.3460816405,
				"element": "H" 
			},
			{
				"x": 1.3477780797,
				"y": 5.1039726412,
				"z": 0.8550132489,
				"element": "H" 
			}
		],
		 "valence_orbital": [ 
			{
				"type": "occ",
				"energy": -0.30554,
				"method": "rhf"
			},
			{
				"type": "occ",
				"energy": -0.29005,
				"method": "rhf"
			},
			{
				"type": "occ",
				"energy": -0.28299,
				"method": "rhf"
			},
			{
				"type": "occ",
				"energy": -0.26919,
				"method": "rhf"
			},
			{
				"type": "occ",
				"energy": -0.25821,
				"method": "rhf"
			},
			{
				"type": "unocc",
				"energy": -0.06416,
				"method": "rhf"
			},
			{
				"type": "unocc",
				"energy": -0.04262,
				"method": "rhf"
			},
			{
				"type": "unocc",
				"energy": 0.03422,
				"method": "rhf"
			},
			{
				"type": "unocc",
				"energy": 0.04428,
				"method": "rhf"
			},
			{
				"type": "unocc",
				"energy": 0.06146,
				"method": "rhf"
			}
		],
		"cosmo_sigma_profile": { 
			"-0.025": 0.0,
			"-0.024": 0.0,
			"-0.023": 0.0,
			"-0.022": 0.0,
			"-0.021": 0.0,
			"-0.02": 0.0,
			"-0.019": 0.277850958246,
			"-0.018": 1.11005353572,
			"-0.017": 0.556652671155,
			"-0.016": 0.879852115257,
			"-0.015": 0.950924641158,
			"-0.014": 0.178002502196,
			"-0.013": 0.675307389593,
			"-0.012": 1.4554136366,
			"-0.011": 0.615542729597,
			"-0.01": 0.277646274306,
			"-0.009": 2.07610026944,
			"-0.008": 3.25594945488,
			"-0.007": 4.76867007268,
			"-0.006": 7.62967277164,
			"-0.005": 15.8692578589,
			"-0.004": 23.9369783507,
			"-0.003": 31.5047137085,
			"-0.002": 30.2429900962,
			"-0.001": 32.0431640835,
			"0.0": 32.8835432389,
			"0.001": 17.3540648067,
			"0.002": 10.4406908378,
			"0.003": 10.8655707963,
			"0.004": 6.95890203594,
			"0.005": 8.86653479447,
			"0.006": 5.94147204389,
			"0.007": 5.59888091167,
			"0.008": 5.57796983415,
			"0.009": 6.35736259789,
			"0.01": 10.3388536599,
			"0.011": 12.0314962221,
			"0.012": 2.57313972515,
			"0.013": 0.0,
			"0.014": 0.0,
			"0.015": 0.0,
			"0.016": 0.0,
			"0.017": 0.0,
			"0.018": 0.0,
			"0.019": 0.0,
			"0.02": 0.0,
			"0.021": 0.0,
			"0.022": 0.0,
			"0.023": 0.0,
			"0.024": 0.0,
			"0.0": 0.0
		}
	}
}
