{
	 "smiles": "CCNC1=NC(SC)=NC(NCC)=N1", 
	 "Tm": 355.65, 
	 "num_atms": 29, 
	 "gaussian": { 
		 "optdone": 1, 
		 "sigma_profile": "yes", 
		 "theory": "DFT", 
		 "functional": "B3LYP", 
		 "basiset": "6-31G**", 
		 "properties": { 
			 "R2extent": 4315.161, 
			 "electric_dipole_moment_norm": 2.69279750631, 
			 "electric_quadrupole_moment_norm": 13.2946567184, 
			 "total_energy": -985.890413, 
			 "HOMO_LUMO_gap": 0.21727, 
			 "cosmo_polarized_energy": -12.12, 
			 "cosmo_cavitation_energy": 34.04, 
			 "cosmo_dispersion_energy": -24.48, 
			 "cosmo_repulsion_energy": 1.96, 
			 "cosmo_total_nonelectrostatic_energy": 11.52, 
			 "SMD_solvation_energy": 2.03 
		},
		"coords": [
			{
				"x": 1.9400209419,
				"y": -0.564376363,
				"z": 3.9201876739,
				"element": "C" 
			},
			{
				"x": 2.3716921181,
				"y": 0.7625829679,
				"z": 3.2872484429,
				"element": "C" 
			},
			{
				"x": 2.508529128,
				"y": 0.7004976279,
				"z": 1.838628212,
				"element": "N" 
			},
			{
				"x": 1.4889000415,
				"y": 0.869651292,
				"z": 0.9608047134,
				"element": "C" 
			},
			{
				"x": 0.2868092981,
				"y": 1.2385223549,
				"z": 1.452449768,
				"element": "N" 
			},
			{
				"x": -0.646857901,
				"y": 1.4032696367,
				"z": 0.5143780891,
				"element": "C" 
			},
			{
				"x": -2.2241471437,
				"y": 1.892250375,
				"z": 1.1641144383,
				"element": "S" 
			},
			{
				"x": -3.2268312114,
				"y": 2.025734687,
				"z": -0.35364433,
				"element": "C" 
			},
			{
				"x": -0.5096401364,
				"y": 1.2351191612,
				"z": -0.7998598905,
				"element": "N" 
			},
			{
				"x": 0.7405053741,
				"y": 0.8649071951,
				"z": -1.1679302796,
				"element": "C" 
			},
			{
				"x": 0.9850887855,
				"y": 0.691927324,
				"z": -2.4916857368,
				"element": "N" 
			},
			{
				"x": -0.0252191862,
				"y": 0.7377358999,
				"z": -3.5381523615,
				"element": "C" 
			},
			{
				"x": -0.7394129175,
				"y": -0.599631967,
				"z": -3.7619355439,
				"element": "C" 
			},
			{
				"x": 1.7753697799,
				"y": 0.6629077421,
				"z": -0.3378438468,
				"element": "N" 
			},
			{
				"x": 0.9591553679,
				"y": -0.8628187783,
				"z": 3.5402475348,
				"element": "H" 
			},
			{
				"x": 2.6557828226,
				"y": -1.3632404487,
				"z": 3.6980176387,
				"element": "H" 
			},
			{
				"x": 1.8706307726,
				"y": -0.4636604088,
				"z": 5.0087513394,
				"element": "H" 
			},
			{
				"x": 3.335851468,
				"y": 1.0858410773,
				"z": 3.695056144,
				"element": "H" 
			},
			{
				"x": 1.6384292979,
				"y": 1.5391908474,
				"z": 3.5140117905,
				"element": "H" 
			},
			{
				"x": 3.3596148463,
				"y": 0.3422006132,
				"z": 1.4314880652,
				"element": "H" 
			},
			{
				"x": -2.8159342274,
				"y": 2.7807840656,
				"z": -1.0244120891,
				"element": "H" 
			},
			{
				"x": -4.2249329496,
				"y": 2.3241324049,
				"z": -0.02482242,
				"element": "H" 
			},
			{
				"x": -3.2771542623,
				"y": 1.0673952725,
				"z": -0.871008796,
				"element": "H" 
			},
			{
				"x": 1.9060322583,
				"y": 0.3371539929,
				"z": -2.7033770831,
				"element": "H" 
			},
			{
				"x": 0.4689151805,
				"y": 1.0649031439,
				"z": -4.459709793,
				"element": "H" 
			},
			{
				"x": -0.7495192926,
				"y": 1.506635391,
				"z": -3.2617876724,
				"element": "H" 
			},
			{
				"x": -0.0305027437,
				"y": -1.3877479699,
				"z": -4.037354999,
				"element": "H" 
			},
			{
				"x": -1.4768566578,
				"y": -0.5104214097,
				"z": -4.5671268062,
				"element": "H" 
			},
			{
				"x": -1.2598188515,
				"y": -0.9086457272,
				"z": -2.8511322022,
				"element": "H" 
			}
		],
		 "valence_orbital": [ 
			{
				"type": "occ",
				"energy": -0.25529,
				"method": "rhf"
			},
			{
				"type": "occ",
				"energy": -0.25167,
				"method": "rhf"
			},
			{
				"type": "occ",
				"energy": -0.23356,
				"method": "rhf"
			},
			{
				"type": "occ",
				"energy": -0.22787,
				"method": "rhf"
			},
			{
				"type": "occ",
				"energy": -0.22215,
				"method": "rhf"
			},
			{
				"type": "unocc",
				"energy": -0.00488,
				"method": "rhf"
			},
			{
				"type": "unocc",
				"energy": 0.01601,
				"method": "rhf"
			},
			{
				"type": "unocc",
				"energy": 0.04732,
				"method": "rhf"
			},
			{
				"type": "unocc",
				"energy": 0.08992,
				"method": "rhf"
			},
			{
				"type": "unocc",
				"energy": 0.09271,
				"method": "rhf"
			}
		],
		"cosmo_sigma_profile": { 
			"-0.025": 0.0,
			"-0.024": 0.0,
			"-0.023": 0.0,
			"-0.022": 0.0,
			"-0.021": 0.0,
			"-0.02": 0.0,
			"-0.019": 0.0,
			"-0.018": 0.0,
			"-0.017": 0.0,
			"-0.016": 0.0,
			"-0.015": 0.0,
			"-0.014": 0.432741110327,
			"-0.013": 2.0200711372,
			"-0.012": 1.81868689197,
			"-0.011": 2.2292931009,
			"-0.01": 1.70246743552,
			"-0.009": 1.61501427342,
			"-0.008": 2.01887819469,
			"-0.007": 3.43199195052,
			"-0.006": 4.81285858987,
			"-0.005": 11.2752333345,
			"-0.004": 15.4429971355,
			"-0.003": 25.9501522008,
			"-0.002": 30.2125400959,
			"-0.001": 29.7023725844,
			"0.0": 23.5805330539,
			"0.001": 26.7506995827,
			"0.002": 15.755908602,
			"0.003": 12.7768901634,
			"0.004": 11.5874103243,
			"0.005": 13.3224372657,
			"0.006": 9.77256755232,
			"0.007": 8.10697035288,
			"0.008": 5.94103821203,
			"0.009": 2.30088296959,
			"0.01": 2.69401029611,
			"0.011": 2.04507126456,
			"0.012": 1.29719647472,
			"0.013": 0.900094893351,
			"0.014": 0.00780300291174,
			"0.015": 0.0,
			"0.016": 0.0,
			"0.017": 0.0,
			"0.018": 0.0,
			"0.019": 0.0,
			"0.02": 0.0,
			"0.021": 0.0,
			"0.022": 0.0,
			"0.023": 0.0,
			"0.024": 0.0,
			"0.025": 0.0
		}
	}
}
