{
	 "smiles": "CC1=C(C=C(O1)C1=CC=CC=C1)C(O)=O", 
	 "Tm": 456.15, 
	 "num_atms": 25, 
	 "gaussian": { 
		 "optdone": 1, 
		 "sigma_profile": "yes", 
		 "theory": "DFT", 
		 "functional": "B3LYP", 
		 "basiset": "6-31G**", 
		 "properties": { 
			 "R2extent": 4207.9112, 
			 "electric_dipole_moment_norm": 4.47425108482, 
			 "electric_quadrupole_moment_norm": 18.1365689539, 
			 "total_energy": -688.97994851, 
			 "HOMO_LUMO_gap": 0.17224, 
			 "cosmo_polarized_energy": -14.56, 
			 "cosmo_cavitation_energy": 29.78, 
			 "cosmo_dispersion_energy": -21.91, 
			 "cosmo_repulsion_energy": 1.7, 
			 "cosmo_total_nonelectrostatic_energy": 9.57, 
			 "SMD_solvation_energy": 6.65 
		},
		"coords": [
			{
				"x": 1.3595189056,
				"y": 2.8192829432,
				"z": -1.4371184002,
				"element": "C" 
			},
			{
				"x": 1.0062189881,
				"y": 1.6887586901,
				"z": -0.5414756892,
				"element": "C" 
			},
			{
				"x": 1.7476563605,
				"y": 0.7639001981,
				"z": 0.1601698272,
				"element": "C" 
			},
			{
				"x": 0.7991678792,
				"y": -0.0776701458,
				"z": 0.8411213341,
				"element": "C" 
			},
			{
				"x": -0.4468731116,
				"y": 0.3781533599,
				"z": 0.5147939565,
				"element": "C" 
			},
			{
				"x": -0.3148087627,
				"y": 1.4547507028,
				"z": -0.3345733695,
				"element": "O" 
			},
			{
				"x": -1.8010754493,
				"y": -0.0250916956,
				"z": 0.874728707,
				"element": "C" 
			},
			{
				"x": -2.0158362242,
				"y": -1.1221325041,
				"z": 1.7287685542,
				"element": "C" 
			},
			{
				"x": -3.307461169,
				"y": -1.5082476516,
				"z": 2.0738607735,
				"element": "C" 
			},
			{
				"x": -4.4100291736,
				"y": -0.8097842322,
				"z": 1.5743389453,
				"element": "C" 
			},
			{
				"x": -4.2066215794,
				"y": 0.279830746,
				"z": 0.7256785117,
				"element": "C" 
			},
			{
				"x": -2.9160170857,
				"y": 0.6720124845,
				"z": 0.3769397503,
				"element": "C" 
			},
			{
				"x": 3.224672977,
				"y": 0.6995346637,
				"z": 0.1712889086,
				"element": "C" 
			},
			{
				"x": 3.7694686923,
				"y": -0.4128630642,
				"z": 0.7370784163,
				"element": "O" 
			},
			{
				"x": 3.9548666074,
				"y": 1.5552749179,
				"z": -0.2793486737,
				"element": "O" 
			},
			{
				"x": 0.9384560795,
				"y": 2.670519397,
				"z": -2.4380473088,
				"element": "H" 
			},
			{
				"x": 0.9566610601,
				"y": 3.7609530403,
				"z": -1.04707156,
				"element": "H" 
			},
			{
				"x": 2.4442578999,
				"y": 2.8955281118,
				"z": -1.5025066118,
				"element": "H" 
			},
			{
				"x": 1.0072194143,
				"y": -0.8947293252,
				"z": 1.5183564428,
				"element": "H" 
			},
			{
				"x": -1.1688684295,
				"y": -1.6752564958,
				"z": 2.1237266162,
				"element": "H" 
			},
			{
				"x": -3.4544200501,
				"y": -2.3575382929,
				"z": 2.7347516713,
				"element": "H" 
			},
			{
				"x": -5.4170614702,
				"y": -1.1129246845,
				"z": 1.8446554295,
				"element": "H" 
			},
			{
				"x": -5.0569634803,
				"y": 0.8293151618,
				"z": 0.3322904578,
				"element": "H" 
			},
			{
				"x": -2.7627390098,
				"y": 1.5195230549,
				"z": -0.2818038969,
				"element": "H" 
			},
			{
				"x": 3.0784101316,
				"y": -1.05129938,
				"z": 0.9589972079,
				"element": "H" 
			}
		],
		 "valence_orbital": [ 
			{
				"type": "occ",
				"energy": -0.29987,
				"method": "rhf"
			},
			{
				"type": "occ",
				"energy": -0.28349,
				"method": "rhf"
			},
			{
				"type": "occ",
				"energy": -0.27125,
				"method": "rhf"
			},
			{
				"type": "occ",
				"energy": -0.26127,
				"method": "rhf"
			},
			{
				"type": "occ",
				"energy": -0.21658,
				"method": "rhf"
			},
			{
				"type": "unocc",
				"energy": -0.04434,
				"method": "rhf"
			},
			{
				"type": "unocc",
				"energy": -0.02795,
				"method": "rhf"
			},
			{
				"type": "unocc",
				"energy": -0.00987,
				"method": "rhf"
			},
			{
				"type": "unocc",
				"energy": 0.04872,
				"method": "rhf"
			},
			{
				"type": "unocc",
				"energy": 0.05986,
				"method": "rhf"
			}
		],
		"cosmo_sigma_profile": { 
			"-0.025": 0.0,
			"-0.024": 0.0,
			"-0.023": 0.0,
			"-0.022": 0.0,
			"-0.021": 0.0,
			"-0.02": 0.0,
			"-0.019": 0.0712131117807,
			"-0.018": 1.11215190597,
			"-0.017": 0.709550673354,
			"-0.016": 0.805890041464,
			"-0.015": 1.38177245237,
			"-0.014": 1.17508708722,
			"-0.013": 1.23761258428,
			"-0.012": 0.928509525009,
			"-0.011": 1.20690935384,
			"-0.01": 1.16845042468,
			"-0.009": 2.11566404719,
			"-0.008": 2.81782778527,
			"-0.007": 2.61429158921,
			"-0.006": 10.8057892216,
			"-0.005": 14.5603654642,
			"-0.004": 17.4606045712,
			"-0.003": 16.0281634337,
			"-0.002": 17.3517726794,
			"-0.001": 18.5924066858,
			"0.0": 15.999550509,
			"0.001": 19.5168560942,
			"0.002": 18.5173175473,
			"0.003": 16.2282884759,
			"0.004": 14.603720136,
			"0.005": 13.9473201202,
			"0.006": 4.21193500403,
			"0.007": 2.60742207099,
			"0.008": 2.08628352538,
			"0.009": 3.40199935407,
			"0.01": 4.12263982124,
			"0.011": 5.2026915701,
			"0.012": 3.86929946647,
			"0.013": 2.16535553883,
			"0.014": 0.257345646755,
			"0.015": 0.0,
			"0.016": 0.0,
			"0.017": 0.0,
			"0.018": 0.0,
			"0.019": 0.0,
			"0.02": 0.0,
			"0.021": 0.0,
			"0.022": 0.0,
			"0.023": 0.0,
			"0.024": 0.0,
			"0.025": 0.0
		}
	}
}
