{
	 "smiles": "BrC1=C(NC(=O)CC#N)C=CC=C1", 
	 "Tm": 410.15, 
	 "num_atms": 20, 
	 "gaussian": { 
		 "optdone": 1, 
		 "sigma_profile": "yes", 
		 "theory": "DFT", 
		 "functional": "B3LYP", 
		 "basiset": "6-31G**", 
		 "properties": { 
			 "R2extent": 4812.4147, 
			 "electric_dipole_moment_norm": 4.94212046494, 
			 "electric_quadrupole_moment_norm": 12.207474326, 
			 "total_energy": -3103.29523932, 
			 "HOMO_LUMO_gap": 0.20782, 
			 "cosmo_polarized_energy": -14.41, 
			 "cosmo_cavitation_energy": 27.8, 
			 "cosmo_dispersion_energy": -19.67, 
			 "cosmo_repulsion_energy": 1.57, 
			 "cosmo_total_nonelectrostatic_energy": 9.69, 
			 "SMD_solvation_energy": 5.73 
		},
		"coords": [
			{
				"x": 0.6136566377,
				"y": 4.089155731,
				"z": -0.1866832958,
				"element": "Br" 
			},
			{
				"x": 0.3113212465,
				"y": 2.2491791512,
				"z": -0.6094442516,
				"element": "C" 
			},
			{
				"x": -0.0081626395,
				"y": 1.3362087491,
				"z": 0.4130787584,
				"element": "C" 
			},
			{
				"x": -0.126677375,
				"y": 1.7777690127,
				"z": 1.7477967288,
				"element": "N" 
			},
			{
				"x": 0.3711911114,
				"y": 1.256051995,
				"z": 2.9220435219,
				"element": "C" 
			},
			{
				"x": 0.170229876,
				"y": 1.8029590434,
				"z": 3.9901611206,
				"element": "O" 
			},
			{
				"x": 1.2399553722,
				"y": -0.0175006191,
				"z": 2.844286705,
				"element": "C" 
			},
			{
				"x": 0.4634637948,
				"y": -1.2350218129,
				"z": 3.0773780306,
				"element": "C" 
			},
			{
				"x": -0.1646971829,
				"y": -2.1978456399,
				"z": 3.2383253931,
				"element": "N" 
			},
			{
				"x": -0.259305167,
				"y": 0.0037103032,
				"z": 0.0508662176,
				"element": "C" 
			},
			{
				"x": -0.1404098394,
				"y": -0.4107298665,
				"z": -1.2742818827,
				"element": "C" 
			},
			{
				"x": 0.1896515721,
				"y": 0.5065468132,
				"z": -2.2715995076,
				"element": "C" 
			},
			{
				"x": 0.4028889031,
				"y": 1.844128922,
				"z": -1.9383580307,
				"element": "C" 
			},
			{
				"x": -0.5165843399,
				"y": 2.7042994147,
				"z": 1.8849587265,
				"element": "H" 
			},
			{
				"x": 1.7589076946,
				"y": -0.1058867278,
				"z": 1.8851587402,
				"element": "H" 
			},
			{
				"x": 1.9826553362,
				"y": 0.0856542634,
				"z": 3.6402231146,
				"element": "H" 
			},
			{
				"x": -0.5751694821,
				"y": -0.7024502577,
				"z": 0.8107251545,
				"element": "H" 
			},
			{
				"x": -0.3321721294,
				"y": -1.4490608744,
				"z": -1.5253732648,
				"element": "H" 
			},
			{
				"x": 0.2711849085,
				"y": 0.1915333631,
				"z": -3.3069506923,
				"element": "H" 
			},
			{
				"x": 0.6481717021,
				"y": 2.5737990364,
				"z": -2.7015112861,
				"element": "H" 
			}
		],
		 "valence_orbital": [ 
			{
				"type": "occ",
				"energy": -0.32101,
				"method": "rhf"
			},
			{
				"type": "occ",
				"energy": -0.30774,
				"method": "rhf"
			},
			{
				"type": "occ",
				"energy": -0.27866,
				"method": "rhf"
			},
			{
				"type": "occ",
				"energy": -0.26887,
				"method": "rhf"
			},
			{
				"type": "occ",
				"energy": -0.25019,
				"method": "rhf"
			},
			{
				"type": "unocc",
				"energy": -0.04237,
				"method": "rhf"
			},
			{
				"type": "unocc",
				"energy": -0.03443,
				"method": "rhf"
			},
			{
				"type": "unocc",
				"energy": -0.01305,
				"method": "rhf"
			},
			{
				"type": "unocc",
				"energy": -0.00054,
				"method": "rhf"
			},
			{
				"type": "unocc",
				"energy": 0.02559,
				"method": "rhf"
			}
		],
		"cosmo_sigma_profile": { 
			"-0.025": 0.0,
			"-0.024": 0.0,
			"-0.023": 0.0,
			"-0.022": 0.0,
			"-0.021": 0.0,
			"-0.02": 0.0,
			"-0.019": 0.0,
			"-0.018": 0.0,
			"-0.017": 0.0,
			"-0.016": 0.0,
			"-0.015": 0.0,
			"-0.014": 0.119324775345,
			"-0.013": 0.687385443435,
			"-0.012": 0.431037612798,
			"-0.011": 1.09950404361,
			"-0.01": 3.78294695409,
			"-0.009": 5.53611073146,
			"-0.008": 6.23492315459,
			"-0.007": 12.0840456636,
			"-0.006": 13.1872001558,
			"-0.005": 12.6402918488,
			"-0.004": 13.3397783531,
			"-0.003": 12.1840565694,
			"-0.002": 12.8208239968,
			"-0.001": 12.8645721009,
			"0.0": 15.1756636854,
			"0.001": 18.8855296408,
			"0.002": 16.8553945517,
			"0.003": 19.3409819922,
			"0.004": 11.6042718525,
			"0.005": 3.44641382916,
			"0.006": 2.79825530055,
			"0.007": 3.72817124737,
			"0.008": 4.40905944744,
			"0.009": 4.50350893502,
			"0.01": 4.48523965861,
			"0.011": 5.67340322139,
			"0.012": 7.43929942435,
			"0.013": 2.04502581275,
			"0.014": 0.0,
			"0.015": 0.0,
			"0.016": 0.0,
			"0.017": 0.0,
			"0.018": 0.0,
			"0.019": 0.0,
			"0.02": 0.0,
			"0.021": 0.0,
			"0.022": 0.0,
			"0.023": 0.0,
			"0.024": 0.0,
			"0.025": 0.0
		}
	}
}
