{
	 "smiles": "O=C(CCNNC(=O)C1=CC=NC=C1)NCC1=CC=CC=C1", 
	 "Tm": 424.15, 
	 "num_atms": 40, 
	 "gaussian": { 
		 "optdone": 1, 
		 "sigma_profile": "yes", 
		 "theory": "DFT", 
		 "functional": "B3LYP", 
		 "basiset": "6-31G**", 
		 "properties": { 
			 "R2extent": 8396.5856, 
			 "electric_dipole_moment_norm": 4.00682182534, 
			 "electric_quadrupole_moment_norm": 17.1677698922, 
			 "total_energy": -989.983105237, 
			 "HOMO_LUMO_gap": 0.18192, 
			 "cosmo_polarized_energy": -24.66, 
			 "cosmo_cavitation_energy": 44.76, 
			 "cosmo_dispersion_energy": -28.94, 
			 "cosmo_repulsion_energy": 2.21, 
			 "cosmo_total_nonelectrostatic_energy": 18.03, 
			 "SMD_solvation_energy": 6.11 
		},
		"coords": [
			{
				"x": 2.6728901832,
				"y": 1.994688723,
				"z": -2.2948035021,
				"element": "O" 
			},
			{
				"x": 2.1079415531,
				"y": 1.0897173546,
				"z": -1.6919075082,
				"element": "C" 
			},
			{
				"x": 2.8008698756,
				"y": 0.3594377564,
				"z": -0.543967445,
				"element": "C" 
			},
			{
				"x": 2.8014019688,
				"y": 1.2630640673,
				"z": 0.6975881344,
				"element": "C" 
			},
			{
				"x": 3.3515062423,
				"y": 0.5276119475,
				"z": 1.8443177689,
				"element": "N" 
			},
			{
				"x": 3.3137567015,
				"y": 1.2262145048,
				"z": 3.0647369878,
				"element": "N" 
			},
			{
				"x": 2.2121824089,
				"y": 1.7619922704,
				"z": 3.6980157101,
				"element": "C" 
			},
			{
				"x": 2.3289821399,
				"y": 2.6282066165,
				"z": 4.5539304263,
				"element": "O" 
			},
			{
				"x": 0.8579230549,
				"y": 1.2148622818,
				"z": 3.3256374433,
				"element": "C" 
			},
			{
				"x": -0.1900192496,
				"y": 2.1166663568,
				"z": 3.1162690686,
				"element": "C" 
			},
			{
				"x": -1.4422981846,
				"y": 1.6191388833,
				"z": 2.7598178338,
				"element": "C" 
			},
			{
				"x": -1.7144652626,
				"y": 0.3124325426,
				"z": 2.6286099196,
				"element": "N" 
			},
			{
				"x": -0.7193994224,
				"y": -0.5462304041,
				"z": 2.8871279658,
				"element": "C" 
			},
			{
				"x": 0.5748262922,
				"y": -0.1522810387,
				"z": 3.2321351408,
				"element": "C" 
			},
			{
				"x": 0.8183806822,
				"y": 0.7313100489,
				"z": -1.9801833418,
				"element": "N" 
			},
			{
				"x": -0.0184684116,
				"y": -0.2691412664,
				"z": -1.3122071004,
				"element": "C" 
			},
			{
				"x": -1.3856121911,
				"y": -0.3585622884,
				"z": -1.9593662405,
				"element": "C" 
			},
			{
				"x": -2.5452862981,
				"y": -0.2074177608,
				"z": -1.1901349793,
				"element": "C" 
			},
			{
				"x": -3.8052915468,
				"y": -0.3109470525,
				"z": -1.7842930965,
				"element": "C" 
			},
			{
				"x": -3.9186353743,
				"y": -0.5589332061,
				"z": -3.152522924,
				"element": "C" 
			},
			{
				"x": -2.7655272773,
				"y": -0.7109208142,
				"z": -3.9265824342,
				"element": "C" 
			},
			{
				"x": -1.5073977457,
				"y": -0.6155762146,
				"z": -3.33282867,
				"element": "C" 
			},
			{
				"x": 2.3155828955,
				"y": -0.5941803321,
				"z": -0.3090404429,
				"element": "H" 
			},
			{
				"x": 3.8287392386,
				"y": 0.149709922,
				"z": -0.8493988216,
				"element": "H" 
			},
			{
				"x": 3.4316135804,
				"y": 2.1369617367,
				"z": 0.5082792621,
				"element": "H" 
			},
			{
				"x": 1.7809303803,
				"y": 1.6310281905,
				"z": 0.8862189455,
				"element": "H" 
			},
			{
				"x": 2.8902039619,
				"y": -0.3691981713,
				"z": 1.9562396113,
				"element": "H" 
			},
			{
				"x": 4.1907268317,
				"y": 1.6569103234,
				"z": 3.3346516853,
				"element": "H" 
			},
			{
				"x": -0.0186633181,
				"y": 3.1824899266,
				"z": 3.2214888188,
				"element": "H" 
			},
			{
				"x": -2.2671410287,
				"y": 2.3017514927,
				"z": 2.5660786981,
				"element": "H" 
			},
			{
				"x": -0.9661082111,
				"y": -1.60358747,
				"z": 2.8097556377,
				"element": "H" 
			},
			{
				"x": 1.329975388,
				"y": -0.9014932183,
				"z": 3.4503639919,
				"element": "H" 
			},
			{
				"x": 0.3775462255,
				"y": 1.3151272344,
				"z": -2.6794441441,
				"element": "H" 
			},
			{
				"x": -0.1419175975,
				"y": -0.0322375939,
				"z": -0.2483293407,
				"element": "H" 
			},
			{
				"x": 0.4722373379,
				"y": -1.2507797537,
				"z": -1.3688267428,
				"element": "H" 
			},
			{
				"x": -2.4653697563,
				"y": -0.0151899933,
				"z": -0.1226222648,
				"element": "H" 
			},
			{
				"x": -4.6972334855,
				"y": -0.19268842,
				"z": -1.1757982525,
				"element": "H" 
			},
			{
				"x": -4.8987523912,
				"y": -0.6351234912,
				"z": -3.6143880349,
				"element": "H" 
			},
			{
				"x": -2.8460489401,
				"y": -0.9090364468,
				"z": -4.9915902195,
				"element": "H" 
			},
			{
				"x": -0.6128812501,
				"y": -0.7434972436,
				"z": -3.937527544,
				"element": "H" 
			}
		],
		 "valence_orbital": [ 
			{
				"type": "occ",
				"energy": -0.2618,
				"method": "rhf"
			},
			{
				"type": "occ",
				"energy": -0.25902,
				"method": "rhf"
			},
			{
				"type": "occ",
				"energy": -0.25155,
				"method": "rhf"
			},
			{
				"type": "occ",
				"energy": -0.24821,
				"method": "rhf"
			},
			{
				"type": "occ",
				"energy": -0.24344,
				"method": "rhf"
			},
			{
				"type": "unocc",
				"energy": -0.06152,
				"method": "rhf"
			},
			{
				"type": "unocc",
				"energy": -0.03266,
				"method": "rhf"
			},
			{
				"type": "unocc",
				"energy": -0.01562,
				"method": "rhf"
			},
			{
				"type": "unocc",
				"energy": -0.01026,
				"method": "rhf"
			},
			{
				"type": "unocc",
				"energy": 0.01717,
				"method": "rhf"
			}
		],
		"cosmo_sigma_profile": { 
			"-0.025": 0.0,
			"-0.024": 0.0,
			"-0.023": 0.0,
			"-0.022": 0.0,
			"-0.021": 0.0,
			"-0.02": 0.0,
			"-0.019": 0.0,
			"-0.018": 0.0,
			"-0.017": 0.0,
			"-0.016": 0.0,
			"-0.015": 0.0,
			"-0.014": 0.491645790209,
			"-0.013": 1.14879069539,
			"-0.012": 2.60473309681,
			"-0.011": 3.54243136303,
			"-0.01": 3.44896449994,
			"-0.009": 3.76907167096,
			"-0.008": 3.9607277949,
			"-0.007": 11.3649416808,
			"-0.006": 20.1737731348,
			"-0.005": 26.3844248978,
			"-0.004": 27.7387739212,
			"-0.003": 31.8755125751,
			"-0.002": 32.878512491,
			"-0.001": 24.6561394088,
			"0.0": 21.6538957107,
			"0.001": 23.4221952178,
			"0.002": 17.1710085311,
			"0.003": 14.9849622157,
			"0.004": 14.5463674299,
			"0.005": 13.6426387259,
			"0.006": 8.85785246876,
			"0.007": 4.98013036062,
			"0.008": 3.07521813637,
			"0.009": 3.94648638071,
			"0.01": 4.37014518381,
			"0.011": 4.34873917916,
			"0.012": 7.21108826201,
			"0.013": 8.28900165916,
			"0.014": 7.16876509157,
			"0.015": 3.36234811514,
			"0.016": 0.238917765864,
			"0.017": 0.0,
			"0.018": 0.0,
			"0.019": 0.0,
			"0.02": 0.0,
			"0.021": 0.0,
			"0.022": 0.0,
			"0.023": 0.0,
			"0.024": 0.0,
			"0.025": 0.0
		}
	}
}
