{
	 "smiles": "FC(F)(F)C1=CC2=C(CCCN2)C=C1", 
	 "Tm": 305.15, 
	 "num_atms": 24, 
	 "gaussian": { 
		 "optdone": 1, 
		 "sigma_profile": "yes", 
		 "theory": "DFT", 
		 "functional": "B3LYP", 
		 "basiset": "6-31G**", 
		 "properties": { 
			 "R2extent": 4800.8358, 
			 "electric_dipole_moment_norm": 4.26836858999, 
			 "electric_quadrupole_moment_norm": 12.2697845209, 
			 "total_energy": -741.384026679, 
			 "HOMO_LUMO_gap": 0.18506, 
			 "cosmo_polarized_energy": -6.72, 
			 "cosmo_cavitation_energy": 27.74, 
			 "cosmo_dispersion_energy": -20.39, 
			 "cosmo_repulsion_energy": 1.54, 
			 "cosmo_total_nonelectrostatic_energy": 8.89, 
			 "SMD_solvation_energy": 4.35 
		},
		"coords": [
			{
				"x": 2.9334912737,
				"y": 3.554889685,
				"z": -2.1942787202,
				"element": "F" 
			},
			{
				"x": 2.0864864806,
				"y": 2.7865164423,
				"z": -2.9183298995,
				"element": "C" 
			},
			{
				"x": 1.6012732445,
				"y": 3.5547301153,
				"z": -3.9197198871,
				"element": "F" 
			},
			{
				"x": 2.8410488806,
				"y": 1.822216889,
				"z": -3.5003698173,
				"element": "F" 
			},
			{
				"x": 0.9882819939,
				"y": 2.2012646945,
				"z": -2.0750132381,
				"element": "C" 
			},
			{
				"x": 1.2219690003,
				"y": 1.9441144542,
				"z": -0.7270782967,
				"element": "C" 
			},
			{
				"x": 0.2340361964,
				"y": 1.3379790082,
				"z": 0.0675548643,
				"element": "C" 
			},
			{
				"x": -1.0053443907,
				"y": 0.9872799872,
				"z": -0.5179758575,
				"element": "C" 
			},
			{
				"x": -2.0753193864,
				"y": 0.3081550577,
				"z": 0.3165575808,
				"element": "C" 
			},
			{
				"x": -1.8621355332,
				"y": 0.5326039749,
				"z": 1.8201963084,
				"element": "C" 
			},
			{
				"x": -0.4043515182,
				"y": 0.2527916987,
				"z": 2.1909653634,
				"element": "C" 
			},
			{
				"x": 0.4624504514,
				"y": 1.1371372456,
				"z": 1.424609299,
				"element": "N" 
			},
			{
				"x": -1.213341014,
				"y": 1.269102054,
				"z": -1.8698316563,
				"element": "C" 
			},
			{
				"x": -0.2353262862,
				"y": 1.8667796307,
				"z": -2.6616019758,
				"element": "C" 
			},
			{
				"x": 2.1705679188,
				"y": 2.2272032581,
				"z": -0.2808322764,
				"element": "H" 
			},
			{
				"x": -2.0675568875,
				"y": -0.7716476099,
				"z": 0.1090026644,
				"element": "H" 
			},
			{
				"x": -3.0660978588,
				"y": 0.6664859233,
				"z": 0.0143812715,
				"element": "H" 
			},
			{
				"x": -2.0987318643,
				"y": 1.5701210521,
				"z": 2.0825508489,
				"element": "H" 
			},
			{
				"x": -2.5252147709,
				"y": -0.1150293972,
				"z": 2.402898196,
				"element": "H" 
			},
			{
				"x": -0.2335385169,
				"y": 0.4428416539,
				"z": 3.2557682538,
				"element": "H" 
			},
			{
				"x": -0.1774441423,
				"y": -0.8119415608,
				"z": 2.0071196028,
				"element": "H" 
			},
			{
				"x": 1.4338324246,
				"y": 1.1477751294,
				"z": 1.700901481,
				"element": "H" 
			},
			{
				"x": -2.1721025023,
				"y": 1.0093366814,
				"z": -2.3128339394,
				"element": "H" 
			},
			{
				"x": -0.4191331932,
				"y": 2.0799939325,
				"z": -3.70814017,
				"element": "H" 
			}
		],
		 "valence_orbital": [ 
			{
				"type": "occ",
				"energy": -0.3371,
				"method": "rhf"
			},
			{
				"type": "occ",
				"energy": -0.3316,
				"method": "rhf"
			},
			{
				"type": "occ",
				"energy": -0.29971,
				"method": "rhf"
			},
			{
				"type": "occ",
				"energy": -0.2493,
				"method": "rhf"
			},
			{
				"type": "occ",
				"energy": -0.19954,
				"method": "rhf"
			},
			{
				"type": "unocc",
				"energy": -0.01448,
				"method": "rhf"
			},
			{
				"type": "unocc",
				"energy": 0.00779,
				"method": "rhf"
			},
			{
				"type": "unocc",
				"energy": 0.0768,
				"method": "rhf"
			},
			{
				"type": "unocc",
				"energy": 0.09887,
				"method": "rhf"
			},
			{
				"type": "unocc",
				"energy": 0.11123,
				"method": "rhf"
			}
		],
		"cosmo_sigma_profile": { 
			"-0.025": 0.0,
			"-0.024": 0.0,
			"-0.023": 0.0,
			"-0.022": 0.0,
			"-0.021": 0.0,
			"-0.02": 0.0,
			"-0.019": 0.0,
			"-0.018": 0.0,
			"-0.017": 0.0,
			"-0.016": 0.0,
			"-0.015": 0.0,
			"-0.014": 0.0,
			"-0.013": 0.513855902696,
			"-0.012": 1.4372185981,
			"-0.011": 1.57069567069,
			"-0.01": 1.39877115115,
			"-0.009": 1.14233443749,
			"-0.008": 1.69864247084,
			"-0.007": 1.89340119134,
			"-0.006": 3.09470846594,
			"-0.005": 7.11376184029,
			"-0.004": 13.8348569685,
			"-0.003": 22.8672139402,
			"-0.002": 23.7489077611,
			"-0.001": 20.2786269789,
			"0.0": 15.4831970758,
			"0.001": 13.1319063706,
			"0.002": 17.2502261538,
			"0.003": 37.5318717564,
			"0.004": 18.2853427351,
			"0.005": 9.69237685694,
			"0.006": 4.10523378606,
			"0.007": 0.963016888674,
			"0.008": 0.799619646155,
			"0.009": 0.662354559885,
			"0.01": 0.440222420467,
			"0.011": 0.455749696112,
			"0.012": 0.0436492437293,
			"0.013": 0.0,
			"0.014": 0.0,
			"0.015": 0.0,
			"0.016": 0.0,
			"0.017": 0.0,
			"0.018": 0.0,
			"0.019": 0.0,
			"0.02": 0.0,
			"0.021": 0.0,
			"0.022": 0.0,
			"0.023": 0.0,
			"0.024": 0.0,
			"0.025": 0.0
		}
	}
}
