{
	 "smiles": "COC1=CC=C(NC(=S)C2=CC=CC=C2)C=C1", 
	 "Tm": 406.15, 
	 "num_atms": 30, 
	 "gaussian": { 
		 "optdone": 1, 
		 "sigma_profile": "yes", 
		 "theory": "DFT", 
		 "functional": "B3LYP", 
		 "basiset": "6-31G**", 
		 "properties": { 
			 "R2extent": 5796.5617, 
			 "electric_dipole_moment_norm": 5.65757112726, 
			 "electric_quadrupole_moment_norm": 8.03388893003, 
			 "total_energy": -1069.47945519, 
			 "HOMO_LUMO_gap": 0.14418, 
			 "cosmo_polarized_energy": -14.89, 
			 "cosmo_cavitation_energy": 35.71, 
			 "cosmo_dispersion_energy": -25.46, 
			 "cosmo_repulsion_energy": 1.96, 
			 "cosmo_total_nonelectrostatic_energy": 12.2, 
			 "SMD_solvation_energy": 5.73 
		},
		"coords": [
			{
				"x": 1.1164630915,
				"y": -5.0133478659,
				"z": 2.4828372175,
				"element": "C" 
			},
			{
				"x": 2.2022702975,
				"y": -4.4344308227,
				"z": 1.7752569258,
				"element": "O" 
			},
			{
				"x": 1.9712345543,
				"y": -3.3029588334,
				"z": 1.0508490816,
				"element": "C" 
			},
			{
				"x": 3.0786070064,
				"y": -2.7796175256,
				"z": 0.3661884127,
				"element": "C" 
			},
			{
				"x": 2.9501274996,
				"y": -1.6234865131,
				"z": -0.3901419414,
				"element": "C" 
			},
			{
				"x": 1.7121440355,
				"y": -0.9698286113,
				"z": -0.4923278481,
				"element": "C" 
			},
			{
				"x": 1.6236270936,
				"y": 0.1782907369,
				"z": -1.3297631938,
				"element": "N" 
			},
			{
				"x": 0.8397317007,
				"y": 1.2876152299,
				"z": -1.2367254701,
				"element": "C" 
			},
			{
				"x": 0.6000371127,
				"y": 2.2519516625,
				"z": -2.5822936592,
				"element": "S" 
			},
			{
				"x": 0.2798096735,
				"y": 1.6511721375,
				"z": 0.095207498,
				"element": "C" 
			},
			{
				"x": 1.0737727487,
				"y": 1.5797280938,
				"z": 1.252834965,
				"element": "C" 
			},
			{
				"x": 0.5664609575,
				"y": 1.9963448312,
				"z": 2.4820126661,
				"element": "C" 
			},
			{
				"x": -0.744719044,
				"y": 2.4674388967,
				"z": 2.5777244196,
				"element": "C" 
			},
			{
				"x": -1.5413155057,
				"y": 2.5378031164,
				"z": 1.4323677368,
				"element": "C" 
			},
			{
				"x": -1.0294830381,
				"y": 2.1461463483,
				"z": 0.1971498169,
				"element": "C" 
			},
			{
				"x": 0.6054842823,
				"y": -1.5055381066,
				"z": 0.1711195799,
				"element": "C" 
			},
			{
				"x": 0.7329054843,
				"y": -2.6570577882,
				"z": 0.9497519027,
				"element": "C" 
			},
			{
				"x": 0.7073860372,
				"y": -4.323123994,
				"z": 3.2318328478,
				"element": "H" 
			},
			{
				"x": 0.3116723104,
				"y": -5.3253123284,
				"z": 1.8048433677,
				"element": "H" 
			},
			{
				"x": 1.5204379773,
				"y": -5.892006529,
				"z": 2.9876275511,
				"element": "H" 
			},
			{
				"x": 4.0310467696,
				"y": -3.2921596072,
				"z": 0.4494901073,
				"element": "H" 
			},
			{
				"x": 3.8154170567,
				"y": -1.2149691695,
				"z": -0.9049240098,
				"element": "H" 
			},
			{
				"x": 2.0764531342,
				"y": 0.0971267097,
				"z": -2.2337800121,
				"element": "H" 
			},
			{
				"x": 2.0941760527,
				"y": 1.2179175189,
				"z": 1.1846542759,
				"element": "H" 
			},
			{
				"x": 1.196790491,
				"y": 1.9538197433,
				"z": 3.3655052504,
				"element": "H" 
			},
			{
				"x": -1.1410320936,
				"y": 2.7842816807,
				"z": 3.5381713538,
				"element": "H" 
			},
			{
				"x": -2.5600795358,
				"y": 2.9082962155,
				"z": 1.4988015595,
				"element": "H" 
			},
			{
				"x": -1.6310346658,
				"y": 2.2235615265,
				"z": -0.7020859714,
				"element": "H" 
			},
			{
				"x": -0.3629288586,
				"y": -1.0271373885,
				"z": 0.0818482557,
				"element": "H" 
			},
			{
				"x": -0.1424626257,
				"y": -3.0460193642,
				"z": 1.455667314,
				"element": "H" 
			}
		],
		 "valence_orbital": [ 
			{
				"type": "occ",
				"energy": -0.2651,
				"method": "rhf"
			},
			{
				"type": "occ",
				"energy": -0.25677,
				"method": "rhf"
			},
			{
				"type": "occ",
				"energy": -0.23822,
				"method": "rhf"
			},
			{
				"type": "occ",
				"energy": -0.20996,
				"method": "rhf"
			},
			{
				"type": "occ",
				"energy": -0.20277,
				"method": "rhf"
			},
			{
				"type": "unocc",
				"energy": -0.05859,
				"method": "rhf"
			},
			{
				"type": "unocc",
				"energy": -0.01872,
				"method": "rhf"
			},
			{
				"type": "unocc",
				"energy": -0.00686,
				"method": "rhf"
			},
			{
				"type": "unocc",
				"energy": 0.0012,
				"method": "rhf"
			},
			{
				"type": "unocc",
				"energy": 0.02492,
				"method": "rhf"
			}
		],
		"cosmo_sigma_profile": { 
			"-0.025": 0.0,
			"-0.024": 0.0,
			"-0.023": 0.0,
			"-0.022": 0.0,
			"-0.021": 0.0,
			"-0.02": 0.0,
			"-0.019": 0.0,
			"-0.018": 0.0,
			"-0.017": 0.0,
			"-0.016": 0.0,
			"-0.015": 0.213259613951,
			"-0.014": 1.11112948811,
			"-0.013": 0.596539611689,
			"-0.012": 1.16128438602,
			"-0.011": 1.2273705386,
			"-0.01": 1.09591578423,
			"-0.009": 0.848342297061,
			"-0.008": 1.23392048846,
			"-0.007": 4.98895869679,
			"-0.006": 19.4956014115,
			"-0.005": 29.7024899201,
			"-0.004": 25.6206837708,
			"-0.003": 22.4645990252,
			"-0.002": 17.6708446675,
			"-0.001": 16.0113666946,
			"0.0": 15.7668640577,
			"0.001": 13.2101845376,
			"0.002": 17.5961062452,
			"0.003": 21.513531085,
			"0.004": 26.7793543092,
			"0.005": 11.5597839486,
			"0.006": 5.54700201977,
			"0.007": 6.31797875322,
			"0.008": 8.33163273847,
			"0.009": 7.5783792074,
			"0.01": 5.57302176431,
			"0.011": 3.15160639914,
			"0.012": 1.69472659303,
			"0.013": 0.0351830117281,
			"0.014": 0.0,
			"0.015": 0.0,
			"0.016": 0.0,
			"0.017": 0.0,
			"0.018": 0.0,
			"0.019": 0.0,
			"0.02": 0.0,
			"0.021": 0.0,
			"0.022": 0.0,
			"0.023": 0.0,
			"0.024": 0.0,
			"0.025": 0.0
		}
	}
}
