{
	 "smiles": "CC1=CC(OC2=C(C)C=CC(N)=C2)=NC=C1", 
	 "Tm": 350.15, 
	 "num_atms": 30, 
	 "gaussian": { 
		 "optdone": 1, 
		 "sigma_profile": "yes", 
		 "theory": "DFT", 
		 "functional": "B3LYP", 
		 "basiset": "6-31G**", 
		 "properties": { 
			 "R2extent": 5133.0216, 
			 "electric_dipole_moment_norm": 3.18896371099, 
			 "electric_quadrupole_moment_norm": 21.1092156384, 
			 "total_energy": -688.556265183, 
			 "HOMO_LUMO_gap": 0.187, 
			 "cosmo_polarized_energy": -14.06, 
			 "cosmo_cavitation_energy": 33.81, 
			 "cosmo_dispersion_energy": -23.8, 
			 "cosmo_repulsion_energy": 1.88, 
			 "cosmo_total_nonelectrostatic_energy": 11.9, 
			 "SMD_solvation_energy": 4.43 
		},
		"coords": [
			{
				"x": 0.4284064815,
				"y": 1.3743984171,
				"z": -2.4818107466,
				"element": "C" 
			},
			{
				"x": 0.5220986484,
				"y": 0.2616996942,
				"z": -1.467185824,
				"element": "C" 
			},
			{
				"x": -0.3998678874,
				"y": 0.1562507134,
				"z": -0.4258104359,
				"element": "C" 
			},
			{
				"x": -0.259290145,
				"y": -0.8978623574,
				"z": 0.4906639541,
				"element": "C" 
			},
			{
				"x": -1.1134689503,
				"y": -1.0851994249,
				"z": 1.5462174732,
				"element": "O" 
			},
			{
				"x": -2.163055809,
				"y": -0.1955928153,
				"z": 1.7581719307,
				"element": "C" 
			},
			{
				"x": -1.9630918465,
				"y": 0.9050071469,
				"z": 2.6035503431,
				"element": "C" 
			},
			{
				"x": -0.6169484919,
				"y": 1.1823643482,
				"z": 3.2241924115,
				"element": "C" 
			},
			{
				"x": -3.0823649267,
				"y": 1.711507201,
				"z": 2.8434466758,
				"element": "C" 
			},
			{
				"x": -4.3278276319,
				"y": 1.4452426422,
				"z": 2.2795610893,
				"element": "C" 
			},
			{
				"x": -4.5054917032,
				"y": 0.333008271,
				"z": 1.4405025341,
				"element": "C" 
			},
			{
				"x": -5.7357831455,
				"y": 0.0808042685,
				"z": 0.8275824986,
				"element": "N" 
			},
			{
				"x": -3.3970525217,
				"y": -0.4902380312,
				"z": 1.1866695038,
				"element": "C" 
			},
			{
				"x": 0.7011793016,
				"y": -1.8128414656,
				"z": 0.4301673692,
				"element": "N" 
			},
			{
				"x": 1.5791583409,
				"y": -1.7025373811,
				"z": -0.5752350031,
				"element": "C" 
			},
			{
				"x": 1.540609354,
				"y": -0.7008348516,
				"z": -1.5388536665,
				"element": "C" 
			},
			{
				"x": 0.3516264248,
				"y": 0.9730899748,
				"z": -3.498416817,
				"element": "H" 
			},
			{
				"x": -0.4413532751,
				"y": 2.0112760672,
				"z": -2.3016692453,
				"element": "H" 
			},
			{
				"x": 1.3231949002,
				"y": 2.0065830259,
				"z": -2.4532000529,
				"element": "H" 
			},
			{
				"x": -1.2104120665,
				"y": 0.8687714105,
				"z": -0.3271965747,
				"element": "H" 
			},
			{
				"x": -0.2232250015,
				"y": 0.2969663145,
				"z": 3.7335320269,
				"element": "H" 
			},
			{
				"x": 0.1270314202,
				"y": 1.470481737,
				"z": 2.4717756448,
				"element": "H" 
			},
			{
				"x": -0.6871253805,
				"y": 1.9957825609,
				"z": 3.9515415096,
				"element": "H" 
			},
			{
				"x": -2.9750323397,
				"y": 2.572366389,
				"z": 3.4988456305,
				"element": "H" 
			},
			{
				"x": -5.1704644824,
				"y": 2.0982757699,
				"z": 2.4920343583,
				"element": "H" 
			},
			{
				"x": -5.8875326706,
				"y": -0.881207065,
				"z": 0.5563725592,
				"element": "H" 
			},
			{
				"x": -6.5371075238,
				"y": 0.461219487,
				"z": 1.3124871557,
				"element": "H" 
			},
			{
				"x": -3.485461702,
				"y": -1.3670292104,
				"z": 0.5519245025,
				"element": "H" 
			},
			{
				"x": 2.3573030319,
				"y": -2.4636414594,
				"z": -0.6065883702,
				"element": "H" 
			},
			{
				"x": 2.2851495976,
				"y": -0.6695113775,
				"z": -2.3286724347,
				"element": "H" 
			}
		],
		 "valence_orbital": [ 
			{
				"type": "occ",
				"energy": -0.2675,
				"method": "rhf"
			},
			{
				"type": "occ",
				"energy": -0.25531,
				"method": "rhf"
			},
			{
				"type": "occ",
				"energy": -0.24073,
				"method": "rhf"
			},
			{
				"type": "occ",
				"energy": -0.2285,
				"method": "rhf"
			},
			{
				"type": "occ",
				"energy": -0.20048,
				"method": "rhf"
			},
			{
				"type": "unocc",
				"energy": -0.01348,
				"method": "rhf"
			},
			{
				"type": "unocc",
				"energy": 0.00291,
				"method": "rhf"
			},
			{
				"type": "unocc",
				"energy": 0.00708,
				"method": "rhf"
			},
			{
				"type": "unocc",
				"energy": 0.01745,
				"method": "rhf"
			},
			{
				"type": "unocc",
				"energy": 0.08008,
				"method": "rhf"
			}
		],
		"cosmo_sigma_profile": { 
			"-0.025": 0.0,
			"-0.024": 0.0,
			"-0.023": 0.0,
			"-0.022": 0.0,
			"-0.021": 0.0,
			"-0.02": 0.0,
			"-0.019": 0.0,
			"-0.018": 0.0,
			"-0.017": 0.0,
			"-0.016": 0.0,
			"-0.015": 0.0,
			"-0.014": 0.0,
			"-0.013": 0.352310989798,
			"-0.012": 2.51147416325,
			"-0.011": 2.89933448827,
			"-0.01": 2.50372160903,
			"-0.009": 3.14668188672,
			"-0.008": 3.77663022851,
			"-0.007": 3.4859970529,
			"-0.006": 9.39469732296,
			"-0.005": 16.9898408168,
			"-0.004": 20.9432629085,
			"-0.003": 22.4735058363,
			"-0.002": 19.4883469579,
			"-0.001": 24.8791259413,
			"0.0": 25.0256914846,
			"0.001": 18.2599778984,
			"0.002": 16.3417175649,
			"0.003": 19.2454824721,
			"0.004": 12.9732001961,
			"0.005": 11.0786063713,
			"0.006": 8.70071816179,
			"0.007": 3.31044350191,
			"0.008": 2.33151367538,
			"0.009": 3.47249986767,
			"0.01": 2.55956477997,
			"0.011": 2.52334789937,
			"0.012": 1.66400388137,
			"0.013": 3.0274125453,
			"0.014": 1.97171153528,
			"0.015": 1.0648471485,
			"0.016": 1.38955068099,
			"0.017": 0.388553877938,
			"0.018": 0.0,
			"0.019": 0.0,
			"0.02": 0.0,
			"0.021": 0.0,
			"0.022": 0.0,
			"0.023": 0.0,
			"0.024": 0.0,
			"0.025": 0.0
		}
	}
}
