{
	 "smiles": "CCOC(=O)C(C(=O)OCC)C1=C(F)C=C(F)C=C1F", 
	 "Tm": 320.65, 
	 "num_atms": 33, 
	 "gaussian": { 
		 "optdone": 1, 
		 "sigma_profile": "yes", 
		 "theory": "DFT", 
		 "functional": "B3LYP", 
		 "basiset": "6-31G**", 
		 "properties": { 
			 "R2extent": 6392.3267, 
			 "electric_dipole_moment_norm": 2.91323704837, 
			 "electric_quadrupole_moment_norm": 7.90363091813, 
			 "total_energy": -1103.64000507, 
			 "HOMO_LUMO_gap": 0.23441, 
			 "cosmo_polarized_energy": -12.03, 
			 "cosmo_cavitation_energy": 39.42, 
			 "cosmo_dispersion_energy": -25.92, 
			 "cosmo_repulsion_energy": 2.01, 
			 "cosmo_total_nonelectrostatic_energy": 15.52, 
			 "SMD_solvation_energy": 10.09 
		},
		"coords": [
			{
				"x": 0.2520083901,
				"y": -1.2383570038,
				"z": -3.7203526953,
				"element": "C" 
			},
			{
				"x": 0.9230720191,
				"y": -1.7316645147,
				"z": -2.4477228115,
				"element": "C" 
			},
			{
				"x": 1.0598402863,
				"y": -0.6631228969,
				"z": -1.4767548077,
				"element": "O" 
			},
			{
				"x": 0.0035238131,
				"y": -0.4468645177,
				"z": -0.6707416897,
				"element": "C" 
			},
			{
				"x": -1.0501938071,
				"y": -1.0378182177,
				"z": -0.7352463946,
				"element": "O" 
			},
			{
				"x": 0.3237253398,
				"y": 0.6694301637,
				"z": 0.331717403,
				"element": "C" 
			},
			{
				"x": 0.9728249675,
				"y": 0.133454558,
				"z": 1.621404796,
				"element": "C" 
			},
			{
				"x": 1.080659482,
				"y": 0.7894313895,
				"z": 2.6312148942,
				"element": "O" 
			},
			{
				"x": 1.4338605256,
				"y": -1.1177094209,
				"z": 1.461208125,
				"element": "O" 
			},
			{
				"x": 2.0977783494,
				"y": -1.716310756,
				"z": 2.6056848596,
				"element": "C" 
			},
			{
				"x": 3.5681933122,
				"y": -1.3325534625,
				"z": 2.652678986,
				"element": "C" 
			},
			{
				"x": -0.8881371171,
				"y": 1.5149456106,
				"z": 0.6367648464,
				"element": "C" 
			},
			{
				"x": -1.9262662909,
				"y": 1.069303085,
				"z": 1.4592825021,
				"element": "C" 
			},
			{
				"x": -1.8085938925,
				"y": -0.1418547178,
				"z": 2.028623568,
				"element": "F" 
			},
			{
				"x": -3.0603246153,
				"y": 1.8209583255,
				"z": 1.7355460491,
				"element": "C" 
			},
			{
				"x": -3.1509948042,
				"y": 3.0788241172,
				"z": 1.1496735537,
				"element": "C" 
			},
			{
				"x": -4.2388040528,
				"y": 3.8291169575,
				"z": 1.3965521063,
				"element": "F" 
			},
			{
				"x": -2.1604202609,
				"y": 3.5912204219,
				"z": 0.3209918343,
				"element": "C" 
			},
			{
				"x": -1.0510910826,
				"y": 2.7869163037,
				"z": 0.0877628056,
				"element": "C" 
			},
			{
				"x": -0.0782195685,
				"y": 3.2650520221,
				"z": -0.7162616438,
				"element": "F" 
			},
			{
				"x": 0.797446276,
				"y": -0.3907482611,
				"z": -4.1455459597,
				"element": "H" 
			},
			{
				"x": 0.2323081827,
				"y": -2.0420531518,
				"z": -4.4639488729,
				"element": "H" 
			},
			{
				"x": -0.7774915326,
				"y": -0.9331775824,
				"z": -3.5185427031,
				"element": "H" 
			},
			{
				"x": 0.3577757793,
				"y": -2.5480823928,
				"z": -1.9924067518,
				"element": "H" 
			},
			{
				"x": 1.9486807959,
				"y": -2.0584057788,
				"z": -2.6344328334,
				"element": "H" 
			},
			{
				"x": 1.0837874193,
				"y": 1.3091788583,
				"z": -0.1266563682,
				"element": "H" 
			},
			{
				"x": 1.5749302988,
				"y": -1.4043535425,
				"z": 3.5124190579,
				"element": "H" 
			},
			{
				"x": 1.9644833882,
				"y": -2.790206959,
				"z": 2.4586859223,
				"element": "H" 
			},
			{
				"x": 3.6809060608,
				"y": -0.2581839268,
				"z": 2.8167898352,
				"element": "H" 
			},
			{
				"x": 4.0604376317,
				"y": -1.8585249199,
				"z": 3.4773741279,
				"element": "H" 
			},
			{
				"x": 4.0728976677,
				"y": -1.6053681988,
				"z": 1.7213283109,
				"element": "H" 
			},
			{
				"x": -3.8401036924,
				"y": 1.4395644989,
				"z": 2.3820683123,
				"element": "H" 
			},
			{
				"x": -2.2451992688,
				"y": 4.5736639102,
				"z": -0.1251583643,
				"element": "H" 
			}
		],
		 "valence_orbital": [ 
			{
				"type": "occ",
				"energy": -0.30202,
				"method": "rhf"
			},
			{
				"type": "occ",
				"energy": -0.28808,
				"method": "rhf"
			},
			{
				"type": "occ",
				"energy": -0.27303,
				"method": "rhf"
			},
			{
				"type": "occ",
				"energy": -0.25722,
				"method": "rhf"
			},
			{
				"type": "occ",
				"energy": -0.2519,
				"method": "rhf"
			},
			{
				"type": "unocc",
				"energy": -0.01749,
				"method": "rhf"
			},
			{
				"type": "unocc",
				"energy": -0.01027,
				"method": "rhf"
			},
			{
				"type": "unocc",
				"energy": 0.00606,
				"method": "rhf"
			},
			{
				"type": "unocc",
				"energy": 0.00973,
				"method": "rhf"
			},
			{
				"type": "unocc",
				"energy": 0.0688,
				"method": "rhf"
			}
		],
		"cosmo_sigma_profile": { 
			"-0.025": 0.0,
			"-0.024": 0.0,
			"-0.023": 0.0,
			"-0.022": 0.0,
			"-0.021": 0.0,
			"-0.02": 0.0,
			"-0.019": 0.0,
			"-0.018": 0.0,
			"-0.017": 0.0,
			"-0.016": 0.0,
			"-0.015": 0.0,
			"-0.014": 0.0,
			"-0.013": 0.0,
			"-0.012": 0.0,
			"-0.011": 0.0,
			"-0.01": 0.408229625422,
			"-0.009": 3.41240587899,
			"-0.008": 4.60509691819,
			"-0.007": 3.71455572029,
			"-0.006": 10.7602821991,
			"-0.005": 16.6493602142,
			"-0.004": 28.7397317175,
			"-0.003": 27.5073625236,
			"-0.002": 26.0686271802,
			"-0.001": 33.9768517432,
			"0.0": 36.9045660418,
			"0.001": 20.3185476207,
			"0.002": 14.8161647548,
			"0.003": 26.6189981847,
			"0.004": 17.276018037,
			"0.005": 7.49558911736,
			"0.006": 6.05050073907,
			"0.007": 5.73085344324,
			"0.008": 4.50952443764,
			"0.009": 3.79521207731,
			"0.01": 5.16771749322,
			"0.011": 7.50543561278,
			"0.012": 1.18731549179,
			"0.013": 0.0,
			"0.014": 0.0,
			"0.015": 0.0,
			"0.016": 0.0,
			"0.017": 0.0,
			"0.018": 0.0,
			"0.019": 0.0,
			"0.02": 0.0,
			"0.021": 0.0,
			"0.022": 0.0,
			"0.023": 0.0,
			"0.024": 0.0,
			"0.025": 0.0
		}
	}
}
