{
	 "smiles": "NC1=CC=C(C=C1)S(=O)(=O)NC1=NC=CS1", 
	 "Tm": 474.15, 
	 "num_atms": 25, 
	 "gaussian": { 
		 "optdone": 1, 
		 "sigma_profile": "yes", 
		 "theory": "DFT", 
		 "functional": "B3LYP", 
		 "basiset": "6-31G**", 
		 "properties": { 
			 "R2extent": 4931.7204, 
			 "electric_dipole_moment_norm": 6.15531895356, 
			 "electric_quadrupole_moment_norm": 22.4029932348, 
			 "total_energy": -1459.37592133, 
			 "HOMO_LUMO_gap": 0.1945, 
			 "cosmo_polarized_energy": -21.54, 
			 "cosmo_cavitation_energy": 32.71, 
			 "cosmo_dispersion_energy": -24.71, 
			 "cosmo_repulsion_energy": 1.84, 
			 "cosmo_total_nonelectrostatic_energy": 9.84, 
			 "SMD_solvation_energy": 4.2 
		},
		"coords": [
			{
				"x": 1.8349862011,
				"y": -3.9762276978,
				"z": 2.4059456639,
				"element": "N" 
			},
			{
				"x": 1.0786405468,
				"y": -2.9377877157,
				"z": 1.8957489866,
				"element": "C" 
			},
			{
				"x": 0.7749079187,
				"y": -1.8140659835,
				"z": 2.6912688739,
				"element": "C" 
			},
			{
				"x": -0.0239442508,
				"y": -0.7938589393,
				"z": 2.1954763038,
				"element": "C" 
			},
			{
				"x": -0.5316418891,
				"y": -0.8837977018,
				"z": 0.8953747496,
				"element": "C" 
			},
			{
				"x": -0.2474644874,
				"y": -1.9920014945,
				"z": 0.0901183581,
				"element": "C" 
			},
			{
				"x": 0.5535802259,
				"y": -3.0083835115,
				"z": 0.5888406466,
				"element": "C" 
			},
			{
				"x": -1.5751060382,
				"y": 0.4111380449,
				"z": 0.2849754325,
				"element": "S" 
			},
			{
				"x": -2.0149151182,
				"y": 1.243785116,
				"z": 1.4086512077,
				"element": "O" 
			},
			{
				"x": -2.5183470023,
				"y": -0.1464119944,
				"z": -0.6791501171,
				"element": "O" 
			},
			{
				"x": -0.4936220718,
				"y": 1.4947764602,
				"z": -0.5313106346,
				"element": "N" 
			},
			{
				"x": -0.0899640149,
				"y": 1.3191539299,
				"z": -1.8455590988,
				"element": "C" 
			},
			{
				"x": 0.117936999,
				"y": 0.1644175525,
				"z": -2.403885434,
				"element": "N" 
			},
			{
				"x": 0.5368562977,
				"y": 0.3268104132,
				"z": -3.7072369374,
				"element": "C" 
			},
			{
				"x": 0.6685628491,
				"y": 1.6054339062,
				"z": -4.1523859265,
				"element": "C" 
			},
			{
				"x": 0.2173199817,
				"y": 2.7180066352,
				"z": -2.8856982574,
				"element": "S" 
			},
			{
				"x": 2.2606987329,
				"y": -4.6043975392,
				"z": 1.7408430702,
				"element": "H" 
			},
			{
				"x": 2.4175235023,
				"y": -3.7721373557,
				"z": 3.2041772229,
				"element": "H" 
			},
			{
				"x": 1.1628138893,
				"y": -1.7537284085,
				"z": 3.7045393673,
				"element": "H" 
			},
			{
				"x": -0.2694536865,
				"y": 0.0643933107,
				"z": 2.8110482037,
				"element": "H" 
			},
			{
				"x": -0.6394600226,
				"y": -2.0380828736,
				"z": -0.9185993654,
				"element": "H" 
			},
			{
				"x": 0.7760747759,
				"y": -3.8730076301,
				"z": -0.0306868814,
				"element": "H" 
			},
			{
				"x": -0.6739339559,
				"y": 2.4408695751,
				"z": -0.2144206077,
				"element": "H" 
			},
			{
				"x": 0.7480692003,
				"y": -0.5544820358,
				"z": -4.3014702492,
				"element": "H" 
			},
			{
				"x": 1.0024814167,
				"y": 1.9625859376,
				"z": -5.1153045774,
				"element": "H" 
			}
		],
		 "valence_orbital": [ 
			{
				"type": "occ",
				"energy": -0.28378,
				"method": "rhf"
			},
			{
				"type": "occ",
				"energy": -0.28055,
				"method": "rhf"
			},
			{
				"type": "occ",
				"energy": -0.26368,
				"method": "rhf"
			},
			{
				"type": "occ",
				"energy": -0.22846,
				"method": "rhf"
			},
			{
				"type": "occ",
				"energy": -0.21812,
				"method": "rhf"
			},
			{
				"type": "unocc",
				"energy": -0.02362,
				"method": "rhf"
			},
			{
				"type": "unocc",
				"energy": -0.01855,
				"method": "rhf"
			},
			{
				"type": "unocc",
				"energy": -0.01282,
				"method": "rhf"
			},
			{
				"type": "unocc",
				"energy": 0.00064,
				"method": "rhf"
			},
			{
				"type": "unocc",
				"energy": 0.04017,
				"method": "rhf"
			}
		],
		"cosmo_sigma_profile": { 
			"-0.025": 0.0,
			"-0.024": 0.0,
			"-0.023": 0.0,
			"-0.022": 0.0,
			"-0.021": 0.0,
			"-0.02": 0.0,
			"-0.019": 0.0,
			"-0.018": 0.0,
			"-0.017": 0.450907921796,
			"-0.016": 1.07193774758,
			"-0.015": 0.814520357915,
			"-0.014": 1.32324106791,
			"-0.013": 4.80377371785,
			"-0.012": 3.50757633671,
			"-0.011": 4.65010655424,
			"-0.01": 3.91551139225,
			"-0.009": 6.03989394771,
			"-0.008": 6.48581409228,
			"-0.007": 10.6252713322,
			"-0.006": 10.9116593607,
			"-0.005": 12.9269292103,
			"-0.004": 10.9724981637,
			"-0.003": 9.09626019158,
			"-0.002": 11.7145702594,
			"-0.001": 12.458309755,
			"0.0": 13.986688863,
			"0.001": 18.5721777756,
			"0.002": 19.31427592,
			"0.003": 24.1075642174,
			"0.004": 21.5756769371,
			"0.005": 8.11942321959,
			"0.006": 7.74547418375,
			"0.007": 6.53104314877,
			"0.008": 6.51638581348,
			"0.009": 6.35310125285,
			"0.01": 10.724773893,
			"0.011": 8.57508423537,
			"0.012": 0.562009679936,
			"0.013": 0.0,
			"0.014": 0.0,
			"0.015": 0.0,
			"0.016": 0.0,
			"0.017": 0.0,
			"0.018": 0.0,
			"0.019": 0.0,
			"0.02": 0.0,
			"0.021": 0.0,
			"0.022": 0.0,
			"0.023": 0.0,
			"0.024": 0.0,
			"0.025": 0.0
		}
	}
}
