{
	 "smiles": "CCOC(=O)C(=CC1=CC=C(O1)C1=CC=C(Cl)C=C1)C#N", 
	 "Tm": 413.15, 
	 "num_atms": 33, 
	 "gaussian": { 
		 "optdone": 1, 
		 "sigma_profile": "yes", 
		 "theory": "DFT", 
		 "functional": "B3LYP", 
		 "basiset": "6-31G**", 
		 "properties": { 
			 "R2extent": 8810.9682, 
			 "electric_dipole_moment_norm": 7.25483066515, 
			 "electric_quadrupole_moment_norm": 36.5443893122, 
			 "total_energy": -1357.51327907, 
			 "HOMO_LUMO_gap": 0.12594, 
			 "cosmo_polarized_energy": -15.89, 
			 "cosmo_cavitation_energy": 41.98, 
			 "cosmo_dispersion_energy": -27.76, 
			 "cosmo_repulsion_energy": 2.12, 
			 "cosmo_total_nonelectrostatic_energy": 16.35, 
			 "SMD_solvation_energy": 9.45 
		},
		"coords": [
			{
				"x": 3.5107129439,
				"y": -0.8236345058,
				"z": 0.9686300637,
				"element": "C" 
			},
			{
				"x": 3.8438872502,
				"y": -0.5041307814,
				"z": -0.4796005239,
				"element": "C" 
			},
			{
				"x": 2.7398869662,
				"y": -0.7893175498,
				"z": -1.3783537048,
				"element": "O" 
			},
			{
				"x": 2.6290622675,
				"y": -2.0656060789,
				"z": -1.7883584782,
				"element": "C" 
			},
			{
				"x": 3.3444989054,
				"y": -2.9739796958,
				"z": -1.4188108766,
				"element": "O" 
			},
			{
				"x": 1.588773059,
				"y": -2.2358629537,
				"z": -2.8542858846,
				"element": "C" 
			},
			{
				"x": 0.4342522793,
				"y": -1.5333202351,
				"z": -3.0547398835,
				"element": "C" 
			},
			{
				"x": -0.2634011641,
				"y": -0.5718978402,
				"z": -2.2633668024,
				"element": "C" 
			},
			{
				"x": -1.311744362,
				"y": 0.2494595129,
				"z": -2.6363446895,
				"element": "C" 
			},
			{
				"x": -1.6907077841,
				"y": 0.9826937252,
				"z": -1.4907043949,
				"element": "C" 
			},
			{
				"x": -0.8735948278,
				"y": 0.5547888453,
				"z": -0.4637747657,
				"element": "C" 
			},
			{
				"x": -0.0020712378,
				"y": -0.3823663105,
				"z": -0.9317649692,
				"element": "O" 
			},
			{
				"x": -0.826829311,
				"y": 0.8749101242,
				"z": 0.9549701553,
				"element": "C" 
			},
			{
				"x": -1.4482163347,
				"y": 2.0388642747,
				"z": 1.4419937143,
				"element": "C" 
			},
			{
				"x": -1.4305100986,
				"y": 2.343547467,
				"z": 2.7987754341,
				"element": "C" 
			},
			{
				"x": -0.7826408778,
				"y": 1.4806032648,
				"z": 3.6848526126,
				"element": "C" 
			},
			{
				"x": -0.7539994516,
				"y": 1.8623273671,
				"z": 5.3957840957,
				"element": "Cl" 
			},
			{
				"x": -0.157608474,
				"y": 0.319760175,
				"z": 3.2273751564,
				"element": "C" 
			},
			{
				"x": -0.1832952219,
				"y": 0.020813288,
				"z": 1.8683553967,
				"element": "C" 
			},
			{
				"x": 1.9014530817,
				"y": -3.2640781432,
				"z": -3.8016142611,
				"element": "C" 
			},
			{
				"x": 2.1321336618,
				"y": -4.085680516,
				"z": -4.5933116819,
				"element": "N" 
			},
			{
				"x": 2.6349270423,
				"y": -0.2615747623,
				"z": 1.3025714835,
				"element": "H" 
			},
			{
				"x": 3.324549068,
				"y": -1.8929076496,
				"z": 1.0934319698,
				"element": "H" 
			},
			{
				"x": 4.3572044144,
				"y": -0.5471278456,
				"z": 1.6062496961,
				"element": "H" 
			},
			{
				"x": 4.7153277515,
				"y": -1.0717006045,
				"z": -0.8149313656,
				"element": "H" 
			},
			{
				"x": 4.0281395626,
				"y": 0.5629942275,
				"z": -0.6220813115,
				"element": "H" 
			},
			{
				"x": -0.0969742998,
				"y": -1.7622049958,
				"z": -3.9759672109,
				"element": "H" 
			},
			{
				"x": -1.7454828255,
				"y": 0.305652313,
				"z": -3.6248787413,
				"element": "H" 
			},
			{
				"x": -2.4887001662,
				"y": 1.7061375446,
				"z": -1.4142043442,
				"element": "H" 
			},
			{
				"x": -1.9360990092,
				"y": 2.721463646,
				"z": 0.7534002118,
				"element": "H" 
			},
			{
				"x": -1.9067389693,
				"y": 3.2445855352,
				"z": 3.168638859,
				"element": "H" 
			},
			{
				"x": 0.3354679473,
				"y": -0.3441955326,
				"z": 3.9285441902,
				"element": "H" 
			},
			{
				"x": 0.2863382144,
				"y": -0.8877153095,
				"z": 1.5091208506,
				"element": "H" 
			}
		],
		 "valence_orbital": [ 
			{
				"type": "occ",
				"energy": -0.30419,
				"method": "rhf"
			},
			{
				"type": "occ",
				"energy": -0.28416,
				"method": "rhf"
			},
			{
				"type": "occ",
				"energy": -0.28347,
				"method": "rhf"
			},
			{
				"type": "occ",
				"energy": -0.27321,
				"method": "rhf"
			},
			{
				"type": "occ",
				"energy": -0.2233,
				"method": "rhf"
			},
			{
				"type": "unocc",
				"energy": -0.09736,
				"method": "rhf"
			},
			{
				"type": "unocc",
				"energy": -0.04418,
				"method": "rhf"
			},
			{
				"type": "unocc",
				"energy": -0.03284,
				"method": "rhf"
			},
			{
				"type": "unocc",
				"energy": 0.01063,
				"method": "rhf"
			},
			{
				"type": "unocc",
				"energy": 0.01624,
				"method": "rhf"
			}
		],
		"cosmo_sigma_profile": { 
			"-0.025": 0.0,
			"-0.024": 0.0,
			"-0.023": 0.0,
			"-0.022": 0.0,
			"-0.021": 0.0,
			"-0.02": 0.0,
			"-0.019": 0.0,
			"-0.018": 0.0,
			"-0.017": 0.0,
			"-0.016": 0.0,
			"-0.015": 0.0,
			"-0.014": 0.145858389465,
			"-0.013": 0.0748809275353,
			"-0.012": 0.00834381209607,
			"-0.011": 0.509044852982,
			"-0.01": 3.43547287212,
			"-0.009": 4.90707337321,
			"-0.008": 6.00599431664,
			"-0.007": 9.61799125801,
			"-0.006": 13.1447181181,
			"-0.005": 16.2852987846,
			"-0.004": 21.459903118,
			"-0.003": 23.7825512755,
			"-0.002": 28.502289111,
			"-0.001": 37.4618551479,
			"0.0": 36.2684467624,
			"0.001": 33.1676720874,
			"0.002": 26.7687119637,
			"0.003": 13.1246421613,
			"0.004": 16.1600971331,
			"0.005": 7.75932123307,
			"0.006": 5.6369492751,
			"0.007": 6.34416773139,
			"0.008": 5.82604710248,
			"0.009": 5.45447341416,
			"0.01": 5.64331466181,
			"0.011": 7.04176735123,
			"0.012": 4.09576514371,
			"0.013": 1.68691094892,
			"0.014": 0.148642093104,
			"0.015": 0.0,
			"0.016": 0.0,
			"0.017": 0.0,
			"0.018": 0.0,
			"0.019": 0.0,
			"0.02": 0.0,
			"0.021": 0.0,
			"0.022": 0.0,
			"0.023": 0.0,
			"0.024": 0.0,
			"0.025": 0.0
		}
	}
}
