{
	 "smiles": "COC1=CC2=C(C=C1)C1CCC3(C)C(O)C(O)CC3C1CC2", 
	 "Tm": 432.15, 
	 "num_atms": 48, 
	 "gaussian": { 
		 "optdone": 1, 
		 "sigma_profile": "yes", 
		 "theory": "DFT", 
		 "functional": "B3LYP", 
		 "basiset": "6-31G**", 
		 "properties": { 
			 "R2extent": 8454.3221, 
			 "electric_dipole_moment_norm": 2.42405650305, 
			 "electric_quadrupole_moment_norm": 14.8263972252, 
			 "total_energy": -965.357944664, 
			 "HOMO_LUMO_gap": 0.20865, 
			 "cosmo_polarized_energy": -13.11, 
			 "cosmo_cavitation_energy": 43.29, 
			 "cosmo_dispersion_energy": -31.22, 
			 "cosmo_repulsion_energy": 2.33, 
			 "cosmo_total_nonelectrostatic_energy": 14.41, 
			 "SMD_solvation_energy": 6.74 
		},
		"coords": [
			{
				"x": -2.983190366,
				"y": 5.3709013038,
				"z": -2.8286981956,
				"element": "C" 
			},
			{
				"x": -3.2894152353,
				"y": 4.1601691428,
				"z": -2.1598841033,
				"element": "O" 
			},
			{
				"x": -2.2554211882,
				"y": 3.3203375137,
				"z": -1.8454553006,
				"element": "C" 
			},
			{
				"x": -2.6068387208,
				"y": 2.131676686,
				"z": -1.2003571209,
				"element": "C" 
			},
			{
				"x": -1.6449940503,
				"y": 1.1915036937,
				"z": -0.8255256006,
				"element": "C" 
			},
			{
				"x": -0.2797249979,
				"y": 1.4377604263,
				"z": -1.0863391643,
				"element": "C" 
			},
			{
				"x": 0.048600385,
				"y": 2.6277795589,
				"z": -1.7491728324,
				"element": "C" 
			},
			{
				"x": -0.9088595244,
				"y": 3.5686909794,
				"z": -2.1304834885,
				"element": "C" 
			},
			{
				"x": 0.8196691185,
				"y": 0.4274875078,
				"z": -0.7385111696,
				"element": "C" 
			},
			{
				"x": 2.1397523305,
				"y": 1.1094337273,
				"z": -0.2593710997,
				"element": "C" 
			},
			{
				"x": 2.7760895887,
				"y": 0.4038875223,
				"z": 0.943477475,
				"element": "C" 
			},
			{
				"x": 1.8129923002,
				"y": 0.3552647639,
				"z": 2.1516019088,
				"element": "C" 
			},
			{
				"x": 1.6372035087,
				"y": 1.765607031,
				"z": 2.748120063,
				"element": "C" 
			},
			{
				"x": 2.3430185701,
				"y": -0.5992948456,
				"z": 3.2716390811,
				"element": "C" 
			},
			{
				"x": 3.7577648525,
				"y": -0.8030045781,
				"z": 3.1678741693,
				"element": "O" 
			},
			{
				"x": 1.567951475,
				"y": -1.9183488033,
				"z": 3.1225122362,
				"element": "C" 
			},
			{
				"x": 2.1519223061,
				"y": -2.7102364743,
				"z": 2.0958160253,
				"element": "O" 
			},
			{
				"x": 0.1801926771,
				"y": -1.4478904309,
				"z": 2.7011191861,
				"element": "C" 
			},
			{
				"x": 0.4137549761,
				"y": -0.2553072354,
				"z": 1.7303719553,
				"element": "C" 
			},
			{
				"x": 0.3561577495,
				"y": -0.6840423686,
				"z": 0.2418819959,
				"element": "C" 
			},
			{
				"x": -1.0324746835,
				"y": -1.1838914263,
				"z": -0.1969450049,
				"element": "C" 
			},
			{
				"x": -2.0947762847,
				"y": -0.0830926214,
				"z": -0.1383546346,
				"element": "C" 
			},
			{
				"x": -3.9352949393,
				"y": 5.8821923204,
				"z": -2.981664372,
				"element": "H" 
			},
			{
				"x": -2.3233517812,
				"y": 6.0123286694,
				"z": -2.229332936,
				"element": "H" 
			},
			{
				"x": -2.5118716863,
				"y": 5.190108202,
				"z": -3.803971654,
				"element": "H" 
			},
			{
				"x": -3.6593786329,
				"y": 1.9496287461,
				"z": -1.0003871793,
				"element": "H" 
			},
			{
				"x": 1.0879992598,
				"y": 2.834416631,
				"z": -1.9884067355,
				"element": "H" 
			},
			{
				"x": -0.5968040781,
				"y": 4.4718192766,
				"z": -2.6417496448,
				"element": "H" 
			},
			{
				"x": 1.0531257824,
				"y": -0.0998337448,
				"z": -1.6754925455,
				"element": "H" 
			},
			{
				"x": 1.9398685667,
				"y": 2.152153023,
				"z": 0.0051726949,
				"element": "H" 
			},
			{
				"x": 2.8653501099,
				"y": 1.1448615467,
				"z": -1.0798998499,
				"element": "H" 
			},
			{
				"x": 3.6982816244,
				"y": 0.9178975345,
				"z": 1.2335119056,
				"element": "H" 
			},
			{
				"x": 3.0694923542,
				"y": -0.6125703663,
				"z": 0.6665692925,
				"element": "H" 
			},
			{
				"x": 1.2444769072,
				"y": 2.4765743375,
				"z": 2.0157617437,
				"element": "H" 
			},
			{
				"x": 0.9351301467,
				"y": 1.7475527855,
				"z": 3.5901354173,
				"element": "H" 
			},
			{
				"x": 2.5942065647,
				"y": 2.1533638408,
				"z": 3.1172536636,
				"element": "H" 
			},
			{
				"x": 2.1056741779,
				"y": -0.1617181984,
				"z": 4.2519008303,
				"element": "H" 
			},
			{
				"x": 4.08149732,
				"y": -1.0866304201,
				"z": 4.0322662138,
				"element": "H" 
			},
			{
				"x": 1.544220544,
				"y": -2.4861409968,
				"z": 4.0685669098,
				"element": "H" 
			},
			{
				"x": 3.10502745,
				"y": -2.5311166474,
				"z": 2.1511453752,
				"element": "H" 
			},
			{
				"x": -0.3650317858,
				"y": -1.116408771,
				"z": 3.5936805407,
				"element": "H" 
			},
			{
				"x": -0.3942917814,
				"y": -2.2669706547,
				"z": 2.261304582,
				"element": "H" 
			},
			{
				"x": -0.3564566668,
				"y": 0.5062094154,
				"z": 1.8969331667,
				"element": "H" 
			},
			{
				"x": 1.0506653917,
				"y": -1.5235685055,
				"z": 0.1343891122,
				"element": "H" 
			},
			{
				"x": -1.3517421855,
				"y": -2.0423706109,
				"z": 0.4032563418,
				"element": "H" 
			},
			{
				"x": -0.9515221098,
				"y": -1.5485171802,
				"z": -1.2296309966,
				"element": "H" 
			},
			{
				"x": -2.3474885047,
				"y": 0.1376866391,
				"z": 0.9084466533,
				"element": "H" 
			},
			{
				"x": -3.0269568347,
				"y": -0.4347379448,
				"z": -0.5964749108,
				"element": "H" 
			}
		],
		 "valence_orbital": [ 
			{
				"type": "occ",
				"energy": -0.2754,
				"method": "rhf"
			},
			{
				"type": "occ",
				"energy": -0.27151,
				"method": "rhf"
			},
			{
				"type": "occ",
				"energy": -0.25194,
				"method": "rhf"
			},
			{
				"type": "occ",
				"energy": -0.23019,
				"method": "rhf"
			},
			{
				"type": "occ",
				"energy": -0.20193,
				"method": "rhf"
			},
			{
				"type": "unocc",
				"energy": 0.00672,
				"method": "rhf"
			},
			{
				"type": "unocc",
				"energy": 0.02437,
				"method": "rhf"
			},
			{
				"type": "unocc",
				"energy": 0.05352,
				"method": "rhf"
			},
			{
				"type": "unocc",
				"energy": 0.08695,
				"method": "rhf"
			},
			{
				"type": "unocc",
				"energy": 0.09683,
				"method": "rhf"
			}
		],
		"cosmo_sigma_profile": { 
			"-0.025": 0.0,
			"-0.024": 0.0,
			"-0.023": 0.0,
			"-0.022": 0.0,
			"-0.021": 0.0,
			"-0.02": 0.0,
			"-0.019": 0.0,
			"-0.018": 0.0,
			"-0.017": 0.0243029334146,
			"-0.016": 0.955348531212,
			"-0.015": 0.973362537452,
			"-0.014": 0.71790074388,
			"-0.013": 1.49217043602,
			"-0.012": 0.837770576408,
			"-0.011": 0.675623137277,
			"-0.01": 0.949266141437,
			"-0.009": 1.83933886571,
			"-0.008": 2.02294422787,
			"-0.007": 2.02878675433,
			"-0.006": 4.11070699918,
			"-0.005": 13.3062989266,
			"-0.004": 22.0460126369,
			"-0.003": 34.6063466962,
			"-0.002": 42.0991279869,
			"-0.001": 44.6790543093,
			"0.0": 41.356216562,
			"0.001": 29.9074747933,
			"0.002": 16.7707066031,
			"0.003": 10.2328002141,
			"0.004": 10.6019401955,
			"0.005": 11.4519465927,
			"0.006": 11.6969833166,
			"0.007": 8.7860159851,
			"0.008": 3.92467257748,
			"0.009": 3.9983577313,
			"0.01": 3.81663880807,
			"0.011": 3.21582412003,
			"0.012": 2.42303319153,
			"0.013": 1.1796529164,
			"0.014": 1.15820648838,
			"0.015": 1.10192722962,
			"0.016": 0.03835204561,
			"0.017": 0.0,
			"0.018": 0.0,
			"0.019": 0.0,
			"0.02": 0.0,
			"0.021": 0.0,
			"0.022": 0.0,
			"0.023": 0.0,
			"0.024": 0.0,
			"0.025": 0.0
		}
	}
}
