{
	 "smiles": "CC(C)C(=O)NN", 
	 "Tm": 371.65, 
	 "num_atms": 17, 
	 "gaussian": { 
		 "optdone": 1, 
		 "sigma_profile": "yes", 
		 "theory": "DFT", 
		 "functional": "B3LYP", 
		 "basiset": "6-31G**", 
		 "properties": { 
			 "R2extent": 1193.9566, 
			 "electric_dipole_moment_norm": 3.40546115673, 
			 "electric_quadrupole_moment_norm": 5.39394119267, 
			 "total_energy": -343.164570425, 
			 "HOMO_LUMO_gap": 0.26492, 
			 "cosmo_polarized_energy": -13.06, 
			 "cosmo_cavitation_energy": 19.85, 
			 "cosmo_dispersion_energy": -14.36, 
			 "cosmo_repulsion_energy": 1.24, 
			 "cosmo_total_nonelectrostatic_energy": 6.73, 
			 "SMD_solvation_energy": 4.78 
		},
		"coords": [
			{
				"x": 1.0187567358,
				"y": -1.2908636553,
				"z": -0.7874937877,
				"element": "C" 
			},
			{
				"x": -0.311574827,
				"y": -1.0629806798,
				"z": -1.5346833065,
				"element": "C" 
			},
			{
				"x": -0.0742903138,
				"y": -0.7596599654,
				"z": -3.0185042864,
				"element": "C" 
			},
			{
				"x": -1.050293041,
				"y": 0.1064607406,
				"z": -0.8766958575,
				"element": "C" 
			},
			{
				"x": -0.8453471405,
				"y": 1.2727851516,
				"z": -1.1893300282,
				"element": "O" 
			},
			{
				"x": -1.9471210424,
				"y": -0.189152677,
				"z": 0.1238292909,
				"element": "N" 
			},
			{
				"x": -2.2806614005,
				"y": -1.4387457765,
				"z": 0.6656310962,
				"element": "N" 
			},
			{
				"x": 1.6336661936,
				"y": -0.3866977526,
				"z": -0.8316950694,
				"element": "H" 
			},
			{
				"x": 0.8627599353,
				"y": -1.5365250806,
				"z": 0.2691276657,
				"element": "H" 
			},
			{
				"x": 1.5799837144,
				"y": -2.1121602208,
				"z": -1.2442762212,
				"element": "H" 
			},
			{
				"x": -0.9169548439,
				"y": -1.9728775834,
				"z": -1.4451326987,
				"element": "H" 
			},
			{
				"x": 0.4647876001,
				"y": 0.1844102937,
				"z": -3.1265258216,
				"element": "H" 
			},
			{
				"x": 0.5099534936,
				"y": -1.5596211616,
				"z": -3.4844784469,
				"element": "H" 
			},
			{
				"x": -1.0195524045,
				"y": -0.6657093032,
				"z": -3.5619530832,
				"element": "H" 
			},
			{
				"x": -2.3778202797,
				"y": 0.6088448896,
				"z": 0.5727900108,
				"element": "H" 
			},
			{
				"x": -2.7278530375,
				"y": -2.0250656649,
				"z": -0.0341708522,
				"element": "H" 
			},
			{
				"x": -1.452339342,
				"y": -1.9144415545,
				"z": 1.0134613958,
				"element": "H" 
			}
		],
		 "valence_orbital": [ 
			{
				"type": "occ",
				"energy": -0.34408,
				"method": "rhf"
			},
			{
				"type": "occ",
				"energy": -0.33901,
				"method": "rhf"
			},
			{
				"type": "occ",
				"energy": -0.28911,
				"method": "rhf"
			},
			{
				"type": "occ",
				"energy": -0.25433,
				"method": "rhf"
			},
			{
				"type": "occ",
				"energy": -0.2396,
				"method": "rhf"
			},
			{
				"type": "unocc",
				"energy": 0.02532,
				"method": "rhf"
			},
			{
				"type": "unocc",
				"energy": 0.05378,
				"method": "rhf"
			},
			{
				"type": "unocc",
				"energy": 0.10388,
				"method": "rhf"
			},
			{
				"type": "unocc",
				"energy": 0.11103,
				"method": "rhf"
			},
			{
				"type": "unocc",
				"energy": 0.11725,
				"method": "rhf"
			}
		],
		"cosmo_sigma_profile": { 
			"-0.025": 0.0,
			"-0.024": 0.0,
			"-0.023": 0.0,
			"-0.022": 0.0,
			"-0.021": 0.0,
			"-0.02": 0.0,
			"-0.019": 0.0,
			"-0.018": 0.0,
			"-0.017": 0.0,
			"-0.016": 0.0,
			"-0.015": 0.0,
			"-0.014": 0.00736923019094,
			"-0.013": 0.809260607073,
			"-0.012": 1.17297576319,
			"-0.011": 3.89230524399,
			"-0.01": 4.33552833882,
			"-0.009": 4.56183760128,
			"-0.008": 4.61718638936,
			"-0.007": 3.79228475198,
			"-0.006": 3.75303845532,
			"-0.005": 3.76350837963,
			"-0.004": 5.59400081094,
			"-0.003": 14.3757486226,
			"-0.002": 15.389171452,
			"-0.001": 14.338282138,
			"0.0": 16.6486748179,
			"0.001": 15.0970485777,
			"0.002": 5.79009427376,
			"0.003": 3.5503416372,
			"0.004": 2.81229921375,
			"0.005": 1.97412038639,
			"0.006": 2.27370375864,
			"0.007": 2.3115696429,
			"0.008": 2.23223478905,
			"0.009": 1.95795939287,
			"0.01": 2.10363371038,
			"0.011": 1.85400259391,
			"0.012": 2.40617106642,
			"0.013": 2.95992449246,
			"0.014": 6.4155929868,
			"0.015": 2.50891436845,
			"0.016": 0.337480929145,
			"0.017": 0.0,
			"0.018": 0.0,
			"0.019": 0.0,
			"0.02": 0.0,
			"0.021": 0.0,
			"0.022": 0.0,
			"0.023": 0.0,
			"0.024": 0.0,
			"0.025": 0.0
		}
	}
}
