{
	 "smiles": "[O-][N+](=O)C1=C(Cl)C=CC(=C1)C(=O)CBr", 
	 "Tm": 357.15, 
	 "num_atms": 19, 
	 "gaussian": { 
		 "optdone": 1, 
		 "sigma_profile": "yes", 
		 "theory": "DFT", 
		 "functional": "B3LYP", 
		 "basiset": "6-31G**", 
		 "properties": { 
			 "R2extent": 5453.9192, 
			 "electric_dipole_moment_norm": 2.80284208795, 
			 "electric_quadrupole_moment_norm": 16.1652153156, 
			 "total_energy": -3619.76601374, 
			 "HOMO_LUMO_gap": 0.1729, 
			 "cosmo_polarized_energy": -12.16, 
			 "cosmo_cavitation_energy": 28.9, 
			 "cosmo_dispersion_energy": -21.05, 
			 "cosmo_repulsion_energy": 1.67, 
			 "cosmo_total_nonelectrostatic_energy": 9.52, 
			 "SMD_solvation_energy": 6.4 
		},
		"coords": [
			{
				"x": -2.9609109764,
				"y": 1.9633437261,
				"z": 0.6611788635,
				"element": "O" 
			},
			{
				"x": -2.7377685239,
				"y": 0.9294420839,
				"z": 1.290812895,
				"element": "N" 
			},
			{
				"x": -3.4883295159,
				"y": 0.4265804877,
				"z": 2.1183826771,
				"element": "O" 
			},
			{
				"x": -1.4730551803,
				"y": 0.2336296101,
				"z": 0.9843701382,
				"element": "C" 
			},
			{
				"x": -0.7635399368,
				"y": -0.5261826207,
				"z": 1.9282111167,
				"element": "C" 
			},
			{
				"x": -1.2271539252,
				"y": -0.6715856887,
				"z": 3.5952906693,
				"element": "Cl" 
			},
			{
				"x": 0.4178071063,
				"y": -1.1623847056,
				"z": 1.5257232447,
				"element": "C" 
			},
			{
				"x": 0.8697368403,
				"y": -1.0525681361,
				"z": 0.2188464518,
				"element": "C" 
			},
			{
				"x": 0.1644999033,
				"y": -0.2867978446,
				"z": -0.7231760472,
				"element": "C" 
			},
			{
				"x": -1.0057654721,
				"y": 0.3602574249,
				"z": -0.3230969669,
				"element": "C" 
			},
			{
				"x": 0.7303312443,
				"y": -0.179727901,
				"z": -2.1049461678,
				"element": "C" 
			},
			{
				"x": 1.7741785228,
				"y": -0.7371996712,
				"z": -2.3979045851,
				"element": "O" 
			},
			{
				"x": 0.0220454522,
				"y": 0.6666243315,
				"z": -3.1544184697,
				"element": "C" 
			},
			{
				"x": -1.6292205794,
				"y": -0.228846756,
				"z": -3.7736433218,
				"element": "Br" 
			},
			{
				"x": 0.9737480525,
				"y": -1.7379221787,
				"z": 2.256987173,
				"element": "H" 
			},
			{
				"x": 1.7815436412,
				"y": -1.5482327943,
				"z": -0.0960467527,
				"element": "H" 
			},
			{
				"x": -1.5949524416,
				"y": 0.959067985,
				"z": -1.0053575043,
				"element": "H" 
			},
			{
				"x": 0.6688768927,
				"y": 0.7574408143,
				"z": -4.023193368,
				"element": "H" 
			},
			{
				"x": -0.2807711039,
				"y": 1.6470618333,
				"z": -2.7866200457,
				"element": "H" 
			}
		],
		 "valence_orbital": [ 
			{
				"type": "occ",
				"energy": -0.30822,
				"method": "rhf"
			},
			{
				"type": "occ",
				"energy": -0.29945,
				"method": "rhf"
			},
			{
				"type": "occ",
				"energy": -0.29281,
				"method": "rhf"
			},
			{
				"type": "occ",
				"energy": -0.28382,
				"method": "rhf"
			},
			{
				"type": "occ",
				"energy": -0.27907,
				"method": "rhf"
			},
			{
				"type": "unocc",
				"energy": -0.10617,
				"method": "rhf"
			},
			{
				"type": "unocc",
				"energy": -0.09347,
				"method": "rhf"
			},
			{
				"type": "unocc",
				"energy": -0.04123,
				"method": "rhf"
			},
			{
				"type": "unocc",
				"energy": -0.02701,
				"method": "rhf"
			},
			{
				"type": "unocc",
				"energy": -0.00018,
				"method": "rhf"
			}
		],
		"cosmo_sigma_profile": { 
			"-0.025": 0.0,
			"-0.024": 0.0,
			"-0.023": 0.0,
			"-0.022": 0.0,
			"-0.021": 0.0,
			"-0.02": 0.0,
			"-0.019": 0.0,
			"-0.018": 0.0,
			"-0.017": 0.0,
			"-0.016": 0.0,
			"-0.015": 0.0,
			"-0.014": 0.0,
			"-0.013": 0.0,
			"-0.012": 0.121803470654,
			"-0.011": 1.22542779412,
			"-0.01": 3.39409637174,
			"-0.009": 5.16146440451,
			"-0.008": 8.94504625219,
			"-0.007": 9.05521639407,
			"-0.006": 10.4756048715,
			"-0.005": 9.53227491912,
			"-0.004": 9.06802302872,
			"-0.003": 16.2031173651,
			"-0.002": 22.132922828,
			"-0.001": 22.0804518811,
			"0.0": 16.3441423607,
			"0.001": 12.3531756021,
			"0.002": 16.0015305562,
			"0.003": 14.7803834775,
			"0.004": 12.8651918442,
			"0.005": 9.77245309433,
			"0.006": 6.84849925448,
			"0.007": 12.7589329376,
			"0.008": 7.9370866271,
			"0.009": 5.49561296464,
			"0.01": 3.84431174977,
			"0.011": 1.55154148353,
			"0.012": 0.101979720127,
			"0.013": 0.0,
			"0.014": 0.0,
			"0.015": 0.0,
			"0.016": 0.0,
			"0.017": 0.0,
			"0.018": 0.0,
			"0.019": 0.0,
			"0.02": 0.0,
			"0.021": 0.0,
			"0.022": 0.0,
			"0.023": 0.0,
			"0.024": 0.0,
			"0.025": 0.0
		}
	}
}
