{
	 "smiles": "FC(F)(F)C1=NN(C(=O)C1=NNC1=CC=NC=C1)C1=CC=CC=C1", 
	 "Tm": 450.15, 
	 "num_atms": 34, 
	 "gaussian": { 
		 "optdone": 1, 
		 "sigma_profile": "yes", 
		 "theory": "DFT", 
		 "functional": "B3LYP", 
		 "basiset": "6-31G**", 
		 "properties": { 
			 "R2extent": 10938.402, 
			 "electric_dipole_moment_norm": 2.22617066956, 
			 "electric_quadrupole_moment_norm": 3.16631323782, 
			 "total_energy": -1226.07489482, 
			 "HOMO_LUMO_gap": 0.11516, 
			 "cosmo_polarized_energy": -12.21, 
			 "cosmo_cavitation_energy": 41.82, 
			 "cosmo_dispersion_energy": -29.52, 
			 "cosmo_repulsion_energy": 2.14, 
			 "cosmo_total_nonelectrostatic_energy": 14.44, 
			 "SMD_solvation_energy": 6.11 
		},
		"coords": [
			{
				"x": -0.1007054561,
				"y": -2.2416033063,
				"z": 3.7226743803,
				"element": "F" 
			},
			{
				"x": 0.8268950166,
				"y": -1.2611747127,
				"z": 3.7400752395,
				"element": "C" 
			},
			{
				"x": 0.769943738,
				"y": -0.6498768183,
				"z": 4.9302705725,
				"element": "F" 
			},
			{
				"x": 2.0349610579,
				"y": -1.8522258523,
				"z": 3.6249489015,
				"element": "F" 
			},
			{
				"x": 0.6002757543,
				"y": -0.3022238117,
				"z": 2.6078408257,
				"element": "C" 
			},
			{
				"x": 0.3841572852,
				"y": 0.9610908707,
				"z": 2.8243177201,
				"element": "N" 
			},
			{
				"x": 0.214555458,
				"y": 1.5820973388,
				"z": 1.5945654459,
				"element": "N" 
			},
			{
				"x": 0.3256002938,
				"y": 0.6839906529,
				"z": 0.540761644,
				"element": "C" 
			},
			{
				"x": 0.2306601798,
				"y": 0.8915921905,
				"z": -0.6768455092,
				"element": "O" 
			},
			{
				"x": 0.5880407597,
				"y": -0.6058179586,
				"z": 1.2003342368,
				"element": "C" 
			},
			{
				"x": 0.7696030099,
				"y": -1.7719792771,
				"z": 0.629435359,
				"element": "N" 
			},
			{
				"x": 0.7154187247,
				"y": -1.8170757922,
				"z": -0.6802071258,
				"element": "N" 
			},
			{
				"x": 0.8976322987,
				"y": -3.0185754746,
				"z": -1.3739453582,
				"element": "C" 
			},
			{
				"x": 0.8288960324,
				"y": -3.0036146342,
				"z": -2.7716467658,
				"element": "C" 
			},
			{
				"x": 1.0122208198,
				"y": -4.2071872871,
				"z": -3.4492329927,
				"element": "C" 
			},
			{
				"x": 1.2502342206,
				"y": -5.3785457541,
				"z": -2.8471958793,
				"element": "N" 
			},
			{
				"x": 1.3114017502,
				"y": -5.3665020701,
				"z": -1.5074167683,
				"element": "C" 
			},
			{
				"x": 1.1454549382,
				"y": -4.2308871139,
				"z": -0.7198804116,
				"element": "C" 
			},
			{
				"x": -0.0383624597,
				"y": 2.9836824588,
				"z": 1.5606230806,
				"element": "C" 
			},
			{
				"x": -0.1097503975,
				"y": 3.6921978845,
				"z": 2.7673669302,
				"element": "C" 
			},
			{
				"x": -0.3566495561,
				"y": 5.0628932375,
				"z": 2.7432540376,
				"element": "C" 
			},
			{
				"x": -0.5329669759,
				"y": 5.7344792576,
				"z": 1.5320882431,
				"element": "C" 
			},
			{
				"x": -0.4596771107,
				"y": 5.0183122172,
				"z": 0.337292774,
				"element": "C" 
			},
			{
				"x": -0.2134609724,
				"y": 3.645312732,
				"z": 0.3372387485,
				"element": "C" 
			},
			{
				"x": 0.5345739843,
				"y": -0.9408511604,
				"z": -1.1871126837,
				"element": "H" 
			},
			{
				"x": 0.63850856,
				"y": -2.0831598503,
				"z": -3.3157067859,
				"element": "H" 
			},
			{
				"x": 0.9640782924,
				"y": -4.2251525905,
				"z": -4.5362544958,
				"element": "H" 
			},
			{
				"x": 1.5054412053,
				"y": -6.3249017839,
				"z": -1.0299212974,
				"element": "H" 
			},
			{
				"x": 1.2044392209,
				"y": -4.2750794552,
				"z": 0.3603948942,
				"element": "H" 
			},
			{
				"x": 0.0276311877,
				"y": 3.1671550238,
				"z": 3.7037157012,
				"element": "H" 
			},
			{
				"x": -0.4108062877,
				"y": 5.6064627787,
				"z": 3.6819275752,
				"element": "H" 
			},
			{
				"x": -0.7251068782,
				"y": 6.8029810303,
				"z": 1.5203961861,
				"element": "H" 
			},
			{
				"x": -0.594830648,
				"y": 5.5275762056,
				"z": -0.6124337291,
				"element": "H" 
			},
			{
				"x": -0.1572070459,
				"y": 3.0925108243,
				"z": -0.5902226933,
				"element": "H" 
			}
		],
		 "valence_orbital": [ 
			{
				"type": "occ",
				"energy": -0.27705,
				"method": "rhf"
			},
			{
				"type": "occ",
				"energy": -0.26803,
				"method": "rhf"
			},
			{
				"type": "occ",
				"energy": -0.25801,
				"method": "rhf"
			},
			{
				"type": "occ",
				"energy": -0.24999,
				"method": "rhf"
			},
			{
				"type": "occ",
				"energy": -0.23065,
				"method": "rhf"
			},
			{
				"type": "unocc",
				"energy": -0.11549,
				"method": "rhf"
			},
			{
				"type": "unocc",
				"energy": -0.03144,
				"method": "rhf"
			},
			{
				"type": "unocc",
				"energy": -0.02754,
				"method": "rhf"
			},
			{
				"type": "unocc",
				"energy": -0.01821,
				"method": "rhf"
			},
			{
				"type": "unocc",
				"energy": -0.0077,
				"method": "rhf"
			}
		],
		"cosmo_sigma_profile": { 
			"-0.025": 0.0,
			"-0.024": 0.0,
			"-0.023": 0.0,
			"-0.022": 0.0,
			"-0.021": 0.0,
			"-0.02": 0.0,
			"-0.019": 0.0,
			"-0.018": 0.0,
			"-0.017": 0.0,
			"-0.016": 0.0,
			"-0.015": 0.0,
			"-0.014": 0.134316723597,
			"-0.013": 1.23338964122,
			"-0.012": 0.683083370197,
			"-0.011": 0.894427034118,
			"-0.01": 1.30418186337,
			"-0.009": 2.41372504037,
			"-0.008": 2.68701708007,
			"-0.007": 8.03181423521,
			"-0.006": 17.7084269792,
			"-0.005": 21.654904669,
			"-0.004": 21.0304557596,
			"-0.003": 21.7084049573,
			"-0.002": 22.5225982506,
			"-0.001": 22.6248567219,
			"0.0": 24.8008706165,
			"0.001": 34.4904206922,
			"0.002": 49.3464944252,
			"0.003": 29.6233539795,
			"0.004": 18.103324796,
			"0.005": 13.5337210816,
			"0.006": 4.90139752479,
			"0.007": 4.47069566867,
			"0.008": 3.22579177206,
			"0.009": 3.36980453051,
			"0.01": 2.78671870864,
			"0.011": 0.473150337395,
			"0.012": 1.19204436423,
			"0.013": 1.08066764126,
			"0.014": 0.980897319823,
			"0.015": 0.752754211441,
			"0.016": 0.767194784609,
			"0.017": 0.1847847618,
			"0.018": 0.0,
			"0.019": 0.0,
			"0.02": 0.0,
			"0.021": 0.0,
			"0.022": 0.0,
			"0.023": 0.0,
			"0.024": 0.0,
			"0.025": 0.0
		}
	}
}
