{
	 "smiles": "NC1=CC=C(C=C1)C(=C/C1=CC=CC=C1N)C(O)=O", 
	 "Tm": 459.15, 
	 "num_atms": 33, 
	 "gaussian": { 
		 "optdone": 1, 
		 "sigma_profile": "yes", 
		 "theory": "DFT", 
		 "functional": "B3LYP", 
		 "basiset": "6-31G**", 
		 "properties": { 
			 "R2extent": 6627.8992, 
			 "electric_dipole_moment_norm": 5.84243009201, 
			 "electric_quadrupole_moment_norm": 27.0220248425, 
			 "total_energy": -839.98515047, 
			 "HOMO_LUMO_gap": 0.14652, 
			 "cosmo_polarized_energy": -21.57, 
			 "cosmo_cavitation_energy": 36.6, 
			 "cosmo_dispersion_energy": -25.65, 
			 "cosmo_repulsion_energy": 1.99, 
			 "cosmo_total_nonelectrostatic_energy": 12.94, 
			 "SMD_solvation_energy": 6.91 
		},
		"coords": [
			{
				"x": 0.5898571623,
				"y": 3.1047558898,
				"z": 4.1747637802,
				"element": "N" 
			},
			{
				"x": 0.2666184344,
				"y": 1.8906381982,
				"z": 3.5830905367,
				"element": "C" 
			},
			{
				"x": 1.2749515289,
				"y": 1.0055031873,
				"z": 3.1559246323,
				"element": "C" 
			},
			{
				"x": 0.9496528851,
				"y": -0.230049353,
				"z": 2.6151175475,
				"element": "C" 
			},
			{
				"x": -0.3901310999,
				"y": -0.6432739823,
				"z": 2.4712937011,
				"element": "C" 
			},
			{
				"x": -1.3938928117,
				"y": 0.2423097899,
				"z": 2.9124956332,
				"element": "C" 
			},
			{
				"x": -1.0727766304,
				"y": 1.4844860746,
				"z": 3.4482853091,
				"element": "C" 
			},
			{
				"x": -0.692475649,
				"y": -1.9866096486,
				"z": 1.9163972872,
				"element": "C" 
			},
			{
				"x": -0.0702572482,
				"y": -2.5720633069,
				"z": 0.8585564763,
				"element": "C" 
			},
			{
				"x": 0.9206605479,
				"y": -2.0574895216,
				"z": -0.1047663246,
				"element": "C" 
			},
			{
				"x": 1.9613042474,
				"y": -2.9329785582,
				"z": -0.4737022332,
				"element": "C" 
			},
			{
				"x": 2.9438845214,
				"y": -2.5840942654,
				"z": -1.3914247921,
				"element": "C" 
			},
			{
				"x": 2.8804894345,
				"y": -1.3239901032,
				"z": -1.9950179258,
				"element": "C" 
			},
			{
				"x": 1.8475184512,
				"y": -0.4510873711,
				"z": -1.6828257021,
				"element": "C" 
			},
			{
				"x": 0.8441681321,
				"y": -0.7921867824,
				"z": -0.7527255283,
				"element": "C" 
			},
			{
				"x": -0.2265727299,
				"y": 0.067712771,
				"z": -0.574433028,
				"element": "N" 
			},
			{
				"x": -1.7941676962,
				"y": -2.7749163167,
				"z": 2.582082357,
				"element": "C" 
			},
			{
				"x": -1.5555973711,
				"y": -4.1026849906,
				"z": 2.7702525898,
				"element": "O" 
			},
			{
				"x": -2.8532660579,
				"y": -2.3072252527,
				"z": 2.9320728007,
				"element": "O" 
			},
			{
				"x": 1.5014163533,
				"y": 3.4807111447,
				"z": 3.9574725787,
				"element": "H" 
			},
			{
				"x": -0.1361403623,
				"y": 3.8064626605,
				"z": 4.180787629,
				"element": "H" 
			},
			{
				"x": 2.3189026919,
				"y": 1.2885087774,
				"z": 3.2666130919,
				"element": "H" 
			},
			{
				"x": 1.7477190557,
				"y": -0.8953961697,
				"z": 2.3024474683,
				"element": "H" 
			},
			{
				"x": -2.4312371555,
				"y": -0.0591819412,
				"z": 2.8362563572,
				"element": "H" 
			},
			{
				"x": -1.868712998,
				"y": 2.1477300251,
				"z": 3.778287433,
				"element": "H" 
			},
			{
				"x": -0.3442260192,
				"y": -3.6086514174,
				"z": 0.6575014015,
				"element": "H" 
			},
			{
				"x": 1.9950050302,
				"y": -3.9126111465,
				"z": -0.0021021292,
				"element": "H" 
			},
			{
				"x": 3.739513099,
				"y": -3.2798479988,
				"z": -1.6372107888,
				"element": "H" 
			},
			{
				"x": 3.6332278272,
				"y": -1.0240149643,
				"z": -2.7187594671,
				"element": "H" 
			},
			{
				"x": 1.7902252614,
				"y": 0.5176818333,
				"z": -2.1739611455,
				"element": "H" 
			},
			{
				"x": -0.0772041994,
				"y": 1.0112472762,
				"z": -0.9019676289,
				"element": "H" 
			},
			{
				"x": -0.7002167235,
				"y": 0.0360048557,
				"z": 0.3170669571,
				"element": "H" 
			},
			{
				"x": -0.6252399115,
				"y": -4.2872993929,
				"z": 2.5798311259,
				"element": "H" 
			}
		],
		 "valence_orbital": [ 
			{
				"type": "occ",
				"energy": -0.26669,
				"method": "rhf"
			},
			{
				"type": "occ",
				"energy": -0.25414,
				"method": "rhf"
			},
			{
				"type": "occ",
				"energy": -0.24117,
				"method": "rhf"
			},
			{
				"type": "occ",
				"energy": -0.20728,
				"method": "rhf"
			},
			{
				"type": "occ",
				"energy": -0.19732,
				"method": "rhf"
			},
			{
				"type": "unocc",
				"energy": -0.0508,
				"method": "rhf"
			},
			{
				"type": "unocc",
				"energy": -0.0074,
				"method": "rhf"
			},
			{
				"type": "unocc",
				"energy": 0.00705,
				"method": "rhf"
			},
			{
				"type": "unocc",
				"energy": 0.01586,
				"method": "rhf"
			},
			{
				"type": "unocc",
				"energy": 0.01977,
				"method": "rhf"
			}
		],
		"cosmo_sigma_profile": { 
			"-0.025": 0.0,
			"-0.024": 0.0,
			"-0.023": 0.0,
			"-0.022": 0.0,
			"-0.021": 0.0,
			"-0.02": 0.0,
			"-0.019": 0.0,
			"-0.018": 0.502298568236,
			"-0.017": 0.650899867274,
			"-0.016": 1.05561762375,
			"-0.015": 0.963075504434,
			"-0.014": 0.66497672056,
			"-0.013": 1.73822957387,
			"-0.012": 5.35740958399,
			"-0.011": 5.27344200779,
			"-0.01": 6.0006804126,
			"-0.009": 6.27491199243,
			"-0.008": 4.96804966375,
			"-0.007": 6.90353815116,
			"-0.006": 11.132368295,
			"-0.005": 17.559166217,
			"-0.004": 16.6736030286,
			"-0.003": 19.1128632636,
			"-0.002": 16.0431490192,
			"-0.001": 14.556181645,
			"0.0": 15.2770483068,
			"0.001": 16.0035048901,
			"0.002": 16.4305348975,
			"0.003": 15.3765459749,
			"0.004": 19.9088513564,
			"0.005": 19.1710610048,
			"0.006": 16.5412418596,
			"0.007": 7.78812874093,
			"0.008": 4.5406738571,
			"0.009": 4.76278521447,
			"0.01": 6.54801561965,
			"0.011": 5.88176687882,
			"0.012": 4.86170425945,
			"0.013": 2.65469879043,
			"0.014": 0.260788432817,
			"0.015": 0.0,
			"0.016": 0.0,
			"0.017": 0.0,
			"0.018": 0.0,
			"0.019": 0.0,
			"0.02": 0.0,
			"0.021": 0.0,
			"0.022": 0.0,
			"0.023": 0.0,
			"0.024": 0.0,
			"0.025": 0.0
		}
	}
}
