{
	 "smiles": "OC(=O)CCCCCCCCC#CC#CCCCCCCCCC(O)=O", 
	 "Tm": 384.15, 
	 "num_atms": 60, 
	 "gaussian": { 
		 "optdone": 1, 
		 "sigma_profile": "yes", 
		 "theory": "DFT", 
		 "functional": "B3LYP", 
		 "basiset": "6-31G**", 
		 "properties": { 
			 "R2extent": 15805.4134, 
			 "electric_dipole_moment_norm": 4.50148057976, 
			 "electric_quadrupole_moment_norm": 27.836061011, 
			 "total_energy": -1159.68121982, 
			 "HOMO_LUMO_gap": 0.21222, 
			 "cosmo_polarized_energy": -22.39, 
			 "cosmo_cavitation_energy": 61.93, 
			 "cosmo_dispersion_energy": -37.99, 
			 "cosmo_repulsion_energy": 2.93, 
			 "cosmo_total_nonelectrostatic_energy": 26.86, 
			 "SMD_solvation_energy": 10.66 
		},
		"coords": [
			{
				"x": 0.8570114978,
				"y": -1.56550355,
				"z": -0.7084541176,
				"element": "O" 
			},
			{
				"x": -0.4612862954,
				"y": -1.3920982703,
				"z": -1.0402553444,
				"element": "C" 
			},
			{
				"x": -1.3331986237,
				"y": -1.9569635545,
				"z": -0.4241188991,
				"element": "O" 
			},
			{
				"x": -0.6259202669,
				"y": -0.4553278412,
				"z": -2.2152569558,
				"element": "C" 
			},
			{
				"x": -2.0738340927,
				"y": -0.0130798447,
				"z": -2.4693244777,
				"element": "C" 
			},
			{
				"x": -2.9983142158,
				"y": -1.1231527315,
				"z": -2.992399313,
				"element": "C" 
			},
			{
				"x": -4.4104919367,
				"y": -0.6415697523,
				"z": -3.372809922,
				"element": "C" 
			},
			{
				"x": -5.281337966,
				"y": -0.00151094,
				"z": -2.2713744867,
				"element": "C" 
			},
			{
				"x": -5.7061242916,
				"y": -0.9226738897,
				"z": -1.1052637085,
				"element": "C" 
			},
			{
				"x": -4.7187476761,
				"y": -1.0278881841,
				"z": 0.0714976648,
				"element": "C" 
			},
			{
				"x": -4.6464976625,
				"y": 0.2669086986,
				"z": 0.9213738419,
				"element": "C" 
			},
			{
				"x": -3.4662390192,
				"y": 0.3132551237,
				"z": 1.7795265036,
				"element": "C" 
			},
			{
				"x": -2.4271381836,
				"y": 0.3299501761,
				"z": 2.4126676822,
				"element": "C" 
			},
			{
				"x": -1.2428017361,
				"y": 0.3564498232,
				"z": 3.0958687669,
				"element": "C" 
			},
			{
				"x": -0.1740018079,
				"y": 0.3776133557,
				"z": 3.6775659566,
				"element": "C" 
			},
			{
				"x": 1.1468156827,
				"y": 0.4466207409,
				"z": 4.2959861711,
				"element": "C" 
			},
			{
				"x": 1.8324975109,
				"y": 1.816212199,
				"z": 4.0780684594,
				"element": "C" 
			},
			{
				"x": 3.2938850457,
				"y": 1.8655454014,
				"z": 4.5528836633,
				"element": "C" 
			},
			{
				"x": 4.2757228341,
				"y": 0.9494571889,
				"z": 3.7980788772,
				"element": "C" 
			},
			{
				"x": 4.3321167681,
				"y": 1.1845770158,
				"z": 2.2814405444,
				"element": "C" 
			},
			{
				"x": 5.4480321035,
				"y": 0.3909623672,
				"z": 1.5868412887,
				"element": "C" 
			},
			{
				"x": 5.4697519041,
				"y": 0.5406696742,
				"z": 0.0555432395,
				"element": "C" 
			},
			{
				"x": 4.3458125348,
				"y": -0.2091299905,
				"z": -0.671394666,
				"element": "C" 
			},
			{
				"x": 4.5592368496,
				"y": -1.7209386123,
				"z": -0.6989371336,
				"element": "C" 
			},
			{
				"x": 3.5063935812,
				"y": -2.4523507299,
				"z": -1.1423024095,
				"element": "O" 
			},
			{
				"x": 5.5877059527,
				"y": -2.2703597958,
				"z": -0.3847431204,
				"element": "O" 
			},
			{
				"x": 0.8662473875,
				"y": -2.188888893,
				"z": 0.0392491927,
				"element": "H" 
			},
			{
				"x": -0.2085944791,
				"y": -0.9638578381,
				"z": -3.0957556246,
				"element": "H" 
			},
			{
				"x": 0.0236789248,
				"y": 0.4094866963,
				"z": -2.0370670905,
				"element": "H" 
			},
			{
				"x": -2.4732838204,
				"y": 0.411948267,
				"z": -1.5423804771,
				"element": "H" 
			},
			{
				"x": -2.0480308969,
				"y": 0.8063910086,
				"z": -3.1991810667,
				"element": "H" 
			},
			{
				"x": -2.5413021395,
				"y": -1.5631313264,
				"z": -3.8903221985,
				"element": "H" 
			},
			{
				"x": -3.0543991477,
				"y": -1.9295439463,
				"z": -2.2559899845,
				"element": "H" 
			},
			{
				"x": -4.9599914636,
				"y": -1.4947369938,
				"z": -3.7931111474,
				"element": "H" 
			},
			{
				"x": -4.3185058211,
				"y": 0.0865567814,
				"z": -4.19120108,
				"element": "H" 
			},
			{
				"x": -4.7860105316,
				"y": 0.8970879273,
				"z": -1.8808001079,
				"element": "H" 
			},
			{
				"x": -6.189864484,
				"y": 0.3663134253,
				"z": -2.7643897163,
				"element": "H" 
			},
			{
				"x": -5.8943423925,
				"y": -1.9298763932,
				"z": -1.5001901635,
				"element": "H" 
			},
			{
				"x": -6.6719951521,
				"y": -0.5737911718,
				"z": -0.7147705495,
				"element": "H" 
			},
			{
				"x": -5.0200830394,
				"y": -1.85137796,
				"z": 0.7290197696,
				"element": "H" 
			},
			{
				"x": -3.7150588475,
				"y": -1.2767984301,
				"z": -0.2786047516,
				"element": "H" 
			},
			{
				"x": -4.6268498631,
				"y": 1.1466587698,
				"z": 0.2631638271,
				"element": "H" 
			},
			{
				"x": -5.5601917838,
				"y": 0.3671146459,
				"z": 1.5231133499,
				"element": "H" 
			},
			{
				"x": 1.7722885508,
				"y": -0.3552364253,
				"z": 3.8808291229,
				"element": "H" 
			},
			{
				"x": 1.0722120787,
				"y": 0.240856702,
				"z": 5.3728418076,
				"element": "H" 
			},
			{
				"x": 1.7729437255,
				"y": 2.0734332315,
				"z": 3.0150663737,
				"element": "H" 
			},
			{
				"x": 1.2519562395,
				"y": 2.5807219723,
				"z": 4.6066084098,
				"element": "H" 
			},
			{
				"x": 3.334843204,
				"y": 1.6254290089,
				"z": 5.6240576001,
				"element": "H" 
			},
			{
				"x": 3.6431671318,
				"y": 2.9027189819,
				"z": 4.4627676098,
				"element": "H" 
			},
			{
				"x": 5.2778979422,
				"y": 1.1020355292,
				"z": 4.220390831,
				"element": "H" 
			},
			{
				"x": 4.0358153801,
				"y": -0.1053525723,
				"z": 3.9892927822,
				"element": "H" 
			},
			{
				"x": 3.3617360783,
				"y": 0.927338967,
				"z": 1.836659308,
				"element": "H" 
			},
			{
				"x": 4.4774780979,
				"y": 2.2569178701,
				"z": 2.0841109421,
				"element": "H" 
			},
			{
				"x": 6.4152406639,
				"y": 0.723687075,
				"z": 1.9850079283,
				"element": "H" 
			},
			{
				"x": 5.3710912461,
				"y": -0.6736725792,
				"z": 1.8405950924,
				"element": "H" 
			},
			{
				"x": 6.4223663339,
				"y": 0.1637957436,
				"z": -0.328709762,
				"element": "H" 
			},
			{
				"x": 5.4139209427,
				"y": 1.6044074365,
				"z": -0.2084505858,
				"element": "H" 
			},
			{
				"x": 3.361830222,
				"y": 0.0050053289,
				"z": -0.2344360207,
				"element": "H" 
			},
			{
				"x": 4.2833811503,
				"y": 0.1210576281,
				"z": -1.7179256635,
				"element": "H" 
			},
			{
				"x": 2.7299600712,
				"y": -1.8918725451,
				"z": -1.3110960621,
				"element": "H" 
			}
		],
		 "valence_orbital": [ 
			{
				"type": "occ",
				"energy": -0.30528,
				"method": "rhf"
			},
			{
				"type": "occ",
				"energy": -0.2917,
				"method": "rhf"
			},
			{
				"type": "occ",
				"energy": -0.26281,
				"method": "rhf"
			},
			{
				"type": "occ",
				"energy": -0.22444,
				"method": "rhf"
			},
			{
				"type": "occ",
				"energy": -0.22334,
				"method": "rhf"
			},
			{
				"type": "unocc",
				"energy": -0.01112,
				"method": "rhf"
			},
			{
				"type": "unocc",
				"energy": 0.00132,
				"method": "rhf"
			},
			{
				"type": "unocc",
				"energy": 0.00218,
				"method": "rhf"
			},
			{
				"type": "unocc",
				"energy": 0.01763,
				"method": "rhf"
			},
			{
				"type": "unocc",
				"energy": 0.05137,
				"method": "rhf"
			}
		],
		"cosmo_sigma_profile": { 
			"-0.025": 0.0,
			"-0.024": 0.0,
			"-0.023": 0.0,
			"-0.022": 0.0,
			"-0.021": 0.0,
			"-0.02": 0.0,
			"-0.019": 0.0139939268883,
			"-0.018": 0.494002119942,
			"-0.017": 0.792433748961,
			"-0.016": 0.713068541441,
			"-0.015": 0.928006178193,
			"-0.014": 0.273030635533,
			"-0.013": 0.304412418897,
			"-0.012": 0.687887175587,
			"-0.011": 1.57739824093,
			"-0.01": 1.80698450839,
			"-0.009": 1.64118697923,
			"-0.008": 2.26379025181,
			"-0.007": 4.33446562765,
			"-0.006": 9.61643632183,
			"-0.005": 19.6137165494,
			"-0.004": 25.9375490659,
			"-0.003": 46.0205735274,
			"-0.002": 71.7357992192,
			"-0.001": 73.223529275,
			"0.0": 61.2245492076,
			"0.001": 36.7487272297,
			"0.002": 15.1444678456,
			"0.003": 10.9844486717,
			"0.004": 14.7108887178,
			"0.005": 22.615124768,
			"0.006": 20.382990055,
			"0.007": 5.8355449297,
			"0.008": 5.71378245847,
			"0.009": 5.0652829956,
			"0.01": 4.77237556302,
			"0.011": 6.90685779142,
			"0.012": 6.65188186269,
			"0.013": 3.36773334637,
			"0.014": 0.607707685244,
			"0.015": 0.0,
			"0.016": 0.0,
			"0.017": 0.0,
			"0.018": 0.0,
			"0.019": 0.0,
			"0.02": 0.0,
			"0.021": 0.0,
			"0.022": 0.0,
			"0.023": 0.0,
			"0.024": 0.0,
			"0.025": 0.0
		}
	}
}
