{
	 "smiles": "OC(=O)C1=C(OCC(F)F)N=CC=C1", 
	 "Tm": 353.15, 
	 "num_atms": 21, 
	 "gaussian": { 
		 "optdone": 1, 
		 "sigma_profile": "yes", 
		 "theory": "DFT", 
		 "functional": "B3LYP", 
		 "basiset": "6-31G**", 
		 "properties": { 
			 "R2extent": 2818.8453, 
			 "electric_dipole_moment_norm": 6.02783910369, 
			 "electric_quadrupole_moment_norm": 13.9824143398, 
			 "total_energy": -789.173139311, 
			 "HOMO_LUMO_gap": 0.20019, 
			 "cosmo_polarized_energy": -14.6, 
			 "cosmo_cavitation_energy": 26.58, 
			 "cosmo_dispersion_energy": -18.97, 
			 "cosmo_repulsion_energy": 1.46, 
			 "cosmo_total_nonelectrostatic_energy": 9.07, 
			 "SMD_solvation_energy": 5.98 
		},
		"coords": [
			{
				"x": 1.9427228989,
				"y": 0.9363651382,
				"z": 0.9835033066,
				"element": "O" 
			},
			{
				"x": 1.4243964751,
				"y": 1.2557970407,
				"z": -0.2129801617,
				"element": "C" 
			},
			{
				"x": 1.9008986847,
				"y": 2.1469836694,
				"z": -0.8821097461,
				"element": "O" 
			},
			{
				"x": 0.2172920174,
				"y": 0.4867878237,
				"z": -0.6905888603,
				"element": "C" 
			},
			{
				"x": -0.3678993302,
				"y": -0.632663393,
				"z": -0.0621282341,
				"element": "C" 
			},
			{
				"x": 0.2691340201,
				"y": -1.1287540165,
				"z": 1.0478879688,
				"element": "O" 
			},
			{
				"x": -0.4373331317,
				"y": -1.9964802987,
				"z": 1.938869368,
				"element": "C" 
			},
			{
				"x": -0.8813581587,
				"y": -1.1943730344,
				"z": 3.1467047657,
				"element": "C" 
			},
			{
				"x": 0.207509034,
				"y": -0.6045706144,
				"z": 3.7275297611,
				"element": "F" 
			},
			{
				"x": -1.7297247596,
				"y": -0.2017937464,
				"z": 2.7527312276,
				"element": "F" 
			},
			{
				"x": -1.4505437411,
				"y": -1.2548194818,
				"z": -0.4951721499,
				"element": "N" 
			},
			{
				"x": -2.031867361,
				"y": -0.7996170254,
				"z": -1.6139521028,
				"element": "C" 
			},
			{
				"x": -1.5424676588,
				"y": 0.2822985717,
				"z": -2.3396417967,
				"element": "C" 
			},
			{
				"x": -0.4028799877,
				"y": 0.9266036857,
				"z": -1.8620079954,
				"element": "C" 
			},
			{
				"x": 1.4436650338,
				"y": 0.2011485002,
				"z": 1.3857577035,
				"element": "H" 
			},
			{
				"x": 0.2642218953,
				"y": -2.7745120106,
				"z": 2.249582126,
				"element": "H" 
			},
			{
				"x": -1.2955933975,
				"y": -2.4398888659,
				"z": 1.4323645789,
				"element": "H" 
			},
			{
				"x": -1.3852524327,
				"y": -1.8145901964,
				"z": 3.8987562887,
				"element": "H" 
			},
			{
				"x": -2.9240247047,
				"y": -1.3323411061,
				"z": -1.9355952732,
				"element": "H" 
			},
			{
				"x": -2.041421006,
				"y": 0.6124171457,
				"z": -3.2438993034,
				"element": "H" 
			},
			{
				"x": 0.0323256105,
				"y": 1.7820022143,
				"z": -2.3678114712,
				"element": "H" 
			}
		],
		 "valence_orbital": [ 
			{
				"type": "occ",
				"energy": -0.31289,
				"method": "rhf"
			},
			{
				"type": "occ",
				"energy": -0.29853,
				"method": "rhf"
			},
			{
				"type": "occ",
				"energy": -0.29609,
				"method": "rhf"
			},
			{
				"type": "occ",
				"energy": -0.26646,
				"method": "rhf"
			},
			{
				"type": "occ",
				"energy": -0.26133,
				"method": "rhf"
			},
			{
				"type": "unocc",
				"energy": -0.06114,
				"method": "rhf"
			},
			{
				"type": "unocc",
				"energy": -0.02818,
				"method": "rhf"
			},
			{
				"type": "unocc",
				"energy": 0.04609,
				"method": "rhf"
			},
			{
				"type": "unocc",
				"energy": 0.0688,
				"method": "rhf"
			},
			{
				"type": "unocc",
				"energy": 0.09325,
				"method": "rhf"
			}
		],
		"cosmo_sigma_profile": { 
			"-0.025": 0.0,
			"-0.024": 0.0,
			"-0.023": 0.0,
			"-0.022": 0.0,
			"-0.021": 0.0,
			"-0.02": 0.0,
			"-0.019": 0.0,
			"-0.018": 0.0,
			"-0.017": 0.0,
			"-0.016": 0.0,
			"-0.015": 0.0,
			"-0.014": 0.0,
			"-0.013": 0.0,
			"-0.012": 0.0,
			"-0.011": 0.32312188359,
			"-0.01": 3.41944186895,
			"-0.009": 6.57850958925,
			"-0.008": 8.20512569352,
			"-0.007": 11.0497467414,
			"-0.006": 12.1633437969,
			"-0.005": 11.8199923951,
			"-0.004": 9.96168777874,
			"-0.003": 10.4527169863,
			"-0.002": 12.2644061822,
			"-0.001": 15.7668213565,
			"0.0": 17.3194312377,
			"0.001": 13.4778836021,
			"0.002": 11.3293449955,
			"0.003": 11.1896661539,
			"0.004": 18.6899213574,
			"0.005": 8.55393201591,
			"0.006": 3.84692694974,
			"0.007": 3.09998390869,
			"0.008": 3.32235269619,
			"0.009": 4.0436383506,
			"0.01": 4.0538939497,
			"0.011": 5.68187179943,
			"0.012": 4.75380304721,
			"0.013": 1.92917883982,
			"0.014": 0.141531559838,
			"0.015": 0.0,
			"0.016": 0.0,
			"0.017": 0.0,
			"0.018": 0.0,
			"0.019": 0.0,
			"0.02": 0.0,
			"0.021": 0.0,
			"0.022": 0.0,
			"0.023": 0.0,
			"0.024": 0.0,
			"0.025": 0.0
		}
	}
}
