{
	 "smiles": "BrC1=NC=CC(I)=C1", 
	 "Tm": 334.15, 
	 "num_atms": 11, 
	 "gaussian": { 
		 "optdone": 1, 
		 "sigma_profile": "no", 
		 "theory": "DFT", 
		 "functional": "B3LYP", 
		 "basiset": "6-31G**", 
		 "properties": { 
			 "R2extent": 2411.6166, 
			 "electric_dipole_moment_norm": 2.18809630958, 
			 "electric_quadrupole_moment_norm": 10.2755058318, 
			 "total_energy": -2829.87079357, 
			 "HOMO_LUMO_gap": 0.20492, 
			 "cosmo_polarized_energy": -97513.16, 
			 "cosmo_cavitation_energy": 21.14, 
			 "cosmo_dispersion_energy": -17.68, 
			 "cosmo_repulsion_energy": 1.43, 
			 "cosmo_total_nonelectrostatic_energy": 4.89, 
			 "SMD_solvation_energy": 0.26 
		},
		"coords": [
			{
				"x": 2.0314097721,
				"y": 1.16165949,
				"z": 0.9199765296,
				"element": "Br" 
			},
			{
				"x": 1.6853160827,
				"y": -0.5950526056,
				"z": 0.2275546432,
				"element": "C" 
			},
			{
				"x": 2.3795090395,
				"y": -1.5892238702,
				"z": 0.745864227,
				"element": "N" 
			},
			{
				"x": 2.1380493446,
				"y": -2.8159763326,
				"z": 0.2625116984,
				"element": "C" 
			},
			{
				"x": 1.2081358212,
				"y": -3.0857111602,
				"z": -0.7404713839,
				"element": "C" 
			},
			{
				"x": 0.4929451177,
				"y": -2.0060023068,
				"z": -1.2637840046,
				"element": "C" 
			},
			{
				"x": -0.9387790684,
				"y": -2.3144707378,
				"z": -2.7875469928,
				"element": "I" 
			},
			{
				"x": 0.7231137731,
				"y": -0.7203975572,
				"z": -0.7805873075,
				"element": "C" 
			},
			{
				"x": 2.7184851341,
				"y": -3.6250195748,
				"z": 0.7001969217,
				"element": "H" 
			},
			{
				"x": 1.0539873829,
				"y": -4.0981541071,
				"z": -1.0932279329,
				"element": "H" 
			},
			{
				"x": 0.1933276004,
				"y": 0.1448487622,
				"z": -1.1555863983,
				"element": "H" 
			}
		],
		 "valence_orbital": [ 
			{
				"type": "occ",
				"energy": -0.29495,
				"method": "rhf"
			},
			{
				"type": "occ",
				"energy": -0.28654,
				"method": "rhf"
			},
			{
				"type": "occ",
				"energy": -0.28279,
				"method": "rhf"
			},
			{
				"type": "occ",
				"energy": -0.27114,
				"method": "rhf"
			},
			{
				"type": "occ",
				"energy": -0.26543,
				"method": "rhf"
			},
			{
				"type": "unocc",
				"energy": -0.06051,
				"method": "rhf"
			},
			{
				"type": "unocc",
				"energy": -0.0533,
				"method": "rhf"
			},
			{
				"type": "unocc",
				"energy": -0.03943,
				"method": "rhf"
			},
			{
				"type": "unocc",
				"energy": 0.00727,
				"method": "rhf"
			},
			{
				"type": "unocc",
				"energy": 0.03585,
				"method": "rhf"
			}
		],
		"cosmo_sigma_profile": { 
			"0.0": 0.0,
			"0.0": 0.0,
			"0.0": 0.0,
			"0.0": 0.0,
			"0.0": 0.0,
			"0.0": 0.0,
			"0.0": 0.0,
			"0.0": 0.0,
			"0.0": 0.0,
			"0.0": 0.0,
			"0.0": 0.0,
			"0.0": 0.0,
			"0.0": 0.0,
			"0.0": 0.0,
			"0.0": 0.0,
			"0.0": 0.0,
			"0.0": 0.0,
			"0.0": 0.0,
			"0.0": 0.0,
			"0.0": 0.0,
			"0.0": 0.0,
			"0.0": 0.0,
			"0.0": 0.0,
			"0.0": 0.0,
			"0.0": 0.0,
			"0.0": 0.0,
			"0.0": 0.0,
			"0.0": 0.0,
			"0.0": 0.0,
			"0.0": 0.0,
			"0.0": 0.0,
			"0.0": 0.0,
			"0.0": 0.0,
			"0.0": 0.0,
			"0.0": 0.0,
			"0.0": 0.0,
			"0.0": 0.0,
			"0.0": 0.0,
			"0.0": 0.0,
			"0.0": 0.0,
			"0.0": 0.0,
			"0.0": 0.0,
			"0.0": 0.0,
			"0.0": 0.0,
			"0.0": 0.0,
			"0.0": 0.0,
			"0.0": 0.0,
			"0.0": 0.0,
			"0.0": 0.0,
			"0.0": 0.0,
			"0.0": 0.0
		}
	}
}
