{
	 "smiles": "CC1=CC=C(C=C1C)N1CCNCC1", 
	 "Tm": 336.15, 
	 "num_atms": 32, 
	 "gaussian": { 
		 "optdone": 1, 
		 "sigma_profile": "yes", 
		 "theory": "DFT", 
		 "functional": "B3LYP", 
		 "basiset": "6-31G**", 
		 "properties": { 
			 "R2extent": 3549.3687, 
			 "electric_dipole_moment_norm": 0.935069885089, 
			 "electric_quadrupole_moment_norm": 11.3912323916, 
			 "total_energy": -577.625718928, 
			 "HOMO_LUMO_gap": 0.18559, 
			 "cosmo_polarized_energy": -8.34, 
			 "cosmo_cavitation_energy": 32.02, 
			 "cosmo_dispersion_energy": -23.42, 
			 "cosmo_repulsion_energy": 1.83, 
			 "cosmo_total_nonelectrostatic_energy": 10.43, 
			 "SMD_solvation_energy": 1.2 
		},
		"coords": [
			{
				"x": 0.4465359012,
				"y": 3.0859862042,
				"z": -3.0766152551,
				"element": "C" 
			},
			{
				"x": 0.1851097379,
				"y": 2.3236952152,
				"z": -1.7997740048,
				"element": "C" 
			},
			{
				"x": -0.8902002755,
				"y": 2.6616238062,
				"z": -0.9706911158,
				"element": "C" 
			},
			{
				"x": -1.1573546394,
				"y": 1.9864551447,
				"z": 0.2152573952,
				"element": "C" 
			},
			{
				"x": -0.3496165977,
				"y": 0.9077929324,
				"z": 0.6249650763,
				"element": "C" 
			},
			{
				"x": 0.7289255201,
				"y": 0.5636421115,
				"z": -0.2137334642,
				"element": "C" 
			},
			{
				"x": 1.0078976406,
				"y": 1.2536082233,
				"z": -1.3983371747,
				"element": "C" 
			},
			{
				"x": 2.1835770552,
				"y": 0.8282880082,
				"z": -2.2473551377,
				"element": "C" 
			},
			{
				"x": -0.5967399637,
				"y": 0.2588762353,
				"z": 1.8497856191,
				"element": "N" 
			},
			{
				"x": -1.9712706131,
				"y": -0.0724087027,
				"z": 2.2395796707,
				"element": "C" 
			},
			{
				"x": -2.3342125518,
				"y": -1.51411312,
				"z": 1.832270082,
				"element": "C" 
			},
			{
				"x": -1.3812307035,
				"y": -2.5202500369,
				"z": 2.3150353961,
				"element": "N" 
			},
			{
				"x": 0.000433832,
				"y": -2.1570472538,
				"z": 1.9736807139,
				"element": "C" 
			},
			{
				"x": 0.3519583276,
				"y": -0.7156322505,
				"z": 2.3851008386,
				"element": "C" 
			},
			{
				"x": -0.2876140784,
				"y": 3.8852277272,
				"z": -3.2123309891,
				"element": "H" 
			},
			{
				"x": 0.395700668,
				"y": 2.4380718818,
				"z": -3.9611731762,
				"element": "H" 
			},
			{
				"x": 1.4422954615,
				"y": 3.5474600981,
				"z": -3.0843129137,
				"element": "H" 
			},
			{
				"x": -1.5323107099,
				"y": 3.493059554,
				"z": -1.2534448944,
				"element": "H" 
			},
			{
				"x": -1.9770292924,
				"y": 2.3237953,
				"z": 0.8406921012,
				"element": "H" 
			},
			{
				"x": 1.3676282849,
				"y": -0.2747439131,
				"z": 0.0416239031,
				"element": "H" 
			},
			{
				"x": 2.906835864,
				"y": 1.6437195437,
				"z": -2.3718305469,
				"element": "H" 
			},
			{
				"x": 2.7115206649,
				"y": -0.0190408882,
				"z": -1.8015466343,
				"element": "H" 
			},
			{
				"x": 1.8691373129,
				"y": 0.5329580815,
				"z": -3.2559471689,
				"element": "H" 
			},
			{
				"x": -2.0572255892,
				"y": 0.0314520349,
				"z": 3.3321040612,
				"element": "H" 
			},
			{
				"x": -2.6704692398,
				"y": 0.6351741279,
				"z": 1.7916368533,
				"element": "H" 
			},
			{
				"x": -3.3349633118,
				"y": -1.7722605516,
				"z": 2.1988716619,
				"element": "H" 
			},
			{
				"x": -2.3619759241,
				"y": -1.5738337231,
				"z": 0.7361600422,
				"element": "H" 
			},
			{
				"x": -1.4606005662,
				"y": -2.5869451705,
				"z": 3.3292680863,
				"element": "H" 
			},
			{
				"x": 0.1190503072,
				"y": -2.269076022,
				"z": 0.8883734962,
				"element": "H" 
			},
			{
				"x": 0.6811356564,
				"y": -2.8708583363,
				"z": 2.452645847,
				"element": "H" 
			},
			{
				"x": 0.3085244109,
				"y": -0.6470441935,
				"z": 3.4835071032,
				"element": "H" 
			},
			{
				"x": 1.3687474111,
				"y": -0.4406320678,
				"z": 2.0943345283,
				"element": "H" 
			}
		],
		 "valence_orbital": [ 
			{
				"type": "occ",
				"energy": -0.31812,
				"method": "rhf"
			},
			{
				"type": "occ",
				"energy": -0.27239,
				"method": "rhf"
			},
			{
				"type": "occ",
				"energy": -0.23063,
				"method": "rhf"
			},
			{
				"type": "occ",
				"energy": -0.22449,
				"method": "rhf"
			},
			{
				"type": "occ",
				"energy": -0.17346,
				"method": "rhf"
			},
			{
				"type": "unocc",
				"energy": 0.01213,
				"method": "rhf"
			},
			{
				"type": "unocc",
				"energy": 0.02364,
				"method": "rhf"
			},
			{
				"type": "unocc",
				"energy": 0.08275,
				"method": "rhf"
			},
			{
				"type": "unocc",
				"energy": 0.09673,
				"method": "rhf"
			},
			{
				"type": "unocc",
				"energy": 0.10725,
				"method": "rhf"
			}
		],
		"cosmo_sigma_profile": { 
			"-0.025": 0.0,
			"-0.024": 0.0,
			"-0.023": 0.0,
			"-0.022": 0.0,
			"-0.021": 0.0,
			"-0.02": 0.0,
			"-0.019": 0.0,
			"-0.018": 0.0,
			"-0.017": 0.0,
			"-0.016": 0.0,
			"-0.015": 0.0,
			"-0.014": 0.0,
			"-0.013": 0.0,
			"-0.012": 0.0,
			"-0.011": 0.0,
			"-0.01": 0.283166586813,
			"-0.009": 1.53714453998,
			"-0.008": 1.07357785324,
			"-0.007": 2.64814277655,
			"-0.006": 4.12959424657,
			"-0.005": 8.40632340383,
			"-0.004": 23.0068718274,
			"-0.003": 36.0736184376,
			"-0.002": 34.2357796468,
			"-0.001": 27.519553634,
			"0.0": 24.7905251849,
			"0.001": 20.2095661068,
			"0.002": 10.7232796719,
			"0.003": 7.88047875839,
			"0.004": 7.80832356753,
			"0.005": 7.97245115082,
			"0.006": 7.67385328225,
			"0.007": 8.77204517062,
			"0.008": 6.58820267069,
			"0.009": 1.3878181952,
			"0.01": 1.24810792997,
			"0.011": 1.30525028404,
			"0.012": 0.24878595241,
			"0.013": 0.965963959246,
			"0.014": 0.653666719882,
			"0.015": 0.501311162364,
			"0.016": 0.503149440358,
			"0.017": 0.659105171651,
			"0.018": 0.5646247813,
			"0.019": 0.255190178931,
			"0.02": 0.0,
			"0.021": 0.0,
			"0.022": 0.0,
			"0.023": 0.0,
			"0.024": 0.0,
			"0.025": 0.0
		}
	}
}
