{
	 "smiles": "CS(=O)(=O)C1=CC=CC(=C1)C(O)=O", 
	 "Tm": 507.15, 
	 "num_atms": 21, 
	 "gaussian": { 
		 "optdone": 1, 
		 "sigma_profile": "yes", 
		 "theory": "DFT", 
		 "functional": "B3LYP", 
		 "basiset": "6-31G**", 
		 "properties": { 
			 "R2extent": 3648.3452, 
			 "electric_dipole_moment_norm": 6.84752717994, 
			 "electric_quadrupole_moment_norm": 21.9911413226, 
			 "total_energy": -1008.69556487, 
			 "HOMO_LUMO_gap": 0.20937, 
			 "cosmo_polarized_energy": -25.15, 
			 "cosmo_cavitation_energy": 27.27, 
			 "cosmo_dispersion_energy": -20.18, 
			 "cosmo_repulsion_energy": 1.55, 
			 "cosmo_total_nonelectrostatic_energy": 8.64, 
			 "SMD_solvation_energy": 5.65 
		},
		"coords": [
			{
				"x": 2.6994931299,
				"y": -0.6076543694,
				"z": 2.8645226128,
				"element": "C" 
			},
			{
				"x": 0.9334410883,
				"y": -0.9865337067,
				"z": 2.7731710139,
				"element": "S" 
			},
			{
				"x": 0.1980198253,
				"y": 0.2658460853,
				"z": 2.9931291761,
				"element": "O" 
			},
			{
				"x": 0.6888187516,
				"y": -2.1772779463,
				"z": 3.601327524,
				"element": "O" 
			},
			{
				"x": 0.6969466298,
				"y": -1.4742226892,
				"z": 1.0489228257,
				"element": "C" 
			},
			{
				"x": 0.679005863,
				"y": -2.8336732963,
				"z": 0.7279538878,
				"element": "C" 
			},
			{
				"x": 0.4771222488,
				"y": -3.2115741357,
				"z": -0.5993024639,
				"element": "C" 
			},
			{
				"x": 0.3132888632,
				"y": -2.2380771665,
				"z": -1.5854711073,
				"element": "C" 
			},
			{
				"x": 0.338256827,
				"y": -0.8748753812,
				"z": -1.2567291092,
				"element": "C" 
			},
			{
				"x": 0.5082236319,
				"y": -0.4931432288,
				"z": 0.0802074206,
				"element": "C" 
			},
			{
				"x": 0.1451616047,
				"y": 0.2230995458,
				"z": -2.2653993595,
				"element": "C" 
			},
			{
				"x": 0.3546732759,
				"y": -0.0953938802,
				"z": -3.5691765115,
				"element": "O" 
			},
			{
				"x": -0.1768462565,
				"y": 1.3453071674,
				"z": -1.9588872047,
				"element": "O" 
			},
			{
				"x": 2.8911864272,
				"y": -0.3081371893,
				"z": 3.897034854,
				"element": "H" 
			},
			{
				"x": 3.2731813331,
				"y": -1.5015593332,
				"z": 2.615861422,
				"element": "H" 
			},
			{
				"x": 2.9277194134,
				"y": 0.2134697493,
				"z": 2.1836795459,
				"element": "H" 
			},
			{
				"x": 0.7954538658,
				"y": -3.570582314,
				"z": 1.5154740682,
				"element": "H" 
			},
			{
				"x": 0.4353500859,
				"y": -4.263397007,
				"z": -0.8636993314,
				"element": "H" 
			},
			{
				"x": 0.1227132739,
				"y": -2.558254377,
				"z": -2.6069522541,
				"element": "H" 
			},
			{
				"x": 0.4719867156,
				"y": 0.5592889575,
				"z": 0.3406812462,
				"element": "H" 
			},
			{
				"x": 0.7616034024,
				"y": -0.9689554845,
				"z": -3.6474482555,
				"element": "H" 
			}
		],
		 "valence_orbital": [ 
			{
				"type": "occ",
				"energy": -0.3055,
				"method": "rhf"
			},
			{
				"type": "occ",
				"energy": -0.30229,
				"method": "rhf"
			},
			{
				"type": "occ",
				"energy": -0.29639,
				"method": "rhf"
			},
			{
				"type": "occ",
				"energy": -0.29167,
				"method": "rhf"
			},
			{
				"type": "occ",
				"energy": -0.28339,
				"method": "rhf"
			},
			{
				"type": "unocc",
				"energy": -0.07402,
				"method": "rhf"
			},
			{
				"type": "unocc",
				"energy": -0.05581,
				"method": "rhf"
			},
			{
				"type": "unocc",
				"energy": 0.02136,
				"method": "rhf"
			},
			{
				"type": "unocc",
				"energy": 0.04252,
				"method": "rhf"
			},
			{
				"type": "unocc",
				"energy": 0.06078,
				"method": "rhf"
			}
		],
		"cosmo_sigma_profile": { 
			"-0.025": 0.0,
			"-0.024": 0.0,
			"-0.023": 0.0,
			"-0.022": 0.0,
			"-0.021": 0.0,
			"-0.02": 0.0224823721647,
			"-0.019": 0.982095650957,
			"-0.018": 1.11109833358,
			"-0.017": 0.687467652475,
			"-0.016": 1.07637700651,
			"-0.015": 1.15629807052,
			"-0.014": 1.22926902888,
			"-0.013": 0.779553584247,
			"-0.012": 1.06041439815,
			"-0.011": 1.47209303756,
			"-0.01": 1.28786502607,
			"-0.009": 6.07822151701,
			"-0.008": 11.8838879709,
			"-0.007": 11.9911667763,
			"-0.006": 12.886833172,
			"-0.005": 13.2023832231,
			"-0.004": 14.3398655815,
			"-0.003": 10.8350536455,
			"-0.002": 9.4116450328,
			"-0.001": 10.1858005008,
			"0.0": 15.1141541166,
			"0.001": 13.7276341312,
			"0.002": 6.33487630062,
			"0.003": 4.51567294324,
			"0.004": 5.82408835322,
			"0.005": 2.92743492166,
			"0.006": 3.83548130563,
			"0.007": 5.18206878821,
			"0.008": 6.42251326617,
			"0.009": 7.08269327516,
			"0.01": 9.94720955478,
			"0.011": 14.9526561155,
			"0.012": 9.94972141357,
			"0.013": 0.7950825916,
			"0.014": 0.0,
			"0.015": 0.0,
			"0.016": 0.0,
			"0.017": 0.0,
			"0.018": 0.0,
			"0.019": 0.0,
			"0.02": 0.0,
			"0.021": 0.0,
			"0.022": 0.0,
			"0.023": 0.0,
			"0.024": 0.0,
			"0.025": 0.0
		}
	}
}
