{
	 "smiles": "[O-][N+](=O)C1=CC=C(C=C1)N1CCC(=O)CC1", 
	 "Tm": 436.15, 
	 "num_atms": 28, 
	 "gaussian": { 
		 "optdone": 1, 
		 "sigma_profile": "yes", 
		 "theory": "DFT", 
		 "functional": "B3LYP", 
		 "basiset": "6-31G**", 
		 "properties": { 
			 "R2extent": 5378.3493, 
			 "electric_dipole_moment_norm": 4.9868372883, 
			 "electric_quadrupole_moment_norm": 40.3112012755, 
			 "total_energy": -761.472092947, 
			 "HOMO_LUMO_gap": 0.14811, 
			 "cosmo_polarized_energy": -18.8, 
			 "cosmo_cavitation_energy": 31.39, 
			 "cosmo_dispersion_energy": -23.17, 
			 "cosmo_repulsion_energy": 1.78, 
			 "cosmo_total_nonelectrostatic_energy": 10.0, 
			 "SMD_solvation_energy": 6.99 
		},
		"coords": [
			{
				"x": -0.1250132943,
				"y": 4.583116197,
				"z": -2.5479225457,
				"element": "O" 
			},
			{
				"x": 0.7051164389,
				"y": 3.6838960228,
				"z": -2.7100108238,
				"element": "N" 
			},
			{
				"x": 1.6517648668,
				"y": 3.7456863949,
				"z": -3.499957474,
				"element": "O" 
			},
			{
				"x": 0.5581980035,
				"y": 2.4722408724,
				"z": -1.9184132164,
				"element": "C" 
			},
			{
				"x": 1.46823906,
				"y": 1.4262178923,
				"z": -2.0792415544,
				"element": "C" 
			},
			{
				"x": 1.3285369084,
				"y": 0.2708567984,
				"z": -1.3280372846,
				"element": "C" 
			},
			{
				"x": 0.2741047607,
				"y": 0.1301779911,
				"z": -0.3882379802,
				"element": "C" 
			},
			{
				"x": -0.6318131728,
				"y": 1.2139740554,
				"z": -0.2484569192,
				"element": "C" 
			},
			{
				"x": -0.4916062725,
				"y": 2.3659582923,
				"z": -1.0047296875,
				"element": "C" 
			},
			{
				"x": 0.1347256226,
				"y": -1.0189156819,
				"z": 0.3625399129,
				"element": "N" 
			},
			{
				"x": -1.1078530502,
				"y": -1.2929499385,
				"z": 1.0896781535,
				"element": "C" 
			},
			{
				"x": -1.3327863107,
				"y": -2.7984967701,
				"z": 1.2782427844,
				"element": "C" 
			},
			{
				"x": -0.1643913243,
				"y": -3.4831328697,
				"z": 1.9721285333,
				"element": "C" 
			},
			{
				"x": -0.2871103786,
				"y": -4.4934755309,
				"z": 2.632573472,
				"element": "O" 
			},
			{
				"x": 1.1718551013,
				"y": -2.7860038323,
				"z": 1.7627894954,
				"element": "C" 
			},
			{
				"x": 1.2255232964,
				"y": -1.99368663,
				"z": 0.4504645454,
				"element": "C" 
			},
			{
				"x": 2.2671625849,
				"y": 1.5284511538,
				"z": -2.8033126926,
				"element": "H" 
			},
			{
				"x": 2.0242989198,
				"y": -0.5415912851,
				"z": -1.4958319597,
				"element": "H" 
			},
			{
				"x": -1.4316773715,
				"y": 1.168412484,
				"z": 0.4798716097,
				"element": "H" 
			},
			{
				"x": -1.1773614416,
				"y": 3.1963669626,
				"z": -0.8900010265,
				"element": "H" 
			},
			{
				"x": -1.9459485059,
				"y": -0.883872072,
				"z": 0.5187393698,
				"element": "H" 
			},
			{
				"x": -1.1154270166,
				"y": -0.7910721936,
				"z": 2.0701821365,
				"element": "H" 
			},
			{
				"x": -1.4559992422,
				"y": -3.2753855608,
				"z": 0.2956420914,
				"element": "H" 
			},
			{
				"x": -2.2486281673,
				"y": -2.9904849873,
				"z": 1.8435896496,
				"element": "H" 
			},
			{
				"x": 1.3208953173,
				"y": -2.1011554532,
				"z": 2.6094698208,
				"element": "H" 
			},
			{
				"x": 1.974268466,
				"y": -3.5272722187,
				"z": 1.8064893353,
				"element": "H" 
			},
			{
				"x": 2.1782837207,
				"y": -1.4590514579,
				"z": 0.4045664193,
				"element": "H" 
			},
			{
				"x": 1.2091424814,
				"y": -2.6891086349,
				"z": -0.4036141645,
				"element": "H" 
			}
		],
		 "valence_orbital": [ 
			{
				"type": "occ",
				"energy": -0.29312,
				"method": "rhf"
			},
			{
				"type": "occ",
				"energy": -0.27495,
				"method": "rhf"
			},
			{
				"type": "occ",
				"energy": -0.27363,
				"method": "rhf"
			},
			{
				"type": "occ",
				"energy": -0.26142,
				"method": "rhf"
			},
			{
				"type": "occ",
				"energy": -0.22109,
				"method": "rhf"
			},
			{
				"type": "unocc",
				"energy": -0.07298,
				"method": "rhf"
			},
			{
				"type": "unocc",
				"energy": -0.03631,
				"method": "rhf"
			},
			{
				"type": "unocc",
				"energy": -0.02249,
				"method": "rhf"
			},
			{
				"type": "unocc",
				"energy": 0.01892,
				"method": "rhf"
			},
			{
				"type": "unocc",
				"energy": 0.05472,
				"method": "rhf"
			}
		],
		"cosmo_sigma_profile": { 
			"-0.025": 0.0,
			"-0.024": 0.0,
			"-0.023": 0.0,
			"-0.022": 0.0,
			"-0.021": 0.0,
			"-0.02": 0.0,
			"-0.019": 0.0,
			"-0.018": 0.0,
			"-0.017": 0.0,
			"-0.016": 0.0,
			"-0.015": 0.0,
			"-0.014": 0.0,
			"-0.013": 0.0,
			"-0.012": 0.0,
			"-0.011": 0.0,
			"-0.01": 0.0,
			"-0.009": 0.0,
			"-0.008": 1.65053816311,
			"-0.007": 14.4891328905,
			"-0.006": 24.6110393218,
			"-0.005": 31.9077895772,
			"-0.004": 22.4971960968,
			"-0.003": 16.3994491804,
			"-0.002": 11.8726918448,
			"-0.001": 10.2114406802,
			"0.0": 12.6000841983,
			"0.001": 13.6756882223,
			"0.002": 13.9868362125,
			"0.003": 14.483092284,
			"0.004": 7.22005649944,
			"0.005": 3.37324503263,
			"0.006": 4.97527827323,
			"0.007": 4.32436312724,
			"0.008": 8.08464410106,
			"0.009": 11.0404296647,
			"0.01": 7.01163060318,
			"0.011": 7.44103448508,
			"0.012": 4.95500047137,
			"0.013": 2.0305025744,
			"0.014": 0.0669321625027,
			"0.015": 0.0,
			"0.016": 0.0,
			"0.017": 0.0,
			"0.018": 0.0,
			"0.019": 0.0,
			"0.02": 0.0,
			"0.021": 0.0,
			"0.022": 0.0,
			"0.023": 0.0,
			"0.024": 0.0,
			"0.025": 0.0
		}
	}
}
