{
	 "smiles": "ClC1=CC(NC(=O)CC#N)=CC=C1", 
	 "Tm": 413.15, 
	 "num_atms": 20, 
	 "gaussian": { 
		 "optdone": 1, 
		 "sigma_profile": "yes", 
		 "theory": "DFT", 
		 "functional": "B3LYP", 
		 "basiset": "6-31G**", 
		 "properties": { 
			 "R2extent": 3868.9329, 
			 "electric_dipole_moment_norm": 6.48238385164, 
			 "electric_quadrupole_moment_norm": 29.4650404351, 
			 "total_energy": -992.082731752, 
			 "HOMO_LUMO_gap": 0.21191, 
			 "cosmo_polarized_energy": -19.54, 
			 "cosmo_cavitation_energy": 27.95, 
			 "cosmo_dispersion_energy": -19.57, 
			 "cosmo_repulsion_energy": 1.57, 
			 "cosmo_total_nonelectrostatic_energy": 9.95, 
			 "SMD_solvation_energy": 6.7 
		},
		"coords": [
			{
				"x": -1.0450642046,
				"y": 0.4132320606,
				"z": 2.8478729609,
				"element": "Cl" 
			},
			{
				"x": -0.10250662,
				"y": 0.0995517872,
				"z": 1.4010145404,
				"element": "C" 
			},
			{
				"x": -0.6452966175,
				"y": 0.4320943545,
				"z": 0.1604469797,
				"element": "C" 
			},
			{
				"x": 0.0935568725,
				"y": 0.1722416609,
				"z": -1.0012447355,
				"element": "C" 
			},
			{
				"x": -0.4100970153,
				"y": 0.5024104716,
				"z": -2.2840808319,
				"element": "N" 
			},
			{
				"x": -1.6166416394,
				"y": 0.2120793733,
				"z": -2.8899870195,
				"element": "C" 
			},
			{
				"x": -1.8404950613,
				"y": 0.5593605427,
				"z": -4.0339039504,
				"element": "O" 
			},
			{
				"x": -2.6494554257,
				"y": -0.5672758661,
				"z": -2.0565956144,
				"element": "C" 
			},
			{
				"x": -3.5717792647,
				"y": -1.3172270982,
				"z": -2.9080614367,
				"element": "C" 
			},
			{
				"x": -4.3178860158,
				"y": -1.9382898821,
				"z": -3.5418076011,
				"element": "N" 
			},
			{
				"x": 1.3810449719,
				"y": -0.3736767002,
				"z": -0.8978499492,
				"element": "C" 
			},
			{
				"x": 1.9128923802,
				"y": -0.6698335964,
				"z": 0.3547289433,
				"element": "C" 
			},
			{
				"x": 1.1735791192,
				"y": -0.4482246058,
				"z": 1.5180997224,
				"element": "C" 
			},
			{
				"x": -1.6138657813,
				"y": 0.9134721651,
				"z": 0.106904501,
				"element": "H" 
			},
			{
				"x": 0.2419778633,
				"y": 0.9158754452,
				"z": -2.9404695849,
				"element": "H" 
			},
			{
				"x": -2.1680797334,
				"y": -1.250714567,
				"z": -1.3503958463,
				"element": "H" 
			},
			{
				"x": -3.2319808162,
				"y": 0.1451302988,
				"z": -1.459572105,
				"element": "H" 
			},
			{
				"x": 1.9512714067,
				"y": -0.5729300352,
				"z": -1.7999985497,
				"element": "H" 
			},
			{
				"x": 2.9099973874,
				"y": -1.0927448884,
				"z": 0.4281520238,
				"element": "H" 
			},
			{
				"x": 1.577228194,
				"y": -0.6892309203,
				"z": 2.4945475533,
				"element": "H" 
			}
		],
		 "valence_orbital": [ 
			{
				"type": "occ",
				"energy": -0.32776,
				"method": "rhf"
			},
			{
				"type": "occ",
				"energy": -0.31654,
				"method": "rhf"
			},
			{
				"type": "occ",
				"energy": -0.2827,
				"method": "rhf"
			},
			{
				"type": "occ",
				"energy": -0.27569,
				"method": "rhf"
			},
			{
				"type": "occ",
				"energy": -0.25692,
				"method": "rhf"
			},
			{
				"type": "unocc",
				"energy": -0.04501,
				"method": "rhf"
			},
			{
				"type": "unocc",
				"energy": -0.04014,
				"method": "rhf"
			},
			{
				"type": "unocc",
				"energy": 0.00083,
				"method": "rhf"
			},
			{
				"type": "unocc",
				"energy": 0.00829,
				"method": "rhf"
			},
			{
				"type": "unocc",
				"energy": 0.03212,
				"method": "rhf"
			}
		],
		"cosmo_sigma_profile": { 
			"-0.025": 0.0,
			"-0.024": 0.0,
			"-0.023": 0.0,
			"-0.022": 0.0,
			"-0.021": 0.0,
			"-0.02": 0.0,
			"-0.019": 0.0,
			"-0.018": 0.0,
			"-0.017": 0.0,
			"-0.016": 0.0173599884527,
			"-0.015": 1.07099235273,
			"-0.014": 0.961786207283,
			"-0.013": 1.44250406586,
			"-0.012": 2.21496729191,
			"-0.011": 4.37166658044,
			"-0.01": 5.24261880405,
			"-0.009": 6.19314050963,
			"-0.008": 6.55423285952,
			"-0.007": 12.9654360572,
			"-0.006": 10.3635028405,
			"-0.005": 11.6765557676,
			"-0.004": 7.49396791053,
			"-0.003": 9.91318646688,
			"-0.002": 10.4585471727,
			"-0.001": 11.5327606247,
			"0.0": 12.4078104665,
			"0.001": 16.5575240386,
			"0.002": 17.7621087845,
			"0.003": 16.288847468,
			"0.004": 13.6305968239,
			"0.005": 7.62181271279,
			"0.006": 4.201063231,
			"0.007": 3.99838513642,
			"0.008": 5.58845623279,
			"0.009": 5.67255313156,
			"0.01": 5.03769761501,
			"0.011": 5.33741840552,
			"0.012": 8.17223256949,
			"0.013": 2.55278480463,
			"0.014": 0.01928097731,
			"0.015": 0.0,
			"0.016": 0.0,
			"0.017": 0.0,
			"0.018": 0.0,
			"0.019": 0.0,
			"0.02": 0.0,
			"0.021": 0.0,
			"0.022": 0.0,
			"0.023": 0.0,
			"0.024": 0.0,
			"0.0": 0.0
		}
	}
}
