{
	 "smiles": "C(OC1=CC=CC=C1)C1=NN=C2SC(C=CC3=CC=CC=C3)=NN12", 
	 "Tm": 415.15, 
	 "num_atms": 38, 
	 "gaussian": { 
		 "optdone": 1, 
		 "sigma_profile": "yes", 
		 "theory": "DFT", 
		 "functional": "B3LYP", 
		 "basiset": "6-31G**", 
		 "properties": { 
			 "R2extent": 13512.8836, 
			 "electric_dipole_moment_norm": 7.23365037447, 
			 "electric_quadrupole_moment_norm": 34.5457567315, 
			 "total_energy": -1386.682965, 
			 "HOMO_LUMO_gap": 0.13174, 
			 "cosmo_polarized_energy": -19.02, 
			 "cosmo_cavitation_energy": 46.24, 
			 "cosmo_dispersion_energy": -33.32, 
			 "cosmo_repulsion_energy": 2.48, 
			 "cosmo_total_nonelectrostatic_energy": 15.4, 
			 "SMD_solvation_energy": 4.51 
		},
		"coords": [
			{
				"x": -3.632223715,
				"y": 1.7060823685,
				"z": -0.6185619596,
				"element": "C" 
			},
			{
				"x": -2.627653139,
				"y": 2.5165945362,
				"z": -0.0140856003,
				"element": "O" 
			},
			{
				"x": -2.0238559529,
				"y": 3.4741898657,
				"z": -0.7845022759,
				"element": "C" 
			},
			{
				"x": -0.9955764495,
				"y": 4.1916906982,
				"z": -0.1557836543,
				"element": "C" 
			},
			{
				"x": -0.3208526718,
				"y": 5.1893141442,
				"z": -0.8500612481,
				"element": "C" 
			},
			{
				"x": -0.6573515682,
				"y": 5.4857431834,
				"z": -2.1758910736,
				"element": "C" 
			},
			{
				"x": -1.6800900037,
				"y": 4.7706295253,
				"z": -2.7938400409,
				"element": "C" 
			},
			{
				"x": -2.3703163568,
				"y": 3.7644404879,
				"z": -2.1089137848,
				"element": "C" 
			},
			{
				"x": -4.0966830431,
				"y": 0.7091346332,
				"z": 0.3818388472,
				"element": "C" 
			},
			{
				"x": -5.308038617,
				"y": 0.6305118289,
				"z": 0.8980856772,
				"element": "N" 
			},
			{
				"x": -5.3690976803,
				"y": -0.438004174,
				"z": 1.7810659069,
				"element": "N" 
			},
			{
				"x": -4.1719160464,
				"y": -0.9690117104,
				"z": 1.7681975124,
				"element": "C" 
			},
			{
				"x": -3.2874870234,
				"y": -2.2860218139,
				"z": 2.5019600499,
				"element": "S" 
			},
			{
				"x": -1.8632713007,
				"y": -1.7675902771,
				"z": 1.5338862248,
				"element": "C" 
			},
			{
				"x": -0.6171565976,
				"y": -2.5000387009,
				"z": 1.6549364838,
				"element": "C" 
			},
			{
				"x": 0.5088232828,
				"y": -2.1476990864,
				"z": 0.9963073919,
				"element": "C" 
			},
			{
				"x": 1.8072962821,
				"y": -2.8142882114,
				"z": 1.045515023,
				"element": "C" 
			},
			{
				"x": 2.0562213291,
				"y": -3.9765844578,
				"z": 1.8032903007,
				"element": "C" 
			},
			{
				"x": 3.3164758994,
				"y": -4.5634242938,
				"z": 1.8094935886,
				"element": "C" 
			},
			{
				"x": 4.3591653166,
				"y": -4.0068897032,
				"z": 1.0604121147,
				"element": "C" 
			},
			{
				"x": 4.1300866827,
				"y": -2.856981082,
				"z": 0.3036453137,
				"element": "C" 
			},
			{
				"x": 2.8675108386,
				"y": -2.2684511767,
				"z": 0.2968326137,
				"element": "C" 
			},
			{
				"x": -2.0481643606,
				"y": -0.7316468311,
				"z": 0.7632527568,
				"element": "N" 
			},
			{
				"x": -3.3308077376,
				"y": -0.3007354369,
				"z": 0.9101407531,
				"element": "N" 
			},
			{
				"x": -4.5032568628,
				"y": 2.2998073154,
				"z": -0.9190811708,
				"element": "H" 
			},
			{
				"x": -3.2237656766,
				"y": 1.2017225767,
				"z": -1.5057607945,
				"element": "H" 
			},
			{
				"x": -0.748949328,
				"y": 3.9477301472,
				"z": 0.8723553388,
				"element": "H" 
			},
			{
				"x": 0.4733095872,
				"y": 5.7397866853,
				"z": -0.3534978022,
				"element": "H" 
			},
			{
				"x": -0.1287698784,
				"y": 6.2653468265,
				"z": -2.7155036409,
				"element": "H" 
			},
			{
				"x": -1.9551306581,
				"y": 4.9913421897,
				"z": -3.8214546213,
				"element": "H" 
			},
			{
				"x": -3.167052851,
				"y": 3.2285987037,
				"z": -2.6112674517,
				"element": "H" 
			},
			{
				"x": -0.6377636215,
				"y": -3.3598623229,
				"z": 2.3176174476,
				"element": "H" 
			},
			{
				"x": 0.4553991848,
				"y": -1.2692176822,
				"z": 0.3563124786,
				"element": "H" 
			},
			{
				"x": 1.2604433696,
				"y": -4.42547556,
				"z": 2.3896543708,
				"element": "H" 
			},
			{
				"x": 3.4898390162,
				"y": -5.4588668895,
				"z": 2.3990543398,
				"element": "H" 
			},
			{
				"x": 5.3418044849,
				"y": -4.4690659856,
				"z": 1.0682047664,
				"element": "H" 
			},
			{
				"x": 4.9335098901,
				"y": -2.4186974943,
				"z": -0.2808148694,
				"element": "H" 
			},
			{
				"x": 2.6912459759,
				"y": -1.3727128258,
				"z": -0.2928393121,
				"element": "H" 
			}
		],
		 "valence_orbital": [ 
			{
				"type": "occ",
				"energy": -0.26121,
				"method": "rhf"
			},
			{
				"type": "occ",
				"energy": -0.25048,
				"method": "rhf"
			},
			{
				"type": "occ",
				"energy": -0.24672,
				"method": "rhf"
			},
			{
				"type": "occ",
				"energy": -0.23502,
				"method": "rhf"
			},
			{
				"type": "occ",
				"energy": -0.22063,
				"method": "rhf"
			},
			{
				"type": "unocc",
				"energy": -0.08889,
				"method": "rhf"
			},
			{
				"type": "unocc",
				"energy": -0.02003,
				"method": "rhf"
			},
			{
				"type": "unocc",
				"energy": -0.01767,
				"method": "rhf"
			},
			{
				"type": "unocc",
				"energy": -0.0119,
				"method": "rhf"
			},
			{
				"type": "unocc",
				"energy": -0.00104,
				"method": "rhf"
			}
		],
		"cosmo_sigma_profile": { 
			"-0.025": 0.0,
			"-0.024": 0.0,
			"-0.023": 0.0,
			"-0.022": 0.0,
			"-0.021": 0.0,
			"-0.02": 0.0,
			"-0.019": 0.0,
			"-0.018": 0.0,
			"-0.017": 0.0,
			"-0.016": 0.0,
			"-0.015": 0.0,
			"-0.014": 0.0,
			"-0.013": 0.0,
			"-0.012": 0.0,
			"-0.011": 0.0,
			"-0.01": 1.17847179276,
			"-0.009": 3.46153478488,
			"-0.008": 6.15528347846,
			"-0.007": 13.8971695595,
			"-0.006": 23.1038354848,
			"-0.005": 29.9364587223,
			"-0.004": 30.1597325922,
			"-0.003": 27.2412873665,
			"-0.002": 24.7603334286,
			"-0.001": 25.7415768931,
			"0.0": 22.8373773139,
			"0.001": 26.047125418,
			"0.002": 27.962168279,
			"0.003": 25.5830430166,
			"0.004": 25.9139479752,
			"0.005": 19.2986850359,
			"0.006": 10.7562340649,
			"0.007": 6.23555170837,
			"0.008": 4.4020225022,
			"0.009": 3.16166389837,
			"0.01": 1.96110831286,
			"0.011": 2.68723553869,
			"0.012": 3.57873197294,
			"0.013": 3.1846340463,
			"0.014": 2.51234827809,
			"0.015": 2.43959432047,
			"0.016": 0.964927074849,
			"0.017": 0.0,
			"0.018": 0.0,
			"0.019": 0.0,
			"0.02": 0.0,
			"0.021": 0.0,
			"0.022": 0.0,
			"0.023": 0.0,
			"0.024": 0.0,
			"0.025": 0.0
		}
	}
}
