{
	 "smiles": "OC(=O)CNC1=C(Cl)C=CC=C1", 
	 "Tm": 447.15, 
	 "num_atms": 20, 
	 "gaussian": { 
		 "optdone": 1, 
		 "sigma_profile": "yes", 
		 "theory": "DFT", 
		 "functional": "B3LYP", 
		 "basiset": "6-31G**", 
		 "properties": { 
			 "R2extent": 2857.7889, 
			 "electric_dipole_moment_norm": 3.75042083105, 
			 "electric_quadrupole_moment_norm": 24.9104470845, 
			 "total_energy": -975.074276347, 
			 "HOMO_LUMO_gap": 0.20738, 
			 "cosmo_polarized_energy": -14.06, 
			 "cosmo_cavitation_energy": 25.76, 
			 "cosmo_dispersion_energy": -19.05, 
			 "cosmo_repulsion_energy": 1.53, 
			 "cosmo_total_nonelectrostatic_energy": 8.24, 
			 "SMD_solvation_energy": 5.11 
		},
		"coords": [
			{
				"x": 3.174652545,
				"y": -1.8581368746,
				"z": -0.9464810201,
				"element": "O" 
			},
			{
				"x": 3.4652135923,
				"y": -1.2403086728,
				"z": 0.2107641034,
				"element": "C" 
			},
			{
				"x": 4.5772775269,
				"y": -0.8772353533,
				"z": 0.504989474,
				"element": "O" 
			},
			{
				"x": 2.262879872,
				"y": -1.0683007916,
				"z": 1.1556576341,
				"element": "C" 
			},
			{
				"x": 0.9818183717,
				"y": -1.249107387,
				"z": 0.4818708354,
				"element": "N" 
			},
			{
				"x": 0.3208869877,
				"y": -0.1481742273,
				"z": -0.0876696994,
				"element": "C" 
			},
			{
				"x": -1.0707065398,
				"y": -0.178137411,
				"z": -0.3040808859,
				"element": "C" 
			},
			{
				"x": -1.993107048,
				"y": -1.5944683955,
				"z": 0.2084132177,
				"element": "Cl" 
			},
			{
				"x": -1.7436801837,
				"y": 0.8805527861,
				"z": -0.904283156,
				"element": "C" 
			},
			{
				"x": -1.0350774686,
				"y": 2.0117127878,
				"z": -1.3097879145,
				"element": "C" 
			},
			{
				"x": 0.3435184553,
				"y": 2.063132504,
				"z": -1.1074732299,
				"element": "C" 
			},
			{
				"x": 1.0148527476,
				"y": 0.9999357868,
				"z": -0.506609897,
				"element": "C" 
			},
			{
				"x": 2.207820505,
				"y": -2.0116285374,
				"z": -0.9432751224,
				"element": "H" 
			},
			{
				"x": 2.3577802893,
				"y": -0.0961642696,
				"z": 1.6517898836,
				"element": "H" 
			},
			{
				"x": 2.3597204361,
				"y": -1.8365727486,
				"z": 1.9293056393,
				"element": "H" 
			},
			{
				"x": 0.3463286731,
				"y": -1.8789862524,
				"z": 0.9546188507,
				"element": "H" 
			},
			{
				"x": -2.8167783093,
				"y": 0.8127318677,
				"z": -1.0457648921,
				"element": "H" 
			},
			{
				"x": -1.5587479373,
				"y": 2.8383164256,
				"z": -1.7783254806,
				"element": "H" 
			},
			{
				"x": 0.9093715519,
				"y": 2.9351835728,
				"z": -1.4202720201,
				"element": "H" 
			},
			{
				"x": 2.0891759327,
				"y": 1.0589551903,
				"z": -0.36988632,
				"element": "H" 
			}
		],
		 "valence_orbital": [ 
			{
				"type": "occ",
				"energy": -0.3312,
				"method": "rhf"
			},
			{
				"type": "occ",
				"energy": -0.31255,
				"method": "rhf"
			},
			{
				"type": "occ",
				"energy": -0.27204,
				"method": "rhf"
			},
			{
				"type": "occ",
				"energy": -0.26204,
				"method": "rhf"
			},
			{
				"type": "occ",
				"energy": -0.23085,
				"method": "rhf"
			},
			{
				"type": "unocc",
				"energy": -0.02347,
				"method": "rhf"
			},
			{
				"type": "unocc",
				"energy": -0.01156,
				"method": "rhf"
			},
			{
				"type": "unocc",
				"energy": 0.00741,
				"method": "rhf"
			},
			{
				"type": "unocc",
				"energy": 0.01447,
				"method": "rhf"
			},
			{
				"type": "unocc",
				"energy": 0.07073,
				"method": "rhf"
			}
		],
		"cosmo_sigma_profile": { 
			"-0.025": 0.0,
			"-0.024": 0.0,
			"-0.023": 0.0,
			"-0.022": 0.0,
			"-0.021": 0.0,
			"-0.02": 0.0,
			"-0.019": 0.0,
			"-0.018": 0.0,
			"-0.017": 0.0,
			"-0.016": 0.0,
			"-0.015": 0.0,
			"-0.014": 0.121093419158,
			"-0.013": 1.51335433973,
			"-0.012": 1.83151399183,
			"-0.011": 1.74505133534,
			"-0.01": 2.32186539384,
			"-0.009": 5.85081939514,
			"-0.008": 4.45829074066,
			"-0.007": 8.44085429867,
			"-0.006": 13.4344602122,
			"-0.005": 14.2177647318,
			"-0.004": 12.9452623853,
			"-0.003": 10.8660157866,
			"-0.002": 9.89639992723,
			"-0.001": 10.5263533839,
			"0.0": 11.5545765276,
			"0.001": 12.4245732357,
			"0.002": 14.2841435276,
			"0.003": 14.2881594367,
			"0.004": 17.822500937,
			"0.005": 10.7408377278,
			"0.006": 1.61229684498,
			"0.007": 2.6061210497,
			"0.008": 3.29126732072,
			"0.009": 3.05044901014,
			"0.01": 4.97038771074,
			"0.011": 4.37001950079,
			"0.012": 6.11895962848,
			"0.013": 2.45071016176,
			"0.014": 0.109386736897,
			"0.015": 0.0,
			"0.016": 0.0,
			"0.017": 0.0,
			"0.018": 0.0,
			"0.019": 0.0,
			"0.02": 0.0,
			"0.021": 0.0,
			"0.022": 0.0,
			"0.023": 0.0,
			"0.024": 0.0,
			"0.025": 0.0
		}
	}
}
