{
	 "smiles": "FC1=CC=C(C=C1)C(=O)C1=CC=C(F)C=C1", 
	 "Tm": 379.15, 
	 "num_atms": 24, 
	 "gaussian": { 
		 "optdone": 1, 
		 "sigma_profile": "yes", 
		 "theory": "DFT", 
		 "functional": "B3LYP", 
		 "basiset": "6-31G**", 
		 "properties": { 
			 "R2extent": 4875.4134, 
			 "electric_dipole_moment_norm": 1.85062381104, 
			 "electric_quadrupole_moment_norm": 4.36846576729, 
			 "total_energy": -775.099104773, 
			 "HOMO_LUMO_gap": 0.18086, 
			 "cosmo_polarized_energy": -8.49, 
			 "cosmo_cavitation_energy": 30.02, 
			 "cosmo_dispersion_energy": -21.46, 
			 "cosmo_repulsion_energy": 1.6, 
			 "cosmo_total_nonelectrostatic_energy": 10.15, 
			 "SMD_solvation_energy": 6.55 
		},
		"coords": [
			{
				"x": -4.3754068767,
				"y": -2.7104263577,
				"z": -2.1184001788,
				"element": "F" 
			},
			{
				"x": -3.4920008558,
				"y": -1.9919816489,
				"z": -1.4006463265,
				"element": "C" 
			},
			{
				"x": -2.295664609,
				"y": -2.5873261018,
				"z": -1.0161869709,
				"element": "C" 
			},
			{
				"x": -1.3798802755,
				"y": -1.8338910331,
				"z": -0.2833136937,
				"element": "C" 
			},
			{
				"x": -1.662495463,
				"y": -0.5040279023,
				"z": 0.0684835108,
				"element": "C" 
			},
			{
				"x": -2.8946153894,
				"y": 0.05363123,
				"z": -0.3144405039,
				"element": "C" 
			},
			{
				"x": -3.8098072599,
				"y": -0.6787856181,
				"z": -1.0610311472,
				"element": "C" 
			},
			{
				"x": -0.7558479376,
				"y": 0.3341455187,
				"z": 0.9182508249,
				"element": "C" 
			},
			{
				"x": -1.2312372102,
				"y": 1.2176388351,
				"z": 1.6248220838,
				"element": "O" 
			},
			{
				"x": 0.7253247584,
				"y": 0.1044994433,
				"z": 0.9141488047,
				"element": "C" 
			},
			{
				"x": 1.4264659286,
				"y": -0.393379977,
				"z": -0.1961015725,
				"element": "C" 
			},
			{
				"x": 2.8145931692,
				"y": -0.5181331579,
				"z": -0.1651054527,
				"element": "C" 
			},
			{
				"x": 3.491091785,
				"y": -0.1483034791,
				"z": 0.9920641361,
				"element": "C" 
			},
			{
				"x": 4.830285177,
				"y": -0.2773983962,
				"z": 1.0325452576,
				"element": "F" 
			},
			{
				"x": 2.8293186495,
				"y": 0.3585670057,
				"z": 2.1082880376,
				"element": "C" 
			},
			{
				"x": 1.4472176561,
				"y": 0.4942767484,
				"z": 2.0554986212,
				"element": "C" 
			},
			{
				"x": -2.1001610407,
				"y": -3.6196198054,
				"z": -1.2849156811,
				"element": "H" 
			},
			{
				"x": -0.4532792944,
				"y": -2.2961553576,
				"z": 0.0389821301,
				"element": "H" 
			},
			{
				"x": -3.1162507667,
				"y": 1.070889333,
				"z": -0.0103005719,
				"element": "H" 
			},
			{
				"x": -4.7587011081,
				"y": -0.2589102301,
				"z": -1.3766718259,
				"element": "H" 
			},
			{
				"x": 0.8921837103,
				"y": -0.6595136724,
				"z": -1.1015598181,
				"element": "H" 
			},
			{
				"x": 3.3736092654,
				"y": -0.8876654578,
				"z": -1.017752652,
				"element": "H" 
			},
			{
				"x": 3.3998685664,
				"y": 0.6411554732,
				"z": 2.986319473,
				"element": "H" 
			},
			{
				"x": 0.8990894212,
				"y": 0.9072146079,
				"z": 2.8954235154,
				"element": "H" 
			}
		],
		 "valence_orbital": [ 
			{
				"type": "occ",
				"energy": -0.27469,
				"method": "rhf"
			},
			{
				"type": "occ",
				"energy": -0.27249,
				"method": "rhf"
			},
			{
				"type": "occ",
				"energy": -0.2639,
				"method": "rhf"
			},
			{
				"type": "occ",
				"energy": -0.25712,
				"method": "rhf"
			},
			{
				"type": "occ",
				"energy": -0.24819,
				"method": "rhf"
			},
			{
				"type": "unocc",
				"energy": -0.06733,
				"method": "rhf"
			},
			{
				"type": "unocc",
				"energy": -0.02689,
				"method": "rhf"
			},
			{
				"type": "unocc",
				"energy": -0.01884,
				"method": "rhf"
			},
			{
				"type": "unocc",
				"energy": -0.01404,
				"method": "rhf"
			},
			{
				"type": "unocc",
				"energy": 0.05343,
				"method": "rhf"
			}
		],
		"cosmo_sigma_profile": { 
			"-0.025": 0.0,
			"-0.024": 0.0,
			"-0.023": 0.0,
			"-0.022": 0.0,
			"-0.021": 0.0,
			"-0.02": 0.0,
			"-0.019": 0.0,
			"-0.018": 0.0,
			"-0.017": 0.0,
			"-0.016": 0.0,
			"-0.015": 0.0,
			"-0.014": 0.0,
			"-0.013": 0.0,
			"-0.012": 0.0,
			"-0.011": 0.0,
			"-0.01": 0.0,
			"-0.009": 0.0,
			"-0.008": 3.80699469369,
			"-0.007": 9.66992174245,
			"-0.006": 13.6790870498,
			"-0.005": 16.2716026968,
			"-0.004": 13.2193678334,
			"-0.003": 15.1674612601,
			"-0.002": 14.0739794237,
			"-0.001": 16.4313072966,
			"0.0": 25.4069230632,
			"0.001": 23.4409270558,
			"0.002": 28.550220141,
			"0.003": 23.7737444321,
			"0.004": 20.3521929453,
			"0.005": 1.86742868098,
			"0.006": 2.20634610275,
			"0.007": 2.04857070538,
			"0.008": 1.09786135866,
			"0.009": 2.16413786148,
			"0.01": 1.87990748479,
			"0.011": 2.75213534554,
			"0.012": 4.07586121747,
			"0.013": 0.577670114115,
			"0.014": 0.0,
			"0.015": 0.0,
			"0.016": 0.0,
			"0.017": 0.0,
			"0.018": 0.0,
			"0.019": 0.0,
			"0.02": 0.0,
			"0.021": 0.0,
			"0.022": 0.0,
			"0.023": 0.0,
			"0.024": 0.0,
			"0.025": 0.0
		}
	}
}
