{
	 "smiles": "[O-][N+](=O)C1=C(NC2CC2)N=C(Cl)N=C1", 
	 "Tm": 388.15, 
	 "num_atms": 21, 
	 "gaussian": { 
		 "optdone": 1, 
		 "sigma_profile": "yes", 
		 "theory": "DFT", 
		 "functional": "B3LYP", 
		 "basiset": "6-31G**", 
		 "properties": { 
			 "R2extent": 3949.9032, 
			 "electric_dipole_moment_norm": 3.45502304479, 
			 "electric_quadrupole_moment_norm": 9.70666219099, 
			 "total_energy": -1100.48095623, 
			 "HOMO_LUMO_gap": 0.15264, 
			 "cosmo_polarized_energy": -11.1, 
			 "cosmo_cavitation_energy": 28.17, 
			 "cosmo_dispersion_energy": -20.62, 
			 "cosmo_repulsion_energy": 1.65, 
			 "cosmo_total_nonelectrostatic_energy": 9.2, 
			 "SMD_solvation_energy": 3.2 
		},
		"coords": [
			{
				"x": -2.2363621754,
				"y": -2.3873820637,
				"z": -2.3995123607,
				"element": "O" 
			},
			{
				"x": -1.3537060004,
				"y": -1.7748460613,
				"z": -1.8019879879,
				"element": "N" 
			},
			{
				"x": -0.1698334824,
				"y": -2.1570610264,
				"z": -1.7499397253,
				"element": "O" 
			},
			{
				"x": -1.7054295109,
				"y": -0.5503409343,
				"z": -1.1248619731,
				"element": "C" 
			},
			{
				"x": -0.7681671277,
				"y": 0.2546677472,
				"z": -0.4009122992,
				"element": "C" 
			},
			{
				"x": 0.5336179286,
				"y": -0.0381124798,
				"z": -0.2731631713,
				"element": "N" 
			},
			{
				"x": 1.4558407156,
				"y": 0.7575085387,
				"z": 0.4931986467,
				"element": "C" 
			},
			{
				"x": 2.1807699506,
				"y": 1.9056049197,
				"z": -0.164707297,
				"element": "C" 
			},
			{
				"x": 2.9162526472,
				"y": 0.6280681856,
				"z": 0.1627264154,
				"element": "C" 
			},
			{
				"x": -1.2204165079,
				"y": 1.3810831462,
				"z": 0.2015903399,
				"element": "N" 
			},
			{
				"x": -2.4974957211,
				"y": 1.6655907949,
				"z": 0.0739546044,
				"element": "C" 
			},
			{
				"x": -3.0286913313,
				"y": 3.1294344738,
				"z": 0.8698346659,
				"element": "Cl" 
			},
			{
				"x": -3.4550940377,
				"y": 0.9958084024,
				"z": -0.5774258875,
				"element": "N" 
			},
			{
				"x": -3.0293396633,
				"y": -0.1179965598,
				"z": -1.1716086408,
				"element": "C" 
			},
			{
				"x": 0.8234838125,
				"y": -0.9133394432,
				"z": -0.6964449681,
				"element": "H" 
			},
			{
				"x": 1.1697018282,
				"y": 0.8829357063,
				"z": 1.5335541795,
				"element": "H" 
			},
			{
				"x": 1.9550264566,
				"y": 2.102572196,
				"z": -1.2074970298,
				"element": "H" 
			},
			{
				"x": 2.3671454842,
				"y": 2.7897963253,
				"z": 0.4359228014,
				"element": "H" 
			},
			{
				"x": 3.6219782748,
				"y": 0.620108703,
				"z": 0.9868461019,
				"element": "H" 
			},
			{
				"x": 3.1910081736,
				"y": -0.0183773849,
				"z": -0.666338358,
				"element": "H" 
			},
			{
				"x": -3.7585897139,
				"y": -0.7100231857,
				"z": -1.7157280563,
				"element": "H" 
			}
		],
		 "valence_orbital": [ 
			{
				"type": "occ",
				"energy": -0.31512,
				"method": "rhf"
			},
			{
				"type": "occ",
				"energy": -0.30885,
				"method": "rhf"
			},
			{
				"type": "occ",
				"energy": -0.30125,
				"method": "rhf"
			},
			{
				"type": "occ",
				"energy": -0.28095,
				"method": "rhf"
			},
			{
				"type": "occ",
				"energy": -0.25936,
				"method": "rhf"
			},
			{
				"type": "unocc",
				"energy": -0.10672,
				"method": "rhf"
			},
			{
				"type": "unocc",
				"energy": -0.04661,
				"method": "rhf"
			},
			{
				"type": "unocc",
				"energy": -0.0242,
				"method": "rhf"
			},
			{
				"type": "unocc",
				"energy": 0.02835,
				"method": "rhf"
			},
			{
				"type": "unocc",
				"energy": 0.0808,
				"method": "rhf"
			}
		],
		"cosmo_sigma_profile": { 
			"-0.025": 0.0,
			"-0.024": 0.0,
			"-0.023": 0.0,
			"-0.022": 0.0,
			"-0.021": 0.0,
			"-0.02": 0.0,
			"-0.019": 0.0,
			"-0.018": 0.0,
			"-0.017": 0.0,
			"-0.016": 0.0,
			"-0.015": 0.0,
			"-0.014": 0.0,
			"-0.013": 0.0,
			"-0.012": 0.0,
			"-0.011": 0.262798647872,
			"-0.01": 1.27360398313,
			"-0.009": 1.92549751106,
			"-0.008": 3.2695243337,
			"-0.007": 7.46240118709,
			"-0.006": 11.4864088916,
			"-0.005": 21.7891918329,
			"-0.004": 19.9519907813,
			"-0.003": 17.7468101253,
			"-0.002": 17.6267656985,
			"-0.001": 15.2344549866,
			"0.0": 12.9178274445,
			"0.001": 13.5819427553,
			"0.002": 11.8030279284,
			"0.003": 13.9267151443,
			"0.004": 12.9521903878,
			"0.005": 8.2420652925,
			"0.006": 6.40302582508,
			"0.007": 9.21679636922,
			"0.008": 8.10388177588,
			"0.009": 5.77036468181,
			"0.01": 3.90761643659,
			"0.011": 1.69641857105,
			"0.012": 0.644944594365,
			"0.013": 1.04882521229,
			"0.014": 0.129977457864,
			"0.015": 0.0,
			"0.016": 0.0,
			"0.017": 0.0,
			"0.018": 0.0,
			"0.019": 0.0,
			"0.02": 0.0,
			"0.021": 0.0,
			"0.022": 0.0,
			"0.023": 0.0,
			"0.024": 0.0,
			"0.025": 0.0
		}
	}
}
