{
	 "smiles": "CC(C)C1=C(OCC(O)=O)C=C(C)C=C1", 
	 "Tm": 400.15, 
	 "num_atms": 31, 
	 "gaussian": { 
		 "optdone": 1, 
		 "sigma_profile": "yes", 
		 "theory": "DFT", 
		 "functional": "B3LYP", 
		 "basiset": "6-31G**", 
		 "properties": { 
			 "R2extent": 3939.5128, 
			 "electric_dipole_moment_norm": 4.55265823997, 
			 "electric_quadrupole_moment_norm": 21.5905342731, 
			 "total_energy": -692.607868412, 
			 "HOMO_LUMO_gap": 0.21869, 
			 "cosmo_polarized_energy": -12.14, 
			 "cosmo_cavitation_energy": 33.26, 
			 "cosmo_dispersion_energy": -23.26, 
			 "cosmo_repulsion_energy": 1.83, 
			 "cosmo_total_nonelectrostatic_energy": 11.83, 
			 "SMD_solvation_energy": 7.3 
		},
		"coords": [
			{
				"x": -0.1827242336,
				"y": 0.1222817563,
				"z": 3.38536636,
				"element": "C" 
			},
			{
				"x": -1.2342136245,
				"y": -0.5717928817,
				"z": 2.4963112529,
				"element": "C" 
			},
			{
				"x": -2.5178868321,
				"y": 0.2698630931,
				"z": 2.3493002293,
				"element": "C" 
			},
			{
				"x": -0.6698546381,
				"y": -1.0355241787,
				"z": 1.157574334,
				"element": "C" 
			},
			{
				"x": -0.1735848115,
				"y": -0.1593199797,
				"z": 0.1670706966,
				"element": "C" 
			},
			{
				"x": -0.2165781434,
				"y": 1.1913799136,
				"z": 0.4602926433,
				"element": "O" 
			},
			{
				"x": 0.2664272296,
				"y": 2.1340191357,
				"z": -0.4843869615,
				"element": "C" 
			},
			{
				"x": 0.1035565349,
				"y": 3.5432182371,
				"z": 0.0882404088,
				"element": "C" 
			},
			{
				"x": -0.4416165901,
				"y": 3.6157718847,
				"z": 1.314392789,
				"element": "O" 
			},
			{
				"x": 0.4479036086,
				"y": 4.5150080793,
				"z": -0.5358112148,
				"element": "O" 
			},
			{
				"x": 0.3320275817,
				"y": -0.638286321,
				"z": -1.0413408398,
				"element": "C" 
			},
			{
				"x": 0.36487411,
				"y": -2.0145439586,
				"z": -1.3157727802,
				"element": "C" 
			},
			{
				"x": 0.9165760458,
				"y": -2.5115935168,
				"z": -2.6311505897,
				"element": "C" 
			},
			{
				"x": -0.1216954516,
				"y": -2.8909233985,
				"z": -0.3473791778,
				"element": "C" 
			},
			{
				"x": -0.6255814504,
				"y": -2.3989845043,
				"z": 0.8593339461,
				"element": "C" 
			},
			{
				"x": 0.6833365487,
				"y": -0.5277448972,
				"z": 3.5442721574,
				"element": "H" 
			},
			{
				"x": -0.6104859143,
				"y": 0.3613750704,
				"z": 4.3649893302,
				"element": "H" 
			},
			{
				"x": 0.1835479241,
				"y": 1.0519591864,
				"z": 2.9415419493,
				"element": "H" 
			},
			{
				"x": -1.5262765348,
				"y": -1.488927782,
				"z": 3.023963497,
				"element": "H" 
			},
			{
				"x": -3.2803579249,
				"y": -0.2775814019,
				"z": 1.7864657043,
				"element": "H" 
			},
			{
				"x": -2.3359663112,
				"y": 1.2107688504,
				"z": 1.8229186403,
				"element": "H" 
			},
			{
				"x": -2.9314999737,
				"y": 0.5089400839,
				"z": 3.3349861447,
				"element": "H" 
			},
			{
				"x": 1.3294086052,
				"y": 1.9770433264,
				"z": -0.7054533931,
				"element": "H" 
			},
			{
				"x": -0.2911332873,
				"y": 2.0835175191,
				"z": -1.4278361262,
				"element": "H" 
			},
			{
				"x": -0.6356851981,
				"y": 2.7098727984,
				"z": 1.6129968802,
				"element": "H" 
			},
			{
				"x": 0.7085916432,
				"y": 0.0509033458,
				"z": -1.7890636237,
				"element": "H" 
			},
			{
				"x": 0.8740870535,
				"y": -3.6021827245,
				"z": -2.6921318066,
				"element": "H" 
			},
			{
				"x": 0.3528052473,
				"y": -2.1070265138,
				"z": -3.4797490678,
				"element": "H" 
			},
			{
				"x": 1.961630726,
				"y": -2.2095617504,
				"z": -2.7662566729,
				"element": "H" 
			},
			{
				"x": -0.1095528481,
				"y": -3.9616595402,
				"z": -0.5305864915,
				"element": "H" 
			},
			{
				"x": -0.9999790906,
				"y": -3.1005689314,
				"z": 1.6008017821,
				"element": "H" 
			}
		],
		 "valence_orbital": [ 
			{
				"type": "occ",
				"energy": -0.32628,
				"method": "rhf"
			},
			{
				"type": "occ",
				"energy": -0.31311,
				"method": "rhf"
			},
			{
				"type": "occ",
				"energy": -0.27589,
				"method": "rhf"
			},
			{
				"type": "occ",
				"energy": -0.25008,
				"method": "rhf"
			},
			{
				"type": "occ",
				"energy": -0.23019,
				"method": "rhf"
			},
			{
				"type": "unocc",
				"energy": -0.0115,
				"method": "rhf"
			},
			{
				"type": "unocc",
				"energy": 0.00015,
				"method": "rhf"
			},
			{
				"type": "unocc",
				"energy": 0.01018,
				"method": "rhf"
			},
			{
				"type": "unocc",
				"energy": 0.05807,
				"method": "rhf"
			},
			{
				"type": "unocc",
				"energy": 0.08572,
				"method": "rhf"
			}
		],
		"cosmo_sigma_profile": { 
			"-0.025": 0.0,
			"-0.024": 0.0,
			"-0.023": 0.0,
			"-0.022": 0.0,
			"-0.021": 0.0,
			"-0.02": 0.0,
			"-0.019": 0.0,
			"-0.018": 0.0,
			"-0.017": 0.0,
			"-0.016": 0.0,
			"-0.015": 0.0,
			"-0.014": 0.0111941232162,
			"-0.013": 0.100984353391,
			"-0.012": 0.0648278412851,
			"-0.011": 0.353183676269,
			"-0.01": 1.12711728552,
			"-0.009": 1.85810374352,
			"-0.008": 8.73828542431,
			"-0.007": 9.05025586902,
			"-0.006": 8.65373837765,
			"-0.005": 10.5121688195,
			"-0.004": 16.5629218596,
			"-0.003": 22.3794527055,
			"-0.002": 26.792646012,
			"-0.001": 25.0664522033,
			"0.0": 28.4836746785,
			"0.001": 23.8118808825,
			"0.002": 15.1981096774,
			"0.003": 10.2802347663,
			"0.004": 8.94578835981,
			"0.005": 8.53651760312,
			"0.006": 9.50246416591,
			"0.007": 3.41750137132,
			"0.008": 2.30781154229,
			"0.009": 4.41934155548,
			"0.01": 4.92585745713,
			"0.011": 4.79996389471,
			"0.012": 4.78072783697,
			"0.013": 1.24165196451,
			"0.014": 0.0,
			"0.015": 0.0,
			"0.016": 0.0,
			"0.017": 0.0,
			"0.018": 0.0,
			"0.019": 0.0,
			"0.02": 0.0,
			"0.021": 0.0,
			"0.022": 0.0,
			"0.023": 0.0,
			"0.024": 0.0,
			"0.0": 0.0
		}
	}
}
