{
	 "smiles": "NC(=O)C1=CC=CO1", 
	 "Tm": 414.15, 
	 "num_atms": 13, 
	 "gaussian": { 
		 "optdone": 1, 
		 "sigma_profile": "yes", 
		 "theory": "DFT", 
		 "functional": "B3LYP", 
		 "basiset": "6-31G**", 
		 "properties": { 
			 "R2extent": 1623.0698, 
			 "electric_dipole_moment_norm": 3.53654066851, 
			 "electric_quadrupole_moment_norm": 17.4690566543, 
			 "total_energy": -398.733263146, 
			 "HOMO_LUMO_gap": 0.20702, 
			 "cosmo_polarized_energy": -12.08, 
			 "cosmo_cavitation_energy": 17.8, 
			 "cosmo_dispersion_energy": -13.39, 
			 "cosmo_repulsion_energy": 1.13, 
			 "cosmo_total_nonelectrostatic_energy": 5.54, 
			 "SMD_solvation_energy": 5.04 
		},
		"coords": [
			{
				"x": -1.8232989203,
				"y": 2.4880241467,
				"z": -0.3996328352,
				"element": "N" 
			},
			{
				"x": -0.5450404635,
				"y": 2.8000035146,
				"z": -0.0339511941,
				"element": "C" 
			},
			{
				"x": 0.0083841243,
				"y": 3.8535901465,
				"z": -0.328277051,
				"element": "O" 
			},
			{
				"x": 0.1524425984,
				"y": 1.7667066918,
				"z": 0.7581946284,
				"element": "C" 
			},
			{
				"x": 1.4137085896,
				"y": 1.7435615476,
				"z": 1.2815876748,
				"element": "C" 
			},
			{
				"x": 1.5495258932,
				"y": 0.490318301,
				"z": 1.9542697139,
				"element": "C" 
			},
			{
				"x": 0.3612897946,
				"y": -0.1595192439,
				"z": 1.7920452069,
				"element": "C" 
			},
			{
				"x": -0.5042822679,
				"y": 0.5997227216,
				"z": 1.0665654465,
				"element": "O" 
			},
			{
				"x": -2.2521077541,
				"y": 1.6137130284,
				"z": -0.1433317432,
				"element": "H" 
			},
			{
				"x": -2.3379074846,
				"y": 3.1636275446,
				"z": -0.941572488,
				"element": "H" 
			},
			{
				"x": 2.1414554837,
				"y": 2.5352026354,
				"z": 1.1869932568,
				"element": "H" 
			},
			{
				"x": 2.4138611112,
				"y": 0.1211654221,
				"z": 2.4870512368,
				"element": "H" 
			},
			{
				"x": -0.0101307046,
				"y": -1.1201164562,
				"z": 2.1145581473,
				"element": "H" 
			}
		],
		 "valence_orbital": [ 
			{
				"type": "occ",
				"energy": -0.38645,
				"method": "rhf"
			},
			{
				"type": "occ",
				"energy": -0.29031,
				"method": "rhf"
			},
			{
				"type": "occ",
				"energy": -0.2643,
				"method": "rhf"
			},
			{
				"type": "occ",
				"energy": -0.25265,
				"method": "rhf"
			},
			{
				"type": "occ",
				"energy": -0.23728,
				"method": "rhf"
			},
			{
				"type": "unocc",
				"energy": -0.03026,
				"method": "rhf"
			},
			{
				"type": "unocc",
				"energy": 0.04525,
				"method": "rhf"
			},
			{
				"type": "unocc",
				"energy": 0.08601,
				"method": "rhf"
			},
			{
				"type": "unocc",
				"energy": 0.11855,
				"method": "rhf"
			},
			{
				"type": "unocc",
				"energy": 0.1202,
				"method": "rhf"
			}
		],
		"cosmo_sigma_profile": { 
			"-0.025": 0.0,
			"-0.024": 0.0,
			"-0.023": 0.0,
			"-0.022": 0.0,
			"-0.021": 0.0,
			"-0.02": 0.0,
			"-0.019": 0.0,
			"-0.018": 0.0,
			"-0.017": 0.0,
			"-0.016": 0.0,
			"-0.015": 0.08699853607,
			"-0.014": 1.27189951217,
			"-0.013": 1.92564145088,
			"-0.012": 1.95558405305,
			"-0.011": 2.65877632055,
			"-0.01": 2.19939909469,
			"-0.009": 3.61774374498,
			"-0.008": 4.27485760199,
			"-0.007": 6.81599024221,
			"-0.006": 5.64325134268,
			"-0.005": 6.80679284543,
			"-0.004": 6.26612859477,
			"-0.003": 6.99289456434,
			"-0.002": 5.02891773719,
			"-0.001": 7.25988158159,
			"0.0": 9.26745546242,
			"0.001": 12.5010855513,
			"0.002": 11.4036404487,
			"0.003": 13.7037871952,
			"0.004": 9.3232721599,
			"0.005": 3.20431063106,
			"0.006": 1.46668286336,
			"0.007": 0.967198716505,
			"0.008": 1.25860273053,
			"0.009": 1.48881809842,
			"0.01": 1.71462644991,
			"0.011": 1.2967909622,
			"0.012": 2.13794308953,
			"0.013": 3.98362541423,
			"0.014": 5.33972136504,
			"0.015": 0.773539303081,
			"0.016": 0.0,
			"0.017": 0.0,
			"0.018": 0.0,
			"0.019": 0.0,
			"0.02": 0.0,
			"0.021": 0.0,
			"0.022": 0.0,
			"0.023": 0.0,
			"0.024": 0.0,
			"0.025": 0.0
		}
	}
}
