{
	 "smiles": "OC1CCCCC1C1=CC=C(Cl)C=C1", 
	 "Tm": 357.15, 
	 "num_atms": 29, 
	 "gaussian": { 
		 "optdone": 1, 
		 "sigma_profile": "yes", 
		 "theory": "DFT", 
		 "functional": "B3LYP", 
		 "basiset": "6-31G**", 
		 "properties": { 
			 "R2extent": 4410.3917, 
			 "electric_dipole_moment_norm": 2.45629808655, 
			 "electric_quadrupole_moment_norm": 7.94464512675, 
			 "total_energy": -1001.73137741, 
			 "HOMO_LUMO_gap": 0.21997, 
			 "cosmo_polarized_energy": -8.27, 
			 "cosmo_cavitation_energy": 30.89, 
			 "cosmo_dispersion_energy": -22.92, 
			 "cosmo_repulsion_energy": 1.79, 
			 "cosmo_total_nonelectrostatic_energy": 9.77, 
			 "SMD_solvation_energy": 3.98 
		},
		"coords": [
			{
				"x": 1.5961952398,
				"y": 1.7338307419,
				"z": 2.6319651551,
				"element": "O" 
			},
			{
				"x": 0.7883101922,
				"y": 0.8464540415,
				"z": 1.854333342,
				"element": "C" 
			},
			{
				"x": 1.6305463674,
				"y": -0.1999904153,
				"z": 1.0920585208,
				"element": "C" 
			},
			{
				"x": 2.0469529184,
				"y": 0.2364841934,
				"z": -0.3341075573,
				"element": "C" 
			},
			{
				"x": 2.0410688883,
				"y": 1.7622041002,
				"z": -0.5015333828,
				"element": "C" 
			},
			{
				"x": 0.6629257659,
				"y": 2.3952981763,
				"z": -0.1812025167,
				"element": "C" 
			},
			{
				"x": -0.1543557815,
				"y": 1.6560969069,
				"z": 0.9201234095,
				"element": "C" 
			},
			{
				"x": -1.3096719352,
				"y": 0.7862121085,
				"z": 0.4274896077,
				"element": "C" 
			},
			{
				"x": -2.3266805473,
				"y": 0.4573190831,
				"z": 1.3402044926,
				"element": "C" 
			},
			{
				"x": -3.40648598,
				"y": -0.3472046426,
				"z": 0.9848274114,
				"element": "C" 
			},
			{
				"x": -3.4836344788,
				"y": -0.8390438676,
				"z": -0.3179100269,
				"element": "C" 
			},
			{
				"x": -4.8425464776,
				"y": -1.8538693037,
				"z": -0.7856323719,
				"element": "Cl" 
			},
			{
				"x": -2.5012033174,
				"y": -0.5278559081,
				"z": -1.252888244,
				"element": "C" 
			},
			{
				"x": -1.42634802,
				"y": 0.2801360251,
				"z": -0.8735365613,
				"element": "C" 
			},
			{
				"x": 2.2366985184,
				"y": 2.1560171632,
				"z": 2.0464162861,
				"element": "H" 
			},
			{
				"x": 0.1778101796,
				"y": 0.3294490213,
				"z": 2.6010492275,
				"element": "H" 
			},
			{
				"x": 2.5113120281,
				"y": -0.4020406212,
				"z": 1.7113956998,
				"element": "H" 
			},
			{
				"x": 1.0696980487,
				"y": -1.1389454848,
				"z": 1.0351367392,
				"element": "H" 
			},
			{
				"x": 1.3601256816,
				"y": -0.2007795943,
				"z": -1.066891339,
				"element": "H" 
			},
			{
				"x": 3.0377923976,
				"y": -0.1633495906,
				"z": -0.5760419542,
				"element": "H" 
			},
			{
				"x": 2.3401391984,
				"y": 2.0331697169,
				"z": -1.5202443742,
				"element": "H" 
			},
			{
				"x": 2.818276348,
				"y": 2.1958711257,
				"z": 0.1452868889,
				"element": "H" 
			},
			{
				"x": 0.0665320828,
				"y": 2.457003874,
				"z": -1.0962792943,
				"element": "H" 
			},
			{
				"x": 0.8159846897,
				"y": 3.4327206618,
				"z": 0.133081091,
				"element": "H" 
			},
			{
				"x": -0.6030376192,
				"y": 2.4165808422,
				"z": 1.5689597628,
				"element": "H" 
			},
			{
				"x": -2.2783067299,
				"y": 0.848004866,
				"z": 2.3538312567,
				"element": "H" 
			},
			{
				"x": -4.1825629697,
				"y": -0.5846378067,
				"z": 1.704227454,
				"element": "H" 
			},
			{
				"x": -2.5737952931,
				"y": -0.9084288736,
				"z": -2.2658923129,
				"element": "H" 
			},
			{
				"x": -0.679439395,
				"y": 0.5167934605,
				"z": -1.6232264097,
				"element": "H" 
			}
		],
		 "valence_orbital": [ 
			{
				"type": "occ",
				"energy": -0.30981,
				"method": "rhf"
			},
			{
				"type": "occ",
				"energy": -0.2976,
				"method": "rhf"
			},
			{
				"type": "occ",
				"energy": -0.26731,
				"method": "rhf"
			},
			{
				"type": "occ",
				"energy": -0.262,
				"method": "rhf"
			},
			{
				"type": "occ",
				"energy": -0.23539,
				"method": "rhf"
			},
			{
				"type": "unocc",
				"energy": -0.01542,
				"method": "rhf"
			},
			{
				"type": "unocc",
				"energy": -0.01167,
				"method": "rhf"
			},
			{
				"type": "unocc",
				"energy": 0.03099,
				"method": "rhf"
			},
			{
				"type": "unocc",
				"energy": 0.05738,
				"method": "rhf"
			},
			{
				"type": "unocc",
				"energy": 0.09228,
				"method": "rhf"
			}
		],
		"cosmo_sigma_profile": { 
			"-0.025": 0.0,
			"-0.024": 0.0,
			"-0.023": 0.0,
			"-0.022": 0.0,
			"-0.021": 0.0,
			"-0.02": 0.0,
			"-0.019": 0.0,
			"-0.018": 0.0,
			"-0.017": 0.0,
			"-0.016": 0.0,
			"-0.015": 0.0,
			"-0.014": 0.0472443054892,
			"-0.013": 0.643936063382,
			"-0.012": 0.765733089861,
			"-0.011": 1.35275617852,
			"-0.01": 0.517451293792,
			"-0.009": 0.707459530915,
			"-0.008": 1.24311985373,
			"-0.007": 3.42144910625,
			"-0.006": 8.50924286633,
			"-0.005": 13.0338421499,
			"-0.004": 12.6379167096,
			"-0.003": 19.9519341785,
			"-0.002": 28.1252482248,
			"-0.001": 26.7862244433,
			"0.0": 27.5294521022,
			"0.001": 22.489841569,
			"0.002": 15.6264453986,
			"0.003": 14.9234838656,
			"0.004": 19.4951634335,
			"0.005": 13.1497057438,
			"0.006": 1.58231591812,
			"0.007": 1.0712904838,
			"0.008": 1.35916919554,
			"0.009": 1.15950478085,
			"0.01": 1.00737198769,
			"0.011": 0.741379377205,
			"0.012": 1.60529711471,
			"0.013": 1.47842870769,
			"0.014": 1.91407948748,
			"0.015": 1.46311957397,
			"0.016": 0.0,
			"0.017": 0.0,
			"0.018": 0.0,
			"0.019": 0.0,
			"0.02": 0.0,
			"0.021": 0.0,
			"0.022": 0.0,
			"0.023": 0.0,
			"0.024": 0.0,
			"0.025": 0.0
		}
	}
}
