{
	 "smiles": "COC(=O)C1=C(N)N=C2CCCCC2=C1", 
	 "Tm": 400.15, 
	 "num_atms": 29, 
	 "gaussian": { 
		 "optdone": 1, 
		 "sigma_profile": "yes", 
		 "theory": "DFT", 
		 "functional": "B3LYP", 
		 "basiset": "6-31G**", 
		 "properties": { 
			 "R2extent": 3947.699, 
			 "electric_dipole_moment_norm": 1.58083965664, 
			 "electric_quadrupole_moment_norm": 15.1374569948, 
			 "total_energy": -687.597278059, 
			 "HOMO_LUMO_gap": 0.16617, 
			 "cosmo_polarized_energy": -10.4, 
			 "cosmo_cavitation_energy": 31.13, 
			 "cosmo_dispersion_energy": -23.38, 
			 "cosmo_repulsion_energy": 1.85, 
			 "cosmo_total_nonelectrostatic_energy": 9.6, 
			 "SMD_solvation_energy": 4.56 
		},
		"coords": [
			{
				"x": -3.0462323991,
				"y": 3.2802581292,
				"z": 0.871793855,
				"element": "C" 
			},
			{
				"x": -1.8812933845,
				"y": 2.4739982483,
				"z": 1.1109642597,
				"element": "O" 
			},
			{
				"x": -1.6903403931,
				"y": 1.455832394,
				"z": 0.2174613074,
				"element": "C" 
			},
			{
				"x": -2.4632143676,
				"y": 1.2730061627,
				"z": -0.7053673349,
				"element": "O" 
			},
			{
				"x": -0.4873335261,
				"y": 0.6404643495,
				"z": 0.4808176102,
				"element": "C" 
			},
			{
				"x": 0.4317683675,
				"y": 0.8028505366,
				"z": 1.5597310313,
				"element": "C" 
			},
			{
				"x": 0.2828839011,
				"y": 1.7260299934,
				"z": 2.5495274424,
				"element": "N" 
			},
			{
				"x": 1.5257183776,
				"y": 0.0182217154,
				"z": 1.6846145278,
				"element": "N" 
			},
			{
				"x": 1.7345522824,
				"y": -0.9472478555,
				"z": 0.792873401,
				"element": "C" 
			},
			{
				"x": 2.953194847,
				"y": -1.8220740607,
				"z": 0.9326330702,
				"element": "C" 
			},
			{
				"x": 3.6976208148,
				"y": -1.9736148406,
				"z": -0.4159764699,
				"element": "C" 
			},
			{
				"x": 2.7528444807,
				"y": -2.2404261758,
				"z": -1.6259818743,
				"element": "C" 
			},
			{
				"x": 1.2619865192,
				"y": -2.3353165321,
				"z": -1.2267078014,
				"element": "C" 
			},
			{
				"x": 0.8816902553,
				"y": -1.2087637444,
				"z": -0.299621564,
				"element": "C" 
			},
			{
				"x": -0.2247962331,
				"y": -0.3888998967,
				"z": -0.4388042102,
				"element": "C" 
			},
			{
				"x": -2.9882081441,
				"y": 3.7589464193,
				"z": -0.1085751724,
				"element": "H" 
			},
			{
				"x": -3.9508748829,
				"y": 2.6691974601,
				"z": 0.9114710648,
				"element": "H" 
			},
			{
				"x": -3.0542394572,
				"y": 4.0289320854,
				"z": 1.664369939,
				"element": "H" 
			},
			{
				"x": 1.0651255916,
				"y": 1.8327870771,
				"z": 3.1751862165,
				"element": "H" 
			},
			{
				"x": -0.4072566354,
				"y": 2.4520295243,
				"z": 2.454774579,
				"element": "H" 
			},
			{
				"x": 3.6102262667,
				"y": -1.4171513037,
				"z": 1.7062970079,
				"element": "H" 
			},
			{
				"x": 2.6274173552,
				"y": -2.8151519276,
				"z": 1.2758544048,
				"element": "H" 
			},
			{
				"x": 4.4349962067,
				"y": -2.7776838024,
				"z": -0.3216385481,
				"element": "H" 
			},
			{
				"x": 4.2675391507,
				"y": -1.0563050533,
				"z": -0.5976366421,
				"element": "H" 
			},
			{
				"x": 3.0460669522,
				"y": -3.1596161582,
				"z": -2.1445358615,
				"element": "H" 
			},
			{
				"x": 2.8601642294,
				"y": -1.4283078216,
				"z": -2.352921422,
				"element": "H" 
			},
			{
				"x": 0.6281957222,
				"y": -2.3330893696,
				"z": -2.1199362308,
				"element": "H" 
			},
			{
				"x": 1.0862820646,
				"y": -3.2998082308,
				"z": -0.727399095,
				"element": "H" 
			},
			{
				"x": -0.9211839615,
				"y": -0.5141973224,
				"z": -1.2627674904,
				"element": "H" 
			}
		],
		 "valence_orbital": [ 
			{
				"type": "occ",
				"energy": -0.29665,
				"method": "rhf"
			},
			{
				"type": "occ",
				"energy": -0.27535,
				"method": "rhf"
			},
			{
				"type": "occ",
				"energy": -0.26825,
				"method": "rhf"
			},
			{
				"type": "occ",
				"energy": -0.24873,
				"method": "rhf"
			},
			{
				"type": "occ",
				"energy": -0.20436,
				"method": "rhf"
			},
			{
				"type": "unocc",
				"energy": -0.03819,
				"method": "rhf"
			},
			{
				"type": "unocc",
				"energy": 0.00858,
				"method": "rhf"
			},
			{
				"type": "unocc",
				"energy": 0.05834,
				"method": "rhf"
			},
			{
				"type": "unocc",
				"energy": 0.08797,
				"method": "rhf"
			},
			{
				"type": "unocc",
				"energy": 0.09994,
				"method": "rhf"
			}
		],
		"cosmo_sigma_profile": { 
			"-0.025": 0.0,
			"-0.024": 0.0,
			"-0.023": 0.0,
			"-0.022": 0.0,
			"-0.021": 0.0,
			"-0.02": 0.0,
			"-0.019": 0.0,
			"-0.018": 0.0,
			"-0.017": 0.0,
			"-0.016": 0.0,
			"-0.015": 0.0,
			"-0.014": 0.0283172963789,
			"-0.013": 0.615490562827,
			"-0.012": 0.965544057563,
			"-0.011": 1.11545107739,
			"-0.01": 1.41358943373,
			"-0.009": 1.78993020632,
			"-0.008": 1.68721386721,
			"-0.007": 1.75002708085,
			"-0.006": 6.37886536176,
			"-0.005": 9.69725990041,
			"-0.004": 18.0615370555,
			"-0.003": 26.2550409486,
			"-0.002": 29.538873269,
			"-0.001": 30.2298986531,
			"0.0": 25.9713221723,
			"0.001": 19.5067461827,
			"0.002": 17.2288020217,
			"0.003": 12.6666802651,
			"0.004": 6.36917453377,
			"0.005": 4.05376463482,
			"0.006": 5.21690732524,
			"0.007": 3.80241554573,
			"0.008": 3.12420476202,
			"0.009": 3.23004984799,
			"0.01": 2.47473430682,
			"0.011": 3.136665076,
			"0.012": 5.4579068656,
			"0.013": 2.36797411779,
			"0.014": 0.654259466592,
			"0.015": 0.148985712149,
			"0.016": 0.0,
			"0.017": 0.0,
			"0.018": 0.0,
			"0.019": 0.0,
			"0.02": 0.0,
			"0.021": 0.0,
			"0.022": 0.0,
			"0.023": 0.0,
			"0.024": 0.0,
			"0.025": 0.0
		}
	}
}
