{
	 "smiles": "CC12CCC3C(CCC4CC(O)CCC34C)C11OC1CC2C1=COC(=O)C=C1", 
	 "Tm": 428.15, 
	 "num_atms": 60, 
	 "gaussian": { 
		 "optdone": 1, 
		 "sigma_profile": "yes", 
		 "theory": "DFT", 
		 "functional": "B3LYP", 
		 "basiset": "6-31G**", 
		 "properties": { 
			 "R2extent": 15343.2561, 
			 "electric_dipole_moment_norm": 3.76554578381, 
			 "electric_quadrupole_moment_norm": 44.6196743187, 
			 "total_energy": -1234.70202578, 
			 "HOMO_LUMO_gap": 0.17141, 
			 "cosmo_polarized_energy": -20.49, 
			 "cosmo_cavitation_energy": 53.12, 
			 "cosmo_dispersion_energy": -36.83, 
			 "cosmo_repulsion_energy": 2.67, 
			 "cosmo_total_nonelectrostatic_energy": 18.96, 
			 "SMD_solvation_energy": 8.41 
		},
		"coords": [
			{
				"x": 2.2418511729,
				"y": -1.5745661141,
				"z": 1.9211367634,
				"element": "C" 
			},
			{
				"x": 0.9752147412,
				"y": -2.1436866395,
				"z": 1.2641089372,
				"element": "C" 
			},
			{
				"x": -0.3030450563,
				"y": -1.4189241742,
				"z": 1.7438276308,
				"element": "C" 
			},
			{
				"x": -0.3942906365,
				"y": 0.0235751619,
				"z": 1.2262542123,
				"element": "C" 
			},
			{
				"x": -0.3476931936,
				"y": 0.1258310579,
				"z": -0.3134058573,
				"element": "C" 
			},
			{
				"x": 0.8866117095,
				"y": -0.6228176393,
				"z": -0.8858193473,
				"element": "C" 
			},
			{
				"x": 0.8885188135,
				"y": -0.6590977429,
				"z": -2.4394674466,
				"element": "C" 
			},
			{
				"x": 0.0298609643,
				"y": 0.4557035513,
				"z": -3.0597431743,
				"element": "C" 
			},
			{
				"x": 0.1888383135,
				"y": 1.7525040792,
				"z": -2.2544768622,
				"element": "C" 
			},
			{
				"x": -0.2638955631,
				"y": 3.014480147,
				"z": -3.0244300985,
				"element": "C" 
			},
			{
				"x": -1.7806857964,
				"y": 3.2190543054,
				"z": -3.0810082294,
				"element": "C" 
			},
			{
				"x": -2.1274542384,
				"y": 4.385446577,
				"z": -3.8231113767,
				"element": "O" 
			},
			{
				"x": -2.3539810097,
				"y": 3.2327853144,
				"z": -1.6626026735,
				"element": "C" 
			},
			{
				"x": -2.0024652565,
				"y": 1.9296041345,
				"z": -0.9325237321,
				"element": "C" 
			},
			{
				"x": -0.4813656303,
				"y": 1.613143439,
				"z": -0.8418430477,
				"element": "C" 
			},
			{
				"x": 0.2083017411,
				"y": 2.620525835,
				"z": 0.1048550966,
				"element": "C" 
			},
			{
				"x": 0.989467405,
				"y": -2.0129934975,
				"z": -0.2691780945,
				"element": "C" 
			},
			{
				"x": 1.8747112642,
				"y": -2.9553272549,
				"z": -0.9133555822,
				"element": "O" 
			},
			{
				"x": 0.4669270714,
				"y": -3.2653979744,
				"z": -0.8453488563,
				"element": "C" 
			},
			{
				"x": 0.1097376355,
				"y": -4.240901299,
				"z": 0.253335931,
				"element": "C" 
			},
			{
				"x": 0.8936771299,
				"y": -3.7074189854,
				"z": 1.4761469901,
				"element": "C" 
			},
			{
				"x": 0.4271471798,
				"y": -4.1774931042,
				"z": 2.8366012738,
				"element": "C" 
			},
			{
				"x": -0.8688132666,
				"y": -4.4393690302,
				"z": 3.1465280375,
				"element": "C" 
			},
			{
				"x": -1.2889473204,
				"y": -4.8464814064,
				"z": 4.3609218438,
				"element": "O" 
			},
			{
				"x": -0.4104958753,
				"y": -5.035716398,
				"z": 5.4505928978,
				"element": "C" 
			},
			{
				"x": -0.8892110736,
				"y": -5.3875271803,
				"z": 6.5021315506,
				"element": "O" 
			},
			{
				"x": 0.9833451071,
				"y": -4.7825143602,
				"z": 5.1424847189,
				"element": "C" 
			},
			{
				"x": 1.3730553417,
				"y": -4.3788090211,
				"z": 3.9054978483,
				"element": "C" 
			},
			{
				"x": 2.2323433002,
				"y": -1.7458112142,
				"z": 3.0031603707,
				"element": "H" 
			},
			{
				"x": 3.1343620343,
				"y": -2.0522200154,
				"z": 1.5041000941,
				"element": "H" 
			},
			{
				"x": 2.3425432885,
				"y": -0.4967497956,
				"z": 1.7666329457,
				"element": "H" 
			},
			{
				"x": -0.3452393646,
				"y": -1.4227438546,
				"z": 2.8388943937,
				"element": "H" 
			},
			{
				"x": -1.185637408,
				"y": -1.9755511016,
				"z": 1.4001910825,
				"element": "H" 
			},
			{
				"x": 0.423499174,
				"y": 0.6059486718,
				"z": 1.6621817235,
				"element": "H" 
			},
			{
				"x": -1.3199915694,
				"y": 0.4770980929,
				"z": 1.5996962502,
				"element": "H" 
			},
			{
				"x": -1.2262874046,
				"y": -0.4197699585,
				"z": -0.6884358284,
				"element": "H" 
			},
			{
				"x": 1.7834030786,
				"y": -0.0760484719,
				"z": -0.5587611855,
				"element": "H" 
			},
			{
				"x": 1.9213569377,
				"y": -0.5617393409,
				"z": -2.7897900465,
				"element": "H" 
			},
			{
				"x": 0.5439103757,
				"y": -1.6287126349,
				"z": -2.8074635855,
				"element": "H" 
			},
			{
				"x": -1.0247028443,
				"y": 0.1533181719,
				"z": -3.0923724636,
				"element": "H" 
			},
			{
				"x": 0.3309899886,
				"y": 0.6131058718,
				"z": -4.1020680187,
				"element": "H" 
			},
			{
				"x": 1.2694866139,
				"y": 1.8737607075,
				"z": -2.0872093572,
				"element": "H" 
			},
			{
				"x": 0.1704663515,
				"y": 3.9079735595,
				"z": -2.5517191858,
				"element": "H" 
			},
			{
				"x": 0.1377035194,
				"y": 2.9849341146,
				"z": -4.0439086852,
				"element": "H" 
			},
			{
				"x": -2.2432581745,
				"y": 2.3951981313,
				"z": -3.6397828919,
				"element": "H" 
			},
			{
				"x": -1.7268191848,
				"y": 5.1432204296,
				"z": -3.3750244752,
				"element": "H" 
			},
			{
				"x": -1.9535716069,
				"y": 4.1037773397,
				"z": -1.1233947708,
				"element": "H" 
			},
			{
				"x": -3.441044898,
				"y": 3.3633546291,
				"z": -1.7053892318,
				"element": "H" 
			},
			{
				"x": -2.5015892308,
				"y": 1.1071635112,
				"z": -1.4626282788,
				"element": "H" 
			},
			{
				"x": -2.4304919846,
				"y": 1.937431134,
				"z": 0.0773082691,
				"element": "H" 
			},
			{
				"x": 1.2518145713,
				"y": 2.3413269123,
				"z": 0.2894727448,
				"element": "H" 
			},
			{
				"x": -0.2964963624,
				"y": 2.6959769889,
				"z": 1.0721081249,
				"element": "H" 
			},
			{
				"x": 0.2204537096,
				"y": 3.6237197619,
				"z": -0.3295691735,
				"element": "H" 
			},
			{
				"x": -0.0437843166,
				"y": -3.3181777717,
				"z": -1.8043084523,
				"element": "H" 
			},
			{
				"x": 0.3803453404,
				"y": -5.2755909698,
				"z": 0.0179479302,
				"element": "H" 
			},
			{
				"x": -0.9769125918,
				"y": -4.2147959259,
				"z": 0.3992343662,
				"element": "H" 
			},
			{
				"x": 1.9199651494,
				"y": -4.0673704322,
				"z": 1.3528403282,
				"element": "H" 
			},
			{
				"x": -1.6995152086,
				"y": -4.3568708744,
				"z": 2.4551891476,
				"element": "H" 
			},
			{
				"x": 1.6865737329,
				"y": -4.9421362464,
				"z": 5.951183731,
				"element": "H" 
			},
			{
				"x": 2.4279033098,
				"y": -4.2100312011,
				"z": 3.7026747743,
				"element": "H" 
			}
		],
		 "valence_orbital": [ 
			{
				"type": "occ",
				"energy": -0.28373,
				"method": "rhf"
			},
			{
				"type": "occ",
				"energy": -0.27093,
				"method": "rhf"
			},
			{
				"type": "occ",
				"energy": -0.25945,
				"method": "rhf"
			},
			{
				"type": "occ",
				"energy": -0.25773,
				"method": "rhf"
			},
			{
				"type": "occ",
				"energy": -0.23218,
				"method": "rhf"
			},
			{
				"type": "unocc",
				"energy": -0.06077,
				"method": "rhf"
			},
			{
				"type": "unocc",
				"energy": 0.00649,
				"method": "rhf"
			},
			{
				"type": "unocc",
				"energy": 0.05739,
				"method": "rhf"
			},
			{
				"type": "unocc",
				"energy": 0.06643,
				"method": "rhf"
			},
			{
				"type": "unocc",
				"energy": 0.07294,
				"method": "rhf"
			}
		],
		"cosmo_sigma_profile": { 
			"-0.025": 0.0,
			"-0.024": 0.0,
			"-0.023": 0.0,
			"-0.022": 0.0,
			"-0.021": 0.0,
			"-0.02": 0.0,
			"-0.019": 0.0,
			"-0.018": 0.0,
			"-0.017": 0.0,
			"-0.016": 0.0,
			"-0.015": 0.0205825116246,
			"-0.014": 1.23196394197,
			"-0.013": 0.571153650014,
			"-0.012": 0.40752431905,
			"-0.011": 1.1795040481,
			"-0.01": 1.18244456373,
			"-0.009": 3.13565004596,
			"-0.008": 5.05465555658,
			"-0.007": 6.96387803799,
			"-0.006": 10.1731510397,
			"-0.005": 13.3070729046,
			"-0.004": 17.1595132637,
			"-0.003": 40.3005371779,
			"-0.002": 66.9648878712,
			"-0.001": 64.8374819078,
			"0.0": 53.7788974012,
			"0.001": 38.4640397969,
			"0.002": 14.9580314925,
			"0.003": 5.80556980458,
			"0.004": 6.02311080269,
			"0.005": 4.77803598835,
			"0.006": 5.46960680437,
			"0.007": 5.44679689938,
			"0.008": 4.30985265636,
			"0.009": 5.28225952057,
			"0.01": 4.70508467417,
			"0.011": 6.63708121167,
			"0.012": 9.88396873942,
			"0.013": 7.60330409251,
			"0.014": 2.42580129912,
			"0.015": 2.13676292782,
			"0.016": 0.0182748263798,
			"0.017": 0.0,
			"0.018": 0.0,
			"0.019": 0.0,
			"0.02": 0.0,
			"0.021": 0.0,
			"0.022": 0.0,
			"0.023": 0.0,
			"0.024": 0.0,
			"0.025": 0.0
		}
	}
}
