{
	 "smiles": "NC1=CC(=C(C=C1)C1=C(C=C(N)C=C1)C(F)(F)F)C(F)(F)F", 
	 "Tm": 456.15, 
	 "num_atms": 32, 
	 "gaussian": { 
		 "optdone": 1, 
		 "sigma_profile": "yes", 
		 "theory": "DFT", 
		 "functional": "B3LYP", 
		 "basiset": "6-31G**", 
		 "properties": { 
			 "R2extent": 6119.2902, 
			 "electric_dipole_moment_norm": 3.14299892141, 
			 "electric_quadrupole_moment_norm": 36.4010543524, 
			 "total_energy": -1248.08577511, 
			 "HOMO_LUMO_gap": 0.1822, 
			 "cosmo_polarized_energy": -15.73, 
			 "cosmo_cavitation_energy": 37.82, 
			 "cosmo_dispersion_energy": -25.87, 
			 "cosmo_repulsion_energy": 1.88, 
			 "cosmo_total_nonelectrostatic_energy": 13.83, 
			 "SMD_solvation_energy": 8.18 
		},
		"coords": [
			{
				"x": -0.9751385953,
				"y": 1.5491666817,
				"z": 4.9232208913,
				"element": "N" 
			},
			{
				"x": -0.756669615,
				"y": 1.3135720146,
				"z": 3.5678400892,
				"element": "C" 
			},
			{
				"x": -1.0388795964,
				"y": 0.0592683755,
				"z": 3.0045938732,
				"element": "C" 
			},
			{
				"x": -0.875298038,
				"y": -0.1696893791,
				"z": 1.6396133721,
				"element": "C" 
			},
			{
				"x": -0.4214656098,
				"y": 0.8497980527,
				"z": 0.7783260238,
				"element": "C" 
			},
			{
				"x": -0.1406631001,
				"y": 2.0950319087,
				"z": 1.3571944497,
				"element": "C" 
			},
			{
				"x": -0.3014858735,
				"y": 2.3326066741,
				"z": 2.7175612674,
				"element": "C" 
			},
			{
				"x": -0.2739866586,
				"y": 0.6752847378,
				"z": -0.7019533513,
				"element": "C" 
			},
			{
				"x": 0.970435676,
				"y": 0.5266361012,
				"z": -1.3472825056,
				"element": "C" 
			},
			{
				"x": 1.0556347546,
				"y": 0.4204183126,
				"z": -2.7343518356,
				"element": "C" 
			},
			{
				"x": -0.0961913553,
				"y": 0.4569769467,
				"z": -3.5358837633,
				"element": "C" 
			},
			{
				"x": -0.0062041864,
				"y": 0.2954158759,
				"z": -4.9156362627,
				"element": "N" 
			},
			{
				"x": -1.3391747466,
				"y": 0.5994874842,
				"z": -2.9004753977,
				"element": "C" 
			},
			{
				"x": -1.4145682376,
				"y": 0.7036982203,
				"z": -1.5161861352,
				"element": "C" 
			},
			{
				"x": 2.2532502471,
				"y": 0.4843130885,
				"z": -0.5514073093,
				"element": "C" 
			},
			{
				"x": 2.2033034227,
				"y": -0.4104239578,
				"z": 0.4563059295,
				"element": "F" 
			},
			{
				"x": 3.3186538222,
				"y": 0.1535732009,
				"z": -1.3186134331,
				"element": "F" 
			},
			{
				"x": 2.5418617406,
				"y": 1.689344079,
				"z": 0.0038088691,
				"element": "F" 
			},
			{
				"x": -1.196110145,
				"y": -1.5457763401,
				"z": 1.1057796433,
				"element": "C" 
			},
			{
				"x": -0.1918134187,
				"y": -2.0542197947,
				"z": 0.3631124834,
				"element": "F" 
			},
			{
				"x": -1.4387021145,
				"y": -2.4335303254,
				"z": 2.099157891,
				"element": "F" 
			},
			{
				"x": -2.3034153104,
				"y": -1.5364847132,
				"z": 0.3216953201,
				"element": "F" 
			},
			{
				"x": -0.4439671095,
				"y": 2.3103222258,
				"z": 5.3225167365,
				"element": "H" 
			},
			{
				"x": -0.9688491809,
				"y": 0.7290762711,
				"z": 5.5135192063,
				"element": "H" 
			},
			{
				"x": -1.3848035004,
				"y": -0.7483874249,
				"z": 3.6400940858,
				"element": "H" 
			},
			{
				"x": 0.218653681,
				"y": 2.8955831133,
				"z": 0.7192083007,
				"element": "H" 
			},
			{
				"x": -0.0763267132,
				"y": 3.3148401303,
				"z": 3.1254068909,
				"element": "H" 
			},
			{
				"x": 2.0276962702,
				"y": 0.2944920372,
				"z": -3.1980914755,
				"element": "H" 
			},
			{
				"x": 0.8857159972,
				"y": 0.5298606511,
				"z": -5.3278474712,
				"element": "H" 
			},
			{
				"x": -0.7845064735,
				"y": 0.6542965724,
				"z": -5.4502181034,
				"element": "H" 
			},
			{
				"x": -2.2490365338,
				"y": 0.6240200982,
				"z": -3.4949219028,
				"element": "H" 
			},
			{
				"x": -2.386249499,
				"y": 0.8109290814,
				"z": -1.0456863764,
				"element": "H" 
			}
		],
		 "valence_orbital": [ 
			{
				"type": "occ",
				"energy": -0.30817,
				"method": "rhf"
			},
			{
				"type": "occ",
				"energy": -0.25984,
				"method": "rhf"
			},
			{
				"type": "occ",
				"energy": -0.25628,
				"method": "rhf"
			},
			{
				"type": "occ",
				"energy": -0.21468,
				"method": "rhf"
			},
			{
				"type": "occ",
				"energy": -0.20445,
				"method": "rhf"
			},
			{
				"type": "unocc",
				"energy": -0.02225,
				"method": "rhf"
			},
			{
				"type": "unocc",
				"energy": -0.00804,
				"method": "rhf"
			},
			{
				"type": "unocc",
				"energy": -0.0014,
				"method": "rhf"
			},
			{
				"type": "unocc",
				"energy": 0.01154,
				"method": "rhf"
			},
			{
				"type": "unocc",
				"energy": 0.0739,
				"method": "rhf"
			}
		],
		"cosmo_sigma_profile": { 
			"-0.025": 0.0,
			"-0.024": 0.0,
			"-0.023": 0.0,
			"-0.022": 0.0,
			"-0.021": 0.0,
			"-0.02": 0.0,
			"-0.019": 0.0,
			"-0.018": 0.0,
			"-0.017": 0.0,
			"-0.016": 0.0,
			"-0.015": 0.0,
			"-0.014": 0.0,
			"-0.013": 2.42104914147,
			"-0.012": 6.21881476417,
			"-0.011": 6.00146032096,
			"-0.01": 6.52156719976,
			"-0.009": 6.56424918317,
			"-0.008": 6.13968100501,
			"-0.007": 6.62872109454,
			"-0.006": 9.76032370211,
			"-0.005": 10.7093108,
			"-0.004": 11.5522575293,
			"-0.003": 9.56756277832,
			"-0.002": 11.5919391579,
			"-0.001": 13.9023096033,
			"0.0": 17.0216739527,
			"0.001": 21.6163129503,
			"0.002": 29.7054658856,
			"0.003": 59.1450252276,
			"0.004": 34.8465940261,
			"0.005": 19.062491382,
			"0.006": 2.11199936878,
			"0.007": 1.81675653438,
			"0.008": 1.28011842159,
			"0.009": 1.30258549766,
			"0.01": 1.72588583294,
			"0.011": 1.2131023117,
			"0.012": 1.27528816947,
			"0.013": 1.32502397237,
			"0.014": 0.538833585795,
			"0.015": 0.0,
			"0.016": 0.0,
			"0.017": 0.0,
			"0.018": 0.0,
			"0.019": 0.0,
			"0.02": 0.0,
			"0.021": 0.0,
			"0.022": 0.0,
			"0.023": 0.0,
			"0.024": 0.0,
			"0.025": 0.0
		}
	}
}
