{
	 "smiles": "[O-][N+](=O)C1=CC=C(C=C1)C1=NN=C(CCl)O1", 
	 "Tm": 402.15, 
	 "num_atms": 22, 
	 "gaussian": { 
		 "optdone": 1, 
		 "sigma_profile": "yes", 
		 "theory": "DFT", 
		 "functional": "B3LYP", 
		 "basiset": "6-31G**", 
		 "properties": { 
			 "R2extent": 6335.9769, 
			 "electric_dipole_moment_norm": 3.60122991629, 
			 "electric_quadrupole_moment_norm": 19.9098467857, 
			 "total_energy": -1196.56418895, 
			 "HOMO_LUMO_gap": 0.16209, 
			 "cosmo_polarized_energy": -14.77, 
			 "cosmo_cavitation_energy": 30.69, 
			 "cosmo_dispersion_energy": -22.51, 
			 "cosmo_repulsion_energy": 1.75, 
			 "cosmo_total_nonelectrostatic_energy": 9.93, 
			 "SMD_solvation_energy": 5.64 
		},
		"coords": [
			{
				"x": 5.7993686419,
				"y": 1.344675597,
				"z": -1.1463061811,
				"element": "O" 
			},
			{
				"x": 4.8506794614,
				"y": 0.8929988946,
				"z": -1.7852343036,
				"element": "N" 
			},
			{
				"x": 4.9219086198,
				"y": 0.435681011,
				"z": -2.9248333073,
				"element": "O" 
			},
			{
				"x": 3.5277453245,
				"y": 0.9008492526,
				"z": -1.1362599609,
				"element": "C" 
			},
			{
				"x": 3.4134193726,
				"y": 1.4141803934,
				"z": 0.1557515574,
				"element": "C" 
			},
			{
				"x": 2.1650721153,
				"y": 1.4212105885,
				"z": 0.7639875731,
				"element": "C" 
			},
			{
				"x": 1.045471879,
				"y": 0.9171854858,
				"z": 0.0788518561,
				"element": "C" 
			},
			{
				"x": 1.1858562662,
				"y": 0.4042126755,
				"z": -1.2209342627,
				"element": "C" 
			},
			{
				"x": 2.4335722249,
				"y": 0.3949374522,
				"z": -1.8347562295,
				"element": "C" 
			},
			{
				"x": -0.2529238361,
				"y": 0.9367523647,
				"z": 0.7412434852,
				"element": "C" 
			},
			{
				"x": -0.5411888845,
				"y": 1.3575968742,
				"z": 1.940202255,
				"element": "N" 
			},
			{
				"x": -1.9040630514,
				"y": 1.1629264708,
				"z": 2.1118364819,
				"element": "N" 
			},
			{
				"x": -2.3425332808,
				"y": 0.6444142882,
				"z": 1.0060712539,
				"element": "C" 
			},
			{
				"x": -3.7324152889,
				"y": 0.2603813015,
				"z": 0.6755037501,
				"element": "C" 
			},
			{
				"x": -3.9290742883,
				"y": -1.5423321796,
				"z": 0.5363347502,
				"element": "Cl" 
			},
			{
				"x": -1.3553626429,
				"y": 0.4719825034,
				"z": 0.0839544671,
				"element": "O" 
			},
			{
				"x": 4.2937241866,
				"y": 1.7953456564,
				"z": 0.657480891,
				"element": "H" 
			},
			{
				"x": 2.0393532552,
				"y": 1.8124942189,
				"z": 1.7672576147,
				"element": "H" 
			},
			{
				"x": 0.3207862456,
				"y": 0.0133467885,
				"z": -1.7446277408,
				"element": "H" 
			},
			{
				"x": 2.5736232314,
				"y": 0.0058734114,
				"z": -2.8352081289,
				"element": "H" 
			},
			{
				"x": -4.0466104369,
				"y": 0.6793155297,
				"z": -0.2811473504,
				"element": "H" 
			},
			{
				"x": -4.3878091145,
				"y": 0.6041714212,
				"z": 1.4737315296,
				"element": "H" 
			}
		],
		 "valence_orbital": [ 
			{
				"type": "occ",
				"energy": -0.31743,
				"method": "rhf"
			},
			{
				"type": "occ",
				"energy": -0.30204,
				"method": "rhf"
			},
			{
				"type": "occ",
				"energy": -0.30132,
				"method": "rhf"
			},
			{
				"type": "occ",
				"energy": -0.29481,
				"method": "rhf"
			},
			{
				"type": "occ",
				"energy": -0.27278,
				"method": "rhf"
			},
			{
				"type": "unocc",
				"energy": -0.11069,
				"method": "rhf"
			},
			{
				"type": "unocc",
				"energy": -0.05963,
				"method": "rhf"
			},
			{
				"type": "unocc",
				"energy": -0.0432,
				"method": "rhf"
			},
			{
				"type": "unocc",
				"energy": -0.03145,
				"method": "rhf"
			},
			{
				"type": "unocc",
				"energy": 0.02766,
				"method": "rhf"
			}
		],
		"cosmo_sigma_profile": { 
			"-0.025": 0.0,
			"-0.024": 0.0,
			"-0.023": 0.0,
			"-0.022": 0.0,
			"-0.021": 0.0,
			"-0.02": 0.0,
			"-0.019": 0.0,
			"-0.018": 0.0,
			"-0.017": 0.0,
			"-0.016": 0.0,
			"-0.015": 0.0,
			"-0.014": 0.0,
			"-0.013": 0.0,
			"-0.012": 0.0,
			"-0.011": 0.568606036215,
			"-0.01": 4.35507072354,
			"-0.009": 4.14070422579,
			"-0.008": 9.73459593898,
			"-0.007": 13.1424841035,
			"-0.006": 13.2313232683,
			"-0.005": 11.543715059,
			"-0.004": 13.9354558095,
			"-0.003": 14.6632966781,
			"-0.002": 18.6691619258,
			"-0.001": 22.8654196665,
			"0.0": 21.1870538115,
			"0.001": 13.4703012807,
			"0.002": 10.1566411136,
			"0.003": 8.42096629639,
			"0.004": 11.2558136628,
			"0.005": 14.2676126371,
			"0.006": 7.16384836536,
			"0.007": 11.2673377106,
			"0.008": 7.45950082198,
			"0.009": 7.13417243359,
			"0.01": 4.73712821133,
			"0.011": 2.51607096483,
			"0.012": 2.31297503337,
			"0.013": 1.63399717934,
			"0.014": 0.471016336379,
			"0.015": 0.0,
			"0.016": 0.0,
			"0.017": 0.0,
			"0.018": 0.0,
			"0.019": 0.0,
			"0.02": 0.0,
			"0.021": 0.0,
			"0.022": 0.0,
			"0.023": 0.0,
			"0.024": 0.0,
			"0.025": 0.0
		}
	}
}
