{
	 "smiles": "CC(C)(C)OC(=O)N1CCCN(CCN(CCCNCC1)C(=O)OC(C)(C)C)C(=O)OC(C)(C)C", 
	 "Tm": 324.15, 
	 "num_atms": 83, 
	 "gaussian": { 
		 "optdone": 1, 
		 "sigma_profile": "yes", 
		 "theory": "DFT", 
		 "functional": "B3LYP", 
		 "basiset": "6-31G**", 
		 "properties": { 
			 "R2extent": 20342.2792, 
			 "electric_dipole_moment_norm": 2.67522184127, 
			 "electric_quadrupole_moment_norm": 17.4813722928, 
			 "total_energy": -1652.04600764, 
			 "HOMO_LUMO_gap": 0.26629, 
			 "cosmo_polarized_energy": -20.09, 
			 "cosmo_cavitation_energy": 77.25, 
			 "cosmo_dispersion_energy": -45.17, 
			 "cosmo_repulsion_energy": 3.43, 
			 "cosmo_total_nonelectrostatic_energy": 35.52, 
			 "SMD_solvation_energy": 14.18 
		},
		"coords": [
			{
				"x": 0.2620125942,
				"y": -4.9253539079,
				"z": -4.281903045,
				"element": "C" 
			},
			{
				"x": 0.1787766909,
				"y": -4.3122069512,
				"z": -2.8796475557,
				"element": "C" 
			},
			{
				"x": -1.2660096555,
				"y": -4.0299667897,
				"z": -2.4536616048,
				"element": "C" 
			},
			{
				"x": 0.8808196752,
				"y": -5.2077175062,
				"z": -1.8551305238,
				"element": "C" 
			},
			{
				"x": 0.9748803751,
				"y": -3.0759515459,
				"z": -2.8216666648,
				"element": "O" 
			},
			{
				"x": 0.6623623754,
				"y": -2.0082225995,
				"z": -3.5967443958,
				"element": "C" 
			},
			{
				"x": -0.2638364802,
				"y": -1.9622289328,
				"z": -4.3991573295,
				"element": "O" 
			},
			{
				"x": 1.5219301437,
				"y": -0.9601512589,
				"z": -3.3780723499,
				"element": "N" 
			},
			{
				"x": 2.7064301641,
				"y": -1.1123399606,
				"z": -2.5134895157,
				"element": "C" 
			},
			{
				"x": 2.4185031052,
				"y": -1.0505818418,
				"z": -1.0023375738,
				"element": "C" 
			},
			{
				"x": 2.2493049513,
				"y": 0.3792378074,
				"z": -0.4679827267,
				"element": "C" 
			},
			{
				"x": 1.6912796399,
				"y": 0.4264400208,
				"z": 0.8882580281,
				"element": "N" 
			},
			{
				"x": 0.2365459145,
				"y": 0.456317064,
				"z": 1.0585510658,
				"element": "C" 
			},
			{
				"x": -0.3162503186,
				"y": 1.8253937348,
				"z": 1.5446104383,
				"element": "C" 
			},
			{
				"x": -1.4787021973,
				"y": 2.3015406472,
				"z": 0.784583436,
				"element": "N" 
			},
			{
				"x": -1.3768190156,
				"y": 3.5654441261,
				"z": 0.049569141,
				"element": "C" 
			},
			{
				"x": -0.3771869487,
				"y": 3.5078334227,
				"z": -1.1154864025,
				"element": "C" 
			},
			{
				"x": -0.7741954836,
				"y": 2.5381063157,
				"z": -2.2381614446,
				"element": "C" 
			},
			{
				"x": 0.4189603405,
				"y": 1.9821545837,
				"z": -2.8769431194,
				"element": "N" 
			},
			{
				"x": 0.1624390488,
				"y": 1.0814157723,
				"z": -3.9980804414,
				"element": "C" 
			},
			{
				"x": 1.3655191217,
				"y": 0.1735177326,
				"z": -4.2998553598,
				"element": "C" 
			},
			{
				"x": -2.6430671119,
				"y": 1.6005068704,
				"z": 0.9615791779,
				"element": "C" 
			},
			{
				"x": -2.7090231727,
				"y": 0.6005408373,
				"z": 1.6670029037,
				"element": "O" 
			},
			{
				"x": -3.6736692198,
				"y": 2.1358490872,
				"z": 0.2605835545,
				"element": "O" 
			},
			{
				"x": -5.0111623284,
				"y": 1.5231449314,
				"z": 0.2991859544,
				"element": "C" 
			},
			{
				"x": -5.8225205822,
				"y": 2.4427954784,
				"z": -0.617660982,
				"element": "C" 
			},
			{
				"x": -4.9565430545,
				"y": 0.1014353624,
				"z": -0.2702416371,
				"element": "C" 
			},
			{
				"x": -5.5644184732,
				"y": 1.5566822401,
				"z": 1.7279269836,
				"element": "C" 
			},
			{
				"x": 2.5507358994,
				"y": 0.2862550273,
				"z": 1.9424492834,
				"element": "C" 
			},
			{
				"x": 3.7628046539,
				"y": 0.1485638144,
				"z": 1.8266992132,
				"element": "O" 
			},
			{
				"x": 1.8734700243,
				"y": 0.3432710194,
				"z": 3.1220516373,
				"element": "O" 
			},
			{
				"x": 2.5744320358,
				"y": 0.1797793625,
				"z": 4.4021803231,
				"element": "C" 
			},
			{
				"x": 3.234169435,
				"y": -1.2022274585,
				"z": 4.4705847202,
				"element": "C" 
			},
			{
				"x": 1.4371755543,
				"y": 0.2865117517,
				"z": 5.422217152,
				"element": "C" 
			},
			{
				"x": 3.5861758107,
				"y": 1.3148060579,
				"z": 4.5972765626,
				"element": "C" 
			},
			{
				"x": -0.2175288629,
				"y": -4.2806506965,
				"z": -5.0184268549,
				"element": "H" 
			},
			{
				"x": 1.3078496763,
				"y": -5.0764336933,
				"z": -4.5681782287,
				"element": "H" 
			},
			{
				"x": -0.2347509499,
				"y": -5.9011409633,
				"z": -4.2859494093,
				"element": "H" 
			},
			{
				"x": -1.8196166226,
				"y": -4.9723845696,
				"z": -2.3884583667,
				"element": "H" 
			},
			{
				"x": -1.7632638935,
				"y": -3.3766118252,
				"z": -3.1705609371,
				"element": "H" 
			},
			{
				"x": -1.2859153325,
				"y": -3.5568436618,
				"z": -1.4666747626,
				"element": "H" 
			},
			{
				"x": 0.3825135111,
				"y": -6.1803809331,
				"z": -1.8032664825,
				"element": "H" 
			},
			{
				"x": 0.8559505228,
				"y": -4.7525434805,
				"z": -0.8608172578,
				"element": "H" 
			},
			{
				"x": 1.9261787336,
				"y": -5.3686395769,
				"z": -2.1344051135,
				"element": "H" 
			},
			{
				"x": 3.1865138844,
				"y": -2.0674330244,
				"z": -2.7459934948,
				"element": "H" 
			},
			{
				"x": 3.4112289867,
				"y": -0.3226271727,
				"z": -2.7936184969,
				"element": "H" 
			},
			{
				"x": 1.519879191,
				"y": -1.6399742262,
				"z": -0.7974831596,
				"element": "H" 
			},
			{
				"x": 3.2431644601,
				"y": -1.5318327159,
				"z": -0.4643654919,
				"element": "H" 
			},
			{
				"x": 3.22221368,
				"y": 0.8782113324,
				"z": -0.446752835,
				"element": "H" 
			},
			{
				"x": 1.5881263409,
				"y": 0.9471537882,
				"z": -1.1288940886,
				"element": "H" 
			},
			{
				"x": -0.0782186241,
				"y": -0.3253911568,
				"z": 1.7504897789,
				"element": "H" 
			},
			{
				"x": -0.2021275347,
				"y": 0.2248384621,
				"z": 0.0856889402,
				"element": "H" 
			},
			{
				"x": -0.57943651,
				"y": 1.7565916539,
				"z": 2.6033774381,
				"element": "H" 
			},
			{
				"x": 0.467752359,
				"y": 2.5787127594,
				"z": 1.4437288123,
				"element": "H" 
			},
			{
				"x": -2.3721863742,
				"y": 3.8213620061,
				"z": -0.3113734632,
				"element": "H" 
			},
			{
				"x": -1.067975678,
				"y": 4.3572085212,
				"z": 0.7465723619,
				"element": "H" 
			},
			{
				"x": 0.6044260126,
				"y": 3.2057473165,
				"z": -0.7326336733,
				"element": "H" 
			},
			{
				"x": -0.2531240319,
				"y": 4.5244923333,
				"z": -1.5105519131,
				"element": "H" 
			},
			{
				"x": -1.4563770884,
				"y": 3.0438165635,
				"z": -2.9468414442,
				"element": "H" 
			},
			{
				"x": -1.3380817784,
				"y": 1.6989131331,
				"z": -1.814014129,
				"element": "H" 
			},
			{
				"x": 1.0247033368,
				"y": 2.7413706825,
				"z": -3.1823251887,
				"element": "H" 
			},
			{
				"x": -0.6894521794,
				"y": 0.4420952314,
				"z": -3.7531640844,
				"element": "H" 
			},
			{
				"x": -0.1099923925,
				"y": 1.6178253984,
				"z": -4.9252723033,
				"element": "H" 
			},
			{
				"x": 2.2902352325,
				"y": 0.758027293,
				"z": -4.2671703049,
				"element": "H" 
			},
			{
				"x": 1.2501797139,
				"y": -0.2175393886,
				"z": -5.3163549353,
				"element": "H" 
			},
			{
				"x": -5.8264671486,
				"y": 3.4670117997,
				"z": -0.2329971225,
				"element": "H" 
			},
			{
				"x": -5.3995878852,
				"y": 2.4538291491,
				"z": -1.6265353904,
				"element": "H" 
			},
			{
				"x": -6.8572411266,
				"y": 2.0930591666,
				"z": -0.68029041,
				"element": "H" 
			},
			{
				"x": -5.9712601061,
				"y": -0.3028622002,
				"z": -0.3461221346,
				"element": "H" 
			},
			{
				"x": -4.5200498216,
				"y": 0.1106916419,
				"z": -1.2741739389,
				"element": "H" 
			},
			{
				"x": -4.3623814432,
				"y": -0.5515968264,
				"z": 0.3688907527,
				"element": "H" 
			},
			{
				"x": -4.976398497,
				"y": 0.9194928583,
				"z": 2.3884436036,
				"element": "H" 
			},
			{
				"x": -6.602225185,
				"y": 1.2075914345,
				"z": 1.7280968512,
				"element": "H" 
			},
			{
				"x": -5.5510041051,
				"y": 2.5802691619,
				"z": 2.1160325422,
				"element": "H" 
			},
			{
				"x": 4.0294526506,
				"y": -1.2908345083,
				"z": 3.7303436066,
				"element": "H" 
			},
			{
				"x": 2.4911558937,
				"y": -1.9858323847,
				"z": 4.2904795947,
				"element": "H" 
			},
			{
				"x": 3.6576736303,
				"y": -1.3590859152,
				"z": 5.4681356816,
				"element": "H" 
			},
			{
				"x": 1.8303570285,
				"y": 0.1753224991,
				"z": 6.4372805859,
				"element": "H" 
			},
			{
				"x": 0.6901499052,
				"y": -0.4940457719,
				"z": 5.2515113677,
				"element": "H" 
			},
			{
				"x": 0.9413127555,
				"y": 1.2589676537,
				"z": 5.3482282532,
				"element": "H" 
			},
			{
				"x": 4.0237648798,
				"y": 1.2507582025,
				"z": 5.5990669495,
				"element": "H" 
			},
			{
				"x": 3.0881483808,
				"y": 2.2856295913,
				"z": 4.5064230298,
				"element": "H" 
			},
			{
				"x": 4.3833088934,
				"y": 1.2550007433,
				"z": 3.8562883626,
				"element": "H" 
			}
		],
		 "valence_orbital": [ 
			{
				"type": "occ",
				"energy": -0.25018,
				"method": "rhf"
			},
			{
				"type": "occ",
				"energy": -0.24561,
				"method": "rhf"
			},
			{
				"type": "occ",
				"energy": -0.23489,
				"method": "rhf"
			},
			{
				"type": "occ",
				"energy": -0.22675,
				"method": "rhf"
			},
			{
				"type": "occ",
				"energy": -0.21349,
				"method": "rhf"
			},
			{
				"type": "unocc",
				"energy": 0.0528,
				"method": "rhf"
			},
			{
				"type": "unocc",
				"energy": 0.05337,
				"method": "rhf"
			},
			{
				"type": "unocc",
				"energy": 0.06241,
				"method": "rhf"
			},
			{
				"type": "unocc",
				"energy": 0.07508,
				"method": "rhf"
			},
			{
				"type": "unocc",
				"energy": 0.08253,
				"method": "rhf"
			}
		],
		"cosmo_sigma_profile": { 
			"-0.025": 0.0,
			"-0.024": 0.0,
			"-0.023": 0.0,
			"-0.022": 0.0,
			"-0.021": 0.0,
			"-0.02": 0.0,
			"-0.019": 0.0,
			"-0.018": 0.0,
			"-0.017": 0.0,
			"-0.016": 0.0,
			"-0.015": 0.0,
			"-0.014": 0.0,
			"-0.013": 0.0,
			"-0.012": 0.0,
			"-0.011": 0.0,
			"-0.01": 0.549765331617,
			"-0.009": 1.4080172611,
			"-0.008": 1.76517766572,
			"-0.007": 1.73099372691,
			"-0.006": 4.78506662987,
			"-0.005": 10.1007779805,
			"-0.004": 41.9398728439,
			"-0.003": 78.7199578217,
			"-0.002": 82.8209024447,
			"-0.001": 80.4805516891,
			"0.0": 95.0853910399,
			"0.001": 74.8558576657,
			"0.002": 27.3785182814,
			"0.003": 17.4542654206,
			"0.004": 15.3827936852,
			"0.005": 12.0930651913,
			"0.006": 8.7432684431,
			"0.007": 6.69382559567,
			"0.008": 5.96052897984,
			"0.009": 5.60782532568,
			"0.01": 2.09425717722,
			"0.011": 4.91111742624,
			"0.012": 4.96065966931,
			"0.013": 5.78314558664,
			"0.014": 4.76349905679,
			"0.015": 0.0711297953884,
			"0.016": 0.0,
			"0.017": 0.0,
			"0.018": 0.0,
			"0.019": 0.0,
			"0.02": 0.0,
			"0.021": 0.0,
			"0.022": 0.0,
			"0.023": 0.0,
			"0.024": 0.0,
			"0.025": 0.0
		}
	}
}
