{
	 "smiles": "COC1=C(CN2CCCCC2)C=C(C=C1)C(C)=O", 
	 "Tm": 328.15, 
	 "num_atms": 39, 
	 "gaussian": { 
		 "optdone": 1, 
		 "sigma_profile": "yes", 
		 "theory": "DFT", 
		 "functional": "B3LYP", 
		 "basiset": "6-31G**", 
		 "properties": { 
			 "R2extent": 5811.1779, 
			 "electric_dipole_moment_norm": 2.93153941471, 
			 "electric_quadrupole_moment_norm": 17.0080244667, 
			 "total_energy": -789.437701145, 
			 "HOMO_LUMO_gap": 0.16146, 
			 "cosmo_polarized_energy": -9.78, 
			 "cosmo_cavitation_energy": 39.69, 
			 "cosmo_dispersion_energy": -27.14, 
			 "cosmo_repulsion_energy": 2.09, 
			 "cosmo_total_nonelectrostatic_energy": 14.64, 
			 "SMD_solvation_energy": 7.32 
		},
		"coords": [
			{
				"x": 1.1346235219,
				"y": 0.2857935838,
				"z": -2.8441926853,
				"element": "C" 
			},
			{
				"x": 1.0678342859,
				"y": 1.212423511,
				"z": -1.7543181201,
				"element": "O" 
			},
			{
				"x": 1.3029530657,
				"y": 0.6730413913,
				"z": -0.5126981691,
				"element": "C" 
			},
			{
				"x": 0.2181348566,
				"y": 0.3433508735,
				"z": 0.3254696286,
				"element": "C" 
			},
			{
				"x": -1.206480501,
				"y": 0.515382874,
				"z": -0.1606581009,
				"element": "C" 
			},
			{
				"x": -1.6483125407,
				"y": -0.5655847637,
				"z": -1.0481079195,
				"element": "N" 
			},
			{
				"x": -2.8887285127,
				"y": -0.243982954,
				"z": -1.7583996299,
				"element": "C" 
			},
			{
				"x": -3.0791300823,
				"y": -1.204408111,
				"z": -2.9537045114,
				"element": "C" 
			},
			{
				"x": -2.4483663336,
				"y": -2.5842737657,
				"z": -2.6681854456,
				"element": "C" 
			},
			{
				"x": -2.5367333496,
				"y": -2.8977031055,
				"z": -1.1714757465,
				"element": "C" 
			},
			{
				"x": -1.7611469814,
				"y": -1.8516041518,
				"z": -0.3396354769,
				"element": "C" 
			},
			{
				"x": 0.5017616519,
				"y": -0.1169026741,
				"z": 1.6097729265,
				"element": "C" 
			},
			{
				"x": 1.8181769586,
				"y": -0.2759888344,
				"z": 2.0720437296,
				"element": "C" 
			},
			{
				"x": 2.8786176109,
				"y": 0.0521814582,
				"z": 1.2148950856,
				"element": "C" 
			},
			{
				"x": 2.6203525053,
				"y": 0.5273298578,
				"z": -0.0680032028,
				"element": "C" 
			},
			{
				"x": 2.022207716,
				"y": -0.7830151293,
				"z": 3.4647965483,
				"element": "C" 
			},
			{
				"x": 3.4418846251,
				"y": -0.9526878582,
				"z": 3.9829820875,
				"element": "C" 
			},
			{
				"x": 1.0674917001,
				"y": -1.0581302915,
				"z": 4.177867161,
				"element": "O" 
			},
			{
				"x": 0.9773444082,
				"y": 0.8702540449,
				"z": -3.7532097546,
				"element": "H" 
			},
			{
				"x": 2.1188172146,
				"y": -0.1981815054,
				"z": -2.8940338346,
				"element": "H" 
			},
			{
				"x": 0.3491202145,
				"y": -0.4707759523,
				"z": -2.7446129518,
				"element": "H" 
			},
			{
				"x": -1.2697495741,
				"y": 1.449644357,
				"z": -0.7264643099,
				"element": "H" 
			},
			{
				"x": -1.8703534014,
				"y": 0.6116468954,
				"z": 0.7198483675,
				"element": "H" 
			},
			{
				"x": -3.765579704,
				"y": -0.2897682857,
				"z": -1.0829210797,
				"element": "H" 
			},
			{
				"x": -2.8281460064,
				"y": 0.790105906,
				"z": -2.1122918653,
				"element": "H" 
			},
			{
				"x": -4.151736785,
				"y": -1.3110600202,
				"z": -3.1556812145,
				"element": "H" 
			},
			{
				"x": -2.6301107037,
				"y": -0.7725428097,
				"z": -3.8547758283,
				"element": "H" 
			},
			{
				"x": -1.396039346,
				"y": -2.5828606292,
				"z": -2.9741445955,
				"element": "H" 
			},
			{
				"x": -2.9465575164,
				"y": -3.3620811402,
				"z": -3.2573881369,
				"element": "H" 
			},
			{
				"x": -2.1504457076,
				"y": -3.8986709202,
				"z": -0.9519060969,
				"element": "H" 
			},
			{
				"x": -3.5923968577,
				"y": -2.9034222735,
				"z": -0.8723224811,
				"element": "H" 
			},
			{
				"x": -0.7483985209,
				"y": -2.2099149376,
				"z": -0.1260661786,
				"element": "H" 
			},
			{
				"x": -2.2619854199,
				"y": -1.7198521011,
				"z": 0.6393092245,
				"element": "H" 
			},
			{
				"x": -0.3055418913,
				"y": -0.36629781,
				"z": 2.2918714547,
				"element": "H" 
			},
			{
				"x": 3.9075019524,
				"y": -0.0500539075,
				"z": 1.5446387775,
				"element": "H" 
			},
			{
				"x": 3.4302209397,
				"y": 0.8113929312,
				"z": -0.7329167138,
				"element": "H" 
			},
			{
				"x": 3.3964416294,
				"y": -1.3298408938,
				"z": 5.0049740761,
				"element": "H" 
			},
			{
				"x": 4.0072871155,
				"y": -1.6555958255,
				"z": 3.3611808026,
				"element": "H" 
			},
			{
				"x": 3.9818677635,
				"y": 0.000552967,
				"z": 3.9713641796,
				"element": "H" 
			}
		],
		 "valence_orbital": [ 
			{
				"type": "occ",
				"energy": -0.27207,
				"method": "rhf"
			},
			{
				"type": "occ",
				"energy": -0.25507,
				"method": "rhf"
			},
			{
				"type": "occ",
				"energy": -0.24316,
				"method": "rhf"
			},
			{
				"type": "occ",
				"energy": -0.24167,
				"method": "rhf"
			},
			{
				"type": "occ",
				"energy": -0.2106,
				"method": "rhf"
			},
			{
				"type": "unocc",
				"energy": -0.04914,
				"method": "rhf"
			},
			{
				"type": "unocc",
				"energy": -0.00907,
				"method": "rhf"
			},
			{
				"type": "unocc",
				"energy": 0.04147,
				"method": "rhf"
			},
			{
				"type": "unocc",
				"energy": 0.0746,
				"method": "rhf"
			},
			{
				"type": "unocc",
				"energy": 0.09313,
				"method": "rhf"
			}
		],
		"cosmo_sigma_profile": { 
			"-0.025": 0.0,
			"-0.024": 0.0,
			"-0.023": 0.0,
			"-0.022": 0.0,
			"-0.021": 0.0,
			"-0.02": 0.0,
			"-0.019": 0.0,
			"-0.018": 0.0,
			"-0.017": 0.0,
			"-0.016": 0.0,
			"-0.015": 0.0,
			"-0.014": 0.0,
			"-0.013": 0.0,
			"-0.012": 0.0,
			"-0.011": 0.0,
			"-0.01": 0.0,
			"-0.009": 0.0,
			"-0.008": 0.0,
			"-0.007": 1.3602400329,
			"-0.006": 9.96659845005,
			"-0.005": 14.4137399694,
			"-0.004": 18.9085919459,
			"-0.003": 25.9943487097,
			"-0.002": 43.493747932,
			"-0.001": 53.9461170619,
			"0.0": 39.9551710439,
			"0.001": 26.5383768486,
			"0.002": 16.0851347284,
			"0.003": 15.4821673989,
			"0.004": 11.5799631238,
			"0.005": 5.59964944336,
			"0.006": 3.81812083243,
			"0.007": 3.69779792993,
			"0.008": 2.41760024319,
			"0.009": 2.20553648143,
			"0.01": 3.21283558983,
			"0.011": 3.67326600175,
			"0.012": 5.06525962481,
			"0.013": 2.11364905951,
			"0.014": 0.37949884248,
			"0.015": 0.0,
			"0.016": 0.0,
			"0.017": 0.0,
			"0.018": 0.0,
			"0.019": 0.0,
			"0.02": 0.0,
			"0.021": 0.0,
			"0.022": 0.0,
			"0.023": 0.0,
			"0.024": 0.0,
			"0.025": 0.0
		}
	}
}
