{
	 "smiles": "FC1=CC(CS(Cl)(=O)=O)=CC=C1", 
	 "Tm": 313.15, 
	 "num_atms": 18, 
	 "gaussian": { 
		 "optdone": 1, 
		 "sigma_profile": "yes", 
		 "theory": "DFT", 
		 "functional": "B3LYP", 
		 "basiset": "6-31G**", 
		 "properties": { 
			 "R2extent": 3476.875, 
			 "electric_dipole_moment_norm": 4.42636881992, 
			 "electric_quadrupole_moment_norm": 11.3622043205, 
			 "total_energy": -1378.95952458, 
			 "HOMO_LUMO_gap": 0.17375, 
			 "cosmo_polarized_energy": -11.47, 
			 "cosmo_cavitation_energy": 26.64, 
			 "cosmo_dispersion_energy": -19.41, 
			 "cosmo_repulsion_energy": 1.49, 
			 "cosmo_total_nonelectrostatic_energy": 8.72, 
			 "SMD_solvation_energy": 3.6 
		},
		"coords": [
			{
				"x": -3.1917786074,
				"y": 1.5489586374,
				"z": -1.8311833872,
				"element": "F" 
			},
			{
				"x": -2.941843425,
				"y": 0.5651749208,
				"z": -0.9470583351,
				"element": "C" 
			},
			{
				"x": -1.6647569532,
				"y": 0.0220954037,
				"z": -0.8946357508,
				"element": "C" 
			},
			{
				"x": -1.4070121008,
				"y": -1.0099713376,
				"z": 0.0171339518,
				"element": "C" 
			},
			{
				"x": -0.0333723814,
				"y": -1.6100026153,
				"z": 0.0977291275,
				"element": "C" 
			},
			{
				"x": 1.0016299911,
				"y": -0.6966401991,
				"z": 1.3180836878,
				"element": "S" 
			},
			{
				"x": 2.8061820911,
				"y": -1.8351792601,
				"z": 1.1239428976,
				"element": "Cl" 
			},
			{
				"x": 0.4954800235,
				"y": -0.9274587791,
				"z": 2.6651574422,
				"element": "O" 
			},
			{
				"x": 1.286377969,
				"y": 0.6425894275,
				"z": 0.8189349537,
				"element": "O" 
			},
			{
				"x": -2.4259244788,
				"y": -1.460510746,
				"z": 0.8678011594,
				"element": "C" 
			},
			{
				"x": -3.6987497656,
				"y": -0.8950790056,
				"z": 0.7939584471,
				"element": "C" 
			},
			{
				"x": -3.9692351489,
				"y": 0.1249822547,
				"z": -0.1188121462,
				"element": "C" 
			},
			{
				"x": -0.8932945376,
				"y": 0.4052628819,
				"z": -1.553822905,
				"element": "H" 
			},
			{
				"x": 0.5235094999,
				"y": -1.5446458475,
				"z": -0.8388151214,
				"element": "H" 
			},
			{
				"x": -0.0347567012,
				"y": -2.6410087183,
				"z": 0.4561833056,
				"element": "H" 
			},
			{
				"x": -2.2204643777,
				"y": -2.2483679254,
				"z": 1.5855236925,
				"element": "H" 
			},
			{
				"x": -4.4866161744,
				"y": -1.2496750346,
				"z": 1.4508330724,
				"element": "H" 
			},
			{
				"x": -4.9509749226,
				"y": 0.5788759426,
				"z": -0.1972540917,
				"element": "H" 
			}
		],
		 "valence_orbital": [ 
			{
				"type": "occ",
				"energy": -0.33902,
				"method": "rhf"
			},
			{
				"type": "occ",
				"energy": -0.33341,
				"method": "rhf"
			},
			{
				"type": "occ",
				"energy": -0.3172,
				"method": "rhf"
			},
			{
				"type": "occ",
				"energy": -0.28026,
				"method": "rhf"
			},
			{
				"type": "occ",
				"energy": -0.26591,
				"method": "rhf"
			},
			{
				"type": "unocc",
				"energy": -0.09216,
				"method": "rhf"
			},
			{
				"type": "unocc",
				"energy": -0.03319,
				"method": "rhf"
			},
			{
				"type": "unocc",
				"energy": -0.0221,
				"method": "rhf"
			},
			{
				"type": "unocc",
				"energy": 0.03171,
				"method": "rhf"
			},
			{
				"type": "unocc",
				"energy": 0.06047,
				"method": "rhf"
			}
		],
		"cosmo_sigma_profile": { 
			"-0.025": 0.0,
			"-0.024": 0.0,
			"-0.023": 0.0,
			"-0.022": 0.0,
			"-0.021": 0.0,
			"-0.02": 0.0,
			"-0.019": 0.0,
			"-0.018": 0.0,
			"-0.017": 0.0,
			"-0.016": 0.0,
			"-0.015": 0.0,
			"-0.014": 0.0,
			"-0.013": 0.0,
			"-0.012": 0.0,
			"-0.011": 1.33202535241,
			"-0.01": 6.05481748486,
			"-0.009": 4.94197163308,
			"-0.008": 6.73484997963,
			"-0.007": 10.1818541926,
			"-0.006": 9.95569512413,
			"-0.005": 10.312888188,
			"-0.004": 7.12069053472,
			"-0.003": 8.82282326512,
			"-0.002": 7.63714900352,
			"-0.001": 11.5198663533,
			"0.0": 17.5024964942,
			"0.001": 18.7605181665,
			"0.002": 20.0757725126,
			"0.003": 25.3642622618,
			"0.004": 20.4685210198,
			"0.005": 3.48296627628,
			"0.006": 3.40307330511,
			"0.007": 5.65899495607,
			"0.008": 10.3135004833,
			"0.009": 6.36898399563,
			"0.01": 0.144134164467,
			"0.011": 0.0,
			"0.012": 0.0,
			"0.013": 0.0,
			"0.014": 0.0,
			"0.015": 0.0,
			"0.016": 0.0,
			"0.017": 0.0,
			"0.018": 0.0,
			"0.019": 0.0,
			"0.02": 0.0,
			"0.021": 0.0,
			"0.022": 0.0,
			"0.023": 0.0,
			"0.024": 0.0,
			"0.025": 0.0
		}
	}
}
