{
	 "smiles": "COC1=CC=CC(=C1)C#N", 
	 "Tm": 296.15, 
	 "num_atms": 17, 
	 "gaussian": { 
		 "optdone": 1, 
		 "sigma_profile": "yes", 
		 "theory": "DFT", 
		 "functional": "B3LYP", 
		 "basiset": "6-31G**", 
		 "properties": { 
			 "R2extent": 2421.7426, 
			 "electric_dipole_moment_norm": 4.06205108166, 
			 "electric_quadrupole_moment_norm": 22.6449230818, 
			 "total_energy": -439.016169636, 
			 "HOMO_LUMO_gap": 0.19073, 
			 "cosmo_polarized_energy": -9.52, 
			 "cosmo_cavitation_energy": 22.25, 
			 "cosmo_dispersion_energy": -15.91, 
			 "cosmo_repulsion_energy": 1.29, 
			 "cosmo_total_nonelectrostatic_energy": 7.64, 
			 "SMD_solvation_energy": 6.12 
		},
		"coords": [
			{
				"x": 2.3169182013,
				"y": -3.6604117025,
				"z": 0.7088673599,
				"element": "C" 
			},
			{
				"x": 2.2773691626,
				"y": -2.2471063478,
				"z": 0.5607923111,
				"element": "O" 
			},
			{
				"x": 1.0709788761,
				"y": -1.6226145871,
				"z": 0.6268155811,
				"element": "C" 
			},
			{
				"x": 1.0990036138,
				"y": -0.2261200109,
				"z": 0.473230912,
				"element": "C" 
			},
			{
				"x": -0.0796179005,
				"y": 0.50827757,
				"z": 0.5243992401,
				"element": "C" 
			},
			{
				"x": -1.3073319611,
				"y": -0.1249529421,
				"z": 0.7283582178,
				"element": "C" 
			},
			{
				"x": -1.3328744237,
				"y": -1.5171096521,
				"z": 0.8811790547,
				"element": "C" 
			},
			{
				"x": -0.1474602227,
				"y": -2.2746631456,
				"z": 0.8317627711,
				"element": "C" 
			},
			{
				"x": -2.5823210175,
				"y": -2.1911678654,
				"z": 1.0918899703,
				"element": "C" 
			},
			{
				"x": -3.5936445156,
				"y": -2.7401823497,
				"z": 1.2627879292,
				"element": "N" 
			},
			{
				"x": 1.9377080287,
				"y": -3.9736701191,
				"z": 1.6896313073,
				"element": "H" 
			},
			{
				"x": 3.3672990285,
				"y": -3.940809555,
				"z": 0.6231386666,
				"element": "H" 
			},
			{
				"x": 1.7425006432,
				"y": -4.1644004711,
				"z": -0.07845238,
				"element": "H" 
			},
			{
				"x": 2.0588147222,
				"y": 0.2543833719,
				"z": 0.3153705791,
				"element": "H" 
			},
			{
				"x": -0.0435950425,
				"y": 1.5866277082,
				"z": 0.4042377195,
				"element": "H" 
			},
			{
				"x": -2.2304927185,
				"y": 0.4416563261,
				"z": 0.7693591511,
				"element": "H" 
			},
			{
				"x": -0.2033544743,
				"y": -3.3485362278,
				"z": 0.9536316092,
				"element": "H" 
			}
		],
		 "valence_orbital": [ 
			{
				"type": "occ",
				"energy": -0.34593,
				"method": "rhf"
			},
			{
				"type": "occ",
				"energy": -0.32866,
				"method": "rhf"
			},
			{
				"type": "occ",
				"energy": -0.32444,
				"method": "rhf"
			},
			{
				"type": "occ",
				"energy": -0.26825,
				"method": "rhf"
			},
			{
				"type": "occ",
				"energy": -0.24023,
				"method": "rhf"
			},
			{
				"type": "unocc",
				"energy": -0.0495,
				"method": "rhf"
			},
			{
				"type": "unocc",
				"energy": -0.01083,
				"method": "rhf"
			},
			{
				"type": "unocc",
				"energy": 0.03892,
				"method": "rhf"
			},
			{
				"type": "unocc",
				"energy": 0.0763,
				"method": "rhf"
			},
			{
				"type": "unocc",
				"energy": 0.08361,
				"method": "rhf"
			}
		],
		"cosmo_sigma_profile": { 
			"-0.025": 0.0,
			"-0.024": 0.0,
			"-0.023": 0.0,
			"-0.022": 0.0,
			"-0.021": 0.0,
			"-0.02": 0.0,
			"-0.019": 0.0,
			"-0.018": 0.0,
			"-0.017": 0.0,
			"-0.016": 0.0,
			"-0.015": 0.0,
			"-0.014": 0.0,
			"-0.013": 0.0,
			"-0.012": 0.0,
			"-0.011": 0.0,
			"-0.01": 0.0,
			"-0.009": 0.11132878648,
			"-0.008": 2.38761433257,
			"-0.007": 8.8854946646,
			"-0.006": 14.7435305808,
			"-0.005": 16.4167098321,
			"-0.004": 14.1058575102,
			"-0.003": 12.4752031161,
			"-0.002": 10.259449776,
			"-0.001": 11.9422511051,
			"0.0": 9.61897392912,
			"0.001": 12.1896395801,
			"0.002": 17.3010682826,
			"0.003": 11.7403317521,
			"0.004": 5.00843807036,
			"0.005": 3.76420631713,
			"0.006": 3.23650538345,
			"0.007": 4.35245969087,
			"0.008": 5.05442215713,
			"0.009": 4.66265234538,
			"0.01": 3.96485100145,
			"0.011": 2.87540159186,
			"0.012": 2.38402732529,
			"0.013": 1.66413568097,
			"0.014": 0.0966027622908,
			"0.015": 0.0,
			"0.016": 0.0,
			"0.017": 0.0,
			"0.018": 0.0,
			"0.019": 0.0,
			"0.02": 0.0,
			"0.021": 0.0,
			"0.022": 0.0,
			"0.023": 0.0,
			"0.024": 0.0,
			"0.025": 0.0
		}
	}
}
