{
	 "smiles": "SC1=NN=C(N1C1CC1)C1=CC=CS1", 
	 "Tm": 290.15, 
	 "num_atms": 23, 
	 "gaussian": { 
		 "optdone": 1, 
		 "sigma_profile": "yes", 
		 "theory": "DFT", 
		 "functional": "B3LYP", 
		 "basiset": "6-31G**", 
		 "properties": { 
			 "R2extent": 4165.0161, 
			 "electric_dipole_moment_norm": 6.02914786268, 
			 "electric_quadrupole_moment_norm": 14.7127701403, 
			 "total_energy": -1308.93015503, 
			 "HOMO_LUMO_gap": 0.17288, 
			 "cosmo_polarized_energy": -17.66, 
			 "cosmo_cavitation_energy": 29.78, 
			 "cosmo_dispersion_energy": -22.37, 
			 "cosmo_repulsion_energy": 1.66, 
			 "cosmo_total_nonelectrostatic_energy": 9.07, 
			 "SMD_solvation_energy": 2.12 
		},
		"coords": [
			{
				"x": -1.9083626479,
				"y": -0.737806498,
				"z": -3.8214657298,
				"element": "S" 
			},
			{
				"x": -0.8312830089,
				"y": -0.6886192309,
				"z": -2.4230432489,
				"element": "C" 
			},
			{
				"x": 0.4303929745,
				"y": -0.3391336312,
				"z": -2.5170555076,
				"element": "N" 
			},
			{
				"x": 0.9593159117,
				"y": -0.3595889972,
				"z": -1.2527432584,
				"element": "N" 
			},
			{
				"x": 0.0061449697,
				"y": -0.7271928583,
				"z": -0.4136459872,
				"element": "C" 
			},
			{
				"x": -1.1797554575,
				"y": -0.9234763699,
				"z": -1.1035051935,
				"element": "N" 
			},
			{
				"x": -2.47535474,
				"y": -1.2820202203,
				"z": -0.5830344083,
				"element": "C" 
			},
			{
				"x": -3.1097012095,
				"y": -0.4115757681,
				"z": 0.4769036025,
				"element": "C" 
			},
			{
				"x": -3.6694720932,
				"y": -0.4163783443,
				"z": -0.9152972884,
				"element": "C" 
			},
			{
				"x": 0.2470456342,
				"y": -0.8978146501,
				"z": 1.0111532365,
				"element": "C" 
			},
			{
				"x": 1.2960594338,
				"y": -0.3217838532,
				"z": 1.6937303563,
				"element": "C" 
			},
			{
				"x": 1.3846312091,
				"y": -0.7416203233,
				"z": 3.0491986042,
				"element": "C" 
			},
			{
				"x": 0.4121773986,
				"y": -1.6423768892,
				"z": 3.3912305087,
				"element": "C" 
			},
			{
				"x": -0.6360354175,
				"y": -1.9910859755,
				"z": 2.0573106776,
				"element": "S" 
			},
			{
				"x": -2.5069256417,
				"y": -1.9105517053,
				"z": -3.5257741757,
				"element": "H" 
			},
			{
				"x": -2.6382229578,
				"y": -2.3550127183,
				"z": -0.510688315,
				"element": "H" 
			},
			{
				"x": -3.6495686097,
				"y": -0.9149448445,
				"z": 1.271559724,
				"element": "H" 
			},
			{
				"x": -2.5535611274,
				"y": 0.4640476198,
				"z": 0.7938511678,
				"element": "H" 
			},
			{
				"x": -4.6092948003,
				"y": -0.924624252,
				"z": -1.1060020606,
				"element": "H" 
			},
			{
				"x": -3.4943413613,
				"y": 0.4548603415,
				"z": -1.535626958,
				"element": "H" 
			},
			{
				"x": 1.9766666633,
				"y": 0.3691921383,
				"z": 1.2122521283,
				"element": "H" 
			},
			{
				"x": 2.1369538643,
				"y": -0.3845299296,
				"z": 3.7428961243,
				"element": "H" 
			},
			{
				"x": 0.2325910134,
				"y": -2.1095630404,
				"z": 4.3495960011,
				"element": "H" 
			}
		],
		 "valence_orbital": [ 
			{
				"type": "occ",
				"energy": -0.28968,
				"method": "rhf"
			},
			{
				"type": "occ",
				"energy": -0.26226,
				"method": "rhf"
			},
			{
				"type": "occ",
				"energy": -0.25988,
				"method": "rhf"
			},
			{
				"type": "occ",
				"energy": -0.25102,
				"method": "rhf"
			},
			{
				"type": "occ",
				"energy": -0.21667,
				"method": "rhf"
			},
			{
				"type": "unocc",
				"energy": -0.04379,
				"method": "rhf"
			},
			{
				"type": "unocc",
				"energy": 0.00364,
				"method": "rhf"
			},
			{
				"type": "unocc",
				"energy": 0.01948,
				"method": "rhf"
			},
			{
				"type": "unocc",
				"energy": 0.02995,
				"method": "rhf"
			},
			{
				"type": "unocc",
				"energy": 0.03848,
				"method": "rhf"
			}
		],
		"cosmo_sigma_profile": { 
			"-0.025": 0.0,
			"-0.024": 0.0,
			"-0.023": 0.0,
			"-0.022": 0.0,
			"-0.021": 0.0,
			"-0.02": 0.0,
			"-0.019": 0.0,
			"-0.018": 0.0,
			"-0.017": 0.0,
			"-0.016": 0.0,
			"-0.015": 0.0,
			"-0.014": 0.0,
			"-0.013": 0.0,
			"-0.012": 0.594600249515,
			"-0.011": 2.37409146148,
			"-0.01": 2.2613637806,
			"-0.009": 3.11804751925,
			"-0.008": 4.596416818,
			"-0.007": 9.71644536524,
			"-0.006": 16.0846515333,
			"-0.005": 17.9278951808,
			"-0.004": 18.0498272892,
			"-0.003": 14.534413358,
			"-0.002": 15.9297155462,
			"-0.001": 14.8134775757,
			"0.0": 15.8484302088,
			"0.001": 17.1463979855,
			"0.002": 17.8504741616,
			"0.003": 17.9354973453,
			"0.004": 15.1156966332,
			"0.005": 6.96577198763,
			"0.006": 3.74507185951,
			"0.007": 4.07826846408,
			"0.008": 3.14440569933,
			"0.009": 2.51794072027,
			"0.01": 1.80785546914,
			"0.011": 2.55995684459,
			"0.012": 3.05691477622,
			"0.013": 3.6148692001,
			"0.014": 3.00736591312,
			"0.015": 2.36340272135,
			"0.016": 1.62461617072,
			"0.017": 0.190985040337,
			"0.018": 0.0,
			"0.019": 0.0,
			"0.02": 0.0,
			"0.021": 0.0,
			"0.022": 0.0,
			"0.023": 0.0,
			"0.024": 0.0,
			"0.025": 0.0
		}
	}
}
