{
	 "smiles": "O=C(OC(=O)C1=CC=NC=C1)C1=CC=NC=C1", 
	 "Tm": 406.15, 
	 "num_atms": 25, 
	 "gaussian": { 
		 "optdone": 1, 
		 "sigma_profile": "yes", 
		 "theory": "DFT", 
		 "functional": "B3LYP", 
		 "basiset": "6-31G**", 
		 "properties": { 
			 "R2extent": 5495.3051, 
			 "electric_dipole_moment_norm": 1.82529509943, 
			 "electric_quadrupole_moment_norm": 6.36818414385, 
			 "total_energy": -797.269359242, 
			 "HOMO_LUMO_gap": 0.17964, 
			 "cosmo_polarized_energy": -13.94, 
			 "cosmo_cavitation_energy": 31.93, 
			 "cosmo_dispersion_energy": -22.72, 
			 "cosmo_repulsion_energy": 1.73, 
			 "cosmo_total_nonelectrostatic_energy": 10.94, 
			 "SMD_solvation_energy": 4.58 
		},
		"coords": [
			{
				"x": 0.0223395552,
				"y": 0.4031214536,
				"z": 3.1459730319,
				"element": "O" 
			},
			{
				"x": 0.6780764332,
				"y": 0.4562265472,
				"z": 2.1404643777,
				"element": "C" 
			},
			{
				"x": 0.137592783,
				"y": 0.2867481204,
				"z": 0.8681507593,
				"element": "O" 
			},
			{
				"x": -1.1849201706,
				"y": 0.6393426358,
				"z": 0.6107651484,
				"element": "C" 
			},
			{
				"x": -1.7593828261,
				"y": 1.5136940818,
				"z": 1.2018324553,
				"element": "O" 
			},
			{
				"x": -1.7503949868,
				"y": -0.1512255651,
				"z": -0.518454118,
				"element": "C" 
			},
			{
				"x": -3.0316607533,
				"y": 0.1757978777,
				"z": -0.9754639748,
				"element": "C" 
			},
			{
				"x": -3.5687875494,
				"y": -0.5644659127,
				"z": -2.0266965014,
				"element": "C" 
			},
			{
				"x": -2.9265081906,
				"y": -1.5761470941,
				"z": -2.6267489802,
				"element": "N" 
			},
			{
				"x": -1.7026512035,
				"y": -1.8804286502,
				"z": -2.178422776,
				"element": "C" 
			},
			{
				"x": -1.0684926237,
				"y": -1.205419117,
				"z": -1.1343576793,
				"element": "C" 
			},
			{
				"x": 2.1558847238,
				"y": 0.6377536357,
				"z": 2.0856237816,
				"element": "C" 
			},
			{
				"x": 2.85792692,
				"y": 0.6976183236,
				"z": 3.2943402003,
				"element": "C" 
			},
			{
				"x": 4.2393881405,
				"y": 0.8741365558,
				"z": 3.2497730273,
				"element": "C" 
			},
			{
				"x": 4.9366892222,
				"y": 0.9912767495,
				"z": 2.1112910502,
				"element": "N" 
			},
			{
				"x": 4.2528676582,
				"y": 0.9348923679,
				"z": 0.9621102382,
				"element": "C" 
			},
			{
				"x": 2.870152547,
				"y": 0.7596550388,
				"z": 0.8895401308,
				"element": "C" 
			},
			{
				"x": -3.5815514936,
				"y": 0.9871264296,
				"z": -0.5119101478,
				"element": "H" 
			},
			{
				"x": -4.5624442243,
				"y": -0.3352980396,
				"z": -2.4059598588,
				"element": "H" 
			},
			{
				"x": -1.2004040229,
				"y": -2.706434092,
				"z": -2.6780043091,
				"element": "H" 
			},
			{
				"x": -0.0763551981,
				"y": -1.4943211156,
				"z": -0.8089213417,
				"element": "H" 
			},
			{
				"x": 2.3259216356,
				"y": 0.6087450358,
				"z": 4.2348644038,
				"element": "H" 
			},
			{
				"x": 4.8148775163,
				"y": 0.9242716206,
				"z": 4.1717330404,
				"element": "H" 
			},
			{
				"x": 4.838204917,
				"y": 1.034659319,
				"z": 0.0502187971,
				"element": "H" 
			},
			{
				"x": 2.3653311909,
				"y": 0.7230737933,
				"z": -0.0683407553,
				"element": "H" 
			}
		],
		 "valence_orbital": [ 
			{
				"type": "occ",
				"energy": -0.29578,
				"method": "rhf"
			},
			{
				"type": "occ",
				"energy": -0.28261,
				"method": "rhf"
			},
			{
				"type": "occ",
				"energy": -0.28238,
				"method": "rhf"
			},
			{
				"type": "occ",
				"energy": -0.27328,
				"method": "rhf"
			},
			{
				"type": "occ",
				"energy": -0.27235,
				"method": "rhf"
			},
			{
				"type": "unocc",
				"energy": -0.09271,
				"method": "rhf"
			},
			{
				"type": "unocc",
				"energy": -0.07558,
				"method": "rhf"
			},
			{
				"type": "unocc",
				"energy": -0.03055,
				"method": "rhf"
			},
			{
				"type": "unocc",
				"energy": -0.03029,
				"method": "rhf"
			},
			{
				"type": "unocc",
				"energy": 0.01445,
				"method": "rhf"
			}
		],
		"cosmo_sigma_profile": { 
			"-0.025": 0.0,
			"-0.024": 0.0,
			"-0.023": 0.0,
			"-0.022": 0.0,
			"-0.021": 0.0,
			"-0.02": 0.0,
			"-0.019": 0.0,
			"-0.018": 0.0,
			"-0.017": 0.0,
			"-0.016": 0.0,
			"-0.015": 0.0,
			"-0.014": 0.0,
			"-0.013": 0.0,
			"-0.012": 0.0,
			"-0.011": 0.0,
			"-0.01": 0.0,
			"-0.009": 0.0,
			"-0.008": 3.90992417603,
			"-0.007": 16.7918562171,
			"-0.006": 17.7332531685,
			"-0.005": 15.8631280863,
			"-0.004": 20.2637961034,
			"-0.003": 17.8480135538,
			"-0.002": 20.614233142,
			"-0.001": 22.7085627421,
			"0.0": 32.0479295074,
			"0.001": 19.2010128573,
			"0.002": 7.90014687989,
			"0.003": 7.15579670184,
			"0.004": 5.67387030279,
			"0.005": 4.80751267586,
			"0.006": 5.25129471183,
			"0.007": 5.92742845211,
			"0.008": 6.64601190435,
			"0.009": 8.75422370558,
			"0.01": 8.57111013502,
			"0.011": 3.82308458689,
			"0.012": 1.52847909194,
			"0.013": 1.74860052646,
			"0.014": 1.55135472491,
			"0.015": 1.84030063395,
			"0.016": 0.547393799586,
			"0.017": 0.0,
			"0.018": 0.0,
			"0.019": 0.0,
			"0.02": 0.0,
			"0.021": 0.0,
			"0.022": 0.0,
			"0.023": 0.0,
			"0.024": 0.0,
			"0.025": 0.0
		}
	}
}
