{
	 "smiles": "NC1=NC=C(CC2=CC(Br)=CC=C2)S1", 
	 "Tm": 379.15, 
	 "num_atms": 23, 
	 "gaussian": { 
		 "optdone": 1, 
		 "sigma_profile": "yes", 
		 "theory": "DFT", 
		 "functional": "B3LYP", 
		 "basiset": "6-31G**", 
		 "properties": { 
			 "R2extent": 5313.0836, 
			 "electric_dipole_moment_norm": 1.75013959443, 
			 "electric_quadrupole_moment_norm": 14.7327950125, 
			 "total_energy": -3465.58140214, 
			 "HOMO_LUMO_gap": 0.19259, 
			 "cosmo_polarized_energy": -12.32, 
			 "cosmo_cavitation_energy": 31.62, 
			 "cosmo_dispersion_energy": -23.35, 
			 "cosmo_repulsion_energy": 1.83, 
			 "cosmo_total_nonelectrostatic_energy": 10.1, 
			 "SMD_solvation_energy": 1.97 
		},
		"coords": [
			{
				"x": -1.8877046562,
				"y": -4.3046221729,
				"z": -0.882016797,
				"element": "N" 
			},
			{
				"x": -1.0638237075,
				"y": -3.5275410248,
				"z": -0.0981050138,
				"element": "C" 
			},
			{
				"x": -1.0723285021,
				"y": -3.5417419355,
				"z": 1.2034044389,
				"element": "N" 
			},
			{
				"x": -0.0838009932,
				"y": -2.7162151413,
				"z": 1.6971188888,
				"element": "C" 
			},
			{
				"x": 0.6938922,
				"y": -2.0482767529,
				"z": 0.7996582989,
				"element": "C" 
			},
			{
				"x": 1.8206155164,
				"y": -1.090902497,
				"z": 1.0571626365,
				"element": "C" 
			},
			{
				"x": 1.5845558324,
				"y": 0.3381941494,
				"z": 0.5832790189,
				"element": "C" 
			},
			{
				"x": 0.3913932285,
				"y": 1.0006027862,
				"z": 0.9022057894,
				"element": "C" 
			},
			{
				"x": 0.2030427661,
				"y": 2.3167471975,
				"z": 0.4931660035,
				"element": "C" 
			},
			{
				"x": -1.4312785217,
				"y": 3.2094125437,
				"z": 0.9393493118,
				"element": "Br" 
			},
			{
				"x": 1.1743677159,
				"y": 3.0029071147,
				"z": -0.2355973663,
				"element": "C" 
			},
			{
				"x": 2.3585046416,
				"y": 2.3394209413,
				"z": -0.5543703827,
				"element": "C" 
			},
			{
				"x": 2.5624846256,
				"y": 1.0187672718,
				"z": -0.1495223252,
				"element": "C" 
			},
			{
				"x": 0.1710267935,
				"y": -2.4891714468,
				"z": -0.8278859712,
				"element": "S" 
			},
			{
				"x": -2.1538569701,
				"y": -3.9242207799,
				"z": -1.7791808233,
				"element": "H" 
			},
			{
				"x": -2.6602846928,
				"y": -4.6989325396,
				"z": -0.3604997738,
				"element": "H" 
			},
			{
				"x": 0.0321374079,
				"y": -2.6277470885,
				"z": 2.772629142,
				"element": "H" 
			},
			{
				"x": 1.9920552734,
				"y": -1.0869930571,
				"z": 2.1418479619,
				"element": "H" 
			},
			{
				"x": 2.74998246,
				"y": -1.4609166926,
				"z": 0.6066244425,
				"element": "H" 
			},
			{
				"x": -0.384014117,
				"y": 0.4846627608,
				"z": 1.4580715484,
				"element": "H" 
			},
			{
				"x": 1.0051019527,
				"y": 4.0272920085,
				"z": -0.5465097253,
				"element": "H" 
			},
			{
				"x": 3.1242291993,
				"y": 2.8568200916,
				"z": -1.1250696524,
				"element": "H" 
			},
			{
				"x": 3.4896025471,
				"y": 0.5125542635,
				"z": -0.4051596507,
				"element": "H" 
			}
		],
		 "valence_orbital": [ 
			{
				"type": "occ",
				"energy": -0.2743,
				"method": "rhf"
			},
			{
				"type": "occ",
				"energy": -0.27129,
				"method": "rhf"
			},
			{
				"type": "occ",
				"energy": -0.25456,
				"method": "rhf"
			},
			{
				"type": "occ",
				"energy": -0.24081,
				"method": "rhf"
			},
			{
				"type": "occ",
				"energy": -0.20888,
				"method": "rhf"
			},
			{
				"type": "unocc",
				"energy": -0.01629,
				"method": "rhf"
			},
			{
				"type": "unocc",
				"energy": -0.01379,
				"method": "rhf"
			},
			{
				"type": "unocc",
				"energy": -0.0043,
				"method": "rhf"
			},
			{
				"type": "unocc",
				"energy": 0.00996,
				"method": "rhf"
			},
			{
				"type": "unocc",
				"energy": 0.01331,
				"method": "rhf"
			}
		],
		"cosmo_sigma_profile": { 
			"-0.025": 0.0,
			"-0.024": 0.0,
			"-0.023": 0.0,
			"-0.022": 0.0,
			"-0.021": 0.0,
			"-0.02": 0.0,
			"-0.019": 0.0,
			"-0.018": 0.0,
			"-0.017": 0.0,
			"-0.016": 0.0,
			"-0.015": 0.146245642164,
			"-0.014": 1.70280612149,
			"-0.013": 2.65486693057,
			"-0.012": 2.17921276493,
			"-0.011": 3.00492113333,
			"-0.01": 2.88949452898,
			"-0.009": 1.72991742835,
			"-0.008": 1.57620826024,
			"-0.007": 4.66624546718,
			"-0.006": 14.8448994332,
			"-0.005": 15.6486251297,
			"-0.004": 16.0017090349,
			"-0.003": 15.4741738115,
			"-0.002": 15.5612975734,
			"-0.001": 12.6463380575,
			"0.0": 14.587294769,
			"0.001": 17.0317381304,
			"0.002": 23.8085041565,
			"0.003": 27.536575125,
			"0.004": 29.4715703648,
			"0.005": 16.7259497498,
			"0.006": 2.86090631956,
			"0.007": 2.32615809111,
			"0.008": 1.96517762406,
			"0.009": 2.46104263865,
			"0.01": 1.94641290447,
			"0.011": 2.0375023921,
			"0.012": 1.30505930741,
			"0.013": 0.601263830968,
			"0.014": 0.959271844735,
			"0.015": 1.23763684659,
			"0.016": 0.526524179938,
			"0.017": 5.19725604447e-05,
			"0.018": 0.0,
			"0.019": 0.0,
			"0.02": 0.0,
			"0.021": 0.0,
			"0.022": 0.0,
			"0.023": 0.0,
			"0.024": 0.0,
			"0.025": 0.0
		}
	}
}
