{
	 "smiles": "NC1=CC(CN2CCCCC2)=C(Cl)C=C1", 
	 "Tm": 399.15, 
	 "num_atms": 32, 
	 "gaussian": { 
		 "optdone": 1, 
		 "sigma_profile": "yes", 
		 "theory": "DFT", 
		 "functional": "B3LYP", 
		 "basiset": "6-31G**", 
		 "properties": { 
			 "R2extent": 5418.3279, 
			 "electric_dipole_moment_norm": 2.79586330853, 
			 "electric_quadrupole_moment_norm": 17.3341176404, 
			 "total_energy": -1037.21605078, 
			 "HOMO_LUMO_gap": 0.19789, 
			 "cosmo_polarized_energy": -9.0, 
			 "cosmo_cavitation_energy": 34.34, 
			 "cosmo_dispersion_energy": -24.91, 
			 "cosmo_repulsion_energy": 1.98, 
			 "cosmo_total_nonelectrostatic_energy": 11.41, 
			 "SMD_solvation_energy": 3.45 
		},
		"coords": [
			{
				"x": 3.9452365285,
				"y": -0.7101895931,
				"z": -1.8830918971,
				"element": "N" 
			},
			{
				"x": 3.4511766935,
				"y": -1.2295537712,
				"z": -0.6841235491,
				"element": "C" 
			},
			{
				"x": 2.3184667609,
				"y": -0.6667881708,
				"z": -0.0764347352,
				"element": "C" 
			},
			{
				"x": 1.7598427301,
				"y": -1.1953599729,
				"z": 1.0898573707,
				"element": "C" 
			},
			{
				"x": 0.5504505961,
				"y": -0.5298979201,
				"z": 1.7291973879,
				"element": "C" 
			},
			{
				"x": -0.1990502046,
				"y": 0.3267831379,
				"z": 0.8171788742,
				"element": "N" 
			},
			{
				"x": -0.944730128,
				"y": 1.3680632764,
				"z": 1.5406211559,
				"element": "C" 
			},
			{
				"x": -1.9826928103,
				"y": 2.0195896878,
				"z": 0.6261592979,
				"element": "C" 
			},
			{
				"x": -3.0780763001,
				"y": 1.0032239542,
				"z": 0.2230090836,
				"element": "C" 
			},
			{
				"x": -2.5168642025,
				"y": -0.4370377235,
				"z": 0.2082207398,
				"element": "C" 
			},
			{
				"x": -1.0258668187,
				"y": -0.4285648759,
				"z": -0.1538847085,
				"element": "C" 
			},
			{
				"x": 2.3788491746,
				"y": -2.3178547789,
				"z": 1.6585645604,
				"element": "C" 
			},
			{
				"x": 1.7636153193,
				"y": -3.0281131625,
				"z": 3.1587700524,
				"element": "Cl" 
			},
			{
				"x": 3.5051502056,
				"y": -2.8945597572,
				"z": 1.074636328,
				"element": "C" 
			},
			{
				"x": 4.0397293053,
				"y": -2.3590482797,
				"z": -0.0925522602,
				"element": "C" 
			},
			{
				"x": 4.9234567474,
				"y": -0.8937743777,
				"z": -2.05937109,
				"element": "H" 
			},
			{
				"x": 3.7073232223,
				"y": 0.2564614436,
				"z": -2.058104177,
				"element": "H" 
			},
			{
				"x": 1.8383799421,
				"y": 0.206994355,
				"z": -0.5073065334,
				"element": "H" 
			},
			{
				"x": 0.9064889115,
				"y": 0.094331851,
				"z": 2.5599945653,
				"element": "H" 
			},
			{
				"x": -0.0843948007,
				"y": -1.3029259331,
				"z": 2.195569975,
				"element": "H" 
			},
			{
				"x": -1.4621884451,
				"y": 0.9646735496,
				"z": 2.433283582,
				"element": "H" 
			},
			{
				"x": -0.2287909748,
				"y": 2.1139742942,
				"z": 1.9085559079,
				"element": "H" 
			},
			{
				"x": -1.4667819482,
				"y": 2.3976370433,
				"z": -0.2646313502,
				"element": "H" 
			},
			{
				"x": -2.4236201358,
				"y": 2.8885069771,
				"z": 1.1258681999,
				"element": "H" 
			},
			{
				"x": -3.9220432696,
				"y": 1.0620091802,
				"z": 0.9199739129,
				"element": "H" 
			},
			{
				"x": -3.4742316817,
				"y": 1.264544829,
				"z": -0.7650081547,
				"element": "H" 
			},
			{
				"x": -3.0713401289,
				"y": -1.0645656835,
				"z": -0.4985706388,
				"element": "H" 
			},
			{
				"x": -2.6406366792,
				"y": -0.9007554653,
				"z": 1.1947430587,
				"element": "H" 
			},
			{
				"x": -0.90183654,
				"y": 0.007701852,
				"z": -1.1553813676,
				"element": "H" 
			},
			{
				"x": -0.6374624242,
				"y": -1.449293429,
				"z": -0.2174570697,
				"element": "H" 
			},
			{
				"x": 3.9627188254,
				"y": -3.7626665192,
				"z": 1.5368732505,
				"element": "H" 
			},
			{
				"x": 4.9126225297,
				"y": -2.8200460179,
				"z": -0.5473597711,
				"element": "H" 
			}
		],
		 "valence_orbital": [ 
			{
				"type": "occ",
				"energy": -0.29927,
				"method": "rhf"
			},
			{
				"type": "occ",
				"energy": -0.28503,
				"method": "rhf"
			},
			{
				"type": "occ",
				"energy": -0.2438,
				"method": "rhf"
			},
			{
				"type": "occ",
				"energy": -0.20198,
				"method": "rhf"
			},
			{
				"type": "occ",
				"energy": -0.19762,
				"method": "rhf"
			},
			{
				"type": "unocc",
				"energy": 0.00027,
				"method": "rhf"
			},
			{
				"type": "unocc",
				"energy": 0.01375,
				"method": "rhf"
			},
			{
				"type": "unocc",
				"energy": 0.04201,
				"method": "rhf"
			},
			{
				"type": "unocc",
				"energy": 0.07657,
				"method": "rhf"
			},
			{
				"type": "unocc",
				"energy": 0.08495,
				"method": "rhf"
			}
		],
		"cosmo_sigma_profile": { 
			"-0.025": 0.0,
			"-0.024": 0.0,
			"-0.023": 0.0,
			"-0.022": 0.0,
			"-0.021": 0.0,
			"-0.02": 0.0,
			"-0.019": 0.0,
			"-0.018": 0.0,
			"-0.017": 0.0,
			"-0.016": 0.0,
			"-0.015": 0.0,
			"-0.014": 0.0,
			"-0.013": 0.42423532653,
			"-0.012": 2.02978077846,
			"-0.011": 3.27992315345,
			"-0.01": 2.82910976475,
			"-0.009": 2.81225532574,
			"-0.008": 3.06007289803,
			"-0.007": 3.19779427981,
			"-0.006": 5.14564268113,
			"-0.005": 6.21897391096,
			"-0.004": 7.75369946189,
			"-0.003": 16.2807448984,
			"-0.002": 34.6601545318,
			"-0.001": 42.6597443789,
			"0.0": 31.0616929542,
			"0.001": 24.0143905809,
			"0.002": 12.5292039498,
			"0.003": 15.2477047818,
			"0.004": 16.5829474741,
			"0.005": 19.3326523409,
			"0.006": 11.5341031347,
			"0.007": 1.83532913441,
			"0.008": 1.65401541344,
			"0.009": 1.74844905979,
			"0.01": 0.822587928774,
			"0.011": 0.638904703836,
			"0.012": 1.46908941974,
			"0.013": 0.468926580183,
			"0.014": 0.654710779381,
			"0.015": 0.15448870814,
			"0.016": 0.0,
			"0.017": 0.0,
			"0.018": 0.0,
			"0.019": 0.0,
			"0.02": 0.0,
			"0.021": 0.0,
			"0.022": 0.0,
			"0.023": 0.0,
			"0.024": 0.0,
			"0.025": 0.0
		}
	}
}
