{
	 "smiles": "C(CC1CCNCC1)CC1CCNCC1", 
	 "Tm": 339.65, 
	 "num_atms": 41, 
	 "gaussian": { 
		 "optdone": 1, 
		 "sigma_profile": "yes", 
		 "theory": "DFT", 
		 "functional": "B3LYP", 
		 "basiset": "6-31G**", 
		 "properties": { 
			 "R2extent": 5087.6052, 
			 "electric_dipole_moment_norm": 0.698567885033, 
			 "electric_quadrupole_moment_norm": 12.2041610158, 
			 "total_energy": -620.548400743, 
			 "HOMO_LUMO_gap": 0.27435, 
			 "cosmo_polarized_energy": -6.5, 
			 "cosmo_cavitation_energy": 37.13, 
			 "cosmo_dispersion_energy": -26.82, 
			 "cosmo_repulsion_energy": 2.12, 
			 "cosmo_total_nonelectrostatic_energy": 12.44, 
			 "SMD_solvation_energy": 0.33 
		},
		"coords": [
			{
				"x": 0.2866495673,
				"y": 0.2140596303,
				"z": -0.3409476629,
				"element": "C" 
			},
			{
				"x": 0.3825096652,
				"y": 1.5596093439,
				"z": 0.4120165121,
				"element": "C" 
			},
			{
				"x": -0.7310927681,
				"y": 1.9451622647,
				"z": 1.4154487542,
				"element": "C" 
			},
			{
				"x": -0.5400808735,
				"y": 1.3561335247,
				"z": 2.8391333329,
				"element": "C" 
			},
			{
				"x": -1.8715556142,
				"y": 1.3344761588,
				"z": 3.6204036086,
				"element": "C" 
			},
			{
				"x": -2.688935363,
				"y": 2.4684487995,
				"z": 3.1916526245,
				"element": "N" 
			},
			{
				"x": -3.2175280199,
				"y": 2.2921901673,
				"z": 1.8317079737,
				"element": "C" 
			},
			{
				"x": -2.1539694542,
				"y": 1.6417113246,
				"z": 0.91599632,
				"element": "C" 
			},
			{
				"x": 0.4505609847,
				"y": -1.0517620249,
				"z": 0.5156057959,
				"element": "C" 
			},
			{
				"x": 0.5355691892,
				"y": -2.4336352025,
				"z": -0.1825470333,
				"element": "C" 
			},
			{
				"x": -0.7515523868,
				"y": -2.8725278071,
				"z": -0.926747222,
				"element": "C" 
			},
			{
				"x": -0.81428494,
				"y": -2.4338995648,
				"z": -2.3957646332,
				"element": "C" 
			},
			{
				"x": 0.3934059225,
				"y": -2.8865104895,
				"z": -3.0886846161,
				"element": "N" 
			},
			{
				"x": 1.5903304086,
				"y": -2.2386934749,
				"z": -2.5498699184,
				"element": "C" 
			},
			{
				"x": 1.7800153476,
				"y": -2.649441024,
				"z": -1.0827236034,
				"element": "C" 
			},
			{
				"x": -0.6627705075,
				"y": 0.1741300344,
				"z": -0.8879886839,
				"element": "H" 
			},
			{
				"x": 1.0691095157,
				"y": 0.2293731598,
				"z": -1.1084535997,
				"element": "H" 
			},
			{
				"x": 1.3508726048,
				"y": 1.6104019578,
				"z": 0.9305461787,
				"element": "H" 
			},
			{
				"x": 0.4177719286,
				"y": 2.3446879383,
				"z": -0.3553964551,
				"element": "H" 
			},
			{
				"x": -0.670607834,
				"y": 3.0348345902,
				"z": 1.5293928678,
				"element": "H" 
			},
			{
				"x": -0.1316446998,
				"y": 0.3418755253,
				"z": 2.7975134559,
				"element": "H" 
			},
			{
				"x": 0.1949839731,
				"y": 1.9689515398,
				"z": 3.373668403,
				"element": "H" 
			},
			{
				"x": -1.6840033376,
				"y": 1.4232350332,
				"z": 4.6956887637,
				"element": "H" 
			},
			{
				"x": -2.3784418797,
				"y": 0.3609168044,
				"z": 3.4711720638,
				"element": "H" 
			},
			{
				"x": -3.4508474919,
				"y": 2.6302450374,
				"z": 3.8423997185,
				"element": "H" 
			},
			{
				"x": -4.1338590058,
				"y": 1.6745862945,
				"z": 1.804947699,
				"element": "H" 
			},
			{
				"x": -3.4911457811,
				"y": 3.2821241043,
				"z": 1.4443350848,
				"element": "H" 
			},
			{
				"x": -2.306290788,
				"y": 0.5557830266,
				"z": 0.8858578969,
				"element": "H" 
			},
			{
				"x": -2.2914549536,
				"y": 1.9976953113,
				"z": -0.1117817732,
				"element": "H" 
			},
			{
				"x": 1.3586269155,
				"y": -0.9380221713,
				"z": 1.1259016233,
				"element": "H" 
			},
			{
				"x": -0.3812552944,
				"y": -1.1112996535,
				"z": 1.2289732244,
				"element": "H" 
			},
			{
				"x": 0.6499498614,
				"y": -3.1339062562,
				"z": 0.6564084993,
				"element": "H" 
			},
			{
				"x": -0.7966118406,
				"y": -3.9683068531,
				"z": -0.9174027488,
				"element": "H" 
			},
			{
				"x": -1.6391023567,
				"y": -2.5111852025,
				"z": -0.3918373569,
				"element": "H" 
			},
			{
				"x": -0.9539885398,
				"y": -1.338950466,
				"z": -2.4621540815,
				"element": "H" 
			},
			{
				"x": -1.6851844305,
				"y": -2.8954373986,
				"z": -2.8757795452,
				"element": "H" 
			},
			{
				"x": 0.3142266617,
				"y": -2.6886003005,
				"z": -4.0823193577,
				"element": "H" 
			},
			{
				"x": 1.5481183604,
				"y": -1.137271256,
				"z": -2.6371467711,
				"element": "H" 
			},
			{
				"x": 2.4580374877,
				"y": -2.5694041706,
				"z": -3.1327935547,
				"element": "H" 
			},
			{
				"x": 2.6471567882,
				"y": -2.1261523025,
				"z": -0.6602722286,
				"element": "H" 
			},
			{
				"x": 2.0203129786,
				"y": -3.7195259526,
				"z": -1.0787595554,
				"element": "H" 
			}
		],
		 "valence_orbital": [ 
			{
				"type": "occ",
				"energy": -0.29257,
				"method": "rhf"
			},
			{
				"type": "occ",
				"energy": -0.28757,
				"method": "rhf"
			},
			{
				"type": "occ",
				"energy": -0.28253,
				"method": "rhf"
			},
			{
				"type": "occ",
				"energy": -0.21337,
				"method": "rhf"
			},
			{
				"type": "occ",
				"energy": -0.20676,
				"method": "rhf"
			},
			{
				"type": "unocc",
				"energy": 0.06759,
				"method": "rhf"
			},
			{
				"type": "unocc",
				"energy": 0.08578,
				"method": "rhf"
			},
			{
				"type": "unocc",
				"energy": 0.09666,
				"method": "rhf"
			},
			{
				"type": "unocc",
				"energy": 0.10287,
				"method": "rhf"
			},
			{
				"type": "unocc",
				"energy": 0.10643,
				"method": "rhf"
			}
		],
		"cosmo_sigma_profile": { 
			"-0.025": 0.0,
			"-0.024": 0.0,
			"-0.023": 0.0,
			"-0.022": 0.0,
			"-0.021": 0.0,
			"-0.02": 0.0,
			"-0.019": 0.0,
			"-0.018": 0.0,
			"-0.017": 0.0,
			"-0.016": 0.0,
			"-0.015": 0.0,
			"-0.014": 0.0,
			"-0.013": 0.0,
			"-0.012": 0.0,
			"-0.011": 0.0,
			"-0.01": 0.661382202005,
			"-0.009": 2.59332791528,
			"-0.008": 2.47793694097,
			"-0.007": 2.24920273471,
			"-0.006": 2.40105975411,
			"-0.005": 2.48926031898,
			"-0.004": 3.48060943748,
			"-0.003": 10.5005873451,
			"-0.002": 34.3582137696,
			"-0.001": 72.5635254446,
			"0.0": 76.2236862801,
			"0.001": 37.8338664867,
			"0.002": 11.7410909849,
			"0.003": 2.02946976527,
			"0.004": 2.58896355813,
			"0.005": 1.67535438833,
			"0.006": 1.4533336949,
			"0.007": 1.74001291921,
			"0.008": 2.11905459363,
			"0.009": 1.43863864145,
			"0.01": 0.944198347206,
			"0.011": 1.8127049032,
			"0.012": 1.01739522075,
			"0.013": 1.16827388817,
			"0.014": 1.19801185287,
			"0.015": 1.15020260074,
			"0.016": 0.977214376546,
			"0.017": 0.901671775034,
			"0.018": 0.845539957401,
			"0.019": 0.297138696695,
			"0.02": 0.0,
			"0.021": 0.0,
			"0.022": 0.0,
			"0.023": 0.0,
			"0.024": 0.0,
			"0.025": 0.0
		}
	}
}
