{
	 "smiles": "CC1CCC2=C(C1)C1=C(N2)C=CC(=C1)C(O)=O", 
	 "Tm": 492.15, 
	 "num_atms": 32, 
	 "gaussian": { 
		 "optdone": 1, 
		 "sigma_profile": "yes", 
		 "theory": "DFT", 
		 "functional": "B3LYP", 
		 "basiset": "6-31G**", 
		 "properties": { 
			 "R2extent": 5759.5056, 
			 "electric_dipole_moment_norm": 4.71246900679, 
			 "electric_quadrupole_moment_norm": 19.3558387858, 
			 "total_energy": -747.782707415, 
			 "HOMO_LUMO_gap": 0.17376, 
			 "cosmo_polarized_energy": -14.22, 
			 "cosmo_cavitation_energy": 34.31, 
			 "cosmo_dispersion_energy": -25.24, 
			 "cosmo_repulsion_energy": 1.95, 
			 "cosmo_total_nonelectrostatic_energy": 11.02, 
			 "SMD_solvation_energy": 5.81 
		},
		"coords": [
			{
				"x": -0.4344805267,
				"y": 2.674921233,
				"z": -3.2473692953,
				"element": "C" 
			},
			{
				"x": 0.0649445297,
				"y": 1.2760371867,
				"z": -2.8712934255,
				"element": "C" 
			},
			{
				"x": -0.273720028,
				"y": 0.241068165,
				"z": -3.9635662543,
				"element": "C" 
			},
			{
				"x": 0.3588159567,
				"y": -1.1377768115,
				"z": -3.6865814528,
				"element": "C" 
			},
			{
				"x": 0.1623301772,
				"y": -1.4914147622,
				"z": -2.2467249851,
				"element": "C" 
			},
			{
				"x": -0.2141993717,
				"y": -0.6268363858,
				"z": -1.251727172,
				"element": "C" 
			},
			{
				"x": -0.4951026847,
				"y": 0.8272450561,
				"z": -1.5022737587,
				"element": "C" 
			},
			{
				"x": -0.2696404808,
				"y": -1.3905249154,
				"z": -0.0301206022,
				"element": "C" 
			},
			{
				"x": 0.0943286596,
				"y": -2.7300583616,
				"z": -0.3605840206,
				"element": "C" 
			},
			{
				"x": 0.3514767507,
				"y": -2.7608256235,
				"z": -1.712428676,
				"element": "N" 
			},
			{
				"x": 0.1465253249,
				"y": -3.7485646532,
				"z": 0.5986292876,
				"element": "C" 
			},
			{
				"x": -0.1702515172,
				"y": -3.4167569598,
				"z": 1.9063432667,
				"element": "C" 
			},
			{
				"x": -0.5335814591,
				"y": -2.0954060832,
				"z": 2.260826394,
				"element": "C" 
			},
			{
				"x": -0.5848070217,
				"y": -1.0824798303,
				"z": 1.2979401954,
				"element": "C" 
			},
			{
				"x": -0.8543495715,
				"y": -1.8367021016,
				"z": 3.68224165,
				"element": "C" 
			},
			{
				"x": -1.1925340003,
				"y": -0.5417774609,
				"z": 3.9334162062,
				"element": "O" 
			},
			{
				"x": -0.8314263105,
				"y": -2.6674172638,
				"z": 4.5724260996,
				"element": "O" 
			},
			{
				"x": -0.1953010072,
				"y": 3.4045028871,
				"z": -2.4660123643,
				"element": "H" 
			},
			{
				"x": 0.0200957219,
				"y": 3.0235989359,
				"z": -4.1810110498,
				"element": "H" 
			},
			{
				"x": -1.5226860757,
				"y": 2.6801639243,
				"z": -3.3838492568,
				"element": "H" 
			},
			{
				"x": 1.1610901132,
				"y": 1.3142375381,
				"z": -2.781733577,
				"element": "H" 
			},
			{
				"x": -1.3652438612,
				"y": 0.1323196576,
				"z": -4.0224560356,
				"element": "H" 
			},
			{
				"x": 0.0595703373,
				"y": 0.6064836354,
				"z": -4.9418071591,
				"element": "H" 
			},
			{
				"x": -0.0850597211,
				"y": -1.8983082823,
				"z": -4.3432329917,
				"element": "H" 
			},
			{
				"x": 1.4319825049,
				"y": -1.1131642081,
				"z": -3.929245078,
				"element": "H" 
			},
			{
				"x": -1.5792554079,
				"y": 1.0188847827,
				"z": -1.4736236339,
				"element": "H" 
			},
			{
				"x": -0.0615503755,
				"y": 1.4488040554,
				"z": -0.7076715799,
				"element": "H" 
			},
			{
				"x": 0.6295249382,
				"y": -3.5758966333,
				"z": -2.2350428795,
				"element": "H" 
			},
			{
				"x": 0.425229093,
				"y": -4.7638369292,
				"z": 0.3309044985,
				"element": "H" 
			},
			{
				"x": -0.1464764825,
				"y": -4.1646989002,
				"z": 2.6909191296,
				"element": "H" 
			},
			{
				"x": -0.8662095268,
				"y": -0.0760794007,
				"z": 1.5872984126,
				"element": "H" 
			},
			{
				"x": -1.3762386771,
				"y": -0.5079414909,
				"z": 4.8861101079,
				"element": "H" 
			}
		],
		 "valence_orbital": [ 
			{
				"type": "occ",
				"energy": -0.30136,
				"method": "rhf"
			},
			{
				"type": "occ",
				"energy": -0.27171,
				"method": "rhf"
			},
			{
				"type": "occ",
				"energy": -0.26065,
				"method": "rhf"
			},
			{
				"type": "occ",
				"energy": -0.22273,
				"method": "rhf"
			},
			{
				"type": "occ",
				"energy": -0.2,
				"method": "rhf"
			},
			{
				"type": "unocc",
				"energy": -0.02624,
				"method": "rhf"
			},
			{
				"type": "unocc",
				"energy": -0.00427,
				"method": "rhf"
			},
			{
				"type": "unocc",
				"energy": 0.06234,
				"method": "rhf"
			},
			{
				"type": "unocc",
				"energy": 0.07802,
				"method": "rhf"
			},
			{
				"type": "unocc",
				"energy": 0.08442,
				"method": "rhf"
			}
		],
		"cosmo_sigma_profile": { 
			"-0.025": 0.0,
			"-0.024": 0.0,
			"-0.023": 0.0,
			"-0.022": 0.0,
			"-0.021": 0.0,
			"-0.02": 0.0,
			"-0.019": 0.0,
			"-0.018": 0.236264194258,
			"-0.017": 0.910249424274,
			"-0.016": 1.08492506804,
			"-0.015": 2.20524657616,
			"-0.014": 1.84918689751,
			"-0.013": 2.22830555225,
			"-0.012": 1.41627161644,
			"-0.011": 1.93648988261,
			"-0.01": 1.8957180102,
			"-0.009": 2.11414807886,
			"-0.008": 2.19188755134,
			"-0.007": 2.4044306999,
			"-0.006": 4.78013943894,
			"-0.005": 5.91669806679,
			"-0.004": 10.5414879254,
			"-0.003": 19.4284291069,
			"-0.002": 33.9004690281,
			"-0.001": 34.0207054014,
			"0.0": 26.2364821743,
			"0.001": 21.5129371564,
			"0.002": 16.1142471939,
			"0.003": 15.4224526264,
			"0.004": 17.6140355853,
			"0.005": 18.8082693188,
			"0.006": 5.57148433553,
			"0.007": 2.68738817664,
			"0.008": 3.95116539715,
			"0.009": 1.85928436611,
			"0.01": 1.46063571826,
			"0.011": 2.49016417265,
			"0.012": 4.9325371332,
			"0.013": 2.22232245191,
			"0.014": 0.0,
			"0.015": 0.0,
			"0.016": 0.0,
			"0.017": 0.0,
			"0.018": 0.0,
			"0.019": 0.0,
			"0.02": 0.0,
			"0.021": 0.0,
			"0.022": 0.0,
			"0.023": 0.0,
			"0.024": 0.0,
			"0.025": 0.0
		}
	}
}
