{
	 "smiles": "ON=C/C1=CC=C(C=NO)C(=C1)[N+]([O-])=O", 
	 "Tm": 449.15, 
	 "num_atms": 22, 
	 "gaussian": { 
		 "optdone": 1, 
		 "sigma_profile": "yes", 
		 "theory": "DFT", 
		 "functional": "B3LYP", 
		 "basiset": "6-31G**", 
		 "properties": { 
			 "R2extent": 4269.1701, 
			 "electric_dipole_moment_norm": 4.49269937565, 
			 "electric_quadrupole_moment_norm": 11.7126025152, 
			 "total_energy": -773.988274389, 
			 "HOMO_LUMO_gap": 0.14161, 
			 "cosmo_polarized_energy": -14.63, 
			 "cosmo_cavitation_energy": 28.45, 
			 "cosmo_dispersion_energy": -20.88, 
			 "cosmo_repulsion_energy": 1.64, 
			 "cosmo_total_nonelectrostatic_energy": 9.21, 
			 "SMD_solvation_energy": 7.73 
		},
		"coords": [
			{
				"x": -2.0737576869,
				"y": 2.5504580261,
				"z": -3.1264957066,
				"element": "O" 
			},
			{
				"x": -2.1285714592,
				"y": 3.5584858905,
				"z": -2.1618266575,
				"element": "N" 
			},
			{
				"x": -1.7633971545,
				"y": 3.1815140589,
				"z": -0.9880506764,
				"element": "C" 
			},
			{
				"x": -1.2974797302,
				"y": 1.8981195739,
				"z": -0.4494136454,
				"element": "C" 
			},
			{
				"x": -1.1504624349,
				"y": 0.6980924389,
				"z": -1.1796261091,
				"element": "C" 
			},
			{
				"x": -0.7102539927,
				"y": -0.4575071759,
				"z": -0.5542733387,
				"element": "C" 
			},
			{
				"x": -0.3646141867,
				"y": -0.501439615,
				"z": 0.8117146465,
				"element": "C" 
			},
			{
				"x": 0.0516023683,
				"y": -1.7775202726,
				"z": 1.4107174105,
				"element": "C" 
			},
			{
				"x": 0.2860471646,
				"y": -2.7769953961,
				"z": 0.6384160706,
				"element": "N" 
			},
			{
				"x": 0.6228204262,
				"y": -3.9046490523,
				"z": 1.3761605158,
				"element": "O" 
			},
			{
				"x": -0.5074409519,
				"y": 0.7103917709,
				"z": 1.5226281993,
				"element": "C" 
			},
			{
				"x": -0.9746125842,
				"y": 1.8714706884,
				"z": 0.9133038938,
				"element": "C" 
			},
			{
				"x": -0.154452852,
				"y": 0.8408217573,
				"z": 2.949475063,
				"element": "N" 
			},
			{
				"x": -0.6783375958,
				"y": 1.7574315559,
				"z": 3.5808730112,
				"element": "O" 
			},
			{
				"x": 0.6585045949,
				"y": 0.0473412291,
				"z": 3.4261096271,
				"element": "O" 
			},
			{
				"x": -2.3754880388,
				"y": 3.0105962287,
				"z": -3.9210101972,
				"element": "H" 
			},
			{
				"x": -1.8211995302,
				"y": 3.9974245831,
				"z": -0.2687709763,
				"element": "H" 
			},
			{
				"x": -1.3939219802,
				"y": 0.6794387816,
				"z": -2.2317951339,
				"element": "H" 
			},
			{
				"x": -0.6272819657,
				"y": -1.3777025586,
				"z": -1.1206074391,
				"element": "H" 
			},
			{
				"x": 0.1536139459,
				"y": -1.8699004145,
				"z": 2.4868052757,
				"element": "H" 
			},
			{
				"x": 0.7964819423,
				"y": -4.5659732521,
				"z": 0.692101325,
				"element": "H" 
			},
			{
				"x": -1.0747982982,
				"y": 2.7606011536,
				"z": 1.5240648418,
				"element": "H" 
			}
		],
		 "valence_orbital": [ 
			{
				"type": "occ",
				"energy": -0.29119,
				"method": "rhf"
			},
			{
				"type": "occ",
				"energy": -0.28707,
				"method": "rhf"
			},
			{
				"type": "occ",
				"energy": -0.28207,
				"method": "rhf"
			},
			{
				"type": "occ",
				"energy": -0.27807,
				"method": "rhf"
			},
			{
				"type": "occ",
				"energy": -0.23977,
				"method": "rhf"
			},
			{
				"type": "unocc",
				"energy": -0.09816,
				"method": "rhf"
			},
			{
				"type": "unocc",
				"energy": -0.07277,
				"method": "rhf"
			},
			{
				"type": "unocc",
				"energy": -0.01787,
				"method": "rhf"
			},
			{
				"type": "unocc",
				"energy": -0.00356,
				"method": "rhf"
			},
			{
				"type": "unocc",
				"energy": 0.05391,
				"method": "rhf"
			}
		],
		"cosmo_sigma_profile": { 
			"-0.025": 0.0,
			"-0.024": 0.0,
			"-0.023": 0.0,
			"-0.022": 0.0,
			"-0.021": 0.0,
			"-0.02": 0.0,
			"-0.019": 0.0228493258806,
			"-0.018": 1.43832274749,
			"-0.017": 2.49574950097,
			"-0.016": 1.22992510456,
			"-0.015": 2.03755356468,
			"-0.014": 1.69717866638,
			"-0.013": 1.63223476405,
			"-0.012": 1.15874389374,
			"-0.011": 1.02083595388,
			"-0.01": 2.38370982673,
			"-0.009": 4.18878284466,
			"-0.008": 5.1717342849,
			"-0.007": 6.0988534462,
			"-0.006": 8.13756273081,
			"-0.005": 8.96384060211,
			"-0.004": 9.96685414988,
			"-0.003": 9.28161789404,
			"-0.002": 10.4798819038,
			"-0.001": 16.2939743585,
			"0.0": 23.9291133226,
			"0.001": 19.3443686298,
			"0.002": 13.2855756636,
			"0.003": 11.3703137671,
			"0.004": 10.8110052748,
			"0.005": 9.98312434701,
			"0.006": 10.5579501457,
			"0.007": 13.659473036,
			"0.008": 7.84796328637,
			"0.009": 7.95257281691,
			"0.01": 3.67847108475,
			"0.011": 0.828222718332,
			"0.012": 0.806310811063,
			"0.013": 0.555090671952,
			"0.014": 0.00235589076844,
			"0.015": 0.0,
			"0.016": 0.0,
			"0.017": 0.0,
			"0.018": 0.0,
			"0.019": 0.0,
			"0.02": 0.0,
			"0.021": 0.0,
			"0.022": 0.0,
			"0.023": 0.0,
			"0.024": 0.0,
			"0.025": 0.0
		}
	}
}
