{
	 "smiles": "CC1=NNC2=C1C=C(C=O)C=N2", 
	 "Tm": 476.15, 
	 "num_atms": 19, 
	 "gaussian": { 
		 "optdone": 1, 
		 "sigma_profile": "yes", 
		 "theory": "DFT", 
		 "functional": "B3LYP", 
		 "basiset": "6-31G**", 
		 "properties": { 
			 "R2extent": 2416.014, 
			 "electric_dipole_moment_norm": 3.19466657728, 
			 "electric_quadrupole_moment_norm": 14.2777700395, 
			 "total_energy": -548.53158339, 
			 "HOMO_LUMO_gap": 0.18095, 
			 "cosmo_polarized_energy": -13.22, 
			 "cosmo_cavitation_energy": 24.09, 
			 "cosmo_dispersion_energy": -17.79, 
			 "cosmo_repulsion_energy": 1.41, 
			 "cosmo_total_nonelectrostatic_energy": 7.7, 
			 "SMD_solvation_energy": 2.54 
		},
		"coords": [
			{
				"x": 0.5309684479,
				"y": -2.8171535667,
				"z": 1.6066578497,
				"element": "C" 
			},
			{
				"x": 0.1784989811,
				"y": -2.3358511134,
				"z": 0.2350586297,
				"element": "C" 
			},
			{
				"x": -0.3487199752,
				"y": -3.1537194283,
				"z": -0.661055067,
				"element": "N" 
			},
			{
				"x": -0.5514103164,
				"y": -2.4184833562,
				"z": -1.7941222038,
				"element": "N" 
			},
			{
				"x": -0.1619352962,
				"y": -1.1272549697,
				"z": -1.6485849217,
				"element": "C" 
			},
			{
				"x": 0.3302227445,
				"y": -1.0192223222,
				"z": -0.3197169307,
				"element": "C" 
			},
			{
				"x": 0.7987773835,
				"y": 0.2334395933,
				"z": 0.0813950542,
				"element": "C" 
			},
			{
				"x": 0.7438742985,
				"y": 1.2683119262,
				"z": -0.8535397675,
				"element": "C" 
			},
			{
				"x": 1.2209120971,
				"y": 2.6188716427,
				"z": -0.5015618781,
				"element": "C" 
			},
			{
				"x": 1.2096581803,
				"y": 3.5774229191,
				"z": -1.2512135256,
				"element": "O" 
			},
			{
				"x": 0.223957916,
				"y": 1.0173449592,
				"z": -2.1545331512,
				"element": "C" 
			},
			{
				"x": -0.2300670376,
				"y": -0.1570325603,
				"z": -2.5728753925,
				"element": "N" 
			},
			{
				"x": -0.0192954297,
				"y": -2.2642189932,
				"z": 2.3763172594,
				"element": "H" 
			},
			{
				"x": 0.2855081901,
				"y": -3.8769017073,
				"z": 1.6992501529,
				"element": "H" 
			},
			{
				"x": 1.5998444087,
				"y": -2.6886097291,
				"z": 1.8113011625,
				"element": "H" 
			},
			{
				"x": -0.9507172998,
				"y": -2.8526747202,
				"z": -2.6117875299,
				"element": "H" 
			},
			{
				"x": 1.1939508463,
				"y": 0.4120248756,
				"z": 1.0793792667,
				"element": "H" 
			},
			{
				"x": 1.6075839919,
				"y": 2.7114107466,
				"z": 0.5390244126,
				"element": "H" 
			},
			{
				"x": 0.1943878688,
				"y": 1.8437958038,
				"z": -2.8602934196,
				"element": "H" 
			}
		],
		 "valence_orbital": [ 
			{
				"type": "occ",
				"energy": -0.31122,
				"method": "rhf"
			},
			{
				"type": "occ",
				"energy": -0.28347,
				"method": "rhf"
			},
			{
				"type": "occ",
				"energy": -0.26361,
				"method": "rhf"
			},
			{
				"type": "occ",
				"energy": -0.25666,
				"method": "rhf"
			},
			{
				"type": "occ",
				"energy": -0.2494,
				"method": "rhf"
			},
			{
				"type": "unocc",
				"energy": -0.06845,
				"method": "rhf"
			},
			{
				"type": "unocc",
				"energy": -0.05004,
				"method": "rhf"
			},
			{
				"type": "unocc",
				"energy": 0.02937,
				"method": "rhf"
			},
			{
				"type": "unocc",
				"energy": 0.05038,
				"method": "rhf"
			},
			{
				"type": "unocc",
				"energy": 0.08024,
				"method": "rhf"
			}
		],
		"cosmo_sigma_profile": { 
			"-0.025": 0.0,
			"-0.024": 0.0,
			"-0.023": 0.0,
			"-0.022": 0.0,
			"-0.021": 0.0,
			"-0.02": 0.0,
			"-0.019": 0.0,
			"-0.018": 0.0,
			"-0.017": 0.968352430475,
			"-0.016": 1.40458455579,
			"-0.015": 1.43460020955,
			"-0.014": 0.379700294399,
			"-0.013": 0.266209029722,
			"-0.012": 1.32649194127,
			"-0.011": 1.41448286252,
			"-0.01": 0.609332019261,
			"-0.009": 2.35611281538,
			"-0.008": 4.10841838381,
			"-0.007": 5.69006796024,
			"-0.006": 7.07846885804,
			"-0.005": 11.8213999471,
			"-0.004": 13.0763200075,
			"-0.003": 12.5415035242,
			"-0.002": 13.5385527446,
			"-0.001": 22.0769425549,
			"0.0": 23.7655973304,
			"0.001": 11.8420744993,
			"0.002": 6.32673942997,
			"0.003": 5.30432548549,
			"0.004": 5.7066502486,
			"0.005": 4.11512863815,
			"0.006": 4.0545043237,
			"0.007": 4.08187267314,
			"0.008": 3.61147742277,
			"0.009": 4.88534906389,
			"0.01": 3.40114489418,
			"0.011": 6.56319082275,
			"0.012": 4.43948131299,
			"0.013": 2.49997795812,
			"0.014": 1.95955793788,
			"0.015": 0.675994387926,
			"0.016": 0.0,
			"0.017": 0.0,
			"0.018": 0.0,
			"0.019": 0.0,
			"0.02": 0.0,
			"0.021": 0.0,
			"0.022": 0.0,
			"0.023": 0.0,
			"0.024": 0.0,
			"0.025": 0.0
		}
	}
}
