{
	 "smiles": "CC(O)C1=CC2=C(NC(=O)C2)C=C1", 
	 "Tm": 445.15, 
	 "num_atms": 24, 
	 "gaussian": { 
		 "optdone": 1, 
		 "sigma_profile": "yes", 
		 "theory": "DFT", 
		 "functional": "B3LYP", 
		 "basiset": "6-31G**", 
		 "properties": { 
			 "R2extent": 2980.847, 
			 "electric_dipole_moment_norm": 2.91241643657, 
			 "electric_quadrupole_moment_norm": 17.0529272889, 
			 "total_energy": -592.91362992, 
			 "HOMO_LUMO_gap": 0.19932, 
			 "cosmo_polarized_energy": -14.8, 
			 "cosmo_cavitation_energy": 27.58, 
			 "cosmo_dispersion_energy": -20.2, 
			 "cosmo_repulsion_energy": 1.62, 
			 "cosmo_total_nonelectrostatic_energy": 9.01, 
			 "SMD_solvation_energy": 5.13 
		},
		"coords": [
			{
				"x": -2.1190929991,
				"y": 1.7320227756,
				"z": 2.111174637,
				"element": "C" 
			},
			{
				"x": -0.9786365495,
				"y": 0.7527431672,
				"z": 2.3931714943,
				"element": "C" 
			},
			{
				"x": -1.5740780039,
				"y": -0.3640994498,
				"z": 3.0549384703,
				"element": "O" 
			},
			{
				"x": -0.2421482709,
				"y": 0.3376694213,
				"z": 1.1275360707,
				"element": "C" 
			},
			{
				"x": -0.7570395959,
				"y": -0.6936556055,
				"z": 0.3189896483,
				"element": "C" 
			},
			{
				"x": -0.1013406756,
				"y": -1.0431434287,
				"z": -0.8499751523,
				"element": "C" 
			},
			{
				"x": 1.0751917702,
				"y": -0.3663371821,
				"z": -1.2223872748,
				"element": "C" 
			},
			{
				"x": 1.549225624,
				"y": -0.8981328654,
				"z": -2.4280542478,
				"element": "N" 
			},
			{
				"x": 0.7471166115,
				"y": -1.922023048,
				"z": -2.9141643234,
				"element": "C" 
			},
			{
				"x": 0.9383112845,
				"y": -2.5449439499,
				"z": -3.9390222135,
				"element": "O" 
			},
			{
				"x": -0.3991644221,
				"y": -2.0854185812,
				"z": -1.8991470481,
				"element": "C" 
			},
			{
				"x": 1.608919117,
				"y": 0.6515751799,
				"z": -0.4413507898,
				"element": "C" 
			},
			{
				"x": 0.9333827027,
				"y": 0.9880869794,
				"z": 0.7383678197,
				"element": "C" 
			},
			{
				"x": -2.6274059548,
				"y": 1.9928870763,
				"z": 3.0441054482,
				"element": "H" 
			},
			{
				"x": -1.7370180542,
				"y": 2.6456542521,
				"z": 1.6471474525,
				"element": "H" 
			},
			{
				"x": -2.8479488822,
				"y": 1.2767960515,
				"z": 1.4338612543,
				"element": "H" 
			},
			{
				"x": -0.2559738715,
				"y": 1.2471539547,
				"z": 3.0637618319,
				"element": "H" 
			},
			{
				"x": -0.8777813059,
				"y": -1.0163497193,
				"z": 3.2099842663,
				"element": "H" 
			},
			{
				"x": -1.6606120403,
				"y": -1.2088127544,
				"z": 0.632267298,
				"element": "H" 
			},
			{
				"x": 2.376835639,
				"y": -0.5946206935,
				"z": -2.91958141,
				"element": "H" 
			},
			{
				"x": -1.3569980908,
				"y": -1.9373116483,
				"z": -2.410415786,
				"element": "H" 
			},
			{
				"x": -0.3979694993,
				"y": -3.1121003138,
				"z": -1.5160456463,
				"element": "H" 
			},
			{
				"x": 2.5222692867,
				"y": 1.1652771606,
				"z": -0.7258817247,
				"element": "H" 
			},
			{
				"x": 1.3374561804,
				"y": 1.7766832215,
				"z": 1.3690199252,
				"element": "H" 
			}
		],
		 "valence_orbital": [ 
			{
				"type": "occ",
				"energy": -0.30783,
				"method": "rhf"
			},
			{
				"type": "occ",
				"energy": -0.27473,
				"method": "rhf"
			},
			{
				"type": "occ",
				"energy": -0.25672,
				"method": "rhf"
			},
			{
				"type": "occ",
				"energy": -0.25604,
				"method": "rhf"
			},
			{
				"type": "occ",
				"energy": -0.21625,
				"method": "rhf"
			},
			{
				"type": "unocc",
				"energy": -0.01693,
				"method": "rhf"
			},
			{
				"type": "unocc",
				"energy": -0.00772,
				"method": "rhf"
			},
			{
				"type": "unocc",
				"energy": 0.03188,
				"method": "rhf"
			},
			{
				"type": "unocc",
				"energy": 0.08305,
				"method": "rhf"
			},
			{
				"type": "unocc",
				"energy": 0.08689,
				"method": "rhf"
			}
		],
		"cosmo_sigma_profile": { 
			"-0.025": 0.0,
			"-0.024": 0.0,
			"-0.023": 0.0,
			"-0.022": 0.0,
			"-0.021": 0.0,
			"-0.02": 0.0,
			"-0.019": 0.0,
			"-0.018": 0.0,
			"-0.017": 0.0,
			"-0.016": 0.428766085088,
			"-0.015": 1.91168642154,
			"-0.014": 2.29866033039,
			"-0.013": 1.9449178884,
			"-0.012": 1.63803912043,
			"-0.011": 1.27345747413,
			"-0.01": 1.56930787554,
			"-0.009": 2.34771192877,
			"-0.008": 1.85541043322,
			"-0.007": 6.39665521214,
			"-0.006": 9.20349255554,
			"-0.005": 11.6694604133,
			"-0.004": 15.6506351674,
			"-0.003": 21.3884869331,
			"-0.002": 15.5835244113,
			"-0.001": 17.5796650115,
			"0.0": 16.0824979232,
			"0.001": 16.5980097042,
			"0.002": 10.5941150694,
			"0.003": 8.38468955145,
			"0.004": 9.52296711465,
			"0.005": 9.15456847908,
			"0.006": 5.09926066072,
			"0.007": 2.40730144674,
			"0.008": 2.233727496,
			"0.009": 2.87474123267,
			"0.01": 2.61641939294,
			"0.011": 3.02111289308,
			"0.012": 4.45505300652,
			"0.013": 7.33146709742,
			"0.014": 4.2908941708,
			"0.015": 0.298918186331,
			"0.016": 0.0,
			"0.017": 0.0,
			"0.018": 0.0,
			"0.019": 0.0,
			"0.02": 0.0,
			"0.021": 0.0,
			"0.022": 0.0,
			"0.023": 0.0,
			"0.024": 0.0,
			"0.025": 0.0
		}
	}
}
