{
	 "smiles": "COC1=C(Cl)C(Cl)=C(Cl)C(Cl)=C1Cl", 
	 "Tm": 381.15, 
	 "num_atms": 16, 
	 "gaussian": { 
		 "optdone": 1, 
		 "sigma_profile": "yes", 
		 "theory": "DFT", 
		 "functional": "B3LYP", 
		 "basiset": "6-31G**", 
		 "properties": { 
			 "R2extent": 5658.8862, 
			 "electric_dipole_moment_norm": 2.13484606705, 
			 "electric_quadrupole_moment_norm": 3.93533099624, 
			 "total_energy": -2644.69455954, 
			 "HOMO_LUMO_gap": 0.20881, 
			 "cosmo_polarized_energy": -4.58, 
			 "cosmo_cavitation_energy": 28.83, 
			 "cosmo_dispersion_energy": -21.72, 
			 "cosmo_repulsion_energy": 1.71, 
			 "cosmo_total_nonelectrostatic_energy": 8.82, 
			 "SMD_solvation_energy": 4.59 
		},
		"coords": [
			{
				"x": 2.0943882945,
				"y": 0.4303983122,
				"z": -0.6337641301,
				"element": "C" 
			},
			{
				"x": 1.1927088712,
				"y": 1.0616328846,
				"z": 0.2922968546,
				"element": "O" 
			},
			{
				"x": -0.1278928051,
				"y": 0.9571524994,
				"z": -0.0044048313,
				"element": "C" 
			},
			{
				"x": -0.7646497476,
				"y": 1.9470567923,
				"z": -0.770162113,
				"element": "C" 
			},
			{
				"x": 0.1973271044,
				"y": 3.2612730927,
				"z": -1.3758868109,
				"element": "Cl" 
			},
			{
				"x": -2.1426846869,
				"y": 1.8814371327,
				"z": -1.0229387956,
				"element": "C" 
			},
			{
				"x": -2.9118644907,
				"y": 3.1164924757,
				"z": -1.9681121402,
				"element": "Cl" 
			},
			{
				"x": -2.8955750326,
				"y": 0.8118247818,
				"z": -0.5078758045,
				"element": "C" 
			},
			{
				"x": -4.6009606881,
				"y": 0.7219483876,
				"z": -0.8185931127,
				"element": "Cl" 
			},
			{
				"x": -2.2681688268,
				"y": -0.1825619537,
				"z": 0.2626788708,
				"element": "C" 
			},
			{
				"x": -3.1926176953,
				"y": -1.5013244752,
				"z": 0.9081488118,
				"element": "Cl" 
			},
			{
				"x": -0.8894326374,
				"y": -0.1053805847,
				"z": 0.5082672012,
				"element": "C" 
			},
			{
				"x": -0.0803785653,
				"y": -1.3061240634,
				"z": 1.469026749,
				"element": "Cl" 
			},
			{
				"x": 3.0956598646,
				"y": 0.6131269591,
				"z": -0.242692226,
				"element": "H" 
			},
			{
				"x": 2.0032925377,
				"y": 0.8733924055,
				"z": -1.6307347229,
				"element": "H" 
			},
			{
				"x": 1.9110485034,
				"y": -0.6477446467,
				"z": -0.6837538001,
				"element": "H" 
			}
		],
		 "valence_orbital": [ 
			{
				"type": "occ",
				"energy": -0.31715,
				"method": "rhf"
			},
			{
				"type": "occ",
				"energy": -0.31266,
				"method": "rhf"
			},
			{
				"type": "occ",
				"energy": -0.30036,
				"method": "rhf"
			},
			{
				"type": "occ",
				"energy": -0.26077,
				"method": "rhf"
			},
			{
				"type": "occ",
				"energy": -0.26007,
				"method": "rhf"
			},
			{
				"type": "unocc",
				"energy": -0.05126,
				"method": "rhf"
			},
			{
				"type": "unocc",
				"energy": -0.04905,
				"method": "rhf"
			},
			{
				"type": "unocc",
				"energy": -0.04681,
				"method": "rhf"
			},
			{
				"type": "unocc",
				"energy": 0.01074,
				"method": "rhf"
			},
			{
				"type": "unocc",
				"energy": 0.02666,
				"method": "rhf"
			}
		],
		"cosmo_sigma_profile": { 
			"-0.025": 0.0,
			"-0.024": 0.0,
			"-0.023": 0.0,
			"-0.022": 0.0,
			"-0.021": 0.0,
			"-0.02": 0.0,
			"-0.019": 0.0,
			"-0.018": 0.0,
			"-0.017": 0.0,
			"-0.016": 0.0,
			"-0.015": 0.0,
			"-0.014": 0.0,
			"-0.013": 0.0,
			"-0.012": 0.0,
			"-0.011": 0.0,
			"-0.01": 0.0,
			"-0.009": 0.0,
			"-0.008": 0.0,
			"-0.007": 0.985598008733,
			"-0.006": 3.96120432059,
			"-0.005": 10.4156904359,
			"-0.004": 18.0534052678,
			"-0.003": 24.6152354665,
			"-0.002": 33.1452626508,
			"-0.001": 19.2691783543,
			"0.0": 19.066399776,
			"0.001": 22.1537921878,
			"0.002": 28.6087993493,
			"0.003": 39.0284750057,
			"0.004": 13.4231405597,
			"0.005": 2.33954712043,
			"0.006": 2.77066790332,
			"0.007": 1.3129209888,
			"0.008": 1.03083999843,
			"0.009": 2.05442950279,
			"0.01": 0.46799488707,
			"0.011": 0.0,
			"0.012": 0.0,
			"0.013": 0.0,
			"0.014": 0.0,
			"0.015": 0.0,
			"0.016": 0.0,
			"0.017": 0.0,
			"0.018": 0.0,
			"0.019": 0.0,
			"0.02": 0.0,
			"0.021": 0.0,
			"0.022": 0.0,
			"0.023": 0.0,
			"0.024": 0.0,
			"0.025": 0.0
		}
	}
}
