{
	 "smiles": "CCCC1=C(CC)C(C(O)=O)=C2C=CC=CC2=N1", 
	 "Tm": 496.15, 
	 "num_atms": 35, 
	 "gaussian": { 
		 "optdone": 1, 
		 "sigma_profile": "yes", 
		 "theory": "DFT", 
		 "functional": "B3LYP", 
		 "basiset": "6-31G**", 
		 "properties": { 
			 "R2extent": 5210.6298, 
			 "electric_dipole_moment_norm": 1.46905826637, 
			 "electric_quadrupole_moment_norm": 13.4196334592, 
			 "total_energy": -787.080224531, 
			 "HOMO_LUMO_gap": 0.1712, 
			 "cosmo_polarized_energy": -11.14, 
			 "cosmo_cavitation_energy": 37.02, 
			 "cosmo_dispersion_energy": -25.83, 
			 "cosmo_repulsion_energy": 2.01, 
			 "cosmo_total_nonelectrostatic_energy": 13.2, 
			 "SMD_solvation_energy": 6.14 
		},
		"coords": [
			{
				"x": 2.2833391038,
				"y": -0.5145153422,
				"z": 2.4182884412,
				"element": "C" 
			},
			{
				"x": 1.0981732711,
				"y": -1.484713629,
				"z": 2.4626461018,
				"element": "C" 
			},
			{
				"x": 0.4624762957,
				"y": -1.7513486808,
				"z": 1.0909482298,
				"element": "C" 
			},
			{
				"x": -0.3339179345,
				"y": -0.5958553265,
				"z": 0.4994707562,
				"element": "C" 
			},
			{
				"x": -0.7874114078,
				"y": -0.6502171276,
				"z": -0.867308364,
				"element": "C" 
			},
			{
				"x": -0.4317602978,
				"y": -1.8293110867,
				"z": -1.7538351371,
				"element": "C" 
			},
			{
				"x": 0.8585359971,
				"y": -1.5955543912,
				"z": -2.5645654752,
				"element": "C" 
			},
			{
				"x": -1.5080450826,
				"y": 0.4330771541,
				"z": -1.3482098608,
				"element": "C" 
			},
			{
				"x": -2.0133295099,
				"y": 0.4270888214,
				"z": -2.7635833405,
				"element": "C" 
			},
			{
				"x": -1.5411040928,
				"y": 1.4736598104,
				"z": -3.4843419761,
				"element": "O" 
			},
			{
				"x": -2.7536556941,
				"y": -0.4035840121,
				"z": -3.2449639276,
				"element": "O" 
			},
			{
				"x": -1.8076032877,
				"y": 1.5443716477,
				"z": -0.4987115693,
				"element": "C" 
			},
			{
				"x": -2.5631074735,
				"y": 2.6833745027,
				"z": -0.8892453047,
				"element": "C" 
			},
			{
				"x": -2.8255916278,
				"y": 3.6920743803,
				"z": 0.0116850598,
				"element": "C" 
			},
			{
				"x": -2.3485359903,
				"y": 3.6152035102,
				"z": 1.3420049559,
				"element": "C" 
			},
			{
				"x": -1.6149917427,
				"y": 2.5245915723,
				"z": 1.7495879486,
				"element": "C" 
			},
			{
				"x": -1.3315578537,
				"y": 1.4681597176,
				"z": 0.8448353923,
				"element": "C" 
			},
			{
				"x": -0.605347927,
				"y": 0.4111310075,
				"z": 1.303414722,
				"element": "N" 
			},
			{
				"x": 2.7248489312,
				"y": -0.3903386558,
				"z": 3.4127707431,
				"element": "H" 
			},
			{
				"x": 1.9688881691,
				"y": 0.4712368497,
				"z": 2.0658588207,
				"element": "H" 
			},
			{
				"x": 3.0720737791,
				"y": -0.8812013995,
				"z": 1.7500740079,
				"element": "H" 
			},
			{
				"x": 0.3331490964,
				"y": -1.0976629394,
				"z": 3.1422318125,
				"element": "H" 
			},
			{
				"x": 1.4323480793,
				"y": -2.4474703751,
				"z": 2.8692248169,
				"element": "H" 
			},
			{
				"x": 1.2442213058,
				"y": -2.0549905702,
				"z": 0.382931008,
				"element": "H" 
			},
			{
				"x": -0.2110791127,
				"y": -2.617769932,
				"z": 1.16764539,
				"element": "H" 
			},
			{
				"x": -1.2584273971,
				"y": -2.0264042244,
				"z": -2.4387393247,
				"element": "H" 
			},
			{
				"x": -0.3175247907,
				"y": -2.7280046865,
				"z": -1.1425964591,
				"element": "H" 
			},
			{
				"x": 0.7566721253,
				"y": -0.7258986703,
				"z": -3.2218000871,
				"element": "H" 
			},
			{
				"x": 1.7184220182,
				"y": -1.4137485846,
				"z": -1.9115221967,
				"element": "H" 
			},
			{
				"x": 1.0850761367,
				"y": -2.4661570684,
				"z": -3.1882665356,
				"element": "H" 
			},
			{
				"x": -1.9295214972,
				"y": 1.3820804817,
				"z": -4.3721388855,
				"element": "H" 
			},
			{
				"x": -2.9253810248,
				"y": 2.7628203793,
				"z": -1.9076544518,
				"element": "H" 
			},
			{
				"x": -3.403858024,
				"y": 4.5561120667,
				"z": -0.3022986197,
				"element": "H" 
			},
			{
				"x": -2.5645266313,
				"y": 4.4200871013,
				"z": 2.0384787481,
				"element": "H" 
			},
			{
				"x": -1.2354459088,
				"y": 2.4307776993,
				"z": 2.7617845607,
				"element": "H" 
			}
		],
		 "valence_orbital": [ 
			{
				"type": "occ",
				"energy": -0.30454,
				"method": "rhf"
			},
			{
				"type": "occ",
				"energy": -0.28509,
				"method": "rhf"
			},
			{
				"type": "occ",
				"energy": -0.2504,
				"method": "rhf"
			},
			{
				"type": "occ",
				"energy": -0.24329,
				"method": "rhf"
			},
			{
				"type": "occ",
				"energy": -0.23086,
				"method": "rhf"
			},
			{
				"type": "unocc",
				"energy": -0.05966,
				"method": "rhf"
			},
			{
				"type": "unocc",
				"energy": -0.01726,
				"method": "rhf"
			},
			{
				"type": "unocc",
				"energy": -0.00944,
				"method": "rhf"
			},
			{
				"type": "unocc",
				"energy": 0.0304,
				"method": "rhf"
			},
			{
				"type": "unocc",
				"energy": 0.0692,
				"method": "rhf"
			}
		],
		"cosmo_sigma_profile": { 
			"-0.025": 0.0,
			"-0.024": 0.0,
			"-0.023": 0.0,
			"-0.022": 0.0,
			"-0.021": 0.0,
			"-0.02": 0.0,
			"-0.019": 0.3086625641,
			"-0.018": 0.83707654651,
			"-0.017": 1.1022573069,
			"-0.016": 0.792079227152,
			"-0.015": 0.420338451964,
			"-0.014": 0.354075227022,
			"-0.013": 0.936134755506,
			"-0.012": 1.54261092147,
			"-0.011": 0.539519900872,
			"-0.01": 0.369493863507,
			"-0.009": 0.528735001865,
			"-0.008": 0.882439537789,
			"-0.007": 1.71945841844,
			"-0.006": 8.00282473042,
			"-0.005": 10.3781511034,
			"-0.004": 20.1402372549,
			"-0.003": 22.4553606483,
			"-0.002": 29.4917638314,
			"-0.001": 32.7311177877,
			"0.0": 33.9894834501,
			"0.001": 33.535016244,
			"0.002": 22.7832410272,
			"0.003": 16.9104039132,
			"0.004": 17.4705435645,
			"0.005": 7.37627639613,
			"0.006": 4.11532954963,
			"0.007": 4.25229148589,
			"0.008": 4.33939706371,
			"0.009": 3.34910603199,
			"0.01": 4.02751513424,
			"0.011": 5.53801967256,
			"0.012": 0.971907147657,
			"0.013": 0.0,
			"0.014": 0.0,
			"0.015": 0.0,
			"0.016": 0.0,
			"0.017": 0.0,
			"0.018": 0.0,
			"0.019": 0.0,
			"0.02": 0.0,
			"0.021": 0.0,
			"0.022": 0.0,
			"0.023": 0.0,
			"0.024": 0.0,
			"0.0": 0.0
		}
	}
}
