{
	 "smiles": "FC1=C(C=O)C(Cl)=CC=C1", 
	 "Tm": 310.15, 
	 "num_atms": 14, 
	 "gaussian": { 
		 "optdone": 1, 
		 "sigma_profile": "yes", 
		 "theory": "DFT", 
		 "functional": "B3LYP", 
		 "basiset": "6-31G**", 
		 "properties": { 
			 "R2extent": 1936.8736, 
			 "electric_dipole_moment_norm": 4.30605549662, 
			 "electric_quadrupole_moment_norm": 9.0086924695, 
			 "total_energy": -904.385896188, 
			 "HOMO_LUMO_gap": 0.17711, 
			 "cosmo_polarized_energy": -8.28, 
			 "cosmo_cavitation_energy": 20.88, 
			 "cosmo_dispersion_energy": -15.51, 
			 "cosmo_repulsion_energy": 1.22, 
			 "cosmo_total_nonelectrostatic_energy": 6.58, 
			 "SMD_solvation_energy": 4.9 
		},
		"coords": [
			{
				"x": -0.331640003,
				"y": -0.2889783126,
				"z": 2.396710989,
				"element": "F" 
			},
			{
				"x": -0.2753647553,
				"y": -0.1114528733,
				"z": 1.0606708386,
				"element": "C" 
			},
			{
				"x": -0.4266166737,
				"y": -1.2360989553,
				"z": 0.2284823433,
				"element": "C" 
			},
			{
				"x": -0.6407222741,
				"y": -2.5594290461,
				"z": 0.8774866559,
				"element": "C" 
			},
			{
				"x": -0.7874499142,
				"y": -3.617962342,
				"z": 0.3010622276,
				"element": "O" 
			},
			{
				"x": -0.3593572274,
				"y": -0.9938810355,
				"z": -1.1613746233,
				"element": "C" 
			},
			{
				"x": -0.5279641948,
				"y": -2.282348945,
				"z": -2.3262007767,
				"element": "Cl" 
			},
			{
				"x": -0.1544353085,
				"y": 0.2912992695,
				"z": -1.6640473206,
				"element": "C" 
			},
			{
				"x": -0.0114290307,
				"y": 1.3678224701,
				"z": -0.788664811,
				"element": "C" 
			},
			{
				"x": -0.0707789133,
				"y": 1.1761522431,
				"z": 0.590227515,
				"element": "C" 
			},
			{
				"x": -0.6577968993,
				"y": -2.5088605381,
				"z": 1.9816868392,
				"element": "H" 
			},
			{
				"x": -0.1084522824,
				"y": 0.4391322774,
				"z": -2.7366354721,
				"element": "H" 
			},
			{
				"x": 0.1477102227,
				"y": 2.3646588259,
				"z": -1.1878935339,
				"element": "H" 
			},
			{
				"x": 0.0366972539,
				"y": 1.9920469618,
				"z": 1.2954891291,
				"element": "H" 
			}
		],
		 "valence_orbital": [ 
			{
				"type": "occ",
				"energy": -0.34348,
				"method": "rhf"
			},
			{
				"type": "occ",
				"energy": -0.32207,
				"method": "rhf"
			},
			{
				"type": "occ",
				"energy": -0.27898,
				"method": "rhf"
			},
			{
				"type": "occ",
				"energy": -0.26271,
				"method": "rhf"
			},
			{
				"type": "occ",
				"energy": -0.25424,
				"method": "rhf"
			},
			{
				"type": "unocc",
				"energy": -0.07713,
				"method": "rhf"
			},
			{
				"type": "unocc",
				"energy": -0.02728,
				"method": "rhf"
			},
			{
				"type": "unocc",
				"energy": 0.01985,
				"method": "rhf"
			},
			{
				"type": "unocc",
				"energy": 0.02296,
				"method": "rhf"
			},
			{
				"type": "unocc",
				"energy": 0.09044,
				"method": "rhf"
			}
		],
		"cosmo_sigma_profile": { 
			"-0.025": 0.0,
			"-0.024": 0.0,
			"-0.023": 0.0,
			"-0.022": 0.0,
			"-0.021": 0.0,
			"-0.02": 0.0,
			"-0.019": 0.0,
			"-0.018": 0.0,
			"-0.017": 0.0,
			"-0.016": 0.0,
			"-0.015": 0.0,
			"-0.014": 0.0,
			"-0.013": 0.0,
			"-0.012": 0.0,
			"-0.011": 0.0,
			"-0.01": 0.0,
			"-0.009": 0.685312252932,
			"-0.008": 5.39363735156,
			"-0.007": 7.53904243167,
			"-0.006": 8.92053453533,
			"-0.005": 9.79036282097,
			"-0.004": 8.19639489446,
			"-0.003": 10.3402478966,
			"-0.002": 11.6228810194,
			"-0.001": 17.8292042368,
			"0.0": 18.1931428304,
			"0.001": 15.7301821636,
			"0.002": 12.9887496148,
			"0.003": 12.9142050242,
			"0.004": 8.92186654179,
			"0.005": 2.19089389047,
			"0.006": 2.73288553862,
			"0.007": 2.06305820487,
			"0.008": 2.16720799064,
			"0.009": 2.42864443394,
			"0.01": 3.15724958947,
			"0.011": 4.87642620329,
			"0.012": 2.11283430436,
			"0.013": 0.186816898711,
			"0.014": 0.0,
			"0.015": 0.0,
			"0.016": 0.0,
			"0.017": 0.0,
			"0.018": 0.0,
			"0.019": 0.0,
			"0.02": 0.0,
			"0.021": 0.0,
			"0.022": 0.0,
			"0.023": 0.0,
			"0.024": 0.0,
			"0.025": 0.0
		}
	}
}
