{
	 "smiles": "CC1=NN(CCCl)C(C)=C1C=O", 
	 "Tm": 323.15, 
	 "num_atms": 23, 
	 "gaussian": { 
		 "optdone": 1, 
		 "sigma_profile": "yes", 
		 "theory": "DFT", 
		 "functional": "B3LYP", 
		 "basiset": "6-31G**", 
		 "properties": { 
			 "R2extent": 3311.586, 
			 "electric_dipole_moment_norm": 3.17803231733, 
			 "electric_quadrupole_moment_norm": 16.2827109973, 
			 "total_energy": -956.394026796, 
			 "HOMO_LUMO_gap": 0.2053, 
			 "cosmo_polarized_energy": -13.94, 
			 "cosmo_cavitation_energy": 28.7, 
			 "cosmo_dispersion_energy": -20.36, 
			 "cosmo_repulsion_energy": 1.65, 
			 "cosmo_total_nonelectrostatic_energy": 9.99, 
			 "SMD_solvation_energy": 4.61 
		},
		"coords": [
			{
				"x": -0.8327392428,
				"y": -2.7574427267,
				"z": -1.3985372104,
				"element": "C" 
			},
			{
				"x": -0.3865104621,
				"y": -1.4014200331,
				"z": -0.9558067761,
				"element": "C" 
			},
			{
				"x": -1.261455485,
				"y": -0.4741904442,
				"z": -0.5977615891,
				"element": "N" 
			},
			{
				"x": -0.5134428494,
				"y": 0.6252195372,
				"z": -0.266943455,
				"element": "N" 
			},
			{
				"x": -1.2131089901,
				"y": 1.8044758737,
				"z": 0.214977643,
				"element": "C" 
			},
			{
				"x": -1.7660672201,
				"y": 1.5627947908,
				"z": 1.6208217496,
				"element": "C" 
			},
			{
				"x": -2.6487238832,
				"y": 3.0313068368,
				"z": 2.2028201179,
				"element": "Cl" 
			},
			{
				"x": 0.8202992571,
				"y": 0.4137300727,
				"z": -0.3988010603,
				"element": "C" 
			},
			{
				"x": 1.8502156386,
				"y": 1.4577996762,
				"z": -0.0995445858,
				"element": "C" 
			},
			{
				"x": 0.9520713312,
				"y": -0.9022694856,
				"z": -0.8538928893,
				"element": "C" 
			},
			{
				"x": 2.1832616529,
				"y": -1.6102107458,
				"z": -1.1629841825,
				"element": "C" 
			},
			{
				"x": 2.2413964466,
				"y": -2.7650389837,
				"z": -1.5592725786,
				"element": "O" 
			},
			{
				"x": -1.9225969453,
				"y": -2.8184092912,
				"z": -1.3640896292,
				"element": "H" 
			},
			{
				"x": -0.4883532963,
				"y": -2.9680696056,
				"z": -2.4153500131,
				"element": "H" 
			},
			{
				"x": -0.4035172549,
				"y": -3.5364700695,
				"z": -0.7615373012,
				"element": "H" 
			},
			{
				"x": -0.5237671834,
				"y": 2.6506878126,
				"z": 0.2146764713,
				"element": "H" 
			},
			{
				"x": -2.0316229661,
				"y": 2.0254526099,
				"z": -0.4741993939,
				"element": "H" 
			},
			{
				"x": -0.96744138,
				"y": 1.3607781131,
				"z": 2.3364030229,
				"element": "H" 
			},
			{
				"x": -2.4709393548,
				"y": 0.731885505,
				"z": 1.6165299894,
				"element": "H" 
			},
			{
				"x": 1.8061622068,
				"y": 1.7868246857,
				"z": 0.9447356798,
				"element": "H" 
			},
			{
				"x": 1.7234908106,
				"y": 2.3431891415,
				"z": -0.7328233297,
				"element": "H" 
			},
			{
				"x": 2.85179763,
				"y": 1.064318383,
				"z": -0.2793298378,
				"element": "H" 
			},
			{
				"x": 3.1186915395,
				"y": -1.0252416526,
				"z": -1.0145908421,
				"element": "H" 
			}
		],
		 "valence_orbital": [ 
			{
				"type": "occ",
				"energy": -0.30976,
				"method": "rhf"
			},
			{
				"type": "occ",
				"energy": -0.29981,
				"method": "rhf"
			},
			{
				"type": "occ",
				"energy": -0.25816,
				"method": "rhf"
			},
			{
				"type": "occ",
				"energy": -0.25432,
				"method": "rhf"
			},
			{
				"type": "occ",
				"energy": -0.24685,
				"method": "rhf"
			},
			{
				"type": "unocc",
				"energy": -0.04155,
				"method": "rhf"
			},
			{
				"type": "unocc",
				"energy": 0.00184,
				"method": "rhf"
			},
			{
				"type": "unocc",
				"energy": 0.01931,
				"method": "rhf"
			},
			{
				"type": "unocc",
				"energy": 0.06469,
				"method": "rhf"
			},
			{
				"type": "unocc",
				"energy": 0.09377,
				"method": "rhf"
			}
		],
		"cosmo_sigma_profile": { 
			"-0.025": 0.0,
			"-0.024": 0.0,
			"-0.023": 0.0,
			"-0.022": 0.0,
			"-0.021": 0.0,
			"-0.02": 0.0,
			"-0.019": 0.0,
			"-0.018": 0.0,
			"-0.017": 0.0,
			"-0.016": 0.0,
			"-0.015": 0.0,
			"-0.014": 0.0,
			"-0.013": 0.0,
			"-0.012": 0.0,
			"-0.011": 0.0,
			"-0.01": 0.0,
			"-0.009": 0.10895885867,
			"-0.008": 5.41933860937,
			"-0.007": 13.9344731911,
			"-0.006": 15.4029667472,
			"-0.005": 15.6863572964,
			"-0.004": 18.1764239015,
			"-0.003": 17.6779478014,
			"-0.002": 18.5985143486,
			"-0.001": 15.7495882929,
			"0.0": 15.6152003029,
			"0.001": 14.2133410796,
			"0.002": 13.9570461064,
			"0.003": 7.89818487442,
			"0.004": 8.83201900698,
			"0.005": 10.7507601878,
			"0.006": 12.105286817,
			"0.007": 3.89002831254,
			"0.008": 2.20676730761,
			"0.009": 3.26456409317,
			"0.01": 2.91964440276,
			"0.011": 3.4649863873,
			"0.012": 3.97316346633,
			"0.013": 3.40291589102,
			"0.014": 1.74659613174,
			"0.015": 0.306039853366,
			"0.016": 0.0,
			"0.017": 0.0,
			"0.018": 0.0,
			"0.019": 0.0,
			"0.02": 0.0,
			"0.021": 0.0,
			"0.022": 0.0,
			"0.023": 0.0,
			"0.024": 0.0,
			"0.025": 0.0
		}
	}
}
