{
	 "smiles": "OC(=O)C1=CC2=C(S1)C=CC(=C2)[N+]([O-])=O", 
	 "Tm": 513.15, 
	 "num_atms": 20, 
	 "gaussian": { 
		 "optdone": 1, 
		 "sigma_profile": "yes", 
		 "theory": "DFT", 
		 "functional": "B3LYP", 
		 "basiset": "6-31G**", 
		 "properties": { 
			 "R2extent": 4668.5574, 
			 "electric_dipole_moment_norm": 0.788750226624, 
			 "electric_quadrupole_moment_norm": 31.7848061204, 
			 "total_energy": -1099.71057171, 
			 "HOMO_LUMO_gap": 0.16129, 
			 "cosmo_polarized_energy": -19.67, 
			 "cosmo_cavitation_energy": 27.82, 
			 "cosmo_dispersion_energy": -21.07, 
			 "cosmo_repulsion_energy": 1.57, 
			 "cosmo_total_nonelectrostatic_energy": 8.32, 
			 "SMD_solvation_energy": 7.73 
		},
		"coords": [
			{
				"x": -0.869239278,
				"y": 3.911420385,
				"z": 0.7399978839,
				"element": "O" 
			},
			{
				"x": -1.8488775059,
				"y": 2.9749699703,
				"z": 0.7699828213,
				"element": "C" 
			},
			{
				"x": -2.9637644277,
				"y": 3.2581234266,
				"z": 1.1411495206,
				"element": "O" 
			},
			{
				"x": -1.4801287104,
				"y": 1.6045816729,
				"z": 0.3335171414,
				"element": "C" 
			},
			{
				"x": -0.2530150944,
				"y": 1.0556742425,
				"z": 0.088668898,
				"element": "C" 
			},
			{
				"x": -0.3237657861,
				"y": -0.325896451,
				"z": -0.2913496806,
				"element": "C" 
			},
			{
				"x": -1.6659629447,
				"y": -0.7962073905,
				"z": -0.3163158288,
				"element": "C" 
			},
			{
				"x": -2.7954010322,
				"y": 0.4556023189,
				"z": 0.1324659214,
				"element": "S" 
			},
			{
				"x": -1.968584806,
				"y": -2.1207570297,
				"z": -0.6657354087,
				"element": "C" 
			},
			{
				"x": -0.9296909968,
				"y": -2.97832392,
				"z": -0.9887728098,
				"element": "C" 
			},
			{
				"x": 0.3946174429,
				"y": -2.5056555066,
				"z": -0.9592066548,
				"element": "C" 
			},
			{
				"x": 0.7214914969,
				"y": -1.2042654238,
				"z": -0.6183968516,
				"element": "C" 
			},
			{
				"x": 1.481501494,
				"y": -3.4349359497,
				"z": -1.3063191369,
				"element": "N" 
			},
			{
				"x": 2.6333635264,
				"y": -3.0026613648,
				"z": -1.2761692632,
				"element": "O" 
			},
			{
				"x": 1.1709993675,
				"y": -4.5870957377,
				"z": -1.6055245997,
				"element": "O" 
			},
			{
				"x": -0.0755218121,
				"y": 3.571783609,
				"z": 0.3041397943,
				"element": "H" 
			},
			{
				"x": 0.6905026317,
				"y": 1.5827081597,
				"z": 0.1910390566,
				"element": "H" 
			},
			{
				"x": -2.9948186862,
				"y": -2.4721771535,
				"z": -0.6832075565,
				"element": "H" 
			},
			{
				"x": -1.1111478881,
				"y": -4.0091761731,
				"z": -1.2646093811,
				"element": "H" 
			},
			{
				"x": 1.7591430093,
				"y": -0.8936116845,
				"z": -0.6116538658,
				"element": "H" 
			}
		],
		 "valence_orbital": [ 
			{
				"type": "occ",
				"energy": -0.31734,
				"method": "rhf"
			},
			{
				"type": "occ",
				"energy": -0.30092,
				"method": "rhf"
			},
			{
				"type": "occ",
				"energy": -0.29708,
				"method": "rhf"
			},
			{
				"type": "occ",
				"energy": -0.27763,
				"method": "rhf"
			},
			{
				"type": "occ",
				"energy": -0.26052,
				"method": "rhf"
			},
			{
				"type": "unocc",
				"energy": -0.09923,
				"method": "rhf"
			},
			{
				"type": "unocc",
				"energy": -0.08954,
				"method": "rhf"
			},
			{
				"type": "unocc",
				"energy": -0.02542,
				"method": "rhf"
			},
			{
				"type": "unocc",
				"energy": -0.00833,
				"method": "rhf"
			},
			{
				"type": "unocc",
				"energy": -0.00152,
				"method": "rhf"
			}
		],
		"cosmo_sigma_profile": { 
			"-0.025": 0.0,
			"-0.024": 0.0,
			"-0.023": 0.0,
			"-0.022": 0.0,
			"-0.021": 0.0,
			"-0.02": 0.423817727579,
			"-0.019": 0.994792531962,
			"-0.018": 1.31158283194,
			"-0.017": 1.19591900415,
			"-0.016": 0.780778414814,
			"-0.015": 0.625265960988,
			"-0.014": 1.50999355921,
			"-0.013": 1.47354345164,
			"-0.012": 1.41857369629,
			"-0.011": 1.34641268146,
			"-0.01": 2.54665433562,
			"-0.009": 4.64217352733,
			"-0.008": 6.96923374103,
			"-0.007": 8.2292424472,
			"-0.006": 8.12620347297,
			"-0.005": 7.23218841266,
			"-0.004": 9.66394206964,
			"-0.003": 10.0313250243,
			"-0.002": 14.8456426192,
			"-0.001": 21.5539298996,
			"0.0": 26.9169891614,
			"0.001": 14.5064522498,
			"0.002": 9.76672380115,
			"0.003": 8.4627707283,
			"0.004": 5.65467315152,
			"0.005": 4.44656906216,
			"0.006": 6.80641845536,
			"0.007": 12.1215765995,
			"0.008": 9.11109202512,
			"0.009": 8.97744150856,
			"0.01": 7.31390201764,
			"0.011": 5.33225852496,
			"0.012": 2.29044194303,
			"0.013": 0.255257636891,
			"0.014": 0.0,
			"0.015": 0.0,
			"0.016": 0.0,
			"0.017": 0.0,
			"0.018": 0.0,
			"0.019": 0.0,
			"0.02": 0.0,
			"0.021": 0.0,
			"0.022": 0.0,
			"0.023": 0.0,
			"0.024": 0.0,
			"0.025": 0.0
		}
	}
}
