{
	 "smiles": "COC1=C(OC)C=C(C=C1)C(=O)CBr", 
	 "Tm": 357.15, 
	 "num_atms": 25, 
	 "gaussian": { 
		 "optdone": 1, 
		 "sigma_profile": "yes", 
		 "theory": "DFT", 
		 "functional": "B3LYP", 
		 "basiset": "6-31G**", 
		 "properties": { 
			 "R2extent": 7579.3849, 
			 "electric_dipole_moment_norm": 5.3612402082, 
			 "electric_quadrupole_moment_norm": 14.5630076214, 
			 "total_energy": -3184.73184322, 
			 "HOMO_LUMO_gap": 0.18192, 
			 "cosmo_polarized_energy": -13.07, 
			 "cosmo_cavitation_energy": 31.36, 
			 "cosmo_dispersion_energy": -22.9, 
			 "cosmo_repulsion_energy": 1.82, 
			 "cosmo_total_nonelectrostatic_energy": 10.29, 
			 "SMD_solvation_energy": 6.17 
		},
		"coords": [
			{
				"x": 1.7747606424,
				"y": 1.7648836393,
				"z": 1.7953918047,
				"element": "C" 
			},
			{
				"x": 1.9332484048,
				"y": 0.4407318608,
				"z": 1.2624243068,
				"element": "O" 
			},
			{
				"x": 0.9266143565,
				"y": 0.0069830516,
				"z": 0.4401779942,
				"element": "C" 
			},
			{
				"x": -0.384099372,
				"y": -0.2083157181,
				"z": 0.914430005,
				"element": "C" 
			},
			{
				"x": -0.7304283539,
				"y": 0.0487917299,
				"z": 2.2215531035,
				"element": "O" 
			},
			{
				"x": -0.1645645282,
				"y": -0.85460483,
				"z": 3.1818074772,
				"element": "C" 
			},
			{
				"x": -1.3687455575,
				"y": -0.6570804827,
				"z": 0.0372481827,
				"element": "C" 
			},
			{
				"x": -1.0707846837,
				"y": -0.9197613161,
				"z": -1.309525961,
				"element": "C" 
			},
			{
				"x": 0.245588774,
				"y": -0.7373452079,
				"z": -1.7620495777,
				"element": "C" 
			},
			{
				"x": 1.2290870003,
				"y": -0.275955981,
				"z": -0.8960458396,
				"element": "C" 
			},
			{
				"x": -2.0874454344,
				"y": -1.3999265272,
				"z": -2.2975618167,
				"element": "C" 
			},
			{
				"x": -1.7874392821,
				"y": -1.6410174749,
				"z": -3.4511149735,
				"element": "O" 
			},
			{
				"x": -3.5184071756,
				"y": -1.565468952,
				"z": -1.7760852475,
				"element": "C" 
			},
			{
				"x": -4.7720139744,
				"y": -2.1858405465,
				"z": -3.1363651111,
				"element": "Br" 
			},
			{
				"x": 1.7610787449,
				"y": 2.50359096,
				"z": 0.9851244854,
				"element": "H" 
			},
			{
				"x": 0.858634828,
				"y": 1.8520318506,
				"z": 2.3857316435,
				"element": "H" 
			},
			{
				"x": 2.6456310668,
				"y": 1.9402196673,
				"z": 2.4292051974,
				"element": "H" 
			},
			{
				"x": 0.9292025725,
				"y": -0.8282162793,
				"z": 3.1585927487,
				"element": "H" 
			},
			{
				"x": -0.5221520319,
				"y": -0.5237396223,
				"z": 4.1585970304,
				"element": "H" 
			},
			{
				"x": -0.5086551156,
				"y": -1.879655523,
				"z": 2.9972459217,
				"element": "H" 
			},
			{
				"x": -2.3638096301,
				"y": -0.7959707383,
				"z": 0.4461973101,
				"element": "H" 
			},
			{
				"x": 0.4680790447,
				"y": -0.9508560262,
				"z": -2.8015320845,
				"element": "H" 
			},
			{
				"x": 2.2483753244,
				"y": -0.1159494497,
				"z": -1.2327032131,
				"element": "H" 
			},
			{
				"x": -3.9021018913,
				"y": -0.6149113152,
				"z": -1.4009383838,
				"element": "H" 
			},
			{
				"x": -3.5486537285,
				"y": -2.2937167692,
				"z": -0.9635050028,
				"element": "H" 
			}
		],
		 "valence_orbital": [ 
			{
				"type": "occ",
				"energy": -0.27279,
				"method": "rhf"
			},
			{
				"type": "occ",
				"energy": -0.27151,
				"method": "rhf"
			},
			{
				"type": "occ",
				"energy": -0.26339,
				"method": "rhf"
			},
			{
				"type": "occ",
				"energy": -0.25886,
				"method": "rhf"
			},
			{
				"type": "occ",
				"energy": -0.24481,
				"method": "rhf"
			},
			{
				"type": "unocc",
				"energy": -0.06289,
				"method": "rhf"
			},
			{
				"type": "unocc",
				"energy": -0.01601,
				"method": "rhf"
			},
			{
				"type": "unocc",
				"energy": 0.00321,
				"method": "rhf"
			},
			{
				"type": "unocc",
				"energy": 0.03123,
				"method": "rhf"
			},
			{
				"type": "unocc",
				"energy": 0.07503,
				"method": "rhf"
			}
		],
		"cosmo_sigma_profile": { 
			"-0.025": 0.0,
			"-0.024": 0.0,
			"-0.023": 0.0,
			"-0.022": 0.0,
			"-0.021": 0.0,
			"-0.02": 0.0,
			"-0.019": 0.0,
			"-0.018": 0.0,
			"-0.017": 0.0,
			"-0.016": 0.0,
			"-0.015": 0.0,
			"-0.014": 0.0,
			"-0.013": 0.0,
			"-0.012": 0.0,
			"-0.011": 0.0,
			"-0.01": 0.8692776493,
			"-0.009": 7.71787812134,
			"-0.008": 6.02283455304,
			"-0.007": 5.30374821131,
			"-0.006": 9.44334713043,
			"-0.005": 15.3619530957,
			"-0.004": 19.6607424881,
			"-0.003": 25.537162457,
			"-0.002": 22.2735397799,
			"-0.001": 18.2599102944,
			"0.0": 13.7259363736,
			"0.001": 16.6342972087,
			"0.002": 19.5951611654,
			"0.003": 13.6770376508,
			"0.004": 9.69113633627,
			"0.005": 11.0356403257,
			"0.006": 10.7157021979,
			"0.007": 4.4785842618,
			"0.008": 3.91281993063,
			"0.009": 4.27333592662,
			"0.01": 5.03973291963,
			"0.011": 5.86916206991,
			"0.012": 2.7246693769,
			"0.013": 0.913749126701,
			"0.014": 0.0,
			"0.015": 0.0,
			"0.016": 0.0,
			"0.017": 0.0,
			"0.018": 0.0,
			"0.019": 0.0,
			"0.02": 0.0,
			"0.021": 0.0,
			"0.022": 0.0,
			"0.023": 0.0,
			"0.024": 0.0,
			"0.025": 0.0
		}
	}
}
