{
	 "smiles": "NC(=O)CC1CCNCC1", 
	 "Tm": 420.15, 
	 "num_atms": 24, 
	 "gaussian": { 
		 "optdone": 1, 
		 "sigma_profile": "yes", 
		 "theory": "DFT", 
		 "functional": "B3LYP", 
		 "basiset": "6-31G**", 
		 "properties": { 
			 "R2extent": 2074.837, 
			 "electric_dipole_moment_norm": 2.47129190101, 
			 "electric_quadrupole_moment_norm": 19.4898214397, 
			 "total_energy": -459.928583423, 
			 "HOMO_LUMO_gap": 0.24066, 
			 "cosmo_polarized_energy": -14.88, 
			 "cosmo_cavitation_energy": 24.93, 
			 "cosmo_dispersion_energy": -18.43, 
			 "cosmo_repulsion_energy": 1.52, 
			 "cosmo_total_nonelectrostatic_energy": 8.02, 
			 "SMD_solvation_energy": 1.7 
		},
		"coords": [
			{
				"x": -1.1962981864,
				"y": 0.1340192615,
				"z": -3.1876212025,
				"element": "N" 
			},
			{
				"x": -0.9061143504,
				"y": -0.330722843,
				"z": -1.9336013369,
				"element": "C" 
			},
			{
				"x": -1.7764160372,
				"y": -0.7433237,
				"z": -1.1794438407,
				"element": "O" 
			},
			{
				"x": 0.5788616701,
				"y": -0.3143470327,
				"z": -1.5647217826,
				"element": "C" 
			},
			{
				"x": 0.8061812278,
				"y": -0.2005259915,
				"z": -0.0458849735,
				"element": "C" 
			},
			{
				"x": 2.2636897336,
				"y": -0.5200310822,
				"z": 0.3501849736,
				"element": "C" 
			},
			{
				"x": 3.2323696772,
				"y": 0.6251981858,
				"z": 0.0004812288,
				"element": "C" 
			},
			{
				"x": 2.8299612823,
				"y": 1.9324750412,
				"z": 0.531136287,
				"element": "N" 
			},
			{
				"x": 1.4509351541,
				"y": 2.2720531756,
				"z": 0.1581992605,
				"element": "C" 
			},
			{
				"x": 0.4165804083,
				"y": 1.1880855379,
				"z": 0.5101723535,
				"element": "C" 
			},
			{
				"x": -0.4806773042,
				"y": 0.4111680003,
				"z": -3.8393247152,
				"element": "H" 
			},
			{
				"x": -2.1477718761,
				"y": 0.0534470914,
				"z": -3.513341298,
				"element": "H" 
			},
			{
				"x": 1.0941362773,
				"y": 0.4782474111,
				"z": -2.1195549893,
				"element": "H" 
			},
			{
				"x": 1.0028980913,
				"y": -1.2631554995,
				"z": -1.9230876715,
				"element": "H" 
			},
			{
				"x": 0.1420218498,
				"y": -0.9438188439,
				"z": 0.4076777288,
				"element": "H" 
			},
			{
				"x": 2.5955595941,
				"y": -1.4550920727,
				"z": -0.1210493986,
				"element": "H" 
			},
			{
				"x": 2.3022347426,
				"y": -0.6874557799,
				"z": 1.4357582226,
				"element": "H" 
			},
			{
				"x": 4.2391809177,
				"y": 0.397189744,
				"z": 0.3686412101,
				"element": "H" 
			},
			{
				"x": 3.3192246284,
				"y": 0.7238383127,
				"z": -1.0907729016,
				"element": "H" 
			},
			{
				"x": 2.8954629247,
				"y": 1.9057501776,
				"z": 1.5477794022,
				"element": "H" 
			},
			{
				"x": 1.1862417163,
				"y": 3.2198891684,
				"z": 0.6404380007,
				"element": "H" 
			},
			{
				"x": 1.4419871798,
				"y": 2.4676595496,
				"z": -0.9234139745,
				"element": "H" 
			},
			{
				"x": 0.3458526974,
				"y": 1.1163059857,
				"z": 1.6044705316,
				"element": "H" 
			},
			{
				"x": -0.5810020186,
				"y": 1.4729462026,
				"z": 0.1558788855,
				"element": "H" 
			}
		],
		 "valence_orbital": [ 
			{
				"type": "occ",
				"energy": -0.31453,
				"method": "rhf"
			},
			{
				"type": "occ",
				"energy": -0.3049,
				"method": "rhf"
			},
			{
				"type": "occ",
				"energy": -0.26622,
				"method": "rhf"
			},
			{
				"type": "occ",
				"energy": -0.2458,
				"method": "rhf"
			},
			{
				"type": "occ",
				"energy": -0.21011,
				"method": "rhf"
			},
			{
				"type": "unocc",
				"energy": 0.03055,
				"method": "rhf"
			},
			{
				"type": "unocc",
				"energy": 0.06788,
				"method": "rhf"
			},
			{
				"type": "unocc",
				"energy": 0.08228,
				"method": "rhf"
			},
			{
				"type": "unocc",
				"energy": 0.09947,
				"method": "rhf"
			},
			{
				"type": "unocc",
				"energy": 0.1253,
				"method": "rhf"
			}
		],
		"cosmo_sigma_profile": { 
			"-0.025": 0.0,
			"-0.024": 0.0,
			"-0.023": 0.0,
			"-0.022": 0.0,
			"-0.021": 0.0,
			"-0.02": 0.0,
			"-0.019": 0.0,
			"-0.018": 0.0,
			"-0.017": 0.0,
			"-0.016": 0.0,
			"-0.015": 0.00932396636162,
			"-0.014": 1.0496030666,
			"-0.013": 2.69942579356,
			"-0.012": 2.01797888257,
			"-0.011": 2.33780511142,
			"-0.01": 2.46309274816,
			"-0.009": 3.57974597244,
			"-0.008": 3.37338397333,
			"-0.007": 3.17505014546,
			"-0.006": 3.95195379476,
			"-0.005": 6.2604318313,
			"-0.004": 10.3758453514,
			"-0.003": 20.0106429597,
			"-0.002": 23.064051967,
			"-0.001": 24.5234290631,
			"0.0": 21.0138875575,
			"0.001": 12.3707427249,
			"0.002": 5.20102475481,
			"0.003": 4.70955545655,
			"0.004": 4.16648894153,
			"0.005": 4.18004219803,
			"0.006": 3.09188675399,
			"0.007": 2.56189516146,
			"0.008": 2.28717069285,
			"0.009": 2.7052401794,
			"0.01": 2.05843697548,
			"0.011": 2.23831023009,
			"0.012": 1.81751362232,
			"0.013": 3.13063310323,
			"0.014": 6.69322207056,
			"0.015": 2.72996123256,
			"0.016": 0.343024073582,
			"0.017": 0.380454317053,
			"0.018": 0.715754857022,
			"0.019": 0.553762209669,
			"0.02": 0.0107286972086,
			"0.021": 0.0,
			"0.022": 0.0,
			"0.023": 0.0,
			"0.024": 0.0,
			"0.025": 0.0
		}
	}
}
