{
	 "smiles": "OC1(CCNCC1)C1=CC=C(Cl)C=C1", 
	 "Tm": 413.15, 
	 "num_atms": 28, 
	 "gaussian": { 
		 "optdone": 1, 
		 "sigma_profile": "yes", 
		 "theory": "DFT", 
		 "functional": "B3LYP", 
		 "basiset": "6-31G**", 
		 "properties": { 
			 "R2extent": 4559.0459, 
			 "electric_dipole_moment_norm": 2.66081526792, 
			 "electric_quadrupole_moment_norm": 5.5311223861, 
			 "total_energy": -1017.77412143, 
			 "HOMO_LUMO_gap": 0.20668, 
			 "cosmo_polarized_energy": -9.96, 
			 "cosmo_cavitation_energy": 30.85, 
			 "cosmo_dispersion_energy": -22.88, 
			 "cosmo_repulsion_energy": 1.79, 
			 "cosmo_total_nonelectrostatic_energy": 9.76, 
			 "SMD_solvation_energy": 2.24 
		},
		"coords": [
			{
				"x": 1.6440616827,
				"y": 1.2892354241,
				"z": 0.4983420308,
				"element": "O" 
			},
			{
				"x": 0.9649632089,
				"y": 0.1410985779,
				"z": -0.0303882519,
				"element": "C" 
			},
			{
				"x": 2.0819464582,
				"y": -0.8834827446,
				"z": -0.3290952963,
				"element": "C" 
			},
			{
				"x": 3.0129272249,
				"y": -0.4018014492,
				"z": -1.4463528462,
				"element": "C" 
			},
			{
				"x": 2.2242796149,
				"y": -0.110958402,
				"z": -2.6474219897,
				"element": "N" 
			},
			{
				"x": 1.2695623315,
				"y": 0.9736982786,
				"z": -2.4158885633,
				"element": "C" 
			},
			{
				"x": 0.2595287338,
				"y": 0.5331137267,
				"z": -1.3510367602,
				"element": "C" 
			},
			{
				"x": -0.0162233919,
				"y": -0.4245745959,
				"z": 1.0043849729,
				"element": "C" 
			},
			{
				"x": 0.018192327,
				"y": 0.0237883832,
				"z": 2.3305040971,
				"element": "C" 
			},
			{
				"x": -0.8508525818,
				"y": -0.4886379409,
				"z": 3.2949631637,
				"element": "C" 
			},
			{
				"x": -1.7666067775,
				"y": -1.4719894405,
				"z": 2.9301988745,
				"element": "C" 
			},
			{
				"x": -2.8707576384,
				"y": -2.1244254798,
				"z": 4.1350406667,
				"element": "Cl" 
			},
			{
				"x": -1.8170090023,
				"y": -1.9499716385,
				"z": 1.6213701333,
				"element": "C" 
			},
			{
				"x": -0.9424590079,
				"y": -1.4245407366,
				"z": 0.6714199703,
				"element": "C" 
			},
			{
				"x": 0.9992408748,
				"y": 2.0073320437,
				"z": 0.5658069301,
				"element": "H" 
			},
			{
				"x": 1.6179735929,
				"y": -1.8295932462,
				"z": -0.6262803076,
				"element": "H" 
			},
			{
				"x": 2.6480104061,
				"y": -1.0601326516,
				"z": 0.5915040536,
				"element": "H" 
			},
			{
				"x": 3.580524985,
				"y": 0.4727332213,
				"z": -1.0841388797,
				"element": "H" 
			},
			{
				"x": 3.7349665565,
				"y": -1.1905628963,
				"z": -1.6854985687,
				"element": "H" 
			},
			{
				"x": 2.8443638936,
				"y": 0.1355067315,
				"z": -3.413775502,
				"element": "H" 
			},
			{
				"x": 1.7542788637,
				"y": 1.9103567859,
				"z": -2.0856433704,
				"element": "H" 
			},
			{
				"x": 0.7441729893,
				"y": 1.1870061629,
				"z": -3.3534331985,
				"element": "H" 
			},
			{
				"x": -0.4646903287,
				"y": 1.3347229924,
				"z": -1.1517504119,
				"element": "H" 
			},
			{
				"x": -0.3042094666,
				"y": -0.3200459108,
				"z": -1.7395471706,
				"element": "H" 
			},
			{
				"x": 0.7454785858,
				"y": 0.7774496931,
				"z": 2.6105850414,
				"element": "H" 
			},
			{
				"x": -0.8144567788,
				"y": -0.1310478524,
				"z": 4.3183200739,
				"element": "H" 
			},
			{
				"x": -2.5299881631,
				"y": -2.7210447211,
				"z": 1.3506257509,
				"element": "H" 
			},
			{
				"x": -0.9889191925,
				"y": -1.812632315,
				"z": -0.3415146424,
				"element": "H" 
			}
		],
		 "valence_orbital": [ 
			{
				"type": "occ",
				"energy": -0.30848,
				"method": "rhf"
			},
			{
				"type": "occ",
				"energy": -0.27963,
				"method": "rhf"
			},
			{
				"type": "occ",
				"energy": -0.26036,
				"method": "rhf"
			},
			{
				"type": "occ",
				"energy": -0.2385,
				"method": "rhf"
			},
			{
				"type": "occ",
				"energy": -0.22001,
				"method": "rhf"
			},
			{
				"type": "unocc",
				"energy": -0.01333,
				"method": "rhf"
			},
			{
				"type": "unocc",
				"energy": -0.00978,
				"method": "rhf"
			},
			{
				"type": "unocc",
				"energy": 0.03282,
				"method": "rhf"
			},
			{
				"type": "unocc",
				"energy": 0.06782,
				"method": "rhf"
			},
			{
				"type": "unocc",
				"energy": 0.09553,
				"method": "rhf"
			}
		],
		"cosmo_sigma_profile": { 
			"-0.025": 0.0,
			"-0.024": 0.0,
			"-0.023": 0.0,
			"-0.022": 0.0,
			"-0.021": 0.0,
			"-0.02": 0.0,
			"-0.019": 0.0,
			"-0.018": 0.0,
			"-0.017": 0.0,
			"-0.016": 0.0,
			"-0.015": 0.505948741469,
			"-0.014": 1.02571061486,
			"-0.013": 0.532775194547,
			"-0.012": 1.2646689212,
			"-0.011": 0.776470260309,
			"-0.01": 1.58700277481,
			"-0.009": 2.59023883528,
			"-0.008": 1.95670232668,
			"-0.007": 5.58620097241,
			"-0.006": 9.06449633113,
			"-0.005": 11.2939793193,
			"-0.004": 13.7215832241,
			"-0.003": 19.0315617874,
			"-0.002": 20.5475212063,
			"-0.001": 26.4352738506,
			"0.0": 24.1908707555,
			"0.001": 16.5691954696,
			"0.002": 18.4236015142,
			"0.003": 15.8793094263,
			"0.004": 21.9971855416,
			"0.005": 13.1098442569,
			"0.006": 2.86484787368,
			"0.007": 1.95619421959,
			"0.008": 1.87736510311,
			"0.009": 2.00620841684,
			"0.01": 2.05415196873,
			"0.011": 1.49020232833,
			"0.012": 1.38120611173,
			"0.013": 1.44501991303,
			"0.014": 1.14255759003,
			"0.015": 0.137279466392,
			"0.016": 0.420162890356,
			"0.017": 0.712148555907,
			"0.018": 0.376148674089,
			"0.019": 0.0464808536483,
			"0.02": 0.0,
			"0.021": 0.0,
			"0.022": 0.0,
			"0.023": 0.0,
			"0.024": 0.0,
			"0.025": 0.0
		}
	}
}
