{
	 "smiles": "COC(=O)C1=C(C)C=C(Br)O1", 
	 "Tm": 336.15, 
	 "num_atms": 18, 
	 "gaussian": { 
		 "optdone": 1, 
		 "sigma_profile": "yes", 
		 "theory": "DFT", 
		 "functional": "B3LYP", 
		 "basiset": "6-31G**", 
		 "properties": { 
			 "R2extent": 3740.5765, 
			 "electric_dipole_moment_norm": 3.59596749846, 
			 "electric_quadrupole_moment_norm": 8.01641621487, 
			 "total_energy": -3068.01839663, 
			 "HOMO_LUMO_gap": 0.18883, 
			 "cosmo_polarized_energy": -8.84, 
			 "cosmo_cavitation_energy": 25.44, 
			 "cosmo_dispersion_energy": -18.86, 
			 "cosmo_repulsion_energy": 1.55, 
			 "cosmo_total_nonelectrostatic_energy": 8.13, 
			 "SMD_solvation_energy": 5.63 
		},
		"coords": [
			{
				"x": -2.273347081,
				"y": -0.3196734762,
				"z": 2.5567444846,
				"element": "C" 
			},
			{
				"x": -1.2023029322,
				"y": 0.1301678838,
				"z": 1.7119860758,
				"element": "O" 
			},
			{
				"x": -1.2025947733,
				"y": -0.4033014664,
				"z": 0.462512076,
				"element": "C" 
			},
			{
				"x": -2.0279999917,
				"y": -1.1980781632,
				"z": 0.0633619416,
				"element": "O" 
			},
			{
				"x": -0.0778490716,
				"y": 0.114847986,
				"z": -0.3172616903,
				"element": "C" 
			},
			{
				"x": 0.94860736,
				"y": 0.9997609067,
				"z": -0.0628387703,
				"element": "C" 
			},
			{
				"x": 1.2358225918,
				"y": 1.7558863254,
				"z": 1.2007483351,
				"element": "C" 
			},
			{
				"x": 1.7116859829,
				"y": 1.0621973838,
				"z": -1.2699831143,
				"element": "C" 
			},
			{
				"x": 1.0936613601,
				"y": 0.2197013681,
				"z": -2.1496496766,
				"element": "C" 
			},
			{
				"x": 1.4993157567,
				"y": -0.2266115995,
				"z": -3.9163610558,
				"element": "Br" 
			},
			{
				"x": 0.0142841027,
				"y": -0.3647830533,
				"z": -1.6055835317,
				"element": "O" 
			},
			{
				"x": -2.2276710791,
				"y": -1.4029558088,
				"z": 2.693923962,
				"element": "H" 
			},
			{
				"x": -2.1315529731,
				"y": 0.1931214495,
				"z": 3.5080426897,
				"element": "H" 
			},
			{
				"x": -3.242209645,
				"y": -0.0614025947,
				"z": 2.1219913293,
				"element": "H" 
			},
			{
				"x": 0.3958957925,
				"y": 2.4002717025,
				"z": 1.4757054114,
				"element": "H" 
			},
			{
				"x": 2.1256555035,
				"y": 2.3785279156,
				"z": 1.0805021687,
				"element": "H" 
			},
			{
				"x": 1.3998016548,
				"y": 1.0748181139,
				"z": 2.04073721,
				"element": "H" 
			},
			{
				"x": 2.5965974422,
				"y": 1.6518051267,
				"z": -1.4569778452,
				"element": "H" 
			}
		],
		 "valence_orbital": [ 
			{
				"type": "occ",
				"energy": -0.30818,
				"method": "rhf"
			},
			{
				"type": "occ",
				"energy": -0.30269,
				"method": "rhf"
			},
			{
				"type": "occ",
				"energy": -0.28771,
				"method": "rhf"
			},
			{
				"type": "occ",
				"energy": -0.27629,
				"method": "rhf"
			},
			{
				"type": "occ",
				"energy": -0.23354,
				"method": "rhf"
			},
			{
				"type": "unocc",
				"energy": -0.04471,
				"method": "rhf"
			},
			{
				"type": "unocc",
				"energy": 0.00334,
				"method": "rhf"
			},
			{
				"type": "unocc",
				"energy": 0.03306,
				"method": "rhf"
			},
			{
				"type": "unocc",
				"energy": 0.09478,
				"method": "rhf"
			},
			{
				"type": "unocc",
				"energy": 0.09892,
				"method": "rhf"
			}
		],
		"cosmo_sigma_profile": { 
			"-0.025": 0.0,
			"-0.024": 0.0,
			"-0.023": 0.0,
			"-0.022": 0.0,
			"-0.021": 0.0,
			"-0.02": 0.0,
			"-0.019": 0.0,
			"-0.018": 0.0,
			"-0.017": 0.0,
			"-0.016": 0.0,
			"-0.015": 0.0,
			"-0.014": 0.0,
			"-0.013": 0.0,
			"-0.012": 0.0,
			"-0.011": 0.0,
			"-0.01": 0.0,
			"-0.009": 0.622177289527,
			"-0.008": 1.89422981009,
			"-0.007": 3.08063839059,
			"-0.006": 8.76424221978,
			"-0.005": 14.3614546768,
			"-0.004": 15.2854232775,
			"-0.003": 18.5971576195,
			"-0.002": 16.6510915459,
			"-0.001": 24.2797391246,
			"0.0": 22.9251631571,
			"0.001": 16.2571333701,
			"0.002": 20.1846825637,
			"0.003": 14.622824221,
			"0.004": 5.10618932469,
			"0.005": 2.99270470546,
			"0.006": 2.12958722202,
			"0.007": 2.34202510258,
			"0.008": 1.83248575245,
			"0.009": 1.95245888502,
			"0.01": 2.64584620493,
			"0.011": 3.2110319504,
			"0.012": 5.59076674957,
			"0.013": 1.27019546556,
			"0.014": 0.0,
			"0.015": 0.0,
			"0.016": 0.0,
			"0.017": 0.0,
			"0.018": 0.0,
			"0.019": 0.0,
			"0.02": 0.0,
			"0.021": 0.0,
			"0.022": 0.0,
			"0.023": 0.0,
			"0.024": 0.0,
			"0.025": 0.0
		}
	}
}
