{
	 "smiles": "OC1(C2=C(C=CC=C2)C2=C1C=CC=C2)C1=CC=CC=C1", 
	 "Tm": 381.15, 
	 "num_atms": 34, 
	 "gaussian": { 
		 "optdone": 1, 
		 "sigma_profile": "yes", 
		 "theory": "DFT", 
		 "functional": "B3LYP", 
		 "basiset": "6-31G**", 
		 "properties": { 
			 "R2extent": 6443.6268, 
			 "electric_dipole_moment_norm": 1.44003340586, 
			 "electric_quadrupole_moment_norm": 3.52031570317, 
			 "total_energy": -807.689192675, 
			 "HOMO_LUMO_gap": 0.17897, 
			 "cosmo_polarized_energy": -9.58, 
			 "cosmo_cavitation_energy": 37.24, 
			 "cosmo_dispersion_energy": -25.79, 
			 "cosmo_repulsion_energy": 1.97, 
			 "cosmo_total_nonelectrostatic_energy": 13.41, 
			 "SMD_solvation_energy": 5.97 
		},
		"coords": [
			{
				"x": 3.0925412506,
				"y": -1.8132247874,
				"z": 0.3613838233,
				"element": "O" 
			},
			{
				"x": 2.1920011937,
				"y": -0.9543195102,
				"z": -0.3446051361,
				"element": "C" 
			},
			{
				"x": 2.6150724553,
				"y": 0.5178259987,
				"z": -0.2488418803,
				"element": "C" 
			},
			{
				"x": 1.6136924793,
				"y": 1.2879734267,
				"z": 0.3713737493,
				"element": "C" 
			},
			{
				"x": 1.8014436349,
				"y": 2.6560248187,
				"z": 0.5723468933,
				"element": "C" 
			},
			{
				"x": 3.0029495722,
				"y": 3.238130376,
				"z": 0.1559049062,
				"element": "C" 
			},
			{
				"x": 4.0001724825,
				"y": 2.4666499375,
				"z": -0.450228584,
				"element": "C" 
			},
			{
				"x": 3.8095594349,
				"y": 1.0948507259,
				"z": -0.6580964937,
				"element": "C" 
			},
			{
				"x": 0.4900097684,
				"y": 0.400170995,
				"z": 0.7246399606,
				"element": "C" 
			},
			{
				"x": 0.8089692644,
				"y": -0.9091321171,
				"z": 0.3189703181,
				"element": "C" 
			},
			{
				"x": -0.0615419632,
				"y": -1.9635828922,
				"z": 0.5590578468,
				"element": "C" 
			},
			{
				"x": -1.2743319408,
				"y": -1.7005397831,
				"z": 1.2081545899,
				"element": "C" 
			},
			{
				"x": -1.6003099277,
				"y": -0.3987363942,
				"z": 1.6032246417,
				"element": "C" 
			},
			{
				"x": -0.7213798986,
				"y": 0.6628063864,
				"z": 1.3655314231,
				"element": "C" 
			},
			{
				"x": 2.1345143276,
				"y": -1.455585164,
				"z": -1.7891926742,
				"element": "C" 
			},
			{
				"x": 2.8853519921,
				"y": -2.561354618,
				"z": -2.1995430412,
				"element": "C" 
			},
			{
				"x": 2.8213961233,
				"y": -3.0054369619,
				"z": -3.5237137272,
				"element": "C" 
			},
			{
				"x": 2.0095221672,
				"y": -2.3522022809,
				"z": -4.4492908026,
				"element": "C" 
			},
			{
				"x": 1.2569601834,
				"y": -1.2462844741,
				"z": -4.0436144441,
				"element": "C" 
			},
			{
				"x": 1.3194236003,
				"y": -0.8024672063,
				"z": -2.7249648803,
				"element": "C" 
			},
			{
				"x": 3.12930297,
				"y": -1.4961402414,
				"z": 1.2735516632,
				"element": "H" 
			},
			{
				"x": 1.0339487994,
				"y": 3.2620295225,
				"z": 1.0459931413,
				"element": "H" 
			},
			{
				"x": 3.1641471963,
				"y": 4.3018698007,
				"z": 0.3063966461,
				"element": "H" 
			},
			{
				"x": 4.9279138714,
				"y": 2.9364287046,
				"z": -0.7639281453,
				"element": "H" 
			},
			{
				"x": 4.5782428428,
				"y": 0.491487471,
				"z": -1.1324178851,
				"element": "H" 
			},
			{
				"x": 0.1951008134,
				"y": -2.9715083718,
				"z": 0.2458109746,
				"element": "H" 
			},
			{
				"x": -1.9687270236,
				"y": -2.5123669753,
				"z": 1.4045166234,
				"element": "H" 
			},
			{
				"x": -2.5467802866,
				"y": -0.2101278532,
				"z": 2.1020182936,
				"element": "H" 
			},
			{
				"x": -0.9808614082,
				"y": 1.6701407627,
				"z": 1.6794969893,
				"element": "H" 
			},
			{
				"x": 3.5162431261,
				"y": -3.0694507467,
				"z": -1.4806743685,
				"element": "H" 
			},
			{
				"x": 3.410708393,
				"y": -3.866270365,
				"z": -3.8279118684,
				"element": "H" 
			},
			{
				"x": 1.9612517208,
				"y": -2.6989195241,
				"z": -5.4776993856,
				"element": "H" 
			},
			{
				"x": 0.6202686143,
				"y": -0.728694261,
				"z": -4.7557316868,
				"element": "H" 
			},
			{
				"x": 0.7312241711,
				"y": 0.0577556014,
				"z": -2.4180174804,
				"element": "H" 
			}
		],
		 "valence_orbital": [ 
			{
				"type": "occ",
				"energy": -0.25254,
				"method": "rhf"
			},
			{
				"type": "occ",
				"energy": -0.24899,
				"method": "rhf"
			},
			{
				"type": "occ",
				"energy": -0.24176,
				"method": "rhf"
			},
			{
				"type": "occ",
				"energy": -0.23394,
				"method": "rhf"
			},
			{
				"type": "occ",
				"energy": -0.21499,
				"method": "rhf"
			},
			{
				"type": "unocc",
				"energy": -0.03602,
				"method": "rhf"
			},
			{
				"type": "unocc",
				"energy": -0.02078,
				"method": "rhf"
			},
			{
				"type": "unocc",
				"energy": -0.00071,
				"method": "rhf"
			},
			{
				"type": "unocc",
				"energy": 0.00424,
				"method": "rhf"
			},
			{
				"type": "unocc",
				"energy": 0.0156,
				"method": "rhf"
			}
		],
		"cosmo_sigma_profile": { 
			"-0.025": 0.0,
			"-0.024": 0.0,
			"-0.023": 0.0,
			"-0.022": 0.0,
			"-0.021": 0.0,
			"-0.02": 0.0,
			"-0.019": 0.0,
			"-0.018": 0.0,
			"-0.017": 0.0430101606501,
			"-0.016": 0.585224012957,
			"-0.015": 0.548284500221,
			"-0.014": 0.807869312834,
			"-0.013": 1.11338836898,
			"-0.012": 0.426739020176,
			"-0.011": 0.251642223871,
			"-0.01": 0.87847185262,
			"-0.009": 0.766797370885,
			"-0.008": 1.20593583731,
			"-0.007": 0.614203780183,
			"-0.006": 14.3801557225,
			"-0.005": 24.7809205605,
			"-0.004": 26.7138805062,
			"-0.003": 25.7894752245,
			"-0.002": 19.9602963746,
			"-0.001": 18.1630013568,
			"0.0": 19.0065853246,
			"0.001": 18.3215777067,
			"0.002": 22.0782051424,
			"0.003": 25.8561168515,
			"0.004": 28.219762347,
			"0.005": 27.1465629651,
			"0.006": 12.9513724651,
			"0.007": 2.30894889427,
			"0.008": 1.64553574165,
			"0.009": 1.22958773937,
			"0.01": 1.5589662907,
			"0.011": 1.0012553882,
			"0.012": 0.0261525357129,
			"0.013": 0.0,
			"0.014": 0.0,
			"0.015": 0.0,
			"0.016": 0.0,
			"0.017": 0.0,
			"0.018": 0.0,
			"0.019": 0.0,
			"0.02": 0.0,
			"0.021": 0.0,
			"0.022": 0.0,
			"0.023": 0.0,
			"0.024": 0.0,
			"0.025": 0.0
		}
	}
}
