{
	 "smiles": "OC(=O)C(=O)CC1=CC2=C(C=CC=C2)C=C1", 
	 "Tm": 462.15, 
	 "num_atms": 26, 
	 "gaussian": { 
		 "optdone": 1, 
		 "sigma_profile": "yes", 
		 "theory": "DFT", 
		 "functional": "B3LYP", 
		 "basiset": "6-31G**", 
		 "properties": { 
			 "R2extent": 4481.5608, 
			 "electric_dipole_moment_norm": 3.81800091278, 
			 "electric_quadrupole_moment_norm": 13.3036693983, 
			 "total_energy": -727.090383766, 
			 "HOMO_LUMO_gap": 0.14321, 
			 "cosmo_polarized_energy": -14.77, 
			 "cosmo_cavitation_energy": 31.32, 
			 "cosmo_dispersion_energy": -22.04, 
			 "cosmo_repulsion_energy": 1.71, 
			 "cosmo_total_nonelectrostatic_energy": 10.99, 
			 "SMD_solvation_energy": 6.95 
		},
		"coords": [
			{
				"x": -0.2209225808,
				"y": -2.1281023124,
				"z": 1.2128897881,
				"element": "O" 
			},
			{
				"x": -0.7529698741,
				"y": -2.2340604248,
				"z": -0.0271670169,
				"element": "C" 
			},
			{
				"x": -0.4583671429,
				"y": -3.0942729716,
				"z": -0.8174380613,
				"element": "O" 
			},
			{
				"x": -1.8086210629,
				"y": -1.1321701786,
				"z": -0.3005839675,
				"element": "C" 
			},
			{
				"x": -2.5572503683,
				"y": -1.2840243059,
				"z": -1.2387147349,
				"element": "O" 
			},
			{
				"x": -1.8090768248,
				"y": 0.1009054145,
				"z": 0.5890311782,
				"element": "C" 
			},
			{
				"x": -0.6047868682,
				"y": 0.9776337162,
				"z": 0.2703284747,
				"element": "C" 
			},
			{
				"x": -0.5016553643,
				"y": 1.5916018982,
				"z": -0.963590838,
				"element": "C" 
			},
			{
				"x": 0.6068913396,
				"y": 2.4151383025,
				"z": -1.2909313707,
				"element": "C" 
			},
			{
				"x": 1.6415704077,
				"y": 2.6051963319,
				"z": -0.3176489405,
				"element": "C" 
			},
			{
				"x": 2.7503587323,
				"y": 3.4311989614,
				"z": -0.6447634137,
				"element": "C" 
			},
			{
				"x": 2.8350069263,
				"y": 4.0403673577,
				"z": -1.8764824309,
				"element": "C" 
			},
			{
				"x": 1.8127611813,
				"y": 3.8514151859,
				"z": -2.8398707766,
				"element": "C" 
			},
			{
				"x": 0.7250819615,
				"y": 3.0579552905,
				"z": -2.5534924371,
				"element": "C" 
			},
			{
				"x": 1.5175811963,
				"y": 1.9571261751,
				"z": 0.94021938,
				"element": "C" 
			},
			{
				"x": 0.4306398451,
				"y": 1.1631880077,
				"z": 1.225207155,
				"element": "C" 
			},
			{
				"x": 0.4231896808,
				"y": -2.85166209,
				"z": 1.3017935437,
				"element": "H" 
			},
			{
				"x": -1.786601128,
				"y": -0.1992814474,
				"z": 1.6399596302,
				"element": "H" 
			},
			{
				"x": -2.7434688316,
				"y": 0.6332261106,
				"z": 0.3913578691,
				"element": "H" 
			},
			{
				"x": -1.2832150901,
				"y": 1.4479711242,
				"z": -1.7064894052,
				"element": "H" 
			},
			{
				"x": 3.5332453448,
				"y": 3.5739069495,
				"z": 0.095800296,
				"element": "H" 
			},
			{
				"x": 3.6876406055,
				"y": 4.6692772105,
				"z": -2.115575898,
				"element": "H" 
			},
			{
				"x": 1.8921214354,
				"y": 4.3369297247,
				"z": -3.8081633774,
				"element": "H" 
			},
			{
				"x": -0.059807393,
				"y": 2.9109340249,
				"z": -3.2908334317,
				"element": "H" 
			},
			{
				"x": 2.2999863349,
				"y": 2.0980679155,
				"z": 1.6816602335,
				"element": "H" 
			},
			{
				"x": 0.3540675375,
				"y": 0.6698340292,
				"z": 2.1895985519,
				"element": "H" 
			}
		],
		 "valence_orbital": [ 
			{
				"type": "occ",
				"energy": -0.3044,
				"method": "rhf"
			},
			{
				"type": "occ",
				"energy": -0.28962,
				"method": "rhf"
			},
			{
				"type": "occ",
				"energy": -0.26702,
				"method": "rhf"
			},
			{
				"type": "occ",
				"energy": -0.24486,
				"method": "rhf"
			},
			{
				"type": "occ",
				"energy": -0.22,
				"method": "rhf"
			},
			{
				"type": "unocc",
				"energy": -0.07679,
				"method": "rhf"
			},
			{
				"type": "unocc",
				"energy": -0.04567,
				"method": "rhf"
			},
			{
				"type": "unocc",
				"energy": -0.01279,
				"method": "rhf"
			},
			{
				"type": "unocc",
				"energy": 0.02499,
				"method": "rhf"
			},
			{
				"type": "unocc",
				"energy": 0.04928,
				"method": "rhf"
			}
		],
		"cosmo_sigma_profile": { 
			"-0.025": 0.0,
			"-0.024": 0.0,
			"-0.023": 0.0,
			"-0.022": 0.0,
			"-0.021": 0.0,
			"-0.02": 0.0791475562265,
			"-0.019": 0.884189889097,
			"-0.018": 1.13640895875,
			"-0.017": 0.85722993997,
			"-0.016": 0.982348916379,
			"-0.015": 0.413260914575,
			"-0.014": 0.140816859743,
			"-0.013": 0.739747481295,
			"-0.012": 1.63836197409,
			"-0.011": 0.576743188126,
			"-0.01": 0.411760236178,
			"-0.009": 0.738625887336,
			"-0.008": 1.94042974649,
			"-0.007": 3.74035763018,
			"-0.006": 18.3739112012,
			"-0.005": 20.2675532987,
			"-0.004": 20.4682367916,
			"-0.003": 19.5754615866,
			"-0.002": 14.2223253423,
			"-0.001": 13.7134544109,
			"0.0": 12.4808917559,
			"0.001": 13.2780243104,
			"0.002": 13.6688660045,
			"0.003": 19.0893712924,
			"0.004": 25.6818313061,
			"0.005": 13.9829117056,
			"0.006": 2.89146561858,
			"0.007": 2.81535553695,
			"0.008": 3.99234049756,
			"0.009": 5.64772344191,
			"0.01": 8.37424710134,
			"0.011": 4.92927427221,
			"0.012": 2.30730980555,
			"0.013": 0.359154328188,
			"0.014": 0.0,
			"0.015": 0.0,
			"0.016": 0.0,
			"0.017": 0.0,
			"0.018": 0.0,
			"0.019": 0.0,
			"0.02": 0.0,
			"0.021": 0.0,
			"0.022": 0.0,
			"0.023": 0.0,
			"0.024": 0.0,
			"0.025": 0.0
		}
	}
}
