{
	 "smiles": "CCOC(=O)C1=C(C)NC(=O)NC1C1=CC(=CC=C1)[N+]([O-])=O", 
	 "Tm": 501.15, 
	 "num_atms": 37, 
	 "gaussian": { 
		 "optdone": 1, 
		 "sigma_profile": "yes", 
		 "theory": "DFT", 
		 "functional": "B3LYP", 
		 "basiset": "6-31G**", 
		 "properties": { 
			 "R2extent": 7531.1141, 
			 "electric_dipole_moment_norm": 5.34777103287, 
			 "electric_quadrupole_moment_norm": 24.0492267957, 
			 "total_energy": -1082.84476679, 
			 "HOMO_LUMO_gap": 0.15446, 
			 "cosmo_polarized_energy": -21.46, 
			 "cosmo_cavitation_energy": 41.41, 
			 "cosmo_dispersion_energy": -28.57, 
			 "cosmo_repulsion_energy": 2.2, 
			 "cosmo_total_nonelectrostatic_energy": 15.04, 
			 "SMD_solvation_energy": 10.22 
		},
		"coords": [
			{
				"x": 3.1690976783,
				"y": -2.494941854,
				"z": 3.1384586082,
				"element": "C" 
			},
			{
				"x": 2.0598261839,
				"y": -2.7377671568,
				"z": 2.1329188609,
				"element": "C" 
			},
			{
				"x": 2.0971363699,
				"y": -1.6548412382,
				"z": 1.1722439762,
				"element": "O" 
			},
			{
				"x": 1.1531997426,
				"y": -1.7051683165,
				"z": 0.2019381194,
				"element": "C" 
			},
			{
				"x": 0.3369297199,
				"y": -2.6149238245,
				"z": 0.1374870984,
				"element": "O" 
			},
			{
				"x": 1.2042390064,
				"y": -0.6056219017,
				"z": -0.7693759363,
				"element": "C" 
			},
			{
				"x": 2.1136487025,
				"y": 0.4094640133,
				"z": -0.7958548591,
				"element": "C" 
			},
			{
				"x": 3.1780415001,
				"y": 0.7181820868,
				"z": 0.2252305615,
				"element": "C" 
			},
			{
				"x": 2.1053406441,
				"y": 1.2685033196,
				"z": -1.8831850246,
				"element": "N" 
			},
			{
				"x": 1.510796584,
				"y": 0.9856878508,
				"z": -3.1220357528,
				"element": "C" 
			},
			{
				"x": 1.7419064259,
				"y": 1.6690812127,
				"z": -4.1078542816,
				"element": "O" 
			},
			{
				"x": 0.706586714,
				"y": -0.1188843438,
				"z": -3.0972302097,
				"element": "N" 
			},
			{
				"x": 0.1419717994,
				"y": -0.6676074903,
				"z": -1.8662979425,
				"element": "C" 
			},
			{
				"x": -1.1719326873,
				"y": 0.0184678886,
				"z": -1.4470794942,
				"element": "C" 
			},
			{
				"x": -2.0259142368,
				"y": -0.633196005,
				"z": -0.5470828398,
				"element": "C" 
			},
			{
				"x": -3.2049529272,
				"y": -0.0064913831,
				"z": -0.1566810121,
				"element": "C" 
			},
			{
				"x": -3.5808969264,
				"y": 1.2507333254,
				"z": -0.627757618,
				"element": "C" 
			},
			{
				"x": -2.7329638714,
				"y": 1.8883114937,
				"z": -1.5270311254,
				"element": "C" 
			},
			{
				"x": -1.5426389887,
				"y": 1.2783442274,
				"z": -1.9353897336,
				"element": "C" 
			},
			{
				"x": -4.0969762315,
				"y": -0.700977529,
				"z": 0.7903599644,
				"element": "N" 
			},
			{
				"x": -5.13169368,
				"y": -0.1234990414,
				"z": 1.1253676366,
				"element": "O" 
			},
			{
				"x": -3.7554218127,
				"y": -1.8122868839,
				"z": 1.190659305,
				"element": "O" 
			},
			{
				"x": 3.1760175213,
				"y": -3.2991700577,
				"z": 3.8805554244,
				"element": "H" 
			},
			{
				"x": 3.0237600799,
				"y": -1.5467492048,
				"z": 3.6645172297,
				"element": "H" 
			},
			{
				"x": 4.1470378448,
				"y": -2.4730689193,
				"z": 2.6485862134,
				"element": "H" 
			},
			{
				"x": 1.072745256,
				"y": -2.7578159733,
				"z": 2.6043142888,
				"element": "H" 
			},
			{
				"x": 2.1877408727,
				"y": -3.6849590747,
				"z": 1.6003187772,
				"element": "H" 
			},
			{
				"x": 2.7925624965,
				"y": 0.6268452548,
				"z": 1.239036463,
				"element": "H" 
			},
			{
				"x": 4.0146204728,
				"y": 0.0183943499,
				"z": 0.1343531773,
				"element": "H" 
			},
			{
				"x": 3.5620247249,
				"y": 1.7320476725,
				"z": 0.0778348798,
				"element": "H" 
			},
			{
				"x": 2.772837491,
				"y": 2.0251812512,
				"z": -1.926718086,
				"element": "H" 
			},
			{
				"x": 0.2211290636,
				"y": -0.2868252379,
				"z": -3.9676677417,
				"element": "H" 
			},
			{
				"x": -0.079279401,
				"y": -1.7232705485,
				"z": -2.042060783,
				"element": "H" 
			},
			{
				"x": -1.7766801204,
				"y": -1.6101122842,
				"z": -0.15067616,
				"element": "H" 
			},
			{
				"x": -4.510684309,
				"y": 1.6932221165,
				"z": -0.294152539,
				"element": "H" 
			},
			{
				"x": -2.99918054,
				"y": 2.8648542163,
				"z": -1.9194101654,
				"element": "H" 
			},
			{
				"x": -0.9111811621,
				"y": 1.7918579893,
				"z": -2.6525392796,
				"element": "H" 
			}
		],
		 "valence_orbital": [ 
			{
				"type": "occ",
				"energy": -0.28021,
				"method": "rhf"
			},
			{
				"type": "occ",
				"energy": -0.27798,
				"method": "rhf"
			},
			{
				"type": "occ",
				"energy": -0.27328,
				"method": "rhf"
			},
			{
				"type": "occ",
				"energy": -0.26239,
				"method": "rhf"
			},
			{
				"type": "occ",
				"energy": -0.23779,
				"method": "rhf"
			},
			{
				"type": "unocc",
				"energy": -0.08333,
				"method": "rhf"
			},
			{
				"type": "unocc",
				"energy": -0.04988,
				"method": "rhf"
			},
			{
				"type": "unocc",
				"energy": -0.02434,
				"method": "rhf"
			},
			{
				"type": "unocc",
				"energy": 0.00557,
				"method": "rhf"
			},
			{
				"type": "unocc",
				"energy": 0.04389,
				"method": "rhf"
			}
		],
		"cosmo_sigma_profile": { 
			"-0.025": 0.0,
			"-0.024": 0.0,
			"-0.023": 0.0,
			"-0.022": 0.0,
			"-0.021": 0.0,
			"-0.02": 0.0,
			"-0.019": 0.0,
			"-0.018": 0.0,
			"-0.017": 0.0,
			"-0.016": 0.265359760315,
			"-0.015": 1.50270148604,
			"-0.014": 2.45783443943,
			"-0.013": 2.12915268325,
			"-0.012": 2.13298888243,
			"-0.011": 1.96111577839,
			"-0.01": 2.61262466812,
			"-0.009": 2.21150384988,
			"-0.008": 3.1547140127,
			"-0.007": 7.70953693666,
			"-0.006": 11.93151836,
			"-0.005": 18.111145583,
			"-0.004": 24.5933285175,
			"-0.003": 29.0557143865,
			"-0.002": 29.1596598319,
			"-0.001": 29.348836694,
			"0.0": 30.9792623733,
			"0.001": 25.2504173696,
			"0.002": 21.723181979,
			"0.003": 11.2231369195,
			"0.004": 8.34873140568,
			"0.005": 6.349276325,
			"0.006": 7.12604076958,
			"0.007": 9.03204494473,
			"0.008": 10.2636182162,
			"0.009": 6.89358784351,
			"0.01": 5.33649106996,
			"0.011": 3.21742362592,
			"0.012": 4.6091681779,
			"0.013": 7.67760086319,
			"0.014": 2.44254914457,
			"0.015": 0.0150414742313,
			"0.016": 0.0,
			"0.017": 0.0,
			"0.018": 0.0,
			"0.019": 0.0,
			"0.02": 0.0,
			"0.021": 0.0,
			"0.022": 0.0,
			"0.023": 0.0,
			"0.024": 0.0,
			"0.025": 0.0
		}
	}
}
