{
	 "smiles": "O=C(CC#N)N1CCOCC1", 
	 "Tm": 361.15, 
	 "num_atms": 21, 
	 "gaussian": { 
		 "optdone": 1, 
		 "sigma_profile": "yes", 
		 "theory": "DFT", 
		 "functional": "B3LYP", 
		 "basiset": "6-31G**", 
		 "properties": { 
			 "R2extent": 3219.6272, 
			 "electric_dipole_moment_norm": 6.41707366484, 
			 "electric_quadrupole_moment_norm": 37.4271419342, 
			 "total_energy": -532.685912019, 
			 "HOMO_LUMO_gap": 0.26364, 
			 "cosmo_polarized_energy": -20.52, 
			 "cosmo_cavitation_energy": 24.58, 
			 "cosmo_dispersion_energy": -17.84, 
			 "cosmo_repulsion_energy": 1.45, 
			 "cosmo_total_nonelectrostatic_energy": 8.18, 
			 "SMD_solvation_energy": 5.62 
		},
		"coords": [
			{
				"x": -3.4845229395,
				"y": 0.7460563922,
				"z": -1.1093844712,
				"element": "O" 
			},
			{
				"x": -2.7189925893,
				"y": 0.3569753894,
				"z": -0.2406610839,
				"element": "C" 
			},
			{
				"x": -3.1762008319,
				"y": -0.62595504,
				"z": 0.8572614689,
				"element": "C" 
			},
			{
				"x": -4.5456172477,
				"y": -1.0911733532,
				"z": 0.6485162999,
				"element": "C" 
			},
			{
				"x": -5.6258399032,
				"y": -1.4945921491,
				"z": 0.5290621043,
				"element": "N" 
			},
			{
				"x": -1.4095670757,
				"y": 0.7514448855,
				"z": -0.1532092754,
				"element": "N" 
			},
			{
				"x": -0.4699910211,
				"y": 0.3003748754,
				"z": 0.8814046534,
				"element": "C" 
			},
			{
				"x": 0.8301877657,
				"y": 1.10435609,
				"z": 0.7629517359,
				"element": "C" 
			},
			{
				"x": 0.5565591677,
				"y": 2.4890562075,
				"z": 0.7139752081,
				"element": "O" 
			},
			{
				"x": -0.2198422352,
				"y": 2.8858292122,
				"z": -0.424344874,
				"element": "C" 
			},
			{
				"x": -0.8901110271,
				"y": 1.7045719882,
				"z": -1.1346799228,
				"element": "C" 
			},
			{
				"x": -2.5099255433,
				"y": -1.4957440365,
				"z": 0.899712556,
				"element": "H" 
			},
			{
				"x": -3.1138132594,
				"y": -0.14126137,
				"z": 1.8396677578,
				"element": "H" 
			},
			{
				"x": -0.8949112608,
				"y": 0.4730492264,
				"z": 1.8771677754,
				"element": "H" 
			},
			{
				"x": -0.2484258075,
				"y": -0.773210383,
				"z": 0.788015043,
				"element": "H" 
			},
			{
				"x": 1.4139263969,
				"y": 0.7705168471,
				"z": -0.1086925013,
				"element": "H" 
			},
			{
				"x": 1.4441859396,
				"y": 0.9354255025,
				"z": 1.6515311517,
				"element": "H" 
			},
			{
				"x": 0.4187505365,
				"y": 3.4247008206,
				"z": -1.1393230199,
				"element": "H" 
			},
			{
				"x": -0.9788189065,
				"y": 3.5831663899,
				"z": -0.053475006,
				"element": "H" 
			},
			{
				"x": -0.1838011074,
				"y": 1.1990352915,
				"z": -1.8052766971,
				"element": "H" 
			},
			{
				"x": -1.7311290509,
				"y": 2.0440772135,
				"z": -1.7398189027,
				"element": "H" 
			}
		],
		 "valence_orbital": [ 
			{
				"type": "occ",
				"energy": -0.32566,
				"method": "rhf"
			},
			{
				"type": "occ",
				"energy": -0.32414,
				"method": "rhf"
			},
			{
				"type": "occ",
				"energy": -0.27393,
				"method": "rhf"
			},
			{
				"type": "occ",
				"energy": -0.26807,
				"method": "rhf"
			},
			{
				"type": "occ",
				"energy": -0.25725,
				"method": "rhf"
			},
			{
				"type": "unocc",
				"energy": 0.00639,
				"method": "rhf"
			},
			{
				"type": "unocc",
				"energy": 0.03111,
				"method": "rhf"
			},
			{
				"type": "unocc",
				"energy": 0.03463,
				"method": "rhf"
			},
			{
				"type": "unocc",
				"energy": 0.05839,
				"method": "rhf"
			},
			{
				"type": "unocc",
				"energy": 0.08298,
				"method": "rhf"
			}
		],
		"cosmo_sigma_profile": { 
			"-0.025": 0.0,
			"-0.024": 0.0,
			"-0.023": 0.0,
			"-0.022": 0.0,
			"-0.021": 0.0,
			"-0.02": 0.0,
			"-0.019": 0.0,
			"-0.018": 0.0,
			"-0.017": 0.0,
			"-0.016": 0.0,
			"-0.015": 0.0,
			"-0.014": 0.0,
			"-0.013": 0.0,
			"-0.012": 0.0,
			"-0.011": 0.508644125388,
			"-0.01": 6.71415697206,
			"-0.009": 6.33149529455,
			"-0.008": 5.06159607903,
			"-0.007": 7.0626397745,
			"-0.006": 16.0606343544,
			"-0.005": 23.0910635291,
			"-0.004": 19.8178311131,
			"-0.003": 13.4186852612,
			"-0.002": 8.88317112724,
			"-0.001": 7.73721068079,
			"0.0": 5.28497087324,
			"0.001": 4.80520802462,
			"0.002": 4.14563728869,
			"0.003": 4.48935395989,
			"0.004": 4.7003522816,
			"0.005": 4.21052588945,
			"0.006": 4.50181906314,
			"0.007": 6.1483353905,
			"0.008": 6.84848609585,
			"0.009": 6.57477446938,
			"0.01": 5.62876066506,
			"0.011": 6.88956363356,
			"0.012": 7.09884859443,
			"0.013": 7.64122671236,
			"0.014": 0.557957630859,
			"0.015": 0.0,
			"0.016": 0.0,
			"0.017": 0.0,
			"0.018": 0.0,
			"0.019": 0.0,
			"0.02": 0.0,
			"0.021": 0.0,
			"0.022": 0.0,
			"0.023": 0.0,
			"0.024": 0.0,
			"0.025": 0.0
		}
	}
}
