{
	 "smiles": "OC(=O)C1=CN=CO1", 
	 "Tm": 501.15, 
	 "num_atms": 11, 
	 "gaussian": { 
		 "optdone": 1, 
		 "sigma_profile": "yes", 
		 "theory": "DFT", 
		 "functional": "B3LYP", 
		 "basiset": "6-31G**", 
		 "properties": { 
			 "R2extent": 943.886, 
			 "electric_dipole_moment_norm": 1.85681697806, 
			 "electric_quadrupole_moment_norm": 2.19363763872, 
			 "total_energy": -434.641348094, 
			 "HOMO_LUMO_gap": 0.21081, 
			 "cosmo_polarized_energy": -11.15, 
			 "cosmo_cavitation_energy": 16.66, 
			 "cosmo_dispersion_energy": -12.44, 
			 "cosmo_repulsion_energy": 1.04, 
			 "cosmo_total_nonelectrostatic_energy": 5.27, 
			 "SMD_solvation_energy": 3.95 
		},
		"coords": [
			{
				"x": -1.9436450868,
				"y": -0.325864194,
				"z": 1.6135057842,
				"element": "O" 
			},
			{
				"x": -0.6655465937,
				"y": 0.1052688433,
				"z": 1.6781998646,
				"element": "C" 
			},
			{
				"x": -0.0231889066,
				"y": 0.1726663675,
				"z": 2.706591698,
				"element": "O" 
			},
			{
				"x": -0.12449527,
				"y": 0.4875391191,
				"z": 0.3731153084,
				"element": "C" 
			},
			{
				"x": 1.1018289118,
				"y": 0.9649068969,
				"z": 0.0095442102,
				"element": "C" 
			},
			{
				"x": 1.1256094944,
				"y": 1.1776564759,
				"z": -1.3545853509,
				"element": "N" 
			},
			{
				"x": -0.0632110024,
				"y": 0.8266127851,
				"z": -1.7478560672,
				"element": "C" 
			},
			{
				"x": -0.885524237,
				"y": 0.3962771354,
				"z": -0.768382006,
				"element": "O" 
			},
			{
				"x": -2.1953172002,
				"y": -0.5493591433,
				"z": 2.5252403818,
				"element": "H" 
			},
			{
				"x": 1.9523447597,
				"y": 1.162955906,
				"z": 0.6446110115,
				"element": "H" 
			},
			{
				"x": -0.4647548692,
				"y": 0.8385398081,
				"z": -2.7507848345,
				"element": "H" 
			}
		],
		 "valence_orbital": [ 
			{
				"type": "occ",
				"energy": -0.34165,
				"method": "rhf"
			},
			{
				"type": "occ",
				"energy": -0.33156,
				"method": "rhf"
			},
			{
				"type": "occ",
				"energy": -0.30771,
				"method": "rhf"
			},
			{
				"type": "occ",
				"energy": -0.29356,
				"method": "rhf"
			},
			{
				"type": "occ",
				"energy": -0.27004,
				"method": "rhf"
			},
			{
				"type": "unocc",
				"energy": -0.05923,
				"method": "rhf"
			},
			{
				"type": "unocc",
				"energy": 0.01335,
				"method": "rhf"
			},
			{
				"type": "unocc",
				"energy": 0.0703,
				"method": "rhf"
			},
			{
				"type": "unocc",
				"energy": 0.09384,
				"method": "rhf"
			},
			{
				"type": "unocc",
				"energy": 0.11243,
				"method": "rhf"
			}
		],
		"cosmo_sigma_profile": { 
			"-0.025": 0.0,
			"-0.024": 0.0,
			"-0.023": 0.0,
			"-0.022": 0.0,
			"-0.021": 0.0,
			"-0.02": 0.0,
			"-0.019": 0.569659741904,
			"-0.018": 1.27545052841,
			"-0.017": 0.448748207925,
			"-0.016": 1.02717371352,
			"-0.015": 0.737169352745,
			"-0.014": 0.877902766855,
			"-0.013": 0.678190058223,
			"-0.012": 1.69093536931,
			"-0.011": 2.98897891881,
			"-0.01": 2.902939874,
			"-0.009": 3.41934980696,
			"-0.008": 3.78013058962,
			"-0.007": 4.35137563957,
			"-0.006": 3.07168845948,
			"-0.005": 3.3117250542,
			"-0.004": 6.94147427191,
			"-0.003": 10.8469927074,
			"-0.002": 8.66153609159,
			"-0.001": 9.41465541742,
			"0.0": 8.89368484884,
			"0.001": 5.74819578403,
			"0.002": 5.10316229114,
			"0.003": 4.64622439402,
			"0.004": 4.41539577637,
			"0.005": 5.2603344944,
			"0.006": 4.86849257205,
			"0.007": 3.57054853194,
			"0.008": 5.57056824727,
			"0.009": 4.03460208811,
			"0.01": 4.02881056312,
			"0.011": 6.29474139656,
			"0.012": 2.34213972049,
			"0.013": 1.45482177866,
			"0.014": 0.77646389449,
			"0.015": 0.532452534649,
			"0.016": 0.0,
			"0.017": 0.0,
			"0.018": 0.0,
			"0.019": 0.0,
			"0.02": 0.0,
			"0.021": 0.0,
			"0.022": 0.0,
			"0.023": 0.0,
			"0.024": 0.0,
			"0.025": 0.0
		}
	}
}
