{
	 "smiles": "OC(=O)C1=CC2=C(CCCC2)S1", 
	 "Tm": 453.15, 
	 "num_atms": 22, 
	 "gaussian": { 
		 "optdone": 1, 
		 "sigma_profile": "yes", 
		 "theory": "DFT", 
		 "functional": "B3LYP", 
		 "basiset": "6-31G**", 
		 "properties": { 
			 "R2extent": 3024.0568, 
			 "electric_dipole_moment_norm": 6.20523480458, 
			 "electric_quadrupole_moment_norm": 21.7481705941, 
			 "total_energy": -897.632611419, 
			 "HOMO_LUMO_gap": 0.18304, 
			 "cosmo_polarized_energy": -14.95, 
			 "cosmo_cavitation_energy": 26.2, 
			 "cosmo_dispersion_energy": -20.23, 
			 "cosmo_repulsion_energy": 1.57, 
			 "cosmo_total_nonelectrostatic_energy": 7.53, 
			 "SMD_solvation_energy": 4.49 
		},
		"coords": [
			{
				"x": -1.1753923654,
				"y": 1.1039140926,
				"z": -3.8190287567,
				"element": "O" 
			},
			{
				"x": 0.0897138463,
				"y": 1.1438876314,
				"z": -3.3174625128,
				"element": "C" 
			},
			{
				"x": 1.0287952299,
				"y": 1.3435369194,
				"z": -4.0549277184,
				"element": "O" 
			},
			{
				"x": 0.2306179675,
				"y": 0.9320884046,
				"z": -1.8637806769,
				"element": "C" 
			},
			{
				"x": -0.6899170976,
				"y": 0.5511155365,
				"z": -0.9133633864,
				"element": "C" 
			},
			{
				"x": -0.1440308929,
				"y": 0.439763026,
				"z": 0.3975704798,
				"element": "C" 
			},
			{
				"x": 1.2026675147,
				"y": 0.7352982025,
				"z": 0.4225049823,
				"element": "C" 
			},
			{
				"x": 2.0631858104,
				"y": 0.7274501737,
				"z": 1.6574559543,
				"element": "C" 
			},
			{
				"x": 1.3586370077,
				"y": -0.0347607178,
				"z": 2.7957291486,
				"element": "C" 
			},
			{
				"x": -0.1159866978,
				"y": 0.3780703883,
				"z": 2.9164855768,
				"element": "C" 
			},
			{
				"x": -0.9017129774,
				"y": 0.0311574073,
				"z": 1.639642568,
				"element": "C" 
			},
			{
				"x": 1.8081871689,
				"y": 1.1469958002,
				"z": -1.1517631947,
				"element": "S" 
			},
			{
				"x": -1.822711831,
				"y": 1.0347943092,
				"z": -3.1042008713,
				"element": "H" 
			},
			{
				"x": -1.7332225678,
				"y": 0.3327172353,
				"z": -1.1275987549,
				"element": "H" 
			},
			{
				"x": 2.2615219107,
				"y": 1.7620309007,
				"z": 1.97198562,
				"element": "H" 
			},
			{
				"x": 3.0415516843,
				"y": 0.280511122,
				"z": 1.4459716389,
				"element": "H" 
			},
			{
				"x": 1.4188117532,
				"y": -1.113430298,
				"z": 2.6014350783,
				"element": "H" 
			},
			{
				"x": 1.8864855571,
				"y": 0.1476198938,
				"z": 3.7379311458,
				"element": "H" 
			},
			{
				"x": -0.5788675408,
				"y": -0.1108096728,
				"z": 3.7804351384,
				"element": "H" 
			},
			{
				"x": -0.1734059536,
				"y": 1.4596655677,
				"z": 3.0967879174,
				"element": "H" 
			},
			{
				"x": -1.0943544459,
				"y": -1.0510604093,
				"z": 1.6095280121,
				"element": "H" 
			},
			{
				"x": -1.8868730806,
				"y": 0.5131444865,
				"z": 1.6576626116,
				"element": "H" 
			}
		],
		 "valence_orbital": [ 
			{
				"type": "occ",
				"energy": -0.32919,
				"method": "rhf"
			},
			{
				"type": "occ",
				"energy": -0.31134,
				"method": "rhf"
			},
			{
				"type": "occ",
				"energy": -0.27177,
				"method": "rhf"
			},
			{
				"type": "occ",
				"energy": -0.25899,
				"method": "rhf"
			},
			{
				"type": "occ",
				"energy": -0.23738,
				"method": "rhf"
			},
			{
				"type": "unocc",
				"energy": -0.05434,
				"method": "rhf"
			},
			{
				"type": "unocc",
				"energy": 0.02268,
				"method": "rhf"
			},
			{
				"type": "unocc",
				"energy": 0.02915,
				"method": "rhf"
			},
			{
				"type": "unocc",
				"energy": 0.05528,
				"method": "rhf"
			},
			{
				"type": "unocc",
				"energy": 0.07869,
				"method": "rhf"
			}
		],
		"cosmo_sigma_profile": { 
			"-0.025": 0.0,
			"-0.024": 0.0,
			"-0.023": 0.0,
			"-0.022": 0.0,
			"-0.021": 0.0,
			"-0.02": 0.0,
			"-0.019": 0.361668410806,
			"-0.018": 0.957636275546,
			"-0.017": 1.27386628556,
			"-0.016": 0.947674601625,
			"-0.015": 0.864977111067,
			"-0.014": 0.637823667038,
			"-0.013": 1.07623318964,
			"-0.012": 1.43707004853,
			"-0.011": 1.23362330929,
			"-0.01": 1.44919268763,
			"-0.009": 1.05999370171,
			"-0.008": 1.55974360647,
			"-0.007": 1.76797917171,
			"-0.006": 1.6683774728,
			"-0.005": 4.65999536498,
			"-0.004": 13.6912683483,
			"-0.003": 24.3868602859,
			"-0.002": 29.4907452174,
			"-0.001": 24.1816095399,
			"0.0": 17.0358683371,
			"0.001": 10.4748366431,
			"0.002": 12.4297701311,
			"0.003": 15.947706837,
			"0.004": 7.68314375149,
			"0.005": 3.70363628207,
			"0.006": 2.25496776975,
			"0.007": 2.3215862962,
			"0.008": 3.20612399791,
			"0.009": 3.68451439336,
			"0.01": 4.1375474731,
			"0.011": 5.00255149158,
			"0.012": 5.80504494177,
			"0.013": 2.18346383546,
			"0.014": 0.173497017196,
			"0.015": 0.0,
			"0.016": 0.0,
			"0.017": 0.0,
			"0.018": 0.0,
			"0.019": 0.0,
			"0.02": 0.0,
			"0.021": 0.0,
			"0.022": 0.0,
			"0.023": 0.0,
			"0.024": 0.0,
			"0.025": 0.0
		}
	}
}
