{
	 "smiles": "OC(=O)CC1=CC=CS1", 
	 "Tm": 336.15, 
	 "num_atms": 15, 
	 "gaussian": { 
		 "optdone": 1, 
		 "sigma_profile": "yes", 
		 "theory": "DFT", 
		 "functional": "B3LYP", 
		 "basiset": "6-31G**", 
		 "properties": { 
			 "R2extent": 1882.9551, 
			 "electric_dipole_moment_norm": 4.92874079964, 
			 "electric_quadrupole_moment_norm": 6.48843256496, 
			 "total_energy": -780.882014044, 
			 "HOMO_LUMO_gap": 0.21037, 
			 "cosmo_polarized_energy": -12.6, 
			 "cosmo_cavitation_energy": 20.98, 
			 "cosmo_dispersion_energy": -15.84, 
			 "cosmo_repulsion_energy": 1.26, 
			 "cosmo_total_nonelectrostatic_energy": 6.4, 
			 "SMD_solvation_energy": 4.74 
		},
		"coords": [
			{
				"x": 0.4740211582,
				"y": 1.5799456075,
				"z": -0.7650523248,
				"element": "O" 
			},
			{
				"x": 0.9704466839,
				"y": 0.6980464585,
				"z": 0.1280452643,
				"element": "C" 
			},
			{
				"x": 2.131656723,
				"y": 0.3766442515,
				"z": 0.1188282416,
				"element": "O" 
			},
			{
				"x": -0.0194324572,
				"y": 0.1737639727,
				"z": 1.1882798671,
				"element": "C" 
			},
			{
				"x": -1.4746278505,
				"y": 0.2743066873,
				"z": 0.834118095,
				"element": "C" 
			},
			{
				"x": -2.3428549751,
				"y": 1.307914264,
				"z": 1.098823995,
				"element": "C" 
			},
			{
				"x": -3.653936578,
				"y": 1.1015687246,
				"z": 0.5701552591,
				"element": "C" 
			},
			{
				"x": -3.7709538687,
				"y": -0.0871883563,
				"z": -0.0943452383,
				"element": "C" 
			},
			{
				"x": -2.2806124227,
				"y": -0.9736021357,
				"z": -0.0868774839,
				"element": "S" 
			},
			{
				"x": -0.4813947132,
				"y": 1.6822020638,
				"z": -0.6142607865,
				"element": "H" 
			},
			{
				"x": 0.2843622885,
				"y": -0.8509386244,
				"z": 1.4151526796,
				"element": "H" 
			},
			{
				"x": 0.1692557342,
				"y": 0.7588042192,
				"z": 2.0968874767,
				"element": "H" 
			},
			{
				"x": -2.0548945405,
				"y": 2.1823564058,
				"z": 1.6739168341,
				"element": "H" 
			},
			{
				"x": -4.4706377477,
				"y": 1.8043471974,
				"z": 0.6874272691,
				"element": "H" 
			},
			{
				"x": -4.6421974342,
				"y": -0.500270736,
				"z": -0.5834991481,
				"element": "H" 
			}
		],
		 "valence_orbital": [ 
			{
				"type": "occ",
				"energy": -0.35831,
				"method": "rhf"
			},
			{
				"type": "occ",
				"energy": -0.31191,
				"method": "rhf"
			},
			{
				"type": "occ",
				"energy": -0.28078,
				"method": "rhf"
			},
			{
				"type": "occ",
				"energy": -0.27089,
				"method": "rhf"
			},
			{
				"type": "occ",
				"energy": -0.24508,
				"method": "rhf"
			},
			{
				"type": "unocc",
				"energy": -0.03471,
				"method": "rhf"
			},
			{
				"type": "unocc",
				"energy": 0.00777,
				"method": "rhf"
			},
			{
				"type": "unocc",
				"energy": 0.01368,
				"method": "rhf"
			},
			{
				"type": "unocc",
				"energy": 0.04397,
				"method": "rhf"
			},
			{
				"type": "unocc",
				"energy": 0.07712,
				"method": "rhf"
			}
		],
		"cosmo_sigma_profile": { 
			"-0.025": 0.0,
			"-0.024": 0.0,
			"-0.023": 0.0,
			"-0.022": 0.0,
			"-0.021": 0.0,
			"-0.02": 0.0,
			"-0.019": 0.0,
			"-0.018": 0.0,
			"-0.017": 0.0,
			"-0.016": 0.0,
			"-0.015": 0.0,
			"-0.014": 0.111948679581,
			"-0.013": 0.642076738818,
			"-0.012": 0.350768232435,
			"-0.011": 0.479563755201,
			"-0.01": 2.04957779611,
			"-0.009": 2.56822734822,
			"-0.008": 8.06096681092,
			"-0.007": 12.2727421598,
			"-0.006": 11.2680132668,
			"-0.005": 10.9681141746,
			"-0.004": 10.4841709398,
			"-0.003": 9.47121232545,
			"-0.002": 8.01737003609,
			"-0.001": 7.76288556612,
			"0.0": 8.04950865786,
			"0.001": 8.88016004477,
			"0.002": 10.7017458478,
			"0.003": 11.7230656752,
			"0.004": 11.0284335244,
			"0.005": 6.40737362788,
			"0.006": 2.78869514323,
			"0.007": 1.64086131841,
			"0.008": 2.73713626267,
			"0.009": 3.54662170648,
			"0.01": 4.62223945896,
			"0.011": 5.17151619082,
			"0.012": 5.54330803527,
			"0.013": 2.41806182821,
			"0.014": 0.0824463380222,
			"0.015": 0.0,
			"0.016": 0.0,
			"0.017": 0.0,
			"0.018": 0.0,
			"0.019": 0.0,
			"0.02": 0.0,
			"0.021": 0.0,
			"0.022": 0.0,
			"0.023": 0.0,
			"0.024": 0.0,
			"0.025": 0.0
		}
	}
}
