{
	 "smiles": "CC(C)C(Br)C(=O)N(C)C1CCCCC1", 
	 "Tm": 346.15, 
	 "num_atms": 37, 
	 "gaussian": { 
		 "optdone": 1, 
		 "sigma_profile": "yes", 
		 "theory": "DFT", 
		 "functional": "B3LYP", 
		 "basiset": "6-31G**", 
		 "properties": { 
			 "R2extent": 5220.8434, 
			 "electric_dipole_moment_norm": 3.6330190283, 
			 "electric_quadrupole_moment_norm": 9.64896971288, 
			 "total_energy": -3171.94656414, 
			 "HOMO_LUMO_gap": 0.20785, 
			 "cosmo_polarized_energy": -9.2, 
			 "cosmo_cavitation_energy": 37.45, 
			 "cosmo_dispersion_energy": -25.99, 
			 "cosmo_repulsion_energy": 2.03, 
			 "cosmo_total_nonelectrostatic_energy": 13.49, 
			 "SMD_solvation_energy": 5.1 
		},
		"coords": [
			{
				"x": 4.6051152139,
				"y": 1.2177612656,
				"z": 0.2669674158,
				"element": "C" 
			},
			{
				"x": 3.3488965986,
				"y": 1.4486099493,
				"z": -0.584641755,
				"element": "C" 
			},
			{
				"x": 3.1834105051,
				"y": 2.9345035481,
				"z": -0.9366890983,
				"element": "C" 
			},
			{
				"x": 2.0435988674,
				"y": 0.8827985242,
				"z": 0.0000505423,
				"element": "C" 
			},
			{
				"x": 1.7371773907,
				"y": 1.52604482,
				"z": 1.8872330929,
				"element": "Br" 
			},
			{
				"x": 1.9625327548,
				"y": -0.6526508841,
				"z": -0.0031572504,
				"element": "C" 
			},
			{
				"x": 2.9909230961,
				"y": -1.321315031,
				"z": -0.0857338194,
				"element": "O" 
			},
			{
				"x": 0.7243472554,
				"y": -1.2436084015,
				"z": 0.0194302033,
				"element": "N" 
			},
			{
				"x": 0.7089959819,
				"y": -2.7063372182,
				"z": -0.0309061641,
				"element": "C" 
			},
			{
				"x": -0.5643846153,
				"y": -0.5503138462,
				"z": 0.192182329,
				"element": "C" 
			},
			{
				"x": -1.4069104159,
				"y": -0.5623259995,
				"z": -1.1121130929,
				"element": "C" 
			},
			{
				"x": -2.9194749038,
				"y": -0.4003555272,
				"z": -0.8365448292,
				"element": "C" 
			},
			{
				"x": -3.1660414368,
				"y": 0.477480652,
				"z": 0.3974804577,
				"element": "C" 
			},
			{
				"x": -2.5841649753,
				"y": -0.1765278014,
				"z": 1.675990469,
				"element": "C" 
			},
			{
				"x": -1.3769661798,
				"y": -1.0986366249,
				"z": 1.3789631362,
				"element": "C" 
			},
			{
				"x": 5.487073751,
				"y": 1.5613128757,
				"z": -0.2839261155,
				"element": "H" 
			},
			{
				"x": 4.5506071459,
				"y": 1.7853707468,
				"z": 1.2008531035,
				"element": "H" 
			},
			{
				"x": 4.727029726,
				"y": 0.1606983268,
				"z": 0.5009450901,
				"element": "H" 
			},
			{
				"x": 3.476424803,
				"y": 0.8849833083,
				"z": -1.5205808206,
				"element": "H" 
			},
			{
				"x": 4.0872431799,
				"y": 3.3116379091,
				"z": -1.425081018,
				"element": "H" 
			},
			{
				"x": 2.3407256758,
				"y": 3.1021309357,
				"z": -1.6174695417,
				"element": "H" 
			},
			{
				"x": 3.0144997836,
				"y": 3.5333683235,
				"z": -0.035769679,
				"element": "H" 
			},
			{
				"x": 1.1989870848,
				"y": 1.316006455,
				"z": -0.5358370697,
				"element": "H" 
			},
			{
				"x": -0.2097442303,
				"y": -3.0496317693,
				"z": -0.5110217106,
				"element": "H" 
			},
			{
				"x": 1.5710249644,
				"y": -3.0500394521,
				"z": -0.6007778673,
				"element": "H" 
			},
			{
				"x": 0.7653441694,
				"y": -3.1456281865,
				"z": 0.9721385857,
				"element": "H" 
			},
			{
				"x": -0.3363003825,
				"y": 0.4834235071,
				"z": 0.4477958652,
				"element": "H" 
			},
			{
				"x": -1.0519690305,
				"y": 0.2452088097,
				"z": -1.7643906777,
				"element": "H" 
			},
			{
				"x": -1.229345951,
				"y": -1.493942016,
				"z": -1.6601713247,
				"element": "H" 
			},
			{
				"x": -3.3742352682,
				"y": -1.3855126399,
				"z": -0.6702156048,
				"element": "H" 
			},
			{
				"x": -3.415977491,
				"y": 0.0187232697,
				"z": -1.7185658949,
				"element": "H" 
			},
			{
				"x": -2.6998142492,
				"y": 1.4580190648,
				"z": 0.2335743958,
				"element": "H" 
			},
			{
				"x": -4.2365894438,
				"y": 0.6698692455,
				"z": 0.526630992,
				"element": "H" 
			},
			{
				"x": -2.2821685372,
				"y": 0.6067094661,
				"z": 2.3801409969,
				"element": "H" 
			},
			{
				"x": -3.3596525391,
				"y": -0.7631055694,
				"z": 2.1813786732,
				"element": "H" 
			},
			{
				"x": -1.7274015599,
				"y": -2.1122176478,
				"z": 1.1513622033,
				"element": "H" 
			},
			{
				"x": -0.7321167382,
				"y": -1.175812388,
				"z": 2.260075782,
				"element": "H" 
			}
		],
		 "valence_orbital": [ 
			{
				"type": "occ",
				"energy": -0.30936,
				"method": "rhf"
			},
			{
				"type": "occ",
				"energy": -0.28241,
				"method": "rhf"
			},
			{
				"type": "occ",
				"energy": -0.27414,
				"method": "rhf"
			},
			{
				"type": "occ",
				"energy": -0.24556,
				"method": "rhf"
			},
			{
				"type": "occ",
				"energy": -0.23724,
				"method": "rhf"
			},
			{
				"type": "unocc",
				"energy": -0.02939,
				"method": "rhf"
			},
			{
				"type": "unocc",
				"energy": 0.04859,
				"method": "rhf"
			},
			{
				"type": "unocc",
				"energy": 0.06705,
				"method": "rhf"
			},
			{
				"type": "unocc",
				"energy": 0.08188,
				"method": "rhf"
			},
			{
				"type": "unocc",
				"energy": 0.09784,
				"method": "rhf"
			}
		],
		"cosmo_sigma_profile": { 
			"-0.025": 0.0,
			"-0.024": 0.0,
			"-0.023": 0.0,
			"-0.022": 0.0,
			"-0.021": 0.0,
			"-0.02": 0.0,
			"-0.019": 0.0,
			"-0.018": 0.0,
			"-0.017": 0.0,
			"-0.016": 0.0,
			"-0.015": 0.0,
			"-0.014": 0.0,
			"-0.013": 0.0,
			"-0.012": 0.0,
			"-0.011": 0.0,
			"-0.01": 0.0,
			"-0.009": 0.0,
			"-0.008": 0.699536511171,
			"-0.007": 3.2255911637,
			"-0.006": 4.72066652859,
			"-0.005": 8.73110263793,
			"-0.004": 13.2395778624,
			"-0.003": 28.3491619548,
			"-0.002": 43.6973558256,
			"-0.001": 45.7552975842,
			"0.0": 40.2944092462,
			"0.001": 38.1039464069,
			"0.002": 17.3828447189,
			"0.003": 10.0017940466,
			"0.004": 10.3052216259,
			"0.005": 8.23965309803,
			"0.006": 4.51513884449,
			"0.007": 1.9738445637,
			"0.008": 1.47572874841,
			"0.009": 1.84315835931,
			"0.01": 1.60385079744,
			"0.011": 1.63310131285,
			"0.012": 1.97718506317,
			"0.013": 3.20957041888,
			"0.014": 1.46657663674,
			"0.015": 0.0,
			"0.016": 0.0,
			"0.017": 0.0,
			"0.018": 0.0,
			"0.019": 0.0,
			"0.02": 0.0,
			"0.021": 0.0,
			"0.022": 0.0,
			"0.023": 0.0,
			"0.024": 0.0,
			"0.025": 0.0
		}
	}
}
