{
	 "smiles": "FC1=CC=C(C=C1)C1=CC=CC=C1", 
	 "Tm": 347.25, 
	 "num_atms": 22, 
	 "gaussian": { 
		 "optdone": 1, 
		 "sigma_profile": "yes", 
		 "theory": "DFT", 
		 "functional": "B3LYP", 
		 "basiset": "6-31G**", 
		 "properties": { 
			 "R2extent": 3601.6325, 
			 "electric_dipole_moment_norm": 1.38836341424, 
			 "electric_quadrupole_moment_norm": 6.86583295165, 
			 "total_energy": -562.542921153, 
			 "HOMO_LUMO_gap": 0.19594, 
			 "cosmo_polarized_energy": -5.02, 
			 "cosmo_cavitation_energy": 26.46, 
			 "cosmo_dispersion_energy": -19.36, 
			 "cosmo_repulsion_energy": 1.48, 
			 "cosmo_total_nonelectrostatic_energy": 8.59, 
			 "SMD_solvation_energy": 4.83 
		},
		"coords": [
			{
				"x": -0.4083235965,
				"y": 4.6653818554,
				"z": 2.8051575861,
				"element": "F" 
			},
			{
				"x": -0.516446387,
				"y": 3.4318193753,
				"z": 2.2676768022,
				"element": "C" 
			},
			{
				"x": -0.3086386027,
				"y": 2.3206865378,
				"z": 3.0765751404,
				"element": "C" 
			},
			{
				"x": -0.4233806441,
				"y": 1.0510155994,
				"z": 2.5137237855,
				"element": "C" 
			},
			{
				"x": -0.7402675696,
				"y": 0.878279455,
				"z": 1.1550023267,
				"element": "C" 
			},
			{
				"x": -0.9411508385,
				"y": 2.0291709066,
				"z": 0.3730300979,
				"element": "C" 
			},
			{
				"x": -0.832648099,
				"y": 3.3063288021,
				"z": 0.919948167,
				"element": "C" 
			},
			{
				"x": -0.8592456989,
				"y": -0.4790198973,
				"z": 0.5635454467,
				"element": "C" 
			},
			{
				"x": -1.8483432486,
				"y": -0.7663761243,
				"z": -0.392702828,
				"element": "C" 
			},
			{
				"x": -1.9590859108,
				"y": -2.0398645223,
				"z": -0.9493243695,
				"element": "C" 
			},
			{
				"x": -1.0851393926,
				"y": -3.0565154662,
				"z": -0.5596648264,
				"element": "C" 
			},
			{
				"x": -0.0984444497,
				"y": -2.7868188953,
				"z": 0.3905311259,
				"element": "C" 
			},
			{
				"x": 0.0141362871,
				"y": -1.5122422488,
				"z": 0.9442839402,
				"element": "C" 
			},
			{
				"x": -0.0734162803,
				"y": 2.4582396727,
				"z": 4.1265017007,
				"element": "H" 
			},
			{
				"x": -0.2888790515,
				"y": 0.1786910043,
				"z": 3.1458165842,
				"element": "H" 
			},
			{
				"x": -1.1613427022,
				"y": 1.9243160785,
				"z": -0.6848492014,
				"element": "H" 
			},
			{
				"x": -0.9777356503,
				"y": 4.1969855902,
				"z": 0.3180609946,
				"element": "H" 
			},
			{
				"x": -2.5519882295,
				"y": 0.0088201359,
				"z": -0.6819609286,
				"element": "H" 
			},
			{
				"x": -2.7362106957,
				"y": -2.2406226394,
				"z": -1.6815090601,
				"element": "H" 
			},
			{
				"x": -1.1721275416,
				"y": -4.0489884538,
				"z": -0.9921674709,
				"element": "H" 
			},
			{
				"x": 0.5926408537,
				"y": -3.5679284411,
				"z": 0.6948161127,
				"element": "H" 
			},
			{
				"x": 0.8038374481,
				"y": -1.3063583248,
				"z": 1.6610088742,
				"element": "H" 
			}
		],
		 "valence_orbital": [ 
			{
				"type": "occ",
				"energy": -0.33604,
				"method": "rhf"
			},
			{
				"type": "occ",
				"energy": -0.27118,
				"method": "rhf"
			},
			{
				"type": "occ",
				"energy": -0.2609,
				"method": "rhf"
			},
			{
				"type": "occ",
				"energy": -0.2521,
				"method": "rhf"
			},
			{
				"type": "occ",
				"energy": -0.22272,
				"method": "rhf"
			},
			{
				"type": "unocc",
				"energy": -0.02678,
				"method": "rhf"
			},
			{
				"type": "unocc",
				"energy": -0.01242,
				"method": "rhf"
			},
			{
				"type": "unocc",
				"energy": -0.00331,
				"method": "rhf"
			},
			{
				"type": "unocc",
				"energy": 0.03,
				"method": "rhf"
			},
			{
				"type": "unocc",
				"energy": 0.09096,
				"method": "rhf"
			}
		],
		"cosmo_sigma_profile": { 
			"-0.025": 0.0,
			"-0.024": 0.0,
			"-0.023": 0.0,
			"-0.022": 0.0,
			"-0.021": 0.0,
			"-0.02": 0.0,
			"-0.019": 0.0,
			"-0.018": 0.0,
			"-0.017": 0.0,
			"-0.016": 0.0,
			"-0.015": 0.0,
			"-0.014": 0.0,
			"-0.013": 0.0,
			"-0.012": 0.0,
			"-0.011": 0.0,
			"-0.01": 0.0,
			"-0.009": 0.0,
			"-0.008": 0.191159844865,
			"-0.007": 3.11217016947,
			"-0.006": 11.3397532588,
			"-0.005": 18.8628669686,
			"-0.004": 18.9967325816,
			"-0.003": 15.3663080795,
			"-0.002": 12.9186878552,
			"-0.001": 13.4183659732,
			"0.0": 11.4042749861,
			"0.001": 18.5757801468,
			"0.002": 18.0371130051,
			"0.003": 20.927094232,
			"0.004": 28.0870219938,
			"0.005": 15.165333963,
			"0.006": 6.49905640805,
			"0.007": 0.015500930813,
			"0.008": 0.0,
			"0.009": 0.0,
			"0.01": 0.0,
			"0.011": 0.0,
			"0.012": 0.0,
			"0.013": 0.0,
			"0.014": 0.0,
			"0.015": 0.0,
			"0.016": 0.0,
			"0.017": 0.0,
			"0.018": 0.0,
			"0.019": 0.0,
			"0.02": 0.0,
			"0.021": 0.0,
			"0.022": 0.0,
			"0.023": 0.0,
			"0.024": 0.0,
			"0.025": 0.0
		}
	}
}
