{
	 "smiles": "OC(=O)C1=C(Br)C(=NN1)C1=CC=CC=C1", 
	 "Tm": 534.15, 
	 "num_atms": 22, 
	 "gaussian": { 
		 "optdone": 1, 
		 "sigma_profile": "yes", 
		 "theory": "DFT", 
		 "functional": "B3LYP", 
		 "basiset": "6-31G**", 
		 "properties": { 
			 "R2extent": 5447.4318, 
			 "electric_dipole_moment_norm": 3.22569631863, 
			 "electric_quadrupole_moment_norm": 13.4991077201, 
			 "total_energy": -3216.62918185, 
			 "HOMO_LUMO_gap": 0.18166, 
			 "cosmo_polarized_energy": -12.93, 
			 "cosmo_cavitation_energy": 29.12, 
			 "cosmo_dispersion_energy": -22.06, 
			 "cosmo_repulsion_energy": 1.7, 
			 "cosmo_total_nonelectrostatic_energy": 8.76, 
			 "SMD_solvation_energy": 4.24 
		},
		"coords": [
			{
				"x": 1.3103219039,
				"y": 3.5096500966,
				"z": -3.3087015269,
				"element": "O" 
			},
			{
				"x": 2.1758121325,
				"y": 2.5159723603,
				"z": -3.0519276071,
				"element": "C" 
			},
			{
				"x": 3.33932836,
				"y": 2.5803605269,
				"z": -3.3885674814,
				"element": "O" 
			},
			{
				"x": 1.6686374666,
				"y": 1.3198567511,
				"z": -2.3379676762,
				"element": "C" 
			},
			{
				"x": 0.4594219831,
				"y": 0.874182426,
				"z": -1.8121763223,
				"element": "C" 
			},
			{
				"x": -1.1450316996,
				"y": 1.8737318793,
				"z": -1.8142934287,
				"element": "Br" 
			},
			{
				"x": 0.7113479938,
				"y": -0.4043891784,
				"z": -1.247041748,
				"element": "C" 
			},
			{
				"x": 2.0092238688,
				"y": -0.7127800701,
				"z": -1.4248173012,
				"element": "N" 
			},
			{
				"x": 2.5474723559,
				"y": 0.3222009222,
				"z": -2.0684099697,
				"element": "N" 
			},
			{
				"x": -0.1728800365,
				"y": -1.344553562,
				"z": -0.5344515774,
				"element": "C" 
			},
			{
				"x": -1.5434635136,
				"y": -1.4417479666,
				"z": -0.8207122717,
				"element": "C" 
			},
			{
				"x": -2.3449320763,
				"y": -2.3543773585,
				"z": -0.1350069224,
				"element": "C" 
			},
			{
				"x": -1.7913836052,
				"y": -3.1850214195,
				"z": 0.839928384,
				"element": "C" 
			},
			{
				"x": -0.4259892677,
				"y": -3.1018888603,
				"z": 1.1237319322,
				"element": "C" 
			},
			{
				"x": 0.3773606967,
				"y": -2.189962611,
				"z": 0.4442310815,
				"element": "C" 
			},
			{
				"x": 0.4222795482,
				"y": 3.3023678681,
				"z": -2.9663888914,
				"element": "H" 
			},
			{
				"x": 3.52286756,
				"y": 0.3324088157,
				"z": -2.336320636,
				"element": "H" 
			},
			{
				"x": -1.9837091387,
				"y": -0.8194798279,
				"z": -1.5913251934,
				"element": "H" 
			},
			{
				"x": -3.4031592199,
				"y": -2.4202608052,
				"z": -0.3705044381,
				"element": "H" 
			},
			{
				"x": -2.4180983712,
				"y": -3.8939406293,
				"z": 1.3731341876,
				"element": "H" 
			},
			{
				"x": 0.0137390878,
				"y": -3.7462056213,
				"z": 1.8795156847,
				"element": "H" 
			},
			{
				"x": 1.4376339715,
				"y": -2.1209237361,
				"z": 0.6623717216,
				"element": "H" 
			}
		],
		 "valence_orbital": [ 
			{
				"type": "occ",
				"energy": -0.30161,
				"method": "rhf"
			},
			{
				"type": "occ",
				"energy": -0.29444,
				"method": "rhf"
			},
			{
				"type": "occ",
				"energy": -0.26967,
				"method": "rhf"
			},
			{
				"type": "occ",
				"energy": -0.25809,
				"method": "rhf"
			},
			{
				"type": "occ",
				"energy": -0.24055,
				"method": "rhf"
			},
			{
				"type": "unocc",
				"energy": -0.05889,
				"method": "rhf"
			},
			{
				"type": "unocc",
				"energy": -0.03296,
				"method": "rhf"
			},
			{
				"type": "unocc",
				"energy": -0.01716,
				"method": "rhf"
			},
			{
				"type": "unocc",
				"energy": -0.00821,
				"method": "rhf"
			},
			{
				"type": "unocc",
				"energy": 0.04727,
				"method": "rhf"
			}
		],
		"cosmo_sigma_profile": { 
			"-0.025": 0.0,
			"-0.024": 0.0,
			"-0.023": 0.0,
			"-0.022": 0.0,
			"-0.021": 0.0,
			"-0.02": 0.0,
			"-0.019": 0.0,
			"-0.018": 0.119836611139,
			"-0.017": 0.667097535749,
			"-0.016": 1.14577247633,
			"-0.015": 0.673821550729,
			"-0.014": 0.162626091113,
			"-0.013": 0.996436863556,
			"-0.012": 1.73888952757,
			"-0.011": 2.0477432111,
			"-0.01": 2.62087433863,
			"-0.009": 3.11267728119,
			"-0.008": 2.78723467223,
			"-0.007": 2.84226514887,
			"-0.006": 9.56328300578,
			"-0.005": 16.2895558565,
			"-0.004": 19.0808196929,
			"-0.003": 15.355620964,
			"-0.002": 15.2222837566,
			"-0.001": 17.8190704598,
			"0.0": 18.529452431,
			"0.001": 16.2776796681,
			"0.002": 18.118145325,
			"0.003": 12.9260347022,
			"0.004": 14.0144751046,
			"0.005": 14.1771276136,
			"0.006": 4.40537269271,
			"0.007": 4.0394046621,
			"0.008": 4.23094216821,
			"0.009": 4.79906231122,
			"0.01": 5.90093394464,
			"0.011": 4.77393249907,
			"0.012": 2.78086238986,
			"0.013": 0.687775510956,
			"0.014": 0.0,
			"0.015": 0.0,
			"0.016": 0.0,
			"0.017": 0.0,
			"0.018": 0.0,
			"0.019": 0.0,
			"0.02": 0.0,
			"0.021": 0.0,
			"0.022": 0.0,
			"0.023": 0.0,
			"0.024": 0.0,
			"0.025": 0.0
		}
	}
}
