{
	 "smiles": "CC1CC(=O)C=C2CCC(CC12C)=C(C)C", 
	 "Tm": 324.65, 
	 "num_atms": 38, 
	 "gaussian": { 
		 "optdone": 1, 
		 "sigma_profile": "yes", 
		 "theory": "DFT", 
		 "functional": "B3LYP", 
		 "basiset": "6-31G**", 
		 "properties": { 
			 "R2extent": 4037.3028, 
			 "electric_dipole_moment_norm": 4.42397010953, 
			 "electric_quadrupole_moment_norm": 12.7949720523, 
			 "total_energy": -660.073966513, 
			 "HOMO_LUMO_gap": 0.18411, 
			 "cosmo_polarized_energy": -9.83, 
			 "cosmo_cavitation_energy": 36.09, 
			 "cosmo_dispersion_energy": -25.0, 
			 "cosmo_repulsion_energy": 1.92, 
			 "cosmo_total_nonelectrostatic_energy": 13.02, 
			 "SMD_solvation_energy": 6.39 
		},
		"coords": [
			{
				"x": -0.7612643458,
				"y": 1.7501837577,
				"z": 1.9147669623,
				"element": "C" 
			},
			{
				"x": -0.6752146646,
				"y": 0.71139233,
				"z": 0.7860127012,
				"element": "C" 
			},
			{
				"x": -1.6041674595,
				"y": 1.1349054052,
				"z": -0.367799758,
				"element": "C" 
			},
			{
				"x": -1.5732334549,
				"y": 0.2132509014,
				"z": -1.5789106717,
				"element": "C" 
			},
			{
				"x": -2.5110948678,
				"y": 0.1553020294,
				"z": -2.3641247384,
				"element": "O" 
			},
			{
				"x": -0.3614310309,
				"y": -0.6006479088,
				"z": -1.7531239983,
				"element": "C" 
			},
			{
				"x": 0.6930253325,
				"y": -0.545323548,
				"z": -0.915628911,
				"element": "C" 
			},
			{
				"x": 1.8489769969,
				"y": -1.5001836968,
				"z": -1.0304969569,
				"element": "C" 
			},
			{
				"x": 1.7976798348,
				"y": -2.4797649787,
				"z": 0.170978761,
				"element": "C" 
			},
			{
				"x": 1.4368939335,
				"y": -1.7664665884,
				"z": 1.475138321,
				"element": "C" 
			},
			{
				"x": 1.6382413467,
				"y": -0.2680411497,
				"z": 1.3870538724,
				"element": "C" 
			},
			{
				"x": 0.7704173971,
				"y": 0.4133944192,
				"z": 0.2739078694,
				"element": "C" 
			},
			{
				"x": 1.4963429266,
				"y": 1.7041905987,
				"z": -0.1819068687,
				"element": "C" 
			},
			{
				"x": 1.011166115,
				"y": -2.4274888239,
				"z": 2.5708964422,
				"element": "C" 
			},
			{
				"x": 0.644440927,
				"y": -1.7758136087,
				"z": 3.8849915159,
				"element": "C" 
			},
			{
				"x": 0.8756633831,
				"y": -3.9335186252,
				"z": 2.6203213507,
				"element": "C" 
			},
			{
				"x": -1.7966042672,
				"y": 1.8357401214,
				"z": 2.2612102215,
				"element": "H" 
			},
			{
				"x": -0.4500358402,
				"y": 2.7440543731,
				"z": 1.5757215578,
				"element": "H" 
			},
			{
				"x": -0.1515370566,
				"y": 1.4862921454,
				"z": 2.7836106164,
				"element": "H" 
			},
			{
				"x": -1.0520029116,
				"y": -0.2435824454,
				"z": 1.1787273851,
				"element": "H" 
			},
			{
				"x": -1.33528386,
				"y": 2.1417346963,
				"z": -0.718867443,
				"element": "H" 
			},
			{
				"x": -2.6436272805,
				"y": 1.2046309035,
				"z": -0.0309640095,
				"element": "H" 
			},
			{
				"x": -0.3725805482,
				"y": -1.2886742701,
				"z": -2.5956249378,
				"element": "H" 
			},
			{
				"x": 1.8129529761,
				"y": -2.0544368902,
				"z": -1.9726581656,
				"element": "H" 
			},
			{
				"x": 2.7976124184,
				"y": -0.9482804166,
				"z": -1.0181722253,
				"element": "H" 
			},
			{
				"x": 2.7675672976,
				"y": -2.9891510348,
				"z": 0.2600531644,
				"element": "H" 
			},
			{
				"x": 1.0585501532,
				"y": -3.2537555126,
				"z": -0.0567709833,
				"element": "H" 
			},
			{
				"x": 1.46671341,
				"y": 0.2326476517,
				"z": 2.3391364926,
				"element": "H" 
			},
			{
				"x": 2.6953533413,
				"y": -0.0819946423,
				"z": 1.1487194994,
				"element": "H" 
			},
			{
				"x": 1.7046976128,
				"y": 2.3559785466,
				"z": 0.6726055805,
				"element": "H" 
			},
			{
				"x": 2.4557279268,
				"y": 1.4627639689,
				"z": -0.6509003598,
				"element": "H" 
			},
			{
				"x": 0.909220688,
				"y": 2.2699830619,
				"z": -0.91026658,
				"element": "H" 
			},
			{
				"x": 0.6745897338,
				"y": -0.6861835189,
				"z": 3.8669515857,
				"element": "H" 
			},
			{
				"x": -0.3673415482,
				"y": -2.0745527989,
				"z": 4.1889513543,
				"element": "H" 
			},
			{
				"x": 1.3170113965,
				"y": -2.1140116573,
				"z": 4.6848752289,
				"element": "H" 
			},
			{
				"x": 1.1607127381,
				"y": -4.4327874529,
				"z": 1.6938660296,
				"element": "H" 
			},
			{
				"x": -0.1568500872,
				"y": -4.2234520603,
				"z": 2.8567526679,
				"element": "H" 
			},
			{
				"x": 1.5012113372,
				"y": -4.3460332818,
				"z": 3.4232674273,
				"element": "H" 
			}
		],
		 "valence_orbital": [ 
			{
				"type": "occ",
				"energy": -0.31464,
				"method": "rhf"
			},
			{
				"type": "occ",
				"energy": -0.3024,
				"method": "rhf"
			},
			{
				"type": "occ",
				"energy": -0.2528,
				"method": "rhf"
			},
			{
				"type": "occ",
				"energy": -0.22769,
				"method": "rhf"
			},
			{
				"type": "occ",
				"energy": -0.22549,
				"method": "rhf"
			},
			{
				"type": "unocc",
				"energy": -0.04138,
				"method": "rhf"
			},
			{
				"type": "unocc",
				"energy": 0.02026,
				"method": "rhf"
			},
			{
				"type": "unocc",
				"energy": 0.06435,
				"method": "rhf"
			},
			{
				"type": "unocc",
				"energy": 0.07361,
				"method": "rhf"
			},
			{
				"type": "unocc",
				"energy": 0.08842,
				"method": "rhf"
			}
		],
		"cosmo_sigma_profile": { 
			"-0.025": 0.0,
			"-0.024": 0.0,
			"-0.023": 0.0,
			"-0.022": 0.0,
			"-0.021": 0.0,
			"-0.02": 0.0,
			"-0.019": 0.0,
			"-0.018": 0.0,
			"-0.017": 0.0,
			"-0.016": 0.0,
			"-0.015": 0.0,
			"-0.014": 0.0,
			"-0.013": 0.0,
			"-0.012": 0.0,
			"-0.011": 0.0,
			"-0.01": 0.0,
			"-0.009": 0.0,
			"-0.008": 0.0,
			"-0.007": 0.00015508092813,
			"-0.006": 1.14527877149,
			"-0.005": 9.02995840947,
			"-0.004": 20.0881743678,
			"-0.003": 38.983343433,
			"-0.002": 43.5109771676,
			"-0.001": 41.1966918581,
			"0.0": 37.1262149034,
			"0.001": 33.0968239804,
			"0.002": 15.6027547218,
			"0.003": 8.66067563317,
			"0.004": 5.47027099117,
			"0.005": 3.26260410617,
			"0.006": 2.20781477694,
			"0.007": 2.10899753783,
			"0.008": 1.288654102,
			"0.009": 1.20308798514,
			"0.01": 2.08137069963,
			"0.011": 1.80965819566,
			"0.012": 2.71312215745,
			"0.013": 5.04121091191,
			"0.014": 3.51301600602,
			"0.015": 0.734021431037,
			"0.016": 0.0,
			"0.017": 0.0,
			"0.018": 0.0,
			"0.019": 0.0,
			"0.02": 0.0,
			"0.021": 0.0,
			"0.022": 0.0,
			"0.023": 0.0,
			"0.024": 0.0,
			"0.025": 0.0
		}
	}
}
