{
	 "smiles": "CC(=O)OC1=CC=C2C=C(C=CC2=C1)C(O)=O", 
	 "Tm": 494.15, 
	 "num_atms": 27, 
	 "gaussian": { 
		 "optdone": 1, 
		 "sigma_profile": "yes", 
		 "theory": "DFT", 
		 "functional": "B3LYP", 
		 "basiset": "6-31G**", 
		 "properties": { 
			 "R2extent": 6312.0636, 
			 "electric_dipole_moment_norm": 5.30877780002, 
			 "electric_quadrupole_moment_norm": 23.5753323169, 
			 "total_energy": -802.335502375, 
			 "HOMO_LUMO_gap": 0.16688, 
			 "cosmo_polarized_energy": -18.49, 
			 "cosmo_cavitation_energy": 32.56, 
			 "cosmo_dispersion_energy": -23.72, 
			 "cosmo_repulsion_energy": 1.82, 
			 "cosmo_total_nonelectrostatic_energy": 10.66, 
			 "SMD_solvation_energy": 7.72 
		},
		"coords": [
			{
				"x": -1.4020129888,
				"y": -5.8885149681,
				"z": 2.6529463835,
				"element": "C" 
			},
			{
				"x": -0.552619161,
				"y": -4.7901603111,
				"z": 2.0660150494,
				"element": "C" 
			},
			{
				"x": 0.6237068963,
				"y": -4.8559549083,
				"z": 1.8115399916,
				"element": "O" 
			},
			{
				"x": -1.3250592477,
				"y": -3.6713008803,
				"z": 1.861691226,
				"element": "O" 
			},
			{
				"x": -0.7720463231,
				"y": -2.5141749586,
				"z": 1.3186547843,
				"element": "C" 
			},
			{
				"x": 0.0277603623,
				"y": -2.5456922569,
				"z": 0.1499184495,
				"element": "C" 
			},
			{
				"x": 0.477880677,
				"y": -1.3615946034,
				"z": -0.384638714,
				"element": "C" 
			},
			{
				"x": 0.1558147718,
				"y": -0.1117657551,
				"z": 0.210025564,
				"element": "C" 
			},
			{
				"x": 0.6160893163,
				"y": 1.1198483695,
				"z": -0.3208721177,
				"element": "C" 
			},
			{
				"x": 0.2826888996,
				"y": 2.3243646803,
				"z": 0.2718483717,
				"element": "C" 
			},
			{
				"x": -0.5566912205,
				"y": 2.3340710153,
				"z": 1.4196644725,
				"element": "C" 
			},
			{
				"x": -1.008044143,
				"y": 1.1575028774,
				"z": 1.9635905621,
				"element": "C" 
			},
			{
				"x": -0.666311082,
				"y": -0.0960372881,
				"z": 1.3831824388,
				"element": "C" 
			},
			{
				"x": -1.1169672836,
				"y": -1.327116397,
				"z": 1.9218477104,
				"element": "C" 
			},
			{
				"x": 0.7231589077,
				"y": 3.6493993307,
				"z": -0.2710711635,
				"element": "C" 
			},
			{
				"x": 1.8222386185,
				"y": 3.6501238782,
				"z": -1.0735136169,
				"element": "O" 
			},
			{
				"x": 0.1513511179,
				"y": 4.6865822962,
				"z": -0.0291363575,
				"element": "O" 
			},
			{
				"x": -1.8285976515,
				"y": -5.5627032253,
				"z": 3.6061692643,
				"element": "H" 
			},
			{
				"x": -2.2368617805,
				"y": -6.1153558213,
				"z": 1.9834461735,
				"element": "H" 
			},
			{
				"x": -0.7896633412,
				"y": -6.7768100783,
				"z": 2.8028526986,
				"element": "H" 
			},
			{
				"x": 0.2836050696,
				"y": -3.494211473,
				"z": -0.3032933427,
				"element": "H" 
			},
			{
				"x": 1.0935512466,
				"y": -1.3747526687,
				"z": -1.2799360555,
				"element": "H" 
			},
			{
				"x": 1.2075748126,
				"y": 1.0875362872,
				"z": -1.2337686685,
				"element": "H" 
			},
			{
				"x": -0.8239046173,
				"y": 3.2943332217,
				"z": 1.8465340685,
				"element": "H" 
			},
			{
				"x": -1.6398053698,
				"y": 1.1701573134,
				"z": 2.8475075967,
				"element": "H" 
			},
			{
				"x": -1.74252056,
				"y": -1.3405008922,
				"z": 2.8086018563,
				"element": "H" 
			},
			{
				"x": 2.2657840736,
				"y": 2.7919272157,
				"z": -1.0271066253,
				"element": "H" 
			}
		],
		 "valence_orbital": [ 
			{
				"type": "occ",
				"energy": -0.30365,
				"method": "rhf"
			},
			{
				"type": "occ",
				"energy": -0.28902,
				"method": "rhf"
			},
			{
				"type": "occ",
				"energy": -0.27407,
				"method": "rhf"
			},
			{
				"type": "occ",
				"energy": -0.25507,
				"method": "rhf"
			},
			{
				"type": "occ",
				"energy": -0.23431,
				"method": "rhf"
			},
			{
				"type": "unocc",
				"energy": -0.06743,
				"method": "rhf"
			},
			{
				"type": "unocc",
				"energy": -0.03997,
				"method": "rhf"
			},
			{
				"type": "unocc",
				"energy": -0.01007,
				"method": "rhf"
			},
			{
				"type": "unocc",
				"energy": 0.01062,
				"method": "rhf"
			},
			{
				"type": "unocc",
				"energy": 0.03576,
				"method": "rhf"
			}
		],
		"cosmo_sigma_profile": { 
			"-0.025": 0.0,
			"-0.024": 0.0,
			"-0.023": 0.0,
			"-0.022": 0.0,
			"-0.021": 0.0,
			"-0.02": 0.0,
			"-0.019": 0.178548836663,
			"-0.018": 0.961889175878,
			"-0.017": 1.02718400419,
			"-0.016": 0.936841665136,
			"-0.015": 0.788069814753,
			"-0.014": 0.850108658214,
			"-0.013": 0.965793761429,
			"-0.012": 1.41633460189,
			"-0.011": 1.25829411639,
			"-0.01": 1.10847721205,
			"-0.009": 1.22489665662,
			"-0.008": 3.84116215797,
			"-0.007": 12.6098717379,
			"-0.006": 16.8251263903,
			"-0.005": 17.2030282302,
			"-0.004": 16.8687063998,
			"-0.003": 16.3615487282,
			"-0.002": 19.0053646276,
			"-0.001": 12.682068845,
			"0.0": 12.2437074551,
			"0.001": 17.4954741549,
			"0.002": 30.5646544865,
			"0.003": 16.4596528819,
			"0.004": 8.32866803417,
			"0.005": 5.33853445261,
			"0.006": 4.13806015544,
			"0.007": 5.49035257817,
			"0.008": 4.87256909088,
			"0.009": 5.06184689131,
			"0.01": 7.51537886099,
			"0.011": 9.69031698588,
			"0.012": 6.2804943357,
			"0.013": 1.45265358585,
			"0.014": 0.042793725326,
			"0.015": 0.0,
			"0.016": 0.0,
			"0.017": 0.0,
			"0.018": 0.0,
			"0.019": 0.0,
			"0.02": 0.0,
			"0.021": 0.0,
			"0.022": 0.0,
			"0.023": 0.0,
			"0.024": 0.0,
			"0.025": 0.0
		}
	}
}
