{
	 "smiles": "FC1=C(Cl)C=C(Cl)C(=C1)C#N", 
	 "Tm": 319.15, 
	 "num_atms": 13, 
	 "gaussian": { 
		 "optdone": 1, 
		 "sigma_profile": "yes", 
		 "theory": "DFT", 
		 "functional": "B3LYP", 
		 "basiset": "6-31G**", 
		 "properties": { 
			 "R2extent": 4720.7186, 
			 "electric_dipole_moment_norm": 2.89808470546, 
			 "electric_quadrupole_moment_norm": 10.6525099742, 
			 "total_energy": -1342.89151027, 
			 "HOMO_LUMO_gap": 0.1905, 
			 "cosmo_polarized_energy": -7.92, 
			 "cosmo_cavitation_energy": 23.27, 
			 "cosmo_dispersion_energy": -16.68, 
			 "cosmo_repulsion_energy": 1.32, 
			 "cosmo_total_nonelectrostatic_energy": 7.91, 
			 "SMD_solvation_energy": 5.31 
		},
		"coords": [
			{
				"x": 0.3489406219,
				"y": 0.2508444473,
				"z": -3.7630941818,
				"element": "F" 
			},
			{
				"x": 0.5683716707,
				"y": 1.0259486301,
				"z": -2.6959156979,
				"element": "C" 
			},
			{
				"x": 1.8010824673,
				"y": 1.6695294163,
				"z": -2.5456096318,
				"element": "C" 
			},
			{
				"x": 3.0380304349,
				"y": 1.4578501682,
				"z": -3.7454165432,
				"element": "Cl" 
			},
			{
				"x": 2.0254829196,
				"y": 2.4769310032,
				"z": -1.4310680201,
				"element": "C" 
			},
			{
				"x": 1.0244810793,
				"y": 2.6383660744,
				"z": -0.4756828427,
				"element": "C" 
			},
			{
				"x": 1.3313121023,
				"y": 3.6521346826,
				"z": 0.9062544984,
				"element": "Cl" 
			},
			{
				"x": -0.2175397166,
				"y": 1.9908128901,
				"z": -0.625755491,
				"element": "C" 
			},
			{
				"x": -0.4331657212,
				"y": 1.1799613676,
				"z": -1.7519181877,
				"element": "C" 
			},
			{
				"x": -1.2653245008,
				"y": 2.1371800366,
				"z": 0.3387697754,
				"element": "C" 
			},
			{
				"x": -2.1367407351,
				"y": 2.2343592243,
				"z": 1.1023315694,
				"element": "N" 
			},
			{
				"x": 2.9785356146,
				"y": 2.9770460891,
				"z": -1.3108362484,
				"element": "H" 
			},
			{
				"x": -1.378666237,
				"y": 0.6700359701,
				"z": -1.8929589986,
				"element": "H" 
			}
		],
		 "valence_orbital": [ 
			{
				"type": "occ",
				"energy": -0.34593,
				"method": "rhf"
			},
			{
				"type": "occ",
				"energy": -0.33934,
				"method": "rhf"
			},
			{
				"type": "occ",
				"energy": -0.33818,
				"method": "rhf"
			},
			{
				"type": "occ",
				"energy": -0.29125,
				"method": "rhf"
			},
			{
				"type": "occ",
				"energy": -0.27103,
				"method": "rhf"
			},
			{
				"type": "unocc",
				"energy": -0.08053,
				"method": "rhf"
			},
			{
				"type": "unocc",
				"energy": -0.04939,
				"method": "rhf"
			},
			{
				"type": "unocc",
				"energy": -0.01832,
				"method": "rhf"
			},
			{
				"type": "unocc",
				"energy": 0.01539,
				"method": "rhf"
			},
			{
				"type": "unocc",
				"energy": 0.02572,
				"method": "rhf"
			}
		],
		"cosmo_sigma_profile": { 
			"-0.025": 0.0,
			"-0.024": 0.0,
			"-0.023": 0.0,
			"-0.022": 0.0,
			"-0.021": 0.0,
			"-0.02": 0.0,
			"-0.019": 0.0,
			"-0.018": 0.0,
			"-0.017": 0.0,
			"-0.016": 0.0,
			"-0.015": 0.0,
			"-0.014": 0.0,
			"-0.013": 0.0,
			"-0.012": 0.0,
			"-0.011": 0.784191089301,
			"-0.01": 3.04821713468,
			"-0.009": 3.46003078806,
			"-0.008": 3.37512440266,
			"-0.007": 3.30047433819,
			"-0.006": 3.44729910274,
			"-0.005": 4.21843115414,
			"-0.004": 11.0740152942,
			"-0.003": 21.9028677304,
			"-0.002": 25.0323983442,
			"-0.001": 16.7863242571,
			"0.0": 10.0857918722,
			"0.001": 13.8520506043,
			"0.002": 21.371432093,
			"0.003": 25.137842182,
			"0.004": 5.28512760381,
			"0.005": 2.21076543566,
			"0.006": 3.29259166362,
			"0.007": 3.17415954911,
			"0.008": 3.28701790289,
			"0.009": 3.02131855669,
			"0.01": 2.87302414056,
			"0.011": 2.2966248891,
			"0.012": 1.72952561281,
			"0.013": 0.131962749722,
			"0.014": 0.0,
			"0.015": 0.0,
			"0.016": 0.0,
			"0.017": 0.0,
			"0.018": 0.0,
			"0.019": 0.0,
			"0.02": 0.0,
			"0.021": 0.0,
			"0.022": 0.0,
			"0.023": 0.0,
			"0.024": 0.0,
			"0.025": 0.0
		}
	}
}
