{
	 "smiles": "NC1=NC=CC(CO)=C1", 
	 "Tm": 356.15, 
	 "num_atms": 17, 
	 "gaussian": { 
		 "optdone": 1, 
		 "sigma_profile": "yes", 
		 "theory": "DFT", 
		 "functional": "B3LYP", 
		 "basiset": "6-31G**", 
		 "properties": { 
			 "R2extent": 1490.6903, 
			 "electric_dipole_moment_norm": 2.13782501155, 
			 "electric_quadrupole_moment_norm": 10.1187819835, 
			 "total_energy": -418.181726148, 
			 "HOMO_LUMO_gap": 0.19706, 
			 "cosmo_polarized_energy": -12.87, 
			 "cosmo_cavitation_energy": 20.8, 
			 "cosmo_dispersion_energy": -15.68, 
			 "cosmo_repulsion_energy": 1.31, 
			 "cosmo_total_nonelectrostatic_energy": 6.42, 
			 "SMD_solvation_energy": 2.29 
		},
		"coords": [
			{
				"x": 2.4178602539,
				"y": 1.660006272,
				"z": -0.6701243652,
				"element": "N" 
			},
			{
				"x": 1.1223540134,
				"y": 1.2863516991,
				"z": -0.3584677046,
				"element": "C" 
			},
			{
				"x": 0.2594276097,
				"y": 1.2372837715,
				"z": -1.3857982559,
				"element": "N" 
			},
			{
				"x": -0.9865238886,
				"y": 0.8244121179,
				"z": -1.1232438157,
				"element": "C" 
			},
			{
				"x": -1.4446460322,
				"y": 0.4575733503,
				"z": 0.1380910032,
				"element": "C" 
			},
			{
				"x": -0.5415625843,
				"y": 0.515628335,
				"z": 1.209684751,
				"element": "C" 
			},
			{
				"x": -0.9812519106,
				"y": 0.1573333018,
				"z": 2.6163400197,
				"element": "C" 
			},
			{
				"x": -2.0597921175,
				"y": -0.7622631827,
				"z": 2.6643204955,
				"element": "O" 
			},
			{
				"x": 0.7619291662,
				"y": 0.9280842881,
				"z": 0.9562290835,
				"element": "C" 
			},
			{
				"x": 2.5052904556,
				"y": 2.1026162342,
				"z": -1.574354646,
				"element": "H" 
			},
			{
				"x": 2.9647901395,
				"y": 2.0854033183,
				"z": 0.0633790332,
				"element": "H" 
			},
			{
				"x": -1.6599767671,
				"y": 0.7927233239,
				"z": -1.9787857022,
				"element": "H" 
			},
			{
				"x": -2.4678511622,
				"y": 0.1377208109,
				"z": 0.2970381145,
				"element": "H" 
			},
			{
				"x": -0.1137868913,
				"y": -0.2018586117,
				"z": 3.192641052,
				"element": "H" 
			},
			{
				"x": -1.3465692241,
				"y": 1.0578343975,
				"z": 3.1248014301,
				"element": "H" 
			},
			{
				"x": -1.7822594041,
				"y": -1.5618183402,
				"z": 2.1974458756,
				"element": "H" 
			},
			{
				"x": 1.5000683435,
				"y": 0.9636689142,
				"z": 1.7541036311,
				"element": "H" 
			}
		],
		 "valence_orbital": [ 
			{
				"type": "occ",
				"energy": -0.31264,
				"method": "rhf"
			},
			{
				"type": "occ",
				"energy": -0.28418,
				"method": "rhf"
			},
			{
				"type": "occ",
				"energy": -0.26419,
				"method": "rhf"
			},
			{
				"type": "occ",
				"energy": -0.2528,
				"method": "rhf"
			},
			{
				"type": "occ",
				"energy": -0.21232,
				"method": "rhf"
			},
			{
				"type": "unocc",
				"energy": -0.01526,
				"method": "rhf"
			},
			{
				"type": "unocc",
				"energy": 0.01111,
				"method": "rhf"
			},
			{
				"type": "unocc",
				"energy": 0.08322,
				"method": "rhf"
			},
			{
				"type": "unocc",
				"energy": 0.08784,
				"method": "rhf"
			},
			{
				"type": "unocc",
				"energy": 0.11738,
				"method": "rhf"
			}
		],
		"cosmo_sigma_profile": { 
			"-0.025": 0.0,
			"-0.024": 0.0,
			"-0.023": 0.0,
			"-0.022": 0.0,
			"-0.021": 0.0,
			"-0.02": 0.0,
			"-0.019": 0.0,
			"-0.018": 0.0,
			"-0.017": 0.0,
			"-0.016": 0.262200949278,
			"-0.015": 1.23339556026,
			"-0.014": 0.435242932585,
			"-0.013": 1.88424687511,
			"-0.012": 2.88672370317,
			"-0.011": 3.77941588825,
			"-0.01": 3.37750157126,
			"-0.009": 3.16330031847,
			"-0.008": 2.77521641859,
			"-0.007": 3.7744322662,
			"-0.006": 6.75034805156,
			"-0.005": 11.3955062597,
			"-0.004": 13.3334831277,
			"-0.003": 10.1845839137,
			"-0.002": 8.98957161491,
			"-0.001": 8.11038175039,
			"0.0": 5.97736643507,
			"0.001": 7.38706173157,
			"0.002": 7.68254513355,
			"0.003": 10.0664568815,
			"0.004": 13.9557484146,
			"0.005": 6.35901959024,
			"0.006": 3.66017342938,
			"0.007": 4.08236988699,
			"0.008": 3.15230539329,
			"0.009": 3.3638811391,
			"0.01": 3.4976786312,
			"0.011": 2.36890620656,
			"0.012": 2.45417747531,
			"0.013": 3.57352369721,
			"0.014": 2.75026040466,
			"0.015": 0.784816677609,
			"0.016": 0.590400208212,
			"0.017": 0.0934148538053,
			"0.018": 0.0,
			"0.019": 0.0,
			"0.02": 0.0,
			"0.021": 0.0,
			"0.022": 0.0,
			"0.023": 0.0,
			"0.024": 0.0,
			"0.025": 0.0
		}
	}
}
