{
	 "smiles": "OC(=O)CCNC(=O)C1=C(F)C=C(F)C=C1", 
	 "Tm": 392.15, 
	 "num_atms": 25, 
	 "gaussian": { 
		 "optdone": 1, 
		 "sigma_profile": "yes", 
		 "theory": "DFT", 
		 "functional": "B3LYP", 
		 "basiset": "6-31G**", 
		 "properties": { 
			 "R2extent": 4818.6672, 
			 "electric_dipole_moment_norm": 6.11512678037, 
			 "electric_quadrupole_moment_norm": 15.8714217174, 
			 "total_energy": -866.599299355, 
			 "HOMO_LUMO_gap": 0.20868, 
			 "cosmo_polarized_energy": -22.25, 
			 "cosmo_cavitation_energy": 31.02, 
			 "cosmo_dispersion_energy": -21.81, 
			 "cosmo_repulsion_energy": 1.68, 
			 "cosmo_total_nonelectrostatic_energy": 10.9, 
			 "SMD_solvation_energy": 7.38 
		},
		"coords": [
			{
				"x": 0.2322253696,
				"y": 0.0105218447,
				"z": -5.1199206142,
				"element": "O" 
			},
			{
				"x": -0.3512485643,
				"y": -0.2260712207,
				"z": -3.9196607266,
				"element": "C" 
			},
			{
				"x": -1.5305923887,
				"y": -0.0113175955,
				"z": -3.7691588739,
				"element": "O" 
			},
			{
				"x": 0.5700813968,
				"y": -0.7516643632,
				"z": -2.8253951457,
				"element": "C" 
			},
			{
				"x": -0.1827206234,
				"y": -1.1255574362,
				"z": -1.5388453058,
				"element": "C" 
			},
			{
				"x": -0.853225266,
				"y": 0.0121688185,
				"z": -0.9366267697,
				"element": "N" 
			},
			{
				"x": -0.5321610715,
				"y": 0.710521005,
				"z": 0.1944258535,
				"element": "C" 
			},
			{
				"x": -0.9800240674,
				"y": 1.8347403342,
				"z": 0.398900198,
				"element": "O" 
			},
			{
				"x": 0.3923012784,
				"y": 0.0876062406,
				"z": 1.2119131796,
				"element": "C" 
			},
			{
				"x": 0.2935012375,
				"y": -1.2186506492,
				"z": 1.6989685319,
				"element": "C" 
			},
			{
				"x": -0.6288347018,
				"y": -2.0594938383,
				"z": 1.1812009383,
				"element": "F" 
			},
			{
				"x": 1.1043779093,
				"y": -1.7094343724,
				"z": 2.7165319773,
				"element": "C" 
			},
			{
				"x": 2.0412201207,
				"y": -0.844181577,
				"z": 3.2670811577,
				"element": "C" 
			},
			{
				"x": 2.8393871733,
				"y": -1.2997377684,
				"z": 4.2490120557,
				"element": "F" 
			},
			{
				"x": 2.1721846294,
				"y": 0.4750986253,
				"z": 2.8410502095,
				"element": "C" 
			},
			{
				"x": 1.3317309835,
				"y": 0.9285642326,
				"z": 1.8301100001,
				"element": "C" 
			},
			{
				"x": 1.1741144193,
				"y": -0.2105184202,
				"z": -5.0893028583,
				"element": "H" 
			},
			{
				"x": 1.1069556943,
				"y": -1.6313095983,
				"z": -3.2066087862,
				"element": "H" 
			},
			{
				"x": 1.3272953929,
				"y": 0.0145757746,
				"z": -2.6114538285,
				"element": "H" 
			},
			{
				"x": -0.9164212886,
				"y": -1.9068980151,
				"z": -1.764321786,
				"element": "H" 
			},
			{
				"x": 0.5289362098,
				"y": -1.5442099971,
				"z": -0.8294563769,
				"element": "H" 
			},
			{
				"x": -1.5103853003,
				"y": 0.4931366647,
				"z": -1.5409202284,
				"element": "H" 
			},
			{
				"x": 0.9944752571,
				"y": -2.7257244416,
				"z": 3.0745359972,
				"element": "H" 
			},
			{
				"x": 2.90554381,
				"y": 1.1216611228,
				"z": 3.3089807363,
				"element": "H" 
			},
			{
				"x": 1.37698239,
				"y": 1.9609746304,
				"z": 1.500860465,
				"element": "H" 
			}
		],
		 "valence_orbital": [ 
			{
				"type": "occ",
				"energy": -0.29087,
				"method": "rhf"
			},
			{
				"type": "occ",
				"energy": -0.27446,
				"method": "rhf"
			},
			{
				"type": "occ",
				"energy": -0.26374,
				"method": "rhf"
			},
			{
				"type": "occ",
				"energy": -0.25497,
				"method": "rhf"
			},
			{
				"type": "occ",
				"energy": -0.24402,
				"method": "rhf"
			},
			{
				"type": "unocc",
				"energy": -0.03534,
				"method": "rhf"
			},
			{
				"type": "unocc",
				"energy": -0.02047,
				"method": "rhf"
			},
			{
				"type": "unocc",
				"energy": -0.0085,
				"method": "rhf"
			},
			{
				"type": "unocc",
				"energy": 0.03645,
				"method": "rhf"
			},
			{
				"type": "unocc",
				"energy": 0.04856,
				"method": "rhf"
			}
		],
		"cosmo_sigma_profile": { 
			"-0.025": 0.0,
			"-0.024": 0.0,
			"-0.023": 0.0,
			"-0.022": 0.0,
			"-0.021": 0.0,
			"-0.02": 0.162519346381,
			"-0.019": 0.874850658153,
			"-0.018": 1.3032392817,
			"-0.017": 1.15681174721,
			"-0.016": 1.00051218615,
			"-0.015": 1.08954229263,
			"-0.014": 0.839573070368,
			"-0.013": 1.31838696494,
			"-0.012": 1.38002351365,
			"-0.011": 1.05549724766,
			"-0.01": 1.78198952057,
			"-0.009": 2.68232672988,
			"-0.008": 7.98001534639,
			"-0.007": 9.99212350026,
			"-0.006": 14.8703015948,
			"-0.005": 16.0293642426,
			"-0.004": 12.2702792579,
			"-0.003": 11.5523780116,
			"-0.002": 12.1991134591,
			"-0.001": 15.9611461637,
			"0.0": 20.8665059879,
			"0.001": 16.7848363662,
			"0.002": 13.7330704631,
			"0.003": 18.5134862935,
			"0.004": 15.2888744897,
			"0.005": 4.29851416814,
			"0.006": 3.61931140184,
			"0.007": 4.10128636547,
			"0.008": 3.48774216776,
			"0.009": 4.69389028543,
			"0.01": 6.31788837877,
			"0.011": 6.03266259587,
			"0.012": 4.48875257134,
			"0.013": 5.01778343941,
			"0.014": 4.2976621322,
			"0.015": 0.388409247682,
			"0.016": 0.0,
			"0.017": 0.0,
			"0.018": 0.0,
			"0.019": 0.0,
			"0.02": 0.0,
			"0.021": 0.0,
			"0.022": 0.0,
			"0.023": 0.0,
			"0.024": 0.0,
			"0.025": 0.0
		}
	}
}
