{
	 "smiles": "[O-][N+](=O)C1=CC(C#N)=C(F)C=C1", 
	 "Tm": 346.65, 
	 "num_atms": 15, 
	 "gaussian": { 
		 "optdone": 1, 
		 "sigma_profile": "yes", 
		 "theory": "DFT", 
		 "functional": "B3LYP", 
		 "basiset": "6-31G**", 
		 "properties": { 
			 "R2extent": 2774.5058, 
			 "electric_dipole_moment_norm": 3.72479852475, 
			 "electric_quadrupole_moment_norm": 19.3957299894, 
			 "total_energy": -628.211619546, 
			 "HOMO_LUMO_gap": 0.18599, 
			 "cosmo_polarized_energy": -11.98, 
			 "cosmo_cavitation_energy": 22.57, 
			 "cosmo_dispersion_energy": -15.82, 
			 "cosmo_repulsion_energy": 1.23, 
			 "cosmo_total_nonelectrostatic_energy": 7.98, 
			 "SMD_solvation_energy": 8.12 
		},
		"coords": [
			{
				"x": 1.6275505097,
				"y": -1.5910581636,
				"z": -3.5722998107,
				"element": "O" 
			},
			{
				"x": 1.5018081318,
				"y": -0.5292038289,
				"z": -2.9658557694,
				"element": "N" 
			},
			{
				"x": 1.4113230226,
				"y": 0.5795045568,
				"z": -3.4881002127,
				"element": "O" 
			},
			{
				"x": 1.4564230966,
				"y": -0.5922518093,
				"z": -1.4954806278,
				"element": "C" 
			},
			{
				"x": 1.3152578225,
				"y": 0.5910750415,
				"z": -0.7805829902,
				"element": "C" 
			},
			{
				"x": 1.271756738,
				"y": 0.5344567404,
				"z": 0.6187444016,
				"element": "C" 
			},
			{
				"x": 1.1278214623,
				"y": 1.7211950438,
				"z": 1.4052019431,
				"element": "C" 
			},
			{
				"x": 1.010676599,
				"y": 2.6908564822,
				"z": 2.0351400066,
				"element": "N" 
			},
			{
				"x": 1.3727960806,
				"y": -0.7197246088,
				"z": 1.245334511,
				"element": "C" 
			},
			{
				"x": 1.3314055221,
				"y": -0.7742148585,
				"z": 2.5776139295,
				"element": "F" 
			},
			{
				"x": 1.5137953213,
				"y": -1.8976749825,
				"z": 0.5197960823,
				"element": "C" 
			},
			{
				"x": 1.5564009739,
				"y": -1.8352908031,
				"z": -0.8689764354,
				"element": "C" 
			},
			{
				"x": 1.2409561591,
				"y": 1.5354123331,
				"z": -1.3043581572,
				"element": "H" 
			},
			{
				"x": 1.5876377157,
				"y": -2.8399518328,
				"z": 1.0502142207,
				"element": "H" 
			},
			{
				"x": 1.6650908449,
				"y": -2.7266293103,
				"z": -1.4739910914,
				"element": "H" 
			}
		],
		 "valence_orbital": [ 
			{
				"type": "occ",
				"energy": -0.33059,
				"method": "rhf"
			},
			{
				"type": "occ",
				"energy": -0.32839,
				"method": "rhf"
			},
			{
				"type": "occ",
				"energy": -0.31264,
				"method": "rhf"
			},
			{
				"type": "occ",
				"energy": -0.30904,
				"method": "rhf"
			},
			{
				"type": "occ",
				"energy": -0.29702,
				"method": "rhf"
			},
			{
				"type": "unocc",
				"energy": -0.11103,
				"method": "rhf"
			},
			{
				"type": "unocc",
				"energy": -0.08405,
				"method": "rhf"
			},
			{
				"type": "unocc",
				"energy": -0.02922,
				"method": "rhf"
			},
			{
				"type": "unocc",
				"energy": 0.00881,
				"method": "rhf"
			},
			{
				"type": "unocc",
				"energy": 0.05452,
				"method": "rhf"
			}
		],
		"cosmo_sigma_profile": { 
			"-0.025": 0.0,
			"-0.024": 0.0,
			"-0.023": 0.0,
			"-0.022": 0.0,
			"-0.021": 0.0,
			"-0.02": 0.0,
			"-0.019": 0.0,
			"-0.018": 0.0,
			"-0.017": 0.0,
			"-0.016": 0.0,
			"-0.015": 0.0,
			"-0.014": 0.0,
			"-0.013": 0.0,
			"-0.012": 0.0,
			"-0.011": 0.197565869354,
			"-0.01": 2.70735823653,
			"-0.009": 6.05279994758,
			"-0.008": 5.24095506007,
			"-0.007": 6.24191728395,
			"-0.006": 7.87125788701,
			"-0.005": 10.3855406096,
			"-0.004": 17.9487886145,
			"-0.003": 20.6307665902,
			"-0.002": 13.1961218575,
			"-0.001": 8.4827851521,
			"0.0": 6.04644733162,
			"0.001": 6.98579583367,
			"0.002": 13.787693455,
			"0.003": 5.14756204575,
			"0.004": 5.85972936208,
			"0.005": 4.82898788505,
			"0.006": 8.65204618605,
			"0.007": 11.9243569621,
			"0.008": 8.19922741072,
			"0.009": 6.45860242833,
			"0.01": 3.30472829899,
			"0.011": 2.44250318758,
			"0.012": 1.4132141801,
			"0.013": 0.051946161442,
			"0.014": 0.0,
			"0.015": 0.0,
			"0.016": 0.0,
			"0.017": 0.0,
			"0.018": 0.0,
			"0.019": 0.0,
			"0.02": 0.0,
			"0.021": 0.0,
			"0.022": 0.0,
			"0.023": 0.0,
			"0.024": 0.0,
			"0.025": 0.0
		}
	}
}
