{
	 "smiles": "CC1=CC(=C(C)N1CC1CCCO1)C1=CSC(N)=N1", 
	 "Tm": 387.15, 
	 "num_atms": 38, 
	 "gaussian": { 
		 "optdone": 1, 
		 "sigma_profile": "yes", 
		 "theory": "DFT", 
		 "functional": "B3LYP", 
		 "basiset": "6-31G**", 
		 "properties": { 
			 "R2extent": 7308.7722, 
			 "electric_dipole_moment_norm": 2.94775880289, 
			 "electric_quadrupole_moment_norm": 17.725485307, 
			 "total_energy": -1182.59976964, 
			 "HOMO_LUMO_gap": 0.17589, 
			 "cosmo_polarized_energy": -16.39, 
			 "cosmo_cavitation_energy": 40.23, 
			 "cosmo_dispersion_energy": -29.18, 
			 "cosmo_repulsion_energy": 2.22, 
			 "cosmo_total_nonelectrostatic_energy": 13.28, 
			 "SMD_solvation_energy": 4.69 
		},
		"coords": [
			{
				"x": 2.6795112448,
				"y": -0.0786779001,
				"z": 1.9867523329,
				"element": "C" 
			},
			{
				"x": 1.5574072452,
				"y": 0.4157842718,
				"z": 1.1284066526,
				"element": "C" 
			},
			{
				"x": 0.3388137508,
				"y": 0.9247674921,
				"z": 1.5015658928,
				"element": "C" 
			},
			{
				"x": -0.3630676923,
				"y": 1.3205025978,
				"z": 0.3209240479,
				"element": "C" 
			},
			{
				"x": 0.4673405187,
				"y": 1.0532355202,
				"z": -0.7625295407,
				"element": "C" 
			},
			{
				"x": 0.2791261562,
				"y": 1.3705614071,
				"z": -2.2118849714,
				"element": "C" 
			},
			{
				"x": 1.63321595,
				"y": 0.4886815536,
				"z": -0.2629089985,
				"element": "N" 
			},
			{
				"x": 2.7498968111,
				"y": -0.0057596415,
				"z": -1.0513237301,
				"element": "C" 
			},
			{
				"x": 2.5960850582,
				"y": -1.4215686439,
				"z": -1.6270950114,
				"element": "C" 
			},
			{
				"x": 2.0859298922,
				"y": -2.5251126895,
				"z": -0.6745693016,
				"element": "C" 
			},
			{
				"x": 1.249382089,
				"y": -3.452569811,
				"z": -1.5954756743,
				"element": "C" 
			},
			{
				"x": 1.3273991712,
				"y": -2.7571726756,
				"z": -2.9715634717,
				"element": "C" 
			},
			{
				"x": 1.660468142,
				"y": -1.3988682515,
				"z": -2.7027866827,
				"element": "O" 
			},
			{
				"x": -1.701114813,
				"y": 1.9095289937,
				"z": 0.3194076377,
				"element": "C" 
			},
			{
				"x": -2.6135846822,
				"y": 1.9017272282,
				"z": -0.7041931756,
				"element": "C" 
			},
			{
				"x": -4.0822411954,
				"y": 2.7255757639,
				"z": -0.2295410388,
				"element": "S" 
			},
			{
				"x": -3.3497579397,
				"y": 2.9839047527,
				"z": 1.3597143135,
				"element": "C" 
			},
			{
				"x": -4.0066214883,
				"y": 3.7114976034,
				"z": 2.3327970685,
				"element": "N" 
			},
			{
				"x": -2.1453558799,
				"y": 2.5197527233,
				"z": 1.4913784857,
				"element": "N" 
			},
			{
				"x": 3.5866965521,
				"y": 0.5329475839,
				"z": 1.8887335601,
				"element": "H" 
			},
			{
				"x": 2.9640291612,
				"y": -1.1173999433,
				"z": 1.777420169,
				"element": "H" 
			},
			{
				"x": 2.3702498778,
				"y": -0.0304278875,
				"z": 3.0337058872,
				"element": "H" 
			},
			{
				"x": -0.028548756,
				"y": 1.0269733853,
				"z": 2.5121889487,
				"element": "H" 
			},
			{
				"x": 1.2006798613,
				"y": 1.7525014218,
				"z": -2.6657022662,
				"element": "H" 
			},
			{
				"x": -0.0208928116,
				"y": 0.4988605689,
				"z": -2.802462368,
				"element": "H" 
			},
			{
				"x": -0.4824419892,
				"y": 2.1470395703,
				"z": -2.3148966709,
				"element": "H" 
			},
			{
				"x": 2.9353365978,
				"y": 0.6760762778,
				"z": -1.8863502648,
				"element": "H" 
			},
			{
				"x": 3.643185423,
				"y": 0.0129998335,
				"z": -0.4217212495,
				"element": "H" 
			},
			{
				"x": 3.5882534086,
				"y": -1.7081110717,
				"z": -2.0226511205,
				"element": "H" 
			},
			{
				"x": 2.9134512074,
				"y": -3.0481349642,
				"z": -0.1866898688,
				"element": "H" 
			},
			{
				"x": 1.4543337059,
				"y": -2.0890047618,
				"z": 0.1025387492,
				"element": "H" 
			},
			{
				"x": 0.2155631455,
				"y": -3.5110621791,
				"z": -1.2454312526,
				"element": "H" 
			},
			{
				"x": 1.6420021014,
				"y": -4.472394856,
				"z": -1.637313575,
				"element": "H" 
			},
			{
				"x": 2.1082141738,
				"y": -3.2194645129,
				"z": -3.5974160677,
				"element": "H" 
			},
			{
				"x": 0.3881119618,
				"y": -2.7677605509,
				"z": -3.5303723575,
				"element": "H" 
			},
			{
				"x": -2.5491022839,
				"y": 1.4210869163,
				"z": -1.667558819,
				"element": "H" 
			},
			{
				"x": -5.0086450536,
				"y": 3.5888317288,
				"z": 2.3813846022,
				"element": "H" 
			},
			{
				"x": -3.5503086219,
				"y": 3.6396531462,
				"z": 3.2335191294,
				"element": "H" 
			}
		],
		 "valence_orbital": [ 
			{
				"type": "occ",
				"energy": -0.25828,
				"method": "rhf"
			},
			{
				"type": "occ",
				"energy": -0.25718,
				"method": "rhf"
			},
			{
				"type": "occ",
				"energy": -0.2256,
				"method": "rhf"
			},
			{
				"type": "occ",
				"energy": -0.19727,
				"method": "rhf"
			},
			{
				"type": "occ",
				"energy": -0.17173,
				"method": "rhf"
			},
			{
				"type": "unocc",
				"energy": 0.00416,
				"method": "rhf"
			},
			{
				"type": "unocc",
				"energy": 0.02513,
				"method": "rhf"
			},
			{
				"type": "unocc",
				"energy": 0.04532,
				"method": "rhf"
			},
			{
				"type": "unocc",
				"energy": 0.06347,
				"method": "rhf"
			},
			{
				"type": "unocc",
				"energy": 0.07616,
				"method": "rhf"
			}
		],
		"cosmo_sigma_profile": { 
			"-0.025": 0.0,
			"-0.024": 0.0,
			"-0.023": 0.0,
			"-0.022": 0.0,
			"-0.021": 0.0,
			"-0.02": 0.0,
			"-0.019": 0.0,
			"-0.018": 0.0,
			"-0.017": 0.0,
			"-0.016": 0.0,
			"-0.015": 0.0674107214671,
			"-0.014": 1.40823588218,
			"-0.013": 2.19840149724,
			"-0.012": 2.64796118298,
			"-0.011": 2.36714192187,
			"-0.01": 3.13163323081,
			"-0.009": 2.14147346593,
			"-0.008": 1.74069305523,
			"-0.007": 3.16948396391,
			"-0.006": 7.50285925509,
			"-0.005": 12.8658618831,
			"-0.004": 25.6179695196,
			"-0.003": 39.5738918161,
			"-0.002": 33.8663180549,
			"-0.001": 27.5429261138,
			"0.0": 25.3887577887,
			"0.001": 19.2049524498,
			"0.002": 15.0571217781,
			"0.003": 14.3655560465,
			"0.004": 15.3219934079,
			"0.005": 17.727527673,
			"0.006": 12.5839100815,
			"0.007": 9.59330227903,
			"0.008": 7.34136820475,
			"0.009": 5.53545373236,
			"0.01": 3.56332112989,
			"0.011": 2.1311644899,
			"0.012": 2.50479775185,
			"0.013": 1.24467541877,
			"0.014": 0.971593473977,
			"0.015": 0.264970791856,
			"0.016": 0.0,
			"0.017": 0.0,
			"0.018": 0.0,
			"0.019": 0.0,
			"0.02": 0.0,
			"0.021": 0.0,
			"0.022": 0.0,
			"0.023": 0.0,
			"0.024": 0.0,
			"0.025": 0.0
		}
	}
}
