{
	 "smiles": "NC(=NO)C1=CC=C(COC2=C(F)C=CC=C2)C=C1", 
	 "Tm": 409.15, 
	 "num_atms": 32, 
	 "gaussian": { 
		 "optdone": 1, 
		 "sigma_profile": "yes", 
		 "theory": "DFT", 
		 "functional": "B3LYP", 
		 "basiset": "6-31G**", 
		 "properties": { 
			 "R2extent": 9157.8033, 
			 "electric_dipole_moment_norm": 0.654195238442, 
			 "electric_quadrupole_moment_norm": 14.2883807186, 
			 "total_energy": -901.04730589, 
			 "HOMO_LUMO_gap": 0.17936, 
			 "cosmo_polarized_energy": -14.52, 
			 "cosmo_cavitation_energy": 37.4, 
			 "cosmo_dispersion_energy": -27.1, 
			 "cosmo_repulsion_energy": 2.07, 
			 "cosmo_total_nonelectrostatic_energy": 12.36, 
			 "SMD_solvation_energy": 6.86 
		},
		"coords": [
			{
				"x": 1.6861805533,
				"y": 3.4920338884,
				"z": 4.1751769138,
				"element": "N" 
			},
			{
				"x": 0.4521385835,
				"y": 3.1771173986,
				"z": 3.6352322393,
				"element": "C" 
			},
			{
				"x": -0.6463563916,
				"y": 3.7932565852,
				"z": 3.9339271893,
				"element": "N" 
			},
			{
				"x": -0.3958960085,
				"y": 4.7433070284,
				"z": 4.9633424593,
				"element": "O" 
			},
			{
				"x": 0.3880026144,
				"y": 2.1123253,
				"z": 2.6064034675,
				"element": "C" 
			},
			{
				"x": -0.8172333993,
				"y": 1.4340622877,
				"z": 2.3574021784,
				"element": "C" 
			},
			{
				"x": -0.8799662465,
				"y": 0.4367808216,
				"z": 1.3922699534,
				"element": "C" 
			},
			{
				"x": 0.2585663923,
				"y": 0.0769215164,
				"z": 0.6564751097,
				"element": "C" 
			},
			{
				"x": 0.1885542146,
				"y": -0.9765186172,
				"z": -0.4208321921,
				"element": "C" 
			},
			{
				"x": -0.55715564,
				"y": -2.1006058403,
				"z": 0.0819053831,
				"element": "O" 
			},
			{
				"x": -1.0995108193,
				"y": -2.9870843209,
				"z": -0.8044379669,
				"element": "C" 
			},
			{
				"x": -0.4724695888,
				"y": -3.4344788544,
				"z": -1.9758808835,
				"element": "C" 
			},
			{
				"x": 0.7562199364,
				"y": -2.9601175987,
				"z": -2.3031548834,
				"element": "F" 
			},
			{
				"x": -1.0686203336,
				"y": -4.3641997915,
				"z": -2.8180784322,
				"element": "C" 
			},
			{
				"x": -2.3156581737,
				"y": -4.894413711,
				"z": -2.4871026221,
				"element": "C" 
			},
			{
				"x": -2.9503392998,
				"y": -4.4807156394,
				"z": -1.3138568426,
				"element": "C" 
			},
			{
				"x": -2.3497917856,
				"y": -3.5325952924,
				"z": -0.4876475985,
				"element": "C" 
			},
			{
				"x": 1.4585508778,
				"y": 0.746165636,
				"z": 0.9094510788,
				"element": "C" 
			},
			{
				"x": 1.5246640709,
				"y": 1.7591739629,
				"z": 1.8665179679,
				"element": "C" 
			},
			{
				"x": 1.6260386259,
				"y": 4.1099875019,
				"z": 4.9735433612,
				"element": "H" 
			},
			{
				"x": 2.3185951324,
				"y": 2.7143597511,
				"z": 4.2990133598,
				"element": "H" 
			},
			{
				"x": -1.2683527398,
				"y": 5.1349433973,
				"z": 5.0887641204,
				"element": "H" 
			},
			{
				"x": -1.6953937324,
				"y": 1.7032871197,
				"z": 2.9334884667,
				"element": "H" 
			},
			{
				"x": -1.8129977129,
				"y": -0.0892304657,
				"z": 1.2168220016,
				"element": "H" 
			},
			{
				"x": -0.3191189368,
				"y": -0.5834832613,
				"z": -1.3131238857,
				"element": "H" 
			},
			{
				"x": 1.1930724601,
				"y": -1.2870724518,
				"z": -0.7206076121,
				"element": "H" 
			},
			{
				"x": -0.5347904458,
				"y": -4.6667467997,
				"z": -3.7129381239,
				"element": "H" 
			},
			{
				"x": -2.7815789368,
				"y": -5.6260200929,
				"z": -3.1392654461,
				"element": "H" 
			},
			{
				"x": -3.9198580024,
				"y": -4.8879502656,
				"z": -1.0441539672,
				"element": "H" 
			},
			{
				"x": -2.829646487,
				"y": -3.1924601968,
				"z": 0.4243435214,
				"element": "H" 
			},
			{
				"x": 2.3516989476,
				"y": 0.4799927498,
				"z": 0.3496116024,
				"element": "H" 
			},
			{
				"x": 2.4581522714,
				"y": 2.2902782545,
				"z": 2.0238900823,
				"element": "H" 
			}
		],
		 "valence_orbital": [ 
			{
				"type": "occ",
				"energy": -0.25516,
				"method": "rhf"
			},
			{
				"type": "occ",
				"energy": -0.25259,
				"method": "rhf"
			},
			{
				"type": "occ",
				"energy": -0.25003,
				"method": "rhf"
			},
			{
				"type": "occ",
				"energy": -0.22703,
				"method": "rhf"
			},
			{
				"type": "occ",
				"energy": -0.20813,
				"method": "rhf"
			},
			{
				"type": "unocc",
				"energy": -0.02877,
				"method": "rhf"
			},
			{
				"type": "unocc",
				"energy": -0.00562,
				"method": "rhf"
			},
			{
				"type": "unocc",
				"energy": -0.00436,
				"method": "rhf"
			},
			{
				"type": "unocc",
				"energy": 0.0044,
				"method": "rhf"
			},
			{
				"type": "unocc",
				"energy": 0.05479,
				"method": "rhf"
			}
		],
		"cosmo_sigma_profile": { 
			"-0.025": 0.0,
			"-0.024": 0.0,
			"-0.023": 0.0,
			"-0.022": 0.0,
			"-0.021": 0.0,
			"-0.02": 0.0,
			"-0.019": 0.0,
			"-0.018": 0.0,
			"-0.017": 0.344699946436,
			"-0.016": 0.91880950777,
			"-0.015": 1.23095164874,
			"-0.014": 0.527170194386,
			"-0.013": 1.55431159907,
			"-0.012": 2.23510392076,
			"-0.011": 2.64451079379,
			"-0.01": 2.63237501593,
			"-0.009": 3.66327346272,
			"-0.008": 2.73645449796,
			"-0.007": 5.88683291339,
			"-0.006": 16.9014529938,
			"-0.005": 20.2742482938,
			"-0.004": 20.1645308141,
			"-0.003": 18.5868160189,
			"-0.002": 15.6626727372,
			"-0.001": 15.8350588925,
			"0.0": 16.4496574598,
			"0.001": 21.3953630495,
			"0.002": 22.1436409382,
			"0.003": 24.1977152118,
			"0.004": 31.3011898324,
			"0.005": 18.4441584049,
			"0.006": 6.30223947897,
			"0.007": 6.81901177196,
			"0.008": 5.83558566007,
			"0.009": 4.95619617156,
			"0.01": 3.91778830311,
			"0.011": 2.29077769165,
			"0.012": 1.38565882632,
			"0.013": 0.640895283066,
			"0.014": 0.500784706141,
			"0.015": 0.00796372117488,
			"0.016": 0.0,
			"0.017": 0.0,
			"0.018": 0.0,
			"0.019": 0.0,
			"0.02": 0.0,
			"0.021": 0.0,
			"0.022": 0.0,
			"0.023": 0.0,
			"0.024": 0.0,
			"0.025": 0.0
		}
	}
}
