{
	 "smiles": "CC1=NC(C#N)=C(NN)O1", 
	 "Tm": 431.15, 
	 "num_atms": 16, 
	 "gaussian": { 
		 "optdone": 1, 
		 "sigma_profile": "yes", 
		 "theory": "DFT", 
		 "functional": "B3LYP", 
		 "basiset": "6-31G**", 
		 "properties": { 
			 "R2extent": 2032.027, 
			 "electric_dipole_moment_norm": 6.30230465861, 
			 "electric_quadrupole_moment_norm": 20.1256387042, 
			 "total_energy": -488.31095395, 
			 "HOMO_LUMO_gap": 0.20346, 
			 "cosmo_polarized_energy": -17.23, 
			 "cosmo_cavitation_energy": 22.23, 
			 "cosmo_dispersion_energy": -15.78, 
			 "cosmo_repulsion_energy": 1.33, 
			 "cosmo_total_nonelectrostatic_energy": 7.78, 
			 "SMD_solvation_energy": 4.55 
		},
		"coords": [
			{
				"x": 1.7079411292,
				"y": -1.1448610381,
				"z": -1.4111325237,
				"element": "C" 
			},
			{
				"x": 1.1773944067,
				"y": -0.9418873907,
				"z": -0.039234989,
				"element": "C" 
			},
			{
				"x": 1.7700710512,
				"y": -1.0456751984,
				"z": 1.0977205184,
				"element": "N" 
			},
			{
				"x": 0.8001862637,
				"y": -0.7192523622,
				"z": 2.0540880398,
				"element": "C" 
			},
			{
				"x": 1.019192151,
				"y": -0.6812179701,
				"z": 3.4506515269,
				"element": "C" 
			},
			{
				"x": 1.1398372681,
				"y": -0.6276695406,
				"z": 4.6087312022,
				"element": "N" 
			},
			{
				"x": -0.3810609859,
				"y": -0.4381125869,
				"z": 1.4001020234,
				"element": "C" 
			},
			{
				"x": -1.6462612242,
				"y": -0.1433223554,
				"z": 1.8186280134,
				"element": "N" 
			},
			{
				"x": -2.545247253,
				"y": 0.5755893123,
				"z": 1.0001923819,
				"element": "N" 
			},
			{
				"x": -0.1636329128,
				"y": -0.5687451332,
				"z": 0.0693692435,
				"element": "O" 
			},
			{
				"x": 1.1571157506,
				"y": -1.9311781148,
				"z": -1.9381452019,
				"element": "H" 
			},
			{
				"x": 2.7567751301,
				"y": -1.4337601445,
				"z": -1.3376377858,
				"element": "H" 
			},
			{
				"x": 1.6320934188,
				"y": -0.2279985335,
				"z": -2.0057751006,
				"element": "H" 
			},
			{
				"x": -1.7365404146,
				"y": 0.0742968826,
				"z": 2.8022654777,
				"element": "H" 
			},
			{
				"x": -2.0524791466,
				"y": 1.3136908157,
				"z": 0.4975320503,
				"element": "H" 
			},
			{
				"x": -2.9285846322,
				"y": -0.0657966423,
				"z": 0.3109451234,
				"element": "H" 
			}
		],
		 "valence_orbital": [ 
			{
				"type": "occ",
				"energy": -0.33035,
				"method": "rhf"
			},
			{
				"type": "occ",
				"energy": -0.31671,
				"method": "rhf"
			},
			{
				"type": "occ",
				"energy": -0.31167,
				"method": "rhf"
			},
			{
				"type": "occ",
				"energy": -0.29135,
				"method": "rhf"
			},
			{
				"type": "occ",
				"energy": -0.22036,
				"method": "rhf"
			},
			{
				"type": "unocc",
				"energy": -0.0169,
				"method": "rhf"
			},
			{
				"type": "unocc",
				"energy": 0.00467,
				"method": "rhf"
			},
			{
				"type": "unocc",
				"energy": 0.02286,
				"method": "rhf"
			},
			{
				"type": "unocc",
				"energy": 0.06027,
				"method": "rhf"
			},
			{
				"type": "unocc",
				"energy": 0.08175,
				"method": "rhf"
			}
		],
		"cosmo_sigma_profile": { 
			"-0.025": 0.0,
			"-0.024": 0.0,
			"-0.023": 0.0,
			"-0.022": 0.0,
			"-0.021": 0.0,
			"-0.02": 0.0,
			"-0.019": 0.0,
			"-0.018": 0.0,
			"-0.017": 0.0,
			"-0.016": 0.0542618891362,
			"-0.015": 0.730344227309,
			"-0.014": 0.899642177314,
			"-0.013": 1.34211322125,
			"-0.012": 3.87885931971,
			"-0.011": 3.81289430563,
			"-0.01": 5.09174038228,
			"-0.009": 3.66900768205,
			"-0.008": 3.04484580882,
			"-0.007": 4.54445524747,
			"-0.006": 9.92133334928,
			"-0.005": 10.2702055245,
			"-0.004": 9.99209110766,
			"-0.003": 12.3178832016,
			"-0.002": 14.2604086778,
			"-0.001": 9.21645310197,
			"0.0": 9.07578610457,
			"0.001": 8.23675253582,
			"0.002": 8.32115562242,
			"0.003": 7.07294545283,
			"0.004": 6.63062111257,
			"0.005": 5.67360880335,
			"0.006": 5.05551777881,
			"0.007": 4.32474864893,
			"0.008": 4.65816634152,
			"0.009": 5.06266159132,
			"0.01": 5.01233028661,
			"0.011": 4.5314671538,
			"0.012": 4.56949792174,
			"0.013": 4.0070795663,
			"0.014": 1.52468747046,
			"0.015": 0.955664776712,
			"0.016": 0.257009784367,
			"0.017": 0.0,
			"0.018": 0.0,
			"0.019": 0.0,
			"0.02": 0.0,
			"0.021": 0.0,
			"0.022": 0.0,
			"0.023": 0.0,
			"0.024": 0.0,
			"0.025": 0.0
		}
	}
}
