{
	 "smiles": "CC(OC1=C(CC2=CC=CC=C2)C=CC=C1)C(O)=O", 
	 "Tm": 365.15, 
	 "num_atms": 35, 
	 "gaussian": { 
		 "optdone": 1, 
		 "sigma_profile": "yes", 
		 "theory": "DFT", 
		 "functional": "B3LYP", 
		 "basiset": "6-31G**", 
		 "properties": { 
			 "R2extent": 6152.8554, 
			 "electric_dipole_moment_norm": 1.047990749, 
			 "electric_quadrupole_moment_norm": 6.13456933452, 
			 "total_energy": -845.028404407, 
			 "HOMO_LUMO_gap": 0.21062, 
			 "cosmo_polarized_energy": -13.59, 
			 "cosmo_cavitation_energy": 38.95, 
			 "cosmo_dispersion_energy": -26.38, 
			 "cosmo_repulsion_energy": 2.04, 
			 "cosmo_total_nonelectrostatic_energy": 14.61, 
			 "SMD_solvation_energy": 7.88 
		},
		"coords": [
			{
				"x": 1.758556395,
				"y": -1.762654314,
				"z": -1.8348526349,
				"element": "C" 
			},
			{
				"x": 0.672207617,
				"y": -0.9129420203,
				"z": -2.4912886696,
				"element": "C" 
			},
			{
				"x": -0.0130626699,
				"y": -0.1071193726,
				"z": -1.5415207915,
				"element": "O" 
			},
			{
				"x": -1.2399057531,
				"y": -0.4998736067,
				"z": -1.0537404348,
				"element": "C" 
			},
			{
				"x": -2.0516725538,
				"y": 0.5271118754,
				"z": -0.5330491967,
				"element": "C" 
			},
			{
				"x": -1.5975152513,
				"y": 1.9781182608,
				"z": -0.5527343386,
				"element": "C" 
			},
			{
				"x": -0.9421435226,
				"y": 2.4350052374,
				"z": 0.7434121121,
				"element": "C" 
			},
			{
				"x": -1.6145067358,
				"y": 3.2953853539,
				"z": 1.6196423088,
				"element": "C" 
			},
			{
				"x": -1.0222721523,
				"y": 3.7119560284,
				"z": 2.8142648165,
				"element": "C" 
			},
			{
				"x": 0.2576561443,
				"y": 3.2715979849,
				"z": 3.1506009835,
				"element": "C" 
			},
			{
				"x": 0.9394416348,
				"y": 2.4140756557,
				"z": 2.2832422143,
				"element": "C" 
			},
			{
				"x": 0.3453948567,
				"y": 1.9999988153,
				"z": 1.0915682875,
				"element": "C" 
			},
			{
				"x": -3.2944366291,
				"y": 0.1715949205,
				"z": -0.0021257665,
				"element": "C" 
			},
			{
				"x": -3.7389620614,
				"y": -1.1515878511,
				"z": 0.0140214571,
				"element": "C" 
			},
			{
				"x": -2.9225223384,
				"y": -2.1516034082,
				"z": -0.508734251,
				"element": "C" 
			},
			{
				"x": -1.6715747449,
				"y": -1.8306055928,
				"z": -1.0398707386,
				"element": "C" 
			},
			{
				"x": 1.2694956563,
				"y": -0.0081453627,
				"z": -3.5742308638,
				"element": "C" 
			},
			{
				"x": 0.6045542787,
				"y": 1.1529755373,
				"z": -3.7269263746,
				"element": "O" 
			},
			{
				"x": 2.2137145028,
				"y": -0.3282219134,
				"z": -4.2623143738,
				"element": "O" 
			},
			{
				"x": 1.3156048146,
				"y": -2.465602643,
				"z": -1.1256924819,
				"element": "H" 
			},
			{
				"x": 2.3136818797,
				"y": -2.3149053777,
				"z": -2.5952971367,
				"element": "H" 
			},
			{
				"x": 2.458678941,
				"y": -1.1212178852,
				"z": -1.292605463,
				"element": "H" 
			},
			{
				"x": -0.0469263047,
				"y": -1.5562343748,
				"z": -3.0187211913,
				"element": "H" 
			},
			{
				"x": -0.9030272388,
				"y": 2.1185607685,
				"z": -1.3856205706,
				"element": "H" 
			},
			{
				"x": -2.4702481148,
				"y": 2.6107928363,
				"z": -0.7472211479,
				"element": "H" 
			},
			{
				"x": -2.6106087489,
				"y": 3.6482271721,
				"z": 1.3621827011,
				"element": "H" 
			},
			{
				"x": -1.5612177633,
				"y": 4.3819104062,
				"z": 3.4787689345,
				"element": "H" 
			},
			{
				"x": 0.7220284016,
				"y": 3.5948970173,
				"z": 4.0779557682,
				"element": "H" 
			},
			{
				"x": 1.9386224529,
				"y": 2.068768267,
				"z": 2.5352858938,
				"element": "H" 
			},
			{
				"x": 0.8772734396,
				"y": 1.3328856134,
				"z": 0.4197386873,
				"element": "H" 
			},
			{
				"x": -3.9297188128,
				"y": 0.957367839,
				"z": 0.3992705107,
				"element": "H" 
			},
			{
				"x": -4.7119161477,
				"y": -1.3957002451,
				"z": 0.4291830727,
				"element": "H" 
			},
			{
				"x": -3.2476999706,
				"y": -3.1878994148,
				"z": -0.5014003935,
				"element": "H" 
			},
			{
				"x": -1.0366507059,
				"y": -2.6219869175,
				"z": -1.422496838,
				"element": "H" 
			},
			{
				"x": 1.0472772053,
				"y": 1.6179707108,
				"z": -4.4573940907,
				"element": "H" 
			}
		],
		 "valence_orbital": [ 
			{
				"type": "occ",
				"energy": -0.28339,
				"method": "rhf"
			},
			{
				"type": "occ",
				"energy": -0.24697,
				"method": "rhf"
			},
			{
				"type": "occ",
				"energy": -0.24089,
				"method": "rhf"
			},
			{
				"type": "occ",
				"energy": -0.23333,
				"method": "rhf"
			},
			{
				"type": "occ",
				"energy": -0.21997,
				"method": "rhf"
			},
			{
				"type": "unocc",
				"energy": -0.00935,
				"method": "rhf"
			},
			{
				"type": "unocc",
				"energy": -0.00146,
				"method": "rhf"
			},
			{
				"type": "unocc",
				"energy": 0.00287,
				"method": "rhf"
			},
			{
				"type": "unocc",
				"energy": 0.01082,
				"method": "rhf"
			},
			{
				"type": "unocc",
				"energy": 0.01647,
				"method": "rhf"
			}
		],
		"cosmo_sigma_profile": { 
			"-0.025": 0.0,
			"-0.024": 0.0,
			"-0.023": 0.0,
			"-0.022": 0.0,
			"-0.021": 0.0,
			"-0.02": 0.0,
			"-0.019": 0.249679092303,
			"-0.018": 0.927316099619,
			"-0.017": 1.19865805831,
			"-0.016": 0.333194960729,
			"-0.015": 0.88435796015,
			"-0.014": 0.787156481089,
			"-0.013": 0.922137654644,
			"-0.012": 0.449229905588,
			"-0.011": 0.726275508859,
			"-0.01": 0.71613860033,
			"-0.009": 0.932029598874,
			"-0.008": 4.77453837276,
			"-0.007": 5.09259445482,
			"-0.006": 7.43563266845,
			"-0.005": 23.6070218575,
			"-0.004": 27.2826701525,
			"-0.003": 27.7941550118,
			"-0.002": 23.2401311212,
			"-0.001": 22.8832064733,
			"0.0": 20.1715957943,
			"0.001": 18.7542762848,
			"0.002": 17.9472139487,
			"0.003": 20.163444493,
			"0.004": 19.4613729451,
			"0.005": 21.9987845989,
			"0.006": 20.5587219685,
			"0.007": 6.99379958082,
			"0.008": 2.35943583929,
			"0.009": 1.92811648368,
			"0.01": 2.18170509021,
			"0.011": 4.86731315758,
			"0.012": 1.96539265339,
			"0.013": 0.0,
			"0.014": 0.0,
			"0.015": 0.0,
			"0.016": 0.0,
			"0.017": 0.0,
			"0.018": 0.0,
			"0.019": 0.0,
			"0.02": 0.0,
			"0.021": 0.0,
			"0.022": 0.0,
			"0.023": 0.0,
			"0.024": 0.0,
			"0.025": 0.0
		}
	}
}
