{
	 "smiles": "CC1=CC(C)=C2C(N)=NNC2=N1", 
	 "Tm": 553.15, 
	 "num_atms": 22, 
	 "gaussian": { 
		 "optdone": 1, 
		 "sigma_profile": "yes", 
		 "theory": "DFT", 
		 "functional": "B3LYP", 
		 "basiset": "6-31G**", 
		 "properties": { 
			 "R2extent": 2254.4169, 
			 "electric_dipole_moment_norm": 2.34289193519, 
			 "electric_quadrupole_moment_norm": 7.10736664806, 
			 "total_energy": -529.889203968, 
			 "HOMO_LUMO_gap": 0.17136, 
			 "cosmo_polarized_energy": -13.1, 
			 "cosmo_cavitation_energy": 25.47, 
			 "cosmo_dispersion_energy": -19.11, 
			 "cosmo_repulsion_energy": 1.53, 
			 "cosmo_total_nonelectrostatic_energy": 7.89, 
			 "SMD_solvation_energy": 1.69 
		},
		"coords": [
			{
				"x": 0.2683578121,
				"y": -1.1611129357,
				"z": 3.1813689003,
				"element": "C" 
			},
			{
				"x": -0.0943273135,
				"y": -0.864704497,
				"z": 1.7468284715,
				"element": "C" 
			},
			{
				"x": 0.9261603995,
				"y": -0.777547211,
				"z": 0.7630636327,
				"element": "C" 
			},
			{
				"x": 0.6383306908,
				"y": -0.5004391679,
				"z": -0.5688249412,
				"element": "C" 
			},
			{
				"x": 1.7144809144,
				"y": -0.3997951341,
				"z": -1.6183739642,
				"element": "C" 
			},
			{
				"x": -0.7250933645,
				"y": -0.316191792,
				"z": -0.8719791835,
				"element": "C" 
			},
			{
				"x": -1.5375744302,
				"y": -0.043818712,
				"z": -2.0243965177,
				"element": "C" 
			},
			{
				"x": -1.1137181422,
				"y": 0.0849098008,
				"z": -3.350139608,
				"element": "N" 
			},
			{
				"x": -2.8214928924,
				"y": 0.0002306552,
				"z": -1.710078347,
				"element": "N" 
			},
			{
				"x": -2.8859437801,
				"y": -0.2530661671,
				"z": -0.3621873194,
				"element": "N" 
			},
			{
				"x": -1.6576542233,
				"y": -0.4386342493,
				"z": 0.1874824938,
				"element": "C" 
			},
			{
				"x": -1.3910009941,
				"y": -0.7003805612,
				"z": 1.4743439851,
				"element": "N" 
			},
			{
				"x": -0.6358243789,
				"y": -1.1997079345,
				"z": 3.7907144935,
				"element": "H" 
			},
			{
				"x": 0.9353881432,
				"y": -0.3920770118,
				"z": 3.5880835383,
				"element": "H" 
			},
			{
				"x": 0.7930125384,
				"y": -2.1198021474,
				"z": 3.2667055107,
				"element": "H" 
			},
			{
				"x": 1.9571059423,
				"y": -0.9366003091,
				"z": 1.0669947847,
				"element": "H" 
			},
			{
				"x": 2.6673064412,
				"y": -0.7869460779,
				"z": -1.2485347103,
				"element": "H" 
			},
			{
				"x": 1.4368643162,
				"y": -0.9548340783,
				"z": -2.5199721326,
				"element": "H" 
			},
			{
				"x": 1.8762789546,
				"y": 0.6445891675,
				"z": -1.9152436718,
				"element": "H" 
			},
			{
				"x": -0.3397983284,
				"y": 0.7286671716,
				"z": -3.4639698461,
				"element": "H" 
			},
			{
				"x": -1.8864734823,
				"y": 0.351313196,
				"z": -3.9508191236,
				"element": "H" 
			},
			{
				"x": -3.7786848229,
				"y": -0.2847520046,
				"z": 0.1017335545,
				"element": "H" 
			}
		],
		 "valence_orbital": [ 
			{
				"type": "occ",
				"energy": -0.28847,
				"method": "rhf"
			},
			{
				"type": "occ",
				"energy": -0.273,
				"method": "rhf"
			},
			{
				"type": "occ",
				"energy": -0.25806,
				"method": "rhf"
			},
			{
				"type": "occ",
				"energy": -0.23311,
				"method": "rhf"
			},
			{
				"type": "occ",
				"energy": -0.20023,
				"method": "rhf"
			},
			{
				"type": "unocc",
				"energy": -0.02887,
				"method": "rhf"
			},
			{
				"type": "unocc",
				"energy": 0.01757,
				"method": "rhf"
			},
			{
				"type": "unocc",
				"energy": 0.06481,
				"method": "rhf"
			},
			{
				"type": "unocc",
				"energy": 0.07957,
				"method": "rhf"
			},
			{
				"type": "unocc",
				"energy": 0.10188,
				"method": "rhf"
			}
		],
		"cosmo_sigma_profile": { 
			"-0.025": 0.0,
			"-0.024": 0.0,
			"-0.023": 0.0,
			"-0.022": 0.0,
			"-0.021": 0.0,
			"-0.02": 0.0,
			"-0.019": 0.0,
			"-0.018": 0.0,
			"-0.017": 0.0,
			"-0.016": 0.530246365832,
			"-0.015": 1.18159627062,
			"-0.014": 1.55915117494,
			"-0.013": 0.597062315663,
			"-0.012": 2.35621962988,
			"-0.011": 2.74147713863,
			"-0.01": 4.17466775078,
			"-0.009": 3.99951976394,
			"-0.008": 3.24644490613,
			"-0.007": 3.0660624599,
			"-0.006": 3.53769862195,
			"-0.005": 10.3849419,
			"-0.004": 13.6783373164,
			"-0.003": 15.7761779277,
			"-0.002": 15.4074602808,
			"-0.001": 16.8118022262,
			"0.0": 16.4486762526,
			"0.001": 9.45381091401,
			"0.002": 15.0257295268,
			"0.003": 15.8874346401,
			"0.004": 9.34563397505,
			"0.005": 5.77150339467,
			"0.006": 5.02078575384,
			"0.007": 3.5504801283,
			"0.008": 3.32391131613,
			"0.009": 2.35347802379,
			"0.01": 2.99034512943,
			"0.011": 3.05023675476,
			"0.012": 2.87724540294,
			"0.013": 2.25621845278,
			"0.014": 2.45216581709,
			"0.015": 1.64560810838,
			"0.016": 1.02441432999,
			"0.017": 0.0,
			"0.018": 0.0,
			"0.019": 0.0,
			"0.02": 0.0,
			"0.021": 0.0,
			"0.022": 0.0,
			"0.023": 0.0,
			"0.024": 0.0,
			"0.025": 0.0
		}
	}
}
