{
	 "smiles": "CC1=CC(C)=CN=C1", 
	 "Tm": 265.35, 
	 "num_atms": 17, 
	 "gaussian": { 
		 "optdone": 1, 
		 "sigma_profile": "yes", 
		 "theory": "DFT", 
		 "functional": "B3LYP", 
		 "basiset": "6-31G**", 
		 "properties": { 
			 "R2extent": 1438.9031, 
			 "electric_dipole_moment_norm": 2.59387215953, 
			 "electric_quadrupole_moment_norm": 9.9469177241, 
			 "total_energy": -326.928090352, 
			 "HOMO_LUMO_gap": 0.22379, 
			 "cosmo_polarized_energy": -6.04, 
			 "cosmo_cavitation_energy": 20.21, 
			 "cosmo_dispersion_energy": -14.99, 
			 "cosmo_repulsion_energy": 1.24, 
			 "cosmo_total_nonelectrostatic_energy": 6.46, 
			 "SMD_solvation_energy": 2.3 
		},
		"coords": [
			{
				"x": -0.7615771381,
				"y": 2.781813928,
				"z": -1.1841410043,
				"element": "C" 
			},
			{
				"x": 0.3208554772,
				"y": 1.7391607755,
				"z": -1.0514804949,
				"element": "C" 
			},
			{
				"x": 0.0302655505,
				"y": 0.4144248886,
				"z": -0.7121373802,
				"element": "C" 
			},
			{
				"x": 1.0548652323,
				"y": -0.5296808682,
				"z": -0.5965043547,
				"element": "C" 
			},
			{
				"x": 0.7746568418,
				"y": -1.96670405,
				"z": -0.2320220535,
				"element": "C" 
			},
			{
				"x": 2.3595233276,
				"y": -0.0789815895,
				"z": -0.8355510081,
				"element": "C" 
			},
			{
				"x": 2.6722351546,
				"y": 1.1790309078,
				"z": -1.1615452739,
				"element": "N" 
			},
			{
				"x": 1.6687835034,
				"y": 2.0561404284,
				"z": -1.2636580019,
				"element": "C" 
			},
			{
				"x": -1.4903622058,
				"y": 2.5059960872,
				"z": -1.9548684485,
				"element": "H" 
			},
			{
				"x": -1.3149274565,
				"y": 2.9054809619,
				"z": -0.2462012558,
				"element": "H" 
			},
			{
				"x": -0.3427401342,
				"y": 3.7550749915,
				"z": -1.4547160541,
				"element": "H" 
			},
			{
				"x": -1.0022238636,
				"y": 0.1156072683,
				"z": -0.5364880136,
				"element": "H" 
			},
			{
				"x": 1.6976716904,
				"y": -2.55162922,
				"z": -0.1898210917,
				"element": "H" 
			},
			{
				"x": 0.2857948742,
				"y": -2.0433275356,
				"z": 0.7459177025,
				"element": "H" 
			},
			{
				"x": 0.1108530649,
				"y": -2.4425849587,
				"z": -0.9628586795,
				"element": "H" 
			},
			{
				"x": 3.1937215689,
				"y": -0.7763132989,
				"z": -0.7581694953,
				"element": "H" 
			},
			{
				"x": 1.9476045125,
				"y": 3.0755912836,
				"z": -1.5303550926,
				"element": "H" 
			}
		],
		 "valence_orbital": [ 
			{
				"type": "occ",
				"energy": -0.3699,
				"method": "rhf"
			},
			{
				"type": "occ",
				"energy": -0.34968,
				"method": "rhf"
			},
			{
				"type": "occ",
				"energy": -0.27013,
				"method": "rhf"
			},
			{
				"type": "occ",
				"energy": -0.24468,
				"method": "rhf"
			},
			{
				"type": "occ",
				"energy": -0.2435,
				"method": "rhf"
			},
			{
				"type": "unocc",
				"energy": -0.01971,
				"method": "rhf"
			},
			{
				"type": "unocc",
				"energy": 0.00069,
				"method": "rhf"
			},
			{
				"type": "unocc",
				"energy": 0.0996,
				"method": "rhf"
			},
			{
				"type": "unocc",
				"energy": 0.11544,
				"method": "rhf"
			},
			{
				"type": "unocc",
				"energy": 0.12778,
				"method": "rhf"
			}
		],
		"cosmo_sigma_profile": { 
			"-0.025": 0.0,
			"-0.024": 0.0,
			"-0.023": 0.0,
			"-0.022": 0.0,
			"-0.021": 0.0,
			"-0.02": 0.0,
			"-0.019": 0.0,
			"-0.018": 0.0,
			"-0.017": 0.0,
			"-0.016": 0.0,
			"-0.015": 0.0,
			"-0.014": 0.0,
			"-0.013": 0.0,
			"-0.012": 0.0,
			"-0.011": 0.0,
			"-0.01": 0.0,
			"-0.009": 0.0,
			"-0.008": 0.0,
			"-0.007": 0.0712283948838,
			"-0.006": 2.30836682969,
			"-0.005": 10.6233410105,
			"-0.004": 19.7078888973,
			"-0.003": 18.2817058317,
			"-0.002": 17.7154734149,
			"-0.001": 18.3005971344,
			"0.0": 19.3959044617,
			"0.001": 10.1595240377,
			"0.002": 7.62532414401,
			"0.003": 11.7221074805,
			"0.004": 6.85622016041,
			"0.005": 2.9812348864,
			"0.006": 2.20698462548,
			"0.007": 1.1649192603,
			"0.008": 1.56968343514,
			"0.009": 1.69055474349,
			"0.01": 0.64686618793,
			"0.011": 1.4817621166,
			"0.012": 0.564923066524,
			"0.013": 1.35101363185,
			"0.014": 0.881227634334,
			"0.015": 0.870114173233,
			"0.016": 1.02292776824,
			"0.017": 0.669765496931,
			"0.018": 0.068667671702,
			"0.019": 0.0,
			"0.02": 0.0,
			"0.021": 0.0,
			"0.022": 0.0,
			"0.023": 0.0,
			"0.024": 0.0,
			"0.025": 0.0
		}
	}
}
