{
	 "smiles": "COC1=CC(F)=CC=C1C(C)=O", 
	 "Tm": 325.15, 
	 "num_atms": 21, 
	 "gaussian": { 
		 "optdone": 1, 
		 "sigma_profile": "yes", 
		 "theory": "DFT", 
		 "functional": "B3LYP", 
		 "basiset": "6-31G**", 
		 "properties": { 
			 "R2extent": 2323.0962, 
			 "electric_dipole_moment_norm": 4.10436581581, 
			 "electric_quadrupole_moment_norm": 10.3465657742, 
			 "total_energy": -598.653248211, 
			 "HOMO_LUMO_gap": 0.18936, 
			 "cosmo_polarized_energy": -8.9, 
			 "cosmo_cavitation_energy": 25.33, 
			 "cosmo_dispersion_energy": -18.28, 
			 "cosmo_repulsion_energy": 1.42, 
			 "cosmo_total_nonelectrostatic_energy": 8.46, 
			 "SMD_solvation_energy": 6.41 
		},
		"coords": [
			{
				"x": -2.0980599264,
				"y": 1.5109071829,
				"z": -0.8960276763,
				"element": "C" 
			},
			{
				"x": -1.3475801496,
				"y": 0.3498211394,
				"z": -0.5623834574,
				"element": "O" 
			},
			{
				"x": 0.0066231318,
				"y": 0.4375242507,
				"z": -0.4766562578,
				"element": "C" 
			},
			{
				"x": 0.6881370435,
				"y": 1.6404557114,
				"z": -0.706478809,
				"element": "C" 
			},
			{
				"x": 2.0730304854,
				"y": 1.6624790326,
				"z": -0.6026285076,
				"element": "C" 
			},
			{
				"x": 2.7050831433,
				"y": 2.8298525564,
				"z": -0.8279472516,
				"element": "F" 
			},
			{
				"x": 2.8195456176,
				"y": 0.5365636948,
				"z": -0.2784725804,
				"element": "C" 
			},
			{
				"x": 2.1266479992,
				"y": -0.6458550244,
				"z": -0.0544634587,
				"element": "C" 
			},
			{
				"x": 0.7279324636,
				"y": -0.7378944288,
				"z": -0.1429856985,
				"element": "C" 
			},
			{
				"x": 0.1415807596,
				"y": -2.0970769984,
				"z": 0.1306891493,
				"element": "C" 
			},
			{
				"x": -1.3530212474,
				"y": -2.3404709944,
				"z": 0.0693403204,
				"element": "C" 
			},
			{
				"x": 0.8912257183,
				"y": -3.0245090531,
				"z": 0.4086892396,
				"element": "O" 
			},
			{
				"x": -1.9643836855,
				"y": 2.3039528617,
				"z": -0.1506052528,
				"element": "H" 
			},
			{
				"x": -3.1422647888,
				"y": 1.1962056336,
				"z": -0.904334633,
				"element": "H" 
			},
			{
				"x": -1.8268844043,
				"y": 1.8937389031,
				"z": -1.8871543626,
				"element": "H" 
			},
			{
				"x": 0.1749615558,
				"y": 2.5572513516,
				"z": -0.9628558553,
				"element": "H" 
			},
			{
				"x": 3.8992070628,
				"y": 0.5981992347,
				"z": -0.2079524371,
				"element": "H" 
			},
			{
				"x": 2.6551640589,
				"y": -1.5574791636,
				"z": 0.2018758812,
				"element": "H" 
			},
			{
				"x": -1.531802782,
				"y": -3.3911089497,
				"z": 0.3019430161,
				"element": "H" 
			},
			{
				"x": -1.8844533035,
				"y": -1.6998630108,
				"z": 0.7790300684,
				"element": "H" 
			},
			{
				"x": -1.7499887523,
				"y": -2.0988939298,
				"z": -0.9208214371,
				"element": "H" 
			}
		],
		 "valence_orbital": [ 
			{
				"type": "occ",
				"energy": -0.34264,
				"method": "rhf"
			},
			{
				"type": "occ",
				"energy": -0.32574,
				"method": "rhf"
			},
			{
				"type": "occ",
				"energy": -0.25787,
				"method": "rhf"
			},
			{
				"type": "occ",
				"energy": -0.2428,
				"method": "rhf"
			},
			{
				"type": "occ",
				"energy": -0.23666,
				"method": "rhf"
			},
			{
				"type": "unocc",
				"energy": -0.0473,
				"method": "rhf"
			},
			{
				"type": "unocc",
				"energy": -0.00546,
				"method": "rhf"
			},
			{
				"type": "unocc",
				"energy": 0.04326,
				"method": "rhf"
			},
			{
				"type": "unocc",
				"energy": 0.08028,
				"method": "rhf"
			},
			{
				"type": "unocc",
				"energy": 0.09121,
				"method": "rhf"
			}
		],
		"cosmo_sigma_profile": { 
			"-0.025": 0.0,
			"-0.024": 0.0,
			"-0.023": 0.0,
			"-0.022": 0.0,
			"-0.021": 0.0,
			"-0.02": 0.0,
			"-0.019": 0.0,
			"-0.018": 0.0,
			"-0.017": 0.0,
			"-0.016": 0.0,
			"-0.015": 0.0,
			"-0.014": 0.0,
			"-0.013": 0.0,
			"-0.012": 0.0,
			"-0.011": 0.0,
			"-0.01": 0.0,
			"-0.009": 0.0646051207716,
			"-0.008": 1.88145548111,
			"-0.007": 4.89037098568,
			"-0.006": 11.1237769105,
			"-0.005": 14.4757184042,
			"-0.004": 18.2614882999,
			"-0.003": 15.3389292577,
			"-0.002": 12.1377679534,
			"-0.001": 15.2700198233,
			"0.0": 20.7238621869,
			"0.001": 18.5243309198,
			"0.002": 20.3162160636,
			"0.003": 16.2229551842,
			"0.004": 13.1533569289,
			"0.005": 2.02983775361,
			"0.006": 1.64274560704,
			"0.007": 1.13649268669,
			"0.008": 2.25060520146,
			"0.009": 1.67671013581,
			"0.01": 1.73964387337,
			"0.011": 2.56915047011,
			"0.012": 3.96334102665,
			"0.013": 2.10324151414,
			"0.014": 0.46635588304,
			"0.015": 0.0,
			"0.016": 0.0,
			"0.017": 0.0,
			"0.018": 0.0,
			"0.019": 0.0,
			"0.02": 0.0,
			"0.021": 0.0,
			"0.022": 0.0,
			"0.023": 0.0,
			"0.024": 0.0,
			"0.025": 0.0
		}
	}
}
