{
	 "smiles": "COC(=O)N1N=C(C)C=C1C(=O)OC", 
	 "Tm": 384.15, 
	 "num_atms": 24, 
	 "gaussian": { 
		 "optdone": 1, 
		 "sigma_profile": "yes", 
		 "theory": "DFT", 
		 "functional": "B3LYP", 
		 "basiset": "6-31G**", 
		 "properties": { 
			 "R2extent": 3471.5835, 
			 "electric_dipole_moment_norm": 2.43046334883, 
			 "electric_quadrupole_moment_norm": 20.98634028, 
			 "total_energy": -721.262752068, 
			 "HOMO_LUMO_gap": 0.20933, 
			 "cosmo_polarized_energy": -14.05, 
			 "cosmo_cavitation_energy": 29.66, 
			 "cosmo_dispersion_energy": -20.57, 
			 "cosmo_repulsion_energy": 1.66, 
			 "cosmo_total_nonelectrostatic_energy": 10.75, 
			 "SMD_solvation_energy": 7.87 
		},
		"coords": [
			{
				"x": 1.0471653395,
				"y": -2.9463167492,
				"z": -0.8279179558,
				"element": "C" 
			},
			{
				"x": 0.0127405763,
				"y": -1.9500817739,
				"z": -0.7391479889,
				"element": "O" 
			},
			{
				"x": -0.8805000473,
				"y": -2.1593194232,
				"z": 0.237744335,
				"element": "C" 
			},
			{
				"x": -0.9489064858,
				"y": -3.12866695,
				"z": 0.9464598409,
				"element": "O" 
			},
			{
				"x": -1.7914442533,
				"y": -1.0675805962,
				"z": 0.2995306877,
				"element": "N" 
			},
			{
				"x": -3.0905346617,
				"y": -1.3596325186,
				"z": 0.5868616147,
				"element": "N" 
			},
			{
				"x": -3.7615623371,
				"y": -0.2311578497,
				"z": 0.3937045192,
				"element": "C" 
			},
			{
				"x": -5.2399522971,
				"y": -0.176043374,
				"z": 0.6248848665,
				"element": "C" 
			},
			{
				"x": -2.8953397784,
				"y": 0.8110391917,
				"z": -0.0365979548,
				"element": "C" 
			},
			{
				"x": -1.6394776348,
				"y": 0.2518548588,
				"z": -0.0898836797,
				"element": "C" 
			},
			{
				"x": -0.3784212186,
				"y": 0.9944038942,
				"z": -0.3165776111,
				"element": "C" 
			},
			{
				"x": -0.3097105874,
				"y": 1.982007767,
				"z": -1.0180663995,
				"element": "O" 
			},
			{
				"x": 0.6484972871,
				"y": 0.5087866659,
				"z": 0.4099982549,
				"element": "O" 
			},
			{
				"x": 1.8892306287,
				"y": 1.2193190916,
				"z": 0.2582416539,
				"element": "C" 
			},
			{
				"x": 1.6239503372,
				"y": -2.9805673764,
				"z": 0.0994880051,
				"element": "H" 
			},
			{
				"x": 1.6763828242,
				"y": -2.6367909262,
				"z": -1.6615652352,
				"element": "H" 
			},
			{
				"x": 0.6117457446,
				"y": -3.9297904878,
				"z": -1.0164701209,
				"element": "H" 
			},
			{
				"x": -5.771430277,
				"y": 0.1264453924,
				"z": -0.2836526419,
				"element": "H" 
			},
			{
				"x": -5.4907345453,
				"y": 0.5475304957,
				"z": 1.4082062833,
				"element": "H" 
			},
			{
				"x": -5.603473229,
				"y": -1.1586036557,
				"z": 0.9316806098,
				"element": "H" 
			},
			{
				"x": -3.1350058364,
				"y": 1.8430148015,
				"z": -0.2456980744,
				"element": "H" 
			},
			{
				"x": 2.5982006247,
				"y": 0.7123125006,
				"z": 0.9122126869,
				"element": "H" 
			},
			{
				"x": 1.7713030873,
				"y": 2.2640802621,
				"z": 0.5551777694,
				"element": "H" 
			},
			{
				"x": 2.2279767398,
				"y": 1.1835567596,
				"z": -0.7802134652,
				"element": "H" 
			}
		],
		 "valence_orbital": [ 
			{
				"type": "occ",
				"energy": -0.303,
				"method": "rhf"
			},
			{
				"type": "occ",
				"energy": -0.29832,
				"method": "rhf"
			},
			{
				"type": "occ",
				"energy": -0.28407,
				"method": "rhf"
			},
			{
				"type": "occ",
				"energy": -0.26484,
				"method": "rhf"
			},
			{
				"type": "occ",
				"energy": -0.26176,
				"method": "rhf"
			},
			{
				"type": "unocc",
				"energy": -0.05243,
				"method": "rhf"
			},
			{
				"type": "unocc",
				"energy": 0.00773,
				"method": "rhf"
			},
			{
				"type": "unocc",
				"energy": 0.04649,
				"method": "rhf"
			},
			{
				"type": "unocc",
				"energy": 0.0719,
				"method": "rhf"
			},
			{
				"type": "unocc",
				"energy": 0.09232,
				"method": "rhf"
			}
		],
		"cosmo_sigma_profile": { 
			"-0.025": 0.0,
			"-0.024": 0.0,
			"-0.023": 0.0,
			"-0.022": 0.0,
			"-0.021": 0.0,
			"-0.02": 0.0,
			"-0.019": 0.0,
			"-0.018": 0.0,
			"-0.017": 0.0,
			"-0.016": 0.0,
			"-0.015": 0.0,
			"-0.014": 0.0,
			"-0.013": 0.0,
			"-0.012": 0.0,
			"-0.011": 0.0,
			"-0.01": 0.0,
			"-0.009": 0.515668079547,
			"-0.008": 1.81857817852,
			"-0.007": 6.79188358981,
			"-0.006": 15.2279410458,
			"-0.005": 21.1032683822,
			"-0.004": 27.9968805695,
			"-0.003": 22.9298623489,
			"-0.002": 17.9544084465,
			"-0.001": 21.0749916503,
			"0.0": 16.0675897199,
			"0.001": 14.3721622383,
			"0.002": 11.2537718725,
			"0.003": 7.11475894534,
			"0.004": 5.73615325618,
			"0.005": 5.56925884796,
			"0.006": 4.72924145788,
			"0.007": 3.27505721267,
			"0.008": 3.55488202552,
			"0.009": 5.35225908835,
			"0.01": 7.24026411206,
			"0.011": 8.86102577913,
			"0.012": 3.60666483142,
			"0.013": 2.02988818311,
			"0.014": 1.26999681653,
			"0.015": 0.601944460175,
			"0.016": 0.0,
			"0.017": 0.0,
			"0.018": 0.0,
			"0.019": 0.0,
			"0.02": 0.0,
			"0.021": 0.0,
			"0.022": 0.0,
			"0.023": 0.0,
			"0.024": 0.0,
			"0.025": 0.0
		}
	}
}
