{
	 "smiles": "COC(=O)CCCCC(=O)OC", 
	 "Tm": 282.3, 
	 "num_atms": 26, 
	 "gaussian": { 
		 "optdone": 1, 
		 "sigma_profile": "yes", 
		 "theory": "DFT", 
		 "functional": "B3LYP", 
		 "basiset": "6-31G**", 
		 "properties": { 
			 "R2extent": 3543.3771, 
			 "electric_dipole_moment_norm": 1.48717676824, 
			 "electric_quadrupole_moment_norm": 14.8644016018, 
			 "total_energy": -614.208947147, 
			 "HOMO_LUMO_gap": 0.27508, 
			 "cosmo_polarized_energy": -11.9, 
			 "cosmo_cavitation_energy": 29.99, 
			 "cosmo_dispersion_energy": -21.09, 
			 "cosmo_repulsion_energy": 1.76, 
			 "cosmo_total_nonelectrostatic_energy": 10.65, 
			 "SMD_solvation_energy": 7.95 
		},
		"coords": [
			{
				"x": -0.7735710938,
				"y": 3.5058932408,
				"z": -2.8345538161,
				"element": "C" 
			},
			{
				"x": 0.0105847837,
				"y": 2.8043408576,
				"z": -1.8569551688,
				"element": "O" 
			},
			{
				"x": -0.1208344064,
				"y": 1.4558525567,
				"z": -1.8691655537,
				"element": "C" 
			},
			{
				"x": -0.8359400987,
				"y": 0.8655730521,
				"z": -2.6497987242,
				"element": "O" 
			},
			{
				"x": 0.7234730463,
				"y": 0.8152892945,
				"z": -0.7867692678,
				"element": "C" 
			},
			{
				"x": 0.250398282,
				"y": 1.192059874,
				"z": 0.6320336843,
				"element": "C" 
			},
			{
				"x": 1.1015030339,
				"y": 0.5745361735,
				"z": 1.7533023959,
				"element": "C" 
			},
			{
				"x": 1.0103732665,
				"y": -0.9515832503,
				"z": 1.8726269486,
				"element": "C" 
			},
			{
				"x": -0.347435578,
				"y": -1.4327003087,
				"z": 2.351350233,
				"element": "C" 
			},
			{
				"x": -1.20055574,
				"y": -0.7421491071,
				"z": 2.8679481281,
				"element": "O" 
			},
			{
				"x": -0.4866158313,
				"y": -2.7621873919,
				"z": 2.1527070027,
				"element": "O" 
			},
			{
				"x": -1.7279442068,
				"y": -3.3262936135,
				"z": 2.6077953635,
				"element": "C" 
			},
			{
				"x": -0.5562910595,
				"y": 4.563498934,
				"z": -2.6843502378,
				"element": "H" 
			},
			{
				"x": -0.4956004997,
				"y": 3.1973682298,
				"z": -3.845652794,
				"element": "H" 
			},
			{
				"x": -1.8387321761,
				"y": 3.3087985519,
				"z": -2.6889851088,
				"element": "H" 
			},
			{
				"x": 0.6773906586,
				"y": -0.2631865615,
				"z": -0.9542119915,
				"element": "H" 
			},
			{
				"x": 1.7630816009,
				"y": 1.1393383828,
				"z": -0.9208955831,
				"element": "H" 
			},
			{
				"x": -0.7951169325,
				"y": 0.8930171087,
				"z": 0.7659798128,
				"element": "H" 
			},
			{
				"x": 0.2783651525,
				"y": 2.2823570455,
				"z": 0.7270495753,
				"element": "H" 
			},
			{
				"x": 2.1534606551,
				"y": 0.8508717914,
				"z": 1.6073365103,
				"element": "H" 
			},
			{
				"x": 0.7867168953,
				"y": 1.0108154492,
				"z": 2.7066969386,
				"element": "H" 
			},
			{
				"x": 1.2486741491,
				"y": -1.4627852847,
				"z": 0.9341988344,
				"element": "H" 
			},
			{
				"x": 1.7478066344,
				"y": -1.3175070286,
				"z": 2.5993133744,
				"element": "H" 
			},
			{
				"x": -1.8472150212,
				"y": -3.1793638265,
				"z": 3.6842896879,
				"element": "H" 
			},
			{
				"x": -2.57295828,
				"y": -2.8613221904,
				"z": 2.0939740661,
				"element": "H" 
			},
			{
				"x": -1.6734172344,
				"y": -4.3886319794,
				"z": 2.3703356899,
				"element": "H" 
			}
		],
		 "valence_orbital": [ 
			{
				"type": "occ",
				"energy": -0.33305,
				"method": "rhf"
			},
			{
				"type": "occ",
				"energy": -0.30159,
				"method": "rhf"
			},
			{
				"type": "occ",
				"energy": -0.29721,
				"method": "rhf"
			},
			{
				"type": "occ",
				"energy": -0.27214,
				"method": "rhf"
			},
			{
				"type": "occ",
				"energy": -0.26394,
				"method": "rhf"
			},
			{
				"type": "unocc",
				"energy": 0.01114,
				"method": "rhf"
			},
			{
				"type": "unocc",
				"energy": 0.015,
				"method": "rhf"
			},
			{
				"type": "unocc",
				"energy": 0.08439,
				"method": "rhf"
			},
			{
				"type": "unocc",
				"energy": 0.11251,
				"method": "rhf"
			},
			{
				"type": "unocc",
				"energy": 0.11525,
				"method": "rhf"
			}
		],
		"cosmo_sigma_profile": { 
			"-0.025": 0.0,
			"-0.024": 0.0,
			"-0.023": 0.0,
			"-0.022": 0.0,
			"-0.021": 0.0,
			"-0.02": 0.0,
			"-0.019": 0.0,
			"-0.018": 0.0,
			"-0.017": 0.0,
			"-0.016": 0.0,
			"-0.015": 0.0,
			"-0.014": 0.0,
			"-0.013": 0.0,
			"-0.012": 0.0,
			"-0.011": 0.0,
			"-0.01": 0.0,
			"-0.009": 0.0,
			"-0.008": 0.0,
			"-0.007": 1.30041724645,
			"-0.006": 13.0042273008,
			"-0.005": 21.504621192,
			"-0.004": 27.4383773803,
			"-0.003": 36.3021144368,
			"-0.002": 27.7945152937,
			"-0.001": 19.1715998888,
			"0.0": 12.2912077554,
			"0.001": 8.84771322509,
			"0.002": 7.25622254582,
			"0.003": 6.46940378523,
			"0.004": 6.45628792932,
			"0.005": 5.09513022502,
			"0.006": 5.76864840975,
			"0.007": 4.66126575381,
			"0.008": 6.50491492186,
			"0.009": 3.31478412667,
			"0.01": 3.82425711033,
			"0.011": 5.4612637361,
			"0.012": 8.88000327669,
			"0.013": 3.02060210559,
			"0.014": 0.0671005164796,
			"0.015": 0.0,
			"0.016": 0.0,
			"0.017": 0.0,
			"0.018": 0.0,
			"0.019": 0.0,
			"0.02": 0.0,
			"0.021": 0.0,
			"0.022": 0.0,
			"0.023": 0.0,
			"0.024": 0.0,
			"0.025": 0.0
		}
	}
}
