{
	 "smiles": "NC(=S)CC(=O)N1CCOCC1", 
	 "Tm": 290.15, 
	 "num_atms": 24, 
	 "gaussian": { 
		 "optdone": 1, 
		 "sigma_profile": "yes", 
		 "theory": "DFT", 
		 "functional": "B3LYP", 
		 "basiset": "6-31G**", 
		 "properties": { 
			 "R2extent": 3009.3808, 
			 "electric_dipole_moment_norm": 5.80915899765, 
			 "electric_quadrupole_moment_norm": 27.618225489, 
			 "total_energy": -932.113699578, 
			 "HOMO_LUMO_gap": 0.17436, 
			 "cosmo_polarized_energy": -25.42, 
			 "cosmo_cavitation_energy": 27.92, 
			 "cosmo_dispersion_energy": -20.54, 
			 "cosmo_repulsion_energy": 1.62, 
			 "cosmo_total_nonelectrostatic_energy": 9.0, 
			 "SMD_solvation_energy": 3.71 
		},
		"coords": [
			{
				"x": -3.6495313613,
				"y": -0.7313510613,
				"z": -1.7418349962,
				"element": "N" 
			},
			{
				"x": -2.4213133476,
				"y": -1.2379408197,
				"z": -1.499747586,
				"element": "C" 
			},
			{
				"x": -1.583945704,
				"y": -2.1153336646,
				"z": -2.6328043341,
				"element": "S" 
			},
			{
				"x": -1.9181810982,
				"y": -0.9587948881,
				"z": -0.0900555606,
				"element": "C" 
			},
			{
				"x": -0.4013470821,
				"y": -1.0403566298,
				"z": 0.124175628,
				"element": "C" 
			},
			{
				"x": 0.0633027134,
				"y": -1.9320819061,
				"z": 0.8234993574,
				"element": "O" 
			},
			{
				"x": 0.376301071,
				"y": -0.0466019933,
				"z": -0.4160055938,
				"element": "N" 
			},
			{
				"x": -0.0581305518,
				"y": 0.970284173,
				"z": -1.3703524182,
				"element": "C" 
			},
			{
				"x": 0.6193755771,
				"y": 2.3034104257,
				"z": -1.0371783657,
				"element": "C" 
			},
			{
				"x": 2.030407828,
				"y": 2.1729779405,
				"z": -0.9940729927,
				"element": "O" 
			},
			{
				"x": 2.4267669585,
				"y": 1.2217916683,
				"z": -0.0106235151,
				"element": "C" 
			},
			{
				"x": 1.832561564,
				"y": -0.1545159881,
				"z": -0.2966042674,
				"element": "C" 
			},
			{
				"x": -4.0999264001,
				"y": -0.9486467332,
				"z": -2.6196017505,
				"element": "H" 
			},
			{
				"x": -4.1891494422,
				"y": -0.270419441,
				"z": -1.023438453,
				"element": "H" 
			},
			{
				"x": -2.3287653431,
				"y": -1.7322185685,
				"z": 0.5666926582,
				"element": "H" 
			},
			{
				"x": -2.3032972438,
				"y": 0.0069516281,
				"z": 0.2641534328,
				"element": "H" 
			},
			{
				"x": -1.1421429005,
				"y": 1.0925990834,
				"z": -1.3371409553,
				"element": "H" 
			},
			{
				"x": 0.2112425481,
				"y": 0.6634569069,
				"z": -2.3904099072,
				"element": "H" 
			},
			{
				"x": 0.239735572,
				"y": 2.6761475667,
				"z": -0.0704560444,
				"element": "H" 
			},
			{
				"x": 0.3951929182,
				"y": 3.0448468351,
				"z": -1.8099140982,
				"element": "H" 
			},
			{
				"x": 2.1143354515,
				"y": 1.5615632392,
				"z": 0.9905282296,
				"element": "H" 
			},
			{
				"x": 3.5192111915,
				"y": 1.181524976,
				"z": -0.0403062226,
				"element": "H" 
			},
			{
				"x": 2.0519516331,
				"y": -0.8626661002,
				"z": 0.5030262698,
				"element": "H" 
			},
			{
				"x": 2.2470454483,
				"y": -0.5484266489,
				"z": -1.2356285148,
				"element": "H" 
			}
		],
		 "valence_orbital": [ 
			{
				"type": "occ",
				"energy": -0.27193,
				"method": "rhf"
			},
			{
				"type": "occ",
				"energy": -0.25008,
				"method": "rhf"
			},
			{
				"type": "occ",
				"energy": -0.24146,
				"method": "rhf"
			},
			{
				"type": "occ",
				"energy": -0.23378,
				"method": "rhf"
			},
			{
				"type": "occ",
				"energy": -0.2165,
				"method": "rhf"
			},
			{
				"type": "unocc",
				"energy": -0.04214,
				"method": "rhf"
			},
			{
				"type": "unocc",
				"energy": 0.01556,
				"method": "rhf"
			},
			{
				"type": "unocc",
				"energy": 0.0549,
				"method": "rhf"
			},
			{
				"type": "unocc",
				"energy": 0.08096,
				"method": "rhf"
			},
			{
				"type": "unocc",
				"energy": 0.09221,
				"method": "rhf"
			}
		],
		"cosmo_sigma_profile": { 
			"-0.025": 0.0,
			"-0.024": 0.0,
			"-0.023": 0.0,
			"-0.022": 0.0,
			"-0.021": 0.0,
			"-0.02": 0.0,
			"-0.019": 0.0,
			"-0.018": 0.0,
			"-0.017": 0.0,
			"-0.016": 0.893359169042,
			"-0.015": 2.89668831083,
			"-0.014": 3.03330316341,
			"-0.013": 2.70160081077,
			"-0.012": 2.87523489835,
			"-0.011": 2.77220906343,
			"-0.01": 2.5199862625,
			"-0.009": 3.66464370434,
			"-0.008": 4.1795201683,
			"-0.007": 5.63484102467,
			"-0.006": 8.85039244728,
			"-0.005": 16.0277990814,
			"-0.004": 25.2367817568,
			"-0.003": 19.5471903685,
			"-0.002": 12.4967848964,
			"-0.001": 8.95817004479,
			"0.0": 7.72354979244,
			"0.001": 6.79189924589,
			"0.002": 7.44940751921,
			"0.003": 6.20367332149,
			"0.004": 5.74970670521,
			"0.005": 6.401229247,
			"0.006": 7.12535545778,
			"0.007": 7.81639015321,
			"0.008": 7.80820173286,
			"0.009": 7.69035367386,
			"0.01": 6.8486145294,
			"0.011": 6.07338021948,
			"0.012": 4.62359203235,
			"0.013": 6.17765601814,
			"0.014": 3.72268784575,
			"0.015": 0.530945027052,
			"0.016": 0.0,
			"0.017": 0.0,
			"0.018": 0.0,
			"0.019": 0.0,
			"0.02": 0.0,
			"0.021": 0.0,
			"0.022": 0.0,
			"0.023": 0.0,
			"0.024": 0.0,
			"0.025": 0.0
		}
	}
}
