{
	 "smiles": "NC1=C(CCC1)C#N", 
	 "Tm": 420.15, 
	 "num_atms": 16, 
	 "gaussian": { 
		 "optdone": 1, 
		 "sigma_profile": "yes", 
		 "theory": "DFT", 
		 "functional": "B3LYP", 
		 "basiset": "6-31G**", 
		 "properties": { 
			 "R2extent": 1482.2422, 
			 "electric_dipole_moment_norm": 5.3424563695, 
			 "electric_quadrupole_moment_norm": 16.4582113083, 
			 "total_energy": -342.946674841, 
			 "HOMO_LUMO_gap": 0.20067, 
			 "cosmo_polarized_energy": -13.27, 
			 "cosmo_cavitation_energy": 19.83, 
			 "cosmo_dispersion_energy": -14.42, 
			 "cosmo_repulsion_energy": 1.24, 
			 "cosmo_total_nonelectrostatic_energy": 6.64, 
			 "SMD_solvation_energy": 4.39 
		},
		"coords": [
			{
				"x": -3.5569885547,
				"y": 0.2420445031,
				"z": -0.4169046757,
				"element": "N" 
			},
			{
				"x": -2.2558343107,
				"y": 0.6508325946,
				"z": -0.3463571708,
				"element": "C" 
			},
			{
				"x": -1.2374521889,
				"y": 0.0752242894,
				"z": 0.3545947417,
				"element": "C" 
			},
			{
				"x": 0.0252229627,
				"y": 0.917177723,
				"z": 0.295364535,
				"element": "C" 
			},
			{
				"x": -0.267965799,
				"y": 1.8759455779,
				"z": -0.886826665,
				"element": "C" 
			},
			{
				"x": -1.8090416969,
				"y": 1.9430905369,
				"z": -0.9896692843,
				"element": "C" 
			},
			{
				"x": -1.3845110474,
				"y": -1.1239144433,
				"z": 1.0913651495,
				"element": "C" 
			},
			{
				"x": -1.5345877678,
				"y": -2.1212865456,
				"z": 1.6801434871,
				"element": "N" 
			},
			{
				"x": -3.7775130859,
				"y": -0.6779338491,
				"z": -0.0599336904,
				"element": "H" 
			},
			{
				"x": -4.1048459634,
				"y": 0.5366773626,
				"z": -1.2107375034,
				"element": "H" 
			},
			{
				"x": 0.1790215605,
				"y": 1.4691582991,
				"z": 1.2332778819,
				"element": "H" 
			},
			{
				"x": 0.9274673658,
				"y": 0.3193663384,
				"z": 0.128983326,
				"element": "H" 
			},
			{
				"x": 0.1873136342,
				"y": 2.8611645168,
				"z": -0.7560616829,
				"element": "H" 
			},
			{
				"x": 0.1363124554,
				"y": 1.4465682344,
				"z": -1.809151361,
				"element": "H" 
			},
			{
				"x": -2.1665898307,
				"y": 2.0423125165,
				"z": -2.0222268713,
				"element": "H" 
			},
			{
				"x": -2.2260077333,
				"y": 2.7906723453,
				"z": -0.4278602165,
				"element": "H" 
			}
		],
		 "valence_orbital": [ 
			{
				"type": "occ",
				"energy": -0.33864,
				"method": "rhf"
			},
			{
				"type": "occ",
				"energy": -0.33285,
				"method": "rhf"
			},
			{
				"type": "occ",
				"energy": -0.32369,
				"method": "rhf"
			},
			{
				"type": "occ",
				"energy": -0.3065,
				"method": "rhf"
			},
			{
				"type": "occ",
				"energy": -0.21066,
				"method": "rhf"
			},
			{
				"type": "unocc",
				"energy": -0.00999,
				"method": "rhf"
			},
			{
				"type": "unocc",
				"energy": 0.04152,
				"method": "rhf"
			},
			{
				"type": "unocc",
				"energy": 0.06998,
				"method": "rhf"
			},
			{
				"type": "unocc",
				"energy": 0.09044,
				"method": "rhf"
			},
			{
				"type": "unocc",
				"energy": 0.10908,
				"method": "rhf"
			}
		],
		"cosmo_sigma_profile": { 
			"-0.025": 0.0,
			"-0.024": 0.0,
			"-0.023": 0.0,
			"-0.022": 0.0,
			"-0.021": 0.0,
			"-0.02": 0.0,
			"-0.019": 0.0,
			"-0.018": 0.0,
			"-0.017": 0.0,
			"-0.016": 0.0,
			"-0.015": 0.0201136811043,
			"-0.014": 1.12301069728,
			"-0.013": 2.24380460446,
			"-0.012": 2.14705773635,
			"-0.011": 2.47099291338,
			"-0.01": 3.11715891523,
			"-0.009": 2.1179301926,
			"-0.008": 1.92347130044,
			"-0.007": 2.49116997724,
			"-0.006": 2.77278518159,
			"-0.005": 4.89196659859,
			"-0.004": 9.52548119231,
			"-0.003": 16.4206804604,
			"-0.002": 20.4446324338,
			"-0.001": 16.9475248622,
			"0.0": 13.3413697655,
			"0.001": 6.32894099629,
			"0.002": 6.01024993883,
			"0.003": 6.53240476541,
			"0.004": 3.97897074607,
			"0.005": 2.84074475228,
			"0.006": 2.68250759121,
			"0.007": 2.84433507693,
			"0.008": 3.17130226692,
			"0.009": 3.08533582006,
			"0.01": 3.52215259614,
			"0.011": 3.72516079971,
			"0.012": 3.45179567467,
			"0.013": 2.91331186591,
			"0.014": 2.61954271791,
			"0.015": 1.00678363216,
			"0.016": 0.0,
			"0.017": 0.0,
			"0.018": 0.0,
			"0.019": 0.0,
			"0.02": 0.0,
			"0.021": 0.0,
			"0.022": 0.0,
			"0.023": 0.0,
			"0.024": 0.0,
			"0.025": 0.0
		}
	}
}
