{
	 "smiles": "CC(=O)NC1=CC=C(C)C(NS(=O)(=O)C(F)(F)F)=C1", 
	 "Tm": 449.15, 
	 "num_atms": 30, 
	 "gaussian": { 
		 "optdone": 1, 
		 "sigma_profile": "yes", 
		 "theory": "DFT", 
		 "functional": "B3LYP", 
		 "basiset": "6-31G**", 
		 "properties": { 
			 "R2extent": 7956.3909, 
			 "electric_dipole_moment_norm": 4.69815740158, 
			 "electric_quadrupole_moment_norm": 25.5022106007, 
			 "total_energy": -1420.51157503, 
			 "HOMO_LUMO_gap": 0.20116, 
			 "cosmo_polarized_energy": -18.68, 
			 "cosmo_cavitation_energy": 37.28, 
			 "cosmo_dispersion_energy": -25.85, 
			 "cosmo_repulsion_energy": 1.9, 
			 "cosmo_total_nonelectrostatic_energy": 13.33, 
			 "SMD_solvation_energy": 7.52 
		},
		"coords": [
			{
				"x": -2.099265844,
				"y": 6.208703714,
				"z": -0.6341536769,
				"element": "C" 
			},
			{
				"x": -1.8345690072,
				"y": 5.7466426019,
				"z": 0.7855790838,
				"element": "C" 
			},
			{
				"x": -2.3779032798,
				"y": 6.2665383294,
				"z": 1.7482663771,
				"element": "O" 
			},
			{
				"x": -0.9607057264,
				"y": 4.6878611212,
				"z": 0.9955299863,
				"element": "N" 
			},
			{
				"x": -0.2193042946,
				"y": 3.885446587,
				"z": 0.1048827468,
				"element": "C" 
			},
			{
				"x": 0.4460154585,
				"y": 4.4024394953,
				"z": -1.0147332206,
				"element": "C" 
			},
			{
				"x": 1.1810942546,
				"y": 3.5526463126,
				"z": -1.8380958455,
				"element": "C" 
			},
			{
				"x": 1.3022867721,
				"y": 2.1833452772,
				"z": -1.5843549662,
				"element": "C" 
			},
			{
				"x": 2.0973058116,
				"y": 1.2852384977,
				"z": -2.5010405451,
				"element": "C" 
			},
			{
				"x": 0.6595760352,
				"y": 1.6880296616,
				"z": -0.4332093473,
				"element": "C" 
			},
			{
				"x": 0.8016820536,
				"y": 0.3052249366,
				"z": -0.0917881203,
				"element": "N" 
			},
			{
				"x": -0.4935278446,
				"y": -0.7654711445,
				"z": -0.0058283698,
				"element": "S" 
			},
			{
				"x": -0.0564163529,
				"y": -2.0149526831,
				"z": -0.6212596858,
				"element": "O" 
			},
			{
				"x": -1.7432064897,
				"y": -0.0945880296,
				"z": -0.3327315433,
				"element": "O" 
			},
			{
				"x": -0.5491015696,
				"y": -1.1056236063,
				"z": 1.8293084027,
				"element": "C" 
			},
			{
				"x": -0.8115297206,
				"y": 0.0222200228,
				"z": 2.5001558486,
				"element": "F" 
			},
			{
				"x": -1.5128192932,
				"y": -1.9923403023,
				"z": 2.0670275769,
				"element": "F" 
			},
			{
				"x": 0.622353874,
				"y": -1.5955876229,
				"z": 2.2332704244,
				"element": "F" 
			},
			{
				"x": -0.0842409373,
				"y": 2.5222678086,
				"z": 0.3988030778,
				"element": "C" 
			},
			{
				"x": -3.0779095708,
				"y": 6.6896363014,
				"z": -0.6380910225,
				"element": "H" 
			},
			{
				"x": -1.3575436839,
				"y": 6.9564812305,
				"z": -0.9347440815,
				"element": "H" 
			},
			{
				"x": -2.0775407342,
				"y": 5.3936821449,
				"z": -1.3607841525,
				"element": "H" 
			},
			{
				"x": -0.9753397038,
				"y": 4.3928849988,
				"z": 1.9645561608,
				"element": "H" 
			},
			{
				"x": 0.4135709848,
				"y": 5.4628383407,
				"z": -1.2310135261,
				"element": "H" 
			},
			{
				"x": 1.6858095723,
				"y": 3.9693122628,
				"z": -2.7054186893,
				"element": "H" 
			},
			{
				"x": 2.9956307503,
				"y": 0.880682369,
				"z": -2.0144070057,
				"element": "H" 
			},
			{
				"x": 2.4361922913,
				"y": 1.8374265272,
				"z": -3.380512935,
				"element": "H" 
			},
			{
				"x": 1.5041988899,
				"y": 0.4333991399,
				"z": -2.8538523987,
				"element": "H" 
			},
			{
				"x": 1.5887665351,
				"y": -0.1757563724,
				"z": -0.5143750752,
				"element": "H" 
			},
			{
				"x": -0.5697592306,
				"y": 2.1088720801,
				"z": 1.2750145219,
				"element": "H" 
			}
		],
		 "valence_orbital": [ 
			{
				"type": "occ",
				"energy": -0.33355,
				"method": "rhf"
			},
			{
				"type": "occ",
				"energy": -0.29874,
				"method": "rhf"
			},
			{
				"type": "occ",
				"energy": -0.25882,
				"method": "rhf"
			},
			{
				"type": "occ",
				"energy": -0.25692,
				"method": "rhf"
			},
			{
				"type": "occ",
				"energy": -0.2316,
				"method": "rhf"
			},
			{
				"type": "unocc",
				"energy": -0.03044,
				"method": "rhf"
			},
			{
				"type": "unocc",
				"energy": -0.02619,
				"method": "rhf"
			},
			{
				"type": "unocc",
				"energy": 0.02604,
				"method": "rhf"
			},
			{
				"type": "unocc",
				"energy": 0.03174,
				"method": "rhf"
			},
			{
				"type": "unocc",
				"energy": 0.04132,
				"method": "rhf"
			}
		],
		"cosmo_sigma_profile": { 
			"-0.025": 0.0,
			"-0.024": 0.0,
			"-0.023": 0.0,
			"-0.022": 0.0,
			"-0.021": 0.0,
			"-0.02": 0.0,
			"-0.019": 0.0,
			"-0.018": 0.0,
			"-0.017": 0.0,
			"-0.016": 0.190059106364,
			"-0.015": 0.863284192635,
			"-0.014": 1.46687527914,
			"-0.013": 2.55383939205,
			"-0.012": 2.06665132918,
			"-0.011": 2.11954959293,
			"-0.01": 2.73808166099,
			"-0.009": 2.70569820769,
			"-0.008": 4.22323195349,
			"-0.007": 6.76817143169,
			"-0.006": 11.6988376054,
			"-0.005": 17.1138599919,
			"-0.004": 17.4183000409,
			"-0.003": 19.7413992546,
			"-0.002": 24.049924083,
			"-0.001": 29.2571859531,
			"0.0": 33.977457703,
			"0.001": 27.6298311806,
			"0.002": 13.7287929887,
			"0.003": 13.6787093334,
			"0.004": 11.6616056263,
			"0.005": 5.20431592037,
			"0.006": 3.79339451016,
			"0.007": 5.4292496284,
			"0.008": 9.92268266908,
			"0.009": 10.9696437957,
			"0.01": 2.89988377597,
			"0.011": 1.77026240829,
			"0.012": 2.49942622234,
			"0.013": 5.17829518956,
			"0.014": 3.42928930643,
			"0.015": 0.403225698449,
			"0.016": 0.0,
			"0.017": 0.0,
			"0.018": 0.0,
			"0.019": 0.0,
			"0.02": 0.0,
			"0.021": 0.0,
			"0.022": 0.0,
			"0.023": 0.0,
			"0.024": 0.0,
			"0.025": 0.0
		}
	}
}
