{
	 "smiles": "NC1=CC(Br)=C(Br)N=C1", 
	 "Tm": 380.15, 
	 "num_atms": 13, 
	 "gaussian": { 
		 "optdone": 1, 
		 "sigma_profile": "yes", 
		 "theory": "DFT", 
		 "functional": "B3LYP", 
		 "basiset": "6-31G**", 
		 "properties": { 
			 "R2extent": 6884.0619, 
			 "electric_dipole_moment_norm": 5.12798926968, 
			 "electric_quadrupole_moment_norm": 8.73331684241, 
			 "total_energy": -5445.24360439, 
			 "HOMO_LUMO_gap": 0.18382, 
			 "cosmo_polarized_energy": -12.45, 
			 "cosmo_cavitation_energy": 22.03, 
			 "cosmo_dispersion_energy": -17.39, 
			 "cosmo_repulsion_energy": 1.43, 
			 "cosmo_total_nonelectrostatic_energy": 6.07, 
			 "SMD_solvation_energy": 0.31 
		},
		"coords": [
			{
				"x": -0.3852459852,
				"y": 0.8181082103,
				"z": -0.2182208309,
				"element": "N" 
			},
			{
				"x": 0.5003765456,
				"y": -0.0592528828,
				"z": 0.388493062,
				"element": "C" 
			},
			{
				"x": 0.0908951703,
				"y": -1.3183756305,
				"z": 0.854304001,
				"element": "C" 
			},
			{
				"x": 1.0007283188,
				"y": -2.1427265785,
				"z": 1.5073146952,
				"element": "C" 
			},
			{
				"x": 0.4052469957,
				"y": -3.8397620839,
				"z": 2.1184117509,
				"element": "Br" 
			},
			{
				"x": 2.3162759082,
				"y": -1.6866635044,
				"z": 1.6837873272,
				"element": "C" 
			},
			{
				"x": 3.6385839316,
				"y": -2.7497251687,
				"z": 2.5682554869,
				"element": "Br" 
			},
			{
				"x": 2.7056055554,
				"y": -0.5041185352,
				"z": 1.2461625321,
				"element": "N" 
			},
			{
				"x": 1.8423707044,
				"y": 0.2921847041,
				"z": 0.6194584595,
				"element": "C" 
			},
			{
				"x": 0.0299076302,
				"y": 1.5455092093,
				"z": -0.7830950188,
				"element": "H" 
			},
			{
				"x": -1.200461142,
				"y": 0.4060059318,
				"z": -0.6491252624,
				"element": "H" 
			},
			{
				"x": -0.9313194319,
				"y": -1.6535684618,
				"z": 0.7130519922,
				"element": "H" 
			},
			{
				"x": 2.2249357987,
				"y": 1.2549847904,
				"z": 0.2842018051,
				"element": "H" 
			}
		],
		 "valence_orbital": [ 
			{
				"type": "occ",
				"energy": -0.29229,
				"method": "rhf"
			},
			{
				"type": "occ",
				"energy": -0.28136,
				"method": "rhf"
			},
			{
				"type": "occ",
				"energy": -0.267,
				"method": "rhf"
			},
			{
				"type": "occ",
				"energy": -0.26405,
				"method": "rhf"
			},
			{
				"type": "occ",
				"energy": -0.22389,
				"method": "rhf"
			},
			{
				"type": "unocc",
				"energy": -0.04007,
				"method": "rhf"
			},
			{
				"type": "unocc",
				"energy": -0.01583,
				"method": "rhf"
			},
			{
				"type": "unocc",
				"energy": -0.01298,
				"method": "rhf"
			},
			{
				"type": "unocc",
				"energy": 0.03243,
				"method": "rhf"
			},
			{
				"type": "unocc",
				"energy": 0.06314,
				"method": "rhf"
			}
		],
		"cosmo_sigma_profile": { 
			"-0.025": 0.0,
			"-0.024": 0.0,
			"-0.023": 0.0,
			"-0.022": 0.0,
			"-0.021": 0.0,
			"-0.02": 0.0,
			"-0.019": 0.0,
			"-0.018": 0.0,
			"-0.017": 0.0,
			"-0.016": 0.0,
			"-0.015": 0.0,
			"-0.014": 1.17870537474,
			"-0.013": 4.09049705324,
			"-0.012": 2.8395473281,
			"-0.011": 3.5674320391,
			"-0.01": 3.59309352551,
			"-0.009": 3.60672334189,
			"-0.008": 4.61779751087,
			"-0.007": 4.05347743956,
			"-0.006": 3.63839933302,
			"-0.005": 5.43539089845,
			"-0.004": 5.50269617403,
			"-0.003": 6.82127254389,
			"-0.002": 6.73130010229,
			"-0.001": 10.0625351677,
			"0.0": 19.6350901683,
			"0.001": 18.6196838375,
			"0.002": 13.7651135355,
			"0.003": 15.6334205366,
			"0.004": 18.5745894214,
			"0.005": 12.751671327,
			"0.006": 5.12461944884,
			"0.007": 2.42063779353,
			"0.008": 1.9128232065,
			"0.009": 2.40215545592,
			"0.01": 2.12466387278,
			"0.011": 1.59838222003,
			"0.012": 1.20684038695,
			"0.013": 1.29898232127,
			"0.014": 0.260215963451,
			"0.015": 0.0,
			"0.016": 0.0,
			"0.017": 0.0,
			"0.018": 0.0,
			"0.019": 0.0,
			"0.02": 0.0,
			"0.021": 0.0,
			"0.022": 0.0,
			"0.023": 0.0,
			"0.024": 0.0,
			"0.025": 0.0
		}
	}
}
