{
	 "smiles": "COC1=CC=C(C=C1)C1=C(CCC(O)=O)C2=C(N1)C=CC=C2", 
	 "Tm": 408.15, 
	 "num_atms": 39, 
	 "gaussian": { 
		 "optdone": 1, 
		 "sigma_profile": "yes", 
		 "theory": "DFT", 
		 "functional": "B3LYP", 
		 "basiset": "6-31G**", 
		 "properties": { 
			 "R2extent": 8915.7102, 
			 "electric_dipole_moment_norm": 7.33903497812, 
			 "electric_quadrupole_moment_norm": 30.3207923674, 
			 "total_energy": -976.601415346, 
			 "HOMO_LUMO_gap": 0.16427, 
			 "cosmo_polarized_energy": -20.4, 
			 "cosmo_cavitation_energy": 42.18, 
			 "cosmo_dispersion_energy": -29.41, 
			 "cosmo_repulsion_energy": 2.24, 
			 "cosmo_total_nonelectrostatic_energy": 15.01, 
			 "SMD_solvation_energy": 8.24 
		},
		"coords": [
			{
				"x": 3.0557915075,
				"y": 5.289396469,
				"z": 3.8785922182,
				"element": "C" 
			},
			{
				"x": 3.2247891064,
				"y": 4.887200861,
				"z": 2.5267645593,
				"element": "O" 
			},
			{
				"x": 2.8065771727,
				"y": 3.6443438863,
				"z": 2.1638119738,
				"element": "C" 
			},
			{
				"x": 2.222331845,
				"y": 2.7120093927,
				"z": 3.0301681461,
				"element": "C" 
			},
			{
				"x": 1.8280023276,
				"y": 1.4665978175,
				"z": 2.5397958661,
				"element": "C" 
			},
			{
				"x": 2.0052210955,
				"y": 1.1132215778,
				"z": 1.1928179748,
				"element": "C" 
			},
			{
				"x": 2.6018330935,
				"y": 2.0641725126,
				"z": 0.3404820314,
				"element": "C" 
			},
			{
				"x": 2.9918704425,
				"y": 3.3078396611,
				"z": 0.8130678212,
				"element": "C" 
			},
			{
				"x": 1.6053402267,
				"y": -0.2153099884,
				"z": 0.7065615818,
				"element": "C" 
			},
			{
				"x": 1.0024529249,
				"y": -0.6337226513,
				"z": -0.4765675453,
				"element": "C" 
			},
			{
				"x": 0.5524484632,
				"y": 0.2064043175,
				"z": -1.6510126467,
				"element": "C" 
			},
			{
				"x": -0.4957979779,
				"y": 1.3044320184,
				"z": -1.3448360813,
				"element": "C" 
			},
			{
				"x": -1.888819594,
				"y": 0.8139705209,
				"z": -0.9582254196,
				"element": "C" 
			},
			{
				"x": -1.9448371135,
				"y": -0.1916226909,
				"z": -0.0528315474,
				"element": "O" 
			},
			{
				"x": -2.9045066433,
				"y": 1.2987398811,
				"z": -1.3966241721,
				"element": "O" 
			},
			{
				"x": 0.8667190599,
				"y": -2.0708909759,
				"z": -0.3844633181,
				"element": "C" 
			},
			{
				"x": 1.3928207037,
				"y": -2.4702457217,
				"z": 0.8733732843,
				"element": "C" 
			},
			{
				"x": 1.8100791964,
				"y": -1.3255671974,
				"z": 1.5168345075,
				"element": "N" 
			},
			{
				"x": 1.4264048362,
				"y": -3.8066513775,
				"z": 1.2850908644,
				"element": "C" 
			},
			{
				"x": 0.9125465148,
				"y": -4.7575256389,
				"z": 0.411620246,
				"element": "C" 
			},
			{
				"x": 0.3744754199,
				"y": -4.3854010682,
				"z": -0.8381667392,
				"element": "C" 
			},
			{
				"x": 0.3444109464,
				"y": -3.0575220333,
				"z": -1.2420792793,
				"element": "C" 
			},
			{
				"x": 3.6134282935,
				"y": 4.6404949429,
				"z": 4.5658633882,
				"element": "H" 
			},
			{
				"x": 3.4520102553,
				"y": 6.3036434658,
				"z": 3.9417923174,
				"element": "H" 
			},
			{
				"x": 1.9975008067,
				"y": 5.2964231044,
				"z": 4.1683717793,
				"element": "H" 
			},
			{
				"x": 2.0574695217,
				"y": 2.9465595759,
				"z": 4.0749317912,
				"element": "H" 
			},
			{
				"x": 1.3450472563,
				"y": 0.7681982434,
				"z": 3.217918127,
				"element": "H" 
			},
			{
				"x": 2.7825181544,
				"y": 1.8134207819,
				"z": -0.6993046315,
				"element": "H" 
			},
			{
				"x": 3.4556019244,
				"y": 4.0376535019,
				"z": 0.1577129919,
				"element": "H" 
			},
			{
				"x": 0.1480110013,
				"y": -0.4617789134,
				"z": -2.4188807406,
				"element": "H" 
			},
			{
				"x": 1.4129156498,
				"y": 0.6960409428,
				"z": -2.1220131054,
				"element": "H" 
			},
			{
				"x": -0.1298951011,
				"y": 1.944586609,
				"z": -0.5326501688,
				"element": "H" 
			},
			{
				"x": -0.633093874,
				"y": 1.9444982118,
				"z": -2.219072357,
				"element": "H" 
			},
			{
				"x": -1.0448685062,
				"y": -0.4876734646,
				"z": 0.1732131452,
				"element": "H" 
			},
			{
				"x": 2.3419546666,
				"y": -1.2982472936,
				"z": 2.3723217002,
				"element": "H" 
			},
			{
				"x": 1.836069649,
				"y": -4.0904746686,
				"z": 2.2503097348,
				"element": "H" 
			},
			{
				"x": 0.9224016832,
				"y": -5.8050073741,
				"z": 0.6976064137,
				"element": "H" 
			},
			{
				"x": -0.0237809642,
				"y": -5.1539783512,
				"z": -1.4937179367,
				"element": "H" 
			},
			{
				"x": -0.0759439709,
				"y": -2.7884288869,
				"z": -2.206776775,
				"element": "H" 
			}
		],
		 "valence_orbital": [ 
			{
				"type": "occ",
				"energy": -0.26926,
				"method": "rhf"
			},
			{
				"type": "occ",
				"energy": -0.25037,
				"method": "rhf"
			},
			{
				"type": "occ",
				"energy": -0.2474,
				"method": "rhf"
			},
			{
				"type": "occ",
				"energy": -0.22243,
				"method": "rhf"
			},
			{
				"type": "occ",
				"energy": -0.20277,
				"method": "rhf"
			},
			{
				"type": "unocc",
				"energy": -0.0385,
				"method": "rhf"
			},
			{
				"type": "unocc",
				"energy": -0.02037,
				"method": "rhf"
			},
			{
				"type": "unocc",
				"energy": 0.00657,
				"method": "rhf"
			},
			{
				"type": "unocc",
				"energy": 0.02115,
				"method": "rhf"
			},
			{
				"type": "unocc",
				"energy": 0.02962,
				"method": "rhf"
			}
		],
		"cosmo_sigma_profile": { 
			"-0.025": 0.0,
			"-0.024": 0.0,
			"-0.023": 0.0,
			"-0.022": 0.0,
			"-0.021": 0.0,
			"-0.02": 0.0,
			"-0.019": 0.0,
			"-0.018": 0.0,
			"-0.017": 0.0,
			"-0.016": 0.0719624844068,
			"-0.015": 0.800275299957,
			"-0.014": 1.56626428577,
			"-0.013": 0.501075693673,
			"-0.012": 1.10372326222,
			"-0.011": 0.808092783758,
			"-0.01": 2.12641252763,
			"-0.009": 1.50233881893,
			"-0.008": 2.61126347757,
			"-0.007": 6.73848969618,
			"-0.006": 21.001884285,
			"-0.005": 32.7669164425,
			"-0.004": 30.9052493649,
			"-0.003": 30.7854470103,
			"-0.002": 24.1036300265,
			"-0.001": 20.6571258421,
			"0.0": 15.2660225747,
			"0.001": 15.43036689,
			"0.002": 17.5102435215,
			"0.003": 21.7912415823,
			"0.004": 22.0168866995,
			"0.005": 15.6653477984,
			"0.006": 12.2488696686,
			"0.007": 8.06508572826,
			"0.008": 3.76221044773,
			"0.009": 3.9679696973,
			"0.01": 5.26512366059,
			"0.011": 5.51876672878,
			"0.012": 6.23893949224,
			"0.013": 4.30241068557,
			"0.014": 0.939044758178,
			"0.015": 0.0,
			"0.016": 0.0,
			"0.017": 0.0,
			"0.018": 0.0,
			"0.019": 0.0,
			"0.02": 0.0,
			"0.021": 0.0,
			"0.022": 0.0,
			"0.023": 0.0,
			"0.024": 0.0,
			"0.025": 0.0
		}
	}
}
