{
	 "smiles": "COC1=CC(NC(=O)COC2=CC=C(C=C2)C(O)=O)=CC=C1", 
	 "Tm": 405.15, 
	 "num_atms": 37, 
	 "gaussian": { 
		 "optdone": 1, 
		 "sigma_profile": "yes", 
		 "theory": "DFT", 
		 "functional": "B3LYP", 
		 "basiset": "6-31G**", 
		 "properties": { 
			 "R2extent": 10432.3093, 
			 "electric_dipole_moment_norm": 1.82673217249, 
			 "electric_quadrupole_moment_norm": 18.9389599939, 
			 "total_energy": -1049.63011934, 
			 "HOMO_LUMO_gap": 0.1675, 
			 "cosmo_polarized_energy": -20.33, 
			 "cosmo_cavitation_energy": 42.5, 
			 "cosmo_dispersion_energy": -29.97, 
			 "cosmo_repulsion_energy": 2.31, 
			 "cosmo_total_nonelectrostatic_energy": 14.83, 
			 "SMD_solvation_energy": 9.79 
		},
		"coords": [
			{
				"x": -1.8695373477,
				"y": -4.0517992133,
				"z": -0.3500425388,
				"element": "C" 
			},
			{
				"x": -2.8569949917,
				"y": -3.5436650743,
				"z": -1.2314223167,
				"element": "O" 
			},
			{
				"x": -2.7480184893,
				"y": -2.2511256776,
				"z": -1.6556856862,
				"element": "C" 
			},
			{
				"x": -1.7179465084,
				"y": -1.3860903976,
				"z": -1.281957216,
				"element": "C" 
			},
			{
				"x": -1.6963303178,
				"y": -0.0690610638,
				"z": -1.7756867014,
				"element": "C" 
			},
			{
				"x": -0.619556153,
				"y": 0.7434650809,
				"z": -1.3549131744,
				"element": "N" 
			},
			{
				"x": -0.3739896979,
				"y": 2.057656152,
				"z": -1.6329733428,
				"element": "C" 
			},
			{
				"x": -1.0511736505,
				"y": 2.7952143086,
				"z": -2.3357278643,
				"element": "O" 
			},
			{
				"x": 0.9319563365,
				"y": 2.5863835121,
				"z": -1.0182990398,
				"element": "C" 
			},
			{
				"x": 1.4233558229,
				"y": 1.8319508477,
				"z": 0.0876124505,
				"element": "O" 
			},
			{
				"x": 0.9010473246,
				"y": 2.0694950461,
				"z": 1.3347221403,
				"element": "C" 
			},
			{
				"x": -0.2275449814,
				"y": 2.8612185449,
				"z": 1.5823362357,
				"element": "C" 
			},
			{
				"x": -0.6707612201,
				"y": 3.0244612217,
				"z": 2.8942066443,
				"element": "C" 
			},
			{
				"x": -0.0050785529,
				"y": 2.4051307735,
				"z": 3.9581431999,
				"element": "C" 
			},
			{
				"x": 1.1217968661,
				"y": 1.6098882067,
				"z": 3.6932154369,
				"element": "C" 
			},
			{
				"x": 1.5739961583,
				"y": 1.4419467755,
				"z": 2.3943062936,
				"element": "C" 
			},
			{
				"x": -0.443759671,
				"y": 2.5502977381,
				"z": 5.3663498287,
				"element": "C" 
			},
			{
				"x": -1.5361855989,
				"y": 3.344906866,
				"z": 5.5057471123,
				"element": "O" 
			},
			{
				"x": 0.0962072627,
				"y": 2.0255872538,
				"z": 6.3215625283,
				"element": "O" 
			},
			{
				"x": -2.6987527316,
				"y": 0.3842900851,
				"z": -2.6388770362,
				"element": "C" 
			},
			{
				"x": -3.71961002,
				"y": -0.5017440378,
				"z": -2.9969471945,
				"element": "C" 
			},
			{
				"x": -3.7585416917,
				"y": -1.8057444564,
				"z": -2.5211590743,
				"element": "C" 
			},
			{
				"x": -0.8711017778,
				"y": -4.0370629037,
				"z": -0.8067736856,
				"element": "H" 
			},
			{
				"x": -1.8404992333,
				"y": -3.4915881009,
				"z": 0.5937793497,
				"element": "H" 
			},
			{
				"x": -2.1521248877,
				"y": -5.0851554092,
				"z": -0.1433725959,
				"element": "H" 
			},
			{
				"x": -0.9313346965,
				"y": -1.7146193484,
				"z": -0.6114361247,
				"element": "H" 
			},
			{
				"x": 0.0584111542,
				"y": 0.3074392267,
				"z": -0.7430654344,
				"element": "H" 
			},
			{
				"x": 0.7855249005,
				"y": 3.6394141063,
				"z": -0.7628546314,
				"element": "H" 
			},
			{
				"x": 1.7145958371,
				"y": 2.527803232,
				"z": -1.7809812007,
				"element": "H" 
			},
			{
				"x": -0.7713175319,
				"y": 3.3363383965,
				"z": 0.7743968551,
				"element": "H" 
			},
			{
				"x": -1.5452850014,
				"y": 3.6337563426,
				"z": 3.0916700716,
				"element": "H" 
			},
			{
				"x": 1.6305157263,
				"y": 1.1364580283,
				"z": 4.5260572122,
				"element": "H" 
			},
			{
				"x": 2.4481985902,
				"y": 0.8391280669,
				"z": 2.1718055565,
				"element": "H" 
			},
			{
				"x": -1.7270738168,
				"y": 3.3630655649,
				"z": 6.4577153249,
				"element": "H" 
			},
			{
				"x": -2.6716808442,
				"y": 1.3980099164,
				"z": -3.0106327378,
				"element": "H" 
			},
			{
				"x": -4.5021853117,
				"y": -0.1572612722,
				"z": -3.6668324616,
				"element": "H" 
			},
			{
				"x": -4.5492212543,
				"y": -2.4943883381,
				"z": -2.7980861829,
				"element": "H" 
			}
		],
		 "valence_orbital": [ 
			{
				"type": "occ",
				"energy": -0.27084,
				"method": "rhf"
			},
			{
				"type": "occ",
				"energy": -0.26694,
				"method": "rhf"
			},
			{
				"type": "occ",
				"energy": -0.24226,
				"method": "rhf"
			},
			{
				"type": "occ",
				"energy": -0.23748,
				"method": "rhf"
			},
			{
				"type": "occ",
				"energy": -0.21451,
				"method": "rhf"
			},
			{
				"type": "unocc",
				"energy": -0.04701,
				"method": "rhf"
			},
			{
				"type": "unocc",
				"energy": -0.02348,
				"method": "rhf"
			},
			{
				"type": "unocc",
				"energy": -0.01509,
				"method": "rhf"
			},
			{
				"type": "unocc",
				"energy": 0.00749,
				"method": "rhf"
			},
			{
				"type": "unocc",
				"energy": 0.03915,
				"method": "rhf"
			}
		],
		"cosmo_sigma_profile": { 
			"-0.025": 0.0,
			"-0.024": 0.0,
			"-0.023": 0.0,
			"-0.022": 0.0,
			"-0.021": 0.0,
			"-0.02": 0.0,
			"-0.019": 0.0,
			"-0.018": 0.502879184863,
			"-0.017": 1.0590699164,
			"-0.016": 0.675610363909,
			"-0.015": 1.06265002888,
			"-0.014": 0.71882661543,
			"-0.013": 1.99144008418,
			"-0.012": 2.01631685464,
			"-0.011": 1.50403456416,
			"-0.01": 2.04705507916,
			"-0.009": 3.08006116099,
			"-0.008": 6.24431142666,
			"-0.007": 11.2229855272,
			"-0.006": 20.230207919,
			"-0.005": 25.4233884212,
			"-0.004": 21.3011291872,
			"-0.003": 22.6759966992,
			"-0.002": 20.500092959,
			"-0.001": 17.6552692767,
			"0.0": 19.7858125656,
			"0.001": 21.9225659118,
			"0.002": 24.1150311691,
			"0.003": 28.0692465752,
			"0.004": 19.8346951391,
			"0.005": 17.1909263129,
			"0.006": 9.33130669771,
			"0.007": 7.50186892178,
			"0.008": 6.31966461908,
			"0.009": 3.69309348348,
			"0.01": 4.95246592855,
			"0.011": 5.46919756417,
			"0.012": 8.18036088014,
			"0.013": 2.92208245025,
			"0.014": 0.273690555323,
			"0.015": 0.0,
			"0.016": 0.0,
			"0.017": 0.0,
			"0.018": 0.0,
			"0.019": 0.0,
			"0.02": 0.0,
			"0.021": 0.0,
			"0.022": 0.0,
			"0.023": 0.0,
			"0.024": 0.0,
			"0.0": 0.0
		}
	}
}
