{
	 "smiles": "COC1=C(C)C=CC=C1", 
	 "Tm": 239.05, 
	 "num_atms": 19, 
	 "gaussian": { 
		 "optdone": 1, 
		 "sigma_profile": "yes", 
		 "theory": "DFT", 
		 "functional": "B3LYP", 
		 "basiset": "6-31G**", 
		 "properties": { 
			 "R2extent": 1375.1185, 
			 "electric_dipole_moment_norm": 1.26775421514, 
			 "electric_quadrupole_moment_norm": 7.14272566392, 
			 "total_energy": -386.096969873, 
			 "HOMO_LUMO_gap": 0.21902, 
			 "cosmo_polarized_energy": -4.86, 
			 "cosmo_cavitation_energy": 21.88, 
			 "cosmo_dispersion_energy": -16.29, 
			 "cosmo_repulsion_energy": 1.34, 
			 "cosmo_total_nonelectrostatic_energy": 6.92, 
			 "SMD_solvation_energy": 4.62 
		},
		"coords": [
			{
				"x": 1.7800024036,
				"y": -0.6721940335,
				"z": 2.5593861274,
				"element": "C" 
			},
			{
				"x": 1.3258964347,
				"y": -0.1427342088,
				"z": 1.3258050084,
				"element": "O" 
			},
			{
				"x": 0.0749402711,
				"y": -0.4893557331,
				"z": 0.8890864601,
				"element": "C" 
			},
			{
				"x": -0.3050697709,
				"y": 0.0781129933,
				"z": -0.3464614818,
				"element": "C" 
			},
			{
				"x": 0.6453390427,
				"y": 0.9904562667,
				"z": -1.0787860452,
				"element": "C" 
			},
			{
				"x": -1.5679781822,
				"y": -0.2339798287,
				"z": -0.8490718861,
				"element": "C" 
			},
			{
				"x": -2.4451317338,
				"y": -1.081617855,
				"z": -0.1639154066,
				"element": "C" 
			},
			{
				"x": -2.0513597447,
				"y": -1.6304526123,
				"z": 1.0520401962,
				"element": "C" 
			},
			{
				"x": -0.7912563407,
				"y": -1.337935779,
				"z": 1.5845051517,
				"element": "C" 
			},
			{
				"x": 1.8295757984,
				"y": -1.7687551873,
				"z": 2.5374190718,
				"element": "H" 
			},
			{
				"x": 2.7839577805,
				"y": -0.2714146262,
				"z": 2.7092428836,
				"element": "H" 
			},
			{
				"x": 1.1396852427,
				"y": -0.3614478431,
				"z": 3.3953371959,
				"element": "H" 
			},
			{
				"x": 0.202914352,
				"y": 1.3439725275,
				"z": -2.013906293,
				"element": "H" 
			},
			{
				"x": 1.5864663825,
				"y": 0.4804878183,
				"z": -1.3128348255,
				"element": "H" 
			},
			{
				"x": 0.909316435,
				"y": 1.8624249714,
				"z": -0.4700471709,
				"element": "H" 
			},
			{
				"x": -1.8695682964,
				"y": 0.198417584,
				"z": -1.8001583333,
				"element": "H" 
			},
			{
				"x": -3.4224539835,
				"y": -1.3067335637,
				"z": -0.5797623818,
				"element": "H" 
			},
			{
				"x": -2.7186532416,
				"y": -2.2908482741,
				"z": 1.5987274274,
				"element": "H" 
			},
			{
				"x": -0.4980228495,
				"y": -1.7727026164,
				"z": 2.5327943016,
				"element": "H" 
			}
		],
		 "valence_orbital": [ 
			{
				"type": "occ",
				"energy": -0.34242,
				"method": "rhf"
			},
			{
				"type": "occ",
				"energy": -0.31791,
				"method": "rhf"
			},
			{
				"type": "occ",
				"energy": -0.31335,
				"method": "rhf"
			},
			{
				"type": "occ",
				"energy": -0.23807,
				"method": "rhf"
			},
			{
				"type": "occ",
				"energy": -0.2107,
				"method": "rhf"
			},
			{
				"type": "unocc",
				"energy": 0.00832,
				"method": "rhf"
			},
			{
				"type": "unocc",
				"energy": 0.01898,
				"method": "rhf"
			},
			{
				"type": "unocc",
				"energy": 0.09642,
				"method": "rhf"
			},
			{
				"type": "unocc",
				"energy": 0.10945,
				"method": "rhf"
			},
			{
				"type": "unocc",
				"energy": 0.11708,
				"method": "rhf"
			}
		],
		"cosmo_sigma_profile": { 
			"-0.025": 0.0,
			"-0.024": 0.0,
			"-0.023": 0.0,
			"-0.022": 0.0,
			"-0.021": 0.0,
			"-0.02": 0.0,
			"-0.019": 0.0,
			"-0.018": 0.0,
			"-0.017": 0.0,
			"-0.016": 0.0,
			"-0.015": 0.0,
			"-0.014": 0.0,
			"-0.013": 0.0,
			"-0.012": 0.0,
			"-0.011": 0.0,
			"-0.01": 0.0,
			"-0.009": 0.0,
			"-0.008": 0.0,
			"-0.007": 0.000316864162732,
			"-0.006": 3.398590688,
			"-0.005": 16.1100359211,
			"-0.004": 18.8587436191,
			"-0.003": 21.1113781005,
			"-0.002": 15.1862106334,
			"-0.001": 13.3122249973,
			"0.0": 14.7612995611,
			"0.001": 11.6325584513,
			"0.002": 8.52812224331,
			"0.003": 10.867463154,
			"0.004": 9.70154131204,
			"0.005": 9.66800361794,
			"0.006": 10.1618270224,
			"0.007": 6.27293118537,
			"0.008": 1.69481637633,
			"0.009": 1.56329139727,
			"0.01": 0.231449191442,
			"0.011": 0.0,
			"0.012": 0.0,
			"0.013": 0.0,
			"0.014": 0.0,
			"0.015": 0.0,
			"0.016": 0.0,
			"0.017": 0.0,
			"0.018": 0.0,
			"0.019": 0.0,
			"0.02": 0.0,
			"0.021": 0.0,
			"0.022": 0.0,
			"0.023": 0.0,
			"0.024": 0.0,
			"0.025": 0.0
		}
	}
}
