{
	 "smiles": "CCC1CC2CC3C1N(C2)CCC1=C3NC2=C1C=CC(OC)=C2", 
	 "Tm": 487.15, 
	 "num_atms": 49, 
	 "gaussian": { 
		 "optdone": 1, 
		 "sigma_profile": "yes", 
		 "theory": "DFT", 
		 "functional": "B3LYP", 
		 "basiset": "6-31G**", 
		 "properties": { 
			 "R2extent": 10262.7097, 
			 "electric_dipole_moment_norm": 0.978156643897, 
			 "electric_quadrupole_moment_norm": 12.1912109427, 
			 "total_energy": -962.520304249, 
			 "HOMO_LUMO_gap": 0.17834, 
			 "cosmo_polarized_energy": -10.81, 
			 "cosmo_cavitation_energy": 45.45, 
			 "cosmo_dispersion_energy": -32.84, 
			 "cosmo_repulsion_energy": 2.47, 
			 "cosmo_total_nonelectrostatic_energy": 15.08, 
			 "SMD_solvation_energy": 5.12 
		},
		"coords": [
			{
				"x": -1.0160228383,
				"y": -0.8527651602,
				"z": 4.099756593,
				"element": "C" 
			},
			{
				"x": 0.091763758,
				"y": 0.1723476742,
				"z": 4.3681130087,
				"element": "C" 
			},
			{
				"x": 1.4091953222,
				"y": -0.0812044161,
				"z": 3.6125196214,
				"element": "C" 
			},
			{
				"x": 2.5148086071,
				"y": 0.9467511401,
				"z": 4.0035464066,
				"element": "C" 
			},
			{
				"x": 3.0987375925,
				"y": 1.581594047,
				"z": 2.7296397352,
				"element": "C" 
			},
			{
				"x": 1.9824299253,
				"y": 2.3265526501,
				"z": 1.9717059679,
				"element": "C" 
			},
			{
				"x": 0.8779683708,
				"y": 1.3023342095,
				"z": 1.5251264637,
				"element": "C" 
			},
			{
				"x": 1.2953351918,
				"y": -0.0920958999,
				"z": 2.0662013976,
				"element": "C" 
			},
			{
				"x": 2.5994380084,
				"y": -0.4958042444,
				"z": 1.5326540699,
				"element": "N" 
			},
			{
				"x": 3.6595507822,
				"y": 0.4779332242,
				"z": 1.8189198906,
				"element": "C" 
			},
			{
				"x": 2.6785273933,
				"y": -1.1730081022,
				"z": 0.2371868322,
				"element": "C" 
			},
			{
				"x": 1.4054336153,
				"y": -1.1220513942,
				"z": -0.6286848191,
				"element": "C" 
			},
			{
				"x": 0.8855894614,
				"y": 0.266785683,
				"z": -0.8886845917,
				"element": "C" 
			},
			{
				"x": 0.6729282003,
				"y": 1.2646158668,
				"z": 0.0374004514,
				"element": "C" 
			},
			{
				"x": 0.1728019127,
				"y": 2.3894540632,
				"z": -0.6189504312,
				"element": "N" 
			},
			{
				"x": 0.0533137461,
				"y": 2.1353120895,
				"z": -1.9673719263,
				"element": "C" 
			},
			{
				"x": 0.4947462801,
				"y": 0.7987165471,
				"z": -2.1750443528,
				"element": "C" 
			},
			{
				"x": 0.4689980277,
				"y": 0.2911309899,
				"z": -3.4803243763,
				"element": "C" 
			},
			{
				"x": 0.0222788624,
				"y": 1.0902837458,
				"z": -4.5304217017,
				"element": "C" 
			},
			{
				"x": -0.4086926002,
				"y": 2.4135941021,
				"z": -4.2922618174,
				"element": "C" 
			},
			{
				"x": -0.8621156692,
				"y": 3.258593849,
				"z": -5.2743215372,
				"element": "O" 
			},
			{
				"x": -0.9018096336,
				"y": 2.7819449605,
				"z": -6.6064129086,
				"element": "C" 
			},
			{
				"x": -0.3972497091,
				"y": 2.9515146853,
				"z": -3.0036413822,
				"element": "C" 
			},
			{
				"x": -1.3661756311,
				"y": -0.8193843239,
				"z": 3.0627070159,
				"element": "H" 
			},
			{
				"x": -0.6667127506,
				"y": -1.872717551,
				"z": 4.2979289841,
				"element": "H" 
			},
			{
				"x": -1.8838211023,
				"y": -0.6692692033,
				"z": 4.7417445589,
				"element": "H" 
			},
			{
				"x": 0.3228461391,
				"y": 0.1740904804,
				"z": 5.4418034108,
				"element": "H" 
			},
			{
				"x": -0.2795219704,
				"y": 1.1827157724,
				"z": 4.1480373256,
				"element": "H" 
			},
			{
				"x": 1.7551059474,
				"y": -1.0872631222,
				"z": 3.8785808781,
				"element": "H" 
			},
			{
				"x": 3.3100727084,
				"y": 0.4606555871,
				"z": 4.5799569517,
				"element": "H" 
			},
			{
				"x": 2.0983701503,
				"y": 1.7339530593,
				"z": 4.6453754439,
				"element": "H" 
			},
			{
				"x": 3.9039251271,
				"y": 2.279766233,
				"z": 2.9864197638,
				"element": "H" 
			},
			{
				"x": 2.4043367666,
				"y": 2.8342965224,
				"z": 1.0972883237,
				"element": "H" 
			},
			{
				"x": 1.5528299955,
				"y": 3.1018603562,
				"z": 2.6175069526,
				"element": "H" 
			},
			{
				"x": -0.0787395613,
				"y": 1.5937125632,
				"z": 1.9840685906,
				"element": "H" 
			},
			{
				"x": 0.5573847822,
				"y": -0.8397302545,
				"z": 1.7712031449,
				"element": "H" 
			},
			{
				"x": 4.0384666575,
				"y": 0.9358616455,
				"z": 0.8887720217,
				"element": "H" 
			},
			{
				"x": 4.5227837742,
				"y": -0.0092045141,
				"z": 2.301718795,
				"element": "H" 
			},
			{
				"x": 3.491831254,
				"y": -0.7110584312,
				"z": -0.3394718144,
				"element": "H" 
			},
			{
				"x": 2.9588341171,
				"y": -2.2311387682,
				"z": 0.3688140295,
				"element": "H" 
			},
			{
				"x": 0.6268850225,
				"y": -1.7559883323,
				"z": -0.182364384,
				"element": "H" 
			},
			{
				"x": 1.6488760865,
				"y": -1.6026354552,
				"z": -1.5837941526,
				"element": "H" 
			},
			{
				"x": -0.067026253,
				"y": 3.2565477872,
				"z": -0.1667199371,
				"element": "H" 
			},
			{
				"x": 0.7928389078,
				"y": -0.7257014396,
				"z": -3.6859162456,
				"element": "H" 
			},
			{
				"x": 0.0078407535,
				"y": 0.6833122733,
				"z": -5.5341466158,
				"element": "H" 
			},
			{
				"x": 0.0960585045,
				"y": 2.5059664761,
				"z": -6.9730183294,
				"element": "H" 
			},
			{
				"x": -1.5699513396,
				"y": 1.9166987562,
				"z": -6.7124832643,
				"element": "H" 
			},
			{
				"x": -1.2875674919,
				"y": 3.6053131035,
				"z": -7.2107188574,
				"element": "H" 
			},
			{
				"x": -0.7340252014,
				"y": 3.9711104693,
				"z": -2.847043184,
				"element": "H" 
			}
		],
		 "valence_orbital": [ 
			{
				"type": "occ",
				"energy": -0.28833,
				"method": "rhf"
			},
			{
				"type": "occ",
				"energy": -0.24459,
				"method": "rhf"
			},
			{
				"type": "occ",
				"energy": -0.20612,
				"method": "rhf"
			},
			{
				"type": "occ",
				"energy": -0.18488,
				"method": "rhf"
			},
			{
				"type": "occ",
				"energy": -0.17561,
				"method": "rhf"
			},
			{
				"type": "unocc",
				"energy": 0.00273,
				"method": "rhf"
			},
			{
				"type": "unocc",
				"energy": 0.04215,
				"method": "rhf"
			},
			{
				"type": "unocc",
				"energy": 0.07046,
				"method": "rhf"
			},
			{
				"type": "unocc",
				"energy": 0.07257,
				"method": "rhf"
			},
			{
				"type": "unocc",
				"energy": 0.08711,
				"method": "rhf"
			}
		],
		"cosmo_sigma_profile": { 
			"-0.025": 0.0,
			"-0.024": 0.0,
			"-0.023": 0.0,
			"-0.022": 0.0,
			"-0.021": 0.0,
			"-0.02": 0.0,
			"-0.019": 0.0,
			"-0.018": 0.0,
			"-0.017": 0.0,
			"-0.016": 0.0,
			"-0.015": 0.109193307462,
			"-0.014": 1.28921681249,
			"-0.013": 0.692339890503,
			"-0.012": 1.23082590497,
			"-0.011": 1.55112626521,
			"-0.01": 0.608260216171,
			"-0.009": 1.5514502348,
			"-0.008": 1.5182618694,
			"-0.007": 1.71781082239,
			"-0.006": 3.51128264021,
			"-0.005": 12.3978493723,
			"-0.004": 19.5078386015,
			"-0.003": 31.2944000698,
			"-0.002": 48.3922365492,
			"-0.001": 53.7951721282,
			"0.0": 49.3001950772,
			"0.001": 33.6498481731,
			"0.002": 16.5698409355,
			"0.003": 9.63140948794,
			"0.004": 9.96924574979,
			"0.005": 12.9730627035,
			"0.006": 17.1108341538,
			"0.007": 13.8943230736,
			"0.008": 3.82128677022,
			"0.009": 1.69098597051,
			"0.01": 2.09137196215,
			"0.011": 2.66432852477,
			"0.012": 0.328298428574,
			"0.013": 0.39721822026,
			"0.014": 0.161345529487,
			"0.015": 0.0,
			"0.016": 0.0,
			"0.017": 0.0,
			"0.018": 0.0,
			"0.019": 0.0,
			"0.02": 0.0,
			"0.021": 0.0,
			"0.022": 0.0,
			"0.023": 0.0,
			"0.024": 0.0,
			"0.025": 0.0
		}
	}
}
