{
	 "smiles": "OC(=O)C1=C(Cl)C2=C(S1)C=CC=C2[N+]([O-])=O", 
	 "Tm": 493.15, 
	 "num_atms": 20, 
	 "gaussian": { 
		 "optdone": 1, 
		 "sigma_profile": "yes", 
		 "theory": "DFT", 
		 "functional": "B3LYP", 
		 "basiset": "6-31G**", 
		 "properties": { 
			 "R2extent": 5203.2086, 
			 "electric_dipole_moment_norm": 4.48572097772, 
			 "electric_quadrupole_moment_norm": 16.2298264553, 
			 "total_energy": -1559.28080605, 
			 "HOMO_LUMO_gap": 0.16139, 
			 "cosmo_polarized_energy": -15.58, 
			 "cosmo_cavitation_energy": 29.17, 
			 "cosmo_dispersion_energy": -21.75, 
			 "cosmo_repulsion_energy": 1.61, 
			 "cosmo_total_nonelectrostatic_energy": 9.03, 
			 "SMD_solvation_energy": 8.04 
		},
		"coords": [
			{
				"x": 0.0198078204,
				"y": -3.4643780992,
				"z": -3.7096108232,
				"element": "O" 
			},
			{
				"x": -0.8144374282,
				"y": -3.0551724926,
				"z": -2.7400852827,
				"element": "C" 
			},
			{
				"x": -1.9496168559,
				"y": -3.4723426325,
				"z": -2.673312631,
				"element": "O" 
			},
			{
				"x": -0.3210150658,
				"y": -2.0689304502,
				"z": -1.7332108452,
				"element": "C" 
			},
			{
				"x": 0.8751497945,
				"y": -1.4254895163,
				"z": -1.5406707156,
				"element": "C" 
			},
			{
				"x": 2.2696243577,
				"y": -1.6493054411,
				"z": -2.5689972252,
				"element": "Cl" 
			},
			{
				"x": 0.8898378376,
				"y": -0.5372658997,
				"z": -0.4059558172,
				"element": "C" 
			},
			{
				"x": -0.3699720144,
				"y": -0.5480657518,
				"z": 0.2491759721,
				"element": "C" 
			},
			{
				"x": -1.5079932346,
				"y": -1.6204735169,
				"z": -0.5258591329,
				"element": "S" 
			},
			{
				"x": -0.6247420341,
				"y": 0.2302342792,
				"z": 1.3855209067,
				"element": "C" 
			},
			{
				"x": 0.3887356975,
				"y": 1.0349838718,
				"z": 1.8823945032,
				"element": "C" 
			},
			{
				"x": 1.6482978871,
				"y": 1.0702872124,
				"z": 1.2589381788,
				"element": "C" 
			},
			{
				"x": 1.8861906289,
				"y": 0.2975591989,
				"z": 0.1387252428,
				"element": "C" 
			},
			{
				"x": 3.234462998,
				"y": 0.3867457437,
				"z": -0.4624341067,
				"element": "N" 
			},
			{
				"x": 4.0814096928,
				"y": -0.3917459389,
				"z": -0.0387109928,
				"element": "O" 
			},
			{
				"x": 3.4034896727,
				"y": 1.2508015088,
				"z": -1.3155149781,
				"element": "O" 
			},
			{
				"x": 0.8932164989,
				"y": -3.0454300078,
				"z": -3.6348603419,
				"element": "H" 
			},
			{
				"x": -1.5980392181,
				"y": 0.2006904162,
				"z": 1.8643619227,
				"element": "H" 
			},
			{
				"x": 0.2144932307,
				"y": 1.6464918702,
				"z": 2.7614328163,
				"element": "H" 
			},
			{
				"x": 2.4389997342,
				"y": 1.7010056457,
				"z": 1.6502733499,
				"element": "H" 
			}
		],
		 "valence_orbital": [ 
			{
				"type": "occ",
				"energy": -0.31947,
				"method": "rhf"
			},
			{
				"type": "occ",
				"energy": -0.30281,
				"method": "rhf"
			},
			{
				"type": "occ",
				"energy": -0.29599,
				"method": "rhf"
			},
			{
				"type": "occ",
				"energy": -0.28003,
				"method": "rhf"
			},
			{
				"type": "occ",
				"energy": -0.25609,
				"method": "rhf"
			},
			{
				"type": "unocc",
				"energy": -0.0947,
				"method": "rhf"
			},
			{
				"type": "unocc",
				"energy": -0.08791,
				"method": "rhf"
			},
			{
				"type": "unocc",
				"energy": -0.04658,
				"method": "rhf"
			},
			{
				"type": "unocc",
				"energy": -0.02783,
				"method": "rhf"
			},
			{
				"type": "unocc",
				"energy": -0.01849,
				"method": "rhf"
			}
		],
		"cosmo_sigma_profile": { 
			"-0.025": 0.0,
			"-0.024": 0.0,
			"-0.023": 0.0,
			"-0.022": 0.0,
			"-0.021": 0.0,
			"-0.02": 0.0,
			"-0.019": 0.0,
			"-0.018": 0.0,
			"-0.017": 0.0,
			"-0.016": 0.0,
			"-0.015": 0.0,
			"-0.014": 0.0401607262026,
			"-0.013": 0.715831182968,
			"-0.012": 1.4915082613,
			"-0.011": 2.48296819744,
			"-0.01": 3.70049983732,
			"-0.009": 6.46792315662,
			"-0.008": 8.76928853872,
			"-0.007": 10.0693139745,
			"-0.006": 8.14223513516,
			"-0.005": 9.63620548859,
			"-0.004": 10.4681467734,
			"-0.003": 15.5647391208,
			"-0.002": 18.0886041196,
			"-0.001": 18.8415275342,
			"0.0": 20.3896055073,
			"0.001": 20.7258833423,
			"0.002": 15.0455300499,
			"0.003": 7.19902834166,
			"0.004": 6.2492252302,
			"0.005": 6.52174242514,
			"0.006": 10.4315709976,
			"0.007": 12.6631176076,
			"0.008": 9.39264405962,
			"0.009": 5.88191604979,
			"0.01": 5.05552184104,
			"0.011": 4.27682977294,
			"0.012": 1.77347610954,
			"0.013": 0.0966976015636,
			"0.014": 0.0,
			"0.015": 0.0,
			"0.016": 0.0,
			"0.017": 0.0,
			"0.018": 0.0,
			"0.019": 0.0,
			"0.02": 0.0,
			"0.021": 0.0,
			"0.022": 0.0,
			"0.023": 0.0,
			"0.024": 0.0,
			"0.025": 0.0
		}
	}
}
