{
	 "smiles": "NC(=O)CCC1=CC=CC=C1", 
	 "Tm": 374.15, 
	 "num_atms": 22, 
	 "gaussian": { 
		 "optdone": 1, 
		 "sigma_profile": "yes", 
		 "theory": "DFT", 
		 "functional": "B3LYP", 
		 "basiset": "6-31G**", 
		 "properties": { 
			 "R2extent": 2293.8484, 
			 "electric_dipole_moment_norm": 3.54564859229, 
			 "electric_quadrupole_moment_norm": 16.0289728504, 
			 "total_energy": -479.583578933, 
			 "HOMO_LUMO_gap": 0.23798, 
			 "cosmo_polarized_energy": -15.37, 
			 "cosmo_cavitation_energy": 25.67, 
			 "cosmo_dispersion_energy": -18.11, 
			 "cosmo_repulsion_energy": 1.49, 
			 "cosmo_total_nonelectrostatic_energy": 9.05, 
			 "SMD_solvation_energy": 5.01 
		},
		"coords": [
			{
				"x": 3.5969609865,
				"y": 0.5465512234,
				"z": -1.2478604923,
				"element": "N" 
			},
			{
				"x": 2.8152155991,
				"y": 0.7063875685,
				"z": -0.126418988,
				"element": "C" 
			},
			{
				"x": 3.1234460124,
				"y": 0.2156582494,
				"z": 0.9474850543,
				"element": "O" 
			},
			{
				"x": 1.5405074522,
				"y": 1.5230350152,
				"z": -0.3334568809,
				"element": "C" 
			},
			{
				"x": 0.5627709043,
				"y": 0.9545305819,
				"z": -1.3917021287,
				"element": "C" 
			},
			{
				"x": -0.0211179244,
				"y": -0.3946678155,
				"z": -1.025486385,
				"element": "C" 
			},
			{
				"x": -1.1943391402,
				"y": -0.4767223235,
				"z": -0.2632093966,
				"element": "C" 
			},
			{
				"x": -1.729755802,
				"y": -1.7132191763,
				"z": 0.0981253081,
				"element": "C" 
			},
			{
				"x": -1.0978037241,
				"y": -2.8925785885,
				"z": -0.3005557705,
				"element": "C" 
			},
			{
				"x": 0.0704410756,
				"y": -2.8245766716,
				"z": -1.0611225134,
				"element": "C" 
			},
			{
				"x": 0.6028090787,
				"y": -1.5855418302,
				"z": -1.4205054558,
				"element": "C" 
			},
			{
				"x": 3.4650024055,
				"y": 1.1175461413,
				"z": -2.0678050699,
				"element": "H" 
			},
			{
				"x": 4.5023783847,
				"y": 0.1212524206,
				"z": -1.1122225717,
				"element": "H" 
			},
			{
				"x": 1.8236286579,
				"y": 2.5443743346,
				"z": -0.6234410427,
				"element": "H" 
			},
			{
				"x": 1.0511739114,
				"y": 1.5784114412,
				"z": 0.6411968058,
				"element": "H" 
			},
			{
				"x": 1.0673703288,
				"y": 0.8868671425,
				"z": -2.3628217963,
				"element": "H" 
			},
			{
				"x": -0.2495838626,
				"y": 1.679453249,
				"z": -1.518216618,
				"element": "H" 
			},
			{
				"x": -1.6950318043,
				"y": 0.4379687594,
				"z": 0.0467245867,
				"element": "H" 
			},
			{
				"x": -2.6417599542,
				"y": -1.7555714448,
				"z": 0.6871103951,
				"element": "H" 
			},
			{
				"x": -1.5140588587,
				"y": -3.8566093434,
				"z": -0.022557928,
				"element": "H" 
			},
			{
				"x": 0.5683487895,
				"y": -3.7370798223,
				"z": -1.3770808212,
				"element": "H" 
			},
			{
				"x": 1.5155974839,
				"y": -1.5395691109,
				"z": -2.0084782909,
				"element": "H" 
			}
		],
		 "valence_orbital": [ 
			{
				"type": "occ",
				"energy": -0.3285,
				"method": "rhf"
			},
			{
				"type": "occ",
				"energy": -0.26618,
				"method": "rhf"
			},
			{
				"type": "occ",
				"energy": -0.24512,
				"method": "rhf"
			},
			{
				"type": "occ",
				"energy": -0.24331,
				"method": "rhf"
			},
			{
				"type": "occ",
				"energy": -0.23571,
				"method": "rhf"
			},
			{
				"type": "unocc",
				"energy": 0.00227,
				"method": "rhf"
			},
			{
				"type": "unocc",
				"energy": 0.00277,
				"method": "rhf"
			},
			{
				"type": "unocc",
				"energy": 0.02852,
				"method": "rhf"
			},
			{
				"type": "unocc",
				"energy": 0.06723,
				"method": "rhf"
			},
			{
				"type": "unocc",
				"energy": 0.09879,
				"method": "rhf"
			}
		],
		"cosmo_sigma_profile": { 
			"-0.025": 0.0,
			"-0.024": 0.0,
			"-0.023": 0.0,
			"-0.022": 0.0,
			"-0.021": 0.0,
			"-0.02": 0.0,
			"-0.019": 0.0,
			"-0.018": 0.0,
			"-0.017": 0.0,
			"-0.016": 0.0,
			"-0.015": 0.0,
			"-0.014": 0.803593561855,
			"-0.013": 2.22502219157,
			"-0.012": 2.77345695461,
			"-0.011": 2.67268449876,
			"-0.01": 2.70519946557,
			"-0.009": 1.80138100306,
			"-0.008": 2.67121130123,
			"-0.007": 2.79578277385,
			"-0.006": 5.19018891262,
			"-0.005": 13.4971965624,
			"-0.004": 19.2015714534,
			"-0.003": 22.6225239741,
			"-0.002": 15.9197004146,
			"-0.001": 14.8077666386,
			"0.0": 10.0325555557,
			"0.001": 9.1816793166,
			"0.002": 9.63270514521,
			"0.003": 9.82612097238,
			"0.004": 9.69182673255,
			"0.005": 9.98754530982,
			"0.006": 11.0026060484,
			"0.007": 4.28909205925,
			"0.008": 1.91265851137,
			"0.009": 0.887273882628,
			"0.01": 1.55156607055,
			"0.011": 1.30123317953,
			"0.012": 2.30648842695,
			"0.013": 3.16655788551,
			"0.014": 5.66666220886,
			"0.015": 2.14442048598,
			"0.016": 0.0537772824161,
			"0.017": 0.0,
			"0.018": 0.0,
			"0.019": 0.0,
			"0.02": 0.0,
			"0.021": 0.0,
			"0.022": 0.0,
			"0.023": 0.0,
			"0.024": 0.0,
			"0.025": 0.0
		}
	}
}
