{
	 "smiles": "CCCCCCCCCCCCCCCCCCCCCCCC(O)=O", 
	 "Tm": 357.35, 
	 "num_atms": 74, 
	 "gaussian": { 
		 "optdone": 1, 
		 "sigma_profile": "yes", 
		 "theory": "DFT", 
		 "functional": "B3LYP", 
		 "basiset": "6-31G**", 
		 "properties": { 
			 "R2extent": 18424.6543, 
			 "electric_dipole_moment_norm": 4.32435078364, 
			 "electric_quadrupole_moment_norm": 49.4541462453, 
			 "total_energy": -1094.00267683, 
			 "HOMO_LUMO_gap": 0.28185, 
			 "cosmo_polarized_energy": -14.13, 
			 "cosmo_cavitation_energy": 71.09, 
			 "cosmo_dispersion_energy": -42.5, 
			 "cosmo_repulsion_energy": 3.37, 
			 "cosmo_total_nonelectrostatic_energy": 31.96, 
			 "SMD_solvation_energy": 9.87 
		},
		"coords": [
			{
				"x": -2.3695331988,
				"y": 1.007933121,
				"z": -3.8973524617,
				"element": "C" 
			},
			{
				"x": -3.5806844842,
				"y": 0.0754939498,
				"z": -3.779310663,
				"element": "C" 
			},
			{
				"x": -3.5217423758,
				"y": -0.9650132093,
				"z": -2.6462464499,
				"element": "C" 
			},
			{
				"x": -2.3948246435,
				"y": -2.0171222966,
				"z": -2.7493098229,
				"element": "C" 
			},
			{
				"x": -1.0892771277,
				"y": -1.6535454774,
				"z": -2.0245044575,
				"element": "C" 
			},
			{
				"x": -0.0091848244,
				"y": -2.7368157784,
				"z": -2.1415235668,
				"element": "C" 
			},
			{
				"x": 1.2970144397,
				"y": -2.3805139893,
				"z": -1.41710805,
				"element": "C" 
			},
			{
				"x": 2.3942678992,
				"y": -3.4545131235,
				"z": -1.5386393704,
				"element": "C" 
			},
			{
				"x": 2.1613091821,
				"y": -4.754599615,
				"z": -0.7311460194,
				"element": "C" 
			},
			{
				"x": 2.9008522152,
				"y": -4.8265575848,
				"z": 0.6189533422,
				"element": "C" 
			},
			{
				"x": 2.4622954628,
				"y": -3.8405545562,
				"z": 1.7163923463,
				"element": "C" 
			},
			{
				"x": 1.0385529891,
				"y": -4.0724760907,
				"z": 2.2479294842,
				"element": "C" 
			},
			{
				"x": 0.7218409303,
				"y": -3.3207732622,
				"z": 3.5543159381,
				"element": "C" 
			},
			{
				"x": 0.7282256262,
				"y": -1.7838011461,
				"z": 3.4749063536,
				"element": "C" 
			},
			{
				"x": -0.4014903587,
				"y": -1.181437201,
				"z": 2.6282856296,
				"element": "C" 
			},
			{
				"x": -0.4004518104,
				"y": 0.3533156656,
				"z": 2.6203004177,
				"element": "C" 
			},
			{
				"x": -1.5424605786,
				"y": 0.9571944115,
				"z": 1.7911664553,
				"element": "C" 
			},
			{
				"x": -1.6266772337,
				"y": 2.4935641588,
				"z": 1.8346387883,
				"element": "C" 
			},
			{
				"x": -0.427355367,
				"y": 3.2584856338,
				"z": 1.2426908066,
				"element": "C" 
			},
			{
				"x": -0.2431598,
				"y": 3.0678353423,
				"z": -0.2700309882,
				"element": "C" 
			},
			{
				"x": 0.9895159124,
				"y": 3.7488380623,
				"z": -0.8937900625,
				"element": "C" 
			},
			{
				"x": 1.0265649933,
				"y": 5.2905303407,
				"z": -0.8258421203,
				"element": "C" 
			},
			{
				"x": 1.72212988,
				"y": 5.8601053931,
				"z": 0.4153621192,
				"element": "C" 
			},
			{
				"x": 1.77490852,
				"y": 7.3828229951,
				"z": 0.4198419301,
				"element": "C" 
			},
			{
				"x": 2.3754225414,
				"y": 7.9390745121,
				"z": 1.510420653,
				"element": "O" 
			},
			{
				"x": 1.3359194615,
				"y": 8.0919842789,
				"z": -0.4498977026,
				"element": "O" 
			},
			{
				"x": -2.1759514355,
				"y": 1.5316396961,
				"z": -2.9537387812,
				"element": "H" 
			},
			{
				"x": -1.459496267,
				"y": 0.463284805,
				"z": -4.1682021236,
				"element": "H" 
			},
			{
				"x": -2.5359166935,
				"y": 1.7670319485,
				"z": -4.669269466,
				"element": "H" 
			},
			{
				"x": -4.4822166393,
				"y": 0.6855035312,
				"z": -3.6357337594,
				"element": "H" 
			},
			{
				"x": -3.7234352662,
				"y": -0.4502195648,
				"z": -4.733626717,
				"element": "H" 
			},
			{
				"x": -4.4876356387,
				"y": -1.4854087302,
				"z": -2.6308761845,
				"element": "H" 
			},
			{
				"x": -3.4481566732,
				"y": -0.4473248908,
				"z": -1.6790013524,
				"element": "H" 
			},
			{
				"x": -2.7558743987,
				"y": -2.9666839805,
				"z": -2.3322356185,
				"element": "H" 
			},
			{
				"x": -2.1820824876,
				"y": -2.2221607416,
				"z": -3.8085246341,
				"element": "H" 
			},
			{
				"x": -1.3129480452,
				"y": -1.4790473078,
				"z": -0.9620094965,
				"element": "H" 
			},
			{
				"x": -0.6921631871,
				"y": -0.7054326379,
				"z": -2.4080018733,
				"element": "H" 
			},
			{
				"x": -0.4082028707,
				"y": -3.6839423739,
				"z": -1.7529173209,
				"element": "H" 
			},
			{
				"x": 0.2105452618,
				"y": -2.916821562,
				"z": -3.2039479524,
				"element": "H" 
			},
			{
				"x": 1.0835386227,
				"y": -2.1806526642,
				"z": -0.3588171193,
				"element": "H" 
			},
			{
				"x": 1.6787433878,
				"y": -1.4368980931,
				"z": -1.8308323571,
				"element": "H" 
			},
			{
				"x": 2.5020843784,
				"y": -3.7040060327,
				"z": -2.6025811748,
				"element": "H" 
			},
			{
				"x": 3.3577038104,
				"y": -3.0199298107,
				"z": -1.240020433,
				"element": "H" 
			},
			{
				"x": 1.0868434423,
				"y": -4.9168791891,
				"z": -0.5785404867,
				"element": "H" 
			},
			{
				"x": 2.5006402258,
				"y": -5.6086352906,
				"z": -1.3300128806,
				"element": "H" 
			},
			{
				"x": 3.9732752626,
				"y": -4.6822453976,
				"z": 0.4278626449,
				"element": "H" 
			},
			{
				"x": 2.8015322538,
				"y": -5.8468915478,
				"z": 1.0151808227,
				"element": "H" 
			},
			{
				"x": 2.5711682273,
				"y": -2.8096581844,
				"z": 1.3562255517,
				"element": "H" 
			},
			{
				"x": 3.1650669914,
				"y": -3.9369640662,
				"z": 2.5561040202,
				"element": "H" 
			},
			{
				"x": 0.9078376622,
				"y": -5.14728024,
				"z": 2.4358576807,
				"element": "H" 
			},
			{
				"x": 0.3001973141,
				"y": -3.8144999252,
				"z": 1.4783941776,
				"element": "H" 
			},
			{
				"x": -0.260512592,
				"y": -3.648232515,
				"z": 3.921762749,
				"element": "H" 
			},
			{
				"x": 1.4483825457,
				"y": -3.6344868953,
				"z": 4.3164604165,
				"element": "H" 
			},
			{
				"x": 1.6967870946,
				"y": -1.4330171106,
				"z": 3.0936710067,
				"element": "H" 
			},
			{
				"x": 0.6491006097,
				"y": -1.3853808236,
				"z": 4.495704693,
				"element": "H" 
			},
			{
				"x": -0.330345523,
				"y": -1.5435002451,
				"z": 1.5938122588,
				"element": "H" 
			},
			{
				"x": -1.3682476839,
				"y": -1.5420069045,
				"z": 3.0086592089,
				"element": "H" 
			},
			{
				"x": -0.4710125243,
				"y": 0.7213658117,
				"z": 3.6544089521,
				"element": "H" 
			},
			{
				"x": 0.5677430197,
				"y": 0.7056802293,
				"z": 2.2395691745,
				"element": "H" 
			},
			{
				"x": -2.4954013672,
				"y": 0.5528662885,
				"z": 2.1586244663,
				"element": "H" 
			},
			{
				"x": -1.4572858337,
				"y": 0.6133189559,
				"z": 0.7517157968,
				"element": "H" 
			},
			{
				"x": -2.5372267938,
				"y": 2.8116008969,
				"z": 1.3087505496,
				"element": "H" 
			},
			{
				"x": -1.7582746992,
				"y": 2.8058946901,
				"z": 2.8796356426,
				"element": "H" 
			},
			{
				"x": -0.5754679919,
				"y": 4.324241446,
				"z": 1.4580417777,
				"element": "H" 
			},
			{
				"x": 0.4952097901,
				"y": 2.9673527379,
				"z": 1.7637939909,
				"element": "H" 
			},
			{
				"x": -0.1792414397,
				"y": 1.99559976,
				"z": -0.4940760652,
				"element": "H" 
			},
			{
				"x": -1.1452740651,
				"y": 3.4296958729,
				"z": -0.7843244477,
				"element": "H" 
			},
			{
				"x": 1.9031190532,
				"y": 3.3364417457,
				"z": -0.4414875526,
				"element": "H" 
			},
			{
				"x": 1.0250841954,
				"y": 3.4531259555,
				"z": -1.9491489587,
				"element": "H" 
			},
			{
				"x": 1.5493557641,
				"y": 5.6856401207,
				"z": -1.7027774002,
				"element": "H" 
			},
			{
				"x": 0.0104092814,
				"y": 5.6974140429,
				"z": -0.8859361351,
				"element": "H" 
			},
			{
				"x": 1.2298502141,
				"y": 5.5325641981,
				"z": 1.3398546876,
				"element": "H" 
			},
			{
				"x": 2.7543169665,
				"y": 5.4849346275,
				"z": 0.4770207381,
				"element": "H" 
			},
			{
				"x": 2.6729564913,
				"y": 7.2450548304,
				"z": 2.1157267552,
				"element": "H" 
			}
		],
		 "valence_orbital": [ 
			{
				"type": "occ",
				"energy": -0.30154,
				"method": "rhf"
			},
			{
				"type": "occ",
				"energy": -0.3012,
				"method": "rhf"
			},
			{
				"type": "occ",
				"energy": -0.29918,
				"method": "rhf"
			},
			{
				"type": "occ",
				"energy": -0.29512,
				"method": "rhf"
			},
			{
				"type": "occ",
				"energy": -0.26815,
				"method": "rhf"
			},
			{
				"type": "unocc",
				"energy": 0.0137,
				"method": "rhf"
			},
			{
				"type": "unocc",
				"energy": 0.05286,
				"method": "rhf"
			},
			{
				"type": "unocc",
				"energy": 0.05607,
				"method": "rhf"
			},
			{
				"type": "unocc",
				"energy": 0.07069,
				"method": "rhf"
			},
			{
				"type": "unocc",
				"energy": 0.08019,
				"method": "rhf"
			}
		],
		"cosmo_sigma_profile": { 
			"-0.025": 0.0,
			"-0.024": 0.0,
			"-0.023": 0.0,
			"-0.022": 0.0,
			"-0.021": 0.0,
			"-0.02": 0.0,
			"-0.019": 0.154722887442,
			"-0.018": 1.07263627485,
			"-0.017": 1.0969711328,
			"-0.016": 0.976316582613,
			"-0.015": 1.27951447421,
			"-0.014": 1.12140467645,
			"-0.013": 1.10828180387,
			"-0.012": 0.551378282998,
			"-0.011": 1.26454108431,
			"-0.01": 1.54091864924,
			"-0.009": 1.36818021044,
			"-0.008": 1.26450170971,
			"-0.007": 2.33349103071,
			"-0.006": 3.19466746402,
			"-0.005": 4.6229275821,
			"-0.004": 5.43756660871,
			"-0.003": 9.97481421794,
			"-0.002": 55.9082080513,
			"-0.001": 133.657733249,
			"0.0": 133.169687023,
			"0.001": 101.981900662,
			"0.002": 43.1497682716,
			"0.003": 3.02042900512,
			"0.004": 2.28792755188,
			"0.005": 2.52913806627,
			"0.006": 1.87702845078,
			"0.007": 2.04783376344,
			"0.008": 3.15246232443,
			"0.009": 3.50653834494,
			"0.01": 3.30340223931,
			"0.011": 6.14756840675,
			"0.012": 5.82937821851,
			"0.013": 2.94799013025,
			"0.014": 0.271843112797,
			"0.015": 0.0,
			"0.016": 0.0,
			"0.017": 0.0,
			"0.018": 0.0,
			"0.019": 0.0,
			"0.02": 0.0,
			"0.021": 0.0,
			"0.022": 0.0,
			"0.023": 0.0,
			"0.024": 0.0,
			"0.025": 0.0
		}
	}
}
