{
	 "smiles": "SC1=CC(Cl)=CC(Cl)=C1", 
	 "Tm": 333.15, 
	 "num_atms": 13, 
	 "gaussian": { 
		 "optdone": 1, 
		 "sigma_profile": "yes", 
		 "theory": "DFT", 
		 "functional": "B3LYP", 
		 "basiset": "6-31G**", 
		 "properties": { 
			 "R2extent": 2388.801, 
			 "electric_dipole_moment_norm": 1.44464826515, 
			 "electric_quadrupole_moment_norm": 4.38922514004, 
			 "total_energy": -1549.61691449, 
			 "HOMO_LUMO_gap": 0.20782, 
			 "cosmo_polarized_energy": -5.91, 
			 "cosmo_cavitation_energy": 22.77, 
			 "cosmo_dispersion_energy": -17.67, 
			 "cosmo_repulsion_energy": 1.4, 
			 "cosmo_total_nonelectrostatic_energy": 6.5, 
			 "SMD_solvation_energy": 2.83 
		},
		"coords": [
			{
				"x": 0.4372724841,
				"y": 1.2749230615,
				"z": 2.5707172574,
				"element": "S" 
			},
			{
				"x": -0.0593782762,
				"y": 0.5477772231,
				"z": 1.0197538049,
				"element": "C" 
			},
			{
				"x": -1.433947414,
				"y": 0.3979459317,
				"z": 0.7904623351,
				"element": "C" 
			},
			{
				"x": -1.8612295981,
				"y": -0.1652964603,
				"z": -0.4084353921,
				"element": "C" 
			},
			{
				"x": -3.581841044,
				"y": -0.3524972121,
				"z": -0.6949444312,
				"element": "Cl" 
			},
			{
				"x": -0.9659235162,
				"y": -0.5866689234,
				"z": -1.3914497646,
				"element": "C" 
			},
			{
				"x": 0.3938442237,
				"y": -0.4248071402,
				"z": -1.1345731809,
				"element": "C" 
			},
			{
				"x": 1.5538710582,
				"y": -0.9419886528,
				"z": -2.3455959651,
				"element": "Cl" 
			},
			{
				"x": 0.864325903,
				"y": 0.134353041,
				"z": 0.0521088557,
				"element": "C" 
			},
			{
				"x": 1.7650609703,
				"y": 1.2165422062,
				"z": 2.3565258133,
				"element": "H" 
			},
			{
				"x": -2.1606426209,
				"y": 0.7134056525,
				"z": 1.5304096584,
				"element": "H" 
			},
			{
				"x": -1.3143894646,
				"y": -1.0228620014,
				"z": -2.3185517993,
				"element": "H" 
			},
			{
				"x": 1.9313772946,
				"y": 0.2409732741,
				"z": 0.2088728084,
				"element": "H" 
			}
		],
		 "valence_orbital": [ 
			{
				"type": "occ",
				"energy": -0.32842,
				"method": "rhf"
			},
			{
				"type": "occ",
				"energy": -0.32153,
				"method": "rhf"
			},
			{
				"type": "occ",
				"energy": -0.29698,
				"method": "rhf"
			},
			{
				"type": "occ",
				"energy": -0.25988,
				"method": "rhf"
			},
			{
				"type": "occ",
				"energy": -0.23968,
				"method": "rhf"
			},
			{
				"type": "unocc",
				"energy": -0.03186,
				"method": "rhf"
			},
			{
				"type": "unocc",
				"energy": -0.03041,
				"method": "rhf"
			},
			{
				"type": "unocc",
				"energy": -0.01539,
				"method": "rhf"
			},
			{
				"type": "unocc",
				"energy": 0.01516,
				"method": "rhf"
			},
			{
				"type": "unocc",
				"energy": 0.04343,
				"method": "rhf"
			}
		],
		"cosmo_sigma_profile": { 
			"-0.025": 0.0,
			"-0.024": 0.0,
			"-0.023": 0.0,
			"-0.022": 0.0,
			"-0.021": 0.0,
			"-0.02": 0.0,
			"-0.019": 0.0,
			"-0.018": 0.0,
			"-0.017": 0.0,
			"-0.016": 0.0,
			"-0.015": 0.0,
			"-0.014": 0.0,
			"-0.013": 0.0,
			"-0.012": 1.05441001773,
			"-0.011": 3.34126152682,
			"-0.01": 2.0166278336,
			"-0.009": 3.24173333327,
			"-0.008": 5.25536272865,
			"-0.007": 5.00876322996,
			"-0.006": 5.97671506347,
			"-0.005": 4.84329565088,
			"-0.004": 5.93062876261,
			"-0.003": 6.39233250867,
			"-0.002": 10.4974868754,
			"-0.001": 12.4328274667,
			"0.0": 15.6957056815,
			"0.001": 26.4496479989,
			"0.002": 27.9149194389,
			"0.003": 18.5036365709,
			"0.004": 22.7737062887,
			"0.005": 6.05517704672,
			"0.006": 2.569590045,
			"0.007": 2.94576540654,
			"0.008": 1.3410487917,
			"0.009": 0.0246571492871,
			"0.01": 0.0,
			"0.011": 0.0,
			"0.012": 0.0,
			"0.013": 0.0,
			"0.014": 0.0,
			"0.015": 0.0,
			"0.016": 0.0,
			"0.017": 0.0,
			"0.018": 0.0,
			"0.019": 0.0,
			"0.02": 0.0,
			"0.021": 0.0,
			"0.022": 0.0,
			"0.023": 0.0,
			"0.024": 0.0,
			"0.025": 0.0
		}
	}
}
