{
	 "smiles": "COCCCNC1=NC(SC)=NC(NCCCOC)=N1", 
	 "Tm": 328.15, 
	 "num_atms": 43, 
	 "gaussian": { 
		 "optdone": 1, 
		 "sigma_profile": "yes", 
		 "theory": "DFT", 
		 "functional": "B3LYP", 
		 "basiset": "6-31G**", 
		 "properties": { 
			 "R2extent": 8341.449, 
			 "electric_dipole_moment_norm": 1.30895327266, 
			 "electric_quadrupole_moment_norm": 23.0099463982, 
			 "total_energy": -1293.54770194, 
			 "HOMO_LUMO_gap": 0.21867, 
			 "cosmo_polarized_energy": -17.92, 
			 "cosmo_cavitation_energy": 47.92, 
			 "cosmo_dispersion_energy": -31.41, 
			 "cosmo_repulsion_energy": 2.46, 
			 "cosmo_total_nonelectrostatic_energy": 18.96, 
			 "SMD_solvation_energy": 5.23 
		},
		"coords": [
			{
				"x": -2.2743021031,
				"y": 1.4205533219,
				"z": -2.7841103631,
				"element": "C" 
			},
			{
				"x": -2.5821788371,
				"y": 1.4954876909,
				"z": -1.4099304333,
				"element": "O" 
			},
			{
				"x": -3.4112049336,
				"y": 0.4331874299,
				"z": -0.9720348076,
				"element": "C" 
			},
			{
				"x": -3.6449722064,
				"y": 0.5936629971,
				"z": 0.525194901,
				"element": "C" 
			},
			{
				"x": -2.3687118331,
				"y": 0.4597188359,
				"z": 1.3659383412,
				"element": "C" 
			},
			{
				"x": -1.839555003,
				"y": -0.8945229049,
				"z": 1.3383444518,
				"element": "N" 
			},
			{
				"x": -0.5306672315,
				"y": -1.2346672001,
				"z": 1.2300149905,
				"element": "C" 
			},
			{
				"x": -0.2600666382,
				"y": -2.5541643375,
				"z": 1.3396876733,
				"element": "N" 
			},
			{
				"x": 1.0348000012,
				"y": -2.8490191964,
				"z": 1.2156823474,
				"element": "C" 
			},
			{
				"x": 1.3881647658,
				"y": -4.58243144,
				"z": 1.3601896187,
				"element": "S" 
			},
			{
				"x": 3.2002405065,
				"y": -4.6062244666,
				"z": 1.15107391,
				"element": "C" 
			},
			{
				"x": 2.0373415754,
				"y": -1.998272183,
				"z": 1.0037700176,
				"element": "N" 
			},
			{
				"x": 1.6360990402,
				"y": -0.7064969073,
				"z": 0.9121685994,
				"element": "C" 
			},
			{
				"x": 2.620917143,
				"y": 0.2030866755,
				"z": 0.7053148469,
				"element": "N" 
			},
			{
				"x": 2.4060821729,
				"y": 1.6361155745,
				"z": 0.5555380187,
				"element": "C" 
			},
			{
				"x": 2.0172451538,
				"y": 2.070933975,
				"z": -0.8667117784,
				"element": "C" 
			},
			{
				"x": 3.1284317137,
				"y": 1.8263085147,
				"z": -1.892121115,
				"element": "C" 
			},
			{
				"x": 2.8056608333,
				"y": 2.2812724546,
				"z": -3.1967293771,
				"element": "O" 
			},
			{
				"x": 1.9696168382,
				"y": 1.4046585237,
				"z": -3.9234478329,
				"element": "C" 
			},
			{
				"x": 0.3752283492,
				"y": -0.2642317396,
				"z": 1.0162757457,
				"element": "N" 
			},
			{
				"x": -1.7371668767,
				"y": 0.4914858715,
				"z": -3.034146403,
				"element": "H" 
			},
			{
				"x": -1.6356718461,
				"y": 2.2746899576,
				"z": -3.0230489201,
				"element": "H" 
			},
			{
				"x": -3.1795070721,
				"y": 1.4698290766,
				"z": -3.4107700334,
				"element": "H" 
			},
			{
				"x": -4.374397977,
				"y": 0.452024756,
				"z": -1.5098060318,
				"element": "H" 
			},
			{
				"x": -2.9348778903,
				"y": -0.5385690156,
				"z": -1.1833287444,
				"element": "H" 
			},
			{
				"x": -4.3903658099,
				"y": -0.1455668601,
				"z": 0.8485556611,
				"element": "H" 
			},
			{
				"x": -4.0809510618,
				"y": 1.5823207415,
				"z": 0.7093054702,
				"element": "H" 
			},
			{
				"x": -2.5783130662,
				"y": 0.7662750915,
				"z": 2.4009711216,
				"element": "H" 
			},
			{
				"x": -1.5934469373,
				"y": 1.1187910652,
				"z": 0.9752004503,
				"element": "H" 
			},
			{
				"x": -2.4441120152,
				"y": -1.6671541728,
				"z": 1.5807417462,
				"element": "H" 
			},
			{
				"x": 3.687912663,
				"y": -4.0221466739,
				"z": 1.9319211656,
				"element": "H" 
			},
			{
				"x": 3.4831321108,
				"y": -4.2140260119,
				"z": 0.1738858847,
				"element": "H" 
			},
			{
				"x": 3.4949503978,
				"y": -5.6550578325,
				"z": 1.2311423915,
				"element": "H" 
			},
			{
				"x": 3.5464683256,
				"y": -0.1876914493,
				"z": 0.6203107352,
				"element": "H" 
			},
			{
				"x": 1.6181063004,
				"y": 1.9323854257,
				"z": 1.2518231398,
				"element": "H" 
			},
			{
				"x": 3.3298144814,
				"y": 2.1380733477,
				"z": 0.866959109,
				"element": "H" 
			},
			{
				"x": 1.7829927062,
				"y": 3.1424301256,
				"z": -0.8547377496,
				"element": "H" 
			},
			{
				"x": 1.0996186875,
				"y": 1.5442038813,
				"z": -1.1485457891,
				"element": "H" 
			},
			{
				"x": 3.3955546371,
				"y": 0.7568207813,
				"z": -1.916985279,
				"element": "H" 
			},
			{
				"x": 4.0273543412,
				"y": 2.3834609818,
				"z": -1.5990166015,
				"element": "H" 
			},
			{
				"x": 2.4154556948,
				"y": 0.4013277872,
				"z": -4.0159290561,
				"element": "H" 
			},
			{
				"x": 1.8531289334,
				"y": 1.8299488666,
				"z": -4.9236696898,
				"element": "H" 
			},
			{
				"x": 0.9720519658,
				"y": 1.2949886409,
				"z": -3.4732403322,
				"element": "H" 
			}
		],
		 "valence_orbital": [ 
			{
				"type": "occ",
				"energy": -0.25254,
				"method": "rhf"
			},
			{
				"type": "occ",
				"energy": -0.2517,
				"method": "rhf"
			},
			{
				"type": "occ",
				"energy": -0.23672,
				"method": "rhf"
			},
			{
				"type": "occ",
				"energy": -0.22756,
				"method": "rhf"
			},
			{
				"type": "occ",
				"energy": -0.22247,
				"method": "rhf"
			},
			{
				"type": "unocc",
				"energy": -0.0038,
				"method": "rhf"
			},
			{
				"type": "unocc",
				"energy": 0.01139,
				"method": "rhf"
			},
			{
				"type": "unocc",
				"energy": 0.04798,
				"method": "rhf"
			},
			{
				"type": "unocc",
				"energy": 0.0721,
				"method": "rhf"
			},
			{
				"type": "unocc",
				"energy": 0.08142,
				"method": "rhf"
			}
		],
		"cosmo_sigma_profile": { 
			"-0.025": 0.0,
			"-0.024": 0.0,
			"-0.023": 0.0,
			"-0.022": 0.0,
			"-0.021": 0.0,
			"-0.02": 0.0,
			"-0.019": 0.0,
			"-0.018": 0.0,
			"-0.017": 0.0,
			"-0.016": 0.0,
			"-0.015": 0.0,
			"-0.014": 0.304875043949,
			"-0.013": 2.0768795951,
			"-0.012": 1.73531885017,
			"-0.011": 1.49348793781,
			"-0.01": 2.37333691375,
			"-0.009": 2.45436293722,
			"-0.008": 2.44905863759,
			"-0.007": 3.84431411742,
			"-0.006": 6.04786987734,
			"-0.005": 14.9188916543,
			"-0.004": 27.9739656744,
			"-0.003": 53.8187129171,
			"-0.002": 58.5109089814,
			"-0.001": 38.8041826055,
			"0.0": 23.6205587393,
			"0.001": 19.7215492383,
			"0.002": 18.5068476963,
			"0.003": 13.4553700033,
			"0.004": 13.9477810001,
			"0.005": 13.0289811496,
			"0.006": 12.7838198007,
			"0.007": 12.8398707096,
			"0.008": 11.0311618703,
			"0.009": 5.81185894637,
			"0.01": 3.0664686543,
			"0.011": 3.64547472129,
			"0.012": 3.17471674138,
			"0.013": 3.52856371372,
			"0.014": 1.59647119238,
			"0.015": 0.0,
			"0.016": 0.0,
			"0.017": 0.0,
			"0.018": 0.0,
			"0.019": 0.0,
			"0.02": 0.0,
			"0.021": 0.0,
			"0.022": 0.0,
			"0.023": 0.0,
			"0.024": 0.0,
			"0.025": 0.0
		}
	}
}
