{
	 "smiles": "COC(=O)C1=C(C(=C(S1)C(F)(F)F)C1=CC=CC=C1)S(Cl)(=O)=O", 
	 "Tm": 347.65, 
	 "num_atms": 31, 
	 "gaussian": { 
		 "optdone": 1, 
		 "sigma_profile": "yes", 
		 "theory": "DFT", 
		 "functional": "B3LYP", 
		 "basiset": "6-31G**", 
		 "properties": { 
			 "R2extent": 8482.783, 
			 "electric_dipole_moment_norm": 3.71552403976, 
			 "electric_quadrupole_moment_norm": 22.6678715068, 
			 "total_energy": -2357.09786181, 
			 "HOMO_LUMO_gap": 0.15354, 
			 "cosmo_polarized_energy": -13.22, 
			 "cosmo_cavitation_energy": 42.1, 
			 "cosmo_dispersion_energy": -29.07, 
			 "cosmo_repulsion_energy": 2.11, 
			 "cosmo_total_nonelectrostatic_energy": 15.14, 
			 "SMD_solvation_energy": 8.1 
		},
		"coords": [
			{
				"x": 3.429022404,
				"y": 4.1527920321,
				"z": -1.4233820633,
				"element": "C" 
			},
			{
				"x": 2.9307190979,
				"y": 2.800061716,
				"z": -1.4416487472,
				"element": "O" 
			},
			{
				"x": 1.9458744192,
				"y": 2.5398323221,
				"z": -0.5587136364,
				"element": "C" 
			},
			{
				"x": 1.4715404226,
				"y": 3.3457848515,
				"z": 0.205666336,
				"element": "O" 
			},
			{
				"x": 1.578781685,
				"y": 1.0956053864,
				"z": -0.6105598053,
				"element": "C" 
			},
			{
				"x": 0.4103481797,
				"y": 0.453504689,
				"z": -0.2399757276,
				"element": "C" 
			},
			{
				"x": 0.48522384,
				"y": -0.9845675692,
				"z": -0.2760175638,
				"element": "C" 
			},
			{
				"x": 1.7364997305,
				"y": -1.3728636818,
				"z": -0.7121649633,
				"element": "C" 
			},
			{
				"x": 2.7895584322,
				"y": -0.0479664744,
				"z": -1.0639609128,
				"element": "S" 
			},
			{
				"x": 2.2523145502,
				"y": -2.7731399638,
				"z": -0.894344373,
				"element": "C" 
			},
			{
				"x": 1.6858830212,
				"y": -3.3877125666,
				"z": -1.9547530352,
				"element": "F" 
			},
			{
				"x": 2.0290021401,
				"y": -3.5392641263,
				"z": 0.184634164,
				"element": "F" 
			},
			{
				"x": 3.5875556851,
				"y": -2.7486564547,
				"z": -1.1174225047,
				"element": "F" 
			},
			{
				"x": -0.5698155697,
				"y": -1.9546378611,
				"z": 0.1280375101,
				"element": "C" 
			},
			{
				"x": -1.1471756459,
				"y": -2.8129801326,
				"z": -0.8166879403,
				"element": "C" 
			},
			{
				"x": -2.1130163421,
				"y": -3.7389106679,
				"z": -0.4231242274,
				"element": "C" 
			},
			{
				"x": -2.5032714226,
				"y": -3.8203490613,
				"z": 0.9138191349,
				"element": "C" 
			},
			{
				"x": -1.9262783086,
				"y": -2.9700849902,
				"z": 1.8596889399,
				"element": "C" 
			},
			{
				"x": -0.965558792,
				"y": -2.039755142,
				"z": 1.4706511754,
				"element": "C" 
			},
			{
				"x": -1.1260141152,
				"y": 1.3487522618,
				"z": 0.038796105,
				"element": "S" 
			},
			{
				"x": -0.9537574086,
				"y": 1.883066012,
				"z": 2.0836365906,
				"element": "Cl" 
			},
			{
				"x": -1.1116784162,
				"y": 2.5717072801,
				"z": -0.7472270843,
				"element": "O" 
			},
			{
				"x": -2.2371736167,
				"y": 0.4136518457,
				"z": -0.0413311248,
				"element": "O" 
			},
			{
				"x": 3.8323966279,
				"y": 4.3961552616,
				"z": -0.4377482717,
				"element": "H" 
			},
			{
				"x": 2.6259800784,
				"y": 4.8522316259,
				"z": -1.6649385803,
				"element": "H" 
			},
			{
				"x": 4.2108739543,
				"y": 4.1840493231,
				"z": -2.1808204262,
				"element": "H" 
			},
			{
				"x": -0.8438706161,
				"y": -2.7514379803,
				"z": -1.8561255537,
				"element": "H" 
			},
			{
				"x": -2.5602800001,
				"y": -4.3952837078,
				"z": -1.1635395586,
				"element": "H" 
			},
			{
				"x": -3.254980397,
				"y": -4.5425343752,
				"z": 1.2184490349,
				"element": "H" 
			},
			{
				"x": -2.225804213,
				"y": -3.0290374582,
				"z": 2.901701098,
				"element": "H" 
			},
			{
				"x": -0.5213994046,
				"y": -1.3770123938,
				"z": 2.2071060111,
				"element": "H" 
			}
		],
		 "valence_orbital": [ 
			{
				"type": "occ",
				"energy": -0.30312,
				"method": "rhf"
			},
			{
				"type": "occ",
				"energy": -0.30043,
				"method": "rhf"
			},
			{
				"type": "occ",
				"energy": -0.28706,
				"method": "rhf"
			},
			{
				"type": "occ",
				"energy": -0.2604,
				"method": "rhf"
			},
			{
				"type": "occ",
				"energy": -0.25561,
				"method": "rhf"
			},
			{
				"type": "unocc",
				"energy": -0.10207,
				"method": "rhf"
			},
			{
				"type": "unocc",
				"energy": -0.07677,
				"method": "rhf"
			},
			{
				"type": "unocc",
				"energy": -0.04083,
				"method": "rhf"
			},
			{
				"type": "unocc",
				"energy": -0.01329,
				"method": "rhf"
			},
			{
				"type": "unocc",
				"energy": -0.00866,
				"method": "rhf"
			}
		],
		"cosmo_sigma_profile": { 
			"-0.025": 0.0,
			"-0.024": 0.0,
			"-0.023": 0.0,
			"-0.022": 0.0,
			"-0.021": 0.0,
			"-0.02": 0.0,
			"-0.019": 0.0,
			"-0.018": 0.0,
			"-0.017": 0.0,
			"-0.016": 0.0,
			"-0.015": 0.0,
			"-0.014": 0.0,
			"-0.013": 0.0,
			"-0.012": 0.0,
			"-0.011": 0.0,
			"-0.01": 0.0,
			"-0.009": 0.0,
			"-0.008": 0.919506016702,
			"-0.007": 8.86295791614,
			"-0.006": 23.0611474247,
			"-0.005": 25.684399695,
			"-0.004": 32.0803427687,
			"-0.003": 24.5292861544,
			"-0.002": 26.1338447845,
			"-0.001": 23.2343579,
			"0.0": 24.2946375264,
			"0.001": 27.210902506,
			"0.002": 41.5534706721,
			"0.003": 21.1129977809,
			"0.004": 14.3106674751,
			"0.005": 8.99441163051,
			"0.006": 7.32008685455,
			"0.007": 11.2958411681,
			"0.008": 11.8623772767,
			"0.009": 4.51194568485,
			"0.01": 4.43393484903,
			"0.011": 1.02120954023,
			"0.012": 0.0112061253798,
			"0.013": 0.0160405869396,
			"0.014": 0.00727285557282,
			"0.015": 0.266184278103,
			"0.016": 0.0727411366136,
			"0.017": 0.0359943717106,
			"0.018": 0.00167073431465,
			"0.019": 0.0174935638858,
			"0.02": 0.056201229867,
			"0.021": 0.0376548729325,
			"0.022": 0.0,
			"0.023": 0.0,
			"0.024": 0.00483634424445,
			"0.025": 0.00256412775555
		}
	}
}
