{
	 "smiles": "CCOC(=O)C1=C(C)OC(N)=C(C#N)C1C1=CC=C(C=C1)N1CCOCC1", 
	 "Tm": 429.15, 
	 "num_atms": 50, 
	 "gaussian": { 
		 "optdone": 1, 
		 "sigma_profile": "yes", 
		 "theory": "DFT", 
		 "functional": "B3LYP", 
		 "basiset": "6-31G**", 
		 "properties": { 
			 "R2extent": 13742.6349, 
			 "electric_dipole_moment_norm": 5.95961466791, 
			 "electric_quadrupole_moment_norm": 27.7969643053, 
			 "total_energy": -1241.09448424, 
			 "HOMO_LUMO_gap": 0.13886, 
			 "cosmo_polarized_energy": -23.55, 
			 "cosmo_cavitation_energy": 52.61, 
			 "cosmo_dispersion_energy": -35.37, 
			 "cosmo_repulsion_energy": 2.74, 
			 "cosmo_total_nonelectrostatic_energy": 19.98, 
			 "SMD_solvation_energy": 10.24 
		},
		"coords": [
			{
				"x": -0.3803090983,
				"y": -5.0680239218,
				"z": -0.0410256319,
				"element": "C" 
			},
			{
				"x": -0.173807352,
				"y": -5.2450653938,
				"z": 1.4556940591,
				"element": "C" 
			},
			{
				"x": 0.7249585386,
				"y": -4.2406962284,
				"z": 1.9873367286,
				"element": "O" 
			},
			{
				"x": 0.1668405822,
				"y": -3.0480915611,
				"z": 2.3103655167,
				"element": "C" 
			},
			{
				"x": -1.0212185803,
				"y": -2.815651952,
				"z": 2.1712366894,
				"element": "O" 
			},
			{
				"x": 1.1204060241,
				"y": -2.0515783523,
				"z": 2.8546767704,
				"element": "C" 
			},
			{
				"x": 2.3742316158,
				"y": -2.3518657239,
				"z": 3.2574386329,
				"element": "C" 
			},
			{
				"x": 3.1286189545,
				"y": -3.6498906803,
				"z": 3.1843595986,
				"element": "C" 
			},
			{
				"x": 3.1858576993,
				"y": -1.3952808475,
				"z": 3.8453317239,
				"element": "O" 
			},
			{
				"x": 2.6560353321,
				"y": -0.2025782815,
				"z": 4.2426252534,
				"element": "C" 
			},
			{
				"x": 3.5790758342,
				"y": 0.5202629485,
				"z": 4.9505950438,
				"element": "N" 
			},
			{
				"x": 1.3926910122,
				"y": 0.1757774278,
				"z": 3.9140189618,
				"element": "C" 
			},
			{
				"x": 0.8965644523,
				"y": 1.390339007,
				"z": 4.4517466796,
				"element": "C" 
			},
			{
				"x": 0.5163596426,
				"y": 2.3877518649,
				"z": 4.9246042615,
				"element": "N" 
			},
			{
				"x": 0.5543351175,
				"y": -0.6374932053,
				"z": 2.9425406417,
				"element": "C" 
			},
			{
				"x": 0.4447057838,
				"y": 0.0143192679,
				"z": 1.5615303814,
				"element": "C" 
			},
			{
				"x": 1.5796373792,
				"y": 0.4163801799,
				"z": 0.8475764595,
				"element": "C" 
			},
			{
				"x": 1.4837382948,
				"y": 1.0101166732,
				"z": -0.4062888178,
				"element": "C" 
			},
			{
				"x": 0.2246840432,
				"y": 1.2237461923,
				"z": -1.0117855284,
				"element": "C" 
			},
			{
				"x": -0.9189414938,
				"y": 0.8087354894,
				"z": -0.2952139142,
				"element": "C" 
			},
			{
				"x": -0.8012972622,
				"y": 0.2224159315,
				"z": 0.9614404374,
				"element": "C" 
			},
			{
				"x": 0.1159843815,
				"y": 1.815591492,
				"z": -2.2627651976,
				"element": "N" 
			},
			{
				"x": 1.2760476757,
				"y": 2.0110753663,
				"z": -3.1220593235,
				"element": "C" 
			},
			{
				"x": 0.8306373495,
				"y": 2.0926217591,
				"z": -4.5809311075,
				"element": "C" 
			},
			{
				"x": -0.0938632016,
				"y": 3.1456363769,
				"z": -4.8335473776,
				"element": "O" 
			},
			{
				"x": -0.887535068,
				"y": 3.5118109174,
				"z": -3.7096806815,
				"element": "C" 
			},
			{
				"x": -1.1498217618,
				"y": 2.352925567,
				"z": -2.749559851,
				"element": "C" 
			},
			{
				"x": -0.8837740438,
				"y": -4.1210996386,
				"z": -0.248367286,
				"element": "H" 
			},
			{
				"x": 0.5763334004,
				"y": -5.0852522807,
				"z": -0.5716171329,
				"element": "H" 
			},
			{
				"x": -1.002703259,
				"y": -5.8819400045,
				"z": -0.4278789983,
				"element": "H" 
			},
			{
				"x": 0.318479846,
				"y": -6.1940092906,
				"z": 1.6828101916,
				"element": "H" 
			},
			{
				"x": -1.1226492339,
				"y": -5.1894870995,
				"z": 1.9938052266,
				"element": "H" 
			},
			{
				"x": 3.2903910195,
				"y": -3.9523624981,
				"z": 2.1470939009,
				"element": "H" 
			},
			{
				"x": 2.5739926345,
				"y": -4.4570390267,
				"z": 3.6668122936,
				"element": "H" 
			},
			{
				"x": 4.0939104509,
				"y": -3.5276307019,
				"z": 3.6786584329,
				"element": "H" 
			},
			{
				"x": 4.2370073668,
				"y": -0.0208504801,
				"z": 5.4941795455,
				"element": "H" 
			},
			{
				"x": 3.2276854567,
				"y": 1.3543193648,
				"z": 5.400855373,
				"element": "H" 
			},
			{
				"x": -0.4626162922,
				"y": -0.722182319,
				"z": 3.3380985344,
				"element": "H" 
			},
			{
				"x": 2.5663846931,
				"y": 0.2845439531,
				"z": 1.2849772421,
				"element": "H" 
			},
			{
				"x": 2.3910786196,
				"y": 1.3379597968,
				"z": -0.9006028043,
				"element": "H" 
			},
			{
				"x": -1.90607516,
				"y": 0.9205267894,
				"z": -0.729169471,
				"element": "H" 
			},
			{
				"x": -1.699906269,
				"y": -0.1020984539,
				"z": 1.4780732747,
				"element": "H" 
			},
			{
				"x": 1.9548270143,
				"y": 1.1563632122,
				"z": -3.0221425995,
				"element": "H" 
			},
			{
				"x": 1.8493168218,
				"y": 2.9139604479,
				"z": -2.8529296161,
				"element": "H" 
			},
			{
				"x": 0.3880505215,
				"y": 1.1269715563,
				"z": -4.871128553,
				"element": "H" 
			},
			{
				"x": 1.6998374195,
				"y": 2.2686445564,
				"z": -5.2238250044,
				"element": "H" 
			},
			{
				"x": -0.4029407923,
				"y": 4.3307855756,
				"z": -3.1557029035,
				"element": "H" 
			},
			{
				"x": -1.8373380778,
				"y": 3.8903621676,
				"z": -4.1017235711,
				"element": "H" 
			},
			{
				"x": -1.735107347,
				"y": 2.7363005844,
				"z": -1.9061915293,
				"element": "H" 
			},
			{
				"x": -1.7621006848,
				"y": 1.5842234761,
				"z": -3.2486449543,
				"element": "H" 
			}
		],
		 "valence_orbital": [ 
			{
				"type": "occ",
				"energy": -0.2525,
				"method": "rhf"
			},
			{
				"type": "occ",
				"energy": -0.24963,
				"method": "rhf"
			},
			{
				"type": "occ",
				"energy": -0.23791,
				"method": "rhf"
			},
			{
				"type": "occ",
				"energy": -0.21443,
				"method": "rhf"
			},
			{
				"type": "occ",
				"energy": -0.18331,
				"method": "rhf"
			},
			{
				"type": "unocc",
				"energy": -0.04445,
				"method": "rhf"
			},
			{
				"type": "unocc",
				"energy": 0.0046,
				"method": "rhf"
			},
			{
				"type": "unocc",
				"energy": 0.0088,
				"method": "rhf"
			},
			{
				"type": "unocc",
				"energy": 0.02568,
				"method": "rhf"
			},
			{
				"type": "unocc",
				"energy": 0.04123,
				"method": "rhf"
			}
		],
		"cosmo_sigma_profile": { 
			"-0.025": 0.0,
			"-0.024": 0.0,
			"-0.023": 0.0,
			"-0.022": 0.0,
			"-0.021": 0.0,
			"-0.02": 0.0,
			"-0.019": 0.0,
			"-0.018": 0.0,
			"-0.017": 0.0,
			"-0.016": 0.0,
			"-0.015": 0.529641095937,
			"-0.014": 2.31706514059,
			"-0.013": 1.51044246095,
			"-0.012": 2.95141839256,
			"-0.011": 1.86410717174,
			"-0.01": 1.89390988275,
			"-0.009": 1.77605248012,
			"-0.008": 1.51093654074,
			"-0.007": 2.55099205507,
			"-0.006": 6.8144357109,
			"-0.005": 29.9371467174,
			"-0.004": 48.1686881651,
			"-0.003": 52.1423489288,
			"-0.002": 43.0259045035,
			"-0.001": 34.5300294723,
			"0.0": 29.7443656515,
			"0.001": 23.3178495361,
			"0.002": 17.6936443004,
			"0.003": 16.6535997723,
			"0.004": 16.3278222111,
			"0.005": 14.455970355,
			"0.006": 13.3818002351,
			"0.007": 12.5052807832,
			"0.008": 6.41728953803,
			"0.009": 6.03097081902,
			"0.01": 6.43981450088,
			"0.011": 6.88204075653,
			"0.012": 6.41025081245,
			"0.013": 5.172166843,
			"0.014": 2.38551660569,
			"0.015": 0.11971986111,
			"0.016": 0.0,
			"0.017": 0.0,
			"0.018": 0.0,
			"0.019": 0.0,
			"0.02": 0.0,
			"0.021": 0.0,
			"0.022": 0.0,
			"0.023": 0.0,
			"0.024": 0.0,
			"0.025": 0.0
		}
	}
}
