{
	 "smiles": "OC(=O)C1=C(Cl)C=C(C=C1Cl)C(F)(F)F", 
	 "Tm": 414.15, 
	 "num_atms": 18, 
	 "gaussian": { 
		 "optdone": 1, 
		 "sigma_profile": "yes", 
		 "theory": "DFT", 
		 "functional": "B3LYP", 
		 "basiset": "6-31G**", 
		 "properties": { 
			 "R2extent": 4321.9917, 
			 "electric_dipole_moment_norm": 3.48549924258, 
			 "electric_quadrupole_moment_norm": 15.2462161958, 
			 "total_energy": -1677.01147195, 
			 "HOMO_LUMO_gap": 0.20958, 
			 "cosmo_polarized_energy": -13.34, 
			 "cosmo_cavitation_energy": 28.77, 
			 "cosmo_dispersion_energy": -20.15, 
			 "cosmo_repulsion_energy": 1.53, 
			 "cosmo_total_nonelectrostatic_energy": 10.15, 
			 "SMD_solvation_energy": 6.66 
		},
		"coords": [
			{
				"x": 2.5584116533,
				"y": 1.4602382775,
				"z": 1.4817198023,
				"element": "O" 
			},
			{
				"x": 1.3989286153,
				"y": 1.0053442962,
				"z": 2.0040936688,
				"element": "C" 
			},
			{
				"x": 1.2050343081,
				"y": 0.9894255844,
				"z": 3.1894976299,
				"element": "O" 
			},
			{
				"x": 0.3670651749,
				"y": 0.5265670577,
				"z": 0.999357607,
				"element": "C" 
			},
			{
				"x": 0.4938365408,
				"y": -0.7112379995,
				"z": 0.3513936056,
				"element": "C" 
			},
			{
				"x": 1.9235957018,
				"y": -1.6897072968,
				"z": 0.6198224275,
				"element": "Cl" 
			},
			{
				"x": -0.4879129448,
				"y": -1.1958119458,
				"z": -0.5090648286,
				"element": "C" 
			},
			{
				"x": -1.6261411189,
				"y": -0.424227299,
				"z": -0.7365208482,
				"element": "C" 
			},
			{
				"x": -1.7838584727,
				"y": 0.8157278116,
				"z": -0.1184534581,
				"element": "C" 
			},
			{
				"x": -0.7924994861,
				"y": 1.2759323384,
				"z": 0.7443660718,
				"element": "C" 
			},
			{
				"x": -1.0013558306,
				"y": 2.8420347321,
				"z": 1.4916111414,
				"element": "Cl" 
			},
			{
				"x": -2.7249198324,
				"y": -0.9593333444,
				"z": -1.6233283659,
				"element": "C" 
			},
			{
				"x": -3.3875512283,
				"y": 0.0375268096,
				"z": -2.2446910758,
				"element": "F" 
			},
			{
				"x": -3.6307830697,
				"y": -1.6584816597,
				"z": -0.9086342127,
				"element": "F" 
			},
			{
				"x": -2.2369320039,
				"y": -1.7860422891,
				"z": -2.5708419511,
				"element": "F" 
			},
			{
				"x": 2.546419948,
				"y": 1.3919636051,
				"z": 0.5157164495,
				"element": "H" 
			},
			{
				"x": -0.3607390256,
				"y": -2.1544991317,
				"z": -0.9961480189,
				"element": "H" 
			},
			{
				"x": -2.6612989292,
				"y": 1.4211804536,
				"z": -0.3086956447,
				"element": "H" 
			}
		],
		 "valence_orbital": [ 
			{
				"type": "occ",
				"energy": -0.33955,
				"method": "rhf"
			},
			{
				"type": "occ",
				"energy": -0.33191,
				"method": "rhf"
			},
			{
				"type": "occ",
				"energy": -0.30715,
				"method": "rhf"
			},
			{
				"type": "occ",
				"energy": -0.28494,
				"method": "rhf"
			},
			{
				"type": "occ",
				"energy": -0.28079,
				"method": "rhf"
			},
			{
				"type": "unocc",
				"energy": -0.07121,
				"method": "rhf"
			},
			{
				"type": "unocc",
				"energy": -0.05588,
				"method": "rhf"
			},
			{
				"type": "unocc",
				"energy": -0.01665,
				"method": "rhf"
			},
			{
				"type": "unocc",
				"energy": -0.01226,
				"method": "rhf"
			},
			{
				"type": "unocc",
				"energy": 0.02529,
				"method": "rhf"
			}
		],
		"cosmo_sigma_profile": { 
			"-0.025": 0.0,
			"-0.024": 0.0,
			"-0.023": 0.0,
			"-0.022": 0.0,
			"-0.021": 0.0,
			"-0.02": 0.845112997218,
			"-0.019": 0.446323615338,
			"-0.018": 0.894821417619,
			"-0.017": 1.05839078015,
			"-0.016": 0.637975235988,
			"-0.015": 0.764478052229,
			"-0.014": 1.44643431331,
			"-0.013": 1.00152507231,
			"-0.012": 0.986392377465,
			"-0.011": 0.620910792059,
			"-0.01": 0.972167862008,
			"-0.009": 3.4049412193,
			"-0.008": 4.12819402017,
			"-0.007": 4.83009444492,
			"-0.006": 5.17170766868,
			"-0.005": 4.41792229561,
			"-0.004": 8.43797805287,
			"-0.003": 12.327432586,
			"-0.002": 22.2424130839,
			"-0.001": 25.3353669127,
			"0.0": 16.5044444007,
			"0.001": 22.0707590475,
			"0.002": 41.8025840274,
			"0.003": 23.1078317579,
			"0.004": 3.7302783818,
			"0.005": 3.75611192558,
			"0.006": 3.09178275723,
			"0.007": 3.13141047605,
			"0.008": 4.05711824134,
			"0.009": 5.30112895059,
			"0.01": 5.68343823287,
			"0.011": 3.6414403331,
			"0.012": 0.282895166138,
			"0.013": 0.0,
			"0.014": 0.0,
			"0.015": 0.0,
			"0.016": 0.0,
			"0.017": 0.0,
			"0.018": 0.0,
			"0.019": 0.0,
			"0.02": 0.0,
			"0.021": 0.0,
			"0.022": 0.0,
			"0.023": 0.0,
			"0.024": 0.0,
			"0.025": 0.0
		}
	}
}
