{
	 "smiles": "CSC1=CC2=C(C=C1)C=C(CCl)C(Cl)=N2", 
	 "Tm": 425.15, 
	 "num_atms": 24, 
	 "gaussian": { 
		 "optdone": 1, 
		 "sigma_profile": "yes", 
		 "theory": "DFT", 
		 "functional": "B3LYP", 
		 "basiset": "6-31G**", 
		 "properties": { 
			 "R2extent": 6087.1935, 
			 "electric_dipole_moment_norm": 3.60411738433, 
			 "electric_quadrupole_moment_norm": 15.1849060906, 
			 "total_energy": -1797.93466772, 
			 "HOMO_LUMO_gap": 0.15364, 
			 "cosmo_polarized_energy": -11.85, 
			 "cosmo_cavitation_energy": 33.14, 
			 "cosmo_dispersion_energy": -24.84, 
			 "cosmo_repulsion_energy": 1.89, 
			 "cosmo_total_nonelectrostatic_energy": 10.2, 
			 "SMD_solvation_energy": 3.28 
		},
		"coords": [
			{
				"x": -0.449876364,
				"y": 2.0383679157,
				"z": 4.0199801143,
				"element": "C" 
			},
			{
				"x": 1.2442057236,
				"y": 2.1219544328,
				"z": 3.3581989044,
				"element": "S" 
			},
			{
				"x": 1.1354562658,
				"y": 1.221507273,
				"z": 1.8334519405,
				"element": "C" 
			},
			{
				"x": -0.0151820746,
				"y": 0.6253679911,
				"z": 1.3491775926,
				"element": "C" 
			},
			{
				"x": 0.007329819,
				"y": -0.0716469756,
				"z": 0.1163035654,
				"element": "C" 
			},
			{
				"x": 1.2205124825,
				"y": -0.1615356723,
				"z": -0.6303271677,
				"element": "C" 
			},
			{
				"x": 2.3879497952,
				"y": 0.4584409427,
				"z": -0.1098804149,
				"element": "C" 
			},
			{
				"x": 2.3482432461,
				"y": 1.1307887298,
				"z": 1.0854662945,
				"element": "C" 
			},
			{
				"x": 1.1804294246,
				"y": -0.8698833315,
				"z": -1.8510853977,
				"element": "C" 
			},
			{
				"x": 0.0107762981,
				"y": -1.4513140516,
				"z": -2.302498979,
				"element": "C" 
			},
			{
				"x": -0.0232456745,
				"y": -2.1984487706,
				"z": -3.5973948145,
				"element": "C" 
			},
			{
				"x": -0.5343236662,
				"y": -1.1350811373,
				"z": -5.0026563247,
				"element": "Cl" 
			},
			{
				"x": -1.1309842192,
				"y": -1.2854982763,
				"z": -1.4587000884,
				"element": "C" 
			},
			{
				"x": -2.664313669,
				"y": -2.0079499109,
				"z": -1.9614152259,
				"element": "Cl" 
			},
			{
				"x": -1.1490047734,
				"y": -0.6480713324,
				"z": -0.3264284014,
				"element": "N" 
			},
			{
				"x": -1.1635792138,
				"y": 2.519022249,
				"z": 3.3472063065,
				"element": "H" 
			},
			{
				"x": -0.4243246648,
				"y": 2.5874195831,
				"z": 4.9632660153,
				"element": "H" 
			},
			{
				"x": -0.7498573648,
				"y": 1.0066370058,
				"z": 4.2163927094,
				"element": "H" 
			},
			{
				"x": -0.9608372747,
				"y": 0.6628945609,
				"z": 1.8749303131,
				"element": "H" 
			},
			{
				"x": 3.3165077471,
				"y": 0.3970319251,
				"z": -0.6709850863,
				"element": "H" 
			},
			{
				"x": 3.2462257663,
				"y": 1.6027574235,
				"z": 1.4734549707,
				"element": "H" 
			},
			{
				"x": 2.085956843,
				"y": -0.9550181484,
				"z": -2.4476248101,
				"element": "H" 
			},
			{
				"x": 0.9671875751,
				"y": -2.5701963364,
				"z": -3.8589832504,
				"element": "H" 
			},
			{
				"x": -0.7344520271,
				"y": -3.0218460892,
				"z": -3.5814487654,
				"element": "H" 
			}
		],
		 "valence_orbital": [ 
			{
				"type": "occ",
				"energy": -0.29639,
				"method": "rhf"
			},
			{
				"type": "occ",
				"energy": -0.28094,
				"method": "rhf"
			},
			{
				"type": "occ",
				"energy": -0.27726,
				"method": "rhf"
			},
			{
				"type": "occ",
				"energy": -0.25077,
				"method": "rhf"
			},
			{
				"type": "occ",
				"energy": -0.22329,
				"method": "rhf"
			},
			{
				"type": "unocc",
				"energy": -0.06965,
				"method": "rhf"
			},
			{
				"type": "unocc",
				"energy": -0.04152,
				"method": "rhf"
			},
			{
				"type": "unocc",
				"energy": 0.00414,
				"method": "rhf"
			},
			{
				"type": "unocc",
				"energy": 0.02037,
				"method": "rhf"
			},
			{
				"type": "unocc",
				"energy": 0.02303,
				"method": "rhf"
			}
		],
		"cosmo_sigma_profile": { 
			"-0.025": 0.0,
			"-0.024": 0.0,
			"-0.023": 0.0,
			"-0.022": 0.0,
			"-0.021": 0.0,
			"-0.02": 0.0,
			"-0.019": 0.0,
			"-0.018": 0.0,
			"-0.017": 0.0,
			"-0.016": 0.0,
			"-0.015": 0.0,
			"-0.014": 0.0,
			"-0.013": 0.0,
			"-0.012": 0.0,
			"-0.011": 0.0,
			"-0.01": 0.197484547777,
			"-0.009": 3.51729841686,
			"-0.008": 7.38726266596,
			"-0.007": 12.397867287,
			"-0.006": 18.41706973,
			"-0.005": 16.7708247966,
			"-0.004": 13.461473552,
			"-0.003": 13.0165145089,
			"-0.002": 17.5739841193,
			"-0.001": 17.1051407477,
			"0.0": 18.6860749527,
			"0.001": 22.1499383912,
			"0.002": 23.3727555612,
			"0.003": 23.7367778304,
			"0.004": 17.8504381036,
			"0.005": 14.6260606244,
			"0.006": 15.7642303446,
			"0.007": 7.69302146293,
			"0.008": 3.20267809543,
			"0.009": 1.20856772821,
			"0.01": 0.68480040899,
			"0.011": 1.54874781454,
			"0.012": 0.62206123495,
			"0.013": 0.83890977176,
			"0.014": 0.234512803906,
			"0.015": 0.0,
			"0.016": 0.0,
			"0.017": 0.0,
			"0.018": 0.0,
			"0.019": 0.0,
			"0.02": 0.0,
			"0.021": 0.0,
			"0.022": 0.0,
			"0.023": 0.0,
			"0.024": 0.0,
			"0.025": 0.0
		}
	}
}
