{
	 "smiles": "ClC1=C(OC2=NC=CC(=C2)C#N)C=CC=C1", 
	 "Tm": 353.15, 
	 "num_atms": 23, 
	 "gaussian": { 
		 "optdone": 1, 
		 "sigma_profile": "yes", 
		 "theory": "DFT", 
		 "functional": "B3LYP", 
		 "basiset": "6-31G**", 
		 "properties": { 
			 "R2extent": 4530.5882, 
			 "electric_dipole_moment_norm": 4.40667590481, 
			 "electric_quadrupole_moment_norm": 14.0405942196, 
			 "total_energy": -1106.38312776, 
			 "HOMO_LUMO_gap": 0.17901, 
			 "cosmo_polarized_energy": -11.28, 
			 "cosmo_cavitation_energy": 31.6, 
			 "cosmo_dispersion_energy": -21.96, 
			 "cosmo_repulsion_energy": 1.72, 
			 "cosmo_total_nonelectrostatic_energy": 11.36, 
			 "SMD_solvation_energy": 5.87 
		},
		"coords": [
			{
				"x": -2.6962760655,
				"y": -0.0316331663,
				"z": 0.7716804092,
				"element": "Cl" 
			},
			{
				"x": -2.0586409414,
				"y": 0.627980686,
				"z": -0.7177739569,
				"element": "C" 
			},
			{
				"x": -0.9069548671,
				"y": 0.0797842303,
				"z": -1.2921357303,
				"element": "C" 
			},
			{
				"x": -0.3059555578,
				"y": -1.0446362218,
				"z": -0.7422171329,
				"element": "O" 
			},
			{
				"x": 0.6146871842,
				"y": -0.8908110058,
				"z": 0.2523285124,
				"element": "C" 
			},
			{
				"x": 0.9779097022,
				"y": 0.3263954445,
				"z": 0.6255775613,
				"element": "N" 
			},
			{
				"x": 1.8931085191,
				"y": 0.4285423938,
				"z": 1.6018492637,
				"element": "C" 
			},
			{
				"x": 2.4769903592,
				"y": -0.6628226105,
				"z": 2.2308321399,
				"element": "C" 
			},
			{
				"x": 2.07639757,
				"y": -1.9467936663,
				"z": 1.81384389,
				"element": "C" 
			},
			{
				"x": 1.1237515925,
				"y": -2.075513477,
				"z": 0.8038699714,
				"element": "C" 
			},
			{
				"x": 2.643785092,
				"y": -3.1166858559,
				"z": 2.4237839811,
				"element": "C" 
			},
			{
				"x": 3.1083757896,
				"y": -4.0595252794,
				"z": 2.9202272227,
				"element": "N" 
			},
			{
				"x": -0.4111431488,
				"y": 0.596940296,
				"z": -2.4865098914,
				"element": "C" 
			},
			{
				"x": -1.0585085094,
				"y": 1.6638855209,
				"z": -3.1075859677,
				"element": "C" 
			},
			{
				"x": -2.2045695506,
				"y": 2.2137838908,
				"z": -2.5311767384,
				"element": "C" 
			},
			{
				"x": -2.7071159609,
				"y": 1.6962769302,
				"z": -1.3373190644,
				"element": "C" 
			},
			{
				"x": 2.1689328186,
				"y": 1.4404553382,
				"z": 1.8891264435,
				"element": "H" 
			},
			{
				"x": 3.2137584778,
				"y": -0.5349774187,
				"z": 3.0144833224,
				"element": "H" 
			},
			{
				"x": 0.7808284965,
				"y": -3.0407271821,
				"z": 0.4529152485,
				"element": "H" 
			},
			{
				"x": 0.4783139842,
				"y": 0.1473157857,
				"z": -2.9150902921,
				"element": "H" 
			},
			{
				"x": -0.6678866945,
				"y": 2.062406146,
				"z": -4.0384983242,
				"element": "H" 
			},
			{
				"x": -2.7145206653,
				"y": 3.0438997086,
				"z": -3.0098594454,
				"element": "H" 
			},
			{
				"x": -3.5994676248,
				"y": 2.1105595128,
				"z": -0.8812514223,
				"element": "H" 
			}
		],
		 "valence_orbital": [ 
			{
				"type": "occ",
				"energy": -0.29876,
				"method": "rhf"
			},
			{
				"type": "occ",
				"energy": -0.29243,
				"method": "rhf"
			},
			{
				"type": "occ",
				"energy": -0.2652,
				"method": "rhf"
			},
			{
				"type": "occ",
				"energy": -0.26253,
				"method": "rhf"
			},
			{
				"type": "occ",
				"energy": -0.25205,
				"method": "rhf"
			},
			{
				"type": "unocc",
				"energy": -0.07304,
				"method": "rhf"
			},
			{
				"type": "unocc",
				"energy": -0.02925,
				"method": "rhf"
			},
			{
				"type": "unocc",
				"energy": -0.01975,
				"method": "rhf"
			},
			{
				"type": "unocc",
				"energy": -0.01777,
				"method": "rhf"
			},
			{
				"type": "unocc",
				"energy": 0.02064,
				"method": "rhf"
			}
		],
		"cosmo_sigma_profile": { 
			"-0.025": 0.0,
			"-0.024": 0.0,
			"-0.023": 0.0,
			"-0.022": 0.0,
			"-0.021": 0.0,
			"-0.02": 0.0,
			"-0.019": 0.0,
			"-0.018": 0.0,
			"-0.017": 0.0,
			"-0.016": 0.0,
			"-0.015": 0.0,
			"-0.014": 0.0,
			"-0.013": 0.0,
			"-0.012": 0.0,
			"-0.011": 0.0,
			"-0.01": 0.53350419529,
			"-0.009": 2.84854928857,
			"-0.008": 7.80861652207,
			"-0.007": 13.5991768955,
			"-0.006": 13.4889396497,
			"-0.005": 15.2773706582,
			"-0.004": 13.0144092809,
			"-0.003": 15.646247083,
			"-0.002": 17.5178935611,
			"-0.001": 21.1513167836,
			"0.0": 19.1698340431,
			"0.001": 20.3109587705,
			"0.002": 20.0643303607,
			"0.003": 19.7693937499,
			"0.004": 18.3653946309,
			"0.005": 9.01290737842,
			"0.006": 6.0222301183,
			"0.007": 7.14448908078,
			"0.008": 4.1709740554,
			"0.009": 4.02348365133,
			"0.01": 3.95756839525,
			"0.011": 3.00044761361,
			"0.012": 2.61373161366,
			"0.013": 0.214857528191,
			"0.014": 0.0,
			"0.015": 0.0,
			"0.016": 0.0,
			"0.017": 0.0,
			"0.018": 0.0,
			"0.019": 0.0,
			"0.02": 0.0,
			"0.021": 0.0,
			"0.022": 0.0,
			"0.023": 0.0,
			"0.024": 0.0,
			"0.025": 0.0
		}
	}
}
