{
	 "smiles": "COC1=CC=C2C(CC(CCC(O)=O)(CCC(O)=O)C2=O)=C1", 
	 "Tm": 424.15, 
	 "num_atms": 40, 
	 "gaussian": { 
		 "optdone": 1, 
		 "sigma_profile": "yes", 
		 "theory": "DFT", 
		 "functional": "B3LYP", 
		 "basiset": "6-31G**", 
		 "properties": { 
			 "R2extent": 9182.055, 
			 "electric_dipole_moment_norm": 2.8815131112, 
			 "electric_quadrupole_moment_norm": 44.8366251625, 
			 "total_energy": -1071.91267603, 
			 "HOMO_LUMO_gap": 0.1813, 
			 "cosmo_polarized_energy": -31.62, 
			 "cosmo_cavitation_energy": 43.33, 
			 "cosmo_dispersion_energy": -30.11, 
			 "cosmo_repulsion_energy": 2.33, 
			 "cosmo_total_nonelectrostatic_energy": 15.56, 
			 "SMD_solvation_energy": 10.28 
		},
		"coords": [
			{
				"x": -5.2125323137,
				"y": 1.4452575848,
				"z": -2.4188430138,
				"element": "C" 
			},
			{
				"x": -4.9588990169,
				"y": 0.5231412089,
				"z": -1.3657299192,
				"element": "O" 
			},
			{
				"x": -3.6736333525,
				"y": 0.2549225908,
				"z": -1.0274680278,
				"element": "C" 
			},
			{
				"x": -3.5206830117,
				"y": -0.6739802045,
				"z": 0.0299257217,
				"element": "C" 
			},
			{
				"x": -2.2594157829,
				"y": -1.0300012357,
				"z": 0.4667147275,
				"element": "C" 
			},
			{
				"x": -1.1412153051,
				"y": -0.4536528176,
				"z": -0.157639796,
				"element": "C" 
			},
			{
				"x": -1.2885419532,
				"y": 0.4629611092,
				"z": -1.2004309916,
				"element": "C" 
			},
			{
				"x": 0.0544596315,
				"y": 0.9407189464,
				"z": -1.704741113,
				"element": "C" 
			},
			{
				"x": 1.1258485564,
				"y": 0.1908581377,
				"z": -0.8415205814,
				"element": "C" 
			},
			{
				"x": 1.9473627622,
				"y": 1.2511551454,
				"z": -0.0548750581,
				"element": "C" 
			},
			{
				"x": 2.9028321875,
				"y": 0.7687717538,
				"z": 1.0431513612,
				"element": "C" 
			},
			{
				"x": 3.3460619551,
				"y": 1.9121950839,
				"z": 1.9479800103,
				"element": "C" 
			},
			{
				"x": 4.2070235368,
				"y": 1.5580302682,
				"z": 2.9419696946,
				"element": "O" 
			},
			{
				"x": 2.9968752024,
				"y": 3.0608109008,
				"z": 1.8370875737,
				"element": "O" 
			},
			{
				"x": 1.9647987749,
				"y": -0.7143644994,
				"z": -1.7881065128,
				"element": "C" 
			},
			{
				"x": 2.9236730445,
				"y": -1.7352412836,
				"z": -1.1637661064,
				"element": "C" 
			},
			{
				"x": 3.3789378876,
				"y": -2.7766731416,
				"z": -2.1791535643,
				"element": "C" 
			},
			{
				"x": 4.247894154,
				"y": -3.7079146928,
				"z": -1.6971815435,
				"element": "O" 
			},
			{
				"x": 3.0320062523,
				"y": -2.8196181319,
				"z": -3.332980594,
				"element": "O" 
			},
			{
				"x": 0.2776807379,
				"y": -0.675666913,
				"z": 0.1286318451,
				"element": "C" 
			},
			{
				"x": 0.7359585682,
				"y": -1.4224336626,
				"z": 0.9891363024,
				"element": "O" 
			},
			{
				"x": -2.5563610318,
				"y": 0.8306313911,
				"z": -1.6505686284,
				"element": "C" 
			},
			{
				"x": -4.8163444089,
				"y": 2.4407134432,
				"z": -2.1844384556,
				"element": "H" 
			},
			{
				"x": -6.2976212341,
				"y": 1.5012802428,
				"z": -2.5114594754,
				"element": "H" 
			},
			{
				"x": -4.7846813559,
				"y": 1.0985715883,
				"z": -3.3673126423,
				"element": "H" 
			},
			{
				"x": -4.4193971833,
				"y": -1.0874885098,
				"z": 0.4749405162,
				"element": "H" 
			},
			{
				"x": -2.121343156,
				"y": -1.7406424413,
				"z": 1.2758016363,
				"element": "H" 
			},
			{
				"x": 0.1448703326,
				"y": 2.0283842847,
				"z": -1.6021066263,
				"element": "H" 
			},
			{
				"x": 0.1719972579,
				"y": 0.721921305,
				"z": -2.7724005191,
				"element": "H" 
			},
			{
				"x": 1.2427077965,
				"y": 1.9433798784,
				"z": 0.4181217854,
				"element": "H" 
			},
			{
				"x": 2.5064101767,
				"y": 1.8555738408,
				"z": -0.7797300185,
				"element": "H" 
			},
			{
				"x": 2.4245715605,
				"y": -0.004870861,
				"z": 1.65536819,
				"element": "H" 
			},
			{
				"x": 3.8089917783,
				"y": 0.3130924627,
				"z": 0.625527449,
				"element": "H" 
			},
			{
				"x": 4.3640096169,
				"y": 0.6032705349,
				"z": 2.9207414691,
				"element": "H" 
			},
			{
				"x": 1.2711245015,
				"y": -1.2760842365,
				"z": -2.4226850595,
				"element": "H" 
			},
			{
				"x": 2.524487676,
				"y": -0.0649669863,
				"z": -2.4724134328,
				"element": "H" 
			},
			{
				"x": 3.8244913591,
				"y": -1.2566411998,
				"z": -0.7604660755,
				"element": "H" 
			},
			{
				"x": 2.4443518294,
				"y": -2.2468026949,
				"z": -0.3207173113,
				"element": "H" 
			},
			{
				"x": 4.4027040701,
				"y": -3.5606507468,
				"z": -0.7532496279,
				"element": "H" 
			},
			{
				"x": -2.6687621008,
				"y": 1.5423525574,
				"z": -2.4602135879,
				"element": "H" 
			}
		],
		 "valence_orbital": [ 
			{
				"type": "occ",
				"energy": -0.27476,
				"method": "rhf"
			},
			{
				"type": "occ",
				"energy": -0.27074,
				"method": "rhf"
			},
			{
				"type": "occ",
				"energy": -0.26632,
				"method": "rhf"
			},
			{
				"type": "occ",
				"energy": -0.24671,
				"method": "rhf"
			},
			{
				"type": "occ",
				"energy": -0.23943,
				"method": "rhf"
			},
			{
				"type": "unocc",
				"energy": -0.05813,
				"method": "rhf"
			},
			{
				"type": "unocc",
				"energy": -0.0203,
				"method": "rhf"
			},
			{
				"type": "unocc",
				"energy": 0.00538,
				"method": "rhf"
			},
			{
				"type": "unocc",
				"energy": 0.017,
				"method": "rhf"
			},
			{
				"type": "unocc",
				"energy": 0.04273,
				"method": "rhf"
			}
		],
		"cosmo_sigma_profile": { 
			"-0.025": 0.0,
			"-0.024": 0.0,
			"-0.023": 0.0,
			"-0.022": 0.0,
			"-0.021": 0.0,
			"-0.02": 0.0,
			"-0.019": 0.763858581699,
			"-0.018": 1.93563627755,
			"-0.017": 2.37899762959,
			"-0.016": 2.09423575068,
			"-0.015": 2.56766226545,
			"-0.014": 1.64101873071,
			"-0.013": 2.35346062963,
			"-0.012": 1.37985439942,
			"-0.011": 2.93400013612,
			"-0.01": 2.2335263232,
			"-0.009": 3.02305344666,
			"-0.008": 5.19234709379,
			"-0.007": 9.17777862925,
			"-0.006": 17.898366632,
			"-0.005": 22.3797262229,
			"-0.004": 39.2891732172,
			"-0.003": 30.6714374321,
			"-0.002": 18.0915259181,
			"-0.001": 14.7027403284,
			"0.0": 13.5166487347,
			"0.001": 14.1640714757,
			"0.002": 16.989816666,
			"0.003": 19.9188476207,
			"0.004": 11.9722905948,
			"0.005": 8.89999189871,
			"0.006": 7.41777824843,
			"0.007": 7.75164700102,
			"0.008": 7.35284934776,
			"0.009": 9.36508674732,
			"0.01": 10.6958309388,
			"0.011": 12.8478182569,
			"0.012": 13.7367443839,
			"0.013": 5.84977653396,
			"0.014": 0.343961170898,
			"0.015": 0.0,
			"0.016": 0.0,
			"0.017": 0.0,
			"0.018": 0.0,
			"0.019": 0.0,
			"0.02": 0.0,
			"0.021": 0.0,
			"0.022": 0.0,
			"0.023": 0.0,
			"0.024": 0.0,
			"0.025": 0.0
		}
	}
}
