{
	 "smiles": "CCCCCC1=CC=C(C=C1)C(C)=NO", 
	 "Tm": 341.15, 
	 "num_atms": 34, 
	 "gaussian": { 
		 "optdone": 1, 
		 "sigma_profile": "yes", 
		 "theory": "DFT", 
		 "functional": "B3LYP", 
		 "basiset": "6-31G**", 
		 "properties": { 
			 "R2extent": 6282.027, 
			 "electric_dipole_moment_norm": 1.03963232924, 
			 "electric_quadrupole_moment_norm": 7.19595229834, 
			 "total_energy": -636.77478781, 
			 "HOMO_LUMO_gap": 0.19052, 
			 "cosmo_polarized_energy": -8.29, 
			 "cosmo_cavitation_energy": 36.15, 
			 "cosmo_dispersion_energy": -25.59, 
			 "cosmo_repulsion_energy": 2.04, 
			 "cosmo_total_nonelectrostatic_energy": 12.6, 
			 "SMD_solvation_energy": 5.72 
		},
		"coords": [
			{
				"x": 2.6652633391,
				"y": 3.7064749994,
				"z": -0.4506588314,
				"element": "C" 
			},
			{
				"x": 1.2204251758,
				"y": 3.9307765818,
				"z": 0.0107130108,
				"element": "C" 
			},
			{
				"x": 0.1658006331,
				"y": 3.1727046471,
				"z": -0.8151407315,
				"element": "C" 
			},
			{
				"x": 0.2588317026,
				"y": 1.6376422993,
				"z": -0.782971389,
				"element": "C" 
			},
			{
				"x": 0.0242939294,
				"y": 1.0177041792,
				"z": 0.6114432675,
				"element": "C" 
			},
			{
				"x": 0.0454011288,
				"y": -0.4942421594,
				"z": 0.5886098815,
				"element": "C" 
			},
			{
				"x": -1.116090804,
				"y": -1.2323127444,
				"z": 0.3245524288,
				"element": "C" 
			},
			{
				"x": -1.1031337963,
				"y": -2.6234190326,
				"z": 0.2738138055,
				"element": "C" 
			},
			{
				"x": 0.0921540935,
				"y": -3.3416701116,
				"z": 0.4756933372,
				"element": "C" 
			},
			{
				"x": 1.2606962058,
				"y": -2.5969268645,
				"z": 0.724919872,
				"element": "C" 
			},
			{
				"x": 1.2341801746,
				"y": -1.2066429607,
				"z": 0.7900468891,
				"element": "C" 
			},
			{
				"x": 0.1788531126,
				"y": -4.8229263977,
				"z": 0.3925014355,
				"element": "C" 
			},
			{
				"x": 1.5083817107,
				"y": -5.4536529061,
				"z": 0.035169792,
				"element": "C" 
			},
			{
				"x": -0.7481726843,
				"y": -5.6996827141,
				"z": 0.5847163273,
				"element": "N" 
			},
			{
				"x": -1.9929178833,
				"y": -5.1657173326,
				"z": 0.9605325296,
				"element": "O" 
			},
			{
				"x": 3.3635262448,
				"y": 4.3186558285,
				"z": 0.1295304977,
				"element": "H" 
			},
			{
				"x": 2.7883126396,
				"y": 3.9730216487,
				"z": -1.5069511417,
				"element": "H" 
			},
			{
				"x": 2.9746898552,
				"y": 2.6621178781,
				"z": -0.3371177871,
				"element": "H" 
			},
			{
				"x": 1.1292858135,
				"y": 3.662824037,
				"z": 1.0712369486,
				"element": "H" 
			},
			{
				"x": 0.9914882831,
				"y": 5.0027195099,
				"z": -0.0439010194,
				"element": "H" 
			},
			{
				"x": 0.2373182142,
				"y": 3.5018137665,
				"z": -1.8609175162,
				"element": "H" 
			},
			{
				"x": -0.8338982837,
				"y": 3.4722461927,
				"z": -0.4713703168,
				"element": "H" 
			},
			{
				"x": -0.4851503578,
				"y": 1.2250961536,
				"z": -1.4759521678,
				"element": "H" 
			},
			{
				"x": 1.2337562852,
				"y": 1.306467462,
				"z": -1.1618541586,
				"element": "H" 
			},
			{
				"x": 0.7876004738,
				"y": 1.3799363293,
				"z": 1.309830357,
				"element": "H" 
			},
			{
				"x": -0.9426361216,
				"y": 1.3666297203,
				"z": 0.9965695676,
				"element": "H" 
			},
			{
				"x": -2.0545236684,
				"y": -0.7071785378,
				"z": 0.1610071089,
				"element": "H" 
			},
			{
				"x": -2.0199494687,
				"y": -3.1595249483,
				"z": 0.0752548158,
				"element": "H" 
			},
			{
				"x": 2.2047386998,
				"y": -3.1066792514,
				"z": 0.8838633346,
				"element": "H" 
			},
			{
				"x": 2.1537008296,
				"y": -0.6655355967,
				"z": 1.0012624943,
				"element": "H" 
			},
			{
				"x": 1.3722841687,
				"y": -6.5274848537,
				"z": -0.1000753391,
				"element": "H" 
			},
			{
				"x": 2.2503441392,
				"y": -5.303092154,
				"z": 0.8276797074,
				"element": "H" 
			},
			{
				"x": 1.9171332106,
				"y": -5.0219075814,
				"z": -0.8845212805,
				"element": "H" 
			},
			{
				"x": -2.5176869951,
				"y": -5.9679350865,
				"z": 1.0791842705,
				"element": "H" 
			}
		],
		 "valence_orbital": [ 
			{
				"type": "occ",
				"energy": -0.31422,
				"method": "rhf"
			},
			{
				"type": "occ",
				"energy": -0.26597,
				"method": "rhf"
			},
			{
				"type": "occ",
				"energy": -0.26116,
				"method": "rhf"
			},
			{
				"type": "occ",
				"energy": -0.2465,
				"method": "rhf"
			},
			{
				"type": "occ",
				"energy": -0.2206,
				"method": "rhf"
			},
			{
				"type": "unocc",
				"energy": -0.03008,
				"method": "rhf"
			},
			{
				"type": "unocc",
				"energy": 0.00233,
				"method": "rhf"
			},
			{
				"type": "unocc",
				"energy": 0.05201,
				"method": "rhf"
			},
			{
				"type": "unocc",
				"energy": 0.0783,
				"method": "rhf"
			},
			{
				"type": "unocc",
				"energy": 0.08201,
				"method": "rhf"
			}
		],
		"cosmo_sigma_profile": { 
			"-0.025": 0.0,
			"-0.024": 0.0,
			"-0.023": 0.0,
			"-0.022": 0.0,
			"-0.021": 0.0,
			"-0.02": 0.0,
			"-0.019": 0.0,
			"-0.018": 0.00117070333625,
			"-0.017": 0.676338072567,
			"-0.016": 1.07280839361,
			"-0.015": 1.02664278303,
			"-0.014": 0.720657692516,
			"-0.013": 0.375379528944,
			"-0.012": 0.683134770854,
			"-0.011": 0.592225988187,
			"-0.01": 0.866239595118,
			"-0.009": 0.791022053914,
			"-0.008": 0.51120959106,
			"-0.007": 0.867252161342,
			"-0.006": 4.13383125505,
			"-0.005": 8.18212342035,
			"-0.004": 13.4380256538,
			"-0.003": 22.9181996623,
			"-0.002": 37.8053916387,
			"-0.001": 37.7251574676,
			"0.0": 39.0418866402,
			"0.001": 34.6716719373,
			"0.002": 17.075419519,
			"0.003": 9.81633487786,
			"0.004": 12.1019322664,
			"0.005": 14.4527893172,
			"0.006": 8.51012460999,
			"0.007": 4.10185695825,
			"0.008": 2.55938178791,
			"0.009": 2.313519502,
			"0.01": 2.26396560608,
			"0.011": 1.12728827238,
			"0.012": 1.13464488788,
			"0.013": 0.787261929544,
			"0.014": 0.130713736603,
			"0.015": 0.0,
			"0.016": 0.0,
			"0.017": 0.0,
			"0.018": 0.0,
			"0.019": 0.0,
			"0.02": 0.0,
			"0.021": 0.0,
			"0.022": 0.0,
			"0.023": 0.0,
			"0.024": 0.0,
			"0.025": 0.0
		}
	}
}
