{
	 "smiles": "SC1=NC2=C(O1)C=CC(Cl)=C2", 
	 "Tm": 551.15, 
	 "num_atms": 15, 
	 "gaussian": { 
		 "optdone": 1, 
		 "sigma_profile": "yes", 
		 "theory": "DFT", 
		 "functional": "B3LYP", 
		 "basiset": "6-31G**", 
		 "properties": { 
			 "R2extent": 4912.1708, 
			 "electric_dipole_moment_norm": 1.65362585248, 
			 "electric_quadrupole_moment_norm": 9.80536345425, 
			 "total_energy": -1257.49891325, 
			 "HOMO_LUMO_gap": 0.19711, 
			 "cosmo_polarized_energy": -6.8, 
			 "cosmo_cavitation_energy": 23.58, 
			 "cosmo_dispersion_energy": -18.58, 
			 "cosmo_repulsion_energy": 1.44, 
			 "cosmo_total_nonelectrostatic_energy": 6.44, 
			 "SMD_solvation_energy": 1.71 
		},
		"coords": [
			{
				"x": -2.040527827,
				"y": 0.393914313,
				"z": 4.9294908636,
				"element": "S" 
			},
			{
				"x": -2.1701656364,
				"y": 0.2388056518,
				"z": 3.1852424692,
				"element": "C" 
			},
			{
				"x": -2.8809770413,
				"y": -0.593890626,
				"z": 2.4952104621,
				"element": "N" 
			},
			{
				"x": -2.588245829,
				"y": -0.2542049764,
				"z": 1.1708695631,
				"element": "C" 
			},
			{
				"x": -1.6780017398,
				"y": 0.8103444028,
				"z": 1.1628970161,
				"element": "C" 
			},
			{
				"x": -1.4071025339,
				"y": 1.1297576212,
				"z": 2.4775590957,
				"element": "O" 
			},
			{
				"x": -1.178838924,
				"y": 1.3917859982,
				"z": 0.0103630055,
				"element": "C" 
			},
			{
				"x": -1.6373114333,
				"y": 0.853213616,
				"z": -1.1952447629,
				"element": "C" 
			},
			{
				"x": -2.5502629252,
				"y": -0.2144557501,
				"z": -1.1997129464,
				"element": "C" 
			},
			{
				"x": -3.0881747797,
				"y": -0.8464479945,
				"z": -2.7519925823,
				"element": "Cl" 
			},
			{
				"x": -3.0469977777,
				"y": -0.7930774498,
				"z": -0.032584885,
				"element": "C" 
			},
			{
				"x": -2.9024063536,
				"y": -0.6143419322,
				"z": 5.158228984,
				"element": "H" 
			},
			{
				"x": -0.4746294735,
				"y": 2.2153547308,
				"z": 0.0349076815,
				"element": "H" 
			},
			{
				"x": -1.2898406369,
				"y": 1.2576973202,
				"z": -2.1386412088,
				"element": "H" 
			},
			{
				"x": -3.7506170887,
				"y": -1.6159549252,
				"z": -0.0567927554,
				"element": "H" 
			}
		],
		 "valence_orbital": [ 
			{
				"type": "occ",
				"energy": -0.3162,
				"method": "rhf"
			},
			{
				"type": "occ",
				"energy": -0.30785,
				"method": "rhf"
			},
			{
				"type": "occ",
				"energy": -0.2978,
				"method": "rhf"
			},
			{
				"type": "occ",
				"energy": -0.2534,
				"method": "rhf"
			},
			{
				"type": "occ",
				"energy": -0.23638,
				"method": "rhf"
			},
			{
				"type": "unocc",
				"energy": -0.03927,
				"method": "rhf"
			},
			{
				"type": "unocc",
				"energy": -0.01032,
				"method": "rhf"
			},
			{
				"type": "unocc",
				"energy": -0.00534,
				"method": "rhf"
			},
			{
				"type": "unocc",
				"energy": 0.02369,
				"method": "rhf"
			},
			{
				"type": "unocc",
				"energy": 0.02397,
				"method": "rhf"
			}
		],
		"cosmo_sigma_profile": { 
			"-0.025": 0.0,
			"-0.024": 0.0,
			"-0.023": 0.0,
			"-0.022": 0.0,
			"-0.021": 0.0,
			"-0.02": 0.0,
			"-0.019": 0.0,
			"-0.018": 0.0,
			"-0.017": 0.0,
			"-0.016": 0.0,
			"-0.015": 0.0,
			"-0.014": 0.0139319819465,
			"-0.013": 1.28615541889,
			"-0.012": 1.9182362878,
			"-0.011": 0.890431360148,
			"-0.01": 1.1083547673,
			"-0.009": 1.89766767484,
			"-0.008": 5.00071599302,
			"-0.007": 6.98417704902,
			"-0.006": 6.80158552303,
			"-0.005": 5.96469796503,
			"-0.004": 7.53742266332,
			"-0.003": 8.33561378531,
			"-0.002": 12.3953095814,
			"-0.001": 15.8532852978,
			"0.0": 20.2341974608,
			"0.001": 22.5403681255,
			"0.002": 23.8724438735,
			"0.003": 17.1378615925,
			"0.004": 14.9110141212,
			"0.005": 11.1031695153,
			"0.006": 2.56037898814,
			"0.007": 0.491549531721,
			"0.008": 1.26846915653,
			"0.009": 0.97556671474,
			"0.01": 1.433007226,
			"0.011": 0.970957591206,
			"0.012": 0.662235930654,
			"0.013": 0.75014351777,
			"0.014": 0.716922704493,
			"0.015": 0.113352585019,
			"0.016": 0.0,
			"0.017": 0.0,
			"0.018": 0.0,
			"0.019": 0.0,
			"0.02": 0.0,
			"0.021": 0.0,
			"0.022": 0.0,
			"0.023": 0.0,
			"0.024": 0.0,
			"0.025": 0.0
		}
	}
}
