{
	 "smiles": "CC1=C(CC(O)=O)C(=O)NC(=N1)N1CCCC1", 
	 "Tm": 536.15, 
	 "num_atms": 32, 
	 "gaussian": { 
		 "optdone": 1, 
		 "sigma_profile": "yes", 
		 "theory": "DFT", 
		 "functional": "B3LYP", 
		 "basiset": "6-31G**", 
		 "properties": { 
			 "R2extent": 5465.3296, 
			 "electric_dipole_moment_norm": 6.72636603078, 
			 "electric_quadrupole_moment_norm": 11.1966749716, 
			 "total_energy": -818.18705866, 
			 "HOMO_LUMO_gap": 0.18533, 
			 "cosmo_polarized_energy": -20.98, 
			 "cosmo_cavitation_energy": 34.79, 
			 "cosmo_dispersion_energy": -25.15, 
			 "cosmo_repulsion_energy": 1.99, 
			 "cosmo_total_nonelectrostatic_energy": 11.63, 
			 "SMD_solvation_energy": 5.41 
		},
		"coords": [
			{
				"x": -1.488410634,
				"y": 2.0047220488,
				"z": -1.3456741727,
				"element": "C" 
			},
			{
				"x": -1.0702249436,
				"y": 1.0836442986,
				"z": -0.2267957239,
				"element": "C" 
			},
			{
				"x": -1.7017214111,
				"y": 1.0699442617,
				"z": 1.0012762015,
				"element": "C" 
			},
			{
				"x": -2.8614340054,
				"y": 1.9640330805,
				"z": 1.3873255496,
				"element": "C" 
			},
			{
				"x": -2.4575780101,
				"y": 3.4067194302,
				"z": 1.6254275968,
				"element": "C" 
			},
			{
				"x": -1.6343435689,
				"y": 3.5395789445,
				"z": 2.6910647333,
				"element": "O" 
			},
			{
				"x": -2.8055151012,
				"y": 4.3567064563,
				"z": 0.9540499988,
				"element": "O" 
			},
			{
				"x": -1.2635436672,
				"y": 0.1239302743,
				"z": 2.0068403922,
				"element": "C" 
			},
			{
				"x": -1.7310112116,
				"y": -0.0481703647,
				"z": 3.1296466069,
				"element": "O" 
			},
			{
				"x": -0.1820777379,
				"y": -0.6837613558,
				"z": 1.5872283292,
				"element": "N" 
			},
			{
				"x": 0.3930450075,
				"y": -0.5960410191,
				"z": 0.347889205,
				"element": "C" 
			},
			{
				"x": -0.0271009118,
				"y": 0.2604327479,
				"z": -0.5603686114,
				"element": "N" 
			},
			{
				"x": 1.4282773936,
				"y": -1.425864929,
				"z": 0.0621246089,
				"element": "N" 
			},
			{
				"x": 2.019909238,
				"y": -2.3901804096,
				"z": 0.992255698,
				"element": "C" 
			},
			{
				"x": 3.2775936737,
				"y": -2.8727478048,
				"z": 0.2494099616,
				"element": "C" 
			},
			{
				"x": 2.895742727,
				"y": -2.7266050396,
				"z": -1.2334741519,
				"element": "C" 
			},
			{
				"x": 2.0651263919,
				"y": -1.4364116649,
				"z": -1.2628889304,
				"element": "C" 
			},
			{
				"x": -0.5968578713,
				"y": 2.403295195,
				"z": -1.8374375084,
				"element": "H" 
			},
			{
				"x": -2.112487879,
				"y": 2.8335091092,
				"z": -1.0113063193,
				"element": "H" 
			},
			{
				"x": -2.038987032,
				"y": 1.4337533905,
				"z": -2.1037253621,
				"element": "H" 
			},
			{
				"x": -3.6451765004,
				"y": 1.9739461699,
				"z": 0.6270589229,
				"element": "H" 
			},
			{
				"x": -3.2746867907,
				"y": 1.5668827919,
				"z": 2.3199304182,
				"element": "H" 
			},
			{
				"x": -1.4239700034,
				"y": 4.4867839537,
				"z": 2.7477485962,
				"element": "H" 
			},
			{
				"x": 0.1224889181,
				"y": -1.3605770432,
				"z": 2.2744700319,
				"element": "H" 
			},
			{
				"x": 2.2673758041,
				"y": -1.9208766401,
				"z": 1.9528767448,
				"element": "H" 
			},
			{
				"x": 1.3286080835,
				"y": -3.2235220576,
				"z": 1.1907894038,
				"element": "H" 
			},
			{
				"x": 4.121251454,
				"y": -2.216206589,
				"z": 0.4881789454,
				"element": "H" 
			},
			{
				"x": 3.5561027243,
				"y": -3.8915664997,
				"z": 0.5297799099,
				"element": "H" 
			},
			{
				"x": 2.2803109908,
				"y": -3.5761470716,
				"z": -1.5502997618,
				"element": "H" 
			},
			{
				"x": 3.7641097129,
				"y": -2.6773137695,
				"z": -1.8952065899,
				"element": "H" 
			},
			{
				"x": 1.3055016558,
				"y": -1.4160193088,
				"z": -2.0471384359,
				"element": "H" 
			},
			{
				"x": 2.6932835045,
				"y": -0.5453705857,
				"z": -1.3920562874,
				"element": "H" 
			}
		],
		 "valence_orbital": [ 
			{
				"type": "occ",
				"energy": -0.26779,
				"method": "rhf"
			},
			{
				"type": "occ",
				"energy": -0.26457,
				"method": "rhf"
			},
			{
				"type": "occ",
				"energy": -0.26071,
				"method": "rhf"
			},
			{
				"type": "occ",
				"energy": -0.24827,
				"method": "rhf"
			},
			{
				"type": "occ",
				"energy": -0.20381,
				"method": "rhf"
			},
			{
				"type": "unocc",
				"energy": -0.01848,
				"method": "rhf"
			},
			{
				"type": "unocc",
				"energy": 0.01458,
				"method": "rhf"
			},
			{
				"type": "unocc",
				"energy": 0.02921,
				"method": "rhf"
			},
			{
				"type": "unocc",
				"energy": 0.06122,
				"method": "rhf"
			},
			{
				"type": "unocc",
				"energy": 0.0835,
				"method": "rhf"
			}
		],
		"cosmo_sigma_profile": { 
			"-0.025": 0.0,
			"-0.024": 0.0,
			"-0.023": 0.0,
			"-0.022": 0.0,
			"-0.021": 0.0,
			"-0.02": 0.0,
			"-0.019": 0.0,
			"-0.018": 0.587371788913,
			"-0.017": 1.05159662734,
			"-0.016": 0.606911464314,
			"-0.015": 0.925054669943,
			"-0.014": 1.81535412741,
			"-0.013": 1.85038437411,
			"-0.012": 1.92155041823,
			"-0.011": 2.17913404995,
			"-0.01": 1.75552772795,
			"-0.009": 2.03689202923,
			"-0.008": 2.19116513835,
			"-0.007": 2.96903149748,
			"-0.006": 5.0135170103,
			"-0.005": 12.7240705674,
			"-0.004": 28.0362289216,
			"-0.003": 34.398845727,
			"-0.002": 30.6126424021,
			"-0.001": 29.3672983087,
			"0.0": 22.0869649538,
			"0.001": 12.4803488277,
			"0.002": 9.15707467338,
			"0.003": 5.92548178872,
			"0.004": 5.51540037757,
			"0.005": 5.38826061924,
			"0.006": 6.8749171446,
			"0.007": 5.54370711722,
			"0.008": 6.29561254087,
			"0.009": 5.63526037055,
			"0.01": 4.93425829592,
			"0.011": 6.08184786184,
			"0.012": 6.94895286575,
			"0.013": 4.44799273048,
			"0.014": 5.57973308281,
			"0.015": 0.54361469411,
			"0.016": 0.0,
			"0.017": 0.0,
			"0.018": 0.0,
			"0.019": 0.0,
			"0.02": 0.0,
			"0.021": 0.0,
			"0.022": 0.0,
			"0.023": 0.0,
			"0.024": 0.0,
			"0.025": 0.0
		}
	}
}
