{
	 "smiles": "OC(=O)CN1C=NC2=C(OC3=C2C=CC=C3)C1=O", 
	 "Tm": 290.15, 
	 "num_atms": 26, 
	 "gaussian": { 
		 "optdone": 1, 
		 "sigma_profile": "yes", 
		 "theory": "DFT", 
		 "functional": "B3LYP", 
		 "basiset": "6-31G**", 
		 "properties": { 
			 "R2extent": 5272.1883, 
			 "electric_dipole_moment_norm": 5.73545574562, 
			 "electric_quadrupole_moment_norm": 18.7466428808, 
			 "total_energy": -872.514948523, 
			 "HOMO_LUMO_gap": 0.17063, 
			 "cosmo_polarized_energy": -17.76, 
			 "cosmo_cavitation_energy": 31.26, 
			 "cosmo_dispersion_energy": -23.32, 
			 "cosmo_repulsion_energy": 1.74, 
			 "cosmo_total_nonelectrostatic_energy": 9.68, 
			 "SMD_solvation_energy": 5.74 
		},
		"coords": [
			{
				"x": 2.0423888519,
				"y": -1.017546356,
				"z": -3.8799357002,
				"element": "O" 
			},
			{
				"x": 0.820173433,
				"y": -1.5418727453,
				"z": -3.9893737105,
				"element": "C" 
			},
			{
				"x": 0.5901202998,
				"y": -2.5646876333,
				"z": -4.5893257741,
				"element": "O" 
			},
			{
				"x": -0.3160668601,
				"y": -0.7365084306,
				"z": -3.3215298099,
				"element": "C" 
			},
			{
				"x": -0.1908894044,
				"y": -0.6178827776,
				"z": -1.8569887899,
				"element": "N" 
			},
			{
				"x": -0.9996952439,
				"y": -1.3727541854,
				"z": -1.036154515,
				"element": "C" 
			},
			{
				"x": -1.0288518869,
				"y": -1.3101104101,
				"z": 0.2615983331,
				"element": "N" 
			},
			{
				"x": -0.1682612704,
				"y": -0.3992848006,
				"z": 0.8058417325,
				"element": "C" 
			},
			{
				"x": 0.681139773,
				"y": 0.3982831601,
				"z": 0.0551754911,
				"element": "C" 
			},
			{
				"x": 1.4485258681,
				"y": 1.2191256553,
				"z": 0.8294788179,
				"element": "O" 
			},
			{
				"x": 1.0774410109,
				"y": 0.9451146305,
				"z": 2.1261762317,
				"element": "C" 
			},
			{
				"x": 0.0810873193,
				"y": -0.0498173629,
				"z": 2.182730262,
				"element": "C" 
			},
			{
				"x": -0.4194352393,
				"y": -0.4613676317,
				"z": 3.4260623828,
				"element": "C" 
			},
			{
				"x": 0.0965115502,
				"y": 0.1405654561,
				"z": 4.5675793986,
				"element": "C" 
			},
			{
				"x": 1.0927502962,
				"y": 1.1347374999,
				"z": 4.4824661692,
				"element": "C" 
			},
			{
				"x": 1.60399288,
				"y": 1.5580796237,
				"z": 3.2573129428,
				"element": "C" 
			},
			{
				"x": 0.752069889,
				"y": 0.3203931524,
				"z": -1.3653370769,
				"element": "C" 
			},
			{
				"x": 1.4965842089,
				"y": 0.9387687345,
				"z": -2.13923142,
				"element": "O" 
			},
			{
				"x": 2.0050317185,
				"y": -0.1808706831,
				"z": -3.3521012219,
				"element": "H" 
			},
			{
				"x": -1.2526960389,
				"y": -1.2426011776,
				"z": -3.5483058875,
				"element": "H" 
			},
			{
				"x": -0.3371513368,
				"y": 0.2768086863,
				"z": -3.7339656089,
				"element": "H" 
			},
			{
				"x": -1.6572150693,
				"y": -2.0663598097,
				"z": -1.5528368861,
				"element": "H" 
			},
			{
				"x": -1.1858181799,
				"y": -1.2269505497,
				"z": 3.4844188253,
				"element": "H" 
			},
			{
				"x": -0.2708163663,
				"y": -0.1570634403,
				"z": 5.5446546193,
				"element": "H" 
			},
			{
				"x": 1.4729670102,
				"y": 1.5825568792,
				"z": 5.3955319366,
				"element": "H" 
			},
			{
				"x": 2.3705127871,
				"y": 2.320744516,
				"z": 3.1803592581,
				"element": "H" 
			}
		],
		 "valence_orbital": [ 
			{
				"type": "occ",
				"energy": -0.30156,
				"method": "rhf"
			},
			{
				"type": "occ",
				"energy": -0.28745,
				"method": "rhf"
			},
			{
				"type": "occ",
				"energy": -0.2705,
				"method": "rhf"
			},
			{
				"type": "occ",
				"energy": -0.26118,
				"method": "rhf"
			},
			{
				"type": "occ",
				"energy": -0.24633,
				"method": "rhf"
			},
			{
				"type": "unocc",
				"energy": -0.0757,
				"method": "rhf"
			},
			{
				"type": "unocc",
				"energy": -0.03989,
				"method": "rhf"
			},
			{
				"type": "unocc",
				"energy": -0.01483,
				"method": "rhf"
			},
			{
				"type": "unocc",
				"energy": -0.00161,
				"method": "rhf"
			},
			{
				"type": "unocc",
				"energy": 0.00678,
				"method": "rhf"
			}
		],
		"cosmo_sigma_profile": { 
			"-0.025": 0.0,
			"-0.024": 0.0,
			"-0.023": 0.0,
			"-0.022": 0.0,
			"-0.021": 0.0,
			"-0.02": 0.0,
			"-0.019": 0.0,
			"-0.018": 0.0,
			"-0.017": 0.0,
			"-0.016": 0.0,
			"-0.015": 0.0,
			"-0.014": 0.0,
			"-0.013": 0.34209365933,
			"-0.012": 1.74961985744,
			"-0.011": 2.87118535796,
			"-0.01": 3.53870096208,
			"-0.009": 5.47089869973,
			"-0.008": 6.77181670841,
			"-0.007": 13.8569219917,
			"-0.006": 18.554250895,
			"-0.005": 16.9171205082,
			"-0.004": 14.6865633103,
			"-0.003": 13.9445392784,
			"-0.002": 12.9968107964,
			"-0.001": 13.7875007657,
			"0.0": 15.0949119431,
			"0.001": 16.265630211,
			"0.002": 16.0366869128,
			"0.003": 14.4227375169,
			"0.004": 9.61449045433,
			"0.005": 6.53841349609,
			"0.006": 5.94454923242,
			"0.007": 5.93911325847,
			"0.008": 5.91402690391,
			"0.009": 5.16734192951,
			"0.01": 8.79350860391,
			"0.011": 8.59080240397,
			"0.012": 6.85009265942,
			"0.013": 1.57967459529,
			"0.014": 0.343800963431,
			"0.015": 0.0,
			"0.016": 0.0,
			"0.017": 0.0,
			"0.018": 0.0,
			"0.019": 0.0,
			"0.02": 0.0,
			"0.021": 0.0,
			"0.022": 0.0,
			"0.023": 0.0,
			"0.024": 0.0,
			"0.025": 0.0
		}
	}
}
