{
	 "smiles": "CC(=O)C1=C(C)NC(=O)C(=C1)C#N", 
	 "Tm": 504.15, 
	 "num_atms": 21, 
	 "gaussian": { 
		 "optdone": 1, 
		 "sigma_profile": "yes", 
		 "theory": "DFT", 
		 "functional": "B3LYP", 
		 "basiset": "6-31G**", 
		 "properties": { 
			 "R2extent": 2754.6904, 
			 "electric_dipole_moment_norm": 9.5293805911, 
			 "electric_quadrupole_moment_norm": 17.8692986432, 
			 "total_energy": -607.722297663, 
			 "HOMO_LUMO_gap": 0.16456, 
			 "cosmo_polarized_energy": -25.8, 
			 "cosmo_cavitation_energy": 26.48, 
			 "cosmo_dispersion_energy": -18.79, 
			 "cosmo_repulsion_energy": 1.47, 
			 "cosmo_total_nonelectrostatic_energy": 9.16, 
			 "SMD_solvation_energy": 7.43 
		},
		"coords": [
			{
				"x": -1.946255882,
				"y": 1.3430322113,
				"z": -1.6413620992,
				"element": "C" 
			},
			{
				"x": -0.5174239432,
				"y": 1.2010004882,
				"z": -1.1463157746,
				"element": "C" 
			},
			{
				"x": 0.3490511552,
				"y": 1.9158529973,
				"z": -1.6311593535,
				"element": "O" 
			},
			{
				"x": -0.1302693215,
				"y": 0.2154486555,
				"z": -0.0844108134,
				"element": "C" 
			},
			{
				"x": -0.9561612658,
				"y": -0.6801469149,
				"z": 0.5892935827,
				"element": "C" 
			},
			{
				"x": -2.4413761978,
				"y": -0.8770208316,
				"z": 0.4160032893,
				"element": "C" 
			},
			{
				"x": -0.3912771527,
				"y": -1.4918876522,
				"z": 1.5239703154,
				"element": "N" 
			},
			{
				"x": 0.9648523259,
				"y": -1.5627701572,
				"z": 1.9280912697,
				"element": "C" 
			},
			{
				"x": 1.2960427595,
				"y": -2.3592746341,
				"z": 2.7899878432,
				"element": "O" 
			},
			{
				"x": 1.8051072372,
				"y": -0.6132180637,
				"z": 1.2055242488,
				"element": "C" 
			},
			{
				"x": 1.257572305,
				"y": 0.2146279403,
				"z": 0.2593123814,
				"element": "C" 
			},
			{
				"x": 3.199300794,
				"y": -0.5778555687,
				"z": 1.5154220213,
				"element": "C" 
			},
			{
				"x": 4.3367109512,
				"y": -0.5347281989,
				"z": 1.7542791085,
				"element": "N" 
			},
			{
				"x": -2.3206629495,
				"y": 0.4114460191,
				"z": -2.0770425203,
				"element": "H" 
			},
			{
				"x": -1.9506178156,
				"y": 2.1192465322,
				"z": -2.4068570555,
				"element": "H" 
			},
			{
				"x": -2.6286547328,
				"y": 1.6335702462,
				"z": -0.8364865606,
				"element": "H" 
			},
			{
				"x": -2.688712838,
				"y": -1.1815574636,
				"z": -0.6035540692,
				"element": "H" 
			},
			{
				"x": -2.9947811612,
				"y": 0.0395449078,
				"z": 0.6325273209,
				"element": "H" 
			},
			{
				"x": -2.8070283995,
				"y": -1.6533681791,
				"z": 1.0924137111,
				"element": "H" 
			},
			{
				"x": -0.9757296239,
				"y": -2.1510921641,
				"z": 2.0257532753,
				"element": "H" 
			},
			{
				"x": 1.8843137558,
				"y": 0.9195498303,
				"z": -0.2763901214,
				"element": "H" 
			}
		],
		 "valence_orbital": [ 
			{
				"type": "occ",
				"energy": -0.3291,
				"method": "rhf"
			},
			{
				"type": "occ",
				"energy": -0.31031,
				"method": "rhf"
			},
			{
				"type": "occ",
				"energy": -0.28301,
				"method": "rhf"
			},
			{
				"type": "occ",
				"energy": -0.26997,
				"method": "rhf"
			},
			{
				"type": "occ",
				"energy": -0.24639,
				"method": "rhf"
			},
			{
				"type": "unocc",
				"energy": -0.08183,
				"method": "rhf"
			},
			{
				"type": "unocc",
				"energy": -0.06363,
				"method": "rhf"
			},
			{
				"type": "unocc",
				"energy": 0.00836,
				"method": "rhf"
			},
			{
				"type": "unocc",
				"energy": 0.03269,
				"method": "rhf"
			},
			{
				"type": "unocc",
				"energy": 0.04511,
				"method": "rhf"
			}
		],
		"cosmo_sigma_profile": { 
			"-0.025": 0.0,
			"-0.024": 0.0,
			"-0.023": 0.0,
			"-0.022": 0.0,
			"-0.021": 0.0,
			"-0.02": 0.0,
			"-0.019": 0.0,
			"-0.018": 0.00639071884933,
			"-0.017": 0.886732774693,
			"-0.016": 1.17396897642,
			"-0.015": 1.48650571353,
			"-0.014": 1.19633845726,
			"-0.013": 1.18672489146,
			"-0.012": 1.05481250786,
			"-0.011": 1.0111230512,
			"-0.01": 2.01854349482,
			"-0.009": 5.14937706683,
			"-0.008": 6.99902497846,
			"-0.007": 9.14374208132,
			"-0.006": 10.2572894708,
			"-0.005": 15.0941170024,
			"-0.004": 19.0192672817,
			"-0.003": 18.0922027552,
			"-0.002": 17.9378204389,
			"-0.001": 15.8871425614,
			"0.0": 6.46247205046,
			"0.001": 4.07069227398,
			"0.002": 4.22807689166,
			"0.003": 4.57311581485,
			"0.004": 4.34838912037,
			"0.005": 5.02356862258,
			"0.006": 6.30332762111,
			"0.007": 5.41899073314,
			"0.008": 6.5457245246,
			"0.009": 7.0200845601,
			"0.01": 7.08563007155,
			"0.011": 7.99348286208,
			"0.012": 11.5384243015,
			"0.013": 4.40801919664,
			"0.014": 0.0285264742699,
			"0.015": 0.0,
			"0.016": 0.0,
			"0.017": 0.0,
			"0.018": 0.0,
			"0.019": 0.0,
			"0.02": 0.0,
			"0.021": 0.0,
			"0.022": 0.0,
			"0.023": 0.0,
			"0.024": 0.0,
			"0.025": 0.0
		}
	}
}
