{
	 "smiles": "OC1=CC=C(OC2CCCCNC2=O)C=C1", 
	 "Tm": 493.15, 
	 "num_atms": 31, 
	 "gaussian": { 
		 "optdone": 1, 
		 "sigma_profile": "yes", 
		 "theory": "DFT", 
		 "functional": "B3LYP", 
		 "basiset": "6-31G**", 
		 "properties": { 
			 "R2extent": 4655.8252, 
			 "electric_dipole_moment_norm": 3.879479844, 
			 "electric_quadrupole_moment_norm": 14.4877833235, 
			 "total_energy": -746.740598461, 
			 "HOMO_LUMO_gap": 0.20952, 
			 "cosmo_polarized_energy": -18.9, 
			 "cosmo_cavitation_energy": 33.12, 
			 "cosmo_dispersion_energy": -24.13, 
			 "cosmo_repulsion_energy": 1.89, 
			 "cosmo_total_nonelectrostatic_energy": 10.88, 
			 "SMD_solvation_energy": 5.27 
		},
		"coords": [
			{
				"x": 4.4961413816,
				"y": -2.7156875702,
				"z": 1.0850758307,
				"element": "O" 
			},
			{
				"x": 3.5348612588,
				"y": -1.7429228051,
				"z": 1.0119959096,
				"element": "C" 
			},
			{
				"x": 3.6945398323,
				"y": -0.750245354,
				"z": 0.0391206618,
				"element": "C" 
			},
			{
				"x": 2.7475989801,
				"y": 0.2649613835,
				"z": -0.0743215556,
				"element": "C" 
			},
			{
				"x": 1.6343116111,
				"y": 0.2909891199,
				"z": 0.7719640699,
				"element": "C" 
			},
			{
				"x": 0.7331271459,
				"y": 1.3436684223,
				"z": 0.6967014944,
				"element": "O" 
			},
			{
				"x": -0.2365600557,
				"y": 1.2831663023,
				"z": -0.3384588873,
				"element": "C" 
			},
			{
				"x": -0.7271110087,
				"y": 2.7220232553,
				"z": -0.5867541794,
				"element": "C" 
			},
			{
				"x": -1.3272866256,
				"y": 2.9625751739,
				"z": -1.9798681558,
				"element": "C" 
			},
			{
				"x": -2.5843940102,
				"y": 2.1496281308,
				"z": -2.3219373458,
				"element": "C" 
			},
			{
				"x": -2.3817953345,
				"y": 0.6271810597,
				"z": -2.2686475731,
				"element": "C" 
			},
			{
				"x": -2.3112841183,
				"y": 0.0729523015,
				"z": -0.9190052105,
				"element": "N" 
			},
			{
				"x": -1.4016138187,
				"y": 0.3531716949,
				"z": 0.0646625761,
				"element": "C" 
			},
			{
				"x": -1.5270370039,
				"y": -0.0979142923,
				"z": 1.19480743,
				"element": "O" 
			},
			{
				"x": 1.4731912156,
				"y": -0.6985471253,
				"z": 1.7419355569,
				"element": "C" 
			},
			{
				"x": 2.4248395052,
				"y": -1.7112839836,
				"z": 1.863030636,
				"element": "C" 
			},
			{
				"x": 4.269507857,
				"y": -3.325538602,
				"z": 1.798757152,
				"element": "H" 
			},
			{
				"x": 4.5660291948,
				"y": -0.7822568156,
				"z": -0.6064706271,
				"element": "H" 
			},
			{
				"x": 2.8763544056,
				"y": 1.0540374938,
				"z": -0.8095621727,
				"element": "H" 
			},
			{
				"x": 0.2294175081,
				"y": 0.8933418575,
				"z": -1.2576769436,
				"element": "H" 
			},
			{
				"x": -1.4395943866,
				"y": 3.0010641059,
				"z": 0.1990890119,
				"element": "H" 
			},
			{
				"x": 0.1480334845,
				"y": 3.3670910931,
				"z": -0.459748058,
				"element": "H" 
			},
			{
				"x": -0.5572627756,
				"y": 2.751452748,
				"z": -2.7359013315,
				"element": "H" 
			},
			{
				"x": -1.560545154,
				"y": 4.0293767576,
				"z": -2.0762760566,
				"element": "H" 
			},
			{
				"x": -3.4079101845,
				"y": 2.4164170907,
				"z": -1.6473357374,
				"element": "H" 
			},
			{
				"x": -2.9067855597,
				"y": 2.4161155048,
				"z": -3.3364896398,
				"element": "H" 
			},
			{
				"x": -3.2208632682,
				"y": 0.1277972071,
				"z": -2.7607579452,
				"element": "H" 
			},
			{
				"x": -1.4835897307,
				"y": 0.3513221965,
				"z": -2.8390744009,
				"element": "H" 
			},
			{
				"x": -3.0881082689,
				"y": -0.484557084,
				"z": -0.5899069672,
				"element": "H" 
			},
			{
				"x": 0.5934849578,
				"y": -0.6665816491,
				"z": 2.3727656768,
				"element": "H" 
			},
			{
				"x": 2.2993029655,
				"y": -2.4826976182,
				"z": 2.6205867814,
				"element": "H" 
			}
		],
		 "valence_orbital": [ 
			{
				"type": "occ",
				"energy": -0.27166,
				"method": "rhf"
			},
			{
				"type": "occ",
				"energy": -0.25047,
				"method": "rhf"
			},
			{
				"type": "occ",
				"energy": -0.24354,
				"method": "rhf"
			},
			{
				"type": "occ",
				"energy": -0.24216,
				"method": "rhf"
			},
			{
				"type": "occ",
				"energy": -0.20516,
				"method": "rhf"
			},
			{
				"type": "unocc",
				"energy": 0.00436,
				"method": "rhf"
			},
			{
				"type": "unocc",
				"energy": 0.02369,
				"method": "rhf"
			},
			{
				"type": "unocc",
				"energy": 0.02832,
				"method": "rhf"
			},
			{
				"type": "unocc",
				"energy": 0.06634,
				"method": "rhf"
			},
			{
				"type": "unocc",
				"energy": 0.07656,
				"method": "rhf"
			}
		],
		"cosmo_sigma_profile": { 
			"-0.025": 0.0,
			"-0.024": 0.0,
			"-0.023": 0.0,
			"-0.022": 0.0,
			"-0.021": 0.0,
			"-0.02": 0.0,
			"-0.019": 0.0,
			"-0.018": 0.177688891409,
			"-0.017": 1.11357709446,
			"-0.016": 1.12371183597,
			"-0.015": 1.00589328221,
			"-0.014": 1.0089906053,
			"-0.013": 2.34402217216,
			"-0.012": 2.27318143898,
			"-0.011": 1.91985672173,
			"-0.01": 1.52257879507,
			"-0.009": 2.42273008353,
			"-0.008": 2.91635112888,
			"-0.007": 3.16085268966,
			"-0.006": 9.81401257041,
			"-0.005": 13.2909775747,
			"-0.004": 20.6774126849,
			"-0.003": 28.3069597216,
			"-0.002": 27.0626218367,
			"-0.001": 22.6181153593,
			"0.0": 16.6589155694,
			"0.001": 8.63897571403,
			"0.002": 8.58664199629,
			"0.003": 10.7874943622,
			"0.004": 15.5753255127,
			"0.005": 16.474298555,
			"0.006": 6.48247978539,
			"0.007": 3.77178729414,
			"0.008": 4.85112910115,
			"0.009": 4.02965271637,
			"0.01": 3.77522851695,
			"0.011": 4.57967644824,
			"0.012": 4.50016941571,
			"0.013": 3.52954965223,
			"0.014": 3.7819130717,
			"0.015": 0.896668163372,
			"0.016": 0.0,
			"0.017": 0.0,
			"0.018": 0.0,
			"0.019": 0.0,
			"0.02": 0.0,
			"0.021": 0.0,
			"0.022": 0.0,
			"0.023": 0.0,
			"0.024": 0.0,
			"0.025": 0.0
		}
	}
}
