{
	 "smiles": "CC1=CC=C(O)C(CO)=N1", 
	 "Tm": 431.15, 
	 "num_atms": 19, 
	 "gaussian": { 
		 "optdone": 1, 
		 "sigma_profile": "yes", 
		 "theory": "DFT", 
		 "functional": "B3LYP", 
		 "basiset": "6-31G**", 
		 "properties": { 
			 "R2extent": 1809.0307, 
			 "electric_dipole_moment_norm": 4.53482576071, 
			 "electric_quadrupole_moment_norm": 6.57920403772, 
			 "total_energy": -477.356059609, 
			 "HOMO_LUMO_gap": 0.20684, 
			 "cosmo_polarized_energy": -14.04, 
			 "cosmo_cavitation_energy": 22.49, 
			 "cosmo_dispersion_energy": -16.99, 
			 "cosmo_repulsion_energy": 1.4, 
			 "cosmo_total_nonelectrostatic_energy": 6.91, 
			 "SMD_solvation_energy": 2.94 
		},
		"coords": [
			{
				"x": 2.0533613137,
				"y": 2.3166105269,
				"z": 2.1437886797,
				"element": "C" 
			},
			{
				"x": 1.0879724493,
				"y": 1.2354219119,
				"z": 1.7204195115,
				"element": "C" 
			},
			{
				"x": -0.2752717128,
				"y": 1.3091730545,
				"z": 2.0294938908,
				"element": "C" 
			},
			{
				"x": -1.1235005767,
				"y": 0.2829609946,
				"z": 1.6213587335,
				"element": "C" 
			},
			{
				"x": -0.5830925673,
				"y": -0.7859665289,
				"z": 0.9123511324,
				"element": "C" 
			},
			{
				"x": -1.327255488,
				"y": -1.8585466065,
				"z": 0.4800370162,
				"element": "O" 
			},
			{
				"x": 0.7928642501,
				"y": -0.7918194287,
				"z": 0.626232186,
				"element": "C" 
			},
			{
				"x": 1.4161731228,
				"y": -1.9381364832,
				"z": -0.1482349388,
				"element": "C" 
			},
			{
				"x": 0.7717227862,
				"y": -2.2066195096,
				"z": -1.3848712255,
				"element": "O" 
			},
			{
				"x": 1.5934280603,
				"y": 0.200892646,
				"z": 1.0282062788,
				"element": "N" 
			},
			{
				"x": 3.0566049199,
				"y": 2.0648834969,
				"z": 1.796508716,
				"element": "H" 
			},
			{
				"x": 2.0784573395,
				"y": 2.4273903886,
				"z": 3.234106925,
				"element": "H" 
			},
			{
				"x": 1.7733800092,
				"y": 3.2902714952,
				"z": 1.7253473874,
				"element": "H" 
			},
			{
				"x": -0.6687948892,
				"y": 2.156996267,
				"z": 2.5825770603,
				"element": "H" 
			},
			{
				"x": -2.186815533,
				"y": 0.313429284,
				"z": 1.852192027,
				"element": "H" 
			},
			{
				"x": -2.2548569193,
				"y": -1.7281301451,
				"z": 0.7161288664,
				"element": "H" 
			},
			{
				"x": 1.4405907921,
				"y": -2.8371026304,
				"z": 0.491267264,
				"element": "H" 
			},
			{
				"x": 2.4484703371,
				"y": -1.662376933,
				"z": -0.3730977657,
				"element": "H" 
			},
			{
				"x": -0.136737694,
				"y": -2.4614318004,
				"z": -1.1727117449,
				"element": "H" 
			}
		],
		 "valence_orbital": [ 
			{
				"type": "occ",
				"energy": -0.32014,
				"method": "rhf"
			},
			{
				"type": "occ",
				"energy": -0.27971,
				"method": "rhf"
			},
			{
				"type": "occ",
				"energy": -0.26676,
				"method": "rhf"
			},
			{
				"type": "occ",
				"energy": -0.24286,
				"method": "rhf"
			},
			{
				"type": "occ",
				"energy": -0.22913,
				"method": "rhf"
			},
			{
				"type": "unocc",
				"energy": -0.02229,
				"method": "rhf"
			},
			{
				"type": "unocc",
				"energy": -0.00218,
				"method": "rhf"
			},
			{
				"type": "unocc",
				"energy": 0.05065,
				"method": "rhf"
			},
			{
				"type": "unocc",
				"energy": 0.09352,
				"method": "rhf"
			},
			{
				"type": "unocc",
				"energy": 0.11915,
				"method": "rhf"
			}
		],
		"cosmo_sigma_profile": { 
			"-0.025": 0.0,
			"-0.024": 0.0,
			"-0.023": 0.0,
			"-0.022": 0.0,
			"-0.021": 0.0,
			"-0.02": 0.0,
			"-0.019": 0.297719171296,
			"-0.018": 1.03207010616,
			"-0.017": 1.08816234091,
			"-0.016": 1.18718674253,
			"-0.015": 1.13227978148,
			"-0.014": 1.22765688761,
			"-0.013": 0.540685616419,
			"-0.012": 0.614757091426,
			"-0.011": 1.46294488554,
			"-0.01": 2.06834709752,
			"-0.009": 1.34505262726,
			"-0.008": 2.00096790844,
			"-0.007": 3.08950860183,
			"-0.006": 5.27160901565,
			"-0.005": 7.77234058508,
			"-0.004": 12.1980209342,
			"-0.003": 15.6415584269,
			"-0.002": 14.0481813526,
			"-0.001": 12.9962614247,
			"0.0": 14.755430902,
			"0.001": 12.8815696836,
			"0.002": 14.1571106257,
			"0.003": 11.4841957242,
			"0.004": 6.98155627542,
			"0.005": 4.92941673252,
			"0.006": 3.33031123908,
			"0.007": 3.88330426978,
			"0.008": 3.75260591029,
			"0.009": 3.01114059416,
			"0.01": 1.59315826825,
			"0.011": 2.28893502083,
			"0.012": 2.14862539185,
			"0.013": 2.87226578009,
			"0.014": 3.13905802451,
			"0.015": 1.4082433448,
			"0.016": 0.00149088837401,
			"0.017": 0.0,
			"0.018": 0.0,
			"0.019": 0.0,
			"0.02": 0.0,
			"0.021": 0.0,
			"0.022": 0.0,
			"0.023": 0.0,
			"0.024": 0.0,
			"0.025": 0.0
		}
	}
}
