{
	 "smiles": "CCCCCCC(C)O", 
	 "Tm": 241.35, 
	 "num_atms": 27, 
	 "gaussian": { 
		 "optdone": 1, 
		 "sigma_profile": "yes", 
		 "theory": "DFT", 
		 "functional": "B3LYP", 
		 "basiset": "6-31G**", 
		 "properties": { 
			 "R2extent": 2970.0217, 
			 "electric_dipole_moment_norm": 1.68721955003, 
			 "electric_quadrupole_moment_norm": 13.724659085, 
			 "total_energy": -390.936450502, 
			 "HOMO_LUMO_gap": 0.32941, 
			 "cosmo_polarized_energy": -5.87, 
			 "cosmo_cavitation_energy": 27.45, 
			 "cosmo_dispersion_energy": -19.16, 
			 "cosmo_repulsion_energy": 1.6, 
			 "cosmo_total_nonelectrostatic_energy": 9.89, 
			 "SMD_solvation_energy": 4.12 
		},
		"coords": [
			{
				"x": 0.7869258309,
				"y": 0.3058672787,
				"z": 1.0411111177,
				"element": "C" 
			},
			{
				"x": 0.8004337749,
				"y": 0.5424666028,
				"z": -0.4752903584,
				"element": "C" 
			},
			{
				"x": -0.5380401346,
				"y": 1.0018205862,
				"z": -1.0930037873,
				"element": "C" 
			},
			{
				"x": -1.5125006833,
				"y": -0.111232906,
				"z": -1.5260680559,
				"element": "C" 
			},
			{
				"x": -2.1379103016,
				"y": -0.986353211,
				"z": -0.4248357518,
				"element": "C" 
			},
			{
				"x": -3.0148364978,
				"y": -0.2147130049,
				"z": 0.5718486605,
				"element": "C" 
			},
			{
				"x": -3.8322515375,
				"y": -1.0959223785,
				"z": 1.5290957157,
				"element": "C" 
			},
			{
				"x": -2.9750001551,
				"y": -1.9318282737,
				"z": 2.482594822,
				"element": "C" 
			},
			{
				"x": -4.7720870479,
				"y": -0.3037027318,
				"z": 2.2596851622,
				"element": "O" 
			},
			{
				"x": 0.4783765642,
				"y": 1.2128822521,
				"z": 1.5741003501,
				"element": "H" 
			},
			{
				"x": 0.1041969567,
				"y": -0.4967926577,
				"z": 1.3340536931,
				"element": "H" 
			},
			{
				"x": 1.7847190936,
				"y": 0.0355592588,
				"z": 1.4035729268,
				"element": "H" 
			},
			{
				"x": 1.142949509,
				"y": -0.366650169,
				"z": -0.9887715726,
				"element": "H" 
			},
			{
				"x": 1.5591300463,
				"y": 1.306165845,
				"z": -0.6885222937,
				"element": "H" 
			},
			{
				"x": -0.3146291732,
				"y": 1.5903566668,
				"z": -1.991941855,
				"element": "H" 
			},
			{
				"x": -1.0376012205,
				"y": 1.6976622406,
				"z": -0.4053385772,
				"element": "H" 
			},
			{
				"x": -0.9895242751,
				"y": -0.767644482,
				"z": -2.2351709282,
				"element": "H" 
			},
			{
				"x": -2.3286918249,
				"y": 0.3548547791,
				"z": -2.0953059187,
				"element": "H" 
			},
			{
				"x": -2.7561668531,
				"y": -1.7518703661,
				"z": -0.9145587887,
				"element": "H" 
			},
			{
				"x": -1.3517866841,
				"y": -1.5355487192,
				"z": 0.106183849,
				"element": "H" 
			},
			{
				"x": -2.3955239743,
				"y": 0.4683352545,
				"z": 1.1716898254,
				"element": "H" 
			},
			{
				"x": -3.7268616364,
				"y": 0.4139217502,
				"z": 0.0220049244,
				"element": "H" 
			},
			{
				"x": -4.4580036616,
				"y": -1.7718074702,
				"z": 0.9318582536,
				"element": "H" 
			},
			{
				"x": -2.322119379,
				"y": -1.2852048798,
				"z": 3.0839140141,
				"element": "H" 
			},
			{
				"x": -3.616884038,
				"y": -2.4958353995,
				"z": 3.1651476084,
				"element": "H" 
			},
			{
				"x": -2.3371070599,
				"y": -2.6405862056,
				"z": 1.9450577696,
				"element": "H" 
			},
			{
				"x": -4.2649056377,
				"y": 0.3123003403,
				"z": 2.8062891948,
				"element": "H" 
			}
		],
		 "valence_orbital": [ 
			{
				"type": "occ",
				"energy": -0.3177,
				"method": "rhf"
			},
			{
				"type": "occ",
				"energy": -0.31104,
				"method": "rhf"
			},
			{
				"type": "occ",
				"energy": -0.30726,
				"method": "rhf"
			},
			{
				"type": "occ",
				"energy": -0.30555,
				"method": "rhf"
			},
			{
				"type": "occ",
				"energy": -0.2578,
				"method": "rhf"
			},
			{
				"type": "unocc",
				"energy": 0.07161,
				"method": "rhf"
			},
			{
				"type": "unocc",
				"energy": 0.08511,
				"method": "rhf"
			},
			{
				"type": "unocc",
				"energy": 0.10359,
				"method": "rhf"
			},
			{
				"type": "unocc",
				"energy": 0.1117,
				"method": "rhf"
			},
			{
				"type": "unocc",
				"energy": 0.12058,
				"method": "rhf"
			}
		],
		"cosmo_sigma_profile": { 
			"-0.025": 0.0,
			"-0.024": 0.0,
			"-0.023": 0.0,
			"-0.022": 0.0,
			"-0.021": 0.0,
			"-0.02": 0.0,
			"-0.019": 0.0,
			"-0.018": 0.0,
			"-0.017": 0.0,
			"-0.016": 0.0,
			"-0.015": 0.231634987735,
			"-0.014": 0.670774322803,
			"-0.013": 0.918198903986,
			"-0.012": 1.20983470273,
			"-0.011": 0.792680795254,
			"-0.01": 0.651796516387,
			"-0.009": 0.830406782403,
			"-0.008": 0.581833782685,
			"-0.007": 0.979954647428,
			"-0.006": 1.71296282632,
			"-0.005": 1.84443430273,
			"-0.004": 2.15500200498,
			"-0.003": 10.2640334691,
			"-0.002": 30.6894892611,
			"-0.001": 44.3972755225,
			"0.0": 43.3517966099,
			"0.001": 35.3161410478,
			"0.002": 14.5198476834,
			"0.003": 2.09191523516,
			"0.004": 1.57447639367,
			"0.005": 1.29174447978,
			"0.006": 0.975679028727,
			"0.007": 0.860774142668,
			"0.008": 1.22577336664,
			"0.009": 1.28666917211,
			"0.01": 1.27314729112,
			"0.011": 1.36212112755,
			"0.012": 1.42956892511,
			"0.013": 1.01924744028,
			"0.014": 2.18142333564,
			"0.015": 2.12634739781,
			"0.016": 0.0537350605396,
			"0.017": 0.0,
			"0.018": 0.0,
			"0.019": 0.0,
			"0.02": 0.0,
			"0.021": 0.0,
			"0.022": 0.0,
			"0.023": 0.0,
			"0.024": 0.0,
			"0.025": 0.0
		}
	}
}
