{
	 "smiles": "OCC1=C(Cl)C=C(Br)C=C1", 
	 "Tm": 344.15, 
	 "num_atms": 16, 
	 "gaussian": { 
		 "optdone": 1, 
		 "sigma_profile": "yes", 
		 "theory": "DFT", 
		 "functional": "B3LYP", 
		 "basiset": "6-31G**", 
		 "properties": { 
			 "R2extent": 3537.1787, 
			 "electric_dipole_moment_norm": 2.55038554144, 
			 "electric_quadrupole_moment_norm": 11.1838173139, 
			 "total_energy": -3377.16981181, 
			 "HOMO_LUMO_gap": 0.21987, 
			 "cosmo_polarized_energy": -7.15, 
			 "cosmo_cavitation_energy": 24.01, 
			 "cosmo_dispersion_energy": -18.51, 
			 "cosmo_repulsion_energy": 1.51, 
			 "cosmo_total_nonelectrostatic_energy": 7.01, 
			 "SMD_solvation_energy": 2.78 
		},
		"coords": [
			{
				"x": 2.4240451277,
				"y": -0.92512235,
				"z": -3.9858230949,
				"element": "O" 
			},
			{
				"x": 2.2783200034,
				"y": -1.7203532559,
				"z": -2.8217046928,
				"element": "C" 
			},
			{
				"x": 1.1582721266,
				"y": -1.1624412595,
				"z": -1.9744558082,
				"element": "C" 
			},
			{
				"x": 0.7955877769,
				"y": -1.7564398345,
				"z": -0.7590584715,
				"element": "C" 
			},
			{
				"x": 1.6575583219,
				"y": -3.1872107401,
				"z": -0.1946080334,
				"element": "Cl" 
			},
			{
				"x": -0.2335780573,
				"y": -1.258281764,
				"z": 0.0372241634,
				"element": "C" 
			},
			{
				"x": -0.9205993417,
				"y": -0.128206244,
				"z": -0.4000273749,
				"element": "C" 
			},
			{
				"x": -2.3352078251,
				"y": 0.5717087776,
				"z": 0.6764710519,
				"element": "Br" 
			},
			{
				"x": -0.5927180195,
				"y": 0.4935615976,
				"z": -1.6018571717,
				"element": "C" 
			},
			{
				"x": 0.4424318964,
				"y": -0.0296573578,
				"z": -2.3757864479,
				"element": "C" 
			},
			{
				"x": 3.1417023291,
				"y": -1.2963832518,
				"z": -4.5118461809,
				"element": "H" 
			},
			{
				"x": 3.2045907765,
				"y": -1.737584329,
				"z": -2.2253513247,
				"element": "H" 
			},
			{
				"x": 2.0493466842,
				"y": -2.7681421855,
				"z": -3.0739344793,
				"element": "H" 
			},
			{
				"x": -0.4881197357,
				"y": -1.7420681807,
				"z": 0.9716406463,
				"element": "H" 
			},
			{
				"x": -1.1362981369,
				"y": 1.3721863735,
				"z": -1.9289876081,
				"element": "H" 
			},
			{
				"x": 0.7130660736,
				"y": 0.4395340041,
				"z": -3.314195173,
				"element": "H" 
			}
		],
		 "valence_orbital": [ 
			{
				"type": "occ",
				"energy": -0.30881,
				"method": "rhf"
			},
			{
				"type": "occ",
				"energy": -0.29025,
				"method": "rhf"
			},
			{
				"type": "occ",
				"energy": -0.28658,
				"method": "rhf"
			},
			{
				"type": "occ",
				"energy": -0.25969,
				"method": "rhf"
			},
			{
				"type": "occ",
				"energy": -0.24167,
				"method": "rhf"
			},
			{
				"type": "unocc",
				"energy": -0.0218,
				"method": "rhf"
			},
			{
				"type": "unocc",
				"energy": -0.01885,
				"method": "rhf"
			},
			{
				"type": "unocc",
				"energy": -0.00574,
				"method": "rhf"
			},
			{
				"type": "unocc",
				"energy": 0.03986,
				"method": "rhf"
			},
			{
				"type": "unocc",
				"energy": 0.06327,
				"method": "rhf"
			}
		],
		"cosmo_sigma_profile": { 
			"-0.025": 0.0,
			"-0.024": 0.0,
			"-0.023": 0.0,
			"-0.022": 0.0,
			"-0.021": 0.0,
			"-0.02": 0.0,
			"-0.019": 0.0,
			"-0.018": 0.0,
			"-0.017": 0.231988658555,
			"-0.016": 1.28175701597,
			"-0.015": 0.874599099442,
			"-0.014": 0.948994495038,
			"-0.013": 1.03496998746,
			"-0.012": 0.556371786738,
			"-0.011": 0.747829224606,
			"-0.01": 1.13327188165,
			"-0.009": 1.05952378323,
			"-0.008": 2.51364714672,
			"-0.007": 3.79636995307,
			"-0.006": 5.21098560315,
			"-0.005": 10.8374200574,
			"-0.004": 11.1291453026,
			"-0.003": 10.7841546141,
			"-0.002": 11.2714102483,
			"-0.001": 12.2556579193,
			"0.0": 14.3610697313,
			"0.001": 20.8754921584,
			"0.002": 27.6085999399,
			"0.003": 21.3593901268,
			"0.004": 20.6720904958,
			"0.005": 7.06343427367,
			"0.006": 0.99099472006,
			"0.007": 1.15877970689,
			"0.008": 2.01943406103,
			"0.009": 1.87900645646,
			"0.01": 1.65822322203,
			"0.011": 0.991341129649,
			"0.012": 0.789943863688,
			"0.013": 0.0,
			"0.014": 0.0,
			"0.015": 0.0,
			"0.016": 0.0,
			"0.017": 0.0,
			"0.018": 0.0,
			"0.019": 0.0,
			"0.02": 0.0,
			"0.021": 0.0,
			"0.022": 0.0,
			"0.023": 0.0,
			"0.024": 0.0,
			"0.025": 0.0
		}
	}
}
