{
	 "smiles": "CN1CC(C=C2C1CC1=CNC3=CC=CC2=C13)C(O)=O", 
	 "Tm": 513.15, 
	 "num_atms": 36, 
	 "gaussian": { 
		 "optdone": 1, 
		 "sigma_profile": "yes", 
		 "theory": "DFT", 
		 "functional": "B3LYP", 
		 "basiset": "6-31G**", 
		 "properties": { 
			 "R2extent": 6165.6879, 
			 "electric_dipole_moment_norm": 6.04258561462, 
			 "electric_quadrupole_moment_norm": 16.7055711276, 
			 "total_energy": -879.287174327, 
			 "HOMO_LUMO_gap": 0.16273, 
			 "cosmo_polarized_energy": -19.97, 
			 "cosmo_cavitation_energy": 37.17, 
			 "cosmo_dispersion_energy": -27.14, 
			 "cosmo_repulsion_energy": 2.04, 
			 "cosmo_total_nonelectrostatic_energy": 12.07, 
			 "SMD_solvation_energy": 4.52 
		},
		"coords": [
			{
				"x": -1.4873191103,
				"y": 2.8293031837,
				"z": -0.1990046046,
				"element": "C" 
			},
			{
				"x": -0.9641610451,
				"y": 1.5765216993,
				"z": 0.3388939507,
				"element": "N" 
			},
			{
				"x": -2.0370583867,
				"y": 0.8196016089,
				"z": 0.9852502107,
				"element": "C" 
			},
			{
				"x": -1.4425526646,
				"y": -0.3266540782,
				"z": 1.7999060197,
				"element": "C" 
			},
			{
				"x": -0.5220734773,
				"y": -1.1403048737,
				"z": 0.9218808342,
				"element": "C" 
			},
			{
				"x": -0.0030141468,
				"y": -0.6574396436,
				"z": -0.2174714795,
				"element": "C" 
			},
			{
				"x": -0.244740056,
				"y": 0.7909650889,
				"z": -0.6759610654,
				"element": "C" 
			},
			{
				"x": 1.0898994709,
				"y": 1.5072305808,
				"z": -1.0608605082,
				"element": "C" 
			},
			{
				"x": 1.8858272607,
				"y": 0.6509060159,
				"z": -2.0010178583,
				"element": "C" 
			},
			{
				"x": 2.8357993411,
				"y": 0.8751569535,
				"z": -2.9649558889,
				"element": "C" 
			},
			{
				"x": 3.2517883963,
				"y": -0.3463509012,
				"z": -3.497210278,
				"element": "N" 
			},
			{
				"x": 2.5648308682,
				"y": -1.3755067455,
				"z": -2.8812617289,
				"element": "C" 
			},
			{
				"x": 2.5787768775,
				"y": -2.7697481081,
				"z": -3.0080911776,
				"element": "C" 
			},
			{
				"x": 1.7106228602,
				"y": -3.4879732219,
				"z": -2.1821615235,
				"element": "C" 
			},
			{
				"x": 0.8455230923,
				"y": -2.8664314497,
				"z": -1.2569149942,
				"element": "C" 
			},
			{
				"x": 0.8343920527,
				"y": -1.475940811,
				"z": -1.1200794716,
				"element": "C" 
			},
			{
				"x": 1.7062068688,
				"y": -0.759414463,
				"z": -1.9493724349,
				"element": "C" 
			},
			{
				"x": -2.5367514748,
				"y": -1.1930178098,
				"z": 2.4260225683,
				"element": "C" 
			},
			{
				"x": -2.0908396818,
				"y": -2.1848848756,
				"z": 3.2466345116,
				"element": "O" 
			},
			{
				"x": -3.7195332454,
				"y": -1.0463541106,
				"z": 2.2475413262,
				"element": "O" 
			},
			{
				"x": -2.0060783922,
				"y": 3.3729637976,
				"z": 0.5958630137,
				"element": "H" 
			},
			{
				"x": -2.2009255381,
				"y": 2.6795188167,
				"z": -1.0315778431,
				"element": "H" 
			},
			{
				"x": -0.6792378068,
				"y": 3.4701309049,
				"z": -0.557719525,
				"element": "H" 
			},
			{
				"x": -2.766322129,
				"y": 0.4081312377,
				"z": 0.2657691695,
				"element": "H" 
			},
			{
				"x": -2.5898870217,
				"y": 1.4940767391,
				"z": 1.6450059073,
				"element": "H" 
			},
			{
				"x": -0.8648695928,
				"y": 0.1023524675,
				"z": 2.6366782446,
				"element": "H" 
			},
			{
				"x": -0.2935820351,
				"y": -2.1635998587,
				"z": 1.2138631424,
				"element": "H" 
			},
			{
				"x": -0.8474951321,
				"y": 0.7189834527,
				"z": -1.6060950749,
				"element": "H" 
			},
			{
				"x": 0.8716736363,
				"y": 2.4826244108,
				"z": -1.5039089781,
				"element": "H" 
			},
			{
				"x": 1.6414215875,
				"y": 1.6954174374,
				"z": -0.1300074245,
				"element": "H" 
			},
			{
				"x": 3.267197728,
				"y": 1.7971199649,
				"z": -3.3293435589,
				"element": "H" 
			},
			{
				"x": 3.9414796353,
				"y": -0.4505571746,
				"z": -4.2229376111,
				"element": "H" 
			},
			{
				"x": 3.2250724251,
				"y": -3.2812277539,
				"z": -3.7152577442,
				"element": "H" 
			},
			{
				"x": 1.6893051678,
				"y": -4.5707703331,
				"z": -2.2658722108,
				"element": "H" 
			},
			{
				"x": 0.1675962861,
				"y": -3.4824563638,
				"z": -0.6733563435,
				"element": "H" 
			},
			{
				"x": -1.1261726184,
				"y": -2.1511717843,
				"z": 3.3184304289,
				"element": "H" 
			}
		],
		 "valence_orbital": [ 
			{
				"type": "occ",
				"energy": -0.27295,
				"method": "rhf"
			},
			{
				"type": "occ",
				"energy": -0.24292,
				"method": "rhf"
			},
			{
				"type": "occ",
				"energy": -0.22311,
				"method": "rhf"
			},
			{
				"type": "occ",
				"energy": -0.21606,
				"method": "rhf"
			},
			{
				"type": "occ",
				"energy": -0.19621,
				"method": "rhf"
			},
			{
				"type": "unocc",
				"energy": -0.03348,
				"method": "rhf"
			},
			{
				"type": "unocc",
				"energy": 0.00829,
				"method": "rhf"
			},
			{
				"type": "unocc",
				"energy": 0.01899,
				"method": "rhf"
			},
			{
				"type": "unocc",
				"energy": 0.04582,
				"method": "rhf"
			},
			{
				"type": "unocc",
				"energy": 0.06035,
				"method": "rhf"
			}
		],
		"cosmo_sigma_profile": { 
			"-0.025": 0.0,
			"-0.024": 0.0,
			"-0.023": 0.0,
			"-0.022": 0.0,
			"-0.021": 0.0,
			"-0.02": 0.0,
			"-0.019": 0.382742159764,
			"-0.018": 0.732221958722,
			"-0.017": 1.38443978846,
			"-0.016": 0.923593021174,
			"-0.015": 2.46471325204,
			"-0.014": 2.83245732054,
			"-0.013": 2.00413807317,
			"-0.012": 2.24463796948,
			"-0.011": 2.59157329505,
			"-0.01": 2.0684536334,
			"-0.009": 2.6584650367,
			"-0.008": 3.88232594631,
			"-0.007": 6.80211006693,
			"-0.006": 8.59638208499,
			"-0.005": 14.7367196299,
			"-0.004": 17.9418610581,
			"-0.003": 19.8969728421,
			"-0.002": 28.9277457222,
			"-0.001": 26.196778551,
			"0.0": 21.419821,
			"0.001": 12.1139873229,
			"0.002": 11.7587655173,
			"0.003": 13.7135469498,
			"0.004": 15.8053835641,
			"0.005": 20.0247469138,
			"0.006": 15.9070327298,
			"0.007": 8.71627898766,
			"0.008": 4.26512730759,
			"0.009": 3.70998293908,
			"0.01": 5.90473346881,
			"0.011": 5.6132847671,
			"0.012": 5.25300946208,
			"0.013": 1.60429412073,
			"0.014": 0.500531686142,
			"0.015": 0.0198938160901,
			"0.016": 0.0,
			"0.017": 0.0,
			"0.018": 0.0,
			"0.019": 0.0,
			"0.02": 0.0,
			"0.021": 0.0,
			"0.022": 0.0,
			"0.023": 0.0,
			"0.024": 0.0,
			"0.025": 0.0
		}
	}
}
