{
	 "smiles": "OC(=O)C(F)(F)C(F)(F)C(F)(F)C(F)(F)C(F)(F)C(F)(F)C(F)(F)C(F)(F)C(F)(F)C(F)(F)F", 
	 "Tm": 372.25, 
	 "num_atms": 35, 
	 "gaussian": { 
		 "optdone": 1, 
		 "sigma_profile": "yes", 
		 "theory": "DFT", 
		 "functional": "B3LYP", 
		 "basiset": "6-31G**", 
		 "properties": { 
			 "R2extent": 15869.8933, 
			 "electric_dipole_moment_norm": 2.12822144759, 
			 "electric_quadrupole_moment_norm": 17.092317337, 
			 "total_energy": -2666.77046281, 
			 "HOMO_LUMO_gap": 0.26789, 
			 "cosmo_polarized_energy": -8.28, 
			 "cosmo_cavitation_energy": 46.18, 
			 "cosmo_dispersion_energy": -29.75, 
			 "cosmo_repulsion_energy": 1.86, 
			 "cosmo_total_nonelectrostatic_energy": 18.29, 
			 "SMD_solvation_energy": 15.14 
		},
		"coords": [
			{
				"x": 4.2921592052,
				"y": -3.4785760558,
				"z": 3.7644941173,
				"element": "O" 
			},
			{
				"x": 3.0176287097,
				"y": -3.6280326276,
				"z": 3.3859801224,
				"element": "C" 
			},
			{
				"x": 2.1062534062,
				"y": -3.9772994724,
				"z": 4.0905613,
				"element": "O" 
			},
			{
				"x": 2.828774091,
				"y": -3.3322050272,
				"z": 1.8804980376,
				"element": "C" 
			},
			{
				"x": 2.2356954205,
				"y": -4.4198847538,
				"z": 1.3292304283,
				"element": "F" 
			},
			{
				"x": 4.01327079,
				"y": -3.120748225,
				"z": 1.2627448264,
				"element": "F" 
			},
			{
				"x": 1.8991096453,
				"y": -2.1221449637,
				"z": 1.5677022258,
				"element": "C" 
			},
			{
				"x": 0.7103547482,
				"y": -2.317924566,
				"z": 2.1767026674,
				"element": "F" 
			},
			{
				"x": 1.7137536973,
				"y": -2.0979386208,
				"z": 0.2264118153,
				"element": "F" 
			},
			{
				"x": 2.4750173427,
				"y": -0.7514337702,
				"z": 2.0002009182,
				"element": "C" 
			},
			{
				"x": 2.9168845709,
				"y": -0.8825354519,
				"z": 3.2837920666,
				"element": "F" 
			},
			{
				"x": 3.5234885819,
				"y": -0.4426055204,
				"z": 1.2125970331,
				"element": "F" 
			},
			{
				"x": 1.4975257222,
				"y": 0.4699163832,
				"z": 2.0240111081,
				"element": "C" 
			},
			{
				"x": 2.2600191695,
				"y": 1.5326901837,
				"z": 2.3729791616,
				"element": "F" 
			},
			{
				"x": 0.5735856473,
				"y": 0.2614543223,
				"z": 2.9845165844,
				"element": "F" 
			},
			{
				"x": 0.7592024813,
				"y": 0.7795146554,
				"z": 0.6876036307,
				"element": "C" 
			},
			{
				"x": 1.6460540248,
				"y": 0.7331520619,
				"z": -0.3305147445,
				"element": "F" 
			},
			{
				"x": -0.1738467304,
				"y": -0.1877361249,
				"z": 0.519196424,
				"element": "F" 
			},
			{
				"x": 0.0485116991,
				"y": 2.162282065,
				"z": 0.6582908589,
				"element": "C" 
			},
			{
				"x": 0.993252706,
				"y": 3.1224195301,
				"z": 0.789221265,
				"element": "F" 
			},
			{
				"x": -0.7989762726,
				"y": 2.2354095903,
				"z": 1.7090421331,
				"element": "F" 
			},
			{
				"x": -0.7233387007,
				"y": 2.5482031665,
				"z": -0.6473599871,
				"element": "C" 
			},
			{
				"x": 0.1826441579,
				"y": 2.5795792623,
				"z": -1.6512556546,
				"element": "F" 
			},
			{
				"x": -1.1835480077,
				"y": 3.8061061,
				"z": -0.4370132594,
				"element": "F" 
			},
			{
				"x": -1.921543382,
				"y": 1.7106429264,
				"z": -1.1858368709,
				"element": "C" 
			},
			{
				"x": -1.4453290908,
				"y": 0.5192075844,
				"z": -1.6125159486,
				"element": "F" 
			},
			{
				"x": -2.3843819485,
				"y": 2.3939643478,
				"z": -2.2602121332,
				"element": "F" 
			},
			{
				"x": -3.1428101159,
				"y": 1.4048894089,
				"z": -0.2722731457,
				"element": "C" 
			},
			{
				"x": -2.734881169,
				"y": 0.6575143963,
				"z": 0.778205796,
				"element": "F" 
			},
			{
				"x": -3.9920219385,
				"y": 0.6714796505,
				"z": -1.0287256168,
				"element": "F" 
			},
			{
				"x": -3.9547819629,
				"y": 2.6042181336,
				"z": 0.2803022442,
				"element": "C" 
			},
			{
				"x": -3.2402123983,
				"y": 3.2862195568,
				"z": 1.1833304434,
				"element": "F" 
			},
			{
				"x": -4.3166266957,
				"y": 3.4290917237,
				"z": -0.707927469,
				"element": "F" 
			},
			{
				"x": -5.05527531,
				"y": 2.1297474948,
				"z": 0.8754670144,
				"element": "F" 
			},
			{
				"x": 4.3294879062,
				"y": -3.6926373641,
				"z": 4.7129526074,
				"element": "H" 
			}
		],
		 "valence_orbital": [ 
			{
				"type": "occ",
				"energy": -0.37302,
				"method": "rhf"
			},
			{
				"type": "occ",
				"energy": -0.36381,
				"method": "rhf"
			},
			{
				"type": "occ",
				"energy": -0.35472,
				"method": "rhf"
			},
			{
				"type": "occ",
				"energy": -0.34848,
				"method": "rhf"
			},
			{
				"type": "occ",
				"energy": -0.31064,
				"method": "rhf"
			},
			{
				"type": "unocc",
				"energy": -0.04275,
				"method": "rhf"
			},
			{
				"type": "unocc",
				"energy": -0.00283,
				"method": "rhf"
			},
			{
				"type": "unocc",
				"energy": 0.00952,
				"method": "rhf"
			},
			{
				"type": "unocc",
				"energy": 0.02244,
				"method": "rhf"
			},
			{
				"type": "unocc",
				"energy": 0.03236,
				"method": "rhf"
			}
		],
		"cosmo_sigma_profile": { 
			"-0.025": 0.0,
			"-0.024": 0.0,
			"-0.023": 0.0,
			"-0.022": 0.0,
			"-0.021": 0.135978762188,
			"-0.02": 1.16135066005,
			"-0.019": 0.928389650779,
			"-0.018": 0.624445798712,
			"-0.017": 1.30252334663,
			"-0.016": 1.05402939276,
			"-0.015": 0.414493435661,
			"-0.014": 0.365655865587,
			"-0.013": 0.80409014139,
			"-0.012": 0.868009365415,
			"-0.011": 0.797192091717,
			"-0.01": 0.653403601073,
			"-0.009": 1.02075811105,
			"-0.008": 1.24890015455,
			"-0.007": 1.29049542563,
			"-0.006": 1.77503035048,
			"-0.005": 2.75815098738,
			"-0.004": 4.23090159754,
			"-0.003": 8.45280636321,
			"-0.002": 20.7730081253,
			"-0.001": 43.4939835235,
			"0.0": 105.838158637,
			"0.001": 127.490640384,
			"0.002": 16.1426436813,
			"0.003": 5.2649666067,
			"0.004": 3.74697837076,
			"0.005": 2.89218343145,
			"0.006": 3.57709483157,
			"0.007": 3.25665564526,
			"0.008": 2.45229083206,
			"0.009": 4.60700597847,
			"0.01": 1.58987544489,
			"0.011": 0.0,
			"0.012": 0.0,
			"0.013": 0.0,
			"0.014": 0.0,
			"0.015": 0.0,
			"0.016": 0.0,
			"0.017": 0.0,
			"0.018": 0.0,
			"0.019": 0.0,
			"0.02": 0.0,
			"0.021": 0.0,
			"0.022": 0.0,
			"0.023": 0.0,
			"0.024": 0.0,
			"0.025": 0.0
		}
	}
}
