{
	 "smiles": "FC(F)C(F)F", 
	 "Tm": 184.15, 
	 "num_atms": 8, 
	 "gaussian": { 
		 "optdone": 1, 
		 "sigma_profile": "yes", 
		 "theory": "DFT", 
		 "functional": "B3LYP", 
		 "basiset": "6-31G**", 
		 "properties": { 
			 "R2extent": 732.7549, 
			 "electric_dipole_moment_norm": 0.0, 
			 "electric_quadrupole_moment_norm": 4.93730620278, 
			 "total_energy": -476.7579258, 
			 "HOMO_LUMO_gap": 0.41585, 
			 "cosmo_polarized_energy": -4.0, 
			 "cosmo_cavitation_energy": 13.74, 
			 "cosmo_dispersion_energy": -9.68, 
			 "cosmo_repulsion_energy": 0.79, 
			 "cosmo_total_nonelectrostatic_energy": 4.85, 
			 "SMD_solvation_energy": 4.37 
		},
		"coords": [
			{
				"x": 1.1388176363,
				"y": -0.7151907878,
				"z": -1.9786705172,
				"element": "F" 
			},
			{
				"x": 0.5354457445,
				"y": -0.162910297,
				"z": -0.8927154179,
				"element": "C" 
			},
			{
				"x": 0.0483139831,
				"y": 1.0584380114,
				"z": -1.2381825307,
				"element": "F" 
			},
			{
				"x": 1.5828548279,
				"y": 0.0259115021,
				"z": 0.1974637535,
				"element": "C" 
			},
			{
				"x": 2.0699837444,
				"y": -1.1954391634,
				"z": 0.5429318376,
				"element": "F" 
			},
			{
				"x": 0.9794801298,
				"y": 0.5781909989,
				"z": 1.2834179825,
				"element": "F" 
			},
			{
				"x": -0.2862026791,
				"y": -0.8070624987,
				"z": -0.5599001056,
				"element": "H" 
			},
			{
				"x": 2.4045066131,
				"y": 0.6700622344,
				"z": -0.1353450021,
				"element": "H" 
			}
		],
		 "valence_orbital": [ 
			{
				"type": "occ",
				"energy": -0.4215,
				"method": "rhf"
			},
			{
				"type": "occ",
				"energy": -0.41562,
				"method": "rhf"
			},
			{
				"type": "occ",
				"energy": -0.4015,
				"method": "rhf"
			},
			{
				"type": "occ",
				"energy": -0.39286,
				"method": "rhf"
			},
			{
				"type": "occ",
				"energy": -0.3371,
				"method": "rhf"
			},
			{
				"type": "unocc",
				"energy": 0.07875,
				"method": "rhf"
			},
			{
				"type": "unocc",
				"energy": 0.08496,
				"method": "rhf"
			},
			{
				"type": "unocc",
				"energy": 0.12586,
				"method": "rhf"
			},
			{
				"type": "unocc",
				"energy": 0.1378,
				"method": "rhf"
			},
			{
				"type": "unocc",
				"energy": 0.20483,
				"method": "rhf"
			}
		],
		"cosmo_sigma_profile": { 
			"-0.025": 0.0,
			"-0.024": 0.0,
			"-0.023": 0.0,
			"-0.022": 0.0,
			"-0.021": 0.0,
			"-0.02": 0.0,
			"-0.019": 0.0,
			"-0.018": 0.0,
			"-0.017": 0.0,
			"-0.016": 0.0,
			"-0.015": 0.0,
			"-0.014": 0.0,
			"-0.013": 0.0,
			"-0.012": 0.0,
			"-0.011": 0.551653572452,
			"-0.01": 6.19988347583,
			"-0.009": 5.04323222025,
			"-0.008": 2.84298072564,
			"-0.007": 2.86494957942,
			"-0.006": 2.06377406373,
			"-0.005": 2.71134177876,
			"-0.004": 3.1375210265,
			"-0.003": 2.42584907352,
			"-0.002": 3.8609700723,
			"-0.001": 3.95144838656,
			"0.0": 4.40865497079,
			"0.001": 5.26522094108,
			"0.002": 9.34254735682,
			"0.003": 31.5452539566,
			"0.004": 23.3569572167,
			"0.005": 0.0,
			"0.006": 0.0,
			"0.007": 0.0,
			"0.008": 0.0,
			"0.009": 0.0,
			"0.01": 0.0,
			"0.011": 0.0,
			"0.012": 0.0,
			"0.013": 0.0,
			"0.014": 0.0,
			"0.015": 0.0,
			"0.016": 0.0,
			"0.017": 0.0,
			"0.018": 0.0,
			"0.019": 0.0,
			"0.02": 0.0,
			"0.021": 0.0,
			"0.022": 0.0,
			"0.023": 0.0,
			"0.024": 0.0,
			"0.025": 0.0
		}
	}
}
