{
	 "smiles": "OC1=CC=CC=C1C(=O)CC(=O)C1=CC=CC=C1", 
	 "Tm": 393.15, 
	 "num_atms": 30, 
	 "gaussian": { 
		 "optdone": 1, 
		 "sigma_profile": "yes", 
		 "theory": "DFT", 
		 "functional": "B3LYP", 
		 "basiset": "6-31G**", 
		 "properties": { 
			 "R2extent": 6989.0543, 
			 "electric_dipole_moment_norm": 5.08098609917, 
			 "electric_quadrupole_moment_norm": 13.9208089564, 
			 "total_energy": -804.508647308, 
			 "HOMO_LUMO_gap": 0.15742, 
			 "cosmo_polarized_energy": -14.29, 
			 "cosmo_cavitation_energy": 34.54, 
			 "cosmo_dispersion_energy": -24.95, 
			 "cosmo_repulsion_energy": 1.9, 
			 "cosmo_total_nonelectrostatic_energy": 11.49, 
			 "SMD_solvation_energy": 6.86 
		},
		"coords": [
			{
				"x": 3.744991273,
				"y": -1.2341901292,
				"z": 3.8895095146,
				"element": "O" 
			},
			{
				"x": 4.0200677009,
				"y": -0.5333523097,
				"z": 2.7843566861,
				"element": "C" 
			},
			{
				"x": 5.3482020486,
				"y": -0.1215584217,
				"z": 2.5751509027,
				"element": "C" 
			},
			{
				"x": 5.6827855977,
				"y": 0.6027128067,
				"z": 1.4423108113,
				"element": "C" 
			},
			{
				"x": 4.7098695652,
				"y": 0.9387121465,
				"z": 0.485268318,
				"element": "C" 
			},
			{
				"x": 3.3991780934,
				"y": 0.5411245208,
				"z": 0.6847812122,
				"element": "C" 
			},
			{
				"x": 3.0179787958,
				"y": -0.1932186716,
				"z": 1.8288032347,
				"element": "C" 
			},
			{
				"x": 1.636254247,
				"y": -0.6155842206,
				"z": 2.0703864319,
				"element": "C" 
			},
			{
				"x": 1.3249637101,
				"y": -1.2749140645,
				"z": 3.0749987634,
				"element": "O" 
			},
			{
				"x": 0.5177709332,
				"y": -0.2270474996,
				"z": 1.1121931642,
				"element": "C" 
			},
			{
				"x": 0.4711275419,
				"y": -1.109857409,
				"z": -0.1417951894,
				"element": "C" 
			},
			{
				"x": 1.3065515238,
				"y": -1.9810661342,
				"z": -0.3199928811,
				"element": "O" 
			},
			{
				"x": -0.6274178857,
				"y": -0.8731839131,
				"z": -1.1309990022,
				"element": "C" 
			},
			{
				"x": -0.6605194174,
				"y": -1.6838616414,
				"z": -2.2776935296,
				"element": "C" 
			},
			{
				"x": -1.6552780313,
				"y": -1.5102750423,
				"z": -3.2344510643,
				"element": "C" 
			},
			{
				"x": -2.6308914638,
				"y": -0.5240663556,
				"z": -3.0576342975,
				"element": "C" 
			},
			{
				"x": -2.6076314332,
				"y": 0.2863733884,
				"z": -1.9209845475,
				"element": "C" 
			},
			{
				"x": -1.6108563163,
				"y": 0.1135898504,
				"z": -0.960952504,
				"element": "C" 
			},
			{
				"x": 2.7737196139,
				"y": -1.4405110013,
				"z": 3.8536154175,
				"element": "H" 
			},
			{
				"x": 6.0889534871,
				"y": -0.3914881751,
				"z": 3.3202033504,
				"element": "H" 
			},
			{
				"x": 6.7137042625,
				"y": 0.9121562794,
				"z": 1.2936584715,
				"element": "H" 
			},
			{
				"x": 4.983793579,
				"y": 1.5001307348,
				"z": -0.4017346158,
				"element": "H" 
			},
			{
				"x": 2.6519805786,
				"y": 0.791079693,
				"z": -0.060862313,
				"element": "H" 
			},
			{
				"x": 0.5932297614,
				"y": 0.8251440697,
				"z": 0.8150535895,
				"element": "H" 
			},
			{
				"x": -0.4207801998,
				"y": -0.3433831878,
				"z": 1.6634860575,
				"element": "H" 
			},
			{
				"x": 0.1067811983,
				"y": -2.4422320028,
				"z": -2.3911048286,
				"element": "H" 
			},
			{
				"x": -1.673803921,
				"y": -2.1414904886,
				"z": -4.1179836249,
				"element": "H" 
			},
			{
				"x": -3.4081881538,
				"y": -0.3884515754,
				"z": -3.8042096926,
				"element": "H" 
			},
			{
				"x": -3.3654721701,
				"y": 1.0514650731,
				"z": -1.7814800553,
				"element": "H" 
			},
			{
				"x": -1.607964519,
				"y": 0.7493436807,
				"z": -0.0814977798,
				"element": "H" 
			}
		],
		 "valence_orbital": [ 
			{
				"type": "occ",
				"energy": -0.26909,
				"method": "rhf"
			},
			{
				"type": "occ",
				"energy": -0.2672,
				"method": "rhf"
			},
			{
				"type": "occ",
				"energy": -0.26251,
				"method": "rhf"
			},
			{
				"type": "occ",
				"energy": -0.25713,
				"method": "rhf"
			},
			{
				"type": "occ",
				"energy": -0.22438,
				"method": "rhf"
			},
			{
				"type": "unocc",
				"energy": -0.06696,
				"method": "rhf"
			},
			{
				"type": "unocc",
				"energy": -0.06239,
				"method": "rhf"
			},
			{
				"type": "unocc",
				"energy": -0.01814,
				"method": "rhf"
			},
			{
				"type": "unocc",
				"energy": 0.00486,
				"method": "rhf"
			},
			{
				"type": "unocc",
				"energy": 0.02924,
				"method": "rhf"
			}
		],
		"cosmo_sigma_profile": { 
			"-0.025": 0.0,
			"-0.024": 0.0,
			"-0.023": 0.0,
			"-0.022": 0.0,
			"-0.021": 0.0,
			"-0.02": 0.0,
			"-0.019": 0.0,
			"-0.018": 0.0,
			"-0.017": 0.0,
			"-0.016": 0.0,
			"-0.015": 0.0,
			"-0.014": 0.0,
			"-0.013": 0.0,
			"-0.012": 0.0,
			"-0.011": 0.0207726374498,
			"-0.01": 0.768207285852,
			"-0.009": 1.77013954128,
			"-0.008": 5.20288262588,
			"-0.007": 13.0362665835,
			"-0.006": 20.2810051871,
			"-0.005": 22.9319210736,
			"-0.004": 21.6424723035,
			"-0.003": 15.2357104807,
			"-0.002": 17.1817299726,
			"-0.001": 12.7868246501,
			"0.0": 16.7409721703,
			"0.001": 18.2717124391,
			"0.002": 21.8511324587,
			"0.003": 24.5769097629,
			"0.004": 23.5210626222,
			"0.005": 6.91175634073,
			"0.006": 4.96080371458,
			"0.007": 5.02633851807,
			"0.008": 4.66649269653,
			"0.009": 5.63213017145,
			"0.01": 5.184621767,
			"0.011": 7.14138397054,
			"0.012": 1.84368482374,
			"0.013": 0.00464586077925,
			"0.014": 0.0,
			"0.015": 0.0,
			"0.016": 0.0,
			"0.017": 0.0,
			"0.018": 0.0,
			"0.019": 0.0,
			"0.02": 0.0,
			"0.021": 0.0,
			"0.022": 0.0,
			"0.023": 0.0,
			"0.024": 0.0,
			"0.025": 0.0
		}
	}
}
