{
	 "smiles": "CCOC(=O)C1=C(C)NC(=O)NC1C1=CC=C(Cl)C=C1", 
	 "Tm": 458.15, 
	 "num_atms": 35, 
	 "gaussian": { 
		 "optdone": 1, 
		 "sigma_profile": "yes", 
		 "theory": "DFT", 
		 "functional": "B3LYP", 
		 "basiset": "6-31G**", 
		 "properties": { 
			 "R2extent": 8189.5668, 
			 "electric_dipole_moment_norm": 2.40777820615, 
			 "electric_quadrupole_moment_norm": 18.6556137366, 
			 "total_energy": -1337.94068991, 
			 "HOMO_LUMO_gap": 0.18587, 
			 "cosmo_polarized_energy": -17.48, 
			 "cosmo_cavitation_energy": 40.35, 
			 "cosmo_dispersion_energy": -27.91, 
			 "cosmo_repulsion_energy": 2.2, 
			 "cosmo_total_nonelectrostatic_energy": 14.64, 
			 "SMD_solvation_energy": 7.83 
		},
		"coords": [
			{
				"x": -0.4283291803,
				"y": -1.9079998692,
				"z": -3.907528705,
				"element": "C" 
			},
			{
				"x": -0.713558177,
				"y": -0.4511846362,
				"z": -3.5735277922,
				"element": "C" 
			},
			{
				"x": -0.3439290788,
				"y": -0.1387793166,
				"z": -2.2113242772,
				"element": "O" 
			},
			{
				"x": -1.2755755386,
				"y": -0.3970751873,
				"z": -1.2525773172,
				"element": "C" 
			},
			{
				"x": -2.362666263,
				"y": -0.8839556198,
				"z": -1.5248792392,
				"element": "O" 
			},
			{
				"x": -0.7727144923,
				"y": -0.0105964821,
				"z": 0.078669912,
				"element": "C" 
			},
			{
				"x": -1.480390048,
				"y": -0.233952629,
				"z": 1.223089428,
				"element": "C" 
			},
			{
				"x": -2.8435279349,
				"y": -0.8563129111,
				"z": 1.3476117928,
				"element": "C" 
			},
			{
				"x": -0.9327993633,
				"y": 0.1324950908,
				"z": 2.441359037,
				"element": "N" 
			},
			{
				"x": 0.410338923,
				"y": 0.4692660986,
				"z": 2.6532483325,
				"element": "C" 
			},
			{
				"x": 0.8574665705,
				"y": 0.6189151204,
				"z": 3.7799683622,
				"element": "O" 
			},
			{
				"x": 1.1385574649,
				"y": 0.560706261,
				"z": 1.5028531369,
				"element": "N" 
			},
			{
				"x": 0.5830012239,
				"y": 0.6872899217,
				"z": 0.1473891304,
				"element": "C" 
			},
			{
				"x": 0.5356433126,
				"y": 2.1492267798,
				"z": -0.3087501858,
				"element": "C" 
			},
			{
				"x": -0.309315922,
				"y": 3.077465494,
				"z": 0.3142747522,
				"element": "C" 
			},
			{
				"x": -0.3253424901,
				"y": 4.4131217722,
				"z": -0.0809555178,
				"element": "C" 
			},
			{
				"x": 0.5146826008,
				"y": 4.8255728456,
				"z": -1.1167065553,
				"element": "C" 
			},
			{
				"x": 0.4993415933,
				"y": 6.5092061011,
				"z": -1.6229762081,
				"element": "Cl" 
			},
			{
				"x": 1.3629229152,
				"y": 3.9242972853,
				"z": -1.7555241015,
				"element": "C" 
			},
			{
				"x": 1.3655125619,
				"y": 2.5904987319,
				"z": -1.3434800294,
				"element": "C" 
			},
			{
				"x": -1.0573766122,
				"y": -2.5684151101,
				"z": -3.3061201726,
				"element": "H" 
			},
			{
				"x": -0.6441233768,
				"y": -2.0959061094,
				"z": -4.9646701542,
				"element": "H" 
			},
			{
				"x": 0.6220750597,
				"y": -2.1529975813,
				"z": -3.7233894197,
				"element": "H" 
			},
			{
				"x": -1.7706091369,
				"y": -0.215425803,
				"z": -3.7149064465,
				"element": "H" 
			},
			{
				"x": -0.1063237335,
				"y": 0.2255127867,
				"z": -4.1799718249,
				"element": "H" 
			},
			{
				"x": -3.2643548553,
				"y": -1.0821595113,
				"z": 0.3726424122,
				"element": "H" 
			},
			{
				"x": -3.5108048645,
				"y": -0.1709801369,
				"z": 1.8844046478,
				"element": "H" 
			},
			{
				"x": -2.7755061101,
				"y": -1.7775213331,
				"z": 1.9391151393,
				"element": "H" 
			},
			{
				"x": -1.4404446364,
				"y": -0.0605215207,
				"z": 3.2930708118,
				"element": "H" 
			},
			{
				"x": 2.0781775572,
				"y": 0.9014779673,
				"z": 1.6528696804,
				"element": "H" 
			},
			{
				"x": 1.2682568389,
				"y": 0.1635707238,
				"z": -0.5244357725,
				"element": "H" 
			},
			{
				"x": -0.9657963775,
				"y": 2.7583440824,
				"z": 1.1185512311,
				"element": "H" 
			},
			{
				"x": -0.9802401375,
				"y": 5.1282323267,
				"z": 0.4044943559,
				"element": "H" 
			},
			{
				"x": 2.0080489138,
				"y": 4.2594988028,
				"z": -2.5601785876,
				"element": "H" 
			},
			{
				"x": 2.0198027936,
				"y": 1.8817855651,
				"z": -1.8442098558,
				"element": "H" 
			}
		],
		 "valence_orbital": [ 
			{
				"type": "occ",
				"energy": -0.27072,
				"method": "rhf"
			},
			{
				"type": "occ",
				"energy": -0.26774,
				"method": "rhf"
			},
			{
				"type": "occ",
				"energy": -0.26308,
				"method": "rhf"
			},
			{
				"type": "occ",
				"energy": -0.24418,
				"method": "rhf"
			},
			{
				"type": "occ",
				"energy": -0.2313,
				"method": "rhf"
			},
			{
				"type": "unocc",
				"energy": -0.04543,
				"method": "rhf"
			},
			{
				"type": "unocc",
				"energy": -0.01999,
				"method": "rhf"
			},
			{
				"type": "unocc",
				"energy": -0.01364,
				"method": "rhf"
			},
			{
				"type": "unocc",
				"energy": 0.02722,
				"method": "rhf"
			},
			{
				"type": "unocc",
				"energy": 0.05431,
				"method": "rhf"
			}
		],
		"cosmo_sigma_profile": { 
			"-0.025": 0.0,
			"-0.024": 0.0,
			"-0.023": 0.0,
			"-0.022": 0.0,
			"-0.021": 0.0,
			"-0.02": 0.0,
			"-0.019": 0.0,
			"-0.018": 0.0,
			"-0.017": 0.0,
			"-0.016": 0.11755332681,
			"-0.015": 1.00545130835,
			"-0.014": 2.1557843223,
			"-0.013": 1.27136624199,
			"-0.012": 2.0308107796,
			"-0.011": 2.79614093183,
			"-0.01": 2.0316177567,
			"-0.009": 1.62830247134,
			"-0.008": 3.00266277875,
			"-0.007": 7.70744281313,
			"-0.006": 13.9448892796,
			"-0.005": 17.6536124447,
			"-0.004": 22.0457247702,
			"-0.003": 23.4513580713,
			"-0.002": 25.2665490809,
			"-0.001": 29.0771784685,
			"0.0": 28.2167274385,
			"0.001": 24.1834901601,
			"0.002": 24.4968652715,
			"0.003": 22.6181909803,
			"0.004": 21.9492920785,
			"0.005": 12.5903942944,
			"0.006": 3.49309815366,
			"0.007": 3.19073718051,
			"0.008": 2.68191083593,
			"0.009": 2.12826980057,
			"0.01": 3.38637294114,
			"0.011": 3.47049551939,
			"0.012": 4.17823463808,
			"0.013": 6.12851024014,
			"0.014": 4.36121873953,
			"0.015": 0.123502251821,
			"0.016": 0.0,
			"0.017": 0.0,
			"0.018": 0.0,
			"0.019": 0.0,
			"0.02": 0.0,
			"0.021": 0.0,
			"0.022": 0.0,
			"0.023": 0.0,
			"0.024": 0.0,
			"0.025": 0.0
		}
	}
}
