{
	 "smiles": "NC1=CC=CC(=C1)C1=CC=NC=C1", 
	 "Tm": 441.15, 
	 "num_atms": 23, 
	 "gaussian": { 
		 "optdone": 1, 
		 "sigma_profile": "yes", 
		 "theory": "DFT", 
		 "functional": "B3LYP", 
		 "basiset": "6-31G**", 
		 "properties": { 
			 "R2extent": 3237.4514, 
			 "electric_dipole_moment_norm": 3.92737857992, 
			 "electric_quadrupole_moment_norm": 14.3077920673, 
			 "total_energy": -534.704164416, 
			 "HOMO_LUMO_gap": 0.1693, 
			 "cosmo_polarized_energy": -11.94, 
			 "cosmo_cavitation_energy": 26.95, 
			 "cosmo_dispersion_energy": -19.95, 
			 "cosmo_repulsion_energy": 1.56, 
			 "cosmo_total_nonelectrostatic_energy": 8.56, 
			 "SMD_solvation_energy": 2.99 
		},
		"coords": [
			{
				"x": -1.8220053777,
				"y": -3.3444834565,
				"z": 2.9138642308,
				"element": "N" 
			},
			{
				"x": -2.0183320309,
				"y": -2.0785621959,
				"z": 2.3608129523,
				"element": "C" 
			},
			{
				"x": -3.1984691948,
				"y": -1.3587378743,
				"z": 2.6171191965,
				"element": "C" 
			},
			{
				"x": -3.3531413446,
				"y": -0.0694185417,
				"z": 2.1154247592,
				"element": "C" 
			},
			{
				"x": -2.349769893,
				"y": 0.5310708055,
				"z": 1.3561955659,
				"element": "C" 
			},
			{
				"x": -1.1650630514,
				"y": -0.1739028446,
				"z": 1.0869441904,
				"element": "C" 
			},
			{
				"x": -1.0127356321,
				"y": -1.4722361873,
				"z": 1.5916653381,
				"element": "C" 
			},
			{
				"x": -0.0869472505,
				"y": 0.4435853823,
				"z": 0.2746597549,
				"element": "C" 
			},
			{
				"x": 0.2172899691,
				"y": 1.810206477,
				"z": 0.3726075582,
				"element": "C" 
			},
			{
				"x": 1.2378750639,
				"y": 2.3437108961,
				"z": -0.4121584025,
				"element": "C" 
			},
			{
				"x": 1.9715146461,
				"y": 1.6298312439,
				"z": -1.2761802865,
				"element": "N" 
			},
			{
				"x": 1.6804606153,
				"y": 0.3257773774,
				"z": -1.3687842954,
				"element": "C" 
			},
			{
				"x": 0.680201087,
				"y": -0.3049584405,
				"z": -0.6313682474,
				"element": "C" 
			},
			{
				"x": -1.1516457003,
				"y": -3.9280415039,
				"z": 2.4329577783,
				"element": "H" 
			},
			{
				"x": -2.6657575428,
				"y": -3.8496483797,
				"z": 3.1463598292,
				"element": "H" 
			},
			{
				"x": -3.9856861157,
				"y": -1.812754226,
				"z": 3.2138485219,
				"element": "H" 
			},
			{
				"x": -4.2747405086,
				"y": 0.470912753,
				"z": 2.3130898615,
				"element": "H" 
			},
			{
				"x": -2.4958685561,
				"y": 1.5248475377,
				"z": 0.9463456846,
				"element": "H" 
			},
			{
				"x": -0.0849012754,
				"y": -2.0105588885,
				"z": 1.416340592,
				"element": "H" 
			},
			{
				"x": -0.3182894008,
				"y": 2.4459220967,
				"z": 1.0703655444,
				"element": "H" 
			},
			{
				"x": 1.4828316327,
				"y": 3.402132854,
				"z": -0.3370209638,
				"element": "H" 
			},
			{
				"x": 2.2758254825,
				"y": -0.2482012178,
				"z": -2.0774078871,
				"element": "H" 
			},
			{
				"x": 0.483854378,
				"y": -1.3620936668,
				"z": -0.7798812752,
				"element": "H" 
			}
		],
		 "valence_orbital": [ 
			{
				"type": "occ",
				"energy": -0.2855,
				"method": "rhf"
			},
			{
				"type": "occ",
				"energy": -0.25712,
				"method": "rhf"
			},
			{
				"type": "occ",
				"energy": -0.24896,
				"method": "rhf"
			},
			{
				"type": "occ",
				"energy": -0.23954,
				"method": "rhf"
			},
			{
				"type": "occ",
				"energy": -0.20765,
				"method": "rhf"
			},
			{
				"type": "unocc",
				"energy": -0.03835,
				"method": "rhf"
			},
			{
				"type": "unocc",
				"energy": -0.00677,
				"method": "rhf"
			},
			{
				"type": "unocc",
				"energy": 0.00662,
				"method": "rhf"
			},
			{
				"type": "unocc",
				"energy": 0.02694,
				"method": "rhf"
			},
			{
				"type": "unocc",
				"energy": 0.07615,
				"method": "rhf"
			}
		],
		"cosmo_sigma_profile": { 
			"-0.025": 0.0,
			"-0.024": 0.0,
			"-0.023": 0.0,
			"-0.022": 0.0,
			"-0.021": 0.0,
			"-0.02": 0.0,
			"-0.019": 0.0,
			"-0.018": 0.0,
			"-0.017": 0.0,
			"-0.016": 0.0,
			"-0.015": 0.0,
			"-0.014": 0.0,
			"-0.013": 0.336043539409,
			"-0.012": 2.58053278731,
			"-0.011": 2.58233274138,
			"-0.01": 3.05101670407,
			"-0.009": 3.56663491337,
			"-0.008": 3.12155925744,
			"-0.007": 3.09867089028,
			"-0.006": 14.1247106042,
			"-0.005": 17.7948545386,
			"-0.004": 15.7085464594,
			"-0.003": 13.3193716365,
			"-0.002": 10.7347636037,
			"-0.001": 10.9693965567,
			"0.0": 10.2206140444,
			"0.001": 13.5750559652,
			"0.002": 18.4925792331,
			"0.003": 20.654646537,
			"0.004": 9.82591839763,
			"0.005": 11.7242841925,
			"0.006": 10.8698292073,
			"0.007": 3.73360985015,
			"0.008": 2.63917188585,
			"0.009": 2.17590680719,
			"0.01": 1.7848136792,
			"0.011": 1.36015676683,
			"0.012": 2.05837499679,
			"0.013": 1.66916715602,
			"0.014": 1.14169442102,
			"0.015": 1.01904875336,
			"0.016": 0.959740187598,
			"0.017": 0.578285009075,
			"0.018": 0.0154144444586,
			"0.019": 0.0,
			"0.02": 0.0,
			"0.021": 0.0,
			"0.022": 0.0,
			"0.023": 0.0,
			"0.024": 0.0,
			"0.025": 0.0
		}
	}
}
