{
	 "smiles": "N#CC1=CC(=CC=C1)C1=CSC=N1", 
	 "Tm": 385.15, 
	 "num_atms": 19, 
	 "gaussian": { 
		 "optdone": 1, 
		 "sigma_profile": "yes", 
		 "theory": "DFT", 
		 "functional": "B3LYP", 
		 "basiset": "6-31G**", 
		 "properties": { 
			 "R2extent": 3740.7565, 
			 "electric_dipole_moment_norm": 5.86438196147, 
			 "electric_quadrupole_moment_norm": 14.2052245878, 
			 "total_energy": -892.346497849, 
			 "HOMO_LUMO_gap": 0.17711, 
			 "cosmo_polarized_energy": -12.01, 
			 "cosmo_cavitation_energy": 26.62, 
			 "cosmo_dispersion_energy": -19.73, 
			 "cosmo_repulsion_energy": 1.48, 
			 "cosmo_total_nonelectrostatic_energy": 8.37, 
			 "SMD_solvation_energy": 5.05 
		},
		"coords": [
			{
				"x": 0.611578594,
				"y": 2.7015252576,
				"z": 3.0157758125,
				"element": "N" 
			},
			{
				"x": 0.3714589372,
				"y": 2.1887691401,
				"z": 1.9997178623,
				"element": "C" 
			},
			{
				"x": 0.0789099984,
				"y": 1.5627796332,
				"z": 0.7413408833,
				"element": "C" 
			},
			{
				"x": -0.5833587744,
				"y": 0.3274026379,
				"z": 0.7166549378,
				"element": "C" 
			},
			{
				"x": -0.8757369408,
				"y": -0.2957320499,
				"z": -0.5040176592,
				"element": "C" 
			},
			{
				"x": -0.4911406858,
				"y": 0.3437662551,
				"z": -1.6947348193,
				"element": "C" 
			},
			{
				"x": 0.1669518741,
				"y": 1.5715346006,
				"z": -1.6685548843,
				"element": "C" 
			},
			{
				"x": 0.4579234567,
				"y": 2.191846174,
				"z": -0.4559269559,
				"element": "C" 
			},
			{
				"x": -1.5743003796,
				"y": -1.5965828411,
				"z": -0.5033112808,
				"element": "C" 
			},
			{
				"x": -1.9379058795,
				"y": -2.33824374,
				"z": -1.6023175415,
				"element": "C" 
			},
			{
				"x": -2.7344840408,
				"y": -3.7931785994,
				"z": -1.1198660876,
				"element": "S" 
			},
			{
				"x": -2.5240608924,
				"y": -3.3033295924,
				"z": 0.5443188877,
				"element": "C" 
			},
			{
				"x": -1.9199100724,
				"y": -2.1685935286,
				"z": 0.7101163999,
				"element": "N" 
			},
			{
				"x": -0.8749407443,
				"y": -0.1564047267,
				"z": 1.6408568751,
				"element": "H" 
			},
			{
				"x": -0.7054346734,
				"y": -0.11796733,
				"z": -2.6534325454,
				"element": "H" 
			},
			{
				"x": 0.4550559223,
				"y": 2.0479436497,
				"z": -2.6004611095,
				"element": "H" 
			},
			{
				"x": 0.9698663483,
				"y": 3.1474846524,
				"z": -0.4261822975,
				"element": "H" 
			},
			{
				"x": -1.7876223032,
				"y": -2.1193973584,
				"z": -2.6489119893,
				"element": "H" 
			},
			{
				"x": -2.8841497445,
				"y": -3.9262222339,
				"z": 1.3544355116,
				"element": "H" 
			}
		],
		 "valence_orbital": [ 
			{
				"type": "occ",
				"energy": -0.30703,
				"method": "rhf"
			},
			{
				"type": "occ",
				"energy": -0.29414,
				"method": "rhf"
			},
			{
				"type": "occ",
				"energy": -0.29075,
				"method": "rhf"
			},
			{
				"type": "occ",
				"energy": -0.26741,
				"method": "rhf"
			},
			{
				"type": "occ",
				"energy": -0.23943,
				"method": "rhf"
			},
			{
				"type": "unocc",
				"energy": -0.06232,
				"method": "rhf"
			},
			{
				"type": "unocc",
				"energy": -0.0393,
				"method": "rhf"
			},
			{
				"type": "unocc",
				"energy": -0.02772,
				"method": "rhf"
			},
			{
				"type": "unocc",
				"energy": 0.00297,
				"method": "rhf"
			},
			{
				"type": "unocc",
				"energy": 0.04052,
				"method": "rhf"
			}
		],
		"cosmo_sigma_profile": { 
			"-0.025": 0.0,
			"-0.024": 0.0,
			"-0.023": 0.0,
			"-0.022": 0.0,
			"-0.021": 0.0,
			"-0.02": 0.0,
			"-0.019": 0.0,
			"-0.018": 0.0,
			"-0.017": 0.0,
			"-0.016": 0.0,
			"-0.015": 0.0,
			"-0.014": 0.0,
			"-0.013": 0.0,
			"-0.012": 0.0,
			"-0.011": 0.216991608337,
			"-0.01": 4.7101094609,
			"-0.009": 4.62623235373,
			"-0.008": 5.76127925292,
			"-0.007": 10.0324289083,
			"-0.006": 11.2569445462,
			"-0.005": 10.2495261776,
			"-0.004": 9.25471142078,
			"-0.003": 9.29172226514,
			"-0.002": 12.2551018888,
			"-0.001": 15.7788120227,
			"0.0": 19.0410983127,
			"0.001": 26.794273016,
			"0.002": 30.3358986855,
			"0.003": 11.1583108939,
			"0.004": 3.99286992647,
			"0.005": 4.23654878036,
			"0.006": 4.3035582691,
			"0.007": 4.11150920571,
			"0.008": 4.40548275612,
			"0.009": 4.5412869256,
			"0.01": 4.80789113275,
			"0.011": 3.72571824824,
			"0.012": 2.52509923458,
			"0.013": 1.53545939552,
			"0.014": 0.0717826197704,
			"0.015": 0.0,
			"0.016": 0.0,
			"0.017": 0.0,
			"0.018": 0.0,
			"0.019": 0.0,
			"0.02": 0.0,
			"0.021": 0.0,
			"0.022": 0.0,
			"0.023": 0.0,
			"0.024": 0.0,
			"0.025": 0.0
		}
	}
}
