{
	 "smiles": "OC1=C(C=O)C=C(C=O)C=C1C=O", 
	 "Tm": 453.15, 
	 "num_atms": 19, 
	 "gaussian": { 
		 "optdone": 1, 
		 "sigma_profile": "yes", 
		 "theory": "DFT", 
		 "functional": "B3LYP", 
		 "basiset": "6-31G**", 
		 "properties": { 
			 "R2extent": 2845.8815, 
			 "electric_dipole_moment_norm": 1.65642324301, 
			 "electric_quadrupole_moment_norm": 9.8931941298, 
			 "total_energy": -647.451624831, 
			 "HOMO_LUMO_gap": 0.16252, 
			 "cosmo_polarized_energy": -13.31, 
			 "cosmo_cavitation_energy": 24.95, 
			 "cosmo_dispersion_energy": -18.06, 
			 "cosmo_repulsion_energy": 1.39, 
			 "cosmo_total_nonelectrostatic_energy": 8.29, 
			 "SMD_solvation_energy": 7.7 
		},
		"coords": [
			{
				"x": -0.9737894739,
				"y": 0.8591529309,
				"z": 1.3895140492,
				"element": "O" 
			},
			{
				"x": -0.6388994605,
				"y": -0.0154318198,
				"z": 0.4444698411,
				"element": "C" 
			},
			{
				"x": -0.2246704044,
				"y": 0.4252161752,
				"z": -0.850632205,
				"element": "C" 
			},
			{
				"x": -0.1683548642,
				"y": 1.8533910197,
				"z": -1.1399964609,
				"element": "C" 
			},
			{
				"x": -0.4620180252,
				"y": 2.7284307441,
				"z": -0.3215317936,
				"element": "O" 
			},
			{
				"x": 0.1211273871,
				"y": -0.5137186351,
				"z": -1.8236530319,
				"element": "C" 
			},
			{
				"x": 0.068861791,
				"y": -1.8851405531,
				"z": -1.5512883427,
				"element": "C" 
			},
			{
				"x": 0.4393858237,
				"y": -2.864591273,
				"z": -2.5962472086,
				"element": "C" 
			},
			{
				"x": 0.8001982967,
				"y": -2.5604638406,
				"z": -3.717795717,
				"element": "O" 
			},
			{
				"x": -0.3382663323,
				"y": -2.3063120548,
				"z": -0.2792162564,
				"element": "C" 
			},
			{
				"x": -0.6926380155,
				"y": -1.4007792633,
				"z": 0.7225565819,
				"element": "C" 
			},
			{
				"x": -1.1162652535,
				"y": -1.9078846601,
				"z": 2.0517755094,
				"element": "C" 
			},
			{
				"x": -1.1711805149,
				"y": -3.0950072072,
				"z": 2.3193912339,
				"element": "O" 
			},
			{
				"x": -0.8701140402,
				"y": 1.7693642133,
				"z": 0.9991387953,
				"element": "H" 
			},
			{
				"x": 0.1581697618,
				"y": 2.1377830704,
				"z": -2.1569711325,
				"element": "H" 
			},
			{
				"x": 0.4379366391,
				"y": -0.1922874936,
				"z": -2.8129791814,
				"element": "H" 
			},
			{
				"x": 0.36588302,
				"y": -3.9286159184,
				"z": -2.2845889277,
				"element": "H" 
			},
			{
				"x": -0.3902077405,
				"y": -3.3646376345,
				"z": -0.0336536757,
				"element": "H" 
			},
			{
				"x": -1.3819585942,
				"y": -1.1369678003,
				"z": 2.7972079226,
				"element": "H" 
			}
		],
		 "valence_orbital": [ 
			{
				"type": "occ",
				"energy": -0.30191,
				"method": "rhf"
			},
			{
				"type": "occ",
				"energy": -0.29884,
				"method": "rhf"
			},
			{
				"type": "occ",
				"energy": -0.2725,
				"method": "rhf"
			},
			{
				"type": "occ",
				"energy": -0.26554,
				"method": "rhf"
			},
			{
				"type": "occ",
				"energy": -0.26507,
				"method": "rhf"
			},
			{
				"type": "unocc",
				"energy": -0.10255,
				"method": "rhf"
			},
			{
				"type": "unocc",
				"energy": -0.08095,
				"method": "rhf"
			},
			{
				"type": "unocc",
				"energy": -0.0596,
				"method": "rhf"
			},
			{
				"type": "unocc",
				"energy": 0.03201,
				"method": "rhf"
			},
			{
				"type": "unocc",
				"energy": 0.04564,
				"method": "rhf"
			}
		],
		"cosmo_sigma_profile": { 
			"-0.025": 0.0,
			"-0.024": 0.0,
			"-0.023": 0.0,
			"-0.022": 0.0,
			"-0.021": 0.0,
			"-0.02": 0.0,
			"-0.019": 0.0,
			"-0.018": 0.0,
			"-0.017": 0.0,
			"-0.016": 0.0,
			"-0.015": 0.0,
			"-0.014": 0.0,
			"-0.013": 0.0,
			"-0.012": 0.0,
			"-0.011": 0.275569088315,
			"-0.01": 2.18429131876,
			"-0.009": 5.48382267533,
			"-0.008": 7.67029314271,
			"-0.007": 8.47662946579,
			"-0.006": 11.7701576299,
			"-0.005": 13.090687364,
			"-0.004": 15.5274175464,
			"-0.003": 14.6347391832,
			"-0.002": 19.1350174895,
			"-0.001": 19.8481459856,
			"0.0": 10.0562029942,
			"0.001": 5.10064494287,
			"0.002": 6.29772247599,
			"0.003": 6.55637173405,
			"0.004": 5.44099068164,
			"0.005": 5.20878833073,
			"0.006": 5.41839693928,
			"0.007": 6.94532453267,
			"0.008": 5.63342034516,
			"0.009": 4.5389232537,
			"0.01": 8.11301699325,
			"0.011": 9.49305877441,
			"0.012": 3.93289052584,
			"0.013": 0.658091185716,
			"0.014": 0.0,
			"0.015": 0.0,
			"0.016": 0.0,
			"0.017": 0.0,
			"0.018": 0.0,
			"0.019": 0.0,
			"0.02": 0.0,
			"0.021": 0.0,
			"0.022": 0.0,
			"0.023": 0.0,
			"0.024": 0.0,
			"0.025": 0.0
		}
	}
}
