{
	 "smiles": "CC1=CC(CC(O)=O)=NN1", 
	 "Tm": 390.15, 
	 "num_atms": 18, 
	 "gaussian": { 
		 "optdone": 1, 
		 "sigma_profile": "yes", 
		 "theory": "DFT", 
		 "functional": "B3LYP", 
		 "basiset": "6-31G**", 
		 "properties": { 
			 "R2extent": 1943.097, 
			 "electric_dipole_moment_norm": 7.95461396235, 
			 "electric_quadrupole_moment_norm": 7.3456993064, 
			 "total_energy": -493.413848255, 
			 "HOMO_LUMO_gap": 0.23815, 
			 "cosmo_polarized_energy": -16.37, 
			 "cosmo_cavitation_energy": 22.18, 
			 "cosmo_dispersion_energy": -16.76, 
			 "cosmo_repulsion_energy": 1.4, 
			 "cosmo_total_nonelectrostatic_energy": 6.82, 
			 "SMD_solvation_energy": 4.64 
		},
		"coords": [
			{
				"x": -1.7770451572,
				"y": 1.2025784206,
				"z": 3.9724046943,
				"element": "C" 
			},
			{
				"x": -1.1243138331,
				"y": 0.6819980115,
				"z": 2.7315001526,
				"element": "C" 
			},
			{
				"x": -1.6428808152,
				"y": 0.3241137013,
				"z": 1.497613627,
				"element": "C" 
			},
			{
				"x": -0.5365165531,
				"y": -0.1031734443,
				"z": 0.7273945474,
				"element": "C" 
			},
			{
				"x": -0.5034284836,
				"y": -0.6104048305,
				"z": -0.6867401595,
				"element": "C" 
			},
			{
				"x": 0.6885113677,
				"y": -0.1778994068,
				"z": -1.5632873224,
				"element": "C" 
			},
			{
				"x": 1.8478996175,
				"y": 0.0706883985,
				"z": -0.9365377366,
				"element": "O" 
			},
			{
				"x": 0.5884907616,
				"y": -0.1263692548,
				"z": -2.7667710314,
				"element": "O" 
			},
			{
				"x": 0.5914331895,
				"y": -0.0216905012,
				"z": 1.4370259048,
				"element": "N" 
			},
			{
				"x": 0.2151977137,
				"y": 0.4622589986,
				"z": 2.6420086929,
				"element": "N" 
			},
			{
				"x": -1.3451062151,
				"y": 2.1594076657,
				"z": 4.2865848685,
				"element": "H" 
			},
			{
				"x": -2.8425724636,
				"y": 1.3597740265,
				"z": 3.7946116857,
				"element": "H" 
			},
			{
				"x": -1.6771393291,
				"y": 0.5006389138,
				"z": 4.8082902091,
				"element": "H" 
			},
			{
				"x": -2.6788377374,
				"y": 0.3700433636,
				"z": 1.1959373072,
				"element": "H" 
			},
			{
				"x": -1.4092002936,
				"y": -0.3191849071,
				"z": -1.2213601226,
				"element": "H" 
			},
			{
				"x": -0.4877752284,
				"y": -1.7095959445,
				"z": -0.6852390206,
				"element": "H" 
			},
			{
				"x": 1.7189065709,
				"y": 0.0399523918,
				"z": 0.0405878985,
				"element": "H" 
			},
			{
				"x": 0.9156768885,
				"y": 0.6160643972,
				"z": 3.3508758051,
				"element": "H" 
			}
		],
		 "valence_orbital": [ 
			{
				"type": "occ",
				"energy": -0.30904,
				"method": "rhf"
			},
			{
				"type": "occ",
				"energy": -0.29099,
				"method": "rhf"
			},
			{
				"type": "occ",
				"energy": -0.27382,
				"method": "rhf"
			},
			{
				"type": "occ",
				"energy": -0.2603,
				"method": "rhf"
			},
			{
				"type": "occ",
				"energy": -0.24354,
				"method": "rhf"
			},
			{
				"type": "unocc",
				"energy": -0.00539,
				"method": "rhf"
			},
			{
				"type": "unocc",
				"energy": 0.03039,
				"method": "rhf"
			},
			{
				"type": "unocc",
				"energy": 0.0545,
				"method": "rhf"
			},
			{
				"type": "unocc",
				"energy": 0.06111,
				"method": "rhf"
			},
			{
				"type": "unocc",
				"energy": 0.09834,
				"method": "rhf"
			}
		],
		"cosmo_sigma_profile": { 
			"-0.025": 0.0,
			"-0.024": 0.0,
			"-0.023": 0.0,
			"-0.022": 0.0,
			"-0.021": 0.0,
			"-0.02": 0.0,
			"-0.019": 0.0,
			"-0.018": 0.0,
			"-0.017": 0.423400844725,
			"-0.016": 1.66640654923,
			"-0.015": 1.31918722266,
			"-0.014": 0.739221246822,
			"-0.013": 1.3795606678,
			"-0.012": 1.16865932817,
			"-0.011": 0.867720683627,
			"-0.01": 1.25753202692,
			"-0.009": 0.7202094246,
			"-0.008": 2.10543424625,
			"-0.007": 4.81269268977,
			"-0.006": 9.67131281453,
			"-0.005": 15.5449033468,
			"-0.004": 14.5812009252,
			"-0.003": 14.6675375458,
			"-0.002": 14.5685909415,
			"-0.001": 11.5956778198,
			"0.0": 9.3420296058,
			"0.001": 6.33812303887,
			"0.002": 6.56304917734,
			"0.003": 8.96858285519,
			"0.004": 7.72924565258,
			"0.005": 6.19011476195,
			"0.006": 3.75772951586,
			"0.007": 2.40102496064,
			"0.008": 3.44981762931,
			"0.009": 2.72006451496,
			"0.01": 3.88126593785,
			"0.011": 5.23613609643,
			"0.012": 6.49744941702,
			"0.013": 4.67231574024,
			"0.014": 1.19755663178,
			"0.015": 0.0,
			"0.016": 0.0,
			"0.017": 0.0,
			"0.018": 0.0,
			"0.019": 0.0,
			"0.02": 0.0,
			"0.021": 0.0,
			"0.022": 0.0,
			"0.023": 0.0,
			"0.024": 0.0,
			"0.025": 0.0
		}
	}
}
