{
	 "smiles": "CC1=C(I)C=CC(N)=N1", 
	 "Tm": 372.65, 
	 "num_atms": 16, 
	 "gaussian": { 
		 "optdone": 1, 
		 "sigma_profile": "yes", 
		 "theory": "DFT", 
		 "functional": "B3LYP", 
		 "basiset": "6-31G**", 
		 "properties": { 
			 "R2extent": 1748.3681, 
			 "electric_dipole_moment_norm": 2.82787589013, 
			 "electric_quadrupole_moment_norm": 5.70044310909, 
			 "total_energy": -353.759250144, 
			 "HOMO_LUMO_gap": 0.17882, 
			 "cosmo_polarized_energy": -8.73, 
			 "cosmo_cavitation_energy": 22.8, 
			 "cosmo_dispersion_energy": -18.42, 
			 "cosmo_repulsion_energy": 1.48, 
			 "cosmo_total_nonelectrostatic_energy": 5.85, 
			 "SMD_solvation_energy": 1.88 
		},
		"coords": [
			{
				"x": -2.9585623153,
				"y": 0.0374528684,
				"z": -1.8658878298,
				"element": "C" 
			},
			{
				"x": -2.0453385637,
				"y": -0.1764518049,
				"z": -0.6872819243,
				"element": "C" 
			},
			{
				"x": -2.3829550492,
				"y": -0.9739142966,
				"z": 0.4170614864,
				"element": "C" 
			},
			{
				"x": -4.2459249652,
				"y": -1.9843093592,
				"z": 0.5450789674,
				"element": "I" 
			},
			{
				"x": -1.4693123467,
				"y": -1.1174631333,
				"z": 1.4659630452,
				"element": "C" 
			},
			{
				"x": -0.2484348718,
				"y": -0.46621582,
				"z": 1.4001017957,
				"element": "C" 
			},
			{
				"x": 0.0206555376,
				"y": 0.3165052991,
				"z": 0.260621268,
				"element": "C" 
			},
			{
				"x": 1.1925726641,
				"y": 1.0354324103,
				"z": 0.1384303923,
				"element": "N" 
			},
			{
				"x": -0.8558153577,
				"y": 0.4448588529,
				"z": -0.745619297,
				"element": "N" 
			},
			{
				"x": -3.2074241086,
				"y": -0.9109124797,
				"z": -2.3543709077,
				"element": "H" 
			},
			{
				"x": -3.9052771045,
				"y": 0.4936652622,
				"z": -1.5568764392,
				"element": "H" 
			},
			{
				"x": -2.4638986698,
				"y": 0.6918148304,
				"z": -2.5844913931,
				"element": "H" 
			},
			{
				"x": -1.7129749182,
				"y": -1.7311893592,
				"z": 2.3265144984,
				"element": "H" 
			},
			{
				"x": 0.474516444,
				"y": -0.5520579788,
				"z": 2.2054863002,
				"element": "H" 
			},
			{
				"x": 1.9992419963,
				"y": 0.7037432288,
				"z": 0.6449019205,
				"element": "H" 
			},
			{
				"x": 1.3785316287,
				"y": 1.3702414797,
				"z": -0.7962318831,
				"element": "H" 
			}
		],
		 "valence_orbital": [ 
			{
				"type": "occ",
				"energy": -0.28362,
				"method": "rhf"
			},
			{
				"type": "occ",
				"energy": -0.27098,
				"method": "rhf"
			},
			{
				"type": "occ",
				"energy": -0.26723,
				"method": "rhf"
			},
			{
				"type": "occ",
				"energy": -0.2548,
				"method": "rhf"
			},
			{
				"type": "occ",
				"energy": -0.21154,
				"method": "rhf"
			},
			{
				"type": "unocc",
				"energy": -0.03272,
				"method": "rhf"
			},
			{
				"type": "unocc",
				"energy": -0.02081,
				"method": "rhf"
			},
			{
				"type": "unocc",
				"energy": -0.00195,
				"method": "rhf"
			},
			{
				"type": "unocc",
				"energy": 0.04259,
				"method": "rhf"
			},
			{
				"type": "unocc",
				"energy": 0.05154,
				"method": "rhf"
			}
		],
		"cosmo_sigma_profile": { 
			"-0.025": 0.0,
			"-0.024": 0.0,
			"-0.023": 0.0,
			"-0.022": 0.0,
			"-0.021": 0.0,
			"-0.02": 0.0,
			"-0.019": 0.0,
			"-0.018": 0.0,
			"-0.017": 0.0,
			"-0.016": 0.0,
			"-0.015": 0.0,
			"-0.014": 0.259288244443,
			"-0.013": 1.63240950173,
			"-0.012": 2.21110954319,
			"-0.011": 2.50528422823,
			"-0.01": 2.59851066862,
			"-0.009": 2.57404160686,
			"-0.008": 2.59761701015,
			"-0.007": 4.91084034516,
			"-0.006": 6.63550708154,
			"-0.005": 6.62991474121,
			"-0.004": 10.3277999897,
			"-0.003": 10.3606097775,
			"-0.002": 12.0033217803,
			"-0.001": 12.7178488798,
			"0.0": 16.3181885936,
			"0.001": 12.7039210133,
			"0.002": 17.3172688284,
			"0.003": 19.1294623458,
			"0.004": 16.1390701363,
			"0.005": 11.0688496827,
			"0.006": 3.19781292382,
			"0.007": 2.46855614918,
			"0.008": 1.46625805921,
			"0.009": 2.00512489501,
			"0.01": 2.2027873552,
			"0.011": 1.38358320445,
			"0.012": 1.40920146331,
			"0.013": 1.03701418621,
			"0.014": 0.297629899175,
			"0.015": 0.0,
			"0.016": 0.0,
			"0.017": 0.0,
			"0.018": 0.0,
			"0.019": 0.0,
			"0.02": 0.0,
			"0.021": 0.0,
			"0.022": 0.0,
			"0.023": 0.0,
			"0.024": 0.0,
			"0.025": 0.0
		}
	}
}
