{
	 "smiles": "CNC1=C(F)C=C(C=C1)C#N", 
	 "Tm": 350.15, 
	 "num_atms": 18, 
	 "gaussian": { 
		 "optdone": 1, 
		 "sigma_profile": "yes", 
		 "theory": "DFT", 
		 "functional": "B3LYP", 
		 "basiset": "6-31G**", 
		 "properties": { 
			 "R2extent": 3183.9757, 
			 "electric_dipole_moment_norm": 6.57801687441, 
			 "electric_quadrupole_moment_norm": 14.7486277979, 
			 "total_energy": -518.386742797, 
			 "HOMO_LUMO_gap": 0.17833, 
			 "cosmo_polarized_energy": -12.42, 
			 "cosmo_cavitation_energy": 23.49, 
			 "cosmo_dispersion_energy": -16.79, 
			 "cosmo_repulsion_energy": 1.33, 
			 "cosmo_total_nonelectrostatic_energy": 8.03, 
			 "SMD_solvation_energy": 5.26 
		},
		"coords": [
			{
				"x": 1.9216753678,
				"y": -3.0140716939,
				"z": -1.5125010394,
				"element": "C" 
			},
			{
				"x": 1.0665098868,
				"y": -2.3659370676,
				"z": -0.5228874294,
				"element": "N" 
			},
			{
				"x": 1.3721677039,
				"y": -1.2088613589,
				"z": 0.1612672099,
				"element": "C" 
			},
			{
				"x": 2.6873019282,
				"y": -0.749565573,
				"z": 0.3889159158,
				"element": "C" 
			},
			{
				"x": 3.7329277561,
				"y": -1.457941395,
				"z": -0.1066230683,
				"element": "F" 
			},
			{
				"x": 2.9670051095,
				"y": 0.396285739,
				"z": 1.1065406201,
				"element": "C" 
			},
			{
				"x": 1.9181982835,
				"y": 1.1526374692,
				"z": 1.6574465606,
				"element": "C" 
			},
			{
				"x": 0.5958821443,
				"y": 0.7181348599,
				"z": 1.460278176,
				"element": "C" 
			},
			{
				"x": 0.3383306539,
				"y": -0.4297207319,
				"z": 0.7280323134,
				"element": "C" 
			},
			{
				"x": 2.1958866908,
				"y": 2.3397132164,
				"z": 2.4036489818,
				"element": "C" 
			},
			{
				"x": 2.4178943082,
				"y": 3.3076378237,
				"z": 3.0115373762,
				"element": "N" 
			},
			{
				"x": 2.8283537552,
				"y": -3.4051350767,
				"z": -1.0508140898,
				"element": "H" 
			},
			{
				"x": 1.3635768298,
				"y": -3.8520252964,
				"z": -1.9355522258,
				"element": "H" 
			},
			{
				"x": 2.2132314596,
				"y": -2.3430827636,
				"z": -2.3320134815,
				"element": "H" 
			},
			{
				"x": 0.0779386138,
				"y": -2.472208518,
				"z": -0.6969264886,
				"element": "H" 
			},
			{
				"x": 4.0023205468,
				"y": 0.6891484519,
				"z": 1.2382596021,
				"element": "H" 
			},
			{
				"x": -0.2255286576,
				"y": 1.2898248595,
				"z": 1.8780024874,
				"element": "H" 
			},
			{
				"x": -0.6899723805,
				"y": -0.7490329445,
				"z": 0.5792885793,
				"element": "H" 
			}
		],
		 "valence_orbital": [ 
			{
				"type": "occ",
				"energy": -0.34848,
				"method": "rhf"
			},
			{
				"type": "occ",
				"energy": -0.32226,
				"method": "rhf"
			},
			{
				"type": "occ",
				"energy": -0.30215,
				"method": "rhf"
			},
			{
				"type": "occ",
				"energy": -0.26738,
				"method": "rhf"
			},
			{
				"type": "occ",
				"energy": -0.2163,
				"method": "rhf"
			},
			{
				"type": "unocc",
				"energy": -0.03797,
				"method": "rhf"
			},
			{
				"type": "unocc",
				"energy": -0.01625,
				"method": "rhf"
			},
			{
				"type": "unocc",
				"energy": 0.04293,
				"method": "rhf"
			},
			{
				"type": "unocc",
				"energy": 0.06139,
				"method": "rhf"
			},
			{
				"type": "unocc",
				"energy": 0.07443,
				"method": "rhf"
			}
		],
		"cosmo_sigma_profile": { 
			"-0.025": 0.0,
			"-0.024": 0.0,
			"-0.023": 0.0,
			"-0.022": 0.0,
			"-0.021": 0.0,
			"-0.02": 0.0,
			"-0.019": 0.0,
			"-0.018": 0.0,
			"-0.017": 0.0,
			"-0.016": 0.0,
			"-0.015": 0.0,
			"-0.014": 0.687863271924,
			"-0.013": 2.01994023857,
			"-0.012": 1.30382577,
			"-0.011": 1.85248196257,
			"-0.01": 1.56057633223,
			"-0.009": 2.04052459662,
			"-0.008": 4.71685445808,
			"-0.007": 6.61626479643,
			"-0.006": 7.55154731412,
			"-0.005": 8.46394242201,
			"-0.004": 10.9711786573,
			"-0.003": 12.2520334981,
			"-0.002": 13.9302665947,
			"-0.001": 13.7281787077,
			"0.0": 14.9285692428,
			"0.001": 17.5380543457,
			"0.002": 15.1621051694,
			"0.003": 12.9792520115,
			"0.004": 10.4675932768,
			"0.005": 3.67495155056,
			"0.006": 2.98271426672,
			"0.007": 3.4095910663,
			"0.008": 3.71974129383,
			"0.009": 3.79095750241,
			"0.01": 3.47765103699,
			"0.011": 3.37049012434,
			"0.012": 2.49592616677,
			"0.013": 2.44711029532,
			"0.014": 0.755110217143,
			"0.015": 0.0,
			"0.016": 0.0,
			"0.017": 0.0,
			"0.018": 0.0,
			"0.019": 0.0,
			"0.02": 0.0,
			"0.021": 0.0,
			"0.022": 0.0,
			"0.023": 0.0,
			"0.024": 0.0,
			"0.025": 0.0
		}
	}
}
