{
	 "smiles": "ClCC(=O)C1=CC2=C(COC2)C=C1", 
	 "Tm": 383.15, 
	 "num_atms": 22, 
	 "gaussian": { 
		 "optdone": 1, 
		 "sigma_profile": "yes", 
		 "theory": "DFT", 
		 "functional": "B3LYP", 
		 "basiset": "6-31G**", 
		 "properties": { 
			 "R2extent": 3525.8003, 
			 "electric_dipole_moment_norm": 1.81796044786, 
			 "electric_quadrupole_moment_norm": 14.131163059, 
			 "total_energy": -997.108881423, 
			 "HOMO_LUMO_gap": 0.17105, 
			 "cosmo_polarized_energy": -10.71, 
			 "cosmo_cavitation_energy": 27.45, 
			 "cosmo_dispersion_energy": -20.41, 
			 "cosmo_repulsion_energy": 1.64, 
			 "cosmo_total_nonelectrostatic_energy": 8.67, 
			 "SMD_solvation_energy": 4.75 
		},
		"coords": [
			{
				"x": -0.236065029,
				"y": 3.9622779908,
				"z": -1.3631678291,
				"element": "Cl" 
			},
			{
				"x": 1.1987850559,
				"y": 3.6947464972,
				"z": -0.2827504369,
				"element": "C" 
			},
			{
				"x": 0.8804270593,
				"y": 2.7308976677,
				"z": 0.8659102078,
				"element": "C" 
			},
			{
				"x": 0.8457497214,
				"y": 3.1818156912,
				"z": 1.9996816814,
				"element": "O" 
			},
			{
				"x": 0.664752893,
				"y": 1.2822057031,
				"z": 0.5860729181,
				"element": "C" 
			},
			{
				"x": 0.7693421925,
				"y": 0.7306646843,
				"z": -0.7034841649,
				"element": "C" 
			},
			{
				"x": 0.5846269498,
				"y": -0.6369804171,
				"z": -0.865072717,
				"element": "C" 
			},
			{
				"x": 0.2950146868,
				"y": -1.4548132021,
				"z": 0.2276098924,
				"element": "C" 
			},
			{
				"x": 0.1347835262,
				"y": -2.8692685547,
				"z": -0.2624223881,
				"element": "C" 
			},
			{
				"x": 0.5040932621,
				"y": -2.8379679966,
				"z": -1.6430412748,
				"element": "O" 
			},
			{
				"x": 0.6196015504,
				"y": -1.4896892072,
				"z": -2.1080441248,
				"element": "C" 
			},
			{
				"x": 0.1824205591,
				"y": -0.920354106,
				"z": 1.5110160102,
				"element": "C" 
			},
			{
				"x": 0.3717996382,
				"y": 0.4480545202,
				"z": 1.6815094064,
				"element": "C" 
			},
			{
				"x": 1.457378966,
				"y": 4.6580490191,
				"z": 0.1523582843,
				"element": "H" 
			},
			{
				"x": 2.0116821735,
				"y": 3.3322484761,
				"z": -0.9148836002,
				"element": "H" 
			},
			{
				"x": 0.9760147691,
				"y": 1.3605308962,
				"z": -1.5624496708,
				"element": "H" 
			},
			{
				"x": -0.9036966187,
				"y": -3.2209700245,
				"z": -0.1465849135,
				"element": "H" 
			},
			{
				"x": 0.7845685628,
				"y": -3.5816592658,
				"z": 0.2634715005,
				"element": "H" 
			},
			{
				"x": -0.2095465731,
				"y": -1.2456891824,
				"z": -2.7916873169,
				"element": "H" 
			},
			{
				"x": 1.5555160987,
				"y": -1.3907545553,
				"z": -2.6736998666,
				"element": "H" 
			},
			{
				"x": -0.0441927782,
				"y": -1.5526229306,
				"z": 2.3649798369,
				"element": "H" 
			},
			{
				"x": 0.3022433342,
				"y": 0.9046782964,
				"z": 2.6627785657,
				"element": "H" 
			}
		],
		 "valence_orbital": [ 
			{
				"type": "occ",
				"energy": -0.3092,
				"method": "rhf"
			},
			{
				"type": "occ",
				"energy": -0.27502,
				"method": "rhf"
			},
			{
				"type": "occ",
				"energy": -0.26975,
				"method": "rhf"
			},
			{
				"type": "occ",
				"energy": -0.26349,
				"method": "rhf"
			},
			{
				"type": "occ",
				"energy": -0.24622,
				"method": "rhf"
			},
			{
				"type": "unocc",
				"energy": -0.07517,
				"method": "rhf"
			},
			{
				"type": "unocc",
				"energy": -0.0225,
				"method": "rhf"
			},
			{
				"type": "unocc",
				"energy": -0.00061,
				"method": "rhf"
			},
			{
				"type": "unocc",
				"energy": 0.04802,
				"method": "rhf"
			},
			{
				"type": "unocc",
				"energy": 0.08381,
				"method": "rhf"
			}
		],
		"cosmo_sigma_profile": { 
			"-0.025": 0.0,
			"-0.024": 0.0,
			"-0.023": 0.0,
			"-0.022": 0.0,
			"-0.021": 0.0,
			"-0.02": 0.0,
			"-0.019": 0.0,
			"-0.018": 0.0,
			"-0.017": 0.0,
			"-0.016": 0.0,
			"-0.015": 0.0,
			"-0.014": 0.0,
			"-0.013": 0.0,
			"-0.012": 0.0,
			"-0.011": 0.0,
			"-0.01": 0.384584736283,
			"-0.009": 3.52385896374,
			"-0.008": 4.48514831732,
			"-0.007": 6.68814660304,
			"-0.006": 12.6195492612,
			"-0.005": 23.1959898964,
			"-0.004": 17.7318474767,
			"-0.003": 14.0411151772,
			"-0.002": 12.4019135363,
			"-0.001": 13.3282493756,
			"0.0": 13.3009567155,
			"0.001": 14.5940320793,
			"0.002": 15.6495398698,
			"0.003": 18.8813370844,
			"0.004": 12.6870936718,
			"0.005": 9.67400438411,
			"0.006": 4.68278301064,
			"0.007": 3.38259908352,
			"0.008": 3.32486644321,
			"0.009": 2.68636236583,
			"0.01": 3.47665151263,
			"0.011": 5.69321643396,
			"0.012": 2.47921052294,
			"0.013": 1.73479707951,
			"0.014": 0.37965110008,
			"0.015": 0.0,
			"0.016": 0.0,
			"0.017": 0.0,
			"0.018": 0.0,
			"0.019": 0.0,
			"0.02": 0.0,
			"0.021": 0.0,
			"0.022": 0.0,
			"0.023": 0.0,
			"0.024": 0.0,
			"0.025": 0.0
		}
	}
}
