{
	 "smiles": "COC1=C(C=C(C=C1)C(O)=O)C1=CC=C(C=C1)C(C)(C)C", 
	 "Tm": 533.15, 
	 "num_atms": 41, 
	 "gaussian": { 
		 "optdone": 1, 
		 "sigma_profile": "yes", 
		 "theory": "DFT", 
		 "functional": "B3LYP", 
		 "basiset": "6-31G**", 
		 "properties": { 
			 "R2extent": 9439.2928, 
			 "electric_dipole_moment_norm": 6.20128276246, 
			 "electric_quadrupole_moment_norm": 39.0046099781, 
			 "total_energy": -923.659616402, 
			 "HOMO_LUMO_gap": 0.17889, 
			 "cosmo_polarized_energy": -18.04, 
			 "cosmo_cavitation_energy": 43.25, 
			 "cosmo_dispersion_energy": -30.32, 
			 "cosmo_repulsion_energy": 2.31, 
			 "cosmo_total_nonelectrostatic_energy": 15.23, 
			 "SMD_solvation_energy": 9.14 
		},
		"coords": [
			{
				"x": -3.3785920305,
				"y": 3.567918289,
				"z": 0.1288217511,
				"element": "C" 
			},
			{
				"x": -2.3960545865,
				"y": 2.5750019242,
				"z": -0.1301170147,
				"element": "O" 
			},
			{
				"x": -2.2275586309,
				"y": 2.1282954625,
				"z": -1.4029174295,
				"element": "C" 
			},
			{
				"x": -1.2753820167,
				"y": 1.0902182324,
				"z": -1.5895897563,
				"element": "C" 
			},
			{
				"x": -1.1001351578,
				"y": 0.6006211661,
				"z": -2.8842043487,
				"element": "C" 
			},
			{
				"x": -1.806774979,
				"y": 1.1050708242,
				"z": -3.9856048918,
				"element": "C" 
			},
			{
				"x": -2.744959648,
				"y": 2.118841001,
				"z": -3.7710582725,
				"element": "C" 
			},
			{
				"x": -2.9559281915,
				"y": 2.6264971729,
				"z": -2.4906559839,
				"element": "C" 
			},
			{
				"x": -1.5356574313,
				"y": 0.4996015728,
				"z": -5.3242512325,
				"element": "C" 
			},
			{
				"x": -1.9141115657,
				"y": 1.2265182543,
				"z": -6.4139072933,
				"element": "O" 
			},
			{
				"x": -1.0099326133,
				"y": -0.5788173669,
				"z": -5.4775410519,
				"element": "O" 
			},
			{
				"x": -0.4962730585,
				"y": 0.5024950519,
				"z": -0.4666461325,
				"element": "C" 
			},
			{
				"x": -0.328278918,
				"y": -0.8901115381,
				"z": -0.3845825954,
				"element": "C" 
			},
			{
				"x": 0.4355692096,
				"y": -1.4643130319,
				"z": 0.6262866834,
				"element": "C" 
			},
			{
				"x": 1.0731632387,
				"y": -0.6833795679,
				"z": 1.6050266309,
				"element": "C" 
			},
			{
				"x": 0.9005211494,
				"y": 0.7048777984,
				"z": 1.5177859108,
				"element": "C" 
			},
			{
				"x": 0.1324037739,
				"y": 1.2874824186,
				"z": 0.5093613885,
				"element": "C" 
			},
			{
				"x": 1.9111902682,
				"y": -1.3587833291,
				"z": 2.705137694,
				"element": "C" 
			},
			{
				"x": 1.0127021756,
				"y": -2.3204642008,
				"z": 3.51921109,
				"element": "C" 
			},
			{
				"x": 3.0622356511,
				"y": -2.1621728771,
				"z": 2.05371451,
				"element": "C" 
			},
			{
				"x": 2.5291017078,
				"y": -0.3385245183,
				"z": 3.6799474378,
				"element": "C" 
			},
			{
				"x": -3.3431629428,
				"y": 3.7471207493,
				"z": 1.2040642103,
				"element": "H" 
			},
			{
				"x": -4.3824534566,
				"y": 3.2227441625,
				"z": -0.14757537,
				"element": "H" 
			},
			{
				"x": -3.1586979131,
				"y": 4.5030647694,
				"z": -0.4012320799,
				"element": "H" 
			},
			{
				"x": -0.3788708229,
				"y": -0.1887960846,
				"z": -3.0647320685,
				"element": "H" 
			},
			{
				"x": -3.3560107456,
				"y": 2.5026645499,
				"z": -4.5846290953,
				"element": "H" 
			},
			{
				"x": -3.7006450976,
				"y": 3.3989200037,
				"z": -2.3450085057,
				"element": "H" 
			},
			{
				"x": -2.1489435634,
				"y": 2.1251954695,
				"z": -6.1454177113,
				"element": "H" 
			},
			{
				"x": -0.8163109824,
				"y": -1.5311342307,
				"z": -1.113231386,
				"element": "H" 
			},
			{
				"x": 0.5296330874,
				"y": -2.54609614,
				"z": 0.6507214133,
				"element": "H" 
			},
			{
				"x": 1.3722864611,
				"y": 1.3591112066,
				"z": 2.2421343267,
				"element": "H" 
			},
			{
				"x": 0.0281579225,
				"y": 2.3660616578,
				"z": 0.4786930569,
				"element": "H" 
			},
			{
				"x": 0.1910386493,
				"y": -1.7775967605,
				"z": 3.9979412265,
				"element": "H" 
			},
			{
				"x": 1.5964206093,
				"y": -2.815147379,
				"z": 4.3038786805,
				"element": "H" 
			},
			{
				"x": 0.5747415733,
				"y": -3.100109113,
				"z": 2.8890405642,
				"element": "H" 
			},
			{
				"x": 3.7206210064,
				"y": -1.5048165925,
				"z": 1.4763906946,
				"element": "H" 
			},
			{
				"x": 2.6869740167,
				"y": -2.9354425829,
				"z": 1.376994003,
				"element": "H" 
			},
			{
				"x": 3.6654139639,
				"y": -2.6569566728,
				"z": 2.8234612469,
				"element": "H" 
			},
			{
				"x": 3.2025056817,
				"y": 0.3574371949,
				"z": 3.1689033094,
				"element": "H" 
			},
			{
				"x": 3.1144727796,
				"y": -0.8640742895,
				"z": 4.4414427143,
				"element": "H" 
			},
			{
				"x": 1.7620814265,
				"y": 0.2457773433,
				"z": 4.1989436766,
				"element": "H" 
			}
		],
		 "valence_orbital": [ 
			{
				"type": "occ",
				"energy": -0.27523,
				"method": "rhf"
			},
			{
				"type": "occ",
				"energy": -0.26579,
				"method": "rhf"
			},
			{
				"type": "occ",
				"energy": -0.24571,
				"method": "rhf"
			},
			{
				"type": "occ",
				"energy": -0.2434,
				"method": "rhf"
			},
			{
				"type": "occ",
				"energy": -0.22023,
				"method": "rhf"
			},
			{
				"type": "unocc",
				"energy": -0.04134,
				"method": "rhf"
			},
			{
				"type": "unocc",
				"energy": -0.02747,
				"method": "rhf"
			},
			{
				"type": "unocc",
				"energy": 0.0023,
				"method": "rhf"
			},
			{
				"type": "unocc",
				"energy": 0.01339,
				"method": "rhf"
			},
			{
				"type": "unocc",
				"energy": 0.05962,
				"method": "rhf"
			}
		],
		"cosmo_sigma_profile": { 
			"-0.025": 0.0,
			"-0.024": 0.0,
			"-0.023": 0.0,
			"-0.022": 0.0,
			"-0.021": 0.0,
			"-0.02": 0.0,
			"-0.019": 0.125319905576,
			"-0.018": 0.570487570932,
			"-0.017": 1.07432479613,
			"-0.016": 0.836944216808,
			"-0.015": 1.35681614067,
			"-0.014": 0.676838026834,
			"-0.013": 0.383271492768,
			"-0.012": 1.33296120046,
			"-0.011": 1.5906418433,
			"-0.01": 0.993033205107,
			"-0.009": 1.25454720486,
			"-0.008": 2.22667146662,
			"-0.007": 5.1700389459,
			"-0.006": 11.9002325029,
			"-0.005": 18.7622363236,
			"-0.004": 21.8277405721,
			"-0.003": 32.528606741,
			"-0.002": 33.6602886932,
			"-0.001": 28.8470982491,
			"0.0": 27.5777360412,
			"0.001": 36.0974292441,
			"0.002": 26.3603359582,
			"0.003": 22.0013086168,
			"0.004": 12.0984258404,
			"0.005": 9.90334816451,
			"0.006": 10.3608172569,
			"0.007": 5.83513420974,
			"0.008": 3.63360114669,
			"0.009": 3.87302819931,
			"0.01": 4.67405123001,
			"0.011": 5.27580027723,
			"0.012": 5.63975287334,
			"0.013": 2.65301144557,
			"0.014": 0.322581974223,
			"0.015": 0.0,
			"0.016": 0.0,
			"0.017": 0.0,
			"0.018": 0.0,
			"0.019": 0.0,
			"0.02": 0.0,
			"0.021": 0.0,
			"0.022": 0.0,
			"0.023": 0.0,
			"0.024": 0.0,
			"0.025": 0.0
		}
	}
}
