{
	 "smiles": "OC(=O)CC1=COC2=C1C=CC(O)=C2", 
	 "Tm": 401.15, 
	 "num_atms": 22, 
	 "gaussian": { 
		 "optdone": 1, 
		 "sigma_profile": "yes", 
		 "theory": "DFT", 
		 "functional": "B3LYP", 
		 "basiset": "6-31G**", 
		 "properties": { 
			 "R2extent": 4372.6527, 
			 "electric_dipole_moment_norm": 3.20010129058, 
			 "electric_quadrupole_moment_norm": 34.9886903852, 
			 "total_energy": -686.773111346, 
			 "HOMO_LUMO_gap": 0.18875, 
			 "cosmo_polarized_energy": -18.5, 
			 "cosmo_cavitation_energy": 27.18, 
			 "cosmo_dispersion_energy": -19.65, 
			 "cosmo_repulsion_energy": 1.55, 
			 "cosmo_total_nonelectrostatic_energy": 9.08, 
			 "SMD_solvation_energy": 6.68 
		},
		"coords": [
			{
				"x": -2.7612480438,
				"y": 3.8584264174,
				"z": 0.3272949433,
				"element": "O" 
			},
			{
				"x": -2.8744729573,
				"y": 3.6318728928,
				"z": 1.6558550259,
				"element": "C" 
			},
			{
				"x": -2.697162951,
				"y": 4.5134543122,
				"z": 2.4583558712,
				"element": "O" 
			},
			{
				"x": -3.2953349994,
				"y": 2.2074071289,
				"z": 2.0527407819,
				"element": "C" 
			},
			{
				"x": -2.7965143129,
				"y": 1.1236444577,
				"z": 1.1444835185,
				"element": "C" 
			},
			{
				"x": -3.521299353,
				"y": 0.3914263165,
				"z": 0.2541965001,
				"element": "C" 
			},
			{
				"x": -2.7544856244,
				"y": -0.5237709606,
				"z": -0.4247285065,
				"element": "O" 
			},
			{
				"x": -1.4771977998,
				"y": -0.3746249408,
				"z": 0.0462378003,
				"element": "C" 
			},
			{
				"x": -1.4340946814,
				"y": 0.6369333054,
				"z": 1.0226789391,
				"element": "C" 
			},
			{
				"x": -0.2031517482,
				"y": 0.939463287,
				"z": 1.6201603912,
				"element": "C" 
			},
			{
				"x": 0.9225866748,
				"y": 0.2252106644,
				"z": 1.2252649861,
				"element": "C" 
			},
			{
				"x": 0.8408883872,
				"y": -0.7847425868,
				"z": 0.2417776933,
				"element": "C" 
			},
			{
				"x": 1.9384943817,
				"y": -1.4925894139,
				"z": -0.155271184,
				"element": "O" 
			},
			{
				"x": -0.3732151784,
				"y": -1.1040010157,
				"z": -0.3713625573,
				"element": "C" 
			},
			{
				"x": -2.8826162149,
				"y": 3.01942475,
				"z": -0.1480602867,
				"element": "H" 
			},
			{
				"x": -4.3924102995,
				"y": 2.200872825,
				"z": 2.0769430657,
				"element": "H" 
			},
			{
				"x": -2.9587217545,
				"y": 2.0580253087,
				"z": 3.0820258325,
				"element": "H" 
			},
			{
				"x": -4.5737289611,
				"y": 0.3837566133,
				"z": 0.0099038378,
				"element": "H" 
			},
			{
				"x": -0.1197474245,
				"y": 1.7164938119,
				"z": 2.3738673301,
				"element": "H" 
			},
			{
				"x": 1.8868301278,
				"y": 0.4461754194,
				"z": 1.6772712156,
				"element": "H" 
			},
			{
				"x": 2.7119293861,
				"y": -1.1824986074,
				"z": 0.3329387998,
				"element": "H" 
			},
			{
				"x": -0.4315266532,
				"y": -1.8784599852,
				"z": -1.1262739981,
				"element": "H" 
			}
		],
		 "valence_orbital": [ 
			{
				"type": "occ",
				"energy": -0.31216,
				"method": "rhf"
			},
			{
				"type": "occ",
				"energy": -0.29971,
				"method": "rhf"
			},
			{
				"type": "occ",
				"energy": -0.26692,
				"method": "rhf"
			},
			{
				"type": "occ",
				"energy": -0.25083,
				"method": "rhf"
			},
			{
				"type": "occ",
				"energy": -0.21918,
				"method": "rhf"
			},
			{
				"type": "unocc",
				"energy": -0.03043,
				"method": "rhf"
			},
			{
				"type": "unocc",
				"energy": -0.00013,
				"method": "rhf"
			},
			{
				"type": "unocc",
				"energy": 0.01386,
				"method": "rhf"
			},
			{
				"type": "unocc",
				"energy": 0.03755,
				"method": "rhf"
			},
			{
				"type": "unocc",
				"energy": 0.06085,
				"method": "rhf"
			}
		],
		"cosmo_sigma_profile": { 
			"-0.025": 0.0,
			"-0.024": 0.0,
			"-0.023": 0.0,
			"-0.022": 0.0,
			"-0.021": 0.0,
			"-0.02": 0.0,
			"-0.019": 0.0,
			"-0.018": 0.408218036903,
			"-0.017": 1.34682345837,
			"-0.016": 0.872973909312,
			"-0.015": 1.18643901468,
			"-0.014": 1.64588674325,
			"-0.013": 2.01995083365,
			"-0.012": 1.49105020059,
			"-0.011": 2.51654690495,
			"-0.01": 3.39616372952,
			"-0.009": 5.41812526496,
			"-0.008": 8.54367509135,
			"-0.007": 9.19180963299,
			"-0.006": 11.9213181887,
			"-0.005": 12.0355419629,
			"-0.004": 12.5730832326,
			"-0.003": 9.42408884048,
			"-0.002": 7.08886715991,
			"-0.001": 8.87901319073,
			"0.0": 7.88987170401,
			"0.001": 12.4164253395,
			"0.002": 13.603319508,
			"0.003": 16.2048889381,
			"0.004": 15.4860022707,
			"0.005": 8.73103622764,
			"0.006": 5.25346285703,
			"0.007": 4.0098632779,
			"0.008": 6.66142300797,
			"0.009": 5.04413520044,
			"0.01": 7.04609359586,
			"0.011": 6.06768902657,
			"0.012": 6.53490284838,
			"0.013": 2.32585104691,
			"0.014": 0.0712543172389,
			"0.015": 0.0,
			"0.016": 0.0,
			"0.017": 0.0,
			"0.018": 0.0,
			"0.019": 0.0,
			"0.02": 0.0,
			"0.021": 0.0,
			"0.022": 0.0,
			"0.023": 0.0,
			"0.024": 0.0,
			"0.025": 0.0
		}
	}
}
