{
	 "smiles": "COC1=CC(=CC(OC)=C1)N1CC(CC1=O)C(O)=O", 
	 "Tm": 399.15, 
	 "num_atms": 34, 
	 "gaussian": { 
		 "optdone": 1, 
		 "sigma_profile": "yes", 
		 "theory": "DFT", 
		 "functional": "B3LYP", 
		 "basiset": "6-31G**", 
		 "properties": { 
			 "R2extent": 6961.2575, 
			 "electric_dipole_moment_norm": 4.04651352895, 
			 "electric_quadrupole_moment_norm": 18.3260261402, 
			 "total_energy": -935.30070846, 
			 "HOMO_LUMO_gap": 0.19165, 
			 "cosmo_polarized_energy": -21.27, 
			 "cosmo_cavitation_energy": 37.5, 
			 "cosmo_dispersion_energy": -26.99, 
			 "cosmo_repulsion_energy": 2.09, 
			 "cosmo_total_nonelectrostatic_energy": 12.6, 
			 "SMD_solvation_energy": 9.13 
		},
		"coords": [
			{
				"x": 1.0454364478,
				"y": 3.5189497193,
				"z": -2.4216519871,
				"element": "C" 
			},
			{
				"x": -0.3374182678,
				"y": 3.2103018016,
				"z": -2.4272645306,
				"element": "O" 
			},
			{
				"x": -0.8044792014,
				"y": 2.2891451942,
				"z": -1.5311855339,
				"element": "C" 
			},
			{
				"x": 0.0035882655,
				"y": 1.616099715,
				"z": -0.615502496,
				"element": "C" 
			},
			{
				"x": -0.5847594442,
				"y": 0.6836064231,
				"z": 0.2674325951,
				"element": "C" 
			},
			{
				"x": -1.9576623591,
				"y": 0.4384592831,
				"z": 0.2186448719,
				"element": "C" 
			},
			{
				"x": -2.7442804763,
				"y": 1.1287578038,
				"z": -0.7157412865,
				"element": "C" 
			},
			{
				"x": -4.0729939671,
				"y": 0.8192591516,
				"z": -0.6832816174,
				"element": "O" 
			},
			{
				"x": -4.9381524931,
				"y": 1.4766811171,
				"z": -1.5937067335,
				"element": "C" 
			},
			{
				"x": -2.184849689,
				"y": 2.055226181,
				"z": -1.5935207539,
				"element": "C" 
			},
			{
				"x": 0.2514572319,
				"y": 0.0154130654,
				"z": 1.1988686213,
				"element": "N" 
			},
			{
				"x": 1.6690969062,
				"y": 0.3701916581,
				"z": 1.3323648565,
				"element": "C" 
			},
			{
				"x": 2.1444206454,
				"y": -0.3758987354,
				"z": 2.5909989098,
				"element": "C" 
			},
			{
				"x": 1.1471922592,
				"y": -1.5393340801,
				"z": 2.7316646167,
				"element": "C" 
			},
			{
				"x": -0.0982937743,
				"y": -1.080352559,
				"z": 1.9768049117,
				"element": "C" 
			},
			{
				"x": -1.190016785,
				"y": -1.6168713358,
				"z": 2.0499050191,
				"element": "O" 
			},
			{
				"x": 2.1706315138,
				"y": 0.5448694861,
				"z": 3.8066726235,
				"element": "C" 
			},
			{
				"x": 2.394574508,
				"y": -0.1505360425,
				"z": 4.9451302598,
				"element": "O" 
			},
			{
				"x": 2.0484686579,
				"y": 1.7493388144,
				"z": 3.7901313915,
				"element": "O" 
			},
			{
				"x": 1.1894236609,
				"y": 4.2735159838,
				"z": -3.1968113284,
				"element": "H" 
			},
			{
				"x": 1.3664311814,
				"y": 3.929936646,
				"z": -1.455492305,
				"element": "H" 
			},
			{
				"x": 1.6596437566,
				"y": 2.6399846315,
				"z": -2.6584961437,
				"element": "H" 
			},
			{
				"x": 1.0657896665,
				"y": 1.8043773868,
				"z": -0.5899695026,
				"element": "H" 
			},
			{
				"x": -2.4224478591,
				"y": -0.2770977987,
				"z": 0.8784487256,
				"element": "H" 
			},
			{
				"x": -4.9398878384,
				"y": 2.5636273213,
				"z": -1.4396864067,
				"element": "H" 
			},
			{
				"x": -4.6673886776,
				"y": 1.2649342994,
				"z": -2.6363102513,
				"element": "H" 
			},
			{
				"x": -5.9372684939,
				"y": 1.0848702025,
				"z": -1.3960869525,
				"element": "H" 
			},
			{
				"x": -2.7661392297,
				"y": 2.6045109693,
				"z": -2.3219155101,
				"element": "H" 
			},
			{
				"x": 1.7863081782,
				"y": 1.4486477623,
				"z": 1.4568631164,
				"element": "H" 
			},
			{
				"x": 2.2330981922,
				"y": 0.0505235346,
				"z": 0.4463348664,
				"element": "H" 
			},
			{
				"x": 3.1699193886,
				"y": -0.7412377287,
				"z": 2.4702360309,
				"element": "H" 
			},
			{
				"x": 1.5224702658,
				"y": -2.449161812,
				"z": 2.2500834411,
				"element": "H" 
			},
			{
				"x": 0.8976860104,
				"y": -1.7946495469,
				"z": 3.7619787817,
				"element": "H" 
			},
			{
				"x": 2.4163018196,
				"y": 0.5020114878,
				"z": 5.6653597003,
				"element": "H" 
			}
		],
		 "valence_orbital": [ 
			{
				"type": "occ",
				"energy": -0.28945,
				"method": "rhf"
			},
			{
				"type": "occ",
				"energy": -0.25993,
				"method": "rhf"
			},
			{
				"type": "occ",
				"energy": -0.24887,
				"method": "rhf"
			},
			{
				"type": "occ",
				"energy": -0.21121,
				"method": "rhf"
			},
			{
				"type": "occ",
				"energy": -0.2041,
				"method": "rhf"
			},
			{
				"type": "unocc",
				"energy": -0.01245,
				"method": "rhf"
			},
			{
				"type": "unocc",
				"energy": -0.00153,
				"method": "rhf"
			},
			{
				"type": "unocc",
				"energy": 0.02471,
				"method": "rhf"
			},
			{
				"type": "unocc",
				"energy": 0.04907,
				"method": "rhf"
			},
			{
				"type": "unocc",
				"energy": 0.06444,
				"method": "rhf"
			}
		],
		"cosmo_sigma_profile": { 
			"-0.025": 0.0,
			"-0.024": 0.0,
			"-0.023": 0.0,
			"-0.022": 0.0,
			"-0.021": 0.0,
			"-0.02": 0.0,
			"-0.019": 0.231847475338,
			"-0.018": 0.834343111961,
			"-0.017": 1.08853223691,
			"-0.016": 0.790513721724,
			"-0.015": 0.859466464087,
			"-0.014": 0.223857189983,
			"-0.013": 0.399415768059,
			"-0.012": 1.10533968253,
			"-0.011": 1.18870172898,
			"-0.01": 0.765847866284,
			"-0.009": 0.338271143044,
			"-0.008": 3.37937963997,
			"-0.007": 11.6911654206,
			"-0.006": 23.7827928202,
			"-0.005": 29.4845744407,
			"-0.004": 25.1565761701,
			"-0.003": 27.8617030057,
			"-0.002": 15.2682996586,
			"-0.001": 11.3219611722,
			"0.0": 11.8178724806,
			"0.001": 11.9323926105,
			"0.002": 12.3932244428,
			"0.003": 14.1334453064,
			"0.004": 18.2724406684,
			"0.005": 19.9295887628,
			"0.006": 8.23751734249,
			"0.007": 8.15699653634,
			"0.008": 6.31543753823,
			"0.009": 6.76321421089,
			"0.01": 7.17281368199,
			"0.011": 7.86518969277,
			"0.012": 4.21852665139,
			"0.013": 3.04844772277,
			"0.014": 0.848347348465,
			"0.015": 0.0,
			"0.016": 0.0,
			"0.017": 0.0,
			"0.018": 0.0,
			"0.019": 0.0,
			"0.02": 0.0,
			"0.021": 0.0,
			"0.022": 0.0,
			"0.023": 0.0,
			"0.024": 0.0,
			"0.025": 0.0
		}
	}
}
