{
	 "smiles": "CCOC(=O)C(Cl)=NNC1=CC=CC=C1", 
	 "Tm": 351.65, 
	 "num_atms": 26, 
	 "gaussian": { 
		 "optdone": 1, 
		 "sigma_profile": "yes", 
		 "theory": "DFT", 
		 "functional": "B3LYP", 
		 "basiset": "6-31G**", 
		 "properties": { 
			 "R2extent": 5355.0643, 
			 "electric_dipole_moment_norm": 3.01024860435, 
			 "electric_quadrupole_moment_norm": 15.1322647618, 
			 "total_energy": -1107.81669401, 
			 "HOMO_LUMO_gap": 0.15655, 
			 "cosmo_polarized_energy": -12.12, 
			 "cosmo_cavitation_energy": 33.21, 
			 "cosmo_dispersion_energy": -23.88, 
			 "cosmo_repulsion_energy": 1.92, 
			 "cosmo_total_nonelectrostatic_energy": 11.25, 
			 "SMD_solvation_energy": 6.42 
		},
		"coords": [
			{
				"x": -4.2472396071,
				"y": -1.8345966866,
				"z": 1.9629738802,
				"element": "C" 
			},
			{
				"x": -4.3495521766,
				"y": -0.4942755544,
				"z": 1.2610845211,
				"element": "C" 
			},
			{
				"x": -3.0015514735,
				"y": -0.0630362055,
				"z": 0.9579971334,
				"element": "O" 
			},
			{
				"x": -2.9086242973,
				"y": 1.1220816782,
				"z": 0.3286478966,
				"element": "C" 
			},
			{
				"x": -3.8526936246,
				"y": 1.8160548086,
				"z": 0.0161373642,
				"element": "O" 
			},
			{
				"x": -1.4895053352,
				"y": 1.4859156026,
				"z": 0.0575028388,
				"element": "C" 
			},
			{
				"x": -1.2516373469,
				"y": 3.0323104237,
				"z": -0.7713487159,
				"element": "Cl" 
			},
			{
				"x": -0.5155218116,
				"y": 0.7294255122,
				"z": 0.4021180173,
				"element": "N" 
			},
			{
				"x": 0.7409571499,
				"y": 1.0529795483,
				"z": 0.1615267778,
				"element": "N" 
			},
			{
				"x": 1.8029297648,
				"y": 0.2178443075,
				"z": 0.5424110094,
				"element": "C" 
			},
			{
				"x": 3.1096482674,
				"y": 0.6319992844,
				"z": 0.2517800086,
				"element": "C" 
			},
			{
				"x": 4.1875009862,
				"y": -0.1724230259,
				"z": 0.6158307461,
				"element": "C" 
			},
			{
				"x": 3.9747471513,
				"y": -1.38815441,
				"z": 1.2681539507,
				"element": "C" 
			},
			{
				"x": 2.6677025238,
				"y": -1.7921852779,
				"z": 1.5534242469,
				"element": "C" 
			},
			{
				"x": 1.5784448695,
				"y": -1.000741159,
				"z": 1.1967903809,
				"element": "C" 
			},
			{
				"x": -5.2489035505,
				"y": -2.1990481329,
				"z": 2.2113192771,
				"element": "H" 
			},
			{
				"x": -3.7598960124,
				"y": -2.5751270901,
				"z": 1.3224835108,
				"element": "H" 
			},
			{
				"x": -3.6723840655,
				"y": -1.7479116093,
				"z": 2.8893320954,
				"element": "H" 
			},
			{
				"x": -4.9176007904,
				"y": -0.5590718137,
				"z": 0.3276714861,
				"element": "H" 
			},
			{
				"x": -4.8304536471,
				"y": 0.2641682192,
				"z": 1.8868751894,
				"element": "H" 
			},
			{
				"x": 0.9411585783,
				"y": 1.9304087368,
				"z": -0.3128289365,
				"element": "H" 
			},
			{
				"x": 3.2788486995,
				"y": 1.5784049833,
				"z": -0.2561304414,
				"element": "H" 
			},
			{
				"x": 5.1970532368,
				"y": 0.1559445581,
				"z": 0.3868730649,
				"element": "H" 
			},
			{
				"x": 4.8161005467,
				"y": -2.012970032,
				"z": 1.5507080412,
				"element": "H" 
			},
			{
				"x": 2.4905228483,
				"y": -2.7362792931,
				"z": 2.0606006084,
				"element": "H" 
			},
			{
				"x": 0.562349116,
				"y": -1.3073173729,
				"z": 1.4145660484,
				"element": "H" 
			}
		],
		 "valence_orbital": [ 
			{
				"type": "occ",
				"energy": -0.30156,
				"method": "rhf"
			},
			{
				"type": "occ",
				"energy": -0.28638,
				"method": "rhf"
			},
			{
				"type": "occ",
				"energy": -0.27716,
				"method": "rhf"
			},
			{
				"type": "occ",
				"energy": -0.25931,
				"method": "rhf"
			},
			{
				"type": "occ",
				"energy": -0.21529,
				"method": "rhf"
			},
			{
				"type": "unocc",
				"energy": -0.05874,
				"method": "rhf"
			},
			{
				"type": "unocc",
				"energy": -0.00921,
				"method": "rhf"
			},
			{
				"type": "unocc",
				"energy": 0.0126,
				"method": "rhf"
			},
			{
				"type": "unocc",
				"energy": 0.02372,
				"method": "rhf"
			},
			{
				"type": "unocc",
				"energy": 0.07738,
				"method": "rhf"
			}
		],
		"cosmo_sigma_profile": { 
			"-0.025": 0.0,
			"-0.024": 0.0,
			"-0.023": 0.0,
			"-0.022": 0.0,
			"-0.021": 0.0,
			"-0.02": 0.0,
			"-0.019": 0.0,
			"-0.018": 0.0,
			"-0.017": 0.0,
			"-0.016": 0.0,
			"-0.015": 0.0825299951091,
			"-0.014": 1.00109249176,
			"-0.013": 1.4497221937,
			"-0.012": 1.18701262847,
			"-0.011": 0.890526828454,
			"-0.01": 1.14915574707,
			"-0.009": 1.65181225286,
			"-0.008": 1.49367425785,
			"-0.007": 2.32723741908,
			"-0.006": 8.6358645413,
			"-0.005": 17.6200236403,
			"-0.004": 25.2327343327,
			"-0.003": 25.1434986721,
			"-0.002": 23.5340430312,
			"-0.001": 21.2127269529,
			"0.0": 22.1809743076,
			"0.001": 18.9138982141,
			"0.002": 16.1070166776,
			"0.003": 16.9631139303,
			"0.004": 16.5146552308,
			"0.005": 15.4256410978,
			"0.006": 6.1643898003,
			"0.007": 3.56611749554,
			"0.008": 2.60353031952,
			"0.009": 3.09931212211,
			"0.01": 3.89287000507,
			"0.011": 5.118847098,
			"0.012": 3.5434250602,
			"0.013": 0.357596513247,
			"0.014": 0.0,
			"0.015": 0.0,
			"0.016": 0.0,
			"0.017": 0.0,
			"0.018": 0.0,
			"0.019": 0.0,
			"0.02": 0.0,
			"0.021": 0.0,
			"0.022": 0.0,
			"0.023": 0.0,
			"0.024": 0.0,
			"0.025": 0.0
		}
	}
}
