{
	 "smiles": "CCOC1=C(C#N)C(OCC(F)(F)F)=CC=C1", 
	 "Tm": 352.15, 
	 "num_atms": 27, 
	 "gaussian": { 
		 "optdone": 1, 
		 "sigma_profile": "yes", 
		 "theory": "DFT", 
		 "functional": "B3LYP", 
		 "basiset": "6-31G**", 
		 "properties": { 
			 "R2extent": 5669.1085, 
			 "electric_dipole_moment_norm": 4.89379384118, 
			 "electric_quadrupole_moment_norm": 9.30418539207, 
			 "total_energy": -929.88735324, 
			 "HOMO_LUMO_gap": 0.19057, 
			 "cosmo_polarized_energy": -12.37, 
			 "cosmo_cavitation_energy": 33.71, 
			 "cosmo_dispersion_energy": -22.7, 
			 "cosmo_repulsion_energy": 1.74, 
			 "cosmo_total_nonelectrostatic_energy": 12.75, 
			 "SMD_solvation_energy": 8.51 
		},
		"coords": [
			{
				"x": 1.8356454613,
				"y": 1.6594478423,
				"z": -3.475057929,
				"element": "C" 
			},
			{
				"x": 1.4949558785,
				"y": 1.7725338998,
				"z": -2.0004949641,
				"element": "C" 
			},
			{
				"x": 0.5386884537,
				"y": 0.7467987752,
				"z": -1.7035738835,
				"element": "O" 
			},
			{
				"x": 0.055878561,
				"y": 0.6352285556,
				"z": -0.4466084838,
				"element": "C" 
			},
			{
				"x": -0.9067223755,
				"y": -0.3888858217,
				"z": -0.2553639244,
				"element": "C" 
			},
			{
				"x": -1.3253606051,
				"y": -1.1853889769,
				"z": -1.3641995708,
				"element": "C" 
			},
			{
				"x": -1.680999396,
				"y": -1.8561372179,
				"z": -2.2464974171,
				"element": "N" 
			},
			{
				"x": -1.4609978746,
				"y": -0.5875362564,
				"z": 1.0249815282,
				"element": "C" 
			},
			{
				"x": -2.4476815093,
				"y": -1.5229775485,
				"z": 1.2323680129,
				"element": "O" 
			},
			{
				"x": -2.1202553696,
				"y": -2.9007721135,
				"z": 1.1175251019,
				"element": "C" 
			},
			{
				"x": -1.60155001,
				"y": -3.4468514284,
				"z": 2.4394418764,
				"element": "C" 
			},
			{
				"x": -2.4803871236,
				"y": -3.2590795235,
				"z": 3.4398981171,
				"element": "F" 
			},
			{
				"x": -1.3751730431,
				"y": -4.7724796854,
				"z": 2.3213243286,
				"element": "F" 
			},
			{
				"x": -0.4415101295,
				"y": -2.8574898513,
				"z": 2.7992932847,
				"element": "F" 
			},
			{
				"x": -1.0912321558,
				"y": 0.2290084488,
				"z": 2.0915964936,
				"element": "C" 
			},
			{
				"x": -0.1548774556,
				"y": 1.2378421041,
				"z": 1.8823310404,
				"element": "C" 
			},
			{
				"x": 0.4273358841,
				"y": 1.4465896853,
				"z": 0.6302729829,
				"element": "C" 
			},
			{
				"x": 2.5662588008,
				"y": 2.4268531279,
				"z": -3.748039398,
				"element": "H" 
			},
			{
				"x": 2.2613705092,
				"y": 0.6776371709,
				"z": -3.6982041708,
				"element": "H" 
			},
			{
				"x": 0.9412446984,
				"y": 1.7950733735,
				"z": -4.0887072638,
				"element": "H" 
			},
			{
				"x": 2.3875033108,
				"y": 1.6338521442,
				"z": -1.3758103114,
				"element": "H" 
			},
			{
				"x": 1.0631606196,
				"y": 2.7549505528,
				"z": -1.7672353421,
				"element": "H" 
			},
			{
				"x": -3.0419167797,
				"y": -3.4285704704,
				"z": 0.8649196496,
				"element": "H" 
			},
			{
				"x": -1.3776078503,
				"y": -3.0977508715,
				"z": 0.3401943666,
				"element": "H" 
			},
			{
				"x": -1.5381885217,
				"y": 0.0526232419,
				"z": 3.0625815314,
				"element": "H" 
			},
			{
				"x": 0.138890309,
				"y": 1.8735171387,
				"z": 2.7122055197,
				"element": "H" 
			},
			{
				"x": 1.1575277129,
				"y": 2.2348637045,
				"z": 0.5005588247,
				"element": "H" 
			}
		],
		 "valence_orbital": [ 
			{
				"type": "occ",
				"energy": -0.33561,
				"method": "rhf"
			},
			{
				"type": "occ",
				"energy": -0.32763,
				"method": "rhf"
			},
			{
				"type": "occ",
				"energy": -0.3088,
				"method": "rhf"
			},
			{
				"type": "occ",
				"energy": -0.25791,
				"method": "rhf"
			},
			{
				"type": "occ",
				"energy": -0.2412,
				"method": "rhf"
			},
			{
				"type": "unocc",
				"energy": -0.05063,
				"method": "rhf"
			},
			{
				"type": "unocc",
				"energy": -0.00918,
				"method": "rhf"
			},
			{
				"type": "unocc",
				"energy": 0.03298,
				"method": "rhf"
			},
			{
				"type": "unocc",
				"energy": 0.07229,
				"method": "rhf"
			},
			{
				"type": "unocc",
				"energy": 0.07565,
				"method": "rhf"
			}
		],
		"cosmo_sigma_profile": { 
			"-0.025": 0.0,
			"-0.024": 0.0,
			"-0.023": 0.0,
			"-0.022": 0.0,
			"-0.021": 0.0,
			"-0.02": 0.0,
			"-0.019": 0.0,
			"-0.018": 0.0,
			"-0.017": 0.0,
			"-0.016": 0.0,
			"-0.015": 0.0,
			"-0.014": 0.0,
			"-0.013": 0.0,
			"-0.012": 0.0,
			"-0.011": 0.0,
			"-0.01": 0.731979903927,
			"-0.009": 3.49954614955,
			"-0.008": 5.39371156843,
			"-0.007": 10.1537352757,
			"-0.006": 13.6372051381,
			"-0.005": 16.8772440589,
			"-0.004": 19.1708714345,
			"-0.003": 16.1136963982,
			"-0.002": 15.7189686743,
			"-0.001": 19.7657389216,
			"0.0": 21.6989480038,
			"0.001": 20.5167055407,
			"0.002": 32.0895370175,
			"0.003": 33.2232081287,
			"0.004": 5.86599605667,
			"0.005": 4.6869274333,
			"0.006": 4.47040690951,
			"0.007": 6.19517790704,
			"0.008": 6.10494329568,
			"0.009": 3.75556761102,
			"0.01": 3.14502172916,
			"0.011": 2.69469787585,
			"0.012": 2.38192287898,
			"0.013": 1.51568245656,
			"0.014": 0.0478361522447,
			"0.015": 0.0,
			"0.016": 0.0,
			"0.017": 0.0,
			"0.018": 0.0,
			"0.019": 0.0,
			"0.02": 0.0,
			"0.021": 0.0,
			"0.022": 0.0,
			"0.023": 0.0,
			"0.024": 0.0,
			"0.025": 0.0
		}
	}
}
