{
	 "smiles": "CSC1=NC2=C(C=CC=C2)C(=O)N1", 
	 "Tm": 497.15, 
	 "num_atms": 21, 
	 "gaussian": { 
		 "optdone": 1, 
		 "sigma_profile": "yes", 
		 "theory": "DFT", 
		 "functional": "B3LYP", 
		 "basiset": "6-31G**", 
		 "properties": { 
			 "R2extent": 3073.3332, 
			 "electric_dipole_moment_norm": 3.07811929918, 
			 "electric_quadrupole_moment_norm": 10.4691847567, 
			 "total_energy": -930.72665306, 
			 "HOMO_LUMO_gap": 0.18229, 
			 "cosmo_polarized_energy": -11.55, 
			 "cosmo_cavitation_energy": 26.91, 
			 "cosmo_dispersion_energy": -20.52, 
			 "cosmo_repulsion_energy": 1.56, 
			 "cosmo_total_nonelectrostatic_energy": 7.96, 
			 "SMD_solvation_energy": 4.24 
		},
		"coords": [
			{
				"x": 4.257628287,
				"y": -1.433923878,
				"z": 0.1336233827,
				"element": "C" 
			},
			{
				"x": 2.8600963712,
				"y": -2.3114030466,
				"z": 0.9088853573,
				"element": "S" 
			},
			{
				"x": 1.5559211146,
				"y": -1.1372222263,
				"z": 0.6241139051,
				"element": "C" 
			},
			{
				"x": 1.7669077345,
				"y": -0.0220246377,
				"z": 0.0094487423,
				"element": "N" 
			},
			{
				"x": 0.6798574494,
				"y": 0.8286248705,
				"z": -0.1632626415,
				"element": "C" 
			},
			{
				"x": -0.6185597828,
				"y": 0.5125344877,
				"z": 0.3049958233,
				"element": "C" 
			},
			{
				"x": -1.6848635941,
				"y": 1.4026650691,
				"z": 0.1073416149,
				"element": "C" 
			},
			{
				"x": -1.4714681961,
				"y": 2.6040691545,
				"z": -0.5516819354,
				"element": "C" 
			},
			{
				"x": -0.1846310669,
				"y": 2.9244530984,
				"z": -1.0193931337,
				"element": "C" 
			},
			{
				"x": 0.8778964546,
				"y": 2.052941052,
				"z": -0.8302815092,
				"element": "C" 
			},
			{
				"x": -0.8413066755,
				"y": -0.7592192693,
				"z": 1.0019899302,
				"element": "C" 
			},
			{
				"x": -1.8974299706,
				"y": -1.1692170399,
				"z": 1.4598437476,
				"element": "O" 
			},
			{
				"x": 0.3295951753,
				"y": -1.5288820971,
				"z": 1.1135020827,
				"element": "N" 
			},
			{
				"x": 5.1220525456,
				"y": -2.0887623122,
				"z": 0.2593655088,
				"element": "H" 
			},
			{
				"x": 4.426845102,
				"y": -0.4800861526,
				"z": 0.6324148809,
				"element": "H" 
			},
			{
				"x": 4.057222572,
				"y": -1.2668710631,
				"z": -0.9242772063,
				"element": "H" 
			},
			{
				"x": -2.6636474422,
				"y": 1.1215534205,
				"z": 0.4820650167,
				"element": "H" 
			},
			{
				"x": -2.2935050709,
				"y": 3.2959055473,
				"z": -0.7068784218,
				"element": "H" 
			},
			{
				"x": -0.0195416946,
				"y": 3.8661241575,
				"z": -1.5354588653,
				"element": "H" 
			},
			{
				"x": 1.8758364183,
				"y": 2.2871726358,
				"z": -1.1858014415,
				"element": "H" 
			},
			{
				"x": 0.2187942693,
				"y": -2.4169317707,
				"z": 1.5893451622,
				"element": "H" 
			}
		],
		 "valence_orbital": [ 
			{
				"type": "occ",
				"energy": -0.28223,
				"method": "rhf"
			},
			{
				"type": "occ",
				"energy": -0.26612,
				"method": "rhf"
			},
			{
				"type": "occ",
				"energy": -0.26556,
				"method": "rhf"
			},
			{
				"type": "occ",
				"energy": -0.26129,
				"method": "rhf"
			},
			{
				"type": "occ",
				"energy": -0.2247,
				"method": "rhf"
			},
			{
				"type": "unocc",
				"energy": -0.04241,
				"method": "rhf"
			},
			{
				"type": "unocc",
				"energy": -0.03383,
				"method": "rhf"
			},
			{
				"type": "unocc",
				"energy": 0.00683,
				"method": "rhf"
			},
			{
				"type": "unocc",
				"energy": 0.02707,
				"method": "rhf"
			},
			{
				"type": "unocc",
				"energy": 0.06875,
				"method": "rhf"
			}
		],
		"cosmo_sigma_profile": { 
			"-0.025": 0.0,
			"-0.024": 0.0,
			"-0.023": 0.0,
			"-0.022": 0.0,
			"-0.021": 0.0,
			"-0.02": 0.0,
			"-0.019": 0.0,
			"-0.018": 0.0,
			"-0.017": 0.318312157553,
			"-0.016": 0.952385023202,
			"-0.015": 0.849828047208,
			"-0.014": 0.602141768714,
			"-0.013": 1.47601427176,
			"-0.012": 0.61416288131,
			"-0.011": 1.3414229695,
			"-0.01": 0.731378982382,
			"-0.009": 0.901924584869,
			"-0.008": 1.36159772967,
			"-0.007": 4.87689428335,
			"-0.006": 13.0380651629,
			"-0.005": 13.9566786194,
			"-0.004": 15.5806173064,
			"-0.003": 15.5058194237,
			"-0.002": 18.3064379963,
			"-0.001": 15.4810240768,
			"0.0": 12.8162312995,
			"0.001": 15.6546709403,
			"0.002": 17.1576188378,
			"0.003": 18.5729697717,
			"0.004": 13.6432510738,
			"0.005": 6.12485361085,
			"0.006": 5.74841806654,
			"0.007": 3.81806558525,
			"0.008": 2.26983236726,
			"0.009": 3.16127365227,
			"0.01": 2.37543997996,
			"0.011": 1.58110557483,
			"0.012": 4.43897298292,
			"0.013": 4.41478339306,
			"0.014": 0.133726882069,
			"0.015": 0.0,
			"0.016": 0.0,
			"0.017": 0.0,
			"0.018": 0.0,
			"0.019": 0.0,
			"0.02": 0.0,
			"0.021": 0.0,
			"0.022": 0.0,
			"0.023": 0.0,
			"0.024": 0.0,
			"0.025": 0.0
		}
	}
}
