{
	 "smiles": "CC1=C(N)C=C(C(Cl)=C1)[N+]([O-])=O", 
	 "Tm": 392.15, 
	 "num_atms": 19, 
	 "gaussian": { 
		 "optdone": 1, 
		 "sigma_profile": "yes", 
		 "theory": "DFT", 
		 "functional": "B3LYP", 
		 "basiset": "6-31G**", 
		 "properties": { 
			 "R2extent": 2832.6835, 
			 "electric_dipole_moment_norm": 6.82759189612, 
			 "electric_quadrupole_moment_norm": 8.76023573313, 
			 "total_energy": -991.006030221, 
			 "HOMO_LUMO_gap": 0.14264, 
			 "cosmo_polarized_energy": -14.14, 
			 "cosmo_cavitation_energy": 25.28, 
			 "cosmo_dispersion_energy": -18.81, 
			 "cosmo_repulsion_energy": 1.5, 
			 "cosmo_total_nonelectrostatic_energy": 7.97, 
			 "SMD_solvation_energy": 6.26 
		},
		"coords": [
			{
				"x": -1.9272955884,
				"y": -2.5406122713,
				"z": -0.0178650627,
				"element": "C" 
			},
			{
				"x": -0.7759011642,
				"y": -1.570992236,
				"z": -0.0753995998,
				"element": "C" 
			},
			{
				"x": -1.0019533904,
				"y": -0.1837290083,
				"z": 0.1018364541,
				"element": "C" 
			},
			{
				"x": -2.2913003335,
				"y": 0.3029505237,
				"z": 0.2884246744,
				"element": "N" 
			},
			{
				"x": 0.0835346692,
				"y": 0.6922542775,
				"z": 0.0225968685,
				"element": "C" 
			},
			{
				"x": 1.3761841443,
				"y": 0.2224748436,
				"z": -0.2084325308,
				"element": "C" 
			},
			{
				"x": 1.6166872585,
				"y": -1.1465832963,
				"z": -0.3841740595,
				"element": "C" 
			},
			{
				"x": 3.1735767091,
				"y": -1.8420401062,
				"z": -0.7577569448,
				"element": "Cl" 
			},
			{
				"x": 0.5219417158,
				"y": -2.01340975,
				"z": -0.3203908364,
				"element": "C" 
			},
			{
				"x": 2.4366498243,
				"y": 1.2443318521,
				"z": -0.2312566296,
				"element": "N" 
			},
			{
				"x": 2.1023912998,
				"y": 2.387271895,
				"z": -0.5503788115,
				"element": "O" 
			},
			{
				"x": 3.5723819417,
				"y": 0.9120502512,
				"z": 0.0916721097,
				"element": "O" 
			},
			{
				"x": -2.7071030397,
				"y": -2.2704964279,
				"z": -0.7401959071,
				"element": "H" 
			},
			{
				"x": -2.3969280291,
				"y": -2.5548093647,
				"z": 0.9756016148,
				"element": "H" 
			},
			{
				"x": -1.5993607415,
				"y": -3.5590546181,
				"z": -0.236289935,
				"element": "H" 
			},
			{
				"x": -2.9452309918,
				"y": -0.3190588048,
				"z": 0.7409398789,
				"element": "H" 
			},
			{
				"x": -2.355411126,
				"y": 1.2498383966,
				"z": 0.6342067769,
				"element": "H" 
			},
			{
				"x": -0.0530407152,
				"y": 1.7612761679,
				"z": 0.1361487862,
				"element": "H" 
			},
			{
				"x": 0.6994775571,
				"y": -3.0724623241,
				"z": -0.4753868464,
				"element": "H" 
			}
		],
		 "valence_orbital": [ 
			{
				"type": "occ",
				"energy": -0.30288,
				"method": "rhf"
			},
			{
				"type": "occ",
				"energy": -0.29842,
				"method": "rhf"
			},
			{
				"type": "occ",
				"energy": -0.28548,
				"method": "rhf"
			},
			{
				"type": "occ",
				"energy": -0.26939,
				"method": "rhf"
			},
			{
				"type": "occ",
				"energy": -0.22435,
				"method": "rhf"
			},
			{
				"type": "unocc",
				"energy": -0.08171,
				"method": "rhf"
			},
			{
				"type": "unocc",
				"energy": -0.01856,
				"method": "rhf"
			},
			{
				"type": "unocc",
				"energy": 0.00044,
				"method": "rhf"
			},
			{
				"type": "unocc",
				"energy": 0.02146,
				"method": "rhf"
			},
			{
				"type": "unocc",
				"energy": 0.05617,
				"method": "rhf"
			}
		],
		"cosmo_sigma_profile": { 
			"-0.025": 0.0,
			"-0.024": 0.0,
			"-0.023": 0.0,
			"-0.022": 0.0,
			"-0.021": 0.0,
			"-0.02": 0.0,
			"-0.019": 0.0,
			"-0.018": 0.0,
			"-0.017": 0.0,
			"-0.016": 0.0,
			"-0.015": 0.0,
			"-0.014": 0.328884262921,
			"-0.013": 1.96088505048,
			"-0.012": 3.47970490702,
			"-0.011": 2.8196187892,
			"-0.01": 3.5862495032,
			"-0.009": 3.15784379338,
			"-0.008": 3.4705377189,
			"-0.007": 4.96583778945,
			"-0.006": 7.55560770504,
			"-0.005": 11.074667836,
			"-0.004": 9.15792157043,
			"-0.003": 12.7037455637,
			"-0.002": 11.3516391711,
			"-0.001": 15.9635012577,
			"0.0": 12.4789118535,
			"0.001": 19.6174797118,
			"0.002": 17.8149113949,
			"0.003": 9.99835119624,
			"0.004": 10.526237956,
			"0.005": 5.97684509961,
			"0.006": 5.24074020103,
			"0.007": 7.90446788875,
			"0.008": 11.1804569655,
			"0.009": 6.65852752924,
			"0.01": 3.22336556352,
			"0.011": 0.540598530242,
			"0.012": 0.584169581021,
			"0.013": 0.163448119127,
			"0.014": 0.0,
			"0.015": 0.0,
			"0.016": 0.0,
			"0.017": 0.0,
			"0.018": 0.0,
			"0.019": 0.0,
			"0.02": 0.0,
			"0.021": 0.0,
			"0.022": 0.0,
			"0.023": 0.0,
			"0.024": 0.0,
			"0.025": 0.0
		}
	}
}
