{
	 "smiles": "[O-][N+](=O)C1=C(OC2=CC=C(C=O)C=C2)C=CC(Cl)=C1", 
	 "Tm": 343.15, 
	 "num_atms": 27, 
	 "gaussian": { 
		 "optdone": 1, 
		 "sigma_profile": "yes", 
		 "theory": "DFT", 
		 "functional": "B3LYP", 
		 "basiset": "6-31G**", 
		 "properties": { 
			 "R2extent": 8036.6425, 
			 "electric_dipole_moment_norm": 4.05104560577, 
			 "electric_quadrupole_moment_norm": 23.0834351542, 
			 "total_energy": -1315.9127306, 
			 "HOMO_LUMO_gap": 0.15415, 
			 "cosmo_polarized_energy": -15.79, 
			 "cosmo_cavitation_energy": 35.76, 
			 "cosmo_dispersion_energy": -25.23, 
			 "cosmo_repulsion_energy": 1.94, 
			 "cosmo_total_nonelectrostatic_energy": 12.47, 
			 "SMD_solvation_energy": 9.35 
		},
		"coords": [
			{
				"x": 3.3012271017,
				"y": 3.0118026172,
				"z": -1.1860118858,
				"element": "O" 
			},
			{
				"x": 2.2353464728,
				"y": 2.3972789632,
				"z": -1.25477465,
				"element": "N" 
			},
			{
				"x": 1.9296371675,
				"y": 1.6116791556,
				"z": -2.1453048551,
				"element": "O" 
			},
			{
				"x": 1.254550791,
				"y": 2.6548214329,
				"z": -0.18790852,
				"element": "C" 
			},
			{
				"x": 0.2686969064,
				"y": 1.7162494721,
				"z": 0.1712590753,
				"element": "C" 
			},
			{
				"x": 0.1779300103,
				"y": 0.5318575203,
				"z": -0.4975498035,
				"element": "O" 
			},
			{
				"x": -0.1969855105,
				"y": -0.6296888451,
				"z": 0.1504030431,
				"element": "C" 
			},
			{
				"x": -1.029425419,
				"y": -1.4954086429,
				"z": -0.5686493188,
				"element": "C" 
			},
			{
				"x": -1.3818271698,
				"y": -2.716166928,
				"z": -0.0107820068,
				"element": "C" 
			},
			{
				"x": -0.9089612148,
				"y": -3.0781111283,
				"z": 1.2610700573,
				"element": "C" 
			},
			{
				"x": -1.2894601045,
				"y": -4.3772852194,
				"z": 1.856728704,
				"element": "C" 
			},
			{
				"x": -2.0163865567,
				"y": -5.1935924416,
				"z": 1.3230916574,
				"element": "O" 
			},
			{
				"x": -0.0698386624,
				"y": -2.2016052526,
				"z": 1.9613234475,
				"element": "C" 
			},
			{
				"x": 0.2954342613,
				"y": -0.9751683733,
				"z": 1.413019442,
				"element": "C" 
			},
			{
				"x": -0.6295967595,
				"y": 2.0608633572,
				"z": 1.1911497459,
				"element": "C" 
			},
			{
				"x": -0.5511711163,
				"y": 3.291582106,
				"z": 1.8319209417,
				"element": "C" 
			},
			{
				"x": 0.4436108016,
				"y": 4.2020315317,
				"z": 1.4651812131,
				"element": "C" 
			},
			{
				"x": 0.5464471381,
				"y": 5.7512431961,
				"z": 2.273685547,
				"element": "Cl" 
			},
			{
				"x": 1.3495766339,
				"y": 3.8868725781,
				"z": 0.4624561324,
				"element": "C" 
			},
			{
				"x": -1.3762123852,
				"y": -1.1928328,
				"z": -1.5507769323,
				"element": "H" 
			},
			{
				"x": -2.0273616559,
				"y": -3.4096972086,
				"z": -0.539989344,
				"element": "H" 
			},
			{
				"x": -0.8540588679,
				"y": -4.5705815882,
				"z": 2.8625858001,
				"element": "H" 
			},
			{
				"x": 0.3076823571,
				"y": -2.4867869038,
				"z": 2.9404222542,
				"element": "H" 
			},
			{
				"x": 0.9571073286,
				"y": -0.3013180982,
				"z": 1.9460892015,
				"element": "H" 
			},
			{
				"x": -1.3994433277,
				"y": 1.3518627924,
				"z": 1.4731886717,
				"element": "H" 
			},
			{
				"x": -1.2620057175,
				"y": 3.5475180842,
				"z": 2.6096465608,
				"element": "H" 
			},
			{
				"x": 2.1364874975,
				"y": 4.5696806227,
				"z": 0.1699258214,
				"element": "H" 
			}
		],
		 "valence_orbital": [ 
			{
				"type": "occ",
				"energy": -0.29156,
				"method": "rhf"
			},
			{
				"type": "occ",
				"energy": -0.28427,
				"method": "rhf"
			},
			{
				"type": "occ",
				"energy": -0.27818,
				"method": "rhf"
			},
			{
				"type": "occ",
				"energy": -0.26375,
				"method": "rhf"
			},
			{
				"type": "occ",
				"energy": -0.25142,
				"method": "rhf"
			},
			{
				"type": "unocc",
				"energy": -0.09727,
				"method": "rhf"
			},
			{
				"type": "unocc",
				"energy": -0.07295,
				"method": "rhf"
			},
			{
				"type": "unocc",
				"energy": -0.04371,
				"method": "rhf"
			},
			{
				"type": "unocc",
				"energy": -0.03286,
				"method": "rhf"
			},
			{
				"type": "unocc",
				"energy": -0.02029,
				"method": "rhf"
			}
		],
		"cosmo_sigma_profile": { 
			"-0.025": 0.0,
			"-0.024": 0.0,
			"-0.023": 0.0,
			"-0.022": 0.0,
			"-0.021": 0.0,
			"-0.02": 0.0,
			"-0.019": 0.0,
			"-0.018": 0.0,
			"-0.017": 0.0,
			"-0.016": 0.0,
			"-0.015": 0.0,
			"-0.014": 0.0,
			"-0.013": 0.0,
			"-0.012": 0.0,
			"-0.011": 0.0,
			"-0.01": 0.0,
			"-0.009": 2.82837247354,
			"-0.008": 10.0508685172,
			"-0.007": 17.0997332763,
			"-0.006": 17.9836509417,
			"-0.005": 15.2021020807,
			"-0.004": 15.3172270524,
			"-0.003": 16.8246259427,
			"-0.002": 21.3759793275,
			"-0.001": 23.1936486566,
			"0.0": 28.5013016415,
			"0.001": 21.2542798964,
			"0.002": 22.0908738808,
			"0.003": 14.5261358242,
			"0.004": 12.8201872225,
			"0.005": 5.18213060855,
			"0.006": 5.02754327297,
			"0.007": 9.81257662645,
			"0.008": 11.0391673386,
			"0.009": 7.17815758629,
			"0.01": 5.4840540885,
			"0.011": 4.3664704003,
			"0.012": 2.9901696287,
			"0.013": 0.765723635864,
			"0.014": 0.0,
			"0.015": 0.0,
			"0.016": 0.0,
			"0.017": 0.0,
			"0.018": 0.0,
			"0.019": 0.0,
			"0.02": 0.0,
			"0.021": 0.0,
			"0.022": 0.0,
			"0.023": 0.0,
			"0.024": 0.0,
			"0.025": 0.0
		}
	}
}
