{
	 "smiles": "CC(=O)C1=CC=CC=C1NC=O", 
	 "Tm": 339.65, 
	 "num_atms": 21, 
	 "gaussian": { 
		 "optdone": 1, 
		 "sigma_profile": "yes", 
		 "theory": "DFT", 
		 "functional": "B3LYP", 
		 "basiset": "6-31G**", 
		 "properties": { 
			 "R2extent": 2425.1131, 
			 "electric_dipole_moment_norm": 5.82635836951, 
			 "electric_quadrupole_moment_norm": 15.2223796934, 
			 "total_energy": -553.595701268, 
			 "HOMO_LUMO_gap": 0.1612, 
			 "cosmo_polarized_energy": -13.1, 
			 "cosmo_cavitation_energy": 25.1, 
			 "cosmo_dispersion_energy": -18.51, 
			 "cosmo_repulsion_energy": 1.45, 
			 "cosmo_total_nonelectrostatic_energy": 8.04, 
			 "SMD_solvation_energy": 6.33 
		},
		"coords": [
			{
				"x": -1.6375131547,
				"y": -2.8661073231,
				"z": 1.8059539029,
				"element": "C" 
			},
			{
				"x": -1.4379323511,
				"y": -2.0362288836,
				"z": 0.5472845671,
				"element": "C" 
			},
			{
				"x": -1.9680116488,
				"y": -2.4252755979,
				"z": -0.495881625,
				"element": "O" 
			},
			{
				"x": -0.6199705708,
				"y": -0.7958611615,
				"z": 0.6120982551,
				"element": "C" 
			},
			{
				"x": -0.0423466071,
				"y": -0.4084404982,
				"z": 1.8375442481,
				"element": "C" 
			},
			{
				"x": 0.7299346066,
				"y": 0.7361680311,
				"z": 1.9624764169,
				"element": "C" 
			},
			{
				"x": 0.9412309073,
				"y": 1.5314860209,
				"z": 0.8320727196,
				"element": "C" 
			},
			{
				"x": 0.390819924,
				"y": 1.186642828,
				"z": -0.3943106104,
				"element": "C" 
			},
			{
				"x": -0.3964973115,
				"y": 0.0259806909,
				"z": -0.5365989453,
				"element": "C" 
			},
			{
				"x": -0.9578775789,
				"y": -0.3387546797,
				"z": -1.7557600131,
				"element": "N" 
			},
			{
				"x": -0.8725976324,
				"y": 0.297845454,
				"z": -2.9728880354,
				"element": "C" 
			},
			{
				"x": -1.4130574825,
				"y": -0.1234817374,
				"z": -3.9771547459,
				"element": "O" 
			},
			{
				"x": -2.2598323945,
				"y": -3.7226403033,
				"z": 1.546665489,
				"element": "H" 
			},
			{
				"x": -0.6821664953,
				"y": -3.2213879184,
				"z": 2.2059471685,
				"element": "H" 
			},
			{
				"x": -2.1306571473,
				"y": -2.2861254039,
				"z": 2.5929333108,
				"element": "H" 
			},
			{
				"x": -0.206852244,
				"y": -1.0258238291,
				"z": 2.7130747054,
				"element": "H" 
			},
			{
				"x": 1.1612572256,
				"y": 1.0078402784,
				"z": 2.920047579,
				"element": "H" 
			},
			{
				"x": 1.5427825305,
				"y": 2.4331386016,
				"z": 0.9048727768,
				"element": "H" 
			},
			{
				"x": 0.5765101948,
				"y": 1.8273424267,
				"z": -1.2470083905,
				"element": "H" 
			},
			{
				"x": -1.507593238,
				"y": -1.2021914479,
				"z": -1.7276161869,
				"element": "H" 
			},
			{
				"x": -0.2740295319,
				"y": 1.2236744525,
				"z": -2.9680525868,
				"element": "H" 
			}
		],
		 "valence_orbital": [ 
			{
				"type": "occ",
				"energy": -0.31882,
				"method": "rhf"
			},
			{
				"type": "occ",
				"energy": -0.2755,
				"method": "rhf"
			},
			{
				"type": "occ",
				"energy": -0.26911,
				"method": "rhf"
			},
			{
				"type": "occ",
				"energy": -0.25676,
				"method": "rhf"
			},
			{
				"type": "occ",
				"energy": -0.23126,
				"method": "rhf"
			},
			{
				"type": "unocc",
				"energy": -0.07006,
				"method": "rhf"
			},
			{
				"type": "unocc",
				"energy": -0.02884,
				"method": "rhf"
			},
			{
				"type": "unocc",
				"energy": 0.02589,
				"method": "rhf"
			},
			{
				"type": "unocc",
				"energy": 0.03657,
				"method": "rhf"
			},
			{
				"type": "unocc",
				"energy": 0.07415,
				"method": "rhf"
			}
		],
		"cosmo_sigma_profile": { 
			"-0.025": 0.0,
			"-0.024": 0.0,
			"-0.023": 0.0,
			"-0.022": 0.0,
			"-0.021": 0.0,
			"-0.02": 0.0,
			"-0.019": 0.0,
			"-0.018": 0.0,
			"-0.017": 0.0,
			"-0.016": 0.0,
			"-0.015": 0.0,
			"-0.014": 0.0,
			"-0.013": 0.0,
			"-0.012": 0.0,
			"-0.011": 0.172917266512,
			"-0.01": 1.66421488869,
			"-0.009": 2.32506068605,
			"-0.008": 2.58211458005,
			"-0.007": 8.19188913045,
			"-0.006": 15.1709942787,
			"-0.005": 16.633519348,
			"-0.004": 13.8011005964,
			"-0.003": 13.9029742471,
			"-0.002": 15.6155606494,
			"-0.001": 18.6504199346,
			"0.0": 14.1060635786,
			"0.001": 12.262259392,
			"0.002": 11.3842677295,
			"0.003": 12.6298757342,
			"0.004": 8.77271165008,
			"0.005": 2.54738066373,
			"0.006": 2.86056990056,
			"0.007": 2.33218756602,
			"0.008": 3.08176651028,
			"0.009": 3.40167987639,
			"0.01": 2.94082937089,
			"0.011": 4.05341039922,
			"0.012": 6.58843648649,
			"0.013": 4.56796047227,
			"0.014": 0.891890201909,
			"0.015": 0.0,
			"0.016": 0.0,
			"0.017": 0.0,
			"0.018": 0.0,
			"0.019": 0.0,
			"0.02": 0.0,
			"0.021": 0.0,
			"0.022": 0.0,
			"0.023": 0.0,
			"0.024": 0.0,
			"0.025": 0.0
		}
	}
}
