{
	 "smiles": "CC1=NC(C=CC(O)=O)=CS1", 
	 "Tm": 451.15, 
	 "num_atms": 18, 
	 "gaussian": { 
		 "optdone": 1, 
		 "sigma_profile": "yes", 
		 "theory": "DFT", 
		 "functional": "B3LYP", 
		 "basiset": "6-31G**", 
		 "properties": { 
			 "R2extent": 2765.9496, 
			 "electric_dipole_moment_norm": 5.46620246423, 
			 "electric_quadrupole_moment_norm": 13.3114047891, 
			 "total_energy": -874.333068145, 
			 "HOMO_LUMO_gap": 0.17232, 
			 "cosmo_polarized_energy": -13.65, 
			 "cosmo_cavitation_energy": 24.47, 
			 "cosmo_dispersion_energy": -18.46, 
			 "cosmo_repulsion_energy": 1.45, 
			 "cosmo_total_nonelectrostatic_energy": 7.46, 
			 "SMD_solvation_energy": 3.82 
		},
		"coords": [
			{
				"x": -3.3423099273,
				"y": -0.7468684,
				"z": -2.8735187141,
				"element": "C" 
			},
			{
				"x": -2.4985143473,
				"y": -0.7428659194,
				"z": -1.6361681186,
				"element": "C" 
			},
			{
				"x": -1.2084069171,
				"y": -0.6032276051,
				"z": -1.6259788713,
				"element": "N" 
			},
			{
				"x": -0.6873035348,
				"y": -0.6199097277,
				"z": -0.3380601574,
				"element": "C" 
			},
			{
				"x": 0.7726755963,
				"y": -0.5245679327,
				"z": -0.2242844459,
				"element": "C" 
			},
			{
				"x": 1.5711367138,
				"y": -0.1321638986,
				"z": 0.7882624848,
				"element": "C" 
			},
			{
				"x": 1.236884036,
				"y": 0.3902687508,
				"z": 2.1430914026,
				"element": "C" 
			},
			{
				"x": 0.0536621549,
				"y": 1.0398735495,
				"z": 2.3128922574,
				"element": "O" 
			},
			{
				"x": 1.9999981059,
				"y": 0.2751727529,
				"z": 3.073930024,
				"element": "O" 
			},
			{
				"x": -1.6258167354,
				"y": -0.799238883,
				"z": 0.653908617,
				"element": "C" 
			},
			{
				"x": -3.2072252548,
				"y": -0.932406665,
				"z": -0.0275493567,
				"element": "S" 
			},
			{
				"x": -2.684978365,
				"y": -0.6701419735,
				"z": -3.7412292653,
				"element": "H" 
			},
			{
				"x": -3.9316392541,
				"y": -1.6658973151,
				"z": -2.9543000383,
				"element": "H" 
			},
			{
				"x": -4.0391620912,
				"y": 0.0979045537,
				"z": -2.8840631716,
				"element": "H" 
			},
			{
				"x": 1.2679315609,
				"y": -0.8371139853,
				"z": -1.1410606973,
				"element": "H" 
			},
			{
				"x": 2.6437576406,
				"y": -0.2296958175,
				"z": 0.6533775716,
				"element": "H" 
			},
			{
				"x": -0.4122310813,
				"y": 1.1166496925,
				"z": 1.4658038565,
				"element": "H" 
			},
			{
				"x": -1.4719583001,
				"y": -0.8931711765,
				"z": 1.7189466226,
				"element": "H" 
			}
		],
		 "valence_orbital": [ 
			{
				"type": "occ",
				"energy": -0.31175,
				"method": "rhf"
			},
			{
				"type": "occ",
				"energy": -0.29864,
				"method": "rhf"
			},
			{
				"type": "occ",
				"energy": -0.29199,
				"method": "rhf"
			},
			{
				"type": "occ",
				"energy": -0.27198,
				"method": "rhf"
			},
			{
				"type": "occ",
				"energy": -0.24679,
				"method": "rhf"
			},
			{
				"type": "unocc",
				"energy": -0.07447,
				"method": "rhf"
			},
			{
				"type": "unocc",
				"energy": -0.03033,
				"method": "rhf"
			},
			{
				"type": "unocc",
				"energy": -0.00145,
				"method": "rhf"
			},
			{
				"type": "unocc",
				"energy": 0.04,
				"method": "rhf"
			},
			{
				"type": "unocc",
				"energy": 0.06859,
				"method": "rhf"
			}
		],
		"cosmo_sigma_profile": { 
			"-0.025": 0.0,
			"-0.024": 0.0,
			"-0.023": 0.0,
			"-0.022": 0.0,
			"-0.021": 0.0,
			"-0.02": 0.0,
			"-0.019": 0.0,
			"-0.018": 0.0,
			"-0.017": 0.0,
			"-0.016": 0.142322349799,
			"-0.015": 0.623652040803,
			"-0.014": 0.786256119448,
			"-0.013": 0.578090076219,
			"-0.012": 0.876813245265,
			"-0.011": 0.96258404731,
			"-0.01": 1.61947736896,
			"-0.009": 2.09817911229,
			"-0.008": 3.62506246156,
			"-0.007": 7.05449701179,
			"-0.006": 12.0282156401,
			"-0.005": 16.4254776185,
			"-0.004": 12.1701796795,
			"-0.003": 13.71784213,
			"-0.002": 16.066073935,
			"-0.001": 15.1771149784,
			"0.0": 14.6577770559,
			"0.001": 16.5137296484,
			"0.002": 13.7714052384,
			"0.003": 6.14831169664,
			"0.004": 3.56982220637,
			"0.005": 3.24205963115,
			"0.006": 3.38288429793,
			"0.007": 3.45612059965,
			"0.008": 3.75994525457,
			"0.009": 3.83225448988,
			"0.01": 6.23224315276,
			"0.011": 5.28429539602,
			"0.012": 6.82599646928,
			"0.013": 2.83989320855,
			"0.014": 0.67847701679,
			"0.015": 0.0430775797697,
			"0.016": 0.0,
			"0.017": 0.0,
			"0.018": 0.0,
			"0.019": 0.0,
			"0.02": 0.0,
			"0.021": 0.0,
			"0.022": 0.0,
			"0.023": 0.0,
			"0.024": 0.0,
			"0.025": 0.0
		}
	}
}
