{
	 "smiles": "ClC1=CC=CC2=C1NC(=C2C1=CC=CC=C1)C1=CC=CC=C1", 
	 "Tm": 370.65, 
	 "num_atms": 36, 
	 "gaussian": { 
		 "optdone": 1, 
		 "sigma_profile": "yes", 
		 "theory": "DFT", 
		 "functional": "B3LYP", 
		 "basiset": "6-31G**", 
		 "properties": { 
			 "R2extent": 7811.5371, 
			 "electric_dipole_moment_norm": 1.96146326501, 
			 "electric_quadrupole_moment_norm": 9.7272450221, 
			 "total_energy": -1285.53490755, 
			 "HOMO_LUMO_gap": 0.15608, 
			 "cosmo_polarized_energy": -9.18, 
			 "cosmo_cavitation_energy": 41.45, 
			 "cosmo_dispersion_energy": -29.14, 
			 "cosmo_repulsion_energy": 2.22, 
			 "cosmo_total_nonelectrostatic_energy": 14.52, 
			 "SMD_solvation_energy": 5.87 
		},
		"coords": [
			{
				"x": 2.2757358864,
				"y": 2.8365793449,
				"z": -2.037063009,
				"element": "Cl" 
			},
			{
				"x": 1.9367757654,
				"y": 1.1097369459,
				"z": -2.0930458086,
				"element": "C" 
			},
			{
				"x": 2.4450356332,
				"y": 0.3042768957,
				"z": -3.1009127201,
				"element": "C" 
			},
			{
				"x": 2.1409438364,
				"y": -1.0725766077,
				"z": -3.1197876433,
				"element": "C" 
			},
			{
				"x": 1.3496486006,
				"y": -1.6573349851,
				"z": -2.1395582325,
				"element": "C" 
			},
			{
				"x": 0.8480512948,
				"y": -0.854584874,
				"z": -1.0993270339,
				"element": "C" 
			},
			{
				"x": 1.1361302248,
				"y": 0.5362264304,
				"z": -1.1029337892,
				"element": "C" 
			},
			{
				"x": 0.4937289432,
				"y": 1.1002829144,
				"z": -0.0305702602,
				"element": "N" 
			},
			{
				"x": -0.1687371279,
				"y": 0.1143016785,
				"z": 0.6924173743,
				"element": "C" 
			},
			{
				"x": 0.0121419743,
				"y": -1.1063300385,
				"z": 0.0531356122,
				"element": "C" 
			},
			{
				"x": -0.5783965155,
				"y": -2.413875812,
				"z": 0.4046245918,
				"element": "C" 
			},
			{
				"x": -1.9541918429,
				"y": -2.550242421,
				"z": 0.6618632228,
				"element": "C" 
			},
			{
				"x": -2.5032401244,
				"y": -3.7927812029,
				"z": 0.9738207649,
				"element": "C" 
			},
			{
				"x": -1.6927461254,
				"y": -4.9294383264,
				"z": 1.0249883021,
				"element": "C" 
			},
			{
				"x": -0.3265122863,
				"y": -4.8111185188,
				"z": 0.7649813728,
				"element": "C" 
			},
			{
				"x": 0.2255299002,
				"y": -3.5664963831,
				"z": 0.4600961401,
				"element": "C" 
			},
			{
				"x": -0.8778549438,
				"y": 0.4826655563,
				"z": 1.9261772943,
				"element": "C" 
			},
			{
				"x": -0.886053052,
				"y": -0.3717333867,
				"z": 3.0434228797,
				"element": "C" 
			},
			{
				"x": -1.5353149027,
				"y": 0.0039528457,
				"z": 4.2168567839,
				"element": "C" 
			},
			{
				"x": -2.1813785258,
				"y": 1.2399405977,
				"z": 4.3044409148,
				"element": "C" 
			},
			{
				"x": -2.1767591313,
				"y": 2.0985536746,
				"z": 3.2041245689,
				"element": "C" 
			},
			{
				"x": -1.533867721,
				"y": 1.7235683446,
				"z": 2.0251561638,
				"element": "C" 
			},
			{
				"x": 3.0691874243,
				"y": 0.741684177,
				"z": -3.8721478848,
				"element": "H" 
			},
			{
				"x": 2.5390018433,
				"y": -1.6817467015,
				"z": -3.9255585127,
				"element": "H" 
			},
			{
				"x": 1.119755815,
				"y": -2.7171679127,
				"z": -2.1742710139,
				"element": "H" 
			},
			{
				"x": 0.6530609076,
				"y": 2.0390876162,
				"z": 0.3006424269,
				"element": "H" 
			},
			{
				"x": -2.5922086201,
				"y": -1.6737639033,
				"z": 0.6066212173,
				"element": "H" 
			},
			{
				"x": -3.5691527441,
				"y": -3.8753478976,
				"z": 1.1675871045,
				"element": "H" 
			},
			{
				"x": -2.122845406,
				"y": -5.8980229054,
				"z": 1.2631168822,
				"element": "H" 
			},
			{
				"x": 0.3139613034,
				"y": -5.6878924531,
				"z": 0.8054574674,
				"element": "H" 
			},
			{
				"x": 1.2925086803,
				"y": -3.4780516369,
				"z": 0.2776742282,
				"element": "H" 
			},
			{
				"x": -0.370876159,
				"y": -1.3241964943,
				"z": 2.9883990967,
				"element": "H" 
			},
			{
				"x": -1.5278064032,
				"y": -0.6673290359,
				"z": 5.0707940335,
				"element": "H" 
			},
			{
				"x": -2.6835455577,
				"y": 1.5305792443,
				"z": 5.222481742,
				"element": "H" 
			},
			{
				"x": -2.6817980058,
				"y": 3.0587130222,
				"z": 3.2587235227,
				"element": "H" 
			},
			{
				"x": -1.5635128382,
				"y": 2.3853822083,
				"z": 1.1637722004,
				"element": "H" 
			}
		],
		 "valence_orbital": [ 
			{
				"type": "occ",
				"energy": -0.2587,
				"method": "rhf"
			},
			{
				"type": "occ",
				"energy": -0.24788,
				"method": "rhf"
			},
			{
				"type": "occ",
				"energy": -0.2439,
				"method": "rhf"
			},
			{
				"type": "occ",
				"energy": -0.22188,
				"method": "rhf"
			},
			{
				"type": "occ",
				"energy": -0.19718,
				"method": "rhf"
			},
			{
				"type": "unocc",
				"energy": -0.0411,
				"method": "rhf"
			},
			{
				"type": "unocc",
				"energy": -0.01122,
				"method": "rhf"
			},
			{
				"type": "unocc",
				"energy": -0.00429,
				"method": "rhf"
			},
			{
				"type": "unocc",
				"energy": 0.00277,
				"method": "rhf"
			},
			{
				"type": "unocc",
				"energy": 0.00664,
				"method": "rhf"
			}
		],
		"cosmo_sigma_profile": { 
			"-0.025": 0.0,
			"-0.024": 0.0,
			"-0.023": 0.0,
			"-0.022": 0.0,
			"-0.021": 0.0,
			"-0.02": 0.0,
			"-0.019": 0.0,
			"-0.018": 0.0,
			"-0.017": 0.0,
			"-0.016": 0.0,
			"-0.015": 0.087512538027,
			"-0.014": 0.752627413604,
			"-0.013": 0.600959675747,
			"-0.012": 0.932475018381,
			"-0.011": 1.12761753324,
			"-0.01": 0.969269718121,
			"-0.009": 1.66241740535,
			"-0.008": 1.83055942852,
			"-0.007": 2.39757527344,
			"-0.006": 11.9685390519,
			"-0.005": 24.5399257786,
			"-0.004": 28.3621975277,
			"-0.003": 27.0215367592,
			"-0.002": 20.4849457744,
			"-0.001": 24.0366185078,
			"0.0": 20.1977416038,
			"0.001": 25.4904525822,
			"0.002": 32.2023194387,
			"0.003": 34.3405689443,
			"0.004": 36.3332060844,
			"0.005": 29.8014371296,
			"0.006": 10.1591732058,
			"0.007": 0.199523300116,
			"0.008": 0.0,
			"0.009": 0.0,
			"0.01": 0.0,
			"0.011": 0.0,
			"0.012": 0.0,
			"0.013": 0.0,
			"0.014": 0.0,
			"0.015": 0.0,
			"0.016": 0.0,
			"0.017": 0.0,
			"0.018": 0.0,
			"0.019": 0.0,
			"0.02": 0.0,
			"0.021": 0.0,
			"0.022": 0.0,
			"0.023": 0.0,
			"0.024": 0.0,
			"0.025": 0.0
		}
	}
}
