{
	 "smiles": "C1=CC=C2C(C=CC3=CC4=C(C=CC5=CC=CC=C45)C=C23)=C1", 
	 "Tm": 541.15, 
	 "num_atms": 36, 
	 "gaussian": { 
		 "optdone": 1, 
		 "sigma_profile": "yes", 
		 "theory": "DFT", 
		 "functional": "B3LYP", 
		 "basiset": "6-31G**", 
		 "properties": { 
			 "R2extent": 8676.2401, 
			 "electric_dipole_moment_norm": 0.0, 
			 "electric_quadrupole_moment_norm": 14.8139424017, 
			 "total_energy": -846.830447211, 
			 "HOMO_LUMO_gap": 0.14304, 
			 "cosmo_polarized_energy": -8.56, 
			 "cosmo_cavitation_energy": 38.53, 
			 "cosmo_dispersion_energy": -28.83, 
			 "cosmo_repulsion_energy": 2.06, 
			 "cosmo_total_nonelectrostatic_energy": 11.77, 
			 "SMD_solvation_energy": 5.25 
		},
		"coords": [
			{
				"x": 3.4557209786,
				"y": -1.8804126802,
				"z": 2.596900436,
				"element": "C" 
			},
			{
				"x": 2.6140070576,
				"y": -0.9471373079,
				"z": 3.2266251444,
				"element": "C" 
			},
			{
				"x": 1.506261516,
				"y": -0.445269049,
				"z": 2.5637267952,
				"element": "C" 
			},
			{
				"x": 1.1888328874,
				"y": -0.8496396038,
				"z": 1.2480504043,
				"element": "C" 
			},
			{
				"x": 2.0460863293,
				"y": -1.7964797386,
				"z": 0.6141021485,
				"element": "C" 
			},
			{
				"x": 1.7586888935,
				"y": -2.2350424122,
				"z": -0.7262525188,
				"element": "C" 
			},
			{
				"x": 0.682268502,
				"y": -1.7653571803,
				"z": -1.4075888365,
				"element": "C" 
			},
			{
				"x": -0.2154831229,
				"y": -0.8095293536,
				"z": -0.8169156776,
				"element": "C" 
			},
			{
				"x": -1.3224932954,
				"y": -0.3337479123,
				"z": -1.5323619223,
				"element": "C" 
			},
			{
				"x": -2.2218418808,
				"y": 0.5948756182,
				"z": -0.9998703856,
				"element": "C" 
			},
			{
				"x": -1.9773669239,
				"y": 1.0623737266,
				"z": 0.3343884796,
				"element": "C" 
			},
			{
				"x": -2.8751207426,
				"y": 2.0182001467,
				"z": 0.9250623118,
				"element": "C" 
			},
			{
				"x": -3.9515415665,
				"y": 2.4878842027,
				"z": 0.2437262044,
				"element": "C" 
			},
			{
				"x": -4.2389374406,
				"y": 2.0493234292,
				"z": -1.0966292598,
				"element": "C" 
			},
			{
				"x": -5.3631622239,
				"y": 2.5478542403,
				"z": -1.7915935911,
				"element": "C" 
			},
			{
				"x": -5.6485701175,
				"y": 2.1332570388,
				"z": -3.0794289173,
				"element": "C" 
			},
			{
				"x": -4.8068539732,
				"y": 1.1999844209,
				"z": -3.7091551642,
				"element": "C" 
			},
			{
				"x": -3.6991082597,
				"y": 0.6981170767,
				"z": -3.0462558566,
				"element": "C" 
			},
			{
				"x": -3.3816822055,
				"y": 1.102485824,
				"z": -1.7305787613,
				"element": "C" 
			},
			{
				"x": -0.8703571108,
				"y": 0.586592831,
				"z": 1.0498346556,
				"element": "C" 
			},
			{
				"x": 0.0289926659,
				"y": -0.3420302728,
				"z": 0.5173425996,
				"element": "C" 
			},
			{
				"x": 3.1703105583,
				"y": -2.2950117094,
				"z": 1.3090659521,
				"element": "C" 
			},
			{
				"x": 4.3236025768,
				"y": -2.2721969946,
				"z": 3.1191633361,
				"element": "H" 
			},
			{
				"x": 2.8313547952,
				"y": -0.6163965556,
				"z": 4.2381144014,
				"element": "H" 
			},
			{
				"x": 0.8757142705,
				"y": 0.273428585,
				"z": 3.0755744925,
				"element": "H" 
			},
			{
				"x": 2.4293872084,
				"y": -2.9573394344,
				"z": -1.184382225,
				"element": "H" 
			},
			{
				"x": 0.4775199074,
				"y": -2.1054903295,
				"z": -2.4194649978,
				"element": "H" 
			},
			{
				"x": -1.4656076563,
				"y": -0.7165286243,
				"z": -2.5376966128,
				"element": "H" 
			},
			{
				"x": -2.6703736494,
				"y": 2.3583313106,
				"z": 1.936939427,
				"element": "H" 
			},
			{
				"x": -4.6222416026,
				"y": 3.2101793802,
				"z": 0.7018565311,
				"element": "H" 
			},
			{
				"x": -6.0054659953,
				"y": 3.2690547282,
				"z": -1.2923600059,
				"element": "H" 
			},
			{
				"x": -6.5164523628,
				"y": 2.5250400992,
				"z": -3.6016917574,
				"element": "H" 
			},
			{
				"x": -5.0241994207,
				"y": 0.8692455757,
				"z": -4.7206452528,
				"element": "H" 
			},
			{
				"x": -3.0685586525,
				"y": -0.0205779249,
				"z": -3.5581044765,
				"element": "H" 
			},
			{
				"x": -0.7272432663,
				"y": 0.9693725463,
				"z": 2.0551696181,
				"element": "H" 
			},
			{
				"x": 3.8126133219,
				"y": -3.0162136971,
				"z": 0.8098332816,
				"element": "H" 
			}
		],
		 "valence_orbital": [ 
			{
				"type": "occ",
				"energy": -0.26412,
				"method": "rhf"
			},
			{
				"type": "occ",
				"energy": -0.25537,
				"method": "rhf"
			},
			{
				"type": "occ",
				"energy": -0.23213,
				"method": "rhf"
			},
			{
				"type": "occ",
				"energy": -0.21295,
				"method": "rhf"
			},
			{
				"type": "occ",
				"energy": -0.19789,
				"method": "rhf"
			},
			{
				"type": "unocc",
				"energy": -0.05485,
				"method": "rhf"
			},
			{
				"type": "unocc",
				"energy": -0.0423,
				"method": "rhf"
			},
			{
				"type": "unocc",
				"energy": -0.0191,
				"method": "rhf"
			},
			{
				"type": "unocc",
				"energy": 0.00541,
				"method": "rhf"
			},
			{
				"type": "unocc",
				"energy": 0.00976,
				"method": "rhf"
			}
		],
		"cosmo_sigma_profile": { 
			"-0.025": 0.0,
			"-0.024": 0.0,
			"-0.023": 0.0,
			"-0.022": 0.0,
			"-0.021": 0.0,
			"-0.02": 0.0,
			"-0.019": 0.0,
			"-0.018": 0.0,
			"-0.017": 0.0,
			"-0.016": 0.0,
			"-0.015": 0.0,
			"-0.014": 0.0,
			"-0.013": 0.0,
			"-0.012": 0.0,
			"-0.011": 0.0,
			"-0.01": 0.0,
			"-0.009": 0.0643811687089,
			"-0.008": 2.09165993773,
			"-0.007": 5.00020278528,
			"-0.006": 23.33677016,
			"-0.005": 25.9601372993,
			"-0.004": 25.5025151746,
			"-0.003": 21.6816823354,
			"-0.002": 16.6061761548,
			"-0.001": 14.5531258239,
			"0.0": 14.7216468344,
			"0.001": 18.7503049846,
			"0.002": 21.4301068802,
			"0.003": 44.2530989269,
			"0.004": 49.1797993987,
			"0.005": 25.1036983383,
			"0.006": 2.83983936207,
			"0.007": 0.0,
			"0.008": 0.0,
			"0.009": 0.0,
			"0.01": 0.0,
			"0.011": 0.0,
			"0.012": 0.0,
			"0.013": 0.0,
			"0.014": 0.0,
			"0.015": 0.0,
			"0.016": 0.0,
			"0.017": 0.0,
			"0.018": 0.0,
			"0.019": 0.0,
			"0.02": 0.0,
			"0.021": 0.0,
			"0.022": 0.0,
			"0.023": 0.0,
			"0.024": 0.0,
			"0.025": 0.0
		}
	}
}
