{
	 "smiles": "CC(C)C1=NOC(=N1)C1=C(C=CC=C1)C(O)=O", 
	 "Tm": 415.15, 
	 "num_atms": 29, 
	 "gaussian": { 
		 "optdone": 1, 
		 "sigma_profile": "yes", 
		 "theory": "DFT", 
		 "functional": "B3LYP", 
		 "basiset": "6-31G**", 
		 "properties": { 
			 "R2extent": 4572.6273, 
			 "electric_dipole_moment_norm": 3.90320080703, 
			 "electric_quadrupole_moment_norm": 29.6542201319, 
			 "total_energy": -799.675313489, 
			 "HOMO_LUMO_gap": 0.17558, 
			 "cosmo_polarized_energy": -13.5, 
			 "cosmo_cavitation_energy": 33.19, 
			 "cosmo_dispersion_energy": -23.76, 
			 "cosmo_repulsion_energy": 1.82, 
			 "cosmo_total_nonelectrostatic_energy": 11.25, 
			 "SMD_solvation_energy": 6.1 
		},
		"coords": [
			{
				"x": 3.8978425506,
				"y": 1.4607180624,
				"z": 1.3708825682,
				"element": "C" 
			},
			{
				"x": 3.5310950938,
				"y": -0.0226197395,
				"z": 1.1770210209,
				"element": "C" 
			},
			{
				"x": 3.9588880595,
				"y": -0.5376325391,
				"z": -0.2103005242,
				"element": "C" 
			},
			{
				"x": 2.0593909209,
				"y": -0.2345999185,
				"z": 1.3842822293,
				"element": "C" 
			},
			{
				"x": 1.5743388847,
				"y": -0.991066189,
				"z": 2.3350928098,
				"element": "N" 
			},
			{
				"x": 0.1788520441,
				"y": -0.905438911,
				"z": 2.1512946632,
				"element": "O" 
			},
			{
				"x": -0.0375851583,
				"y": -0.0959275565,
				"z": 1.1013590771,
				"element": "C" 
			},
			{
				"x": 1.0872418126,
				"y": 0.3437683878,
				"z": 0.5976182723,
				"element": "N" 
			},
			{
				"x": -1.4191124374,
				"y": 0.1938452393,
				"z": 0.7054361244,
				"element": "C" 
			},
			{
				"x": -1.8214512472,
				"y": 0.8174969245,
				"z": -0.5119025493,
				"element": "C" 
			},
			{
				"x": -3.1971999401,
				"y": 1.0156876107,
				"z": -0.7072986774,
				"element": "C" 
			},
			{
				"x": -4.1515249607,
				"y": 0.6389228053,
				"z": 0.2317995618,
				"element": "C" 
			},
			{
				"x": -3.7504997627,
				"y": 0.0233987839,
				"z": 1.4161736256,
				"element": "C" 
			},
			{
				"x": -2.3987506954,
				"y": -0.1968584647,
				"z": 1.6416674631,
				"element": "C" 
			},
			{
				"x": -0.9930899382,
				"y": 1.2965381743,
				"z": -1.7171186881,
				"element": "C" 
			},
			{
				"x": 0.3225398863,
				"y": 1.4470935141,
				"z": -1.6290511168,
				"element": "O" 
			},
			{
				"x": -1.5724784188,
				"y": 1.5684071159,
				"z": -2.7506574145,
				"element": "O" 
			},
			{
				"x": 3.3916510296,
				"y": 2.0890409,
				"z": 0.631453779,
				"element": "H" 
			},
			{
				"x": 3.6199487642,
				"y": 1.8138767454,
				"z": 2.3684234506,
				"element": "H" 
			},
			{
				"x": 4.9767094053,
				"y": 1.5967828293,
				"z": 1.2496338566,
				"element": "H" 
			},
			{
				"x": 4.0342857307,
				"y": -0.6164138337,
				"z": 1.948136051,
				"element": "H" 
			},
			{
				"x": 3.7333901494,
				"y": -1.6017040669,
				"z": -0.3278419182,
				"element": "H" 
			},
			{
				"x": 5.0363895655,
				"y": -0.401190479,
				"z": -0.342702685,
				"element": "H" 
			},
			{
				"x": 3.4465881933,
				"y": 0.0103800899,
				"z": -1.0072636112,
				"element": "H" 
			},
			{
				"x": -3.4927287395,
				"y": 1.4724287638,
				"z": -1.6437973767,
				"element": "H" 
			},
			{
				"x": -5.2034224081,
				"y": 0.821729238,
				"z": 0.0340976959,
				"element": "H" 
			},
			{
				"x": -4.4795379352,
				"y": -0.2828696625,
				"z": 2.1597907697,
				"element": "H" 
			},
			{
				"x": -2.0790600595,
				"y": -0.6758457414,
				"z": 2.5595975724,
				"element": "H" 
			},
			{
				"x": 0.7173896107,
				"y": 1.1354519173,
				"z": -0.7685260293,
				"element": "H" 
			}
		],
		 "valence_orbital": [ 
			{
				"type": "occ",
				"energy": -0.3156,
				"method": "rhf"
			},
			{
				"type": "occ",
				"energy": -0.29815,
				"method": "rhf"
			},
			{
				"type": "occ",
				"energy": -0.27456,
				"method": "rhf"
			},
			{
				"type": "occ",
				"energy": -0.26911,
				"method": "rhf"
			},
			{
				"type": "occ",
				"energy": -0.26015,
				"method": "rhf"
			},
			{
				"type": "unocc",
				"energy": -0.08457,
				"method": "rhf"
			},
			{
				"type": "unocc",
				"energy": -0.04282,
				"method": "rhf"
			},
			{
				"type": "unocc",
				"energy": -0.00426,
				"method": "rhf"
			},
			{
				"type": "unocc",
				"energy": 0.03361,
				"method": "rhf"
			},
			{
				"type": "unocc",
				"energy": 0.05262,
				"method": "rhf"
			}
		],
		"cosmo_sigma_profile": { 
			"-0.025": 0.0,
			"-0.024": 0.0,
			"-0.023": 0.0,
			"-0.022": 0.0,
			"-0.021": 0.0,
			"-0.02": 0.0,
			"-0.019": 0.0,
			"-0.018": 0.0,
			"-0.017": 0.0,
			"-0.016": 0.0,
			"-0.015": 0.0,
			"-0.014": 0.0,
			"-0.013": 0.0,
			"-0.012": 0.0,
			"-0.011": 0.0,
			"-0.01": 0.0,
			"-0.009": 0.0998263629207,
			"-0.008": 1.83644861912,
			"-0.007": 7.73594117542,
			"-0.006": 9.77415027349,
			"-0.005": 15.7951430953,
			"-0.004": 24.8350113216,
			"-0.003": 33.4824577514,
			"-0.002": 28.4442645294,
			"-0.001": 25.8192926858,
			"0.0": 29.1654954287,
			"0.001": 20.021652007,
			"0.002": 14.771955858,
			"0.003": 5.24589652566,
			"0.004": 4.47287391974,
			"0.005": 5.39939204284,
			"0.006": 5.56372847909,
			"0.007": 2.70031028854,
			"0.008": 3.5572380945,
			"0.009": 4.4115276141,
			"0.01": 4.40192411594,
			"0.011": 5.4453418755,
			"0.012": 7.47160552316,
			"0.013": 3.42909195158,
			"0.014": 1.27927532549,
			"0.015": 0.0130293947384,
			"0.016": 0.0,
			"0.017": 0.0,
			"0.018": 0.0,
			"0.019": 0.0,
			"0.02": 0.0,
			"0.021": 0.0,
			"0.022": 0.0,
			"0.023": 0.0,
			"0.024": 0.0,
			"0.025": 0.0
		}
	}
}
