{
	 "smiles": "CCN1CCOCC1", 
	 "Tm": 209.65, 
	 "num_atms": 21, 
	 "gaussian": { 
		 "optdone": 1, 
		 "sigma_profile": "yes", 
		 "theory": "DFT", 
		 "functional": "B3LYP", 
		 "basiset": "6-31G**", 
		 "properties": { 
			 "R2extent": 1278.3854, 
			 "electric_dipole_moment_norm": 1.33849085914, 
			 "electric_quadrupole_moment_norm": 5.58542704813, 
			 "total_energy": -366.417120237, 
			 "HOMO_LUMO_gap": 0.28651, 
			 "cosmo_polarized_energy": -5.29, 
			 "cosmo_cavitation_energy": 21.59, 
			 "cosmo_dispersion_energy": -16.45, 
			 "cosmo_repulsion_energy": 1.37, 
			 "cosmo_total_nonelectrostatic_energy": 6.51, 
			 "SMD_solvation_energy": 1.07 
		},
		"coords": [
			{
				"x": -2.6426329323,
				"y": 1.1582618542,
				"z": 0.3341215672,
				"element": "C" 
			},
			{
				"x": -1.1893055701,
				"y": 0.9127184129,
				"z": -0.0758063352,
				"element": "C" 
			},
			{
				"x": -0.5484606112,
				"y": -0.1344129806,
				"z": 0.7184825911,
				"element": "N" 
			},
			{
				"x": 0.9205897151,
				"y": -0.1742351114,
				"z": 0.5925384438,
				"element": "C" 
			},
			{
				"x": 1.4073935403,
				"y": -1.29050283,
				"z": -0.3311266529,
				"element": "C" 
			},
			{
				"x": 1.0028074314,
				"y": -2.5774995244,
				"z": 0.1365260629,
				"element": "O" 
			},
			{
				"x": -0.1874291188,
				"y": -2.5601297919,
				"z": 0.9218968836,
				"element": "C" 
			},
			{
				"x": -1.1501013665,
				"y": -1.4570629488,
				"z": 0.4980175647,
				"element": "C" 
			},
			{
				"x": -3.0525932572,
				"y": 2.0083875533,
				"z": -0.220689048,
				"element": "H" 
			},
			{
				"x": -2.7043001713,
				"y": 1.3778938249,
				"z": 1.4044784492,
				"element": "H" 
			},
			{
				"x": -3.2806096569,
				"y": 0.2938269056,
				"z": 0.1261819739,
				"element": "H" 
			},
			{
				"x": -1.1523830556,
				"y": 0.6916337071,
				"z": -1.1627169541,
				"element": "H" 
			},
			{
				"x": -0.62197119,
				"y": 1.8378266323,
				"z": 0.0770210113,
				"element": "H" 
			},
			{
				"x": 1.3719061155,
				"y": -0.3194259984,
				"z": 1.583874984,
				"element": "H" 
			},
			{
				"x": 1.2799073026,
				"y": 0.7914422702,
				"z": 0.2222738688,
				"element": "H" 
			},
			{
				"x": 2.5023415851,
				"y": -1.2993047532,
				"z": -0.3844156881,
				"element": "H" 
			},
			{
				"x": 1.0272364247,
				"y": -1.1247272306,
				"z": -1.3520939816,
				"element": "H" 
			},
			{
				"x": 0.0571585125,
				"y": -2.4406466658,
				"z": 1.9892108403,
				"element": "H" 
			},
			{
				"x": -0.6599077838,
				"y": -3.5398921961,
				"z": 0.79734052,
				"element": "H" 
			},
			{
				"x": -1.4142679263,
				"y": -1.6157824733,
				"z": -0.5658255542,
				"element": "H" 
			},
			{
				"x": -2.0795779873,
				"y": -1.549668656,
				"z": 1.0732094534,
				"element": "H" 
			}
		],
		 "valence_orbital": [ 
			{
				"type": "occ",
				"energy": -0.34982,
				"method": "rhf"
			},
			{
				"type": "occ",
				"energy": -0.33456,
				"method": "rhf"
			},
			{
				"type": "occ",
				"energy": -0.29698,
				"method": "rhf"
			},
			{
				"type": "occ",
				"energy": -0.24206,
				"method": "rhf"
			},
			{
				"type": "occ",
				"energy": -0.20415,
				"method": "rhf"
			},
			{
				"type": "unocc",
				"energy": 0.08236,
				"method": "rhf"
			},
			{
				"type": "unocc",
				"energy": 0.10743,
				"method": "rhf"
			},
			{
				"type": "unocc",
				"energy": 0.11507,
				"method": "rhf"
			},
			{
				"type": "unocc",
				"energy": 0.12339,
				"method": "rhf"
			},
			{
				"type": "unocc",
				"energy": 0.12981,
				"method": "rhf"
			}
		],
		"cosmo_sigma_profile": { 
			"-0.025": 0.0,
			"-0.024": 0.0,
			"-0.023": 0.0,
			"-0.022": 0.0,
			"-0.021": 0.0,
			"-0.02": 0.0,
			"-0.019": 0.0,
			"-0.018": 0.0,
			"-0.017": 0.0,
			"-0.016": 0.0,
			"-0.015": 0.0,
			"-0.014": 0.0,
			"-0.013": 0.0,
			"-0.012": 0.0,
			"-0.011": 0.0,
			"-0.01": 0.0,
			"-0.009": 0.0,
			"-0.008": 0.0,
			"-0.007": 0.0,
			"-0.006": 0.0,
			"-0.005": 4.0017801411,
			"-0.004": 13.3691235195,
			"-0.003": 26.9172788122,
			"-0.002": 31.3001917111,
			"-0.001": 27.5127292071,
			"0.0": 18.244507878,
			"0.001": 12.883047114,
			"0.002": 5.72868616252,
			"0.003": 3.08850686974,
			"0.004": 2.1187847041,
			"0.005": 2.40273091636,
			"0.006": 2.6816609124,
			"0.007": 1.77014134295,
			"0.008": 2.1310897007,
			"0.009": 1.84160885942,
			"0.01": 1.70503814202,
			"0.011": 1.7623054222,
			"0.012": 1.62316764467,
			"0.013": 2.27060887181,
			"0.014": 2.22582442676,
			"0.015": 0.240539287519,
			"0.016": 0.411612096783,
			"0.017": 0.0140899111111,
			"0.018": 0.0,
			"0.019": 0.0,
			"0.02": 0.0,
			"0.021": 0.0,
			"0.022": 0.0,
			"0.023": 0.0,
			"0.024": 0.0,
			"0.025": 0.0
		}
	}
}
