{
	 "smiles": "CCCCCCCCN(CCCCCCCC)CCCCCCCC", 
	 "Tm": 307.15, 
	 "num_atms": 76, 
	 "gaussian": { 
		 "optdone": 1, 
		 "sigma_profile": "yes", 
		 "theory": "DFT", 
		 "functional": "B3LYP", 
		 "basiset": "6-31G**", 
		 "properties": { 
			 "R2extent": 19079.9599, 
			 "electric_dipole_moment_norm": 0.638658116679, 
			 "electric_quadrupole_moment_norm": 2.49263513174, 
			 "total_energy": -1000.09825606, 
			 "HOMO_LUMO_gap": 0.25977, 
			 "cosmo_polarized_energy": -3.4, 
			 "cosmo_cavitation_energy": 71.19, 
			 "cosmo_dispersion_energy": -43.84, 
			 "cosmo_repulsion_energy": 3.5, 
			 "cosmo_total_nonelectrostatic_energy": 30.85, 
			 "SMD_solvation_energy": 8.59 
		},
		"coords": [
			{
				"x": -1.2972792596,
				"y": 5.1435586677,
				"z": 1.6406703804,
				"element": "C" 
			},
			{
				"x": -0.0772194167,
				"y": 4.7177637999,
				"z": 2.4664078836,
				"element": "C" 
			},
			{
				"x": 0.8786005121,
				"y": 3.7542981763,
				"z": 1.7424055059,
				"element": "C" 
			},
			{
				"x": 1.5972789812,
				"y": 4.3724023017,
				"z": 0.531604424,
				"element": "C" 
			},
			{
				"x": 2.6821594956,
				"y": 3.4930814353,
				"z": -0.1269143472,
				"element": "C" 
			},
			{
				"x": 2.2086381469,
				"y": 2.5126643248,
				"z": -1.2198401307,
				"element": "C" 
			},
			{
				"x": 1.3303438864,
				"y": 1.3202610466,
				"z": -0.8001479091,
				"element": "C" 
			},
			{
				"x": 2.0290437467,
				"y": 0.3320255006,
				"z": 0.1428788936,
				"element": "C" 
			},
			{
				"x": 1.2589367846,
				"y": -0.8999704469,
				"z": 0.3633037681,
				"element": "N" 
			},
			{
				"x": 0.1638493851,
				"y": -0.7083345509,
				"z": 1.3233275448,
				"element": "C" 
			},
			{
				"x": -1.0021253161,
				"y": -1.680691119,
				"z": 1.1024279624,
				"element": "C" 
			},
			{
				"x": -2.1216286677,
				"y": -1.5625882462,
				"z": 2.1518695186,
				"element": "C" 
			},
			{
				"x": -2.873877623,
				"y": -0.2191326332,
				"z": 2.199547541,
				"element": "C" 
			},
			{
				"x": -3.647636011,
				"y": 0.1201533819,
				"z": 0.9171453389,
				"element": "C" 
			},
			{
				"x": -4.4146523367,
				"y": 1.4540176258,
				"z": 0.97061772,
				"element": "C" 
			},
			{
				"x": -5.5564446109,
				"y": 1.5380172359,
				"z": 1.9994920932,
				"element": "C" 
			},
			{
				"x": -6.702118048,
				"y": 0.5492361411,
				"z": 1.7533436581,
				"element": "C" 
			},
			{
				"x": 2.1283902109,
				"y": -2.0256648494,
				"z": 0.733991988,
				"element": "C" 
			},
			{
				"x": 2.8324784035,
				"y": -2.680218043,
				"z": -0.4638054189,
				"element": "C" 
			},
			{
				"x": 1.8621790307,
				"y": -3.3358848781,
				"z": -1.4555537472,
				"element": "C" 
			},
			{
				"x": 2.5352328222,
				"y": -4.0165045099,
				"z": -2.659021102,
				"element": "C" 
			},
			{
				"x": 3.2265298584,
				"y": -3.0494130134,
				"z": -3.633413162,
				"element": "C" 
			},
			{
				"x": 3.758082818,
				"y": -3.7093657845,
				"z": -4.9167427966,
				"element": "C" 
			},
			{
				"x": 4.9116444121,
				"y": -4.6999581733,
				"z": -4.7033041184,
				"element": "C" 
			},
			{
				"x": 5.4533366617,
				"y": -5.2769806522,
				"z": -6.0154151513,
				"element": "C" 
			},
			{
				"x": -1.8777635682,
				"y": 4.2712450078,
				"z": 1.3166421177,
				"element": "H" 
			},
			{
				"x": -1.9642496407,
				"y": 5.7860194499,
				"z": 2.225026104,
				"element": "H" 
			},
			{
				"x": -1.0101938749,
				"y": 5.70031881,
				"z": 0.7428337136,
				"element": "H" 
			},
			{
				"x": 0.4813046038,
				"y": 5.6110868443,
				"z": 2.779059383,
				"element": "H" 
			},
			{
				"x": -0.4239184133,
				"y": 4.2389826114,
				"z": 3.3912452693,
				"element": "H" 
			},
			{
				"x": 0.3189056419,
				"y": 2.8598595081,
				"z": 1.4411506611,
				"element": "H" 
			},
			{
				"x": 1.6378369381,
				"y": 3.4093251178,
				"z": 2.4576411645,
				"element": "H" 
			},
			{
				"x": 0.8665144866,
				"y": 4.6695182749,
				"z": -0.2325309739,
				"element": "H" 
			},
			{
				"x": 2.0688890016,
				"y": 5.3054520198,
				"z": 0.8704154571,
				"element": "H" 
			},
			{
				"x": 3.239215207,
				"y": 2.9559259376,
				"z": 0.6523601621,
				"element": "H" 
			},
			{
				"x": 3.4138295787,
				"y": 4.1596554086,
				"z": -0.6012295717,
				"element": "H" 
			},
			{
				"x": 3.1005434807,
				"y": 2.1164185317,
				"z": -1.7257465914,
				"element": "H" 
			},
			{
				"x": 1.6667348296,
				"y": 3.0880315387,
				"z": -1.9827772327,
				"element": "H" 
			},
			{
				"x": 1.0412680411,
				"y": 0.7638735558,
				"z": -1.6998617646,
				"element": "H" 
			},
			{
				"x": 0.3950413242,
				"y": 1.6810933491,
				"z": -0.3571628254,
				"element": "H" 
			},
			{
				"x": 2.9848784514,
				"y": 0.0535878662,
				"z": -0.3146165693,
				"element": "H" 
			},
			{
				"x": 2.2819380998,
				"y": 0.8190583237,
				"z": 1.1036784547,
				"element": "H" 
			},
			{
				"x": -0.2065588824,
				"y": 0.3145721974,
				"z": 1.2102805905,
				"element": "H" 
			},
			{
				"x": 0.5250937093,
				"y": -0.7866570782,
				"z": 2.3684901941,
				"element": "H" 
			},
			{
				"x": -0.6270677581,
				"y": -2.7112303341,
				"z": 1.1192846348,
				"element": "H" 
			},
			{
				"x": -1.3952842399,
				"y": -1.5239421057,
				"z": 0.0914153205,
				"element": "H" 
			},
			{
				"x": -1.6956750296,
				"y": -1.7605839248,
				"z": 3.1452252382,
				"element": "H" 
			},
			{
				"x": -2.8509204442,
				"y": -2.3643087714,
				"z": 1.9733341154,
				"element": "H" 
			},
			{
				"x": -3.5699098387,
				"y": -0.2544699277,
				"z": 3.0470275705,
				"element": "H" 
			},
			{
				"x": -2.1743326745,
				"y": 0.5975517583,
				"z": 2.4260088245,
				"element": "H" 
			},
			{
				"x": -2.9501062503,
				"y": 0.1647247106,
				"z": 0.0714179075,
				"element": "H" 
			},
			{
				"x": -4.3406259416,
				"y": -0.7005495022,
				"z": 0.6865054705,
				"element": "H" 
			},
			{
				"x": -3.6989792188,
				"y": 2.2633668742,
				"z": 1.1732166177,
				"element": "H" 
			},
			{
				"x": -4.8282510575,
				"y": 1.6601015262,
				"z": -0.0262513991,
				"element": "H" 
			},
			{
				"x": -5.1596366556,
				"y": 1.3925917682,
				"z": 3.0122710646,
				"element": "H" 
			},
			{
				"x": -5.9579907943,
				"y": 2.5593918612,
				"z": 1.9822309162,
				"element": "H" 
			},
			{
				"x": -6.3718369245,
				"y": -0.4909164065,
				"z": 1.8432957707,
				"element": "H" 
			},
			{
				"x": -7.1236164586,
				"y": 0.6754263855,
				"z": 0.7490729118,
				"element": "H" 
			},
			{
				"x": -7.5127962771,
				"y": 0.6979295393,
				"z": 2.4743697346,
				"element": "H" 
			},
			{
				"x": 1.5092742035,
				"y": -2.7861455023,
				"z": 1.2220249861,
				"element": "H" 
			},
			{
				"x": 2.8807088726,
				"y": -1.7162574715,
				"z": 1.4853191379,
				"element": "H" 
			},
			{
				"x": 3.5302168444,
				"y": -3.4355735509,
				"z": -0.0753947837,
				"element": "H" 
			},
			{
				"x": 3.4530516805,
				"y": -1.9370675117,
				"z": -0.9791577794,
				"element": "H" 
			},
			{
				"x": 1.1512478712,
				"y": -2.5772805448,
				"z": -1.8041430594,
				"element": "H" 
			},
			{
				"x": 1.2663664418,
				"y": -4.0852745897,
				"z": -0.9155473356,
				"element": "H" 
			},
			{
				"x": 1.7725458805,
				"y": -4.581112689,
				"z": -3.2135665028,
				"element": "H" 
			},
			{
				"x": 3.2564881808,
				"y": -4.7608196956,
				"z": -2.2950967398,
				"element": "H" 
			},
			{
				"x": 4.0561904169,
				"y": -2.5362475309,
				"z": -3.1286618732,
				"element": "H" 
			},
			{
				"x": 2.5098135296,
				"y": -2.2644407685,
				"z": -3.911840589,
				"element": "H" 
			},
			{
				"x": 4.0962141263,
				"y": -2.9221558388,
				"z": -5.604828784,
				"element": "H" 
			},
			{
				"x": 2.9315609685,
				"y": -4.2230200871,
				"z": -5.4293028591,
				"element": "H" 
			},
			{
				"x": 4.5826311559,
				"y": -5.5227674356,
				"z": -4.0564941914,
				"element": "H" 
			},
			{
				"x": 5.7238645791,
				"y": -4.194305763,
				"z": -4.1624864136,
				"element": "H" 
			},
			{
				"x": 4.6715061906,
				"y": -5.8150899451,
				"z": -6.5638398808,
				"element": "H" 
			},
			{
				"x": 6.2756983676,
				"y": -5.9778348177,
				"z": -5.8372737228,
				"element": "H" 
			},
			{
				"x": 5.828497373,
				"y": -4.4837297211,
				"z": -6.672408388,
				"element": "H" 
			}
		],
		 "valence_orbital": [ 
			{
				"type": "occ",
				"energy": -0.30073,
				"method": "rhf"
			},
			{
				"type": "occ",
				"energy": -0.29997,
				"method": "rhf"
			},
			{
				"type": "occ",
				"energy": -0.29755,
				"method": "rhf"
			},
			{
				"type": "occ",
				"energy": -0.29649,
				"method": "rhf"
			},
			{
				"type": "occ",
				"energy": -0.20225,
				"method": "rhf"
			},
			{
				"type": "unocc",
				"energy": 0.05752,
				"method": "rhf"
			},
			{
				"type": "unocc",
				"energy": 0.08254,
				"method": "rhf"
			},
			{
				"type": "unocc",
				"energy": 0.08647,
				"method": "rhf"
			},
			{
				"type": "unocc",
				"energy": 0.09579,
				"method": "rhf"
			},
			{
				"type": "unocc",
				"energy": 0.09834,
				"method": "rhf"
			}
		],
		"cosmo_sigma_profile": { 
			"-0.025": 0.0,
			"-0.024": 0.0,
			"-0.023": 0.0,
			"-0.022": 0.0,
			"-0.021": 0.0,
			"-0.02": 0.0,
			"-0.019": 0.0,
			"-0.018": 0.0,
			"-0.017": 0.0,
			"-0.016": 0.0,
			"-0.015": 0.0,
			"-0.014": 0.0,
			"-0.013": 0.0,
			"-0.012": 0.0,
			"-0.011": 0.0,
			"-0.01": 0.0,
			"-0.009": 0.0,
			"-0.008": 0.0,
			"-0.007": 0.0,
			"-0.006": 0.0,
			"-0.005": 0.0375560666289,
			"-0.004": 1.70565491768,
			"-0.003": 12.5129360696,
			"-0.002": 70.9228942151,
			"-0.001": 126.101973691,
			"0.0": 146.470453767,
			"0.001": 118.234892205,
			"0.002": 51.8143052961,
			"0.003": 4.44064240385,
			"0.004": 2.1383670498,
			"0.005": 1.66197591171,
			"0.006": 1.073804584,
			"0.007": 1.49142042907,
			"0.008": 1.22808401178,
			"0.009": 1.1229729813,
			"0.01": 0.761575600678,
			"0.011": 0.84202732455,
			"0.012": 0.388685662074,
			"0.013": 0.0,
			"0.014": 0.0,
			"0.015": 0.0,
			"0.016": 0.0,
			"0.017": 0.0,
			"0.018": 0.0,
			"0.019": 0.0,
			"0.02": 0.0,
			"0.021": 0.0,
			"0.022": 0.0,
			"0.023": 0.0,
			"0.024": 0.0,
			"0.025": 0.0
		}
	}
}
