{
	 "smiles": "ClS(=O)(=O)C1=CC2=C(C=C1)N=CC=C2", 
	 "Tm": 361.15, 
	 "num_atms": 20, 
	 "gaussian": { 
		 "optdone": 1, 
		 "sigma_profile": "yes", 
		 "theory": "DFT", 
		 "functional": "B3LYP", 
		 "basiset": "6-31G**", 
		 "properties": { 
			 "R2extent": 4743.8996, 
			 "electric_dipole_moment_norm": 5.35513096479, 
			 "electric_quadrupole_moment_norm": 15.6526841078, 
			 "total_energy": -1410.08786023, 
			 "HOMO_LUMO_gap": 0.16955, 
			 "cosmo_polarized_energy": -11.25, 
			 "cosmo_cavitation_energy": 28.16, 
			 "cosmo_dispersion_energy": -21.32, 
			 "cosmo_repulsion_energy": 1.61, 
			 "cosmo_total_nonelectrostatic_energy": 8.44, 
			 "SMD_solvation_energy": 1.89 
		},
		"coords": [
			{
				"x": 4.7745039335,
				"y": -0.8488836188,
				"z": -0.1388818016,
				"element": "Cl" 
			},
			{
				"x": 3.2273315513,
				"y": -0.0898711472,
				"z": -1.4000004301,
				"element": "S" 
			},
			{
				"x": 3.2424209391,
				"y": -0.91880144,
				"z": -2.5985583597,
				"element": "O" 
			},
			{
				"x": 3.4138425049,
				"y": 1.3550541015,
				"z": -1.4483219986,
				"element": "O" 
			},
			{
				"x": 1.7735277607,
				"y": -0.4730457612,
				"z": -0.4356672208,
				"element": "C" 
			},
			{
				"x": 1.2327578335,
				"y": 0.5168768321,
				"z": 0.3532365653,
				"element": "C" 
			},
			{
				"x": 0.0683642117,
				"y": 0.2293954072,
				"z": 1.1076866164,
				"element": "C" 
			},
			{
				"x": -0.5111082954,
				"y": -1.0785081332,
				"z": 1.0344566885,
				"element": "C" 
			},
			{
				"x": 0.0901415549,
				"y": -2.062023995,
				"z": 0.2012097821,
				"element": "C" 
			},
			{
				"x": 1.2175104983,
				"y": -1.7725132066,
				"z": -0.5293714473,
				"element": "C" 
			},
			{
				"x": -1.628969861,
				"y": -1.4233649454,
				"z": 1.7352861595,
				"element": "N" 
			},
			{
				"x": -2.1791723784,
				"y": -0.5023568639,
				"z": 2.5013636731,
				"element": "C" 
			},
			{
				"x": -1.6872180573,
				"y": 0.8212910007,
				"z": 2.6435505605,
				"element": "C" 
			},
			{
				"x": -0.5625917403,
				"y": 1.1866340622,
				"z": 1.9446354366,
				"element": "C" 
			},
			{
				"x": 1.6859723367,
				"y": 1.5019953617,
				"z": 0.3918044689,
				"element": "H" 
			},
			{
				"x": -0.3757840831,
				"y": -3.040576693,
				"z": 0.1606499198,
				"element": "H" 
			},
			{
				"x": 1.6769825392,
				"y": -2.5101287325,
				"z": -1.1773388699,
				"element": "H" 
			},
			{
				"x": -3.0703072834,
				"y": -0.8030083969,
				"z": 3.0508944747,
				"element": "H" 
			},
			{
				"x": -2.2005076238,
				"y": 1.5204799996,
				"z": 3.2954246262,
				"element": "H" 
			},
			{
				"x": -0.1487963409,
				"y": 2.188456169,
				"z": 2.0210411564,
				"element": "H" 
			}
		],
		 "valence_orbital": [ 
			{
				"type": "occ",
				"energy": -0.33097,
				"method": "rhf"
			},
			{
				"type": "occ",
				"energy": -0.31436,
				"method": "rhf"
			},
			{
				"type": "occ",
				"energy": -0.28391,
				"method": "rhf"
			},
			{
				"type": "occ",
				"energy": -0.27965,
				"method": "rhf"
			},
			{
				"type": "occ",
				"energy": -0.26635,
				"method": "rhf"
			},
			{
				"type": "unocc",
				"energy": -0.0968,
				"method": "rhf"
			},
			{
				"type": "unocc",
				"energy": -0.07611,
				"method": "rhf"
			},
			{
				"type": "unocc",
				"energy": -0.04866,
				"method": "rhf"
			},
			{
				"type": "unocc",
				"energy": -0.01292,
				"method": "rhf"
			},
			{
				"type": "unocc",
				"energy": 0.03585,
				"method": "rhf"
			}
		],
		"cosmo_sigma_profile": { 
			"-0.025": 0.0,
			"-0.024": 0.0,
			"-0.023": 0.0,
			"-0.022": 0.0,
			"-0.021": 0.0,
			"-0.02": 0.0,
			"-0.019": 0.0,
			"-0.018": 0.0,
			"-0.017": 0.0,
			"-0.016": 0.0,
			"-0.015": 0.0,
			"-0.014": 0.0,
			"-0.013": 0.0,
			"-0.012": 0.0,
			"-0.011": 0.0,
			"-0.01": 1.0761401872,
			"-0.009": 3.08659340908,
			"-0.008": 6.82614992901,
			"-0.007": 12.7619636884,
			"-0.006": 12.6902917252,
			"-0.005": 10.4619700944,
			"-0.004": 9.59661374441,
			"-0.003": 10.8765971043,
			"-0.002": 13.3634559731,
			"-0.001": 24.0989378732,
			"0.0": 26.8704477103,
			"0.001": 21.6378839579,
			"0.002": 12.6671454178,
			"0.003": 16.6502297532,
			"0.004": 10.0361863724,
			"0.005": 4.88401383128,
			"0.006": 4.5879908801,
			"0.007": 7.53104704123,
			"0.008": 10.9310853114,
			"0.009": 4.87552179404,
			"0.01": 0.764612489203,
			"0.011": 0.568978295758,
			"0.012": 1.31558593315,
			"0.013": 0.737730122347,
			"0.014": 0.54330831435,
			"0.015": 0.666512554534,
			"0.016": 0.0817266746014,
			"0.017": 0.0,
			"0.018": 0.0,
			"0.019": 0.0,
			"0.02": 0.0,
			"0.021": 0.0,
			"0.022": 0.0,
			"0.023": 0.0,
			"0.024": 0.0,
			"0.025": 0.0
		}
	}
}
