{
	 "smiles": "ClC1=NN=C(C=C1)C(=O)NC1=CC=CC=C1", 
	 "Tm": 487.15, 
	 "num_atms": 24, 
	 "gaussian": { 
		 "optdone": 1, 
		 "sigma_profile": "yes", 
		 "theory": "DFT", 
		 "functional": "B3LYP", 
		 "basiset": "6-31G**", 
		 "properties": { 
			 "R2extent": 4822.7744, 
			 "electric_dipole_moment_norm": 2.08918266554, 
			 "electric_quadrupole_moment_norm": 19.7332573302, 
			 "total_energy": -1123.62526117, 
			 "HOMO_LUMO_gap": 0.16119, 
			 "cosmo_polarized_energy": -16.05, 
			 "cosmo_cavitation_energy": 31.49, 
			 "cosmo_dispersion_energy": -22.55, 
			 "cosmo_repulsion_energy": 1.78, 
			 "cosmo_total_nonelectrostatic_energy": 10.72, 
			 "SMD_solvation_energy": 4.27 
		},
		"coords": [
			{
				"x": -2.046515856,
				"y": 1.7896337232,
				"z": 4.2283101384,
				"element": "Cl" 
			},
			{
				"x": -1.6413565223,
				"y": 0.5999552535,
				"z": 3.0136303098,
				"element": "C" 
			},
			{
				"x": -1.7983129418,
				"y": 0.9803048305,
				"z": 1.7532713779,
				"element": "N" 
			},
			{
				"x": -1.4910804917,
				"y": 0.1231045154,
				"z": 0.7780419309,
				"element": "N" 
			},
			{
				"x": -1.0417441837,
				"y": -1.0965542952,
				"z": 1.0808668695,
				"element": "C" 
			},
			{
				"x": -0.8890811342,
				"y": -1.5501913476,
				"z": 2.4018856821,
				"element": "C" 
			},
			{
				"x": -1.1894960976,
				"y": -0.6646001358,
				"z": 3.4157763212,
				"element": "C" 
			},
			{
				"x": -0.7961740264,
				"y": -2.0829654621,
				"z": -0.0351265349,
				"element": "C" 
			},
			{
				"x": -0.9040401872,
				"y": -3.2826205745,
				"z": 0.2046760634,
				"element": "O" 
			},
			{
				"x": -0.5225812591,
				"y": -1.633226443,
				"z": -1.2994001676,
				"element": "N" 
			},
			{
				"x": -0.0319275035,
				"y": -0.3811922748,
				"z": -1.7689823588,
				"element": "C" 
			},
			{
				"x": 1.0101770932,
				"y": 0.2874201702,
				"z": -1.1165020908,
				"element": "C" 
			},
			{
				"x": 1.4942508898,
				"y": 1.4883052072,
				"z": -1.6317145603,
				"element": "C" 
			},
			{
				"x": 0.969332631,
				"y": 2.0129192533,
				"z": -2.814598447,
				"element": "C" 
			},
			{
				"x": -0.051201222,
				"y": 1.330160673,
				"z": -3.4783010443,
				"element": "C" 
			},
			{
				"x": -0.5564432065,
				"y": 0.1401504981,
				"z": -2.9559906226,
				"element": "C" 
			},
			{
				"x": -0.5584326506,
				"y": -2.5661346888,
				"z": 2.5843967815,
				"element": "H" 
			},
			{
				"x": -1.0965854874,
				"y": -0.9185645177,
				"z": 4.4652858891,
				"element": "H" 
			},
			{
				"x": -0.5304469466,
				"y": -2.3951358568,
				"z": -1.9677502787,
				"element": "H" 
			},
			{
				"x": 1.4420137026,
				"y": -0.1364681755,
				"z": -0.2156608284,
				"element": "H" 
			},
			{
				"x": 2.2967918169,
				"y": 2.0062726672,
				"z": -1.1149093415,
				"element": "H" 
			},
			{
				"x": 1.3561307607,
				"y": 2.943819369,
				"z": -3.217763878,
				"element": "H" 
			},
			{
				"x": -0.4652489379,
				"y": 1.7287296166,
				"z": -4.3997813314,
				"element": "H" 
			},
			{
				"x": -1.3669282397,
				"y": -0.3825220055,
				"z": -3.4555598795,
				"element": "H" 
			}
		],
		 "valence_orbital": [ 
			{
				"type": "occ",
				"energy": -0.2884,
				"method": "rhf"
			},
			{
				"type": "occ",
				"energy": -0.26796,
				"method": "rhf"
			},
			{
				"type": "occ",
				"energy": -0.2588,
				"method": "rhf"
			},
			{
				"type": "occ",
				"energy": -0.25426,
				"method": "rhf"
			},
			{
				"type": "occ",
				"energy": -0.23382,
				"method": "rhf"
			},
			{
				"type": "unocc",
				"energy": -0.07263,
				"method": "rhf"
			},
			{
				"type": "unocc",
				"energy": -0.0653,
				"method": "rhf"
			},
			{
				"type": "unocc",
				"energy": -0.0102,
				"method": "rhf"
			},
			{
				"type": "unocc",
				"energy": -0.00799,
				"method": "rhf"
			},
			{
				"type": "unocc",
				"energy": 0.01868,
				"method": "rhf"
			}
		],
		"cosmo_sigma_profile": { 
			"-0.025": 0.0,
			"-0.024": 0.0,
			"-0.023": 0.0,
			"-0.022": 0.0,
			"-0.021": 0.0,
			"-0.02": 0.0,
			"-0.019": 0.0,
			"-0.018": 0.0,
			"-0.017": 0.0,
			"-0.016": 0.0,
			"-0.015": 0.508846019349,
			"-0.014": 0.962734941555,
			"-0.013": 1.27047586893,
			"-0.012": 0.850408208092,
			"-0.011": 0.793768957083,
			"-0.01": 3.07299692021,
			"-0.009": 4.50803568545,
			"-0.008": 5.6319057576,
			"-0.007": 6.96664300389,
			"-0.006": 13.4978556451,
			"-0.005": 17.9202239436,
			"-0.004": 20.3502463725,
			"-0.003": 20.7177624903,
			"-0.002": 18.2859610259,
			"-0.001": 15.5328641398,
			"0.0": 14.1099896919,
			"0.001": 12.608259123,
			"0.002": 15.7431966105,
			"0.003": 18.8826576,
			"0.004": 13.1584640917,
			"0.005": 11.4700569115,
			"0.006": 6.02094048177,
			"0.007": 4.79637253857,
			"0.008": 3.54595147284,
			"0.009": 4.04245887939,
			"0.01": 3.49108253273,
			"0.011": 5.42051929196,
			"0.012": 7.33032822285,
			"0.013": 3.91706056806,
			"0.014": 0.57282271687,
			"0.015": 0.0,
			"0.016": 0.0,
			"0.017": 0.0,
			"0.018": 0.0,
			"0.019": 0.0,
			"0.02": 0.0,
			"0.021": 0.0,
			"0.022": 0.0,
			"0.023": 0.0,
			"0.024": 0.0,
			"0.025": 0.0
		}
	}
}
