{
	 "smiles": "OC1=CC=CC2=C(O)C=CC=C12", 
	 "Tm": 534.15, 
	 "num_atms": 20, 
	 "gaussian": { 
		 "optdone": 1, 
		 "sigma_profile": "yes", 
		 "theory": "DFT", 
		 "functional": "B3LYP", 
		 "basiset": "6-31G**", 
		 "properties": { 
			 "R2extent": 1987.9459, 
			 "electric_dipole_moment_norm": 2.66054745118, 
			 "electric_quadrupole_moment_norm": 8.54122313957, 
			 "total_energy": -536.333419189, 
			 "HOMO_LUMO_gap": 0.16657, 
			 "cosmo_polarized_energy": -12.66, 
			 "cosmo_cavitation_energy": 23.46, 
			 "cosmo_dispersion_energy": -18.03, 
			 "cosmo_repulsion_energy": 1.4, 
			 "cosmo_total_nonelectrostatic_energy": 6.83, 
			 "SMD_solvation_energy": 4.35 
		},
		"coords": [
			{
				"x": 2.6952399809,
				"y": -0.5280562782,
				"z": 0.7975060748,
				"element": "O" 
			},
			{
				"x": 1.566925782,
				"y": -0.7727555779,
				"z": 0.0677570777,
				"element": "C" 
			},
			{
				"x": 1.5978062144,
				"y": -1.3810316997,
				"z": -1.1704673627,
				"element": "C" 
			},
			{
				"x": 0.3948821167,
				"y": -1.6177200127,
				"z": -1.8722435364,
				"element": "C" 
			},
			{
				"x": -0.8154139432,
				"y": -1.2361073978,
				"z": -1.3412179301,
				"element": "C" 
			},
			{
				"x": -0.8769034138,
				"y": -0.5912688238,
				"z": -0.0744564749,
				"element": "C" 
			},
			{
				"x": -2.1052492284,
				"y": -0.1573394923,
				"z": 0.5159289512,
				"element": "C" 
			},
			{
				"x": -3.3057420217,
				"y": -0.3132298635,
				"z": -0.120182942,
				"element": "O" 
			},
			{
				"x": -2.1226479103,
				"y": 0.4292819908,
				"z": 1.7658464336,
				"element": "C" 
			},
			{
				"x": -0.9215317719,
				"y": 0.6246764312,
				"z": 2.4774943811,
				"element": "C" 
			},
			{
				"x": 0.2898936949,
				"y": 0.2478618248,
				"z": 1.9393373858,
				"element": "C" 
			},
			{
				"x": 0.332430286,
				"y": -0.3624808981,
				"z": 0.6607831892,
				"element": "C" 
			},
			{
				"x": 3.462597171,
				"y": -0.8495988124,
				"z": 0.3069856922,
				"element": "H" 
			},
			{
				"x": 2.5481719946,
				"y": -1.686210202,
				"z": -1.6030691117,
				"element": "H" 
			},
			{
				"x": 0.4345387487,
				"y": -2.1133174416,
				"z": -2.8375500025,
				"element": "H" 
			},
			{
				"x": -1.7221020625,
				"y": -1.4637533217,
				"z": -1.8959798884,
				"element": "H" 
			},
			{
				"x": -3.1556346019,
				"y": -0.5396775021,
				"z": -1.0457533646,
				"element": "H" 
			},
			{
				"x": -3.0763789523,
				"y": 0.7416244586,
				"z": 2.1780365281,
				"element": "H" 
			},
			{
				"x": -0.9590164746,
				"y": 1.0895988429,
				"z": 3.4583453581,
				"element": "H" 
			},
			{
				"x": 1.2163343914,
				"y": 0.4066037756,
				"z": 2.4774995415,
				"element": "H" 
			}
		],
		 "valence_orbital": [ 
			{
				"type": "occ",
				"energy": -0.32921,
				"method": "rhf"
			},
			{
				"type": "occ",
				"energy": -0.31436,
				"method": "rhf"
			},
			{
				"type": "occ",
				"energy": -0.24693,
				"method": "rhf"
			},
			{
				"type": "occ",
				"energy": -0.24187,
				"method": "rhf"
			},
			{
				"type": "occ",
				"energy": -0.19309,
				"method": "rhf"
			},
			{
				"type": "unocc",
				"energy": -0.02652,
				"method": "rhf"
			},
			{
				"type": "unocc",
				"energy": -0.009,
				"method": "rhf"
			},
			{
				"type": "unocc",
				"energy": 0.05015,
				"method": "rhf"
			},
			{
				"type": "unocc",
				"energy": 0.06181,
				"method": "rhf"
			},
			{
				"type": "unocc",
				"energy": 0.06951,
				"method": "rhf"
			}
		],
		"cosmo_sigma_profile": { 
			"-0.025": 0.0,
			"-0.024": 0.0,
			"-0.023": 0.0,
			"-0.022": 0.0,
			"-0.021": 0.0,
			"-0.02": 0.0,
			"-0.019": 0.0,
			"-0.018": 0.531297448275,
			"-0.017": 2.12561551784,
			"-0.016": 1.69370269145,
			"-0.015": 1.94798615933,
			"-0.014": 1.83330576823,
			"-0.013": 2.04814090108,
			"-0.012": 1.32609102857,
			"-0.011": 2.20411719688,
			"-0.01": 2.01023312071,
			"-0.009": 2.2115728055,
			"-0.008": 2.11611529431,
			"-0.007": 2.54473372302,
			"-0.006": 6.50493102899,
			"-0.005": 10.7564256218,
			"-0.004": 11.8453930664,
			"-0.003": 9.76139226002,
			"-0.002": 8.00111865931,
			"-0.001": 7.26619382278,
			"0.0": 7.83558151011,
			"0.001": 8.44833208224,
			"0.002": 11.6748470763,
			"0.003": 16.2434171856,
			"0.004": 23.3579197971,
			"0.005": 20.0242356926,
			"0.006": 8.79128769129,
			"0.007": 2.61086432495,
			"0.008": 3.33143764679,
			"0.009": 3.99432171757,
			"0.01": 2.40437963272,
			"0.011": 1.91498891392,
			"0.012": 0.46573353039,
			"0.013": 0.0,
			"0.014": 0.0,
			"0.015": 0.0,
			"0.016": 0.0,
			"0.017": 0.0,
			"0.018": 0.0,
			"0.019": 0.0,
			"0.02": 0.0,
			"0.021": 0.0,
			"0.022": 0.0,
			"0.023": 0.0,
			"0.024": 0.0,
			"0.025": 0.0
		}
	}
}
