{
	 "smiles": "COC1=C(C=C(C=C1)C(=O)C1=CC=CC(Cl)=C1)[N+]([O-])=O", 
	 "Tm": 385.15, 
	 "num_atms": 30, 
	 "gaussian": { 
		 "optdone": 1, 
		 "sigma_profile": "yes", 
		 "theory": "DFT", 
		 "functional": "B3LYP", 
		 "basiset": "6-31G**", 
		 "properties": { 
			 "R2extent": 9759.4562, 
			 "electric_dipole_moment_norm": 6.1415765997, 
			 "electric_quadrupole_moment_norm": 26.8586249557, 
			 "total_energy": -1355.23157343, 
			 "HOMO_LUMO_gap": 0.1723, 
			 "cosmo_polarized_energy": -14.98, 
			 "cosmo_cavitation_energy": 37.85, 
			 "cosmo_dispersion_energy": -27.04, 
			 "cosmo_repulsion_energy": 2.07, 
			 "cosmo_total_nonelectrostatic_energy": 12.88, 
			 "SMD_solvation_energy": 9.45 
		},
		"coords": [
			{
				"x": 1.9570812308,
				"y": 3.0084988029,
				"z": 5.1025747925,
				"element": "C" 
			},
			{
				"x": 1.9694124571,
				"y": 1.6300880927,
				"z": 4.6985487033,
				"element": "O" 
			},
			{
				"x": 1.8529847572,
				"y": 1.3932153595,
				"z": 3.3656416161,
				"element": "C" 
			},
			{
				"x": 2.9639360102,
				"y": 1.0708212581,
				"z": 2.5594568326,
				"element": "C" 
			},
			{
				"x": 2.8108246749,
				"y": 0.7084736675,
				"z": 1.2267953295,
				"element": "C" 
			},
			{
				"x": 1.5382040162,
				"y": 0.6688218533,
				"z": 0.6471329085,
				"element": "C" 
			},
			{
				"x": 0.4262203895,
				"y": 1.0068919495,
				"z": 1.4354770083,
				"element": "C" 
			},
			{
				"x": 0.5852895743,
				"y": 1.3583312861,
				"z": 2.77255624,
				"element": "C" 
			},
			{
				"x": 1.4534492602,
				"y": 0.3501262113,
				"z": -0.8176168403,
				"element": "C" 
			},
			{
				"x": 2.4049031033,
				"y": 0.6000351372,
				"z": -1.5462557967,
				"element": "O" 
			},
			{
				"x": 0.2109904988,
				"y": -0.2679264287,
				"z": -1.3906892456,
				"element": "C" 
			},
			{
				"x": -0.6286404881,
				"y": -1.1210284151,
				"z": -0.6593874393,
				"element": "C" 
			},
			{
				"x": -1.7281390004,
				"y": -1.7172494238,
				"z": -1.2780093875,
				"element": "C" 
			},
			{
				"x": -2.0107204184,
				"y": -1.4619879323,
				"z": -2.6194228779,
				"element": "C" 
			},
			{
				"x": -1.1642039849,
				"y": -0.6167013953,
				"z": -3.3417333603,
				"element": "C" 
			},
			{
				"x": -1.5101630963,
				"y": -0.2980698814,
				"z": -5.0335225943,
				"element": "Cl" 
			},
			{
				"x": -0.0528006578,
				"y": -0.0305238992,
				"z": -2.7486415501,
				"element": "C" 
			},
			{
				"x": 4.3329599145,
				"y": 1.1065691741,
				"z": 3.0951627782,
				"element": "N" 
			},
			{
				"x": 5.1383705283,
				"y": 0.3064100709,
				"z": 2.6231738132,
				"element": "O" 
			},
			{
				"x": 4.5932239135,
				"y": 1.9443836888,
				"z": 3.956418892,
				"element": "O" 
			},
			{
				"x": 1.9821717793,
				"y": 2.999710668,
				"z": 6.1927315395,
				"element": "H" 
			},
			{
				"x": 2.8397146222,
				"y": 3.5240822169,
				"z": 4.7159965285,
				"element": "H" 
			},
			{
				"x": 1.0430358597,
				"y": 3.5092158018,
				"z": 4.761211608,
				"element": "H" 
			},
			{
				"x": 3.6830756082,
				"y": 0.4645184568,
				"z": 0.6325620792,
				"element": "H" 
			},
			{
				"x": -0.5674451167,
				"y": 1.0066175813,
				"z": 1.0007456452,
				"element": "H" 
			},
			{
				"x": -0.2740650676,
				"y": 1.5935467904,
				"z": 3.3920822884,
				"element": "H" 
			},
			{
				"x": -0.4089464987,
				"y": -1.3442777187,
				"z": 0.3787893198,
				"element": "H" 
			},
			{
				"x": -2.3693568734,
				"y": -2.3883841078,
				"z": -0.7148617007,
				"element": "H" 
			},
			{
				"x": -2.8686371556,
				"y": -1.9138180686,
				"z": -3.1049597501,
				"element": "H" 
			},
			{
				"x": 0.6181701597,
				"y": 0.6036092039,
				"z": -3.3160573801,
				"element": "H" 
			}
		],
		 "valence_orbital": [ 
			{
				"type": "occ",
				"energy": -0.28347,
				"method": "rhf"
			},
			{
				"type": "occ",
				"energy": -0.28275,
				"method": "rhf"
			},
			{
				"type": "occ",
				"energy": -0.27525,
				"method": "rhf"
			},
			{
				"type": "occ",
				"energy": -0.26447,
				"method": "rhf"
			},
			{
				"type": "occ",
				"energy": -0.26369,
				"method": "rhf"
			},
			{
				"type": "unocc",
				"energy": -0.09139,
				"method": "rhf"
			},
			{
				"type": "unocc",
				"energy": -0.08347,
				"method": "rhf"
			},
			{
				"type": "unocc",
				"energy": -0.0361,
				"method": "rhf"
			},
			{
				"type": "unocc",
				"energy": -0.03141,
				"method": "rhf"
			},
			{
				"type": "unocc",
				"energy": -0.02034,
				"method": "rhf"
			}
		],
		"cosmo_sigma_profile": { 
			"-0.025": 0.0,
			"-0.024": 0.0,
			"-0.023": 0.0,
			"-0.022": 0.0,
			"-0.021": 0.0,
			"-0.02": 0.0,
			"-0.019": 0.0,
			"-0.018": 0.0,
			"-0.017": 0.0,
			"-0.016": 0.0,
			"-0.015": 0.0,
			"-0.014": 0.0,
			"-0.013": 0.0,
			"-0.012": 0.0,
			"-0.011": 0.0,
			"-0.01": 0.0,
			"-0.009": 0.099908425044,
			"-0.008": 4.73370243194,
			"-0.007": 12.8941022803,
			"-0.006": 19.6041936046,
			"-0.005": 21.6329211041,
			"-0.004": 24.6481816457,
			"-0.003": 24.6292788704,
			"-0.002": 20.0090459901,
			"-0.001": 21.5540227002,
			"0.0": 24.6431814116,
			"0.001": 26.1604108262,
			"0.002": 22.5127550858,
			"0.003": 14.2618677906,
			"0.004": 15.3794906782,
			"0.005": 9.10440810417,
			"0.006": 7.26048096535,
			"0.007": 10.8874636901,
			"0.008": 10.1423985026,
			"0.009": 6.63887058233,
			"0.01": 4.91110794409,
			"0.011": 4.00152470144,
			"0.012": 0.986307541057,
			"0.013": 0.0,
			"0.014": 0.0,
			"0.015": 0.0,
			"0.016": 0.0,
			"0.017": 0.0,
			"0.018": 0.0,
			"0.019": 0.0,
			"0.02": 0.0,
			"0.021": 0.0,
			"0.022": 0.0,
			"0.023": 0.0,
			"0.024": 0.0,
			"0.025": 0.0
		}
	}
}
