{
	 "smiles": "CC1=NN(C(NC2=C(Cl)N=C3C=CC=CC3=N2)=C1)C1=CC=CC=C1", 
	 "Tm": 452.15, 
	 "num_atms": 38, 
	 "gaussian": { 
		 "optdone": 1, 
		 "sigma_profile": "yes", 
		 "theory": "DFT", 
		 "functional": "B3LYP", 
		 "basiset": "6-31G**", 
		 "properties": { 
			 "R2extent": 10380.4472, 
			 "electric_dipole_moment_norm": 0.832478504227, 
			 "electric_quadrupole_moment_norm": 20.3333002688, 
			 "total_energy": -1428.30193045, 
			 "HOMO_LUMO_gap": 0.13441, 
			 "cosmo_polarized_energy": -12.1, 
			 "cosmo_cavitation_energy": 44.51, 
			 "cosmo_dispersion_energy": -31.61, 
			 "cosmo_repulsion_energy": 2.37, 
			 "cosmo_total_nonelectrostatic_energy": 15.27, 
			 "SMD_solvation_energy": 3.99 
		},
		"coords": [
			{
				"x": -1.0077494005,
				"y": -2.7700099226,
				"z": 3.747116577,
				"element": "C" 
			},
			{
				"x": -0.6346158046,
				"y": -2.1959738981,
				"z": 2.4146221186,
				"element": "C" 
			},
			{
				"x": 0.2836426826,
				"y": -2.7929493904,
				"z": 1.6633758141,
				"element": "N" 
			},
			{
				"x": 0.3646408528,
				"y": -2.0361024011,
				"z": 0.523653238,
				"element": "N" 
			},
			{
				"x": -0.4840685845,
				"y": -0.9515432061,
				"z": 0.5863773685,
				"element": "C" 
			},
			{
				"x": -0.4905585061,
				"y": -0.0087901206,
				"z": -0.4364560329,
				"element": "N" 
			},
			{
				"x": -1.3019452082,
				"y": 1.0930405181,
				"z": -0.5359908922,
				"element": "C" 
			},
			{
				"x": -1.1256318078,
				"y": 2.004983628,
				"z": -1.6503282256,
				"element": "C" 
			},
			{
				"x": 0.1441916654,
				"y": 1.6630703163,
				"z": -2.8415664933,
				"element": "Cl" 
			},
			{
				"x": -1.8433865152,
				"y": 3.0567392871,
				"z": -1.8286482224,
				"element": "N" 
			},
			{
				"x": -2.8284580803,
				"y": 3.3215942489,
				"z": -0.9108622755,
				"element": "C" 
			},
			{
				"x": -3.6452522234,
				"y": 4.4636704803,
				"z": -1.0623270162,
				"element": "C" 
			},
			{
				"x": -4.634872412,
				"y": 4.7230785003,
				"z": -0.1355398118,
				"element": "C" 
			},
			{
				"x": -4.8317910611,
				"y": 3.8507716926,
				"z": 0.9608363086,
				"element": "C" 
			},
			{
				"x": -4.0439804249,
				"y": 2.7292062342,
				"z": 1.1269694362,
				"element": "C" 
			},
			{
				"x": -3.0214256846,
				"y": 2.4389701566,
				"z": 0.192070644,
				"element": "C" 
			},
			{
				"x": -2.2404126542,
				"y": 1.3315610844,
				"z": 0.3558856788,
				"element": "N" 
			},
			{
				"x": -1.1560988872,
				"y": -1.0330776022,
				"z": 1.7914598866,
				"element": "C" 
			},
			{
				"x": 1.2989155576,
				"y": -2.3934987908,
				"z": -0.4833231144,
				"element": "C" 
			},
			{
				"x": 2.5789229746,
				"y": -2.8148397158,
				"z": -0.1010969649,
				"element": "C" 
			},
			{
				"x": 3.5035367185,
				"y": -3.1788565963,
				"z": -1.0763628045,
				"element": "C" 
			},
			{
				"x": 3.1691162977,
				"y": -3.1133286815,
				"z": -2.4322983183,
				"element": "C" 
			},
			{
				"x": 1.8905201449,
				"y": -2.7026813143,
				"z": -2.8080699469,
				"element": "C" 
			},
			{
				"x": 0.9465131594,
				"y": -2.356338966,
				"z": -1.8388935648,
				"element": "C" 
			},
			{
				"x": -2.0658521802,
				"y": -3.0531724843,
				"z": 3.7764801996,
				"element": "H" 
			},
			{
				"x": -0.4065053332,
				"y": -3.6590616291,
				"z": 3.9492912122,
				"element": "H" 
			},
			{
				"x": -0.8416027262,
				"y": -2.0462908405,
				"z": 4.5528564964,
				"element": "H" 
			},
			{
				"x": 0.2350445476,
				"y": -0.0913534628,
				"z": -1.136402433,
				"element": "H" 
			},
			{
				"x": -3.4685304148,
				"y": 5.1120576431,
				"z": -1.9142791869,
				"element": "H" 
			},
			{
				"x": -5.2668799097,
				"y": 5.5989129124,
				"z": -0.2451140616,
				"element": "H" 
			},
			{
				"x": -5.6150804381,
				"y": 4.06870637,
				"z": 1.6809927962,
				"element": "H" 
			},
			{
				"x": -4.1846192843,
				"y": 2.0513387599,
				"z": 1.9624454775,
				"element": "H" 
			},
			{
				"x": -1.8980706961,
				"y": -0.343470622,
				"z": 2.1524146766,
				"element": "H" 
			},
			{
				"x": 2.820368004,
				"y": -2.8598173444,
				"z": 0.9542979072,
				"element": "H" 
			},
			{
				"x": 4.4942540535,
				"y": -3.5071859859,
				"z": -0.7760862664,
				"element": "H" 
			},
			{
				"x": 3.8977349371,
				"y": -3.389514922,
				"z": -3.188331307,
				"element": "H" 
			},
			{
				"x": 1.6127764291,
				"y": -2.669818278,
				"z": -3.8573209943,
				"element": "H" 
			},
			{
				"x": -0.0648897874,
				"y": -2.0947256573,
				"z": -2.1323479032,
				"element": "H" 
			}
		],
		 "valence_orbital": [ 
			{
				"type": "occ",
				"energy": -0.26257,
				"method": "rhf"
			},
			{
				"type": "occ",
				"energy": -0.25897,
				"method": "rhf"
			},
			{
				"type": "occ",
				"energy": -0.2493,
				"method": "rhf"
			},
			{
				"type": "occ",
				"energy": -0.22682,
				"method": "rhf"
			},
			{
				"type": "occ",
				"energy": -0.20642,
				"method": "rhf"
			},
			{
				"type": "unocc",
				"energy": -0.07201,
				"method": "rhf"
			},
			{
				"type": "unocc",
				"energy": -0.02974,
				"method": "rhf"
			},
			{
				"type": "unocc",
				"energy": -0.01724,
				"method": "rhf"
			},
			{
				"type": "unocc",
				"energy": -0.01507,
				"method": "rhf"
			},
			{
				"type": "unocc",
				"energy": 0.0047,
				"method": "rhf"
			}
		],
		"cosmo_sigma_profile": { 
			"-0.025": 0.0,
			"-0.024": 0.0,
			"-0.023": 0.0,
			"-0.022": 0.0,
			"-0.021": 0.0,
			"-0.02": 0.0,
			"-0.019": 0.0,
			"-0.018": 0.0,
			"-0.017": 0.0,
			"-0.016": 0.0,
			"-0.015": 0.0,
			"-0.014": 0.0,
			"-0.013": 0.0,
			"-0.012": 0.0,
			"-0.011": 0.0617699904533,
			"-0.01": 0.59408632564,
			"-0.009": 0.719110338944,
			"-0.008": 1.51764585592,
			"-0.007": 7.29031307989,
			"-0.006": 20.0435333755,
			"-0.005": 24.8195025376,
			"-0.004": 29.5693652529,
			"-0.003": 25.1617689029,
			"-0.002": 27.9645990264,
			"-0.001": 29.7795198205,
			"0.0": 30.1696791914,
			"0.001": 28.2114372801,
			"0.002": 31.71718342,
			"0.003": 33.4440782795,
			"0.004": 30.8985144431,
			"0.005": 14.0415492812,
			"0.006": 6.61220374159,
			"0.007": 4.53656184855,
			"0.008": 3.07742044296,
			"0.009": 2.66617825913,
			"0.01": 2.42621182807,
			"0.011": 1.97662787346,
			"0.012": 1.44577469349,
			"0.013": 0.871648463943,
			"0.014": 0.863381176409,
			"0.015": 0.570775872857,
			"0.016": 0.0634484435252,
			"0.017": 0.0,
			"0.018": 0.0,
			"0.019": 0.0,
			"0.02": 0.0,
			"0.021": 0.0,
			"0.022": 0.0,
			"0.023": 0.0,
			"0.024": 0.0,
			"0.025": 0.0
		}
	}
}
