{
	 "smiles": "CCN(CC1=CC=CC=C1)C1=CC=CC=C1", 
	 "Tm": 308.15, 
	 "num_atms": 33, 
	 "gaussian": { 
		 "optdone": 1, 
		 "sigma_profile": "yes", 
		 "theory": "DFT", 
		 "functional": "B3LYP", 
		 "basiset": "6-31G**", 
		 "properties": { 
			 "R2extent": 4190.3261, 
			 "electric_dipole_moment_norm": 1.60300679974, 
			 "electric_quadrupole_moment_norm": 5.02597390164, 
			 "total_energy": -636.591880328, 
			 "HOMO_LUMO_gap": 0.18151, 
			 "cosmo_polarized_energy": -6.74, 
			 "cosmo_cavitation_energy": 34.38, 
			 "cosmo_dispersion_energy": -24.37, 
			 "cosmo_repulsion_energy": 1.9, 
			 "cosmo_total_nonelectrostatic_energy": 11.91, 
			 "SMD_solvation_energy": 5.51 
		},
		"coords": [
			{
				"x": -2.0077802709,
				"y": -1.9696541068,
				"z": 1.771243411,
				"element": "C" 
			},
			{
				"x": -1.2059761398,
				"y": -0.7346670169,
				"z": 2.2035430532,
				"element": "C" 
			},
			{
				"x": -0.5456051621,
				"y": -0.023989461,
				"z": 1.1102261743,
				"element": "N" 
			},
			{
				"x": 0.9020807162,
				"y": -0.1135084386,
				"z": 1.0170114733,
				"element": "C" 
			},
			{
				"x": 1.4723717918,
				"y": -1.2137242679,
				"z": 0.123949917,
				"element": "C" 
			},
			{
				"x": 2.8230400858,
				"y": -1.5644253886,
				"z": 0.2577602502,
				"element": "C" 
			},
			{
				"x": 3.3916431907,
				"y": -2.5440645246,
				"z": -0.5551309504,
				"element": "C" 
			},
			{
				"x": 2.6137400109,
				"y": -3.1927149107,
				"z": -1.5176498992,
				"element": "C" 
			},
			{
				"x": 1.2684949907,
				"y": -2.8515639174,
				"z": -1.6569801137,
				"element": "C" 
			},
			{
				"x": 0.7013017424,
				"y": -1.8682360552,
				"z": -0.8417985456,
				"element": "C" 
			},
			{
				"x": -1.2671426389,
				"y": 0.8153467788,
				"z": 0.2592727575,
				"element": "C" 
			},
			{
				"x": -0.6640974358,
				"y": 1.4003273016,
				"z": -0.8788229069,
				"element": "C" 
			},
			{
				"x": -1.3780354518,
				"y": 2.2646467537,
				"z": -1.7051790631,
				"element": "C" 
			},
			{
				"x": -2.7151258151,
				"y": 2.5703773127,
				"z": -1.4490825824,
				"element": "C" 
			},
			{
				"x": -3.328501269,
				"y": 1.9794533289,
				"z": -0.3443817546,
				"element": "C" 
			},
			{
				"x": -2.6286406244,
				"y": 1.1157507904,
				"z": 0.4954375839,
				"element": "C" 
			},
			{
				"x": -2.4884380042,
				"y": -2.4328805687,
				"z": 2.6401291325,
				"element": "H" 
			},
			{
				"x": -2.7892993289,
				"y": -1.7045891463,
				"z": 1.0534049357,
				"element": "H" 
			},
			{
				"x": -1.3542692783,
				"y": -2.7108573316,
				"z": 1.3030063563,
				"element": "H" 
			},
			{
				"x": -1.8532281,
				"y": -0.0422896984,
				"z": 2.7584219348,
				"element": "H" 
			},
			{
				"x": -0.426273972,
				"y": -1.0427114544,
				"z": 2.9062947535,
				"element": "H" 
			},
			{
				"x": 1.29822999,
				"y": -0.2539065229,
				"z": 2.030017831,
				"element": "H" 
			},
			{
				"x": 1.294388105,
				"y": 0.856427255,
				"z": 0.6851804752,
				"element": "H" 
			},
			{
				"x": 3.4342224984,
				"y": -1.067583548,
				"z": 1.008910782,
				"element": "H" 
			},
			{
				"x": 4.4392933731,
				"y": -2.8056515213,
				"z": -0.4340718833,
				"element": "H" 
			},
			{
				"x": 3.0532670634,
				"y": -3.9585278473,
				"z": -2.150288091,
				"element": "H" 
			},
			{
				"x": 0.6549650796,
				"y": -3.3502638413,
				"z": -2.4022952288,
				"element": "H" 
			},
			{
				"x": -0.3453200496,
				"y": -1.6056629295,
				"z": -0.9545394315,
				"element": "H" 
			},
			{
				"x": 0.3594957553,
				"y": 1.1590119088,
				"z": -1.1393575224,
				"element": "H" 
			},
			{
				"x": -0.8770719663,
				"y": 2.6940250704,
				"z": -2.5689172887,
				"element": "H" 
			},
			{
				"x": -3.2674783788,
				"y": 3.2405855793,
				"z": -2.0999931356,
				"element": "H" 
			},
			{
				"x": -4.3719795869,
				"y": 2.1898370722,
				"z": -0.1243245464,
				"element": "H" 
			},
			{
				"x": -3.1492709204,
				"y": 0.6810833456,
				"z": 1.3396021219,
				"element": "H" 
			}
		],
		 "valence_orbital": [ 
			{
				"type": "occ",
				"energy": -0.27857,
				"method": "rhf"
			},
			{
				"type": "occ",
				"energy": -0.24807,
				"method": "rhf"
			},
			{
				"type": "occ",
				"energy": -0.2425,
				"method": "rhf"
			},
			{
				"type": "occ",
				"energy": -0.23637,
				"method": "rhf"
			},
			{
				"type": "occ",
				"energy": -0.18511,
				"method": "rhf"
			},
			{
				"type": "unocc",
				"energy": -0.0036,
				"method": "rhf"
			},
			{
				"type": "unocc",
				"energy": 0.00262,
				"method": "rhf"
			},
			{
				"type": "unocc",
				"energy": 0.01126,
				"method": "rhf"
			},
			{
				"type": "unocc",
				"energy": 0.02511,
				"method": "rhf"
			},
			{
				"type": "unocc",
				"energy": 0.09029,
				"method": "rhf"
			}
		],
		"cosmo_sigma_profile": { 
			"-0.025": 0.0,
			"-0.024": 0.0,
			"-0.023": 0.0,
			"-0.022": 0.0,
			"-0.021": 0.0,
			"-0.02": 0.0,
			"-0.019": 0.0,
			"-0.018": 0.0,
			"-0.017": 0.0,
			"-0.016": 0.0,
			"-0.015": 0.0,
			"-0.014": 0.0,
			"-0.013": 0.0,
			"-0.012": 0.0,
			"-0.011": 0.0,
			"-0.01": 0.0,
			"-0.009": 0.0,
			"-0.008": 0.0,
			"-0.007": 0.114322132771,
			"-0.006": 4.70561896444,
			"-0.005": 22.2656540747,
			"-0.004": 25.7857618584,
			"-0.003": 30.7340911507,
			"-0.002": 29.7888920594,
			"-0.001": 25.3653375578,
			"0.0": 24.4725399456,
			"0.001": 21.0631380786,
			"0.002": 16.5915360387,
			"0.003": 13.9443899472,
			"0.004": 13.9458694308,
			"0.005": 15.4889481025,
			"0.006": 13.9293972414,
			"0.007": 10.5882693233,
			"0.008": 3.82684787287,
			"0.009": 0.0,
			"0.01": 0.0,
			"0.011": 0.0,
			"0.012": 0.0,
			"0.013": 0.0,
			"0.014": 0.0,
			"0.015": 0.0,
			"0.016": 0.0,
			"0.017": 0.0,
			"0.018": 0.0,
			"0.019": 0.0,
			"0.02": 0.0,
			"0.021": 0.0,
			"0.022": 0.0,
			"0.023": 0.0,
			"0.024": 0.0,
			"0.025": 0.0
		}
	}
}
