{
	 "smiles": "FC1=C(Cl)C=C(NC2=NC=CS2)C=C1", 
	 "Tm": 398.15, 
	 "num_atms": 20, 
	 "gaussian": { 
		 "optdone": 1, 
		 "sigma_profile": "yes", 
		 "theory": "DFT", 
		 "functional": "B3LYP", 
		 "basiset": "6-31G**", 
		 "properties": { 
			 "R2extent": 4526.9612, 
			 "electric_dipole_moment_norm": 2.07565261304, 
			 "electric_quadrupole_moment_norm": 14.9879042047, 
			 "total_energy": -1414.2740147, 
			 "HOMO_LUMO_gap": 0.17404, 
			 "cosmo_polarized_energy": -9.53, 
			 "cosmo_cavitation_energy": 28.56, 
			 "cosmo_dispersion_energy": -21.69, 
			 "cosmo_repulsion_energy": 1.62, 
			 "cosmo_total_nonelectrostatic_energy": 8.49, 
			 "SMD_solvation_energy": 3.62 
		},
		"coords": [
			{
				"x": -0.8167225785,
				"y": 4.0636077259,
				"z": -2.9026841568,
				"element": "F" 
			},
			{
				"x": -0.9203324475,
				"y": 3.0973349732,
				"z": -1.9761026663,
				"element": "C" 
			},
			{
				"x": 0.2245289863,
				"y": 2.5450372534,
				"z": -1.4053106868,
				"element": "C" 
			},
			{
				"x": 1.79591262,
				"y": 3.1321250901,
				"z": -1.8874806386,
				"element": "Cl" 
			},
			{
				"x": 0.1204034869,
				"y": 1.5420756287,
				"z": -0.4415220939,
				"element": "C" 
			},
			{
				"x": -1.1434511949,
				"y": 1.0674480188,
				"z": -0.058959582,
				"element": "C" 
			},
			{
				"x": -1.3270222437,
				"y": 0.0692319922,
				"z": 0.9034385474,
				"element": "N" 
			},
			{
				"x": -0.4833951256,
				"y": -0.9034577716,
				"z": 1.38720894,
				"element": "C" 
			},
			{
				"x": -0.8462084435,
				"y": -1.6497495651,
				"z": 2.3980615242,
				"element": "N" 
			},
			{
				"x": 0.109086465,
				"y": -2.603574984,
				"z": 2.6629419489,
				"element": "C" 
			},
			{
				"x": 1.2136971039,
				"y": -2.6020831066,
				"z": 1.8694784532,
				"element": "C" 
			},
			{
				"x": 1.0794733808,
				"y": -1.3307787507,
				"z": 0.6782484569,
				"element": "S" 
			},
			{
				"x": -2.290844625,
				"y": 1.6378095454,
				"z": -0.6404174752,
				"element": "C" 
			},
			{
				"x": -2.1778353447,
				"y": 2.6494314768,
				"z": -1.5857762009,
				"element": "C" 
			},
			{
				"x": 1.0264329076,
				"y": 1.1705456046,
				"z": 0.0183049658,
				"element": "H" 
			},
			{
				"x": -2.2415014694,
				"y": 0.0131734235,
				"z": 1.3317890075,
				"element": "H" 
			},
			{
				"x": -0.0567680902,
				"y": -3.2926371821,
				"z": 3.4831187017,
				"element": "H" 
			},
			{
				"x": 2.0905803179,
				"y": -3.2310571333,
				"z": 1.9099559282,
				"element": "H" 
			},
			{
				"x": -3.2743305318,
				"y": 1.2778642271,
				"z": -0.352753287,
				"element": "H" 
			},
			{
				"x": -3.0560031736,
				"y": 3.0941535337,
				"z": -2.0410396864,
				"element": "H" 
			}
		],
		 "valence_orbital": [ 
			{
				"type": "occ",
				"energy": -0.28571,
				"method": "rhf"
			},
			{
				"type": "occ",
				"energy": -0.28263,
				"method": "rhf"
			},
			{
				"type": "occ",
				"energy": -0.26725,
				"method": "rhf"
			},
			{
				"type": "occ",
				"energy": -0.25553,
				"method": "rhf"
			},
			{
				"type": "occ",
				"energy": -0.20594,
				"method": "rhf"
			},
			{
				"type": "unocc",
				"energy": -0.0319,
				"method": "rhf"
			},
			{
				"type": "unocc",
				"energy": -0.0295,
				"method": "rhf"
			},
			{
				"type": "unocc",
				"energy": 0.00903,
				"method": "rhf"
			},
			{
				"type": "unocc",
				"energy": 0.01597,
				"method": "rhf"
			},
			{
				"type": "unocc",
				"energy": 0.02029,
				"method": "rhf"
			}
		],
		"cosmo_sigma_profile": { 
			"-0.025": 0.0,
			"-0.024": 0.0,
			"-0.023": 0.0,
			"-0.022": 0.0,
			"-0.021": 0.0,
			"-0.02": 0.0,
			"-0.019": 0.0,
			"-0.018": 0.0,
			"-0.017": 0.0,
			"-0.016": 0.0597387608201,
			"-0.015": 0.946291990994,
			"-0.014": 1.42980001995,
			"-0.013": 1.03404644199,
			"-0.012": 0.99484641571,
			"-0.011": 0.97161781961,
			"-0.01": 1.49319334524,
			"-0.009": 2.25560110389,
			"-0.008": 6.47433367112,
			"-0.007": 8.06288130288,
			"-0.006": 8.58390163638,
			"-0.005": 9.32404875403,
			"-0.004": 8.39060625091,
			"-0.003": 9.68352110806,
			"-0.002": 11.2011832551,
			"-0.001": 15.4937978601,
			"0.0": 23.5115645508,
			"0.001": 29.2054563221,
			"0.002": 26.4663540617,
			"0.003": 24.5697342216,
			"0.004": 24.8882851194,
			"0.005": 8.78258404124,
			"0.006": 1.42028407732,
			"0.007": 1.71167143062,
			"0.008": 1.06347404339,
			"0.009": 1.63276668213,
			"0.01": 0.701119820282,
			"0.011": 1.33944040434,
			"0.012": 1.00174491803,
			"0.013": 0.541571205062,
			"0.014": 1.27984054697,
			"0.015": 0.466890255786,
			"0.016": 0.00907984448314,
			"0.017": 0.0,
			"0.018": 0.0,
			"0.019": 0.0,
			"0.02": 0.0,
			"0.021": 0.0,
			"0.022": 0.0,
			"0.023": 0.0,
			"0.024": 0.0,
			"0.025": 0.0
		}
	}
}
