{
	 "smiles": "[O-][N+](=O)C1=C2CNCCC2=C(Br)C=C1", 
	 "Tm": 355.15, 
	 "num_atms": 23, 
	 "gaussian": { 
		 "optdone": 1, 
		 "sigma_profile": "yes", 
		 "theory": "DFT", 
		 "functional": "B3LYP", 
		 "basiset": "6-31G**", 
		 "properties": { 
			 "R2extent": 4426.4065, 
			 "electric_dipole_moment_norm": 3.63437053284, 
			 "electric_quadrupole_moment_norm": 9.48176311875, 
			 "total_energy": -3179.63210767, 
			 "HOMO_LUMO_gap": 0.14438, 
			 "cosmo_polarized_energy": -10.14, 
			 "cosmo_cavitation_energy": 28.1, 
			 "cosmo_dispersion_energy": -21.49, 
			 "cosmo_repulsion_energy": 1.67, 
			 "cosmo_total_nonelectrostatic_energy": 8.27, 
			 "SMD_solvation_energy": 2.54 
		},
		"coords": [
			{
				"x": -2.7577169867,
				"y": 0.7808958819,
				"z": -1.333823645,
				"element": "O" 
			},
			{
				"x": -2.006666092,
				"y": 1.2071942618,
				"z": -0.4566068237,
				"element": "N" 
			},
			{
				"x": -2.2648076503,
				"y": 2.1715514265,
				"z": 0.2661073272,
				"element": "O" 
			},
			{
				"x": -0.7311362398,
				"y": 0.4997807615,
				"z": -0.248365992,
				"element": "C" 
			},
			{
				"x": 0.3576279396,
				"y": 1.1123867573,
				"z": 0.4023209596,
				"element": "C" 
			},
			{
				"x": 0.3419140262,
				"y": 2.5716942357,
				"z": 0.8774307045,
				"element": "C" 
			},
			{
				"x": 1.6490386594,
				"y": 3.1478633147,
				"z": 1.1560400839,
				"element": "N" 
			},
			{
				"x": 2.4535735784,
				"y": 2.2572892952,
				"z": 1.984143265,
				"element": "C" 
			},
			{
				"x": 2.7398488033,
				"y": 0.9155067284,
				"z": 1.3002620888,
				"element": "C" 
			},
			{
				"x": 1.5261856262,
				"y": 0.3382665298,
				"z": 0.5949460489,
				"element": "C" 
			},
			{
				"x": 1.5474502423,
				"y": -0.9779148394,
				"z": 0.1063319781,
				"element": "C" 
			},
			{
				"x": 3.1120664293,
				"y": -2.0588740994,
				"z": 0.3156469071,
				"element": "Br" 
			},
			{
				"x": 0.4650319526,
				"y": -1.5573442252,
				"z": -0.5518506769,
				"element": "C" 
			},
			{
				"x": -0.6851341891,
				"y": -0.8067533015,
				"z": -0.7332390662,
				"element": "C" 
			},
			{
				"x": -0.1684097013,
				"y": 3.1957428282,
				"z": 0.1417339298,
				"element": "H" 
			},
			{
				"x": -0.2717487925,
				"y": 2.6355486099,
				"z": 1.7836611607,
				"element": "H" 
			},
			{
				"x": 2.1369511786,
				"y": 3.3363626193,
				"z": 0.2826216544,
				"element": "H" 
			},
			{
				"x": 1.9054678553,
				"y": 2.0930731805,
				"z": 2.9207230839,
				"element": "H" 
			},
			{
				"x": 3.3936184963,
				"y": 2.7521296434,
				"z": 2.2488236657,
				"element": "H" 
			},
			{
				"x": 3.1163075158,
				"y": 0.1856438776,
				"z": 2.0255443481,
				"element": "H" 
			},
			{
				"x": 3.54657073,
				"y": 1.038498679,
				"z": 0.5637048648,
				"element": "H" 
			},
			{
				"x": 0.5251741745,
				"y": -2.5773007036,
				"z": -0.9113780325,
				"element": "H" 
			},
			{
				"x": -1.549707556,
				"y": -1.2107414619,
				"z": -1.2438778343,
				"element": "H" 
			}
		],
		 "valence_orbital": [ 
			{
				"type": "occ",
				"energy": -0.30307,
				"method": "rhf"
			},
			{
				"type": "occ",
				"energy": -0.29347,
				"method": "rhf"
			},
			{
				"type": "occ",
				"energy": -0.27203,
				"method": "rhf"
			},
			{
				"type": "occ",
				"energy": -0.26369,
				"method": "rhf"
			},
			{
				"type": "occ",
				"energy": -0.23549,
				"method": "rhf"
			},
			{
				"type": "unocc",
				"energy": -0.09111,
				"method": "rhf"
			},
			{
				"type": "unocc",
				"energy": -0.03193,
				"method": "rhf"
			},
			{
				"type": "unocc",
				"energy": -0.01384,
				"method": "rhf"
			},
			{
				"type": "unocc",
				"energy": -0.00822,
				"method": "rhf"
			},
			{
				"type": "unocc",
				"energy": 0.07487,
				"method": "rhf"
			}
		],
		"cosmo_sigma_profile": { 
			"-0.025": 0.0,
			"-0.024": 0.0,
			"-0.023": 0.0,
			"-0.022": 0.0,
			"-0.021": 0.0,
			"-0.02": 0.0,
			"-0.019": 0.0,
			"-0.018": 0.0,
			"-0.017": 0.0,
			"-0.016": 0.0,
			"-0.015": 0.0,
			"-0.014": 0.0,
			"-0.013": 0.0,
			"-0.012": 0.0,
			"-0.011": 0.354974376268,
			"-0.01": 1.60190203973,
			"-0.009": 1.56013585125,
			"-0.008": 4.2738613799,
			"-0.007": 6.41390372461,
			"-0.006": 9.18556329286,
			"-0.005": 11.5672243268,
			"-0.004": 21.3540543556,
			"-0.003": 20.304930263,
			"-0.002": 18.1577139782,
			"-0.001": 17.8945798853,
			"0.0": 20.7244231629,
			"0.001": 21.0167300832,
			"0.002": 13.6000424866,
			"0.003": 11.8751728012,
			"0.004": 10.1313939469,
			"0.005": 4.10489646058,
			"0.006": 4.16283136762,
			"0.007": 6.67006279467,
			"0.008": 8.23225643861,
			"0.009": 4.83341769351,
			"0.01": 3.58154652339,
			"0.011": 1.06773898127,
			"0.012": 0.489022946302,
			"0.013": 0.577625031685,
			"0.014": 0.410776660954,
			"0.015": 0.891475247761,
			"0.016": 0.466715560509,
			"0.017": 0.548767695773,
			"0.018": 0.121796729161,
			"0.019": 0.0,
			"0.02": 0.0,
			"0.021": 0.0,
			"0.022": 0.0,
			"0.023": 0.0,
			"0.024": 0.0,
			"0.025": 0.0
		}
	}
}
