{
	 "smiles": "CC(C)=C(C)C(O)=O", 
	 "Tm": 342.15, 
	 "num_atms": 18, 
	 "gaussian": { 
		 "optdone": 1, 
		 "sigma_profile": "yes", 
		 "theory": "DFT", 
		 "functional": "B3LYP", 
		 "basiset": "6-31G**", 
		 "properties": { 
			 "R2extent": 1276.0811, 
			 "electric_dipole_moment_norm": 2.43298136039, 
			 "electric_quadrupole_moment_norm": 6.28146796298, 
			 "total_energy": -385.120696003, 
			 "HOMO_LUMO_gap": 0.21053, 
			 "cosmo_polarized_energy": -7.9, 
			 "cosmo_cavitation_energy": 20.76, 
			 "cosmo_dispersion_energy": -15.35, 
			 "cosmo_repulsion_energy": 1.29, 
			 "cosmo_total_nonelectrostatic_energy": 6.7, 
			 "SMD_solvation_energy": 5.16 
		},
		"coords": [
			{
				"x": -1.9202546162,
				"y": -1.0488195152,
				"z": -1.3789245214,
				"element": "C" 
			},
			{
				"x": -0.6057051523,
				"y": -0.3457761205,
				"z": -1.1295550458,
				"element": "C" 
			},
			{
				"x": 0.4846504319,
				"y": -0.8096026205,
				"z": -2.0681807482,
				"element": "C" 
			},
			{
				"x": -0.3505284328,
				"y": 0.5891225667,
				"z": -0.1801139647,
				"element": "C" 
			},
			{
				"x": 1.0380147535,
				"y": 1.1630079212,
				"z": 0.044325527,
				"element": "C" 
			},
			{
				"x": -1.3665348489,
				"y": 1.1483098818,
				"z": 0.754628831,
				"element": "C" 
			},
			{
				"x": -2.6664084893,
				"y": 0.9472269083,
				"z": 0.4040660567,
				"element": "O" 
			},
			{
				"x": -1.0962135008,
				"y": 1.786016464,
				"z": 1.7577210044,
				"element": "O" 
			},
			{
				"x": -2.4786359819,
				"y": -0.5414285588,
				"z": -2.1765602469,
				"element": "H" 
			},
			{
				"x": -2.5660213587,
				"y": -1.0861332739,
				"z": -0.5052538904,
				"element": "H" 
			},
			{
				"x": -1.7273335564,
				"y": -2.0694693064,
				"z": -1.7277180884,
				"element": "H" 
			},
			{
				"x": 0.8301795581,
				"y": -1.8137464658,
				"z": -1.7859371461,
				"element": "H" 
			},
			{
				"x": 1.3510809222,
				"y": -0.1490421486,
				"z": -2.0951063021,
				"element": "H" 
			},
			{
				"x": 0.0875683969,
				"y": -0.8961918063,
				"z": -3.0865418846,
				"element": "H" 
			},
			{
				"x": 1.3120574582,
				"y": 1.878101216,
				"z": -0.7414047073,
				"element": "H" 
			},
			{
				"x": 1.0640036098,
				"y": 1.6912052022,
				"z": 0.9972235666,
				"element": "H" 
			},
			{
				"x": 1.804700696,
				"y": 0.3836528078,
				"z": 0.0638458373,
				"element": "H" 
			},
			{
				"x": -3.1793198891,
				"y": 1.3754668479,
				"z": 1.109885723,
				"element": "H" 
			}
		],
		 "valence_orbital": [ 
			{
				"type": "occ",
				"energy": -0.35742,
				"method": "rhf"
			},
			{
				"type": "occ",
				"energy": -0.33861,
				"method": "rhf"
			},
			{
				"type": "occ",
				"energy": -0.30938,
				"method": "rhf"
			},
			{
				"type": "occ",
				"energy": -0.26754,
				"method": "rhf"
			},
			{
				"type": "occ",
				"energy": -0.24417,
				"method": "rhf"
			},
			{
				"type": "unocc",
				"energy": -0.03364,
				"method": "rhf"
			},
			{
				"type": "unocc",
				"energy": 0.07945,
				"method": "rhf"
			},
			{
				"type": "unocc",
				"energy": 0.08661,
				"method": "rhf"
			},
			{
				"type": "unocc",
				"energy": 0.09784,
				"method": "rhf"
			},
			{
				"type": "unocc",
				"energy": 0.13043,
				"method": "rhf"
			}
		],
		"cosmo_sigma_profile": { 
			"-0.025": 0.0,
			"-0.024": 0.0,
			"-0.023": 0.0,
			"-0.022": 0.0,
			"-0.021": 0.0,
			"-0.02": 0.0,
			"-0.019": 0.0,
			"-0.018": 0.138314683187,
			"-0.017": 0.787545780651,
			"-0.016": 1.0981894438,
			"-0.015": 0.508103731183,
			"-0.014": 0.651929256314,
			"-0.013": 0.776597183128,
			"-0.012": 0.432960425287,
			"-0.011": 0.783635446297,
			"-0.01": 0.794896335989,
			"-0.009": 0.603623818135,
			"-0.008": 0.408281945259,
			"-0.007": 0.751482642581,
			"-0.006": 1.09710263334,
			"-0.005": 2.52083461053,
			"-0.004": 12.427902947,
			"-0.003": 19.1202241047,
			"-0.002": 18.4819034439,
			"-0.001": 22.5568978311,
			"0.0": 21.3490368005,
			"0.001": 15.1896860395,
			"0.002": 8.33296393076,
			"0.003": 5.71591264132,
			"0.004": 3.64554332509,
			"0.005": 3.75113532886,
			"0.006": 2.37468872957,
			"0.007": 2.67070027826,
			"0.008": 3.05650331393,
			"0.009": 2.0320527851,
			"0.01": 1.25419771975,
			"0.011": 2.16214306564,
			"0.012": 4.90620349782,
			"0.013": 2.23922968854,
			"0.014": 0.0,
			"0.015": 0.0,
			"0.016": 0.0,
			"0.017": 0.0,
			"0.018": 0.0,
			"0.019": 0.0,
			"0.02": 0.0,
			"0.021": 0.0,
			"0.022": 0.0,
			"0.023": 0.0,
			"0.024": 0.0,
			"0.025": 0.0
		}
	}
}
