{
	 "smiles": "OC(=O)CCC1=CC(I)=C(OC2=CC=C(O)C(I)=C2)C(I)=C1", 
	 "Tm": 473.15, 
	 "num_atms": 33, 
	 "gaussian": { 
		 "optdone": 1, 
		 "sigma_profile": "no", 
		 "theory": "DFT", 
		 "functional": "B3LYP", 
		 "basiset": "6-31G**", 
		 "properties": { 
			 "R2extent": 8848.6001, 
			 "electric_dipole_moment_norm": 4.97903223629, 
			 "electric_quadrupole_moment_norm": 23.5109142751, 
			 "total_energy": -913.270276934, 
			 "HOMO_LUMO_gap": 0.15748, 
			 "cosmo_polarized_energy": -262201.09, 
			 "cosmo_cavitation_energy": 47.55, 
			 "cosmo_dispersion_energy": -35.04, 
			 "cosmo_repulsion_energy": 2.71, 
			 "cosmo_total_nonelectrostatic_energy": 15.22, 
			 "SMD_solvation_energy": 6.69 
		},
		"coords": [
			{
				"x": 1.0336723167,
				"y": -0.1014057537,
				"z": -4.9148025404,
				"element": "O" 
			},
			{
				"x": 1.61717921,
				"y": -0.8439667155,
				"z": -3.9405919961,
				"element": "C" 
			},
			{
				"x": 2.6688651239,
				"y": -0.4935682507,
				"z": -3.4640454905,
				"element": "O" 
			},
			{
				"x": 0.8812741363,
				"y": -2.1261720772,
				"z": -3.5609159553,
				"element": "C" 
			},
			{
				"x": 1.4091407888,
				"y": -2.7677628062,
				"z": -2.2645014147,
				"element": "C" 
			},
			{
				"x": 0.9460707658,
				"y": -2.0637713881,
				"z": -1.0035149865,
				"element": "C" 
			},
			{
				"x": 1.6549423023,
				"y": -0.9747994896,
				"z": -0.4801075216,
				"element": "C" 
			},
			{
				"x": 1.2042364758,
				"y": -0.3269301687,
				"z": 0.6696601923,
				"element": "C" 
			},
			{
				"x": 2.3365742156,
				"y": 1.2770591087,
				"z": 1.4517082511,
				"element": "I" 
			},
			{
				"x": 0.0314294549,
				"y": -0.7391400634,
				"z": 1.323115018,
				"element": "C" 
			},
			{
				"x": -0.3665539722,
				"y": -0.1501437993,
				"z": 2.4948317348,
				"element": "O" 
			},
			{
				"x": -1.2441992408,
				"y": 0.9261886371,
				"z": 2.4711984861,
				"element": "C" 
			},
			{
				"x": -1.6045303178,
				"y": 1.444651945,
				"z": 3.7178626846,
				"element": "C" 
			},
			{
				"x": -2.4768478302,
				"y": 2.5201188497,
				"z": 3.7906474448,
				"element": "C" 
			},
			{
				"x": -3.0102924513,
				"y": 3.1039121097,
				"z": 2.6303760631,
				"element": "C" 
			},
			{
				"x": -3.8574570423,
				"y": 4.1521619619,
				"z": 2.7945520836,
				"element": "O" 
			},
			{
				"x": -2.6319424324,
				"y": 2.5651290401,
				"z": 1.3943445062,
				"element": "C" 
			},
			{
				"x": -3.4102902423,
				"y": 3.4154449112,
				"z": -0.3912658832,
				"element": "I" 
			},
			{
				"x": -1.7529551784,
				"y": 1.4815268992,
				"z": 1.3015351292,
				"element": "C" 
			},
			{
				"x": -0.6629800539,
				"y": -1.8414390895,
				"z": 0.8018532445,
				"element": "C" 
			},
			{
				"x": -2.3908533833,
				"y": -2.5633481374,
				"z": 1.7836352161,
				"element": "I" 
			},
			{
				"x": -0.2122718608,
				"y": -2.4934554643,
				"z": -0.3456528144,
				"element": "C" 
			},
			{
				"x": 0.1947172042,
				"y": -0.4991518239,
				"z": -5.1880949477,
				"element": "H" 
			},
			{
				"x": -0.1953761733,
				"y": -1.9272299636,
				"z": -3.4828807983,
				"element": "H" 
			},
			{
				"x": 1.008703258,
				"y": -2.8249292735,
				"z": -4.3995139013,
				"element": "H" 
			},
			{
				"x": 1.0752981968,
				"y": -3.8099022337,
				"z": -2.2355380989,
				"element": "H" 
			},
			{
				"x": 2.5016829687,
				"y": -2.7750658573,
				"z": -2.3092319958,
				"element": "H" 
			},
			{
				"x": 2.5532856059,
				"y": -0.63489032,
				"z": -0.9810901545,
				"element": "H" 
			},
			{
				"x": -1.1934881933,
				"y": 0.995110133,
				"z": 4.6149757252,
				"element": "H" 
			},
			{
				"x": -2.7690897521,
				"y": 2.937578037,
				"z": 4.7483499137,
				"element": "H" 
			},
			{
				"x": -4.151950072,
				"y": 4.4677754957,
				"z": 1.9258039553,
				"element": "H" 
			},
			{
				"x": -1.4732783515,
				"y": 1.0847130498,
				"z": 0.3341790605,
				"element": "H" 
			},
			{
				"x": -0.7611154758,
				"y": -3.3503975026,
				"z": -0.72228021,
				"element": "H" 
			}
		],
		 "valence_orbital": [ 
			{
				"type": "occ",
				"energy": -0.2664,
				"method": "rhf"
			},
			{
				"type": "occ",
				"energy": -0.25225,
				"method": "rhf"
			},
			{
				"type": "occ",
				"energy": -0.25075,
				"method": "rhf"
			},
			{
				"type": "occ",
				"energy": -0.24434,
				"method": "rhf"
			},
			{
				"type": "occ",
				"energy": -0.21611,
				"method": "rhf"
			},
			{
				"type": "unocc",
				"energy": -0.05863,
				"method": "rhf"
			},
			{
				"type": "unocc",
				"energy": -0.04858,
				"method": "rhf"
			},
			{
				"type": "unocc",
				"energy": -0.03711,
				"method": "rhf"
			},
			{
				"type": "unocc",
				"energy": -0.02942,
				"method": "rhf"
			},
			{
				"type": "unocc",
				"energy": -0.02871,
				"method": "rhf"
			}
		],
		"cosmo_sigma_profile": { 
			"0.0": 0.0,
			"0.0": 0.0,
			"0.0": 0.0,
			"0.0": 0.0,
			"0.0": 0.0,
			"0.0": 0.0,
			"0.0": 0.0,
			"0.0": 0.0,
			"0.0": 0.0,
			"0.0": 0.0,
			"0.0": 0.0,
			"0.0": 0.0,
			"0.0": 0.0,
			"0.0": 0.0,
			"0.0": 0.0,
			"0.0": 0.0,
			"0.0": 0.0,
			"0.0": 0.0,
			"0.0": 0.0,
			"0.0": 0.0,
			"0.0": 0.0,
			"0.0": 0.0,
			"0.0": 0.0,
			"0.0": 0.0,
			"0.0": 0.0,
			"0.0": 0.0,
			"0.0": 0.0,
			"0.0": 0.0,
			"0.0": 0.0,
			"0.0": 0.0,
			"0.0": 0.0,
			"0.0": 0.0,
			"0.0": 0.0,
			"0.0": 0.0,
			"0.0": 0.0,
			"0.0": 0.0,
			"0.0": 0.0,
			"0.0": 0.0,
			"0.0": 0.0,
			"0.0": 0.0,
			"0.0": 0.0,
			"0.0": 0.0,
			"0.0": 0.0,
			"0.0": 0.0,
			"0.0": 0.0,
			"0.0": 0.0,
			"0.0": 0.0,
			"0.0": 0.0,
			"0.0": 0.0,
			"0.0": 0.0,
			"0.0": 0.0
		}
	}
}
