{
	 "smiles": "CC(C)C1=C(N)C2=C(C=CC=C2)N=C1C", 
	 "Tm": 397.15, 
	 "num_atms": 31, 
	 "gaussian": { 
		 "optdone": 1, 
		 "sigma_profile": "yes", 
		 "theory": "DFT", 
		 "functional": "B3LYP", 
		 "basiset": "6-31G**", 
		 "properties": { 
			 "R2extent": 3924.0424, 
			 "electric_dipole_moment_norm": 3.26199939454, 
			 "electric_quadrupole_moment_norm": 9.05947245926, 
			 "total_energy": -614.555067504, 
			 "HOMO_LUMO_gap": 0.16917, 
			 "cosmo_polarized_energy": -12.12, 
			 "cosmo_cavitation_energy": 31.74, 
			 "cosmo_dispersion_energy": -23.35, 
			 "cosmo_repulsion_energy": 1.79, 
			 "cosmo_total_nonelectrostatic_energy": 10.18, 
			 "SMD_solvation_energy": 3.76 
		},
		"coords": [
			{
				"x": -0.6143312376,
				"y": -2.2366537432,
				"z": 1.6995849511,
				"element": "C" 
			},
			{
				"x": -0.7066153864,
				"y": -0.7458982231,
				"z": 1.3076026555,
				"element": "C" 
			},
			{
				"x": -0.296986681,
				"y": 0.1679827768,
				"z": 2.4812831369,
				"element": "C" 
			},
			{
				"x": -0.0338831787,
				"y": -0.4528310974,
				"z": -0.0380782351,
				"element": "C" 
			},
			{
				"x": -0.8285875011,
				"y": -0.4283644573,
				"z": -1.1915261514,
				"element": "C" 
			},
			{
				"x": -2.1931041513,
				"y": -0.7001997708,
				"z": -1.1546825227,
				"element": "N" 
			},
			{
				"x": -0.2427212787,
				"y": -0.0656354229,
				"z": -2.4517054367,
				"element": "C" 
			},
			{
				"x": 1.1646080756,
				"y": 0.1487831147,
				"z": -2.47597864,
				"element": "C" 
			},
			{
				"x": 1.7913718092,
				"y": 0.4865163698,
				"z": -3.7053759719,
				"element": "C" 
			},
			{
				"x": 1.0537704722,
				"y": 0.6242138571,
				"z": -4.8595458994,
				"element": "C" 
			},
			{
				"x": -0.3474593676,
				"y": 0.4340608537,
				"z": -4.8322447994,
				"element": "C" 
			},
			{
				"x": -0.9801301751,
				"y": 0.095746835,
				"z": -3.6545760293,
				"element": "C" 
			},
			{
				"x": 1.9466842021,
				"y": 0.0324793791,
				"z": -1.3694691497,
				"element": "N" 
			},
			{
				"x": 1.3734648982,
				"y": -0.2422242253,
				"z": -0.207487051,
				"element": "C" 
			},
			{
				"x": 2.3603563088,
				"y": -0.336905728,
				"z": 0.9384127424,
				"element": "C" 
			},
			{
				"x": -1.0063121544,
				"y": -2.8850069014,
				"z": 0.9081730383,
				"element": "H" 
			},
			{
				"x": 0.4214571135,
				"y": -2.5390362489,
				"z": 1.8823502291,
				"element": "H" 
			},
			{
				"x": -1.1848523954,
				"y": -2.4346829732,
				"z": 2.6142188443,
				"element": "H" 
			},
			{
				"x": -1.7697375015,
				"y": -0.5194219608,
				"z": 1.1669850311,
				"element": "H" 
			},
			{
				"x": -1.0366279679,
				"y": 0.0771011287,
				"z": 3.2843340111,
				"element": "H" 
			},
			{
				"x": 0.6733516583,
				"y": -0.0923268631,
				"z": 2.9071289932,
				"element": "H" 
			},
			{
				"x": -0.2655333393,
				"y": 1.2177707043,
				"z": 2.1737119328,
				"element": "H" 
			},
			{
				"x": -2.5914945741,
				"y": -0.9965649263,
				"z": -2.0330972304,
				"element": "H" 
			},
			{
				"x": -2.5077558367,
				"y": -1.280588062,
				"z": -0.3926605746,
				"element": "H" 
			},
			{
				"x": 2.8663010804,
				"y": 0.6347835105,
				"z": -3.689226094,
				"element": "H" 
			},
			{
				"x": 1.5433046208,
				"y": 0.886745033,
				"z": -5.7930930685,
				"element": "H" 
			},
			{
				"x": -0.9284951294,
				"y": 0.5627245112,
				"z": -5.7407647221,
				"element": "H" 
			},
			{
				"x": -2.0616646925,
				"y": -0.0064902508,
				"z": -3.6561119039,
				"element": "H" 
			},
			{
				"x": 2.1794208836,
				"y": -1.1984055108,
				"z": 1.5867745232,
				"element": "H" 
			},
			{
				"x": 3.3607868241,
				"y": -0.4176585616,
				"z": 0.5111901436,
				"element": "H" 
			},
			{
				"x": 2.3346146018,
				"y": 0.5601868528,
				"z": 1.5662732475,
				"element": "H" 
			}
		],
		 "valence_orbital": [ 
			{
				"type": "occ",
				"energy": -0.31647,
				"method": "rhf"
			},
			{
				"type": "occ",
				"energy": -0.25277,
				"method": "rhf"
			},
			{
				"type": "occ",
				"energy": -0.23642,
				"method": "rhf"
			},
			{
				"type": "occ",
				"energy": -0.23189,
				"method": "rhf"
			},
			{
				"type": "occ",
				"energy": -0.20204,
				"method": "rhf"
			},
			{
				"type": "unocc",
				"energy": -0.03287,
				"method": "rhf"
			},
			{
				"type": "unocc",
				"energy": -0.00456,
				"method": "rhf"
			},
			{
				"type": "unocc",
				"energy": 0.04069,
				"method": "rhf"
			},
			{
				"type": "unocc",
				"energy": 0.0604,
				"method": "rhf"
			},
			{
				"type": "unocc",
				"energy": 0.08897,
				"method": "rhf"
			}
		],
		"cosmo_sigma_profile": { 
			"-0.025": 0.0,
			"-0.024": 0.0,
			"-0.023": 0.0,
			"-0.022": 0.0,
			"-0.021": 0.0,
			"-0.02": 0.0,
			"-0.019": 0.0,
			"-0.018": 0.0,
			"-0.017": 0.0,
			"-0.016": 0.0,
			"-0.015": 0.0,
			"-0.014": 0.101707932724,
			"-0.013": 1.00943431339,
			"-0.012": 2.25276271673,
			"-0.011": 2.33816242971,
			"-0.01": 3.25583654486,
			"-0.009": 2.61823438101,
			"-0.008": 2.74280966779,
			"-0.007": 3.12186836346,
			"-0.006": 4.81177913025,
			"-0.005": 10.1189581088,
			"-0.004": 14.895652532,
			"-0.003": 22.29616862,
			"-0.002": 24.4379143013,
			"-0.001": 24.06257526,
			"0.0": 23.8962834773,
			"0.001": 25.7788324869,
			"0.002": 14.0179616415,
			"0.003": 16.3017102146,
			"0.004": 17.2836354728,
			"0.005": 12.8829358691,
			"0.006": 5.85221874395,
			"0.007": 2.62198978829,
			"0.008": 2.28949072607,
			"0.009": 2.6675822439,
			"0.01": 1.85965811691,
			"0.011": 1.62603084963,
			"0.012": 1.23641363588,
			"0.013": 1.24086829533,
			"0.014": 0.998185710043,
			"0.015": 0.822318417875,
			"0.016": 0.856646508868,
			"0.017": 0.166623199096,
			"0.018": 0.0,
			"0.019": 0.0,
			"0.02": 0.0,
			"0.021": 0.0,
			"0.022": 0.0,
			"0.023": 0.0,
			"0.024": 0.0,
			"0.025": 0.0
		}
	}
}
