{
	 "smiles": "ClCCC(=O)NC1=CC=C(C=C1)N1CCOCC1", 
	 "Tm": 466.15, 
	 "num_atms": 35, 
	 "gaussian": { 
		 "optdone": 1, 
		 "sigma_profile": "yes", 
		 "theory": "DFT", 
		 "functional": "B3LYP", 
		 "basiset": "6-31G**", 
		 "properties": { 
			 "R2extent": 7689.3995, 
			 "electric_dipole_moment_norm": 4.99364404118, 
			 "electric_quadrupole_moment_norm": 21.2048093425, 
			 "total_energy": -1225.76906508, 
			 "HOMO_LUMO_gap": 0.18021, 
			 "cosmo_polarized_energy": -17.69, 
			 "cosmo_cavitation_energy": 38.8, 
			 "cosmo_dispersion_energy": -27.66, 
			 "cosmo_repulsion_energy": 2.17, 
			 "cosmo_total_nonelectrostatic_energy": 13.31, 
			 "SMD_solvation_energy": 5.4 
		},
		"coords": [
			{
				"x": 1.474614104,
				"y": 4.1626149374,
				"z": 0.0803092674,
				"element": "Cl" 
			},
			{
				"x": 2.9756571309,
				"y": 3.1538999309,
				"z": 0.291006698,
				"element": "C" 
			},
			{
				"x": 2.7429188643,
				"y": 1.7099173577,
				"z": -0.1263726135,
				"element": "C" 
			},
			{
				"x": 2.719073083,
				"y": 1.5715992592,
				"z": -1.6497322883,
				"element": "C" 
			},
			{
				"x": 3.4041162802,
				"y": 2.2911665072,
				"z": -2.365266937,
				"element": "O" 
			},
			{
				"x": 1.9146813048,
				"y": 0.5991445915,
				"z": -2.1934828163,
				"element": "N" 
			},
			{
				"x": 1.0600268412,
				"y": -0.3390539707,
				"z": -1.5463568411,
				"element": "C" 
			},
			{
				"x": -0.3084439897,
				"y": -0.3548271927,
				"z": -1.8287035885,
				"element": "C" 
			},
			{
				"x": -1.1561605718,
				"y": -1.2859840014,
				"z": -1.2340908273,
				"element": "C" 
			},
			{
				"x": -0.6659589895,
				"y": -2.2452205347,
				"z": -0.3224333946,
				"element": "C" 
			},
			{
				"x": 0.7211787852,
				"y": -2.2240603247,
				"z": -0.0532823442,
				"element": "C" 
			},
			{
				"x": 1.5625344961,
				"y": -1.2991499983,
				"z": -0.6586852491,
				"element": "C" 
			},
			{
				"x": -1.4820739328,
				"y": -3.2252568071,
				"z": 0.2565815505,
				"element": "N" 
			},
			{
				"x": -2.8728815715,
				"y": -3.4051353479,
				"z": -0.1572586695,
				"element": "C" 
			},
			{
				"x": -3.8367533674,
				"y": -2.6674118379,
				"z": 0.7771309193,
				"element": "C" 
			},
			{
				"x": -3.6469427794,
				"y": -3.1007981679,
				"z": 2.1199102485,
				"element": "O" 
			},
			{
				"x": -2.3103553461,
				"y": -2.8864075162,
				"z": 2.5553881288,
				"element": "C" 
			},
			{
				"x": -1.3051976561,
				"y": -3.6206580532,
				"z": 1.6579168456,
				"element": "C" 
			},
			{
				"x": 3.7425916104,
				"y": 3.6100538525,
				"z": -0.3336836101,
				"element": "H" 
			},
			{
				"x": 3.2427706759,
				"y": 3.2287278531,
				"z": 1.345100145,
				"element": "H" 
			},
			{
				"x": 1.8425112281,
				"y": 1.3043134391,
				"z": 0.3392208204,
				"element": "H" 
			},
			{
				"x": 3.5915414163,
				"y": 1.1170651496,
				"z": 0.2431432789,
				"element": "H" 
			},
			{
				"x": 1.9153225618,
				"y": 0.6217053517,
				"z": -3.2064902955,
				"element": "H" 
			},
			{
				"x": -0.7203796907,
				"y": 0.3882231681,
				"z": -2.5057544938,
				"element": "H" 
			},
			{
				"x": -2.2136411286,
				"y": -1.2339920985,
				"z": -1.463577915,
				"element": "H" 
			},
			{
				"x": 1.1574294505,
				"y": -2.9744054785,
				"z": 0.5969314081,
				"element": "H" 
			},
			{
				"x": 2.6298662482,
				"y": -1.3381300404,
				"z": -0.4622503005,
				"element": "H" 
			},
			{
				"x": -3.0988573569,
				"y": -4.4787603575,
				"z": -0.101427354,
				"element": "H" 
			},
			{
				"x": -3.0027111162,
				"y": -3.1016095867,
				"z": -1.1977476056,
				"element": "H" 
			},
			{
				"x": -4.8780815437,
				"y": -2.8897233017,
				"z": 0.5240410378,
				"element": "H" 
			},
			{
				"x": -3.6823673714,
				"y": -1.5783678107,
				"z": 0.7026303755,
				"element": "H" 
			},
			{
				"x": -2.2561151326,
				"y": -3.257570625,
				"z": 3.5837017605,
				"element": "H" 
			},
			{
				"x": -2.0779931871,
				"y": -1.8082030068,
				"z": 2.5592411813,
				"element": "H" 
			},
			{
				"x": -1.46940164,
				"y": -4.7030569593,
				"z": 1.7424898173,
				"element": "H" 
			},
			{
				"x": -0.2886177092,
				"y": -3.4093483803,
				"z": 1.991153661,
				"element": "H" 
			}
		],
		 "valence_orbital": [ 
			{
				"type": "occ",
				"energy": -0.27512,
				"method": "rhf"
			},
			{
				"type": "occ",
				"energy": -0.26201,
				"method": "rhf"
			},
			{
				"type": "occ",
				"energy": -0.25351,
				"method": "rhf"
			},
			{
				"type": "occ",
				"energy": -0.25068,
				"method": "rhf"
			},
			{
				"type": "occ",
				"energy": -0.19594,
				"method": "rhf"
			},
			{
				"type": "unocc",
				"energy": -0.01573,
				"method": "rhf"
			},
			{
				"type": "unocc",
				"energy": -0.00611,
				"method": "rhf"
			},
			{
				"type": "unocc",
				"energy": 0.02556,
				"method": "rhf"
			},
			{
				"type": "unocc",
				"energy": 0.03751,
				"method": "rhf"
			},
			{
				"type": "unocc",
				"energy": 0.07635,
				"method": "rhf"
			}
		],
		"cosmo_sigma_profile": { 
			"-0.025": 0.0,
			"-0.024": 0.0,
			"-0.023": 0.0,
			"-0.022": 0.0,
			"-0.021": 0.0,
			"-0.02": 0.0,
			"-0.019": 0.0,
			"-0.018": 0.0,
			"-0.017": 0.0,
			"-0.016": 0.0,
			"-0.015": 0.0,
			"-0.014": 0.564289932922,
			"-0.013": 0.764741057465,
			"-0.012": 0.995876229679,
			"-0.011": 0.875331893999,
			"-0.01": 1.31426484745,
			"-0.009": 1.03864470226,
			"-0.008": 1.37981309883,
			"-0.007": 11.3253856471,
			"-0.006": 18.7574057674,
			"-0.005": 23.9184250753,
			"-0.004": 35.493316314,
			"-0.003": 32.1316003165,
			"-0.002": 23.739802807,
			"-0.001": 16.8035342036,
			"0.0": 13.0335813462,
			"0.001": 14.6898358901,
			"0.002": 13.3052064125,
			"0.003": 13.8061413363,
			"0.004": 15.8802212264,
			"0.005": 16.2510100482,
			"0.006": 16.6433803203,
			"0.007": 10.4999628191,
			"0.008": 2.79921642104,
			"0.009": 2.36282632786,
			"0.01": 2.38143735133,
			"0.011": 3.00809035526,
			"0.012": 3.7107017656,
			"0.013": 6.22041537906,
			"0.014": 3.81744962245,
			"0.015": 0.178769453898,
			"0.016": 0.0,
			"0.017": 0.0,
			"0.018": 0.0,
			"0.019": 0.0,
			"0.02": 0.0,
			"0.021": 0.0,
			"0.022": 0.0,
			"0.023": 0.0,
			"0.024": 0.0,
			"0.025": 0.0
		}
	}
}
