{
	 "smiles": "NS(=O)(=O)C1=CC(=C(C=C1)C#N)C(F)(F)F", 
	 "Tm": 469.15, 
	 "num_atms": 21, 
	 "gaussian": { 
		 "optdone": 1, 
		 "sigma_profile": "yes", 
		 "theory": "DFT", 
		 "functional": "B3LYP", 
		 "basiset": "6-31G**", 
		 "properties": { 
			 "R2extent": 4551.1229, 
			 "electric_dipole_moment_norm": 4.69975418719, 
			 "electric_quadrupole_moment_norm": 19.5279357345, 
			 "total_energy": -1265.4349055, 
			 "HOMO_LUMO_gap": 0.19684, 
			 "cosmo_polarized_energy": -18.59, 
			 "cosmo_cavitation_energy": 29.96, 
			 "cosmo_dispersion_energy": -21.18, 
			 "cosmo_repulsion_energy": 1.55, 
			 "cosmo_total_nonelectrostatic_energy": 10.34, 
			 "SMD_solvation_energy": 7.06 
		},
		"coords": [
			{
				"x": -0.3631206722,
				"y": 0.0687855678,
				"z": -3.2798169528,
				"element": "N" 
			},
			{
				"x": 0.7564636927,
				"y": -0.6340060834,
				"z": -2.2303114833,
				"element": "S" 
			},
			{
				"x": 0.5882177193,
				"y": -2.0851470802,
				"z": -2.3194755962,
				"element": "O" 
			},
			{
				"x": 2.0413747911,
				"y": 0.0350059435,
				"z": -2.4417732785,
				"element": "O" 
			},
			{
				"x": 0.1595727998,
				"y": -0.1277578671,
				"z": -0.6092197808,
				"element": "C" 
			},
			{
				"x": -0.791655746,
				"y": -0.9156070562,
				"z": 0.0391647846,
				"element": "C" 
			},
			{
				"x": -1.2617778052,
				"y": -0.5319303919,
				"z": 1.2907848899,
				"element": "C" 
			},
			{
				"x": -0.7657014916,
				"y": 0.6442512244,
				"z": 1.8936740687,
				"element": "C" 
			},
			{
				"x": 0.2031865684,
				"y": 1.4130836902,
				"z": 1.2305689696,
				"element": "C" 
			},
			{
				"x": 0.6705977898,
				"y": 1.027872961,
				"z": -0.0232784549,
				"element": "C" 
			},
			{
				"x": -1.2185194694,
				"y": 1.0842650286,
				"z": 3.1825611336,
				"element": "C" 
			},
			{
				"x": -1.5520488435,
				"y": 1.4857401543,
				"z": 4.2209870981,
				"element": "N" 
			},
			{
				"x": -2.2953547097,
				"y": -1.3800932065,
				"z": 2.0000060162,
				"element": "C" 
			},
			{
				"x": -1.8325134881,
				"y": -1.8227847936,
				"z": 3.184760365,
				"element": "F" 
			},
			{
				"x": -3.4181478114,
				"y": -0.6747996012,
				"z": 2.2409530311,
				"element": "F" 
			},
			{
				"x": -2.637886774,
				"y": -2.4564602842,
				"z": 1.2648672061,
				"element": "F" 
			},
			{
				"x": -0.8383260085,
				"y": -0.6536865067,
				"z": -3.8142179186,
				"element": "H" 
			},
			{
				"x": 0.1000052989,
				"y": 0.7442097125,
				"z": -3.881935733,
				"element": "H" 
			},
			{
				"x": -1.1496447774,
				"y": -1.8279173407,
				"z": -0.4215086006,
				"element": "H" 
			},
			{
				"x": 0.586448371,
				"y": 2.307753998,
				"z": 1.7084078523,
				"element": "H" 
			},
			{
				"x": 1.4324305658,
				"y": 1.6046219315,
				"z": -0.5354976164,
				"element": "H" 
			}
		],
		 "valence_orbital": [ 
			{
				"type": "occ",
				"energy": -0.34016,
				"method": "rhf"
			},
			{
				"type": "occ",
				"energy": -0.32897,
				"method": "rhf"
			},
			{
				"type": "occ",
				"energy": -0.32299,
				"method": "rhf"
			},
			{
				"type": "occ",
				"energy": -0.30965,
				"method": "rhf"
			},
			{
				"type": "occ",
				"energy": -0.2917,
				"method": "rhf"
			},
			{
				"type": "unocc",
				"energy": -0.09486,
				"method": "rhf"
			},
			{
				"type": "unocc",
				"energy": -0.06142,
				"method": "rhf"
			},
			{
				"type": "unocc",
				"energy": 0.01491,
				"method": "rhf"
			},
			{
				"type": "unocc",
				"energy": 0.02562,
				"method": "rhf"
			},
			{
				"type": "unocc",
				"energy": 0.03407,
				"method": "rhf"
			}
		],
		"cosmo_sigma_profile": { 
			"-0.025": 0.0,
			"-0.024": 0.0,
			"-0.023": 0.0,
			"-0.022": 0.0,
			"-0.021": 0.0,
			"-0.02": 0.0,
			"-0.019": 0.0,
			"-0.018": 0.0,
			"-0.017": 0.0,
			"-0.016": 0.132403583344,
			"-0.015": 2.24713754782,
			"-0.014": 2.79071805631,
			"-0.013": 2.43035275297,
			"-0.012": 2.83091898835,
			"-0.011": 1.63990960428,
			"-0.01": 3.33389324847,
			"-0.009": 5.99331696456,
			"-0.008": 6.7094539604,
			"-0.007": 7.26891569999,
			"-0.006": 7.49342615003,
			"-0.005": 9.15604075424,
			"-0.004": 13.6854592072,
			"-0.003": 17.8814710206,
			"-0.002": 15.917419894,
			"-0.001": 14.5132798274,
			"0.0": 11.3037405407,
			"0.001": 16.1826780131,
			"0.002": 30.243149562,
			"0.003": 9.31418999078,
			"0.004": 5.94307007068,
			"0.005": 5.49719164142,
			"0.006": 7.04289790668,
			"0.007": 6.43935899776,
			"0.008": 5.89444699809,
			"0.009": 8.97438722721,
			"0.01": 11.9023936232,
			"0.011": 8.09202266976,
			"0.012": 1.13587178482,
			"0.013": 0.0,
			"0.014": 0.0,
			"0.015": 0.0,
			"0.016": 0.0,
			"0.017": 0.0,
			"0.018": 0.0,
			"0.019": 0.0,
			"0.02": 0.0,
			"0.021": 0.0,
			"0.022": 0.0,
			"0.023": 0.0,
			"0.024": 0.0,
			"0.025": 0.0
		}
	}
}
