{
	 "smiles": "CC1CCC2C(C1)C(=O)OC2=O", 
	 "Tm": 244.15, 
	 "num_atms": 24, 
	 "gaussian": { 
		 "optdone": 1, 
		 "sigma_profile": "yes", 
		 "theory": "DFT", 
		 "functional": "B3LYP", 
		 "basiset": "6-31G**", 
		 "properties": { 
			 "R2extent": 2487.6535, 
			 "electric_dipole_moment_norm": 4.69052465509, 
			 "electric_quadrupole_moment_norm": 12.3464855773, 
			 "total_energy": -575.897126717, 
			 "HOMO_LUMO_gap": 0.24975, 
			 "cosmo_polarized_energy": -11.6, 
			 "cosmo_cavitation_energy": 25.78, 
			 "cosmo_dispersion_energy": -18.86, 
			 "cosmo_repulsion_energy": 1.5, 
			 "cosmo_total_nonelectrostatic_energy": 8.42, 
			 "SMD_solvation_energy": 5.58 
		},
		"coords": [
			{
				"x": 1.5340722896,
				"y": -1.6261875887,
				"z": 2.105792801,
				"element": "C" 
			},
			{
				"x": 1.1253476707,
				"y": -0.7440831654,
				"z": 0.9214931608,
				"element": "C" 
			},
			{
				"x": -0.3956786224,
				"y": -0.5199468476,
				"z": 0.8648906586,
				"element": "C" 
			},
			{
				"x": -0.7743148889,
				"y": 0.4510821403,
				"z": -0.2588699188,
				"element": "C" 
			},
			{
				"x": -0.3132004879,
				"y": -0.0604705954,
				"z": -1.650044502,
				"element": "C" 
			},
			{
				"x": 1.1376051521,
				"y": -0.5801515043,
				"z": -1.6479058048,
				"element": "C" 
			},
			{
				"x": 1.6146048732,
				"y": -1.3450748424,
				"z": -0.4071594172,
				"element": "C" 
			},
			{
				"x": 1.9293974065,
				"y": 0.6801982192,
				"z": -1.9733630592,
				"element": "C" 
			},
			{
				"x": 3.0808005828,
				"y": 0.9351867542,
				"z": -1.7646014432,
				"element": "O" 
			},
			{
				"x": 1.0916612396,
				"y": 1.567942354,
				"z": -2.6432100136,
				"element": "O" 
			},
			{
				"x": -0.2317717017,
				"y": 1.1228088731,
				"z": -2.5994987817,
				"element": "C" 
			},
			{
				"x": -1.0998050475,
				"y": 1.6834322642,
				"z": -3.2033747698,
				"element": "O" 
			},
			{
				"x": 2.6195706879,
				"y": -1.7667334126,
				"z": 2.1403014194,
				"element": "H" 
			},
			{
				"x": 1.0713414833,
				"y": -2.61807774,
				"z": 2.0355316734,
				"element": "H" 
			},
			{
				"x": 1.2234201299,
				"y": -1.1805253584,
				"z": 3.0566123438,
				"element": "H" 
			},
			{
				"x": 1.6031925503,
				"y": 0.2394619445,
				"z": 1.0467767935,
				"element": "H" 
			},
			{
				"x": -0.7530765605,
				"y": -0.1216335763,
				"z": 1.8218427705,
				"element": "H" 
			},
			{
				"x": -0.9026584674,
				"y": -1.484970692,
				"z": 0.7181332434,
				"element": "H" 
			},
			{
				"x": -1.8528253478,
				"y": 0.6323251438,
				"z": -0.2914852774,
				"element": "H" 
			},
			{
				"x": -0.302491209,
				"y": 1.4214847131,
				"z": -0.0537102681,
				"element": "H" 
			},
			{
				"x": -1.0287749803,
				"y": -0.7929507275,
				"z": -2.0317898798,
				"element": "H" 
			},
			{
				"x": 1.2770061115,
				"y": -1.2217932565,
				"z": -2.5304568473,
				"element": "H" 
			},
			{
				"x": 2.7087943755,
				"y": -1.3906244283,
				"z": -0.4280593708,
				"element": "H" 
			},
			{
				"x": 1.2510827605,
				"y": -2.378598671,
				"z": -0.4791455104,
				"element": "H" 
			}
		],
		 "valence_orbital": [ 
			{
				"type": "occ",
				"energy": -0.33382,
				"method": "rhf"
			},
			{
				"type": "occ",
				"energy": -0.32935,
				"method": "rhf"
			},
			{
				"type": "occ",
				"energy": -0.32147,
				"method": "rhf"
			},
			{
				"type": "occ",
				"energy": -0.29853,
				"method": "rhf"
			},
			{
				"type": "occ",
				"energy": -0.27929,
				"method": "rhf"
			},
			{
				"type": "unocc",
				"energy": -0.02954,
				"method": "rhf"
			},
			{
				"type": "unocc",
				"energy": -0.00137,
				"method": "rhf"
			},
			{
				"type": "unocc",
				"energy": 0.06643,
				"method": "rhf"
			},
			{
				"type": "unocc",
				"energy": 0.08376,
				"method": "rhf"
			},
			{
				"type": "unocc",
				"energy": 0.09545,
				"method": "rhf"
			}
		],
		"cosmo_sigma_profile": { 
			"-0.025": 0.0,
			"-0.024": 0.0,
			"-0.023": 0.0,
			"-0.022": 0.0,
			"-0.021": 0.0,
			"-0.02": 0.0,
			"-0.019": 0.0,
			"-0.018": 0.0,
			"-0.017": 0.0,
			"-0.016": 0.0,
			"-0.015": 0.0,
			"-0.014": 0.0,
			"-0.013": 0.0,
			"-0.012": 0.0,
			"-0.011": 0.494318716998,
			"-0.01": 1.67517001751,
			"-0.009": 1.94719519692,
			"-0.008": 3.81385603639,
			"-0.007": 7.65130483764,
			"-0.006": 7.15210349319,
			"-0.005": 8.96742574054,
			"-0.004": 13.5073316343,
			"-0.003": 23.8304526708,
			"-0.002": 27.2250317535,
			"-0.001": 20.8126851402,
			"0.0": 15.854942053,
			"0.001": 12.1906668634,
			"0.002": 5.23981692215,
			"0.003": 3.96097436538,
			"0.004": 3.05728200879,
			"0.005": 4.01981554484,
			"0.006": 4.53153166198,
			"0.007": 5.80147408798,
			"0.008": 6.95884926872,
			"0.009": 6.26764643607,
			"0.01": 10.4946320671,
			"0.011": 5.36685756308,
			"0.012": 0.0978256375359,
			"0.013": 0.0,
			"0.014": 0.0,
			"0.015": 0.0,
			"0.016": 0.0,
			"0.017": 0.0,
			"0.018": 0.0,
			"0.019": 0.0,
			"0.02": 0.0,
			"0.021": 0.0,
			"0.022": 0.0,
			"0.023": 0.0,
			"0.024": 0.0,
			"0.025": 0.0
		}
	}
}
