{
	 "smiles": "COC1=CC=C(C=C1)C(=O)NC1=C(C(O)=O)C2=C(CCCC2)S1", 
	 "Tm": 491.15, 
	 "num_atms": 40, 
	 "gaussian": { 
		 "optdone": 1, 
		 "sigma_profile": "yes", 
		 "theory": "DFT", 
		 "functional": "B3LYP", 
		 "basiset": "6-31G**", 
		 "properties": { 
			 "R2extent": 10256.8064, 
			 "electric_dipole_moment_norm": 3.87340894433, 
			 "electric_quadrupole_moment_norm": 14.1178151181, 
			 "total_energy": -1411.91296659, 
			 "HOMO_LUMO_gap": 0.15146, 
			 "cosmo_polarized_energy": -16.19, 
			 "cosmo_cavitation_energy": 44.13, 
			 "cosmo_dispersion_energy": -32.05, 
			 "cosmo_repulsion_energy": 2.43, 
			 "cosmo_total_nonelectrostatic_energy": 14.51, 
			 "SMD_solvation_energy": 8.68 
		},
		"coords": [
			{
				"x": -3.0045427828,
				"y": -4.5385307216,
				"z": -2.7370827445,
				"element": "C" 
			},
			{
				"x": -2.0788674384,
				"y": -3.4754657533,
				"z": -2.9187909637,
				"element": "O" 
			},
			{
				"x": -2.2996194521,
				"y": -2.303247546,
				"z": -2.2676733668,
				"element": "C" 
			},
			{
				"x": -3.3840685048,
				"y": -2.0597918968,
				"z": -1.4116116079,
				"element": "C" 
			},
			{
				"x": -3.5113685652,
				"y": -0.812418269,
				"z": -0.8059607243,
				"element": "C" 
			},
			{
				"x": -2.557706369,
				"y": 0.1923920681,
				"z": -1.0072941344,
				"element": "C" 
			},
			{
				"x": -1.4813511946,
				"y": -0.0608727924,
				"z": -1.8768445945,
				"element": "C" 
			},
			{
				"x": -1.3555617892,
				"y": -1.2900420767,
				"z": -2.5047104117,
				"element": "C" 
			},
			{
				"x": -2.8147899699,
				"y": 1.5317225668,
				"z": -0.4113162509,
				"element": "C" 
			},
			{
				"x": -3.9460055514,
				"y": 1.9869297885,
				"z": -0.3047664617,
				"element": "O" 
			},
			{
				"x": -1.7359863445,
				"y": 2.3408712272,
				"z": -0.0310051226,
				"element": "N" 
			},
			{
				"x": -0.48979491,
				"y": 2.0461001449,
				"z": 0.4942991542,
				"element": "C" 
			},
			{
				"x": 0.5168407659,
				"y": 2.9642812887,
				"z": 0.7993849686,
				"element": "C" 
			},
			{
				"x": 0.444445991,
				"y": 4.411462083,
				"z": 0.5813784771,
				"element": "C" 
			},
			{
				"x": -0.7698142671,
				"y": 4.8434521005,
				"z": 0.1102004338,
				"element": "O" 
			},
			{
				"x": 1.3344992517,
				"y": 5.2157696299,
				"z": 0.7917676571,
				"element": "O" 
			},
			{
				"x": 1.6762479767,
				"y": 2.3355140102,
				"z": 1.4091669906,
				"element": "C" 
			},
			{
				"x": 1.518469494,
				"y": 0.9932425164,
				"z": 1.5814457441,
				"element": "C" 
			},
			{
				"x": 2.5235804103,
				"y": 0.0418498535,
				"z": 2.1705320858,
				"element": "C" 
			},
			{
				"x": 3.5977726855,
				"y": 0.8327596117,
				"z": 2.9384201812,
				"element": "C" 
			},
			{
				"x": 4.0818413311,
				"y": 2.0339840572,
				"z": 2.1159001086,
				"element": "C" 
			},
			{
				"x": 2.9485369146,
				"y": 3.0352425407,
				"z": 1.8330396954,
				"element": "C" 
			},
			{
				"x": -0.0366013949,
				"y": 0.433317186,
				"z": 0.9904677077,
				"element": "S" 
			},
			{
				"x": -3.0539045543,
				"y": -4.8553675962,
				"z": -1.6878964189,
				"element": "H" 
			},
			{
				"x": -4.0095979732,
				"y": -4.2605860106,
				"z": -3.0777706676,
				"element": "H" 
			},
			{
				"x": -2.6343834074,
				"y": -5.3649598361,
				"z": -3.3451263693,
				"element": "H" 
			},
			{
				"x": -4.129552886,
				"y": -2.8227858034,
				"z": -1.2232919682,
				"element": "H" 
			},
			{
				"x": -4.3629612823,
				"y": -0.6014649703,
				"z": -0.1675498527,
				"element": "H" 
			},
			{
				"x": -0.752158661,
				"y": 0.7172094499,
				"z": -2.077415428,
				"element": "H" 
			},
			{
				"x": -0.538083212,
				"y": -1.4943071069,
				"z": -3.1878457179,
				"element": "H" 
			},
			{
				"x": -2.0099763598,
				"y": 3.3119005348,
				"z": 0.0856573602,
				"element": "H" 
			},
			{
				"x": -0.6858003689,
				"y": 5.8071255766,
				"z": 0.0241100934,
				"element": "H" 
			},
			{
				"x": 2.0332732111,
				"y": -0.6784909815,
				"z": 2.8371237225,
				"element": "H" 
			},
			{
				"x": 2.9966559841,
				"y": -0.5510459394,
				"z": 1.3739475556,
				"element": "H" 
			},
			{
				"x": 4.4342230245,
				"y": 0.170221374,
				"z": 3.1871666733,
				"element": "H" 
			},
			{
				"x": 3.1766838221,
				"y": 1.1866631994,
				"z": 3.8882981462,
				"element": "H" 
			},
			{
				"x": 4.8998397928,
				"y": 2.546617661,
				"z": 2.6339785973,
				"element": "H" 
			},
			{
				"x": 4.4923425254,
				"y": 1.6713991113,
				"z": 1.1637508565,
				"element": "H" 
			},
			{
				"x": 3.2511824105,
				"y": 3.7539203925,
				"z": 1.0680033219,
				"element": "H" 
			},
			{
				"x": 2.7449616475,
				"y": 3.6406293275,
				"z": 2.7269132744,
				"element": "H" 
			}
		],
		 "valence_orbital": [ 
			{
				"type": "occ",
				"energy": -0.26764,
				"method": "rhf"
			},
			{
				"type": "occ",
				"energy": -0.26172,
				"method": "rhf"
			},
			{
				"type": "occ",
				"energy": -0.24868,
				"method": "rhf"
			},
			{
				"type": "occ",
				"energy": -0.22973,
				"method": "rhf"
			},
			{
				"type": "occ",
				"energy": -0.20371,
				"method": "rhf"
			},
			{
				"type": "unocc",
				"energy": -0.05225,
				"method": "rhf"
			},
			{
				"type": "unocc",
				"energy": -0.02103,
				"method": "rhf"
			},
			{
				"type": "unocc",
				"energy": -0.01176,
				"method": "rhf"
			},
			{
				"type": "unocc",
				"energy": 0.01776,
				"method": "rhf"
			},
			{
				"type": "unocc",
				"energy": 0.026,
				"method": "rhf"
			}
		],
		"cosmo_sigma_profile": { 
			"-0.025": 0.0,
			"-0.024": 0.0,
			"-0.023": 0.0,
			"-0.022": 0.0,
			"-0.021": 0.0,
			"-0.02": 0.0,
			"-0.019": 0.0513883193145,
			"-0.018": 0.643395151339,
			"-0.017": 0.740252255331,
			"-0.016": 0.863963267641,
			"-0.015": 0.90216405949,
			"-0.014": 0.905391879431,
			"-0.013": 0.325972797998,
			"-0.012": 0.51718206978,
			"-0.011": 0.911119612957,
			"-0.01": 1.00735156087,
			"-0.009": 0.499448652608,
			"-0.008": 0.317713640447,
			"-0.007": 5.82309585233,
			"-0.006": 15.5844130043,
			"-0.005": 19.2635839102,
			"-0.004": 23.0896606618,
			"-0.003": 32.5078367555,
			"-0.002": 37.9977974937,
			"-0.001": 38.4492298525,
			"0.0": 32.0455716112,
			"0.001": 24.8175251716,
			"0.002": 23.4298604374,
			"0.003": 26.4994165305,
			"0.004": 18.2813435834,
			"0.005": 7.38705465336,
			"0.006": 4.2055949561,
			"0.007": 3.90691126816,
			"0.008": 4.78922884287,
			"0.009": 4.49386025985,
			"0.01": 3.77889282527,
			"0.011": 5.25102895695,
			"0.012": 8.46796764278,
			"0.013": 3.44880075968,
			"0.014": 0.0791001164395,
			"0.015": 0.0,
			"0.016": 0.0,
			"0.017": 0.0,
			"0.018": 0.0,
			"0.019": 0.0,
			"0.02": 0.0,
			"0.021": 0.0,
			"0.022": 0.0,
			"0.023": 0.0,
			"0.024": 0.0,
			"0.025": 0.0
		}
	}
}
