{
	 "smiles": "COC1=CC=C(C=C1)C1=CSC(=N1)C(=N/NC1=CC=C(C)C=C1)C#N", 
	 "Tm": 424.15, 
	 "num_atms": 41, 
	 "gaussian": { 
		 "optdone": 1, 
		 "sigma_profile": "yes", 
		 "theory": "DFT", 
		 "functional": "B3LYP", 
		 "basiset": "6-31G**", 
		 "properties": { 
			 "R2extent": 12532.8614, 
			 "electric_dipole_moment_norm": 5.73395042968, 
			 "electric_quadrupole_moment_norm": 37.2743157206, 
			 "total_energy": -1426.00083487, 
			 "HOMO_LUMO_gap": 0.12364, 
			 "cosmo_polarized_energy": -19.49, 
			 "cosmo_cavitation_energy": 48.37, 
			 "cosmo_dispersion_energy": -33.48, 
			 "cosmo_repulsion_energy": 2.51, 
			 "cosmo_total_nonelectrostatic_energy": 17.41, 
			 "SMD_solvation_energy": 8.43 
		},
		"coords": [
			{
				"x": 6.4135453663,
				"y": 1.4273928772,
				"z": -2.2167520923,
				"element": "C" 
			},
			{
				"x": 5.8606963138,
				"y": 1.6080806994,
				"z": -0.9216910106,
				"element": "O" 
			},
			{
				"x": 4.6296457522,
				"y": 1.0819027516,
				"z": -0.6664691113,
				"element": "C" 
			},
			{
				"x": 4.1346436556,
				"y": 1.2911322529,
				"z": 0.6309389256,
				"element": "C" 
			},
			{
				"x": 2.8912814477,
				"y": 0.7960615539,
				"z": 0.9913779403,
				"element": "C" 
			},
			{
				"x": 2.1011695062,
				"y": 0.0758357734,
				"z": 0.0759754087,
				"element": "C" 
			},
			{
				"x": 2.6062300474,
				"y": -0.1217570197,
				"z": -1.2161522999,
				"element": "C" 
			},
			{
				"x": 3.855557608,
				"y": 0.371489779,
				"z": -1.5917461204,
				"element": "C" 
			},
			{
				"x": 0.7807455134,
				"y": -0.4675131516,
				"z": 0.4404249568,
				"element": "C" 
			},
			{
				"x": 0.2074042421,
				"y": -0.4855899033,
				"z": 1.6960580715,
				"element": "C" 
			},
			{
				"x": -1.3567145721,
				"y": -1.2035279826,
				"z": 1.6577666401,
				"element": "S" 
			},
			{
				"x": -1.1517456584,
				"y": -1.4621527877,
				"z": -0.0716413037,
				"element": "C" 
			},
			{
				"x": -0.0040892565,
				"y": -1.036277027,
				"z": -0.5337765966,
				"element": "N" 
			},
			{
				"x": -2.0651237085,
				"y": -2.2565293038,
				"z": -0.906881391,
				"element": "C" 
			},
			{
				"x": -3.3171161593,
				"y": -2.5833299079,
				"z": -0.7531053949,
				"element": "N" 
			},
			{
				"x": -4.0835090293,
				"y": -2.056932717,
				"z": 0.2335267765,
				"element": "N" 
			},
			{
				"x": -4.2634224749,
				"y": -0.6686642342,
				"z": 0.5284277957,
				"element": "C" 
			},
			{
				"x": -4.9947050855,
				"y": -0.351289511,
				"z": 1.679638561,
				"element": "C" 
			},
			{
				"x": -5.2724140929,
				"y": 0.9775563036,
				"z": 1.9882049343,
				"element": "C" 
			},
			{
				"x": -4.8189097115,
				"y": 2.0244913154,
				"z": 1.1743553049,
				"element": "C" 
			},
			{
				"x": -5.082940815,
				"y": 3.4667704819,
				"z": 1.5352967142,
				"element": "C" 
			},
			{
				"x": -4.089802047,
				"y": 1.6863769285,
				"z": 0.0269938928,
				"element": "C" 
			},
			{
				"x": -3.8129995188,
				"y": 0.3610743514,
				"z": -0.3043398608,
				"element": "C" 
			},
			{
				"x": -1.4451176687,
				"y": -2.8790017585,
				"z": -2.0541407628,
				"element": "C" 
			},
			{
				"x": -0.9594451815,
				"y": -3.3745037933,
				"z": -2.9867114529,
				"element": "N" 
			},
			{
				"x": 6.5499139614,
				"y": 0.3646032141,
				"z": -2.4537845041,
				"element": "H" 
			},
			{
				"x": 5.7889127447,
				"y": 1.8899441142,
				"z": -2.9915538963,
				"element": "H" 
			},
			{
				"x": 7.387259049,
				"y": 1.9192497865,
				"z": -2.199679111,
				"element": "H" 
			},
			{
				"x": 4.7445184449,
				"y": 1.8484420636,
				"z": 1.3342840655,
				"element": "H" 
			},
			{
				"x": 2.5293869194,
				"y": 0.9815940476,
				"z": 1.998484454,
				"element": "H" 
			},
			{
				"x": 2.0073308095,
				"y": -0.6739721404,
				"z": -1.9318689128,
				"element": "H" 
			},
			{
				"x": 4.2115374185,
				"y": 0.1947018588,
				"z": -2.5996793006,
				"element": "H" 
			},
			{
				"x": 0.6118142814,
				"y": -0.1183698306,
				"z": 2.6279330142,
				"element": "H" 
			},
			{
				"x": -4.9604511445,
				"y": -2.5631305042,
				"z": 0.2583084845,
				"element": "H" 
			},
			{
				"x": -5.3422836301,
				"y": -1.1494578638,
				"z": 2.3301211276,
				"element": "H" 
			},
			{
				"x": -5.846113331,
				"y": 1.2038904442,
				"z": 2.8833699915,
				"element": "H" 
			},
			{
				"x": -6.0147569665,
				"y": 3.5746305916,
				"z": 2.0985308947,
				"element": "H" 
			},
			{
				"x": -5.1523024579,
				"y": 4.096105421,
				"z": 0.6429432907,
				"element": "H" 
			},
			{
				"x": -4.2771276346,
				"y": 3.8749731301,
				"z": 2.1583874863,
				"element": "H" 
			},
			{
				"x": -3.7363830443,
				"y": 2.4748053616,
				"z": -0.6326327588,
				"element": "H" 
			},
			{
				"x": -3.2645198925,
				"y": 0.135994335,
				"z": -1.211642851,
				"element": "H" 
			}
		],
		 "valence_orbital": [ 
			{
				"type": "occ",
				"energy": -0.26517,
				"method": "rhf"
			},
			{
				"type": "occ",
				"energy": -0.25814,
				"method": "rhf"
			},
			{
				"type": "occ",
				"energy": -0.25205,
				"method": "rhf"
			},
			{
				"type": "occ",
				"energy": -0.21828,
				"method": "rhf"
			},
			{
				"type": "occ",
				"energy": -0.20488,
				"method": "rhf"
			},
			{
				"type": "unocc",
				"energy": -0.08124,
				"method": "rhf"
			},
			{
				"type": "unocc",
				"energy": -0.02798,
				"method": "rhf"
			},
			{
				"type": "unocc",
				"energy": -0.01842,
				"method": "rhf"
			},
			{
				"type": "unocc",
				"energy": -0.00645,
				"method": "rhf"
			},
			{
				"type": "unocc",
				"energy": -0.00248,
				"method": "rhf"
			}
		],
		"cosmo_sigma_profile": { 
			"-0.025": 0.0,
			"-0.024": 0.0,
			"-0.023": 0.0,
			"-0.022": 0.0,
			"-0.021": 0.0,
			"-0.02": 0.0,
			"-0.019": 0.0,
			"-0.018": 0.0,
			"-0.017": 0.0,
			"-0.016": 0.332507679566,
			"-0.015": 1.09442032952,
			"-0.014": 1.69577716815,
			"-0.013": 0.551614120525,
			"-0.012": 0.984257863729,
			"-0.011": 1.42572197461,
			"-0.01": 3.2352029124,
			"-0.009": 3.15084625884,
			"-0.008": 4.27668128102,
			"-0.007": 6.64179687042,
			"-0.006": 17.2679482436,
			"-0.005": 27.636801401,
			"-0.004": 31.3974048903,
			"-0.003": 30.5202839835,
			"-0.002": 25.9354437366,
			"-0.001": 25.2324153928,
			"0.0": 28.8094675924,
			"0.001": 31.4776791893,
			"0.002": 27.4623701434,
			"0.003": 26.9836191594,
			"0.004": 27.7938741039,
			"0.005": 24.6672088866,
			"0.006": 6.97015149408,
			"0.007": 7.33502136535,
			"0.008": 7.93482422023,
			"0.009": 7.69193209757,
			"0.01": 5.02773673154,
			"0.011": 3.46398480401,
			"0.012": 2.19854935141,
			"0.013": 0.934356300179,
			"0.014": 0.0,
			"0.015": 0.0,
			"0.016": 0.0,
			"0.017": 0.0,
			"0.018": 0.0,
			"0.019": 0.0,
			"0.02": 0.0,
			"0.021": 0.0,
			"0.022": 0.0,
			"0.023": 0.0,
			"0.024": 0.0,
			"0.025": 0.0
		}
	}
}
