{
	 "smiles": "NC1=C(N)C(F)=C(F)C=C1", 
	 "Tm": 389.15, 
	 "num_atms": 16, 
	 "gaussian": { 
		 "optdone": 1, 
		 "sigma_profile": "yes", 
		 "theory": "DFT", 
		 "functional": "B3LYP", 
		 "basiset": "6-31G**", 
		 "properties": { 
			 "R2extent": 1594.3887, 
			 "electric_dipole_moment_norm": 3.20456814563, 
			 "electric_quadrupole_moment_norm": 6.21365701741, 
			 "total_energy": -541.422502871, 
			 "HOMO_LUMO_gap": 0.20551, 
			 "cosmo_polarized_energy": -9.57, 
			 "cosmo_cavitation_energy": 20.72, 
			 "cosmo_dispersion_energy": -15.45, 
			 "cosmo_repulsion_energy": 1.22, 
			 "cosmo_total_nonelectrostatic_energy": 6.49, 
			 "SMD_solvation_energy": 4.48 
		},
		"coords": [
			{
				"x": 0.1886897229,
				"y": 2.1283514036,
				"z": -0.9667810137,
				"element": "N" 
			},
			{
				"x": -0.0343858394,
				"y": 0.8439289504,
				"z": -0.4328931096,
				"element": "C" 
			},
			{
				"x": -1.2734310149,
				"y": 0.2302184797,
				"z": -0.7276998796,
				"element": "C" 
			},
			{
				"x": -2.2422427916,
				"y": 0.9304484965,
				"z": -1.4623427513,
				"element": "N" 
			},
			{
				"x": -1.5146370223,
				"y": -1.0503750273,
				"z": -0.2362587133,
				"element": "C" 
			},
			{
				"x": -2.7004464534,
				"y": -1.639136394,
				"z": -0.5239590336,
				"element": "F" 
			},
			{
				"x": -0.5621909413,
				"y": -1.7356529065,
				"z": 0.5132245977,
				"element": "C" 
			},
			{
				"x": -0.8536047305,
				"y": -2.97535421,
				"z": 0.9574179074,
				"element": "F" 
			},
			{
				"x": 0.6637439304,
				"y": -1.1484518505,
				"z": 0.7832134607,
				"element": "C" 
			},
			{
				"x": 0.9182253891,
				"y": 0.1435644573,
				"z": 0.310995688,
				"element": "C" 
			},
			{
				"x": 1.0256136098,
				"y": 2.5686044457,
				"z": -0.604844956,
				"element": "H" 
			},
			{
				"x": -0.6121153061,
				"y": 2.7401597514,
				"z": -0.8371584179,
				"element": "H" 
			},
			{
				"x": -3.0250189845,
				"y": 0.3435717844,
				"z": -1.7239499333,
				"element": "H" 
			},
			{
				"x": -1.8443788946,
				"y": 1.3899976098,
				"z": -2.2759633047,
				"element": "H" 
			},
			{
				"x": 1.3960908558,
				"y": -1.6930509739,
				"z": 1.3680064746,
				"element": "H" 
			},
			{
				"x": 1.8706884706,
				"y": 0.6163759832,
				"z": 0.5342929846,
				"element": "H" 
			}
		],
		 "valence_orbital": [ 
			{
				"type": "occ",
				"energy": -0.35254,
				"method": "rhf"
			},
			{
				"type": "occ",
				"energy": -0.31551,
				"method": "rhf"
			},
			{
				"type": "occ",
				"energy": -0.29788,
				"method": "rhf"
			},
			{
				"type": "occ",
				"energy": -0.2232,
				"method": "rhf"
			},
			{
				"type": "occ",
				"energy": -0.19703,
				"method": "rhf"
			},
			{
				"type": "unocc",
				"energy": 0.00848,
				"method": "rhf"
			},
			{
				"type": "unocc",
				"energy": 0.02057,
				"method": "rhf"
			},
			{
				"type": "unocc",
				"energy": 0.06291,
				"method": "rhf"
			},
			{
				"type": "unocc",
				"energy": 0.08148,
				"method": "rhf"
			},
			{
				"type": "unocc",
				"energy": 0.11848,
				"method": "rhf"
			}
		],
		"cosmo_sigma_profile": { 
			"-0.025": 0.0,
			"-0.024": 0.0,
			"-0.023": 0.0,
			"-0.022": 0.0,
			"-0.021": 0.0,
			"-0.02": 0.0,
			"-0.019": 0.0,
			"-0.018": 0.0,
			"-0.017": 0.0,
			"-0.016": 0.0,
			"-0.015": 0.0,
			"-0.014": 0.0,
			"-0.013": 0.0210518218373,
			"-0.012": 2.12601920158,
			"-0.011": 4.07491548711,
			"-0.01": 5.15253816534,
			"-0.009": 4.86625200608,
			"-0.008": 4.98439028763,
			"-0.007": 5.5389585904,
			"-0.006": 7.38342265633,
			"-0.005": 6.07178817421,
			"-0.004": 6.40629367804,
			"-0.003": 5.50462932362,
			"-0.002": 6.04144655387,
			"-0.001": 6.30200081051,
			"0.0": 7.10026389398,
			"0.001": 12.208287085,
			"0.002": 13.8365870165,
			"0.003": 15.9428446241,
			"0.004": 22.4867868472,
			"0.005": 15.7268466703,
			"0.006": 3.54823385705,
			"0.007": 1.26875584097,
			"0.008": 1.32521693348,
			"0.009": 1.28657319046,
			"0.01": 1.42500525836,
			"0.011": 1.32283393696,
			"0.012": 0.882726676095,
			"0.013": 0.569486390709,
			"0.014": 1.44717981501,
			"0.015": 0.0744837013299,
			"0.016": 0.0,
			"0.017": 0.0,
			"0.018": 0.0,
			"0.019": 0.0,
			"0.02": 0.0,
			"0.021": 0.0,
			"0.022": 0.0,
			"0.023": 0.0,
			"0.024": 0.0,
			"0.025": 0.0
		}
	}
}
