{
	 "smiles": "BrCOCBr", 
	 "Tm": 239.15, 
	 "num_atms": 9, 
	 "gaussian": { 
		 "optdone": 1, 
		 "sigma_profile": "yes", 
		 "theory": "DFT", 
		 "functional": "B3LYP", 
		 "basiset": "6-31G**", 
		 "properties": { 
			 "R2extent": 2177.8151, 
			 "electric_dipole_moment_norm": 0.835282580927, 
			 "electric_quadrupole_moment_norm": 5.69964031848, 
			 "total_energy": -5296.64355156, 
			 "HOMO_LUMO_gap": 0.25279, 
			 "cosmo_polarized_energy": -5.79, 
			 "cosmo_cavitation_energy": 17.12, 
			 "cosmo_dispersion_energy": -13.73, 
			 "cosmo_repulsion_energy": 1.21, 
			 "cosmo_total_nonelectrostatic_energy": 4.59, 
			 "SMD_solvation_energy": 1.5 
		},
		"coords": [
			{
				"x": 1.3044263534,
				"y": -1.0693644408,
				"z": 1.6951194347,
				"element": "Br" 
			},
			{
				"x": 1.0746951903,
				"y": 0.9120430106,
				"z": 1.4733727052,
				"element": "C" 
			},
			{
				"x": 0.6228675761,
				"y": 1.2687038099,
				"z": 0.2142736507,
				"element": "O" 
			},
			{
				"x": -0.6733149216,
				"y": 0.9065290595,
				"z": -0.1102633835,
				"element": "C" 
			},
			{
				"x": -2.0571781864,
				"y": 1.9048130087,
				"z": 0.9461165769,
				"element": "Br" 
			},
			{
				"x": 0.3824269559,
				"y": 1.2023316048,
				"z": 2.264345937,
				"element": "H" 
			},
			{
				"x": 2.0664789285,
				"y": 1.3349971194,
				"z": 1.6019523015,
				"element": "H" 
			},
			{
				"x": -0.8762947597,
				"y": -0.1461243627,
				"z": 0.08941098,
				"element": "H" 
			},
			{
				"x": -0.8451071365,
				"y": 1.1820711907,
				"z": -1.1464282025,
				"element": "H" 
			}
		],
		 "valence_orbital": [ 
			{
				"type": "occ",
				"energy": -0.30851,
				"method": "rhf"
			},
			{
				"type": "occ",
				"energy": -0.29722,
				"method": "rhf"
			},
			{
				"type": "occ",
				"energy": -0.28992,
				"method": "rhf"
			},
			{
				"type": "occ",
				"energy": -0.28573,
				"method": "rhf"
			},
			{
				"type": "occ",
				"energy": -0.2805,
				"method": "rhf"
			},
			{
				"type": "unocc",
				"energy": -0.02771,
				"method": "rhf"
			},
			{
				"type": "unocc",
				"energy": 0.0017,
				"method": "rhf"
			},
			{
				"type": "unocc",
				"energy": 0.08688,
				"method": "rhf"
			},
			{
				"type": "unocc",
				"energy": 0.11125,
				"method": "rhf"
			},
			{
				"type": "unocc",
				"energy": 0.12933,
				"method": "rhf"
			}
		],
		"cosmo_sigma_profile": { 
			"-0.025": 0.0,
			"-0.024": 0.0,
			"-0.023": 0.0,
			"-0.022": 0.0,
			"-0.021": 0.0,
			"-0.02": 0.0,
			"-0.019": 0.0,
			"-0.018": 0.0,
			"-0.017": 0.0,
			"-0.016": 0.0,
			"-0.015": 0.0,
			"-0.014": 0.0,
			"-0.013": 0.0,
			"-0.012": 0.0,
			"-0.011": 0.0,
			"-0.01": 2.48184401395,
			"-0.009": 4.72996252653,
			"-0.008": 6.00346158612,
			"-0.007": 7.27491062458,
			"-0.006": 7.02090748306,
			"-0.005": 5.98152256051,
			"-0.004": 5.06650356113,
			"-0.003": 6.04981156746,
			"-0.002": 7.79957691603,
			"-0.001": 6.91088554655,
			"0.0": 7.32191229779,
			"0.001": 8.52827309694,
			"0.002": 10.6350205844,
			"0.003": 10.8767247909,
			"0.004": 14.0185050372,
			"0.005": 17.8872286441,
			"0.006": 11.8406971589,
			"0.007": 1.28534219642,
			"0.008": 0.942476959719,
			"0.009": 0.0346454976175,
			"0.01": 0.0,
			"0.011": 0.0,
			"0.012": 0.0,
			"0.013": 0.0,
			"0.014": 0.0,
			"0.015": 0.0,
			"0.016": 0.0,
			"0.017": 0.0,
			"0.018": 0.0,
			"0.019": 0.0,
			"0.02": 0.0,
			"0.021": 0.0,
			"0.022": 0.0,
			"0.023": 0.0,
			"0.024": 0.0,
			"0.025": 0.0
		}
	}
}
