{
	 "smiles": "OC(=O)CN1C(=O)C2CC=CCC2C1=O", 
	 "Tm": 357.15, 
	 "num_atms": 26, 
	 "gaussian": { 
		 "optdone": 1, 
		 "sigma_profile": "yes", 
		 "theory": "DFT", 
		 "functional": "B3LYP", 
		 "basiset": "6-31G**", 
		 "properties": { 
			 "R2extent": 3812.5539, 
			 "electric_dipole_moment_norm": 6.32173548798, 
			 "electric_quadrupole_moment_norm": 16.7172038092, 
			 "total_energy": -743.365481222, 
			 "HOMO_LUMO_gap": 0.21382, 
			 "cosmo_polarized_energy": -17.93, 
			 "cosmo_cavitation_energy": 28.99, 
			 "cosmo_dispersion_energy": -21.0, 
			 "cosmo_repulsion_energy": 1.64, 
			 "cosmo_total_nonelectrostatic_energy": 9.63, 
			 "SMD_solvation_energy": 6.7 
		},
		"coords": [
			{
				"x": -1.9856985333,
				"y": -1.751000828,
				"z": -0.0218076942,
				"element": "O" 
			},
			{
				"x": -1.2922542021,
				"y": -2.4677068951,
				"z": 0.8752236584,
				"element": "C" 
			},
			{
				"x": -1.0349931959,
				"y": -3.634103057,
				"z": 0.7086293496,
				"element": "O" 
			},
			{
				"x": -0.8864380754,
				"y": -1.7291771984,
				"z": 2.1666990758,
				"element": "C" 
			},
			{
				"x": -0.1073989674,
				"y": -0.5068930476,
				"z": 1.9631534131,
				"element": "N" 
			},
			{
				"x": 1.2196014614,
				"y": -0.363950653,
				"z": 2.4249268219,
				"element": "C" 
			},
			{
				"x": 1.8814469728,
				"y": -1.2623872654,
				"z": 2.8892939667,
				"element": "O" 
			},
			{
				"x": 1.5773743376,
				"y": 1.1161108836,
				"z": 2.298085233,
				"element": "C" 
			},
			{
				"x": 3.0692410091,
				"y": 1.4088662912,
				"z": 2.0494691486,
				"element": "C" 
			},
			{
				"x": 3.3825433307,
				"y": 1.9341859344,
				"z": 0.6754302777,
				"element": "C" 
			},
			{
				"x": 2.4950308815,
				"y": 2.0536407334,
				"z": -0.3132707831,
				"element": "C" 
			},
			{
				"x": 1.0524254014,
				"y": 1.6414396255,
				"z": -0.1924169106,
				"element": "C" 
			},
			{
				"x": 0.5470421004,
				"y": 1.64797625,
				"z": 1.2761795621,
				"element": "C" 
			},
			{
				"x": -0.5930352117,
				"y": 0.6490564002,
				"z": 1.3806815287,
				"element": "C" 
			},
			{
				"x": -1.7341415986,
				"y": 0.7746498646,
				"z": 0.9494232375,
				"element": "O" 
			},
			{
				"x": -2.1291085596,
				"y": -0.8305097988,
				"z": 0.2953478515,
				"element": "H" 
			},
			{
				"x": -0.2681307066,
				"y": -2.4044527201,
				"z": 2.7561324482,
				"element": "H" 
			},
			{
				"x": -1.7936490718,
				"y": -1.4738771458,
				"z": 2.7275099857,
				"element": "H" 
			},
			{
				"x": 1.3069310006,
				"y": 1.524923854,
				"z": 3.2814094828,
				"element": "H" 
			},
			{
				"x": 3.6391414188,
				"y": 0.490024055,
				"z": 2.2419414484,
				"element": "H" 
			},
			{
				"x": 3.4298033991,
				"y": 2.1303450258,
				"z": 2.7931519534,
				"element": "H" 
			},
			{
				"x": 4.4157489109,
				"y": 2.2297693853,
				"z": 0.5053450456,
				"element": "H" 
			},
			{
				"x": 2.8140749361,
				"y": 2.432035454,
				"z": -1.2817096472,
				"element": "H" 
			},
			{
				"x": 0.931107472,
				"y": 0.6373328398,
				"z": -0.6255724128,
				"element": "H" 
			},
			{
				"x": 0.4049647133,
				"y": 2.2940610903,
				"z": -0.7866447665,
				"element": "H" 
			},
			{
				"x": 0.1911707765,
				"y": 2.6491409221,
				"z": 1.5293887256,
				"element": "H" 
			}
		],
		 "valence_orbital": [ 
			{
				"type": "occ",
				"energy": -0.30947,
				"method": "rhf"
			},
			{
				"type": "occ",
				"energy": -0.30456,
				"method": "rhf"
			},
			{
				"type": "occ",
				"energy": -0.28627,
				"method": "rhf"
			},
			{
				"type": "occ",
				"energy": -0.26551,
				"method": "rhf"
			},
			{
				"type": "occ",
				"energy": -0.26307,
				"method": "rhf"
			},
			{
				"type": "unocc",
				"energy": -0.04925,
				"method": "rhf"
			},
			{
				"type": "unocc",
				"energy": -0.00451,
				"method": "rhf"
			},
			{
				"type": "unocc",
				"energy": 0.00408,
				"method": "rhf"
			},
			{
				"type": "unocc",
				"energy": 0.01033,
				"method": "rhf"
			},
			{
				"type": "unocc",
				"energy": 0.0644,
				"method": "rhf"
			}
		],
		"cosmo_sigma_profile": { 
			"-0.025": 0.0,
			"-0.024": 0.0,
			"-0.023": 0.0,
			"-0.022": 0.0,
			"-0.021": 0.0,
			"-0.02": 0.0,
			"-0.019": 0.0,
			"-0.018": 0.0,
			"-0.017": 0.0,
			"-0.016": 0.0,
			"-0.015": 0.0,
			"-0.014": 0.0,
			"-0.013": 0.0,
			"-0.012": 0.0,
			"-0.011": 0.301927549658,
			"-0.01": 2.56601447526,
			"-0.009": 4.90796901285,
			"-0.008": 7.79820223442,
			"-0.007": 14.1137661227,
			"-0.006": 14.1650884933,
			"-0.005": 20.3407461284,
			"-0.004": 17.658482936,
			"-0.003": 20.1418814593,
			"-0.002": 16.7561888395,
			"-0.001": 12.2883459314,
			"0.0": 9.4705209762,
			"0.001": 9.01013452987,
			"0.002": 6.17409577867,
			"0.003": 7.65620117045,
			"0.004": 7.85627583433,
			"0.005": 5.99628422943,
			"0.006": 6.24191058479,
			"0.007": 4.53251156336,
			"0.008": 6.57189267253,
			"0.009": 7.08347250416,
			"0.01": 9.99300107769,
			"0.011": 11.3075028965,
			"0.012": 5.43699876685,
			"0.013": 1.05958370234,
			"0.014": 0.0,
			"0.015": 0.0,
			"0.016": 0.0,
			"0.017": 0.0,
			"0.018": 0.0,
			"0.019": 0.0,
			"0.02": 0.0,
			"0.021": 0.0,
			"0.022": 0.0,
			"0.023": 0.0,
			"0.024": 0.0,
			"0.025": 0.0
		}
	}
}
