{
	 "smiles": "ClC1=CC(Cl)=C(C=C1)N=[N+]=[N-]", 
	 "Tm": 326.15, 
	 "num_atms": 14, 
	 "gaussian": { 
		 "optdone": 1, 
		 "sigma_profile": "yes", 
		 "theory": "DFT", 
		 "functional": "B3LYP", 
		 "basiset": "6-31G**", 
		 "properties": { 
			 "R2extent": 3724.3326, 
			 "electric_dipole_moment_norm": 1.33893753775, 
			 "electric_quadrupole_moment_norm": 10.4503374587, 
			 "total_energy": -1315.00939449, 
			 "HOMO_LUMO_gap": 0.18694, 
			 "cosmo_polarized_energy": -4.39, 
			 "cosmo_cavitation_energy": 23.6, 
			 "cosmo_dispersion_energy": -17.35, 
			 "cosmo_repulsion_energy": 1.4, 
			 "cosmo_total_nonelectrostatic_energy": 7.65, 
			 "SMD_solvation_energy": 1.78 
		},
		"coords": [
			{
				"x": 1.5551198422,
				"y": 1.3489050715,
				"z": -1.2002718152,
				"element": "Cl" 
			},
			{
				"x": -0.1126804084,
				"y": 1.1928065485,
				"z": -0.6846347738,
				"element": "C" 
			},
			{
				"x": -0.5077146129,
				"y": 0.0525078984,
				"z": 0.0086501497,
				"element": "C" 
			},
			{
				"x": -1.8334738954,
				"y": -0.0760641168,
				"z": 0.424021777,
				"element": "C" 
			},
			{
				"x": -2.2638765392,
				"y": -1.5048048493,
				"z": 1.3430300021,
				"element": "Cl" 
			},
			{
				"x": -2.7835180087,
				"y": 0.9227188431,
				"z": 0.1362469544,
				"element": "C" 
			},
			{
				"x": -2.3432927225,
				"y": 2.0655373253,
				"z": -0.5527990769,
				"element": "C" 
			},
			{
				"x": -1.0254466801,
				"y": 2.2104875889,
				"z": -0.9642767729,
				"element": "C" 
			},
			{
				"x": -4.1417956401,
				"y": 0.9506010844,
				"z": 0.5066037832,
				"element": "N" 
			},
			{
				"x": -4.8000055713,
				"y": -0.0716199332,
				"z": 0.7542331978,
				"element": "N" 
			},
			{
				"x": -5.5760546064,
				"y": -0.8685218785,
				"z": 1.0003525953,
				"element": "N" 
			},
			{
				"x": 0.2042712263,
				"y": -0.7308132831,
				"z": 0.237887073,
				"element": "H" 
			},
			{
				"x": -3.0742673408,
				"y": 2.8387275252,
				"z": -0.7625238345,
				"element": "H" 
			},
			{
				"x": -0.7092650428,
				"y": 3.0983321756,
				"z": -1.4993192593,
				"element": "H" 
			}
		],
		 "valence_orbital": [ 
			{
				"type": "occ",
				"energy": -0.32728,
				"method": "rhf"
			},
			{
				"type": "occ",
				"energy": -0.31925,
				"method": "rhf"
			},
			{
				"type": "occ",
				"energy": -0.30675,
				"method": "rhf"
			},
			{
				"type": "occ",
				"energy": -0.27374,
				"method": "rhf"
			},
			{
				"type": "occ",
				"energy": -0.23826,
				"method": "rhf"
			},
			{
				"type": "unocc",
				"energy": -0.05132,
				"method": "rhf"
			},
			{
				"type": "unocc",
				"energy": -0.04642,
				"method": "rhf"
			},
			{
				"type": "unocc",
				"energy": -0.03553,
				"method": "rhf"
			},
			{
				"type": "unocc",
				"energy": 0.0001,
				"method": "rhf"
			},
			{
				"type": "unocc",
				"energy": 0.01866,
				"method": "rhf"
			}
		],
		"cosmo_sigma_profile": { 
			"-0.025": 0.0,
			"-0.024": 0.0,
			"-0.023": 0.0,
			"-0.022": 0.0,
			"-0.021": 0.0,
			"-0.02": 0.0,
			"-0.019": 0.0,
			"-0.018": 0.0,
			"-0.017": 0.0,
			"-0.016": 0.0,
			"-0.015": 0.0,
			"-0.014": 0.0,
			"-0.013": 0.0,
			"-0.012": 0.0,
			"-0.011": 0.0,
			"-0.01": 0.0,
			"-0.009": 0.770436835567,
			"-0.008": 4.71056006405,
			"-0.007": 5.89482761545,
			"-0.006": 6.50784385682,
			"-0.005": 7.05132814433,
			"-0.004": 9.88610943051,
			"-0.003": 10.8140143457,
			"-0.002": 14.0222810836,
			"-0.001": 14.2670108859,
			"0.0": 24.2319797453,
			"0.001": 29.6345557556,
			"0.002": 20.2720548943,
			"0.003": 17.0023425713,
			"0.004": 16.8813954047,
			"0.005": 6.21170371824,
			"0.006": 4.66192407658,
			"0.007": 2.68704423759,
			"0.008": 0.588834082403,
			"0.009": 0.0,
			"0.01": 0.0,
			"0.011": 0.0,
			"0.012": 0.0,
			"0.013": 0.0,
			"0.014": 0.0,
			"0.015": 0.0,
			"0.016": 0.0,
			"0.017": 0.0,
			"0.018": 0.0,
			"0.019": 0.0,
			"0.02": 0.0,
			"0.021": 0.0,
			"0.022": 0.0,
			"0.023": 0.0,
			"0.024": 0.0,
			"0.025": 0.0
		}
	}
}
