{
	 "smiles": "CC1=CC=CC=C1NC(=S)C(=O)C1=CC=CC=C1", 
	 "Tm": 397.15, 
	 "num_atms": 31, 
	 "gaussian": { 
		 "optdone": 1, 
		 "sigma_profile": "yes", 
		 "theory": "DFT", 
		 "functional": "B3LYP", 
		 "basiset": "6-31G**", 
		 "properties": { 
			 "R2extent": 5479.7861, 
			 "electric_dipole_moment_norm": 5.56379678547, 
			 "electric_quadrupole_moment_norm": 21.8573858464, 
			 "total_energy": -1107.59692721, 
			 "HOMO_LUMO_gap": 0.14956, 
			 "cosmo_polarized_energy": -15.2, 
			 "cosmo_cavitation_energy": 37.27, 
			 "cosmo_dispersion_energy": -25.43, 
			 "cosmo_repulsion_energy": 1.94, 
			 "cosmo_total_nonelectrostatic_energy": 13.78, 
			 "SMD_solvation_energy": 5.65 
		},
		"coords": [
			{
				"x": -1.1676772505,
				"y": -2.27112669,
				"z": -1.2994176321,
				"element": "C" 
			},
			{
				"x": -1.9189355914,
				"y": -1.1593774267,
				"z": -0.6070769847,
				"element": "C" 
			},
			{
				"x": -2.9039050214,
				"y": -0.4299565744,
				"z": -1.280333631,
				"element": "C" 
			},
			{
				"x": -3.5987498924,
				"y": 0.6069177378,
				"z": -0.656286531,
				"element": "C" 
			},
			{
				"x": -3.3231138624,
				"y": 0.9229850048,
				"z": 0.6732088081,
				"element": "C" 
			},
			{
				"x": -2.3586223396,
				"y": 0.2031335139,
				"z": 1.3769479675,
				"element": "C" 
			},
			{
				"x": -1.649838914,
				"y": -0.8182437321,
				"z": 0.7349087801,
				"element": "C" 
			},
			{
				"x": -0.6765232252,
				"y": -1.5928305285,
				"z": 1.438178455,
				"element": "N" 
			},
			{
				"x": 0.3282490793,
				"y": -1.2073473965,
				"z": 2.2506960088,
				"element": "C" 
			},
			{
				"x": 1.3333290578,
				"y": -2.2752707328,
				"z": 3.034256432,
				"element": "S" 
			},
			{
				"x": 0.5667832699,
				"y": 0.2807469003,
				"z": 2.4857043427,
				"element": "C" 
			},
			{
				"x": -0.0607184766,
				"y": 0.8475855585,
				"z": 3.3688570978,
				"element": "O" 
			},
			{
				"x": 1.5865549523,
				"y": 0.9758621191,
				"z": 1.6526758128,
				"element": "C" 
			},
			{
				"x": 2.3130530158,
				"y": 0.3258226435,
				"z": 0.6434198635,
				"element": "C" 
			},
			{
				"x": 3.2286017184,
				"y": 1.0394131848,
				"z": -0.1279481982,
				"element": "C" 
			},
			{
				"x": 3.4255059836,
				"y": 2.402759249,
				"z": 0.1031369401,
				"element": "C" 
			},
			{
				"x": 2.7052384597,
				"y": 3.0557055525,
				"z": 1.1086355194,
				"element": "C" 
			},
			{
				"x": 1.7892845068,
				"y": 2.3470820486,
				"z": 1.8790101197,
				"element": "C" 
			},
			{
				"x": -0.0834674135,
				"y": -2.1357684597,
				"z": -1.2218663969,
				"element": "H" 
			},
			{
				"x": -1.4287569539,
				"y": -2.3120015126,
				"z": -2.3594767393,
				"element": "H" 
			},
			{
				"x": -1.3997355372,
				"y": -3.2563496181,
				"z": -0.8726469097,
				"element": "H" 
			},
			{
				"x": -3.1206137448,
				"y": -0.6773572225,
				"z": -2.3161637757,
				"element": "H" 
			},
			{
				"x": -4.3540516465,
				"y": 1.1601522094,
				"z": -1.2063197629,
				"element": "H" 
			},
			{
				"x": -3.8666085795,
				"y": 1.7183368171,
				"z": 1.1738668328,
				"element": "H" 
			},
			{
				"x": -2.1538470592,
				"y": 0.421972054,
				"z": 2.4177724607,
				"element": "H" 
			},
			{
				"x": -0.7275559654,
				"y": -2.6008793196,
				"z": 1.3209446018,
				"element": "H" 
			},
			{
				"x": 2.1776860167,
				"y": -0.7376087791,
				"z": 0.475636626,
				"element": "H" 
			},
			{
				"x": 3.7924206997,
				"y": 0.5317609582,
				"z": -0.9047834613,
				"element": "H" 
			},
			{
				"x": 4.1411450495,
				"y": 2.9562944275,
				"z": -0.4981766704,
				"element": "H" 
			},
			{
				"x": 2.8604042827,
				"y": 4.1154139838,
				"z": 1.2883942031,
				"element": "H" 
			},
			{
				"x": 1.2165653816,
				"y": 2.8301740299,
				"z": 2.6634458213,
				"element": "H" 
			}
		],
		 "valence_orbital": [ 
			{
				"type": "occ",
				"energy": -0.26552,
				"method": "rhf"
			},
			{
				"type": "occ",
				"energy": -0.26257,
				"method": "rhf"
			},
			{
				"type": "occ",
				"energy": -0.25791,
				"method": "rhf"
			},
			{
				"type": "occ",
				"energy": -0.22758,
				"method": "rhf"
			},
			{
				"type": "occ",
				"energy": -0.21711,
				"method": "rhf"
			},
			{
				"type": "unocc",
				"energy": -0.06755,
				"method": "rhf"
			},
			{
				"type": "unocc",
				"energy": -0.05299,
				"method": "rhf"
			},
			{
				"type": "unocc",
				"energy": -0.01351,
				"method": "rhf"
			},
			{
				"type": "unocc",
				"energy": -0.01277,
				"method": "rhf"
			},
			{
				"type": "unocc",
				"energy": -0.00467,
				"method": "rhf"
			}
		],
		"cosmo_sigma_profile": { 
			"-0.025": 0.0,
			"-0.024": 0.0,
			"-0.023": 0.0,
			"-0.022": 0.0,
			"-0.021": 0.0,
			"-0.02": 0.0,
			"-0.019": 0.0,
			"-0.018": 0.0,
			"-0.017": 0.0,
			"-0.016": 0.0,
			"-0.015": 0.407659605703,
			"-0.014": 0.972500360407,
			"-0.013": 1.15235770812,
			"-0.012": 0.996680270524,
			"-0.011": 1.19006347058,
			"-0.01": 1.2610002008,
			"-0.009": 0.96307971838,
			"-0.008": 1.14141811289,
			"-0.007": 4.25479909664,
			"-0.006": 18.0156246666,
			"-0.005": 26.9548080863,
			"-0.004": 25.7433608514,
			"-0.003": 19.5338927736,
			"-0.002": 20.4881969002,
			"-0.001": 20.3966587387,
			"0.0": 19.280055855,
			"0.001": 20.1813427222,
			"0.002": 22.2804785466,
			"0.003": 27.1421419071,
			"0.004": 20.3728468241,
			"0.005": 11.3556595093,
			"0.006": 8.09394305749,
			"0.007": 7.51212480879,
			"0.008": 7.10696931005,
			"0.009": 6.17754591512,
			"0.01": 5.69620651065,
			"0.011": 2.48614971786,
			"0.012": 0.077324008796,
			"0.013": 0.0,
			"0.014": 0.0,
			"0.015": 0.0,
			"0.016": 0.0,
			"0.017": 0.0,
			"0.018": 0.0,
			"0.019": 0.0,
			"0.02": 0.0,
			"0.021": 0.0,
			"0.022": 0.0,
			"0.023": 0.0,
			"0.024": 0.0,
			"0.025": 0.0
		}
	}
}
