{
	 "smiles": "NC1=C(C=CC(Cl)=N1)[N+]([O-])=O", 
	 "Tm": 463.15, 
	 "num_atms": 15, 
	 "gaussian": { 
		 "optdone": 1, 
		 "sigma_profile": "yes", 
		 "theory": "DFT", 
		 "functional": "B3LYP", 
		 "basiset": "6-31G**", 
		 "properties": { 
			 "R2extent": 3468.0548, 
			 "electric_dipole_moment_norm": 1.48453598474, 
			 "electric_quadrupole_moment_norm": 15.1325799205, 
			 "total_energy": -967.748753625, 
			 "HOMO_LUMO_gap": 0.14987, 
			 "cosmo_polarized_energy": -10.07, 
			 "cosmo_cavitation_energy": 21.96, 
			 "cosmo_dispersion_energy": -16.95, 
			 "cosmo_repulsion_energy": 1.37, 
			 "cosmo_total_nonelectrostatic_energy": 6.37, 
			 "SMD_solvation_energy": 4.25 
		},
		"coords": [
			{
				"x": 0.8345147586,
				"y": 1.7539328672,
				"z": 0.6543567323,
				"element": "N" 
			},
			{
				"x": 1.2625272373,
				"y": 1.0670679618,
				"z": -0.4185899783,
				"element": "C" 
			},
			{
				"x": 0.5098283466,
				"y": 0.8952875866,
				"z": -1.6187024803,
				"element": "C" 
			},
			{
				"x": 1.061339915,
				"y": 0.1578662941,
				"z": -2.6712716871,
				"element": "C" 
			},
			{
				"x": 2.3214817172,
				"y": -0.3954440171,
				"z": -2.5446096361,
				"element": "C" 
			},
			{
				"x": 2.9774471918,
				"y": -0.1671573785,
				"z": -1.3234943586,
				"element": "C" 
			},
			{
				"x": 4.5822258607,
				"y": -0.8465825852,
				"z": -1.1073904884,
				"element": "Cl" 
			},
			{
				"x": 2.4960754148,
				"y": 0.5169106295,
				"z": -0.3140276438,
				"element": "N" 
			},
			{
				"x": -0.8101147879,
				"y": 1.4547160817,
				"z": -1.7978336298,
				"element": "N" 
			},
			{
				"x": -1.3084562224,
				"y": 2.1123833377,
				"z": -0.8659618393,
				"element": "O" 
			},
			{
				"x": -1.3880477855,
				"y": 1.2572183039,
				"z": -2.8668850057,
				"element": "O" 
			},
			{
				"x": 1.4517057378,
				"y": 1.8098644097,
				"z": 1.4491182465,
				"element": "H" 
			},
			{
				"x": -0.0787327525,
				"y": 2.1837272636,
				"z": 0.6285459224,
				"element": "H" 
			},
			{
				"x": 0.4743946893,
				"y": 0.0387486404,
				"z": -3.5738197975,
				"element": "H" 
			},
			{
				"x": 2.7841106792,
				"y": -0.9723393953,
				"z": -3.3339343562,
				"element": "H" 
			}
		],
		 "valence_orbital": [ 
			{
				"type": "occ",
				"energy": -0.31569,
				"method": "rhf"
			},
			{
				"type": "occ",
				"energy": -0.30634,
				"method": "rhf"
			},
			{
				"type": "occ",
				"energy": -0.3023,
				"method": "rhf"
			},
			{
				"type": "occ",
				"energy": -0.29429,
				"method": "rhf"
			},
			{
				"type": "occ",
				"energy": -0.24815,
				"method": "rhf"
			},
			{
				"type": "unocc",
				"energy": -0.09828,
				"method": "rhf"
			},
			{
				"type": "unocc",
				"energy": -0.03551,
				"method": "rhf"
			},
			{
				"type": "unocc",
				"energy": -0.01153,
				"method": "rhf"
			},
			{
				"type": "unocc",
				"energy": 0.02016,
				"method": "rhf"
			},
			{
				"type": "unocc",
				"energy": 0.08248,
				"method": "rhf"
			}
		],
		"cosmo_sigma_profile": { 
			"-0.025": 0.0,
			"-0.024": 0.0,
			"-0.023": 0.0,
			"-0.022": 0.0,
			"-0.021": 0.0,
			"-0.02": 0.0,
			"-0.019": 0.0,
			"-0.018": 0.0,
			"-0.017": 0.0,
			"-0.016": 0.0112362712641,
			"-0.015": 0.752168759128,
			"-0.014": 1.04586804827,
			"-0.013": 0.802303695848,
			"-0.012": 1.74097968309,
			"-0.011": 2.22575881555,
			"-0.01": 1.69140501564,
			"-0.009": 2.75929130543,
			"-0.008": 4.49461025553,
			"-0.007": 5.1464169103,
			"-0.006": 6.28091098814,
			"-0.005": 6.43111074488,
			"-0.004": 7.81258313386,
			"-0.003": 12.8218874911,
			"-0.002": 16.2502949481,
			"-0.001": 15.4317160639,
			"0.0": 13.3164954454,
			"0.001": 13.2965436863,
			"0.002": 9.80338416911,
			"0.003": 12.9920375582,
			"0.004": 8.87598017276,
			"0.005": 4.51470265776,
			"0.006": 5.0154190862,
			"0.007": 6.41243683202,
			"0.008": 6.92871130157,
			"0.009": 5.9878027088,
			"0.01": 4.14037047717,
			"0.011": 1.9214864865,
			"0.012": 0.248057909269,
			"0.013": 0.0,
			"0.014": 0.0,
			"0.015": 0.0,
			"0.016": 0.0,
			"0.017": 0.0,
			"0.018": 0.0,
			"0.019": 0.0,
			"0.02": 0.0,
			"0.021": 0.0,
			"0.022": 0.0,
			"0.023": 0.0,
			"0.024": 0.0,
			"0.025": 0.0
		}
	}
}
