{
	 "smiles": "CN1C(Cl)=NC2=C1C(=O)NC(=O)N2C", 
	 "Tm": 573.15, 
	 "num_atms": 21, 
	 "gaussian": { 
		 "optdone": 1, 
		 "sigma_profile": "yes", 
		 "theory": "DFT", 
		 "functional": "B3LYP", 
		 "basiset": "6-31G**", 
		 "properties": { 
			 "R2extent": 3145.047, 
			 "electric_dipole_moment_norm": 2.96880451024, 
			 "electric_quadrupole_moment_norm": 8.07065097436, 
			 "total_energy": -1100.65218915, 
			 "HOMO_LUMO_gap": 0.18533, 
			 "cosmo_polarized_energy": -14.08, 
			 "cosmo_cavitation_energy": 27.28, 
			 "cosmo_dispersion_energy": -20.41, 
			 "cosmo_repulsion_energy": 1.59, 
			 "cosmo_total_nonelectrostatic_energy": 8.45, 
			 "SMD_solvation_energy": 4.52 
		},
		"coords": [
			{
				"x": 0.2826471067,
				"y": -0.6569414312,
				"z": 2.9876165672,
				"element": "C" 
			},
			{
				"x": -0.2201315623,
				"y": -0.4506082784,
				"z": 1.632513124,
				"element": "N" 
			},
			{
				"x": -1.3482754633,
				"y": -0.9278294264,
				"z": 1.0419635203,
				"element": "C" 
			},
			{
				"x": -2.4604274931,
				"y": -1.94274521,
				"z": 1.8781172795,
				"element": "Cl" 
			},
			{
				"x": -1.5150293448,
				"y": -0.5493065839,
				"z": -0.2149973989,
				"element": "N" 
			},
			{
				"x": -0.4231733307,
				"y": 0.2251976292,
				"z": -0.4579583593,
				"element": "C" 
			},
			{
				"x": 0.3987385972,
				"y": 0.3129383294,
				"z": 0.6494598497,
				"element": "C" 
			},
			{
				"x": 1.6196856444,
				"y": 1.0698155902,
				"z": 0.6620505593,
				"element": "C" 
			},
			{
				"x": 2.416352104,
				"y": 1.2140097767,
				"z": 1.5807479772,
				"element": "O" 
			},
			{
				"x": 1.810442451,
				"y": 1.6721522127,
				"z": -0.5971991723,
				"element": "N" 
			},
			{
				"x": 1.0220754295,
				"y": 1.6245629173,
				"z": -1.7545335155,
				"element": "C" 
			},
			{
				"x": 1.3463976074,
				"y": 2.2168803166,
				"z": -2.7702406819,
				"element": "O" 
			},
			{
				"x": -0.1403821647,
				"y": 0.8582280411,
				"z": -1.647433705,
				"element": "N" 
			},
			{
				"x": -1.0413253653,
				"y": 0.735670287,
				"z": -2.7928479896,
				"element": "C" 
			},
			{
				"x": 0.3758010381,
				"y": 0.3042957273,
				"z": 3.4961251889,
				"element": "H" 
			},
			{
				"x": 1.2676343448,
				"y": -1.1253778096,
				"z": 2.9475688571,
				"element": "H" 
			},
			{
				"x": -0.4139303801,
				"y": -1.2978719041,
				"z": 3.5255972422,
				"element": "H" 
			},
			{
				"x": 2.6478414024,
				"y": 2.2329068278,
				"z": -0.6971147996,
				"element": "H" 
			},
			{
				"x": -0.6105433208,
				"y": 1.316265744,
				"z": -3.6059852983,
				"element": "H" 
			},
			{
				"x": -2.0312353055,
				"y": 1.1202996262,
				"z": -2.5349092523,
				"element": "H" 
			},
			{
				"x": -1.1371619951,
				"y": -0.3131423819,
				"z": -3.0847399926,
				"element": "H" 
			}
		],
		 "valence_orbital": [ 
			{
				"type": "occ",
				"energy": -0.29532,
				"method": "rhf"
			},
			{
				"type": "occ",
				"energy": -0.28854,
				"method": "rhf"
			},
			{
				"type": "occ",
				"energy": -0.28603,
				"method": "rhf"
			},
			{
				"type": "occ",
				"energy": -0.2673,
				"method": "rhf"
			},
			{
				"type": "occ",
				"energy": -0.22733,
				"method": "rhf"
			},
			{
				"type": "unocc",
				"energy": -0.042,
				"method": "rhf"
			},
			{
				"type": "unocc",
				"energy": 0.01361,
				"method": "rhf"
			},
			{
				"type": "unocc",
				"energy": 0.01608,
				"method": "rhf"
			},
			{
				"type": "unocc",
				"energy": 0.02367,
				"method": "rhf"
			},
			{
				"type": "unocc",
				"energy": 0.09032,
				"method": "rhf"
			}
		],
		"cosmo_sigma_profile": { 
			"-0.025": 0.0,
			"-0.024": 0.0,
			"-0.023": 0.0,
			"-0.022": 0.0,
			"-0.021": 0.0,
			"-0.02": 0.0,
			"-0.019": 0.0,
			"-0.018": 0.0,
			"-0.017": 0.0,
			"-0.016": 0.35528433219,
			"-0.015": 1.07189726137,
			"-0.014": 0.780170541598,
			"-0.013": 0.243846930245,
			"-0.012": 0.753556377844,
			"-0.011": 0.969466015331,
			"-0.01": 0.684095211206,
			"-0.009": 1.07253382844,
			"-0.008": 0.787033383665,
			"-0.007": 5.76413201428,
			"-0.006": 10.7131193555,
			"-0.005": 19.0121809409,
			"-0.004": 25.7494803268,
			"-0.003": 25.6173945019,
			"-0.002": 21.3716912133,
			"-0.001": 15.9704209778,
			"0.0": 9.01945587269,
			"0.001": 10.7386030675,
			"0.002": 12.1888531447,
			"0.003": 8.3222300609,
			"0.004": 4.46776945499,
			"0.005": 3.81631048665,
			"0.006": 4.84050188,
			"0.007": 3.45427913386,
			"0.008": 3.24992819736,
			"0.009": 3.41740339373,
			"0.01": 4.77868542176,
			"0.011": 4.60305546034,
			"0.012": 9.88427503059,
			"0.013": 6.55751884593,
			"0.014": 0.433190598668,
			"0.015": 0.0,
			"0.016": 0.0,
			"0.017": 0.0,
			"0.018": 0.0,
			"0.019": 0.0,
			"0.02": 0.0,
			"0.021": 0.0,
			"0.022": 0.0,
			"0.023": 0.0,
			"0.024": 0.0,
			"0.025": 0.0
		}
	}
}
