{
	 "smiles": "COC1=C(NC(=O)C2=CC=C(NC(=O)CCCl)C=C2)C=CC=C1", 
	 "Tm": 467.15, 
	 "num_atms": 40, 
	 "gaussian": { 
		 "optdone": 1, 
		 "sigma_profile": "yes", 
		 "theory": "DFT", 
		 "functional": "B3LYP", 
		 "basiset": "6-31G**", 
		 "properties": { 
			 "R2extent": 15207.4923, 
			 "electric_dipole_moment_norm": 4.41648548509, 
			 "electric_quadrupole_moment_norm": 38.1956727545, 
			 "total_energy": -1453.46101053, 
			 "HOMO_LUMO_gap": 0.15843, 
			 "cosmo_polarized_energy": -23.14, 
			 "cosmo_cavitation_energy": 46.34, 
			 "cosmo_dispersion_energy": -33.37, 
			 "cosmo_repulsion_energy": 2.53, 
			 "cosmo_total_nonelectrostatic_energy": 15.51, 
			 "SMD_solvation_energy": 8.79 
		},
		"coords": [
			{
				"x": -1.8286484167,
				"y": 4.4411758538,
				"z": -1.7627271347,
				"element": "C" 
			},
			{
				"x": -2.0674749952,
				"y": 3.097615071,
				"z": -1.3734815959,
				"element": "O" 
			},
			{
				"x": -3.3556858479,
				"y": 2.6200886956,
				"z": -1.428211582,
				"element": "C" 
			},
			{
				"x": -3.5022375404,
				"y": 1.2678998431,
				"z": -1.031780909,
				"element": "C" 
			},
			{
				"x": -2.3241284945,
				"y": 0.6125432519,
				"z": -0.6341851514,
				"element": "N" 
			},
			{
				"x": -2.1640382001,
				"y": -0.6916012287,
				"z": -0.2296610824,
				"element": "C" 
			},
			{
				"x": -3.0762613298,
				"y": -1.514571618,
				"z": -0.2012615998,
				"element": "O" 
			},
			{
				"x": -0.7660278748,
				"y": -1.0679310325,
				"z": 0.1705989603,
				"element": "C" 
			},
			{
				"x": -0.4594923393,
				"y": -2.4355417236,
				"z": 0.2077321181,
				"element": "C" 
			},
			{
				"x": 0.8076612863,
				"y": -2.8683680696,
				"z": 0.5676697682,
				"element": "C" 
			},
			{
				"x": 1.8061789132,
				"y": -1.9426915371,
				"z": 0.9161484001,
				"element": "C" 
			},
			{
				"x": 3.0702061582,
				"y": -2.4571013714,
				"z": 1.2678559855,
				"element": "N" 
			},
			{
				"x": 4.2100575073,
				"y": -1.7774085584,
				"z": 1.6242275176,
				"element": "C" 
			},
			{
				"x": 4.2977119667,
				"y": -0.5603771506,
				"z": 1.7054298737,
				"element": "O" 
			},
			{
				"x": 5.4267940193,
				"y": -2.6696107667,
				"z": 1.8872683358,
				"element": "C" 
			},
			{
				"x": 6.1622274503,
				"y": -2.2488840843,
				"z": 3.1514776953,
				"element": "C" 
			},
			{
				"x": 5.235378057,
				"y": -2.7127898616,
				"z": 4.644939574,
				"element": "Cl" 
			},
			{
				"x": 1.5075609422,
				"y": -0.571583194,
				"z": 0.9064110584,
				"element": "C" 
			},
			{
				"x": 0.2314442306,
				"y": -0.1533804419,
				"z": 0.5359075288,
				"element": "C" 
			},
			{
				"x": -4.7732633718,
				"y": 0.6863014798,
				"z": -1.0509154098,
				"element": "C" 
			},
			{
				"x": -5.8789520128,
				"y": 1.439337684,
				"z": -1.4575082009,
				"element": "C" 
			},
			{
				"x": -5.7290224352,
				"y": 2.7662473073,
				"z": -1.8464280519,
				"element": "C" 
			},
			{
				"x": -4.4619014278,
				"y": 3.3614254825,
				"z": -1.8331237434,
				"element": "C" 
			},
			{
				"x": -2.3738089036,
				"y": 5.1465544555,
				"z": -1.1233357708,
				"element": "H" 
			},
			{
				"x": -2.1106023484,
				"y": 4.6114669462,
				"z": -2.8092099622,
				"element": "H" 
			},
			{
				"x": -0.7561588427,
				"y": 4.6046898511,
				"z": -1.6470318536,
				"element": "H" 
			},
			{
				"x": -1.4955950428,
				"y": 1.1813490969,
				"z": -0.7296446036,
				"element": "H" 
			},
			{
				"x": -1.2388482345,
				"y": -3.1440405317,
				"z": -0.050243496,
				"element": "H" 
			},
			{
				"x": 1.0304920657,
				"y": -3.9330857879,
				"z": 0.5820122488,
				"element": "H" 
			},
			{
				"x": 3.1315127673,
				"y": -3.4651054679,
				"z": 1.2784826341,
				"element": "H" 
			},
			{
				"x": 5.1761094948,
				"y": -3.7343678338,
				"z": 1.9253883488,
				"element": "H" 
			},
			{
				"x": 6.1116457055,
				"y": -2.5233733537,
				"z": 1.0410066331,
				"element": "H" 
			},
			{
				"x": 6.27592477,
				"y": -1.1652531276,
				"z": 3.1765935135,
				"element": "H" 
			},
			{
				"x": 7.1351577005,
				"y": -2.7337683281,
				"z": 3.2305037493,
				"element": "H" 
			},
			{
				"x": 2.266680854,
				"y": 0.1406428245,
				"z": 1.1954997461,
				"element": "H" 
			},
			{
				"x": 0.0196661918,
				"y": 0.9116860592,
				"z": 0.5747850001,
				"element": "H" 
			},
			{
				"x": -4.8734338171,
				"y": -0.3469736071,
				"z": -0.7509725149,
				"element": "H" 
			},
			{
				"x": -6.8600844467,
				"y": 0.9745957827,
				"z": -1.4674091149,
				"element": "H" 
			},
			{
				"x": -6.5883687166,
				"y": 3.3494523982,
				"z": -2.162999865,
				"element": "H" 
			},
			{
				"x": -4.3483754419,
				"y": 4.3955365927,
				"z": -2.1363070475,
				"element": "H" 
			}
		],
		 "valence_orbital": [ 
			{
				"type": "occ",
				"energy": -0.26219,
				"method": "rhf"
			},
			{
				"type": "occ",
				"energy": -0.25002,
				"method": "rhf"
			},
			{
				"type": "occ",
				"energy": -0.23565,
				"method": "rhf"
			},
			{
				"type": "occ",
				"energy": -0.2308,
				"method": "rhf"
			},
			{
				"type": "occ",
				"energy": -0.20355,
				"method": "rhf"
			},
			{
				"type": "unocc",
				"energy": -0.04512,
				"method": "rhf"
			},
			{
				"type": "unocc",
				"energy": -0.01186,
				"method": "rhf"
			},
			{
				"type": "unocc",
				"energy": -0.00046,
				"method": "rhf"
			},
			{
				"type": "unocc",
				"energy": 0.01368,
				"method": "rhf"
			},
			{
				"type": "unocc",
				"energy": 0.01961,
				"method": "rhf"
			}
		],
		"cosmo_sigma_profile": { 
			"-0.025": 0.0,
			"-0.024": 0.0,
			"-0.023": 0.0,
			"-0.022": 0.0,
			"-0.021": 0.0,
			"-0.02": 0.0,
			"-0.019": 0.0,
			"-0.018": 0.0,
			"-0.017": 0.0,
			"-0.016": 0.555138026302,
			"-0.015": 1.51859417724,
			"-0.014": 1.5641957986,
			"-0.013": 2.03450470261,
			"-0.012": 1.14506811014,
			"-0.011": 1.64666849903,
			"-0.01": 2.21287330548,
			"-0.009": 3.17664770581,
			"-0.008": 5.75489222292,
			"-0.007": 13.1646377666,
			"-0.006": 20.3134719273,
			"-0.005": 29.8099483073,
			"-0.004": 27.9478171973,
			"-0.003": 24.8472081934,
			"-0.002": 17.5676554496,
			"-0.001": 17.9261032709,
			"0.0": 20.044500367,
			"0.001": 24.5527855412,
			"0.002": 27.2762764584,
			"0.003": 30.3814161618,
			"0.004": 29.5192660108,
			"0.005": 19.2868541498,
			"0.006": 19.7510393486,
			"0.007": 6.84840873224,
			"0.008": 3.61039026839,
			"0.009": 2.61262987031,
			"0.01": 3.3058623136,
			"0.011": 4.04940153936,
			"0.012": 5.41424038811,
			"0.013": 4.01408516709,
			"0.014": 0.451170816676,
			"0.015": 0.0,
			"0.016": 0.0,
			"0.017": 0.0,
			"0.018": 0.0,
			"0.019": 0.0,
			"0.02": 0.0,
			"0.021": 0.0,
			"0.022": 0.0,
			"0.023": 0.0,
			"0.024": 0.0,
			"0.025": 0.0
		}
	}
}
