{
	 "smiles": "OC1=CC(=CC=C1)N=[N+]([O-])C1=CC(O)=CC=C1", 
	 "Tm": 456.15, 
	 "num_atms": 27, 
	 "gaussian": { 
		 "optdone": 1, 
		 "sigma_profile": "yes", 
		 "theory": "DFT", 
		 "functional": "B3LYP", 
		 "basiset": "6-31G**", 
		 "properties": { 
			 "R2extent": 4683.9962, 
			 "electric_dipole_moment_norm": 2.69754054464, 
			 "electric_quadrupole_moment_norm": 22.5071514768, 
			 "total_energy": -798.363183919, 
			 "HOMO_LUMO_gap": 0.14518, 
			 "cosmo_polarized_energy": -20.31, 
			 "cosmo_cavitation_energy": 32.36, 
			 "cosmo_dispersion_energy": -22.82, 
			 "cosmo_repulsion_energy": 1.79, 
			 "cosmo_total_nonelectrostatic_energy": 11.33, 
			 "SMD_solvation_energy": 6.33 
		},
		"coords": [
			{
				"x": 3.4394467229,
				"y": -2.0672848956,
				"z": -3.3542717411,
				"element": "O" 
			},
			{
				"x": 3.018524346,
				"y": -1.5962020908,
				"z": -2.144013458,
				"element": "C" 
			},
			{
				"x": 2.743432232,
				"y": -0.2460485219,
				"z": -1.9219322435,
				"element": "C" 
			},
			{
				"x": 2.2951479473,
				"y": 0.1854935804,
				"z": -0.6635421659,
				"element": "C" 
			},
			{
				"x": 2.1696139907,
				"y": -0.7403466714,
				"z": 0.384979027,
				"element": "C" 
			},
			{
				"x": 2.4594398836,
				"y": -2.0839393617,
				"z": 0.1476273976,
				"element": "C" 
			},
			{
				"x": 2.873258072,
				"y": -2.5259789343,
				"z": -1.1065544285,
				"element": "C" 
			},
			{
				"x": 2.1473302546,
				"y": 1.579512617,
				"z": -0.5036797344,
				"element": "N" 
			},
			{
				"x": 1.1399832251,
				"y": 2.0603877427,
				"z": 0.1232756504,
				"element": "N" 
			},
			{
				"x": 1.115028882,
				"y": 3.2605938709,
				"z": 0.4722121741,
				"element": "O" 
			},
			{
				"x": -0.1048975447,
				"y": 1.3221011277,
				"z": 0.4284982962,
				"element": "C" 
			},
			{
				"x": -0.6676358112,
				"y": 1.5426268345,
				"z": 1.6834246499,
				"element": "C" 
			},
			{
				"x": -1.8794593401,
				"y": 0.9227648162,
				"z": 1.9955730731,
				"element": "C" 
			},
			{
				"x": -2.4899318678,
				"y": 1.071070946,
				"z": 3.204212563,
				"element": "O" 
			},
			{
				"x": -2.5212850714,
				"y": 0.1187676617,
				"z": 1.0435548129,
				"element": "C" 
			},
			{
				"x": -1.9467190392,
				"y": -0.0582701822,
				"z": -0.21164706,
				"element": "C" 
			},
			{
				"x": -0.7255545744,
				"y": 0.5370520847,
				"z": -0.5378649628,
				"element": "C" 
			},
			{
				"x": 3.5277671346,
				"y": -1.3280312389,
				"z": -3.9699005854,
				"element": "H" 
			},
			{
				"x": 2.8733433903,
				"y": 0.4903885528,
				"z": -2.7107746144,
				"element": "H" 
			},
			{
				"x": 1.8709041107,
				"y": -0.408049736,
				"z": 1.3724629104,
				"element": "H" 
			},
			{
				"x": 2.3668932012,
				"y": -2.7992799923,
				"z": 0.9597326495,
				"element": "H" 
			},
			{
				"x": 3.1031459314,
				"y": -3.568586058,
				"z": -1.2966315074,
				"element": "H" 
			},
			{
				"x": -0.167712691,
				"y": 2.207093265,
				"z": 2.3806293994,
				"element": "H" 
			},
			{
				"x": -1.9689573292,
				"y": 1.66638263,
				"z": 3.7589633423,
				"element": "H" 
			},
			{
				"x": -3.4665703437,
				"y": -0.3450585173,
				"z": 1.3037311957,
				"element": "H" 
			},
			{
				"x": -2.4558401343,
				"y": -0.6686270335,
				"z": -0.950917767,
				"element": "H" 
			},
			{
				"x": -0.2763955774,
				"y": 0.3956675045,
				"z": -1.512446873,
				"element": "H" 
			}
		],
		 "valence_orbital": [ 
			{
				"type": "occ",
				"energy": -0.27263,
				"method": "rhf"
			},
			{
				"type": "occ",
				"energy": -0.25957,
				"method": "rhf"
			},
			{
				"type": "occ",
				"energy": -0.24509,
				"method": "rhf"
			},
			{
				"type": "occ",
				"energy": -0.23841,
				"method": "rhf"
			},
			{
				"type": "occ",
				"energy": -0.21751,
				"method": "rhf"
			},
			{
				"type": "unocc",
				"energy": -0.07233,
				"method": "rhf"
			},
			{
				"type": "unocc",
				"energy": -0.0179,
				"method": "rhf"
			},
			{
				"type": "unocc",
				"energy": -0.00995,
				"method": "rhf"
			},
			{
				"type": "unocc",
				"energy": 0.00198,
				"method": "rhf"
			},
			{
				"type": "unocc",
				"energy": 0.02029,
				"method": "rhf"
			}
		],
		"cosmo_sigma_profile": { 
			"-0.025": 0.0,
			"-0.024": 0.0,
			"-0.023": 0.0,
			"-0.022": 0.0,
			"-0.021": 0.0,
			"-0.02": 0.0,
			"-0.019": 0.343297701686,
			"-0.018": 1.90093486509,
			"-0.017": 2.29156305957,
			"-0.016": 2.48751469292,
			"-0.015": 1.9402573325,
			"-0.014": 1.81257722459,
			"-0.013": 1.32648267258,
			"-0.012": 1.6047097718,
			"-0.011": 2.95695926193,
			"-0.01": 2.8000975645,
			"-0.009": 1.46800921093,
			"-0.008": 2.7082843852,
			"-0.007": 8.1571303334,
			"-0.006": 16.359609097,
			"-0.005": 16.7866535848,
			"-0.004": 13.7768429605,
			"-0.003": 12.2843743392,
			"-0.002": 12.9522722751,
			"-0.001": 12.1743620426,
			"0.0": 11.1243042135,
			"0.001": 15.0165432069,
			"0.002": 19.332836331,
			"0.003": 22.5519949736,
			"0.004": 18.0456371223,
			"0.005": 12.1466695463,
			"0.006": 4.71319768148,
			"0.007": 4.36102531499,
			"0.008": 5.71623223235,
			"0.009": 6.73291598907,
			"0.01": 9.50299968301,
			"0.011": 6.50977096748,
			"0.012": 3.9839011487,
			"0.013": 2.40100418798,
			"0.014": 0.47439366939,
			"0.015": 0.0,
			"0.016": 0.0,
			"0.017": 0.0,
			"0.018": 0.0,
			"0.019": 0.0,
			"0.02": 0.0,
			"0.021": 0.0,
			"0.022": 0.0,
			"0.023": 0.0,
			"0.024": 0.0,
			"0.025": 0.0
		}
	}
}
