{
	 "smiles": "CC1=CSC2=C(C=C(Cl)C=C2)C1=O", 
	 "Tm": 383.15, 
	 "num_atms": 20, 
	 "gaussian": { 
		 "optdone": 1, 
		 "sigma_profile": "yes", 
		 "theory": "DFT", 
		 "functional": "B3LYP", 
		 "basiset": "6-31G**", 
		 "properties": { 
			 "R2extent": 3381.9326, 
			 "electric_dipole_moment_norm": 3.80351396737, 
			 "electric_quadrupole_moment_norm": 5.56702813986, 
			 "total_energy": -1318.88822011, 
			 "HOMO_LUMO_gap": 0.15904, 
			 "cosmo_polarized_energy": -9.4, 
			 "cosmo_cavitation_energy": 27.37, 
			 "cosmo_dispersion_energy": -21.01, 
			 "cosmo_repulsion_energy": 1.59, 
			 "cosmo_total_nonelectrostatic_energy": 7.95, 
			 "SMD_solvation_energy": 4.63 
		},
		"coords": [
			{
				"x": -2.7684588092,
				"y": 1.6476948669,
				"z": 2.0024634778,
				"element": "C" 
			},
			{
				"x": -1.4276705786,
				"y": 1.0906432404,
				"z": 1.6027848715,
				"element": "C" 
			},
			{
				"x": -0.4127729739,
				"y": 0.995181484,
				"z": 2.492114023,
				"element": "C" 
			},
			{
				"x": 1.1910659525,
				"y": 0.3847920219,
				"z": 2.2183857115,
				"element": "S" 
			},
			{
				"x": 1.1371710924,
				"y": -0.0631028733,
				"z": 0.5163136445,
				"element": "C" 
			},
			{
				"x": -0.0085584369,
				"y": 0.1001716851,
				"z": -0.2850477968,
				"element": "C" 
			},
			{
				"x": 0.0476929639,
				"y": -0.2886697782,
				"z": -1.6373148907,
				"element": "C" 
			},
			{
				"x": 1.2101388731,
				"y": -0.8207600858,
				"z": -2.1631860725,
				"element": "C" 
			},
			{
				"x": 1.2692931323,
				"y": -1.3021098819,
				"z": -3.8501855678,
				"element": "Cl" 
			},
			{
				"x": 2.3534176558,
				"y": -0.9847660096,
				"z": -1.3673319739,
				"element": "C" 
			},
			{
				"x": 2.311916416,
				"y": -0.6063597228,
				"z": -0.035262953,
				"element": "C" 
			},
			{
				"x": -1.3024956946,
				"y": 0.6641507203,
				"z": 0.1971016984,
				"element": "C" 
			},
			{
				"x": -2.2599764949,
				"y": 0.7737599075,
				"z": -0.5714060156,
				"element": "O" 
			},
			{
				"x": -2.7837714785,
				"y": 1.9407929938,
				"z": 3.0551113274,
				"element": "H" 
			},
			{
				"x": -3.5567430512,
				"y": 0.9088838576,
				"z": 1.8257203154,
				"element": "H" 
			},
			{
				"x": -3.0199088551,
				"y": 2.5166389766,
				"z": 1.3858712618,
				"element": "H" 
			},
			{
				"x": -0.544126987,
				"y": 1.3205724274,
				"z": 3.520826063,
				"element": "H" 
			},
			{
				"x": -0.8448803238,
				"y": -0.1547278873,
				"z": -2.2371430493,
				"element": "H" 
			},
			{
				"x": 3.2580533186,
				"y": -1.403573123,
				"z": -1.7938229689,
				"element": "H" 
			},
			{
				"x": 3.1938142791,
				"y": -0.7307128195,
				"z": 0.586508894,
				"element": "H" 
			}
		],
		 "valence_orbital": [ 
			{
				"type": "occ",
				"energy": -0.3191,
				"method": "rhf"
			},
			{
				"type": "occ",
				"energy": -0.27554,
				"method": "rhf"
			},
			{
				"type": "occ",
				"energy": -0.27152,
				"method": "rhf"
			},
			{
				"type": "occ",
				"energy": -0.25288,
				"method": "rhf"
			},
			{
				"type": "occ",
				"energy": -0.22887,
				"method": "rhf"
			},
			{
				"type": "unocc",
				"energy": -0.06983,
				"method": "rhf"
			},
			{
				"type": "unocc",
				"energy": -0.03579,
				"method": "rhf"
			},
			{
				"type": "unocc",
				"energy": -0.01841,
				"method": "rhf"
			},
			{
				"type": "unocc",
				"energy": 0.01067,
				"method": "rhf"
			},
			{
				"type": "unocc",
				"energy": 0.02936,
				"method": "rhf"
			}
		],
		"cosmo_sigma_profile": { 
			"-0.025": 0.0,
			"-0.024": 0.0,
			"-0.023": 0.0,
			"-0.022": 0.0,
			"-0.021": 0.0,
			"-0.02": 0.0,
			"-0.019": 0.0,
			"-0.018": 0.0,
			"-0.017": 0.0,
			"-0.016": 0.0,
			"-0.015": 0.0,
			"-0.014": 0.0,
			"-0.013": 0.0,
			"-0.012": 0.0,
			"-0.011": 0.0,
			"-0.01": 1.1185486811,
			"-0.009": 3.35551451759,
			"-0.008": 6.63952012969,
			"-0.007": 7.312715531,
			"-0.006": 6.43097336453,
			"-0.005": 7.24892700586,
			"-0.004": 11.06822243,
			"-0.003": 12.4747287831,
			"-0.002": 18.0133955082,
			"-0.001": 21.6013692193,
			"0.0": 29.2314528343,
			"0.001": 33.1628338777,
			"0.002": 20.4201300294,
			"0.003": 10.7834604605,
			"0.004": 14.4085955714,
			"0.005": 4.29711575092,
			"0.006": 1.96784424712,
			"0.007": 1.2271251733,
			"0.008": 0.968922828981,
			"0.009": 1.76473741641,
			"0.01": 1.97001297541,
			"0.011": 1.88204644384,
			"0.012": 2.950656203,
			"0.013": 3.58108831985,
			"0.014": 0.391372640518,
			"0.015": 0.0,
			"0.016": 0.0,
			"0.017": 0.0,
			"0.018": 0.0,
			"0.019": 0.0,
			"0.02": 0.0,
			"0.021": 0.0,
			"0.022": 0.0,
			"0.023": 0.0,
			"0.024": 0.0,
			"0.025": 0.0
		}
	}
}
