{
	 "smiles": "CC1=C(SC(NC2CC2)=N1)C(O)=O", 
	 "Tm": 482.15, 
	 "num_atms": 23, 
	 "gaussian": { 
		 "optdone": 1, 
		 "sigma_profile": "yes", 
		 "theory": "DFT", 
		 "functional": "B3LYP", 
		 "basiset": "6-31G**", 
		 "properties": { 
			 "R2extent": 3464.7393, 
			 "electric_dipole_moment_norm": 6.98987902184, 
			 "electric_quadrupole_moment_norm": 12.2372072051, 
			 "total_energy": -968.99452235, 
			 "HOMO_LUMO_gap": 0.17782, 
			 "cosmo_polarized_energy": -16.36, 
			 "cosmo_cavitation_energy": 28.45, 
			 "cosmo_dispersion_energy": -21.41, 
			 "cosmo_repulsion_energy": 1.67, 
			 "cosmo_total_nonelectrostatic_energy": 8.71, 
			 "SMD_solvation_energy": 3.43 
		},
		"coords": [
			{
				"x": 0.7527568146,
				"y": -2.7286453269,
				"z": -2.7680334834,
				"element": "C" 
			},
			{
				"x": 0.3740463897,
				"y": -1.838437246,
				"z": -1.623638887,
				"element": "C" 
			},
			{
				"x": -0.9013993819,
				"y": -1.4142049458,
				"z": -1.3028311262,
				"element": "C" 
			},
			{
				"x": -0.8299245316,
				"y": -0.3821328241,
				"z": 0.1383940725,
				"element": "S" 
			},
			{
				"x": 0.9183258951,
				"y": -0.6062950594,
				"z": 0.1397821259,
				"element": "C" 
			},
			{
				"x": 1.7124707852,
				"y": -0.0090383608,
				"z": 1.0714527885,
				"element": "N" 
			},
			{
				"x": 1.2035253005,
				"y": 0.5990952668,
				"z": 2.265466462,
				"element": "C" 
			},
			{
				"x": 1.9565257402,
				"y": 1.778443549,
				"z": 2.8198463366,
				"element": "C" 
			},
			{
				"x": 0.6139238238,
				"y": 1.9910358329,
				"z": 2.1717363591,
				"element": "C" 
			},
			{
				"x": 1.3803646834,
				"y": -1.3802525347,
				"z": -0.809574823,
				"element": "N" 
			},
			{
				"x": -2.1619729104,
				"y": -1.7175661268,
				"z": -1.9971169893,
				"element": "C" 
			},
			{
				"x": -3.2429345209,
				"y": -0.9467400736,
				"z": -1.670640898,
				"element": "O" 
			},
			{
				"x": -2.2980868944,
				"y": -2.5991057472,
				"z": -2.8186982893,
				"element": "O" 
			},
			{
				"x": 1.1831794742,
				"y": -3.6587696474,
				"z": -2.3798152088,
				"element": "H" 
			},
			{
				"x": 1.5286523341,
				"y": -2.2439272622,
				"z": -3.3696637942,
				"element": "H" 
			},
			{
				"x": -0.111057326,
				"y": -2.9703254618,
				"z": -3.3836703947,
				"element": "H" 
			},
			{
				"x": 2.6584949917,
				"y": -0.3704703994,
				"z": 1.0820208783,
				"element": "H" 
			},
			{
				"x": 0.7458272007,
				"y": -0.0832749785,
				"z": 2.9832152989,
				"element": "H" 
			},
			{
				"x": 2.8332089988,
				"y": 2.1084429591,
				"z": 2.2712736644,
				"element": "H" 
			},
			{
				"x": 2.0375707361,
				"y": 1.8600707271,
				"z": 3.8987297444,
				"element": "H" 
			},
			{
				"x": 0.5987123539,
				"y": 2.4546551476,
				"z": 1.1913016277,
				"element": "H" 
			},
			{
				"x": -0.2412825934,
				"y": 2.2175536384,
				"z": 2.8000194929,
				"element": "H" 
			},
			{
				"x": -2.9780273634,
				"y": -0.1714111264,
				"z": -1.1554549573,
				"element": "H" 
			}
		],
		 "valence_orbital": [ 
			{
				"type": "occ",
				"energy": -0.30294,
				"method": "rhf"
			},
			{
				"type": "occ",
				"energy": -0.28398,
				"method": "rhf"
			},
			{
				"type": "occ",
				"energy": -0.28048,
				"method": "rhf"
			},
			{
				"type": "occ",
				"energy": -0.2646,
				"method": "rhf"
			},
			{
				"type": "occ",
				"energy": -0.21936,
				"method": "rhf"
			},
			{
				"type": "unocc",
				"energy": -0.04154,
				"method": "rhf"
			},
			{
				"type": "unocc",
				"energy": -0.00709,
				"method": "rhf"
			},
			{
				"type": "unocc",
				"energy": 0.02504,
				"method": "rhf"
			},
			{
				"type": "unocc",
				"energy": 0.05686,
				"method": "rhf"
			},
			{
				"type": "unocc",
				"energy": 0.08146,
				"method": "rhf"
			}
		],
		"cosmo_sigma_profile": { 
			"-0.025": 0.0,
			"-0.024": 0.0,
			"-0.023": 0.0,
			"-0.022": 0.0,
			"-0.021": 0.0,
			"-0.02": 0.0,
			"-0.019": 0.0,
			"-0.018": 0.0,
			"-0.017": 0.422465671863,
			"-0.016": 0.911275865883,
			"-0.015": 1.18954057293,
			"-0.014": 2.08441715913,
			"-0.013": 1.67696284085,
			"-0.012": 1.46113345481,
			"-0.011": 2.02677871061,
			"-0.01": 1.91245928181,
			"-0.009": 1.74353888873,
			"-0.008": 1.84757920145,
			"-0.007": 1.9900995674,
			"-0.006": 7.70104373775,
			"-0.005": 16.2697997194,
			"-0.004": 15.6937853381,
			"-0.003": 17.1007039396,
			"-0.002": 17.0151922869,
			"-0.001": 22.0163406519,
			"0.0": 22.535972177,
			"0.001": 20.395008677,
			"0.002": 13.0150193343,
			"0.003": 10.4829816778,
			"0.004": 7.77486174348,
			"0.005": 3.94930142379,
			"0.006": 3.68387961387,
			"0.007": 3.57789815081,
			"0.008": 4.20669713147,
			"0.009": 3.32259438653,
			"0.01": 5.33898587055,
			"0.011": 5.76473090044,
			"0.012": 5.80925756142,
			"0.013": 3.37574059548,
			"0.014": 1.08495652734,
			"0.015": 0.214971650668,
			"0.016": 0.0,
			"0.017": 0.0,
			"0.018": 0.0,
			"0.019": 0.0,
			"0.02": 0.0,
			"0.021": 0.0,
			"0.022": 0.0,
			"0.023": 0.0,
			"0.024": 0.0,
			"0.025": 0.0
		}
	}
}
