{
	 "smiles": "O=C1NC(=CC=C1C#N)C1=CC=CC=C1", 
	 "Tm": 571.15, 
	 "num_atms": 23, 
	 "gaussian": { 
		 "optdone": 1, 
		 "sigma_profile": "yes", 
		 "theory": "DFT", 
		 "functional": "B3LYP", 
		 "basiset": "6-31G**", 
		 "properties": { 
			 "R2extent": 5200.1708, 
			 "electric_dipole_moment_norm": 9.52768733009, 
			 "electric_quadrupole_moment_norm": 42.2268851239, 
			 "total_energy": -646.820520663, 
			 "HOMO_LUMO_gap": 0.14393, 
			 "cosmo_polarized_energy": -20.82, 
			 "cosmo_cavitation_energy": 29.12, 
			 "cosmo_dispersion_energy": -20.72, 
			 "cosmo_repulsion_energy": 1.6, 
			 "cosmo_total_nonelectrostatic_energy": 10.0, 
			 "SMD_solvation_energy": 6.89 
		},
		"coords": [
			{
				"x": -3.4052534888,
				"y": -3.6816142636,
				"z": -0.1748312033,
				"element": "O" 
			},
			{
				"x": -3.0064389791,
				"y": -2.6307492945,
				"z": -0.6529749643,
				"element": "C" 
			},
			{
				"x": -1.7539141576,
				"y": -2.1062323264,
				"z": -0.2607661769,
				"element": "N" 
			},
			{
				"x": -1.1717193577,
				"y": -0.9471461109,
				"z": -0.6921186977,
				"element": "C" 
			},
			{
				"x": -1.8554534244,
				"y": -0.1750698839,
				"z": -1.6087795468,
				"element": "C" 
			},
			{
				"x": -3.1207319633,
				"y": -0.6041172813,
				"z": -2.064885711,
				"element": "C" 
			},
			{
				"x": -3.6943160649,
				"y": -1.7808877472,
				"z": -1.6257936851,
				"element": "C" 
			},
			{
				"x": -4.9731013313,
				"y": -2.201035057,
				"z": -2.0977644994,
				"element": "C" 
			},
			{
				"x": -6.0174053319,
				"y": -2.5172237,
				"z": -2.5024765429,
				"element": "N" 
			},
			{
				"x": 0.1641597532,
				"y": -0.6091339842,
				"z": -0.1595935162,
				"element": "C" 
			},
			{
				"x": 1.1072358541,
				"y": -1.6147115686,
				"z": 0.1155079503,
				"element": "C" 
			},
			{
				"x": 2.3660159153,
				"y": -1.285557959,
				"z": 0.6148683338,
				"element": "C" 
			},
			{
				"x": 2.7014029256,
				"y": 0.0494132821,
				"z": 0.8482064047,
				"element": "C" 
			},
			{
				"x": 1.7714253395,
				"y": 1.0558208616,
				"z": 0.577102687,
				"element": "C" 
			},
			{
				"x": 0.5123481537,
				"y": 0.7312941423,
				"z": 0.0777061298,
				"element": "C" 
			},
			{
				"x": -1.2970254256,
				"y": -2.6584986996,
				"z": 0.45561758,
				"element": "H" 
			},
			{
				"x": -1.403396477,
				"y": 0.7261352498,
				"z": -2.0003928323,
				"element": "H" 
			},
			{
				"x": -3.6571046045,
				"y": 0.0006738338,
				"z": -2.789997764,
				"element": "H" 
			},
			{
				"x": 0.8732396549,
				"y": -2.6541910853,
				"z": -0.0971775287,
				"element": "H" 
			},
			{
				"x": 3.0877774304,
				"y": -2.0721566128,
				"z": 0.8126429727,
				"element": "H" 
			},
			{
				"x": 3.68180727,
				"y": 0.3042573135,
				"z": 1.2390601297,
				"element": "H" 
			},
			{
				"x": 2.023249166,
				"y": 2.0952122181,
				"z": 0.7646008899,
				"element": "H" 
			},
			{
				"x": -0.2170008565,
				"y": 1.5143186734,
				"z": -0.1035604095,
				"element": "H" 
			}
		],
		 "valence_orbital": [ 
			{
				"type": "occ",
				"energy": -0.30657,
				"method": "rhf"
			},
			{
				"type": "occ",
				"energy": -0.28482,
				"method": "rhf"
			},
			{
				"type": "occ",
				"energy": -0.2827,
				"method": "rhf"
			},
			{
				"type": "occ",
				"energy": -0.26751,
				"method": "rhf"
			},
			{
				"type": "occ",
				"energy": -0.22961,
				"method": "rhf"
			},
			{
				"type": "unocc",
				"energy": -0.08568,
				"method": "rhf"
			},
			{
				"type": "unocc",
				"energy": -0.03456,
				"method": "rhf"
			},
			{
				"type": "unocc",
				"energy": -0.02881,
				"method": "rhf"
			},
			{
				"type": "unocc",
				"energy": 0.00242,
				"method": "rhf"
			},
			{
				"type": "unocc",
				"energy": 0.04062,
				"method": "rhf"
			}
		],
		"cosmo_sigma_profile": { 
			"-0.025": 0.0,
			"-0.024": 0.0,
			"-0.023": 0.0,
			"-0.022": 0.0,
			"-0.021": 0.0,
			"-0.02": 0.0,
			"-0.019": 0.0,
			"-0.018": 0.0,
			"-0.017": 0.0,
			"-0.016": 0.173502896724,
			"-0.015": 0.894670098306,
			"-0.014": 1.33855437946,
			"-0.013": 1.00904134529,
			"-0.012": 1.18977341186,
			"-0.011": 0.879490577064,
			"-0.01": 1.84831794115,
			"-0.009": 3.73040941591,
			"-0.008": 6.08216709989,
			"-0.007": 11.658780657,
			"-0.006": 14.7775609244,
			"-0.005": 15.2940168762,
			"-0.004": 14.8063932199,
			"-0.003": 14.8826161371,
			"-0.002": 17.1289245158,
			"-0.001": 18.5517630883,
			"0.0": 16.2594914913,
			"0.001": 12.1249075834,
			"0.002": 11.575954191,
			"0.003": 12.8751200624,
			"0.004": 12.1344560338,
			"0.005": 2.71546641354,
			"0.006": 3.81702335282,
			"0.007": 5.18362723418,
			"0.008": 4.97868133438,
			"0.009": 5.48347465629,
			"0.01": 4.8000119383,
			"0.011": 4.48282234031,
			"0.012": 6.10195887822,
			"0.013": 7.75973184775,
			"0.014": 1.20757945804,
			"0.015": 0.0,
			"0.016": 0.0,
			"0.017": 0.0,
			"0.018": 0.0,
			"0.019": 0.0,
			"0.02": 0.0,
			"0.021": 0.0,
			"0.022": 0.0,
			"0.023": 0.0,
			"0.024": 0.0,
			"0.025": 0.0
		}
	}
}
