{
	 "smiles": "FC(F)(F)C1=NN=C2SC(=S)NN12", 
	 "Tm": 433.15, 
	 "num_atms": 14, 
	 "gaussian": { 
		 "optdone": 1, 
		 "sigma_profile": "yes", 
		 "theory": "DFT", 
		 "functional": "B3LYP", 
		 "basiset": "6-31G**", 
		 "properties": { 
			 "R2extent": 4536.5188, 
			 "electric_dipole_moment_norm": 2.238408171, 
			 "electric_quadrupole_moment_norm": 12.4723865607, 
			 "total_energy": -1467.83912981, 
			 "HOMO_LUMO_gap": 0.17838, 
			 "cosmo_polarized_energy": -15.42, 
			 "cosmo_cavitation_energy": 24.57, 
			 "cosmo_dispersion_energy": -18.81, 
			 "cosmo_repulsion_energy": 1.33, 
			 "cosmo_total_nonelectrostatic_energy": 7.08, 
			 "SMD_solvation_energy": 1.99 
		},
		"coords": [
			{
				"x": 1.1723068683,
				"y": 3.4219809532,
				"z": -2.6074796886,
				"element": "F" 
			},
			{
				"x": 0.3340834026,
				"y": 2.3838615362,
				"z": -2.460737384,
				"element": "C" 
			},
			{
				"x": -0.9129736767,
				"y": 2.8240229098,
				"z": -2.6152427435,
				"element": "F" 
			},
			{
				"x": 0.6117675082,
				"y": 1.5004750992,
				"z": -3.4653930583,
				"element": "F" 
			},
			{
				"x": 0.5220025319,
				"y": 1.6867801153,
				"z": -1.1507195289,
				"element": "C" 
			},
			{
				"x": 0.019341083,
				"y": 2.022747685,
				"z": 0.018929811,
				"element": "N" 
			},
			{
				"x": 0.4859435269,
				"y": 1.149541477,
				"z": 0.9749643367,
				"element": "N" 
			},
			{
				"x": 1.2640065022,
				"y": 0.2970684601,
				"z": 0.3435128672,
				"element": "C" 
			},
			{
				"x": 2.2616729088,
				"y": -1.1032515275,
				"z": 0.7037696981,
				"element": "S" 
			},
			{
				"x": 2.7054090234,
				"y": -1.2637738641,
				"z": -1.0398627752,
				"element": "C" 
			},
			{
				"x": 3.6329571259,
				"y": -2.4502355212,
				"z": -1.6844975076,
				"element": "S" 
			},
			{
				"x": 2.1443689901,
				"y": -0.2214090697,
				"z": -1.7360371117,
				"element": "N" 
			},
			{
				"x": 1.319718738,
				"y": 0.5847994719,
				"z": -0.9866053152,
				"element": "N" 
			},
			{
				"x": 2.0520954673,
				"y": -0.2069077252,
				"z": -2.7440015999,
				"element": "H" 
			}
		],
		 "valence_orbital": [ 
			{
				"type": "occ",
				"energy": -0.34008,
				"method": "rhf"
			},
			{
				"type": "occ",
				"energy": -0.29761,
				"method": "rhf"
			},
			{
				"type": "occ",
				"energy": -0.29161,
				"method": "rhf"
			},
			{
				"type": "occ",
				"energy": -0.26084,
				"method": "rhf"
			},
			{
				"type": "occ",
				"energy": -0.25906,
				"method": "rhf"
			},
			{
				"type": "unocc",
				"energy": -0.08068,
				"method": "rhf"
			},
			{
				"type": "unocc",
				"energy": -0.04259,
				"method": "rhf"
			},
			{
				"type": "unocc",
				"energy": -0.03592,
				"method": "rhf"
			},
			{
				"type": "unocc",
				"energy": -0.00463,
				"method": "rhf"
			},
			{
				"type": "unocc",
				"energy": 0.02058,
				"method": "rhf"
			}
		],
		"cosmo_sigma_profile": { 
			"-0.025": 0.0,
			"-0.024": 0.0,
			"-0.023": 0.0,
			"-0.022": 0.0,
			"-0.021": 0.0,
			"-0.02": 0.0,
			"-0.019": 0.081944666545,
			"-0.018": 0.887357338352,
			"-0.017": 0.631656200134,
			"-0.016": 0.559704540088,
			"-0.015": 0.905920933781,
			"-0.014": 1.67604375349,
			"-0.013": 1.95817080473,
			"-0.012": 2.21069364202,
			"-0.011": 1.86344987137,
			"-0.01": 2.45234488886,
			"-0.009": 4.50111468163,
			"-0.008": 4.93288030132,
			"-0.007": 5.46614794684,
			"-0.006": 4.53142106611,
			"-0.005": 6.15905784768,
			"-0.004": 7.40497466821,
			"-0.003": 12.6801492957,
			"-0.002": 13.8776224878,
			"-0.001": 14.7657035031,
			"0.0": 15.7701840157,
			"0.001": 29.7176345052,
			"0.002": 15.3545823574,
			"0.003": 6.52915615215,
			"0.004": 6.03598939035,
			"0.005": 8.86714555107,
			"0.006": 8.80845121211,
			"0.007": 6.17302101962,
			"0.008": 5.58752712144,
			"0.009": 2.88186819905,
			"0.01": 3.33685763707,
			"0.011": 2.65711065532,
			"0.012": 2.28913807393,
			"0.013": 2.50246265709,
			"0.014": 0.855782591706,
			"0.015": 0.060725541981,
			"0.016": 0.0,
			"0.017": 0.0,
			"0.018": 0.0,
			"0.019": 0.0,
			"0.02": 0.0,
			"0.021": 0.0,
			"0.022": 0.0,
			"0.023": 0.0,
			"0.024": 0.0,
			"0.025": 0.0
		}
	}
}
