{
	 "smiles": "NC1=CC=C(OC2=CC=C(CO)C=C2)C=C1", 
	 "Tm": 353.15, 
	 "num_atms": 29, 
	 "gaussian": { 
		 "optdone": 1, 
		 "sigma_profile": "yes", 
		 "theory": "DFT", 
		 "functional": "B3LYP", 
		 "basiset": "6-31G**", 
		 "properties": { 
			 "R2extent": 5721.9965, 
			 "electric_dipole_moment_norm": 2.62825339722, 
			 "electric_quadrupole_moment_norm": 23.4783196111, 
			 "total_energy": -708.400139418, 
			 "HOMO_LUMO_gap": 0.19232, 
			 "cosmo_polarized_energy": -14.37, 
			 "cosmo_cavitation_energy": 33.36, 
			 "cosmo_dispersion_energy": -24.11, 
			 "cosmo_repulsion_energy": 1.9, 
			 "cosmo_total_nonelectrostatic_energy": 11.15, 
			 "SMD_solvation_energy": 5.77 
		},
		"coords": [
			{
				"x": 3.2690118281,
				"y": -4.9649494434,
				"z": 1.1097143753,
				"element": "N" 
			},
			{
				"x": 2.3900405078,
				"y": -3.9155371164,
				"z": 0.8267684278,
				"element": "C" 
			},
			{
				"x": 2.5405881683,
				"y": -3.1476422431,
				"z": -0.3418818499,
				"element": "C" 
			},
			{
				"x": 1.6298173883,
				"y": -2.1431708664,
				"z": -0.6575974804,
				"element": "C" 
			},
			{
				"x": 0.5550516147,
				"y": -1.883719679,
				"z": 0.193975114,
				"element": "C" 
			},
			{
				"x": -0.4066905743,
				"y": -0.9386846609,
				"z": -0.1465517948,
				"element": "O" 
			},
			{
				"x": -0.1344528881,
				"y": 0.4014929627,
				"z": 0.0137382592,
				"element": "C" 
			},
			{
				"x": 0.9904252518,
				"y": 0.9000405148,
				"z": 0.6782981046,
				"element": "C" 
			},
			{
				"x": 1.1581693831,
				"y": 2.2799464341,
				"z": 0.7999005664,
				"element": "C" 
			},
			{
				"x": 0.2209133794,
				"y": 3.17788912,
				"z": 0.2775642009,
				"element": "C" 
			},
			{
				"x": 0.4360403241,
				"y": 4.6733870303,
				"z": 0.3959264492,
				"element": "C" 
			},
			{
				"x": 1.0793057843,
				"y": 5.0623943193,
				"z": 1.6038015342,
				"element": "O" 
			},
			{
				"x": -0.9050331468,
				"y": 2.6564195093,
				"z": -0.3732021014,
				"element": "C" 
			},
			{
				"x": -1.0847261499,
				"y": 1.2835912261,
				"z": -0.5129668545,
				"element": "C" 
			},
			{
				"x": 0.3902901166,
				"y": -2.6349790759,
				"z": 1.3563057098,
				"element": "C" 
			},
			{
				"x": 1.2983853577,
				"y": -3.6441173213,
				"z": 1.6693043884,
				"element": "C" 
			},
			{
				"x": 3.3252085164,
				"y": -5.223985585,
				"z": 2.0851420715,
				"element": "H" 
			},
			{
				"x": 4.1862754871,
				"y": -4.877982557,
				"z": 0.6940718134,
				"element": "H" 
			},
			{
				"x": 3.3721334762,
				"y": -3.3499368417,
				"z": -1.0123263401,
				"element": "H" 
			},
			{
				"x": 1.7456372325,
				"y": -1.5593820714,
				"z": -1.5653044578,
				"element": "H" 
			},
			{
				"x": 1.7234908367,
				"y": 0.2187398025,
				"z": 1.0945542258,
				"element": "H" 
			},
			{
				"x": 2.0275517959,
				"y": 2.6725721403,
				"z": 1.319129341,
				"element": "H" 
			},
			{
				"x": -0.5259213479,
				"y": 5.1947712823,
				"z": 0.2644933919,
				"element": "H" 
			},
			{
				"x": 1.0983705896,
				"y": 5.0307683758,
				"z": -0.4022472882,
				"element": "H" 
			},
			{
				"x": 0.5571514194,
				"y": 4.7024753528,
				"z": 2.3334689685,
				"element": "H" 
			},
			{
				"x": -1.6544340055,
				"y": 3.3333539877,
				"z": -0.7776110052,
				"element": "H" 
			},
			{
				"x": -1.9554867008,
				"y": 0.8742650566,
				"z": -1.0147641466,
				"element": "H" 
			},
			{
				"x": -0.454431226,
				"y": -2.428012198,
				"z": 2.0055348065,
				"element": "H" 
			},
			{
				"x": 1.1589175814,
				"y": -4.2326074552,
				"z": 2.5726615706,
				"element": "H" 
			}
		],
		 "valence_orbital": [ 
			{
				"type": "occ",
				"energy": -0.26918,
				"method": "rhf"
			},
			{
				"type": "occ",
				"energy": -0.25452,
				"method": "rhf"
			},
			{
				"type": "occ",
				"energy": -0.24712,
				"method": "rhf"
			},
			{
				"type": "occ",
				"energy": -0.21542,
				"method": "rhf"
			},
			{
				"type": "occ",
				"energy": -0.20084,
				"method": "rhf"
			},
			{
				"type": "unocc",
				"energy": -0.00852,
				"method": "rhf"
			},
			{
				"type": "unocc",
				"energy": 0.00448,
				"method": "rhf"
			},
			{
				"type": "unocc",
				"energy": 0.0095,
				"method": "rhf"
			},
			{
				"type": "unocc",
				"energy": 0.01735,
				"method": "rhf"
			},
			{
				"type": "unocc",
				"energy": 0.07616,
				"method": "rhf"
			}
		],
		"cosmo_sigma_profile": { 
			"-0.025": 0.0,
			"-0.024": 0.0,
			"-0.023": 0.0,
			"-0.022": 0.0,
			"-0.021": 0.0,
			"-0.02": 0.0,
			"-0.019": 0.0,
			"-0.018": 0.0,
			"-0.017": 0.0,
			"-0.016": 0.0340439341431,
			"-0.015": 0.549408420542,
			"-0.014": 1.20014893854,
			"-0.013": 1.11143992213,
			"-0.012": 3.06539282809,
			"-0.011": 3.35530704778,
			"-0.01": 3.78415419159,
			"-0.009": 4.69577980141,
			"-0.008": 3.62145575422,
			"-0.007": 4.76491942469,
			"-0.006": 10.6939814767,
			"-0.005": 16.5249892124,
			"-0.004": 21.983901756,
			"-0.003": 19.4752700319,
			"-0.002": 15.6065713312,
			"-0.001": 14.9770795689,
			"0.0": 15.1860907097,
			"0.001": 15.7788232864,
			"0.002": 14.7317220842,
			"0.003": 15.5724593203,
			"0.004": 21.2926437509,
			"0.005": 21.9951428575,
			"0.006": 12.148116725,
			"0.007": 3.37010934592,
			"0.008": 3.32339848445,
			"0.009": 3.46574467889,
			"0.01": 2.74360348221,
			"0.011": 2.69787731267,
			"0.012": 1.67587665307,
			"0.013": 1.87846911053,
			"0.014": 3.04475771214,
			"0.015": 0.435968420663,
			"0.016": 0.0,
			"0.017": 0.0,
			"0.018": 0.0,
			"0.019": 0.0,
			"0.02": 0.0,
			"0.021": 0.0,
			"0.022": 0.0,
			"0.023": 0.0,
			"0.024": 0.0,
			"0.025": 0.0
		}
	}
}
