{
	 "smiles": "COC(=O)C1=CC(=CC(=C1)N1C(C)=CC(C(=O)CCl)=C1C)C(=O)OC", 
	 "Tm": 427.15, 
	 "num_atms": 43, 
	 "gaussian": { 
		 "optdone": 1, 
		 "sigma_profile": "yes", 
		 "theory": "DFT", 
		 "functional": "B3LYP", 
		 "basiset": "6-31G**", 
		 "properties": { 
			 "R2extent": 13307.924, 
			 "electric_dipole_moment_norm": 4.68119493933, 
			 "electric_quadrupole_moment_norm": 72.386309917, 
			 "total_energy": -1587.84938628, 
			 "HOMO_LUMO_gap": 0.13898, 
			 "cosmo_polarized_energy": -24.22, 
			 "cosmo_cavitation_energy": 50.36, 
			 "cosmo_dispersion_energy": -34.07, 
			 "cosmo_repulsion_energy": 2.65, 
			 "cosmo_total_nonelectrostatic_energy": 18.94, 
			 "SMD_solvation_energy": 12.08 
		},
		"coords": [
			{
				"x": -2.5750460837,
				"y": -3.301828213,
				"z": 3.8858812216,
				"element": "C" 
			},
			{
				"x": -1.9781223661,
				"y": -2.4211434911,
				"z": 2.9178117132,
				"element": "O" 
			},
			{
				"x": -2.8064125955,
				"y": -1.4901769773,
				"z": 2.3986333389,
				"element": "C" 
			},
			{
				"x": -3.9740903072,
				"y": -1.3798127297,
				"z": 2.7109784077,
				"element": "O" 
			},
			{
				"x": -2.1189577384,
				"y": -0.6158554632,
				"z": 1.3995298267,
				"element": "C" 
			},
			{
				"x": -2.8671774384,
				"y": 0.3936610843,
				"z": 0.7881297692,
				"element": "C" 
			},
			{
				"x": -2.2710463698,
				"y": 1.2362117667,
				"z": -0.1539696074,
				"element": "C" 
			},
			{
				"x": -0.9196919517,
				"y": 1.0713289695,
				"z": -0.4836487829,
				"element": "C" 
			},
			{
				"x": -0.1741361885,
				"y": 0.0594753462,
				"z": 0.1257825988,
				"element": "C" 
			},
			{
				"x": -0.7698419792,
				"y": -0.7871725163,
				"z": 1.0637003488,
				"element": "C" 
			},
			{
				"x": 1.2007408828,
				"y": -0.1222356866,
				"z": -0.228913142,
				"element": "N" 
			},
			{
				"x": 1.6279397373,
				"y": -0.7570906204,
				"z": -1.4032532878,
				"element": "C" 
			},
			{
				"x": 0.6689315811,
				"y": -1.3178349872,
				"z": -2.4038486551,
				"element": "C" 
			},
			{
				"x": 2.9945989979,
				"y": -0.7542135468,
				"z": -1.3861431539,
				"element": "C" 
			},
			{
				"x": 3.4333084244,
				"y": -0.1074026793,
				"z": -0.1861797611,
				"element": "C" 
			},
			{
				"x": 4.8664722932,
				"y": 0.0429254301,
				"z": 0.1180462636,
				"element": "C" 
			},
			{
				"x": 5.7219733735,
				"y": -0.3732116625,
				"z": -0.6448861808,
				"element": "O" 
			},
			{
				"x": 5.2438811966,
				"y": 0.743646899,
				"z": 1.4321500502,
				"element": "C" 
			},
			{
				"x": 7.011327313,
				"y": 0.7971652688,
				"z": 1.7259045137,
				"element": "Cl" 
			},
			{
				"x": 2.2924369203,
				"y": 0.2793795701,
				"z": 0.5219722612,
				"element": "C" 
			},
			{
				"x": 2.1123068452,
				"y": 1.0023122173,
				"z": 1.8235176942,
				"element": "C" 
			},
			{
				"x": -3.1166420293,
				"y": 2.3008000231,
				"z": -0.7760631496,
				"element": "C" 
			},
			{
				"x": -4.2874177488,
				"y": 2.481755388,
				"z": -0.5119076359,
				"element": "O" 
			},
			{
				"x": -2.428363954,
				"y": 3.0419840783,
				"z": -1.6699567412,
				"element": "O" 
			},
			{
				"x": -3.1812842374,
				"y": 4.0878300765,
				"z": -2.3089785681,
				"element": "C" 
			},
			{
				"x": -3.4023319371,
				"y": -3.8574805475,
				"z": 3.4380907903,
				"element": "H" 
			},
			{
				"x": -1.7796611966,
				"y": -3.9789715441,
				"z": 4.1956920572,
				"element": "H" 
			},
			{
				"x": -2.9520755281,
				"y": -2.7329177485,
				"z": 4.7390442225,
				"element": "H" 
			},
			{
				"x": -3.9121475544,
				"y": 0.5235537292,
				"z": 1.0452596385,
				"element": "H" 
			},
			{
				"x": -0.4495723888,
				"y": 1.7280486538,
				"z": -1.2059906173,
				"element": "H" 
			},
			{
				"x": -0.1875966684,
				"y": -1.5752444781,
				"z": 1.5263696601,
				"element": "H" 
			},
			{
				"x": -0.0038014466,
				"y": -2.0623343742,
				"z": -1.9616731269,
				"element": "H" 
			},
			{
				"x": 1.2321444393,
				"y": -1.8075613801,
				"z": -3.2012430846,
				"element": "H" 
			},
			{
				"x": 0.0399270347,
				"y": -0.5469747628,
				"z": -2.8645109491,
				"element": "H" 
			},
			{
				"x": 3.6522909894,
				"y": -1.16848734,
				"z": -2.1356628185,
				"element": "H" 
			},
			{
				"x": 4.7855206304,
				"y": 0.2330229106,
				"z": 2.2819224908,
				"element": "H" 
			},
			{
				"x": 4.8844238025,
				"y": 1.775692693,
				"z": 1.4221894892,
				"element": "H" 
			},
			{
				"x": 2.4488598496,
				"y": 0.4035379998,
				"z": 2.6782530429,
				"element": "H" 
			},
			{
				"x": 1.0625671843,
				"y": 1.2479144342,
				"z": 1.9939702138,
				"element": "H" 
			},
			{
				"x": 2.6732252199,
				"y": 1.9417382435,
				"z": 1.8444317018,
				"element": "H" 
			},
			{
				"x": -2.4841621523,
				"y": 4.5777550001,
				"z": -2.9880425253,
				"element": "H" 
			},
			{
				"x": -3.5588765378,
				"y": 4.7952014761,
				"z": -1.5668533894,
				"element": "H" 
			},
			{
				"x": -4.0265203174,
				"y": 3.6684094908,
				"z": -2.8597361381,
				"element": "H" 
			}
		],
		 "valence_orbital": [ 
			{
				"type": "occ",
				"energy": -0.28917,
				"method": "rhf"
			},
			{
				"type": "occ",
				"energy": -0.28769,
				"method": "rhf"
			},
			{
				"type": "occ",
				"energy": -0.25076,
				"method": "rhf"
			},
			{
				"type": "occ",
				"energy": -0.24644,
				"method": "rhf"
			},
			{
				"type": "occ",
				"energy": -0.21781,
				"method": "rhf"
			},
			{
				"type": "unocc",
				"energy": -0.07883,
				"method": "rhf"
			},
			{
				"type": "unocc",
				"energy": -0.06076,
				"method": "rhf"
			},
			{
				"type": "unocc",
				"energy": -0.03108,
				"method": "rhf"
			},
			{
				"type": "unocc",
				"energy": 0.00459,
				"method": "rhf"
			},
			{
				"type": "unocc",
				"energy": 0.03024,
				"method": "rhf"
			}
		],
		"cosmo_sigma_profile": { 
			"-0.025": 0.0,
			"-0.024": 0.0,
			"-0.023": 0.0,
			"-0.022": 0.0,
			"-0.021": 0.0,
			"-0.02": 0.0,
			"-0.019": 0.0,
			"-0.018": 0.0,
			"-0.017": 0.0,
			"-0.016": 0.0,
			"-0.015": 0.0,
			"-0.014": 0.0,
			"-0.013": 0.0,
			"-0.012": 0.0,
			"-0.011": 0.0,
			"-0.01": 0.144778759749,
			"-0.009": 3.89624629064,
			"-0.008": 6.04993474683,
			"-0.007": 9.78219288935,
			"-0.006": 20.4829239128,
			"-0.005": 30.3938513048,
			"-0.004": 40.1426319149,
			"-0.003": 43.4726908476,
			"-0.002": 36.4833113899,
			"-0.001": 39.0534718824,
			"0.0": 28.2619276196,
			"0.001": 15.9640252602,
			"0.002": 15.2157840511,
			"0.003": 14.9480155758,
			"0.004": 17.9691771638,
			"0.005": 15.9050442454,
			"0.006": 15.3873340448,
			"0.007": 7.49026632282,
			"0.008": 5.57404223959,
			"0.009": 5.57583985026,
			"0.01": 6.98606460679,
			"0.011": 10.6410127237,
			"0.012": 8.17422258708,
			"0.013": 3.60732579959,
			"0.014": 1.3004119142,
			"0.015": 0.0993648642305,
			"0.016": 0.0,
			"0.017": 0.0,
			"0.018": 0.0,
			"0.019": 0.0,
			"0.02": 0.0,
			"0.021": 0.0,
			"0.022": 0.0,
			"0.023": 0.0,
			"0.024": 0.0,
			"0.025": 0.0
		}
	}
}
