{
	 "smiles": "CC1(C)[C@@H](C=C(Cl)C2=CC=C(Cl)C=C2)[C@@H]1C(=O)O[C@H](C#N)C1=CC(OC2=CC=CC=C2)=C(F)C=C1", 
	 "Tm": 248.15, 
	 "num_atms": 57, 
	 "gaussian": { 
		 "optdone": 1, 
		 "sigma_profile": "yes", 
		 "theory": "DFT", 
		 "functional": "B3LYP", 
		 "basiset": "6-31G**", 
		 "properties": { 
			 "R2extent": 21724.9553, 
			 "electric_dipole_moment_norm": 4.69086306025, 
			 "electric_quadrupole_moment_norm": 15.4890033204, 
			 "total_energy": -2380.81802421, 
			 "HOMO_LUMO_gap": 0.18804, 
			 "cosmo_polarized_energy": -16.95, 
			 "cosmo_cavitation_energy": 67.35, 
			 "cosmo_dispersion_energy": -40.33, 
			 "cosmo_repulsion_energy": 3.03, 
			 "cosmo_total_nonelectrostatic_energy": 30.05, 
			 "SMD_solvation_energy": 12.93 
		},
		"coords": [
			{
				"x": 1.9736809436,
				"y": 2.0673078103,
				"z": 1.2627977607,
				"element": "C" 
			},
			{
				"x": 0.5238896629,
				"y": 2.0360320779,
				"z": 1.7165165458,
				"element": "C" 
			},
			{
				"x": -0.0579539617,
				"y": 3.4117708032,
				"z": 1.9984631545,
				"element": "C" 
			},
			{
				"x": 0.0479118447,
				"y": 0.8558042152,
				"z": 2.5287534553,
				"element": "C" 
			},
			{
				"x": -0.870085174,
				"y": 1.0179059734,
				"z": 3.6956028659,
				"element": "C" 
			},
			{
				"x": -2.0023847168,
				"y": 0.3294443975,
				"z": 3.9097820777,
				"element": "C" 
			},
			{
				"x": -2.9644357034,
				"y": 0.7652505586,
				"z": 5.3415736868,
				"element": "Cl" 
			},
			{
				"x": -2.568341373,
				"y": -0.7684342362,
				"z": 3.0958016155,
				"element": "C" 
			},
			{
				"x": -1.7387188684,
				"y": -1.7951308653,
				"z": 2.6153920958,
				"element": "C" 
			},
			{
				"x": -2.2504133585,
				"y": -2.8316585849,
				"z": 1.8358726886,
				"element": "C" 
			},
			{
				"x": -3.6111371915,
				"y": -2.8425175451,
				"z": 1.5332927509,
				"element": "C" 
			},
			{
				"x": -4.2700870381,
				"y": -4.1405060374,
				"z": 0.5530894291,
				"element": "Cl" 
			},
			{
				"x": -4.4616498619,
				"y": -1.8419904061,
				"z": 2.0064814966,
				"element": "C" 
			},
			{
				"x": -3.9386653467,
				"y": -0.817433712,
				"z": 2.7896817974,
				"element": "C" 
			},
			{
				"x": -0.4577983606,
				"y": 1.0201366692,
				"z": 1.1026876991,
				"element": "C" 
			},
			{
				"x": -0.1176018198,
				"y": 0.0844397646,
				"z": 0.0026390729,
				"element": "C" 
			},
			{
				"x": -0.6822893573,
				"y": 0.0603184404,
				"z": -1.0706704955,
				"element": "O" 
			},
			{
				"x": 0.903466542,
				"y": -0.771813184,
				"z": 0.3264165496,
				"element": "O" 
			},
			{
				"x": 1.2380226266,
				"y": -1.7699834444,
				"z": -0.6763443789,
				"element": "C" 
			},
			{
				"x": 1.2258173976,
				"y": -3.0633639613,
				"z": 0.0251272346,
				"element": "C" 
			},
			{
				"x": 1.1901626918,
				"y": -4.0797937973,
				"z": 0.583857832,
				"element": "N" 
			},
			{
				"x": 2.5591306856,
				"y": -1.4492536836,
				"z": -1.3444466583,
				"element": "C" 
			},
			{
				"x": 2.5361387908,
				"y": -0.6350177379,
				"z": -2.4868973388,
				"element": "C" 
			},
			{
				"x": 3.7280361289,
				"y": -0.2741155085,
				"z": -3.1140515213,
				"element": "C" 
			},
			{
				"x": 3.8263212178,
				"y": 0.4750702716,
				"z": -4.2536908996,
				"element": "O" 
			},
			{
				"x": 2.7402832977,
				"y": 1.2270743237,
				"z": -4.688979457,
				"element": "C" 
			},
			{
				"x": 2.2673330549,
				"y": 2.3041615581,
				"z": -3.9371149091,
				"element": "C" 
			},
			{
				"x": 1.2287774891,
				"y": 3.0830023581,
				"z": -4.4479682359,
				"element": "C" 
			},
			{
				"x": 0.6773621365,
				"y": 2.7940920683,
				"z": -5.6986713405,
				"element": "C" 
			},
			{
				"x": 1.1679142834,
				"y": 1.7191995621,
				"z": -6.4421990521,
				"element": "C" 
			},
			{
				"x": 2.20117146,
				"y": 0.9269156138,
				"z": -5.9384625823,
				"element": "C" 
			},
			{
				"x": 4.9385400556,
				"y": -0.7477770645,
				"z": -2.582137564,
				"element": "C" 
			},
			{
				"x": 6.0841317873,
				"y": -0.4060663622,
				"z": -3.1936021187,
				"element": "F" 
			},
			{
				"x": 4.9692230219,
				"y": -1.5556907654,
				"z": -1.4574457995,
				"element": "C" 
			},
			{
				"x": 3.7730878438,
				"y": -1.9086613566,
				"z": -0.8294810958,
				"element": "C" 
			},
			{
				"x": 2.0823306569,
				"y": 2.6687167088,
				"z": 0.3526326745,
				"element": "H" 
			},
			{
				"x": 2.366472801,
				"y": 1.0696085353,
				"z": 1.0598000065,
				"element": "H" 
			},
			{
				"x": 2.5966710953,
				"y": 2.5280358104,
				"z": 2.0379979544,
				"element": "H" 
			},
			{
				"x": -1.0964985262,
				"y": 3.3583828556,
				"z": 2.336334776,
				"element": "H" 
			},
			{
				"x": -0.0245605905,
				"y": 4.0353186884,
				"z": 1.0984837404,
				"element": "H" 
			},
			{
				"x": 0.5225103306,
				"y": 3.9213503876,
				"z": 2.7766309065,
				"element": "H" 
			},
			{
				"x": 0.7993328515,
				"y": 0.0753438535,
				"z": 2.6364192824,
				"element": "H" 
			},
			{
				"x": -0.5866988183,
				"y": 1.7626507067,
				"z": 4.4353322259,
				"element": "H" 
			},
			{
				"x": -0.6850464234,
				"y": -1.8033392642,
				"z": 2.8690922523,
				"element": "H" 
			},
			{
				"x": -1.5991328627,
				"y": -3.6225014577,
				"z": 1.4802005265,
				"element": "H" 
			},
			{
				"x": -5.518574037,
				"y": -1.8686972523,
				"z": 1.7660579018,
				"element": "H" 
			},
			{
				"x": -4.6006610741,
				"y": -0.0453451296,
				"z": 3.1671944735,
				"element": "H" 
			},
			{
				"x": -1.4690848327,
				"y": 1.3937480148,
				"z": 0.9800765607,
				"element": "H" 
			},
			{
				"x": 0.4331372353,
				"y": -1.7685394065,
				"z": -1.4179754604,
				"element": "H" 
			},
			{
				"x": 1.5909438998,
				"y": -0.2782255976,
				"z": -2.8811750895,
				"element": "H" 
			},
			{
				"x": 2.7140531146,
				"y": 2.5260766694,
				"z": -2.9733226058,
				"element": "H" 
			},
			{
				"x": 0.8548881226,
				"y": 3.9220328231,
				"z": -3.8687573008,
				"element": "H" 
			},
			{
				"x": -0.1287282548,
				"y": 3.4057016667,
				"z": -6.0919085628,
				"element": "H" 
			},
			{
				"x": 0.7454928067,
				"y": 1.4917093183,
				"z": -7.4163638728,
				"element": "H" 
			},
			{
				"x": 2.6005759087,
				"y": 0.0884239048,
				"z": -6.4991635786,
				"element": "H" 
			},
			{
				"x": 5.9291637255,
				"y": -1.8995954218,
				"z": -1.0880900947,
				"element": "H" 
			},
			{
				"x": 3.791272041,
				"y": -2.5479746273,
				"z": 0.0470369227,
				"element": "H" 
			}
		],
		 "valence_orbital": [ 
			{
				"type": "occ",
				"energy": -0.26718,
				"method": "rhf"
			},
			{
				"type": "occ",
				"energy": -0.26444,
				"method": "rhf"
			},
			{
				"type": "occ",
				"energy": -0.25921,
				"method": "rhf"
			},
			{
				"type": "occ",
				"energy": -0.23763,
				"method": "rhf"
			},
			{
				"type": "occ",
				"energy": -0.23708,
				"method": "rhf"
			},
			{
				"type": "unocc",
				"energy": -0.04904,
				"method": "rhf"
			},
			{
				"type": "unocc",
				"energy": -0.03724,
				"method": "rhf"
			},
			{
				"type": "unocc",
				"energy": -0.02248,
				"method": "rhf"
			},
			{
				"type": "unocc",
				"energy": -0.02105,
				"method": "rhf"
			},
			{
				"type": "unocc",
				"energy": -0.01861,
				"method": "rhf"
			}
		],
		"cosmo_sigma_profile": { 
			"-0.025": 0.0,
			"-0.024": 0.0,
			"-0.023": 0.0,
			"-0.022": 0.0,
			"-0.021": 0.0,
			"-0.02": 0.0,
			"-0.019": 0.0,
			"-0.018": 0.0,
			"-0.017": 0.0,
			"-0.016": 0.0,
			"-0.015": 0.0,
			"-0.014": 0.0,
			"-0.013": 0.0,
			"-0.012": 0.0,
			"-0.011": 0.158348844916,
			"-0.01": 1.3061833047,
			"-0.009": 1.22317374886,
			"-0.008": 3.5973570869,
			"-0.007": 11.5877737094,
			"-0.006": 24.9201933554,
			"-0.005": 26.6433273776,
			"-0.004": 34.2944056061,
			"-0.003": 43.2527896573,
			"-0.002": 50.7332526295,
			"-0.001": 53.5901162269,
			"0.0": 57.6676761732,
			"0.001": 50.477956436,
			"0.002": 45.3430557087,
			"0.003": 43.7011158375,
			"0.004": 39.3818973531,
			"0.005": 21.8578185882,
			"0.006": 6.27546523301,
			"0.007": 4.91494878757,
			"0.008": 5.38469709804,
			"0.009": 4.86953591338,
			"0.01": 4.36586989665,
			"0.011": 5.22434737961,
			"0.012": 2.95307621414,
			"0.013": 0.0958318454249,
			"0.014": 0.0,
			"0.015": 0.0,
			"0.016": 0.0,
			"0.017": 0.0,
			"0.018": 0.0,
			"0.019": 0.0,
			"0.02": 0.0,
			"0.021": 0.0,
			"0.022": 0.0,
			"0.023": 0.0,
			"0.024": 0.0,
			"0.025": 0.0
		}
	}
}
