{
	 "smiles": "CN(C)CCCN1C2=CC(Cl)=CC=C2S(=O)C2=C1C=CC=C2", 
	 "Tm": 388.15, 
	 "num_atms": 41, 
	 "gaussian": { 
		 "optdone": 1, 
		 "sigma_profile": "yes", 
		 "theory": "DFT", 
		 "functional": "B3LYP", 
		 "basiset": "6-31G**", 
		 "properties": { 
			 "R2extent": 9565.0173, 
			 "electric_dipole_moment_norm": 3.61554579144, 
			 "electric_quadrupole_moment_norm": 18.5758230017, 
			 "total_energy": -1702.30322162, 
			 "HOMO_LUMO_gap": 0.16969, 
			 "cosmo_polarized_energy": -16.23, 
			 "cosmo_cavitation_energy": 45.66, 
			 "cosmo_dispersion_energy": -31.54, 
			 "cosmo_repulsion_energy": 2.39, 
			 "cosmo_total_nonelectrostatic_energy": 16.51, 
			 "SMD_solvation_energy": 5.21 
		},
		"coords": [
			{
				"x": -1.0585816717,
				"y": -2.515423783,
				"z": 3.6274037684,
				"element": "C" 
			},
			{
				"x": -2.0110609273,
				"y": -1.5862787397,
				"z": 3.0260370156,
				"element": "N" 
			},
			{
				"x": -3.2713961184,
				"y": -1.5933469694,
				"z": 3.7591810328,
				"element": "C" 
			},
			{
				"x": -2.2181995768,
				"y": -1.8411713086,
				"z": 1.5980723115,
				"element": "C" 
			},
			{
				"x": -1.0169388989,
				"y": -1.4489284627,
				"z": 0.7277656003,
				"element": "C" 
			},
			{
				"x": -0.6628902352,
				"y": 0.0374811811,
				"z": 0.8881795444,
				"element": "C" 
			},
			{
				"x": 0.6156237548,
				"y": 0.3792079858,
				"z": 0.2459468388,
				"element": "N" 
			},
			{
				"x": 1.6762768672,
				"y": 0.8886772574,
				"z": 1.0034185287,
				"element": "C" 
			},
			{
				"x": 1.440295489,
				"y": 1.6931988175,
				"z": 2.1366050282,
				"element": "C" 
			},
			{
				"x": 2.5121015553,
				"y": 2.2429115052,
				"z": 2.8289559586,
				"element": "C" 
			},
			{
				"x": 2.1787763993,
				"y": 3.2534007856,
				"z": 4.2281183906,
				"element": "Cl" 
			},
			{
				"x": 3.8383675788,
				"y": 2.0452357499,
				"z": 2.4369983161,
				"element": "C" 
			},
			{
				"x": 4.070955931,
				"y": 1.2477786701,
				"z": 1.3226953089,
				"element": "C" 
			},
			{
				"x": 3.0148167962,
				"y": 0.6707050709,
				"z": 0.6134509837,
				"element": "C" 
			},
			{
				"x": 3.4072682476,
				"y": -0.5484420861,
				"z": -0.6467350346,
				"element": "S" 
			},
			{
				"x": 3.1199063852,
				"y": -1.9252639287,
				"z": -0.084448447,
				"element": "O" 
			},
			{
				"x": 2.0311118105,
				"y": -0.0729582245,
				"z": -1.7009292211,
				"element": "C" 
			},
			{
				"x": 0.7666293319,
				"y": 0.1911565901,
				"z": -1.1369690098,
				"element": "C" 
			},
			{
				"x": -0.3309956473,
				"y": 0.3155943749,
				"z": -2.0111123369,
				"element": "C" 
			},
			{
				"x": -0.1547314056,
				"y": 0.2132526646,
				"z": -3.3873314689,
				"element": "C" 
			},
			{
				"x": 1.1103920096,
				"y": -0.0123483569,
				"z": -3.9391946877,
				"element": "C" 
			},
			{
				"x": 2.197822941,
				"y": -0.1648811015,
				"z": -3.0855904957,
				"element": "C" 
			},
			{
				"x": -0.9068345055,
				"y": -2.2528047241,
				"z": 4.6788161146,
				"element": "H" 
			},
			{
				"x": -0.0885816067,
				"y": -2.4532017442,
				"z": 3.1281530315,
				"element": "H" 
			},
			{
				"x": -1.3989480131,
				"y": -3.5679358383,
				"z": 3.5826737326,
				"element": "H" 
			},
			{
				"x": -3.0890692619,
				"y": -1.3361253173,
				"z": 4.8074868306,
				"element": "H" 
			},
			{
				"x": -3.9516793373,
				"y": -0.8445639092,
				"z": 3.3407571059,
				"element": "H" 
			},
			{
				"x": -3.7862096811,
				"y": -2.5733037083,
				"z": 3.7365021474,
				"element": "H" 
			},
			{
				"x": -3.0884743026,
				"y": -1.2506385512,
				"z": 1.2838337492,
				"element": "H" 
			},
			{
				"x": -2.4749165177,
				"y": -2.9008649777,
				"z": 1.4034136218,
				"element": "H" 
			},
			{
				"x": -1.254698047,
				"y": -1.6827214596,
				"z": -0.3151342925,
				"element": "H" 
			},
			{
				"x": -0.1311356474,
				"y": -2.0431882176,
				"z": 0.9762752356,
				"element": "H" 
			},
			{
				"x": -0.5747924461,
				"y": 0.2368909817,
				"z": 1.9541051437,
				"element": "H" 
			},
			{
				"x": -1.4734775709,
				"y": 0.6776188692,
				"z": 0.5154222438,
				"element": "H" 
			},
			{
				"x": 0.4329772377,
				"y": 1.9290800861,
				"z": 2.4536790153,
				"element": "H" 
			},
			{
				"x": 4.6523966536,
				"y": 2.4906467508,
				"z": 2.9958857163,
				"element": "H" 
			},
			{
				"x": 5.0901208652,
				"y": 1.0474391188,
				"z": 1.0034486591,
				"element": "H" 
			},
			{
				"x": -1.3187338641,
				"y": 0.5239300376,
				"z": -1.6168571921,
				"element": "H" 
			},
			{
				"x": -1.0171349535,
				"y": 0.3267773943,
				"z": -4.0379573163,
				"element": "H" 
			},
			{
				"x": 1.2391864896,
				"y": -0.0849562622,
				"z": -5.014159092,
				"element": "H" 
			},
			{
				"x": 3.1871538929,
				"y": -0.377436221,
				"z": -3.4820623792,
				"element": "H" 
			}
		],
		 "valence_orbital": [ 
			{
				"type": "occ",
				"energy": -0.26253,
				"method": "rhf"
			},
			{
				"type": "occ",
				"energy": -0.24569,
				"method": "rhf"
			},
			{
				"type": "occ",
				"energy": -0.22345,
				"method": "rhf"
			},
			{
				"type": "occ",
				"energy": -0.21894,
				"method": "rhf"
			},
			{
				"type": "occ",
				"energy": -0.2106,
				"method": "rhf"
			},
			{
				"type": "unocc",
				"energy": -0.04091,
				"method": "rhf"
			},
			{
				"type": "unocc",
				"energy": -0.02421,
				"method": "rhf"
			},
			{
				"type": "unocc",
				"energy": -0.01263,
				"method": "rhf"
			},
			{
				"type": "unocc",
				"energy": -0.00452,
				"method": "rhf"
			},
			{
				"type": "unocc",
				"energy": 0.02242,
				"method": "rhf"
			}
		],
		"cosmo_sigma_profile": { 
			"-0.025": 0.0,
			"-0.024": 0.0,
			"-0.023": 0.0,
			"-0.022": 0.0,
			"-0.021": 0.0,
			"-0.02": 0.0,
			"-0.019": 0.0,
			"-0.018": 0.0,
			"-0.017": 0.0,
			"-0.016": 0.0,
			"-0.015": 0.0,
			"-0.014": 0.0,
			"-0.013": 0.0,
			"-0.012": 0.0,
			"-0.011": 0.0,
			"-0.01": 0.0,
			"-0.009": 0.314142213115,
			"-0.008": 4.48124897932,
			"-0.007": 11.2971830001,
			"-0.006": 15.3819936541,
			"-0.005": 18.6995276326,
			"-0.004": 25.3504520821,
			"-0.003": 30.3107324274,
			"-0.002": 33.6877609653,
			"-0.001": 43.2264881042,
			"0.0": 42.6853081901,
			"0.001": 30.1617274705,
			"0.002": 27.9892666329,
			"0.003": 22.8507258,
			"0.004": 22.5025830221,
			"0.005": 7.54553673301,
			"0.006": 2.48188958165,
			"0.007": 2.73574091876,
			"0.008": 2.75630836077,
			"0.009": 2.528910998,
			"0.01": 1.4828533911,
			"0.011": 2.35432126139,
			"0.012": 2.08879119575,
			"0.013": 1.62440136066,
			"0.014": 4.85703758068,
			"0.015": 4.79088330768,
			"0.016": 0.964451830733,
			"0.017": 0.0,
			"0.018": 0.0,
			"0.019": 0.0,
			"0.02": 0.0,
			"0.021": 0.0,
			"0.022": 0.0,
			"0.023": 0.0,
			"0.024": 0.0,
			"0.025": 0.0
		}
	}
}
