{
	 "smiles": "NC(CC(O)=O)C1=CC=C(C=C1)C1=CC=CC=C1", 
	 "Tm": 512.15, 
	 "num_atms": 33, 
	 "gaussian": { 
		 "optdone": 1, 
		 "sigma_profile": "yes", 
		 "theory": "DFT", 
		 "functional": "B3LYP", 
		 "basiset": "6-31G**", 
		 "properties": { 
			 "R2extent": 6485.2153, 
			 "electric_dipole_moment_norm": 3.78221895982, 
			 "electric_quadrupole_moment_norm": 20.874090048, 
			 "total_energy": -785.85067673, 
			 "HOMO_LUMO_gap": 0.19293, 
			 "cosmo_polarized_energy": -17.47, 
			 "cosmo_cavitation_energy": 36.13, 
			 "cosmo_dispersion_energy": -25.7, 
			 "cosmo_repulsion_energy": 1.97, 
			 "cosmo_total_nonelectrostatic_energy": 12.41, 
			 "SMD_solvation_energy": 5.89 
		},
		"coords": [
			{
				"x": -4.1172667184,
				"y": 0.5707793841,
				"z": -0.8255558371,
				"element": "N" 
			},
			{
				"x": -3.271010025,
				"y": -0.1440999247,
				"z": 0.1282230123,
				"element": "C" 
			},
			{
				"x": -3.5915036538,
				"y": 0.2104635419,
				"z": 1.6203727284,
				"element": "C" 
			},
			{
				"x": -3.3890975408,
				"y": 1.6926214685,
				"z": 1.9018730437,
				"element": "C" 
			},
			{
				"x": -2.1214815481,
				"y": 2.093369397,
				"z": 2.1648773569,
				"element": "O" 
			},
			{
				"x": -4.2858058387,
				"y": 2.5030828779,
				"z": 1.8575248645,
				"element": "O" 
			},
			{
				"x": -1.7844645939,
				"y": 0.0416001992,
				"z": -0.1813148136,
				"element": "C" 
			},
			{
				"x": -0.8092449509,
				"y": -0.6127361574,
				"z": 0.5909239202,
				"element": "C" 
			},
			{
				"x": 0.5499678183,
				"y": -0.4432517894,
				"z": 0.3323440679,
				"element": "C" 
			},
			{
				"x": 0.99082903,
				"y": 0.3852834156,
				"z": -0.7135345217,
				"element": "C" 
			},
			{
				"x": 0.0116437387,
				"y": 1.0222847941,
				"z": -1.4921585523,
				"element": "C" 
			},
			{
				"x": -1.3478763102,
				"y": 0.8528779874,
				"z": -1.2339791827,
				"element": "C" 
			},
			{
				"x": 2.4380091371,
				"y": 0.572865109,
				"z": -0.9883064296,
				"element": "C" 
			},
			{
				"x": 2.9401596768,
				"y": 1.825578228,
				"z": -1.3803572795,
				"element": "C" 
			},
			{
				"x": 4.2985106223,
				"y": 2.0032432488,
				"z": -1.6391159057,
				"element": "C" 
			},
			{
				"x": 5.185104531,
				"y": 0.9324151216,
				"z": -1.5103134273,
				"element": "C" 
			},
			{
				"x": 4.7008738904,
				"y": -0.3179481754,
				"z": -1.1211879511,
				"element": "C" 
			},
			{
				"x": 3.3422910295,
				"y": -0.4957257277,
				"z": -0.8636519191,
				"element": "C" 
			},
			{
				"x": -5.0650254137,
				"y": 0.2075833309,
				"z": -0.7774978471,
				"element": "H" 
			},
			{
				"x": -4.1843556768,
				"y": 1.5551441123,
				"z": -0.5711970009,
				"element": "H" 
			},
			{
				"x": -3.4984137102,
				"y": -1.2118827683,
				"z": 0.0140255897,
				"element": "H" 
			},
			{
				"x": -4.6429381598,
				"y": -0.0130596159,
				"z": 1.8154302431,
				"element": "H" 
			},
			{
				"x": -2.9843949957,
				"y": -0.3976576782,
				"z": 2.2995165131,
				"element": "H" 
			},
			{
				"x": -1.499080321,
				"y": 1.3628782651,
				"z": 2.0204783113,
				"element": "H" 
			},
			{
				"x": -1.1086656247,
				"y": -1.2793869509,
				"z": 1.3970651064,
				"element": "H" 
			},
			{
				"x": 1.27888208,
				"y": -0.9469446893,
				"z": 0.9603809011,
				"element": "H" 
			},
			{
				"x": 0.3179808882,
				"y": 1.6408462925,
				"z": -2.3306196381,
				"element": "H" 
			},
			{
				"x": -2.0873125785,
				"y": 1.3298272591,
				"z": -1.8669743324,
				"element": "H" 
			},
			{
				"x": 2.2633774623,
				"y": 2.6714499325,
				"z": -1.4574852227,
				"element": "H" 
			},
			{
				"x": 4.6659521585,
				"y": 2.9823746736,
				"z": -1.9330952579,
				"element": "H" 
			},
			{
				"x": 6.2433784634,
				"y": 1.0709608901,
				"z": -1.7114341619,
				"element": "H" 
			},
			{
				"x": 5.3806967503,
				"y": -1.1600546276,
				"z": -1.0266844614,
				"element": "H" 
			},
			{
				"x": 2.9723803834,
				"y": -1.4792814245,
				"z": -0.5888719163,
				"element": "H" 
			}
		],
		 "valence_orbital": [ 
			{
				"type": "occ",
				"energy": -0.26773,
				"method": "rhf"
			},
			{
				"type": "occ",
				"energy": -0.26151,
				"method": "rhf"
			},
			{
				"type": "occ",
				"energy": -0.25436,
				"method": "rhf"
			},
			{
				"type": "occ",
				"energy": -0.25032,
				"method": "rhf"
			},
			{
				"type": "occ",
				"energy": -0.22848,
				"method": "rhf"
			},
			{
				"type": "unocc",
				"energy": -0.03555,
				"method": "rhf"
			},
			{
				"type": "unocc",
				"energy": -0.01677,
				"method": "rhf"
			},
			{
				"type": "unocc",
				"energy": -0.00546,
				"method": "rhf"
			},
			{
				"type": "unocc",
				"energy": 0.00495,
				"method": "rhf"
			},
			{
				"type": "unocc",
				"energy": 0.02071,
				"method": "rhf"
			}
		],
		"cosmo_sigma_profile": { 
			"-0.025": 0.0,
			"-0.024": 0.0,
			"-0.023": 0.0,
			"-0.022": 0.0,
			"-0.021": 0.0,
			"-0.02": 0.0,
			"-0.019": 0.0,
			"-0.018": 0.0,
			"-0.017": 0.0,
			"-0.016": 0.0,
			"-0.015": 0.0,
			"-0.014": 0.252293504021,
			"-0.013": 1.07467376263,
			"-0.012": 0.982510337332,
			"-0.011": 1.63043228632,
			"-0.01": 2.93763713261,
			"-0.009": 2.86069988145,
			"-0.008": 4.65553406194,
			"-0.007": 8.37552394482,
			"-0.006": 17.1660633289,
			"-0.005": 27.0690045035,
			"-0.004": 25.7142364728,
			"-0.003": 23.7125904567,
			"-0.002": 15.8372911651,
			"-0.001": 14.1278473276,
			"0.0": 15.672767349,
			"0.001": 13.5791544069,
			"0.002": 15.6195693962,
			"0.003": 18.4057078821,
			"0.004": 17.6201039424,
			"0.005": 17.7060200114,
			"0.006": 10.3214901019,
			"0.007": 3.52261248588,
			"0.008": 2.86183215811,
			"0.009": 3.30234077059,
			"0.01": 5.4110401592,
			"0.011": 5.50564421197,
			"0.012": 5.70884248641,
			"0.013": 3.19938224532,
			"0.014": 0.807891517746,
			"0.015": 0.400174499243,
			"0.016": 0.599979849807,
			"0.017": 0.180157787188,
			"0.018": 0.0,
			"0.019": 0.0,
			"0.02": 0.0,
			"0.021": 0.0,
			"0.022": 0.0,
			"0.023": 0.0,
			"0.024": 0.0,
			"0.025": 0.0
		}
	}
}
