{
	 "smiles": "COC1=CC=C(C=C1)C1=NOC(C)=C1C(Cl)=O", 
	 "Tm": 353.15, 
	 "num_atms": 27, 
	 "gaussian": { 
		 "optdone": 1, 
		 "sigma_profile": "yes", 
		 "theory": "DFT", 
		 "functional": "B3LYP", 
		 "basiset": "6-31G**", 
		 "properties": { 
			 "R2extent": 5439.607, 
			 "electric_dipole_moment_norm": 1.47270436952, 
			 "electric_quadrupole_moment_norm": 21.0256674719, 
			 "total_energy": -1203.86876095, 
			 "HOMO_LUMO_gap": 0.16123, 
			 "cosmo_polarized_energy": -11.59, 
			 "cosmo_cavitation_energy": 33.97, 
			 "cosmo_dispersion_energy": -24.24, 
			 "cosmo_repulsion_energy": 1.88, 
			 "cosmo_total_nonelectrostatic_energy": 11.62, 
			 "SMD_solvation_energy": 7.1 
		},
		"coords": [
			{
				"x": -2.9970134669,
				"y": -3.8932090626,
				"z": -2.0701030746,
				"element": "C" 
			},
			{
				"x": -2.2596946074,
				"y": -3.8025532749,
				"z": -0.8594541608,
				"element": "O" 
			},
			{
				"x": -1.5323397416,
				"y": -2.6767052503,
				"z": -0.6260868452,
				"element": "C" 
			},
			{
				"x": -1.445591152,
				"y": -1.5883062715,
				"z": -1.5042090507,
				"element": "C" 
			},
			{
				"x": -0.6735172218,
				"y": -0.4808792921,
				"z": -1.155697147,
				"element": "C" 
			},
			{
				"x": 0.0188226169,
				"y": -0.4337968181,
				"z": 0.0590121689,
				"element": "C" 
			},
			{
				"x": -0.0646973516,
				"y": -1.5400855927,
				"z": 0.9240786645,
				"element": "C" 
			},
			{
				"x": -0.8329065074,
				"y": -2.6445049582,
				"z": 0.5910149652,
				"element": "C" 
			},
			{
				"x": 0.8963821583,
				"y": 0.6995758962,
				"z": 0.4073399283,
				"element": "C" 
			},
			{
				"x": 2.0864478904,
				"y": 0.4233578184,
				"z": 0.897734284,
				"element": "N" 
			},
			{
				"x": 2.7215458592,
				"y": 1.6638160088,
				"z": 1.1089690885,
				"element": "O" 
			},
			{
				"x": 1.9256799503,
				"y": 2.655336948,
				"z": 0.7143818575,
				"element": "C" 
			},
			{
				"x": 2.4477022985,
				"y": 4.0411573327,
				"z": 0.8461745274,
				"element": "C" 
			},
			{
				"x": 0.7267005933,
				"y": 2.1298003633,
				"z": 0.2676777983,
				"element": "C" 
			},
			{
				"x": -0.3756319667,
				"y": 3.0080657713,
				"z": -0.1071569777,
				"element": "C" 
			},
			{
				"x": -2.03828009,
				"y": 2.2850544243,
				"z": 0.0216304259,
				"element": "Cl" 
			},
			{
				"x": -0.2687892116,
				"y": 4.1628970177,
				"z": -0.4152904683,
				"element": "O" 
			},
			{
				"x": -2.3392970036,
				"y": -3.8545181096,
				"z": -2.9476332333,
				"element": "H" 
			},
			{
				"x": -3.5016272336,
				"y": -4.8598951015,
				"z": -2.0424344363,
				"element": "H" 
			},
			{
				"x": -3.746985355,
				"y": -3.0959371763,
				"z": -2.1467331501,
				"element": "H" 
			},
			{
				"x": -1.966452922,
				"y": -1.5925768443,
				"z": -2.4538538826,
				"element": "H" 
			},
			{
				"x": -0.6056237182,
				"y": 0.3495750112,
				"z": -1.8506293414,
				"element": "H" 
			},
			{
				"x": 0.4776069097,
				"y": -1.5199145558,
				"z": 1.863347149,
				"element": "H" 
			},
			{
				"x": -0.9116626598,
				"y": -3.4974669484,
				"z": 1.2566327984,
				"element": "H" 
			},
			{
				"x": 2.8249920364,
				"y": 4.3975270828,
				"z": -0.1186239643,
				"element": "H" 
			},
			{
				"x": 3.2630373702,
				"y": 4.0645211148,
				"z": 1.5719300431,
				"element": "H" 
			},
			{
				"x": 1.650692526,
				"y": 4.7235644668,
				"z": 1.1471820335,
				"element": "H" 
			}
		],
		 "valence_orbital": [ 
			{
				"type": "occ",
				"energy": -0.30706,
				"method": "rhf"
			},
			{
				"type": "occ",
				"energy": -0.29476,
				"method": "rhf"
			},
			{
				"type": "occ",
				"energy": -0.27635,
				"method": "rhf"
			},
			{
				"type": "occ",
				"energy": -0.25938,
				"method": "rhf"
			},
			{
				"type": "occ",
				"energy": -0.2251,
				"method": "rhf"
			},
			{
				"type": "unocc",
				"energy": -0.06387,
				"method": "rhf"
			},
			{
				"type": "unocc",
				"energy": -0.03504,
				"method": "rhf"
			},
			{
				"type": "unocc",
				"energy": -0.00967,
				"method": "rhf"
			},
			{
				"type": "unocc",
				"energy": 0.00517,
				"method": "rhf"
			},
			{
				"type": "unocc",
				"energy": 0.025,
				"method": "rhf"
			}
		],
		"cosmo_sigma_profile": { 
			"-0.025": 0.0,
			"-0.024": 0.0,
			"-0.023": 0.0,
			"-0.022": 0.0,
			"-0.021": 0.0,
			"-0.02": 0.0,
			"-0.019": 0.0,
			"-0.018": 0.0,
			"-0.017": 0.0,
			"-0.016": 0.0,
			"-0.015": 0.0,
			"-0.014": 0.0,
			"-0.013": 0.0,
			"-0.012": 0.0,
			"-0.011": 0.0,
			"-0.01": 0.0,
			"-0.009": 0.0,
			"-0.008": 0.475499107872,
			"-0.007": 8.13768484659,
			"-0.006": 22.789318817,
			"-0.005": 24.8896034115,
			"-0.004": 25.250794395,
			"-0.003": 24.5651525014,
			"-0.002": 19.8100002796,
			"-0.001": 13.9268457895,
			"0.0": 11.6689966211,
			"0.001": 13.0263584522,
			"0.002": 16.7950748238,
			"0.003": 19.7226620723,
			"0.004": 24.8002511736,
			"0.005": 14.7587932199,
			"0.006": 8.85447758967,
			"0.007": 5.57465006094,
			"0.008": 7.41069880083,
			"0.009": 5.22196445114,
			"0.01": 3.41383943598,
			"0.011": 1.00029136765,
			"0.012": 1.16940043457,
			"0.013": 0.691713841377,
			"0.014": 0.0576622656351,
			"0.015": 0.0,
			"0.016": 0.0,
			"0.017": 0.0,
			"0.018": 0.0,
			"0.019": 0.0,
			"0.02": 0.0,
			"0.021": 0.0,
			"0.022": 0.0,
			"0.023": 0.0,
			"0.024": 0.0,
			"0.025": 0.0
		}
	}
}
