{
	 "smiles": "CC(C)(C)C1=CC=C(C=C1)C1CCC2(CC3=CC=C(C=C3C2)C(=O)N2C=C(CCCC(O)=O)C3=C2C=CC=C3)CC1", 
	 "Tm": 408.15, 
	 "num_atms": 82, 
	 "gaussian": { 
		 "optdone": 1, 
		 "sigma_profile": "yes", 
		 "theory": "DFT", 
		 "functional": "B3LYP", 
		 "basiset": "6-31G**", 
		 "properties": { 
			 "R2extent": 44915.6723, 
			 "electric_dipole_moment_norm": 5.89061548737, 
			 "electric_quadrupole_moment_norm": 51.0469323772, 
			 "total_energy": -1715.14018104, 
			 "HOMO_LUMO_gap": 0.16236, 
			 "cosmo_polarized_energy": -23.2, 
			 "cosmo_cavitation_energy": 79.12, 
			 "cosmo_dispersion_energy": -53.23, 
			 "cosmo_repulsion_energy": 3.9, 
			 "cosmo_total_nonelectrostatic_energy": 29.8, 
			 "SMD_solvation_energy": 12.9 
		},
		"coords": [
			{
				"x": -5.2748118607,
				"y": 6.6996249667,
				"z": 4.6036652938,
				"element": "C" 
			},
			{
				"x": -5.2612169694,
				"y": 5.5486062843,
				"z": 3.5799721447,
				"element": "C" 
			},
			{
				"x": -6.0011698179,
				"y": 6.0263536887,
				"z": 2.307700463,
				"element": "C" 
			},
			{
				"x": -6.0221143699,
				"y": 4.3492555609,
				"z": 4.1938876424,
				"element": "C" 
			},
			{
				"x": -3.8317954842,
				"y": 5.1139414512,
				"z": 3.2088861068,
				"element": "C" 
			},
			{
				"x": -3.6288903516,
				"y": 4.0701267109,
				"z": 2.2888104496,
				"element": "C" 
			},
			{
				"x": -2.3527196407,
				"y": 3.6488103231,
				"z": 1.926768453,
				"element": "C" 
			},
			{
				"x": -1.2058693658,
				"y": 4.2537781323,
				"z": 2.4649731017,
				"element": "C" 
			},
			{
				"x": -1.404021825,
				"y": 5.2921145483,
				"z": 3.3790707474,
				"element": "C" 
			},
			{
				"x": -2.6856638715,
				"y": 5.7133986887,
				"z": 3.7445805433,
				"element": "C" 
			},
			{
				"x": 0.1972377103,
				"y": 3.7964786601,
				"z": 2.1020566258,
				"element": "C" 
			},
			{
				"x": 0.467993721,
				"y": 3.717383484,
				"z": 0.5637024009,
				"element": "C" 
			},
			{
				"x": 0.5330987635,
				"y": 2.2756547845,
				"z": 0.0404573698,
				"element": "C" 
			},
			{
				"x": 1.6742981346,
				"y": 1.4452284753,
				"z": 0.6973910827,
				"element": "C" 
			},
			{
				"x": 2.9965895899,
				"y": 1.634368195,
				"z": -0.1114772037,
				"element": "C" 
			},
			{
				"x": 2.9268685802,
				"y": 0.5781169476,
				"z": -1.188434762,
				"element": "C" 
			},
			{
				"x": 3.6219297457,
				"y": 0.4893319711,
				"z": -2.394045779,
				"element": "C" 
			},
			{
				"x": 3.3833380684,
				"y": -0.5943552248,
				"z": -3.238658996,
				"element": "C" 
			},
			{
				"x": 2.4797864551,
				"y": -1.6046054145,
				"z": -2.871875194,
				"element": "C" 
			},
			{
				"x": 1.7746975913,
				"y": -1.5049073484,
				"z": -1.6588501335,
				"element": "C" 
			},
			{
				"x": 1.9989884677,
				"y": -0.4105116936,
				"z": -0.8296931716,
				"element": "C" 
			},
			{
				"x": 1.379909502,
				"y": -0.0784034762,
				"z": 0.5104493242,
				"element": "C" 
			},
			{
				"x": 2.2221193084,
				"y": -2.6824240988,
				"z": -3.8785145337,
				"element": "C" 
			},
			{
				"x": 2.1888196142,
				"y": -2.4388798944,
				"z": -5.0751943835,
				"element": "O" 
			},
			{
				"x": 2.0070680479,
				"y": -3.9895144073,
				"z": -3.4055857687,
				"element": "N" 
			},
			{
				"x": 2.3698803993,
				"y": -4.5066620434,
				"z": -2.1479937613,
				"element": "C" 
			},
			{
				"x": 2.0938813697,
				"y": -5.8387953906,
				"z": -2.072729004,
				"element": "C" 
			},
			{
				"x": 2.3165763139,
				"y": -6.7247001346,
				"z": -0.8753486544,
				"element": "C" 
			},
			{
				"x": 1.1622290793,
				"y": -6.7051429724,
				"z": 0.1530960852,
				"element": "C" 
			},
			{
				"x": -0.1698856726,
				"y": -7.2357175524,
				"z": -0.3911934706,
				"element": "C" 
			},
			{
				"x": -0.1394143578,
				"y": -8.7466417878,
				"z": -0.6086688419,
				"element": "C" 
			},
			{
				"x": -0.8740599955,
				"y": -9.2199869903,
				"z": -1.6512006514,
				"element": "O" 
			},
			{
				"x": 0.4636684086,
				"y": -9.5145936907,
				"z": 0.0998223986,
				"element": "O" 
			},
			{
				"x": 1.5309827001,
				"y": -6.2153024058,
				"z": -3.3573656303,
				"element": "C" 
			},
			{
				"x": 1.5020133134,
				"y": -5.0565093226,
				"z": -4.1730369799,
				"element": "C" 
			},
			{
				"x": 1.0162350762,
				"y": -5.0828490361,
				"z": -5.4833811886,
				"element": "C" 
			},
			{
				"x": 0.5542258201,
				"y": -6.3038568715,
				"z": -5.9706557432,
				"element": "C" 
			},
			{
				"x": 0.5837000157,
				"y": -7.4676857789,
				"z": -5.1827883206,
				"element": "C" 
			},
			{
				"x": 1.0708810512,
				"y": -7.4350790231,
				"z": -3.8792702107,
				"element": "C" 
			},
			{
				"x": 1.8399556699,
				"y": 1.8674210331,
				"z": 2.1826462888,
				"element": "C" 
			},
			{
				"x": 0.5519720977,
				"y": 2.4467220625,
				"z": 2.7801360196,
				"element": "C" 
			},
			{
				"x": -6.30881069,
				"y": 6.9728041809,
				"z": 4.8382127798,
				"element": "H" 
			},
			{
				"x": -4.7876940607,
				"y": 6.4158102498,
				"z": 5.5424045641,
				"element": "H" 
			},
			{
				"x": -4.7771068193,
				"y": 7.5950522465,
				"z": 4.2169993227,
				"element": "H" 
			},
			{
				"x": -5.488800929,
				"y": 6.881686141,
				"z": 1.8550839288,
				"element": "H" 
			},
			{
				"x": -6.0629216373,
				"y": 5.2372504439,
				"z": 1.5523916129,
				"element": "H" 
			},
			{
				"x": -7.024290617,
				"y": 6.333545537,
				"z": 2.5529277509,
				"element": "H" 
			},
			{
				"x": -6.08542687,
				"y": 3.5076438209,
				"z": 3.4976946299,
				"element": "H" 
			},
			{
				"x": -7.0452130868,
				"y": 4.640393896,
				"z": 4.4579677547,
				"element": "H" 
			},
			{
				"x": -5.5247490721,
				"y": 3.9939691558,
				"z": 5.1024184428,
				"element": "H" 
			},
			{
				"x": -4.4845095679,
				"y": 3.5718373415,
				"z": 1.8414816166,
				"element": "H" 
			},
			{
				"x": -2.2523897567,
				"y": 2.8374396719,
				"z": 1.2103734482,
				"element": "H" 
			},
			{
				"x": -0.5401988076,
				"y": 5.7885776293,
				"z": 3.8161016982,
				"element": "H" 
			},
			{
				"x": -2.775827408,
				"y": 6.5258633868,
				"z": 4.4568637727,
				"element": "H" 
			},
			{
				"x": 0.8871929225,
				"y": 4.5431473473,
				"z": 2.5151122681,
				"element": "H" 
			},
			{
				"x": -0.2999673666,
				"y": 4.2760130867,
				"z": 0.0193636151,
				"element": "H" 
			},
			{
				"x": 1.41811546,
				"y": 4.2194066629,
				"z": 0.342165581,
				"element": "H" 
			},
			{
				"x": -0.4261609294,
				"y": 1.7811579201,
				"z": 0.2356379637,
				"element": "H" 
			},
			{
				"x": 0.6529193103,
				"y": 2.2735476184,
				"z": -1.049094164,
				"element": "H" 
			},
			{
				"x": 3.1056685471,
				"y": 2.652125143,
				"z": -0.503691403,
				"element": "H" 
			},
			{
				"x": 3.8677961711,
				"y": 1.4520107267,
				"z": 0.5350338608,
				"element": "H" 
			},
			{
				"x": 4.3313258993,
				"y": 1.2594651444,
				"z": -2.6850643821,
				"element": "H" 
			},
			{
				"x": 3.8833899396,
				"y": -0.6702176066,
				"z": -4.1983609444,
				"element": "H" 
			},
			{
				"x": 1.0403504144,
				"y": -2.2584622687,
				"z": -1.3899499484,
				"element": "H" 
			},
			{
				"x": 0.3116426756,
				"y": -0.3157083903,
				"z": 0.5653855563,
				"element": "H" 
			},
			{
				"x": 1.8741180512,
				"y": -0.6615154247,
				"z": 1.3013657219,
				"element": "H" 
			},
			{
				"x": 2.8406227593,
				"y": -3.865584729,
				"z": -1.4199999749,
				"element": "H" 
			},
			{
				"x": 2.4883963461,
				"y": -7.7570951724,
				"z": -1.2015487073,
				"element": "H" 
			},
			{
				"x": 3.2334278932,
				"y": -6.4147715529,
				"z": -0.360967554,
				"element": "H" 
			},
			{
				"x": 1.0156065623,
				"y": -5.6783169757,
				"z": 0.5065834065,
				"element": "H" 
			},
			{
				"x": 1.4446447068,
				"y": -7.3161468256,
				"z": 1.0161237633,
				"element": "H" 
			},
			{
				"x": -0.9699644026,
				"y": -7.045517334,
				"z": 0.336526935,
				"element": "H" 
			},
			{
				"x": -0.4488024972,
				"y": -6.7085580968,
				"z": -1.3105769468,
				"element": "H" 
			},
			{
				"x": -1.2288369607,
				"y": -8.4831221573,
				"z": -2.1691563144,
				"element": "H" 
			},
			{
				"x": 1.0193599022,
				"y": -4.1900482497,
				"z": -6.0927310372,
				"element": "H" 
			},
			{
				"x": 0.1752076313,
				"y": -6.3563866187,
				"z": -6.9870041986,
				"element": "H" 
			},
			{
				"x": 0.231609988,
				"y": -8.4063746473,
				"z": -5.6009067368,
				"element": "H" 
			},
			{
				"x": 1.1021587084,
				"y": -8.3430441134,
				"z": -3.284783181,
				"element": "H" 
			},
			{
				"x": 2.6246108874,
				"y": 2.6330842709,
				"z": 2.2566555876,
				"element": "H" 
			},
			{
				"x": 2.1948507353,
				"y": 1.0154964381,
				"z": 2.774812452,
				"element": "H" 
			},
			{
				"x": 0.6584629326,
				"y": 2.5995386342,
				"z": 3.8596822649,
				"element": "H" 
			},
			{
				"x": -0.274917998,
				"y": 1.7364120588,
				"z": 2.654255036,
				"element": "H" 
			}
		],
		 "valence_orbital": [ 
			{
				"type": "occ",
				"energy": -0.24598,
				"method": "rhf"
			},
			{
				"type": "occ",
				"energy": -0.24516,
				"method": "rhf"
			},
			{
				"type": "occ",
				"energy": -0.23364,
				"method": "rhf"
			},
			{
				"type": "occ",
				"energy": -0.23102,
				"method": "rhf"
			},
			{
				"type": "occ",
				"energy": -0.2143,
				"method": "rhf"
			},
			{
				"type": "unocc",
				"energy": -0.05194,
				"method": "rhf"
			},
			{
				"type": "unocc",
				"energy": -0.02246,
				"method": "rhf"
			},
			{
				"type": "unocc",
				"energy": -0.01369,
				"method": "rhf"
			},
			{
				"type": "unocc",
				"energy": 0.0004,
				"method": "rhf"
			},
			{
				"type": "unocc",
				"energy": 0.00229,
				"method": "rhf"
			}
		],
		"cosmo_sigma_profile": { 
			"-0.025": 0.0,
			"-0.024": 0.0,
			"-0.023": 0.0,
			"-0.022": 0.0,
			"-0.021": 0.0,
			"-0.02": 0.0,
			"-0.019": 0.0,
			"-0.018": 0.249399488735,
			"-0.017": 0.736889587198,
			"-0.016": 0.521884833601,
			"-0.015": 1.05684660607,
			"-0.014": 1.03566983298,
			"-0.013": 1.10885995398,
			"-0.012": 0.760255983346,
			"-0.011": 1.05221728895,
			"-0.01": 1.33153281726,
			"-0.009": 0.922750663611,
			"-0.008": 1.61240248912,
			"-0.007": 5.06505624111,
			"-0.006": 11.410060312,
			"-0.005": 21.1709082191,
			"-0.004": 42.7246284874,
			"-0.003": 72.1755224455,
			"-0.002": 87.9125704074,
			"-0.001": 73.4511092379,
			"0.0": 61.445332375,
			"0.001": 58.4893013204,
			"0.002": 38.4814192142,
			"0.003": 26.839143711,
			"0.004": 28.1830794129,
			"0.005": 22.1585922959,
			"0.006": 15.019527543,
			"0.007": 11.3592187094,
			"0.008": 5.5667976872,
			"0.009": 3.79082192455,
			"0.01": 6.95579940995,
			"0.011": 7.53085769467,
			"0.012": 7.87317993664,
			"0.013": 2.73636826226,
			"0.014": 0.113541632699,
			"0.015": 0.0,
			"0.016": 0.0,
			"0.017": 0.0,
			"0.018": 0.0,
			"0.019": 0.0,
			"0.02": 0.0,
			"0.021": 0.0,
			"0.022": 0.0,
			"0.023": 0.0,
			"0.024": 0.0,
			"0.025": 0.0
		}
	}
}
