{
	 "smiles": "O=C1OC(=NC1=CC1=CC=CC=C1)C1=CC=CC=C1", 
	 "Tm": 440.15, 
	 "num_atms": 30, 
	 "gaussian": { 
		 "optdone": 1, 
		 "sigma_profile": "yes", 
		 "theory": "DFT", 
		 "functional": "B3LYP", 
		 "basiset": "6-31G**", 
		 "properties": { 
			 "R2extent": 7545.1363, 
			 "electric_dipole_moment_norm": 2.07680953869, 
			 "electric_quadrupole_moment_norm": 20.9238357499, 
			 "total_energy": -821.534993127, 
			 "HOMO_LUMO_gap": 0.12577, 
			 "cosmo_polarized_energy": -9.74, 
			 "cosmo_cavitation_energy": 35.46, 
			 "cosmo_dispersion_energy": -26.2, 
			 "cosmo_repulsion_energy": 1.96, 
			 "cosmo_total_nonelectrostatic_energy": 11.22, 
			 "SMD_solvation_energy": 5.47 
		},
		"coords": [
			{
				"x": 2.7581349114,
				"y": -0.0230049715,
				"z": -0.0546762615,
				"element": "O" 
			},
			{
				"x": 1.5815171686,
				"y": -0.150189204,
				"z": 0.1804097927,
				"element": "C" 
			},
			{
				"x": 1.1074597784,
				"y": -1.2500624649,
				"z": 0.9009284165,
				"element": "O" 
			},
			{
				"x": -0.2610798961,
				"y": -1.0921970077,
				"z": 0.9921190368,
				"element": "C" 
			},
			{
				"x": -0.7354444046,
				"y": -0.0342565472,
				"z": 0.4248458382,
				"element": "N" 
			},
			{
				"x": 0.3624838765,
				"y": 0.641125759,
				"z": -0.1269384187,
				"element": "C" 
			},
			{
				"x": 0.1833306432,
				"y": 1.8130545289,
				"z": -0.8029804593,
				"element": "C" 
			},
			{
				"x": 1.0732197267,
				"y": 2.741000331,
				"z": -1.4778294925,
				"element": "C" 
			},
			{
				"x": 2.4756816797,
				"y": 2.6021005666,
				"z": -1.5829849381,
				"element": "C" 
			},
			{
				"x": 3.2256175163,
				"y": 3.5609511318,
				"z": -2.2574984412,
				"element": "C" 
			},
			{
				"x": 2.6098874315,
				"y": 4.6724314634,
				"z": -2.840020606,
				"element": "C" 
			},
			{
				"x": 1.224228449,
				"y": 4.8255211858,
				"z": -2.7454778416,
				"element": "C" 
			},
			{
				"x": 0.4682231915,
				"y": 3.8723737166,
				"z": -2.0734487016,
				"element": "C" 
			},
			{
				"x": -1.0053446291,
				"y": -2.1217103215,
				"z": 1.7076271829,
				"element": "C" 
			},
			{
				"x": -2.4011754395,
				"y": -2.0027992364,
				"z": 1.8259018741,
				"element": "C" 
			},
			{
				"x": -3.1248384275,
				"y": -2.9764237259,
				"z": 2.5054077757,
				"element": "C" 
			},
			{
				"x": -2.4676570763,
				"y": -4.0740944563,
				"z": 3.0717228857,
				"element": "C" 
			},
			{
				"x": -1.0812190746,
				"y": -4.1947830753,
				"z": 2.9557451605,
				"element": "C" 
			},
			{
				"x": -0.3475187851,
				"y": -3.2241368746,
				"z": 2.2766679252,
				"element": "C" 
			},
			{
				"x": -0.8658482172,
				"y": 2.1025762639,
				"z": -0.8343807488,
				"element": "H" 
			},
			{
				"x": 2.9632119179,
				"y": 1.7453455923,
				"z": -1.1358222556,
				"element": "H" 
			},
			{
				"x": 4.3025472331,
				"y": 3.4393338607,
				"z": -2.3292810788,
				"element": "H" 
			},
			{
				"x": 3.2056479184,
				"y": 5.4143215836,
				"z": -3.364029273,
				"element": "H" 
			},
			{
				"x": 0.7363660273,
				"y": 5.6855523625,
				"z": -3.1945762217,
				"element": "H" 
			},
			{
				"x": -0.6094451873,
				"y": 3.9931276875,
				"z": -2.0008469959,
				"element": "H" 
			},
			{
				"x": -2.8929544766,
				"y": -1.1448080955,
				"z": 1.3802969593,
				"element": "H" 
			},
			{
				"x": -4.202945846,
				"y": -2.8824002878,
				"z": 2.595469284,
				"element": "H" 
			},
			{
				"x": -3.0362360166,
				"y": -4.8326931303,
				"z": 3.6018080925,
				"element": "H" 
			},
			{
				"x": -0.5700634598,
				"y": -5.0462582829,
				"z": 3.3948358672,
				"element": "H" 
			},
			{
				"x": 0.7292134666,
				"y": -3.310998352,
				"z": 2.182505643,
				"element": "H" 
			}
		],
		 "valence_orbital": [ 
			{
				"type": "occ",
				"energy": -0.27223,
				"method": "rhf"
			},
			{
				"type": "occ",
				"energy": -0.26907,
				"method": "rhf"
			},
			{
				"type": "occ",
				"energy": -0.26278,
				"method": "rhf"
			},
			{
				"type": "occ",
				"energy": -0.25863,
				"method": "rhf"
			},
			{
				"type": "occ",
				"energy": -0.21716,
				"method": "rhf"
			},
			{
				"type": "unocc",
				"energy": -0.09139,
				"method": "rhf"
			},
			{
				"type": "unocc",
				"energy": -0.03519,
				"method": "rhf"
			},
			{
				"type": "unocc",
				"energy": -0.01156,
				"method": "rhf"
			},
			{
				"type": "unocc",
				"energy": -0.00704,
				"method": "rhf"
			},
			{
				"type": "unocc",
				"energy": 0.01036,
				"method": "rhf"
			}
		],
		"cosmo_sigma_profile": { 
			"-0.025": 0.0,
			"-0.024": 0.0,
			"-0.023": 0.0,
			"-0.022": 0.0,
			"-0.021": 0.0,
			"-0.02": 0.0,
			"-0.019": 0.0,
			"-0.018": 0.0,
			"-0.017": 0.0,
			"-0.016": 0.0,
			"-0.015": 0.0,
			"-0.014": 0.0,
			"-0.013": 0.0,
			"-0.012": 0.0,
			"-0.011": 0.0,
			"-0.01": 0.0,
			"-0.009": 0.141691429948,
			"-0.008": 2.19829556554,
			"-0.007": 6.44107142438,
			"-0.006": 19.5407334032,
			"-0.005": 23.5490776003,
			"-0.004": 22.2747058243,
			"-0.003": 16.9334376142,
			"-0.002": 18.8235194599,
			"-0.001": 19.4864509047,
			"0.0": 21.1019363538,
			"0.001": 28.7650314794,
			"0.002": 24.6829115319,
			"0.003": 26.5737434189,
			"0.004": 27.1505266731,
			"0.005": 5.67052902791,
			"0.006": 4.10812752657,
			"0.007": 4.83759989265,
			"0.008": 3.14504123962,
			"0.009": 3.34470061868,
			"0.01": 4.23795860824,
			"0.011": 2.75623138685,
			"0.012": 1.14053710503,
			"0.013": 0.0361514210649,
			"0.014": 0.0,
			"0.015": 0.0,
			"0.016": 0.0,
			"0.017": 0.0,
			"0.018": 0.0,
			"0.019": 0.0,
			"0.02": 0.0,
			"0.021": 0.0,
			"0.022": 0.0,
			"0.023": 0.0,
			"0.024": 0.0,
			"0.025": 0.0
		}
	}
}
