{
	 "smiles": "CCOC(=O)C1=C(N=C(NCCCC(O)=O)S1)C1=CC=CC=C1", 
	 "Tm": 394.15, 
	 "num_atms": 41, 
	 "gaussian": { 
		 "optdone": 1, 
		 "sigma_profile": "yes", 
		 "theory": "DFT", 
		 "functional": "B3LYP", 
		 "basiset": "6-31G**", 
		 "properties": { 
			 "R2extent": 9445.677, 
			 "electric_dipole_moment_norm": 2.98818101359, 
			 "electric_quadrupole_moment_norm": 28.2344849781, 
			 "total_energy": -1429.17478502, 
			 "HOMO_LUMO_gap": 0.15736, 
			 "cosmo_polarized_energy": -21.38, 
			 "cosmo_cavitation_energy": 46.95, 
			 "cosmo_dispersion_energy": -31.48, 
			 "cosmo_repulsion_energy": 2.39, 
			 "cosmo_total_nonelectrostatic_energy": 17.86, 
			 "SMD_solvation_energy": 7.79 
		},
		"coords": [
			{
				"x": -0.9341838014,
				"y": 2.1890190519,
				"z": -4.6694231772,
				"element": "C" 
			},
			{
				"x": -1.7374661615,
				"y": 1.0998103376,
				"z": -3.9744651396,
				"element": "C" 
			},
			{
				"x": -1.1609496879,
				"y": 0.7561994645,
				"z": -2.6925365189,
				"element": "O" 
			},
			{
				"x": -0.1597014367,
				"y": -0.1505857307,
				"z": -2.7092059557,
				"element": "C" 
			},
			{
				"x": 0.2541790497,
				"y": -0.6807149335,
				"z": -3.7304378242,
				"element": "O" 
			},
			{
				"x": 0.4156568327,
				"y": -0.4294352112,
				"z": -1.3923521137,
				"element": "C" 
			},
			{
				"x": 0.1894820048,
				"y": 0.0062841401,
				"z": -0.0938133105,
				"element": "C" 
			},
			{
				"x": 1.1277952202,
				"y": -0.3999358295,
				"z": 0.8285057541,
				"element": "N" 
			},
			{
				"x": 2.0488022024,
				"y": -1.1597640959,
				"z": 0.282205947,
				"element": "C" 
			},
			{
				"x": 3.0555817132,
				"y": -1.7275737472,
				"z": 1.0032419741,
				"element": "N" 
			},
			{
				"x": 3.2693464719,
				"y": -1.3362341804,
				"z": 2.393627601,
				"element": "C" 
			},
			{
				"x": 3.989059629,
				"y": 0.0160179045,
				"z": 2.5492707404,
				"element": "C" 
			},
			{
				"x": 3.882856382,
				"y": 0.5880508538,
				"z": 3.9800291854,
				"element": "C" 
			},
			{
				"x": 2.478121335,
				"y": 1.0897775612,
				"z": 4.2469424597,
				"element": "C" 
			},
			{
				"x": 1.7485263771,
				"y": 0.2198589903,
				"z": 4.985476757,
				"element": "O" 
			},
			{
				"x": 2.0228119721,
				"y": 2.1309886386,
				"z": 3.8248022922,
				"element": "O" 
			},
			{
				"x": 1.8608441995,
				"y": -1.4478399618,
				"z": -1.438428146,
				"element": "S" 
			},
			{
				"x": -0.9176847109,
				"y": 0.8379053794,
				"z": 0.43357841,
				"element": "C" 
			},
			{
				"x": -0.6375142802,
				"y": 1.7657013794,
				"z": 1.4523364019,
				"element": "C" 
			},
			{
				"x": -1.6581014086,
				"y": 2.5368304261,
				"z": 2.0053774572,
				"element": "C" 
			},
			{
				"x": -2.9753594935,
				"y": 2.3787948375,
				"z": 1.5690886982,
				"element": "C" 
			},
			{
				"x": -3.2655244221,
				"y": 1.4406126936,
				"z": 0.5761999654,
				"element": "C" 
			},
			{
				"x": -2.2462431895,
				"y": 0.6758197272,
				"z": 0.0116289716,
				"element": "C" 
			},
			{
				"x": -0.840689648,
				"y": 3.0711435557,
				"z": -4.0293404016,
				"element": "H" 
			},
			{
				"x": -1.4365954848,
				"y": 2.4868351482,
				"z": -5.5960466132,
				"element": "H" 
			},
			{
				"x": 0.0646101492,
				"y": 1.8252682702,
				"z": -4.9218858455,
				"element": "H" 
			},
			{
				"x": -1.7952239173,
				"y": 0.1990992388,
				"z": -4.5900242503,
				"element": "H" 
			},
			{
				"x": -2.7464529407,
				"y": 1.4413642676,
				"z": -3.7307176991,
				"element": "H" 
			},
			{
				"x": 3.8353041349,
				"y": -2.1123224464,
				"z": 0.491275819,
				"element": "H" 
			},
			{
				"x": 3.8386361047,
				"y": -2.133939648,
				"z": 2.8825833165,
				"element": "H" 
			},
			{
				"x": 2.2866729184,
				"y": -1.2963130058,
				"z": 2.8675013392,
				"element": "H" 
			},
			{
				"x": 3.5501247679,
				"y": 0.7376213099,
				"z": 1.853890833,
				"element": "H" 
			},
			{
				"x": 5.0472073389,
				"y": -0.0920451561,
				"z": 2.283855697,
				"element": "H" 
			},
			{
				"x": 4.1636469129,
				"y": -0.1617856754,
				"z": 4.7257772507,
				"element": "H" 
			},
			{
				"x": 4.5540317234,
				"y": 1.4455469773,
				"z": 4.0771919345,
				"element": "H" 
			},
			{
				"x": 0.8527446899,
				"y": 0.5954918355,
				"z": 5.0417356594,
				"element": "H" 
			},
			{
				"x": 0.3800463273,
				"y": 1.8773041756,
				"z": 1.8101771165,
				"element": "H" 
			},
			{
				"x": -1.4204694084,
				"y": 3.2578251115,
				"z": 2.7824504797,
				"element": "H" 
			},
			{
				"x": -3.7715785595,
				"y": 2.9759379714,
				"z": 2.0049980325,
				"element": "H" 
			},
			{
				"x": -4.2902021574,
				"y": 1.2973115954,
				"z": 0.2447727861,
				"element": "H" 
			},
			{
				"x": -2.4798477487,
				"y": -0.0578312208,
				"z": -0.7500458836,
				"element": "H" 
			}
		],
		 "valence_orbital": [ 
			{
				"type": "occ",
				"energy": -0.27728,
				"method": "rhf"
			},
			{
				"type": "occ",
				"energy": -0.25659,
				"method": "rhf"
			},
			{
				"type": "occ",
				"energy": -0.24182,
				"method": "rhf"
			},
			{
				"type": "occ",
				"energy": -0.24096,
				"method": "rhf"
			},
			{
				"type": "occ",
				"energy": -0.2064,
				"method": "rhf"
			},
			{
				"type": "unocc",
				"energy": -0.04904,
				"method": "rhf"
			},
			{
				"type": "unocc",
				"energy": -0.00097,
				"method": "rhf"
			},
			{
				"type": "unocc",
				"energy": 0.00359,
				"method": "rhf"
			},
			{
				"type": "unocc",
				"energy": 0.01017,
				"method": "rhf"
			},
			{
				"type": "unocc",
				"energy": 0.01588,
				"method": "rhf"
			}
		],
		"cosmo_sigma_profile": { 
			"-0.025": 0.0,
			"-0.024": 0.0,
			"-0.023": 0.0,
			"-0.022": 0.0,
			"-0.021": 0.0,
			"-0.02": 0.0,
			"-0.019": 0.0,
			"-0.018": 0.486603348799,
			"-0.017": 0.830680555101,
			"-0.016": 1.26448836553,
			"-0.015": 2.44671908618,
			"-0.014": 1.55906821723,
			"-0.013": 1.76337011153,
			"-0.012": 2.76970387485,
			"-0.011": 2.05980383664,
			"-0.01": 2.02441878849,
			"-0.009": 1.64428145939,
			"-0.008": 2.06057228892,
			"-0.007": 2.3659437208,
			"-0.006": 11.5256978571,
			"-0.005": 25.1728780163,
			"-0.004": 30.5058061246,
			"-0.003": 31.4841558924,
			"-0.002": 30.6839833113,
			"-0.001": 28.1658520378,
			"0.0": 28.9152576317,
			"0.001": 27.177501153,
			"0.002": 25.4778358103,
			"0.003": 22.285685989,
			"0.004": 24.232109807,
			"0.005": 20.0916833343,
			"0.006": 10.5535435221,
			"0.007": 8.09393557029,
			"0.008": 6.18133497255,
			"0.009": 5.19289723471,
			"0.01": 4.23960079687,
			"0.011": 4.76356318292,
			"0.012": 6.58442590074,
			"0.013": 1.62958139147,
			"0.014": 0.0,
			"0.015": 0.0,
			"0.016": 0.0,
			"0.017": 0.0,
			"0.018": 0.0,
			"0.019": 0.0,
			"0.02": 0.0,
			"0.021": 0.0,
			"0.022": 0.0,
			"0.023": 0.0,
			"0.024": 0.0,
			"0.025": 0.0
		}
	}
}
