{
	 "smiles": "CC(C)(C)CC1=NN(C(N)=C1)C1=CC=CC=C1", 
	 "Tm": 369.15, 
	 "num_atms": 36, 
	 "gaussian": { 
		 "optdone": 1, 
		 "sigma_profile": "yes", 
		 "theory": "DFT", 
		 "functional": "B3LYP", 
		 "basiset": "6-31G**", 
		 "properties": { 
			 "R2extent": 6361.3459, 
			 "electric_dipole_moment_norm": 3.04470068972, 
			 "electric_quadrupole_moment_norm": 10.4816719706, 
			 "total_energy": -709.196627448, 
			 "HOMO_LUMO_gap": 0.19047, 
			 "cosmo_polarized_energy": -11.78, 
			 "cosmo_cavitation_energy": 37.51, 
			 "cosmo_dispersion_energy": -26.31, 
			 "cosmo_repulsion_energy": 2.05, 
			 "cosmo_total_nonelectrostatic_energy": 13.25, 
			 "SMD_solvation_energy": 5.66 
		},
		"coords": [
			{
				"x": 1.8556667103,
				"y": -0.1022638555,
				"z": -1.3963604912,
				"element": "C" 
			},
			{
				"x": 1.794544252,
				"y": -1.2139947521,
				"z": -0.333281198,
				"element": "C" 
			},
			{
				"x": 2.2453571969,
				"y": -0.6552060114,
				"z": 1.0289811272,
				"element": "C" 
			},
			{
				"x": 2.7358126553,
				"y": -2.3630519932,
				"z": -0.7435590073,
				"element": "C" 
			},
			{
				"x": 0.3496963561,
				"y": -1.7963105588,
				"z": -0.2419724061,
				"element": "C" 
			},
			{
				"x": -0.7376154661,
				"y": -0.8390825805,
				"z": 0.1581627315,
				"element": "C" 
			},
			{
				"x": -1.4481312448,
				"y": -0.2074114176,
				"z": -0.7697651277,
				"element": "N" 
			},
			{
				"x": -2.3259535676,
				"y": 0.5913924821,
				"z": -0.0716756276,
				"element": "N" 
			},
			{
				"x": -2.1833684798,
				"y": 0.4254307078,
				"z": 1.2845883713,
				"element": "C" 
			},
			{
				"x": -2.9511791308,
				"y": 1.1182833452,
				"z": 2.2206467125,
				"element": "N" 
			},
			{
				"x": -1.1582329539,
				"y": -0.4840871037,
				"z": 1.4673230198,
				"element": "C" 
			},
			{
				"x": -3.2704522587,
				"y": 1.3710095598,
				"z": -0.7858925778,
				"element": "C" 
			},
			{
				"x": -3.6969967327,
				"y": 2.6151588688,
				"z": -0.3008211306,
				"element": "C" 
			},
			{
				"x": -4.6320314981,
				"y": 3.3548065648,
				"z": -1.0275353246,
				"element": "C" 
			},
			{
				"x": -5.127665004,
				"y": 2.8772508339,
				"z": -2.2405409322,
				"element": "C" 
			},
			{
				"x": -4.677940827,
				"y": 1.6475420434,
				"z": -2.7298691824,
				"element": "C" 
			},
			{
				"x": -3.7580296488,
				"y": 0.8907634711,
				"z": -2.0092328096,
				"element": "C" 
			},
			{
				"x": 1.1765661856,
				"y": 0.7200246066,
				"z": -1.155196636,
				"element": "H" 
			},
			{
				"x": 2.8717832557,
				"y": 0.3017013592,
				"z": -1.4731683254,
				"element": "H" 
			},
			{
				"x": 1.569585167,
				"y": -0.4841663834,
				"z": -2.3827263202,
				"element": "H" 
			},
			{
				"x": 3.275777514,
				"y": -0.2862252527,
				"z": 0.9722584352,
				"element": "H" 
			},
			{
				"x": 2.2128475371,
				"y": -1.4286859711,
				"z": 1.8061372343,
				"element": "H" 
			},
			{
				"x": 1.6090381191,
				"y": 0.173939602,
				"z": 1.3524197459,
				"element": "H" 
			},
			{
				"x": 3.7688994626,
				"y": -2.0087542458,
				"z": -0.8336078301,
				"element": "H" 
			},
			{
				"x": 2.4440154796,
				"y": -2.7891349497,
				"z": -1.7103314397,
				"element": "H" 
			},
			{
				"x": 2.7241212853,
				"y": -3.1719581327,
				"z": -0.0034863286,
				"element": "H" 
			},
			{
				"x": 0.08556023,
				"y": -2.2125915217,
				"z": -1.2206744342,
				"element": "H" 
			},
			{
				"x": 0.361326081,
				"y": -2.6327965381,
				"z": 0.4688442199,
				"element": "H" 
			},
			{
				"x": -3.9188391029,
				"y": 1.2437990313,
				"z": 1.9436698355,
				"element": "H" 
			},
			{
				"x": -2.8974042093,
				"y": 0.6910749485,
				"z": 3.1367183241,
				"element": "H" 
			},
			{
				"x": -0.7811371627,
				"y": -0.8519202511,
				"z": 2.4103546632,
				"element": "H" 
			},
			{
				"x": -3.281934277,
				"y": 3.0095942301,
				"z": 0.6196801668,
				"element": "H" 
			},
			{
				"x": -4.9577197321,
				"y": 4.3185116564,
				"z": -0.6464699111,
				"element": "H" 
			},
			{
				"x": -5.8503739503,
				"y": 3.4596483866,
				"z": -2.8040163653,
				"element": "H" 
			},
			{
				"x": -5.0508041731,
				"y": 1.2702105607,
				"z": -3.6777939972,
				"element": "H" 
			},
			{
				"x": -3.395088068,
				"y": -0.0614007393,
				"z": -2.3765071843,
				"element": "H" 
			}
		],
		 "valence_orbital": [ 
			{
				"type": "occ",
				"energy": -0.27305,
				"method": "rhf"
			},
			{
				"type": "occ",
				"energy": -0.2721,
				"method": "rhf"
			},
			{
				"type": "occ",
				"energy": -0.25332,
				"method": "rhf"
			},
			{
				"type": "occ",
				"energy": -0.21645,
				"method": "rhf"
			},
			{
				"type": "occ",
				"energy": -0.20306,
				"method": "rhf"
			},
			{
				"type": "unocc",
				"energy": -0.01259,
				"method": "rhf"
			},
			{
				"type": "unocc",
				"energy": -0.00545,
				"method": "rhf"
			},
			{
				"type": "unocc",
				"energy": 0.04727,
				"method": "rhf"
			},
			{
				"type": "unocc",
				"energy": 0.07303,
				"method": "rhf"
			},
			{
				"type": "unocc",
				"energy": 0.08374,
				"method": "rhf"
			}
		],
		"cosmo_sigma_profile": { 
			"-0.025": 0.0,
			"-0.024": 0.0,
			"-0.023": 0.0,
			"-0.022": 0.0,
			"-0.021": 0.0,
			"-0.02": 0.0,
			"-0.019": 0.0,
			"-0.018": 0.0,
			"-0.017": 0.0,
			"-0.016": 0.0,
			"-0.015": 0.0,
			"-0.014": 0.243050527321,
			"-0.013": 1.29537423373,
			"-0.012": 2.70093687796,
			"-0.011": 2.09517187151,
			"-0.01": 2.85597449879,
			"-0.009": 2.56360750432,
			"-0.008": 2.69105596345,
			"-0.007": 2.04238218974,
			"-0.006": 8.70922778999,
			"-0.005": 12.6100516938,
			"-0.004": 12.6647447995,
			"-0.003": 17.3804126133,
			"-0.002": 35.5379076731,
			"-0.001": 30.7689030415,
			"0.0": 27.0432299483,
			"0.001": 31.9725832456,
			"0.002": 30.0197118648,
			"0.003": 14.7596264486,
			"0.004": 16.67240074,
			"0.005": 16.883694395,
			"0.006": 6.49425217835,
			"0.007": 3.85255369302,
			"0.008": 2.46523883181,
			"0.009": 2.53622752645,
			"0.01": 1.82230837818,
			"0.011": 1.91889299374,
			"0.012": 1.27084144274,
			"0.013": 1.28459737436,
			"0.014": 0.565092204118,
			"0.015": 0.618775665565,
			"0.016": 0.0400287482743,
			"0.017": 0.0,
			"0.018": 0.0,
			"0.019": 0.0,
			"0.02": 0.0,
			"0.021": 0.0,
			"0.022": 0.0,
			"0.023": 0.0,
			"0.024": 0.0,
			"0.025": 0.0
		}
	}
}
