{
	 "smiles": "CN1C=CC(=N1)C1=CC=C(C=C1)C(O)=O", 
	 "Tm": 514.15, 
	 "num_atms": 25, 
	 "gaussian": { 
		 "optdone": 1, 
		 "sigma_profile": "yes", 
		 "theory": "DFT", 
		 "functional": "B3LYP", 
		 "basiset": "6-31G**", 
		 "properties": { 
			 "R2extent": 4673.4113, 
			 "electric_dipole_moment_norm": 7.932264086, 
			 "electric_quadrupole_moment_norm": 18.3953495341, 
			 "total_energy": -685.143601793, 
			 "HOMO_LUMO_gap": 0.17441, 
			 "cosmo_polarized_energy": -18.94, 
			 "cosmo_cavitation_energy": 29.95, 
			 "cosmo_dispersion_energy": -22.08, 
			 "cosmo_repulsion_energy": 1.7, 
			 "cosmo_total_nonelectrostatic_energy": 9.57, 
			 "SMD_solvation_energy": 5.85 
		},
		"coords": [
			{
				"x": -2.4639481181,
				"y": 3.3108444878,
				"z": -3.580181421,
				"element": "C" 
			},
			{
				"x": -1.3571862492,
				"y": 2.810282993,
				"z": -2.7861698658,
				"element": "N" 
			},
			{
				"x": -0.1269895577,
				"y": 3.3670137994,
				"z": -2.6147675545,
				"element": "C" 
			},
			{
				"x": 0.5765702848,
				"y": 2.5286669456,
				"z": -1.7761280258,
				"element": "C" 
			},
			{
				"x": -0.3230341713,
				"y": 1.4693995977,
				"z": -1.4843613097,
				"element": "C" 
			},
			{
				"x": -1.4960001221,
				"y": 1.6589466054,
				"z": -2.1086548237,
				"element": "N" 
			},
			{
				"x": -0.1151636548,
				"y": 0.2857680948,
				"z": -0.638212697,
				"element": "C" 
			},
			{
				"x": -1.1397581972,
				"y": -0.6664717814,
				"z": -0.4790898515,
				"element": "C" 
			},
			{
				"x": -0.9502357218,
				"y": -1.7872735362,
				"z": 0.3163270342,
				"element": "C" 
			},
			{
				"x": 0.2612007975,
				"y": -1.9870460937,
				"z": 0.9957054153,
				"element": "C" 
			},
			{
				"x": 1.2897383396,
				"y": -1.0486967311,
				"z": 0.8293325666,
				"element": "C" 
			},
			{
				"x": 1.1044189746,
				"y": 0.0705374979,
				"z": 0.0232734204,
				"element": "C" 
			},
			{
				"x": 0.3995243435,
				"y": -3.2172787588,
				"z": 1.8356739193,
				"element": "C" 
			},
			{
				"x": 1.3825432638,
				"y": -3.2079617263,
				"z": 2.7793491508,
				"element": "O" 
			},
			{
				"x": -0.307212764,
				"y": -4.1910985331,
				"z": 1.7154588292,
				"element": "O" 
			},
			{
				"x": -2.7339733491,
				"y": 2.5822179185,
				"z": -4.3488169335,
				"element": "H" 
			},
			{
				"x": -3.3326585801,
				"y": 3.4922160963,
				"z": -2.9420316408,
				"element": "H" 
			},
			{
				"x": -2.1630469694,
				"y": 4.2451753624,
				"z": -4.0564910047,
				"element": "H" 
			},
			{
				"x": 0.1451584241,
				"y": 4.296478703,
				"z": -3.0933300101,
				"element": "H" 
			},
			{
				"x": 1.5895197462,
				"y": 2.6662212922,
				"z": -1.4304248851,
				"element": "H" 
			},
			{
				"x": -2.08106197,
				"y": -0.5089754661,
				"z": -0.9936006901,
				"element": "H" 
			},
			{
				"x": -1.7332745006,
				"y": -2.5290472687,
				"z": 0.4318465913,
				"element": "H" 
			},
			{
				"x": 2.2623354938,
				"y": -1.1994289715,
				"z": 1.2925735606,
				"element": "H" 
			},
			{
				"x": 1.9193796942,
				"y": 0.7770170881,
				"z": -0.0973788781,
				"element": "H" 
			},
			{
				"x": 1.7452545633,
				"y": -2.3161076154,
				"z": 2.8693991037,
				"element": "H" 
			}
		],
		 "valence_orbital": [ 
			{
				"type": "occ",
				"energy": -0.2933,
				"method": "rhf"
			},
			{
				"type": "occ",
				"energy": -0.26633,
				"method": "rhf"
			},
			{
				"type": "occ",
				"energy": -0.26196,
				"method": "rhf"
			},
			{
				"type": "occ",
				"energy": -0.25534,
				"method": "rhf"
			},
			{
				"type": "occ",
				"energy": -0.2275,
				"method": "rhf"
			},
			{
				"type": "unocc",
				"energy": -0.05309,
				"method": "rhf"
			},
			{
				"type": "unocc",
				"energy": -0.01344,
				"method": "rhf"
			},
			{
				"type": "unocc",
				"energy": 0.01139,
				"method": "rhf"
			},
			{
				"type": "unocc",
				"energy": 0.04038,
				"method": "rhf"
			},
			{
				"type": "unocc",
				"energy": 0.06704,
				"method": "rhf"
			}
		],
		"cosmo_sigma_profile": { 
			"-0.025": 0.0,
			"-0.024": 0.0,
			"-0.023": 0.0,
			"-0.022": 0.0,
			"-0.021": 0.0,
			"-0.02": 0.0,
			"-0.019": 0.044444220402,
			"-0.018": 0.813669228924,
			"-0.017": 0.799592825067,
			"-0.016": 0.955617818502,
			"-0.015": 1.08524631152,
			"-0.014": 1.45252392097,
			"-0.013": 0.628440595823,
			"-0.012": 0.787440678931,
			"-0.011": 1.27119450203,
			"-0.01": 1.54338558072,
			"-0.009": 3.63924566424,
			"-0.008": 7.16141404407,
			"-0.007": 9.38961774999,
			"-0.006": 13.5966654313,
			"-0.005": 14.0262628497,
			"-0.004": 17.0974812886,
			"-0.003": 18.6464434004,
			"-0.002": 12.0372624553,
			"-0.001": 9.70846867098,
			"0.0": 10.4058576809,
			"0.001": 12.2306563379,
			"0.002": 16.864633877,
			"0.003": 23.6419519148,
			"0.004": 14.7699313482,
			"0.005": 8.82978996531,
			"0.006": 4.91898917833,
			"0.007": 4.28926358695,
			"0.008": 4.31712646056,
			"0.009": 4.34721900738,
			"0.01": 5.32181219295,
			"0.011": 6.59947349091,
			"0.012": 6.37582384486,
			"0.013": 2.4636224854,
			"0.014": 0.142849419051,
			"0.015": 0.0,
			"0.016": 0.0,
			"0.017": 0.0,
			"0.018": 0.0,
			"0.019": 0.0,
			"0.02": 0.0,
			"0.021": 0.0,
			"0.022": 0.0,
			"0.023": 0.0,
			"0.024": 0.0,
			"0.025": 0.0
		}
	}
}
