{
	 "smiles": "CC1(NC(=O)NC1=O)C1=C2C=CC=CC2=CC=C1", 
	 "Tm": 379.15, 
	 "num_atms": 30, 
	 "gaussian": { 
		 "optdone": 1, 
		 "sigma_profile": "yes", 
		 "theory": "DFT", 
		 "functional": "B3LYP", 
		 "basiset": "6-31G**", 
		 "properties": { 
			 "R2extent": 5077.4015, 
			 "electric_dipole_moment_norm": 2.5161229342, 
			 "electric_quadrupole_moment_norm": 14.1143164517, 
			 "total_energy": -800.720344678, 
			 "HOMO_LUMO_gap": 0.17162, 
			 "cosmo_polarized_energy": -16.8, 
			 "cosmo_cavitation_energy": 32.86, 
			 "cosmo_dispersion_energy": -23.8, 
			 "cosmo_repulsion_energy": 1.81, 
			 "cosmo_total_nonelectrostatic_energy": 10.87, 
			 "SMD_solvation_energy": 7.14 
		},
		"coords": [
			{
				"x": -1.8663860044,
				"y": -1.4887381653,
				"z": 1.0638811131,
				"element": "C" 
			},
			{
				"x": -0.6536966129,
				"y": -1.0941184017,
				"z": 1.9378876657,
				"element": "C" 
			},
			{
				"x": -0.4947996346,
				"y": -2.0910727669,
				"z": 3.000746832,
				"element": "N" 
			},
			{
				"x": -0.7155351985,
				"y": -1.6206377386,
				"z": 4.2687854014,
				"element": "C" 
			},
			{
				"x": -0.7355484231,
				"y": -2.2358355385,
				"z": 5.3138342961,
				"element": "O" 
			},
			{
				"x": -0.9279083199,
				"y": -0.2367372441,
				"z": 4.1130716395,
				"element": "N" 
			},
			{
				"x": -0.986578386,
				"y": 0.1666219718,
				"z": 2.7986499039,
				"element": "C" 
			},
			{
				"x": -1.2747725312,
				"y": 1.2791673526,
				"z": 2.4093770791,
				"element": "O" 
			},
			{
				"x": 0.6454418785,
				"y": -0.9345128758,
				"z": 1.1051555465,
				"element": "C" 
			},
			{
				"x": 0.7570797045,
				"y": -0.0457215063,
				"z": -0.027160602,
				"element": "C" 
			},
			{
				"x": -0.232776827,
				"y": 0.9051140101,
				"z": -0.4137379275,
				"element": "C" 
			},
			{
				"x": -0.0711002708,
				"y": 1.7035527275,
				"z": -1.5252529478,
				"element": "C" 
			},
			{
				"x": 1.0916080301,
				"y": 1.6128837422,
				"z": -2.3221662871,
				"element": "C" 
			},
			{
				"x": 2.0865337189,
				"y": 0.7347025733,
				"z": -1.9647120817,
				"element": "C" 
			},
			{
				"x": 1.9581105181,
				"y": -0.0988992536,
				"z": -0.8206679887,
				"element": "C" 
			},
			{
				"x": 3.018693551,
				"y": -0.9676219417,
				"z": -0.4532655177,
				"element": "C" 
			},
			{
				"x": 2.9112426291,
				"y": -1.7571613758,
				"z": 0.6623163914,
				"element": "C" 
			},
			{
				"x": 1.7239818724,
				"y": -1.7388460189,
				"z": 1.4280281332,
				"element": "C" 
			},
			{
				"x": -2.073089553,
				"y": -0.7519351177,
				"z": 0.2900446893,
				"element": "H" 
			},
			{
				"x": -1.6565589641,
				"y": -2.4438870959,
				"z": 0.5720986495,
				"element": "H" 
			},
			{
				"x": -2.7569459733,
				"y": -1.605330857,
				"z": 1.6883301781,
				"element": "H" 
			},
			{
				"x": -0.5119097681,
				"y": -3.0851459419,
				"z": 2.8313030913,
				"element": "H" 
			},
			{
				"x": -1.1337697718,
				"y": 0.3699461924,
				"z": 4.8939157334,
				"element": "H" 
			},
			{
				"x": -1.1002654185,
				"y": 1.05536704,
				"z": 0.2125292821,
				"element": "H" 
			},
			{
				"x": -0.8445106008,
				"y": 2.4220844421,
				"z": -1.7810335198,
				"element": "H" 
			},
			{
				"x": 1.2033803253,
				"y": 2.2452854543,
				"z": -3.1980411153,
				"element": "H" 
			},
			{
				"x": 2.9998777398,
				"y": 0.6665426176,
				"z": -2.550143385,
				"element": "H" 
			},
			{
				"x": 3.9167715163,
				"y": -0.98462106,
				"z": -1.0651328243,
				"element": "H" 
			},
			{
				"x": 3.7255200366,
				"y": -2.4110095032,
				"z": 0.9601263416,
				"element": "H" 
			},
			{
				"x": 1.6618107374,
				"y": -2.3849357214,
				"z": 2.2948322296,
				"element": "H" 
			}
		],
		 "valence_orbital": [ 
			{
				"type": "occ",
				"energy": -0.28289,
				"method": "rhf"
			},
			{
				"type": "occ",
				"energy": -0.27297,
				"method": "rhf"
			},
			{
				"type": "occ",
				"energy": -0.2667,
				"method": "rhf"
			},
			{
				"type": "occ",
				"energy": -0.24647,
				"method": "rhf"
			},
			{
				"type": "occ",
				"energy": -0.21693,
				"method": "rhf"
			},
			{
				"type": "unocc",
				"energy": -0.04531,
				"method": "rhf"
			},
			{
				"type": "unocc",
				"energy": -0.01343,
				"method": "rhf"
			},
			{
				"type": "unocc",
				"energy": -0.01262,
				"method": "rhf"
			},
			{
				"type": "unocc",
				"energy": 0.02577,
				"method": "rhf"
			},
			{
				"type": "unocc",
				"energy": 0.05721,
				"method": "rhf"
			}
		],
		"cosmo_sigma_profile": { 
			"-0.025": 0.0,
			"-0.024": 0.0,
			"-0.023": 0.0,
			"-0.022": 0.0,
			"-0.021": 0.0,
			"-0.02": 0.0,
			"-0.019": 0.0,
			"-0.018": 0.0,
			"-0.017": 0.388115994113,
			"-0.016": 1.66711387854,
			"-0.015": 1.86364953112,
			"-0.014": 2.169431372,
			"-0.013": 1.51465603507,
			"-0.012": 2.24439037196,
			"-0.011": 1.63832769287,
			"-0.01": 1.61797338398,
			"-0.009": 2.35984782948,
			"-0.008": 2.74678344864,
			"-0.007": 3.37869722158,
			"-0.006": 13.2918172103,
			"-0.005": 18.6830566247,
			"-0.004": 20.3848950789,
			"-0.003": 21.3501148374,
			"-0.002": 19.8009554176,
			"-0.001": 19.9393597912,
			"0.0": 13.0774797653,
			"0.001": 11.6949534724,
			"0.002": 12.6331311867,
			"0.003": 15.5257817017,
			"0.004": 22.2160921503,
			"0.005": 16.4669840539,
			"0.006": 4.78183636406,
			"0.007": 2.94195567701,
			"0.008": 2.75377361456,
			"0.009": 3.49646872598,
			"0.01": 3.42981112142,
			"0.011": 4.9785889262,
			"0.012": 7.12580186935,
			"0.013": 5.77625144622,
			"0.014": 0.559822266582,
			"0.015": 0.0,
			"0.016": 0.0,
			"0.017": 0.0,
			"0.018": 0.0,
			"0.019": 0.0,
			"0.02": 0.0,
			"0.021": 0.0,
			"0.022": 0.0,
			"0.023": 0.0,
			"0.024": 0.0,
			"0.025": 0.0
		}
	}
}
