{
	 "smiles": "COC1=NC(OC)=C(I)C=N1", 
	 "Tm": 346.15, 
	 "num_atms": 18, 
	 "gaussian": { 
		 "optdone": 1, 
		 "sigma_profile": "no", 
		 "theory": "DFT", 
		 "functional": "B3LYP", 
		 "basiset": "6-31G**", 
		 "properties": { 
			 "R2extent": 1961.8699, 
			 "electric_dipole_moment_norm": 1.15693670095, 
			 "electric_quadrupole_moment_norm": 7.08188040142, 
			 "total_energy": -504.182689033, 
			 "HOMO_LUMO_gap": 0.19455, 
			 "cosmo_polarized_energy": -95819.15, 
			 "cosmo_cavitation_energy": 25.73, 
			 "cosmo_dispersion_energy": -20.54, 
			 "cosmo_repulsion_energy": 1.65, 
			 "cosmo_total_nonelectrostatic_energy": 6.83, 
			 "SMD_solvation_energy": 3.57 
		},
		"coords": [
			{
				"x": 1.037497151,
				"y": 2.6132428625,
				"z": -2.1989759585,
				"element": "C" 
			},
			{
				"x": 0.3979275244,
				"y": 1.3429498211,
				"z": -2.0273820716,
				"element": "O" 
			},
			{
				"x": 0.2773207633,
				"y": 0.8804057104,
				"z": -0.7762722939,
				"element": "C" 
			},
			{
				"x": -0.3314174074,
				"y": -0.3120633426,
				"z": -0.7018289654,
				"element": "N" 
			},
			{
				"x": -0.4835873592,
				"y": -0.8283389113,
				"z": 0.5096167031,
				"element": "C" 
			},
			{
				"x": -1.0816354508,
				"y": -2.0126078043,
				"z": 0.6526913482,
				"element": "O" 
			},
			{
				"x": -1.5350313177,
				"y": -2.6729832647,
				"z": -0.5397428774,
				"element": "C" 
			},
			{
				"x": -0.0265894983,
				"y": -0.1553323937,
				"z": 1.6685823922,
				"element": "C" 
			},
			{
				"x": -0.2555092407,
				"y": -0.9512922862,
				"z": 3.5996154511,
				"element": "I" 
			},
			{
				"x": 0.5854495503,
				"y": 1.0683705022,
				"z": 1.4568425536,
				"element": "C" 
			},
			{
				"x": 0.7480875928,
				"y": 1.6065867642,
				"z": 0.2363120543,
				"element": "N" 
			},
			{
				"x": 2.0640120693,
				"y": 2.5897377304,
				"z": -1.8236225866,
				"element": "H" 
			},
			{
				"x": 0.4910565109,
				"y": 3.4017733889,
				"z": -1.6747657125,
				"element": "H" 
			},
			{
				"x": 1.0290497265,
				"y": 2.7939946431,
				"z": -3.2742947166,
				"element": "H" 
			},
			{
				"x": -2.2723224492,
				"y": -2.0612093164,
				"z": -1.0650207462,
				"element": "H" 
			},
			{
				"x": -0.6985782784,
				"y": -2.8737664696,
				"z": -1.213407505,
				"element": "H" 
			},
			{
				"x": -1.983171367,
				"y": -3.6041508095,
				"z": -0.1937133854,
				"element": "H" 
			},
			{
				"x": 0.9639414802,
				"y": 1.6477831755,
				"z": 2.2951663165,
				"element": "H" 
			}
		],
		 "valence_orbital": [ 
			{
				"type": "occ",
				"energy": -0.29164,
				"method": "rhf"
			},
			{
				"type": "occ",
				"energy": -0.28645,
				"method": "rhf"
			},
			{
				"type": "occ",
				"energy": -0.27788,
				"method": "rhf"
			},
			{
				"type": "occ",
				"energy": -0.25946,
				"method": "rhf"
			},
			{
				"type": "occ",
				"energy": -0.23359,
				"method": "rhf"
			},
			{
				"type": "unocc",
				"energy": -0.03904,
				"method": "rhf"
			},
			{
				"type": "unocc",
				"energy": -0.03403,
				"method": "rhf"
			},
			{
				"type": "unocc",
				"energy": -0.01118,
				"method": "rhf"
			},
			{
				"type": "unocc",
				"energy": 0.04349,
				"method": "rhf"
			},
			{
				"type": "unocc",
				"energy": 0.04957,
				"method": "rhf"
			}
		],
		"cosmo_sigma_profile": { 
			"0.0": 0.0,
			"0.0": 0.0,
			"0.0": 0.0,
			"0.0": 0.0,
			"0.0": 0.0,
			"0.0": 0.0,
			"0.0": 0.0,
			"0.0": 0.0,
			"0.0": 0.0,
			"0.0": 0.0,
			"0.0": 0.0,
			"0.0": 0.0,
			"0.0": 0.0,
			"0.0": 0.0,
			"0.0": 0.0,
			"0.0": 0.0,
			"0.0": 0.0,
			"0.0": 0.0,
			"0.0": 0.0,
			"0.0": 0.0,
			"0.0": 0.0,
			"0.0": 0.0,
			"0.0": 0.0,
			"0.0": 0.0,
			"0.0": 0.0,
			"0.0": 0.0,
			"0.0": 0.0,
			"0.0": 0.0,
			"0.0": 0.0,
			"0.0": 0.0,
			"0.0": 0.0,
			"0.0": 0.0,
			"0.0": 0.0,
			"0.0": 0.0,
			"0.0": 0.0,
			"0.0": 0.0,
			"0.0": 0.0,
			"0.0": 0.0,
			"0.0": 0.0,
			"0.0": 0.0,
			"0.0": 0.0,
			"0.0": 0.0,
			"0.0": 0.0,
			"0.0": 0.0,
			"0.0": 0.0,
			"0.0": 0.0,
			"0.0": 0.0,
			"0.0": 0.0,
			"0.0": 0.0,
			"0.0": 0.0,
			"0.0": 0.0
		}
	}
}
