{
	 "smiles": "COC(=O)C(=O)CC(=O)C1=C(Br)C=CC=C1", 
	 "Tm": 335.15, 
	 "num_atms": 25, 
	 "gaussian": { 
		 "optdone": 1, 
		 "sigma_profile": "yes", 
		 "theory": "DFT", 
		 "functional": "B3LYP", 
		 "basiset": "6-31G**", 
		 "properties": { 
			 "R2extent": 5615.1202, 
			 "electric_dipole_moment_norm": 3.68985898376, 
			 "electric_quadrupole_moment_norm": 15.45994427, 
			 "total_energy": -3296.87373784, 
			 "HOMO_LUMO_gap": 0.1811, 
			 "cosmo_polarized_energy": -13.25, 
			 "cosmo_cavitation_energy": 33.04, 
			 "cosmo_dispersion_energy": -23.34, 
			 "cosmo_repulsion_energy": 1.84, 
			 "cosmo_total_nonelectrostatic_energy": 11.53, 
			 "SMD_solvation_energy": 7.34 
		},
		"coords": [
			{
				"x": -3.4884543676,
				"y": 3.408356543,
				"z": 0.7720853346,
				"element": "C" 
			},
			{
				"x": -3.1748644706,
				"y": 2.0175866087,
				"z": 0.9723906975,
				"element": "O" 
			},
			{
				"x": -2.066849257,
				"y": 1.5908030276,
				"z": 0.3683510668,
				"element": "C" 
			},
			{
				"x": -1.3371449066,
				"y": 2.2663386198,
				"z": -0.3287378289,
				"element": "O" 
			},
			{
				"x": -1.8066745947,
				"y": 0.0904151571,
				"z": 0.6247152939,
				"element": "C" 
			},
			{
				"x": -2.6405933544,
				"y": -0.6190040957,
				"z": 1.1339611182,
				"element": "O" 
			},
			{
				"x": -0.460529177,
				"y": -0.4033125168,
				"z": 0.1125324083,
				"element": "C" 
			},
			{
				"x": 0.6610202896,
				"y": 0.3601908251,
				"z": 0.8094982433,
				"element": "C" 
			},
			{
				"x": 0.4412504378,
				"y": 0.8321911571,
				"z": 1.9151908121,
				"element": "O" 
			},
			{
				"x": 1.9893609805,
				"y": 0.6151176826,
				"z": 0.1487663004,
				"element": "C" 
			},
			{
				"x": 2.6568486153,
				"y": -0.1867337883,
				"z": -0.7921844636,
				"element": "C" 
			},
			{
				"x": 2.0045391637,
				"y": -1.8981029237,
				"z": -1.3651694416,
				"element": "Br" 
			},
			{
				"x": 3.8876371245,
				"y": 0.1970316671,
				"z": -1.3273851549,
				"element": "C" 
			},
			{
				"x": 4.4735785757,
				"y": 1.3987500383,
				"z": -0.9359659927,
				"element": "C" 
			},
			{
				"x": 3.8394762607,
				"y": 2.2084909827,
				"z": 0.0078020792,
				"element": "C" 
			},
			{
				"x": 2.6216128504,
				"y": 1.8102447449,
				"z": 0.5435257867,
				"element": "C" 
			},
			{
				"x": -2.6747780543,
				"y": 4.037675326,
				"z": 1.1406230335,
				"element": "H" 
			},
			{
				"x": -4.4014454937,
				"y": 3.5862959242,
				"z": 1.3385258673,
				"element": "H" 
			},
			{
				"x": -3.6451091048,
				"y": 3.6141782025,
				"z": -0.289608312,
				"element": "H" 
			},
			{
				"x": -0.3876588885,
				"y": -1.4690499627,
				"z": 0.3422716224,
				"element": "H" 
			},
			{
				"x": -0.4067459542,
				"y": -0.2852434544,
				"z": -0.9737108707,
				"element": "H" 
			},
			{
				"x": 4.3824850386,
				"y": -0.4509590086,
				"z": -2.0413362643,
				"element": "H" 
			},
			{
				"x": 5.4267033811,
				"y": 1.6926310105,
				"z": -1.3653830694,
				"element": "H" 
			},
			{
				"x": 4.2920151921,
				"y": 3.1430606182,
				"z": 0.3237511061,
				"element": "H" 
			},
			{
				"x": 2.1130197134,
				"y": 2.4170476146,
				"z": 1.2841906281,
				"element": "H" 
			}
		],
		 "valence_orbital": [ 
			{
				"type": "occ",
				"energy": -0.30062,
				"method": "rhf"
			},
			{
				"type": "occ",
				"energy": -0.2782,
				"method": "rhf"
			},
			{
				"type": "occ",
				"energy": -0.2673,
				"method": "rhf"
			},
			{
				"type": "occ",
				"energy": -0.25781,
				"method": "rhf"
			},
			{
				"type": "occ",
				"energy": -0.25362,
				"method": "rhf"
			},
			{
				"type": "unocc",
				"energy": -0.07252,
				"method": "rhf"
			},
			{
				"type": "unocc",
				"energy": -0.06805,
				"method": "rhf"
			},
			{
				"type": "unocc",
				"energy": -0.02547,
				"method": "rhf"
			},
			{
				"type": "unocc",
				"energy": -0.0091,
				"method": "rhf"
			},
			{
				"type": "unocc",
				"energy": 0.01499,
				"method": "rhf"
			}
		],
		"cosmo_sigma_profile": { 
			"-0.025": 0.0,
			"-0.024": 0.0,
			"-0.023": 0.0,
			"-0.022": 0.0,
			"-0.021": 0.0,
			"-0.02": 0.0,
			"-0.019": 0.0,
			"-0.018": 0.0,
			"-0.017": 0.0,
			"-0.016": 0.0,
			"-0.015": 0.0,
			"-0.014": 0.0,
			"-0.013": 0.0,
			"-0.012": 0.0,
			"-0.011": 0.0,
			"-0.01": 0.050810231073,
			"-0.009": 1.01730388857,
			"-0.008": 4.06736951941,
			"-0.007": 14.375178724,
			"-0.006": 19.6864854326,
			"-0.005": 23.2426638457,
			"-0.004": 21.1017117609,
			"-0.003": 15.1609407703,
			"-0.002": 14.9992570187,
			"-0.001": 14.9793631651,
			"0.0": 17.4127618084,
			"0.001": 19.9721918089,
			"0.002": 25.0210836441,
			"0.003": 19.3385003764,
			"0.004": 10.1393715411,
			"0.005": 6.26968892957,
			"0.006": 5.30675320777,
			"0.007": 5.13902713082,
			"0.008": 6.42138338553,
			"0.009": 8.46382667107,
			"0.01": 10.1244025412,
			"0.011": 4.83019676021,
			"0.012": 0.336312413612,
			"0.013": 0.0,
			"0.014": 0.0,
			"0.015": 0.0,
			"0.016": 0.0,
			"0.017": 0.0,
			"0.018": 0.0,
			"0.019": 0.0,
			"0.02": 0.0,
			"0.021": 0.0,
			"0.022": 0.0,
			"0.023": 0.0,
			"0.024": 0.0,
			"0.025": 0.0
		}
	}
}
