{
	 "smiles": "ON=CC(=O)NC1=C(Cl)C=C(Cl)C=C1", 
	 "Tm": 473.15, 
	 "num_atms": 20, 
	 "gaussian": { 
		 "optdone": 1, 
		 "sigma_profile": "yes", 
		 "theory": "DFT", 
		 "functional": "B3LYP", 
		 "basiset": "6-31G**", 
		 "properties": { 
			 "R2extent": 4830.5609, 
			 "electric_dipole_moment_norm": 3.82517964153, 
			 "electric_quadrupole_moment_norm": 15.1814483591, 
			 "total_energy": -1488.7452839, 
			 "HOMO_LUMO_gap": 0.17613, 
			 "cosmo_polarized_energy": -12.72, 
			 "cosmo_cavitation_energy": 28.83, 
			 "cosmo_dispersion_energy": -21.4, 
			 "cosmo_repulsion_energy": 1.69, 
			 "cosmo_total_nonelectrostatic_energy": 9.13, 
			 "SMD_solvation_energy": 5.23 
		},
		"coords": [
			{
				"x": -3.9778320669,
				"y": 1.3475017037,
				"z": 2.823540604,
				"element": "O" 
			},
			{
				"x": -3.1753794176,
				"y": 1.6768543573,
				"z": 1.7944381009,
				"element": "N" 
			},
			{
				"x": -2.155514844,
				"y": 0.918851872,
				"z": 1.5270523919,
				"element": "C" 
			},
			{
				"x": -1.7870943582,
				"y": -0.2870987848,
				"z": 2.2892186748,
				"element": "C" 
			},
			{
				"x": -2.4122066431,
				"y": -0.6227030371,
				"z": 3.310875415,
				"element": "O" 
			},
			{
				"x": -0.7027823746,
				"y": -1.0374031837,
				"z": 1.8987600505,
				"element": "N" 
			},
			{
				"x": 0.0772565177,
				"y": -0.9718917646,
				"z": 0.728583432,
				"element": "C" 
			},
			{
				"x": 1.4721376648,
				"y": -1.1428259584,
				"z": 0.8001364775,
				"element": "C" 
			},
			{
				"x": 2.2391043874,
				"y": -1.4020002912,
				"z": 2.3546711178,
				"element": "Cl" 
			},
			{
				"x": 2.2681125191,
				"y": -1.1206417665,
				"z": -0.3424732418,
				"element": "C" 
			},
			{
				"x": 1.6657712705,
				"y": -0.9129399331,
				"z": -1.5818983306,
				"element": "C" 
			},
			{
				"x": 2.6624045809,
				"y": -0.8674342445,
				"z": -3.0206437109,
				"element": "Cl" 
			},
			{
				"x": 0.2845408491,
				"y": -0.7539785838,
				"z": -1.6890707366,
				"element": "C" 
			},
			{
				"x": -0.4984862731,
				"y": -0.8045260708,
				"z": -0.5398546405,
				"element": "C" 
			},
			{
				"x": -3.592063482,
				"y": 0.5372219913,
				"z": 3.2619450806,
				"element": "H" 
			},
			{
				"x": -1.5451199091,
				"y": 1.2615381706,
				"z": 0.7001960374,
				"element": "H" 
			},
			{
				"x": -0.4295848626,
				"y": -1.7156880564,
				"z": 2.6017330237,
				"element": "H" 
			},
			{
				"x": 3.3397828241,
				"y": -1.2536940051,
				"z": -0.2610133967,
				"element": "H" 
			},
			{
				"x": -0.1758894822,
				"y": -0.6169025617,
				"z": -2.6605329163,
				"element": "H" 
			},
			{
				"x": -1.5769569003,
				"y": -0.7293398531,
				"z": -0.6234634327,
				"element": "H" 
			}
		],
		 "valence_orbital": [ 
			{
				"type": "occ",
				"energy": -0.31667,
				"method": "rhf"
			},
			{
				"type": "occ",
				"energy": -0.28547,
				"method": "rhf"
			},
			{
				"type": "occ",
				"energy": -0.27749,
				"method": "rhf"
			},
			{
				"type": "occ",
				"energy": -0.26765,
				"method": "rhf"
			},
			{
				"type": "occ",
				"energy": -0.25274,
				"method": "rhf"
			},
			{
				"type": "unocc",
				"energy": -0.07661,
				"method": "rhf"
			},
			{
				"type": "unocc",
				"energy": -0.04816,
				"method": "rhf"
			},
			{
				"type": "unocc",
				"energy": -0.03927,
				"method": "rhf"
			},
			{
				"type": "unocc",
				"energy": -0.01257,
				"method": "rhf"
			},
			{
				"type": "unocc",
				"energy": 0.03068,
				"method": "rhf"
			}
		],
		"cosmo_sigma_profile": { 
			"-0.025": 0.0,
			"-0.024": 0.0,
			"-0.023": 0.0,
			"-0.022": 0.0,
			"-0.021": 0.0,
			"-0.02": 0.0,
			"-0.019": 0.0,
			"-0.018": 0.0,
			"-0.017": 0.0,
			"-0.016": 0.0,
			"-0.015": 0.163799200761,
			"-0.014": 0.648409296339,
			"-0.013": 0.956376296217,
			"-0.012": 0.840095254058,
			"-0.011": 0.74766012843,
			"-0.01": 1.15479255947,
			"-0.009": 3.67967887737,
			"-0.008": 9.44309865886,
			"-0.007": 9.36003573209,
			"-0.006": 9.51280057495,
			"-0.005": 9.1942375592,
			"-0.004": 11.1184498564,
			"-0.003": 15.2823006521,
			"-0.002": 15.2541710548,
			"-0.001": 19.193182204,
			"0.0": 24.9004851225,
			"0.001": 23.5909069299,
			"0.002": 14.3487652212,
			"0.003": 17.0389908384,
			"0.004": 15.5908316742,
			"0.005": 4.93859856791,
			"0.006": 3.10562491003,
			"0.007": 2.94211230123,
			"0.008": 4.42513798518,
			"0.009": 5.5970716446,
			"0.01": 5.63638631945,
			"0.011": 5.26577126326,
			"0.012": 2.05785954257,
			"0.013": 0.743090528989,
			"0.014": 0.0520490895342,
			"0.015": 0.0,
			"0.016": 0.0,
			"0.017": 0.0,
			"0.018": 0.0,
			"0.019": 0.0,
			"0.02": 0.0,
			"0.021": 0.0,
			"0.022": 0.0,
			"0.023": 0.0,
			"0.024": 0.0,
			"0.025": 0.0
		}
	}
}
