{
	 "smiles": "OC1=C2N=CC=CC2=C(C=C1)N=O", 
	 "Tm": 518.15, 
	 "num_atms": 19, 
	 "gaussian": { 
		 "optdone": 1, 
		 "sigma_profile": "yes", 
		 "theory": "DFT", 
		 "functional": "B3LYP", 
		 "basiset": "6-31G**", 
		 "properties": { 
			 "R2extent": 2759.0743, 
			 "electric_dipole_moment_norm": 3.5032481799, 
			 "electric_quadrupole_moment_norm": 11.1665914401, 
			 "total_energy": -606.452317319, 
			 "HOMO_LUMO_gap": 0.11176, 
			 "cosmo_polarized_energy": -9.34, 
			 "cosmo_cavitation_energy": 23.86, 
			 "cosmo_dispersion_energy": -18.08, 
			 "cosmo_repulsion_energy": 1.4, 
			 "cosmo_total_nonelectrostatic_energy": 7.18, 
			 "SMD_solvation_energy": 3.88 
		},
		"coords": [
			{
				"x": 2.9783091891,
				"y": 2.4104172185,
				"z": -0.7834295458,
				"element": "O" 
			},
			{
				"x": 1.9748096348,
				"y": 1.5304665647,
				"z": -0.861957149,
				"element": "C" 
			},
			{
				"x": 2.1526010439,
				"y": 0.2461166279,
				"z": -0.2489534368,
				"element": "C" 
			},
			{
				"x": 3.3483737148,
				"y": 0.0444450744,
				"z": 0.3640673224,
				"element": "N" 
			},
			{
				"x": 3.5509253086,
				"y": -1.1258484164,
				"z": 0.9404671799,
				"element": "C" 
			},
			{
				"x": 2.5855360645,
				"y": -2.1618774194,
				"z": 0.9445189145,
				"element": "C" 
			},
			{
				"x": 1.370908651,
				"y": -1.9637700353,
				"z": 0.3246340185,
				"element": "C" 
			},
			{
				"x": 1.1150002541,
				"y": -0.7196119707,
				"z": -0.3063985017,
				"element": "C" 
			},
			{
				"x": -0.0957992453,
				"y": -0.3755370135,
				"z": -0.9859357364,
				"element": "C" 
			},
			{
				"x": -0.2337113289,
				"y": 0.8820529763,
				"z": -1.5701306111,
				"element": "C" 
			},
			{
				"x": 0.7858759611,
				"y": 1.837306508,
				"z": -1.5160157174,
				"element": "C" 
			},
			{
				"x": -1.1078067041,
				"y": -1.3695800838,
				"z": -1.0202609031,
				"element": "N" 
			},
			{
				"x": -2.1408746696,
				"y": -1.0583445137,
				"z": -1.6097989141,
				"element": "O" 
			},
			{
				"x": 3.6845805002,
				"y": 1.9513904112,
				"z": -0.279614863,
				"element": "H" 
			},
			{
				"x": 4.5131171698,
				"y": -1.2723517346,
				"z": 1.4270556766,
				"element": "H" 
			},
			{
				"x": 2.8131711265,
				"y": -3.1019366593,
				"z": 1.4365825632,
				"element": "H" 
			},
			{
				"x": 0.6060872557,
				"y": -2.7315431989,
				"z": 0.3059316479,
				"element": "H" 
			},
			{
				"x": -1.1711811002,
				"y": 1.0948507407,
				"z": -2.0740467428,
				"element": "H" 
			},
			{
				"x": 0.6694771742,
				"y": 2.8138549241,
				"z": -1.9731152018,
				"element": "H" 
			}
		],
		 "valence_orbital": [ 
			{
				"type": "occ",
				"energy": -0.31055,
				"method": "rhf"
			},
			{
				"type": "occ",
				"energy": -0.29519,
				"method": "rhf"
			},
			{
				"type": "occ",
				"energy": -0.27659,
				"method": "rhf"
			},
			{
				"type": "occ",
				"energy": -0.23428,
				"method": "rhf"
			},
			{
				"type": "occ",
				"energy": -0.2106,
				"method": "rhf"
			},
			{
				"type": "unocc",
				"energy": -0.09884,
				"method": "rhf"
			},
			{
				"type": "unocc",
				"energy": -0.05726,
				"method": "rhf"
			},
			{
				"type": "unocc",
				"energy": -0.03595,
				"method": "rhf"
			},
			{
				"type": "unocc",
				"energy": 0.03572,
				"method": "rhf"
			},
			{
				"type": "unocc",
				"energy": 0.07567,
				"method": "rhf"
			}
		],
		"cosmo_sigma_profile": { 
			"-0.025": 0.0,
			"-0.024": 0.0,
			"-0.023": 0.0,
			"-0.022": 0.0,
			"-0.021": 0.0,
			"-0.02": 0.0,
			"-0.019": 0.0,
			"-0.018": 0.0,
			"-0.017": 0.0,
			"-0.016": 0.0,
			"-0.015": 0.0,
			"-0.014": 0.0,
			"-0.013": 0.425908867593,
			"-0.012": 0.491533774391,
			"-0.011": 1.07653291495,
			"-0.01": 0.447174908394,
			"-0.009": 0.253399847486,
			"-0.008": 4.27048680044,
			"-0.007": 10.2694573133,
			"-0.006": 11.2753821551,
			"-0.005": 9.43689366791,
			"-0.004": 8.27318889248,
			"-0.003": 7.94447101193,
			"-0.002": 11.6338496235,
			"-0.001": 23.4347282867,
			"0.0": 29.3310931932,
			"0.001": 19.8135891973,
			"0.002": 8.02824288469,
			"0.003": 5.7960844877,
			"0.004": 5.02018311647,
			"0.005": 5.52470461697,
			"0.006": 5.30415374783,
			"0.007": 5.26873034218,
			"0.008": 5.18015470237,
			"0.009": 6.61660821979,
			"0.01": 4.20028657057,
			"0.011": 2.41973687392,
			"0.012": 1.09197091087,
			"0.013": 0.114306064885,
			"0.014": 0.0,
			"0.015": 0.0,
			"0.016": 0.0,
			"0.017": 0.0,
			"0.018": 0.0,
			"0.019": 0.0,
			"0.02": 0.0,
			"0.021": 0.0,
			"0.022": 0.0,
			"0.023": 0.0,
			"0.024": 0.0,
			"0.025": 0.0
		}
	}
}
