{
	 "smiles": "O=C1C2C=CC=CC2CC2=CC=CC=C12", 
	 "Tm": 425.15, 
	 "num_atms": 27, 
	 "gaussian": { 
		 "optdone": 1, 
		 "sigma_profile": "yes", 
		 "theory": "DFT", 
		 "functional": "B3LYP", 
		 "basiset": "6-31G**", 
		 "properties": { 
			 "R2extent": 3774.0077, 
			 "electric_dipole_moment_norm": 3.12277459641, 
			 "electric_quadrupole_moment_norm": 10.3751812871, 
			 "total_energy": -615.923356593, 
			 "HOMO_LUMO_gap": 0.16078, 
			 "cosmo_polarized_energy": -8.48, 
			 "cosmo_cavitation_energy": 29.23, 
			 "cosmo_dispersion_energy": -21.64, 
			 "cosmo_repulsion_energy": 1.64, 
			 "cosmo_total_nonelectrostatic_energy": 9.23, 
			 "SMD_solvation_energy": 4.91 
		},
		"coords": [
			{
				"x": 1.4330050416,
				"y": -1.4983076042,
				"z": -2.8562351372,
				"element": "O" 
			},
			{
				"x": 0.6957954155,
				"y": -1.1775004956,
				"z": -1.9356349577,
				"element": "C" 
			},
			{
				"x": -0.7403684983,
				"y": -1.6907986265,
				"z": -1.8430104522,
				"element": "C" 
			},
			{
				"x": -1.2961806898,
				"y": -2.1833806141,
				"z": -3.1556881949,
				"element": "C" 
			},
			{
				"x": -2.6261965686,
				"y": -2.2913723494,
				"z": -3.3092380029,
				"element": "C" 
			},
			{
				"x": -3.5379190076,
				"y": -1.8942999405,
				"z": -2.2307810621,
				"element": "C" 
			},
			{
				"x": -3.1007514436,
				"y": -1.1430300342,
				"z": -1.205809149,
				"element": "C" 
			},
			{
				"x": -1.6674510358,
				"y": -0.6595564597,
				"z": -1.1713797498,
				"element": "C" 
			},
			{
				"x": -1.147715406,
				"y": -0.3469494975,
				"z": 0.236305684,
				"element": "C" 
			},
			{
				"x": 0.2992028623,
				"y": 0.0988123593,
				"z": 0.2181798156,
				"element": "C" 
			},
			{
				"x": 0.808063814,
				"y": 0.9155912841,
				"z": 1.2355928457,
				"element": "C" 
			},
			{
				"x": 2.1402065545,
				"y": 1.324956266,
				"z": 1.2283900958,
				"element": "C" 
			},
			{
				"x": 2.99504688,
				"y": 0.9274404185,
				"z": 0.1938986016,
				"element": "C" 
			},
			{
				"x": 2.5051169171,
				"y": 0.1208313717,
				"z": -0.8250718811,
				"element": "C" 
			},
			{
				"x": 1.1655572864,
				"y": -0.3011199669,
				"z": -0.8205105364,
				"element": "C" 
			},
			{
				"x": -0.6794605142,
				"y": -2.5615684324,
				"z": -1.1573528606,
				"element": "H" 
			},
			{
				"x": -0.5895153128,
				"y": -2.4807135804,
				"z": -3.9231918206,
				"element": "H" 
			},
			{
				"x": -3.0474790643,
				"y": -2.6877362793,
				"z": -4.2294475641,
				"element": "H" 
			},
			{
				"x": -4.5804741944,
				"y": -2.1965245667,
				"z": -2.2896214377,
				"element": "H" 
			},
			{
				"x": -3.7788597266,
				"y": -0.8100057376,
				"z": -0.422792572,
				"element": "H" 
			},
			{
				"x": -1.6163345853,
				"y": 0.2741932329,
				"z": -1.7610823596,
				"element": "H" 
			},
			{
				"x": -1.7667884319,
				"y": 0.4216605645,
				"z": 0.7141726113,
				"element": "H" 
			},
			{
				"x": -1.2463669315,
				"y": -1.2498451887,
				"z": 0.8585965317,
				"element": "H" 
			},
			{
				"x": 0.1484108156,
				"y": 1.2380666013,
				"z": 2.0374514207,
				"element": "H" 
			},
			{
				"x": 2.5121981253,
				"y": 1.9610223624,
				"z": 2.0268793456,
				"element": "H" 
			},
			{
				"x": 4.0321620559,
				"y": 1.2492573918,
				"z": 0.1875500365,
				"element": "H" 
			},
			{
				"x": 3.1365956423,
				"y": -0.2063224787,
				"z": -1.6446692506,
				"element": "H" 
			}
		],
		 "valence_orbital": [ 
			{
				"type": "occ",
				"energy": -0.30748,
				"method": "rhf"
			},
			{
				"type": "occ",
				"energy": -0.2581,
				"method": "rhf"
			},
			{
				"type": "occ",
				"energy": -0.25295,
				"method": "rhf"
			},
			{
				"type": "occ",
				"energy": -0.24493,
				"method": "rhf"
			},
			{
				"type": "occ",
				"energy": -0.21581,
				"method": "rhf"
			},
			{
				"type": "unocc",
				"energy": -0.05503,
				"method": "rhf"
			},
			{
				"type": "unocc",
				"energy": -0.02731,
				"method": "rhf"
			},
			{
				"type": "unocc",
				"energy": -0.00928,
				"method": "rhf"
			},
			{
				"type": "unocc",
				"energy": 0.03884,
				"method": "rhf"
			},
			{
				"type": "unocc",
				"energy": 0.07714,
				"method": "rhf"
			}
		],
		"cosmo_sigma_profile": { 
			"-0.025": 0.0,
			"-0.024": 0.0,
			"-0.023": 0.0,
			"-0.022": 0.0,
			"-0.021": 0.0,
			"-0.02": 0.0,
			"-0.019": 0.0,
			"-0.018": 0.0,
			"-0.017": 0.0,
			"-0.016": 0.0,
			"-0.015": 0.0,
			"-0.014": 0.0,
			"-0.013": 0.0,
			"-0.012": 0.0,
			"-0.011": 0.0,
			"-0.01": 0.0,
			"-0.009": 0.0,
			"-0.008": 0.0,
			"-0.007": 0.651941438627,
			"-0.006": 10.0132307201,
			"-0.005": 21.9093623704,
			"-0.004": 26.3955998532,
			"-0.003": 24.5820062685,
			"-0.002": 20.5250277905,
			"-0.001": 16.3136606908,
			"0.0": 13.9861698882,
			"0.001": 13.2093228436,
			"0.002": 17.423239769,
			"0.003": 17.3149336408,
			"0.004": 18.3457639746,
			"0.005": 11.7535254473,
			"0.006": 5.91071433843,
			"0.007": 1.51283498601,
			"0.008": 1.52150581389,
			"0.009": 2.30464343575,
			"0.01": 1.89295510036,
			"0.011": 2.84443015776,
			"0.012": 3.87000729318,
			"0.013": 0.245781593987,
			"0.014": 0.0,
			"0.015": 0.0,
			"0.016": 0.0,
			"0.017": 0.0,
			"0.018": 0.0,
			"0.019": 0.0,
			"0.02": 0.0,
			"0.021": 0.0,
			"0.022": 0.0,
			"0.023": 0.0,
			"0.024": 0.0,
			"0.025": 0.0
		}
	}
}
