{
	 "smiles": "ClC(=O)C1=C(SC2=CC=CC=C2)N=CC=C1", 
	 "Tm": 345.65, 
	 "num_atms": 24, 
	 "gaussian": { 
		 "optdone": 1, 
		 "sigma_profile": "yes", 
		 "theory": "DFT", 
		 "functional": "B3LYP", 
		 "basiset": "6-31G**", 
		 "properties": { 
			 "R2extent": 5534.7001, 
			 "electric_dipole_moment_norm": 4.30608147624, 
			 "electric_quadrupole_moment_norm": 16.1011835599, 
			 "total_energy": -1450.4405238, 
			 "HOMO_LUMO_gap": 0.15692, 
			 "cosmo_polarized_energy": -9.8, 
			 "cosmo_cavitation_energy": 32.54, 
			 "cosmo_dispersion_energy": -23.66, 
			 "cosmo_repulsion_energy": 1.82, 
			 "cosmo_total_nonelectrostatic_energy": 10.71, 
			 "SMD_solvation_energy": 5.13 
		},
		"coords": [
			{
				"x": -1.5096923358,
				"y": 0.8721872423,
				"z": 4.3710025667,
				"element": "Cl" 
			},
			{
				"x": -2.4533080466,
				"y": -0.1797379974,
				"z": 3.236547075,
				"element": "C" 
			},
			{
				"x": -3.5870851834,
				"y": -0.4464471478,
				"z": 3.5103082097,
				"element": "O" 
			},
			{
				"x": -1.714762383,
				"y": -0.735258884,
				"z": 2.072148257,
				"element": "C" 
			},
			{
				"x": -0.6489198074,
				"y": -0.1549820097,
				"z": 1.3283174131,
				"element": "C" 
			},
			{
				"x": -0.0188272053,
				"y": 1.4917518817,
				"z": 1.6632770282,
				"element": "S" 
			},
			{
				"x": 1.0257633115,
				"y": 1.7839710695,
				"z": 0.2327473489,
				"element": "C" 
			},
			{
				"x": 0.4858826689,
				"y": 2.3701140254,
				"z": -0.9176804585,
				"element": "C" 
			},
			{
				"x": 1.3178682368,
				"y": 2.6787561769,
				"z": -1.994290523,
				"element": "C" 
			},
			{
				"x": 2.6864605182,
				"y": 2.410735877,
				"z": -1.9216103704,
				"element": "C" 
			},
			{
				"x": 3.2249654427,
				"y": 1.8335092996,
				"z": -0.7698327723,
				"element": "C" 
			},
			{
				"x": 2.3975997478,
				"y": 1.5205793535,
				"z": 0.3091749878,
				"element": "C" 
			},
			{
				"x": -0.0934570471,
				"y": -0.7955663343,
				"z": 0.2963547847,
				"element": "N" 
			},
			{
				"x": -0.5443737165,
				"y": -1.9991897818,
				"z": -0.0588137288,
				"element": "C" 
			},
			{
				"x": -1.6062490404,
				"y": -2.6414420201,
				"z": 0.5761221428,
				"element": "C" 
			},
			{
				"x": -2.1951815466,
				"y": -1.9859162219,
				"z": 1.6473294592,
				"element": "C" 
			},
			{
				"x": -0.5772651424,
				"y": 2.5826982591,
				"z": -0.9650385013,
				"element": "H" 
			},
			{
				"x": 0.8974606426,
				"y": 3.1326493714,
				"z": -2.8870396669,
				"element": "H" 
			},
			{
				"x": 3.3330172742,
				"y": 2.6563770056,
				"z": -2.7591627382,
				"element": "H" 
			},
			{
				"x": 4.2897106696,
				"y": 1.6276094937,
				"z": -0.7095484367,
				"element": "H" 
			},
			{
				"x": 2.8090515367,
				"y": 1.0730490568,
				"z": 1.207894095,
				"element": "H" 
			},
			{
				"x": -0.0293849362,
				"y": -2.4678324075,
				"z": -0.8957113214,
				"element": "H" 
			},
			{
				"x": -1.9537140314,
				"y": -3.6137700366,
				"z": 0.2451838009,
				"element": "H" 
			},
			{
				"x": -3.0292596268,
				"y": -2.4233452712,
				"z": 2.1852213484,
				"element": "H" 
			}
		],
		 "valence_orbital": [ 
			{
				"type": "occ",
				"energy": -0.29317,
				"method": "rhf"
			},
			{
				"type": "occ",
				"energy": -0.27137,
				"method": "rhf"
			},
			{
				"type": "occ",
				"energy": -0.25914,
				"method": "rhf"
			},
			{
				"type": "occ",
				"energy": -0.25629,
				"method": "rhf"
			},
			{
				"type": "occ",
				"energy": -0.23687,
				"method": "rhf"
			},
			{
				"type": "unocc",
				"energy": -0.07995,
				"method": "rhf"
			},
			{
				"type": "unocc",
				"energy": -0.0385,
				"method": "rhf"
			},
			{
				"type": "unocc",
				"energy": -0.02555,
				"method": "rhf"
			},
			{
				"type": "unocc",
				"energy": -0.00958,
				"method": "rhf"
			},
			{
				"type": "unocc",
				"energy": 0.00106,
				"method": "rhf"
			}
		],
		"cosmo_sigma_profile": { 
			"-0.025": 0.0,
			"-0.024": 0.0,
			"-0.023": 0.0,
			"-0.022": 0.0,
			"-0.021": 0.0,
			"-0.02": 0.0,
			"-0.019": 0.0,
			"-0.018": 0.0,
			"-0.017": 0.0,
			"-0.016": 0.0,
			"-0.015": 0.0,
			"-0.014": 0.0,
			"-0.013": 0.0,
			"-0.012": 0.0,
			"-0.011": 0.0,
			"-0.01": 0.0,
			"-0.009": 0.183759512252,
			"-0.008": 4.93668988147,
			"-0.007": 9.05131427527,
			"-0.006": 17.2954987425,
			"-0.005": 16.6326816613,
			"-0.004": 18.8130268732,
			"-0.003": 13.0756635821,
			"-0.002": 18.1653913451,
			"-0.001": 23.9561787539,
			"0.0": 24.542873654,
			"0.001": 21.5300084711,
			"0.002": 17.2201052635,
			"0.003": 20.6404090115,
			"0.004": 22.7273399603,
			"0.005": 11.556017355,
			"0.006": 7.44040481141,
			"0.007": 5.91973993833,
			"0.008": 5.54459497948,
			"0.009": 3.454041231,
			"0.01": 1.5523584286,
			"0.011": 0.903093063685,
			"0.012": 1.11460953921,
			"0.013": 0.141077409829,
			"0.014": 0.0,
			"0.015": 0.0,
			"0.016": 0.0,
			"0.017": 0.0,
			"0.018": 0.0,
			"0.019": 0.0,
			"0.02": 0.0,
			"0.021": 0.0,
			"0.022": 0.0,
			"0.023": 0.0,
			"0.024": 0.0,
			"0.025": 0.0
		}
	}
}
