{
	 "smiles": "OC(=O)C1=C(C=CC(F)=C1)C(F)(F)F", 
	 "Tm": 355.15, 
	 "num_atms": 18, 
	 "gaussian": { 
		 "optdone": 1, 
		 "sigma_profile": "yes", 
		 "theory": "DFT", 
		 "functional": "B3LYP", 
		 "basiset": "6-31G**", 
		 "properties": { 
			 "R2extent": 2935.9291, 
			 "electric_dipole_moment_norm": 4.95561361892, 
			 "electric_quadrupole_moment_norm": 10.1324713096, 
			 "total_energy": -857.068842956, 
			 "HOMO_LUMO_gap": 0.21229, 
			 "cosmo_polarized_energy": -14.58, 
			 "cosmo_cavitation_energy": 24.86, 
			 "cosmo_dispersion_energy": -17.55, 
			 "cosmo_repulsion_energy": 1.3, 
			 "cosmo_total_nonelectrostatic_energy": 8.61, 
			 "SMD_solvation_energy": 6.87 
		},
		"coords": [
			{
				"x": 1.3800192055,
				"y": 1.9659014543,
				"z": -1.0111266389,
				"element": "O" 
			},
			{
				"x": 1.0625362632,
				"y": 1.6973440281,
				"z": 0.2825050793,
				"element": "C" 
			},
			{
				"x": 1.6028764042,
				"y": 2.2800342217,
				"z": 1.1853329006,
				"element": "O" 
			},
			{
				"x": -0.045834568,
				"y": 0.688388374,
				"z": 0.4707003209,
				"element": "C" 
			},
			{
				"x": 0.0331841005,
				"y": -0.3621382623,
				"z": 1.4055003965,
				"element": "C" 
			},
			{
				"x": -1.059678488,
				"y": -1.2155643351,
				"z": 1.5743697897,
				"element": "C" 
			},
			{
				"x": -2.2343626054,
				"y": -1.0389131866,
				"z": 0.8448900047,
				"element": "C" 
			},
			{
				"x": -2.2921373023,
				"y": 0.0012926366,
				"z": -0.0717676942,
				"element": "C" 
			},
			{
				"x": -3.4140141237,
				"y": 0.1891310052,
				"z": -0.7860816409,
				"element": "F" 
			},
			{
				"x": -1.2164144527,
				"y": 0.8579450659,
				"z": -0.2779607969,
				"element": "C" 
			},
			{
				"x": 1.2833200625,
				"y": -0.6119572669,
				"z": 2.2232446151,
				"element": "C" 
			},
			{
				"x": 2.396459044,
				"y": -0.5181737316,
				"z": 1.4647095017,
				"element": "F" 
			},
			{
				"x": 1.2701673919,
				"y": -1.8590986792,
				"z": 2.7523704374,
				"element": "F" 
			},
			{
				"x": 1.4054930187,
				"y": 0.2474969148,
				"z": 3.2473068589,
				"element": "F" 
			},
			{
				"x": 0.9495065607,
				"y": 1.3281588727,
				"z": -1.5985841058,
				"element": "H" 
			},
			{
				"x": -0.9853854632,
				"y": -2.0344539894,
				"z": 2.2796132959,
				"element": "H" 
			},
			{
				"x": -3.0888740126,
				"y": -1.6932360535,
				"z": 0.975036094,
				"element": "H" 
			},
			{
				"x": -1.3165610352,
				"y": 1.6697429313,
				"z": -0.990858418,
				"element": "H" 
			}
		],
		 "valence_orbital": [ 
			{
				"type": "occ",
				"energy": -0.38013,
				"method": "rhf"
			},
			{
				"type": "occ",
				"energy": -0.32995,
				"method": "rhf"
			},
			{
				"type": "occ",
				"energy": -0.30019,
				"method": "rhf"
			},
			{
				"type": "occ",
				"energy": -0.28784,
				"method": "rhf"
			},
			{
				"type": "occ",
				"energy": -0.27746,
				"method": "rhf"
			},
			{
				"type": "unocc",
				"energy": -0.06517,
				"method": "rhf"
			},
			{
				"type": "unocc",
				"energy": -0.04521,
				"method": "rhf"
			},
			{
				"type": "unocc",
				"energy": 0.01582,
				"method": "rhf"
			},
			{
				"type": "unocc",
				"energy": 0.05783,
				"method": "rhf"
			},
			{
				"type": "unocc",
				"energy": 0.07646,
				"method": "rhf"
			}
		],
		"cosmo_sigma_profile": { 
			"-0.025": 0.0,
			"-0.024": 0.0,
			"-0.023": 0.0,
			"-0.022": 0.0,
			"-0.021": 0.0,
			"-0.02": 0.0207007043878,
			"-0.019": 0.673761104603,
			"-0.018": 1.02889341053,
			"-0.017": 0.952285282021,
			"-0.016": 0.441683081581,
			"-0.015": 0.964803314986,
			"-0.014": 1.03881068564,
			"-0.013": 1.48952323945,
			"-0.012": 1.79021404892,
			"-0.011": 0.639659414044,
			"-0.01": 1.6985106046,
			"-0.009": 3.5477752625,
			"-0.008": 6.70573407542,
			"-0.007": 5.55576475833,
			"-0.006": 5.89369188461,
			"-0.005": 6.07199045492,
			"-0.004": 6.08402106871,
			"-0.003": 8.54719262019,
			"-0.002": 11.8274935808,
			"-0.001": 17.5429295841,
			"0.0": 17.5712937559,
			"0.001": 14.9243864601,
			"0.002": 21.8207614642,
			"0.003": 24.7412231828,
			"0.004": 7.87340255707,
			"0.005": 3.41108363606,
			"0.006": 2.7642354501,
			"0.007": 4.10173411437,
			"0.008": 3.77432339361,
			"0.009": 4.95909481477,
			"0.01": 5.89588031259,
			"0.011": 4.3979393129,
			"0.012": 1.50809078739,
			"0.013": 0.0133897386909,
			"0.014": 0.0,
			"0.015": 0.0,
			"0.016": 0.0,
			"0.017": 0.0,
			"0.018": 0.0,
			"0.019": 0.0,
			"0.02": 0.0,
			"0.021": 0.0,
			"0.022": 0.0,
			"0.023": 0.0,
			"0.024": 0.0,
			"0.025": 0.0
		}
	}
}
