{
	 "smiles": "CC1=CC(=NO1)C(=O)NNCC1=CC=CC=C1", 
	 "Tm": 378.65, 
	 "num_atms": 30, 
	 "gaussian": { 
		 "optdone": 1, 
		 "sigma_profile": "yes", 
		 "theory": "DFT", 
		 "functional": "B3LYP", 
		 "basiset": "6-31G**", 
		 "properties": { 
			 "R2extent": 5704.5048, 
			 "electric_dipole_moment_norm": 2.73657101863, 
			 "electric_quadrupole_moment_norm": 23.9789311657, 
			 "total_energy": -779.744340022, 
			 "HOMO_LUMO_gap": 0.1857, 
			 "cosmo_polarized_energy": -13.07, 
			 "cosmo_cavitation_energy": 34.93, 
			 "cosmo_dispersion_energy": -24.76, 
			 "cosmo_repulsion_energy": 1.95, 
			 "cosmo_total_nonelectrostatic_energy": 12.13, 
			 "SMD_solvation_energy": 6.51 
		},
		"coords": [
			{
				"x": -1.1004228244,
				"y": 0.8975353605,
				"z": -5.459549176,
				"element": "C" 
			},
			{
				"x": -0.4283274313,
				"y": 0.9070174594,
				"z": -4.13118901,
				"element": "C" 
			},
			{
				"x": 0.5994689478,
				"y": 0.2014621498,
				"z": -3.5842221807,
				"element": "C" 
			},
			{
				"x": 0.7165838838,
				"y": 0.7265617991,
				"z": -2.2670354706,
				"element": "C" 
			},
			{
				"x": -0.1685554649,
				"y": 1.6777645171,
				"z": -2.0406812373,
				"element": "N" 
			},
			{
				"x": -0.8973484663,
				"y": 1.7959386188,
				"z": -3.2189621042,
				"element": "O" 
			},
			{
				"x": 1.7634013165,
				"y": 0.275076867,
				"z": -1.28987198,
				"element": "C" 
			},
			{
				"x": 2.6605021409,
				"y": -0.466422834,
				"z": -1.6808645634,
				"element": "O" 
			},
			{
				"x": 1.7260140325,
				"y": 0.7428639782,
				"z": -0.0072884946,
				"element": "N" 
			},
			{
				"x": 0.7462023744,
				"y": 1.5284012474,
				"z": 0.6280495192,
				"element": "N" 
			},
			{
				"x": -0.3921724426,
				"y": 0.7372156758,
				"z": 1.1252725617,
				"element": "C" 
			},
			{
				"x": -0.0179952233,
				"y": -0.112717842,
				"z": 2.324043542,
				"element": "C" 
			},
			{
				"x": 0.7678378233,
				"y": 0.4161475753,
				"z": 3.3576158199,
				"element": "C" 
			},
			{
				"x": 1.0853139973,
				"y": -0.357344128,
				"z": 4.4737869695,
				"element": "C" 
			},
			{
				"x": 0.6194499243,
				"y": -1.6709379635,
				"z": 4.574965685,
				"element": "C" 
			},
			{
				"x": -0.161424873,
				"y": -2.206149313,
				"z": 3.5501936333,
				"element": "C" 
			},
			{
				"x": -0.4729404567,
				"y": -1.4312232544,
				"z": 2.4307417134,
				"element": "C" 
			},
			{
				"x": -2.1640169641,
				"y": 0.6577312356,
				"z": -5.3583107913,
				"element": "H" 
			},
			{
				"x": -1.0258726015,
				"y": 1.8777487973,
				"z": -5.9416370602,
				"element": "H" 
			},
			{
				"x": -0.635401708,
				"y": 0.1532875038,
				"z": -6.1084703347,
				"element": "H" 
			},
			{
				"x": 1.2064338224,
				"y": -0.5734521709,
				"z": -4.0230007236,
				"element": "H" 
			},
			{
				"x": 2.4854414796,
				"y": 0.4279595584,
				"z": 0.5824504101,
				"element": "H" 
			},
			{
				"x": 0.4174372409,
				"y": 2.2212941329,
				"z": -0.0385524853,
				"element": "H" 
			},
			{
				"x": -1.1556302613,
				"y": 1.472403053,
				"z": 1.4118941155,
				"element": "H" 
			},
			{
				"x": -0.8349775836,
				"y": 0.1043025771,
				"z": 0.3420727315,
				"element": "H" 
			},
			{
				"x": 1.1330904107,
				"y": 1.4353893429,
				"z": 3.271717253,
				"element": "H" 
			},
			{
				"x": 1.6962525634,
				"y": 0.0650898966,
				"z": 5.2669154058,
				"element": "H" 
			},
			{
				"x": 0.8675648991,
				"y": -2.2731343375,
				"z": 5.4443580574,
				"element": "H" 
			},
			{
				"x": -0.5216382236,
				"y": -3.2289959149,
				"z": 3.6161565886,
				"element": "H" 
			},
			{
				"x": -1.0735703326,
				"y": -1.8561135879,
				"z": 1.6299016061,
				"element": "H" 
			}
		],
		 "valence_orbital": [ 
			{
				"type": "occ",
				"energy": -0.26871,
				"method": "rhf"
			},
			{
				"type": "occ",
				"energy": -0.26275,
				"method": "rhf"
			},
			{
				"type": "occ",
				"energy": -0.24788,
				"method": "rhf"
			},
			{
				"type": "occ",
				"energy": -0.24253,
				"method": "rhf"
			},
			{
				"type": "occ",
				"energy": -0.23141,
				"method": "rhf"
			},
			{
				"type": "unocc",
				"energy": -0.04571,
				"method": "rhf"
			},
			{
				"type": "unocc",
				"energy": -0.00265,
				"method": "rhf"
			},
			{
				"type": "unocc",
				"energy": 0.00091,
				"method": "rhf"
			},
			{
				"type": "unocc",
				"energy": 0.01217,
				"method": "rhf"
			},
			{
				"type": "unocc",
				"energy": 0.08029,
				"method": "rhf"
			}
		],
		"cosmo_sigma_profile": { 
			"-0.025": 0.0,
			"-0.024": 0.0,
			"-0.023": 0.0,
			"-0.022": 0.0,
			"-0.021": 0.0,
			"-0.02": 0.0,
			"-0.019": 0.0,
			"-0.018": 0.0,
			"-0.017": 0.0,
			"-0.016": 0.0,
			"-0.015": 0.0,
			"-0.014": 0.27412786216,
			"-0.013": 0.652338997189,
			"-0.012": 0.840409579949,
			"-0.011": 0.165430637587,
			"-0.01": 1.03449841125,
			"-0.009": 0.947001113901,
			"-0.008": 2.19368425477,
			"-0.007": 5.10458963629,
			"-0.006": 15.3238216435,
			"-0.005": 23.0738512126,
			"-0.004": 25.4900791901,
			"-0.003": 27.2110599757,
			"-0.002": 24.31414452,
			"-0.001": 19.8832259005,
			"0.0": 20.8243770022,
			"0.001": 16.5104247505,
			"0.002": 14.7717469142,
			"0.003": 13.1322006251,
			"0.004": 12.3357938268,
			"0.005": 12.1329692812,
			"0.006": 13.2268182445,
			"0.007": 8.97687723044,
			"0.008": 3.97182731521,
			"0.009": 1.76122453885,
			"0.01": 1.80218773033,
			"0.011": 2.53842652795,
			"0.012": 3.20516566063,
			"0.013": 5.47712170638,
			"0.014": 0.957378499057,
			"0.015": 0.0,
			"0.016": 0.0,
			"0.017": 0.0,
			"0.018": 0.0,
			"0.019": 0.0,
			"0.02": 0.0,
			"0.021": 0.0,
			"0.022": 0.0,
			"0.023": 0.0,
			"0.024": 0.0,
			"0.025": 0.0
		}
	}
}
