{
	 "smiles": "O=C(OC1=CC=CC=C1)C1=CC=C(C=C1)C(=O)OC1=CC=CC=C1", 
	 "Tm": 470.15, 
	 "num_atms": 38, 
	 "gaussian": { 
		 "optdone": 1, 
		 "sigma_profile": "yes", 
		 "theory": "DFT", 
		 "functional": "B3LYP", 
		 "basiset": "6-31G**", 
		 "properties": { 
			 "R2extent": 15798.9068, 
			 "electric_dipole_moment_norm": 0.0872655716763, 
			 "electric_quadrupole_moment_norm": 26.9108743184, 
			 "total_energy": -1071.48218657, 
			 "HOMO_LUMO_gap": 0.16412, 
			 "cosmo_polarized_energy": -11.91, 
			 "cosmo_cavitation_energy": 44.69, 
			 "cosmo_dispersion_energy": -32.07, 
			 "cosmo_repulsion_energy": 2.39, 
			 "cosmo_total_nonelectrostatic_energy": 15.02, 
			 "SMD_solvation_energy": 9.4 
		},
		"coords": [
			{
				"x": 0.594760779,
				"y": -1.4541267209,
				"z": 2.989883982,
				"element": "O" 
			},
			{
				"x": 0.3656113917,
				"y": -1.5482020587,
				"z": 1.8047596767,
				"element": "C" 
			},
			{
				"x": 0.1480488679,
				"y": -2.7282329714,
				"z": 1.152114267,
				"element": "O" 
			},
			{
				"x": 0.1788151798,
				"y": -3.9495919464,
				"z": 1.8310953579,
				"element": "C" 
			},
			{
				"x": 0.8467028668,
				"y": -4.9856711709,
				"z": 1.1806683061,
				"element": "C" 
			},
			{
				"x": 0.8568404877,
				"y": -6.2574265579,
				"z": 1.7533332714,
				"element": "C" 
			},
			{
				"x": 0.2045065439,
				"y": -6.4858129336,
				"z": 2.9664182412,
				"element": "C" 
			},
			{
				"x": -0.4620458997,
				"y": -5.4364971578,
				"z": 3.6023099255,
				"element": "C" 
			},
			{
				"x": -0.4842160994,
				"y": -4.1590573875,
				"z": 3.0402964002,
				"element": "C" 
			},
			{
				"x": 0.2878076017,
				"y": -0.3893957304,
				"z": 0.8675073578,
				"element": "C" 
			},
			{
				"x": -0.0012642353,
				"y": -0.5366697702,
				"z": -0.4971797794,
				"element": "C" 
			},
			{
				"x": -0.0617907779,
				"y": 0.5850793393,
				"z": -1.3164755004,
				"element": "C" 
			},
			{
				"x": 0.1674513431,
				"y": 1.8618887803,
				"z": -0.7847104042,
				"element": "C" 
			},
			{
				"x": 0.4574052093,
				"y": 2.0090786523,
				"z": 0.5797979467,
				"element": "C" 
			},
			{
				"x": 0.5153605407,
				"y": 0.8875774572,
				"z": 1.3996087802,
				"element": "C" 
			},
			{
				"x": 0.0864452226,
				"y": 3.0210545317,
				"z": -1.7212457931,
				"element": "C" 
			},
			{
				"x": -0.1795870659,
				"y": 2.9306341707,
				"z": -2.8989162183,
				"element": "O" 
			},
			{
				"x": 0.3543369394,
				"y": 4.1962684055,
				"z": -1.0786539963,
				"element": "O" 
			},
			{
				"x": 0.3414998331,
				"y": 5.4158558308,
				"z": -1.7614063808,
				"element": "C" 
			},
			{
				"x": 1.384752776,
				"y": 6.2889737747,
				"z": -1.4583822898,
				"element": "C" 
			},
			{
				"x": 1.4032900624,
				"y": 7.5578848098,
				"z": -2.0371319702,
				"element": "C" 
			},
			{
				"x": 0.3860211795,
				"y": 7.9451199781,
				"z": -2.9114746368,
				"element": "C" 
			},
			{
				"x": -0.6528090049,
				"y": 7.0581796791,
				"z": -3.2011475244,
				"element": "C" 
			},
			{
				"x": -0.6873606196,
				"y": 5.7862767347,
				"z": -2.6273510229,
				"element": "C" 
			},
			{
				"x": 1.3447719936,
				"y": -4.7841652031,
				"z": 0.2380178798,
				"element": "H" 
			},
			{
				"x": 1.3755912606,
				"y": -7.0675124267,
				"z": 1.2494406333,
				"element": "H" 
			},
			{
				"x": 0.2142529485,
				"y": -7.475330149,
				"z": 3.4131700643,
				"element": "H" 
			},
			{
				"x": -0.9725001411,
				"y": -5.6085471278,
				"z": 4.5453050669,
				"element": "H" 
			},
			{
				"x": -0.9941389405,
				"y": -3.342555006,
				"z": 3.5342793674,
				"element": "H" 
			},
			{
				"x": -0.1769387747,
				"y": -1.5247367326,
				"z": -0.905247755,
				"element": "H" 
			},
			{
				"x": -0.2852599139,
				"y": 0.49526819,
				"z": -2.3738293378,
				"element": "H" 
			},
			{
				"x": 0.6336369862,
				"y": 2.9970930042,
				"z": 0.9877501031,
				"element": "H" 
			},
			{
				"x": 0.7360640116,
				"y": 0.9776472783,
				"z": 2.457519715,
				"element": "H" 
			},
			{
				"x": 2.1628952669,
				"y": 5.9660442254,
				"z": -0.7746604583,
				"element": "H" 
			},
			{
				"x": 2.2140554021,
				"y": 8.2413904367,
				"z": -1.803189463,
				"element": "H" 
			},
			{
				"x": 0.4016732636,
				"y": 8.9321357864,
				"z": -3.3635609155,
				"element": "H" 
			},
			{
				"x": -1.4476193727,
				"y": 7.3544254916,
				"z": -3.8793214092,
				"element": "H" 
			},
			{
				"x": -1.4874671121,
				"y": 5.0944544942,
				"z": -2.8552914869,
				"element": "H" 
			}
		],
		 "valence_orbital": [ 
			{
				"type": "occ",
				"energy": -0.27056,
				"method": "rhf"
			},
			{
				"type": "occ",
				"energy": -0.25659,
				"method": "rhf"
			},
			{
				"type": "occ",
				"energy": -0.25646,
				"method": "rhf"
			},
			{
				"type": "occ",
				"energy": -0.24485,
				"method": "rhf"
			},
			{
				"type": "occ",
				"energy": -0.24357,
				"method": "rhf"
			},
			{
				"type": "unocc",
				"energy": -0.07945,
				"method": "rhf"
			},
			{
				"type": "unocc",
				"energy": -0.01931,
				"method": "rhf"
			},
			{
				"type": "unocc",
				"energy": -0.014,
				"method": "rhf"
			},
			{
				"type": "unocc",
				"energy": -0.00747,
				"method": "rhf"
			},
			{
				"type": "unocc",
				"energy": -0.00744,
				"method": "rhf"
			}
		],
		"cosmo_sigma_profile": { 
			"-0.025": 0.0,
			"-0.024": 0.0,
			"-0.023": 0.0,
			"-0.022": 0.0,
			"-0.021": 0.0,
			"-0.02": 0.0,
			"-0.019": 0.0,
			"-0.018": 0.0,
			"-0.017": 0.0,
			"-0.016": 0.0,
			"-0.015": 0.0,
			"-0.014": 0.0,
			"-0.013": 0.0,
			"-0.012": 0.0,
			"-0.011": 0.0,
			"-0.01": 0.0,
			"-0.009": 0.0,
			"-0.008": 0.010997548347,
			"-0.007": 6.25733864527,
			"-0.006": 24.8986090172,
			"-0.005": 28.8582045139,
			"-0.004": 30.4093620321,
			"-0.003": 25.6957648146,
			"-0.002": 25.1052585748,
			"-0.001": 26.4163513396,
			"0.0": 30.0956609048,
			"0.001": 34.1999980996,
			"0.002": 34.522041055,
			"0.003": 22.8519595126,
			"0.004": 23.9292497442,
			"0.005": 18.2167771923,
			"0.006": 4.31130573289,
			"0.007": 4.15072007197,
			"0.008": 3.18486193975,
			"0.009": 4.43123092576,
			"0.01": 5.90124689262,
			"0.011": 7.02541480964,
			"0.012": 0.147768733889,
			"0.013": 0.0,
			"0.014": 0.0,
			"0.015": 0.0,
			"0.016": 0.0,
			"0.017": 0.0,
			"0.018": 0.0,
			"0.019": 0.0,
			"0.02": 0.0,
			"0.021": 0.0,
			"0.022": 0.0,
			"0.023": 0.0,
			"0.024": 0.0,
			"0.025": 0.0
		}
	}
}
