{
	 "smiles": "C[C@H]1CC11C(OC(C)=O)C(=O)C2=C([C@H](OC(C)=O)[C@@H](O)C3C(=C)[C@H](C)CC[C@]23C)C1=O", 
	 "Tm": 506.15, 
	 "num_atms": 61, 
	 "gaussian": { 
		 "optdone": 1, 
		 "sigma_profile": "yes", 
		 "theory": "DFT", 
		 "functional": "B3LYP", 
		 "basiset": "6-31G**", 
		 "properties": { 
			 "R2extent": 12793.5618, 
			 "electric_dipole_moment_norm": 3.04849618337, 
			 "electric_quadrupole_moment_norm": 25.5629644523, 
			 "total_energy": -1459.17611178, 
			 "HOMO_LUMO_gap": 0.13801, 
			 "cosmo_polarized_energy": -19.72, 
			 "cosmo_cavitation_energy": 58.41, 
			 "cosmo_dispersion_energy": -36.71, 
			 "cosmo_repulsion_energy": 2.77, 
			 "cosmo_total_nonelectrostatic_energy": 24.47, 
			 "SMD_solvation_energy": 12.46 
		},
		"coords": [
			{
				"x": -5.6976313103,
				"y": -1.3005278095,
				"z": -1.3912233864,
				"element": "C" 
			},
			{
				"x": -4.7863914251,
				"y": -0.1522450477,
				"z": -1.0127098252,
				"element": "C" 
			},
			{
				"x": -4.6735972374,
				"y": 0.3434324248,
				"z": 0.3875376937,
				"element": "C" 
			},
			{
				"x": -3.4695433571,
				"y": -0.3581847927,
				"z": -0.2628027742,
				"element": "C" 
			},
			{
				"x": -3.0475710757,
				"y": -1.7024322534,
				"z": 0.2616596424,
				"element": "C" 
			},
			{
				"x": -2.5690337569,
				"y": -2.5324788842,
				"z": -0.8361943968,
				"element": "O" 
			},
			{
				"x": -3.1468021557,
				"y": -3.7577308315,
				"z": -0.9963255891,
				"element": "C" 
			},
			{
				"x": -2.4663232638,
				"y": -4.5118963291,
				"z": -2.1120357634,
				"element": "C" 
			},
			{
				"x": -4.0716086603,
				"y": -4.1656595528,
				"z": -0.3322957815,
				"element": "O" 
			},
			{
				"x": -1.8554092982,
				"y": -1.6009984009,
				"z": 1.2252840599,
				"element": "C" 
			},
			{
				"x": -1.816491406,
				"y": -2.3350473478,
				"z": 2.1982708136,
				"element": "O" 
			},
			{
				"x": -0.7336038321,
				"y": -0.6837904573,
				"z": 0.8282828639,
				"element": "C" 
			},
			{
				"x": -0.95833112,
				"y": 0.1946319776,
				"z": -0.1840842228,
				"element": "C" 
			},
			{
				"x": 0.1390925266,
				"y": 1.0000243045,
				"z": -0.8368705912,
				"element": "C" 
			},
			{
				"x": -0.0624451356,
				"y": 0.7745862107,
				"z": -2.2693994011,
				"element": "O" 
			},
			{
				"x": 0.2748034261,
				"y": 1.7628253561,
				"z": -3.1187792178,
				"element": "C" 
			},
			{
				"x": -0.3187156158,
				"y": 1.5353285885,
				"z": -4.4835011507,
				"element": "C" 
			},
			{
				"x": 0.9654462796,
				"y": 2.7170575831,
				"z": -2.8089834476,
				"element": "O" 
			},
			{
				"x": 1.5450150923,
				"y": 0.5662479575,
				"z": -0.4253064914,
				"element": "C" 
			},
			{
				"x": 2.5139634874,
				"y": 1.5386170007,
				"z": -0.7552829856,
				"element": "O" 
			},
			{
				"x": 1.5778701093,
				"y": 0.3415621364,
				"z": 1.1005818957,
				"element": "C" 
			},
			{
				"x": 2.9868416055,
				"y": 0.1180288489,
				"z": 1.6373936788,
				"element": "C" 
			},
			{
				"x": 3.6332399298,
				"y": 1.1019885768,
				"z": 2.2695504581,
				"element": "C" 
			},
			{
				"x": 3.6181453666,
				"y": -1.2586053023,
				"z": 1.4777312611,
				"element": "C" 
			},
			{
				"x": 4.1792549506,
				"y": -1.518319258,
				"z": 0.0621634009,
				"element": "C" 
			},
			{
				"x": 2.6231118886,
				"y": -2.3554517566,
				"z": 1.9193892174,
				"element": "C" 
			},
			{
				"x": 1.2314843989,
				"y": -2.1914449595,
				"z": 1.2920049613,
				"element": "C" 
			},
			{
				"x": 0.6037521399,
				"y": -0.7912829093,
				"z": 1.5643630616,
				"element": "C" 
			},
			{
				"x": 0.3563455678,
				"y": -0.5810165633,
				"z": 3.0848203357,
				"element": "C" 
			},
			{
				"x": -2.3431496249,
				"y": 0.5435209632,
				"z": -0.6464287721,
				"element": "C" 
			},
			{
				"x": -2.5334805656,
				"y": 1.5996138035,
				"z": -1.2390559718,
				"element": "O" 
			},
			{
				"x": -5.3889912087,
				"y": -1.7510199926,
				"z": -2.3402704319,
				"element": "H" 
			},
			{
				"x": -5.7173383747,
				"y": -2.0929680762,
				"z": -0.639119654,
				"element": "H" 
			},
			{
				"x": -6.7215183033,
				"y": -0.9321061118,
				"z": -1.5174292416,
				"element": "H" 
			},
			{
				"x": -4.6898720474,
				"y": 0.6261886939,
				"z": -1.7661287367,
				"element": "H" 
			},
			{
				"x": -5.1794690197,
				"y": -0.2077294367,
				"z": 1.1761372525,
				"element": "H" 
			},
			{
				"x": -4.5716839193,
				"y": 1.4105745577,
				"z": 0.5566228114,
				"element": "H" 
			},
			{
				"x": -3.8468278783,
				"y": -2.2356018564,
				"z": 0.7747719221,
				"element": "H" 
			},
			{
				"x": -1.4364922062,
				"y": -4.7437690485,
				"z": -1.8230690959,
				"element": "H" 
			},
			{
				"x": -3.0092174777,
				"y": -5.4359265144,
				"z": -2.3075800771,
				"element": "H" 
			},
			{
				"x": -2.4216846811,
				"y": -3.8976259391,
				"z": -3.0153102639,
				"element": "H" 
			},
			{
				"x": 0.007378071,
				"y": 2.0700966216,
				"z": -0.64645695,
				"element": "H" 
			},
			{
				"x": -1.3972283682,
				"y": 1.7156164965,
				"z": -4.4289360383,
				"element": "H" 
			},
			{
				"x": 0.1330240781,
				"y": 2.219901557,
				"z": -5.2005067324,
				"element": "H" 
			},
			{
				"x": -0.1725674002,
				"y": 0.4986068958,
				"z": -4.7967181122,
				"element": "H" 
			},
			{
				"x": 1.7481720844,
				"y": -0.3784015029,
				"z": -0.9521161698,
				"element": "H" 
			},
			{
				"x": 2.1705677307,
				"y": 2.0816143469,
				"z": -1.4865734158,
				"element": "H" 
			},
			{
				"x": 1.2171040306,
				"y": 1.2823392504,
				"z": 1.5385657529,
				"element": "H" 
			},
			{
				"x": 3.1976740046,
				"y": 2.0897502446,
				"z": 2.3885832282,
				"element": "H" 
			},
			{
				"x": 4.6344887855,
				"y": 0.9594437021,
				"z": 2.668451832,
				"element": "H" 
			},
			{
				"x": 4.4760454068,
				"y": -1.2925014715,
				"z": 2.1605868968,
				"element": "H" 
			},
			{
				"x": 4.8018916447,
				"y": -0.6825889237,
				"z": -0.267662546,
				"element": "H" 
			},
			{
				"x": 4.7904378049,
				"y": -2.427969835,
				"z": 0.0657299851,
				"element": "H" 
			},
			{
				"x": 3.3936149615,
				"y": -1.6569005878,
				"z": -0.6857190023,
				"element": "H" 
			},
			{
				"x": 3.0217861289,
				"y": -3.3437704453,
				"z": 1.6587882596,
				"element": "H" 
			},
			{
				"x": 2.5314659984,
				"y": -2.3393021617,
				"z": 3.0114257483,
				"element": "H" 
			},
			{
				"x": 1.2939968,
				"y": -2.3496803793,
				"z": 0.2082399773,
				"element": "H" 
			},
			{
				"x": 0.5597648453,
				"y": -2.9613672198,
				"z": 1.6814822479,
				"element": "H" 
			},
			{
				"x": -0.2575572984,
				"y": 0.3112318663,
				"z": 3.2504353477,
				"element": "H" 
			},
			{
				"x": -0.1511897883,
				"y": -1.4335065728,
				"z": 3.5328861542,
				"element": "H" 
			},
			{
				"x": 1.3086876676,
				"y": -0.4152814336,
				"z": 3.5936354765,
				"element": "H" 
			}
		],
		 "valence_orbital": [ 
			{
				"type": "occ",
				"energy": -0.27574,
				"method": "rhf"
			},
			{
				"type": "occ",
				"energy": -0.26766,
				"method": "rhf"
			},
			{
				"type": "occ",
				"energy": -0.26195,
				"method": "rhf"
			},
			{
				"type": "occ",
				"energy": -0.25341,
				"method": "rhf"
			},
			{
				"type": "occ",
				"energy": -0.23754,
				"method": "rhf"
			},
			{
				"type": "unocc",
				"energy": -0.09953,
				"method": "rhf"
			},
			{
				"type": "unocc",
				"energy": -0.02817,
				"method": "rhf"
			},
			{
				"type": "unocc",
				"energy": -0.00517,
				"method": "rhf"
			},
			{
				"type": "unocc",
				"energy": -0.0005,
				"method": "rhf"
			},
			{
				"type": "unocc",
				"energy": 0.02104,
				"method": "rhf"
			}
		],
		"cosmo_sigma_profile": { 
			"-0.025": 0.0,
			"-0.024": 0.0,
			"-0.023": 0.0,
			"-0.022": 0.0,
			"-0.021": 0.0,
			"-0.02": 0.0,
			"-0.019": 0.0,
			"-0.018": 0.0,
			"-0.017": 0.0,
			"-0.016": 0.0,
			"-0.015": 0.0,
			"-0.014": 0.0,
			"-0.013": 0.0,
			"-0.012": 0.0,
			"-0.011": 0.0,
			"-0.01": 0.00219903784097,
			"-0.009": 0.58852253282,
			"-0.008": 1.86539963711,
			"-0.007": 8.73333597978,
			"-0.006": 18.8483342685,
			"-0.005": 24.0252440451,
			"-0.004": 39.9639628243,
			"-0.003": 47.5229495748,
			"-0.002": 58.4445529159,
			"-0.001": 53.7646314304,
			"0.0": 44.5577799238,
			"0.001": 34.0330211856,
			"0.002": 22.3085375169,
			"0.003": 16.3653997282,
			"0.004": 13.5868239086,
			"0.005": 12.7357373247,
			"0.006": 8.84332369224,
			"0.007": 6.61219540389,
			"0.008": 7.96023453895,
			"0.009": 8.14750430339,
			"0.01": 9.7264421913,
			"0.011": 10.4458566035,
			"0.012": 4.79412083371,
			"0.013": 1.75605792779,
			"0.014": 1.0344730605,
			"0.015": 0.0919091642932,
			"0.016": 0.0,
			"0.017": 0.0,
			"0.018": 0.0,
			"0.019": 0.0,
			"0.02": 0.0,
			"0.021": 0.0,
			"0.022": 0.0,
			"0.023": 0.0,
			"0.024": 0.0,
			"0.025": 0.0
		}
	}
}
