{
	 "smiles": "CS(=O)(=O)C1=C(Cl)C=C(N)C=C1", 
	 "Tm": 467.15, 
	 "num_atms": 20, 
	 "gaussian": { 
		 "optdone": 1, 
		 "sigma_profile": "yes", 
		 "theory": "DFT", 
		 "functional": "B3LYP", 
		 "basiset": "6-31G**", 
		 "properties": { 
			 "R2extent": 2911.4383, 
			 "electric_dipole_moment_norm": 7.36738853937, 
			 "electric_quadrupole_moment_norm": 18.1450674173, 
			 "total_energy": -1335.08058988, 
			 "HOMO_LUMO_gap": 0.20198, 
			 "cosmo_polarized_energy": -20.27, 
			 "cosmo_cavitation_energy": 26.66, 
			 "cosmo_dispersion_energy": -20.3, 
			 "cosmo_repulsion_energy": 1.56, 
			 "cosmo_total_nonelectrostatic_energy": 7.92, 
			 "SMD_solvation_energy": 4.17 
		},
		"coords": [
			{
				"x": -1.4225054193,
				"y": -0.2522923576,
				"z": -2.6911536747,
				"element": "C" 
			},
			{
				"x": -0.5386108037,
				"y": 1.1594921502,
				"z": -1.9913110511,
				"element": "S" 
			},
			{
				"x": -1.3253331191,
				"y": 2.361406732,
				"z": -2.3167054477,
				"element": "O" 
			},
			{
				"x": 0.8690188725,
				"y": 1.066673374,
				"z": -2.3979047734,
				"element": "O" 
			},
			{
				"x": -0.6711709759,
				"y": 0.9398693029,
				"z": -0.2054450767,
				"element": "C" 
			},
			{
				"x": -0.0556931884,
				"y": -0.0810258039,
				"z": 0.5352967685,
				"element": "C" 
			},
			{
				"x": 0.8779663288,
				"y": -1.3571379167,
				"z": -0.2290470104,
				"element": "Cl" 
			},
			{
				"x": -0.1763864504,
				"y": -0.1350287776,
				"z": 1.918362785,
				"element": "C" 
			},
			{
				"x": -0.9114249835,
				"y": 0.8461618311,
				"z": 2.6104115411,
				"element": "C" 
			},
			{
				"x": -0.9845566781,
				"y": 0.8206777854,
				"z": 3.9881312049,
				"element": "N" 
			},
			{
				"x": -1.5268206773,
				"y": 1.8739622553,
				"z": 1.870741124,
				"element": "C" 
			},
			{
				"x": -1.4029874714,
				"y": 1.9111763605,
				"z": 0.4910491506,
				"element": "C" 
			},
			{
				"x": -2.4616159442,
				"y": -0.2148673309,
				"z": -2.3616817736,
				"element": "H" 
			},
			{
				"x": -0.9370810573,
				"y": -1.1780347143,
				"z": -2.3833044744,
				"element": "H" 
			},
			{
				"x": -1.3624795599,
				"y": -0.1324121042,
				"z": -3.7749245742,
				"element": "H" 
			},
			{
				"x": 0.3110546097,
				"y": -0.9370530623,
				"z": 2.4626299434,
				"element": "H" 
			},
			{
				"x": -1.7210314303,
				"y": 1.3555438524,
				"z": 4.4228722697,
				"element": "H" 
			},
			{
				"x": -0.7771622722,
				"y": -0.0506514064,
				"z": 4.4520693139,
				"element": "H" 
			},
			{
				"x": -2.0948279767,
				"y": 2.6436899813,
				"z": 2.3852999373,
				"element": "H" 
			},
			{
				"x": -1.8696518033,
				"y": 2.7034498488,
				"z": -0.0838861823,
				"element": "H" 
			}
		],
		 "valence_orbital": [ 
			{
				"type": "occ",
				"energy": -0.30328,
				"method": "rhf"
			},
			{
				"type": "occ",
				"energy": -0.2858,
				"method": "rhf"
			},
			{
				"type": "occ",
				"energy": -0.28349,
				"method": "rhf"
			},
			{
				"type": "occ",
				"energy": -0.263,
				"method": "rhf"
			},
			{
				"type": "occ",
				"energy": -0.23181,
				"method": "rhf"
			},
			{
				"type": "unocc",
				"energy": -0.02983,
				"method": "rhf"
			},
			{
				"type": "unocc",
				"energy": -0.02372,
				"method": "rhf"
			},
			{
				"type": "unocc",
				"energy": 0.01312,
				"method": "rhf"
			},
			{
				"type": "unocc",
				"energy": 0.05705,
				"method": "rhf"
			},
			{
				"type": "unocc",
				"energy": 0.08652,
				"method": "rhf"
			}
		],
		"cosmo_sigma_profile": { 
			"-0.025": 0.0,
			"-0.024": 0.0,
			"-0.023": 0.0,
			"-0.022": 0.0,
			"-0.021": 0.0,
			"-0.02": 0.0,
			"-0.019": 0.0,
			"-0.018": 0.0,
			"-0.017": 0.0,
			"-0.016": 0.0,
			"-0.015": 0.0,
			"-0.014": 1.25231559641,
			"-0.013": 3.58720237243,
			"-0.012": 3.1928440664,
			"-0.011": 3.12706479025,
			"-0.01": 3.54333393088,
			"-0.009": 4.20566086366,
			"-0.008": 8.09679537188,
			"-0.007": 7.95229396371,
			"-0.006": 11.1488731717,
			"-0.005": 10.6992048803,
			"-0.004": 12.3238655914,
			"-0.003": 11.8694604514,
			"-0.002": 8.35368235727,
			"-0.001": 9.94871649184,
			"0.0": 12.9362385134,
			"0.001": 13.6659837502,
			"0.002": 18.2790094213,
			"0.003": 17.0179170146,
			"0.004": 8.73866545287,
			"0.005": 4.29868926829,
			"0.006": 2.97391765024,
			"0.007": 3.45479063048,
			"0.008": 3.65523383926,
			"0.009": 4.3251415001,
			"0.01": 5.17012483259,
			"0.011": 10.0843794425,
			"0.012": 9.50158633626,
			"0.013": 1.2017299814,
			"0.014": 0.0,
			"0.015": 0.0,
			"0.016": 0.0,
			"0.017": 0.0,
			"0.018": 0.0,
			"0.019": 0.0,
			"0.02": 0.0,
			"0.021": 0.0,
			"0.022": 0.0,
			"0.023": 0.0,
			"0.024": 0.0,
			"0.025": 0.0
		}
	}
}
