{
	 "smiles": "CCCNC(=O)NC(=O)CCl", 
	 "Tm": 393.15, 
	 "num_atms": 22, 
	 "gaussian": { 
		 "optdone": 1, 
		 "sigma_profile": "yes", 
		 "theory": "DFT", 
		 "functional": "B3LYP", 
		 "basiset": "6-31G**", 
		 "properties": { 
			 "R2extent": 3930.1256, 
			 "electric_dipole_moment_norm": 6.33278268852, 
			 "electric_quadrupole_moment_norm": 18.0238916702, 
			 "total_energy": -955.452995642, 
			 "HOMO_LUMO_gap": 0.25451, 
			 "cosmo_polarized_energy": -18.65, 
			 "cosmo_cavitation_energy": 27.84, 
			 "cosmo_dispersion_energy": -20.17, 
			 "cosmo_repulsion_energy": 1.68, 
			 "cosmo_total_nonelectrostatic_energy": 9.35, 
			 "SMD_solvation_energy": 5.27 
		},
		"coords": [
			{
				"x": -0.8397508097,
				"y": -1.23168191,
				"z": 3.2089355332,
				"element": "C" 
			},
			{
				"x": -1.4272285661,
				"y": -1.3519681574,
				"z": 1.7997400507,
				"element": "C" 
			},
			{
				"x": -1.5587315923,
				"y": -0.0116108034,
				"z": 1.0620475534,
				"element": "C" 
			},
			{
				"x": -0.2859446661,
				"y": 0.6655467472,
				"z": 0.8183813528,
				"element": "N" 
			},
			{
				"x": 0.4659071456,
				"y": 0.3661965179,
				"z": -0.284325966,
				"element": "C" 
			},
			{
				"x": 0.1023889683,
				"y": -0.4020555452,
				"z": -1.1659662894,
				"element": "O" 
			},
			{
				"x": 1.6946484577,
				"y": 1.0467643879,
				"z": -0.3243071573,
				"element": "N" 
			},
			{
				"x": 2.7136936252,
				"y": 0.9800935049,
				"z": -1.2831092314,
				"element": "C" 
			},
			{
				"x": 3.6907843945,
				"y": 1.6853265156,
				"z": -1.1467193668,
				"element": "O" 
			},
			{
				"x": 2.5020381231,
				"y": 0.003517893,
				"z": -2.4362194187,
				"element": "C" 
			},
			{
				"x": 3.9085349465,
				"y": -0.0192322601,
				"z": -3.5476491121,
				"element": "Cl" 
			},
			{
				"x": -0.7815215736,
				"y": -2.2092784861,
				"z": 3.6966731808,
				"element": "H" 
			},
			{
				"x": 0.1759277415,
				"y": -0.8206317992,
				"z": 3.1874102575,
				"element": "H" 
			},
			{
				"x": -1.452727463,
				"y": -0.5809828157,
				"z": 3.8441376251,
				"element": "H" 
			},
			{
				"x": -0.8146380355,
				"y": -2.0238699729,
				"z": 1.187975976,
				"element": "H" 
			},
			{
				"x": -2.4266759911,
				"y": -1.8020101048,
				"z": 1.8529367871,
				"element": "H" 
			},
			{
				"x": -2.0238957154,
				"y": -0.1679280495,
				"z": 0.0865405666,
				"element": "H" 
			},
			{
				"x": -2.1931707468,
				"y": 0.6780133655,
				"z": 1.6307387954,
				"element": "H" 
			},
			{
				"x": 0.1312405392,
				"y": 1.1801242059,
				"z": 1.579146337,
				"element": "H" 
			},
			{
				"x": 1.9108202872,
				"y": 1.7319449422,
				"z": 0.3900952801,
				"element": "H" 
			},
			{
				"x": 1.6124399794,
				"y": 0.2761615662,
				"z": -3.0032986109,
				"element": "H" 
			},
			{
				"x": 2.3399609514,
				"y": -1.0053397421,
				"z": -2.0577641432,
				"element": "H" 
			}
		],
		 "valence_orbital": [ 
			{
				"type": "occ",
				"energy": -0.2925,
				"method": "rhf"
			},
			{
				"type": "occ",
				"energy": -0.29074,
				"method": "rhf"
			},
			{
				"type": "occ",
				"energy": -0.28675,
				"method": "rhf"
			},
			{
				"type": "occ",
				"energy": -0.276,
				"method": "rhf"
			},
			{
				"type": "occ",
				"energy": -0.27064,
				"method": "rhf"
			},
			{
				"type": "unocc",
				"energy": -0.01613,
				"method": "rhf"
			},
			{
				"type": "unocc",
				"energy": 0.02582,
				"method": "rhf"
			},
			{
				"type": "unocc",
				"energy": 0.04668,
				"method": "rhf"
			},
			{
				"type": "unocc",
				"energy": 0.05389,
				"method": "rhf"
			},
			{
				"type": "unocc",
				"energy": 0.09011,
				"method": "rhf"
			}
		],
		"cosmo_sigma_profile": { 
			"-0.025": 0.0,
			"-0.024": 0.0,
			"-0.023": 0.0,
			"-0.022": 0.0,
			"-0.021": 0.0,
			"-0.02": 0.0,
			"-0.019": 0.156617425776,
			"-0.018": 0.987246468958,
			"-0.017": 1.4969824839,
			"-0.016": 1.84281419125,
			"-0.015": 1.23151557966,
			"-0.014": 1.48885584628,
			"-0.013": 1.89728025951,
			"-0.012": 0.71927008856,
			"-0.011": 1.53219368097,
			"-0.01": 1.52175844851,
			"-0.009": 2.52783309154,
			"-0.008": 5.60989328677,
			"-0.007": 5.18802460569,
			"-0.006": 4.78006574767,
			"-0.005": 7.69964311734,
			"-0.004": 10.1621242605,
			"-0.003": 17.2384677009,
			"-0.002": 22.9053181226,
			"-0.001": 22.3741367675,
			"0.0": 19.8599395684,
			"0.001": 15.9415883318,
			"0.002": 8.30802855294,
			"0.003": 7.41441925952,
			"0.004": 7.68076606231,
			"0.005": 9.10795623175,
			"0.006": 9.60864010188,
			"0.007": 3.72209887366,
			"0.008": 3.72817783887,
			"0.009": 3.8027759044,
			"0.01": 3.25872589129,
			"0.011": 5.87278660613,
			"0.012": 6.43651760919,
			"0.013": 4.01205253429,
			"0.014": 0.432950086786,
			"0.015": 0.0,
			"0.016": 0.0,
			"0.017": 0.0,
			"0.018": 0.0,
			"0.019": 0.0,
			"0.02": 0.0,
			"0.021": 0.0,
			"0.022": 0.0,
			"0.023": 0.0,
			"0.024": 0.0,
			"0.025": 0.0
		}
	}
}
