{
	 "smiles": "C1C2=CC=CC=C2SC2=CC=CC=C12", 
	 "Tm": 401.15, 
	 "num_atms": 24, 
	 "gaussian": { 
		 "optdone": 1, 
		 "sigma_profile": "yes", 
		 "theory": "DFT", 
		 "functional": "B3LYP", 
		 "basiset": "6-31G**", 
		 "properties": { 
			 "R2extent": 3102.3088, 
			 "electric_dipole_moment_norm": 1.41091343817, 
			 "electric_quadrupole_moment_norm": 9.75882516546, 
			 "total_energy": -899.609211379, 
			 "HOMO_LUMO_gap": 0.19809, 
			 "cosmo_polarized_energy": -6.08, 
			 "cosmo_cavitation_energy": 28.34, 
			 "cosmo_dispersion_energy": -21.63, 
			 "cosmo_repulsion_energy": 1.62, 
			 "cosmo_total_nonelectrostatic_energy": 8.33, 
			 "SMD_solvation_energy": 3.87 
		},
		"coords": [
			{
				"x": -1.1432460546,
				"y": -1.1547284088,
				"z": -0.4913866981,
				"element": "C" 
			},
			{
				"x": -1.8319322637,
				"y": 0.1929632521,
				"z": -0.5078719987,
				"element": "C" 
			},
			{
				"x": -3.1706526515,
				"y": 0.3493301297,
				"z": -0.1354901165,
				"element": "C" 
			},
			{
				"x": -3.8017646349,
				"y": 1.5907207386,
				"z": -0.2241208086,
				"element": "C" 
			},
			{
				"x": -3.0875328457,
				"y": 2.7023835497,
				"z": -0.674641161,
				"element": "C" 
			},
			{
				"x": -1.7423666032,
				"y": 2.5741542174,
				"z": -1.0193677299,
				"element": "C" 
			},
			{
				"x": -1.1190538168,
				"y": 1.3243671213,
				"z": -0.9371787095,
				"element": "C" 
			},
			{
				"x": 0.5995300767,
				"y": 1.1716785487,
				"z": -1.4066719443,
				"element": "S" 
			},
			{
				"x": 1.1231106887,
				"y": -0.0831901021,
				"z": -0.2454197815,
				"element": "C" 
			},
			{
				"x": 2.4245289122,
				"y": -0.0415047127,
				"z": 0.2662470204,
				"element": "C" 
			},
			{
				"x": 2.8511819209,
				"y": -1.0254165562,
				"z": 1.1576585873,
				"element": "C" 
			},
			{
				"x": 1.9723450685,
				"y": -2.0337692994,
				"z": 1.5573714844,
				"element": "C" 
			},
			{
				"x": 0.6726549986,
				"y": -2.0632446137,
				"z": 1.0502564466,
				"element": "C" 
			},
			{
				"x": 0.2359433415,
				"y": -1.1052069476,
				"z": 0.1300743148,
				"element": "C" 
			},
			{
				"x": -1.765689018,
				"y": -1.8951702295,
				"z": 0.0194754698,
				"element": "H" 
			},
			{
				"x": -1.0354678576,
				"y": -1.4956043591,
				"z": -1.5343526408,
				"element": "H" 
			},
			{
				"x": -3.7266553687,
				"y": -0.518035981,
				"z": 0.2119534368,
				"element": "H" 
			},
			{
				"x": -4.8454471272,
				"y": 1.6893639309,
				"z": 0.0592070455,
				"element": "H" 
			},
			{
				"x": -3.5698885141,
				"y": 3.6731604294,
				"z": -0.7416693689,
				"element": "H" 
			},
			{
				"x": -1.1721393616,
				"y": 3.440920596,
				"z": -1.3398330323,
				"element": "H" 
			},
			{
				"x": 3.0923499167,
				"y": 0.7640278655,
				"z": -0.0240535341,
				"element": "H" 
			},
			{
				"x": 3.862756457,
				"y": -0.9923583786,
				"z": 1.5516010878,
				"element": "H" 
			},
			{
				"x": 2.2960937695,
				"y": -2.793437021,
				"z": 2.2626166266,
				"element": "H" 
			},
			{
				"x": -0.0117590324,
				"y": -2.8500037697,
				"z": 1.3580960043,
				"element": "H" 
			}
		],
		 "valence_orbital": [ 
			{
				"type": "occ",
				"energy": -0.29279,
				"method": "rhf"
			},
			{
				"type": "occ",
				"energy": -0.25494,
				"method": "rhf"
			},
			{
				"type": "occ",
				"energy": -0.24767,
				"method": "rhf"
			},
			{
				"type": "occ",
				"energy": -0.24617,
				"method": "rhf"
			},
			{
				"type": "occ",
				"energy": -0.20783,
				"method": "rhf"
			},
			{
				"type": "unocc",
				"energy": -0.00974,
				"method": "rhf"
			},
			{
				"type": "unocc",
				"energy": -0.0096,
				"method": "rhf"
			},
			{
				"type": "unocc",
				"energy": -0.00322,
				"method": "rhf"
			},
			{
				"type": "unocc",
				"energy": 0.00299,
				"method": "rhf"
			},
			{
				"type": "unocc",
				"energy": 0.03865,
				"method": "rhf"
			}
		],
		"cosmo_sigma_profile": { 
			"-0.025": 0.0,
			"-0.024": 0.0,
			"-0.023": 0.0,
			"-0.022": 0.0,
			"-0.021": 0.0,
			"-0.02": 0.0,
			"-0.019": 0.0,
			"-0.018": 0.0,
			"-0.017": 0.0,
			"-0.016": 0.0,
			"-0.015": 0.0,
			"-0.014": 0.0,
			"-0.013": 0.0,
			"-0.012": 0.0,
			"-0.011": 0.0,
			"-0.01": 0.0,
			"-0.009": 0.0,
			"-0.008": 0.0,
			"-0.007": 0.430261191729,
			"-0.006": 14.1906852883,
			"-0.005": 21.5900364569,
			"-0.004": 22.1065411674,
			"-0.003": 19.2513914167,
			"-0.002": 14.6679007768,
			"-0.001": 16.0311665948,
			"0.0": 12.5618534933,
			"0.001": 14.6484698102,
			"0.002": 15.8837061307,
			"0.003": 21.9923063243,
			"0.004": 22.313857303,
			"0.005": 22.2311240404,
			"0.006": 7.92578333647,
			"0.007": 2.09853835798,
			"0.008": 1.21717142994,
			"0.009": 0.0,
			"0.01": 0.0,
			"0.011": 0.0,
			"0.012": 0.0,
			"0.013": 0.0,
			"0.014": 0.0,
			"0.015": 0.0,
			"0.016": 0.0,
			"0.017": 0.0,
			"0.018": 0.0,
			"0.019": 0.0,
			"0.02": 0.0,
			"0.021": 0.0,
			"0.022": 0.0,
			"0.023": 0.0,
			"0.024": 0.0,
			"0.025": 0.0
		}
	}
}
