{
	 "smiles": "CCCCC(C)=O", 
	 "Tm": 216.95, 
	 "num_atms": 19, 
	 "gaussian": { 
		 "optdone": 1, 
		 "sigma_profile": "yes", 
		 "theory": "DFT", 
		 "functional": "B3LYP", 
		 "basiset": "6-31G**", 
		 "properties": { 
			 "R2extent": 2409.349, 
			 "electric_dipole_moment_norm": 2.64972944657, 
			 "electric_quadrupole_moment_norm": 16.9686869015, 
			 "total_energy": -311.106335857, 
			 "HOMO_LUMO_gap": 0.22684, 
			 "cosmo_polarized_energy": -6.76, 
			 "cosmo_cavitation_energy": 21.5, 
			 "cosmo_dispersion_energy": -15.32, 
			 "cosmo_repulsion_energy": 1.33, 
			 "cosmo_total_nonelectrostatic_energy": 7.5, 
			 "SMD_solvation_energy": 4.36 
		},
		"coords": [
			{
				"x": -0.5060341572,
				"y": -0.6417894852,
				"z": 1.93117996,
				"element": "C" 
			},
			{
				"x": -1.7045004933,
				"y": -0.499171879,
				"z": 0.9877228367,
				"element": "C" 
			},
			{
				"x": -1.3699653659,
				"y": 0.3066329641,
				"z": -0.2742302185,
				"element": "C" 
			},
			{
				"x": -2.5604513814,
				"y": 0.4795374307,
				"z": -1.2482529401,
				"element": "C" 
			},
			{
				"x": -3.6620584368,
				"y": 1.351142146,
				"z": -0.65637676,
				"element": "C" 
			},
			{
				"x": -3.5488772053,
				"y": 2.8498850133,
				"z": -0.8818317473,
				"element": "C" 
			},
			{
				"x": -4.5803223239,
				"y": 0.8702189708,
				"z": -0.0174443494,
				"element": "O" 
			},
			{
				"x": -0.1511434924,
				"y": 0.3368775915,
				"z": 2.2747514954,
				"element": "H" 
			},
			{
				"x": -0.7661198479,
				"y": -1.2290911565,
				"z": 2.8175799662,
				"element": "H" 
			},
			{
				"x": 0.3347573431,
				"y": -1.1417525738,
				"z": 1.43627519,
				"element": "H" 
			},
			{
				"x": -2.0611502897,
				"y": -1.4941488842,
				"z": 0.6905002996,
				"element": "H" 
			},
			{
				"x": -2.5410468896,
				"y": -0.0287172645,
				"z": 1.5165965884,
				"element": "H" 
			},
			{
				"x": -0.9808279561,
				"y": 1.294224583,
				"z": 0.0111969159,
				"element": "H" 
			},
			{
				"x": -0.5558447157,
				"y": -0.190594488,
				"z": -0.817026938,
				"element": "H" 
			},
			{
				"x": -2.1987583846,
				"y": 0.9222575301,
				"z": -2.1840735379,
				"element": "H" 
			},
			{
				"x": -2.9938378952,
				"y": -0.5002348974,
				"z": -1.4739689149,
				"element": "H" 
			},
			{
				"x": -3.7275617649,
				"y": 3.0751353778,
				"z": -1.9406329556,
				"element": "H" 
			},
			{
				"x": -2.5413970959,
				"y": 3.2117972451,
				"z": -0.6479205318,
				"element": "H" 
			},
			{
				"x": -4.2861596474,
				"y": 3.3755917762,
				"z": -0.2735443587,
				"element": "H" 
			}
		],
		 "valence_orbital": [ 
			{
				"type": "occ",
				"energy": -0.3499,
				"method": "rhf"
			},
			{
				"type": "occ",
				"energy": -0.33662,
				"method": "rhf"
			},
			{
				"type": "occ",
				"energy": -0.32719,
				"method": "rhf"
			},
			{
				"type": "occ",
				"energy": -0.3235,
				"method": "rhf"
			},
			{
				"type": "occ",
				"energy": -0.23873,
				"method": "rhf"
			},
			{
				"type": "unocc",
				"energy": -0.01189,
				"method": "rhf"
			},
			{
				"type": "unocc",
				"energy": 0.08281,
				"method": "rhf"
			},
			{
				"type": "unocc",
				"energy": 0.10715,
				"method": "rhf"
			},
			{
				"type": "unocc",
				"energy": 0.12303,
				"method": "rhf"
			},
			{
				"type": "unocc",
				"energy": 0.13983,
				"method": "rhf"
			}
		],
		"cosmo_sigma_profile": { 
			"-0.025": 0.0,
			"-0.024": 0.0,
			"-0.023": 0.0,
			"-0.022": 0.0,
			"-0.021": 0.0,
			"-0.02": 0.0,
			"-0.019": 0.0,
			"-0.018": 0.0,
			"-0.017": 0.0,
			"-0.016": 0.0,
			"-0.015": 0.0,
			"-0.014": 0.0,
			"-0.013": 0.0,
			"-0.012": 0.0,
			"-0.011": 0.0,
			"-0.01": 0.0,
			"-0.009": 0.0,
			"-0.008": 0.0,
			"-0.007": 0.0425754063829,
			"-0.006": 3.10426927079,
			"-0.005": 8.81284959095,
			"-0.004": 12.645283527,
			"-0.003": 17.0591398757,
			"-0.002": 28.3072632265,
			"-0.001": 28.3187998201,
			"0.0": 21.153819912,
			"0.001": 16.0168255269,
			"0.002": 5.96991422746,
			"0.003": 2.25000826401,
			"0.004": 1.96692084771,
			"0.005": 1.60623805898,
			"0.006": 1.45380317609,
			"0.007": 2.39322765126,
			"0.008": 1.65685573576,
			"0.009": 1.18465770717,
			"0.01": 1.62243959462,
			"0.011": 2.62715546486,
			"0.012": 4.17141801364,
			"0.013": 3.12726404126,
			"0.014": 0.972003993715,
			"0.015": 0.0,
			"0.016": 0.0,
			"0.017": 0.0,
			"0.018": 0.0,
			"0.019": 0.0,
			"0.02": 0.0,
			"0.021": 0.0,
			"0.022": 0.0,
			"0.023": 0.0,
			"0.024": 0.0,
			"0.025": 0.0
		}
	}
}
