{
	 "smiles": "CC(NC(=O)CCC(O)=O)C(=O)C1=CC=CC=C1", 
	 "Tm": 370.15, 
	 "num_atms": 33, 
	 "gaussian": { 
		 "optdone": 1, 
		 "sigma_profile": "yes", 
		 "theory": "DFT", 
		 "functional": "B3LYP", 
		 "basiset": "6-31G**", 
		 "properties": { 
			 "R2extent": 5036.7954, 
			 "electric_dipole_moment_norm": 6.09503478661, 
			 "electric_quadrupole_moment_norm": 15.9732684833, 
			 "total_energy": -860.105546617, 
			 "HOMO_LUMO_gap": 0.19177, 
			 "cosmo_polarized_energy": -25.99, 
			 "cosmo_cavitation_energy": 36.16, 
			 "cosmo_dispersion_energy": -24.15, 
			 "cosmo_repulsion_energy": 1.88, 
			 "cosmo_total_nonelectrostatic_energy": 13.89, 
			 "SMD_solvation_energy": 7.68 
		},
		"coords": [
			{
				"x": -2.8345633016,
				"y": -0.8178237333,
				"z": -2.1333477493,
				"element": "C" 
			},
			{
				"x": -1.769836179,
				"y": -0.4879172327,
				"z": -1.0846511343,
				"element": "C" 
			},
			{
				"x": -0.8901325218,
				"y": 0.6090649913,
				"z": -1.4946703795,
				"element": "N" 
			},
			{
				"x": 0.1114189766,
				"y": 0.429063334,
				"z": -2.4037078306,
				"element": "C" 
			},
			{
				"x": 0.3667490927,
				"y": -0.6741189942,
				"z": -2.8761043693,
				"element": "O" 
			},
			{
				"x": 0.892685599,
				"y": 1.6817637649,
				"z": -2.797272577,
				"element": "C" 
			},
			{
				"x": 2.3249255978,
				"y": 1.3286473639,
				"z": -3.2083496996,
				"element": "C" 
			},
			{
				"x": 3.1580868615,
				"y": 0.6624445014,
				"z": -2.1276168718,
				"element": "C" 
			},
			{
				"x": 2.6515691008,
				"y": 0.8700052037,
				"z": -0.8873858911,
				"element": "O" 
			},
			{
				"x": 4.1712351741,
				"y": 0.0331307427,
				"z": -2.3266171838,
				"element": "O" 
			},
			{
				"x": -0.9606558779,
				"y": -1.7503714978,
				"z": -0.6926346203,
				"element": "C" 
			},
			{
				"x": -1.3331592573,
				"y": -2.8494929704,
				"z": -1.0590297979,
				"element": "O" 
			},
			{
				"x": 0.2353607478,
				"y": -1.6083880594,
				"z": 0.2040837178,
				"element": "C" 
			},
			{
				"x": 0.3771011133,
				"y": -0.5700166912,
				"z": 1.1346242278,
				"element": "C" 
			},
			{
				"x": 1.4899571869,
				"y": -0.5224928361,
				"z": 1.9755291091,
				"element": "C" 
			},
			{
				"x": 2.4846309753,
				"y": -1.4988319591,
				"z": 1.8744191311,
				"element": "C" 
			},
			{
				"x": 2.3522364938,
				"y": -2.5353856989,
				"z": 0.943619185,
				"element": "C" 
			},
			{
				"x": 1.2277178603,
				"y": -2.596922621,
				"z": 0.1248788365,
				"element": "C" 
			},
			{
				"x": -3.4378101825,
				"y": 0.069363679,
				"z": -2.3477262997,
				"element": "H" 
			},
			{
				"x": -3.4869096366,
				"y": -1.6167447101,
				"z": -1.7756939004,
				"element": "H" 
			},
			{
				"x": -2.3551112066,
				"y": -1.1588698415,
				"z": -3.0529569516,
				"element": "H" 
			},
			{
				"x": -2.2649044861,
				"y": -0.1463425755,
				"z": -0.1649751016,
				"element": "H" 
			},
			{
				"x": -1.0693005078,
				"y": 1.5359831196,
				"z": -1.1398293239,
				"element": "H" 
			},
			{
				"x": 0.8892865229,
				"y": 2.4089961708,
				"z": -1.9796425603,
				"element": "H" 
			},
			{
				"x": 0.3794791234,
				"y": 2.1468714124,
				"z": -3.6486398082,
				"element": "H" 
			},
			{
				"x": 2.8603887853,
				"y": 2.230613527,
				"z": -3.5275555445,
				"element": "H" 
			},
			{
				"x": 2.3189380885,
				"y": 0.6399125318,
				"z": -4.0554730351,
				"element": "H" 
			},
			{
				"x": 3.1849081445,
				"y": 0.3449924198,
				"z": -0.2662983701,
				"element": "H" 
			},
			{
				"x": -0.3832163194,
				"y": 0.1998117934,
				"z": 1.2180555187,
				"element": "H" 
			},
			{
				"x": 1.5817953352,
				"y": 0.2758288954,
				"z": 2.7064334199,
				"element": "H" 
			},
			{
				"x": 3.3539396574,
				"y": -1.4592558354,
				"z": 2.5251502415,
				"element": "H" 
			},
			{
				"x": 3.1233983203,
				"y": -3.2956652744,
				"z": 0.8627043713,
				"element": "H" 
			},
			{
				"x": 1.1002907194,
				"y": -3.39875292,
				"z": -0.5942187588,
				"element": "H" 
			}
		],
		 "valence_orbital": [ 
			{
				"type": "occ",
				"energy": -0.26771,
				"method": "rhf"
			},
			{
				"type": "occ",
				"energy": -0.26208,
				"method": "rhf"
			},
			{
				"type": "occ",
				"energy": -0.25768,
				"method": "rhf"
			},
			{
				"type": "occ",
				"energy": -0.25641,
				"method": "rhf"
			},
			{
				"type": "occ",
				"energy": -0.24177,
				"method": "rhf"
			},
			{
				"type": "unocc",
				"energy": -0.05,
				"method": "rhf"
			},
			{
				"type": "unocc",
				"energy": -0.01035,
				"method": "rhf"
			},
			{
				"type": "unocc",
				"energy": 0.01654,
				"method": "rhf"
			},
			{
				"type": "unocc",
				"energy": 0.01771,
				"method": "rhf"
			},
			{
				"type": "unocc",
				"energy": 0.02758,
				"method": "rhf"
			}
		],
		"cosmo_sigma_profile": { 
			"-0.025": 0.0,
			"-0.024": 0.0,
			"-0.023": 0.0,
			"-0.022": 0.0,
			"-0.021": 0.0,
			"-0.02": 0.0,
			"-0.019": 0.0,
			"-0.018": 0.0,
			"-0.017": 0.0,
			"-0.016": 0.0,
			"-0.015": 0.360043891353,
			"-0.014": 1.93113109885,
			"-0.013": 1.86808303441,
			"-0.012": 2.06897879088,
			"-0.011": 2.44608398368,
			"-0.01": 2.90640938463,
			"-0.009": 3.82027137398,
			"-0.008": 5.68232091775,
			"-0.007": 8.59844380848,
			"-0.006": 18.3572384662,
			"-0.005": 22.6044644342,
			"-0.004": 25.8028486565,
			"-0.003": 22.2855791559,
			"-0.002": 17.7888131619,
			"-0.001": 15.5813032671,
			"0.0": 16.9648081326,
			"0.001": 14.2155434522,
			"0.002": 11.8031675149,
			"0.003": 11.2247598652,
			"0.004": 13.62306321,
			"0.005": 8.00325305169,
			"0.006": 7.06036474735,
			"0.007": 7.60194670375,
			"0.008": 5.68408639688,
			"0.009": 5.29035597444,
			"0.01": 6.00979707133,
			"0.011": 8.33929549186,
			"0.012": 11.3461646845,
			"0.013": 4.65004592406,
			"0.014": 1.05161702136,
			"0.015": 0.0,
			"0.016": 0.0,
			"0.017": 0.0,
			"0.018": 0.0,
			"0.019": 0.0,
			"0.02": 0.0,
			"0.021": 0.0,
			"0.022": 0.0,
			"0.023": 0.0,
			"0.024": 0.0,
			"0.025": 0.0
		}
	}
}
