{
	 "smiles": "CC1=CC(Br)=CC(C)=C1N1CCCC1=O", 
	 "Tm": 377.15, 
	 "num_atms": 29, 
	 "gaussian": { 
		 "optdone": 1, 
		 "sigma_profile": "yes", 
		 "theory": "DFT", 
		 "functional": "B3LYP", 
		 "basiset": "6-31G**", 
		 "properties": { 
			 "R2extent": 5943.7446, 
			 "electric_dipole_moment_norm": 4.54380521369, 
			 "electric_quadrupole_moment_norm": 13.8312500404, 
			 "total_energy": -3167.1257128, 
			 "HOMO_LUMO_gap": 0.21433, 
			 "cosmo_polarized_energy": -12.0, 
			 "cosmo_cavitation_energy": 33.28, 
			 "cosmo_dispersion_energy": -23.77, 
			 "cosmo_repulsion_energy": 1.86, 
			 "cosmo_total_nonelectrostatic_energy": 11.37, 
			 "SMD_solvation_energy": 5.2 
		},
		"coords": [
			{
				"x": -0.1147272164,
				"y": -1.2875579715,
				"z": -1.103314058,
				"element": "C" 
			},
			{
				"x": -0.6932025079,
				"y": -0.4263380464,
				"z": -0.0082526622,
				"element": "C" 
			},
			{
				"x": -1.9577040445,
				"y": 0.1491443947,
				"z": -0.1718079563,
				"element": "C" 
			},
			{
				"x": -2.4907701149,
				"y": 0.9549561678,
				"z": 0.8280733835,
				"element": "C" 
			},
			{
				"x": -4.2259525218,
				"y": 1.7236583338,
				"z": 0.5879381223,
				"element": "Br" 
			},
			{
				"x": -1.7856898523,
				"y": 1.2171115458,
				"z": 1.9967275459,
				"element": "C" 
			},
			{
				"x": -0.516001992,
				"y": 0.6600580373,
				"z": 2.1852438098,
				"element": "C" 
			},
			{
				"x": 0.2536055455,
				"y": 0.9713243887,
				"z": 3.4465857887,
				"element": "C" 
			},
			{
				"x": 0.0189455058,
				"y": -0.1693826242,
				"z": 1.1803966895,
				"element": "C" 
			},
			{
				"x": 1.3025693938,
				"y": -0.7655809872,
				"z": 1.3835387639,
				"element": "N" 
			},
			{
				"x": 1.4976832661,
				"y": -1.9251924852,
				"z": 2.2617571471,
				"element": "C" 
			},
			{
				"x": 3.0321042894,
				"y": -2.036649309,
				"z": 2.3651687942,
				"element": "C" 
			},
			{
				"x": 3.5305412562,
				"y": -1.426787387,
				"z": 1.0472004667,
				"element": "C" 
			},
			{
				"x": 2.4193296053,
				"y": -0.4635749646,
				"z": 0.624737189,
				"element": "C" 
			},
			{
				"x": 2.4838282057,
				"y": 0.3971352368,
				"z": -0.2360542039,
				"element": "O" 
			},
			{
				"x": 0.718878818,
				"y": -0.7716834377,
				"z": -1.5904958577,
				"element": "H" 
			},
			{
				"x": -0.8711497961,
				"y": -1.5191233048,
				"z": -1.8570600947,
				"element": "H" 
			},
			{
				"x": 0.272783703,
				"y": -2.233784748,
				"z": -0.710530245,
				"element": "H" 
			},
			{
				"x": -2.5223390503,
				"y": -0.0364716157,
				"z": -1.0786827537,
				"element": "H" 
			},
			{
				"x": -2.2127486985,
				"y": 1.8620438507,
				"z": 2.7567197709,
				"element": "H" 
			},
			{
				"x": 1.3173168864,
				"y": 1.1115631181,
				"z": 3.2368063388,
				"element": "H" 
			},
			{
				"x": -0.1279590933,
				"y": 1.8806926828,
				"z": 3.9175588921,
				"element": "H" 
			},
			{
				"x": 0.1686492676,
				"y": 0.1641564327,
				"z": 4.1851819262,
				"element": "H" 
			},
			{
				"x": 1.0190090518,
				"y": -1.7681669327,
				"z": 3.2323161434,
				"element": "H" 
			},
			{
				"x": 1.0507664959,
				"y": -2.8253085253,
				"z": 1.8144788069,
				"element": "H" 
			},
			{
				"x": 3.3584505232,
				"y": -3.067044047,
				"z": 2.5248503236,
				"element": "H" 
			},
			{
				"x": 3.3858377227,
				"y": -1.4393759047,
				"z": 3.2117349345,
				"element": "H" 
			},
			{
				"x": 4.4829666512,
				"y": -0.8979586487,
				"z": 1.1210331413,
				"element": "H" 
			},
			{
				"x": 3.6368787003,
				"y": -2.1809632495,
				"z": 0.2573498535,
				"element": "H" 
			}
		],
		 "valence_orbital": [ 
			{
				"type": "occ",
				"energy": -0.28382,
				"method": "rhf"
			},
			{
				"type": "occ",
				"energy": -0.25794,
				"method": "rhf"
			},
			{
				"type": "occ",
				"energy": -0.24891,
				"method": "rhf"
			},
			{
				"type": "occ",
				"energy": -0.24494,
				"method": "rhf"
			},
			{
				"type": "occ",
				"energy": -0.23196,
				"method": "rhf"
			},
			{
				"type": "unocc",
				"energy": -0.01763,
				"method": "rhf"
			},
			{
				"type": "unocc",
				"energy": -0.0085,
				"method": "rhf"
			},
			{
				"type": "unocc",
				"energy": 0.01018,
				"method": "rhf"
			},
			{
				"type": "unocc",
				"energy": 0.02667,
				"method": "rhf"
			},
			{
				"type": "unocc",
				"energy": 0.06407,
				"method": "rhf"
			}
		],
		"cosmo_sigma_profile": { 
			"-0.025": 0.0,
			"-0.024": 0.0,
			"-0.023": 0.0,
			"-0.022": 0.0,
			"-0.021": 0.0,
			"-0.02": 0.0,
			"-0.019": 0.0,
			"-0.018": 0.0,
			"-0.017": 0.0,
			"-0.016": 0.0,
			"-0.015": 0.0,
			"-0.014": 0.0,
			"-0.013": 0.0,
			"-0.012": 0.0,
			"-0.011": 0.0,
			"-0.01": 0.0,
			"-0.009": 0.0,
			"-0.008": 0.0,
			"-0.007": 1.15820690178,
			"-0.006": 7.69616997794,
			"-0.005": 18.0946486929,
			"-0.004": 32.4919200233,
			"-0.003": 32.2902711268,
			"-0.002": 28.3962580464,
			"-0.001": 27.6104405138,
			"0.0": 23.2404318033,
			"0.001": 13.5369325334,
			"0.002": 14.9541023119,
			"0.003": 17.6696262508,
			"0.004": 17.2415541061,
			"0.005": 10.4258081159,
			"0.006": 1.81582529663,
			"0.007": 1.23976954877,
			"0.008": 1.79490122219,
			"0.009": 1.7016141183,
			"0.01": 1.58634735258,
			"0.011": 1.3345325796,
			"0.012": 2.72859225131,
			"0.013": 3.24610350119,
			"0.014": 4.54036461715,
			"0.015": 1.15761717295,
			"0.016": 0.0,
			"0.017": 0.0,
			"0.018": 0.0,
			"0.019": 0.0,
			"0.02": 0.0,
			"0.021": 0.0,
			"0.022": 0.0,
			"0.023": 0.0,
			"0.024": 0.0,
			"0.025": 0.0
		}
	}
}
