{
	 "smiles": "CC1=CC=C(C=C1)S(=O)(=O)N1CCCN(CCN(CCC1)S(=O)(=O)C1=CC=C(C)C=C1)S(=O)(=O)C1=CC=C(C)C=C1", 
	 "Tm": 511.15, 
	 "num_atms": 78, 
	 "gaussian": { 
		 "optdone": 1, 
		 "sigma_profile": "yes", 
		 "theory": "DFT", 
		 "functional": "B3LYP", 
		 "basiset": "6-31G**", 
		 "properties": { 
			 "R2extent": 23601.6323, 
			 "electric_dipole_moment_norm": 3.92804445367, 
			 "electric_quadrupole_moment_norm": 65.5721883823, 
			 "total_energy": -2937.34464116, 
			 "HOMO_LUMO_gap": 0.19728, 
			 "cosmo_polarized_energy": -32.13, 
			 "cosmo_cavitation_energy": 77.1, 
			 "cosmo_dispersion_energy": -47.45, 
			 "cosmo_repulsion_energy": 3.38, 
			 "cosmo_total_nonelectrostatic_energy": 33.03, 
			 "SMD_solvation_energy": 9.43 
		},
		"coords": [
			{
				"x": -4.5792214989,
				"y": -1.1960138318,
				"z": -5.8682964117,
				"element": "C" 
			},
			{
				"x": -4.150073705,
				"y": -0.2242486981,
				"z": -4.7962153408,
				"element": "C" 
			},
			{
				"x": -4.9641023861,
				"y": 0.0320262126,
				"z": -3.6859749033,
				"element": "C" 
			},
			{
				"x": -4.5586084891,
				"y": 0.9104248276,
				"z": -2.6799743066,
				"element": "C" 
			},
			{
				"x": -3.3177231446,
				"y": 1.5369191344,
				"z": -2.7857781583,
				"element": "C" 
			},
			{
				"x": -2.4928390746,
				"y": 1.3155080406,
				"z": -3.8928369005,
				"element": "C" 
			},
			{
				"x": -2.9132692247,
				"y": 0.4368254609,
				"z": -4.8859894987,
				"element": "C" 
			},
			{
				"x": -2.7954176884,
				"y": 2.689177091,
				"z": -1.5160384975,
				"element": "S" 
			},
			{
				"x": -2.1138441904,
				"y": 3.8209027999,
				"z": -2.1549699323,
				"element": "O" 
			},
			{
				"x": -3.945307146,
				"y": 2.926279264,
				"z": -0.6304567447,
				"element": "O" 
			},
			{
				"x": -1.5751692731,
				"y": 1.8022375738,
				"z": -0.7081429408,
				"element": "N" 
			},
			{
				"x": -2.1174027527,
				"y": 0.7398514176,
				"z": 0.1750825597,
				"element": "C" 
			},
			{
				"x": -1.0982189366,
				"y": -0.3886236682,
				"z": 0.3652594816,
				"element": "C" 
			},
			{
				"x": -0.89942274,
				"y": -1.2118309553,
				"z": -0.9176774362,
				"element": "C" 
			},
			{
				"x": 0.430262321,
				"y": -1.8281702057,
				"z": -1.0554584279,
				"element": "N" 
			},
			{
				"x": 1.4131508804,
				"y": -1.2379482019,
				"z": -1.9698052671,
				"element": "C" 
			},
			{
				"x": 2.5003764702,
				"y": -0.3441062129,
				"z": -1.3548510964,
				"element": "C" 
			},
			{
				"x": 2.0148960227,
				"y": 0.8621827379,
				"z": -0.6358732631,
				"element": "N" 
			},
			{
				"x": 1.425758953,
				"y": 1.8716454352,
				"z": -1.5581653749,
				"element": "C" 
			},
			{
				"x": 0.6445375624,
				"y": 3.0311823655,
				"z": -0.9332857918,
				"element": "C" 
			},
			{
				"x": -0.5564690611,
				"y": 2.6718297908,
				"z": -0.0522675388,
				"element": "C" 
			},
			{
				"x": 3.2243187578,
				"y": 1.4968986806,
				"z": 0.4287630424,
				"element": "S" 
			},
			{
				"x": 4.1152874054,
				"y": 0.3808838173,
				"z": 0.7721047725,
				"element": "O" 
			},
			{
				"x": 3.7717776147,
				"y": 2.7430988243,
				"z": -0.12656656,
				"element": "O" 
			},
			{
				"x": 2.3181770278,
				"y": 1.915706446,
				"z": 1.9193746805,
				"element": "C" 
			},
			{
				"x": 2.2632043214,
				"y": 3.2439865384,
				"z": 2.3368398345,
				"element": "C" 
			},
			{
				"x": 1.6039581045,
				"y": 3.555876937,
				"z": 3.5274282866,
				"element": "C" 
			},
			{
				"x": 1.0071545944,
				"y": 2.5588249878,
				"z": 4.3084311441,
				"element": "C" 
			},
			{
				"x": 0.308421592,
				"y": 2.8961666826,
				"z": 5.6032564868,
				"element": "C" 
			},
			{
				"x": 1.093154619,
				"y": 1.2262180115,
				"z": 3.8702677384,
				"element": "C" 
			},
			{
				"x": 1.7505885236,
				"y": 0.8953987969,
				"z": 2.6894732723,
				"element": "C" 
			},
			{
				"x": 0.6717603579,
				"y": -3.3872619283,
				"z": -0.474798825,
				"element": "S" 
			},
			{
				"x": -0.6446599744,
				"y": -4.0289395687,
				"z": -0.3832150393,
				"element": "O" 
			},
			{
				"x": 1.763142322,
				"y": -3.9706220238,
				"z": -1.2629165509,
				"element": "O" 
			},
			{
				"x": 1.2764854547,
				"y": -3.2190327221,
				"z": 1.2105721464,
				"element": "C" 
			},
			{
				"x": 0.3805949357,
				"y": -3.3079769391,
				"z": 2.27586515,
				"element": "C" 
			},
			{
				"x": 0.8557119171,
				"y": -3.1626948814,
				"z": 3.5803598295,
				"element": "C" 
			},
			{
				"x": 2.2138169151,
				"y": -2.9317321874,
				"z": 3.8370743425,
				"element": "C" 
			},
			{
				"x": 2.7264009046,
				"y": -2.7613391554,
				"z": 5.2470322949,
				"element": "C" 
			},
			{
				"x": 3.0962745383,
				"y": -2.8623314124,
				"z": 2.7466089877,
				"element": "C" 
			},
			{
				"x": 2.6395079917,
				"y": -3.0097229425,
				"z": 1.4399509246,
				"element": "C" 
			},
			{
				"x": -4.3216730587,
				"y": -0.8285317571,
				"z": -6.8664647365,
				"element": "H" 
			},
			{
				"x": -4.0794411523,
				"y": -2.1640392595,
				"z": -5.7406592907,
				"element": "H" 
			},
			{
				"x": -5.6570960182,
				"y": -1.3757048308,
				"z": -5.8383495624,
				"element": "H" 
			},
			{
				"x": -5.931489246,
				"y": -0.4565470892,
				"z": -3.6078939082,
				"element": "H" 
			},
			{
				"x": -5.1963600373,
				"y": 1.1251324269,
				"z": -1.82937766,
				"element": "H" 
			},
			{
				"x": -1.5485252527,
				"y": 1.8423322456,
				"z": -3.9796674221,
				"element": "H" 
			},
			{
				"x": -2.2780630483,
				"y": 0.2656508934,
				"z": -5.7511567674,
				"element": "H" 
			},
			{
				"x": -3.023924283,
				"y": 0.338859387,
				"z": -0.2884248388,
				"element": "H" 
			},
			{
				"x": -2.420409828,
				"y": 1.1615775864,
				"z": 1.1425352339,
				"element": "H" 
			},
			{
				"x": -0.1338092787,
				"y": 0.0246558803,
				"z": 0.6683643797,
				"element": "H" 
			},
			{
				"x": -1.4409899879,
				"y": -1.0320175556,
				"z": 1.1836321976,
				"element": "H" 
			},
			{
				"x": -1.0232555197,
				"y": -0.555475159,
				"z": -1.7834604166,
				"element": "H" 
			},
			{
				"x": -1.6589120518,
				"y": -1.9937261412,
				"z": -0.9947394834,
				"element": "H" 
			},
			{
				"x": 0.8503502194,
				"y": -0.7023997017,
				"z": -2.7407646394,
				"element": "H" 
			},
			{
				"x": 1.9434997545,
				"y": -2.0466209828,
				"z": -2.4791208554,
				"element": "H" 
			},
			{
				"x": 3.1767314797,
				"y": -0.0575331893,
				"z": -2.1769706238,
				"element": "H" 
			},
			{
				"x": 3.0868540533,
				"y": -0.9317791868,
				"z": -0.6518767363,
				"element": "H" 
			},
			{
				"x": 2.208732726,
				"y": 2.2876616559,
				"z": -2.2065070621,
				"element": "H" 
			},
			{
				"x": 0.7354451528,
				"y": 1.3107477216,
				"z": -2.1915121877,
				"element": "H" 
			},
			{
				"x": 0.2933357211,
				"y": 3.6491891021,
				"z": -1.7644311644,
				"element": "H" 
			},
			{
				"x": 1.3145564726,
				"y": 3.6647503297,
				"z": -0.3449217101,
				"element": "H" 
			},
			{
				"x": -0.2192280594,
				"y": 2.1262078323,
				"z": 0.8297259774,
				"element": "H" 
			},
			{
				"x": -1.013473283,
				"y": 3.5990597234,
				"z": 0.3139091293,
				"element": "H" 
			},
			{
				"x": 2.7357704486,
				"y": 4.0149401371,
				"z": 1.7382552611,
				"element": "H" 
			},
			{
				"x": 1.5563137392,
				"y": 4.5913479727,
				"z": 3.8531944601,
				"element": "H" 
			},
			{
				"x": 0.9129797298,
				"y": 2.5912906145,
				"z": 6.4660258382,
				"element": "H" 
			},
			{
				"x": 0.1241620983,
				"y": 3.9698832001,
				"z": 5.691664774,
				"element": "H" 
			},
			{
				"x": -0.6528087385,
				"y": 2.3783528841,
				"z": 5.6843303832,
				"element": "H" 
			},
			{
				"x": 0.6428713306,
				"y": 0.4355570777,
				"z": 4.4648606044,
				"element": "H" 
			},
			{
				"x": 1.8284546177,
				"y": -0.1390396623,
				"z": 2.3735192788,
				"element": "H" 
			},
			{
				"x": -0.6665136632,
				"y": -3.5127169538,
				"z": 2.0817848767,
				"element": "H" 
			},
			{
				"x": 0.1604205584,
				"y": -3.2434640457,
				"z": 4.4119032987,
				"element": "H" 
			},
			{
				"x": 3.0884787947,
				"y": -1.7398722722,
				"z": 5.4129075009,
				"element": "H" 
			},
			{
				"x": 1.9462846911,
				"y": -2.9650511355,
				"z": 5.9853371765,
				"element": "H" 
			},
			{
				"x": 3.5660587288,
				"y": -3.4351260176,
				"z": 5.4479827761,
				"element": "H" 
			},
			{
				"x": 4.1552485649,
				"y": -2.6942968898,
				"z": 2.9218996889,
				"element": "H" 
			},
			{
				"x": 3.3346528033,
				"y": -2.98461118,
				"z": 0.6083760613,
				"element": "H" 
			}
		],
		 "valence_orbital": [ 
			{
				"type": "occ",
				"energy": -0.27108,
				"method": "rhf"
			},
			{
				"type": "occ",
				"energy": -0.26901,
				"method": "rhf"
			},
			{
				"type": "occ",
				"energy": -0.25425,
				"method": "rhf"
			},
			{
				"type": "occ",
				"energy": -0.25187,
				"method": "rhf"
			},
			{
				"type": "occ",
				"energy": -0.23997,
				"method": "rhf"
			},
			{
				"type": "unocc",
				"energy": -0.04269,
				"method": "rhf"
			},
			{
				"type": "unocc",
				"energy": -0.04149,
				"method": "rhf"
			},
			{
				"type": "unocc",
				"energy": -0.03624,
				"method": "rhf"
			},
			{
				"type": "unocc",
				"energy": -0.02714,
				"method": "rhf"
			},
			{
				"type": "unocc",
				"energy": -0.02585,
				"method": "rhf"
			}
		],
		"cosmo_sigma_profile": { 
			"-0.025": 0.0,
			"-0.024": 0.0,
			"-0.023": 0.0,
			"-0.022": 0.0,
			"-0.021": 0.0,
			"-0.02": 0.0,
			"-0.019": 0.0,
			"-0.018": 0.0,
			"-0.017": 0.0,
			"-0.016": 0.0,
			"-0.015": 0.0,
			"-0.014": 0.0,
			"-0.013": 0.0,
			"-0.012": 0.0,
			"-0.011": 0.0,
			"-0.01": 0.0498100487649,
			"-0.009": 0.0752268767764,
			"-0.008": 0.376894075726,
			"-0.007": 8.66952877049,
			"-0.006": 27.5858327169,
			"-0.005": 53.7267661198,
			"-0.004": 63.6138343482,
			"-0.003": 62.2588749309,
			"-0.002": 57.6674363709,
			"-0.001": 68.5719745927,
			"0.0": 52.8684958669,
			"0.001": 34.9309785409,
			"0.002": 33.5440632276,
			"0.003": 35.3594039025,
			"0.004": 13.8934974263,
			"0.005": 10.2360904961,
			"0.006": 7.94322838544,
			"0.007": 7.84772975233,
			"0.008": 10.8633626972,
			"0.009": 10.7462701503,
			"0.01": 15.8794115896,
			"0.011": 21.5231675241,
			"0.012": 11.2592270647,
			"0.013": 0.0607982158272,
			"0.014": 0.0,
			"0.015": 0.0,
			"0.016": 0.0,
			"0.017": 0.0,
			"0.018": 0.0,
			"0.019": 0.0,
			"0.02": 0.0,
			"0.021": 0.0,
			"0.022": 0.0,
			"0.023": 0.0,
			"0.024": 0.0,
			"0.025": 0.0
		}
	}
}
