{
	 "smiles": "NC(=O)C1=CC(F)=C(Cl)C=C1Cl", 
	 "Tm": 432.15, 
	 "num_atms": 16, 
	 "gaussian": { 
		 "optdone": 1, 
		 "sigma_profile": "yes", 
		 "theory": "DFT", 
		 "functional": "B3LYP", 
		 "basiset": "6-31G**", 
		 "properties": { 
			 "R2extent": 3309.327, 
			 "electric_dipole_moment_norm": 3.43988096596, 
			 "electric_quadrupole_moment_norm": 19.5875845657, 
			 "total_energy": -1419.3547799, 
			 "HOMO_LUMO_gap": 0.20007, 
			 "cosmo_polarized_energy": -13.9, 
			 "cosmo_cavitation_energy": 25.26, 
			 "cosmo_dispersion_energy": -18.58, 
			 "cosmo_repulsion_energy": 1.49, 
			 "cosmo_total_nonelectrostatic_energy": 8.16, 
			 "SMD_solvation_energy": 5.13 
		},
		"coords": [
			{
				"x": 1.8730406212,
				"y": -2.0832773925,
				"z": -2.3642561756,
				"element": "N" 
			},
			{
				"x": 1.5247318826,
				"y": -2.1788960622,
				"z": -1.0395846045,
				"element": "C" 
			},
			{
				"x": 1.4201667803,
				"y": -3.2442826616,
				"z": -0.4572521628,
				"element": "O" 
			},
			{
				"x": 1.2034197724,
				"y": -0.8535389197,
				"z": -0.3868554988,
				"element": "C" 
			},
			{
				"x": 0.3628329402,
				"y": 0.0452050333,
				"z": -1.0577430126,
				"element": "C" 
			},
			{
				"x": -0.0171260474,
				"y": 1.2416708836,
				"z": -0.4673932532,
				"element": "C" 
			},
			{
				"x": -0.8320689096,
				"y": 2.073401019,
				"z": -1.1300516026,
				"element": "F" 
			},
			{
				"x": 0.4413632637,
				"y": 1.5809640209,
				"z": 0.8059988048,
				"element": "C" 
			},
			{
				"x": -0.040393305,
				"y": 3.0881348928,
				"z": 1.5310770043,
				"element": "Cl" 
			},
			{
				"x": 1.2868518888,
				"y": 0.7046831642,
				"z": 1.4839098022,
				"element": "C" 
			},
			{
				"x": 1.6578581341,
				"y": -0.5050325094,
				"z": 0.8954810583,
				"element": "C" 
			},
			{
				"x": 2.750559173,
				"y": -1.5331875503,
				"z": 1.7948288029,
				"element": "Cl" 
			},
			{
				"x": 2.1638886646,
				"y": -2.9415333823,
				"z": -2.8109175591,
				"element": "H" 
			},
			{
				"x": 2.2203649168,
				"y": -1.2163831135,
				"z": -2.744522341,
				"element": "H" 
			},
			{
				"x": -0.0259960121,
				"y": -0.1954252573,
				"z": -2.0411306486,
				"element": "H" 
			},
			{
				"x": 1.6562062365,
				"y": 0.9663978349,
				"z": 2.4679113864,
				"element": "H" 
			}
		],
		 "valence_orbital": [ 
			{
				"type": "occ",
				"energy": -0.32273,
				"method": "rhf"
			},
			{
				"type": "occ",
				"energy": -0.28453,
				"method": "rhf"
			},
			{
				"type": "occ",
				"energy": -0.28017,
				"method": "rhf"
			},
			{
				"type": "occ",
				"energy": -0.26473,
				"method": "rhf"
			},
			{
				"type": "occ",
				"energy": -0.25454,
				"method": "rhf"
			},
			{
				"type": "unocc",
				"energy": -0.05447,
				"method": "rhf"
			},
			{
				"type": "unocc",
				"energy": -0.03412,
				"method": "rhf"
			},
			{
				"type": "unocc",
				"energy": -0.00296,
				"method": "rhf"
			},
			{
				"type": "unocc",
				"energy": 0.02635,
				"method": "rhf"
			},
			{
				"type": "unocc",
				"energy": 0.03993,
				"method": "rhf"
			}
		],
		"cosmo_sigma_profile": { 
			"-0.025": 0.0,
			"-0.024": 0.0,
			"-0.023": 0.0,
			"-0.022": 0.0,
			"-0.021": 0.0,
			"-0.02": 0.0,
			"-0.019": 0.0,
			"-0.018": 0.0,
			"-0.017": 0.0,
			"-0.016": 0.0,
			"-0.015": 0.691942096276,
			"-0.014": 2.29273303119,
			"-0.013": 2.76106860885,
			"-0.012": 2.00880656047,
			"-0.011": 2.06827775712,
			"-0.01": 2.71832371336,
			"-0.009": 5.02609951157,
			"-0.008": 4.20415080173,
			"-0.007": 5.14292890113,
			"-0.006": 4.9551054758,
			"-0.005": 5.10246893073,
			"-0.004": 5.41362188977,
			"-0.003": 10.4352235785,
			"-0.002": 18.015312489,
			"-0.001": 20.6141227255,
			"0.0": 20.3979689766,
			"0.001": 12.8676432009,
			"0.002": 16.1695541637,
			"0.003": 25.6527573412,
			"0.004": 15.8476689298,
			"0.005": 3.35590004102,
			"0.006": 1.78466400796,
			"0.007": 1.99324427314,
			"0.008": 1.77014825473,
			"0.009": 1.64135933029,
			"0.01": 1.83096066328,
			"0.011": 2.25273258535,
			"0.012": 3.74875854745,
			"0.013": 5.46044099668,
			"0.014": 1.12441026097,
			"0.015": 0.0,
			"0.016": 0.0,
			"0.017": 0.0,
			"0.018": 0.0,
			"0.019": 0.0,
			"0.02": 0.0,
			"0.021": 0.0,
			"0.022": 0.0,
			"0.023": 0.0,
			"0.024": 0.0,
			"0.025": 0.0
		}
	}
}
