{
	 "smiles": "OC(=O)CN1C=NC(=N1)[N+]([O-])=O", 
	 "Tm": 461.15, 
	 "num_atms": 16, 
	 "gaussian": { 
		 "optdone": 1, 
		 "sigma_profile": "yes", 
		 "theory": "DFT", 
		 "functional": "B3LYP", 
		 "basiset": "6-31G**", 
		 "properties": { 
			 "R2extent": 2590.0408, 
			 "electric_dipole_moment_norm": 8.16349388314, 
			 "electric_quadrupole_moment_norm": 8.11851506188, 
			 "total_energy": -674.610488503, 
			 "HOMO_LUMO_gap": 0.20288, 
			 "cosmo_polarized_energy": -21.4, 
			 "cosmo_cavitation_energy": 23.02, 
			 "cosmo_dispersion_energy": -16.86, 
			 "cosmo_repulsion_energy": 1.37, 
			 "cosmo_total_nonelectrostatic_energy": 7.53, 
			 "SMD_solvation_energy": 5.36 
		},
		"coords": [
			{
				"x": -0.5026545815,
				"y": -3.6224583399,
				"z": -0.0486813169,
				"element": "O" 
			},
			{
				"x": 0.039583481,
				"y": -2.4280279579,
				"z": -0.3458414199,
				"element": "C" 
			},
			{
				"x": 0.6261811314,
				"y": -2.1790716119,
				"z": -1.3716467283,
				"element": "O" 
			},
			{
				"x": -0.1616181496,
				"y": -1.4711348367,
				"z": 0.8214490486,
				"element": "C" 
			},
			{
				"x": 0.1550848122,
				"y": -0.0965744074,
				"z": 0.4805034741,
				"element": "N" 
			},
			{
				"x": 1.2412918606,
				"y": 0.4360725178,
				"z": -0.1448738052,
				"element": "C" 
			},
			{
				"x": 1.1364872354,
				"y": 1.750543772,
				"z": -0.1956108815,
				"element": "N" 
			},
			{
				"x": -0.046056704,
				"y": 1.9593627529,
				"z": 0.4224100509,
				"element": "C" 
			},
			{
				"x": -0.6900019141,
				"y": 0.8887807211,
				"z": 0.856062388,
				"element": "N" 
			},
			{
				"x": -0.6081726063,
				"y": 3.2951843799,
				"z": 0.6144025555,
				"element": "N" 
			},
			{
				"x": -1.6956751301,
				"y": 3.3615819183,
				"z": 1.1799255375,
				"element": "O" 
			},
			{
				"x": 0.054636608,
				"y": 4.2365582832,
				"z": 0.1954603354,
				"element": "O" 
			},
			{
				"x": -0.3238186024,
				"y": -4.213835986,
				"z": -0.799859691,
				"element": "H" 
			},
			{
				"x": -1.2011146889,
				"y": -1.4904181288,
				"z": 1.1517971057,
				"element": "H" 
			},
			{
				"x": 0.4566804412,
				"y": -1.8167137219,
				"z": 1.6587487354,
				"element": "H" 
			},
			{
				"x": 2.039566807,
				"y": -0.1635493547,
				"z": -0.5541453884,
				"element": "H" 
			}
		],
		 "valence_orbital": [ 
			{
				"type": "occ",
				"energy": -0.31437,
				"method": "rhf"
			},
			{
				"type": "occ",
				"energy": -0.30741,
				"method": "rhf"
			},
			{
				"type": "occ",
				"energy": -0.30641,
				"method": "rhf"
			},
			{
				"type": "occ",
				"energy": -0.30019,
				"method": "rhf"
			},
			{
				"type": "occ",
				"energy": -0.28835,
				"method": "rhf"
			},
			{
				"type": "unocc",
				"energy": -0.08547,
				"method": "rhf"
			},
			{
				"type": "unocc",
				"energy": -0.03558,
				"method": "rhf"
			},
			{
				"type": "unocc",
				"energy": -0.0219,
				"method": "rhf"
			},
			{
				"type": "unocc",
				"energy": 0.04127,
				"method": "rhf"
			},
			{
				"type": "unocc",
				"energy": 0.05102,
				"method": "rhf"
			}
		],
		"cosmo_sigma_profile": { 
			"-0.025": 0.0,
			"-0.024": 0.0,
			"-0.023": 0.0,
			"-0.022": 0.0,
			"-0.021": 0.0,
			"-0.02": 0.12503789851,
			"-0.019": 1.0987335196,
			"-0.018": 1.09349217325,
			"-0.017": 0.692615954835,
			"-0.016": 0.563766496118,
			"-0.015": 1.25991241974,
			"-0.014": 0.400576102413,
			"-0.013": 0.580141347206,
			"-0.012": 1.96870023678,
			"-0.011": 6.18300147372,
			"-0.01": 7.22977278707,
			"-0.009": 6.74001856773,
			"-0.008": 7.39834095844,
			"-0.007": 7.53142760468,
			"-0.006": 6.42767584979,
			"-0.005": 9.18801815829,
			"-0.004": 8.2820043095,
			"-0.003": 7.90614856976,
			"-0.002": 6.93138871131,
			"-0.001": 6.20567667994,
			"0.0": 6.44321303766,
			"0.001": 5.73255938697,
			"0.002": 6.75747465738,
			"0.003": 5.30539452726,
			"0.004": 6.87280135552,
			"0.005": 6.85746226967,
			"0.006": 9.66244762625,
			"0.007": 14.3222519934,
			"0.008": 11.2740579716,
			"0.009": 8.69416837201,
			"0.01": 6.63467694452,
			"0.011": 3.94704136045,
			"0.012": 2.23709982511,
			"0.013": 1.38446970884,
			"0.014": 0.937399506826,
			"0.015": 0.080992590794,
			"0.016": 0.0,
			"0.017": 0.0,
			"0.018": 0.0,
			"0.019": 0.0,
			"0.02": 0.0,
			"0.021": 0.0,
			"0.022": 0.0,
			"0.023": 0.0,
			"0.024": 0.0,
			"0.025": 0.0
		}
	}
}
