{
	 "smiles": "CC1=NNC(=N)NC2=C1C(=O)N(C1=CC=CC=C1)C1=CC=CC=C21", 
	 "Tm": 500.15, 
	 "num_atms": 39, 
	 "gaussian": { 
		 "optdone": 1, 
		 "sigma_profile": "yes", 
		 "theory": "DFT", 
		 "functional": "B3LYP", 
		 "basiset": "6-31G**", 
		 "properties": { 
			 "R2extent": 8519.0177, 
			 "electric_dipole_moment_norm": 3.99800712731, 
			 "electric_quadrupole_moment_norm": 11.745967786, 
			 "total_energy": -1043.92068613, 
			 "HOMO_LUMO_gap": 0.15175, 
			 "cosmo_polarized_energy": -20.74, 
			 "cosmo_cavitation_energy": 42.29, 
			 "cosmo_dispersion_energy": -29.84, 
			 "cosmo_repulsion_energy": 2.24, 
			 "cosmo_total_nonelectrostatic_energy": 14.69, 
			 "SMD_solvation_energy": 5.61 
		},
		"coords": [
			{
				"x": -2.8603717973,
				"y": 0.7342176585,
				"z": 0.8289161549,
				"element": "C" 
			},
			{
				"x": -2.0039412469,
				"y": 1.3721777336,
				"z": -0.239393528,
				"element": "C" 
			},
			{
				"x": -2.6499341462,
				"y": 2.0948646559,
				"z": -1.0878990939,
				"element": "N" 
			},
			{
				"x": -1.9079851199,
				"y": 2.7396683058,
				"z": -2.1128848587,
				"element": "N" 
			},
			{
				"x": -1.3203032866,
				"y": 1.9834466044,
				"z": -3.1291414388,
				"element": "C" 
			},
			{
				"x": -1.3348761574,
				"y": 2.2092105558,
				"z": -4.3879442761,
				"element": "N" 
			},
			{
				"x": -0.5861303342,
				"y": 0.8771834377,
				"z": -2.6820890954,
				"element": "N" 
			},
			{
				"x": 0.0919639409,
				"y": 0.8108674771,
				"z": -1.4675191458,
				"element": "C" 
			},
			{
				"x": -0.5506261341,
				"y": 1.0802799638,
				"z": -0.2806869335,
				"element": "C" 
			},
			{
				"x": 0.1739263842,
				"y": 1.0139155564,
				"z": 0.992873592,
				"element": "C" 
			},
			{
				"x": -0.2971746553,
				"y": 1.3371709526,
				"z": 2.0790944648,
				"element": "O" 
			},
			{
				"x": 1.497464929,
				"y": 0.5221850734,
				"z": 0.9353494299,
				"element": "N" 
			},
			{
				"x": 2.1836160279,
				"y": 0.4023383895,
				"z": 2.2016440679,
				"element": "C" 
			},
			{
				"x": 2.1333836044,
				"y": -0.8034454778,
				"z": 2.9022281941,
				"element": "C" 
			},
			{
				"x": 2.8031505056,
				"y": -0.9216900429,
				"z": 4.1207391954,
				"element": "C" 
			},
			{
				"x": 3.5171803985,
				"y": 0.1620979724,
				"z": 4.6355054652,
				"element": "C" 
			},
			{
				"x": 3.5602326859,
				"y": 1.3671974113,
				"z": 3.9310449164,
				"element": "C" 
			},
			{
				"x": 2.8932282714,
				"y": 1.4902934231,
				"z": 2.7120253755,
				"element": "C" 
			},
			{
				"x": 2.1551625655,
				"y": 0.2078724591,
				"z": -0.2501668162,
				"element": "C" 
			},
			{
				"x": 3.4866021247,
				"y": -0.2533791357,
				"z": -0.2426406729,
				"element": "C" 
			},
			{
				"x": 4.1437885624,
				"y": -0.5191539541,
				"z": -1.4339479746,
				"element": "C" 
			},
			{
				"x": 3.5023464083,
				"y": -0.3195686589,
				"z": -2.6635195437,
				"element": "C" 
			},
			{
				"x": 2.1915924058,
				"y": 0.1272584563,
				"z": -2.6802662645,
				"element": "C" 
			},
			{
				"x": 1.481122894,
				"y": 0.377149217,
				"z": -1.4872489782,
				"element": "C" 
			},
			{
				"x": -2.7489552102,
				"y": -0.3561752859,
				"z": 0.8085297146,
				"element": "H" 
			},
			{
				"x": -3.9045360034,
				"y": 0.9900336862,
				"z": 0.6433133957,
				"element": "H" 
			},
			{
				"x": -2.5518228732,
				"y": 1.0758280194,
				"z": 1.8175874307,
				"element": "H" 
			},
			{
				"x": -2.5110379174,
				"y": 3.4497060293,
				"z": -2.5107053078,
				"element": "H" 
			},
			{
				"x": -1.9543633296,
				"y": 2.9823340208,
				"z": -4.6273429465,
				"element": "H" 
			},
			{
				"x": -0.1610700491,
				"y": 0.4096415359,
				"z": -3.4695758461,
				"element": "H" 
			},
			{
				"x": 1.5691492168,
				"y": -1.6356921025,
				"z": 2.4933584008,
				"element": "H" 
			},
			{
				"x": 2.7634572522,
				"y": -1.8587758603,
				"z": 4.6679635194,
				"element": "H" 
			},
			{
				"x": 4.0362750943,
				"y": 0.0690097412,
				"z": 5.5848510778,
				"element": "H" 
			},
			{
				"x": 4.1099683742,
				"y": 2.2137863696,
				"z": 4.3312946857,
				"element": "H" 
			},
			{
				"x": 2.912245312,
				"y": 2.4230392755,
				"z": 2.1576329156,
				"element": "H" 
			},
			{
				"x": 3.9961222628,
				"y": -0.3918020229,
				"z": 0.7020694917,
				"element": "H" 
			},
			{
				"x": 5.1701487473,
				"y": -0.8728639823,
				"z": -1.4061174062,
				"element": "H" 
			},
			{
				"x": 4.0268241271,
				"y": -0.5027984399,
				"z": -3.5954194063,
				"element": "H" 
			},
			{
				"x": 1.7222761657,
				"y": 0.3142709817,
				"z": -3.640311955,
				"element": "H" 
			}
		],
		 "valence_orbital": [ 
			{
				"type": "occ",
				"energy": -0.26076,
				"method": "rhf"
			},
			{
				"type": "occ",
				"energy": -0.25148,
				"method": "rhf"
			},
			{
				"type": "occ",
				"energy": -0.23346,
				"method": "rhf"
			},
			{
				"type": "occ",
				"energy": -0.22767,
				"method": "rhf"
			},
			{
				"type": "occ",
				"energy": -0.21699,
				"method": "rhf"
			},
			{
				"type": "unocc",
				"energy": -0.06524,
				"method": "rhf"
			},
			{
				"type": "unocc",
				"energy": -0.01834,
				"method": "rhf"
			},
			{
				"type": "unocc",
				"energy": -0.01554,
				"method": "rhf"
			},
			{
				"type": "unocc",
				"energy": -0.01279,
				"method": "rhf"
			},
			{
				"type": "unocc",
				"energy": 0.008,
				"method": "rhf"
			}
		],
		"cosmo_sigma_profile": { 
			"-0.025": 0.0,
			"-0.024": 0.0,
			"-0.023": 0.0,
			"-0.022": 0.0,
			"-0.021": 0.0,
			"-0.02": 0.0,
			"-0.019": 0.0,
			"-0.018": 0.0,
			"-0.017": 0.0,
			"-0.016": 0.0370914929695,
			"-0.015": 1.71859563121,
			"-0.014": 2.29990998862,
			"-0.013": 2.54952905792,
			"-0.012": 2.86022424848,
			"-0.011": 2.22877535461,
			"-0.01": 2.52833988606,
			"-0.009": 2.61199087453,
			"-0.008": 3.06008620403,
			"-0.007": 6.83024593508,
			"-0.006": 20.1818256417,
			"-0.005": 21.9434711003,
			"-0.004": 23.6390218032,
			"-0.003": 22.5116029913,
			"-0.002": 24.2505571338,
			"-0.001": 26.8179362385,
			"0.0": 25.6914910825,
			"0.001": 23.8314064673,
			"0.002": 22.3047033964,
			"0.003": 25.625491572,
			"0.004": 19.9113726365,
			"0.005": 9.36354731177,
			"0.006": 6.74562169015,
			"0.007": 5.05431204083,
			"0.008": 5.59620748354,
			"0.009": 4.11175118516,
			"0.01": 4.40786312929,
			"0.011": 4.46712913127,
			"0.012": 3.8954094785,
			"0.013": 5.95559720526,
			"0.014": 3.19156453213,
			"0.015": 1.05537027401,
			"0.016": 0.884000666777,
			"0.017": 0.796652903816,
			"0.018": 0.0387999976631,
			"0.019": 0.0,
			"0.02": 0.0,
			"0.021": 0.0,
			"0.022": 0.0,
			"0.023": 0.0,
			"0.024": 0.0,
			"0.025": 0.0
		}
	}
}
