{
	 "smiles": "CC(C)[C@]1(O)CCC(C)=CC1", 
	 "Tm": 287.85, 
	 "num_atms": 29, 
	 "gaussian": { 
		 "optdone": 1, 
		 "sigma_profile": "yes", 
		 "theory": "DFT", 
		 "functional": "B3LYP", 
		 "basiset": "6-31G**", 
		 "properties": { 
			 "R2extent": 2274.8418, 
			 "electric_dipole_moment_norm": 1.10544606381, 
			 "electric_quadrupole_moment_norm": 4.22271574108, 
			 "total_energy": -467.13859307, 
			 "HOMO_LUMO_gap": 0.2611, 
			 "cosmo_polarized_energy": -6.15, 
			 "cosmo_cavitation_energy": 28.26, 
			 "cosmo_dispersion_energy": -20.51, 
			 "cosmo_repulsion_energy": 1.64, 
			 "cosmo_total_nonelectrostatic_energy": 9.39, 
			 "SMD_solvation_energy": 4.67 
		},
		"coords": [
			{
				"x": -1.6936275266,
				"y": 0.2141521187,
				"z": 1.9346455372,
				"element": "C" 
			},
			{
				"x": -0.1607105474,
				"y": 0.2184725733,
				"z": 1.8094113087,
				"element": "C" 
			},
			{
				"x": 0.4036147112,
				"y": -1.1369154041,
				"z": 2.2694968508,
				"element": "C" 
			},
			{
				"x": 0.3183049191,
				"y": 0.6769362354,
				"z": 0.395291237,
				"element": "C" 
			},
			{
				"x": -0.3760174264,
				"y": 1.8860324216,
				"z": 0.0384854796,
				"element": "O" 
			},
			{
				"x": -0.0239372954,
				"y": -0.3170629844,
				"z": -0.7252531482,
				"element": "C" 
			},
			{
				"x": 0.3688711922,
				"y": 0.2319366284,
				"z": -2.1040182433,
				"element": "C" 
			},
			{
				"x": 1.7679025324,
				"y": 0.8045091012,
				"z": -2.1367607909,
				"element": "C" 
			},
			{
				"x": 2.3754299676,
				"y": 1.0207641801,
				"z": -3.4979382562,
				"element": "C" 
			},
			{
				"x": 2.4103285526,
				"y": 1.1241533532,
				"z": -1.0065812805,
				"element": "C" 
			},
			{
				"x": 1.8385464541,
				"y": 0.9522611806,
				"z": 0.3783092121,
				"element": "C" 
			},
			{
				"x": -1.9890575757,
				"y": 0.0682896256,
				"z": 2.979128289,
				"element": "H" 
			},
			{
				"x": -2.1397040291,
				"y": -0.6012222558,
				"z": 1.354171573,
				"element": "H" 
			},
			{
				"x": -2.1219197589,
				"y": 1.1523141188,
				"z": 1.5771724043,
				"element": "H" 
			},
			{
				"x": 0.2212915318,
				"y": 0.9846088191,
				"z": 2.5048451791,
				"element": "H" 
			},
			{
				"x": 0.0249994845,
				"y": -1.9570523454,
				"z": 1.6499833651,
				"element": "H" 
			},
			{
				"x": 1.4965037229,
				"y": -1.1757424061,
				"z": 2.2458729849,
				"element": "H" 
			},
			{
				"x": 0.0936893637,
				"y": -1.3407666286,
				"z": 3.2999708713,
				"element": "H" 
			},
			{
				"x": -0.0768049331,
				"y": 2.5836451484,
				"z": 0.6369805755,
				"element": "H" 
			},
			{
				"x": 0.5132660295,
				"y": -1.2536164873,
				"z": -0.5386107265,
				"element": "H" 
			},
			{
				"x": -1.0942852565,
				"y": -0.5456076736,
				"z": -0.708478516,
				"element": "H" 
			},
			{
				"x": 0.2774780422,
				"y": -0.56372902,
				"z": -2.8560505732,
				"element": "H" 
			},
			{
				"x": -0.3409642186,
				"y": 1.0152381837,
				"z": -2.4017520267,
				"element": "H" 
			},
			{
				"x": 3.3700471986,
				"y": 1.4716160405,
				"z": -3.4333248346,
				"element": "H" 
			},
			{
				"x": 1.7442283865,
				"y": 1.678601972,
				"z": -4.110442466,
				"element": "H" 
			},
			{
				"x": 2.4640310226,
				"y": 0.0752557845,
				"z": -4.0495066577,
				"element": "H" 
			},
			{
				"x": 3.4176710077,
				"y": 1.535999675,
				"z": -1.0649656676,
				"element": "H" 
			},
			{
				"x": 2.0344665486,
				"y": 1.8555702901,
				"z": 0.9779681971,
				"element": "H" 
			},
			{
				"x": 2.3785578998,
				"y": 0.148057755,
				"z": 0.8958501228,
				"element": "H" 
			}
		],
		 "valence_orbital": [ 
			{
				"type": "occ",
				"energy": -0.32129,
				"method": "rhf"
			},
			{
				"type": "occ",
				"energy": -0.30476,
				"method": "rhf"
			},
			{
				"type": "occ",
				"energy": -0.29106,
				"method": "rhf"
			},
			{
				"type": "occ",
				"energy": -0.2559,
				"method": "rhf"
			},
			{
				"type": "occ",
				"energy": -0.22331,
				"method": "rhf"
			},
			{
				"type": "unocc",
				"energy": 0.03779,
				"method": "rhf"
			},
			{
				"type": "unocc",
				"energy": 0.06902,
				"method": "rhf"
			},
			{
				"type": "unocc",
				"energy": 0.10453,
				"method": "rhf"
			},
			{
				"type": "unocc",
				"energy": 0.10884,
				"method": "rhf"
			},
			{
				"type": "unocc",
				"energy": 0.12315,
				"method": "rhf"
			}
		],
		"cosmo_sigma_profile": { 
			"-0.025": 0.0,
			"-0.024": 0.0,
			"-0.023": 0.0,
			"-0.022": 0.0,
			"-0.021": 0.0,
			"-0.02": 0.0,
			"-0.019": 0.0,
			"-0.018": 0.0,
			"-0.017": 0.0,
			"-0.016": 0.0,
			"-0.015": 0.0406975507495,
			"-0.014": 0.563784178885,
			"-0.013": 1.14116225367,
			"-0.012": 0.69366011079,
			"-0.011": 1.0189613254,
			"-0.01": 0.716784035647,
			"-0.009": 1.14200437829,
			"-0.008": 1.5869274312,
			"-0.007": 0.800597279796,
			"-0.006": 1.59513191169,
			"-0.005": 1.463370421,
			"-0.004": 4.58687379408,
			"-0.003": 17.9819925283,
			"-0.002": 34.2780220206,
			"-0.001": 36.9415974806,
			"0.0": 35.260971267,
			"0.001": 30.2302053034,
			"0.002": 16.6956109861,
			"0.003": 5.21711915192,
			"0.004": 4.7281136892,
			"0.005": 3.49127935734,
			"0.006": 3.23715372231,
			"0.007": 2.71532236116,
			"0.008": 2.19218101454,
			"0.009": 1.18535239578,
			"0.01": 2.22834193596,
			"0.011": 1.5055588452,
			"0.012": 1.97814009223,
			"0.013": 1.1767571637,
			"0.014": 0.621831469188,
			"0.015": 0.285363177269,
			"0.016": 0.0,
			"0.017": 0.0,
			"0.018": 0.0,
			"0.019": 0.0,
			"0.02": 0.0,
			"0.021": 0.0,
			"0.022": 0.0,
			"0.023": 0.0,
			"0.024": 0.0,
			"0.025": 0.0
		}
	}
}
