{
	 "smiles": "CC1=NC2=C(O1)C=CC(Cl)=C2", 
	 "Tm": 328.65, 
	 "num_atms": 17, 
	 "gaussian": { 
		 "optdone": 1, 
		 "sigma_profile": "yes", 
		 "theory": "DFT", 
		 "functional": "B3LYP", 
		 "basiset": "6-31G**", 
		 "properties": { 
			 "R2extent": 3246.0088, 
			 "electric_dipole_moment_norm": 2.97654442769, 
			 "electric_quadrupole_moment_norm": 6.10951622553, 
			 "total_energy": -898.641278809, 
			 "HOMO_LUMO_gap": 0.20394, 
			 "cosmo_polarized_energy": -6.71, 
			 "cosmo_cavitation_energy": 23.32, 
			 "cosmo_dispersion_energy": -17.81, 
			 "cosmo_repulsion_energy": 1.43, 
			 "cosmo_total_nonelectrostatic_energy": 6.94, 
			 "SMD_solvation_energy": 2.22 
		},
		"coords": [
			{
				"x": -2.2856546846,
				"y": -1.9288014101,
				"z": 0.5622024856,
				"element": "C" 
			},
			{
				"x": -0.9655050078,
				"y": -1.2760240479,
				"z": 0.7610007117,
				"element": "C" 
			},
			{
				"x": -0.4143467558,
				"y": -0.9079539476,
				"z": 1.8736000219,
				"element": "N" 
			},
			{
				"x": 0.8091097264,
				"y": -0.3557106644,
				"z": 1.4887001418,
				"element": "C" 
			},
			{
				"x": 0.9194833602,
				"y": -0.4320499857,
				"z": 0.0941122462,
				"element": "C" 
			},
			{
				"x": -0.2255133772,
				"y": -1.0259152583,
				"z": -0.3759816976,
				"element": "O" 
			},
			{
				"x": 2.0164799821,
				"y": 0.0291826669,
				"z": -0.6163004198,
				"element": "C" 
			},
			{
				"x": 3.0457386659,
				"y": 0.5939689808,
				"z": 0.1403539823,
				"element": "C" 
			},
			{
				"x": 2.9441313545,
				"y": 0.6749922975,
				"z": 1.540055726,
				"element": "C" 
			},
			{
				"x": 4.2778164291,
				"y": 1.398728286,
				"z": 2.4334369719,
				"element": "Cl" 
			},
			{
				"x": 1.837393846,
				"y": 0.2087026532,
				"z": 2.2464732702,
				"element": "C" 
			},
			{
				"x": -2.167635844,
				"y": -2.9009345537,
				"z": 0.0723778319,
				"element": "H" 
			},
			{
				"x": -2.763151491,
				"y": -2.0682505682,
				"z": 1.5319622903,
				"element": "H" 
			},
			{
				"x": -2.9300685454,
				"y": -1.3141501214,
				"z": -0.0748503644,
				"element": "H" 
			},
			{
				"x": 2.0783250227,
				"y": -0.0413158892,
				"z": -1.6962994519,
				"element": "H" 
			},
			{
				"x": 3.9343703368,
				"y": 0.9755845531,
				"z": -0.3488316391,
				"element": "H" 
			},
			{
				"x": 1.776526982,
				"y": 0.2795470088,
				"z": 3.3255878931,
				"element": "H" 
			}
		],
		 "valence_orbital": [ 
			{
				"type": "occ",
				"energy": -0.3224,
				"method": "rhf"
			},
			{
				"type": "occ",
				"energy": -0.31256,
				"method": "rhf"
			},
			{
				"type": "occ",
				"energy": -0.2961,
				"method": "rhf"
			},
			{
				"type": "occ",
				"energy": -0.24998,
				"method": "rhf"
			},
			{
				"type": "occ",
				"energy": -0.23908,
				"method": "rhf"
			},
			{
				"type": "unocc",
				"energy": -0.03514,
				"method": "rhf"
			},
			{
				"type": "unocc",
				"energy": -0.00455,
				"method": "rhf"
			},
			{
				"type": "unocc",
				"energy": 0.02837,
				"method": "rhf"
			},
			{
				"type": "unocc",
				"energy": 0.03152,
				"method": "rhf"
			},
			{
				"type": "unocc",
				"energy": 0.10118,
				"method": "rhf"
			}
		],
		"cosmo_sigma_profile": { 
			"-0.025": 0.0,
			"-0.024": 0.0,
			"-0.023": 0.0,
			"-0.022": 0.0,
			"-0.021": 0.0,
			"-0.02": 0.0,
			"-0.019": 0.0,
			"-0.018": 0.0,
			"-0.017": 0.0,
			"-0.016": 0.0,
			"-0.015": 0.0,
			"-0.014": 0.0,
			"-0.013": 0.0,
			"-0.012": 0.0,
			"-0.011": 0.0,
			"-0.01": 0.0,
			"-0.009": 0.156269311297,
			"-0.008": 3.26710486199,
			"-0.007": 7.38265348261,
			"-0.006": 11.8676366167,
			"-0.005": 10.788672647,
			"-0.004": 11.3320012335,
			"-0.003": 14.7806926658,
			"-0.002": 15.0842491994,
			"-0.001": 11.5265374952,
			"0.0": 13.7800512119,
			"0.001": 17.1741071895,
			"0.002": 21.6167942183,
			"0.003": 15.7407155233,
			"0.004": 12.2007615727,
			"0.005": 9.97043320687,
			"0.006": 2.6392622443,
			"0.007": 2.58273096093,
			"0.008": 1.48648213224,
			"0.009": 0.701926959353,
			"0.01": 0.78179750583,
			"0.011": 1.20905666452,
			"0.012": 1.13283336785,
			"0.013": 0.818782839993,
			"0.014": 1.05623782173,
			"0.015": 0.704653052239,
			"0.016": 0.22742805796,
			"0.017": 0.0,
			"0.018": 0.0,
			"0.019": 0.0,
			"0.02": 0.0,
			"0.021": 0.0,
			"0.022": 0.0,
			"0.023": 0.0,
			"0.024": 0.0,
			"0.025": 0.0
		}
	}
}
