{
	 "smiles": "CC(C)=CCCC(C)=CCCC(=C)C=C", 
	 "Tm": 298.15, 
	 "num_atms": 39, 
	 "gaussian": { 
		 "optdone": 1, 
		 "sigma_profile": "yes", 
		 "theory": "DFT", 
		 "functional": "B3LYP", 
		 "basiset": "6-31G**", 
		 "properties": { 
			 "R2extent": 5441.72, 
			 "electric_dipole_moment_norm": 0.368541083192, 
			 "electric_quadrupole_moment_norm": 4.2489811414, 
			 "total_energy": -586.005840307, 
			 "HOMO_LUMO_gap": 0.2019, 
			 "cosmo_polarized_energy": -4.46, 
			 "cosmo_cavitation_energy": 41.09, 
			 "cosmo_dispersion_energy": -26.17, 
			 "cosmo_repulsion_energy": 2.1, 
			 "cosmo_total_nonelectrostatic_energy": 17.01, 
			 "SMD_solvation_energy": 8.13 
		},
		"coords": [
			{
				"x": -0.1974310342,
				"y": 1.8329688707,
				"z": -2.9386284359,
				"element": "C" 
			},
			{
				"x": 1.0953983403,
				"y": 2.1512901393,
				"z": -2.2244004025,
				"element": "C" 
			},
			{
				"x": 1.4731496632,
				"y": 3.6125810219,
				"z": -2.2492736479,
				"element": "C" 
			},
			{
				"x": 1.8118179353,
				"y": 1.1784203254,
				"z": -1.6392028228,
				"element": "C" 
			},
			{
				"x": 3.1078188678,
				"y": 1.2936182899,
				"z": -0.8839432204,
				"element": "C" 
			},
			{
				"x": 3.0464209769,
				"y": 0.6705411533,
				"z": 0.5371764041,
				"element": "C" 
			},
			{
				"x": 2.8137861728,
				"y": -0.8288868822,
				"z": 0.5755334071,
				"element": "C" 
			},
			{
				"x": 3.9505903847,
				"y": -1.6704346894,
				"z": 0.0439551335,
				"element": "C" 
			},
			{
				"x": 1.6700830083,
				"y": -1.3217116722,
				"z": 1.0800964472,
				"element": "C" 
			},
			{
				"x": 1.2454129405,
				"y": -2.7584711988,
				"z": 1.2191473072,
				"element": "C" 
			},
			{
				"x": -0.0980529093,
				"y": -3.0677272906,
				"z": 0.5070012173,
				"element": "C" 
			},
			{
				"x": -1.2962393241,
				"y": -2.3636882738,
				"z": 1.112863493,
				"element": "C" 
			},
			{
				"x": -1.9885335659,
				"y": -1.4324242741,
				"z": 0.4388134744,
				"element": "C" 
			},
			{
				"x": -1.6715326919,
				"y": -2.7835538841,
				"z": 2.4808656974,
				"element": "C" 
			},
			{
				"x": -2.1654571188,
				"y": -1.9899909764,
				"z": 3.4382320269,
				"element": "C" 
			},
			{
				"x": -1.0397835989,
				"y": 2.3820927184,
				"z": -2.4964864985,
				"element": "H" 
			},
			{
				"x": -0.1525705401,
				"y": 2.1343391345,
				"z": -3.9940521241,
				"element": "H" 
			},
			{
				"x": -0.4316930361,
				"y": 0.7652891249,
				"z": -2.9017151842,
				"element": "H" 
			},
			{
				"x": 1.6038205563,
				"y": 3.960647761,
				"z": -3.2826992598,
				"element": "H" 
			},
			{
				"x": 2.394051884,
				"y": 3.8322738751,
				"z": -1.7062057239,
				"element": "H" 
			},
			{
				"x": 0.6720563352,
				"y": 4.226424241,
				"z": -1.8166073693,
				"element": "H" 
			},
			{
				"x": 1.4150671652,
				"y": 0.1646683964,
				"z": -1.6982209013,
				"element": "H" 
			},
			{
				"x": 3.9074525514,
				"y": 0.7980909619,
				"z": -1.4539424182,
				"element": "H" 
			},
			{
				"x": 3.4168184882,
				"y": 2.3387438522,
				"z": -0.7855230914,
				"element": "H" 
			},
			{
				"x": 3.9980281938,
				"y": 0.8953479708,
				"z": 1.0412857119,
				"element": "H" 
			},
			{
				"x": 2.2592324201,
				"y": 1.1775515049,
				"z": 1.1059094494,
				"element": "H" 
			},
			{
				"x": 3.7626239256,
				"y": -2.7427831468,
				"z": 0.119037948,
				"element": "H" 
			},
			{
				"x": 4.8770290625,
				"y": -1.4549176694,
				"z": 0.5926522197,
				"element": "H" 
			},
			{
				"x": 4.1563292987,
				"y": -1.4450771984,
				"z": -1.0097477175,
				"element": "H" 
			},
			{
				"x": 0.9350293192,
				"y": -0.6010535421,
				"z": 1.438573079,
				"element": "H" 
			},
			{
				"x": 2.0074589296,
				"y": -3.4399161227,
				"z": 0.8297794004,
				"element": "H" 
			},
			{
				"x": 1.1316447459,
				"y": -2.9992418891,
				"z": 2.286372377,
				"element": "H" 
			},
			{
				"x": -0.0130774964,
				"y": -2.8083755598,
				"z": -0.5534986386,
				"element": "H" 
			},
			{
				"x": -0.2674275113,
				"y": -4.1530544672,
				"z": 0.5578391746,
				"element": "H" 
			},
			{
				"x": -1.6908140353,
				"y": -1.1168524276,
				"z": -0.5568732926,
				"element": "H" 
			},
			{
				"x": -2.8773398096,
				"y": -0.9694822408,
				"z": 0.8567229358,
				"element": "H" 
			},
			{
				"x": -1.4990816049,
				"y": -3.8356735267,
				"z": 2.7145070602,
				"element": "H" 
			},
			{
				"x": -2.3065917828,
				"y": -0.9244640585,
				"z": 3.2793065267,
				"element": "H" 
			},
			{
				"x": -2.4373951056,
				"y": -2.3815083507,
				"z": 4.4137502584,
				"element": "H" 
			}
		],
		 "valence_orbital": [ 
			{
				"type": "occ",
				"energy": -0.30694,
				"method": "rhf"
			},
			{
				"type": "occ",
				"energy": -0.28857,
				"method": "rhf"
			},
			{
				"type": "occ",
				"energy": -0.23304,
				"method": "rhf"
			},
			{
				"type": "occ",
				"energy": -0.22659,
				"method": "rhf"
			},
			{
				"type": "occ",
				"energy": -0.21914,
				"method": "rhf"
			},
			{
				"type": "unocc",
				"energy": -0.01724,
				"method": "rhf"
			},
			{
				"type": "unocc",
				"energy": 0.02761,
				"method": "rhf"
			},
			{
				"type": "unocc",
				"energy": 0.03933,
				"method": "rhf"
			},
			{
				"type": "unocc",
				"energy": 0.06584,
				"method": "rhf"
			},
			{
				"type": "unocc",
				"energy": 0.08587,
				"method": "rhf"
			}
		],
		"cosmo_sigma_profile": { 
			"-0.025": 0.0,
			"-0.024": 0.0,
			"-0.023": 0.0,
			"-0.022": 0.0,
			"-0.021": 0.0,
			"-0.02": 0.0,
			"-0.019": 0.0,
			"-0.018": 0.0,
			"-0.017": 0.0,
			"-0.016": 0.0,
			"-0.015": 0.0,
			"-0.014": 0.0,
			"-0.013": 0.0,
			"-0.012": 0.0,
			"-0.011": 0.0,
			"-0.01": 0.0,
			"-0.009": 0.0,
			"-0.008": 0.0,
			"-0.007": 0.0,
			"-0.006": 0.250777161338,
			"-0.005": 5.8821938121,
			"-0.004": 16.3395693891,
			"-0.003": 37.9182559636,
			"-0.002": 45.2787976256,
			"-0.001": 45.5650615671,
			"0.0": 48.0917946879,
			"0.001": 39.6481906327,
			"0.002": 22.9813351752,
			"0.003": 17.7119813315,
			"0.004": 16.9872912581,
			"0.005": 11.3589312321,
			"0.006": 8.17101410969,
			"0.007": 3.87559865039,
			"0.008": 0.499654409652,
			"0.009": 0.0,
			"0.01": 0.0,
			"0.011": 0.0,
			"0.012": 0.0,
			"0.013": 0.0,
			"0.014": 0.0,
			"0.015": 0.0,
			"0.016": 0.0,
			"0.017": 0.0,
			"0.018": 0.0,
			"0.019": 0.0,
			"0.02": 0.0,
			"0.021": 0.0,
			"0.022": 0.0,
			"0.023": 0.0,
			"0.024": 0.0,
			"0.025": 0.0
		}
	}
}
