{
	 "smiles": "CC(=O)C(C#N)C1=CC=CC=C1[N+]([O-])=O", 
	 "Tm": 345.15, 
	 "num_atms": 23, 
	 "gaussian": { 
		 "optdone": 1, 
		 "sigma_profile": "yes", 
		 "theory": "DFT", 
		 "functional": "B3LYP", 
		 "basiset": "6-31G**", 
		 "properties": { 
			 "R2extent": 3331.1629, 
			 "electric_dipole_moment_norm": 2.27898200739, 
			 "electric_quadrupole_moment_norm": 22.3821595051, 
			 "total_energy": -720.930974162, 
			 "HOMO_LUMO_gap": 0.16347, 
			 "cosmo_polarized_energy": -14.24, 
			 "cosmo_cavitation_energy": 28.82, 
			 "cosmo_dispersion_energy": -19.8, 
			 "cosmo_repulsion_energy": 1.54, 
			 "cosmo_total_nonelectrostatic_energy": 10.56, 
			 "SMD_solvation_energy": 8.79 
		},
		"coords": [
			{
				"x": 1.3963752057,
				"y": 1.4226437271,
				"z": -2.1880231401,
				"element": "C" 
			},
			{
				"x": 0.775742578,
				"y": 1.001949939,
				"z": -0.8793721398,
				"element": "C" 
			},
			{
				"x": -0.3779588827,
				"y": 1.1887845996,
				"z": -0.5796736867,
				"element": "O" 
			},
			{
				"x": 1.7546981901,
				"y": 0.2922032941,
				"z": 0.1358219606,
				"element": "C" 
			},
			{
				"x": 2.5927569926,
				"y": 1.3301400516,
				"z": 0.7478969345,
				"element": "C" 
			},
			{
				"x": 3.2526851158,
				"y": 2.1760814612,
				"z": 1.1923917259,
				"element": "N" 
			},
			{
				"x": 0.9925836909,
				"y": -0.5346399026,
				"z": 1.1611889067,
				"element": "C" 
			},
			{
				"x": 0.7978671779,
				"y": -0.037530597,
				"z": 2.4544962141,
				"element": "C" 
			},
			{
				"x": 0.0909874726,
				"y": -0.7540227329,
				"z": 3.4190849526,
				"element": "C" 
			},
			{
				"x": -0.4388742947,
				"y": -2.0078873153,
				"z": 3.1160102823,
				"element": "C" 
			},
			{
				"x": -0.2583227365,
				"y": -2.5336774875,
				"z": 1.8425396694,
				"element": "C" 
			},
			{
				"x": 0.4388705145,
				"y": -1.800268774,
				"z": 0.8796898591,
				"element": "C" 
			},
			{
				"x": 0.5584068086,
				"y": -2.4337817981,
				"z": -0.4443602904,
				"element": "N" 
			},
			{
				"x": 0.9221855865,
				"y": -1.7382304681,
				"z": -1.4002247129,
				"element": "O" 
			},
			{
				"x": 0.2845802708,
				"y": -3.626457826,
				"z": -0.5380955734,
				"element": "O" 
			},
			{
				"x": 2.3307706089,
				"y": 1.9686965666,
				"z": -2.0208541273,
				"element": "H" 
			},
			{
				"x": 0.6932831307,
				"y": 2.0433608516,
				"z": -2.7442677921,
				"element": "H" 
			},
			{
				"x": 1.6341409225,
				"y": 0.5259010676,
				"z": -2.7708313598,
				"element": "H" 
			},
			{
				"x": 2.4161634994,
				"y": -0.3471020858,
				"z": -0.4548263627,
				"element": "H" 
			},
			{
				"x": 1.215363324,
				"y": 0.9304708379,
				"z": 2.7095706279,
				"element": "H" 
			},
			{
				"x": -0.0421913051,
				"y": -0.3278398619,
				"z": 4.4085763378,
				"element": "H" 
			},
			{
				"x": -0.9884999598,
				"y": -2.5728000535,
				"z": 3.8616167341,
				"element": "H" 
			},
			{
				"x": -0.6496139107,
				"y": -3.5045934935,
				"z": 1.5678449802,
				"element": "H" 
			}
		],
		 "valence_orbital": [ 
			{
				"type": "occ",
				"energy": -0.32369,
				"method": "rhf"
			},
			{
				"type": "occ",
				"energy": -0.31,
				"method": "rhf"
			},
			{
				"type": "occ",
				"energy": -0.29198,
				"method": "rhf"
			},
			{
				"type": "occ",
				"energy": -0.28809,
				"method": "rhf"
			},
			{
				"type": "occ",
				"energy": -0.26881,
				"method": "rhf"
			},
			{
				"type": "unocc",
				"energy": -0.10534,
				"method": "rhf"
			},
			{
				"type": "unocc",
				"energy": -0.04298,
				"method": "rhf"
			},
			{
				"type": "unocc",
				"energy": -0.03778,
				"method": "rhf"
			},
			{
				"type": "unocc",
				"energy": -0.01626,
				"method": "rhf"
			},
			{
				"type": "unocc",
				"energy": 0.01697,
				"method": "rhf"
			}
		],
		"cosmo_sigma_profile": { 
			"-0.025": 0.0,
			"-0.024": 0.0,
			"-0.023": 0.0,
			"-0.022": 0.0,
			"-0.021": 0.0,
			"-0.02": 0.0,
			"-0.019": 0.0,
			"-0.018": 0.0,
			"-0.017": 0.0,
			"-0.016": 0.0,
			"-0.015": 0.0,
			"-0.014": 0.0,
			"-0.013": 0.0,
			"-0.012": 0.00672450422753,
			"-0.011": 0.854951510078,
			"-0.01": 2.50982944046,
			"-0.009": 2.68673477601,
			"-0.008": 6.67610631564,
			"-0.007": 12.9053136593,
			"-0.006": 16.755512634,
			"-0.005": 16.7153654576,
			"-0.004": 15.7762266332,
			"-0.003": 15.5485970476,
			"-0.002": 17.1779530729,
			"-0.001": 14.5344297118,
			"0.0": 12.7334963912,
			"0.001": 15.8317091537,
			"0.002": 11.3079002457,
			"0.003": 6.61581349903,
			"0.004": 5.33407169917,
			"0.005": 6.94017221453,
			"0.006": 7.63797328973,
			"0.007": 11.0404525478,
			"0.008": 8.31588268076,
			"0.009": 9.30789600701,
			"0.01": 7.63309994262,
			"0.011": 4.49704698484,
			"0.012": 2.18755294088,
			"0.013": 0.315839411213,
			"0.014": 0.0,
			"0.015": 0.0,
			"0.016": 0.0,
			"0.017": 0.0,
			"0.018": 0.0,
			"0.019": 0.0,
			"0.02": 0.0,
			"0.021": 0.0,
			"0.022": 0.0,
			"0.023": 0.0,
			"0.024": 0.0,
			"0.025": 0.0
		}
	}
}
