{
	 "smiles": "CC(=O)N=C1/SC(=NN1C1=CC=C(F)C=C1)C(C)=O", 
	 "Tm": 430.15, 
	 "num_atms": 29, 
	 "gaussian": { 
		 "optdone": 1, 
		 "sigma_profile": "yes", 
		 "theory": "DFT", 
		 "functional": "B3LYP", 
		 "basiset": "6-31G**", 
		 "properties": { 
			 "R2extent": 6776.096, 
			 "electric_dipole_moment_norm": 3.79733236233, 
			 "electric_quadrupole_moment_norm": 23.6369244459, 
			 "total_energy": -1276.01165325, 
			 "HOMO_LUMO_gap": 0.15046, 
			 "cosmo_polarized_energy": -12.87, 
			 "cosmo_cavitation_energy": 36.75, 
			 "cosmo_dispersion_energy": -26.36, 
			 "cosmo_repulsion_energy": 1.98, 
			 "cosmo_total_nonelectrostatic_energy": 12.36, 
			 "SMD_solvation_energy": 7.13 
		},
		"coords": [
			{
				"x": 0.2216817316,
				"y": -0.2718222002,
				"z": -4.1337804918,
				"element": "C" 
			},
			{
				"x": -0.6985475814,
				"y": -0.0621063925,
				"z": -2.9553025987,
				"element": "C" 
			},
			{
				"x": -1.8358172945,
				"y": 0.3898318441,
				"z": -3.0793480284,
				"element": "O" 
			},
			{
				"x": -0.1409828383,
				"y": -0.4237233184,
				"z": -1.7306892055,
				"element": "N" 
			},
			{
				"x": -0.8926936892,
				"y": -0.2913119361,
				"z": -0.6827258756,
				"element": "C" 
			},
			{
				"x": -2.5659522474,
				"y": 0.3091888238,
				"z": -0.5904341787,
				"element": "S" 
			},
			{
				"x": -2.4922583464,
				"y": 0.0119340722,
				"z": 1.1435318826,
				"element": "C" 
			},
			{
				"x": -1.3742987352,
				"y": -0.4618519292,
				"z": 1.5979329855,
				"element": "N" 
			},
			{
				"x": -0.4709165315,
				"y": -0.6306318659,
				"z": 0.5952980009,
				"element": "N" 
			},
			{
				"x": 0.7959709058,
				"y": -1.2066779876,
				"z": 0.9471024406,
				"element": "C" 
			},
			{
				"x": 0.8362868875,
				"y": -2.1214905003,
				"z": 2.0059277885,
				"element": "C" 
			},
			{
				"x": 2.0502516603,
				"y": -2.6775905022,
				"z": 2.3992196074,
				"element": "C" 
			},
			{
				"x": 3.2077725511,
				"y": -2.3134430746,
				"z": 1.7200284304,
				"element": "C" 
			},
			{
				"x": 4.3833520249,
				"y": -2.8540880263,
				"z": 2.0940865447,
				"element": "F" 
			},
			{
				"x": 3.184090784,
				"y": -1.4078095538,
				"z": 0.6660218446,
				"element": "C" 
			},
			{
				"x": 1.9699347822,
				"y": -0.8450185246,
				"z": 0.2776159075,
				"element": "C" 
			},
			{
				"x": -3.6577200078,
				"y": 0.3082355088,
				"z": 2.0231206502,
				"element": "C" 
			},
			{
				"x": -3.513512999,
				"y": 0.0209569255,
				"z": 3.5000634055,
				"element": "C" 
			},
			{
				"x": -4.6714380556,
				"y": 0.7643516959,
				"z": 1.5223036465,
				"element": "O" 
			},
			{
				"x": 0.5339260773,
				"y": -1.3199248388,
				"z": -4.1812314406,
				"element": "H" 
			},
			{
				"x": -0.2830458006,
				"y": 0.0110343568,
				"z": -5.0575363833,
				"element": "H" 
			},
			{
				"x": 1.1303393828,
				"y": 0.3261742967,
				"z": -4.007742254,
				"element": "H" 
			},
			{
				"x": -0.0793445301,
				"y": -2.385822946,
				"z": 2.520172787,
				"element": "H" 
			},
			{
				"x": 2.1060041826,
				"y": -3.3889928579,
				"z": 3.2155186674,
				"element": "H" 
			},
			{
				"x": 4.1082920748,
				"y": -1.1459283628,
				"z": 0.1631425511,
				"element": "H" 
			},
			{
				"x": 1.9294029289,
				"y": -0.1485086037,
				"z": -0.5474574405,
				"element": "H" 
			},
			{
				"x": -2.6595715646,
				"y": 0.5644872033,
				"z": 3.9157739604,
				"element": "H" 
			},
			{
				"x": -4.4321116342,
				"y": 0.3155828218,
				"z": 4.0080801296,
				"element": "H" 
			},
			{
				"x": -3.321694118,
				"y": -1.0445341278,
				"z": 3.6632066664,
				"element": "H" 
			}
		],
		 "valence_orbital": [ 
			{
				"type": "occ",
				"energy": -0.27774,
				"method": "rhf"
			},
			{
				"type": "occ",
				"energy": -0.27403,
				"method": "rhf"
			},
			{
				"type": "occ",
				"energy": -0.26903,
				"method": "rhf"
			},
			{
				"type": "occ",
				"energy": -0.2545,
				"method": "rhf"
			},
			{
				"type": "occ",
				"energy": -0.2357,
				"method": "rhf"
			},
			{
				"type": "unocc",
				"energy": -0.08524,
				"method": "rhf"
			},
			{
				"type": "unocc",
				"energy": -0.05186,
				"method": "rhf"
			},
			{
				"type": "unocc",
				"energy": -0.0266,
				"method": "rhf"
			},
			{
				"type": "unocc",
				"energy": -0.00571,
				"method": "rhf"
			},
			{
				"type": "unocc",
				"energy": 0.01787,
				"method": "rhf"
			}
		],
		"cosmo_sigma_profile": { 
			"-0.025": 0.0,
			"-0.024": 0.0,
			"-0.023": 0.0,
			"-0.022": 0.0,
			"-0.021": 0.0,
			"-0.02": 0.0,
			"-0.019": 0.0,
			"-0.018": 0.0,
			"-0.017": 0.0,
			"-0.016": 0.0,
			"-0.015": 0.0,
			"-0.014": 0.0,
			"-0.013": 0.0,
			"-0.012": 0.0,
			"-0.011": 0.0,
			"-0.01": 0.0,
			"-0.009": 0.0,
			"-0.008": 2.18397134006,
			"-0.007": 8.7768200964,
			"-0.006": 17.706042584,
			"-0.005": 22.242054577,
			"-0.004": 23.9462988768,
			"-0.003": 24.2385103035,
			"-0.002": 25.7905344002,
			"-0.001": 25.3332220794,
			"0.0": 22.4011966667,
			"0.001": 22.6811947539,
			"0.002": 25.2516357091,
			"0.003": 17.5144132609,
			"0.004": 16.8478081001,
			"0.005": 6.58691553929,
			"0.006": 5.77540190443,
			"0.007": 4.62554391951,
			"0.008": 4.27707425008,
			"0.009": 5.67765220044,
			"0.01": 5.97213084096,
			"0.011": 4.70827530251,
			"0.012": 3.01198176313,
			"0.013": 1.49677975561,
			"0.014": 0.0558692409995,
			"0.015": 0.0,
			"0.016": 0.0,
			"0.017": 0.0,
			"0.018": 0.0,
			"0.019": 0.0,
			"0.02": 0.0,
			"0.021": 0.0,
			"0.022": 0.0,
			"0.023": 0.0,
			"0.024": 0.0,
			"0.025": 0.0
		}
	}
}
