{
	 "smiles": "CCCCCOC(=O)C1=C(C)NC(=O)NC1C1=CC=CO1", 
	 "Tm": 439.15, 
	 "num_atms": 41, 
	 "gaussian": { 
		 "optdone": 1, 
		 "sigma_profile": "yes", 
		 "theory": "DFT", 
		 "functional": "B3LYP", 
		 "basiset": "6-31G**", 
		 "properties": { 
			 "R2extent": 8214.8113, 
			 "electric_dipole_moment_norm": 4.20731118531, 
			 "electric_quadrupole_moment_norm": 20.6035329211, 
			 "total_energy": -994.067229938, 
			 "HOMO_LUMO_gap": 0.18153, 
			 "cosmo_polarized_energy": -18.12, 
			 "cosmo_cavitation_energy": 44.51, 
			 "cosmo_dispersion_energy": -29.62, 
			 "cosmo_repulsion_energy": 2.33, 
			 "cosmo_total_nonelectrostatic_energy": 17.22, 
			 "SMD_solvation_energy": 9.03 
		},
		"coords": [
			{
				"x": 4.0309952176,
				"y": 3.0061878675,
				"z": 2.3098313139,
				"element": "C" 
			},
			{
				"x": 4.5197748215,
				"y": 1.7958662903,
				"z": 1.5047423616,
				"element": "C" 
			},
			{
				"x": 3.4316963054,
				"y": 1.107352368,
				"z": 0.6646703211,
				"element": "C" 
			},
			{
				"x": 2.8855120736,
				"y": 1.9628485283,
				"z": -0.4873709404,
				"element": "C" 
			},
			{
				"x": 1.8536899859,
				"y": 1.2488611843,
				"z": -1.3477241819,
				"element": "C" 
			},
			{
				"x": 0.6840038318,
				"y": 0.9977848511,
				"z": -0.5324444562,
				"element": "O" 
			},
			{
				"x": -0.2948758278,
				"y": 0.2679581972,
				"z": -1.1266717516,
				"element": "C" 
			},
			{
				"x": -0.1743517662,
				"y": -0.1657169645,
				"z": -2.2613085225,
				"element": "O" 
			},
			{
				"x": -1.4967736489,
				"y": 0.0189664421,
				"z": -0.3092682175,
				"element": "C" 
			},
			{
				"x": -1.8390468816,
				"y": 0.5752110491,
				"z": 0.8867994371,
				"element": "C" 
			},
			{
				"x": -1.0655774678,
				"y": 1.5616132394,
				"z": 1.718900118,
				"element": "C" 
			},
			{
				"x": -3.0584528899,
				"y": 0.234200809,
				"z": 1.4542834262,
				"element": "N" 
			},
			{
				"x": -4.1373240968,
				"y": -0.3465132061,
				"z": 0.7703464724,
				"element": "C" 
			},
			{
				"x": -5.2416721549,
				"y": -0.4290105734,
				"z": 1.2845094632,
				"element": "O" 
			},
			{
				"x": -3.8240056225,
				"y": -0.7256920093,
				"z": -0.5045702843,
				"element": "N" 
			},
			{
				"x": -2.4409862651,
				"y": -0.9985671647,
				"z": -0.9303669957,
				"element": "C" 
			},
			{
				"x": -2.0230275817,
				"y": -2.4121106389,
				"z": -0.6204086648,
				"element": "C" 
			},
			{
				"x": -1.1784032266,
				"y": -2.9912367464,
				"z": 0.2802120866,
				"element": "C" 
			},
			{
				"x": -1.2734652263,
				"y": -4.4083284522,
				"z": 0.0767455895,
				"element": "C" 
			},
			{
				"x": -2.1714449481,
				"y": -4.5864550344,
				"z": -0.9291571307,
				"element": "C" 
			},
			{
				"x": -2.6379225421,
				"y": -3.3816888326,
				"z": -1.3687445867,
				"element": "O" 
			},
			{
				"x": 4.835934106,
				"y": 3.4192099778,
				"z": 2.9264118595,
				"element": "H" 
			},
			{
				"x": 3.6702572208,
				"y": 3.8122968545,
				"z": 1.6625604339,
				"element": "H" 
			},
			{
				"x": 3.2096763576,
				"y": 2.7273629606,
				"z": 2.9805100835,
				"element": "H" 
			},
			{
				"x": 5.3451606292,
				"y": 2.1025159045,
				"z": 0.8474208789,
				"element": "H" 
			},
			{
				"x": 4.9440106931,
				"y": 1.05746446,
				"z": 2.1966645773,
				"element": "H" 
			},
			{
				"x": 2.6019800883,
				"y": 0.8066497611,
				"z": 1.3169074508,
				"element": "H" 
			},
			{
				"x": 3.8410516515,
				"y": 0.17859106,
				"z": 0.2444824234,
				"element": "H" 
			},
			{
				"x": 3.7120997627,
				"y": 2.2584021695,
				"z": -1.1479078112,
				"element": "H" 
			},
			{
				"x": 2.4461553037,
				"y": 2.892888885,
				"z": -0.1073664499,
				"element": "H" 
			},
			{
				"x": 2.2291501343,
				"y": 0.2936768514,
				"z": -1.7280688427,
				"element": "H" 
			},
			{
				"x": 1.5566525933,
				"y": 1.853453092,
				"z": -2.2107937046,
				"element": "H" 
			},
			{
				"x": -0.8369567378,
				"y": 1.1178508439,
				"z": 2.6958917736,
				"element": "H" 
			},
			{
				"x": -0.1369563911,
				"y": 1.8555885474,
				"z": 1.2427797323,
				"element": "H" 
			},
			{
				"x": -1.6794813884,
				"y": 2.4516845145,
				"z": 1.9004783293,
				"element": "H" 
			},
			{
				"x": -3.3239147336,
				"y": 0.6428844638,
				"z": 2.33902576,
				"element": "H" 
			},
			{
				"x": -4.5563496232,
				"y": -1.2553140841,
				"z": -0.9577238464,
				"element": "H" 
			},
			{
				"x": -2.406866871,
				"y": -0.8747066311,
				"z": -2.0160997849,
				"element": "H" 
			},
			{
				"x": -0.5588510011,
				"y": -2.4722404755,
				"z": 0.9963231722,
				"element": "H" 
			},
			{
				"x": -0.7413854989,
				"y": -5.1837936723,
				"z": 0.6088192336,
				"element": "H" 
			},
			{
				"x": -2.567608385,
				"y": -5.4559966866,
				"z": -1.4303201257,
				"element": "H" 
			}
		],
		 "valence_orbital": [ 
			{
				"type": "occ",
				"energy": -0.27347,
				"method": "rhf"
			},
			{
				"type": "occ",
				"energy": -0.27095,
				"method": "rhf"
			},
			{
				"type": "occ",
				"energy": -0.25587,
				"method": "rhf"
			},
			{
				"type": "occ",
				"energy": -0.23208,
				"method": "rhf"
			},
			{
				"type": "occ",
				"energy": -0.22063,
				"method": "rhf"
			},
			{
				"type": "unocc",
				"energy": -0.0391,
				"method": "rhf"
			},
			{
				"type": "unocc",
				"energy": 0.0124,
				"method": "rhf"
			},
			{
				"type": "unocc",
				"energy": 0.0519,
				"method": "rhf"
			},
			{
				"type": "unocc",
				"energy": 0.07076,
				"method": "rhf"
			},
			{
				"type": "unocc",
				"energy": 0.07674,
				"method": "rhf"
			}
		],
		"cosmo_sigma_profile": { 
			"-0.025": 0.0,
			"-0.024": 0.0,
			"-0.023": 0.0,
			"-0.022": 0.0,
			"-0.021": 0.0,
			"-0.02": 0.0,
			"-0.019": 0.0,
			"-0.018": 0.0,
			"-0.017": 0.0,
			"-0.016": 0.0283763806497,
			"-0.015": 0.686040407441,
			"-0.014": 1.54019755806,
			"-0.013": 1.9771338268,
			"-0.012": 2.01183888332,
			"-0.011": 2.18380591908,
			"-0.01": 1.87693859765,
			"-0.009": 2.22511878215,
			"-0.008": 5.00186382818,
			"-0.007": 6.81502186381,
			"-0.006": 10.759630303,
			"-0.005": 13.8705074915,
			"-0.004": 16.7018854015,
			"-0.003": 29.585269213,
			"-0.002": 38.2988610117,
			"-0.001": 41.4644306074,
			"0.0": 40.3562904537,
			"0.001": 34.2407719167,
			"0.002": 19.9831812626,
			"0.003": 16.3664823072,
			"0.004": 11.8351155116,
			"0.005": 11.2729286834,
			"0.006": 7.01940354015,
			"0.007": 4.4993778994,
			"0.008": 3.36141447332,
			"0.009": 2.27719226615,
			"0.01": 2.70925780813,
			"0.011": 3.26720539747,
			"0.012": 6.37106124493,
			"0.013": 7.753562016,
			"0.014": 3.58424325885,
			"0.015": 0.0451097861233,
			"0.016": 0.0,
			"0.017": 0.0,
			"0.018": 0.0,
			"0.019": 0.0,
			"0.02": 0.0,
			"0.021": 0.0,
			"0.022": 0.0,
			"0.023": 0.0,
			"0.024": 0.0,
			"0.025": 0.0
		}
	}
}
