{
	 "smiles": "NC1=NC=CC=N1", 
	 "Tm": 399.15, 
	 "num_atms": 12, 
	 "gaussian": { 
		 "optdone": 1, 
		 "sigma_profile": "yes", 
		 "theory": "DFT", 
		 "functional": "B3LYP", 
		 "basiset": "6-31G**", 
		 "properties": { 
			 "R2extent": 818.6518, 
			 "electric_dipole_moment_norm": 0.616455497177, 
			 "electric_quadrupole_moment_norm": 9.09135926196, 
			 "total_energy": -319.699165631, 
			 "HOMO_LUMO_gap": 0.1975, 
			 "cosmo_polarized_energy": -8.71, 
			 "cosmo_cavitation_energy": 16.09, 
			 "cosmo_dispersion_energy": -12.46, 
			 "cosmo_repulsion_energy": 1.06, 
			 "cosmo_total_nonelectrostatic_energy": 4.7, 
			 "SMD_solvation_energy": 0.12 
		},
		"coords": [
			{
				"x": 1.2946383536,
				"y": 0.5789257362,
				"z": -0.7615787559,
				"element": "N" 
			},
			{
				"x": -0.0240980084,
				"y": 0.6032803278,
				"z": -0.4123248087,
				"element": "C" 
			},
			{
				"x": -0.7734860383,
				"y": -0.4486524801,
				"z": -0.8024892116,
				"element": "N" 
			},
			{
				"x": -2.0483567669,
				"y": -0.4247980698,
				"z": -0.4125442973,
				"element": "C" 
			},
			{
				"x": -2.5949889416,
				"y": 0.6100131782,
				"z": 0.3461707652,
				"element": "C" 
			},
			{
				"x": -1.7220910044,
				"y": 1.6469562065,
				"z": 0.6749372757,
				"element": "C" 
			},
			{
				"x": -0.4404861474,
				"y": 1.665794738,
				"z": 0.3074244027,
				"element": "N" 
			},
			{
				"x": 1.5769790667,
				"y": -0.0884532698,
				"z": -1.460817052,
				"element": "H" 
			},
			{
				"x": 1.816772969,
				"y": 1.4341547369,
				"z": -0.6615565451,
				"element": "H" 
			},
			{
				"x": -2.6586981052,
				"y": -1.2714160948,
				"z": -0.7253332182,
				"element": "H" 
			},
			{
				"x": -3.6339717419,
				"y": 0.6125048855,
				"z": 0.6531327465,
				"element": "H" 
			},
			{
				"x": -2.0643136351,
				"y": 2.5028901054,
				"z": 1.2557786988,
				"element": "H" 
			}
		],
		 "valence_orbital": [ 
			{
				"type": "occ",
				"energy": -0.3252,
				"method": "rhf"
			},
			{
				"type": "occ",
				"energy": -0.307,
				"method": "rhf"
			},
			{
				"type": "occ",
				"energy": -0.30587,
				"method": "rhf"
			},
			{
				"type": "occ",
				"energy": -0.24239,
				"method": "rhf"
			},
			{
				"type": "occ",
				"energy": -0.22545,
				"method": "rhf"
			},
			{
				"type": "unocc",
				"energy": -0.02795,
				"method": "rhf"
			},
			{
				"type": "unocc",
				"energy": 0.00525,
				"method": "rhf"
			},
			{
				"type": "unocc",
				"energy": 0.09472,
				"method": "rhf"
			},
			{
				"type": "unocc",
				"energy": 0.11283,
				"method": "rhf"
			},
			{
				"type": "unocc",
				"energy": 0.13785,
				"method": "rhf"
			}
		],
		"cosmo_sigma_profile": { 
			"-0.025": 0.0,
			"-0.024": 0.0,
			"-0.023": 0.0,
			"-0.022": 0.0,
			"-0.021": 0.0,
			"-0.02": 0.0,
			"-0.019": 0.0,
			"-0.018": 0.0,
			"-0.017": 0.0,
			"-0.016": 0.0,
			"-0.015": 0.0,
			"-0.014": 0.546493462216,
			"-0.013": 2.1048358103,
			"-0.012": 1.79917311173,
			"-0.011": 2.23081988436,
			"-0.01": 1.61720828878,
			"-0.009": 2.45073728987,
			"-0.008": 1.37882685185,
			"-0.007": 5.99103749796,
			"-0.006": 7.91332479563,
			"-0.005": 8.02423460675,
			"-0.004": 7.16734149194,
			"-0.003": 5.02329112315,
			"-0.002": 6.10249474714,
			"-0.001": 5.35559941981,
			"0.0": 8.95737884513,
			"0.001": 12.0934871534,
			"0.002": 10.0258451241,
			"0.003": 7.78163613793,
			"0.004": 4.78648193697,
			"0.005": 4.16714070587,
			"0.006": 3.28845488222,
			"0.007": 3.65742223998,
			"0.008": 2.683483085,
			"0.009": 2.75646554955,
			"0.01": 1.99883335061,
			"0.011": 2.44782220359,
			"0.012": 1.77931681193,
			"0.013": 1.55066170077,
			"0.014": 1.30803380494,
			"0.015": 1.43499718415,
			"0.016": 0.272683353349,
			"0.017": 0.0,
			"0.018": 0.0,
			"0.019": 0.0,
			"0.02": 0.0,
			"0.021": 0.0,
			"0.022": 0.0,
			"0.023": 0.0,
			"0.024": 0.0,
			"0.025": 0.0
		}
	}
}
