{
	 "smiles": "ClC1=C2C=C3C=CC=CC3=CC2=CC=C1", 
	 "Tm": 356.65, 
	 "num_atms": 24, 
	 "gaussian": { 
		 "optdone": 1, 
		 "sigma_profile": "yes", 
		 "theory": "DFT", 
		 "functional": "B3LYP", 
		 "basiset": "6-31G**", 
		 "properties": { 
			 "R2extent": 3781.831, 
			 "electric_dipole_moment_norm": 1.8541222964, 
			 "electric_quadrupole_moment_norm": 11.9858875324, 
			 "total_energy": -999.124631273, 
			 "HOMO_LUMO_gap": 0.13, 
			 "cosmo_polarized_energy": -5.72, 
			 "cosmo_cavitation_energy": 29.21, 
			 "cosmo_dispersion_energy": -21.99, 
			 "cosmo_repulsion_energy": 1.66, 
			 "cosmo_total_nonelectrostatic_energy": 8.88, 
			 "SMD_solvation_energy": 4.09 
		},
		"coords": [
			{
				"x": 0.3566977295,
				"y": -2.2903100974,
				"z": -2.0771949581,
				"element": "Cl" 
			},
			{
				"x": -0.8332271981,
				"y": -1.1956499788,
				"z": -1.3766744494,
				"element": "C" 
			},
			{
				"x": -0.3976173562,
				"y": -0.1604849756,
				"z": -0.4825541856,
				"element": "C" 
			},
			{
				"x": 0.9372516945,
				"y": 0.0478217665,
				"z": -0.1174143917,
				"element": "C" 
			},
			{
				"x": 1.308697609,
				"y": 1.0745767202,
				"z": 0.7604374192,
				"element": "C" 
			},
			{
				"x": 2.6707559095,
				"y": 1.2926326243,
				"z": 1.1374497734,
				"element": "C" 
			},
			{
				"x": 3.008965179,
				"y": 2.3037485662,
				"z": 1.9978130535,
				"element": "C" 
			},
			{
				"x": 2.0045657039,
				"y": 3.1617593671,
				"z": 2.5360925182,
				"element": "C" 
			},
			{
				"x": 0.6880948045,
				"y": 2.9864943564,
				"z": 2.200153201,
				"element": "C" 
			},
			{
				"x": 0.2926820031,
				"y": 1.9432917497,
				"z": 1.305583301,
				"element": "C" 
			},
			{
				"x": -1.0417702274,
				"y": 1.7340085268,
				"z": 0.9397110235,
				"element": "C" 
			},
			{
				"x": -1.4201456403,
				"y": 0.7095010529,
				"z": 0.0626558501,
				"element": "C" 
			},
			{
				"x": -2.7860301257,
				"y": 0.5053074917,
				"z": -0.3037839118,
				"element": "C" 
			},
			{
				"x": -3.1394069293,
				"y": -0.5002890522,
				"z": -1.1619591857,
				"element": "C" 
			},
			{
				"x": -2.1505021558,
				"y": -1.3661295448,
				"z": -1.7088614106,
				"element": "C" 
			},
			{
				"x": 1.7058734409,
				"y": -0.6010185676,
				"z": -0.5231648102,
				"element": "H" 
			},
			{
				"x": 3.4338131684,
				"y": 0.6373137447,
				"z": 0.7257349154,
				"element": "H" 
			},
			{
				"x": 4.0472826393,
				"y": 2.4586181251,
				"z": 2.2761179308,
				"element": "H" 
			},
			{
				"x": 2.2924248369,
				"y": 3.9577790242,
				"z": 3.2166424224,
				"element": "H" 
			},
			{
				"x": -0.0793224339,
				"y": 3.6388192013,
				"z": 2.6088495365,
				"element": "H" 
			},
			{
				"x": -1.8115791561,
				"y": 2.3853864603,
				"z": 1.3472787108,
				"element": "H" 
			},
			{
				"x": -3.5391558501,
				"y": 1.1671828994,
				"z": 0.1146760831,
				"element": "H" 
			},
			{
				"x": -4.1787087297,
				"y": -0.6512171442,
				"z": -1.4372198202,
				"element": "H" 
			},
			{
				"x": -2.4375389161,
				"y": -2.160842316,
				"z": -2.3882686154,
				"element": "H" 
			}
		],
		 "valence_orbital": [ 
			{
				"type": "occ",
				"energy": -0.30813,
				"method": "rhf"
			},
			{
				"type": "occ",
				"energy": -0.29357,
				"method": "rhf"
			},
			{
				"type": "occ",
				"energy": -0.25358,
				"method": "rhf"
			},
			{
				"type": "occ",
				"energy": -0.24637,
				"method": "rhf"
			},
			{
				"type": "occ",
				"energy": -0.19922,
				"method": "rhf"
			},
			{
				"type": "unocc",
				"energy": -0.06922,
				"method": "rhf"
			},
			{
				"type": "unocc",
				"energy": -0.01996,
				"method": "rhf"
			},
			{
				"type": "unocc",
				"energy": -0.00056,
				"method": "rhf"
			},
			{
				"type": "unocc",
				"energy": 0.03328,
				"method": "rhf"
			},
			{
				"type": "unocc",
				"energy": 0.03852,
				"method": "rhf"
			}
		],
		"cosmo_sigma_profile": { 
			"-0.025": 0.0,
			"-0.024": 0.0,
			"-0.023": 0.0,
			"-0.022": 0.0,
			"-0.021": 0.0,
			"-0.02": 0.0,
			"-0.019": 0.0,
			"-0.018": 0.0,
			"-0.017": 0.0,
			"-0.016": 0.0,
			"-0.015": 0.0,
			"-0.014": 0.0,
			"-0.013": 0.0,
			"-0.012": 0.0,
			"-0.011": 0.0,
			"-0.01": 0.0,
			"-0.009": 0.0,
			"-0.008": 0.100457099059,
			"-0.007": 4.34061184787,
			"-0.006": 19.4316160083,
			"-0.005": 16.2516352798,
			"-0.004": 16.9031086312,
			"-0.003": 13.5531658801,
			"-0.002": 12.6645977713,
			"-0.001": 12.2207754021,
			"0.0": 13.7361415955,
			"0.001": 17.8674961132,
			"0.002": 28.7894508183,
			"0.003": 41.7373913176,
			"0.004": 27.9979492964,
			"0.005": 12.0085844795,
			"0.006": 0.0993492516901,
			"0.007": 0.0,
			"0.008": 0.0,
			"0.009": 0.0,
			"0.01": 0.0,
			"0.011": 0.0,
			"0.012": 0.0,
			"0.013": 0.0,
			"0.014": 0.0,
			"0.015": 0.0,
			"0.016": 0.0,
			"0.017": 0.0,
			"0.018": 0.0,
			"0.019": 0.0,
			"0.02": 0.0,
			"0.021": 0.0,
			"0.022": 0.0,
			"0.023": 0.0,
			"0.024": 0.0,
			"0.025": 0.0
		}
	}
}
