{
	 "smiles": "CC(C)(C)OC(=O)NCCCC(N)=S", 
	 "Tm": 368.15, 
	 "num_atms": 32, 
	 "gaussian": { 
		 "optdone": 1, 
		 "sigma_profile": "yes", 
		 "theory": "DFT", 
		 "functional": "B3LYP", 
		 "basiset": "6-31G**", 
		 "properties": { 
			 "R2extent": 4359.4048, 
			 "electric_dipole_moment_norm": 5.21507104937, 
			 "electric_quadrupole_moment_norm": 22.1381797628, 
			 "total_energy": -1011.99579361, 
			 "HOMO_LUMO_gap": 0.17582, 
			 "cosmo_polarized_energy": -23.23, 
			 "cosmo_cavitation_energy": 36.3, 
			 "cosmo_dispersion_energy": -24.06, 
			 "cosmo_repulsion_energy": 1.89, 
			 "cosmo_total_nonelectrostatic_energy": 14.13, 
			 "SMD_solvation_energy": 5.47 
		},
		"coords": [
			{
				"x": 3.9264603162,
				"y": -1.393851332,
				"z": 0.2668502246,
				"element": "C" 
			},
			{
				"x": 2.6416658399,
				"y": -0.8000499283,
				"z": 0.8540493862,
				"element": "C" 
			},
			{
				"x": 2.0564204556,
				"y": -1.7181740951,
				"z": 1.9298055593,
				"element": "C" 
			},
			{
				"x": 2.8530133516,
				"y": 0.6157512601,
				"z": 1.4004676255,
				"element": "C" 
			},
			{
				"x": 1.5801170652,
				"y": -0.7870459519,
				"z": -0.1663691946,
				"element": "O" 
			},
			{
				"x": 1.7152753572,
				"y": -0.0738856952,
				"z": -1.3064306639,
				"element": "C" 
			},
			{
				"x": 2.6809248544,
				"y": 0.5970842857,
				"z": -1.6354363141,
				"element": "O" 
			},
			{
				"x": 0.6034078696,
				"y": -0.2164901852,
				"z": -2.1012261691,
				"element": "N" 
			},
			{
				"x": -0.6683349743,
				"y": -0.7934655618,
				"z": -1.6918793836,
				"element": "C" 
			},
			{
				"x": -1.5806995019,
				"y": 0.1928641126,
				"z": -0.946406847,
				"element": "C" 
			},
			{
				"x": -2.9478938932,
				"y": -0.4091994119,
				"z": -0.5690835505,
				"element": "C" 
			},
			{
				"x": -2.8568199541,
				"y": -1.5172175707,
				"z": 0.4689755035,
				"element": "C" 
			},
			{
				"x": -3.2151077708,
				"y": -2.7391468925,
				"z": 0.0290691734,
				"element": "N" 
			},
			{
				"x": -2.3477033812,
				"y": -1.2510120111,
				"z": 2.0315956059,
				"element": "S" 
			},
			{
				"x": 4.3347936566,
				"y": -0.7493661853,
				"z": -0.511817063,
				"element": "H" 
			},
			{
				"x": 3.7272577522,
				"y": -2.3827634482,
				"z": -0.1584499461,
				"element": "H" 
			},
			{
				"x": 4.671921169,
				"y": -1.510197991,
				"z": 1.060410772,
				"element": "H" 
			},
			{
				"x": 1.0996860494,
				"y": -1.3307784386,
				"z": 2.2909737701,
				"element": "H" 
			},
			{
				"x": 2.7474376202,
				"y": -1.7926910006,
				"z": 2.7749974493,
				"element": "H" 
			},
			{
				"x": 1.8897270581,
				"y": -2.723113359,
				"z": 1.5305298093,
				"element": "H" 
			},
			{
				"x": 3.2354373493,
				"y": 1.2796196997,
				"z": 0.6245556633,
				"element": "H" 
			},
			{
				"x": 1.9103844225,
				"y": 1.0186696924,
				"z": 1.7841165096,
				"element": "H" 
			},
			{
				"x": 3.5706313257,
				"y": 0.5868497309,
				"z": 2.2268778225,
				"element": "H" 
			},
			{
				"x": 0.6211846656,
				"y": 0.3970738148,
				"z": -2.902725634,
				"element": "H" 
			},
			{
				"x": -1.1721477285,
				"y": -1.1622240951,
				"z": -2.5950083977,
				"element": "H" 
			},
			{
				"x": -0.4554684886,
				"y": -1.6588566514,
				"z": -1.0610334005,
				"element": "H" 
			},
			{
				"x": -1.7528103159,
				"y": 1.0750522294,
				"z": -1.5753757755,
				"element": "H" 
			},
			{
				"x": -1.0780536641,
				"y": 0.5306253603,
				"z": -0.0354366885,
				"element": "H" 
			},
			{
				"x": -3.5753306986,
				"y": 0.3807866262,
				"z": -0.1465996078,
				"element": "H" 
			},
			{
				"x": -3.4544175699,
				"y": -0.7749044791,
				"z": -1.4738500981,
				"element": "H" 
			},
			{
				"x": -3.5397494103,
				"y": -2.894567775,
				"z": -0.9138526006,
				"element": "H" 
			},
			{
				"x": -3.1825088269,
				"y": -3.5208747529,
				"z": 0.6681064601,
				"element": "H" 
			}
		],
		 "valence_orbital": [ 
			{
				"type": "occ",
				"energy": -0.28131,
				"method": "rhf"
			},
			{
				"type": "occ",
				"energy": -0.25541,
				"method": "rhf"
			},
			{
				"type": "occ",
				"energy": -0.24643,
				"method": "rhf"
			},
			{
				"type": "occ",
				"energy": -0.23357,
				"method": "rhf"
			},
			{
				"type": "occ",
				"energy": -0.21114,
				"method": "rhf"
			},
			{
				"type": "unocc",
				"energy": -0.03532,
				"method": "rhf"
			},
			{
				"type": "unocc",
				"energy": 0.05072,
				"method": "rhf"
			},
			{
				"type": "unocc",
				"energy": 0.06098,
				"method": "rhf"
			},
			{
				"type": "unocc",
				"energy": 0.08021,
				"method": "rhf"
			},
			{
				"type": "unocc",
				"energy": 0.08381,
				"method": "rhf"
			}
		],
		"cosmo_sigma_profile": { 
			"-0.025": 0.0,
			"-0.024": 0.0,
			"-0.023": 0.0,
			"-0.022": 0.0,
			"-0.021": 0.0,
			"-0.02": 0.0,
			"-0.019": 0.0,
			"-0.018": 0.0,
			"-0.017": 0.0,
			"-0.016": 0.517563313019,
			"-0.015": 2.17988487856,
			"-0.014": 2.68568087099,
			"-0.013": 4.61471983802,
			"-0.012": 3.21402867428,
			"-0.011": 3.0375403754,
			"-0.01": 3.93468639541,
			"-0.009": 2.07674991017,
			"-0.008": 3.69245529949,
			"-0.007": 3.58196183411,
			"-0.006": 4.88124973538,
			"-0.005": 10.8602053614,
			"-0.004": 19.6482356047,
			"-0.003": 24.6891722451,
			"-0.002": 23.3310400472,
			"-0.001": 24.4529298004,
			"0.0": 30.1458606189,
			"0.001": 24.8143892586,
			"0.002": 11.6205000333,
			"0.003": 9.65888614618,
			"0.004": 11.3215696856,
			"0.005": 11.7722056262,
			"0.006": 9.51975170559,
			"0.007": 5.67345857082,
			"0.008": 5.10272662063,
			"0.009": 5.7563547276,
			"0.01": 5.65987815154,
			"0.011": 5.22649807622,
			"0.012": 4.1873308867,
			"0.013": 3.69317648824,
			"0.014": 3.13579229971,
			"0.015": 0.228872846465,
			"0.016": 0.0,
			"0.017": 0.0,
			"0.018": 0.0,
			"0.019": 0.0,
			"0.02": 0.0,
			"0.021": 0.0,
			"0.022": 0.0,
			"0.023": 0.0,
			"0.024": 0.0,
			"0.025": 0.0
		}
	}
}
