{
	 "smiles": "BrC1=CC=C(I)C=C1", 
	 "Tm": 364.65, 
	 "num_atms": 12, 
	 "gaussian": { 
		 "optdone": 1, 
		 "sigma_profile": "no", 
		 "theory": "DFT", 
		 "functional": "B3LYP", 
		 "basiset": "6-31G**", 
		 "properties": { 
			 "R2extent": 2721.451, 
			 "electric_dipole_moment_norm": 0.0193806604635, 
			 "electric_quadrupole_moment_norm": 6.11866850875, 
			 "total_energy": -2813.83676787, 
			 "HOMO_LUMO_gap": 0.1951, 
			 "cosmo_polarized_energy": -99211.36, 
			 "cosmo_cavitation_energy": 21.72, 
			 "cosmo_dispersion_energy": -18.07, 
			 "cosmo_repulsion_energy": 1.45, 
			 "cosmo_total_nonelectrostatic_energy": 5.1, 
			 "SMD_solvation_energy": 1.71 
		},
		"coords": [
			{
				"x": -2.7192216145,
				"y": -2.6094803269,
				"z": 0.1890435,
				"element": "Br" 
			},
			{
				"x": -1.5691567308,
				"y": -1.1900591225,
				"z": -0.3644335693,
				"element": "C" 
			},
			{
				"x": -2.1220492052,
				"y": 0.0270564219,
				"z": -0.7584197312,
				"element": "C" 
			},
			{
				"x": -1.2813660457,
				"y": 1.0654017915,
				"z": -1.1634347371,
				"element": "C" 
			},
			{
				"x": 0.1012497256,
				"y": 0.8715427854,
				"z": -1.1686361226,
				"element": "C" 
			},
			{
				"x": 1.3776447651,
				"y": 2.4468063937,
				"z": -1.7832003187,
				"element": "I" 
			},
			{
				"x": 0.6520274176,
				"y": -0.348958689,
				"z": -0.7733317589,
				"element": "C" 
			},
			{
				"x": -0.1894460553,
				"y": -1.3867265701,
				"z": -0.3684879586,
				"element": "C" 
			},
			{
				"x": -3.1968330852,
				"y": 0.1683887519,
				"z": -0.7511499749,
				"element": "H" 
			},
			{
				"x": -1.7090938406,
				"y": 2.0131385377,
				"z": -1.4704073267,
				"element": "H" 
			},
			{
				"x": 1.7256658397,
				"y": -0.4995185775,
				"z": -0.7773517174,
				"element": "H" 
			},
			{
				"x": 0.2291788294,
				"y": -2.3378913962,
				"z": -0.0598902845,
				"element": "H" 
			}
		],
		 "valence_orbital": [ 
			{
				"type": "occ",
				"energy": -0.29576,
				"method": "rhf"
			},
			{
				"type": "occ",
				"energy": -0.28469,
				"method": "rhf"
			},
			{
				"type": "occ",
				"energy": -0.2779,
				"method": "rhf"
			},
			{
				"type": "occ",
				"energy": -0.27496,
				"method": "rhf"
			},
			{
				"type": "occ",
				"energy": -0.24097,
				"method": "rhf"
			},
			{
				"type": "unocc",
				"energy": -0.04587,
				"method": "rhf"
			},
			{
				"type": "unocc",
				"energy": -0.03103,
				"method": "rhf"
			},
			{
				"type": "unocc",
				"energy": -0.0284,
				"method": "rhf"
			},
			{
				"type": "unocc",
				"energy": 0.00019,
				"method": "rhf"
			},
			{
				"type": "unocc",
				"energy": 0.03899,
				"method": "rhf"
			}
		],
		"cosmo_sigma_profile": { 
			"0.0": 0.0,
			"0.0": 0.0,
			"0.0": 0.0,
			"0.0": 0.0,
			"0.0": 0.0,
			"0.0": 0.0,
			"0.0": 0.0,
			"0.0": 0.0,
			"0.0": 0.0,
			"0.0": 0.0,
			"0.0": 0.0,
			"0.0": 0.0,
			"0.0": 0.0,
			"0.0": 0.0,
			"0.0": 0.0,
			"0.0": 0.0,
			"0.0": 0.0,
			"0.0": 0.0,
			"0.0": 0.0,
			"0.0": 0.0,
			"0.0": 0.0,
			"0.0": 0.0,
			"0.0": 0.0,
			"0.0": 0.0,
			"0.0": 0.0,
			"0.0": 0.0,
			"0.0": 0.0,
			"0.0": 0.0,
			"0.0": 0.0,
			"0.0": 0.0,
			"0.0": 0.0,
			"0.0": 0.0,
			"0.0": 0.0,
			"0.0": 0.0,
			"0.0": 0.0,
			"0.0": 0.0,
			"0.0": 0.0,
			"0.0": 0.0,
			"0.0": 0.0,
			"0.0": 0.0,
			"0.0": 0.0,
			"0.0": 0.0,
			"0.0": 0.0,
			"0.0": 0.0,
			"0.0": 0.0,
			"0.0": 0.0,
			"0.0": 0.0,
			"0.0": 0.0,
			"0.0": 0.0,
			"0.0": 0.0,
			"0.0": 0.0
		}
	}
}
