{
	 "smiles": "CC1=NN=C2CN=C(C3=C(SC(Br)=C3)N12)C1=CC=CC=C1Cl", 
	 "Tm": 486.15, 
	 "num_atms": 32, 
	 "gaussian": { 
		 "optdone": 1, 
		 "sigma_profile": "yes", 
		 "theory": "DFT", 
		 "functional": "B3LYP", 
		 "basiset": "6-31G**", 
		 "properties": { 
			 "R2extent": 11726.7375, 
			 "electric_dipole_moment_norm": 6.04965136268, 
			 "electric_quadrupole_moment_norm": 14.0535829133, 
			 "total_energy": -4226.35319827, 
			 "HOMO_LUMO_gap": 0.16977, 
			 "cosmo_polarized_energy": -19.18, 
			 "cosmo_cavitation_energy": 41.86, 
			 "cosmo_dispersion_energy": -29.88, 
			 "cosmo_repulsion_energy": 2.25, 
			 "cosmo_total_nonelectrostatic_energy": 14.24, 
			 "SMD_solvation_energy": 0.68 
		},
		"coords": [
			{
				"x": 1.5185974366,
				"y": -3.5713902716,
				"z": -0.2233049424,
				"element": "C" 
			},
			{
				"x": 1.7820467301,
				"y": -2.3245480446,
				"z": 0.5503267047,
				"element": "C" 
			},
			{
				"x": 2.0504221224,
				"y": -2.2794540987,
				"z": 1.8311576856,
				"element": "N" 
			},
			{
				"x": 2.2108506717,
				"y": -0.9546255795,
				"z": 2.2017730715,
				"element": "N" 
			},
			{
				"x": 2.0404939027,
				"y": -0.2232016379,
				"z": 1.1362428751,
				"element": "C" 
			},
			{
				"x": 2.0949098668,
				"y": 1.2620564201,
				"z": 1.0060798218,
				"element": "C" 
			},
			{
				"x": 0.7966820069,
				"y": 1.8424484882,
				"z": 0.6453726875,
				"element": "N" 
			},
			{
				"x": 0.2930938133,
				"y": 1.5869537182,
				"z": -0.5044870964,
				"element": "C" 
			},
			{
				"x": 0.8508755095,
				"y": 0.6580297174,
				"z": -1.5239088346,
				"element": "C" 
			},
			{
				"x": 1.4900561124,
				"y": -0.5360413293,
				"z": -1.238133287,
				"element": "C" 
			},
			{
				"x": 2.0015218372,
				"y": -1.3775217969,
				"z": -2.6860240513,
				"element": "S" 
			},
			{
				"x": 1.3136790326,
				"y": -0.1152787466,
				"z": -3.675648506,
				"element": "C" 
			},
			{
				"x": 1.3965208684,
				"y": -0.2459750243,
				"z": -5.5512717529,
				"element": "Br" 
			},
			{
				"x": 0.7454961696,
				"y": 0.8779738693,
				"z": -2.9405305963,
				"element": "C" 
			},
			{
				"x": 1.7609201777,
				"y": -1.030292505,
				"z": 0.0377545694,
				"element": "N" 
			},
			{
				"x": -1.0000346889,
				"y": 2.2594979362,
				"z": -0.8609233791,
				"element": "C" 
			},
			{
				"x": -2.1000149382,
				"y": 1.4640439515,
				"z": -1.2215900992,
				"element": "C" 
			},
			{
				"x": -3.3435146472,
				"y": 2.0219529106,
				"z": -1.5061312985,
				"element": "C" 
			},
			{
				"x": -3.5048810623,
				"y": 3.4067634283,
				"z": -1.453010885,
				"element": "C" 
			},
			{
				"x": -2.4245441681,
				"y": 4.2223467059,
				"z": -1.1210493676,
				"element": "C" 
			},
			{
				"x": -1.184628603,
				"y": 3.6522820562,
				"z": -0.8261213256,
				"element": "C" 
			},
			{
				"x": 0.1414778174,
				"y": 4.7477290629,
				"z": -0.4709783923,
				"element": "Cl" 
			},
			{
				"x": 0.5729474361,
				"y": -3.5200293811,
				"z": -0.7728283061,
				"element": "H" 
			},
			{
				"x": 2.3144061391,
				"y": -3.7922461446,
				"z": -0.9431546601,
				"element": "H" 
			},
			{
				"x": 1.4678692656,
				"y": -4.3951814487,
				"z": 0.4902319457,
				"element": "H" 
			},
			{
				"x": 2.8516613301,
				"y": 1.5386083528,
				"z": 0.2553882584,
				"element": "H" 
			},
			{
				"x": 2.404695467,
				"y": 1.66836224,
				"z": 1.969958879,
				"element": "H" 
			},
			{
				"x": 0.2652414723,
				"y": 1.744736515,
				"z": -3.3750218819,
				"element": "H" 
			},
			{
				"x": -1.9695542404,
				"y": 0.3865589697,
				"z": -1.2600999745,
				"element": "H" 
			},
			{
				"x": -4.1790709274,
				"y": 1.3801956481,
				"z": -1.7672031584,
				"element": "H" 
			},
			{
				"x": -4.4671660749,
				"y": 3.8577596635,
				"z": -1.6756421774,
				"element": "H" 
			},
			{
				"x": -2.5319558352,
				"y": 5.3008863548,
				"z": -1.0916225263,
				"element": "H" 
			}
		],
		 "valence_orbital": [ 
			{
				"type": "occ",
				"energy": -0.26517,
				"method": "rhf"
			},
			{
				"type": "occ",
				"energy": -0.2614,
				"method": "rhf"
			},
			{
				"type": "occ",
				"energy": -0.25404,
				"method": "rhf"
			},
			{
				"type": "occ",
				"energy": -0.25041,
				"method": "rhf"
			},
			{
				"type": "occ",
				"energy": -0.24099,
				"method": "rhf"
			},
			{
				"type": "unocc",
				"energy": -0.07122,
				"method": "rhf"
			},
			{
				"type": "unocc",
				"energy": -0.0453,
				"method": "rhf"
			},
			{
				"type": "unocc",
				"energy": -0.02831,
				"method": "rhf"
			},
			{
				"type": "unocc",
				"energy": -0.02292,
				"method": "rhf"
			},
			{
				"type": "unocc",
				"energy": -0.01611,
				"method": "rhf"
			}
		],
		"cosmo_sigma_profile": { 
			"-0.025": 0.0,
			"-0.024": 0.0,
			"-0.023": 0.0,
			"-0.022": 0.0,
			"-0.021": 0.0,
			"-0.02": 0.0,
			"-0.019": 0.0,
			"-0.018": 0.0,
			"-0.017": 0.0,
			"-0.016": 0.0,
			"-0.015": 0.0,
			"-0.014": 0.0,
			"-0.013": 0.0,
			"-0.012": 0.0,
			"-0.011": 0.0,
			"-0.01": 0.0,
			"-0.009": 0.788629655151,
			"-0.008": 2.52353831823,
			"-0.007": 14.5881566632,
			"-0.006": 24.1627092051,
			"-0.005": 26.3234509267,
			"-0.004": 25.7470888243,
			"-0.003": 25.9842677463,
			"-0.002": 28.47055029,
			"-0.001": 26.0639002883,
			"0.0": 27.817056539,
			"0.001": 26.3831493324,
			"0.002": 27.3946452682,
			"0.003": 28.4699652828,
			"0.004": 14.3863770333,
			"0.005": 7.90895951609,
			"0.006": 4.87110647695,
			"0.007": 3.03156070771,
			"0.008": 2.92501880034,
			"0.009": 3.27576929069,
			"0.01": 2.9811590496,
			"0.011": 3.49191360055,
			"0.012": 3.5101057813,
			"0.013": 4.72820743922,
			"0.014": 3.51117873007,
			"0.015": 2.9038452345,
			"0.016": 1.87426819113,
			"0.017": 0.326952300966,
			"0.018": 0.0,
			"0.019": 0.0,
			"0.02": 0.0,
			"0.021": 0.0,
			"0.022": 0.0,
			"0.023": 0.0,
			"0.024": 0.0,
			"0.025": 0.0
		}
	}
}
