{
	 "smiles": "CC(CC1=CC=CC=C1)C(C)=N/NC(N)=O", 
	 "Tm": 385.15, 
	 "num_atms": 33, 
	 "gaussian": { 
		 "optdone": 1, 
		 "sigma_profile": "yes", 
		 "theory": "DFT", 
		 "functional": "B3LYP", 
		 "basiset": "6-31G**", 
		 "properties": { 
			 "R2extent": 3657.7507, 
			 "electric_dipole_moment_norm": 5.40050468012, 
			 "electric_quadrupole_moment_norm": 19.3217789877, 
			 "total_energy": -706.992249485, 
			 "HOMO_LUMO_gap": 0.20293, 
			 "cosmo_polarized_energy": -21.87, 
			 "cosmo_cavitation_energy": 35.53, 
			 "cosmo_dispersion_energy": -23.41, 
			 "cosmo_repulsion_energy": 1.87, 
			 "cosmo_total_nonelectrostatic_energy": 13.99, 
			 "SMD_solvation_energy": 6.33 
		},
		"coords": [
			{
				"x": 1.4155681119,
				"y": -0.6792778399,
				"z": 1.6160880162,
				"element": "C" 
			},
			{
				"x": 1.5305927813,
				"y": -1.1452137353,
				"z": 0.1517779969,
				"element": "C" 
			},
			{
				"x": 2.0167970714,
				"y": -0.02470606,
				"z": -0.8235060793,
				"element": "C" 
			},
			{
				"x": 1.0974666615,
				"y": 1.1619865874,
				"z": -1.0225899262,
				"element": "C" 
			},
			{
				"x": 1.1241912767,
				"y": 2.2559777978,
				"z": -0.1417252794,
				"element": "C" 
			},
			{
				"x": 0.2626584667,
				"y": 3.3418555414,
				"z": -0.317193992,
				"element": "C" 
			},
			{
				"x": -0.6392753001,
				"y": 3.3553132134,
				"z": -1.3827932014,
				"element": "C" 
			},
			{
				"x": -0.6693557387,
				"y": 2.2802984286,
				"z": -2.2733600281,
				"element": "C" 
			},
			{
				"x": 0.1927454718,
				"y": 1.1978385317,
				"z": -2.0955440847,
				"element": "C" 
			},
			{
				"x": 0.3235816052,
				"y": -1.9409005135,
				"z": -0.367018953,
				"element": "C" 
			},
			{
				"x": 0.6631131526,
				"y": -3.2363489557,
				"z": -1.0683995863,
				"element": "C" 
			},
			{
				"x": -0.932505477,
				"y": -1.6928415948,
				"z": -0.2644954918,
				"element": "N" 
			},
			{
				"x": -1.3720567633,
				"y": -0.5367681027,
				"z": 0.32575879,
				"element": "N" 
			},
			{
				"x": -2.7559370176,
				"y": -0.315000388,
				"z": 0.3497875316,
				"element": "C" 
			},
			{
				"x": -3.0641491913,
				"y": 0.9893020825,
				"z": 0.7202119196,
				"element": "N" 
			},
			{
				"x": -3.5985345687,
				"y": -1.1469474974,
				"z": 0.0794336662,
				"element": "O" 
			},
			{
				"x": 1.0913575243,
				"y": -1.5047601457,
				"z": 2.2565301907,
				"element": "H" 
			},
			{
				"x": 0.7112354265,
				"y": 0.1410681139,
				"z": 1.7625732723,
				"element": "H" 
			},
			{
				"x": 2.3951696872,
				"y": -0.3413628654,
				"z": 1.9720643073,
				"element": "H" 
			},
			{
				"x": 2.3523830468,
				"y": -1.872574383,
				"z": 0.1420506273,
				"element": "H" 
			},
			{
				"x": 2.2149771968,
				"y": -0.4882273627,
				"z": -1.7966568804,
				"element": "H" 
			},
			{
				"x": 2.9842528884,
				"y": 0.3303399386,
				"z": -0.4466966444,
				"element": "H" 
			},
			{
				"x": 1.8361968274,
				"y": 2.2625392004,
				"z": 0.6796151478,
				"element": "H" 
			},
			{
				"x": 0.3051029641,
				"y": 4.180538572,
				"z": 0.3723846868,
				"element": "H" 
			},
			{
				"x": -1.3095908308,
				"y": 4.1983258368,
				"z": -1.5215315781,
				"element": "H" 
			},
			{
				"x": -1.3655377115,
				"y": 2.2829293193,
				"z": -3.1067563966,
				"element": "H" 
			},
			{
				"x": 0.1585618417,
				"y": 0.3633029234,
				"z": -2.7907533376,
				"element": "H" 
			},
			{
				"x": 1.331590186,
				"y": -3.0598643897,
				"z": -1.9216072496,
				"element": "H" 
			},
			{
				"x": 1.1897616013,
				"y": -3.9233645918,
				"z": -0.3930860307,
				"element": "H" 
			},
			{
				"x": -0.2472004484,
				"y": -3.718603356,
				"z": -1.4266580029,
				"element": "H" 
			},
			{
				"x": -0.782495054,
				"y": 0.2868744115,
				"z": 0.2612549972,
				"element": "H" 
			},
			{
				"x": -2.4053122252,
				"y": 1.5072343233,
				"z": 1.2844231716,
				"element": "H" 
			},
			{
				"x": -4.0322534632,
				"y": 1.10343696,
				"z": 0.9819184209,
				"element": "H" 
			}
		],
		 "valence_orbital": [ 
			{
				"type": "occ",
				"energy": -0.26253,
				"method": "rhf"
			},
			{
				"type": "occ",
				"energy": -0.25988,
				"method": "rhf"
			},
			{
				"type": "occ",
				"energy": -0.25415,
				"method": "rhf"
			},
			{
				"type": "occ",
				"energy": -0.24215,
				"method": "rhf"
			},
			{
				"type": "occ",
				"energy": -0.21813,
				"method": "rhf"
			},
			{
				"type": "unocc",
				"energy": -0.0152,
				"method": "rhf"
			},
			{
				"type": "unocc",
				"energy": -0.0133,
				"method": "rhf"
			},
			{
				"type": "unocc",
				"energy": 0.0085,
				"method": "rhf"
			},
			{
				"type": "unocc",
				"energy": 0.06496,
				"method": "rhf"
			},
			{
				"type": "unocc",
				"energy": 0.0727,
				"method": "rhf"
			}
		],
		"cosmo_sigma_profile": { 
			"-0.025": 0.0,
			"-0.024": 0.0,
			"-0.023": 0.0,
			"-0.022": 0.0,
			"-0.021": 0.0,
			"-0.02": 0.0,
			"-0.019": 0.0,
			"-0.018": 0.0,
			"-0.017": 0.0,
			"-0.016": 0.0,
			"-0.015": 0.0,
			"-0.014": 0.0943765579317,
			"-0.013": 2.20376917714,
			"-0.012": 2.90008910073,
			"-0.011": 2.07861131172,
			"-0.01": 2.60142622256,
			"-0.009": 2.64222763976,
			"-0.008": 2.40473927196,
			"-0.007": 1.90467283977,
			"-0.006": 5.55169549844,
			"-0.005": 18.126616451,
			"-0.004": 34.6087387139,
			"-0.003": 33.1451693573,
			"-0.002": 23.589521187,
			"-0.001": 23.0067410453,
			"0.0": 22.5931343704,
			"0.001": 17.4575140388,
			"0.002": 12.8546093745,
			"0.003": 10.1111453081,
			"0.004": 10.5658570074,
			"0.005": 10.319504754,
			"0.006": 8.2022877274,
			"0.007": 3.35332450727,
			"0.008": 2.87138523535,
			"0.009": 2.64554945731,
			"0.01": 2.34907985639,
			"0.011": 1.44168891415,
			"0.012": 3.02438992355,
			"0.013": 3.23231316256,
			"0.014": 6.46683984394,
			"0.015": 2.46487000269,
			"0.016": 0.94432887242,
			"0.017": 1.34578480827,
			"0.018": 1.17993589197,
			"0.019": 0.751997510959,
			"0.02": 0.147636632168,
			"0.021": 0.0,
			"0.022": 0.0,
			"0.023": 0.0,
			"0.024": 0.0,
			"0.025": 0.0
		}
	}
}
