{
	 "smiles": "CCOC1=CC=C2C=CC(=O)OC2=C1", 
	 "Tm": 363.15, 
	 "num_atms": 24, 
	 "gaussian": { 
		 "optdone": 1, 
		 "sigma_profile": "yes", 
		 "theory": "DFT", 
		 "functional": "B3LYP", 
		 "basiset": "6-31G**", 
		 "properties": { 
			 "R2extent": 4092.8777, 
			 "electric_dipole_moment_norm": 6.61857298668, 
			 "electric_quadrupole_moment_norm": 17.6216358571, 
			 "total_energy": -650.869459567, 
			 "HOMO_LUMO_gap": 0.16228, 
			 "cosmo_polarized_energy": -12.94, 
			 "cosmo_cavitation_energy": 28.38, 
			 "cosmo_dispersion_energy": -21.21, 
			 "cosmo_repulsion_energy": 1.66, 
			 "cosmo_total_nonelectrostatic_energy": 8.83, 
			 "SMD_solvation_energy": 6.37 
		},
		"coords": [
			{
				"x": 3.3660491153,
				"y": -1.5620748333,
				"z": -2.0323534118,
				"element": "C" 
			},
			{
				"x": 2.2160946873,
				"y": -1.7192543966,
				"z": -1.0537247034,
				"element": "C" 
			},
			{
				"x": 1.3175638659,
				"y": -0.6268858476,
				"z": -1.2701962989,
				"element": "O" 
			},
			{
				"x": 0.1943910847,
				"y": -0.5315844365,
				"z": -0.5154333583,
				"element": "C" 
			},
			{
				"x": -0.1654217993,
				"y": -1.449575542,
				"z": 0.4923789128,
				"element": "C" 
			},
			{
				"x": -1.3408722884,
				"y": -1.2532720095,
				"z": 1.2042184434,
				"element": "C" 
			},
			{
				"x": -2.1830922917,
				"y": -0.1600650014,
				"z": 0.9449710114,
				"element": "C" 
			},
			{
				"x": -3.4127412125,
				"y": 0.106079767,
				"z": 1.6404392933,
				"element": "C" 
			},
			{
				"x": -4.1670349935,
				"y": 1.1856190364,
				"z": 1.3270579741,
				"element": "C" 
			},
			{
				"x": -3.7686050176,
				"y": 2.1180693094,
				"z": 0.2791152522,
				"element": "C" 
			},
			{
				"x": -4.3732790089,
				"y": 3.1042965787,
				"z": -0.0698364844,
				"element": "O" 
			},
			{
				"x": -2.5661111282,
				"y": 1.8286405564,
				"z": -0.377415042,
				"element": "O" 
			},
			{
				"x": -1.7981178258,
				"y": 0.7441214242,
				"z": -0.0702725705,
				"element": "C" 
			},
			{
				"x": -0.6266498498,
				"y": 0.5674284994,
				"z": -0.7950078978,
				"element": "C" 
			},
			{
				"x": 4.0820329259,
				"y": -2.3792913281,
				"z": -1.9028187137,
				"element": "H" 
			},
			{
				"x": 3.0007535405,
				"y": -1.5800866917,
				"z": -3.062756433,
				"element": "H" 
			},
			{
				"x": 3.8863115647,
				"y": -0.6147058599,
				"z": -1.8670883604,
				"element": "H" 
			},
			{
				"x": 2.5776249408,
				"y": -1.7025591895,
				"z": -0.0164710626,
				"element": "H" 
			},
			{
				"x": 1.690005971,
				"y": -2.6701204253,
				"z": -1.2148459765,
				"element": "H" 
			},
			{
				"x": 0.4614621276,
				"y": -2.3028826649,
				"z": 0.7173395482,
				"element": "H" 
			},
			{
				"x": -1.6212801973,
				"y": -1.9588614299,
				"z": 1.9816639207,
				"element": "H" 
			},
			{
				"x": -3.7274649588,
				"y": -0.5775702774,
				"z": 2.4255522746,
				"element": "H" 
			},
			{
				"x": -5.0981293548,
				"y": 1.4162205908,
				"z": 1.8301467005,
				"element": "H" 
			},
			{
				"x": -0.3485898972,
				"y": 1.2718141713,
				"z": -1.5697630179,
				"element": "H" 
			}
		],
		 "valence_orbital": [ 
			{
				"type": "occ",
				"energy": -0.33798,
				"method": "rhf"
			},
			{
				"type": "occ",
				"energy": -0.29229,
				"method": "rhf"
			},
			{
				"type": "occ",
				"energy": -0.26775,
				"method": "rhf"
			},
			{
				"type": "occ",
				"energy": -0.24786,
				"method": "rhf"
			},
			{
				"type": "occ",
				"energy": -0.2224,
				"method": "rhf"
			},
			{
				"type": "unocc",
				"energy": -0.06012,
				"method": "rhf"
			},
			{
				"type": "unocc",
				"energy": -0.01038,
				"method": "rhf"
			},
			{
				"type": "unocc",
				"energy": 0.01139,
				"method": "rhf"
			},
			{
				"type": "unocc",
				"energy": 0.0832,
				"method": "rhf"
			},
			{
				"type": "unocc",
				"energy": 0.0897,
				"method": "rhf"
			}
		],
		"cosmo_sigma_profile": { 
			"-0.025": 0.0,
			"-0.024": 0.0,
			"-0.023": 0.0,
			"-0.022": 0.0,
			"-0.021": 0.0,
			"-0.02": 0.0,
			"-0.019": 0.0,
			"-0.018": 0.0,
			"-0.017": 0.0,
			"-0.016": 0.0,
			"-0.015": 0.0,
			"-0.014": 0.0,
			"-0.013": 0.0,
			"-0.012": 0.0,
			"-0.011": 0.0,
			"-0.01": 0.0,
			"-0.009": 0.310664161287,
			"-0.008": 4.66849176443,
			"-0.007": 9.58539636554,
			"-0.006": 11.6671334604,
			"-0.005": 15.3155372195,
			"-0.004": 19.87327317,
			"-0.003": 18.294957429,
			"-0.002": 17.0776173975,
			"-0.001": 17.6673010346,
			"0.0": 19.9999156012,
			"0.001": 18.9534328803,
			"0.002": 19.8835431236,
			"0.003": 13.0963580387,
			"0.004": 5.88329319747,
			"0.005": 3.51115349098,
			"0.006": 3.76492127224,
			"0.007": 3.45319043172,
			"0.008": 3.9741786633,
			"0.009": 3.51045317584,
			"0.01": 2.68976420766,
			"0.011": 3.52252815139,
			"0.012": 6.26365946524,
			"0.013": 3.47688372099,
			"0.014": 0.264445365143,
			"0.015": 0.0,
			"0.016": 0.0,
			"0.017": 0.0,
			"0.018": 0.0,
			"0.019": 0.0,
			"0.02": 0.0,
			"0.021": 0.0,
			"0.022": 0.0,
			"0.023": 0.0,
			"0.024": 0.0,
			"0.025": 0.0
		}
	}
}
