{
	 "smiles": "CC1=CC(N)=C(Br)N=C1", 
	 "Tm": 378.15, 
	 "num_atms": 16, 
	 "gaussian": { 
		 "optdone": 1, 
		 "sigma_profile": "yes", 
		 "theory": "DFT", 
		 "functional": "B3LYP", 
		 "basiset": "6-31G**", 
		 "properties": { 
			 "R2extent": 2462.5949, 
			 "electric_dipole_moment_norm": 4.09261843078, 
			 "electric_quadrupole_moment_norm": 9.65753714256, 
			 "total_energy": -2913.771207, 
			 "HOMO_LUMO_gap": 0.19049, 
			 "cosmo_polarized_energy": -10.33, 
			 "cosmo_cavitation_energy": 21.92, 
			 "cosmo_dispersion_energy": -16.97, 
			 "cosmo_repulsion_energy": 1.4, 
			 "cosmo_total_nonelectrostatic_energy": 6.34, 
			 "SMD_solvation_energy": 1.37 
		},
		"coords": [
			{
				"x": -0.3989039341,
				"y": -2.2541657797,
				"z": -1.8519033783,
				"element": "C" 
			},
			{
				"x": 0.0061384712,
				"y": -1.0327547441,
				"z": -1.0651797051,
				"element": "C" 
			},
			{
				"x": -0.0156730941,
				"y": 0.2415900627,
				"z": -1.6376512673,
				"element": "C" 
			},
			{
				"x": 0.3652327448,
				"y": 1.3739397449,
				"z": -0.9021435141,
				"element": "C" 
			},
			{
				"x": 0.4034339088,
				"y": 2.6339358719,
				"z": -1.463495119,
				"element": "N" 
			},
			{
				"x": 0.7526306848,
				"y": 1.1179949611,
				"z": 0.4333605114,
				"element": "C" 
			},
			{
				"x": 1.2730441472,
				"y": 2.6223087955,
				"z": 1.5397566584,
				"element": "Br" 
			},
			{
				"x": 0.7824067307,
				"y": -0.0641247522,
				"z": 0.9926525757,
				"element": "N" 
			},
			{
				"x": 0.4196975376,
				"y": -1.1302315257,
				"z": 0.2665892822,
				"element": "C" 
			},
			{
				"x": -1.4297605325,
				"y": -2.1720533478,
				"z": -2.2144526382,
				"element": "H" 
			},
			{
				"x": 0.2430388101,
				"y": -2.3943370025,
				"z": -2.7289029196,
				"element": "H" 
			},
			{
				"x": -0.3307364668,
				"y": -3.1577118424,
				"z": -1.2403069418,
				"element": "H" 
			},
			{
				"x": -0.3250778136,
				"y": 0.3681578759,
				"z": -2.6733463461,
				"element": "H" 
			},
			{
				"x": -0.1922155892,
				"y": 2.7874136088,
				"z": -2.2636200564,
				"element": "H" 
			},
			{
				"x": 0.4374829833,
				"y": 3.4048068306,
				"z": -0.8107729831,
				"element": "H" 
			},
			{
				"x": 0.4587614118,
				"y": -2.0932687571,
				"z": 0.7703158413,
				"element": "H" 
			}
		],
		 "valence_orbital": [ 
			{
				"type": "occ",
				"energy": -0.30443,
				"method": "rhf"
			},
			{
				"type": "occ",
				"energy": -0.28639,
				"method": "rhf"
			},
			{
				"type": "occ",
				"energy": -0.26196,
				"method": "rhf"
			},
			{
				"type": "occ",
				"energy": -0.25964,
				"method": "rhf"
			},
			{
				"type": "occ",
				"energy": -0.21547,
				"method": "rhf"
			},
			{
				"type": "unocc",
				"energy": -0.02498,
				"method": "rhf"
			},
			{
				"type": "unocc",
				"energy": 0.00133,
				"method": "rhf"
			},
			{
				"type": "unocc",
				"energy": 0.01348,
				"method": "rhf"
			},
			{
				"type": "unocc",
				"energy": 0.07968,
				"method": "rhf"
			},
			{
				"type": "unocc",
				"energy": 0.10583,
				"method": "rhf"
			}
		],
		"cosmo_sigma_profile": { 
			"-0.025": 0.0,
			"-0.024": 0.0,
			"-0.023": 0.0,
			"-0.022": 0.0,
			"-0.021": 0.0,
			"-0.02": 0.0,
			"-0.019": 0.0,
			"-0.018": 0.0,
			"-0.017": 0.0,
			"-0.016": 0.0,
			"-0.015": 0.0,
			"-0.014": 0.532669593905,
			"-0.013": 1.53033838247,
			"-0.012": 1.46249492621,
			"-0.011": 2.42234143055,
			"-0.01": 2.59673690646,
			"-0.009": 2.43939541534,
			"-0.008": 3.01876251111,
			"-0.007": 2.98156512356,
			"-0.006": 4.23286528776,
			"-0.005": 8.96280290136,
			"-0.004": 11.9480407289,
			"-0.003": 13.1472232881,
			"-0.002": 11.7616338321,
			"-0.001": 14.3656598431,
			"0.0": 12.5402746174,
			"0.001": 13.9871902952,
			"0.002": 14.5529642681,
			"0.003": 15.1288778066,
			"0.004": 10.1986219919,
			"0.005": 10.3069825803,
			"0.006": 4.16295345786,
			"0.007": 3.34063625318,
			"0.008": 2.15016921572,
			"0.009": 2.25298019626,
			"0.01": 1.94709693669,
			"0.011": 1.60071771517,
			"0.012": 1.68852764084,
			"0.013": 1.25739033796,
			"0.014": 0.70199680977,
			"0.015": 0.440098183205,
			"0.016": 0.0,
			"0.017": 0.0,
			"0.018": 0.0,
			"0.019": 0.0,
			"0.02": 0.0,
			"0.021": 0.0,
			"0.022": 0.0,
			"0.023": 0.0,
			"0.024": 0.0,
			"0.025": 0.0
		}
	}
}
