{
	 "smiles": "CC(C)C(O)(C(O)=O)C1=CC=CC=C1", 
	 "Tm": 422.15, 
	 "num_atms": 28, 
	 "gaussian": { 
		 "optdone": 1, 
		 "sigma_profile": "yes", 
		 "theory": "DFT", 
		 "functional": "B3LYP", 
		 "basiset": "6-31G**", 
		 "properties": { 
			 "R2extent": 3545.5648, 
			 "electric_dipole_moment_norm": 3.52339411505, 
			 "electric_quadrupole_moment_norm": 20.7258192434, 
			 "total_energy": -653.289151429, 
			 "HOMO_LUMO_gap": 0.22522, 
			 "cosmo_polarized_energy": -10.84, 
			 "cosmo_cavitation_energy": 29.33, 
			 "cosmo_dispersion_energy": -21.0, 
			 "cosmo_repulsion_energy": 1.64, 
			 "cosmo_total_nonelectrostatic_energy": 9.97, 
			 "SMD_solvation_energy": 6.2 
		},
		"coords": [
			{
				"x": 1.2663660162,
				"y": -1.9822994657,
				"z": 1.7766548161,
				"element": "C" 
			},
			{
				"x": -0.2194018994,
				"y": -1.6786713031,
				"z": 1.515823657,
				"element": "C" 
			},
			{
				"x": -0.6007361637,
				"y": -1.9695411139,
				"z": 0.0590800408,
				"element": "C" 
			},
			{
				"x": -0.7698023645,
				"y": -0.2664150136,
				"z": 1.9592444622,
				"element": "C" 
			},
			{
				"x": -2.1868382769,
				"y": -0.3444063333,
				"z": 1.9030012193,
				"element": "O" 
			},
			{
				"x": -0.4272587172,
				"y": -0.0769861344,
				"z": 3.4678870402,
				"element": "C" 
			},
			{
				"x": 0.6668754795,
				"y": 0.6158011539,
				"z": 3.8138010613,
				"element": "O" 
			},
			{
				"x": -1.1331542947,
				"y": -0.5924214839,
				"z": 4.3083028332,
				"element": "O" 
			},
			{
				"x": -0.3224504078,
				"y": 0.9257777624,
				"z": 1.1079934049,
				"element": "C" 
			},
			{
				"x": 1.0316887163,
				"y": 1.1851200772,
				"z": 0.8252978261,
				"element": "C" 
			},
			{
				"x": 1.4103346494,
				"y": 2.3143484142,
				"z": 0.0928963241,
				"element": "C" 
			},
			{
				"x": 0.4449787068,
				"y": 3.2018103159,
				"z": -0.3786904183,
				"element": "C" 
			},
			{
				"x": -0.9018788352,
				"y": 2.9502293898,
				"z": -0.1105821551,
				"element": "C" 
			},
			{
				"x": -1.2817022425,
				"y": 1.8293626559,
				"z": 0.6270029826,
				"element": "C" 
			},
			{
				"x": 1.9218988591,
				"y": -1.5170946632,
				"z": 1.0343488414,
				"element": "H" 
			},
			{
				"x": 1.59762384,
				"y": -1.6739115469,
				"z": 2.7731882668,
				"element": "H" 
			},
			{
				"x": 1.427550354,
				"y": -3.0625110364,
				"z": 1.7015137048,
				"element": "H" 
			},
			{
				"x": -0.7958803128,
				"y": -2.3562930093,
				"z": 2.1584572561,
				"element": "H" 
			},
			{
				"x": -0.0273505356,
				"y": -1.3452655675,
				"z": -0.6344385319,
				"element": "H" 
			},
			{
				"x": -0.3919595777,
				"y": -3.0168720536,
				"z": -0.1832957606,
				"element": "H" 
			},
			{
				"x": -1.663993492,
				"y": -1.7827139185,
				"z": -0.1062159224,
				"element": "H" 
			},
			{
				"x": -2.451022824,
				"y": -0.6916660989,
				"z": 2.7728306734,
				"element": "H" 
			},
			{
				"x": 1.021125129,
				"y": 1.0752356018,
				"z": 3.0325066119,
				"element": "H" 
			},
			{
				"x": 1.8067709169,
				"y": 0.4982207833,
				"z": 1.1482698784,
				"element": "H" 
			},
			{
				"x": 2.4624755796,
				"y": 2.4893745231,
				"z": -0.1124712899,
				"element": "H" 
			},
			{
				"x": 0.7376902698,
				"y": 4.0773874022,
				"z": -0.9504669786,
				"element": "H" 
			},
			{
				"x": -1.6646154832,
				"y": 3.6329576511,
				"z": -0.4743717462,
				"element": "H" 
			},
			{
				"x": -2.3255330894,
				"y": 1.6358430114,
				"z": 0.8386319023,
				"element": "H" 
			}
		],
		 "valence_orbital": [ 
			{
				"type": "occ",
				"energy": -0.32196,
				"method": "rhf"
			},
			{
				"type": "occ",
				"energy": -0.29527,
				"method": "rhf"
			},
			{
				"type": "occ",
				"energy": -0.27949,
				"method": "rhf"
			},
			{
				"type": "occ",
				"energy": -0.26512,
				"method": "rhf"
			},
			{
				"type": "occ",
				"energy": -0.25176,
				"method": "rhf"
			},
			{
				"type": "unocc",
				"energy": -0.02654,
				"method": "rhf"
			},
			{
				"type": "unocc",
				"energy": -0.01686,
				"method": "rhf"
			},
			{
				"type": "unocc",
				"energy": 0.00161,
				"method": "rhf"
			},
			{
				"type": "unocc",
				"energy": 0.07425,
				"method": "rhf"
			},
			{
				"type": "unocc",
				"energy": 0.09414,
				"method": "rhf"
			}
		],
		"cosmo_sigma_profile": { 
			"-0.025": 0.0,
			"-0.024": 0.0,
			"-0.023": 0.0,
			"-0.022": 0.0,
			"-0.021": 0.0,
			"-0.02": 0.0,
			"-0.019": 0.0,
			"-0.018": 0.0,
			"-0.017": 0.0,
			"-0.016": 0.0,
			"-0.015": 0.0,
			"-0.014": 0.046374789648,
			"-0.013": 0.858100103842,
			"-0.012": 1.37709782045,
			"-0.011": 1.36896371886,
			"-0.01": 2.39806996761,
			"-0.009": 1.49300438026,
			"-0.008": 1.87749234009,
			"-0.007": 3.29010119882,
			"-0.006": 9.44112691943,
			"-0.005": 10.8241008821,
			"-0.004": 16.7173890546,
			"-0.003": 21.797683526,
			"-0.002": 23.1299457478,
			"-0.001": 20.4806520487,
			"0.0": 21.3783731851,
			"0.001": 19.572852338,
			"0.002": 12.382534712,
			"0.003": 12.8523993548,
			"0.004": 12.018567192,
			"0.005": 8.50327217888,
			"0.006": 4.40087756071,
			"0.007": 4.34492814623,
			"0.008": 4.06514852874,
			"0.009": 5.65290874809,
			"0.01": 4.88055213349,
			"0.011": 3.75948237545,
			"0.012": 2.01932999484,
			"0.013": 0.119310216544,
			"0.014": 0.0,
			"0.015": 0.0,
			"0.016": 0.0,
			"0.017": 0.0,
			"0.018": 0.0,
			"0.019": 0.0,
			"0.02": 0.0,
			"0.021": 0.0,
			"0.022": 0.0,
			"0.023": 0.0,
			"0.024": 0.0,
			"0.025": 0.0
		}
	}
}
