{
	 "smiles": "COC1=C(CCl)C2=CC=C(Br)C=C2C=C1", 
	 "Tm": 418.15, 
	 "num_atms": 25, 
	 "gaussian": { 
		 "optdone": 1, 
		 "sigma_profile": "yes", 
		 "theory": "DFT", 
		 "functional": "B3LYP", 
		 "basiset": "6-31G**", 
		 "properties": { 
			 "R2extent": 7809.7507, 
			 "electric_dipole_moment_norm": 4.2725146448, 
			 "electric_quadrupole_moment_norm": 14.7745622917, 
			 "total_energy": -3570.12790736, 
			 "HOMO_LUMO_gap": 0.15561, 
			 "cosmo_polarized_energy": -9.63, 
			 "cosmo_cavitation_energy": 32.45, 
			 "cosmo_dispersion_energy": -24.11, 
			 "cosmo_repulsion_energy": 1.88, 
			 "cosmo_total_nonelectrostatic_energy": 10.22, 
			 "SMD_solvation_energy": 4.45 
		},
		"coords": [
			{
				"x": 3.5631429444,
				"y": 0.122062344,
				"z": 1.3054230378,
				"element": "C" 
			},
			{
				"x": 2.2300579016,
				"y": -0.3643051015,
				"z": 1.2368090213,
				"element": "O" 
			},
			{
				"x": 1.5452840662,
				"y": -0.278399335,
				"z": 0.0611801471,
				"element": "C" 
			},
			{
				"x": 0.2406321277,
				"y": -0.7738864369,
				"z": 0.0621953296,
				"element": "C" 
			},
			{
				"x": -0.3042088541,
				"y": -1.3860285107,
				"z": 1.3112515437,
				"element": "C" 
			},
			{
				"x": -1.3772612547,
				"y": -0.2300215142,
				"z": 2.2729393232,
				"element": "Cl" 
			},
			{
				"x": -0.5387485872,
				"y": -0.6930770237,
				"z": -1.1322750551,
				"element": "C" 
			},
			{
				"x": -1.8909929568,
				"y": -1.1342486355,
				"z": -1.200709122,
				"element": "C" 
			},
			{
				"x": -2.6141774074,
				"y": -1.0587724191,
				"z": -2.3693170917,
				"element": "C" 
			},
			{
				"x": -2.0140248959,
				"y": -0.5302164631,
				"z": -3.5344507301,
				"element": "C" 
			},
			{
				"x": -3.041830381,
				"y": -0.4439084993,
				"z": -5.1438307736,
				"element": "Br" 
			},
			{
				"x": -0.7184109341,
				"y": -0.0775188414,
				"z": -3.5198680236,
				"element": "C" 
			},
			{
				"x": 0.0427827446,
				"y": -0.1447574457,
				"z": -2.3225645755,
				"element": "C" 
			},
			{
				"x": 1.377841048,
				"y": 0.3279439606,
				"z": -2.2755977767,
				"element": "C" 
			},
			{
				"x": 2.1146091902,
				"y": 0.2693504296,
				"z": -1.1166256512,
				"element": "C" 
			},
			{
				"x": 4.2293496414,
				"y": -0.4204161263,
				"z": 0.6231545144,
				"element": "H" 
			},
			{
				"x": 3.8873878978,
				"y": -0.0480142389,
				"z": 2.3328628846,
				"element": "H" 
			},
			{
				"x": 3.6135253824,
				"y": 1.1954007485,
				"z": 1.0862230778,
				"element": "H" 
			},
			{
				"x": -0.9343756322,
				"y": -2.2510083901,
				"z": 1.1096876559,
				"element": "H" 
			},
			{
				"x": 0.4930112055,
				"y": -1.6644577754,
				"z": 1.9945360411,
				"element": "H" 
			},
			{
				"x": -2.3793060051,
				"y": -1.5170422293,
				"z": -0.3119466188,
				"element": "H" 
			},
			{
				"x": -3.6440194015,
				"y": -1.395583818,
				"z": -2.4019453677,
				"element": "H" 
			},
			{
				"x": -0.2661732713,
				"y": 0.3351175171,
				"z": -4.4154334921,
				"element": "H" 
			},
			{
				"x": 1.8199829379,
				"y": 0.7456269682,
				"z": -3.1759368238,
				"element": "H" 
			},
			{
				"x": 3.1309224938,
				"y": 0.6432608361,
				"z": -1.1095614746,
				"element": "H" 
			}
		],
		 "valence_orbital": [ 
			{
				"type": "occ",
				"energy": -0.28662,
				"method": "rhf"
			},
			{
				"type": "occ",
				"energy": -0.28634,
				"method": "rhf"
			},
			{
				"type": "occ",
				"energy": -0.26981,
				"method": "rhf"
			},
			{
				"type": "occ",
				"energy": -0.24504,
				"method": "rhf"
			},
			{
				"type": "occ",
				"energy": -0.21381,
				"method": "rhf"
			},
			{
				"type": "unocc",
				"energy": -0.0582,
				"method": "rhf"
			},
			{
				"type": "unocc",
				"energy": -0.01626,
				"method": "rhf"
			},
			{
				"type": "unocc",
				"energy": 0.00145,
				"method": "rhf"
			},
			{
				"type": "unocc",
				"energy": 0.00818,
				"method": "rhf"
			},
			{
				"type": "unocc",
				"energy": 0.04736,
				"method": "rhf"
			}
		],
		"cosmo_sigma_profile": { 
			"-0.025": 0.0,
			"-0.024": 0.0,
			"-0.023": 0.0,
			"-0.022": 0.0,
			"-0.021": 0.0,
			"-0.02": 0.0,
			"-0.019": 0.0,
			"-0.018": 0.0,
			"-0.017": 0.0,
			"-0.016": 0.0,
			"-0.015": 0.0,
			"-0.014": 0.0,
			"-0.013": 0.0,
			"-0.012": 0.0,
			"-0.011": 0.0,
			"-0.01": 0.0,
			"-0.009": 0.22336793283,
			"-0.008": 2.84800603631,
			"-0.007": 11.5692148665,
			"-0.006": 18.2323583956,
			"-0.005": 19.9784260625,
			"-0.004": 18.638222965,
			"-0.003": 16.6209605454,
			"-0.002": 12.9748169487,
			"-0.001": 12.5991112395,
			"0.0": 12.5298287847,
			"0.001": 17.7642057899,
			"0.002": 29.6297900711,
			"0.003": 33.3066535463,
			"0.004": 22.9789419035,
			"0.005": 15.9625248934,
			"0.006": 9.69742696101,
			"0.007": 9.07034005318,
			"0.008": 0.630415744649,
			"0.009": 0.0,
			"0.01": 0.0,
			"0.011": 0.0,
			"0.012": 0.0,
			"0.013": 0.0,
			"0.014": 0.0,
			"0.015": 0.0,
			"0.016": 0.0,
			"0.017": 0.0,
			"0.018": 0.0,
			"0.019": 0.0,
			"0.02": 0.0,
			"0.021": 0.0,
			"0.022": 0.0,
			"0.023": 0.0,
			"0.024": 0.0,
			"0.025": 0.0
		}
	}
}
