{
	 "smiles": "[O-][N+](=O)C1=C(C=N/C2=CC=C(C=C2)C2=NNC(=O)CC2)C=CC=C1", 
	 "Tm": 508.15, 
	 "num_atms": 38, 
	 "gaussian": { 
		 "optdone": 1, 
		 "sigma_profile": "yes", 
		 "theory": "DFT", 
		 "functional": "B3LYP", 
		 "basiset": "6-31G**", 
		 "properties": { 
			 "R2extent": 11598.1698, 
			 "electric_dipole_moment_norm": 4.28688659169, 
			 "electric_quadrupole_moment_norm": 36.0484968773, 
			 "total_energy": -1100.78944744, 
			 "HOMO_LUMO_gap": 0.10828, 
			 "cosmo_polarized_energy": -20.98, 
			 "cosmo_cavitation_energy": 43.7, 
			 "cosmo_dispersion_energy": -30.57, 
			 "cosmo_repulsion_energy": 2.33, 
			 "cosmo_total_nonelectrostatic_energy": 15.45, 
			 "SMD_solvation_energy": 7.52 
		},
		"coords": [
			{
				"x": -3.1604736427,
				"y": -2.0690750518,
				"z": -3.138682954,
				"element": "O" 
			},
			{
				"x": -3.7773671355,
				"y": -2.6909714577,
				"z": -2.2702324201,
				"element": "N" 
			},
			{
				"x": -4.387769019,
				"y": -3.7394713887,
				"z": -2.4668952358,
				"element": "O" 
			},
			{
				"x": -3.7685967953,
				"y": -2.1443650037,
				"z": -0.9041419446,
				"element": "C" 
			},
			{
				"x": -3.2959647185,
				"y": -0.8421579026,
				"z": -0.6645997511,
				"element": "C" 
			},
			{
				"x": -2.9672677963,
				"y": 0.1421544501,
				"z": -1.7439962152,
				"element": "C" 
			},
			{
				"x": -1.9608471794,
				"y": 0.9221487467,
				"z": -1.8138891329,
				"element": "N" 
			},
			{
				"x": -0.8306800047,
				"y": 0.7997118479,
				"z": -0.9889912594,
				"element": "C" 
			},
			{
				"x": -0.3425520478,
				"y": 1.9427239905,
				"z": -0.3281691497,
				"element": "C" 
			},
			{
				"x": 0.8069608876,
				"y": 1.8731556149,
				"z": 0.4427399805,
				"element": "C" 
			},
			{
				"x": 1.5430138202,
				"y": 0.6749662021,
				"z": 0.5500940832,
				"element": "C" 
			},
			{
				"x": 1.0709797583,
				"y": -0.4491374971,
				"z": -0.1478442603,
				"element": "C" 
			},
			{
				"x": -0.10062283,
				"y": -0.3953163445,
				"z": -0.8987212729,
				"element": "C" 
			},
			{
				"x": 2.764741524,
				"y": 0.6188097481,
				"z": 1.3797853814,
				"element": "C" 
			},
			{
				"x": 2.9755236792,
				"y": 1.6023553736,
				"z": 2.1932513724,
				"element": "N" 
			},
			{
				"x": 4.1026088132,
				"y": 1.5508016347,
				"z": 2.9828939131,
				"element": "N" 
			},
			{
				"x": 5.2558597924,
				"y": 0.8224645884,
				"z": 2.7586445946,
				"element": "C" 
			},
			{
				"x": 6.2463219683,
				"y": 0.9663645326,
				"z": 3.4565633653,
				"element": "O" 
			},
			{
				"x": 5.1570968622,
				"y": -0.1011248019,
				"z": 1.5611529109,
				"element": "C" 
			},
			{
				"x": 3.7142387712,
				"y": -0.5610749711,
				"z": 1.3167599906,
				"element": "C" 
			},
			{
				"x": -3.2711057656,
				"y": -0.4141607869,
				"z": 0.6720086524,
				"element": "C" 
			},
			{
				"x": -3.6898173653,
				"y": -1.245818466,
				"z": 1.7085897451,
				"element": "C" 
			},
			{
				"x": -4.1578481103,
				"y": -2.533713248,
				"z": 1.435640571,
				"element": "C" 
			},
			{
				"x": -4.1991631524,
				"y": -2.986510739,
				"z": 0.1211383224,
				"element": "C" 
			},
			{
				"x": -3.7300346668,
				"y": 0.2615964444,
				"z": -2.514974526,
				"element": "H" 
			},
			{
				"x": -0.8835057079,
				"y": 2.8782106652,
				"z": -0.4324396046,
				"element": "H" 
			},
			{
				"x": 1.1689827476,
				"y": 2.7523927222,
				"z": 0.9635657926,
				"element": "H" 
			},
			{
				"x": 1.6072897773,
				"y": -1.3911652872,
				"z": -0.0988314102,
				"element": "H" 
			},
			{
				"x": -0.4443560312,
				"y": -1.2695191491,
				"z": -1.442496128,
				"element": "H" 
			},
			{
				"x": 4.1666008198,
				"y": 2.298007997,
				"z": 3.6614217559,
				"element": "H" 
			},
			{
				"x": 5.8387759914,
				"y": -0.9398966252,
				"z": 1.7156025969,
				"element": "H" 
			},
			{
				"x": 5.5269055598,
				"y": 0.4607486598,
				"z": 0.6927638115,
				"element": "H" 
			},
			{
				"x": 3.6444522572,
				"y": -1.0775417871,
				"z": 0.3574864683,
				"element": "H" 
			},
			{
				"x": 3.4190370035,
				"y": -1.2859306965,
				"z": 2.0897964773,
				"element": "H" 
			},
			{
				"x": -2.9250871715,
				"y": 0.5901611314,
				"z": 0.8895237256,
				"element": "H" 
			},
			{
				"x": -3.6555665234,
				"y": -0.8843567324,
				"z": 2.7317613402,
				"element": "H" 
			},
			{
				"x": -4.4853339021,
				"y": -3.1829595508,
				"z": 2.2410773988,
				"element": "H" 
			},
			{
				"x": -4.5483304671,
				"y": -3.9796068622,
				"z": -0.1320569853,
				"element": "H" 
			}
		],
		 "valence_orbital": [ 
			{
				"type": "occ",
				"energy": -0.28107,
				"method": "rhf"
			},
			{
				"type": "occ",
				"energy": -0.2603,
				"method": "rhf"
			},
			{
				"type": "occ",
				"energy": -0.25544,
				"method": "rhf"
			},
			{
				"type": "occ",
				"energy": -0.24884,
				"method": "rhf"
			},
			{
				"type": "occ",
				"energy": -0.21129,
				"method": "rhf"
			},
			{
				"type": "unocc",
				"energy": -0.10301,
				"method": "rhf"
			},
			{
				"type": "unocc",
				"energy": -0.06319,
				"method": "rhf"
			},
			{
				"type": "unocc",
				"energy": -0.04616,
				"method": "rhf"
			},
			{
				"type": "unocc",
				"energy": -0.01987,
				"method": "rhf"
			},
			{
				"type": "unocc",
				"energy": -0.01033,
				"method": "rhf"
			}
		],
		"cosmo_sigma_profile": { 
			"-0.025": 0.0,
			"-0.024": 0.0,
			"-0.023": 0.0,
			"-0.022": 0.0,
			"-0.021": 0.0,
			"-0.02": 0.0,
			"-0.019": 0.0,
			"-0.018": 0.0,
			"-0.017": 0.0,
			"-0.016": 0.0,
			"-0.015": 0.490457102253,
			"-0.014": 1.07255043814,
			"-0.013": 0.764216129843,
			"-0.012": 1.05942755051,
			"-0.011": 1.05525558705,
			"-0.01": 0.647511632002,
			"-0.009": 1.37072791074,
			"-0.008": 6.24379912211,
			"-0.007": 15.5919129505,
			"-0.006": 26.2942099025,
			"-0.005": 28.3416609965,
			"-0.004": 29.3463902309,
			"-0.003": 24.8992088206,
			"-0.002": 21.8134130341,
			"-0.001": 20.8669188452,
			"0.0": 20.4837351216,
			"0.001": 22.2605482109,
			"0.002": 20.5219430344,
			"0.003": 15.4975704234,
			"0.004": 20.7019234471,
			"0.005": 10.9985889926,
			"0.006": 8.62940679058,
			"0.007": 12.0458902102,
			"0.008": 10.0224967149,
			"0.009": 7.06732627432,
			"0.01": 4.92842815115,
			"0.011": 2.75055474845,
			"0.012": 4.53903388654,
			"0.013": 6.37253900281,
			"0.014": 2.89993029446,
			"0.015": 0.227062249669,
			"0.016": 0.0,
			"0.017": 0.0,
			"0.018": 0.0,
			"0.019": 0.0,
			"0.02": 0.0,
			"0.021": 0.0,
			"0.022": 0.0,
			"0.023": 0.0,
			"0.024": 0.0,
			"0.025": 0.0
		}
	}
}
