{
	 "smiles": "OC(=O)CCOC1=C(F)C=C(Br)C=C1", 
	 "Tm": 365.15, 
	 "num_atms": 22, 
	 "gaussian": { 
		 "optdone": 1, 
		 "sigma_profile": "yes", 
		 "theory": "DFT", 
		 "functional": "B3LYP", 
		 "basiset": "6-31G**", 
		 "properties": { 
			 "R2extent": 7698.773, 
			 "electric_dipole_moment_norm": 3.05566730028, 
			 "electric_quadrupole_moment_norm": 15.8462067685, 
			 "total_energy": -3244.67918908, 
			 "HOMO_LUMO_gap": 0.21037, 
			 "cosmo_polarized_energy": -15.48, 
			 "cosmo_cavitation_energy": 29.75, 
			 "cosmo_dispersion_energy": -21.99, 
			 "cosmo_repulsion_energy": 1.74, 
			 "cosmo_total_nonelectrostatic_energy": 9.5, 
			 "SMD_solvation_energy": 5.67 
		},
		"coords": [
			{
				"x": 0.390005904,
				"y": 2.4103262029,
				"z": 3.4896916407,
				"element": "O" 
			},
			{
				"x": -0.3224148496,
				"y": 1.9734277099,
				"z": 2.4182177764,
				"element": "C" 
			},
			{
				"x": -1.527876052,
				"y": 2.0119089824,
				"z": 2.4342565546,
				"element": "O" 
			},
			{
				"x": 0.4996468524,
				"y": 1.4578429153,
				"z": 1.24743949,
				"element": "C" 
			},
			{
				"x": -0.3918657585,
				"y": 0.9577639942,
				"z": 0.1149477371,
				"element": "C" 
			},
			{
				"x": 0.4154501641,
				"y": 0.6120896459,
				"z": -1.0259444994,
				"element": "O" 
			},
			{
				"x": 0.5098644402,
				"y": -0.6875751457,
				"z": -1.4253749077,
				"element": "C" 
			},
			{
				"x": 0.6851659338,
				"y": -1.777177177,
				"z": -0.5604314048,
				"element": "C" 
			},
			{
				"x": 0.7336003473,
				"y": -1.5666544929,
				"z": 0.7789221771,
				"element": "F" 
			},
			{
				"x": 0.8235246616,
				"y": -3.0783056531,
				"z": -1.0234423717,
				"element": "C" 
			},
			{
				"x": 0.8075240619,
				"y": -3.3037695443,
				"z": -2.3981770194,
				"element": "C" 
			},
			{
				"x": 1.0028588905,
				"y": -5.0848402544,
				"z": -3.0553211847,
				"element": "Br" 
			},
			{
				"x": 0.6543838821,
				"y": -2.2459165728,
				"z": -3.2929238145,
				"element": "C" 
			},
			{
				"x": 0.5003201264,
				"y": -0.9517685225,
				"z": -2.7995962353,
				"element": "C" 
			},
			{
				"x": 1.3387765171,
				"y": 2.3069431063,
				"z": 3.328543622,
				"element": "H" 
			},
			{
				"x": 1.1575744516,
				"y": 0.6498467635,
				"z": 1.5859120198,
				"element": "H" 
			},
			{
				"x": 1.1461179464,
				"y": 2.264194611,
				"z": 0.8771467607,
				"element": "H" 
			},
			{
				"x": -1.0682492638,
				"y": 1.752622177,
				"z": -0.2092443888,
				"element": "H" 
			},
			{
				"x": -0.9987974777,
				"y": 0.1116506699,
				"z": 0.4412034107,
				"element": "H" 
			},
			{
				"x": 0.9527255798,
				"y": -3.883907379,
				"z": -0.3110596224,
				"element": "H" 
			},
			{
				"x": 0.6442293942,
				"y": -2.4295910408,
				"z": -4.360673093,
				"element": "H" 
			},
			{
				"x": 0.3716342479,
				"y": -0.1121109956,
				"z": -3.4743926475,
				"element": "H" 
			}
		],
		 "valence_orbital": [ 
			{
				"type": "occ",
				"energy": -0.29827,
				"method": "rhf"
			},
			{
				"type": "occ",
				"energy": -0.29372,
				"method": "rhf"
			},
			{
				"type": "occ",
				"energy": -0.27971,
				"method": "rhf"
			},
			{
				"type": "occ",
				"energy": -0.26929,
				"method": "rhf"
			},
			{
				"type": "occ",
				"energy": -0.23398,
				"method": "rhf"
			},
			{
				"type": "unocc",
				"energy": -0.02361,
				"method": "rhf"
			},
			{
				"type": "unocc",
				"energy": -0.01489,
				"method": "rhf"
			},
			{
				"type": "unocc",
				"energy": -0.0024,
				"method": "rhf"
			},
			{
				"type": "unocc",
				"energy": 0.00275,
				"method": "rhf"
			},
			{
				"type": "unocc",
				"energy": 0.04853,
				"method": "rhf"
			}
		],
		"cosmo_sigma_profile": { 
			"-0.025": 0.0,
			"-0.024": 0.0,
			"-0.023": 0.0,
			"-0.022": 0.0,
			"-0.021": 0.0,
			"-0.02": 0.0541216505612,
			"-0.019": 0.828313495103,
			"-0.018": 1.20612687976,
			"-0.017": 0.851595910502,
			"-0.016": 1.25361104146,
			"-0.015": 1.3220112948,
			"-0.014": 1.08306242497,
			"-0.013": 0.74058964518,
			"-0.012": 1.11267501922,
			"-0.011": 1.87175883787,
			"-0.01": 0.770670619681,
			"-0.009": 1.88736278512,
			"-0.008": 4.637238012,
			"-0.007": 8.63791190543,
			"-0.006": 11.498206328,
			"-0.005": 12.8818556045,
			"-0.004": 11.9693566651,
			"-0.003": 13.5683726469,
			"-0.002": 13.5860878865,
			"-0.001": 12.2711449763,
			"0.0": 18.9959685914,
			"0.001": 20.8389971292,
			"0.002": 23.3073169087,
			"0.003": 18.7025773357,
			"0.004": 17.4269064569,
			"0.005": 7.35033642746,
			"0.006": 3.50456103888,
			"0.007": 4.08239509047,
			"0.008": 3.70482990837,
			"0.009": 3.81509670242,
			"0.01": 5.78812087664,
			"0.011": 5.63180214292,
			"0.012": 4.4554456525,
			"0.013": 1.14748520563,
			"0.014": 0.0,
			"0.015": 0.0,
			"0.016": 0.0,
			"0.017": 0.0,
			"0.018": 0.0,
			"0.019": 0.0,
			"0.02": 0.0,
			"0.021": 0.0,
			"0.022": 0.0,
			"0.023": 0.0,
			"0.024": 0.0,
			"0.025": 0.0
		}
	}
}
