{
	 "smiles": "FC1=C(F)C=C(C=C1)C(=O)CBr", 
	 "Tm": 302.15, 
	 "num_atms": 17, 
	 "gaussian": { 
		 "optdone": 1, 
		 "sigma_profile": "yes", 
		 "theory": "DFT", 
		 "functional": "B3LYP", 
		 "basiset": "6-31G**", 
		 "properties": { 
			 "R2extent": 4117.0295, 
			 "electric_dipole_moment_norm": 2.76536133082, 
			 "electric_quadrupole_moment_norm": 4.85220286983, 
			 "total_energy": -3154.15044129, 
			 "HOMO_LUMO_gap": 0.17962, 
			 "cosmo_polarized_energy": -8.24, 
			 "cosmo_cavitation_energy": 25.18, 
			 "cosmo_dispersion_energy": -18.35, 
			 "cosmo_repulsion_energy": 1.42, 
			 "cosmo_total_nonelectrostatic_energy": 8.25, 
			 "SMD_solvation_energy": 4.81 
		},
		"coords": [
			{
				"x": -4.4288505202,
				"y": -0.7227298829,
				"z": -1.757267128,
				"element": "F" 
			},
			{
				"x": -3.3641391018,
				"y": -0.4050869824,
				"z": -1.0103114175,
				"element": "C" 
			},
			{
				"x": -3.5261912906,
				"y": 0.4906035192,
				"z": 0.0518324993,
				"element": "C" 
			},
			{
				"x": -4.7449608643,
				"y": 1.0014562034,
				"z": 0.2839958268,
				"element": "F" 
			},
			{
				"x": -2.4476282187,
				"y": 0.8401837866,
				"z": 0.8403168986,
				"element": "C" 
			},
			{
				"x": -1.1810149999,
				"y": 0.2912262907,
				"z": 0.5730239498,
				"element": "C" 
			},
			{
				"x": -1.0274079185,
				"y": -0.6092055729,
				"z": -0.4917125104,
				"element": "C" 
			},
			{
				"x": -2.1202785209,
				"y": -0.9576746541,
				"z": -1.2846690463,
				"element": "C" 
			},
			{
				"x": -0.0527817166,
				"y": 0.7321366203,
				"z": 1.4448996833,
				"element": "C" 
			},
			{
				"x": -0.2243566079,
				"y": 1.5219366001,
				"z": 2.359318539,
				"element": "O" 
			},
			{
				"x": 1.362413082,
				"y": 0.2330825262,
				"z": 1.1700525411,
				"element": "C" 
			},
			{
				"x": 1.574546,
				"y": -1.6560484346,
				"z": 1.7232338644,
				"element": "Br" 
			},
			{
				"x": -2.5705258205,
				"y": 1.5366694959,
				"z": 1.6617695027,
				"element": "H" 
			},
			{
				"x": -0.0658071473,
				"y": -1.064235694,
				"z": -0.6973724755,
				"element": "H" 
			},
			{
				"x": -2.0267268208,
				"y": -1.6544884919,
				"z": -2.1102660757,
				"element": "H" 
			},
			{
				"x": 2.0562866779,
				"y": 0.8070754369,
				"z": 1.7786182332,
				"element": "H" 
			},
			{
				"x": 1.6373237879,
				"y": 0.2734992335,
				"z": 0.1163371152,
				"element": "H" 
			}
		],
		 "valence_orbital": [ 
			{
				"type": "occ",
				"energy": -0.30173,
				"method": "rhf"
			},
			{
				"type": "occ",
				"energy": -0.29172,
				"method": "rhf"
			},
			{
				"type": "occ",
				"energy": -0.27856,
				"method": "rhf"
			},
			{
				"type": "occ",
				"energy": -0.26927,
				"method": "rhf"
			},
			{
				"type": "occ",
				"energy": -0.26341,
				"method": "rhf"
			},
			{
				"type": "unocc",
				"energy": -0.08379,
				"method": "rhf"
			},
			{
				"type": "unocc",
				"energy": -0.02755,
				"method": "rhf"
			},
			{
				"type": "unocc",
				"energy": -0.02023,
				"method": "rhf"
			},
			{
				"type": "unocc",
				"energy": 0.03984,
				"method": "rhf"
			},
			{
				"type": "unocc",
				"energy": 0.06222,
				"method": "rhf"
			}
		],
		"cosmo_sigma_profile": { 
			"-0.025": 0.0,
			"-0.024": 0.0,
			"-0.023": 0.0,
			"-0.022": 0.0,
			"-0.021": 0.0,
			"-0.02": 0.0,
			"-0.019": 0.0,
			"-0.018": 0.0,
			"-0.017": 0.0,
			"-0.016": 0.0,
			"-0.015": 0.0,
			"-0.014": 0.0,
			"-0.013": 0.0,
			"-0.012": 0.0,
			"-0.011": 0.0550100230024,
			"-0.01": 1.50240130687,
			"-0.009": 3.93784594933,
			"-0.008": 7.47936709917,
			"-0.007": 8.4033290342,
			"-0.006": 8.48903527917,
			"-0.005": 8.09749695834,
			"-0.004": 7.16462658053,
			"-0.003": 9.10419401684,
			"-0.002": 13.8860816684,
			"-0.001": 19.9031703886,
			"0.0": 18.5296447564,
			"0.001": 17.7951184989,
			"0.002": 16.7506449251,
			"0.003": 27.3659798586,
			"0.004": 15.7145731091,
			"0.005": 7.82996807833,
			"0.006": 1.62437236184,
			"0.007": 1.56473140537,
			"0.008": 1.83531019989,
			"0.009": 2.1910300883,
			"0.01": 3.22435110944,
			"0.011": 3.04686507243,
			"0.012": 0.534551587776,
			"0.013": 0.0,
			"0.014": 0.0,
			"0.015": 0.0,
			"0.016": 0.0,
			"0.017": 0.0,
			"0.018": 0.0,
			"0.019": 0.0,
			"0.02": 0.0,
			"0.021": 0.0,
			"0.022": 0.0,
			"0.023": 0.0,
			"0.024": 0.0,
			"0.025": 0.0
		}
	}
}
