{
	 "smiles": "CC1=C(C)C2=C(NC(=O)OC2=O)S1", 
	 "Tm": 473.15, 
	 "num_atms": 20, 
	 "gaussian": { 
		 "optdone": 1, 
		 "sigma_profile": "yes", 
		 "theory": "DFT", 
		 "functional": "B3LYP", 
		 "basiset": "6-31G**", 
		 "properties": { 
			 "R2extent": 2906.8271, 
			 "electric_dipole_moment_norm": 6.50503168401, 
			 "electric_quadrupole_moment_norm": 9.36944669604, 
			 "total_energy": -987.705050988, 
			 "HOMO_LUMO_gap": 0.17799, 
			 "cosmo_polarized_energy": -16.57, 
			 "cosmo_cavitation_energy": 26.09, 
			 "cosmo_dispersion_energy": -19.87, 
			 "cosmo_repulsion_energy": 1.51, 
			 "cosmo_total_nonelectrostatic_energy": 7.74, 
			 "SMD_solvation_energy": 6.27 
		},
		"coords": [
			{
				"x": -3.385919333,
				"y": -1.1398013863,
				"z": 1.2044162965,
				"element": "C" 
			},
			{
				"x": -2.0659730041,
				"y": -0.4401265181,
				"z": 1.0337389021,
				"element": "C" 
			},
			{
				"x": -1.079383621,
				"y": -0.6577474101,
				"z": 0.1140807701,
				"element": "C" 
			},
			{
				"x": -1.1325882511,
				"y": -1.7021185053,
				"z": -0.9660324614,
				"element": "C" 
			},
			{
				"x": 0.0388637563,
				"y": 0.240901233,
				"z": 0.2967552447,
				"element": "C" 
			},
			{
				"x": -0.1324291719,
				"y": 1.1121697289,
				"z": 1.3481316136,
				"element": "C" 
			},
			{
				"x": 0.813623786,
				"y": 2.0476531698,
				"z": 1.6905032164,
				"element": "N" 
			},
			{
				"x": 2.0102652742,
				"y": 2.1765886445,
				"z": 0.9959472075,
				"element": "C" 
			},
			{
				"x": 2.850512314,
				"y": 2.9907689636,
				"z": 1.2819698052,
				"element": "O" 
			},
			{
				"x": 2.1756115277,
				"y": 1.3085884633,
				"z": -0.0479159589,
				"element": "O" 
			},
			{
				"x": 1.2614916267,
				"y": 0.3128512057,
				"z": -0.4777500287,
				"element": "C" 
			},
			{
				"x": 1.5863285872,
				"y": -0.3596816137,
				"z": -1.4219481215,
				"element": "O" 
			},
			{
				"x": -1.6466556558,
				"y": 0.8756265725,
				"z": 2.1489732147,
				"element": "S" 
			},
			{
				"x": -4.0082186956,
				"y": -1.0412655341,
				"z": 0.3082006786,
				"element": "H" 
			},
			{
				"x": -3.248121509,
				"y": -2.2088250421,
				"z": 1.4003014103,
				"element": "H" 
			},
			{
				"x": -3.9541275847,
				"y": -0.7263913087,
				"z": 2.0418566033,
				"element": "H" 
			},
			{
				"x": -1.0464731363,
				"y": -1.2449640517,
				"z": -1.956518611,
				"element": "H" 
			},
			{
				"x": -0.2951121735,
				"y": -2.4006958833,
				"z": -0.8760292572,
				"element": "H" 
			},
			{
				"x": -2.0652750389,
				"y": -2.2686538073,
				"z": -0.9234082023,
				"element": "H" 
			},
			{
				"x": 0.6895803027,
				"y": 2.6879230795,
				"z": 2.4617276781,
				"element": "H" 
			}
		],
		 "valence_orbital": [ 
			{
				"type": "occ",
				"energy": -0.31903,
				"method": "rhf"
			},
			{
				"type": "occ",
				"energy": -0.31201,
				"method": "rhf"
			},
			{
				"type": "occ",
				"energy": -0.28289,
				"method": "rhf"
			},
			{
				"type": "occ",
				"energy": -0.27477,
				"method": "rhf"
			},
			{
				"type": "occ",
				"energy": -0.2283,
				"method": "rhf"
			},
			{
				"type": "unocc",
				"energy": -0.05031,
				"method": "rhf"
			},
			{
				"type": "unocc",
				"energy": -0.01849,
				"method": "rhf"
			},
			{
				"type": "unocc",
				"energy": -0.01471,
				"method": "rhf"
			},
			{
				"type": "unocc",
				"energy": 0.02353,
				"method": "rhf"
			},
			{
				"type": "unocc",
				"energy": 0.06684,
				"method": "rhf"
			}
		],
		"cosmo_sigma_profile": { 
			"-0.025": 0.0,
			"-0.024": 0.0,
			"-0.023": 0.0,
			"-0.022": 0.0,
			"-0.021": 0.0,
			"-0.02": 0.0,
			"-0.019": 0.00142560190728,
			"-0.018": 0.925765557073,
			"-0.017": 1.73242588232,
			"-0.016": 1.13086824951,
			"-0.015": 1.06869356585,
			"-0.014": 1.37209388048,
			"-0.013": 1.10315431024,
			"-0.012": 0.625828408164,
			"-0.011": 1.21606034379,
			"-0.01": 0.797264283155,
			"-0.009": 1.22072048802,
			"-0.008": 1.75849206897,
			"-0.007": 3.87790834443,
			"-0.006": 6.14535185262,
			"-0.005": 10.6026452697,
			"-0.004": 17.7465328279,
			"-0.003": 19.5354629645,
			"-0.002": 19.8750160678,
			"-0.001": 21.2821047958,
			"0.0": 18.6762634915,
			"0.001": 14.1473247192,
			"0.002": 10.8828014617,
			"0.003": 7.40182592287,
			"0.004": 4.08528640635,
			"0.005": 4.04136797926,
			"0.006": 2.75617809192,
			"0.007": 3.46188453829,
			"0.008": 5.46070332472,
			"0.009": 5.99769689143,
			"0.01": 6.1659901277,
			"0.011": 11.0311991711,
			"0.012": 4.43130843201,
			"0.013": 0.16295358468,
			"0.014": 0.0,
			"0.015": 0.0,
			"0.016": 0.0,
			"0.017": 0.0,
			"0.018": 0.0,
			"0.019": 0.0,
			"0.02": 0.0,
			"0.021": 0.0,
			"0.022": 0.0,
			"0.023": 0.0,
			"0.024": 0.0,
			"0.025": 0.0
		}
	}
}
