{
	 "smiles": "CC1=CC=C(Br)C(C)=C1[N+]([O-])=O", 
	 "Tm": 343.15, 
	 "num_atms": 20, 
	 "gaussian": { 
		 "optdone": 1, 
		 "sigma_profile": "yes", 
		 "theory": "DFT", 
		 "functional": "B3LYP", 
		 "basiset": "6-31G**", 
		 "properties": { 
			 "R2extent": 4237.9064, 
			 "electric_dipole_moment_norm": 2.92817022217, 
			 "electric_quadrupole_moment_norm": 11.6697585643, 
			 "total_energy": -3086.18030264, 
			 "HOMO_LUMO_gap": 0.16853, 
			 "cosmo_polarized_energy": -7.11, 
			 "cosmo_cavitation_energy": 26.07, 
			 "cosmo_dispersion_energy": -19.31, 
			 "cosmo_repulsion_energy": 1.52, 
			 "cosmo_total_nonelectrostatic_energy": 8.28, 
			 "SMD_solvation_energy": 5.71 
		},
		"coords": [
			{
				"x": 0.7526548192,
				"y": 1.8567895383,
				"z": 2.522176023,
				"element": "C" 
			},
			{
				"x": 0.432110932,
				"y": 0.4275262317,
				"z": 2.1558833205,
				"element": "C" 
			},
			{
				"x": 0.0392882398,
				"y": -0.4782110754,
				"z": 3.1454700772,
				"element": "C" 
			},
			{
				"x": -0.2691608638,
				"y": -1.7992646549,
				"z": 2.8387931794,
				"element": "C" 
			},
			{
				"x": -0.1824774733,
				"y": -2.2420573189,
				"z": 1.5219145111,
				"element": "C" 
			},
			{
				"x": -0.6161231269,
				"y": -4.075533525,
				"z": 1.1823536895,
				"element": "Br" 
			},
			{
				"x": 0.2197877682,
				"y": -1.3986279022,
				"z": 0.4743720007,
				"element": "C" 
			},
			{
				"x": 0.298383184,
				"y": -1.8903164963,
				"z": -0.9497209143,
				"element": "C" 
			},
			{
				"x": 0.5192764005,
				"y": -0.0750576996,
				"z": 0.8472668623,
				"element": "C" 
			},
			{
				"x": 0.9794334475,
				"y": 0.8522498245,
				"z": -0.2053116388,
				"element": "N" 
			},
			{
				"x": 1.9215954133,
				"y": 0.4921431749,
				"z": -0.9088642811,
				"element": "O" 
			},
			{
				"x": 0.3990837265,
				"y": 1.9320010924,
				"z": -0.3045648031,
				"element": "O" 
			},
			{
				"x": 0.8486090277,
				"y": 1.9496608779,
				"z": 3.6065398142,
				"element": "H" 
			},
			{
				"x": 1.6859807066,
				"y": 2.20081105,
				"z": 2.067004211,
				"element": "H" 
			},
			{
				"x": -0.0340558359,
				"y": 2.5354127668,
				"z": 2.1817428947,
				"element": "H" 
			},
			{
				"x": -0.0249436308,
				"y": -0.1406335717,
				"z": 4.1754331008,
				"element": "H" 
			},
			{
				"x": -0.5756092283,
				"y": -2.4872518729,
				"z": 3.6181476549,
				"element": "H" 
			},
			{
				"x": 0.2579501187,
				"y": -1.0777588365,
				"z": -1.6735300623,
				"element": "H" 
			},
			{
				"x": 1.2371131336,
				"y": -2.4291397438,
				"z": -1.1173361369,
				"element": "H" 
			},
			{
				"x": -0.5195967585,
				"y": -2.5846418594,
				"z": -1.150169503,
				"element": "H" 
			}
		],
		 "valence_orbital": [ 
			{
				"type": "occ",
				"energy": -0.30863,
				"method": "rhf"
			},
			{
				"type": "occ",
				"energy": -0.30513,
				"method": "rhf"
			},
			{
				"type": "occ",
				"energy": -0.29683,
				"method": "rhf"
			},
			{
				"type": "occ",
				"energy": -0.27035,
				"method": "rhf"
			},
			{
				"type": "occ",
				"energy": -0.25321,
				"method": "rhf"
			},
			{
				"type": "unocc",
				"energy": -0.08468,
				"method": "rhf"
			},
			{
				"type": "unocc",
				"energy": -0.02984,
				"method": "rhf"
			},
			{
				"type": "unocc",
				"energy": -0.0226,
				"method": "rhf"
			},
			{
				"type": "unocc",
				"energy": -0.0052,
				"method": "rhf"
			},
			{
				"type": "unocc",
				"energy": 0.09861,
				"method": "rhf"
			}
		],
		"cosmo_sigma_profile": { 
			"-0.025": 0.0,
			"-0.024": 0.0,
			"-0.023": 0.0,
			"-0.022": 0.0,
			"-0.021": 0.0,
			"-0.02": 0.0,
			"-0.019": 0.0,
			"-0.018": 0.0,
			"-0.017": 0.0,
			"-0.016": 0.0,
			"-0.015": 0.0,
			"-0.014": 0.0,
			"-0.013": 0.0,
			"-0.012": 0.0,
			"-0.011": 0.0,
			"-0.01": 0.0,
			"-0.009": 0.111627455103,
			"-0.008": 2.60622839317,
			"-0.007": 7.30732884063,
			"-0.006": 9.15146883644,
			"-0.005": 11.6611033995,
			"-0.004": 13.3183309986,
			"-0.003": 16.1375485737,
			"-0.002": 18.9131861406,
			"-0.001": 24.1689602567,
			"0.0": 17.9028816723,
			"0.001": 20.4831702947,
			"0.002": 16.5341613796,
			"0.003": 11.0395404024,
			"0.004": 11.6240685803,
			"0.005": 4.64457347542,
			"0.006": 4.62981993223,
			"0.007": 8.85681491695,
			"0.008": 7.00669101641,
			"0.009": 3.73296914695,
			"0.01": 1.09717425431,
			"0.011": 0.0,
			"0.012": 0.0,
			"0.013": 0.0,
			"0.014": 0.0,
			"0.015": 0.0,
			"0.016": 0.0,
			"0.017": 0.0,
			"0.018": 0.0,
			"0.019": 0.0,
			"0.02": 0.0,
			"0.021": 0.0,
			"0.022": 0.0,
			"0.023": 0.0,
			"0.024": 0.0,
			"0.025": 0.0
		}
	}
}
