{
	 "smiles": "CCC12CC3CC(C1)CC(C3)(C2)C(O)=O", 
	 "Tm": 368.15, 
	 "num_atms": 35, 
	 "gaussian": { 
		 "optdone": 1, 
		 "sigma_profile": "yes", 
		 "theory": "DFT", 
		 "functional": "B3LYP", 
		 "basiset": "6-31G**", 
		 "properties": { 
			 "R2extent": 3507.7135, 
			 "electric_dipole_moment_norm": 1.72777453969, 
			 "electric_quadrupole_moment_norm": 11.1818702666, 
			 "total_energy": -657.939768011, 
			 "HOMO_LUMO_gap": 0.27316, 
			 "cosmo_polarized_energy": -7.66, 
			 "cosmo_cavitation_energy": 32.06, 
			 "cosmo_dispersion_energy": -23.49, 
			 "cosmo_repulsion_energy": 1.8, 
			 "cosmo_total_nonelectrostatic_energy": 10.37, 
			 "SMD_solvation_energy": 5.31 
		},
		"coords": [
			{
				"x": 2.4173572355,
				"y": 0.8404132807,
				"z": -2.1701104442,
				"element": "C" 
			},
			{
				"x": 1.0228675757,
				"y": 0.2147641598,
				"z": -2.3043551567,
				"element": "C" 
			},
			{
				"x": 0.3373370899,
				"y": -0.2534057767,
				"z": -1.0001804937,
				"element": "C" 
			},
			{
				"x": 0.1119389833,
				"y": 0.9191693452,
				"z": -0.0138460979,
				"element": "C" 
			},
			{
				"x": -0.625888516,
				"y": 0.4330464746,
				"z": 1.2506210151,
				"element": "C" 
			},
			{
				"x": 0.213694719,
				"y": -0.6548085377,
				"z": 1.9490489783,
				"element": "C" 
			},
			{
				"x": 0.4165437283,
				"y": -1.8401942429,
				"z": 0.9842245982,
				"element": "C" 
			},
			{
				"x": 1.1556660122,
				"y": -1.3522945797,
				"z": -0.2789039294,
				"element": "C" 
			},
			{
				"x": -0.9526291397,
				"y": -2.4274654819,
				"z": 0.5936662106,
				"element": "C" 
			},
			{
				"x": -1.8017851916,
				"y": -1.3453746347,
				"z": -0.1057646092,
				"element": "C" 
			},
			{
				"x": -1.9998354363,
				"y": -0.1443895224,
				"z": 0.8597934963,
				"element": "C" 
			},
			{
				"x": -1.047365992,
				"y": -0.8440846064,
				"z": -1.3676470061,
				"element": "C" 
			},
			{
				"x": -3.150460599,
				"y": -1.9242864087,
				"z": -0.5056334967,
				"element": "C" 
			},
			{
				"x": -3.9475326565,
				"y": -1.0075071074,
				"z": -1.1167233378,
				"element": "O" 
			},
			{
				"x": -3.520188673,
				"y": -3.0650703503,
				"z": -0.3240976631,
				"element": "O" 
			},
			{
				"x": 2.4064998809,
				"y": 1.7412102458,
				"z": -1.5483425666,
				"element": "H" 
			},
			{
				"x": 3.140918562,
				"y": 0.1435750665,
				"z": -1.7354539875,
				"element": "H" 
			},
			{
				"x": 2.7974935407,
				"y": 1.1306367642,
				"z": -3.1550673204,
				"element": "H" 
			},
			{
				"x": 1.086740505,
				"y": -0.6472326078,
				"z": -2.9831709507,
				"element": "H" 
			},
			{
				"x": 0.3576803164,
				"y": 0.936983129,
				"z": -2.7981566657,
				"element": "H" 
			},
			{
				"x": 1.0736647333,
				"y": 1.3615246764,
				"z": 0.2731590532,
				"element": "H" 
			},
			{
				"x": -0.4675528518,
				"y": 1.7111820477,
				"z": -0.5081425341,
				"element": "H" 
			},
			{
				"x": -0.7760207533,
				"y": 1.2797336045,
				"z": 1.9325027712,
				"element": "H" 
			},
			{
				"x": -0.2908885801,
				"y": -0.9934456767,
				"z": 2.8632707488,
				"element": "H" 
			},
			{
				"x": 1.1849665968,
				"y": -0.2435849549,
				"z": 2.2535525744,
				"element": "H" 
			},
			{
				"x": 1.0135556186,
				"y": -2.6179822986,
				"z": 1.4766217263,
				"element": "H" 
			},
			{
				"x": 1.3270131221,
				"y": -2.1939891041,
				"z": -0.9642170522,
				"element": "H" 
			},
			{
				"x": 2.1430995151,
				"y": -0.9656267106,
				"z": 0.001475532,
				"element": "H" 
			},
			{
				"x": -1.481985914,
				"y": -2.7974617934,
				"z": 1.4790327741,
				"element": "H" 
			},
			{
				"x": -0.8286662263,
				"y": -3.2867761487,
				"z": -0.0748909814,
				"element": "H" 
			},
			{
				"x": -2.6152132901,
				"y": 0.6217126165,
				"z": 0.3761601153,
				"element": "H" 
			},
			{
				"x": -2.5399777335,
				"y": -0.4761057591,
				"z": 1.7560137992,
				"element": "H" 
			},
			{
				"x": -1.6514999397,
				"y": -0.0870960144,
				"z": -1.8807578767,
				"element": "H" 
			},
			{
				"x": -0.9151584136,
				"y": -1.6782845106,
				"z": -2.0700354582,
				"element": "H" 
			},
			{
				"x": -4.7722878285,
				"y": -1.4757845833,
				"z": -1.3292457646,
				"element": "H" 
			}
		],
		 "valence_orbital": [ 
			{
				"type": "occ",
				"energy": -0.3113,
				"method": "rhf"
			},
			{
				"type": "occ",
				"energy": -0.29955,
				"method": "rhf"
			},
			{
				"type": "occ",
				"energy": -0.28009,
				"method": "rhf"
			},
			{
				"type": "occ",
				"energy": -0.27963,
				"method": "rhf"
			},
			{
				"type": "occ",
				"energy": -0.26041,
				"method": "rhf"
			},
			{
				"type": "unocc",
				"energy": 0.01275,
				"method": "rhf"
			},
			{
				"type": "unocc",
				"energy": 0.06522,
				"method": "rhf"
			},
			{
				"type": "unocc",
				"energy": 0.08383,
				"method": "rhf"
			},
			{
				"type": "unocc",
				"energy": 0.10407,
				"method": "rhf"
			},
			{
				"type": "unocc",
				"energy": 0.11146,
				"method": "rhf"
			}
		],
		"cosmo_sigma_profile": { 
			"-0.025": 0.0,
			"-0.024": 0.0,
			"-0.023": 0.0,
			"-0.022": 0.0,
			"-0.021": 0.0,
			"-0.02": 0.0,
			"-0.019": 0.0,
			"-0.018": 0.173807487043,
			"-0.017": 1.25596824453,
			"-0.016": 0.594583041487,
			"-0.015": 0.872734816067,
			"-0.014": 0.972345490429,
			"-0.013": 0.251907281536,
			"-0.012": 0.486157749977,
			"-0.011": 0.824857473647,
			"-0.01": 1.16539100868,
			"-0.009": 0.719928762404,
			"-0.008": 0.366517059926,
			"-0.007": 0.831441838587,
			"-0.006": 0.75022454667,
			"-0.005": 0.891478364885,
			"-0.004": 1.6307163617,
			"-0.003": 12.7896864578,
			"-0.002": 49.8946035434,
			"-0.001": 48.4695985527,
			"0.0": 44.0958632242,
			"0.001": 33.5415020454,
			"0.002": 12.2281438982,
			"0.003": 3.70258958584,
			"0.004": 3.25239811811,
			"0.005": 3.40497365541,
			"0.006": 2.93352993653,
			"0.007": 2.64707197582,
			"0.008": 2.57155512577,
			"0.009": 2.50948423065,
			"0.01": 1.97373052888,
			"0.011": 2.80818961207,
			"0.012": 5.05115964205,
			"0.013": 1.50191646062,
			"0.014": 0.0,
			"0.015": 0.0,
			"0.016": 0.0,
			"0.017": 0.0,
			"0.018": 0.0,
			"0.019": 0.0,
			"0.02": 0.0,
			"0.021": 0.0,
			"0.022": 0.0,
			"0.023": 0.0,
			"0.024": 0.0,
			"0.025": 0.0
		}
	}
}
