{
	 "smiles": "NC(=O)C1=CC=C(C=O)C=C1", 
	 "Tm": 374.15, 
	 "num_atms": 18, 
	 "gaussian": { 
		 "optdone": 1, 
		 "sigma_profile": "yes", 
		 "theory": "DFT", 
		 "functional": "B3LYP", 
		 "basiset": "6-31G**", 
		 "properties": { 
			 "R2extent": 3080.7227, 
			 "electric_dipole_moment_norm": 2.50540320507, 
			 "electric_quadrupole_moment_norm": 21.9855812975, 
			 "total_energy": -514.27851928, 
			 "HOMO_LUMO_gap": 0.17832, 
			 "cosmo_polarized_energy": -15.87, 
			 "cosmo_cavitation_energy": 23.16, 
			 "cosmo_dispersion_energy": -16.95, 
			 "cosmo_repulsion_energy": 1.36, 
			 "cosmo_total_nonelectrostatic_energy": 7.57, 
			 "SMD_solvation_energy": 5.88 
		},
		"coords": [
			{
				"x": -0.9087245273,
				"y": 2.617615002,
				"z": 0.6013297256,
				"element": "N" 
			},
			{
				"x": -0.866119161,
				"y": 2.4760822199,
				"z": -0.7633636706,
				"element": "C" 
			},
			{
				"x": -0.8157553618,
				"y": 3.4408976445,
				"z": -1.5153665669,
				"element": "O" 
			},
			{
				"x": -0.9099414055,
				"y": 1.0654834012,
				"z": -1.2896885273,
				"element": "C" 
			},
			{
				"x": -1.3620692163,
				"y": -0.0277229671,
				"z": -0.5308477786,
				"element": "C" 
			},
			{
				"x": -1.3802055104,
				"y": -1.3035450754,
				"z": -1.0813383163,
				"element": "C" 
			},
			{
				"x": -0.9464558915,
				"y": -1.5038150107,
				"z": -2.4000537144,
				"element": "C" 
			},
			{
				"x": -0.9590291527,
				"y": -2.8640572586,
				"z": -2.9893916721,
				"element": "C" 
			},
			{
				"x": -1.3209733629,
				"y": -3.8650667892,
				"z": -2.4015851331,
				"element": "O" 
			},
			{
				"x": -0.5084287424,
				"y": -0.4125866397,
				"z": -3.1624262363,
				"element": "C" 
			},
			{
				"x": -0.4963392096,
				"y": 0.8654087686,
				"z": -2.6130598361,
				"element": "C" 
			},
			{
				"x": -0.7676605868,
				"y": 3.5564139432,
				"z": 0.9458219736,
				"element": "H" 
			},
			{
				"x": -0.6369815818,
				"y": 1.860445668,
				"z": 1.2083635289,
				"element": "H" 
			},
			{
				"x": -1.732950618,
				"y": 0.1218888496,
				"z": 0.4787731146,
				"element": "H" 
			},
			{
				"x": -1.731751309,
				"y": -2.1601787396,
				"z": -0.5152042873,
				"element": "H" 
			},
			{
				"x": -0.6029546341,
				"y": -2.9161006697,
				"z": -4.0421421476,
				"element": "H" 
			},
			{
				"x": -0.1801555534,
				"y": -0.5705563889,
				"z": -4.1871464538,
				"element": "H" 
			},
			{
				"x": -0.1741041755,
				"y": 1.7279940419,
				"z": -3.1858740025,
				"element": "H" 
			}
		],
		 "valence_orbital": [ 
			{
				"type": "occ",
				"energy": -0.28315,
				"method": "rhf"
			},
			{
				"type": "occ",
				"energy": -0.2762,
				"method": "rhf"
			},
			{
				"type": "occ",
				"energy": -0.27263,
				"method": "rhf"
			},
			{
				"type": "occ",
				"energy": -0.26259,
				"method": "rhf"
			},
			{
				"type": "occ",
				"energy": -0.25951,
				"method": "rhf"
			},
			{
				"type": "unocc",
				"energy": -0.08119,
				"method": "rhf"
			},
			{
				"type": "unocc",
				"energy": -0.02497,
				"method": "rhf"
			},
			{
				"type": "unocc",
				"energy": -0.00067,
				"method": "rhf"
			},
			{
				"type": "unocc",
				"energy": 0.06131,
				"method": "rhf"
			},
			{
				"type": "unocc",
				"energy": 0.0753,
				"method": "rhf"
			}
		],
		"cosmo_sigma_profile": { 
			"-0.025": 0.0,
			"-0.024": 0.0,
			"-0.023": 0.0,
			"-0.022": 0.0,
			"-0.021": 0.0,
			"-0.02": 0.0,
			"-0.019": 0.0,
			"-0.018": 0.0,
			"-0.017": 0.0,
			"-0.016": 0.0,
			"-0.015": 0.32608768756,
			"-0.014": 2.27645875338,
			"-0.013": 2.69887492338,
			"-0.012": 1.87797309722,
			"-0.011": 2.87974929654,
			"-0.01": 2.76427164989,
			"-0.009": 2.13272581529,
			"-0.008": 4.92294584777,
			"-0.007": 9.11619170194,
			"-0.006": 11.2115448103,
			"-0.005": 9.20356957118,
			"-0.004": 9.17038626338,
			"-0.003": 9.32883778273,
			"-0.002": 9.19588560483,
			"-0.001": 11.9077781345,
			"0.0": 12.7529587185,
			"0.001": 12.6874966011,
			"0.002": 17.5590374701,
			"0.003": 8.31570838626,
			"0.004": 4.63023652984,
			"0.005": 4.05384716234,
			"0.006": 3.05646447108,
			"0.007": 3.31453226361,
			"0.008": 3.98537885971,
			"0.009": 3.91880815741,
			"0.01": 3.92685553865,
			"0.011": 5.57524828855,
			"0.012": 4.81447193313,
			"0.013": 5.54446477278,
			"0.014": 2.23188459567,
			"0.015": 0.0433663894,
			"0.016": 0.0,
			"0.017": 0.0,
			"0.018": 0.0,
			"0.019": 0.0,
			"0.02": 0.0,
			"0.021": 0.0,
			"0.022": 0.0,
			"0.023": 0.0,
			"0.024": 0.0,
			"0.025": 0.0
		}
	}
}
