{
	 "smiles": "C[C@]12CC[C@H]3[C@@H](CCC4=C3C=CC(O)=C4)[C@@H]1CCC2=O", 
	 "Tm": 530.15, 
	 "num_atms": 42, 
	 "gaussian": { 
		 "optdone": 1, 
		 "sigma_profile": "yes", 
		 "theory": "DFT", 
		 "functional": "B3LYP", 
		 "basiset": "6-31G**", 
		 "properties": { 
			 "R2extent": 6977.4486, 
			 "electric_dipole_moment_norm": 2.0598834166, 
			 "electric_quadrupole_moment_norm": 26.0602065216, 
			 "total_energy": -849.642950217, 
			 "HOMO_LUMO_gap": 0.20016, 
			 "cosmo_polarized_energy": -13.77, 
			 "cosmo_cavitation_energy": 39.58, 
			 "cosmo_dispersion_energy": -28.51, 
			 "cosmo_repulsion_energy": 2.13, 
			 "cosmo_total_nonelectrostatic_energy": 13.19, 
			 "SMD_solvation_energy": 6.22 
		},
		"coords": [
			{
				"x": -2.5332521009,
				"y": 0.1846430012,
				"z": -0.9401052417,
				"element": "C" 
			},
			{
				"x": -1.1311013481,
				"y": 0.1668081746,
				"z": -1.6067016455,
				"element": "C" 
			},
			{
				"x": -0.5574282959,
				"y": -1.2536454284,
				"z": -1.6288458097,
				"element": "C" 
			},
			{
				"x": -0.1524751457,
				"y": -1.7061432783,
				"z": -0.2090515219,
				"element": "C" 
			},
			{
				"x": 0.779222949,
				"y": -0.7016016529,
				"z": 0.5136818492,
				"element": "C" 
			},
			{
				"x": 0.2004205939,
				"y": 0.7409033513,
				"z": 0.5017586588,
				"element": "C" 
			},
			{
				"x": 1.1808256552,
				"y": 1.6841006045,
				"z": 1.2075376895,
				"element": "C" 
			},
			{
				"x": 1.3000164107,
				"y": 1.3108335367,
				"z": 2.6879448117,
				"element": "C" 
			},
			{
				"x": 1.4659352936,
				"y": -0.1801029619,
				"z": 2.928735466,
				"element": "C" 
			},
			{
				"x": 1.1860992035,
				"y": -1.133863133,
				"z": 1.9253083513,
				"element": "C" 
			},
			{
				"x": 1.3501378366,
				"y": -2.4879801383,
				"z": 2.2510564861,
				"element": "C" 
			},
			{
				"x": 1.7632103566,
				"y": -2.9050175496,
				"z": 3.5143385419,
				"element": "C" 
			},
			{
				"x": 2.0313383142,
				"y": -1.9510392872,
				"z": 4.4987257646,
				"element": "C" 
			},
			{
				"x": 2.441754611,
				"y": -2.2792808447,
				"z": 5.7619019393,
				"element": "O" 
			},
			{
				"x": 1.8821853074,
				"y": -0.5980271555,
				"z": 4.1963441591,
				"element": "C" 
			},
			{
				"x": -0.1059051455,
				"y": 1.1232375126,
				"z": -0.9476419954,
				"element": "C" 
			},
			{
				"x": -0.6053194504,
				"y": 2.5343315327,
				"z": -1.3222611947,
				"element": "C" 
			},
			{
				"x": -1.0592748219,
				"y": 2.3541335798,
				"z": -2.7906362265,
				"element": "C" 
			},
			{
				"x": -1.3289834425,
				"y": 0.8457383395,
				"z": -2.9663141505,
				"element": "C" 
			},
			{
				"x": -1.6417421027,
				"y": 0.3027938506,
				"z": -4.0041100045,
				"element": "O" 
			},
			{
				"x": -3.213184922,
				"y": -0.4452527336,
				"z": -1.5222078165,
				"element": "H" 
			},
			{
				"x": -2.5068168374,
				"y": -0.2013823893,
				"z": 0.0815127913,
				"element": "H" 
			},
			{
				"x": -2.966829649,
				"y": 1.1884689428,
				"z": -0.9001533084,
				"element": "H" 
			},
			{
				"x": 0.3245365562,
				"y": -1.2714566155,
				"z": -2.2824068888,
				"element": "H" 
			},
			{
				"x": -1.276168685,
				"y": -1.9583847473,
				"z": -2.0612615891,
				"element": "H" 
			},
			{
				"x": -1.0449686945,
				"y": -1.8756228647,
				"z": 0.4060981446,
				"element": "H" 
			},
			{
				"x": 0.3429394069,
				"y": -2.6786001048,
				"z": -0.2935911811,
				"element": "H" 
			},
			{
				"x": 1.7036385374,
				"y": -0.6512334396,
				"z": -0.0880515886,
				"element": "H" 
			},
			{
				"x": -0.7366094406,
				"y": 0.7459799844,
				"z": 1.0790467961,
				"element": "H" 
			},
			{
				"x": 2.1629034129,
				"y": 1.6176943171,
				"z": 0.7185664582,
				"element": "H" 
			},
			{
				"x": 0.8543275882,
				"y": 2.7263758091,
				"z": 1.1172638565,
				"element": "H" 
			},
			{
				"x": 0.3943942948,
				"y": 1.6487968709,
				"z": 3.2128539117,
				"element": "H" 
			},
			{
				"x": 2.1321785686,
				"y": 1.8512518657,
				"z": 3.154539818,
				"element": "H" 
			},
			{
				"x": 1.1558860988,
				"y": -3.2501490897,
				"z": 1.5040505618,
				"element": "H" 
			},
			{
				"x": 1.8775363656,
				"y": -3.965603206,
				"z": 3.7297269603,
				"element": "H" 
			},
			{
				"x": 2.5077548075,
				"y": -3.240473124,
				"z": 5.8297897863,
				"element": "H" 
			},
			{
				"x": 2.0985083274,
				"y": 0.1322995722,
				"z": 4.9711680145,
				"element": "H" 
			},
			{
				"x": 0.8344776879,
				"y": 0.9818642523,
				"z": -1.5088647154,
				"element": "H" 
			},
			{
				"x": 0.1716329931,
				"y": 3.2968503582,
				"z": -1.2189863876,
				"element": "H" 
			},
			{
				"x": -1.4424302319,
				"y": 2.8400199163,
				"z": -0.6845317558,
				"element": "H" 
			},
			{
				"x": -1.9454212044,
				"y": 2.9335017106,
				"z": -3.0686882707,
				"element": "H" 
			},
			{
				"x": -0.2706496586,
				"y": 2.6344326612,
				"z": -3.4989395244,
				"element": "H" 
			}
		],
		 "valence_orbital": [ 
			{
				"type": "occ",
				"energy": -0.30134,
				"method": "rhf"
			},
			{
				"type": "occ",
				"energy": -0.28625,
				"method": "rhf"
			},
			{
				"type": "occ",
				"energy": -0.23919,
				"method": "rhf"
			},
			{
				"type": "occ",
				"energy": -0.2298,
				"method": "rhf"
			},
			{
				"type": "occ",
				"energy": -0.21181,
				"method": "rhf"
			},
			{
				"type": "unocc",
				"energy": -0.01165,
				"method": "rhf"
			},
			{
				"type": "unocc",
				"energy": -0.001,
				"method": "rhf"
			},
			{
				"type": "unocc",
				"energy": 0.01657,
				"method": "rhf"
			},
			{
				"type": "unocc",
				"energy": 0.07307,
				"method": "rhf"
			},
			{
				"type": "unocc",
				"energy": 0.07754,
				"method": "rhf"
			}
		],
		"cosmo_sigma_profile": { 
			"-0.025": 0.0,
			"-0.024": 0.0,
			"-0.023": 0.0,
			"-0.022": 0.0,
			"-0.021": 0.0,
			"-0.02": 0.0,
			"-0.019": 0.0,
			"-0.018": 0.0388578367492,
			"-0.017": 1.1581540301,
			"-0.016": 0.627855898223,
			"-0.015": 1.42145451085,
			"-0.014": 0.581513424678,
			"-0.013": 1.35947927739,
			"-0.012": 1.07616552288,
			"-0.011": 0.515838155265,
			"-0.01": 0.929725510676,
			"-0.009": 1.23135091597,
			"-0.008": 1.1532930513,
			"-0.007": 1.15605013788,
			"-0.006": 2.57143747964,
			"-0.005": 11.679879826,
			"-0.004": 21.2357277664,
			"-0.003": 36.8838548029,
			"-0.002": 48.2985863665,
			"-0.001": 41.9952683788,
			"0.0": 33.1109243402,
			"0.001": 19.5418497717,
			"0.002": 8.44326231387,
			"0.003": 8.39033364166,
			"0.004": 10.2534967996,
			"0.005": 10.1069906132,
			"0.006": 11.4384221141,
			"0.007": 7.93988549244,
			"0.008": 2.85364710079,
			"0.009": 2.96944150818,
			"0.01": 3.72498473435,
			"0.011": 4.68870655543,
			"0.012": 6.62467301838,
			"0.013": 2.97870473985,
			"0.014": 0.387939534088,
			"0.015": 0.0,
			"0.016": 0.0,
			"0.017": 0.0,
			"0.018": 0.0,
			"0.019": 0.0,
			"0.02": 0.0,
			"0.021": 0.0,
			"0.022": 0.0,
			"0.023": 0.0,
			"0.024": 0.0,
			"0.025": 0.0
		}
	}
}
