{
	 "smiles": "[O-][N+](=O)C1=CC(N2C(=O)C=CC2=O)=C(Cl)C=C1", 
	 "Tm": 347.15, 
	 "num_atms": 22, 
	 "gaussian": { 
		 "optdone": 1, 
		 "sigma_profile": "yes", 
		 "theory": "DFT", 
		 "functional": "B3LYP", 
		 "basiset": "6-31G**", 
		 "properties": { 
			 "R2extent": 4526.4411, 
			 "electric_dipole_moment_norm": 4.03885569314, 
			 "electric_quadrupole_moment_norm": 20.8429324132, 
			 "total_energy": -1254.55640282, 
			 "HOMO_LUMO_gap": 0.16531, 
			 "cosmo_polarized_energy": -15.04, 
			 "cosmo_cavitation_energy": 30.93, 
			 "cosmo_dispersion_energy": -21.53, 
			 "cosmo_repulsion_energy": 1.67, 
			 "cosmo_total_nonelectrostatic_energy": 11.06, 
			 "SMD_solvation_energy": 9.26 
		},
		"coords": [
			{
				"x": 2.9460733921,
				"y": 1.2857262717,
				"z": 2.3119412938,
				"element": "O" 
			},
			{
				"x": 2.980175608,
				"y": 0.1999929122,
				"z": 1.7358990757,
				"element": "N" 
			},
			{
				"x": 3.9563040053,
				"y": -0.5468193058,
				"z": 1.6927558406,
				"element": "O" 
			},
			{
				"x": 1.7583567957,
				"y": -0.242673063,
				"z": 1.0453945634,
				"element": "C" 
			},
			{
				"x": 0.6393290595,
				"y": 0.581370891,
				"z": 1.0709402547,
				"element": "C" 
			},
			{
				"x": -0.525078982,
				"y": 0.1732688413,
				"z": 0.4207406166,
				"element": "C" 
			},
			{
				"x": -1.663746396,
				"y": 1.0161918635,
				"z": 0.4380736451,
				"element": "N" 
			},
			{
				"x": -1.7282221812,
				"y": 2.2857608288,
				"z": -0.1806651105,
				"element": "C" 
			},
			{
				"x": -0.8381669181,
				"y": 2.8129599544,
				"z": -0.8077958243,
				"element": "O" 
			},
			{
				"x": -3.0999335067,
				"y": 2.8112010043,
				"z": 0.1177674948,
				"element": "C" 
			},
			{
				"x": -3.7580217395,
				"y": 1.9201062255,
				"z": 0.8655061094,
				"element": "C" 
			},
			{
				"x": -2.8717605683,
				"y": 0.7377670405,
				"z": 1.1189125929,
				"element": "C" 
			},
			{
				"x": -3.10330937,
				"y": -0.2514924985,
				"z": 1.7741871366,
				"element": "O" 
			},
			{
				"x": -0.5338818862,
				"y": -1.0603693044,
				"z": -0.2556503699,
				"element": "C" 
			},
			{
				"x": -1.9441807452,
				"y": -1.5770473545,
				"z": -1.1365612797,
				"element": "Cl" 
			},
			{
				"x": 0.5955713186,
				"y": -1.8834194261,
				"z": -0.2534874116,
				"element": "C" 
			},
			{
				"x": 1.7537648904,
				"y": -1.4758525658,
				"z": 0.3983039163,
				"element": "C" 
			},
			{
				"x": 0.6785805096,
				"y": 1.5288613799,
				"z": 1.5921558,
				"element": "H" 
			},
			{
				"x": -3.4274656291,
				"y": 3.7752698652,
				"z": -0.2483199071,
				"element": "H" 
			},
			{
				"x": -4.7607230838,
				"y": 1.9704819176,
				"z": 1.2689709534,
				"element": "H" 
			},
			{
				"x": 0.5617781396,
				"y": -2.8334724706,
				"z": -0.7736220378,
				"element": "H" 
			},
			{
				"x": 2.6450572873,
				"y": -2.0902130073,
				"z": 0.4087526474,
				"element": "H" 
			}
		],
		 "valence_orbital": [ 
			{
				"type": "occ",
				"energy": -0.31309,
				"method": "rhf"
			},
			{
				"type": "occ",
				"energy": -0.30123,
				"method": "rhf"
			},
			{
				"type": "occ",
				"energy": -0.29014,
				"method": "rhf"
			},
			{
				"type": "occ",
				"energy": -0.28774,
				"method": "rhf"
			},
			{
				"type": "occ",
				"energy": -0.27634,
				"method": "rhf"
			},
			{
				"type": "unocc",
				"energy": -0.11103,
				"method": "rhf"
			},
			{
				"type": "unocc",
				"energy": -0.10105,
				"method": "rhf"
			},
			{
				"type": "unocc",
				"energy": -0.05105,
				"method": "rhf"
			},
			{
				"type": "unocc",
				"energy": -0.0187,
				"method": "rhf"
			},
			{
				"type": "unocc",
				"energy": 0.0063,
				"method": "rhf"
			}
		],
		"cosmo_sigma_profile": { 
			"-0.025": 0.0,
			"-0.024": 0.0,
			"-0.023": 0.0,
			"-0.022": 0.0,
			"-0.021": 0.0,
			"-0.02": 0.0,
			"-0.019": 0.0,
			"-0.018": 0.0,
			"-0.017": 0.0,
			"-0.016": 0.0,
			"-0.015": 0.0,
			"-0.014": 0.0,
			"-0.013": 0.0,
			"-0.012": 0.0,
			"-0.011": 0.268183182864,
			"-0.01": 3.29124849411,
			"-0.009": 7.90633534102,
			"-0.008": 9.54986679278,
			"-0.007": 10.856328251,
			"-0.006": 10.3907711074,
			"-0.005": 12.5564333642,
			"-0.004": 15.9602351647,
			"-0.003": 20.2935942598,
			"-0.002": 21.8613043152,
			"-0.001": 22.5686943661,
			"0.0": 16.8857127657,
			"0.001": 9.3004280033,
			"0.002": 10.9029150707,
			"0.003": 11.6794367004,
			"0.004": 7.93083933411,
			"0.005": 6.21523162787,
			"0.006": 8.6583013399,
			"0.007": 12.2757896732,
			"0.008": 9.73142677439,
			"0.009": 8.62144782877,
			"0.01": 10.7234181827,
			"0.011": 4.00999155406,
			"0.012": 0.196591554691,
			"0.013": 0.0,
			"0.014": 0.0,
			"0.015": 0.0,
			"0.016": 0.0,
			"0.017": 0.0,
			"0.018": 0.0,
			"0.019": 0.0,
			"0.02": 0.0,
			"0.021": 0.0,
			"0.022": 0.0,
			"0.023": 0.0,
			"0.024": 0.0,
			"0.025": 0.0
		}
	}
}
