{
	 "smiles": "CC1=NOC(=N1)C1=CC=C(C=C1)C(O)=O", 
	 "Tm": 541.15, 
	 "num_atms": 23, 
	 "gaussian": { 
		 "optdone": 1, 
		 "sigma_profile": "yes", 
		 "theory": "DFT", 
		 "functional": "B3LYP", 
		 "basiset": "6-31G**", 
		 "properties": { 
			 "R2extent": 5054.9466, 
			 "electric_dipole_moment_norm": 3.09010593022, 
			 "electric_quadrupole_moment_norm": 23.893749738, 
			 "total_energy": -721.039106602, 
			 "HOMO_LUMO_gap": 0.17625, 
			 "cosmo_polarized_energy": -17.06, 
			 "cosmo_cavitation_energy": 28.91, 
			 "cosmo_dispersion_energy": -21.4, 
			 "cosmo_repulsion_energy": 1.66, 
			 "cosmo_total_nonelectrostatic_energy": 9.16, 
			 "SMD_solvation_energy": 4.46 
		},
		"coords": [
			{
				"x": -0.8638182937,
				"y": -0.2698283188,
				"z": -5.0716064198,
				"element": "C" 
			},
			{
				"x": -0.4526645572,
				"y": -0.1567341057,
				"z": -3.6372955892,
				"element": "C" 
			},
			{
				"x": 0.601595491,
				"y": 0.528346265,
				"z": -3.2577026976,
				"element": "N" 
			},
			{
				"x": 0.6081211799,
				"y": 0.3658659824,
				"z": -1.8612326824,
				"element": "O" 
			},
			{
				"x": -0.4512465302,
				"y": -0.4049169357,
				"z": -1.5573967907,
				"element": "C" 
			},
			{
				"x": -1.1422915864,
				"y": -0.7582616114,
				"z": -2.6086412641,
				"element": "N" 
			},
			{
				"x": -0.7022149174,
				"y": -0.7471108389,
				"z": -0.1589900115,
				"element": "C" 
			},
			{
				"x": -1.8093147279,
				"y": -1.5504225632,
				"z": 0.1620750772,
				"element": "C" 
			},
			{
				"x": -2.064010796,
				"y": -1.8837362285,
				"z": 1.4853470215,
				"element": "C" 
			},
			{
				"x": -1.2116649506,
				"y": -1.4396758728,
				"z": 2.5070121775,
				"element": "C" 
			},
			{
				"x": -0.11587566,
				"y": -0.6263624974,
				"z": 2.1835056068,
				"element": "C" 
			},
			{
				"x": 0.1398467801,
				"y": -0.2790267281,
				"z": 0.8605883227,
				"element": "C" 
			},
			{
				"x": -1.5501954175,
				"y": -1.8348951034,
				"z": 3.9152405373,
				"element": "C" 
			},
			{
				"x": -0.5430005223,
				"y": -1.7816524531,
				"z": 4.8262173905,
				"element": "O" 
			},
			{
				"x": -2.6552651483,
				"y": -2.1870241759,
				"z": 4.2527710884,
				"element": "O" 
			},
			{
				"x": -1.7656352101,
				"y": -0.878845192,
				"z": -5.1418626597,
				"element": "H" 
			},
			{
				"x": -1.0658923055,
				"y": 0.7170545372,
				"z": -5.497066099,
				"element": "H" 
			},
			{
				"x": -0.0729722765,
				"y": -0.73404465,
				"z": -5.6674061458,
				"element": "H" 
			},
			{
				"x": -2.4557843952,
				"y": -1.8982309847,
				"z": -0.6361221536,
				"element": "H" 
			},
			{
				"x": -2.9207865142,
				"y": -2.4911809526,
				"z": 1.7552175903,
				"element": "H" 
			},
			{
				"x": 0.5268167506,
				"y": -0.221945742,
				"z": 2.9613772285,
				"element": "H" 
			},
			{
				"x": 0.9826644395,
				"y": 0.3572151054,
				"z": 0.6141215071,
				"element": "H" 
			},
			{
				"x": 0.3063891678,
				"y": -1.648186936,
				"z": 4.3834489656,
				"element": "H" 
			}
		],
		 "valence_orbital": [ 
			{
				"type": "occ",
				"energy": -0.31342,
				"method": "rhf"
			},
			{
				"type": "occ",
				"energy": -0.30431,
				"method": "rhf"
			},
			{
				"type": "occ",
				"energy": -0.28647,
				"method": "rhf"
			},
			{
				"type": "occ",
				"energy": -0.28188,
				"method": "rhf"
			},
			{
				"type": "occ",
				"energy": -0.26287,
				"method": "rhf"
			},
			{
				"type": "unocc",
				"energy": -0.08662,
				"method": "rhf"
			},
			{
				"type": "unocc",
				"energy": -0.03601,
				"method": "rhf"
			},
			{
				"type": "unocc",
				"energy": -0.01479,
				"method": "rhf"
			},
			{
				"type": "unocc",
				"energy": 0.02326,
				"method": "rhf"
			},
			{
				"type": "unocc",
				"energy": 0.05204,
				"method": "rhf"
			}
		],
		"cosmo_sigma_profile": { 
			"-0.025": 0.0,
			"-0.024": 0.0,
			"-0.023": 0.0,
			"-0.022": 0.0,
			"-0.021": 0.0,
			"-0.02": 0.0,
			"-0.019": 0.551001666201,
			"-0.018": 1.00792363167,
			"-0.017": 0.870965474645,
			"-0.016": 1.63307413296,
			"-0.015": 0.545627395997,
			"-0.014": 0.578305113565,
			"-0.013": 1.41324882629,
			"-0.012": 1.3961780531,
			"-0.011": 1.45340012255,
			"-0.01": 1.05499275409,
			"-0.009": 1.76247523157,
			"-0.008": 2.51521140549,
			"-0.007": 7.26892212143,
			"-0.006": 12.4418627952,
			"-0.005": 12.3800101492,
			"-0.004": 14.4845023104,
			"-0.003": 19.20596545,
			"-0.002": 22.9045143739,
			"-0.001": 17.48039349,
			"0.0": 16.4551672253,
			"0.001": 19.6115817743,
			"0.002": 9.99145241349,
			"0.003": 7.11195812892,
			"0.004": 5.27171251931,
			"0.005": 6.10644371787,
			"0.006": 6.36293316505,
			"0.007": 6.20748221733,
			"0.008": 6.03305739201,
			"0.009": 6.1885922483,
			"0.01": 7.26179191646,
			"0.011": 7.38780887851,
			"0.012": 5.64531622861,
			"0.013": 1.96620810109,
			"0.014": 0.0422349841771,
			"0.015": 0.0,
			"0.016": 0.0,
			"0.017": 0.0,
			"0.018": 0.0,
			"0.019": 0.0,
			"0.02": 0.0,
			"0.021": 0.0,
			"0.022": 0.0,
			"0.023": 0.0,
			"0.024": 0.0,
			"0.025": 0.0
		}
	}
}
