{
	 "smiles": "CCCC(N(C)C)C(O)=O", 
	 "Tm": 453.15, 
	 "num_atms": 25, 
	 "gaussian": { 
		 "optdone": 1, 
		 "sigma_profile": "yes", 
		 "theory": "DFT", 
		 "functional": "B3LYP", 
		 "basiset": "6-31G**", 
		 "properties": { 
			 "R2extent": 1701.6805, 
			 "electric_dipole_moment_norm": 1.53366148481, 
			 "electric_quadrupole_moment_norm": 7.74021647372, 
			 "total_energy": -480.98759752, 
			 "HOMO_LUMO_gap": 0.22587, 
			 "cosmo_polarized_energy": -9.68, 
			 "cosmo_cavitation_energy": 25.96, 
			 "cosmo_dispersion_energy": -18.43, 
			 "cosmo_repulsion_energy": 1.5, 
			 "cosmo_total_nonelectrostatic_energy": 9.03, 
			 "SMD_solvation_energy": 4.5 
		},
		"coords": [
			{
				"x": -0.1998455736,
				"y": 3.2506652376,
				"z": 0.50668644,
				"element": "C" 
			},
			{
				"x": -1.105509711,
				"y": 2.1242648319,
				"z": -0.0081875442,
				"element": "C" 
			},
			{
				"x": -0.5396590162,
				"y": 1.334838526,
				"z": -1.208990114,
				"element": "C" 
			},
			{
				"x": 0.2944420152,
				"y": 0.066124801,
				"z": -0.8748879242,
				"element": "C" 
			},
			{
				"x": -0.4071880449,
				"y": -0.8917675394,
				"z": -0.0179320155,
				"element": "N" 
			},
			{
				"x": 0.3754195089,
				"y": -2.1114811047,
				"z": 0.1793158476,
				"element": "C" 
			},
			{
				"x": -1.7370203275,
				"y": -1.2351406773,
				"z": -0.5157560551,
				"element": "C" 
			},
			{
				"x": 1.6404605747,
				"y": 0.5091193478,
				"z": -0.3008588355,
				"element": "C" 
			},
			{
				"x": 1.7099327416,
				"y": 0.5013038416,
				"z": 1.0520450077,
				"element": "O" 
			},
			{
				"x": 2.5625188567,
				"y": 0.8852036078,
				"z": -0.9918581806,
				"element": "O" 
			},
			{
				"x": 0.0347930857,
				"y": 3.9656150529,
				"z": -0.2901866157,
				"element": "H" 
			},
			{
				"x": -0.6910549241,
				"y": 3.8031826565,
				"z": 1.3147397743,
				"element": "H" 
			},
			{
				"x": 0.7428875944,
				"y": 2.8649334357,
				"z": 0.9025265537,
				"element": "H" 
			},
			{
				"x": -2.0645775593,
				"y": 2.5633295917,
				"z": -0.3097704605,
				"element": "H" 
			},
			{
				"x": -1.3255922689,
				"y": 1.4280203611,
				"z": 0.8084129115,
				"element": "H" 
			},
			{
				"x": -1.3572811413,
				"y": 1.0188762804,
				"z": -1.8639704483,
				"element": "H" 
			},
			{
				"x": 0.0979970371,
				"y": 1.9802515569,
				"z": -1.823902794,
				"element": "H" 
			},
			{
				"x": 0.5621780916,
				"y": -0.3877524913,
				"z": -1.8487285456,
				"element": "H" 
			},
			{
				"x": -0.1616898762,
				"y": -2.7787325545,
				"z": 0.8599299037,
				"element": "H" 
			},
			{
				"x": 1.337503655,
				"y": -1.8773279377,
				"z": 0.6386962071,
				"element": "H" 
			},
			{
				"x": 0.5606341411,
				"y": -2.6621333041,
				"z": -0.7628334351,
				"element": "H" 
			},
			{
				"x": -2.3983080809,
				"y": -0.3665266397,
				"z": -0.5065280929,
				"element": "H" 
			},
			{
				"x": -2.1751416016,
				"y": -1.987283382,
				"z": 0.146606394,
				"element": "H" 
			},
			{
				"x": -1.7276970764,
				"y": -1.6542654839,
				"z": -1.5406817067,
				"element": "H" 
			},
			{
				"x": 2.5988979001,
				"y": 0.8343819857,
				"z": 1.2648137286,
				"element": "H" 
			}
		],
		 "valence_orbital": [ 
			{
				"type": "occ",
				"energy": -0.32809,
				"method": "rhf"
			},
			{
				"type": "occ",
				"energy": -0.32139,
				"method": "rhf"
			},
			{
				"type": "occ",
				"energy": -0.31378,
				"method": "rhf"
			},
			{
				"type": "occ",
				"energy": -0.27193,
				"method": "rhf"
			},
			{
				"type": "occ",
				"energy": -0.21901,
				"method": "rhf"
			},
			{
				"type": "unocc",
				"energy": 0.00686,
				"method": "rhf"
			},
			{
				"type": "unocc",
				"energy": 0.06464,
				"method": "rhf"
			},
			{
				"type": "unocc",
				"energy": 0.08865,
				"method": "rhf"
			},
			{
				"type": "unocc",
				"energy": 0.11331,
				"method": "rhf"
			},
			{
				"type": "unocc",
				"energy": 0.13257,
				"method": "rhf"
			}
		],
		"cosmo_sigma_profile": { 
			"-0.025": 0.0,
			"-0.024": 0.0,
			"-0.023": 0.0,
			"-0.022": 0.0,
			"-0.021": 0.0,
			"-0.02": 0.0,
			"-0.019": 0.0,
			"-0.018": 0.496821409107,
			"-0.017": 1.17898103047,
			"-0.016": 0.508077897518,
			"-0.015": 0.847771587731,
			"-0.014": 0.724824289662,
			"-0.013": 1.078175766,
			"-0.012": 0.596615438975,
			"-0.011": 0.282970798563,
			"-0.01": 0.735204631757,
			"-0.009": 0.58597710128,
			"-0.008": 1.11493670562,
			"-0.007": 0.424879129661,
			"-0.006": 1.22530184679,
			"-0.005": 2.01481681742,
			"-0.004": 12.3430243581,
			"-0.003": 25.1329621524,
			"-0.002": 32.6079346454,
			"-0.001": 31.1144790502,
			"0.0": 27.4144694919,
			"0.001": 14.3320310331,
			"0.002": 8.50179458784,
			"0.003": 3.48651871652,
			"0.004": 2.70632805361,
			"0.005": 2.91146136356,
			"0.006": 3.06566162185,
			"0.007": 2.44677865677,
			"0.008": 3.28833575689,
			"0.009": 2.54940130417,
			"0.01": 3.55514713205,
			"0.011": 4.20059116321,
			"0.012": 5.58995330964,
			"0.013": 1.76048595196,
			"0.014": 1.00946363734,
			"0.015": 0.651749117124,
			"0.016": 0.0023691379729,
			"0.017": 0.0,
			"0.018": 0.0,
			"0.019": 0.0,
			"0.02": 0.0,
			"0.021": 0.0,
			"0.022": 0.0,
			"0.023": 0.0,
			"0.024": 0.0,
			"0.025": 0.0
		}
	}
}
