{
	 "smiles": "CCC1(NC(=O)NC1=O)C(C)C", 
	 "Tm": 438.15, 
	 "num_atms": 26, 
	 "gaussian": { 
		 "optdone": 1, 
		 "sigma_profile": "yes", 
		 "theory": "DFT", 
		 "functional": "B3LYP", 
		 "basiset": "6-31G**", 
		 "properties": { 
			 "R2extent": 2373.1139, 
			 "electric_dipole_moment_norm": 2.81209087513, 
			 "electric_quadrupole_moment_norm": 13.3254375872, 
			 "total_energy": -573.296797385, 
			 "HOMO_LUMO_gap": 0.25087, 
			 "cosmo_polarized_energy": -14.7, 
			 "cosmo_cavitation_energy": 27.37, 
			 "cosmo_dispersion_energy": -19.4, 
			 "cosmo_repulsion_energy": 1.55, 
			 "cosmo_total_nonelectrostatic_energy": 9.53, 
			 "SMD_solvation_energy": 6.18 
		},
		"coords": [
			{
				"x": -1.1186216772,
				"y": 0.7563224737,
				"z": -1.8057001379,
				"element": "C" 
			},
			{
				"x": 0.1487840706,
				"y": 0.1023545534,
				"z": -1.2459239955,
				"element": "C" 
			},
			{
				"x": 0.5287604063,
				"y": 0.5355356332,
				"z": 0.1939276664,
				"element": "C" 
			},
			{
				"x": 0.9294849017,
				"y": 1.9448559035,
				"z": 0.2318627047,
				"element": "N" 
			},
			{
				"x": 2.2517344383,
				"y": 2.15367285,
				"z": 0.5146463572,
				"element": "C" 
			},
			{
				"x": 2.8625106267,
				"y": 3.2002690778,
				"z": 0.5866857974,
				"element": "O" 
			},
			{
				"x": 2.7902827219,
				"y": 0.8631557938,
				"z": 0.7180952125,
				"element": "N" 
			},
			{
				"x": 1.8683523747,
				"y": -0.1473227264,
				"z": 0.5584873838,
				"element": "C" 
			},
			{
				"x": 2.0737195111,
				"y": -1.3407448352,
				"z": 0.6643154897,
				"element": "O" 
			},
			{
				"x": -0.5763923722,
				"y": 0.2375140326,
				"z": 1.2596472508,
				"element": "C" 
			},
			{
				"x": -1.0973605099,
				"y": -1.207908351,
				"z": 1.2005838781,
				"element": "C" 
			},
			{
				"x": -0.1121814871,
				"y": 0.5807929298,
				"z": 2.6847999409,
				"element": "C" 
			},
			{
				"x": -1.2793801471,
				"y": 0.4386061798,
				"z": -2.8402961136,
				"element": "H" 
			},
			{
				"x": -2.0127338809,
				"y": 0.4853784837,
				"z": -1.2363931986,
				"element": "H" 
			},
			{
				"x": -1.041723622,
				"y": 1.8494798338,
				"z": -1.8141403558,
				"element": "H" 
			},
			{
				"x": 0.0568440216,
				"y": -0.9873900885,
				"z": -1.2611575862,
				"element": "H" 
			},
			{
				"x": 0.9968519972,
				"y": 0.3500191845,
				"z": -1.8953559289,
				"element": "H" 
			},
			{
				"x": 0.324649358,
				"y": 2.7225708328,
				"z": 0.0217096982,
				"element": "H" 
			},
			{
				"x": 3.7624061125,
				"y": 0.7150308504,
				"z": 0.9482675442,
				"element": "H" 
			},
			{
				"x": -1.408869137,
				"y": 0.9118368765,
				"z": 1.0124915358,
				"element": "H" 
			},
			{
				"x": -1.5867118096,
				"y": -1.4362897645,
				"z": 0.2496395843,
				"element": "H" 
			},
			{
				"x": -0.2813820383,
				"y": -1.9212351865,
				"z": 1.3422187975,
				"element": "H" 
			},
			{
				"x": -1.8349234041,
				"y": -1.3659974283,
				"z": 1.9940376557,
				"element": "H" 
			},
			{
				"x": 0.6715556258,
				"y": -0.1065526133,
				"z": 3.0217488935,
				"element": "H" 
			},
			{
				"x": 0.2711025273,
				"y": 1.6023284676,
				"z": 2.755682841,
				"element": "H" 
			},
			{
				"x": -0.9497586082,
				"y": 0.4888170369,
				"z": 3.383119085,
				"element": "H" 
			}
		],
		 "valence_orbital": [ 
			{
				"type": "occ",
				"energy": -0.33768,
				"method": "rhf"
			},
			{
				"type": "occ",
				"energy": -0.28766,
				"method": "rhf"
			},
			{
				"type": "occ",
				"energy": -0.2854,
				"method": "rhf"
			},
			{
				"type": "occ",
				"energy": -0.26249,
				"method": "rhf"
			},
			{
				"type": "occ",
				"energy": -0.25883,
				"method": "rhf"
			},
			{
				"type": "unocc",
				"energy": -0.00796,
				"method": "rhf"
			},
			{
				"type": "unocc",
				"energy": 0.05541,
				"method": "rhf"
			},
			{
				"type": "unocc",
				"energy": 0.06807,
				"method": "rhf"
			},
			{
				"type": "unocc",
				"energy": 0.0874,
				"method": "rhf"
			},
			{
				"type": "unocc",
				"energy": 0.09698,
				"method": "rhf"
			}
		],
		"cosmo_sigma_profile": { 
			"-0.025": 0.0,
			"-0.024": 0.0,
			"-0.023": 0.0,
			"-0.022": 0.0,
			"-0.021": 0.0,
			"-0.02": 0.0,
			"-0.019": 0.0,
			"-0.018": 0.0,
			"-0.017": 0.20925693945,
			"-0.016": 1.08121407174,
			"-0.015": 1.58415477302,
			"-0.014": 1.78404431249,
			"-0.013": 1.66960431837,
			"-0.012": 1.44804404796,
			"-0.011": 2.43195484572,
			"-0.01": 2.21905879314,
			"-0.009": 2.19530707948,
			"-0.008": 2.04882004711,
			"-0.007": 2.50542681797,
			"-0.006": 2.81305888635,
			"-0.005": 3.73063465818,
			"-0.004": 11.6856219046,
			"-0.003": 23.7729712843,
			"-0.002": 26.9744405003,
			"-0.001": 29.568928528,
			"0.0": 24.9714007035,
			"0.001": 20.2164499961,
			"0.002": 5.53568839742,
			"0.003": 3.24007813978,
			"0.004": 2.68561811626,
			"0.005": 3.17133029926,
			"0.006": 2.52276511539,
			"0.007": 2.222891344,
			"0.008": 2.28708306884,
			"0.009": 3.89729121922,
			"0.01": 2.49292815086,
			"0.011": 3.53780074587,
			"0.012": 8.56160939019,
			"0.013": 7.93821266988,
			"0.014": 1.80590370022,
			"0.015": 0.0,
			"0.016": 0.0,
			"0.017": 0.0,
			"0.018": 0.0,
			"0.019": 0.0,
			"0.02": 0.0,
			"0.021": 0.0,
			"0.022": 0.0,
			"0.023": 0.0,
			"0.024": 0.0,
			"0.025": 0.0
		}
	}
}
