{
	 "smiles": "CCCCOC1=CC=C(C=C1)C1=NN=C2SC(C=CC3=CC=CC=C3)=NN12", 
	 "Tm": 353.15, 
	 "num_atms": 47, 
	 "gaussian": { 
		 "optdone": 1, 
		 "sigma_profile": "yes", 
		 "theory": "DFT", 
		 "functional": "B3LYP", 
		 "basiset": "6-31G**", 
		 "properties": { 
			 "R2extent": 21057.737, 
			 "electric_dipole_moment_norm": 6.22914276687, 
			 "electric_quadrupole_moment_norm": 52.8473236311, 
			 "total_energy": -1504.6441775, 
			 "HOMO_LUMO_gap": 0.11566, 
			 "cosmo_polarized_energy": -18.2, 
			 "cosmo_cavitation_energy": 53.74, 
			 "cosmo_dispersion_energy": -39.1, 
			 "cosmo_repulsion_energy": 2.89, 
			 "cosmo_total_nonelectrostatic_energy": 17.53, 
			 "SMD_solvation_energy": 5.89 
		},
		"coords": [
			{
				"x": -1.065761792,
				"y": 4.0175519425,
				"z": -7.2329032105,
				"element": "C" 
			},
			{
				"x": -0.2214104915,
				"y": 4.7760129082,
				"z": -6.2006125892,
				"element": "C" 
			},
			{
				"x": -0.4405697592,
				"y": 4.3344304091,
				"z": -4.7446546905,
				"element": "C" 
			},
			{
				"x": 0.0227856572,
				"y": 2.91084438,
				"z": -4.4602678495,
				"element": "C" 
			},
			{
				"x": -0.1756259169,
				"y": 2.6677752552,
				"z": -3.0668139087,
				"element": "O" 
			},
			{
				"x": 0.1560114204,
				"y": 1.4499398345,
				"z": -2.5564296444,
				"element": "C" 
			},
			{
				"x": -0.0786522877,
				"y": 1.2771834766,
				"z": -1.1839724983,
				"element": "C" 
			},
			{
				"x": 0.2250617954,
				"y": 0.074136435,
				"z": -0.5626172428,
				"element": "C" 
			},
			{
				"x": 0.7733129092,
				"y": -0.9922992312,
				"z": -1.2990976261,
				"element": "C" 
			},
			{
				"x": 1.0049971361,
				"y": -0.8108633985,
				"z": -2.6711221774,
				"element": "C" 
			},
			{
				"x": 0.7026977144,
				"y": 0.3934494349,
				"z": -3.2999434742,
				"element": "C" 
			},
			{
				"x": 1.112592954,
				"y": -2.2802142804,
				"z": -0.6982256267,
				"element": "C" 
			},
			{
				"x": 1.6327359072,
				"y": -3.316678258,
				"z": -1.3422430633,
				"element": "N" 
			},
			{
				"x": 1.8282834912,
				"y": -4.3741610424,
				"z": -0.4689068271,
				"element": "N" 
			},
			{
				"x": 1.4167281428,
				"y": -3.9449441738,
				"z": 0.6936654884,
				"element": "C" 
			},
			{
				"x": 1.2644817709,
				"y": -4.514421456,
				"z": 2.3392311426,
				"element": "S" 
			},
			{
				"x": 0.584994613,
				"y": -2.9055180851,
				"z": 2.7526205519,
				"element": "C" 
			},
			{
				"x": 0.1852645907,
				"y": -2.6349204478,
				"z": 4.1210829847,
				"element": "C" 
			},
			{
				"x": -0.3392015919,
				"y": -1.4561935577,
				"z": 4.5213859393,
				"element": "C" 
			},
			{
				"x": -0.7688686716,
				"y": -1.0921563675,
				"z": 5.8693222398,
				"element": "C" 
			},
			{
				"x": -1.2968879389,
				"y": 0.19618967,
				"z": 6.0782088599,
				"element": "C" 
			},
			{
				"x": -1.7241324044,
				"y": 0.6027478556,
				"z": 7.340265481,
				"element": "C" 
			},
			{
				"x": -1.6319806393,
				"y": -0.2727016981,
				"z": 8.4230671096,
				"element": "C" 
			},
			{
				"x": -1.1095116048,
				"y": -1.5568384984,
				"z": 8.2335985785,
				"element": "C" 
			},
			{
				"x": -0.6830232027,
				"y": -1.9631704244,
				"z": 6.9743101888,
				"element": "C" 
			},
			{
				"x": 0.4920272833,
				"y": -2.0593303956,
				"z": 1.7650478825,
				"element": "N" 
			},
			{
				"x": 0.9567726855,
				"y": -2.6467607587,
				"z": 0.6255683452,
				"element": "N" 
			},
			{
				"x": -2.1341935325,
				"y": 4.0936014458,
				"z": -7.0005200571,
				"element": "H" 
			},
			{
				"x": -0.8116469663,
				"y": 2.9531530436,
				"z": -7.2734872735,
				"element": "H" 
			},
			{
				"x": -0.9148469205,
				"y": 4.4256564026,
				"z": -8.2374107957,
				"element": "H" 
			},
			{
				"x": -0.4510150415,
				"y": 5.8459815164,
				"z": -6.269963268,
				"element": "H" 
			},
			{
				"x": 0.8431862913,
				"y": 4.6804227936,
				"z": -6.4544411493,
				"element": "H" 
			},
			{
				"x": 0.1025170606,
				"y": 5.0060031316,
				"z": -4.0695942989,
				"element": "H" 
			},
			{
				"x": -1.5027266959,
				"y": 4.4171530634,
				"z": -4.4823155451,
				"element": "H" 
			},
			{
				"x": 1.0867768426,
				"y": 2.7934901722,
				"z": -4.7142521926,
				"element": "H" 
			},
			{
				"x": -0.5460946249,
				"y": 2.1780950207,
				"z": -5.047969655,
				"element": "H" 
			},
			{
				"x": -0.5017498648,
				"y": 2.105028341,
				"z": -0.6244875066,
				"element": "H" 
			},
			{
				"x": 0.0373245827,
				"y": -0.0423777174,
				"z": 0.49842949,
				"element": "H" 
			},
			{
				"x": 1.4279521149,
				"y": -1.6313500791,
				"z": -3.2405576018,
				"element": "H" 
			},
			{
				"x": 0.8957952845,
				"y": 0.4989477667,
				"z": -4.360619736,
				"element": "H" 
			},
			{
				"x": 0.3336950037,
				"y": -3.4506883782,
				"z": 4.8221820618,
				"element": "H" 
			},
			{
				"x": -0.4610782384,
				"y": -0.6828872295,
				"z": 3.7657301093,
				"element": "H" 
			},
			{
				"x": -1.369724351,
				"y": 0.8799020434,
				"z": 5.2365131001,
				"element": "H" 
			},
			{
				"x": -2.1282106105,
				"y": 1.6012402144,
				"z": 7.4779976783,
				"element": "H" 
			},
			{
				"x": -1.9637760967,
				"y": 0.0401466636,
				"z": 9.408601621,
				"element": "H" 
			},
			{
				"x": -1.0354988777,
				"y": -2.2417972004,
				"z": 9.0731476341,
				"element": "H" 
			},
			{
				"x": -0.2805071302,
				"y": -2.9636105425,
				"z": 6.8493530218,
				"element": "H" 
			}
		],
		 "valence_orbital": [ 
			{
				"type": "occ",
				"energy": -0.25605,
				"method": "rhf"
			},
			{
				"type": "occ",
				"energy": -0.25157,
				"method": "rhf"
			},
			{
				"type": "occ",
				"energy": -0.2511,
				"method": "rhf"
			},
			{
				"type": "occ",
				"energy": -0.23229,
				"method": "rhf"
			},
			{
				"type": "occ",
				"energy": -0.20226,
				"method": "rhf"
			},
			{
				"type": "unocc",
				"energy": -0.0866,
				"method": "rhf"
			},
			{
				"type": "unocc",
				"energy": -0.02298,
				"method": "rhf"
			},
			{
				"type": "unocc",
				"energy": -0.01776,
				"method": "rhf"
			},
			{
				"type": "unocc",
				"energy": -0.01329,
				"method": "rhf"
			},
			{
				"type": "unocc",
				"energy": -0.00335,
				"method": "rhf"
			}
		],
		"cosmo_sigma_profile": { 
			"-0.025": 0.0,
			"-0.024": 0.0,
			"-0.023": 0.0,
			"-0.022": 0.0,
			"-0.021": 0.0,
			"-0.02": 0.0,
			"-0.019": 0.0,
			"-0.018": 0.0,
			"-0.017": 0.0,
			"-0.016": 0.0,
			"-0.015": 0.0,
			"-0.014": 0.0,
			"-0.013": 0.0,
			"-0.012": 0.0,
			"-0.011": 0.0,
			"-0.01": 0.947724941636,
			"-0.009": 3.22968058709,
			"-0.008": 3.50002722754,
			"-0.007": 6.23888242054,
			"-0.006": 17.6609345311,
			"-0.005": 25.0978469582,
			"-0.004": 31.8839045226,
			"-0.003": 38.3041024881,
			"-0.002": 42.2978374109,
			"-0.001": 43.4715106588,
			"0.0": 42.4644139553,
			"0.001": 38.6426472422,
			"0.002": 35.0940754131,
			"0.003": 27.8424238729,
			"0.004": 30.3440194828,
			"0.005": 13.3983363903,
			"0.006": 3.68344504746,
			"0.007": 3.28590661289,
			"0.008": 3.14314801522,
			"0.009": 3.42272870335,
			"0.01": 2.65759898693,
			"0.011": 3.03345253852,
			"0.012": 2.67543831983,
			"0.013": 3.71262753346,
			"0.014": 2.66951687208,
			"0.015": 2.35751258292,
			"0.016": 0.903075303317,
			"0.017": 0.0,
			"0.018": 0.0,
			"0.019": 0.0,
			"0.02": 0.0,
			"0.021": 0.0,
			"0.022": 0.0,
			"0.023": 0.0,
			"0.024": 0.0,
			"0.025": 0.0
		}
	}
}
