{
	 "smiles": "NC1=CC2=C(OC(=O)N2)C=C1", 
	 "Tm": 478.15, 
	 "num_atms": 17, 
	 "gaussian": { 
		 "optdone": 1, 
		 "sigma_profile": "yes", 
		 "theory": "DFT", 
		 "functional": "B3LYP", 
		 "basiset": "6-31G**", 
		 "properties": { 
			 "R2extent": 1809.4208, 
			 "electric_dipole_moment_norm": 5.75284112591, 
			 "electric_quadrupole_moment_norm": 14.1402660336, 
			 "total_energy": -530.329949756, 
			 "HOMO_LUMO_gap": 0.18926, 
			 "cosmo_polarized_energy": -16.88, 
			 "cosmo_cavitation_energy": 21.64, 
			 "cosmo_dispersion_energy": -16.66, 
			 "cosmo_repulsion_energy": 1.34, 
			 "cosmo_total_nonelectrostatic_energy": 6.31, 
			 "SMD_solvation_energy": 4.89 
		},
		"coords": [
			{
				"x": -1.5929272212,
				"y": -0.0315358446,
				"z": -3.4302373953,
				"element": "N" 
			},
			{
				"x": -0.9403136523,
				"y": 0.0264961185,
				"z": -2.1937419328,
				"element": "C" 
			},
			{
				"x": -1.6672546593,
				"y": -0.2090112321,
				"z": -1.0074218941,
				"element": "C" 
			},
			{
				"x": -0.9627939725,
				"y": -0.2019212392,
				"z": 0.1869101953,
				"element": "C" 
			},
			{
				"x": 0.4148039145,
				"y": 0.0291274203,
				"z": 0.2268485226,
				"element": "C" 
			},
			{
				"x": 0.8575789569,
				"y": -0.0155999102,
				"z": 1.5376352781,
				"element": "O" 
			},
			{
				"x": -0.2339871796,
				"y": -0.2778862286,
				"z": 2.3518337278,
				"element": "C" 
			},
			{
				"x": -0.1820590872,
				"y": -0.3809159314,
				"z": 3.5505420537,
				"element": "O" 
			},
			{
				"x": -1.3351556453,
				"y": -0.3867692418,
				"z": 1.5145272321,
				"element": "N" 
			},
			{
				"x": 1.1444208715,
				"y": 0.2613929347,
				"z": -0.921316753,
				"element": "C" 
			},
			{
				"x": 0.4477311917,
				"y": 0.2583433749,
				"z": -2.1360295585,
				"element": "C" 
			},
			{
				"x": -2.579238202,
				"y": 0.1884835961,
				"z": -3.4032572396,
				"element": "H" 
			},
			{
				"x": -1.1255076988,
				"y": 0.4629682277,
				"z": -4.1777957965,
				"element": "H" 
			},
			{
				"x": -2.7361882001,
				"y": -0.3966204845,
				"z": -1.0385268286,
				"element": "H" 
			},
			{
				"x": -2.2532017005,
				"y": -0.5847244313,
				"z": 1.8780022353,
				"element": "H" 
			},
			{
				"x": 2.2127924208,
				"y": 0.4418082512,
				"z": -0.8836812946,
				"element": "H" 
			},
			{
				"x": 0.9914998632,
				"y": 0.4330646203,
				"z": -3.0598905519,
				"element": "H" 
			}
		],
		 "valence_orbital": [ 
			{
				"type": "occ",
				"energy": -0.34294,
				"method": "rhf"
			},
			{
				"type": "occ",
				"energy": -0.28724,
				"method": "rhf"
			},
			{
				"type": "occ",
				"energy": -0.28407,
				"method": "rhf"
			},
			{
				"type": "occ",
				"energy": -0.23954,
				"method": "rhf"
			},
			{
				"type": "occ",
				"energy": -0.19993,
				"method": "rhf"
			},
			{
				"type": "unocc",
				"energy": -0.01067,
				"method": "rhf"
			},
			{
				"type": "unocc",
				"energy": 0.01763,
				"method": "rhf"
			},
			{
				"type": "unocc",
				"energy": 0.0543,
				"method": "rhf"
			},
			{
				"type": "unocc",
				"energy": 0.07074,
				"method": "rhf"
			},
			{
				"type": "unocc",
				"energy": 0.0781,
				"method": "rhf"
			}
		],
		"cosmo_sigma_profile": { 
			"-0.025": 0.0,
			"-0.024": 0.0,
			"-0.023": 0.0,
			"-0.022": 0.0,
			"-0.021": 0.0,
			"-0.02": 0.0,
			"-0.019": 0.0,
			"-0.018": 0.0,
			"-0.017": 0.871512978184,
			"-0.016": 1.68885452752,
			"-0.015": 1.01516329066,
			"-0.014": 1.32083500011,
			"-0.013": 1.39565815891,
			"-0.012": 3.24666504029,
			"-0.011": 4.62292756374,
			"-0.01": 3.76092479417,
			"-0.009": 4.37098468573,
			"-0.008": 4.21114206282,
			"-0.007": 7.39605803221,
			"-0.006": 7.43816533281,
			"-0.005": 6.23356018545,
			"-0.004": 8.12461943205,
			"-0.003": 8.25436130744,
			"-0.002": 8.28057487018,
			"-0.001": 7.29616787508,
			"0.0": 9.34254118979,
			"0.001": 8.37304404911,
			"0.002": 8.99942323282,
			"0.003": 9.82247157169,
			"0.004": 10.2905231265,
			"0.005": 9.97652474957,
			"0.006": 6.49568800721,
			"0.007": 3.21793196567,
			"0.008": 4.59749783653,
			"0.009": 3.68577101424,
			"0.01": 3.31738467381,
			"0.011": 3.64253767194,
			"0.012": 7.72488553282,
			"0.013": 2.94590676111,
			"0.014": 0.98124332668,
			"0.015": 0.123722823136,
			"0.016": 0.0,
			"0.017": 0.0,
			"0.018": 0.0,
			"0.019": 0.0,
			"0.02": 0.0,
			"0.021": 0.0,
			"0.022": 0.0,
			"0.023": 0.0,
			"0.024": 0.0,
			"0.025": 0.0
		}
	}
}
