{
	 "smiles": "NC1=CC=C(C=C1)S(=O)(=O)NC1CC1", 
	 "Tm": 419.15, 
	 "num_atms": 26, 
	 "gaussian": { 
		 "optdone": 1, 
		 "sigma_profile": "yes", 
		 "theory": "DFT", 
		 "functional": "B3LYP", 
		 "basiset": "6-31G**", 
		 "properties": { 
			 "R2extent": 3654.368, 
			 "electric_dipole_moment_norm": 7.78920516741, 
			 "electric_quadrupole_moment_norm": 6.91164798655, 
			 "total_energy": -1008.23042491, 
			 "HOMO_LUMO_gap": 0.20205, 
			 "cosmo_polarized_energy": -20.96, 
			 "cosmo_cavitation_energy": 30.83, 
			 "cosmo_dispersion_energy": -22.49, 
			 "cosmo_repulsion_energy": 1.74, 
			 "cosmo_total_nonelectrostatic_energy": 10.08, 
			 "SMD_solvation_energy": 3.67 
		},
		"coords": [
			{
				"x": 0.2855915255,
				"y": 1.152929791,
				"z": 3.8228029348,
				"element": "N" 
			},
			{
				"x": 0.1183859563,
				"y": 0.7774551088,
				"z": 2.5013675129,
				"element": "C" 
			},
			{
				"x": 0.8586096314,
				"y": -0.2922759738,
				"z": 1.9595078555,
				"element": "C" 
			},
			{
				"x": 0.6521063572,
				"y": -0.7038989557,
				"z": 0.649093279,
				"element": "C" 
			},
			{
				"x": -0.2949932076,
				"y": -0.0505272555,
				"z": -0.1466561362,
				"element": "C" 
			},
			{
				"x": -1.0431136787,
				"y": 1.0089386359,
				"z": 0.3785545755,
				"element": "C" 
			},
			{
				"x": -0.838642216,
				"y": 1.4190811548,
				"z": 1.6888529995,
				"element": "C" 
			},
			{
				"x": -0.5412925264,
				"y": -0.555239918,
				"z": -1.8421950056,
				"element": "S" 
			},
			{
				"x": -1.8738672918,
				"y": -0.1068271244,
				"z": -2.257471604,
				"element": "O" 
			},
			{
				"x": -0.1134391565,
				"y": -1.9508436356,
				"z": -1.9494975269,
				"element": "O" 
			},
			{
				"x": 0.5162398313,
				"y": 0.3591919013,
				"z": -2.8011776544,
				"element": "N" 
			},
			{
				"x": 1.9305710252,
				"y": 0.3484034789,
				"z": -2.5218712847,
				"element": "C" 
			},
			{
				"x": 2.7219609746,
				"y": -0.8496062259,
				"z": -2.9801002662,
				"element": "C" 
			},
			{
				"x": 2.8521135968,
				"y": 0.4566816191,
				"z": -3.7151503344,
				"element": "C" 
			},
			{
				"x": -0.0335153855,
				"y": 2.0745599799,
				"z": 4.0815203977,
				"element": "H" 
			},
			{
				"x": 1.1478399596,
				"y": 0.8812996333,
				"z": 4.2710314912,
				"element": "H" 
			},
			{
				"x": 1.5861637793,
				"y": -0.8083343737,
				"z": 2.580550433,
				"element": "H" 
			},
			{
				"x": 1.2052570157,
				"y": -1.5433332523,
				"z": 0.2420084627,
				"element": "H" 
			},
			{
				"x": -1.7966387274,
				"y": 1.4896464372,
				"z": -0.2365177613,
				"element": "H" 
			},
			{
				"x": -1.4310246796,
				"y": 2.2321172871,
				"z": 2.1004176332,
				"element": "H" 
			},
			{
				"x": 0.1155279673,
				"y": 1.2816963904,
				"z": -2.9494066841,
				"element": "H" 
			},
			{
				"x": 2.2503714159,
				"y": 0.8361852692,
				"z": -1.5999317286,
				"element": "H" 
			},
			{
				"x": 3.5426016619,
				"y": -1.1760419297,
				"z": -2.349118932,
				"element": "H" 
			},
			{
				"x": 2.1585608161,
				"y": -1.6471931087,
				"z": -3.4490586007,
				"element": "H" 
			},
			{
				"x": 2.3814669333,
				"y": 0.533803319,
				"z": -4.6896892428,
				"element": "H" 
			},
			{
				"x": 3.7599584219,
				"y": 1.0399317475,
				"z": -3.5958648131,
				"element": "H" 
			}
		],
		 "valence_orbital": [ 
			{
				"type": "occ",
				"energy": -0.28974,
				"method": "rhf"
			},
			{
				"type": "occ",
				"energy": -0.28171,
				"method": "rhf"
			},
			{
				"type": "occ",
				"energy": -0.2678,
				"method": "rhf"
			},
			{
				"type": "occ",
				"energy": -0.2643,
				"method": "rhf"
			},
			{
				"type": "occ",
				"energy": -0.22077,
				"method": "rhf"
			},
			{
				"type": "unocc",
				"energy": -0.01872,
				"method": "rhf"
			},
			{
				"type": "unocc",
				"energy": -0.01594,
				"method": "rhf"
			},
			{
				"type": "unocc",
				"energy": 0.06009,
				"method": "rhf"
			},
			{
				"type": "unocc",
				"energy": 0.07475,
				"method": "rhf"
			},
			{
				"type": "unocc",
				"energy": 0.09358,
				"method": "rhf"
			}
		],
		"cosmo_sigma_profile": { 
			"-0.025": 0.0,
			"-0.024": 0.0,
			"-0.023": 0.0,
			"-0.022": 0.0,
			"-0.021": 0.0,
			"-0.02": 0.0,
			"-0.019": 0.0,
			"-0.018": 0.0,
			"-0.017": 0.0,
			"-0.016": 0.0,
			"-0.015": 0.140845553235,
			"-0.014": 1.02465529611,
			"-0.013": 3.61605014096,
			"-0.012": 3.8538203428,
			"-0.011": 3.98772304607,
			"-0.01": 4.54779740715,
			"-0.009": 4.10554713467,
			"-0.008": 3.89407359251,
			"-0.007": 5.92164465076,
			"-0.006": 10.1671742106,
			"-0.005": 15.9760522279,
			"-0.004": 17.3039765783,
			"-0.003": 14.6813856228,
			"-0.002": 13.2590408216,
			"-0.001": 15.1988792641,
			"0.0": 16.3668131443,
			"0.001": 13.0635267991,
			"0.002": 13.7185344019,
			"0.003": 13.5726426439,
			"0.004": 17.9930196948,
			"0.005": 7.79816395214,
			"0.006": 5.62888819209,
			"0.007": 4.70383846746,
			"0.008": 5.05415228362,
			"0.009": 5.28195734688,
			"0.01": 6.13990299942,
			"0.011": 8.81569327453,
			"0.012": 7.50965685316,
			"0.013": 0.673361712156,
			"0.014": 0.0,
			"0.015": 0.0,
			"0.016": 0.0,
			"0.017": 0.0,
			"0.018": 0.0,
			"0.019": 0.0,
			"0.02": 0.0,
			"0.021": 0.0,
			"0.022": 0.0,
			"0.023": 0.0,
			"0.024": 0.0,
			"0.025": 0.0
		}
	}
}
