{
	 "smiles": "CC(C)(C)C1=CC=C(C=C1)[C@H]1CC[C@@]2(CC3=CC=C(C=C3C2)C(=O)NC2=CC=CC=C2OCCCC(O)=O)CC1", 
	 "Tm": 423.15, 
	 "num_atms": 81, 
	 "gaussian": { 
		 "optdone": 1, 
		 "sigma_profile": "yes", 
		 "theory": "DFT", 
		 "functional": "B3LYP", 
		 "basiset": "6-31G**", 
		 "properties": { 
			 "R2extent": 31243.595, 
			 "electric_dipole_moment_norm": 5.52845431653, 
			 "electric_quadrupole_moment_norm": 37.3503875197, 
			 "total_energy": -1714.14750233, 
			 "HOMO_LUMO_gap": 0.19135, 
			 "cosmo_polarized_energy": -22.26, 
			 "cosmo_cavitation_energy": 76.52, 
			 "cosmo_dispersion_energy": -48.07, 
			 "cosmo_repulsion_energy": 3.49, 
			 "cosmo_total_nonelectrostatic_energy": 31.93, 
			 "SMD_solvation_energy": 12.19 
		},
		"coords": [
			{
				"x": 4.7329180347,
				"y": -4.0580711147,
				"z": -4.6340832011,
				"element": "C" 
			},
			{
				"x": 4.3972055455,
				"y": -4.6656079122,
				"z": -3.2588913042,
				"element": "C" 
			},
			{
				"x": 5.7054837629,
				"y": -5.2164840807,
				"z": -2.6429500166,
				"element": "C" 
			},
			{
				"x": 3.4038816717,
				"y": -5.8319829433,
				"z": -3.4766092425,
				"element": "C" 
			},
			{
				"x": 3.7745673657,
				"y": -3.6337875387,
				"z": -2.3010333486,
				"element": "C" 
			},
			{
				"x": 3.5505027279,
				"y": -2.2977364159,
				"z": -2.6546043749,
				"element": "C" 
			},
			{
				"x": 2.9825589224,
				"y": -1.3891518685,
				"z": -1.7535435994,
				"element": "C" 
			},
			{
				"x": 2.6111112725,
				"y": -1.7760294123,
				"z": -0.4592651018,
				"element": "C" 
			},
			{
				"x": 2.838512083,
				"y": -3.1132212825,
				"z": -0.1006840889,
				"element": "C" 
			},
			{
				"x": 3.4044476403,
				"y": -4.0142243807,
				"z": -0.9983851929,
				"element": "C" 
			},
			{
				"x": 1.9617935055,
				"y": -0.7798069115,
				"z": 0.4842893013,
				"element": "C" 
			},
			{
				"x": 0.5297711021,
				"y": -1.1855223901,
				"z": 0.8875981779,
				"element": "C" 
			},
			{
				"x": -0.2024858013,
				"y": -0.0299988586,
				"z": 1.6058786405,
				"element": "C" 
			},
			{
				"x": 0.7241811331,
				"y": 0.8552269409,
				"z": 2.5020943171,
				"element": "C" 
			},
			{
				"x": -0.1000034423,
				"y": 1.4297644624,
				"z": 3.6972930493,
				"element": "C" 
			},
			{
				"x": -0.7511843476,
				"y": 2.6664110146,
				"z": 3.1162080771,
				"element": "C" 
			},
			{
				"x": -1.8882845145,
				"y": 3.3619944107,
				"z": 3.518673534,
				"element": "C" 
			},
			{
				"x": -2.307918596,
				"y": 4.4746524575,
				"z": 2.7795752041,
				"element": "C" 
			},
			{
				"x": -1.5804204551,
				"y": 4.9036580184,
				"z": 1.6604178076,
				"element": "C" 
			},
			{
				"x": -0.4088873618,
				"y": 4.2231335784,
				"z": 1.2878881523,
				"element": "C" 
			},
			{
				"x": -0.0179195772,
				"y": 3.0976995771,
				"z": 1.9993418584,
				"element": "C" 
			},
			{
				"x": 1.1414780739,
				"y": 2.1622626727,
				"z": 1.7466436033,
				"element": "C" 
			},
			{
				"x": -1.9386209717,
				"y": 6.1135750168,
				"z": 0.8525957319,
				"element": "C" 
			},
			{
				"x": -1.0722585976,
				"y": 6.822333977,
				"z": 0.3517128072,
				"element": "O" 
			},
			{
				"x": -3.2714239284,
				"y": 6.471997103,
				"z": 0.7211136707,
				"element": "N" 
			},
			{
				"x": -4.444332221,
				"y": 5.668433628,
				"z": 0.7808530501,
				"element": "C" 
			},
			{
				"x": -5.5505010405,
				"y": 6.1406275875,
				"z": 1.4899629761,
				"element": "C" 
			},
			{
				"x": -6.7513888553,
				"y": 5.429342443,
				"z": 1.5214377163,
				"element": "C" 
			},
			{
				"x": -6.8415993317,
				"y": 4.2184595787,
				"z": 0.8403291567,
				"element": "C" 
			},
			{
				"x": -5.7493488534,
				"y": 3.7274464536,
				"z": 0.1204618154,
				"element": "C" 
			},
			{
				"x": -4.5505229303,
				"y": 4.448427354,
				"z": 0.0699910753,
				"element": "C" 
			},
			{
				"x": -3.4550031926,
				"y": 4.0599501104,
				"z": -0.6380073272,
				"element": "O" 
			},
			{
				"x": -3.4269343496,
				"y": 2.7468543873,
				"z": -1.1969843128,
				"element": "C" 
			},
			{
				"x": -2.0042501532,
				"y": 2.4742192385,
				"z": -1.6690902223,
				"element": "C" 
			},
			{
				"x": -1.847330481,
				"y": 1.0454094393,
				"z": -2.196641216,
				"element": "C" 
			},
			{
				"x": -0.3996323364,
				"y": 0.6074084584,
				"z": -2.3015624861,
				"element": "C" 
			},
			{
				"x": -0.3034507803,
				"y": -0.6796636041,
				"z": -2.6998742158,
				"element": "O" 
			},
			{
				"x": 0.5673139555,
				"y": 1.2938903856,
				"z": -2.0407221989,
				"element": "O" 
			},
			{
				"x": 1.9303180344,
				"y": 0.0123187581,
				"z": 2.9487610924,
				"element": "C" 
			},
			{
				"x": 2.7935048021,
				"y": -0.49830908,
				"z": 1.7672358576,
				"element": "C" 
			},
			{
				"x": 3.8406180208,
				"y": -3.6731692516,
				"z": -5.1388963153,
				"element": "H" 
			},
			{
				"x": 5.1707168861,
				"y": -4.826267551,
				"z": -5.2797362362,
				"element": "H" 
			},
			{
				"x": 5.4591914033,
				"y": -3.2426172777,
				"z": -4.5534630487,
				"element": "H" 
			},
			{
				"x": 6.158770725,
				"y": -5.9584893523,
				"z": -3.310099981,
				"element": "H" 
			},
			{
				"x": 6.4321847349,
				"y": -4.4129472241,
				"z": -2.4845135543,
				"element": "H" 
			},
			{
				"x": 5.5287712074,
				"y": -5.7010801498,
				"z": -1.678105505,
				"element": "H" 
			},
			{
				"x": 3.8353121637,
				"y": -6.5801300474,
				"z": -4.1513280287,
				"element": "H" 
			},
			{
				"x": 2.4695384888,
				"y": -5.4730112396,
				"z": -3.9207549299,
				"element": "H" 
			},
			{
				"x": 3.1548363024,
				"y": -6.3355989383,
				"z": -2.5378030527,
				"element": "H" 
			},
			{
				"x": 3.8252222573,
				"y": -1.9398739338,
				"z": -3.64072654,
				"element": "H" 
			},
			{
				"x": 2.8417641405,
				"y": -0.3531749141,
				"z": -2.0565144223,
				"element": "H" 
			},
			{
				"x": 2.5685864082,
				"y": -3.4595815989,
				"z": 0.8939403678,
				"element": "H" 
			},
			{
				"x": 3.5593829138,
				"y": -5.0393512639,
				"z": -0.6733424607,
				"element": "H" 
			},
			{
				"x": 1.8777204048,
				"y": 0.1556057624,
				"z": -0.0765847081,
				"element": "H" 
			},
			{
				"x": -0.039339414,
				"y": -1.4956494248,
				"z": 0.0046007241,
				"element": "H" 
			},
			{
				"x": 0.5770249033,
				"y": -2.0655003176,
				"z": 1.5425025166,
				"element": "H" 
			},
			{
				"x": -1.0048519331,
				"y": -0.4559601926,
				"z": 2.2200766904,
				"element": "H" 
			},
			{
				"x": -0.69660699,
				"y": 0.6092562225,
				"z": 0.8657217642,
				"element": "H" 
			},
			{
				"x": -0.8116391577,
				"y": 0.7063410117,
				"z": 4.1100097144,
				"element": "H" 
			},
			{
				"x": 0.5755964775,
				"y": 1.7153071896,
				"z": 4.5182363719,
				"element": "H" 
			},
			{
				"x": -2.4582191222,
				"y": 3.0439986645,
				"z": 4.3880558219,
				"element": "H" 
			},
			{
				"x": -3.2005947756,
				"y": 5.0110488151,
				"z": 3.0820177258,
				"element": "H" 
			},
			{
				"x": 0.1556541663,
				"y": 4.5859497559,
				"z": 0.4347434543,
				"element": "H" 
			},
			{
				"x": 1.331039607,
				"y": 2.0129553856,
				"z": 0.6807076333,
				"element": "H" 
			},
			{
				"x": 2.0643952116,
				"y": 2.5703994319,
				"z": 2.1851244851,
				"element": "H" 
			},
			{
				"x": -3.3555034661,
				"y": 7.3473755188,
				"z": 0.2163564908,
				"element": "H" 
			},
			{
				"x": -5.4490106657,
				"y": 7.0804955651,
				"z": 2.0250670163,
				"element": "H" 
			},
			{
				"x": -7.5987269975,
				"y": 5.8155988876,
				"z": 2.0788321444,
				"element": "H" 
			},
			{
				"x": -7.7644644988,
				"y": 3.6461300446,
				"z": 0.8585954767,
				"element": "H" 
			},
			{
				"x": -5.8457134712,
				"y": 2.7938359386,
				"z": -0.4206046695,
				"element": "H" 
			},
			{
				"x": -3.717851363,
				"y": 2.0138415038,
				"z": -0.4312638413,
				"element": "H" 
			},
			{
				"x": -4.1488243769,
				"y": 2.6736808095,
				"z": -2.0241347742,
				"element": "H" 
			},
			{
				"x": -1.7200983511,
				"y": 3.2012097606,
				"z": -2.4363316389,
				"element": "H" 
			},
			{
				"x": -1.3263087573,
				"y": 2.6307719813,
				"z": -0.8267685471,
				"element": "H" 
			},
			{
				"x": -2.3156919591,
				"y": 0.9111973733,
				"z": -3.1796209784,
				"element": "H" 
			},
			{
				"x": -2.3440565352,
				"y": 0.3217184534,
				"z": -1.5366897603,
				"element": "H" 
			},
			{
				"x": 0.6405124576,
				"y": -0.9255430923,
				"z": -2.6781674981,
				"element": "H" 
			},
			{
				"x": 2.5564401769,
				"y": 0.5902670551,
				"z": 3.6395522112,
				"element": "H" 
			},
			{
				"x": 1.5562021027,
				"y": -0.8444484341,
				"z": 3.5251278295,
				"element": "H" 
			},
			{
				"x": 3.3141752061,
				"y": -1.4114127435,
				"z": 2.078194634,
				"element": "H" 
			},
			{
				"x": 3.5771979546,
				"y": 0.2291225581,
				"z": 1.5273621954,
				"element": "H" 
			}
		],
		 "valence_orbital": [ 
			{
				"type": "occ",
				"energy": -0.24175,
				"method": "rhf"
			},
			{
				"type": "occ",
				"energy": -0.23596,
				"method": "rhf"
			},
			{
				"type": "occ",
				"energy": -0.23252,
				"method": "rhf"
			},
			{
				"type": "occ",
				"energy": -0.2272,
				"method": "rhf"
			},
			{
				"type": "occ",
				"energy": -0.21678,
				"method": "rhf"
			},
			{
				"type": "unocc",
				"energy": -0.02543,
				"method": "rhf"
			},
			{
				"type": "unocc",
				"energy": -0.00679,
				"method": "rhf"
			},
			{
				"type": "unocc",
				"energy": -0.00644,
				"method": "rhf"
			},
			{
				"type": "unocc",
				"energy": -4e-05,
				"method": "rhf"
			},
			{
				"type": "unocc",
				"energy": 0.00138,
				"method": "rhf"
			}
		],
		"cosmo_sigma_profile": { 
			"-0.025": 0.0,
			"-0.024": 0.0,
			"-0.023": 0.0,
			"-0.022": 0.0,
			"-0.021": 0.0,
			"-0.02": 0.0,
			"-0.019": 0.0,
			"-0.018": 0.0,
			"-0.017": 0.0,
			"-0.016": 0.0,
			"-0.015": 0.0,
			"-0.014": 0.257551327404,
			"-0.013": 1.1612797933,
			"-0.012": 0.710427011967,
			"-0.011": 0.700345469919,
			"-0.01": 1.29828155128,
			"-0.009": 2.03165929119,
			"-0.008": 1.85387523481,
			"-0.007": 3.88131037815,
			"-0.006": 18.0599569973,
			"-0.005": 32.5058316779,
			"-0.004": 42.7190804415,
			"-0.003": 60.4314170206,
			"-0.002": 71.985007249,
			"-0.001": 67.5334745801,
			"0.0": 60.952300944,
			"0.001": 56.6735455066,
			"0.002": 40.3852169757,
			"0.003": 27.5905269457,
			"0.004": 27.8599576821,
			"0.005": 27.7377688471,
			"0.006": 15.6297705609,
			"0.007": 7.80712300287,
			"0.008": 4.39220386899,
			"0.009": 4.92924362088,
			"0.01": 4.16459470051,
			"0.011": 3.6575775629,
			"0.012": 3.02658872248,
			"0.013": 4.72994081123,
			"0.014": 4.00269800428,
			"0.015": 0.291805825257,
			"0.016": 0.0,
			"0.017": 0.0,
			"0.018": 0.0,
			"0.019": 0.0,
			"0.02": 0.0,
			"0.021": 0.0,
			"0.022": 0.0,
			"0.023": 0.0,
			"0.024": 0.0,
			"0.025": 0.0
		}
	}
}
