{
	 "smiles": "O=C1CCC(=O)N1CN1C(=S)SC(=CC2=CC=CO2)C1=O", 
	 "Tm": 439.15, 
	 "num_atms": 31, 
	 "gaussian": { 
		 "optdone": 1, 
		 "sigma_profile": "yes", 
		 "theory": "DFT", 
		 "functional": "B3LYP", 
		 "basiset": "6-31G**", 
		 "properties": { 
			 "R2extent": 8484.2588, 
			 "electric_dipole_moment_norm": 4.82063229566, 
			 "electric_quadrupole_moment_norm": 34.8478069646, 
			 "total_energy": -1708.18518224, 
			 "HOMO_LUMO_gap": 0.12254, 
			 "cosmo_polarized_energy": -23.02, 
			 "cosmo_cavitation_energy": 39.85, 
			 "cosmo_dispersion_energy": -28.44, 
			 "cosmo_repulsion_energy": 2.08, 
			 "cosmo_total_nonelectrostatic_energy": 13.49, 
			 "SMD_solvation_energy": 8.14 
		},
		"coords": [
			{
				"x": -0.4374150146,
				"y": 1.0469610177,
				"z": -1.0321035311,
				"element": "O" 
			},
			{
				"x": 0.1795843914,
				"y": 0.446097243,
				"z": -1.8854187342,
				"element": "C" 
			},
			{
				"x": 0.6532668417,
				"y": 0.9767717622,
				"z": -3.2359153106,
				"element": "C" 
			},
			{
				"x": 1.4008168772,
				"y": -0.1919254075,
				"z": -3.8957843242,
				"element": "C" 
			},
			{
				"x": 1.2647831438,
				"y": -1.3576792596,
				"z": -2.9233091425,
				"element": "C" 
			},
			{
				"x": 1.6407753226,
				"y": -2.4983951412,
				"z": -3.0727222802,
				"element": "O" 
			},
			{
				"x": 0.5894670115,
				"y": -0.8859900937,
				"z": -1.7874444199,
				"element": "N" 
			},
			{
				"x": 0.3478726655,
				"y": -1.7445385101,
				"z": -0.6379311526,
				"element": "C" 
			},
			{
				"x": 0.7175002047,
				"y": -1.1165086034,
				"z": 0.6235764146,
				"element": "N" 
			},
			{
				"x": 2.0155423952,
				"y": -0.8387746333,
				"z": 0.973405092,
				"element": "C" 
			},
			{
				"x": 3.3818112647,
				"y": -1.1873047508,
				"z": 0.1172966557,
				"element": "S" 
			},
			{
				"x": 2.0414043319,
				"y": -0.0236539944,
				"z": 2.5411114016,
				"element": "S" 
			},
			{
				"x": 0.2733892072,
				"y": -0.0880166767,
				"z": 2.7130800547,
				"element": "C" 
			},
			{
				"x": -0.3400010063,
				"y": 0.4387420102,
				"z": 3.8085949133,
				"element": "C" 
			},
			{
				"x": -1.7023007287,
				"y": 0.5494214403,
				"z": 4.221191302,
				"element": "C" 
			},
			{
				"x": -2.1891299218,
				"y": 1.1234691449,
				"z": 5.3836579453,
				"element": "C" 
			},
			{
				"x": -3.6015224818,
				"y": 0.9996830777,
				"z": 5.3441081213,
				"element": "C" 
			},
			{
				"x": -3.8840268591,
				"y": 0.3618614906,
				"z": 4.1660528931,
				"element": "C" 
			},
			{
				"x": -2.7534543124,
				"y": 0.0841273417,
				"z": 3.480458058,
				"element": "O" 
			},
			{
				"x": -0.3176508745,
				"y": -0.7659182307,
				"z": 1.5407279806,
				"element": "C" 
			},
			{
				"x": -1.4807652198,
				"y": -1.0457277048,
				"z": 1.339033203,
				"element": "O" 
			},
			{
				"x": -0.2207936857,
				"y": 1.3095150637,
				"z": -3.8032490507,
				"element": "H" 
			},
			{
				"x": 1.2785877458,
				"y": 1.857043908,
				"z": -3.0647131019,
				"element": "H" 
			},
			{
				"x": 2.4668953502,
				"y": 0.0061594799,
				"z": -4.0404982988,
				"element": "H" 
			},
			{
				"x": 0.9934718417,
				"y": -0.4882275994,
				"z": -4.865899594,
				"element": "H" 
			},
			{
				"x": -0.7137599558,
				"y": -1.9797101263,
				"z": -0.5453530934,
				"element": "H" 
			},
			{
				"x": 0.9362809682,
				"y": -2.6487015104,
				"z": -0.8043528062,
				"element": "H" 
			},
			{
				"x": 0.3236149909,
				"y": 0.8854822348,
				"z": 4.5471733718,
				"element": "H" 
			},
			{
				"x": -1.5907431742,
				"y": 1.5765315829,
				"z": 6.1615669784,
				"element": "H" 
			},
			{
				"x": -4.3149972006,
				"y": 1.3350888349,
				"z": 6.082337126,
				"element": "H" 
			},
			{
				"x": -4.804204119,
				"y": 0.0494166099,
				"z": 3.6964233287,
				"element": "H" 
			}
		],
		 "valence_orbital": [ 
			{
				"type": "occ",
				"energy": -0.275,
				"method": "rhf"
			},
			{
				"type": "occ",
				"energy": -0.26161,
				"method": "rhf"
			},
			{
				"type": "occ",
				"energy": -0.25682,
				"method": "rhf"
			},
			{
				"type": "occ",
				"energy": -0.22827,
				"method": "rhf"
			},
			{
				"type": "occ",
				"energy": -0.21598,
				"method": "rhf"
			},
			{
				"type": "unocc",
				"energy": -0.09344,
				"method": "rhf"
			},
			{
				"type": "unocc",
				"energy": -0.03989,
				"method": "rhf"
			},
			{
				"type": "unocc",
				"energy": -0.01975,
				"method": "rhf"
			},
			{
				"type": "unocc",
				"energy": -0.00539,
				"method": "rhf"
			},
			{
				"type": "unocc",
				"energy": 0.01358,
				"method": "rhf"
			}
		],
		"cosmo_sigma_profile": { 
			"-0.025": 0.0,
			"-0.024": 0.0,
			"-0.023": 0.0,
			"-0.022": 0.0,
			"-0.021": 0.0,
			"-0.02": 0.0,
			"-0.019": 0.0,
			"-0.018": 0.0,
			"-0.017": 0.0,
			"-0.016": 0.0,
			"-0.015": 0.0,
			"-0.014": 0.0,
			"-0.013": 0.0,
			"-0.012": 0.0,
			"-0.011": 0.48166923179,
			"-0.01": 5.29990776436,
			"-0.009": 5.94693181285,
			"-0.008": 11.4507733952,
			"-0.007": 23.1830103635,
			"-0.006": 24.3082161539,
			"-0.005": 20.7269209083,
			"-0.004": 16.5093999125,
			"-0.003": 15.9803540343,
			"-0.002": 14.8583079727,
			"-0.001": 16.6810024362,
			"0.0": 26.0796602985,
			"0.001": 23.3172407891,
			"0.002": 19.9562922647,
			"0.003": 16.1421967997,
			"0.004": 10.623252547,
			"0.005": 10.2559129975,
			"0.006": 10.3568003587,
			"0.007": 8.15415891706,
			"0.008": 8.29830854476,
			"0.009": 7.80748495318,
			"0.01": 8.80417253898,
			"0.011": 11.4855634839,
			"0.012": 7.47930989137,
			"0.013": 0.99781893705,
			"0.014": 0.0,
			"0.015": 0.0,
			"0.016": 0.0,
			"0.017": 0.0,
			"0.018": 0.0,
			"0.019": 0.0,
			"0.02": 0.0,
			"0.021": 0.0,
			"0.022": 0.0,
			"0.023": 0.0,
			"0.024": 0.0,
			"0.025": 0.0
		}
	}
}
