{
	 "smiles": "N#CC1=CC=C(OC2=CC=CC=C2)C=C1", 
	 "Tm": 319.65, 
	 "num_atms": 24, 
	 "gaussian": { 
		 "optdone": 1, 
		 "sigma_profile": "yes", 
		 "theory": "DFT", 
		 "functional": "B3LYP", 
		 "basiset": "6-31G**", 
		 "properties": { 
			 "R2extent": 4537.001, 
			 "electric_dipole_moment_norm": 5.56565848575, 
			 "electric_quadrupole_moment_norm": 27.0414619908, 
			 "total_energy": -630.75807114, 
			 "HOMO_LUMO_gap": 0.19567, 
			 "cosmo_polarized_energy": -10.54, 
			 "cosmo_cavitation_energy": 30.08, 
			 "cosmo_dispersion_energy": -21.13, 
			 "cosmo_repulsion_energy": 1.65, 
			 "cosmo_total_nonelectrostatic_energy": 10.6, 
			 "SMD_solvation_energy": 6.77 
		},
		"coords": [
			{
				"x": -5.7306555278,
				"y": -0.4321145658,
				"z": 2.6164293495,
				"element": "N" 
			},
			{
				"x": -4.8202883516,
				"y": -0.3371027798,
				"z": 1.8975391203,
				"element": "C" 
			},
			{
				"x": -3.7005812338,
				"y": -0.2197683603,
				"z": 1.012805898,
				"element": "C" 
			},
			{
				"x": -3.8491282621,
				"y": -0.4841523417,
				"z": -0.3617626789,
				"element": "C" 
			},
			{
				"x": -2.7641549322,
				"y": -0.3656287211,
				"z": -1.2173216712,
				"element": "C" 
			},
			{
				"x": -1.5134804492,
				"y": 0.017190437,
				"z": -0.7126367359,
				"element": "C" 
			},
			{
				"x": -0.4967322917,
				"y": 0.0740073821,
				"z": -1.6277858007,
				"element": "O" 
			},
			{
				"x": 0.707916598,
				"y": 0.6915928297,
				"z": -1.3085006075,
				"element": "C" 
			},
			{
				"x": 1.8598644318,
				"y": -0.0925173908,
				"z": -1.2863275836,
				"element": "C" 
			},
			{
				"x": 3.0943676753,
				"y": 0.5174350607,
				"z": -1.0550833782,
				"element": "C" 
			},
			{
				"x": 3.1709034984,
				"y": 1.8952280429,
				"z": -0.8428287266,
				"element": "C" 
			},
			{
				"x": 2.0073177972,
				"y": 2.66839391,
				"z": -0.8691836435,
				"element": "C" 
			},
			{
				"x": 0.7685952576,
				"y": 2.0719023225,
				"z": -1.106638954,
				"element": "C" 
			},
			{
				"x": -1.3501760033,
				"y": 0.2774398751,
				"z": 0.6537562072,
				"element": "C" 
			},
			{
				"x": -2.4420253506,
				"y": 0.1593987054,
				"z": 1.5076097873,
				"element": "C" 
			},
			{
				"x": -4.8186690097,
				"y": -0.7783698188,
				"z": -0.7493598603,
				"element": "H" 
			},
			{
				"x": -2.8597725659,
				"y": -0.5641174423,
				"z": -2.2792322976,
				"element": "H" 
			},
			{
				"x": 1.7766044545,
				"y": -1.1607258435,
				"z": -1.4569519152,
				"element": "H" 
			},
			{
				"x": 3.9958561418,
				"y": -0.0878139565,
				"z": -1.0396923948,
				"element": "H" 
			},
			{
				"x": 4.1324184821,
				"y": 2.3657803451,
				"z": -0.662043987,
				"element": "H" 
			},
			{
				"x": 2.0625152489,
				"y": 3.7416453329,
				"z": -0.7128067605,
				"element": "H" 
			},
			{
				"x": -0.1413254284,
				"y": 2.6621415884,
				"z": -1.1434711412,
				"element": "H" 
			},
			{
				"x": -0.3811209549,
				"y": 0.5648687221,
				"z": 1.0435743361,
				"element": "H" 
			},
			{
				"x": -2.3218492245,
				"y": 0.3575866669,
				"z": 2.5675134381,
				"element": "H" 
			}
		],
		 "valence_orbital": [ 
			{
				"type": "occ",
				"energy": -0.32303,
				"method": "rhf"
			},
			{
				"type": "occ",
				"energy": -0.27763,
				"method": "rhf"
			},
			{
				"type": "occ",
				"energy": -0.26874,
				"method": "rhf"
			},
			{
				"type": "occ",
				"energy": -0.26168,
				"method": "rhf"
			},
			{
				"type": "occ",
				"energy": -0.2377,
				"method": "rhf"
			},
			{
				"type": "unocc",
				"energy": -0.04203,
				"method": "rhf"
			},
			{
				"type": "unocc",
				"energy": -0.02872,
				"method": "rhf"
			},
			{
				"type": "unocc",
				"energy": -0.01535,
				"method": "rhf"
			},
			{
				"type": "unocc",
				"energy": -0.01351,
				"method": "rhf"
			},
			{
				"type": "unocc",
				"energy": 0.04163,
				"method": "rhf"
			}
		],
		"cosmo_sigma_profile": { 
			"-0.025": 0.0,
			"-0.024": 0.0,
			"-0.023": 0.0,
			"-0.022": 0.0,
			"-0.021": 0.0,
			"-0.02": 0.0,
			"-0.019": 0.0,
			"-0.018": 0.0,
			"-0.017": 0.0,
			"-0.016": 0.0,
			"-0.015": 0.0,
			"-0.014": 0.0,
			"-0.013": 0.0,
			"-0.012": 0.0,
			"-0.011": 0.0,
			"-0.01": 0.0,
			"-0.009": 0.0920665577617,
			"-0.008": 3.98048836945,
			"-0.007": 10.0422336982,
			"-0.006": 17.8325990442,
			"-0.005": 17.1460121757,
			"-0.004": 18.1738832802,
			"-0.003": 13.6643874717,
			"-0.002": 16.857954905,
			"-0.001": 16.991506002,
			"0.0": 19.398784704,
			"0.001": 19.6971405026,
			"0.002": 25.1207381087,
			"0.003": 16.6797542109,
			"0.004": 12.4595123407,
			"0.005": 8.09637952738,
			"0.006": 3.8820199111,
			"0.007": 4.25551931434,
			"0.008": 4.16331028913,
			"0.009": 3.69049164716,
			"0.01": 3.25529240478,
			"0.011": 3.04350296889,
			"0.012": 2.57947936472,
			"0.013": 1.99868315025,
			"0.014": 0.326474338106,
			"0.015": 0.0,
			"0.016": 0.0,
			"0.017": 0.0,
			"0.018": 0.0,
			"0.019": 0.0,
			"0.02": 0.0,
			"0.021": 0.0,
			"0.022": 0.0,
			"0.023": 0.0,
			"0.024": 0.0,
			"0.025": 0.0
		}
	}
}
