{
	 "smiles": "CC1=CC=C(C(C)=C1)S(O)(=O)=O", 
	 "Tm": 330.15, 
	 "num_atms": 22, 
	 "gaussian": { 
		 "optdone": 1, 
		 "sigma_profile": "yes", 
		 "theory": "DFT", 
		 "functional": "B3LYP", 
		 "basiset": "6-31G**", 
		 "properties": { 
			 "R2extent": 2661.9766, 
			 "electric_dipole_moment_norm": 4.54616093644, 
			 "electric_quadrupole_moment_norm": 11.3983021894, 
			 "total_energy": -934.679350873, 
			 "HOMO_LUMO_gap": 0.22211, 
			 "cosmo_polarized_energy": -13.6, 
			 "cosmo_cavitation_energy": 26.63, 
			 "cosmo_dispersion_energy": -20.18, 
			 "cosmo_repulsion_energy": 1.55, 
			 "cosmo_total_nonelectrostatic_energy": 8.01, 
			 "SMD_solvation_energy": 3.88 
		},
		"coords": [
			{
				"x": -1.9775052631,
				"y": -1.179427995,
				"z": 3.8239472122,
				"element": "C" 
			},
			{
				"x": -1.5703161209,
				"y": -0.8490982999,
				"z": 2.4084542282,
				"element": "C" 
			},
			{
				"x": -2.1998501628,
				"y": -1.4504084868,
				"z": 1.3148721084,
				"element": "C" 
			},
			{
				"x": -1.8314098344,
				"y": -1.1187711135,
				"z": 0.0123321964,
				"element": "C" 
			},
			{
				"x": -0.8216181257,
				"y": -0.1805172194,
				"z": -0.2027510943,
				"element": "C" 
			},
			{
				"x": -0.1619696272,
				"y": 0.4540244827,
				"z": 0.8707015506,
				"element": "C" 
			},
			{
				"x": 0.9309266093,
				"y": 1.476632231,
				"z": 0.6705947891,
				"element": "C" 
			},
			{
				"x": -0.5603992807,
				"y": 0.0908221515,
				"z": 2.1598058641,
				"element": "C" 
			},
			{
				"x": -0.34820185,
				"y": 0.2655621767,
				"z": -1.8722001197,
				"element": "S" 
			},
			{
				"x": -1.2801315821,
				"y": -0.7497115834,
				"z": -2.7730775087,
				"element": "O" 
			},
			{
				"x": 1.0402102336,
				"y": -0.1332061437,
				"z": -2.12196273,
				"element": "O" 
			},
			{
				"x": -0.7947292753,
				"y": 1.6220087521,
				"z": -2.158592961,
				"element": "O" 
			},
			{
				"x": -2.5214645419,
				"y": -2.1265238698,
				"z": 3.8734273668,
				"element": "H" 
			},
			{
				"x": -2.6322923932,
				"y": -0.4010300194,
				"z": 4.2344488461,
				"element": "H" 
			},
			{
				"x": -1.1074267144,
				"y": -1.2505605731,
				"z": 4.4840352114,
				"element": "H" 
			},
			{
				"x": -2.9850428286,
				"y": -2.1835102497,
				"z": 1.4767850463,
				"element": "H" 
			},
			{
				"x": -2.323865687,
				"y": -1.583249526,
				"z": -0.8326979656,
				"element": "H" 
			},
			{
				"x": 0.5731802647,
				"y": 2.3224824467,
				"z": 0.0751238601,
				"element": "H" 
			},
			{
				"x": 1.7816391281,
				"y": 1.0447947941,
				"z": 0.1346737514,
				"element": "H" 
			},
			{
				"x": 1.2816826508,
				"y": 1.8559198,
				"z": 1.6328689078,
				"element": "H" 
			},
			{
				"x": -0.0609727484,
				"y": 0.5627296693,
				"z": 3.0027950114,
				"element": "H" 
			},
			{
				"x": -0.6633428507,
				"y": -1.3864614244,
				"z": -3.1720835709,
				"element": "H" 
			}
		],
		 "valence_orbital": [ 
			{
				"type": "occ",
				"energy": -0.32627,
				"method": "rhf"
			},
			{
				"type": "occ",
				"energy": -0.31358,
				"method": "rhf"
			},
			{
				"type": "occ",
				"energy": -0.30713,
				"method": "rhf"
			},
			{
				"type": "occ",
				"energy": -0.26446,
				"method": "rhf"
			},
			{
				"type": "occ",
				"energy": -0.25663,
				"method": "rhf"
			},
			{
				"type": "unocc",
				"energy": -0.03452,
				"method": "rhf"
			},
			{
				"type": "unocc",
				"energy": -0.0179,
				"method": "rhf"
			},
			{
				"type": "unocc",
				"energy": 0.0323,
				"method": "rhf"
			},
			{
				"type": "unocc",
				"energy": 0.05736,
				"method": "rhf"
			},
			{
				"type": "unocc",
				"energy": 0.08388,
				"method": "rhf"
			}
		],
		"cosmo_sigma_profile": { 
			"-0.025": 0.0,
			"-0.024": 0.0,
			"-0.023": 0.0,
			"-0.022": 0.0,
			"-0.021": 0.0,
			"-0.02": 0.483310916134,
			"-0.019": 1.00722799554,
			"-0.018": 0.944331201013,
			"-0.017": 0.62318120103,
			"-0.016": 0.690831672455,
			"-0.015": 0.404950789643,
			"-0.014": 0.934298309255,
			"-0.013": 0.788718220825,
			"-0.012": 1.06438648116,
			"-0.011": 0.7244971562,
			"-0.01": 0.529223866155,
			"-0.009": 1.28407997178,
			"-0.008": 0.768554305796,
			"-0.007": 1.62326403881,
			"-0.006": 8.63019281928,
			"-0.005": 14.558497508,
			"-0.004": 16.1877797238,
			"-0.003": 16.1930037855,
			"-0.002": 18.0035862336,
			"-0.001": 22.1585436376,
			"0.0": 18.1513680023,
			"0.001": 10.7650896412,
			"0.002": 12.9539473872,
			"0.003": 15.7648915576,
			"0.004": 6.14436114837,
			"0.005": 3.51535192865,
			"0.006": 4.19396742277,
			"0.007": 4.04987754857,
			"0.008": 5.47201490563,
			"0.009": 7.36143501886,
			"0.01": 11.2958252327,
			"0.011": 3.92742108068,
			"0.012": 0.0306486188266,
			"0.013": 0.0,
			"0.014": 0.0,
			"0.015": 0.0,
			"0.016": 0.0,
			"0.017": 0.0,
			"0.018": 0.0,
			"0.019": 0.0,
			"0.02": 0.0,
			"0.021": 0.0,
			"0.022": 0.0,
			"0.023": 0.0,
			"0.024": 0.0,
			"0.025": 0.0
		}
	}
}
