{
	 "smiles": "O=C1N=NC(=O)C2=CC3=C(CCC3)C=C12", 
	 "Tm": 583.15, 
	 "num_atms": 23, 
	 "gaussian": { 
		 "optdone": 1, 
		 "sigma_profile": "yes", 
		 "theory": "DFT", 
		 "functional": "B3LYP", 
		 "basiset": "6-31G**", 
		 "properties": { 
			 "R2extent": 3664.5243, 
			 "electric_dipole_moment_norm": 7.3199591324, 
			 "electric_quadrupole_moment_norm": 11.6673575714, 
			 "total_energy": -683.881716109, 
			 "HOMO_LUMO_gap": 0.09294, 
			 "cosmo_polarized_energy": -13.46, 
			 "cosmo_cavitation_energy": 27.52, 
			 "cosmo_dispersion_energy": -20.46, 
			 "cosmo_repulsion_energy": 1.58, 
			 "cosmo_total_nonelectrostatic_energy": 8.64, 
			 "SMD_solvation_energy": 3.38 
		},
		"coords": [
			{
				"x": 0.2213470739,
				"y": 3.5768771536,
				"z": 2.3589617702,
				"element": "O" 
			},
			{
				"x": -0.3106038986,
				"y": 2.5903306982,
				"z": 1.8971918872,
				"element": "C" 
			},
			{
				"x": -1.7782298612,
				"y": 2.4913709704,
				"z": 2.1086220514,
				"element": "N" 
			},
			{
				"x": -2.4331163929,
				"y": 1.5054472124,
				"z": 1.7123650607,
				"element": "N" 
			},
			{
				"x": -1.7851243271,
				"y": 0.3704679928,
				"z": 1.0049784887,
				"element": "C" 
			},
			{
				"x": -2.5176401246,
				"y": -0.5465151474,
				"z": 0.7016042769,
				"element": "O" 
			},
			{
				"x": -0.3447800043,
				"y": 0.4206743475,
				"z": 0.7128957257,
				"element": "C" 
			},
			{
				"x": 0.284252405,
				"y": -0.6204280555,
				"z": 0.0156573251,
				"element": "C" 
			},
			{
				"x": 1.6504187188,
				"y": -0.5323709133,
				"z": -0.222772487,
				"element": "C" 
			},
			{
				"x": 2.3908304517,
				"y": 0.5821750027,
				"z": 0.2254309547,
				"element": "C" 
			},
			{
				"x": 3.8440027001,
				"y": 0.4399087638,
				"z": -0.1706238603,
				"element": "C" 
			},
			{
				"x": 3.9738093875,
				"y": -1.0663785353,
				"z": -0.5116753285,
				"element": "C" 
			},
			{
				"x": 2.5533587363,
				"y": -1.5027198316,
				"z": -0.9520964641,
				"element": "C" 
			},
			{
				"x": 1.7703792203,
				"y": 1.6167451097,
				"z": 0.9151402076,
				"element": "C" 
			},
			{
				"x": 0.392412539,
				"y": 1.5304789221,
				"z": 1.1590237149,
				"element": "C" 
			},
			{
				"x": -0.3094170976,
				"y": -1.4679298329,
				"z": -0.312277344,
				"element": "H" 
			},
			{
				"x": 4.0488247165,
				"y": 1.0626613254,
				"z": -1.0527245837,
				"element": "H" 
			},
			{
				"x": 4.5351761549,
				"y": 0.7655918608,
				"z": 0.6128391313,
				"element": "H" 
			},
			{
				"x": 4.7330961008,
				"y": -1.2649809276,
				"z": -1.2719832654,
				"element": "H" 
			},
			{
				"x": 4.2589522838,
				"y": -1.6186467015,
				"z": 0.3902377155,
				"element": "H" 
			},
			{
				"x": 2.3328405432,
				"y": -2.5493788375,
				"z": -0.7208439591,
				"element": "H" 
			},
			{
				"x": 2.4233078085,
				"y": -1.3837297629,
				"z": -2.0369038465,
				"element": "H" 
			},
			{
				"x": 2.3153028658,
				"y": 2.4832491861,
				"z": 1.2763528288,
				"element": "H" 
			}
		],
		 "valence_orbital": [ 
			{
				"type": "occ",
				"energy": -0.33043,
				"method": "rhf"
			},
			{
				"type": "occ",
				"energy": -0.29776,
				"method": "rhf"
			},
			{
				"type": "occ",
				"energy": -0.28421,
				"method": "rhf"
			},
			{
				"type": "occ",
				"energy": -0.27586,
				"method": "rhf"
			},
			{
				"type": "occ",
				"energy": -0.23118,
				"method": "rhf"
			},
			{
				"type": "unocc",
				"energy": -0.13824,
				"method": "rhf"
			},
			{
				"type": "unocc",
				"energy": -0.06465,
				"method": "rhf"
			},
			{
				"type": "unocc",
				"energy": -0.05262,
				"method": "rhf"
			},
			{
				"type": "unocc",
				"energy": 0.0216,
				"method": "rhf"
			},
			{
				"type": "unocc",
				"energy": 0.05142,
				"method": "rhf"
			}
		],
		"cosmo_sigma_profile": { 
			"-0.025": 0.0,
			"-0.024": 0.0,
			"-0.023": 0.0,
			"-0.022": 0.0,
			"-0.021": 0.0,
			"-0.02": 0.0,
			"-0.019": 0.0,
			"-0.018": 0.0,
			"-0.017": 0.0,
			"-0.016": 0.0,
			"-0.015": 0.0,
			"-0.014": 0.0,
			"-0.013": 0.199317710731,
			"-0.012": 0.639099659239,
			"-0.011": 1.29800762343,
			"-0.01": 1.46768842434,
			"-0.009": 1.67484326844,
			"-0.008": 1.81131613405,
			"-0.007": 5.35514822822,
			"-0.006": 5.69879927222,
			"-0.005": 13.8801752717,
			"-0.004": 22.6421334987,
			"-0.003": 26.2700639357,
			"-0.002": 26.5685122546,
			"-0.001": 21.2345494059,
			"0.0": 22.0970607928,
			"0.001": 10.4617505099,
			"0.002": 4.57405084661,
			"0.003": 3.25496246223,
			"0.004": 3.85060875331,
			"0.005": 4.21878382486,
			"0.006": 4.52776370905,
			"0.007": 5.31817305841,
			"0.008": 6.82667722056,
			"0.009": 10.7551210246,
			"0.01": 8.14806170209,
			"0.011": 5.89677329103,
			"0.012": 2.01597477064,
			"0.013": 0.14553158677,
			"0.014": 0.0,
			"0.015": 0.0,
			"0.016": 0.0,
			"0.017": 0.0,
			"0.018": 0.0,
			"0.019": 0.0,
			"0.02": 0.0,
			"0.021": 0.0,
			"0.022": 0.0,
			"0.023": 0.0,
			"0.024": 0.0,
			"0.025": 0.0
		}
	}
}
