{
	 "smiles": "CC1=C(F)C=C(NC(N)=S)C=C1", 
	 "Tm": 422.15, 
	 "num_atms": 21, 
	 "gaussian": { 
		 "optdone": 1, 
		 "sigma_profile": "yes", 
		 "theory": "DFT", 
		 "functional": "B3LYP", 
		 "basiset": "6-31G**", 
		 "properties": { 
			 "R2extent": 3573.8413, 
			 "electric_dipole_moment_norm": 5.21200705487, 
			 "electric_quadrupole_moment_norm": 26.3428825346, 
			 "total_energy": -917.82626298, 
			 "HOMO_LUMO_gap": 0.17331, 
			 "cosmo_polarized_energy": -16.47, 
			 "cosmo_cavitation_energy": 27.15, 
			 "cosmo_dispersion_energy": -20.28, 
			 "cosmo_repulsion_energy": 1.57, 
			 "cosmo_total_nonelectrostatic_energy": 8.44, 
			 "SMD_solvation_energy": 4.28 
		},
		"coords": [
			{
				"x": 1.6389801761,
				"y": 2.9873804031,
				"z": -0.4315797698,
				"element": "C" 
			},
			{
				"x": 1.1548183674,
				"y": 1.5683181744,
				"z": -0.2872699173,
				"element": "C" 
			},
			{
				"x": 1.2290356674,
				"y": 0.9113425602,
				"z": 0.9423292695,
				"element": "C" 
			},
			{
				"x": 1.7578634153,
				"y": 1.5809807197,
				"z": 1.9911214724,
				"element": "F" 
			},
			{
				"x": 0.8116757749,
				"y": -0.3960671804,
				"z": 1.1499890179,
				"element": "C" 
			},
			{
				"x": 0.25438424,
				"y": -1.1035499918,
				"z": 0.0730083177,
				"element": "C" 
			},
			{
				"x": -0.1663807717,
				"y": -2.4475709516,
				"z": 0.1893901183,
				"element": "N" 
			},
			{
				"x": -0.7986295526,
				"y": -3.0971639641,
				"z": 1.2179212583,
				"element": "C" 
			},
			{
				"x": -1.1492106735,
				"y": -2.3506171165,
				"z": 2.2995369247,
				"element": "N" 
			},
			{
				"x": -1.1049959502,
				"y": -4.7463027816,
				"z": 1.1250566949,
				"element": "S" 
			},
			{
				"x": 0.1663125282,
				"y": -0.479834972,
				"z": -1.1798593776,
				"element": "C" 
			},
			{
				"x": 0.6185586965,
				"y": 0.8274638598,
				"z": -1.34696537,
				"element": "C" 
			},
			{
				"x": 2.7032943919,
				"y": 3.0721411027,
				"z": -0.1867542375,
				"element": "H" 
			},
			{
				"x": 1.1039589569,
				"y": 3.6623518802,
				"z": 0.2451308553,
				"element": "H" 
			},
			{
				"x": 1.4952863352,
				"y": 3.3448886931,
				"z": -1.4540432453,
				"element": "H" 
			},
			{
				"x": 0.9600331555,
				"y": -0.8524331052,
				"z": 2.1209044233,
				"element": "H" 
			},
			{
				"x": -0.0379605559,
				"y": -3.0399426056,
				"z": -0.6193972542,
				"element": "H" 
			},
			{
				"x": -1.7331286013,
				"y": -2.8202544716,
				"z": 2.9740733266,
				"element": "H" 
			},
			{
				"x": -1.2347947699,
				"y": -1.3461638815,
				"z": 2.2234458398,
				"element": "H" 
			},
			{
				"x": -0.2647716352,
				"y": -1.0197798589,
				"z": -2.017536304,
				"element": "H" 
			},
			{
				"x": 0.5420708048,
				"y": 1.2935134877,
				"z": -2.325502043,
				"element": "H" 
			}
		],
		 "valence_orbital": [ 
			{
				"type": "occ",
				"energy": -0.30568,
				"method": "rhf"
			},
			{
				"type": "occ",
				"energy": -0.26601,
				"method": "rhf"
			},
			{
				"type": "occ",
				"energy": -0.24692,
				"method": "rhf"
			},
			{
				"type": "occ",
				"energy": -0.21227,
				"method": "rhf"
			},
			{
				"type": "occ",
				"energy": -0.20783,
				"method": "rhf"
			},
			{
				"type": "unocc",
				"energy": -0.03452,
				"method": "rhf"
			},
			{
				"type": "unocc",
				"energy": -0.02056,
				"method": "rhf"
			},
			{
				"type": "unocc",
				"energy": 0.01495,
				"method": "rhf"
			},
			{
				"type": "unocc",
				"energy": 0.06699,
				"method": "rhf"
			},
			{
				"type": "unocc",
				"energy": 0.08398,
				"method": "rhf"
			}
		],
		"cosmo_sigma_profile": { 
			"-0.025": 0.0,
			"-0.024": 0.0,
			"-0.023": 0.0,
			"-0.022": 0.0,
			"-0.021": 0.0,
			"-0.02": 0.0,
			"-0.019": 0.0,
			"-0.018": 0.0,
			"-0.017": 0.0,
			"-0.016": 0.0,
			"-0.015": 0.57011901481,
			"-0.014": 2.78069145624,
			"-0.013": 3.24361324411,
			"-0.012": 2.76931443149,
			"-0.011": 3.52664300305,
			"-0.01": 3.28286092978,
			"-0.009": 3.16271772534,
			"-0.008": 3.1069688925,
			"-0.007": 5.56911972548,
			"-0.006": 7.70032556281,
			"-0.005": 11.5702404106,
			"-0.004": 11.7630468028,
			"-0.003": 12.7963550808,
			"-0.002": 11.852471198,
			"-0.001": 16.2116918023,
			"0.0": 19.5484514703,
			"0.001": 14.2712455836,
			"0.002": 14.0260885346,
			"0.003": 12.7262369247,
			"0.004": 17.1715668341,
			"0.005": 7.17039240205,
			"0.006": 3.29138284774,
			"0.007": 3.3008623517,
			"0.008": 4.09750360372,
			"0.009": 3.25853809243,
			"0.01": 6.01647979613,
			"0.011": 8.35816445563,
			"0.012": 4.96048813961,
			"0.013": 0.777309289628,
			"0.014": 0.0,
			"0.015": 0.0,
			"0.016": 0.0,
			"0.017": 0.0,
			"0.018": 0.0,
			"0.019": 0.0,
			"0.02": 0.0,
			"0.021": 0.0,
			"0.022": 0.0,
			"0.023": 0.0,
			"0.024": 0.0,
			"0.025": 0.0
		}
	}
}
