{
	 "smiles": "NNC1=C(F)C(F)=CC=C1", 
	 "Tm": 335.15, 
	 "num_atms": 16, 
	 "gaussian": { 
		 "optdone": 1, 
		 "sigma_profile": "yes", 
		 "theory": "DFT", 
		 "functional": "B3LYP", 
		 "basiset": "6-31G**", 
		 "properties": { 
			 "R2extent": 1622.4345, 
			 "electric_dipole_moment_norm": 2.08881717007, 
			 "electric_quadrupole_moment_norm": 6.1065867946, 
			 "total_energy": -541.378320818, 
			 "HOMO_LUMO_gap": 0.21202, 
			 "cosmo_polarized_energy": -8.38, 
			 "cosmo_cavitation_energy": 20.92, 
			 "cosmo_dispersion_energy": -15.39, 
			 "cosmo_repulsion_energy": 1.21, 
			 "cosmo_total_nonelectrostatic_energy": 6.75, 
			 "SMD_solvation_energy": 4.8 
		},
		"coords": [
			{
				"x": -2.5361279008,
				"y": 0.4588561667,
				"z": 0.035070005,
				"element": "N" 
			},
			{
				"x": -1.9835764777,
				"y": -0.248768769,
				"z": -1.0673039789,
				"element": "N" 
			},
			{
				"x": -0.610962571,
				"y": -0.5033257985,
				"z": -1.1424745463,
				"element": "C" 
			},
			{
				"x": 0.3365112984,
				"y": 0.4829795034,
				"z": -0.8267246732,
				"element": "C" 
			},
			{
				"x": -0.0571788263,
				"y": 1.7129276538,
				"z": -0.4193058431,
				"element": "F" 
			},
			{
				"x": 1.6993659124,
				"y": 0.2313146141,
				"z": -0.9494888251,
				"element": "C" 
			},
			{
				"x": 2.5557439068,
				"y": 1.216196717,
				"z": -0.6236962327,
				"element": "F" 
			},
			{
				"x": 2.1740640047,
				"y": -0.9895362718,
				"z": -1.4107928993,
				"element": "C" 
			},
			{
				"x": 1.2407999532,
				"y": -1.9719551054,
				"z": -1.74807664,
				"element": "C" 
			},
			{
				"x": -0.1247263489,
				"y": -1.7401644595,
				"z": -1.6071594951,
				"element": "C" 
			},
			{
				"x": -2.0301896823,
				"y": 0.2244994912,
				"z": 0.8910608649,
				"element": "H" 
			},
			{
				"x": -2.3882195942,
				"y": 1.4498014921,
				"z": -0.1297181008,
				"element": "H" 
			},
			{
				"x": -2.5468931006,
				"y": -1.0650139888,
				"z": -1.2675787436,
				"element": "H" 
			},
			{
				"x": 3.2428355559,
				"y": -1.1468410887,
				"z": -1.4966467093,
				"element": "H" 
			},
			{
				"x": 1.5846689469,
				"y": -2.9361785867,
				"z": -2.1088015296,
				"element": "H" 
			},
			{
				"x": -0.8393150764,
				"y": -2.52029157,
				"z": -1.855262653,
				"element": "H" 
			}
		],
		 "valence_orbital": [ 
			{
				"type": "occ",
				"energy": -0.36472,
				"method": "rhf"
			},
			{
				"type": "occ",
				"energy": -0.30569,
				"method": "rhf"
			},
			{
				"type": "occ",
				"energy": -0.26702,
				"method": "rhf"
			},
			{
				"type": "occ",
				"energy": -0.246,
				"method": "rhf"
			},
			{
				"type": "occ",
				"energy": -0.21567,
				"method": "rhf"
			},
			{
				"type": "unocc",
				"energy": -0.00365,
				"method": "rhf"
			},
			{
				"type": "unocc",
				"energy": -0.00218,
				"method": "rhf"
			},
			{
				"type": "unocc",
				"energy": 0.06238,
				"method": "rhf"
			},
			{
				"type": "unocc",
				"energy": 0.08816,
				"method": "rhf"
			},
			{
				"type": "unocc",
				"energy": 0.09792,
				"method": "rhf"
			}
		],
		"cosmo_sigma_profile": { 
			"-0.025": 0.0,
			"-0.024": 0.0,
			"-0.023": 0.0,
			"-0.022": 0.0,
			"-0.021": 0.0,
			"-0.02": 0.0,
			"-0.019": 0.0,
			"-0.018": 0.0,
			"-0.017": 0.0,
			"-0.016": 0.0,
			"-0.015": 0.0,
			"-0.014": 0.0,
			"-0.013": 0.497107214935,
			"-0.012": 1.37197963208,
			"-0.011": 1.82271316163,
			"-0.01": 3.27182064885,
			"-0.009": 4.08141211313,
			"-0.008": 3.95898982716,
			"-0.007": 5.98315741431,
			"-0.006": 8.35109674851,
			"-0.005": 9.28190686442,
			"-0.004": 8.88587849702,
			"-0.003": 7.09826506785,
			"-0.002": 6.57345756739,
			"-0.001": 6.51499404553,
			"0.0": 11.0101904398,
			"0.001": 13.4499898061,
			"0.002": 12.6756128111,
			"0.003": 16.6336089768,
			"0.004": 23.6734846104,
			"0.005": 8.65126823007,
			"0.006": 1.50471463629,
			"0.007": 1.84724409641,
			"0.008": 2.45876908724,
			"0.009": 1.05786015073,
			"0.01": 1.18281544931,
			"0.011": 1.00460666011,
			"0.012": 0.858308744557,
			"0.013": 0.424468806098,
			"0.014": 1.08860334699,
			"0.015": 0.531944659772,
			"0.016": 0.608346772799,
			"0.017": 0.433124176521,
			"0.018": 0.0440088561828,
			"0.019": 0.0,
			"0.02": 0.0,
			"0.021": 0.0,
			"0.022": 0.0,
			"0.023": 0.0,
			"0.024": 0.0,
			"0.025": 0.0
		}
	}
}
