{
	 "smiles": "NC1=NNC2=C1C=C(N)C=C2", 
	 "Tm": 431.15, 
	 "num_atms": 19, 
	 "gaussian": { 
		 "optdone": 1, 
		 "sigma_profile": "yes", 
		 "theory": "DFT", 
		 "functional": "B3LYP", 
		 "basiset": "6-31G**", 
		 "properties": { 
			 "R2extent": 1828.1562, 
			 "electric_dipole_moment_norm": 1.65751910095, 
			 "electric_quadrupole_moment_norm": 12.0172316392, 
			 "total_energy": -490.558565489, 
			 "HOMO_LUMO_gap": 0.16061, 
			 "cosmo_polarized_energy": -16.67, 
			 "cosmo_cavitation_energy": 23.01, 
			 "cosmo_dispersion_energy": -17.51, 
			 "cosmo_repulsion_energy": 1.42, 
			 "cosmo_total_nonelectrostatic_energy": 6.92, 
			 "SMD_solvation_energy": 2.61 
		},
		"coords": [
			{
				"x": 0.3401315678,
				"y": -1.5605492854,
				"z": 2.132289136,
				"element": "N" 
			},
			{
				"x": 0.5135032476,
				"y": -0.3315936471,
				"z": 1.4881771432,
				"element": "C" 
			},
			{
				"x": 1.5140219589,
				"y": 0.4779666122,
				"z": 1.7907946915,
				"element": "N" 
			},
			{
				"x": 1.419247421,
				"y": 1.529837632,
				"z": 0.9177810608,
				"element": "N" 
			},
			{
				"x": 0.3482379205,
				"y": 1.4091700606,
				"z": 0.0748493805,
				"element": "C" 
			},
			{
				"x": -0.2787964228,
				"y": 0.1858812776,
				"z": 0.4079448219,
				"element": "C" 
			},
			{
				"x": -1.4104533158,
				"y": -0.2532635465,
				"z": -0.3004534037,
				"element": "C" 
			},
			{
				"x": -1.9165819151,
				"y": 0.5459524461,
				"z": -1.3227070806,
				"element": "C" 
			},
			{
				"x": -3.0858180149,
				"y": 0.1896695846,
				"z": -2.0216659498,
				"element": "N" 
			},
			{
				"x": -1.2772911539,
				"y": 1.7789402217,
				"z": -1.6314352458,
				"element": "C" 
			},
			{
				"x": -0.1516785324,
				"y": 2.2199434123,
				"z": -0.956035334,
				"element": "C" 
			},
			{
				"x": 0.958546286,
				"y": -1.640825395,
				"z": 2.9319118344,
				"element": "H" 
			},
			{
				"x": -0.6196347,
				"y": -1.7231008054,
				"z": 2.416229712,
				"element": "H" 
			},
			{
				"x": 2.0984497204,
				"y": 2.2688198031,
				"z": 0.9728154097,
				"element": "H" 
			},
			{
				"x": -1.8803996154,
				"y": -1.2047241833,
				"z": -0.0640665586,
				"element": "H" 
			},
			{
				"x": -3.1079621906,
				"y": 0.5222572505,
				"z": -2.9773281289,
				"element": "H" 
			},
			{
				"x": -3.2910940689,
				"y": -0.8008672004,
				"z": -1.9908403199,
				"element": "H" 
			},
			{
				"x": -1.6944143814,
				"y": 2.3934221564,
				"z": -2.4255859551,
				"element": "H" 
			},
			{
				"x": 0.3191861889,
				"y": 3.1618636061,
				"z": -1.2209752138,
				"element": "H" 
			}
		],
		 "valence_orbital": [ 
			{
				"type": "occ",
				"energy": -0.28708,
				"method": "rhf"
			},
			{
				"type": "occ",
				"energy": -0.27996,
				"method": "rhf"
			},
			{
				"type": "occ",
				"energy": -0.24918,
				"method": "rhf"
			},
			{
				"type": "occ",
				"energy": -0.20838,
				"method": "rhf"
			},
			{
				"type": "occ",
				"energy": -0.17587,
				"method": "rhf"
			},
			{
				"type": "unocc",
				"energy": -0.01526,
				"method": "rhf"
			},
			{
				"type": "unocc",
				"energy": 0.03926,
				"method": "rhf"
			},
			{
				"type": "unocc",
				"energy": 0.07776,
				"method": "rhf"
			},
			{
				"type": "unocc",
				"energy": 0.08211,
				"method": "rhf"
			},
			{
				"type": "unocc",
				"energy": 0.09713,
				"method": "rhf"
			}
		],
		"cosmo_sigma_profile": { 
			"-0.025": 0.0,
			"-0.024": 0.0,
			"-0.023": 0.0,
			"-0.022": 0.0,
			"-0.021": 0.0,
			"-0.02": 0.0,
			"-0.019": 0.0,
			"-0.018": 0.0,
			"-0.017": 0.0,
			"-0.016": 0.116147630894,
			"-0.015": 1.3734845614,
			"-0.014": 1.20322938892,
			"-0.013": 1.66082217957,
			"-0.012": 3.25412435463,
			"-0.011": 6.1185325053,
			"-0.01": 5.67256851787,
			"-0.009": 7.20476258814,
			"-0.008": 6.63038297733,
			"-0.007": 7.24620729825,
			"-0.006": 10.6858677208,
			"-0.005": 8.07824135768,
			"-0.004": 8.08709958567,
			"-0.003": 7.78193347657,
			"-0.002": 5.71427618961,
			"-0.001": 5.03035893944,
			"0.0": 6.15750296094,
			"0.001": 6.35948363921,
			"0.002": 5.95574982198,
			"0.003": 8.4487595482,
			"0.004": 11.4029522081,
			"0.005": 14.1421739124,
			"0.006": 14.2791205394,
			"0.007": 6.03603465358,
			"0.008": 2.87862742854,
			"0.009": 3.71408224881,
			"0.01": 3.26428890788,
			"0.011": 2.49079361757,
			"0.012": 2.03599852225,
			"0.013": 2.68646930054,
			"0.014": 2.60993330507,
			"0.015": 2.16414566638,
			"0.016": 1.75321021781,
			"0.017": 0.164485344257,
			"0.018": 0.0,
			"0.019": 0.0,
			"0.02": 0.0,
			"0.021": 0.0,
			"0.022": 0.0,
			"0.023": 0.0,
			"0.024": 0.0,
			"0.025": 0.0
		}
	}
}
