{
	 "smiles": "BrCC1=CC=C(C=C1)C1=CC=CC=C1", 
	 "Tm": 359.65, 
	 "num_atms": 25, 
	 "gaussian": { 
		 "optdone": 1, 
		 "sigma_profile": "yes", 
		 "theory": "DFT", 
		 "functional": "B3LYP", 
		 "basiset": "6-31G**", 
		 "properties": { 
			 "R2extent": 8594.9869, 
			 "electric_dipole_moment_norm": 2.5565710747, 
			 "electric_quadrupole_moment_norm": 18.2710667392, 
			 "total_energy": -3073.43253003, 
			 "HOMO_LUMO_gap": 0.17962, 
			 "cosmo_polarized_energy": -7.94, 
			 "cosmo_cavitation_energy": 31.2, 
			 "cosmo_dispersion_energy": -22.96, 
			 "cosmo_repulsion_energy": 1.8, 
			 "cosmo_total_nonelectrostatic_energy": 10.04, 
			 "SMD_solvation_energy": 3.77 
		},
		"coords": [
			{
				"x": -4.5151534313,
				"y": -2.5172619997,
				"z": 3.7231326916,
				"element": "Br" 
			},
			{
				"x": -3.7590459921,
				"y": -2.6380334373,
				"z": 1.861806694,
				"element": "C" 
			},
			{
				"x": -2.5483465433,
				"y": -1.7852536914,
				"z": 1.6831775331,
				"element": "C" 
			},
			{
				"x": -1.2667226654,
				"y": -2.2987649451,
				"z": 1.9240357028,
				"element": "C" 
			},
			{
				"x": -0.136083546,
				"y": -1.5084968615,
				"z": 1.7421162173,
				"element": "C" 
			},
			{
				"x": -0.2454777371,
				"y": -0.1743390593,
				"z": 1.3130547621,
				"element": "C" 
			},
			{
				"x": -1.5336534618,
				"y": 0.3356634463,
				"z": 1.0743872038,
				"element": "C" 
			},
			{
				"x": -2.6637788254,
				"y": -0.4547551132,
				"z": 1.2578275962,
				"element": "C" 
			},
			{
				"x": 0.9605029423,
				"y": 0.6687513471,
				"z": 1.1164846201,
				"element": "C" 
			},
			{
				"x": 2.1419756475,
				"y": 0.1261803112,
				"z": 0.58236968,
				"element": "C" 
			},
			{
				"x": 3.2744047227,
				"y": 0.9181228214,
				"z": 0.3982691617,
				"element": "C" 
			},
			{
				"x": 3.2505036793,
				"y": 2.2706163639,
				"z": 0.7439700561,
				"element": "C" 
			},
			{
				"x": 2.0839979457,
				"y": 2.8237802319,
				"z": 1.2756493745,
				"element": "C" 
			},
			{
				"x": 0.9517467053,
				"y": 2.0316705781,
				"z": 1.4599503033,
				"element": "C" 
			},
			{
				"x": -3.5529778252,
				"y": -3.6987137391,
				"z": 1.7313697305,
				"element": "H" 
			},
			{
				"x": -4.5872099208,
				"y": -2.3361755601,
				"z": 1.2233500997,
				"element": "H" 
			},
			{
				"x": -1.1564570545,
				"y": -3.3236865697,
				"z": 2.2689671007,
				"element": "H" 
			},
			{
				"x": 0.8445209418,
				"y": -1.9214473674,
				"z": 1.9582068668,
				"element": "H" 
			},
			{
				"x": -1.6467177827,
				"y": 1.3539651249,
				"z": 0.7150733349,
				"element": "H" 
			},
			{
				"x": -3.648673532,
				"y": -0.0382332702,
				"z": 1.0626963327,
				"element": "H" 
			},
			{
				"x": 2.1631208961,
				"y": -0.9181796841,
				"z": 0.2851027926,
				"element": "H" 
			},
			{
				"x": 4.1742486855,
				"y": 0.4797118216,
				"z": -0.0239592075,
				"element": "H" 
			},
			{
				"x": 4.1327146432,
				"y": 2.8876886034,
				"z": 0.6006309064,
				"element": "H" 
			},
			{
				"x": 2.0575844305,
				"y": 3.8728922586,
				"z": 1.5564187109,
				"element": "H" 
			},
			{
				"x": 0.0586770776,
				"y": 2.4654983898,
				"z": 1.9000117359,
				"element": "H" 
			}
		],
		 "valence_orbital": [ 
			{
				"type": "occ",
				"energy": -0.26861,
				"method": "rhf"
			},
			{
				"type": "occ",
				"energy": -0.26598,
				"method": "rhf"
			},
			{
				"type": "occ",
				"energy": -0.25783,
				"method": "rhf"
			},
			{
				"type": "occ",
				"energy": -0.25412,
				"method": "rhf"
			},
			{
				"type": "occ",
				"energy": -0.22719,
				"method": "rhf"
			},
			{
				"type": "unocc",
				"energy": -0.04757,
				"method": "rhf"
			},
			{
				"type": "unocc",
				"energy": -0.01104,
				"method": "rhf"
			},
			{
				"type": "unocc",
				"energy": -0.0048,
				"method": "rhf"
			},
			{
				"type": "unocc",
				"energy": -0.00183,
				"method": "rhf"
			},
			{
				"type": "unocc",
				"energy": 0.04028,
				"method": "rhf"
			}
		],
		"cosmo_sigma_profile": { 
			"-0.025": 0.0,
			"-0.024": 0.0,
			"-0.023": 0.0,
			"-0.022": 0.0,
			"-0.021": 0.0,
			"-0.02": 0.0,
			"-0.019": 0.0,
			"-0.018": 0.0,
			"-0.017": 0.0,
			"-0.016": 0.0,
			"-0.015": 0.0,
			"-0.014": 0.0,
			"-0.013": 0.0,
			"-0.012": 0.0,
			"-0.011": 0.0,
			"-0.01": 0.0,
			"-0.009": 0.0,
			"-0.008": 1.67142480717,
			"-0.007": 7.39047813804,
			"-0.006": 15.2420949487,
			"-0.005": 23.4903212754,
			"-0.004": 22.0898038911,
			"-0.003": 18.5714231848,
			"-0.002": 14.9781250682,
			"-0.001": 15.2640723296,
			"0.0": 13.394546491,
			"0.001": 14.3577000022,
			"0.002": 18.190811774,
			"0.003": 19.3494052788,
			"0.004": 22.8848021259,
			"0.005": 23.3308584793,
			"0.006": 16.6341383167,
			"0.007": 6.18609633708,
			"0.008": 0.0,
			"0.009": 0.0,
			"0.01": 0.0,
			"0.011": 0.0,
			"0.012": 0.0,
			"0.013": 0.0,
			"0.014": 0.0,
			"0.015": 0.0,
			"0.016": 0.0,
			"0.017": 0.0,
			"0.018": 0.0,
			"0.019": 0.0,
			"0.02": 0.0,
			"0.021": 0.0,
			"0.022": 0.0,
			"0.023": 0.0,
			"0.024": 0.0,
			"0.025": 0.0
		}
	}
}
