{
	 "smiles": "CN1C(C(CCC1=O)C(N)=O)C1=CC=CC=C1", 
	 "Tm": 496.15, 
	 "num_atms": 33, 
	 "gaussian": { 
		 "optdone": 1, 
		 "sigma_profile": "yes", 
		 "theory": "DFT", 
		 "functional": "B3LYP", 
		 "basiset": "6-31G**", 
		 "properties": { 
			 "R2extent": 4706.5344, 
			 "electric_dipole_moment_norm": 5.10966233131, 
			 "electric_quadrupole_moment_norm": 12.1015678947, 
			 "total_energy": -765.015917228, 
			 "HOMO_LUMO_gap": 0.22064, 
			 "cosmo_polarized_energy": -19.75, 
			 "cosmo_cavitation_energy": 34.92, 
			 "cosmo_dispersion_energy": -23.88, 
			 "cosmo_repulsion_energy": 1.87, 
			 "cosmo_total_nonelectrostatic_energy": 12.91, 
			 "SMD_solvation_energy": 7.0 
		},
		"coords": [
			{
				"x": 1.2266028515,
				"y": 0.8713585941,
				"z": -3.1470112958,
				"element": "C" 
			},
			{
				"x": 0.6778372469,
				"y": 0.8573713283,
				"z": -1.7912470092,
				"element": "N" 
			},
			{
				"x": -0.3157460836,
				"y": -0.200066445,
				"z": -1.52972515,
				"element": "C" 
			},
			{
				"x": -0.8736991392,
				"y": -0.1646062822,
				"z": -0.0886426722,
				"element": "C" 
			},
			{
				"x": -1.1075197062,
				"y": 1.2814546427,
				"z": 0.3715230101,
				"element": "C" 
			},
			{
				"x": 0.2272468901,
				"y": 2.0199773403,
				"z": 0.3560097581,
				"element": "C" 
			},
			{
				"x": 0.9554595259,
				"y": 1.9382156034,
				"z": -0.9798973066,
				"element": "C" 
			},
			{
				"x": 1.758956691,
				"y": 2.8085733962,
				"z": -1.3001153445,
				"element": "O" 
			},
			{
				"x": -2.1898321484,
				"y": -0.9500576449,
				"z": -0.0439432004,
				"element": "C" 
			},
			{
				"x": -2.3241110081,
				"y": -1.807579255,
				"z": 1.00927245,
				"element": "N" 
			},
			{
				"x": -3.082669541,
				"y": -0.7696954952,
				"z": -0.8621592523,
				"element": "O" 
			},
			{
				"x": 0.2448773552,
				"y": -1.5887729259,
				"z": -1.8320455505,
				"element": "C" 
			},
			{
				"x": -0.5326014034,
				"y": -2.5218470486,
				"z": -2.5276748327,
				"element": "C" 
			},
			{
				"x": -0.0547817488,
				"y": -3.814239536,
				"z": -2.7575678314,
				"element": "C" 
			},
			{
				"x": 1.2094783398,
				"y": -4.1863305717,
				"z": -2.299409024,
				"element": "C" 
			},
			{
				"x": 1.9938012658,
				"y": -3.2596740194,
				"z": -1.6072904202,
				"element": "C" 
			},
			{
				"x": 1.5129643147,
				"y": -1.9715861058,
				"z": -1.3732688083,
				"element": "C" 
			},
			{
				"x": 0.4121492224,
				"y": 0.8295390297,
				"z": -3.8809987371,
				"element": "H" 
			},
			{
				"x": 1.788682979,
				"y": 1.7950871459,
				"z": -3.2703989287,
				"element": "H" 
			},
			{
				"x": 1.8863546668,
				"y": 0.0158765974,
				"z": -3.3173256076,
				"element": "H" 
			},
			{
				"x": -1.1736388667,
				"y": -0.03041364,
				"z": -2.1947687932,
				"element": "H" 
			},
			{
				"x": -0.1405292185,
				"y": -0.6275594144,
				"z": 0.5848913282,
				"element": "H" 
			},
			{
				"x": -1.5493671607,
				"y": 1.2950289021,
				"z": 1.3740805869,
				"element": "H" 
			},
			{
				"x": -1.8273076115,
				"y": 1.7590423015,
				"z": -0.3028539377,
				"element": "H" 
			},
			{
				"x": 0.8958105447,
				"y": 1.6148857859,
				"z": 1.1277973114,
				"element": "H" 
			},
			{
				"x": 0.1137330953,
				"y": 3.0848704577,
				"z": 0.5731740232,
				"element": "H" 
			},
			{
				"x": -1.5375520311,
				"y": -2.0778305741,
				"z": 1.577326827,
				"element": "H" 
			},
			{
				"x": -3.1606986047,
				"y": -2.371496496,
				"z": 1.0473807029,
				"element": "H" 
			},
			{
				"x": -1.5196551465,
				"y": -2.2349526129,
				"z": -2.8798237642,
				"element": "H" 
			},
			{
				"x": -0.6695476735,
				"y": -4.5268545489,
				"z": -3.3002113918,
				"element": "H" 
			},
			{
				"x": 1.5847001857,
				"y": -5.1888463287,
				"z": -2.4840330612,
				"element": "H" 
			},
			{
				"x": 2.98223249,
				"y": -3.5394322156,
				"z": -1.2534192498,
				"element": "H" 
			},
			{
				"x": 2.1301694267,
				"y": -1.2473399654,
				"z": -0.8475248282,
				"element": "H" 
			}
		],
		 "valence_orbital": [ 
			{
				"type": "occ",
				"energy": -0.25992,
				"method": "rhf"
			},
			{
				"type": "occ",
				"energy": -0.25561,
				"method": "rhf"
			},
			{
				"type": "occ",
				"energy": -0.25264,
				"method": "rhf"
			},
			{
				"type": "occ",
				"energy": -0.2369,
				"method": "rhf"
			},
			{
				"type": "occ",
				"energy": -0.23281,
				"method": "rhf"
			},
			{
				"type": "unocc",
				"energy": -0.01217,
				"method": "rhf"
			},
			{
				"type": "unocc",
				"energy": -0.00784,
				"method": "rhf"
			},
			{
				"type": "unocc",
				"energy": 0.01616,
				"method": "rhf"
			},
			{
				"type": "unocc",
				"energy": 0.03157,
				"method": "rhf"
			},
			{
				"type": "unocc",
				"energy": 0.06403,
				"method": "rhf"
			}
		],
		"cosmo_sigma_profile": { 
			"-0.025": 0.0,
			"-0.024": 0.0,
			"-0.023": 0.0,
			"-0.022": 0.0,
			"-0.021": 0.0,
			"-0.02": 0.0,
			"-0.019": 0.0,
			"-0.018": 0.0,
			"-0.017": 0.0,
			"-0.016": 0.0,
			"-0.015": 0.222506836336,
			"-0.014": 2.16711134903,
			"-0.013": 2.64494198394,
			"-0.012": 2.65519370518,
			"-0.011": 2.08478586224,
			"-0.01": 2.63944033809,
			"-0.009": 2.33251531948,
			"-0.008": 2.23832173814,
			"-0.007": 1.91217639033,
			"-0.006": 8.31571059585,
			"-0.005": 21.2041450512,
			"-0.004": 29.001560174,
			"-0.003": 29.5948454601,
			"-0.002": 24.6984730993,
			"-0.001": 23.352535533,
			"0.0": 14.6979151792,
			"0.001": 12.3789438457,
			"0.002": 13.05093948,
			"0.003": 13.18825293,
			"0.004": 11.6545368371,
			"0.005": 11.9564171449,
			"0.006": 8.57135996561,
			"0.007": 2.36951591336,
			"0.008": 2.74974836324,
			"0.009": 1.9695821339,
			"0.01": 2.60711823239,
			"0.011": 3.57528397155,
			"0.012": 2.87106271962,
			"0.013": 5.65362199359,
			"0.014": 9.30626765584,
			"0.015": 2.46170240732,
			"0.016": 0.157180798512,
			"0.017": 0.0,
			"0.018": 0.0,
			"0.019": 0.0,
			"0.02": 0.0,
			"0.021": 0.0,
			"0.022": 0.0,
			"0.023": 0.0,
			"0.024": 0.0,
			"0.025": 0.0
		}
	}
}
