{
	 "smiles": "CNC1=NC=C(Br)C=N1", 
	 "Tm": 390.15, 
	 "num_atms": 15, 
	 "gaussian": { 
		 "optdone": 1, 
		 "sigma_profile": "yes", 
		 "theory": "DFT", 
		 "functional": "B3LYP", 
		 "basiset": "6-31G**", 
		 "properties": { 
			 "R2extent": 4603.4331, 
			 "electric_dipole_moment_norm": 2.22965524465, 
			 "electric_quadrupole_moment_norm": 2.03622991826, 
			 "total_energy": -2929.80823621, 
			 "HOMO_LUMO_gap": 0.17756, 
			 "cosmo_polarized_energy": -7.21, 
			 "cosmo_cavitation_energy": 21.64, 
			 "cosmo_dispersion_energy": -16.79, 
			 "cosmo_repulsion_energy": 1.39, 
			 "cosmo_total_nonelectrostatic_energy": 6.24, 
			 "SMD_solvation_energy": -0.24 
		},
		"coords": [
			{
				"x": -1.6196710745,
				"y": -0.6083800684,
				"z": -1.7114583184,
				"element": "C" 
			},
			{
				"x": -0.7920887052,
				"y": -0.1733081909,
				"z": -0.6039332841,
				"element": "N" 
			},
			{
				"x": 0.5382493047,
				"y": -0.4231598856,
				"z": -0.5128003457,
				"element": "C" 
			},
			{
				"x": 1.126841313,
				"y": -1.0651966706,
				"z": -1.5438285166,
				"element": "N" 
			},
			{
				"x": 2.4364920341,
				"y": -1.2839883098,
				"z": -1.429684501,
				"element": "C" 
			},
			{
				"x": 3.1613962249,
				"y": -0.8791822147,
				"z": -0.3117711062,
				"element": "C" 
			},
			{
				"x": 5.0302633169,
				"y": -1.2031045317,
				"z": -0.1658975998,
				"element": "Br" 
			},
			{
				"x": 2.4549250682,
				"y": -0.226947034,
				"z": 0.7023371085,
				"element": "C" 
			},
			{
				"x": 1.1508822629,
				"y": 0.0068641412,
				"z": 0.6168771851,
				"element": "N" 
			},
			{
				"x": -2.6268135687,
				"y": -0.2122183546,
				"z": -1.5674616546,
				"element": "H" 
			},
			{
				"x": -1.2256246956,
				"y": -0.2374514224,
				"z": -2.6622647892,
				"element": "H" 
			},
			{
				"x": -1.6748880985,
				"y": -1.7016113259,
				"z": -1.7768483076,
				"element": "H" 
			},
			{
				"x": -1.2067741357,
				"y": 0.2637165587,
				"z": 0.2036008422,
				"element": "H" 
			},
			{
				"x": 2.9251199906,
				"y": -1.7997638834,
				"z": -2.2536748297,
				"element": "H" 
			},
			{
				"x": 2.961890763,
				"y": 0.1116311921,
				"z": 1.6036081171,
				"element": "H" 
			}
		],
		 "valence_orbital": [ 
			{
				"type": "occ",
				"energy": -0.31807,
				"method": "rhf"
			},
			{
				"type": "occ",
				"energy": -0.29648,
				"method": "rhf"
			},
			{
				"type": "occ",
				"energy": -0.28679,
				"method": "rhf"
			},
			{
				"type": "occ",
				"energy": -0.25166,
				"method": "rhf"
			},
			{
				"type": "occ",
				"energy": -0.218,
				"method": "rhf"
			},
			{
				"type": "unocc",
				"energy": -0.04044,
				"method": "rhf"
			},
			{
				"type": "unocc",
				"energy": -0.00613,
				"method": "rhf"
			},
			{
				"type": "unocc",
				"energy": 0.00774,
				"method": "rhf"
			},
			{
				"type": "unocc",
				"energy": 0.08694,
				"method": "rhf"
			},
			{
				"type": "unocc",
				"energy": 0.1221,
				"method": "rhf"
			}
		],
		"cosmo_sigma_profile": { 
			"-0.025": 0.0,
			"-0.024": 0.0,
			"-0.023": 0.0,
			"-0.022": 0.0,
			"-0.021": 0.0,
			"-0.02": 0.0,
			"-0.019": 0.0,
			"-0.018": 0.0,
			"-0.017": 0.0,
			"-0.016": 0.0,
			"-0.015": 0.0,
			"-0.014": 0.690449455534,
			"-0.013": 1.21150201213,
			"-0.012": 1.05713735904,
			"-0.011": 0.501213794954,
			"-0.01": 0.795428953263,
			"-0.009": 1.51673445477,
			"-0.008": 3.86409618679,
			"-0.007": 4.60339254494,
			"-0.006": 6.25800400764,
			"-0.005": 6.72761815848,
			"-0.004": 10.0325573779,
			"-0.003": 11.7861859999,
			"-0.002": 16.131232496,
			"-0.001": 16.4018292887,
			"0.0": 16.6812299643,
			"0.001": 16.249343923,
			"0.002": 11.5900558977,
			"0.003": 12.3987006763,
			"0.004": 14.9939943936,
			"0.005": 5.63474120109,
			"0.006": 2.694557586,
			"0.007": 2.92582053129,
			"0.008": 2.0983161043,
			"0.009": 2.35873664079,
			"0.01": 1.3749283655,
			"0.011": 1.58185980326,
			"0.012": 2.09807701336,
			"0.013": 1.54529637329,
			"0.014": 0.560957203076,
			"0.015": 0.0,
			"0.016": 0.0,
			"0.017": 0.0,
			"0.018": 0.0,
			"0.019": 0.0,
			"0.02": 0.0,
			"0.021": 0.0,
			"0.022": 0.0,
			"0.023": 0.0,
			"0.024": 0.0,
			"0.025": 0.0
		}
	}
}
