{
	 "smiles": "CC1=C2NC(=O)C(=O)C2=C(Br)C=C1", 
	 "Tm": 513.15, 
	 "num_atms": 19, 
	 "gaussian": { 
		 "optdone": 1, 
		 "sigma_profile": "yes", 
		 "theory": "DFT", 
		 "functional": "B3LYP", 
		 "basiset": "6-31G**", 
		 "properties": { 
			 "R2extent": 4672.5571, 
			 "electric_dipole_moment_norm": 6.78378350038, 
			 "electric_quadrupole_moment_norm": 24.6716954225, 
			 "total_energy": -3123.18150705, 
			 "HOMO_LUMO_gap": 0.14011, 
			 "cosmo_polarized_energy": -16.69, 
			 "cosmo_cavitation_energy": 26.3, 
			 "cosmo_dispersion_energy": -19.62, 
			 "cosmo_repulsion_energy": 1.54, 
			 "cosmo_total_nonelectrostatic_energy": 8.22, 
			 "SMD_solvation_energy": 4.67 
		},
		"coords": [
			{
				"x": 0.0386186698,
				"y": -2.6593143434,
				"z": 3.1253126845,
				"element": "C" 
			},
			{
				"x": -0.3925044867,
				"y": -2.1333715278,
				"z": 1.7799818163,
				"element": "C" 
			},
			{
				"x": -1.399843786,
				"y": -1.1769400428,
				"z": 1.6536369522,
				"element": "C" 
			},
			{
				"x": -2.1321440166,
				"y": -0.5838380235,
				"z": 2.6914088089,
				"element": "N" 
			},
			{
				"x": -3.0617766612,
				"y": 0.3306305387,
				"z": 2.2220156172,
				"element": "C" 
			},
			{
				"x": -3.8315076736,
				"y": 0.9934270438,
				"z": 2.8780556264,
				"element": "O" 
			},
			{
				"x": -2.8931218998,
				"y": 0.3137407378,
				"z": 0.6631782074,
				"element": "C" 
			},
			{
				"x": -3.5466623772,
				"y": 0.995119054,
				"z": -0.0931814934,
				"element": "O" 
			},
			{
				"x": -1.8215320517,
				"y": -0.6683666178,
				"z": 0.4052531296,
				"element": "C" 
			},
			{
				"x": -1.2164738733,
				"y": -1.130346605,
				"z": -0.7621644013,
				"element": "C" 
			},
			{
				"x": -1.7440152345,
				"y": -0.4807393672,
				"z": -2.4639533878,
				"element": "Br" 
			},
			{
				"x": -0.2045708513,
				"y": -2.0876314798,
				"z": -0.675554905,
				"element": "C" 
			},
			{
				"x": 0.1862242994,
				"y": -2.5676163012,
				"z": 0.5771607755,
				"element": "C" 
			},
			{
				"x": 0.4166085,
				"y": -1.8574389712,
				"z": 3.7716556353,
				"element": "H" 
			},
			{
				"x": -0.7906385209,
				"y": -3.1437367359,
				"z": 3.6556922512,
				"element": "H" 
			},
			{
				"x": 0.8361772921,
				"y": -3.3982560527,
				"z": 3.0189665347,
				"element": "H" 
			},
			{
				"x": -2.0119138338,
				"y": -0.785409592,
				"z": 3.6727608728,
				"element": "H" 
			},
			{
				"x": 0.2724616673,
				"y": -2.453615822,
				"z": -1.5767675053,
				"element": "H" 
			},
			{
				"x": 0.976214838,
				"y": -3.312995892,
				"z": 0.6234427808,
				"element": "H" 
			}
		],
		 "valence_orbital": [ 
			{
				"type": "occ",
				"energy": -0.31157,
				"method": "rhf"
			},
			{
				"type": "occ",
				"energy": -0.29229,
				"method": "rhf"
			},
			{
				"type": "occ",
				"energy": -0.26462,
				"method": "rhf"
			},
			{
				"type": "occ",
				"energy": -0.24875,
				"method": "rhf"
			},
			{
				"type": "occ",
				"energy": -0.24124,
				"method": "rhf"
			},
			{
				"type": "unocc",
				"energy": -0.10113,
				"method": "rhf"
			},
			{
				"type": "unocc",
				"energy": -0.02971,
				"method": "rhf"
			},
			{
				"type": "unocc",
				"energy": 0.00071,
				"method": "rhf"
			},
			{
				"type": "unocc",
				"energy": 0.00071,
				"method": "rhf"
			},
			{
				"type": "unocc",
				"energy": 0.05747,
				"method": "rhf"
			}
		],
		"cosmo_sigma_profile": { 
			"-0.025": 0.0,
			"-0.024": 0.0,
			"-0.023": 0.0,
			"-0.022": 0.0,
			"-0.021": 0.0,
			"-0.02": 0.0,
			"-0.019": 0.0,
			"-0.018": 0.0,
			"-0.017": 0.239989916136,
			"-0.016": 0.846361545924,
			"-0.015": 1.00428189381,
			"-0.014": 0.685005283779,
			"-0.013": 0.64967164889,
			"-0.012": 1.3966517523,
			"-0.011": 1.436071632,
			"-0.01": 1.85367204971,
			"-0.009": 1.10084307184,
			"-0.008": 3.39170412644,
			"-0.007": 9.11251285836,
			"-0.006": 11.3041630135,
			"-0.005": 12.8040588454,
			"-0.004": 12.2437828784,
			"-0.003": 13.1789964825,
			"-0.002": 15.5197597953,
			"-0.001": 20.095748569,
			"0.0": 17.7794701164,
			"0.001": 16.0618016818,
			"0.002": 14.3255974828,
			"0.003": 10.1661980795,
			"0.004": 9.26619508939,
			"0.005": 3.93130950014,
			"0.006": 2.41055459562,
			"0.007": 2.844780471,
			"0.008": 5.27433341824,
			"0.009": 5.51142472094,
			"0.01": 8.47100528718,
			"0.011": 8.62433611468,
			"0.012": 2.77511244265,
			"0.013": 0.177265151367,
			"0.014": 0.0,
			"0.015": 0.0,
			"0.016": 0.0,
			"0.017": 0.0,
			"0.018": 0.0,
			"0.019": 0.0,
			"0.02": 0.0,
			"0.021": 0.0,
			"0.022": 0.0,
			"0.023": 0.0,
			"0.024": 0.0,
			"0.025": 0.0
		}
	}
}
