{
	 "smiles": "COC(=O)C1=C(C)C2=C(S1)N=CC(C=O)=C2", 
	 "Tm": 473.15, 
	 "num_atms": 25, 
	 "gaussian": { 
		 "optdone": 1, 
		 "sigma_profile": "yes", 
		 "theory": "DFT", 
		 "functional": "B3LYP", 
		 "basiset": "6-31G**", 
		 "properties": { 
			 "R2extent": 5012.2008, 
			 "electric_dipole_moment_norm": 5.90781374876, 
			 "electric_quadrupole_moment_norm": 10.1377221712, 
			 "total_energy": -1103.20560439, 
			 "HOMO_LUMO_gap": 0.16693, 
			 "cosmo_polarized_energy": -14.78, 
			 "cosmo_cavitation_energy": 31.79, 
			 "cosmo_dispersion_energy": -23.38, 
			 "cosmo_repulsion_energy": 1.74, 
			 "cosmo_total_nonelectrostatic_energy": 10.15, 
			 "SMD_solvation_energy": 6.06 
		},
		"coords": [
			{
				"x": 0.5119179946,
				"y": 3.0661366971,
				"z": 3.9961823164,
				"element": "C" 
			},
			{
				"x": 0.3585315733,
				"y": 2.0468881486,
				"z": 2.9916661769,
				"element": "O" 
			},
			{
				"x": 0.9312566201,
				"y": 2.3312769515,
				"z": 1.801091468,
				"element": "C" 
			},
			{
				"x": 1.5351104156,
				"y": 3.3627621326,
				"z": 1.5740622073,
				"element": "O" 
			},
			{
				"x": 0.7497685142,
				"y": 1.2602777636,
				"z": 0.8035115245,
				"element": "C" 
			},
			{
				"x": 0.1039186988,
				"y": 0.0482778004,
				"z": 0.8953375163,
				"element": "C" 
			},
			{
				"x": -0.6064668712,
				"y": -0.4916363941,
				"z": 2.1078207334,
				"element": "C" 
			},
			{
				"x": 0.190095454,
				"y": -0.6715998369,
				"z": -0.3529020846,
				"element": "C" 
			},
			{
				"x": 0.9098438208,
				"y": 0.0387156193,
				"z": -1.3532382389,
				"element": "C" 
			},
			{
				"x": 1.4783387843,
				"y": 1.5795978434,
				"z": -0.7691645236,
				"element": "S" 
			},
			{
				"x": 1.1460090303,
				"y": -0.3834507047,
				"z": -2.6006739377,
				"element": "N" 
			},
			{
				"x": 0.6553334033,
				"y": -1.5769894345,
				"z": -2.9136137986,
				"element": "C" 
			},
			{
				"x": -0.078693943,
				"y": -2.3877167824,
				"z": -2.0140968188,
				"element": "C" 
			},
			{
				"x": -0.5897483759,
				"y": -3.7061984759,
				"z": -2.4452806877,
				"element": "C" 
			},
			{
				"x": -0.4297866049,
				"y": -4.1797179142,
				"z": -3.553537477,
				"element": "O" 
			},
			{
				"x": -0.3122481627,
				"y": -1.9276099262,
				"z": -0.7207149678,
				"element": "C" 
			},
			{
				"x": 0.0008339362,
				"y": 2.6841502275,
				"z": 4.8795296414,
				"element": "H" 
			},
			{
				"x": 1.5696729586,
				"y": 3.2399319595,
				"z": 4.2071069225,
				"element": "H" 
			},
			{
				"x": 0.0593662768,
				"y": 4.0031189311,
				"z": 3.6633097235,
				"element": "H" 
			},
			{
				"x": -1.0325094319,
				"y": -1.4769885781,
				"z": 1.9068918977,
				"element": "H" 
			},
			{
				"x": -1.4150523252,
				"y": 0.1741085461,
				"z": 2.4211056955,
				"element": "H" 
			},
			{
				"x": 0.0746696242,
				"y": -0.5796092775,
				"z": 2.958405059,
				"element": "H" 
			},
			{
				"x": 0.8338081418,
				"y": -1.9424690752,
				"z": -3.9215969697,
				"element": "H" 
			},
			{
				"x": -1.1526692181,
				"y": -4.2605505444,
				"z": -1.6605617842,
				"element": "H" 
			},
			{
				"x": -0.874600314,
				"y": -2.5403056766,
				"z": -0.0196395941,
				"element": "H" 
			}
		],
		 "valence_orbital": [ 
			{
				"type": "occ",
				"energy": -0.29046,
				"method": "rhf"
			},
			{
				"type": "occ",
				"energy": -0.28506,
				"method": "rhf"
			},
			{
				"type": "occ",
				"energy": -0.26245,
				"method": "rhf"
			},
			{
				"type": "occ",
				"energy": -0.26114,
				"method": "rhf"
			},
			{
				"type": "occ",
				"energy": -0.24667,
				"method": "rhf"
			},
			{
				"type": "unocc",
				"energy": -0.07974,
				"method": "rhf"
			},
			{
				"type": "unocc",
				"energy": -0.07413,
				"method": "rhf"
			},
			{
				"type": "unocc",
				"energy": -0.0191,
				"method": "rhf"
			},
			{
				"type": "unocc",
				"energy": 0.01493,
				"method": "rhf"
			},
			{
				"type": "unocc",
				"energy": 0.03066,
				"method": "rhf"
			}
		],
		"cosmo_sigma_profile": { 
			"-0.025": 0.0,
			"-0.024": 0.0,
			"-0.023": 0.0,
			"-0.022": 0.0,
			"-0.021": 0.0,
			"-0.02": 0.0,
			"-0.019": 0.0,
			"-0.018": 0.0,
			"-0.017": 0.0,
			"-0.016": 0.0,
			"-0.015": 0.0,
			"-0.014": 0.0,
			"-0.013": 0.0,
			"-0.012": 0.0,
			"-0.011": 0.0,
			"-0.01": 1.09138580467,
			"-0.009": 4.41696972144,
			"-0.008": 4.12013940231,
			"-0.007": 6.9084982246,
			"-0.006": 11.2205053219,
			"-0.005": 15.7731698831,
			"-0.004": 18.6010164691,
			"-0.003": 21.4789282253,
			"-0.002": 26.7288567323,
			"-0.001": 33.4923789807,
			"0.0": 20.2384366043,
			"0.001": 15.6990687357,
			"0.002": 13.213627862,
			"0.003": 13.5273426921,
			"0.004": 7.25262961122,
			"0.005": 4.33863891528,
			"0.006": 4.14875105407,
			"0.007": 4.67623420213,
			"0.008": 4.37932832739,
			"0.009": 4.47633340429,
			"0.01": 6.26354476879,
			"0.011": 8.96721875518,
			"0.012": 4.61652003067,
			"0.013": 1.16602982444,
			"0.014": 0.417916292709,
			"0.015": 0.0348087661529,
			"0.016": 0.0,
			"0.017": 0.0,
			"0.018": 0.0,
			"0.019": 0.0,
			"0.02": 0.0,
			"0.021": 0.0,
			"0.022": 0.0,
			"0.023": 0.0,
			"0.024": 0.0,
			"0.025": 0.0
		}
	}
}
