{
	 "smiles": "NC1=NC=CC(CSCCO)=C1", 
	 "Tm": 364.15, 
	 "num_atms": 24, 
	 "gaussian": { 
		 "optdone": 1, 
		 "sigma_profile": "yes", 
		 "theory": "DFT", 
		 "functional": "B3LYP", 
		 "basiset": "6-31G**", 
		 "properties": { 
			 "R2extent": 2927.6389, 
			 "electric_dipole_moment_norm": 1.90567005014, 
			 "electric_quadrupole_moment_norm": 11.0179555182, 
			 "total_energy": -894.993250385, 
			 "HOMO_LUMO_gap": 0.18938, 
			 "cosmo_polarized_energy": -15.28, 
			 "cosmo_cavitation_energy": 29.05, 
			 "cosmo_dispersion_energy": -20.84, 
			 "cosmo_repulsion_energy": 1.67, 
			 "cosmo_total_nonelectrostatic_energy": 9.89, 
			 "SMD_solvation_energy": 2.99 
		},
		"coords": [
			{
				"x": 4.1256448417,
				"y": -0.1111132983,
				"z": -0.3934457535,
				"element": "N" 
			},
			{
				"x": 2.8192533179,
				"y": -0.5439776821,
				"z": -0.2631468491,
				"element": "C" 
			},
			{
				"x": 2.3993517199,
				"y": -1.4300699096,
				"z": -1.1836384278,
				"element": "N" 
			},
			{
				"x": 1.1259104471,
				"y": -1.8296825374,
				"z": -1.1143470947,
				"element": "C" 
			},
			{
				"x": 0.2178673839,
				"y": -1.3943861031,
				"z": -0.1519640143,
				"element": "C" 
			},
			{
				"x": 0.6581410962,
				"y": -0.4728679636,
				"z": 0.8106096746,
				"element": "C" 
			},
			{
				"x": -0.278799947,
				"y": 0.0216018379,
				"z": 1.8868764186,
				"element": "C" 
			},
			{
				"x": -0.67441956,
				"y": 1.8238478123,
				"z": 1.8673042989,
				"element": "S" 
			},
			{
				"x": -1.660334343,
				"y": 1.9890940737,
				"z": 0.3294051445,
				"element": "C" 
			},
			{
				"x": -0.8304384812,
				"y": 2.2852778158,
				"z": -0.9161340104,
				"element": "C" 
			},
			{
				"x": -1.7538082913,
				"y": 2.4650862742,
				"z": -1.9851485817,
				"element": "O" 
			},
			{
				"x": 1.9808375142,
				"y": -0.0418892016,
				"z": 0.7501681356,
				"element": "C" 
			},
			{
				"x": 4.5852388597,
				"y": 0.2360720289,
				"z": 0.4346883386,
				"element": "H" 
			},
			{
				"x": 4.695921613,
				"y": -0.698887618,
				"z": -0.984950739,
				"element": "H" 
			},
			{
				"x": 0.8145907808,
				"y": -2.546304367,
				"z": -1.8732596714,
				"element": "H" 
			},
			{
				"x": -0.8016220737,
				"y": -1.766748859,
				"z": -0.1465271209,
				"element": "H" 
			},
			{
				"x": -1.2176054747,
				"y": -0.5391629211,
				"z": 1.8653939725,
				"element": "H" 
			},
			{
				"x": 0.16648885,
				"y": -0.124986198,
				"z": 2.8764161469,
				"element": "H" 
			},
			{
				"x": -2.2600990256,
				"y": 1.0854669459,
				"z": 0.1832541796,
				"element": "H" 
			},
			{
				"x": -2.3556279427,
				"y": 2.8152126228,
				"z": 0.50505168,
				"element": "H" 
			},
			{
				"x": -0.1387557618,
				"y": 1.4556199687,
				"z": -1.1130588332,
				"element": "H" 
			},
			{
				"x": -0.2270183199,
				"y": 3.1893803652,
				"z": -0.7425971828,
				"element": "H" 
			},
			{
				"x": -1.2481282826,
				"y": 2.5935699623,
				"z": -2.7970829087,
				"element": "H" 
			},
			{
				"x": 2.3558110792,
				"y": 0.6889469511,
				"z": 1.4613331979,
				"element": "H" 
			}
		],
		 "valence_orbital": [ 
			{
				"type": "occ",
				"energy": -0.27207,
				"method": "rhf"
			},
			{
				"type": "occ",
				"energy": -0.26322,
				"method": "rhf"
			},
			{
				"type": "occ",
				"energy": -0.25626,
				"method": "rhf"
			},
			{
				"type": "occ",
				"energy": -0.22562,
				"method": "rhf"
			},
			{
				"type": "occ",
				"energy": -0.21408,
				"method": "rhf"
			},
			{
				"type": "unocc",
				"energy": -0.0247,
				"method": "rhf"
			},
			{
				"type": "unocc",
				"energy": 0.00878,
				"method": "rhf"
			},
			{
				"type": "unocc",
				"energy": 0.04234,
				"method": "rhf"
			},
			{
				"type": "unocc",
				"energy": 0.06964,
				"method": "rhf"
			},
			{
				"type": "unocc",
				"energy": 0.08462,
				"method": "rhf"
			}
		],
		"cosmo_sigma_profile": { 
			"-0.025": 0.0,
			"-0.024": 0.0,
			"-0.023": 0.0,
			"-0.022": 0.0,
			"-0.021": 0.0,
			"-0.02": 0.0,
			"-0.019": 0.0,
			"-0.018": 0.0,
			"-0.017": 0.0,
			"-0.016": 0.388535677208,
			"-0.015": 1.20520091403,
			"-0.014": 0.920796526561,
			"-0.013": 2.26872286242,
			"-0.012": 2.71932646641,
			"-0.011": 3.10483282449,
			"-0.01": 3.59263178196,
			"-0.009": 3.3046614822,
			"-0.008": 3.62811284632,
			"-0.007": 4.79218793133,
			"-0.006": 13.1524981179,
			"-0.005": 17.6230294221,
			"-0.004": 13.865394545,
			"-0.003": 17.5772678465,
			"-0.002": 15.0064595186,
			"-0.001": 12.4073186427,
			"0.0": 12.025057987,
			"0.001": 12.6895068859,
			"0.002": 12.4439592456,
			"0.003": 13.6132927853,
			"0.004": 11.4065511612,
			"0.005": 9.05324448986,
			"0.006": 7.86213881557,
			"0.007": 5.6830053756,
			"0.008": 6.10475380516,
			"0.009": 5.61952169393,
			"0.01": 4.49941863633,
			"0.011": 2.97160845674,
			"0.012": 3.2846497703,
			"0.013": 3.20179947747,
			"0.014": 2.78551593572,
			"0.015": 0.564398269713,
			"0.016": 0.785225313342,
			"0.017": 0.0533999284559,
			"0.018": 0.0,
			"0.019": 0.0,
			"0.02": 0.0,
			"0.021": 0.0,
			"0.022": 0.0,
			"0.023": 0.0,
			"0.024": 0.0,
			"0.025": 0.0
		}
	}
}
