{
	 "smiles": "NC(=O)C1=C(O)N=C(O)N=N1", 
	 "Tm": 568.15, 
	 "num_atms": 15, 
	 "gaussian": { 
		 "optdone": 1, 
		 "sigma_profile": "yes", 
		 "theory": "DFT", 
		 "functional": "B3LYP", 
		 "basiset": "6-31G**", 
		 "properties": { 
			 "R2extent": 2432.2228, 
			 "electric_dipole_moment_norm": 8.09581999491, 
			 "electric_quadrupole_moment_norm": 14.3250469025, 
			 "total_energy": -599.486489114, 
			 "HOMO_LUMO_gap": 0.17116, 
			 "cosmo_polarized_energy": -28.22, 
			 "cosmo_cavitation_energy": 20.7, 
			 "cosmo_dispersion_energy": -16.03, 
			 "cosmo_repulsion_energy": 1.31, 
			 "cosmo_total_nonelectrostatic_energy": 5.98, 
			 "SMD_solvation_energy": 2.5 
		},
		"coords": [
			{
				"x": 0.3156628364,
				"y": 1.020465805,
				"z": -3.3266069196,
				"element": "N" 
			},
			{
				"x": -0.1353562942,
				"y": 1.145501317,
				"z": -2.0446456701,
				"element": "C" 
			},
			{
				"x": -0.1770921839,
				"y": 2.2143341043,
				"z": -1.4609499524,
				"element": "O" 
			},
			{
				"x": -0.5902606643,
				"y": -0.1369117568,
				"z": -1.3645147316,
				"element": "C" 
			},
			{
				"x": -0.601041001,
				"y": -1.4428015102,
				"z": -1.9100311196,
				"element": "C" 
			},
			{
				"x": -0.1819825669,
				"y": -1.6885704806,
				"z": -3.1656100179,
				"element": "O" 
			},
			{
				"x": -1.0244496672,
				"y": -2.4828080068,
				"z": -1.2090790357,
				"element": "N" 
			},
			{
				"x": -1.433707708,
				"y": -2.2043954593,
				"z": 0.0336867649,
				"element": "C" 
			},
			{
				"x": -1.8719877334,
				"y": -3.2126325103,
				"z": 0.7897996351,
				"element": "O" 
			},
			{
				"x": -1.4517665178,
				"y": -0.9967426607,
				"z": 0.6147473719,
				"element": "N" 
			},
			{
				"x": -1.0234270165,
				"y": 0.0225560817,
				"z": -0.1087526253,
				"element": "N" 
			},
			{
				"x": 0.354361526,
				"y": 0.1412213358,
				"z": -3.8156469293,
				"element": "H" 
			},
			{
				"x": 0.6187034693,
				"y": 1.8684742628,
				"z": -3.7799387077,
				"element": "H" 
			},
			{
				"x": -0.2800572549,
				"y": -2.6436651893,
				"z": -3.317847683,
				"element": "H" 
			},
			{
				"x": -1.8089992237,
				"y": -4.0226253327,
				"z": 0.2609896203,
				"element": "H" 
			}
		],
		 "valence_orbital": [ 
			{
				"type": "occ",
				"energy": -0.33512,
				"method": "rhf"
			},
			{
				"type": "occ",
				"energy": -0.27718,
				"method": "rhf"
			},
			{
				"type": "occ",
				"energy": -0.26677,
				"method": "rhf"
			},
			{
				"type": "occ",
				"energy": -0.25438,
				"method": "rhf"
			},
			{
				"type": "occ",
				"energy": -0.24824,
				"method": "rhf"
			},
			{
				"type": "unocc",
				"energy": -0.07708,
				"method": "rhf"
			},
			{
				"type": "unocc",
				"energy": -0.04602,
				"method": "rhf"
			},
			{
				"type": "unocc",
				"energy": 0.03985,
				"method": "rhf"
			},
			{
				"type": "unocc",
				"energy": 0.04739,
				"method": "rhf"
			},
			{
				"type": "unocc",
				"energy": 0.06135,
				"method": "rhf"
			}
		],
		"cosmo_sigma_profile": { 
			"-0.025": 0.0,
			"-0.024": 0.0,
			"-0.023": 0.0,
			"-0.022": 0.0,
			"-0.021": 0.0,
			"-0.02": 0.63635257863,
			"-0.019": 1.70785742766,
			"-0.018": 1.88443802686,
			"-0.017": 1.74260845583,
			"-0.016": 1.07313307082,
			"-0.015": 1.44145051487,
			"-0.014": 2.65155845049,
			"-0.013": 2.73965716596,
			"-0.012": 2.94338246669,
			"-0.011": 2.22152942732,
			"-0.01": 3.98339674068,
			"-0.009": 3.54056858615,
			"-0.008": 3.4006831907,
			"-0.007": 5.15221409521,
			"-0.006": 6.39782863431,
			"-0.005": 9.68328002987,
			"-0.004": 9.50417162007,
			"-0.003": 9.17860146925,
			"-0.002": 7.80164214544,
			"-0.001": 6.69499618781,
			"0.0": 7.40829984786,
			"0.001": 5.37024723401,
			"0.002": 8.45219851905,
			"0.003": 4.94358534118,
			"0.004": 3.9697723261,
			"0.005": 4.42107181361,
			"0.006": 4.19338091209,
			"0.007": 3.43066040844,
			"0.008": 4.80006278356,
			"0.009": 5.13280163866,
			"0.01": 3.85563640932,
			"0.011": 4.50185982789,
			"0.012": 4.31175949308,
			"0.013": 7.30694563818,
			"0.014": 4.81872599889,
			"0.015": 1.58827547112,
			"0.016": 1.37552327991,
			"0.017": 1.06849222352,
			"0.018": 0.65633793501,
			"0.019": 0.00550762791442,
			"0.02": 0.0,
			"0.021": 0.0,
			"0.022": 0.0,
			"0.023": 0.0,
			"0.024": 0.0,
			"0.025": 0.0
		}
	}
}
