{
	 "smiles": "NC1=NC(=CC=N1)C1=CN=CC=C1", 
	 "Tm": 462.15, 
	 "num_atms": 21, 
	 "gaussian": { 
		 "optdone": 1, 
		 "sigma_profile": "yes", 
		 "theory": "DFT", 
		 "functional": "B3LYP", 
		 "basiset": "6-31G**", 
		 "properties": { 
			 "R2extent": 3203.0109, 
			 "electric_dipole_moment_norm": 2.03055899939, 
			 "electric_quadrupole_moment_norm": 15.6872140991, 
			 "total_energy": -566.795311569, 
			 "HOMO_LUMO_gap": 0.17017, 
			 "cosmo_polarized_energy": -12.79, 
			 "cosmo_cavitation_energy": 25.65, 
			 "cosmo_dispersion_energy": -19.32, 
			 "cosmo_repulsion_energy": 1.51, 
			 "cosmo_total_nonelectrostatic_energy": 7.85, 
			 "SMD_solvation_energy": 0.5 
		},
		"coords": [
			{
				"x": -0.159787676,
				"y": -1.43013429,
				"z": -3.0949606031,
				"element": "N" 
			},
			{
				"x": 0.5073293562,
				"y": -0.4135628494,
				"z": -2.4774418295,
				"element": "C" 
			},
			{
				"x": -0.0923753842,
				"y": 0.1442994859,
				"z": -1.4113465176,
				"element": "N" 
			},
			{
				"x": 0.5377600237,
				"y": 1.173811121,
				"z": -0.8260457236,
				"element": "C" 
			},
			{
				"x": 1.7651675831,
				"y": 1.6437700477,
				"z": -1.3175797879,
				"element": "C" 
			},
			{
				"x": 2.2956162778,
				"y": 0.971901089,
				"z": -2.4162000198,
				"element": "C" 
			},
			{
				"x": 1.6952988684,
				"y": -0.0585045594,
				"z": -3.0111880631,
				"element": "N" 
			},
			{
				"x": -0.136465217,
				"y": 1.7839154118,
				"z": 0.3474356864,
				"element": "C" 
			},
			{
				"x": -1.5096244618,
				"y": 1.5699836345,
				"z": 0.5633491672,
				"element": "C" 
			},
			{
				"x": -2.1985027633,
				"y": 2.0839961217,
				"z": 1.5859926115,
				"element": "N" 
			},
			{
				"x": -1.5281298808,
				"y": 2.8466412087,
				"z": 2.459887216,
				"element": "C" 
			},
			{
				"x": -0.1648945247,
				"y": 3.1235029425,
				"z": 2.3505741834,
				"element": "C" 
			},
			{
				"x": 0.5397829344,
				"y": 2.5830351257,
				"z": 1.2788311677,
				"element": "C" 
			},
			{
				"x": 0.353448402,
				"y": -1.9852292281,
				"z": -3.7601813252,
				"element": "H" 
			},
			{
				"x": -0.9362162441,
				"y": -1.8447259846,
				"z": -2.6058477258,
				"element": "H" 
			},
			{
				"x": 2.2781500813,
				"y": 2.4933277715,
				"z": -0.8855488116,
				"element": "H" 
			},
			{
				"x": 3.2509986355,
				"y": 1.278096623,
				"z": -2.8407456672,
				"element": "H" 
			},
			{
				"x": -2.0601539758,
				"y": 0.9516401732,
				"z": -0.1395073151,
				"element": "H" 
			},
			{
				"x": -2.1078799502,
				"y": 3.2517405856,
				"z": 3.2875942401,
				"element": "H" 
			},
			{
				"x": 0.3320225984,
				"y": 3.7407229928,
				"z": 3.0924319022,
				"element": "H" 
			},
			{
				"x": 1.6058553169,
				"y": 2.7644725769,
				"z": 1.182897215,
				"element": "H" 
			}
		],
		 "valence_orbital": [ 
			{
				"type": "occ",
				"energy": -0.28606,
				"method": "rhf"
			},
			{
				"type": "occ",
				"energy": -0.25846,
				"method": "rhf"
			},
			{
				"type": "occ",
				"energy": -0.2561,
				"method": "rhf"
			},
			{
				"type": "occ",
				"energy": -0.24337,
				"method": "rhf"
			},
			{
				"type": "occ",
				"energy": -0.22751,
				"method": "rhf"
			},
			{
				"type": "unocc",
				"energy": -0.05734,
				"method": "rhf"
			},
			{
				"type": "unocc",
				"energy": -0.02545,
				"method": "rhf"
			},
			{
				"type": "unocc",
				"energy": -0.0044,
				"method": "rhf"
			},
			{
				"type": "unocc",
				"energy": 0.02315,
				"method": "rhf"
			},
			{
				"type": "unocc",
				"energy": 0.08808,
				"method": "rhf"
			}
		],
		"cosmo_sigma_profile": { 
			"-0.025": 0.0,
			"-0.024": 0.0,
			"-0.023": 0.0,
			"-0.022": 0.0,
			"-0.021": 0.0,
			"-0.02": 0.0,
			"-0.019": 0.0,
			"-0.018": 0.0,
			"-0.017": 0.0,
			"-0.016": 0.0,
			"-0.015": 0.0,
			"-0.014": 0.545681454143,
			"-0.013": 2.01930985256,
			"-0.012": 2.71370612471,
			"-0.011": 1.42618636136,
			"-0.01": 1.39666859595,
			"-0.009": 2.86628870233,
			"-0.008": 4.96661993608,
			"-0.007": 9.97648846187,
			"-0.006": 12.709061034,
			"-0.005": 10.7567444839,
			"-0.004": 9.51675454188,
			"-0.003": 9.56351440316,
			"-0.002": 8.40428263131,
			"-0.001": 11.129072216,
			"0.0": 17.789563793,
			"0.001": 24.2090782257,
			"0.002": 23.153944289,
			"0.003": 8.50640586615,
			"0.004": 6.01337397967,
			"0.005": 7.44441902502,
			"0.006": 4.30911712421,
			"0.007": 5.70109727103,
			"0.008": 5.3452158211,
			"0.009": 3.3101870735,
			"0.01": 2.4303865781,
			"0.011": 1.52658662108,
			"0.012": 2.59739852715,
			"0.013": 1.84177261073,
			"0.014": 1.31040634308,
			"0.015": 1.8252519894,
			"0.016": 0.861168821586,
			"0.017": 0.215009581325,
			"0.018": 0.0,
			"0.019": 0.0,
			"0.02": 0.0,
			"0.021": 0.0,
			"0.022": 0.0,
			"0.023": 0.0,
			"0.024": 0.0,
			"0.025": 0.0
		}
	}
}
