{
	 "smiles": "CCCCCCCCCCC", 
	 "Tm": 247.35, 
	 "num_atms": 35, 
	 "gaussian": { 
		 "optdone": 1, 
		 "sigma_profile": "yes", 
		 "theory": "DFT", 
		 "functional": "B3LYP", 
		 "basiset": "6-31G**", 
		 "properties": { 
			 "R2extent": 3665.1731, 
			 "electric_dipole_moment_norm": 0.0300154959979, 
			 "electric_quadrupole_moment_norm": 0.258684344327, 
			 "total_energy": -433.672859844, 
			 "HOMO_LUMO_gap": 0.37289, 
			 "cosmo_polarized_energy": -0.79, 
			 "cosmo_cavitation_energy": 34.51, 
			 "cosmo_dispersion_energy": -23.74, 
			 "cosmo_repulsion_energy": 2.0, 
			 "cosmo_total_nonelectrostatic_energy": 12.77, 
			 "SMD_solvation_energy": 4.86 
		},
		"coords": [
			{
				"x": 0.0734468198,
				"y": 3.8050528345,
				"z": 1.4427236697,
				"element": "C" 
			},
			{
				"x": -1.4545964777,
				"y": 3.6795814212,
				"z": 1.4774459439,
				"element": "C" 
			},
			{
				"x": -2.0265154753,
				"y": 2.6012622984,
				"z": 0.5416160856,
				"element": "C" 
			},
			{
				"x": -1.6404960813,
				"y": 1.1633127851,
				"z": 0.9199265443,
				"element": "C" 
			},
			{
				"x": -2.3399363784,
				"y": 0.0769228542,
				"z": 0.0835707703,
				"element": "C" 
			},
			{
				"x": -2.0294946271,
				"y": 0.0872579484,
				"z": -1.4255860223,
				"element": "C" 
			},
			{
				"x": -0.5512956839,
				"y": -0.1011758778,
				"z": -1.809407979,
				"element": "C" 
			},
			{
				"x": 0.055143249,
				"y": -1.4483454306,
				"z": -1.3913099296,
				"element": "C" 
			},
			{
				"x": 1.4987937972,
				"y": -1.6321569482,
				"z": -1.8809101647,
				"element": "C" 
			},
			{
				"x": 2.1272621324,
				"y": -2.993191237,
				"z": -1.5384197869,
				"element": "C" 
			},
			{
				"x": 2.3406422856,
				"y": -3.2366265635,
				"z": -0.0394492832,
				"element": "C" 
			},
			{
				"x": 0.5669751121,
				"y": 2.8892621053,
				"z": 1.7838452853,
				"element": "H" 
			},
			{
				"x": 0.4285473937,
				"y": 4.0134360668,
				"z": 0.4264521461,
				"element": "H" 
			},
			{
				"x": 0.4168301034,
				"y": 4.6211535281,
				"z": 2.0871625342,
				"element": "H" 
			},
			{
				"x": -1.8962466402,
				"y": 4.6478448101,
				"z": 1.2086685123,
				"element": "H" 
			},
			{
				"x": -1.7804914098,
				"y": 3.4734955674,
				"z": 2.5064594986,
				"element": "H" 
			},
			{
				"x": -1.7051591912,
				"y": 2.8175431511,
				"z": -0.4863409073,
				"element": "H" 
			},
			{
				"x": -3.1226716401,
				"y": 2.68101514,
				"z": 0.5392756066,
				"element": "H" 
			},
			{
				"x": -1.8922125335,
				"y": 0.9996637701,
				"z": 1.9771675255,
				"element": "H" 
			},
			{
				"x": -0.5527259526,
				"y": 1.0379734937,
				"z": 0.8504192912,
				"element": "H" 
			},
			{
				"x": -3.4264368483,
				"y": 0.1801510006,
				"z": 0.2108112361,
				"element": "H" 
			},
			{
				"x": -2.0845858335,
				"y": -0.9057192675,
				"z": 0.5000609445,
				"element": "H" 
			},
			{
				"x": -2.6206828925,
				"y": -0.7063853733,
				"z": -1.902915713,
				"element": "H" 
			},
			{
				"x": -2.387952281,
				"y": 1.0276240398,
				"z": -1.8630706001,
				"element": "H" 
			},
			{
				"x": 0.0521002827,
				"y": 0.7133798072,
				"z": -1.3858928788,
				"element": "H" 
			},
			{
				"x": -0.4629657942,
				"y": 0.0017672683,
				"z": -2.8996962736,
				"element": "H" 
			},
			{
				"x": -0.5671835684,
				"y": -2.2638656171,
				"z": -1.7888704345,
				"element": "H" 
			},
			{
				"x": 0.0210587712,
				"y": -1.5450140223,
				"z": -0.2993411829,
				"element": "H" 
			},
			{
				"x": 2.1270077887,
				"y": -0.8303635654,
				"z": -1.4659676291,
				"element": "H" 
			},
			{
				"x": 1.5200860982,
				"y": -1.4979584892,
				"z": -2.9711795155,
				"element": "H" 
			},
			{
				"x": 1.4998245498,
				"y": -3.7944185052,
				"z": -1.9529100702,
				"element": "H" 
			},
			{
				"x": 3.0944392042,
				"y": -3.0714503597,
				"z": -2.0515049732,
				"element": "H" 
			},
			{
				"x": 2.9671271024,
				"y": -2.4523277451,
				"z": 0.4017163687,
				"element": "H" 
			},
			{
				"x": 2.8380069858,
				"y": -4.1961464475,
				"z": 0.1371446048,
				"element": "H" 
			},
			{
				"x": 1.3947576326,
				"y": -3.2526544409,
				"z": 0.5116067763,
				"element": "H" 
			}
		],
		 "valence_orbital": [ 
			{
				"type": "occ",
				"energy": -0.31645,
				"method": "rhf"
			},
			{
				"type": "occ",
				"energy": -0.30962,
				"method": "rhf"
			},
			{
				"type": "occ",
				"energy": -0.30347,
				"method": "rhf"
			},
			{
				"type": "occ",
				"energy": -0.29981,
				"method": "rhf"
			},
			{
				"type": "occ",
				"energy": -0.29519,
				"method": "rhf"
			},
			{
				"type": "unocc",
				"energy": 0.0777,
				"method": "rhf"
			},
			{
				"type": "unocc",
				"energy": 0.09508,
				"method": "rhf"
			},
			{
				"type": "unocc",
				"energy": 0.10495,
				"method": "rhf"
			},
			{
				"type": "unocc",
				"energy": 0.11079,
				"method": "rhf"
			},
			{
				"type": "unocc",
				"energy": 0.11672,
				"method": "rhf"
			}
		],
		"cosmo_sigma_profile": { 
			"-0.025": 0.0,
			"-0.024": 0.0,
			"-0.023": 0.0,
			"-0.022": 0.0,
			"-0.021": 0.0,
			"-0.02": 0.0,
			"-0.019": 0.0,
			"-0.018": 0.0,
			"-0.017": 0.0,
			"-0.016": 0.0,
			"-0.015": 0.0,
			"-0.014": 0.0,
			"-0.013": 0.0,
			"-0.012": 0.0,
			"-0.011": 0.0,
			"-0.01": 0.0,
			"-0.009": 0.0,
			"-0.008": 0.0,
			"-0.007": 0.0,
			"-0.006": 0.0,
			"-0.005": 0.0,
			"-0.004": 0.0,
			"-0.003": 2.48233688442,
			"-0.002": 30.4825846742,
			"-0.001": 60.4378217175,
			"0.0": 71.6835196464,
			"0.001": 67.8528381158,
			"0.002": 29.4771630216,
			"0.003": 1.03648485304,
			"0.004": 0.0,
			"0.005": 0.0,
			"0.006": 0.0,
			"0.007": 0.0,
			"0.008": 0.0,
			"0.009": 0.0,
			"0.01": 0.0,
			"0.011": 0.0,
			"0.012": 0.0,
			"0.013": 0.0,
			"0.014": 0.0,
			"0.015": 0.0,
			"0.016": 0.0,
			"0.017": 0.0,
			"0.018": 0.0,
			"0.019": 0.0,
			"0.02": 0.0,
			"0.021": 0.0,
			"0.022": 0.0,
			"0.023": 0.0,
			"0.024": 0.0,
			"0.025": 0.0
		}
	}
}
