{
	 "smiles": "CC(C)C(N)C1=NNN=N1", 
	 "Tm": 546.15, 
	 "num_atms": 21, 
	 "gaussian": { 
		 "optdone": 1, 
		 "sigma_profile": "yes", 
		 "theory": "DFT", 
		 "functional": "B3LYP", 
		 "basiset": "6-31G**", 
		 "properties": { 
			 "R2extent": 2177.1356, 
			 "electric_dipole_moment_norm": 1.39297346708, 
			 "electric_quadrupole_moment_norm": 13.4198163914, 
			 "total_energy": -470.869032146, 
			 "HOMO_LUMO_gap": 0.21029, 
			 "cosmo_polarized_energy": -13.7, 
			 "cosmo_cavitation_energy": 23.67, 
			 "cosmo_dispersion_energy": -17.44, 
			 "cosmo_repulsion_energy": 1.43, 
			 "cosmo_total_nonelectrostatic_energy": 7.67, 
			 "SMD_solvation_energy": 0.97 
		},
		"coords": [
			{
				"x": 0.7546365429,
				"y": -2.7508905165,
				"z": 0.1721084903,
				"element": "C" 
			},
			{
				"x": 1.1722195616,
				"y": -1.41799651,
				"z": 0.8115706043,
				"element": "C" 
			},
			{
				"x": 2.4923145878,
				"y": -1.5863676837,
				"z": 1.5796540089,
				"element": "C" 
			},
			{
				"x": 1.2803216417,
				"y": -0.2993815945,
				"z": -0.2508366403,
				"element": "C" 
			},
			{
				"x": 0.0664488946,
				"y": -0.2356437589,
				"z": -1.0886060521,
				"element": "N" 
			},
			{
				"x": 1.4594268824,
				"y": 1.0695005046,
				"z": 0.352346117,
				"element": "C" 
			},
			{
				"x": 1.2267579357,
				"y": 1.4096240457,
				"z": 1.6176553003,
				"element": "N" 
			},
			{
				"x": 1.479075298,
				"y": 2.7146372952,
				"z": 1.582677578,
				"element": "N" 
			},
			{
				"x": 1.8403539228,
				"y": 3.1824726436,
				"z": 0.3929276465,
				"element": "N" 
			},
			{
				"x": 1.8328646891,
				"y": 2.1429237794,
				"z": -0.4014709245,
				"element": "N" 
			},
			{
				"x": 0.7219231753,
				"y": -3.5411637897,
				"z": 0.9289023161,
				"element": "H" 
			},
			{
				"x": 1.4707423282,
				"y": -3.0664416858,
				"z": -0.5982427414,
				"element": "H" 
			},
			{
				"x": -0.2387692758,
				"y": -2.6890630235,
				"z": -0.2805025411,
				"element": "H" 
			},
			{
				"x": 0.3873327028,
				"y": -1.1176403198,
				"z": 1.5161934156,
				"element": "H" 
			},
			{
				"x": 2.3954696061,
				"y": -2.3689801298,
				"z": 2.3391721901,
				"element": "H" 
			},
			{
				"x": 2.7904462381,
				"y": -0.6660463563,
				"z": 2.0878865699,
				"element": "H" 
			},
			{
				"x": 3.3047777701,
				"y": -1.8822590456,
				"z": 0.9043292916,
				"element": "H" 
			},
			{
				"x": 2.1905544454,
				"y": -0.4896307547,
				"z": -0.8491214679,
				"element": "H" 
			},
			{
				"x": 0.0484462247,
				"y": -1.0372480731,
				"z": -1.7137471233,
				"element": "H" 
			},
			{
				"x": 0.125752711,
				"y": 0.5863883518,
				"z": -1.6861233249,
				"element": "H" 
			},
			{
				"x": 1.4077041175,
				"y": 3.3084066215,
				"z": 2.3978272868,
				"element": "H" 
			}
		],
		 "valence_orbital": [ 
			{
				"type": "occ",
				"energy": -0.32659,
				"method": "rhf"
			},
			{
				"type": "occ",
				"energy": -0.31831,
				"method": "rhf"
			},
			{
				"type": "occ",
				"energy": -0.29604,
				"method": "rhf"
			},
			{
				"type": "occ",
				"energy": -0.29373,
				"method": "rhf"
			},
			{
				"type": "occ",
				"energy": -0.2404,
				"method": "rhf"
			},
			{
				"type": "unocc",
				"energy": -0.03011,
				"method": "rhf"
			},
			{
				"type": "unocc",
				"energy": 0.02363,
				"method": "rhf"
			},
			{
				"type": "unocc",
				"energy": 0.06426,
				"method": "rhf"
			},
			{
				"type": "unocc",
				"energy": 0.08636,
				"method": "rhf"
			},
			{
				"type": "unocc",
				"energy": 0.11559,
				"method": "rhf"
			}
		],
		"cosmo_sigma_profile": { 
			"-0.025": 0.0,
			"-0.024": 0.0,
			"-0.023": 0.0,
			"-0.022": 0.0,
			"-0.021": 0.0,
			"-0.02": 0.222214325885,
			"-0.019": 1.81674569527,
			"-0.018": 1.80832720844,
			"-0.017": 0.982454083647,
			"-0.016": 0.551965357537,
			"-0.015": 1.43164898547,
			"-0.014": 1.08185989517,
			"-0.013": 0.308058864034,
			"-0.012": 0.43435767275,
			"-0.011": 1.13216632748,
			"-0.01": 2.23604335729,
			"-0.009": 2.0910229017,
			"-0.008": 2.90148655104,
			"-0.007": 3.86380732601,
			"-0.006": 3.92056274574,
			"-0.005": 3.29436074958,
			"-0.004": 5.87844063835,
			"-0.003": 19.589339215,
			"-0.002": 19.5143430949,
			"-0.001": 18.8152075149,
			"0.0": 16.9306782901,
			"0.001": 19.2162716571,
			"0.002": 8.56164003592,
			"0.003": 4.98576855837,
			"0.004": 4.5162094895,
			"0.005": 4.38000005996,
			"0.006": 4.82427682117,
			"0.007": 4.09810800052,
			"0.008": 4.90947751984,
			"0.009": 4.78667875973,
			"0.01": 4.47893208083,
			"0.011": 3.16183978074,
			"0.012": 3.16954530419,
			"0.013": 1.50118688688,
			"0.014": 1.10848933434,
			"0.015": 0.289908322195,
			"0.016": 0.681774722999,
			"0.017": 0.791551065951,
			"0.018": 0.314005016441,
			"0.019": 0.325491812917,
			"0.02": 0.0,
			"0.021": 0.0,
			"0.022": 0.0,
			"0.023": 0.0,
			"0.024": 0.0,
			"0.025": 0.0
		}
	}
}
