{
	 "smiles": "CS(=O)(=O)C1=NC=CN1", 
	 "Tm": 480.15, 
	 "num_atms": 15, 
	 "gaussian": { 
		 "optdone": 1, 
		 "sigma_profile": "yes", 
		 "theory": "DFT", 
		 "functional": "B3LYP", 
		 "basiset": "6-31G**", 
		 "properties": { 
			 "R2extent": 1856.963, 
			 "electric_dipole_moment_norm": 3.14798915659, 
			 "electric_quadrupole_moment_norm": 14.0191770636, 
			 "total_energy": -814.097666414, 
			 "HOMO_LUMO_gap": 0.23689, 
			 "cosmo_polarized_energy": -17.8, 
			 "cosmo_cavitation_energy": 20.83, 
			 "cosmo_dispersion_energy": -15.96, 
			 "cosmo_repulsion_energy": 1.26, 
			 "cosmo_total_nonelectrostatic_energy": 6.12, 
			 "SMD_solvation_energy": 2.39 
		},
		"coords": [
			{
				"x": -2.1196310883,
				"y": 0.2898528165,
				"z": -0.9545848464,
				"element": "C" 
			},
			{
				"x": -0.7143521756,
				"y": 0.1549954167,
				"z": 0.1589133266,
				"element": "S" 
			},
			{
				"x": -1.1524849455,
				"y": -0.4539940806,
				"z": 1.4241717007,
				"element": "O" 
			},
			{
				"x": 0.4251076148,
				"y": -0.4306225724,
				"z": -0.5638535446,
				"element": "O" 
			},
			{
				"x": -0.3342371898,
				"y": 1.8742553882,
				"z": 0.4806870257,
				"element": "C" 
			},
			{
				"x": -0.974890062,
				"y": 2.9074946836,
				"z": -0.0154017555,
				"element": "N" 
			},
			{
				"x": -0.3301148034,
				"y": 4.0049270816,
				"z": 0.5089219721,
				"element": "C" 
			},
			{
				"x": 0.7046923426,
				"y": 3.6135951193,
				"z": 1.3253695932,
				"element": "C" 
			},
			{
				"x": 0.6930013126,
				"y": 2.2372537991,
				"z": 1.2999387073,
				"element": "N" 
			},
			{
				"x": -2.3962814825,
				"y": -0.7406487388,
				"z": -1.1860852797,
				"element": "H" 
			},
			{
				"x": -1.8153206939,
				"y": 0.8265545626,
				"z": -1.8524298999,
				"element": "H" 
			},
			{
				"x": -2.9307921252,
				"y": 0.810184197,
				"z": -0.4465930901,
				"element": "H" 
			},
			{
				"x": -0.6466962561,
				"y": 5.0099190413,
				"z": 0.2695086564,
				"element": "H" 
			},
			{
				"x": 1.4259674086,
				"y": 4.1693342776,
				"z": 1.9041090059,
				"element": "H" 
			},
			{
				"x": 1.3183321437,
				"y": 1.6125990081,
				"z": 1.7887284284,
				"element": "H" 
			}
		],
		 "valence_orbital": [ 
			{
				"type": "occ",
				"energy": -0.31083,
				"method": "rhf"
			},
			{
				"type": "occ",
				"energy": -0.30923,
				"method": "rhf"
			},
			{
				"type": "occ",
				"energy": -0.30054,
				"method": "rhf"
			},
			{
				"type": "occ",
				"energy": -0.29217,
				"method": "rhf"
			},
			{
				"type": "occ",
				"energy": -0.25066,
				"method": "rhf"
			},
			{
				"type": "unocc",
				"energy": -0.01377,
				"method": "rhf"
			},
			{
				"type": "unocc",
				"energy": 0.03951,
				"method": "rhf"
			},
			{
				"type": "unocc",
				"energy": 0.04505,
				"method": "rhf"
			},
			{
				"type": "unocc",
				"energy": 0.06456,
				"method": "rhf"
			},
			{
				"type": "unocc",
				"energy": 0.08047,
				"method": "rhf"
			}
		],
		"cosmo_sigma_profile": { 
			"-0.025": 0.0,
			"-0.024": 0.0,
			"-0.023": 0.0,
			"-0.022": 0.0,
			"-0.021": 0.0,
			"-0.02": 0.0,
			"-0.019": 0.0,
			"-0.018": 1.01639308552,
			"-0.017": 1.83522980623,
			"-0.016": 1.24419837834,
			"-0.015": 1.160207527,
			"-0.014": 0.963812767372,
			"-0.013": 1.10850447806,
			"-0.012": 1.41835839137,
			"-0.011": 0.930764326481,
			"-0.01": 3.23807857798,
			"-0.009": 6.76425389705,
			"-0.008": 7.73450744032,
			"-0.007": 9.37866592843,
			"-0.006": 6.90450895495,
			"-0.005": 10.1410838285,
			"-0.004": 9.34273681804,
			"-0.003": 7.15337101477,
			"-0.002": 5.43333964513,
			"-0.001": 5.12254616039,
			"0.0": 7.57280320006,
			"0.001": 9.46781521639,
			"0.002": 6.85031064497,
			"0.003": 7.42058063751,
			"0.004": 6.10872825502,
			"0.005": 3.65551357481,
			"0.006": 3.64594678515,
			"0.007": 4.1083112897,
			"0.008": 2.59528570898,
			"0.009": 4.96482232662,
			"0.01": 7.68541101599,
			"0.011": 13.9615563251,
			"0.012": 6.32165187216,
			"0.013": 0.664588885301,
			"0.014": 0.529072563342,
			"0.015": 0.0291074278962,
			"0.016": 0.0,
			"0.017": 0.0,
			"0.018": 0.0,
			"0.019": 0.0,
			"0.02": 0.0,
			"0.021": 0.0,
			"0.022": 0.0,
			"0.023": 0.0,
			"0.024": 0.0,
			"0.025": 0.0
		}
	}
}
