{
	 "smiles": "CCOC(=O)C1=C(C)C2=C(CCCC2=O)N1", 
	 "Tm": 433.15, 
	 "num_atms": 31, 
	 "gaussian": { 
		 "optdone": 1, 
		 "sigma_profile": "yes", 
		 "theory": "DFT", 
		 "functional": "B3LYP", 
		 "basiset": "6-31G**", 
		 "properties": { 
			 "R2extent": 4907.5744, 
			 "electric_dipole_moment_norm": 3.00543419326, 
			 "electric_quadrupole_moment_norm": 20.8115746581, 
			 "total_energy": -746.78328799, 
			 "HOMO_LUMO_gap": 0.19198, 
			 "cosmo_polarized_energy": -14.14, 
			 "cosmo_cavitation_energy": 33.65, 
			 "cosmo_dispersion_energy": -24.4, 
			 "cosmo_repulsion_energy": 1.93, 
			 "cosmo_total_nonelectrostatic_energy": 11.18, 
			 "SMD_solvation_energy": 6.58 
		},
		"coords": [
			{
				"x": -1.0428193109,
				"y": -2.7472489461,
				"z": 4.4073180192,
				"element": "C" 
			},
			{
				"x": -1.5253015515,
				"y": -3.3122919992,
				"z": 3.0797328141,
				"element": "C" 
			},
			{
				"x": -1.5923104472,
				"y": -2.2852078835,
				"z": 2.0616430356,
				"element": "O" 
			},
			{
				"x": -0.4460274628,
				"y": -2.0247674698,
				"z": 1.3968107185,
				"element": "C" 
			},
			{
				"x": 0.6148849776,
				"y": -2.6019502105,
				"z": 1.5984854163,
				"element": "O" 
			},
			{
				"x": -0.5945528646,
				"y": -0.9779798814,
				"z": 0.3939224023,
				"element": "C" 
			},
			{
				"x": -1.6424994217,
				"y": -0.1764632018,
				"z": -0.0440314515,
				"element": "C" 
			},
			{
				"x": -3.0597513852,
				"y": -0.1687375511,
				"z": 0.4481290261,
				"element": "C" 
			},
			{
				"x": -1.0927536022,
				"y": 0.6505950261,
				"z": -1.0775896263,
				"element": "C" 
			},
			{
				"x": 0.2604635094,
				"y": 0.317886614,
				"z": -1.2292363004,
				"element": "C" 
			},
			{
				"x": 1.2130175464,
				"y": 0.9421386362,
				"z": -2.1976936818,
				"element": "C" 
			},
			{
				"x": 0.4079286851,
				"y": 1.5596669972,
				"z": -3.3568642005,
				"element": "C" 
			},
			{
				"x": -0.7508294009,
				"y": 2.4302615343,
				"z": -2.8430745601,
				"element": "C" 
			},
			{
				"x": -1.7094107999,
				"y": 1.7025140709,
				"z": -1.8897023028,
				"element": "C" 
			},
			{
				"x": -2.888446633,
				"y": 2.0304594975,
				"z": -1.8181061018,
				"element": "O" 
			},
			{
				"x": 0.5432001631,
				"y": -0.6554278293,
				"z": -0.3407528914,
				"element": "N" 
			},
			{
				"x": -1.6770538868,
				"y": -1.9166998728,
				"z": 4.7309463609,
				"element": "H" 
			},
			{
				"x": -1.0768867925,
				"y": -3.5260384768,
				"z": 5.1765923776,
				"element": "H" 
			},
			{
				"x": -0.0122253269,
				"y": -2.3945789395,
				"z": 4.3216245239,
				"element": "H" 
			},
			{
				"x": -2.5491607299,
				"y": -3.6866474288,
				"z": 3.1519135842,
				"element": "H" 
			},
			{
				"x": -0.8690452824,
				"y": -4.1127069929,
				"z": 2.7302728011,
				"element": "H" 
			},
			{
				"x": -3.5715102681,
				"y": -1.0990862081,
				"z": 0.1766319866,
				"element": "H" 
			},
			{
				"x": -3.6009385747,
				"y": 0.6656533976,
				"z": 0.0030488921,
				"element": "H" 
			},
			{
				"x": -3.0977665629,
				"y": -0.0981099059,
				"z": 1.5387793011,
				"element": "H" 
			},
			{
				"x": 1.9347894933,
				"y": 0.2055059079,
				"z": -2.5705651313,
				"element": "H" 
			},
			{
				"x": 1.7985757739,
				"y": 1.7260901837,
				"z": -1.6942660896,
				"element": "H" 
			},
			{
				"x": 1.0705176999,
				"y": 2.1529174525,
				"z": -3.9957425123,
				"element": "H" 
			},
			{
				"x": 0.0048104315,
				"y": 0.7513189603,
				"z": -3.9788977969,
				"element": "H" 
			},
			{
				"x": -1.3482491873,
				"y": 2.8336594523,
				"z": -3.6653115676,
				"element": "H" 
			},
			{
				"x": -0.3483642696,
				"y": 3.2942960337,
				"z": -2.2930879188,
				"element": "H" 
			},
			{
				"x": 1.4219154809,
				"y": -1.1323209666,
				"z": -0.1914291264,
				"element": "H" 
			}
		],
		 "valence_orbital": [ 
			{
				"type": "occ",
				"energy": -0.29737,
				"method": "rhf"
			},
			{
				"type": "occ",
				"energy": -0.27742,
				"method": "rhf"
			},
			{
				"type": "occ",
				"energy": -0.25057,
				"method": "rhf"
			},
			{
				"type": "occ",
				"energy": -0.23229,
				"method": "rhf"
			},
			{
				"type": "occ",
				"energy": -0.22391,
				"method": "rhf"
			},
			{
				"type": "unocc",
				"energy": -0.03193,
				"method": "rhf"
			},
			{
				"type": "unocc",
				"energy": -0.02284,
				"method": "rhf"
			},
			{
				"type": "unocc",
				"energy": 0.07491,
				"method": "rhf"
			},
			{
				"type": "unocc",
				"energy": 0.08564,
				"method": "rhf"
			},
			{
				"type": "unocc",
				"energy": 0.09784,
				"method": "rhf"
			}
		],
		"cosmo_sigma_profile": { 
			"-0.025": 0.0,
			"-0.024": 0.0,
			"-0.023": 0.0,
			"-0.022": 0.0,
			"-0.021": 0.0,
			"-0.02": 0.0,
			"-0.019": 0.0,
			"-0.018": 0.0,
			"-0.017": 0.0,
			"-0.016": 0.0745966241468,
			"-0.015": 0.656215735487,
			"-0.014": 1.15476185264,
			"-0.013": 1.04244184641,
			"-0.012": 0.658498529615,
			"-0.011": 0.778548684672,
			"-0.01": 0.822495251555,
			"-0.009": 1.17037108521,
			"-0.008": 1.27052313322,
			"-0.007": 1.30234796142,
			"-0.006": 4.16714715785,
			"-0.005": 15.2800857044,
			"-0.004": 25.9397386954,
			"-0.003": 33.1388587231,
			"-0.002": 28.9228598689,
			"-0.001": 27.5754263161,
			"0.0": 25.8954522016,
			"0.001": 20.9459499098,
			"0.002": 13.2683519118,
			"0.003": 12.4310208513,
			"0.004": 8.82244848569,
			"0.005": 5.03458686101,
			"0.006": 4.8992775485,
			"0.007": 3.14790502362,
			"0.008": 3.64538698842,
			"0.009": 2.67405522015,
			"0.01": 3.15418365782,
			"0.011": 4.20089094977,
			"0.012": 6.53349879826,
			"0.013": 4.23526664595,
			"0.014": 1.58185409305,
			"0.015": 0.285775337202,
			"0.016": 0.0,
			"0.017": 0.0,
			"0.018": 0.0,
			"0.019": 0.0,
			"0.02": 0.0,
			"0.021": 0.0,
			"0.022": 0.0,
			"0.023": 0.0,
			"0.024": 0.0,
			"0.025": 0.0
		}
	}
}
