{
	 "smiles": "ClP(=O)(C1=CC=CC=C1)C1=CC=CC=C1", 
	 "Tm": 293.15, 
	 "num_atms": 25, 
	 "gaussian": { 
		 "optdone": 1, 
		 "sigma_profile": "yes", 
		 "theory": "DFT", 
		 "functional": "B3LYP", 
		 "basiset": "6-31G**", 
		 "properties": { 
			 "R2extent": 4266.8288, 
			 "electric_dipole_moment_norm": 4.89877093769, 
			 "electric_quadrupole_moment_norm": 20.0395662505, 
			 "total_energy": -1340.12090954, 
			 "HOMO_LUMO_gap": 0.21123, 
			 "cosmo_polarized_energy": -12.25, 
			 "cosmo_cavitation_energy": 32.25, 
			 "cosmo_dispersion_energy": -23.09, 
			 "cosmo_repulsion_energy": 1.78, 
			 "cosmo_total_nonelectrostatic_energy": 10.93, 
			 "SMD_solvation_energy": 5.96 
		},
		"coords": [
			{
				"x": 1.6822080728,
				"y": 0.8661305976,
				"z": -2.9461368782,
				"element": "Cl" 
			},
			{
				"x": 1.6003760096,
				"y": 0.0719786338,
				"z": -1.0096807404,
				"element": "P" 
			},
			{
				"x": 2.8777868791,
				"y": -0.5530013828,
				"z": -0.5631147475,
				"element": "O" 
			},
			{
				"x": 0.2318241946,
				"y": -1.1203094081,
				"z": -1.1123417488,
				"element": "C" 
			},
			{
				"x": 0.570040759,
				"y": -2.4762664927,
				"z": -1.0020656166,
				"element": "C" 
			},
			{
				"x": -0.4291862928,
				"y": -3.4481457181,
				"z": -1.0651949586,
				"element": "C" 
			},
			{
				"x": -1.762273949,
				"y": -3.0708723006,
				"z": -1.2340064888,
				"element": "C" 
			},
			{
				"x": -2.101379892,
				"y": -1.7189033762,
				"z": -1.3378967589,
				"element": "C" 
			},
			{
				"x": -1.1084340005,
				"y": -0.7429420161,
				"z": -1.2772195075,
				"element": "C" 
			},
			{
				"x": 1.0918682062,
				"y": 1.4979125868,
				"z": -0.0031693397,
				"element": "C" 
			},
			{
				"x": 1.60299998,
				"y": 1.5377407625,
				"z": 1.3031548117,
				"element": "C" 
			},
			{
				"x": 1.2333973187,
				"y": 2.5713169527,
				"z": 2.1640814082,
				"element": "C" 
			},
			{
				"x": 0.3579379787,
				"y": 3.5668378119,
				"z": 1.727218106,
				"element": "C" 
			},
			{
				"x": -0.1428906942,
				"y": 3.5363427862,
				"z": 0.4233761276,
				"element": "C" 
			},
			{
				"x": 0.2241931418,
				"y": 2.5079727142,
				"z": -0.4439011248,
				"element": "C" 
			},
			{
				"x": 1.6103398446,
				"y": -2.7517967737,
				"z": -0.8629353365,
				"element": "H" 
			},
			{
				"x": -0.1659341334,
				"y": -4.4982868493,
				"z": -0.9804406201,
				"element": "H" 
			},
			{
				"x": -2.5391249928,
				"y": -3.8285764776,
				"z": -1.2815635254,
				"element": "H" 
			},
			{
				"x": -3.1393216147,
				"y": -1.4255570601,
				"z": -1.4641041741,
				"element": "H" 
			},
			{
				"x": -1.380554595,
				"y": 0.3051698172,
				"z": -1.3519117125,
				"element": "H" 
			},
			{
				"x": 2.2972535537,
				"y": 0.7691132361,
				"z": 1.62681251,
				"element": "H" 
			},
			{
				"x": 1.634852878,
				"y": 2.6018083715,
				"z": 3.172594577,
				"element": "H" 
			},
			{
				"x": 0.0728696691,
				"y": 4.3720195518,
				"z": 2.3981860487,
				"element": "H" 
			},
			{
				"x": -0.8113931541,
				"y": 4.3192677398,
				"z": 0.0777931721,
				"element": "H" 
			},
			{
				"x": -0.1425551675,
				"y": 2.5077462932,
				"z": -1.4653334831,
				"element": "H" 
			}
		],
		 "valence_orbital": [ 
			{
				"type": "occ",
				"energy": -0.2853,
				"method": "rhf"
			},
			{
				"type": "occ",
				"energy": -0.27448,
				"method": "rhf"
			},
			{
				"type": "occ",
				"energy": -0.26869,
				"method": "rhf"
			},
			{
				"type": "occ",
				"energy": -0.26631,
				"method": "rhf"
			},
			{
				"type": "occ",
				"energy": -0.26365,
				"method": "rhf"
			},
			{
				"type": "unocc",
				"energy": -0.05242,
				"method": "rhf"
			},
			{
				"type": "unocc",
				"energy": -0.02833,
				"method": "rhf"
			},
			{
				"type": "unocc",
				"energy": -0.01981,
				"method": "rhf"
			},
			{
				"type": "unocc",
				"energy": -0.01574,
				"method": "rhf"
			},
			{
				"type": "unocc",
				"energy": 0.01869,
				"method": "rhf"
			}
		],
		"cosmo_sigma_profile": { 
			"-0.025": 0.0,
			"-0.024": 0.0,
			"-0.023": 0.0,
			"-0.022": 0.0,
			"-0.021": 0.0,
			"-0.02": 0.0,
			"-0.019": 0.0,
			"-0.018": 0.0,
			"-0.017": 0.0,
			"-0.016": 0.0,
			"-0.015": 0.0,
			"-0.014": 0.0,
			"-0.013": 0.0,
			"-0.012": 0.0,
			"-0.011": 0.110284923272,
			"-0.01": 0.19565829504,
			"-0.009": 0.252738654372,
			"-0.008": 0.984800712656,
			"-0.007": 9.36871732146,
			"-0.006": 21.1220525081,
			"-0.005": 22.1512684397,
			"-0.004": 18.4442182482,
			"-0.003": 14.7830819234,
			"-0.002": 14.3857135863,
			"-0.001": 15.6653162179,
			"0.0": 17.4955017884,
			"0.001": 20.8292885201,
			"0.002": 26.6035234769,
			"0.003": 32.0442649646,
			"0.004": 22.6385764573,
			"0.005": 5.63637472614,
			"0.006": 1.61285501127,
			"0.007": 0.779697741938,
			"0.008": 1.43615011172,
			"0.009": 1.41498867509,
			"0.01": 1.45886529426,
			"0.011": 1.33161444415,
			"0.012": 1.00449468088,
			"0.013": 4.18287354456,
			"0.014": 3.42844053725,
			"0.015": 0.54997391387,
			"0.016": 0.0,
			"0.017": 0.0,
			"0.018": 0.0,
			"0.019": 0.0,
			"0.02": 0.0,
			"0.021": 0.0,
			"0.022": 0.0,
			"0.023": 0.0,
			"0.024": 0.0,
			"0.025": 0.0
		}
	}
}
