{
	 "smiles": "OC(=O)C1=CC=C(CNC2=NS(=O)(=O)C3=C2C=CC=C3)C=C1", 
	 "Tm": 577.15, 
	 "num_atms": 34, 
	 "gaussian": { 
		 "optdone": 1, 
		 "sigma_profile": "yes", 
		 "theory": "DFT", 
		 "functional": "B3LYP", 
		 "basiset": "6-31G**", 
		 "properties": { 
			 "R2extent": 11914.3026, 
			 "electric_dipole_moment_norm": 9.22305369224, 
			 "electric_quadrupole_moment_norm": 35.4426522052, 
			 "total_energy": -1387.35656756, 
			 "HOMO_LUMO_gap": 0.17367, 
			 "cosmo_polarized_energy": -31.91, 
			 "cosmo_cavitation_energy": 41.05, 
			 "cosmo_dispersion_energy": -30.16, 
			 "cosmo_repulsion_energy": 2.23, 
			 "cosmo_total_nonelectrostatic_energy": 13.11, 
			 "SMD_solvation_energy": 5.38 
		},
		"coords": [
			{
				"x": 5.3991379556,
				"y": 4.1030790538,
				"z": -2.7349553537,
				"element": "O" 
			},
			{
				"x": 5.3424062645,
				"y": 3.3519484685,
				"z": -1.6082923383,
				"element": "C" 
			},
			{
				"x": 6.2725295489,
				"y": 3.2737857453,
				"z": -0.8314722791,
				"element": "O" 
			},
			{
				"x": 4.0386470906,
				"y": 2.6521195027,
				"z": -1.4410826559,
				"element": "C" 
			},
			{
				"x": 3.8664738176,
				"y": 1.8477908025,
				"z": -0.3058876472,
				"element": "C" 
			},
			{
				"x": 2.6689560277,
				"y": 1.1702937984,
				"z": -0.1068892118,
				"element": "C" 
			},
			{
				"x": 1.6237695844,
				"y": 1.285908538,
				"z": -1.0363846971,
				"element": "C" 
			},
			{
				"x": 0.3189141571,
				"y": 0.5518681258,
				"z": -0.8077953778,
				"element": "C" 
			},
			{
				"x": -0.3964173282,
				"y": 1.1422160423,
				"z": 0.3227587616,
				"element": "N" 
			},
			{
				"x": -1.4792935057,
				"y": 0.6847830046,
				"z": 0.9933938581,
				"element": "C" 
			},
			{
				"x": -1.8829138645,
				"y": 1.3563429815,
				"z": 2.0419942726,
				"element": "N" 
			},
			{
				"x": -3.22995686,
				"y": 0.6267508512,
				"z": 2.7358636901,
				"element": "S" 
			},
			{
				"x": -4.4045754902,
				"y": 1.4884040847,
				"z": 2.5891943233,
				"element": "O" 
			},
			{
				"x": -2.8873308781,
				"y": 0.0996000502,
				"z": 4.0581006235,
				"element": "O" 
			},
			{
				"x": -3.3017346392,
				"y": -0.7121820641,
				"z": 1.5344427961,
				"element": "C" 
			},
			{
				"x": -2.2632889667,
				"y": -0.5382931981,
				"z": 0.6159963275,
				"element": "C" 
			},
			{
				"x": -2.1391222876,
				"y": -1.4470299264,
				"z": -0.4397415681,
				"element": "C" 
			},
			{
				"x": -3.0495673679,
				"y": -2.5054856087,
				"z": -0.5312545627,
				"element": "C" 
			},
			{
				"x": -4.073194914,
				"y": -2.662363875,
				"z": 0.4064144516,
				"element": "C" 
			},
			{
				"x": -4.2124518823,
				"y": -1.7519247825,
				"z": 1.459728077,
				"element": "C" 
			},
			{
				"x": 1.8004113597,
				"y": 2.0937422012,
				"z": -2.165105754,
				"element": "C" 
			},
			{
				"x": 3.0002292621,
				"y": 2.772981356,
				"z": -2.3720021977,
				"element": "C" 
			},
			{
				"x": 6.2813345904,
				"y": 4.5096673122,
				"z": -2.7402308036,
				"element": "H" 
			},
			{
				"x": 4.6840688967,
				"y": 1.7654518129,
				"z": 0.4020297619,
				"element": "H" 
			},
			{
				"x": 2.5409891939,
				"y": 0.5449857005,
				"z": 0.7727368956,
				"element": "H" 
			},
			{
				"x": 0.5311451137,
				"y": -0.5031086101,
				"z": -0.5976846864,
				"element": "H" 
			},
			{
				"x": -0.2896329622,
				"y": 0.595474931,
				"z": -1.7198346304,
				"element": "H" 
			},
			{
				"x": -0.018885607,
				"y": 1.9996454848,
				"z": 0.7051134358,
				"element": "H" 
			},
			{
				"x": -1.3666976227,
				"y": -1.3535043697,
				"z": -1.1911563848,
				"element": "H" 
			},
			{
				"x": -2.9567888848,
				"y": -3.2139946445,
				"z": -1.348540612,
				"element": "H" 
			},
			{
				"x": -4.7675022731,
				"y": -3.4919289096,
				"z": 0.3145211911,
				"element": "H" 
			},
			{
				"x": -5.0067995096,
				"y": -1.8527019286,
				"z": 2.1919685562,
				"element": "H" 
			},
			{
				"x": 0.9946292462,
				"y": 2.1925445502,
				"z": -2.8873914269,
				"element": "H" 
			},
			{
				"x": 3.1336127346,
				"y": 3.396633519,
				"z": -3.2483548347,
				"element": "H" 
			}
		],
		 "valence_orbital": [ 
			{
				"type": "occ",
				"energy": -0.28684,
				"method": "rhf"
			},
			{
				"type": "occ",
				"energy": -0.28167,
				"method": "rhf"
			},
			{
				"type": "occ",
				"energy": -0.27979,
				"method": "rhf"
			},
			{
				"type": "occ",
				"energy": -0.27161,
				"method": "rhf"
			},
			{
				"type": "occ",
				"energy": -0.24567,
				"method": "rhf"
			},
			{
				"type": "unocc",
				"energy": -0.072,
				"method": "rhf"
			},
			{
				"type": "unocc",
				"energy": -0.06934,
				"method": "rhf"
			},
			{
				"type": "unocc",
				"energy": -0.04265,
				"method": "rhf"
			},
			{
				"type": "unocc",
				"energy": -0.03191,
				"method": "rhf"
			},
			{
				"type": "unocc",
				"energy": 0.02823,
				"method": "rhf"
			}
		],
		"cosmo_sigma_profile": { 
			"-0.025": 0.0,
			"-0.024": 0.0,
			"-0.023": 0.0,
			"-0.022": 0.0,
			"-0.021": 0.0,
			"-0.02": 0.0,
			"-0.019": 0.0390509226751,
			"-0.018": 0.670000952095,
			"-0.017": 1.41593313658,
			"-0.016": 0.559949248857,
			"-0.015": 0.601310914951,
			"-0.014": 1.18373718417,
			"-0.013": 1.88477903121,
			"-0.012": 1.35976994639,
			"-0.011": 1.65322107391,
			"-0.01": 1.16615414283,
			"-0.009": 4.94943989074,
			"-0.008": 12.0506708853,
			"-0.007": 23.8849159066,
			"-0.006": 23.4888361933,
			"-0.005": 17.5790350505,
			"-0.004": 17.8659002629,
			"-0.003": 17.2476982236,
			"-0.002": 16.5197145988,
			"-0.001": 18.4498490267,
			"0.0": 21.3988709738,
			"0.001": 27.0477337921,
			"0.002": 22.8898463199,
			"0.003": 16.0035043487,
			"0.004": 4.90828483099,
			"0.005": 7.26019713836,
			"0.006": 4.60338508803,
			"0.007": 6.46904376929,
			"0.008": 5.11819030323,
			"0.009": 6.02050823108,
			"0.01": 11.8315276419,
			"0.011": 19.9875247426,
			"0.012": 12.0676651315,
			"0.013": 1.43106247733,
			"0.014": 0.113685046884,
			"0.015": 0.0,
			"0.016": 0.0,
			"0.017": 0.0,
			"0.018": 0.0,
			"0.019": 0.0,
			"0.02": 0.0,
			"0.021": 0.0,
			"0.022": 0.0,
			"0.023": 0.0,
			"0.024": 0.0,
			"0.025": 0.0
		}
	}
}
