{
	 "smiles": "[O-][N+](=O)C1=C2CC(=O)C2=CC=C1", 
	 "Tm": 389.15, 
	 "num_atms": 17, 
	 "gaussian": { 
		 "optdone": 1, 
		 "sigma_profile": "yes", 
		 "theory": "DFT", 
		 "functional": "B3LYP", 
		 "basiset": "6-31G**", 
		 "properties": { 
			 "R2extent": 2052.9867, 
			 "electric_dipole_moment_norm": 3.24009387827, 
			 "electric_quadrupole_moment_norm": 17.0957301254, 
			 "total_energy": -588.141437708, 
			 "HOMO_LUMO_gap": 0.16215, 
			 "cosmo_polarized_energy": -11.04, 
			 "cosmo_cavitation_energy": 22.79, 
			 "cosmo_dispersion_energy": -16.66, 
			 "cosmo_repulsion_energy": 1.34, 
			 "cosmo_total_nonelectrostatic_energy": 7.46, 
			 "SMD_solvation_energy": 6.6 
		},
		"coords": [
			{
				"x": 0.6030984712,
				"y": -2.6664607766,
				"z": 1.1478267396,
				"element": "O" 
			},
			{
				"x": 0.5026277432,
				"y": -1.5241700813,
				"z": 1.5943684631,
				"element": "N" 
			},
			{
				"x": 0.6642591573,
				"y": -1.2048562283,
				"z": 2.7708703074,
				"element": "O" 
			},
			{
				"x": 0.162565366,
				"y": -0.4663689262,
				"z": 0.6369939581,
				"element": "C" 
			},
			{
				"x": -0.0345862944,
				"y": -0.7488736439,
				"z": -0.7042244689,
				"element": "C" 
			},
			{
				"x": -0.0490392096,
				"y": -1.8502467053,
				"z": -1.7508302348,
				"element": "C" 
			},
			{
				"x": -0.4128075746,
				"y": -0.6820241397,
				"z": -2.7425373133,
				"element": "C" 
			},
			{
				"x": -0.6356321584,
				"y": -0.6179499777,
				"z": -3.9216734508,
				"element": "O" 
			},
			{
				"x": -0.3581928869,
				"y": 0.2876261916,
				"z": -1.5892121902,
				"element": "C" 
			},
			{
				"x": -0.496315681,
				"y": 1.61443849,
				"z": -1.1909812058,
				"element": "C" 
			},
			{
				"x": -0.2927656647,
				"y": 1.8796337178,
				"z": 0.1705421715,
				"element": "C" 
			},
			{
				"x": 0.0315719219,
				"y": 0.8585721982,
				"z": 1.0731938968,
				"element": "C" 
			},
			{
				"x": -0.8210214882,
				"y": -2.6164377175,
				"z": -1.6305335194,
				"element": "H" 
			},
			{
				"x": 0.9092398081,
				"y": -2.3425994698,
				"z": -1.9425863398,
				"element": "H" 
			},
			{
				"x": -0.7474776886,
				"y": 2.4077151311,
				"z": -1.8877100672,
				"element": "H" 
			},
			{
				"x": -0.3862515355,
				"y": 2.8948996942,
				"z": 0.5429814108,
				"element": "H" 
			},
			{
				"x": 0.1871277142,
				"y": 1.0731022432,
				"z": 2.1240118431,
				"element": "H" 
			}
		],
		 "valence_orbital": [ 
			{
				"type": "occ",
				"energy": -0.31569,
				"method": "rhf"
			},
			{
				"type": "occ",
				"energy": -0.30311,
				"method": "rhf"
			},
			{
				"type": "occ",
				"energy": -0.29959,
				"method": "rhf"
			},
			{
				"type": "occ",
				"energy": -0.28673,
				"method": "rhf"
			},
			{
				"type": "occ",
				"energy": -0.26745,
				"method": "rhf"
			},
			{
				"type": "unocc",
				"energy": -0.1053,
				"method": "rhf"
			},
			{
				"type": "unocc",
				"energy": -0.07067,
				"method": "rhf"
			},
			{
				"type": "unocc",
				"energy": -0.02861,
				"method": "rhf"
			},
			{
				"type": "unocc",
				"energy": 0.03439,
				"method": "rhf"
			},
			{
				"type": "unocc",
				"energy": 0.07206,
				"method": "rhf"
			}
		],
		"cosmo_sigma_profile": { 
			"-0.025": 0.0,
			"-0.024": 0.0,
			"-0.023": 0.0,
			"-0.022": 0.0,
			"-0.021": 0.0,
			"-0.02": 0.0,
			"-0.019": 0.0,
			"-0.018": 0.0,
			"-0.017": 0.0,
			"-0.016": 0.0,
			"-0.015": 0.0,
			"-0.014": 0.0,
			"-0.013": 0.0,
			"-0.012": 0.0,
			"-0.011": 0.0,
			"-0.01": 0.0,
			"-0.009": 1.38246055612,
			"-0.008": 6.26958103082,
			"-0.007": 13.0902975022,
			"-0.006": 13.0643571083,
			"-0.005": 11.320383661,
			"-0.004": 13.3763651582,
			"-0.003": 13.0998425744,
			"-0.002": 14.2929552151,
			"-0.001": 15.1871463936,
			"0.0": 13.1465996167,
			"0.001": 8.9388011937,
			"0.002": 4.56493336409,
			"0.003": 4.23035605469,
			"0.004": 4.4611549422,
			"0.005": 4.73155878255,
			"0.006": 6.33259934704,
			"0.007": 10.2792743475,
			"0.008": 7.99523268449,
			"0.009": 7.03051424723,
			"0.01": 6.44203125761,
			"0.011": 3.95078558094,
			"0.012": 0.783709223485,
			"0.013": 0.0,
			"0.014": 0.0,
			"0.015": 0.0,
			"0.016": 0.0,
			"0.017": 0.0,
			"0.018": 0.0,
			"0.019": 0.0,
			"0.02": 0.0,
			"0.021": 0.0,
			"0.022": 0.0,
			"0.023": 0.0,
			"0.024": 0.0,
			"0.025": 0.0
		}
	}
}
