{
	 "smiles": "CC1=CC=CC=C1NC(=S)NC1=CC=CC=C1C", 
	 "Tm": 431.15, 
	 "num_atms": 34, 
	 "gaussian": { 
		 "optdone": 1, 
		 "sigma_profile": "yes", 
		 "theory": "DFT", 
		 "functional": "B3LYP", 
		 "basiset": "6-31G**", 
		 "properties": { 
			 "R2extent": 4790.1316, 
			 "electric_dipole_moment_norm": 4.82587095766, 
			 "electric_quadrupole_moment_norm": 13.6289089549, 
			 "total_energy": -1088.95259993, 
			 "HOMO_LUMO_gap": 0.16876, 
			 "cosmo_polarized_energy": -15.13, 
			 "cosmo_cavitation_energy": 37.97, 
			 "cosmo_dispersion_energy": -25.69, 
			 "cosmo_repulsion_energy": 1.95, 
			 "cosmo_total_nonelectrostatic_energy": 14.24, 
			 "SMD_solvation_energy": 5.69 
		},
		"coords": [
			{
				"x": -1.2197442773,
				"y": 2.3556907451,
				"z": 0.886510409,
				"element": "C" 
			},
			{
				"x": 0.213106869,
				"y": 1.8969768914,
				"z": 0.7644785301,
				"element": "C" 
			},
			{
				"x": 1.2579033295,
				"y": 2.8253212832,
				"z": 0.7028719665,
				"element": "C" 
			},
			{
				"x": 2.5899159435,
				"y": 2.4241512803,
				"z": 0.602868457,
				"element": "C" 
			},
			{
				"x": 2.8968399032,
				"y": 1.064177346,
				"z": 0.5794340052,
				"element": "C" 
			},
			{
				"x": 1.8773492894,
				"y": 0.1176495228,
				"z": 0.6524691865,
				"element": "C" 
			},
			{
				"x": 0.5405690454,
				"y": 0.5256287556,
				"z": 0.7266395039,
				"element": "C" 
			},
			{
				"x": -0.5208143565,
				"y": -0.4175077285,
				"z": 0.8554475695,
				"element": "N" 
			},
			{
				"x": -0.5504468101,
				"y": -1.747704807,
				"z": 0.511159134,
				"element": "C" 
			},
			{
				"x": -1.3938716084,
				"y": -2.8574658428,
				"z": 1.4535048866,
				"element": "S" 
			},
			{
				"x": 0.1061096486,
				"y": -2.140726382,
				"z": -0.6230783231,
				"element": "N" 
			},
			{
				"x": 0.3883482792,
				"y": -1.385294132,
				"z": -1.8105373895,
				"element": "C" 
			},
			{
				"x": 1.6930414054,
				"y": -1.431727338,
				"z": -2.3141246356,
				"element": "C" 
			},
			{
				"x": 2.0210569473,
				"y": -0.7783672518,
				"z": -3.4992425037,
				"element": "C" 
			},
			{
				"x": 1.0370632416,
				"y": -0.0627071517,
				"z": -4.1813000527,
				"element": "C" 
			},
			{
				"x": -0.2658081043,
				"y": -0.0329765563,
				"z": -3.6865874921,
				"element": "C" 
			},
			{
				"x": -0.6278960624,
				"y": -0.7015547246,
				"z": -2.5087410964,
				"element": "C" 
			},
			{
				"x": -2.06661065,
				"y": -0.7102288384,
				"z": -2.0539068372,
				"element": "C" 
			},
			{
				"x": -1.6580548451,
				"y": 2.0880749297,
				"z": 1.8577252966,
				"element": "H" 
			},
			{
				"x": -1.2871883189,
				"y": 3.4423269505,
				"z": 0.7931618916,
				"element": "H" 
			},
			{
				"x": -1.856042226,
				"y": 1.9078143155,
				"z": 0.115933121,
				"element": "H" 
			},
			{
				"x": 1.0150440286,
				"y": 3.8845037177,
				"z": 0.7292837157,
				"element": "H" 
			},
			{
				"x": 3.3794970146,
				"y": 3.1675156344,
				"z": 0.5494044779,
				"element": "H" 
			},
			{
				"x": 3.9299293728,
				"y": 0.7348335399,
				"z": 0.5190269893,
				"element": "H" 
			},
			{
				"x": 2.1119068713,
				"y": -0.9403517625,
				"z": 0.6653017165,
				"element": "H" 
			},
			{
				"x": -1.1652354981,
				"y": -0.2327363938,
				"z": 1.6144771137,
				"element": "H" 
			},
			{
				"x": 0.1111828672,
				"y": -3.1482685942,
				"z": -0.7217673613,
				"element": "H" 
			},
			{
				"x": 2.4471265152,
				"y": -1.9838331339,
				"z": -1.761458502,
				"element": "H" 
			},
			{
				"x": 3.0368490842,
				"y": -0.8220194537,
				"z": -3.8801406707,
				"element": "H" 
			},
			{
				"x": 1.2779925183,
				"y": 0.4588146284,
				"z": -5.1029644092,
				"element": "H" 
			},
			{
				"x": -1.0359199963,
				"y": 0.5008073066,
				"z": -4.2375489996,
				"element": "H" 
			},
			{
				"x": -2.3712709175,
				"y": -1.7013779346,
				"z": -1.7052133318,
				"element": "H" 
			},
			{
				"x": -2.2336824881,
				"y": -0.0201370022,
				"z": -1.2202679109,
				"element": "H" 
			},
			{
				"x": -2.7282460153,
				"y": -0.4155018189,
				"z": -2.8724184546,
				"element": "H" 
			}
		],
		 "valence_orbital": [ 
			{
				"type": "occ",
				"energy": -0.25173,
				"method": "rhf"
			},
			{
				"type": "occ",
				"energy": -0.24707,
				"method": "rhf"
			},
			{
				"type": "occ",
				"energy": -0.23381,
				"method": "rhf"
			},
			{
				"type": "occ",
				"energy": -0.21604,
				"method": "rhf"
			},
			{
				"type": "occ",
				"energy": -0.20137,
				"method": "rhf"
			},
			{
				"type": "unocc",
				"energy": -0.03261,
				"method": "rhf"
			},
			{
				"type": "unocc",
				"energy": -0.01578,
				"method": "rhf"
			},
			{
				"type": "unocc",
				"energy": -0.01247,
				"method": "rhf"
			},
			{
				"type": "unocc",
				"energy": 0.00044,
				"method": "rhf"
			},
			{
				"type": "unocc",
				"energy": 0.0201,
				"method": "rhf"
			}
		],
		"cosmo_sigma_profile": { 
			"-0.025": 0.0,
			"-0.024": 0.0,
			"-0.023": 0.0,
			"-0.022": 0.0,
			"-0.021": 0.0,
			"-0.02": 0.0,
			"-0.019": 0.0,
			"-0.018": 0.0,
			"-0.017": 0.0,
			"-0.016": 0.0,
			"-0.015": 0.132028180767,
			"-0.014": 0.798092629809,
			"-0.013": 1.38935805932,
			"-0.012": 1.34587113506,
			"-0.011": 1.94679378721,
			"-0.01": 2.06755032394,
			"-0.009": 2.15429144653,
			"-0.008": 1.99707763193,
			"-0.007": 2.13108343377,
			"-0.006": 11.8484103215,
			"-0.005": 25.6364425502,
			"-0.004": 28.2547053332,
			"-0.003": 28.4285968123,
			"-0.002": 22.8121199193,
			"-0.001": 24.4596248563,
			"0.0": 26.0973909609,
			"0.001": 17.3844112983,
			"0.002": 14.0298041652,
			"0.003": 15.4846588222,
			"0.004": 16.2485841298,
			"0.005": 19.0164193659,
			"0.006": 11.769168495,
			"0.007": 3.86589049987,
			"0.008": 3.59750540253,
			"0.009": 5.02436076628,
			"0.01": 6.50886087461,
			"0.011": 5.5127291344,
			"0.012": 3.83452749316,
			"0.013": 0.523201696785,
			"0.014": 0.0,
			"0.015": 0.0,
			"0.016": 0.0,
			"0.017": 0.0,
			"0.018": 0.0,
			"0.019": 0.0,
			"0.02": 0.0,
			"0.021": 0.0,
			"0.022": 0.0,
			"0.023": 0.0,
			"0.024": 0.0,
			"0.025": 0.0
		}
	}
}
