{
	 "smiles": "CC(C)C1OC(=O)C2CCC1(C)OC2(C)C", 
	 "Tm": 393.15, 
	 "num_atms": 38, 
	 "gaussian": { 
		 "optdone": 1, 
		 "sigma_profile": "yes", 
		 "theory": "DFT", 
		 "functional": "B3LYP", 
		 "basiset": "6-31G**", 
		 "properties": { 
			 "R2extent": 3532.8148, 
			 "electric_dipole_moment_norm": 3.45008198308, 
			 "electric_quadrupole_moment_norm": 12.0437550133, 
			 "total_energy": -734.324246826, 
			 "HOMO_LUMO_gap": 0.26603, 
			 "cosmo_polarized_energy": -11.04, 
			 "cosmo_cavitation_energy": 34.61, 
			 "cosmo_dispersion_energy": -24.51, 
			 "cosmo_repulsion_energy": 1.87, 
			 "cosmo_total_nonelectrostatic_energy": 11.97, 
			 "SMD_solvation_energy": 6.42 
		},
		"coords": [
			{
				"x": 0.7528613643,
				"y": -3.4741501477,
				"z": -0.4610444841,
				"element": "C" 
			},
			{
				"x": 1.7322132215,
				"y": -2.336063262,
				"z": -0.1396270912,
				"element": "C" 
			},
			{
				"x": 3.1054488305,
				"y": -2.5638182575,
				"z": -0.7946667532,
				"element": "C" 
			},
			{
				"x": 1.1657196243,
				"y": -0.89675374,
				"z": -0.3065517285,
				"element": "C" 
			},
			{
				"x": 0.2657742907,
				"y": -0.7926521475,
				"z": 0.8368525087,
				"element": "O" 
			},
			{
				"x": -0.6738750091,
				"y": 0.1604842067,
				"z": 1.0742914067,
				"element": "C" 
			},
			{
				"x": -1.148614855,
				"y": 0.2299583643,
				"z": 2.1844308982,
				"element": "O" 
			},
			{
				"x": -1.1711558112,
				"y": 1.0189675242,
				"z": -0.0818852713,
				"element": "C" 
			},
			{
				"x": -1.9134368708,
				"y": 0.1218247988,
				"z": -1.0913631883,
				"element": "C" 
			},
			{
				"x": -0.9395383991,
				"y": -0.8264957063,
				"z": -1.826707613,
				"element": "C" 
			},
			{
				"x": 0.5396429902,
				"y": -0.4081543881,
				"z": -1.6501138862,
				"element": "C" 
			},
			{
				"x": 1.3663088929,
				"y": -0.8643066338,
				"z": -2.8562182381,
				"element": "C" 
			},
			{
				"x": 0.6595331168,
				"y": 1.0269401071,
				"z": -1.7231068457,
				"element": "O" 
			},
			{
				"x": -0.067957483,
				"y": 1.8477347215,
				"z": -0.7850951996,
				"element": "C" 
			},
			{
				"x": 0.9190084545,
				"y": 2.461795154,
				"z": 0.2228573476,
				"element": "C" 
			},
			{
				"x": -0.6871333672,
				"y": 2.9758477734,
				"z": -1.6244389073,
				"element": "C" 
			},
			{
				"x": 0.5492080366,
				"y": -3.5624950483,
				"z": -1.5336364113,
				"element": "H" 
			},
			{
				"x": 1.1770980463,
				"y": -4.4294633559,
				"z": -0.1344165435,
				"element": "H" 
			},
			{
				"x": -0.196384098,
				"y": -3.3387579916,
				"z": 0.0647234817,
				"element": "H" 
			},
			{
				"x": 1.9046676259,
				"y": -2.3764168185,
				"z": 0.9429565323,
				"element": "H" 
			},
			{
				"x": 3.5644380245,
				"y": -3.4617080116,
				"z": -0.3679649468,
				"element": "H" 
			},
			{
				"x": 3.0459530804,
				"y": -2.7154623986,
				"z": -1.8747375603,
				"element": "H" 
			},
			{
				"x": 3.787392162,
				"y": -1.7268411034,
				"z": -0.6079281223,
				"element": "H" 
			},
			{
				"x": 2.0014971858,
				"y": -0.2115208676,
				"z": -0.1188509187,
				"element": "H" 
			},
			{
				"x": -1.8766015143,
				"y": 1.7121622939,
				"z": 0.3827210889,
				"element": "H" 
			},
			{
				"x": -2.430298359,
				"y": 0.7640440855,
				"z": -1.8098214339,
				"element": "H" 
			},
			{
				"x": -2.6921493384,
				"y": -0.443570273,
				"z": -0.5701379908,
				"element": "H" 
			},
			{
				"x": -1.1656498278,
				"y": -0.8228072233,
				"z": -2.8974985613,
				"element": "H" 
			},
			{
				"x": -1.0701094876,
				"y": -1.8547836994,
				"z": -1.4839244904,
				"element": "H" 
			},
			{
				"x": 2.4211788408,
				"y": -0.6077338089,
				"z": -2.735179829,
				"element": "H" 
			},
			{
				"x": 1.2746823941,
				"y": -1.9387676737,
				"z": -3.0283132294,
				"element": "H" 
			},
			{
				"x": 0.9931010199,
				"y": -0.3373309617,
				"z": -3.7379081593,
				"element": "H" 
			},
			{
				"x": 1.4021128769,
				"y": 1.7030921218,
				"z": 0.8438243938,
				"element": "H" 
			},
			{
				"x": 1.6996997995,
				"y": 3.0065725491,
				"z": -0.3156312596,
				"element": "H" 
			},
			{
				"x": 0.4055035174,
				"y": 3.1608724312,
				"z": 0.8910930598,
				"element": "H" 
			},
			{
				"x": -1.2023179475,
				"y": 3.7031950941,
				"z": -0.9891792589,
				"element": "H" 
			},
			{
				"x": 0.1059364147,
				"y": 3.494559891,
				"z": -2.1703673177,
				"element": "H" 
			},
			{
				"x": -1.3960574419,
				"y": 2.5878024016,
				"z": -2.3599354782,
				"element": "H" 
			}
		],
		 "valence_orbital": [ 
			{
				"type": "occ",
				"energy": -0.31951,
				"method": "rhf"
			},
			{
				"type": "occ",
				"energy": -0.2928,
				"method": "rhf"
			},
			{
				"type": "occ",
				"energy": -0.28387,
				"method": "rhf"
			},
			{
				"type": "occ",
				"energy": -0.25506,
				"method": "rhf"
			},
			{
				"type": "occ",
				"energy": -0.25203,
				"method": "rhf"
			},
			{
				"type": "unocc",
				"energy": 0.014,
				"method": "rhf"
			},
			{
				"type": "unocc",
				"energy": 0.06571,
				"method": "rhf"
			},
			{
				"type": "unocc",
				"energy": 0.07478,
				"method": "rhf"
			},
			{
				"type": "unocc",
				"energy": 0.09042,
				"method": "rhf"
			},
			{
				"type": "unocc",
				"energy": 0.10296,
				"method": "rhf"
			}
		],
		"cosmo_sigma_profile": { 
			"-0.025": 0.0,
			"-0.024": 0.0,
			"-0.023": 0.0,
			"-0.022": 0.0,
			"-0.021": 0.0,
			"-0.02": 0.0,
			"-0.019": 0.0,
			"-0.018": 0.0,
			"-0.017": 0.0,
			"-0.016": 0.0,
			"-0.015": 0.0,
			"-0.014": 0.0,
			"-0.013": 0.0,
			"-0.012": 0.0,
			"-0.011": 0.0,
			"-0.01": 0.0,
			"-0.009": 0.0,
			"-0.008": 0.0,
			"-0.007": 0.0,
			"-0.006": 0.608481153963,
			"-0.005": 11.3722319262,
			"-0.004": 27.3113115774,
			"-0.003": 43.5226690584,
			"-0.002": 39.7961071837,
			"-0.001": 34.7367369534,
			"0.0": 34.0027955124,
			"0.001": 24.4613179196,
			"0.002": 7.02983173401,
			"0.003": 4.2125522659,
			"0.004": 2.79053332339,
			"0.005": 4.47395431721,
			"0.006": 4.16318999037,
			"0.007": 1.56282692532,
			"0.008": 2.86032841654,
			"0.009": 3.27387530845,
			"0.01": 3.5033645849,
			"0.011": 3.61483861144,
			"0.012": 7.35149408214,
			"0.013": 4.69485153599,
			"0.014": 1.18845082524,
			"0.015": 0.0,
			"0.016": 0.0,
			"0.017": 0.0,
			"0.018": 0.0,
			"0.019": 0.0,
			"0.02": 0.0,
			"0.021": 0.0,
			"0.022": 0.0,
			"0.023": 0.0,
			"0.024": 0.0,
			"0.025": 0.0
		}
	}
}
