{
	 "smiles": "COCC1=C(F)C=CC(=C1)C(O)=O", 
	 "Tm": 374.15, 
	 "num_atms": 22, 
	 "gaussian": { 
		 "optdone": 1, 
		 "sigma_profile": "yes", 
		 "theory": "DFT", 
		 "functional": "B3LYP", 
		 "basiset": "6-31G**", 
		 "properties": { 
			 "R2extent": 2762.7419, 
			 "electric_dipole_moment_norm": 4.38249390872, 
			 "electric_quadrupole_moment_norm": 16.0068602349, 
			 "total_energy": -673.880184263, 
			 "HOMO_LUMO_gap": 0.20961, 
			 "cosmo_polarized_energy": -14.45, 
			 "cosmo_cavitation_energy": 26.82, 
			 "cosmo_dispersion_energy": -19.15, 
			 "cosmo_repulsion_energy": 1.51, 
			 "cosmo_total_nonelectrostatic_energy": 9.18, 
			 "SMD_solvation_energy": 6.76 
		},
		"coords": [
			{
				"x": 0.0385216625,
				"y": -1.8050797124,
				"z": 2.5967142767,
				"element": "C" 
			},
			{
				"x": 1.183954197,
				"y": -1.1179168185,
				"z": 2.1186809186,
				"element": "O" 
			},
			{
				"x": 1.5535073183,
				"y": -1.4875190671,
				"z": 0.8037496224,
				"element": "C" 
			},
			{
				"x": 0.7040071146,
				"y": -0.8186093965,
				"z": -0.2640833916,
				"element": "C" 
			},
			{
				"x": 0.5456132046,
				"y": -1.3900398627,
				"z": -1.5265517242,
				"element": "C" 
			},
			{
				"x": 1.134225118,
				"y": -2.5814880526,
				"z": -1.7703271043,
				"element": "F" 
			},
			{
				"x": -0.1833943548,
				"y": -0.7846433741,
				"z": -2.5450836946,
				"element": "C" 
			},
			{
				"x": -0.7854658086,
				"y": 0.4433662949,
				"z": -2.2960742049,
				"element": "C" 
			},
			{
				"x": -0.6684974692,
				"y": 1.0466361545,
				"z": -1.035135944,
				"element": "C" 
			},
			{
				"x": 0.0855383263,
				"y": 0.4129568942,
				"z": -0.0382949654,
				"element": "C" 
			},
			{
				"x": -1.3410727015,
				"y": 2.372342085,
				"z": -0.8415574044,
				"element": "C" 
			},
			{
				"x": -1.5119265983,
				"y": 2.7987043278,
				"z": 0.4377907169,
				"element": "O" 
			},
			{
				"x": -1.7290144328,
				"y": 3.0559493731,
				"z": -1.7602607942,
				"element": "O" 
			},
			{
				"x": -0.8550379621,
				"y": -1.5950406253,
				"z": 1.9916954965,
				"element": "H" 
			},
			{
				"x": 0.201877659,
				"y": -2.8927919448,
				"z": 2.6092896677,
				"element": "H" 
			},
			{
				"x": -0.1355549425,
				"y": -1.4612598736,
				"z": 3.6187505317,
				"element": "H" 
			},
			{
				"x": 1.5230138113,
				"y": -2.5783355105,
				"z": 0.6728953441,
				"element": "H" 
			},
			{
				"x": 2.5988520395,
				"y": -1.1772589296,
				"z": 0.6881059059,
				"element": "H" 
			},
			{
				"x": -0.2656678396,
				"y": -1.2790821216,
				"z": -3.5068432726,
				"element": "H" 
			},
			{
				"x": -1.3539562922,
				"y": 0.9549593947,
				"z": -3.064520812,
				"element": "H" 
			},
			{
				"x": 0.2411065469,
				"y": 0.8622474636,
				"z": 0.9394411535,
				"element": "H" 
			},
			{
				"x": -1.2824285963,
				"y": 2.0969033014,
				"z": 1.0619196781,
				"element": "H" 
			}
		],
		 "valence_orbital": [ 
			{
				"type": "occ",
				"energy": -0.31643,
				"method": "rhf"
			},
			{
				"type": "occ",
				"energy": -0.28078,
				"method": "rhf"
			},
			{
				"type": "occ",
				"energy": -0.27726,
				"method": "rhf"
			},
			{
				"type": "occ",
				"energy": -0.27405,
				"method": "rhf"
			},
			{
				"type": "occ",
				"energy": -0.26129,
				"method": "rhf"
			},
			{
				"type": "unocc",
				"energy": -0.05168,
				"method": "rhf"
			},
			{
				"type": "unocc",
				"energy": -0.03183,
				"method": "rhf"
			},
			{
				"type": "unocc",
				"energy": 0.0474,
				"method": "rhf"
			},
			{
				"type": "unocc",
				"energy": 0.05491,
				"method": "rhf"
			},
			{
				"type": "unocc",
				"energy": 0.08447,
				"method": "rhf"
			}
		],
		"cosmo_sigma_profile": { 
			"-0.025": 0.0,
			"-0.024": 0.0,
			"-0.023": 0.0,
			"-0.022": 0.0,
			"-0.021": 0.0,
			"-0.02": 0.0,
			"-0.019": 0.181931873101,
			"-0.018": 0.619931224221,
			"-0.017": 1.03513405789,
			"-0.016": 0.876873491213,
			"-0.015": 1.14691245304,
			"-0.014": 1.02157217877,
			"-0.013": 0.539066656281,
			"-0.012": 1.34173461996,
			"-0.011": 0.72428679174,
			"-0.01": 1.03013672397,
			"-0.009": 0.829840158193,
			"-0.008": 2.52869539351,
			"-0.007": 4.80503199647,
			"-0.006": 8.06864957983,
			"-0.005": 11.7990243531,
			"-0.004": 15.8114818586,
			"-0.003": 21.2614114659,
			"-0.002": 21.3580955364,
			"-0.001": 15.9320254135,
			"0.0": 14.9429632662,
			"0.001": 15.0876174814,
			"0.002": 14.9095423801,
			"0.003": 10.6193911119,
			"0.004": 8.90058807246,
			"0.005": 2.68733142867,
			"0.006": 3.66921820367,
			"0.007": 3.40842198737,
			"0.008": 3.64900469189,
			"0.009": 4.74052072223,
			"0.01": 4.86366723626,
			"0.011": 6.6237446895,
			"0.012": 6.15938795384,
			"0.013": 2.38806184441,
			"0.014": 0.085541988324,
			"0.015": 0.0,
			"0.016": 0.0,
			"0.017": 0.0,
			"0.018": 0.0,
			"0.019": 0.0,
			"0.02": 0.0,
			"0.021": 0.0,
			"0.022": 0.0,
			"0.023": 0.0,
			"0.024": 0.0,
			"0.025": 0.0
		}
	}
}
