{
	 "smiles": "NC(=O)N1C2=CC=CC=C2C(=O)CC2=C1C=CC=C2", 
	 "Tm": 489.15, 
	 "num_atms": 31, 
	 "gaussian": { 
		 "optdone": 1, 
		 "sigma_profile": "yes", 
		 "theory": "DFT", 
		 "functional": "B3LYP", 
		 "basiset": "6-31G**", 
		 "properties": { 
			 "R2extent": 4464.3354, 
			 "electric_dipole_moment_norm": 4.10465436304, 
			 "electric_quadrupole_moment_norm": 19.8346389576, 
			 "total_energy": -838.803877012, 
			 "HOMO_LUMO_gap": 0.17437, 
			 "cosmo_polarized_energy": -16.91, 
			 "cosmo_cavitation_energy": 34.25, 
			 "cosmo_dispersion_energy": -24.29, 
			 "cosmo_repulsion_energy": 1.85, 
			 "cosmo_total_nonelectrostatic_energy": 11.8, 
			 "SMD_solvation_energy": 7.07 
		},
		"coords": [
			{
				"x": -0.4001112194,
				"y": -1.8137796395,
				"z": -2.0713507767,
				"element": "N" 
			},
			{
				"x": -0.4322852722,
				"y": -0.4930866368,
				"z": -1.6788290961,
				"element": "C" 
			},
			{
				"x": -0.7256813582,
				"y": 0.4074555672,
				"z": -2.4502538233,
				"element": "O" 
			},
			{
				"x": -0.0838196547,
				"y": -0.2643277355,
				"z": -0.3326433399,
				"element": "N" 
			},
			{
				"x": -0.0656685261,
				"y": 1.074202857,
				"z": 0.1769517743,
				"element": "C" 
			},
			{
				"x": 0.6361757893,
				"y": 2.0539892673,
				"z": -0.5397416427,
				"element": "C" 
			},
			{
				"x": 0.7294335185,
				"y": 3.355771467,
				"z": -0.060819151,
				"element": "C" 
			},
			{
				"x": 0.1367254673,
				"y": 3.7043833581,
				"z": 1.156737435,
				"element": "C" 
			},
			{
				"x": -0.5604953872,
				"y": 2.7418184482,
				"z": 1.8704007078,
				"element": "C" 
			},
			{
				"x": -0.6918017979,
				"y": 1.4223101843,
				"z": 1.3974675073,
				"element": "C" 
			},
			{
				"x": -1.5433263077,
				"y": 0.5167154483,
				"z": 2.2363687283,
				"element": "C" 
			},
			{
				"x": -2.0468147074,
				"y": 0.9142597471,
				"z": 3.2759157502,
				"element": "O" 
			},
			{
				"x": -1.8039882768,
				"y": -0.9196276663,
				"z": 1.7793483908,
				"element": "C" 
			},
			{
				"x": -0.5198756932,
				"y": -1.6885318391,
				"z": 1.599477516,
				"element": "C" 
			},
			{
				"x": 0.3248721794,
				"y": -1.3319895195,
				"z": 0.538730591,
				"element": "C" 
			},
			{
				"x": 1.5420929166,
				"y": -1.9920297542,
				"z": 0.3406938438,
				"element": "C" 
			},
			{
				"x": 1.9201516269,
				"y": -3.0207760421,
				"z": 1.2039512101,
				"element": "C" 
			},
			{
				"x": 1.0903188448,
				"y": -3.3763750948,
				"z": 2.2695852445,
				"element": "C" 
			},
			{
				"x": -0.1185662004,
				"y": -2.7082958622,
				"z": 2.4688297404,
				"element": "C" 
			},
			{
				"x": -0.4363604292,
				"y": -2.5600953921,
				"z": -1.39481343,
				"element": "H" 
			},
			{
				"x": -0.8330304944,
				"y": -1.9770900047,
				"z": -2.9671587398,
				"element": "H" 
			},
			{
				"x": 1.0990581129,
				"y": 1.7816432441,
				"z": -1.4790822693,
				"element": "H" 
			},
			{
				"x": 1.279552152,
				"y": 4.0960762658,
				"z": -0.6345917978,
				"element": "H" 
			},
			{
				"x": 0.2173743346,
				"y": 4.717512984,
				"z": 1.5386028696,
				"element": "H" 
			},
			{
				"x": -1.0433392102,
				"y": 2.9778638566,
				"z": 2.8122559653,
				"element": "H" 
			},
			{
				"x": -2.4479558866,
				"y": -1.3796699737,
				"z": 2.5307052989,
				"element": "H" 
			},
			{
				"x": -2.3472538259,
				"y": -0.8809092998,
				"z": 0.8254478194,
				"element": "H" 
			},
			{
				"x": 2.1795469021,
				"y": -1.69394167,
				"z": -0.4853619153,
				"element": "H" 
			},
			{
				"x": 2.8655093898,
				"y": -3.5326553643,
				"z": 1.0517367325,
				"element": "H" 
			},
			{
				"x": 1.3862074417,
				"y": -4.1707883507,
				"z": 2.9482694433,
				"element": "H" 
			},
			{
				"x": -0.7618444283,
				"y": -2.9810328498,
				"z": 3.300769413,
				"element": "H" 
			}
		],
		 "valence_orbital": [ 
			{
				"type": "occ",
				"energy": -0.26984,
				"method": "rhf"
			},
			{
				"type": "occ",
				"energy": -0.25787,
				"method": "rhf"
			},
			{
				"type": "occ",
				"energy": -0.25063,
				"method": "rhf"
			},
			{
				"type": "occ",
				"energy": -0.2404,
				"method": "rhf"
			},
			{
				"type": "occ",
				"energy": -0.2312,
				"method": "rhf"
			},
			{
				"type": "unocc",
				"energy": -0.05683,
				"method": "rhf"
			},
			{
				"type": "unocc",
				"energy": -0.02604,
				"method": "rhf"
			},
			{
				"type": "unocc",
				"energy": -0.01649,
				"method": "rhf"
			},
			{
				"type": "unocc",
				"energy": -0.00398,
				"method": "rhf"
			},
			{
				"type": "unocc",
				"energy": 0.0403,
				"method": "rhf"
			}
		],
		"cosmo_sigma_profile": { 
			"-0.025": 0.0,
			"-0.024": 0.0,
			"-0.023": 0.0,
			"-0.022": 0.0,
			"-0.021": 0.0,
			"-0.02": 0.0,
			"-0.019": 0.0,
			"-0.018": 0.0,
			"-0.017": 0.0,
			"-0.016": 0.0,
			"-0.015": 0.0,
			"-0.014": 0.521757205655,
			"-0.013": 1.72210505144,
			"-0.012": 1.75712708476,
			"-0.011": 2.23921654254,
			"-0.01": 1.99592071128,
			"-0.009": 1.81980464905,
			"-0.008": 1.82504140961,
			"-0.007": 5.83520959386,
			"-0.006": 22.2426211408,
			"-0.005": 23.3607683296,
			"-0.004": 21.5623536462,
			"-0.003": 17.7755630392,
			"-0.002": 17.9436200901,
			"-0.001": 16.1068654961,
			"0.0": 18.6918057021,
			"0.001": 16.9268968018,
			"0.002": 19.3872633729,
			"0.003": 20.6419583933,
			"0.004": 17.4689799313,
			"0.005": 6.33252367716,
			"0.006": 4.27927501278,
			"0.007": 2.95692645689,
			"0.008": 3.98750536503,
			"0.009": 3.56751449433,
			"0.01": 3.41346306091,
			"0.011": 5.06121840278,
			"0.012": 5.24939283812,
			"0.013": 4.25933793421,
			"0.014": 4.70722710182,
			"0.015": 0.266767773416,
			"0.016": 0.0,
			"0.017": 0.0,
			"0.018": 0.0,
			"0.019": 0.0,
			"0.02": 0.0,
			"0.021": 0.0,
			"0.022": 0.0,
			"0.023": 0.0,
			"0.024": 0.0,
			"0.025": 0.0
		}
	}
}
