{
	 "smiles": "COC1=C(NC(=O)CCCCC(O)=O)C=CC=C1", 
	 "Tm": 356.15, 
	 "num_atms": 35, 
	 "gaussian": { 
		 "optdone": 1, 
		 "sigma_profile": "yes", 
		 "theory": "DFT", 
		 "functional": "B3LYP", 
		 "basiset": "6-31G**", 
		 "properties": { 
			 "R2extent": 6754.9833, 
			 "electric_dipole_moment_norm": 5.977389605, 
			 "electric_quadrupole_moment_norm": 20.3819046333, 
			 "total_energy": -861.300884159, 
			 "HOMO_LUMO_gap": 0.20771, 
			 "cosmo_polarized_energy": -20.45, 
			 "cosmo_cavitation_energy": 39.03, 
			 "cosmo_dispersion_energy": -26.14, 
			 "cosmo_repulsion_energy": 2.09, 
			 "cosmo_total_nonelectrostatic_energy": 14.98, 
			 "SMD_solvation_energy": 8.92 
		},
		"coords": [
			{
				"x": 1.4165808696,
				"y": 1.185043877,
				"z": -0.6260685203,
				"element": "C" 
			},
			{
				"x": 0.8806365102,
				"y": -0.1130170517,
				"z": -0.8428745236,
				"element": "O" 
			},
			{
				"x": 0.030334605,
				"y": -0.2989817989,
				"z": -1.8914533051,
				"element": "C" 
			},
			{
				"x": -0.4233240761,
				"y": -1.6230637755,
				"z": -2.1003223318,
				"element": "C" 
			},
			{
				"x": 0.0333250746,
				"y": -2.6923700865,
				"z": -1.2813041139,
				"element": "N" 
			},
			{
				"x": -0.2130242387,
				"y": -2.9295373087,
				"z": 0.0574332613,
				"element": "C" 
			},
			{
				"x": 0.3247971472,
				"y": -3.8725102194,
				"z": 0.6214777149,
				"element": "O" 
			},
			{
				"x": -1.1870764796,
				"y": -1.9886882588,
				"z": 0.7555513861,
				"element": "C" 
			},
			{
				"x": -1.6513275893,
				"y": -2.5363977865,
				"z": 2.1088657185,
				"element": "C" 
			},
			{
				"x": -2.6363760798,
				"y": -1.615808882,
				"z": 2.8468914486,
				"element": "C" 
			},
			{
				"x": -2.0396085351,
				"y": -0.287014635,
				"z": 3.3282779402,
				"element": "C" 
			},
			{
				"x": -1.0572589214,
				"y": -0.4541922823,
				"z": 4.4694563425,
				"element": "C" 
			},
			{
				"x": -0.2457101468,
				"y": 0.6270232687,
				"z": 4.5951277532,
				"element": "O" 
			},
			{
				"x": -0.9908488598,
				"y": -1.4024473243,
				"z": 5.2202513919,
				"element": "O" 
			},
			{
				"x": -1.2782610529,
				"y": -1.8861997589,
				"z": -3.1723226277,
				"element": "C" 
			},
			{
				"x": -1.6958452946,
				"y": -0.8699089061,
				"z": -4.0338152995,
				"element": "C" 
			},
			{
				"x": -1.2580566533,
				"y": 0.433009629,
				"z": -3.8102066361,
				"element": "C" 
			},
			{
				"x": -0.402359179,
				"y": 0.7229709287,
				"z": -2.7443507266,
				"element": "C" 
			},
			{
				"x": 2.0857422973,
				"y": 1.0918275786,
				"z": 0.2300986209,
				"element": "H" 
			},
			{
				"x": 0.6308428832,
				"y": 1.9146241976,
				"z": -0.392903551,
				"element": "H" 
			},
			{
				"x": 1.9862058811,
				"y": 1.534870206,
				"z": -1.4959125511,
				"element": "H" 
			},
			{
				"x": 0.6690926399,
				"y": -3.3673823151,
				"z": -1.6886965015,
				"element": "H" 
			},
			{
				"x": -2.0430047669,
				"y": -1.7981406243,
				"z": 0.095308561,
				"element": "H" 
			},
			{
				"x": -0.6758231179,
				"y": -1.0252315241,
				"z": 0.8687628306,
				"element": "H" 
			},
			{
				"x": -2.1288580702,
				"y": -3.5094540222,
				"z": 1.9501519296,
				"element": "H" 
			},
			{
				"x": -0.7801862032,
				"y": -2.7384579499,
				"z": 2.7390002677,
				"element": "H" 
			},
			{
				"x": -3.4939285328,
				"y": -1.3951288297,
				"z": 2.1983544319,
				"element": "H" 
			},
			{
				"x": -3.0273298514,
				"y": -2.1467556423,
				"z": 3.7207160068,
				"element": "H" 
			},
			{
				"x": -2.8345476028,
				"y": 0.3724846525,
				"z": 3.70255866,
				"element": "H" 
			},
			{
				"x": -1.5493469888,
				"y": 0.2705325003,
				"z": 2.5240645986,
				"element": "H" 
			},
			{
				"x": 0.3190408364,
				"y": 0.4467347639,
				"z": 5.3657774425,
				"element": "H" 
			},
			{
				"x": -1.6123637909,
				"y": -2.9092994357,
				"z": -3.3182625347,
				"element": "H" 
			},
			{
				"x": -2.3590931611,
				"y": -1.0956759985,
				"z": -4.8625813756,
				"element": "H" 
			},
			{
				"x": -1.5783258697,
				"y": 1.2379476791,
				"z": -4.4653204755,
				"element": "H" 
			},
			{
				"x": -0.0668136821,
				"y": 1.7418951351,
				"z": -2.5927312329,
				"element": "H" 
			}
		],
		 "valence_orbital": [ 
			{
				"type": "occ",
				"energy": -0.27336,
				"method": "rhf"
			},
			{
				"type": "occ",
				"energy": -0.27132,
				"method": "rhf"
			},
			{
				"type": "occ",
				"energy": -0.24673,
				"method": "rhf"
			},
			{
				"type": "occ",
				"energy": -0.23937,
				"method": "rhf"
			},
			{
				"type": "occ",
				"energy": -0.22552,
				"method": "rhf"
			},
			{
				"type": "unocc",
				"energy": -0.01781,
				"method": "rhf"
			},
			{
				"type": "unocc",
				"energy": -4e-05,
				"method": "rhf"
			},
			{
				"type": "unocc",
				"energy": 0.01279,
				"method": "rhf"
			},
			{
				"type": "unocc",
				"energy": 0.03985,
				"method": "rhf"
			},
			{
				"type": "unocc",
				"energy": 0.07937,
				"method": "rhf"
			}
		],
		"cosmo_sigma_profile": { 
			"-0.025": 0.0,
			"-0.024": 0.0,
			"-0.023": 0.0,
			"-0.022": 0.0,
			"-0.021": 0.0,
			"-0.02": 0.0,
			"-0.019": 0.0,
			"-0.018": 0.286782327874,
			"-0.017": 1.10606096264,
			"-0.016": 0.763767937969,
			"-0.015": 0.563583270059,
			"-0.014": 1.37949236394,
			"-0.013": 1.85880883215,
			"-0.012": 1.29674936556,
			"-0.011": 1.49054183198,
			"-0.01": 2.32495912505,
			"-0.009": 1.09300363657,
			"-0.008": 0.898930729123,
			"-0.007": 3.80432498425,
			"-0.006": 17.3404952102,
			"-0.005": 24.5601845242,
			"-0.004": 26.5159282886,
			"-0.003": 30.9394434324,
			"-0.002": 27.8735020786,
			"-0.001": 24.3225868464,
			"0.0": 20.0584397336,
			"0.001": 14.4334078993,
			"0.002": 15.3228465609,
			"0.003": 12.5903393456,
			"0.004": 13.6690398859,
			"0.005": 12.7140774517,
			"0.006": 7.28332813808,
			"0.007": 5.45011225082,
			"0.008": 5.99500434297,
			"0.009": 4.65605426454,
			"0.01": 4.83186118556,
			"0.011": 4.79915745534,
			"0.012": 6.74421495149,
			"0.013": 3.53600922633,
			"0.014": 5.54704877434,
			"0.015": 0.912252980031,
			"0.016": 0.0,
			"0.017": 0.0,
			"0.018": 0.0,
			"0.019": 0.0,
			"0.02": 0.0,
			"0.021": 0.0,
			"0.022": 0.0,
			"0.023": 0.0,
			"0.024": 0.0,
			"0.025": 0.0
		}
	}
}
