{
	 "smiles": "ClC1=CC=CC(Cl)=C1C=C", 
	 "Tm": 362.15, 
	 "num_atms": 16, 
	 "gaussian": { 
		 "optdone": 1, 
		 "sigma_profile": "yes", 
		 "theory": "DFT", 
		 "functional": "B3LYP", 
		 "basiset": "6-31G**", 
		 "properties": { 
			 "R2extent": 2041.7629, 
			 "electric_dipole_moment_norm": 1.19618997655, 
			 "electric_quadrupole_moment_norm": 8.72372072455, 
			 "total_energy": -1228.82638925, 
			 "HOMO_LUMO_gap": 0.20063, 
			 "cosmo_polarized_energy": -4.13, 
			 "cosmo_cavitation_energy": 23.41, 
			 "cosmo_dispersion_energy": -17.41, 
			 "cosmo_repulsion_energy": 1.4, 
			 "cosmo_total_nonelectrostatic_energy": 7.41, 
			 "SMD_solvation_energy": 4.07 
		},
		"coords": [
			{
				"x": 2.5401782057,
				"y": -1.3333402475,
				"z": -1.2151255081,
				"element": "Cl" 
			},
			{
				"x": 1.2244273282,
				"y": -1.0707201582,
				"z": -0.075247119,
				"element": "C" 
			},
			{
				"x": 1.3268350534,
				"y": -1.7370915052,
				"z": 1.145686695,
				"element": "C" 
			},
			{
				"x": 0.3081439962,
				"y": -1.618670164,
				"z": 2.0866274959,
				"element": "C" 
			},
			{
				"x": -0.8123535304,
				"y": -0.8418698755,
				"z": 1.8041197021,
				"element": "C" 
			},
			{
				"x": -0.8923347088,
				"y": -0.1879985322,
				"z": 0.5781156821,
				"element": "C" 
			},
			{
				"x": -2.3248551249,
				"y": 0.7942467555,
				"z": 0.2845684001,
				"element": "Cl" 
			},
			{
				"x": 0.1162183053,
				"y": -0.261356551,
				"z": -0.4087420539,
				"element": "C" 
			},
			{
				"x": -0.0635140802,
				"y": 0.4459642504,
				"z": -1.6942927616,
				"element": "C" 
			},
			{
				"x": 0.8556941065,
				"y": 1.1607139135,
				"z": -2.3491144337,
				"element": "C" 
			},
			{
				"x": 2.1995688574,
				"y": -2.3482636261,
				"z": 1.34414056,
				"element": "H" 
			},
			{
				"x": 0.3856267697,
				"y": -2.1353613522,
				"z": 3.0379687624,
				"element": "H" 
			},
			{
				"x": -1.6175185941,
				"y": -0.735901576,
				"z": 2.5218011313,
				"element": "H" 
			},
			{
				"x": -1.0713750461,
				"y": 0.3981826501,
				"z": -2.0992860482,
				"element": "H" 
			},
			{
				"x": 1.868978617,
				"y": 1.2893536928,
				"z": -1.9861162357,
				"element": "H" 
			},
			{
				"x": 0.6030798452,
				"y": 1.6540123257,
				"z": -3.2826042687,
				"element": "H" 
			}
		],
		 "valence_orbital": [ 
			{
				"type": "occ",
				"energy": -0.31975,
				"method": "rhf"
			},
			{
				"type": "occ",
				"energy": -0.31617,
				"method": "rhf"
			},
			{
				"type": "occ",
				"energy": -0.2937,
				"method": "rhf"
			},
			{
				"type": "occ",
				"energy": -0.25123,
				"method": "rhf"
			},
			{
				"type": "occ",
				"energy": -0.24265,
				"method": "rhf"
			},
			{
				"type": "unocc",
				"energy": -0.04202,
				"method": "rhf"
			},
			{
				"type": "unocc",
				"energy": -0.02398,
				"method": "rhf"
			},
			{
				"type": "unocc",
				"energy": 0.00649,
				"method": "rhf"
			},
			{
				"type": "unocc",
				"energy": 0.02831,
				"method": "rhf"
			},
			{
				"type": "unocc",
				"energy": 0.05137,
				"method": "rhf"
			}
		],
		"cosmo_sigma_profile": { 
			"-0.025": 0.0,
			"-0.024": 0.0,
			"-0.023": 0.0,
			"-0.022": 0.0,
			"-0.021": 0.0,
			"-0.02": 0.0,
			"-0.019": 0.0,
			"-0.018": 0.0,
			"-0.017": 0.0,
			"-0.016": 0.0,
			"-0.015": 0.0,
			"-0.014": 0.0,
			"-0.013": 0.0,
			"-0.012": 0.0,
			"-0.011": 0.0,
			"-0.01": 0.0,
			"-0.009": 0.0,
			"-0.008": 1.40004380444,
			"-0.007": 6.35448384696,
			"-0.006": 8.71878288652,
			"-0.005": 10.0985670924,
			"-0.004": 9.97971737997,
			"-0.003": 11.5541484319,
			"-0.002": 13.2534212701,
			"-0.001": 13.5463296478,
			"0.0": 16.1185423558,
			"0.001": 25.0766725272,
			"0.002": 26.0625266117,
			"0.003": 20.8055381725,
			"0.004": 17.8636566176,
			"0.005": 9.20242665802,
			"0.006": 2.16931281357,
			"0.007": 0.342601178453,
			"0.008": 0.0,
			"0.009": 0.0,
			"0.01": 0.0,
			"0.011": 0.0,
			"0.012": 0.0,
			"0.013": 0.0,
			"0.014": 0.0,
			"0.015": 0.0,
			"0.016": 0.0,
			"0.017": 0.0,
			"0.018": 0.0,
			"0.019": 0.0,
			"0.02": 0.0,
			"0.021": 0.0,
			"0.022": 0.0,
			"0.023": 0.0,
			"0.024": 0.0,
			"0.025": 0.0
		}
	}
}
