{
	 "smiles": "CCC1CC(NC(=O)CBr)C(C)(C)N1O", 
	 "Tm": 422.15, 
	 "num_atms": 34, 
	 "gaussian": { 
		 "optdone": 1, 
		 "sigma_profile": "yes", 
		 "theory": "DFT", 
		 "functional": "B3LYP", 
		 "basiset": "6-31G**", 
		 "properties": { 
			 "R2extent": 7413.0693, 
			 "electric_dipole_moment_norm": 2.29578256375, 
			 "electric_quadrupole_moment_norm": 9.93002575626, 
			 "total_energy": -3223.84334265, 
			 "HOMO_LUMO_gap": 0.21081, 
			 "cosmo_polarized_energy": -13.69, 
			 "cosmo_cavitation_energy": 36.91, 
			 "cosmo_dispersion_energy": -25.21, 
			 "cosmo_repulsion_energy": 2.01, 
			 "cosmo_total_nonelectrostatic_energy": 13.71, 
			 "SMD_solvation_energy": 5.17 
		},
		"coords": [
			{
				"x": 1.0691548011,
				"y": 3.7710413502,
				"z": -0.8179794555,
				"element": "C" 
			},
			{
				"x": 1.0196267968,
				"y": 2.8658057776,
				"z": 0.4147309182,
				"element": "C" 
			},
			{
				"x": 1.5698514976,
				"y": 1.4566682737,
				"z": 0.1591342995,
				"element": "C" 
			},
			{
				"x": 1.6066754277,
				"y": 0.5529881816,
				"z": 1.413612104,
				"element": "C" 
			},
			{
				"x": 1.2256126562,
				"y": -0.833052952,
				"z": 0.8745048337,
				"element": "C" 
			},
			{
				"x": 0.7566112563,
				"y": -1.752731857,
				"z": 1.8966202649,
				"element": "N" 
			},
			{
				"x": 1.2461424547,
				"y": -3.0064900271,
				"z": 2.0383051699,
				"element": "C" 
			},
			{
				"x": 2.1129504521,
				"y": -3.5128144865,
				"z": 1.3345332143,
				"element": "O" 
			},
			{
				"x": 0.6958162645,
				"y": -3.8809012635,
				"z": 3.166601263,
				"element": "C" 
			},
			{
				"x": -0.7432971411,
				"y": -3.1205702548,
				"z": 4.3008830538,
				"element": "Br" 
			},
			{
				"x": 0.2040228029,
				"y": -0.5009773338,
				"z": -0.2559169922,
				"element": "C" 
			},
			{
				"x": -1.1737952631,
				"y": -0.1053343789,
				"z": 0.309585622,
				"element": "C" 
			},
			{
				"x": 0.0304328272,
				"y": -1.6445979035,
				"z": -1.2541948181,
				"element": "C" 
			},
			{
				"x": 0.7780782086,
				"y": 0.7309489746,
				"z": -0.8907673391,
				"element": "N" 
			},
			{
				"x": 1.7422396432,
				"y": 0.3418321005,
				"z": -1.9059026644,
				"element": "O" 
			},
			{
				"x": 0.4882904866,
				"y": 3.3339226597,
				"z": -1.6354523073,
				"element": "H" 
			},
			{
				"x": 2.0981538992,
				"y": 3.9067402643,
				"z": -1.1702191835,
				"element": "H" 
			},
			{
				"x": 0.6572983654,
				"y": 4.7615324812,
				"z": -0.5996461973,
				"element": "H" 
			},
			{
				"x": 1.6014147448,
				"y": 3.3137343792,
				"z": 1.2318883855,
				"element": "H" 
			},
			{
				"x": -0.0135645464,
				"y": 2.7902838934,
				"z": 0.7770623762,
				"element": "H" 
			},
			{
				"x": 2.5792451258,
				"y": 1.5449533427,
				"z": -0.2529195336,
				"element": "H" 
			},
			{
				"x": 2.5872913259,
				"y": 0.5561423106,
				"z": 1.8968734712,
				"element": "H" 
			},
			{
				"x": 0.8773511112,
				"y": 0.8867242205,
				"z": 2.1629823986,
				"element": "H" 
			},
			{
				"x": 2.094180069,
				"y": -1.3113027291,
				"z": 0.4140644366,
				"element": "H" 
			},
			{
				"x": 0.0481633237,
				"y": -1.4463597196,
				"z": 2.5500109048,
				"element": "H" 
			},
			{
				"x": 0.2891695887,
				"y": -4.7944007509,
				"z": 2.7359642273,
				"element": "H" 
			},
			{
				"x": 1.509948895,
				"y": -4.134944993,
				"z": 3.8438516318,
				"element": "H" 
			},
			{
				"x": -1.1179582666,
				"y": 0.7206867218,
				"z": 1.0243632167,
				"element": "H" 
			},
			{
				"x": -1.8247325476,
				"y": 0.213907999,
				"z": -0.5084668046,
				"element": "H" 
			},
			{
				"x": -1.6453216399,
				"y": -0.956892029,
				"z": 0.8105379209,
				"element": "H" 
			},
			{
				"x": -0.6319046319,
				"y": -1.3476336512,
				"z": -2.0743395986,
				"element": "H" 
			},
			{
				"x": 0.985596212,
				"y": -1.9596026998,
				"z": -1.6738465967,
				"element": "H" 
			},
			{
				"x": -0.4263688781,
				"y": -2.5004486946,
				"z": -0.7478117532,
				"element": "H" 
			},
			{
				"x": 1.3168246788,
				"y": 0.6465427936,
				"z": -2.7181464686,
				"element": "H" 
			}
		],
		 "valence_orbital": [ 
			{
				"type": "occ",
				"energy": -0.28906,
				"method": "rhf"
			},
			{
				"type": "occ",
				"energy": -0.27936,
				"method": "rhf"
			},
			{
				"type": "occ",
				"energy": -0.26402,
				"method": "rhf"
			},
			{
				"type": "occ",
				"energy": -0.25634,
				"method": "rhf"
			},
			{
				"type": "occ",
				"energy": -0.22174,
				"method": "rhf"
			},
			{
				"type": "unocc",
				"energy": -0.01093,
				"method": "rhf"
			},
			{
				"type": "unocc",
				"energy": 0.01859,
				"method": "rhf"
			},
			{
				"type": "unocc",
				"energy": 0.06686,
				"method": "rhf"
			},
			{
				"type": "unocc",
				"energy": 0.07466,
				"method": "rhf"
			},
			{
				"type": "unocc",
				"energy": 0.09128,
				"method": "rhf"
			}
		],
		"cosmo_sigma_profile": { 
			"-0.025": 0.0,
			"-0.024": 0.0,
			"-0.023": 0.0,
			"-0.022": 0.0,
			"-0.021": 0.0,
			"-0.02": 0.0,
			"-0.019": 0.0,
			"-0.018": 0.0,
			"-0.017": 0.0,
			"-0.016": 0.0484354785575,
			"-0.015": 0.713966451479,
			"-0.014": 0.898457934247,
			"-0.013": 0.537196101973,
			"-0.012": 0.953894137574,
			"-0.011": 0.673032252978,
			"-0.01": 1.68300342302,
			"-0.009": 4.20391704841,
			"-0.008": 5.84448063858,
			"-0.007": 5.51914712048,
			"-0.006": 6.13564682009,
			"-0.005": 8.07817679212,
			"-0.004": 13.1294453412,
			"-0.003": 28.716624153,
			"-0.002": 36.3153175431,
			"-0.001": 32.4083784881,
			"0.0": 30.746700669,
			"0.001": 32.3599296457,
			"0.002": 16.2477895758,
			"0.003": 10.1394331954,
			"0.004": 10.17453195,
			"0.005": 12.1823884913,
			"0.006": 4.76495688768,
			"0.007": 3.24222867162,
			"0.008": 2.94222292202,
			"0.009": 3.64333607144,
			"0.01": 2.85533090381,
			"0.011": 3.02558478479,
			"0.012": 3.35675973091,
			"0.013": 5.66918851731,
			"0.014": 2.19555632146,
			"0.015": 0.0289576268834,
			"0.016": 0.0,
			"0.017": 0.0,
			"0.018": 0.0,
			"0.019": 0.0,
			"0.02": 0.0,
			"0.021": 0.0,
			"0.022": 0.0,
			"0.023": 0.0,
			"0.024": 0.0,
			"0.025": 0.0
		}
	}
}
