{
	 "smiles": "NC1CC1", 
	 "Tm": 263.15, 
	 "num_atms": 11, 
	 "gaussian": { 
		 "optdone": 1, 
		 "sigma_profile": "yes", 
		 "theory": "DFT", 
		 "functional": "B3LYP", 
		 "basiset": "6-31G**", 
		 "properties": { 
			 "R2extent": 368.9917, 
			 "electric_dipole_moment_norm": 1.25049103156, 
			 "electric_quadrupole_moment_norm": 5.06224331497, 
			 "total_energy": -173.247581408, 
			 "HOMO_LUMO_gap": 0.31019, 
			 "cosmo_polarized_energy": -5.54, 
			 "cosmo_cavitation_energy": 13.55, 
			 "cosmo_dispersion_energy": -10.28, 
			 "cosmo_repulsion_energy": 0.95, 
			 "cosmo_total_nonelectrostatic_energy": 4.22, 
			 "SMD_solvation_energy": 0.92 
		},
		"coords": [
			{
				"x": -0.652019186,
				"y": 2.0725693648,
				"z": 0.2102762011,
				"element": "N" 
			},
			{
				"x": -0.2544409093,
				"y": 0.6825901,
				"z": 0.2099208659,
				"element": "C" 
			},
			{
				"x": 0.9246128713,
				"y": 0.2480611381,
				"z": -0.6087791202,
				"element": "C" 
			},
			{
				"x": 0.9893979762,
				"y": 0.1619963551,
				"z": 0.9045309578,
				"element": "C" 
			},
			{
				"x": -0.9853350058,
				"y": 2.3404574707,
				"z": 1.134290746,
				"element": "H" 
			},
			{
				"x": 0.1471814603,
				"y": 2.6677841631,
				"z": 0.0079327465,
				"element": "H" 
			},
			{
				"x": -1.111733018,
				"y": 0.0117445736,
				"z": 0.2054185257,
				"element": "H" 
			},
			{
				"x": 1.5122796176,
				"y": 1.023695829,
				"z": -1.094355061,
				"element": "H" 
			},
			{
				"x": 0.8535768238,
				"y": -0.6698780001,
				"z": -1.1843163386,
				"element": "H" 
			},
			{
				"x": 1.6175540636,
				"y": 0.8842054991,
				"z": 1.419897935,
				"element": "H" 
			},
			{
				"x": 0.9630253063,
				"y": -0.8197264935,
				"z": 1.3697825417,
				"element": "H" 
			}
		],
		 "valence_orbital": [ 
			{
				"type": "occ",
				"energy": -0.37636,
				"method": "rhf"
			},
			{
				"type": "occ",
				"energy": -0.36145,
				"method": "rhf"
			},
			{
				"type": "occ",
				"energy": -0.3226,
				"method": "rhf"
			},
			{
				"type": "occ",
				"energy": -0.28788,
				"method": "rhf"
			},
			{
				"type": "occ",
				"energy": -0.21892,
				"method": "rhf"
			},
			{
				"type": "unocc",
				"energy": 0.09127,
				"method": "rhf"
			},
			{
				"type": "unocc",
				"energy": 0.10614,
				"method": "rhf"
			},
			{
				"type": "unocc",
				"energy": 0.12347,
				"method": "rhf"
			},
			{
				"type": "unocc",
				"energy": 0.14113,
				"method": "rhf"
			},
			{
				"type": "unocc",
				"energy": 0.1625,
				"method": "rhf"
			}
		],
		"cosmo_sigma_profile": { 
			"-0.025": 0.0,
			"-0.024": 0.0,
			"-0.023": 0.0,
			"-0.022": 0.0,
			"-0.021": 0.0,
			"-0.02": 0.0,
			"-0.019": 0.0,
			"-0.018": 0.0,
			"-0.017": 0.0,
			"-0.016": 0.0,
			"-0.015": 0.0,
			"-0.014": 0.0,
			"-0.013": 0.0,
			"-0.012": 0.0,
			"-0.011": 0.0,
			"-0.01": 1.03211475457,
			"-0.009": 2.78740271161,
			"-0.008": 2.77409250834,
			"-0.007": 2.95168878634,
			"-0.006": 3.43163657971,
			"-0.005": 4.53670310394,
			"-0.004": 8.71339600583,
			"-0.003": 11.3929723661,
			"-0.002": 10.8788836045,
			"-0.001": 8.59915277949,
			"0.0": 8.18263195152,
			"0.001": 7.45030084206,
			"0.002": 5.79000261791,
			"0.003": 5.02414010868,
			"0.004": 4.53493347722,
			"0.005": 3.89142931538,
			"0.006": 2.57866581009,
			"0.007": 1.70440445371,
			"0.008": 0.852371078232,
			"0.009": 0.686053570021,
			"0.01": 0.853302643082,
			"0.011": 0.748759389149,
			"0.012": 0.571115089128,
			"0.013": 1.11173197449,
			"0.014": 0.719493410731,
			"0.015": 0.413383001738,
			"0.016": 0.911410125732,
			"0.017": 0.597683598287,
			"0.018": 0.835708914021,
			"0.019": 0.4395398575,
			"0.02": 0.30441431886,
			"0.021": 0.0,
			"0.022": 0.0,
			"0.023": 0.0,
			"0.024": 0.0,
			"0.025": 0.0
		}
	}
}
