{
	 "smiles": "CN1C(CC(=O)NN)=NC2=C1C=CC=C2", 
	 "Tm": 480.15, 
	 "num_atms": 27, 
	 "gaussian": { 
		 "optdone": 1, 
		 "sigma_profile": "yes", 
		 "theory": "DFT", 
		 "functional": "B3LYP", 
		 "basiset": "6-31G**", 
		 "properties": { 
			 "R2extent": 3664.9887, 
			 "electric_dipole_moment_norm": 1.55746633029, 
			 "electric_quadrupole_moment_norm": 7.6670728567, 
			 "total_energy": -682.527012835, 
			 "HOMO_LUMO_gap": 0.20042, 
			 "cosmo_polarized_energy": -15.45, 
			 "cosmo_cavitation_energy": 30.87, 
			 "cosmo_dispersion_energy": -22.1, 
			 "cosmo_repulsion_energy": 1.74, 
			 "cosmo_total_nonelectrostatic_energy": 10.51, 
			 "SMD_solvation_energy": 4.21 
		},
		"coords": [
			{
				"x": 0.6655773531,
				"y": 1.8185013597,
				"z": -1.7259615701,
				"element": "C" 
			},
			{
				"x": -0.1765659353,
				"y": 0.6765209496,
				"z": -1.4024248399,
				"element": "N" 
			},
			{
				"x": 0.2190080374,
				"y": -0.6255877664,
				"z": -1.1626679988,
				"element": "C" 
			},
			{
				"x": 1.6555590425,
				"y": -1.0545424838,
				"z": -1.150526411,
				"element": "C" 
			},
			{
				"x": 2.3399446855,
				"y": -0.6578953299,
				"z": 0.1645320824,
				"element": "C" 
			},
			{
				"x": 3.1184100805,
				"y": 0.286196068,
				"z": 0.2541577054,
				"element": "O" 
			},
			{
				"x": 1.9805819781,
				"y": -1.4293649096,
				"z": 1.2303400648,
				"element": "N" 
			},
			{
				"x": 2.3485710821,
				"y": -1.0701962994,
				"z": 2.5447260548,
				"element": "N" 
			},
			{
				"x": -0.7782747072,
				"y": -1.4353371796,
				"z": -0.8814826782,
				"element": "N" 
			},
			{
				"x": -1.9144044181,
				"y": -0.642499383,
				"z": -0.9539614769,
				"element": "C" 
			},
			{
				"x": -1.5592848783,
				"y": 0.6864895637,
				"z": -1.2872307496,
				"element": "C" 
			},
			{
				"x": -2.5075646443,
				"y": 1.7012807673,
				"z": -1.435691871,
				"element": "C" 
			},
			{
				"x": -3.8398736595,
				"y": 1.3485422741,
				"z": -1.231702569,
				"element": "C" 
			},
			{
				"x": -4.2105081334,
				"y": 0.0306016772,
				"z": -0.8965676274,
				"element": "C" 
			},
			{
				"x": -3.2599146825,
				"y": -0.9756597842,
				"z": -0.7550191231,
				"element": "C" 
			},
			{
				"x": 0.6901886711,
				"y": 2.0048048663,
				"z": -2.8057645888,
				"element": "H" 
			},
			{
				"x": 0.2718358043,
				"y": 2.7075773188,
				"z": -1.226570296,
				"element": "H" 
			},
			{
				"x": 1.6780340748,
				"y": 1.6448715132,
				"z": -1.358576642,
				"element": "H" 
			},
			{
				"x": 2.2301099641,
				"y": -0.6046889746,
				"z": -1.9628085473,
				"element": "H" 
			},
			{
				"x": 1.6660895576,
				"y": -2.1404180597,
				"z": -1.272221094,
				"element": "H" 
			},
			{
				"x": 1.1428355074,
				"y": -1.994600532,
				"z": 1.1610574231,
				"element": "H" 
			},
			{
				"x": 3.2970173717,
				"y": -1.4100748499,
				"z": 2.6997385541,
				"element": "H" 
			},
			{
				"x": 2.4179435256,
				"y": -0.0519003012,
				"z": 2.5636807651,
				"element": "H" 
			},
			{
				"x": -2.229116389,
				"y": 2.7168348726,
				"z": -1.6999631862,
				"element": "H" 
			},
			{
				"x": -4.6106470468,
				"y": 2.1064702822,
				"z": -1.3359413935,
				"element": "H" 
			},
			{
				"x": -5.2611885857,
				"y": -0.2002938282,
				"z": -0.7478563592,
				"element": "H" 
			},
			{
				"x": -3.5392636557,
				"y": -1.9927318312,
				"z": -0.4992936277,
				"element": "H" 
			}
		],
		 "valence_orbital": [ 
			{
				"type": "occ",
				"energy": -0.27455,
				"method": "rhf"
			},
			{
				"type": "occ",
				"energy": -0.26709,
				"method": "rhf"
			},
			{
				"type": "occ",
				"energy": -0.2585,
				"method": "rhf"
			},
			{
				"type": "occ",
				"energy": -0.22439,
				"method": "rhf"
			},
			{
				"type": "occ",
				"energy": -0.22068,
				"method": "rhf"
			},
			{
				"type": "unocc",
				"energy": -0.02026,
				"method": "rhf"
			},
			{
				"type": "unocc",
				"energy": 0.01496,
				"method": "rhf"
			},
			{
				"type": "unocc",
				"energy": 0.0207,
				"method": "rhf"
			},
			{
				"type": "unocc",
				"energy": 0.05522,
				"method": "rhf"
			},
			{
				"type": "unocc",
				"energy": 0.08478,
				"method": "rhf"
			}
		],
		"cosmo_sigma_profile": { 
			"-0.025": 0.0,
			"-0.024": 0.0,
			"-0.023": 0.0,
			"-0.022": 0.0,
			"-0.021": 0.0,
			"-0.02": 0.0,
			"-0.019": 0.0,
			"-0.018": 0.0,
			"-0.017": 0.0,
			"-0.016": 0.0,
			"-0.015": 0.0,
			"-0.014": 0.0,
			"-0.013": 0.0,
			"-0.012": 1.54918626659,
			"-0.011": 2.12648106985,
			"-0.01": 3.59766927196,
			"-0.009": 3.10288977861,
			"-0.008": 3.83592561265,
			"-0.007": 7.6767855213,
			"-0.006": 15.4931398886,
			"-0.005": 19.7698060523,
			"-0.004": 24.0341732868,
			"-0.003": 23.8152022841,
			"-0.002": 14.1527707932,
			"-0.001": 13.7182758038,
			"0.0": 10.8457141805,
			"0.001": 11.0405860764,
			"0.002": 11.3246109797,
			"0.003": 10.7203062889,
			"0.004": 12.8750545911,
			"0.005": 13.4366102774,
			"0.006": 11.1077349307,
			"0.007": 4.65183525911,
			"0.008": 3.0316916819,
			"0.009": 3.16382027867,
			"0.01": 1.77581845747,
			"0.011": 3.59191575235,
			"0.012": 4.17204014596,
			"0.013": 5.42648738759,
			"0.014": 1.68072762222,
			"0.015": 1.42132180287,
			"0.016": 1.31489310153,
			"0.017": 0.563522257948,
			"0.018": 0.0,
			"0.019": 0.0,
			"0.02": 0.0,
			"0.021": 0.0,
			"0.022": 0.0,
			"0.023": 0.0,
			"0.024": 0.0,
			"0.025": 0.0
		}
	}
}
