{
	 "smiles": "CC(CC(N)=NO)NC(=O)OC(C)(C)C", 
	 "Tm": 370.15, 
	 "num_atms": 34, 
	 "gaussian": { 
		 "optdone": 1, 
		 "sigma_profile": "yes", 
		 "theory": "DFT", 
		 "functional": "B3LYP", 
		 "basiset": "6-31G**", 
		 "properties": { 
			 "R2extent": 4558.3446, 
			 "electric_dipole_moment_norm": 3.25115283553, 
			 "electric_quadrupole_moment_norm": 8.23567207336, 
			 "total_energy": -744.334866581, 
			 "HOMO_LUMO_gap": 0.23642, 
			 "cosmo_polarized_energy": -14.58, 
			 "cosmo_cavitation_energy": 35.6, 
			 "cosmo_dispersion_energy": -24.36, 
			 "cosmo_repulsion_energy": 1.96, 
			 "cosmo_total_nonelectrostatic_energy": 13.21, 
			 "SMD_solvation_energy": 6.24 
		},
		"coords": [
			{
				"x": -1.7280919321,
				"y": -3.4044746778,
				"z": 1.0527802553,
				"element": "C" 
			},
			{
				"x": -1.6959970957,
				"y": -2.0374963599,
				"z": 1.7510420067,
				"element": "C" 
			},
			{
				"x": -2.8988337501,
				"y": -1.1676242494,
				"z": 1.3205554133,
				"element": "C" 
			},
			{
				"x": -2.872430697,
				"y": 0.2358416031,
				"z": 1.8759492635,
				"element": "C" 
			},
			{
				"x": -2.4394727636,
				"y": 1.2342873744,
				"z": 1.0436978199,
				"element": "N" 
			},
			{
				"x": -3.283204915,
				"y": 0.3989338325,
				"z": 3.0895832704,
				"element": "N" 
			},
			{
				"x": -3.131662279,
				"y": 1.7797799445,
				"z": 3.4534497846,
				"element": "O" 
			},
			{
				"x": -0.3921500075,
				"y": -1.3775551861,
				"z": 1.5819058687,
				"element": "N" 
			},
			{
				"x": 0.0787466829,
				"y": -0.8533674975,
				"z": 0.4181171584,
				"element": "C" 
			},
			{
				"x": -0.6022024105,
				"y": -0.6392208625,
				"z": -0.5824417339,
				"element": "O" 
			},
			{
				"x": 1.3991090483,
				"y": -0.5777428711,
				"z": 0.5493653875,
				"element": "O" 
			},
			{
				"x": 2.1675381599,
				"y": 0.0383486867,
				"z": -0.5442718604,
				"element": "C" 
			},
			{
				"x": 2.1882753173,
				"y": -0.8964150973,
				"z": -1.7582161986,
				"element": "C" 
			},
			{
				"x": 3.5651211004,
				"y": 0.1677573471,
				"z": 0.0675581967,
				"element": "C" 
			},
			{
				"x": 1.5958544073,
				"y": 1.4188568373,
				"z": -0.8844463653,
				"element": "C" 
			},
			{
				"x": -1.5998831417,
				"y": -3.2807686294,
				"z": -0.0266800898,
				"element": "H" 
			},
			{
				"x": -0.9279563986,
				"y": -4.0523241623,
				"z": 1.4243282683,
				"element": "H" 
			},
			{
				"x": -2.6842450283,
				"y": -3.9074789865,
				"z": 1.230450972,
				"element": "H" 
			},
			{
				"x": -1.7866217754,
				"y": -2.1801796421,
				"z": 2.8325911327,
				"element": "H" 
			},
			{
				"x": -3.8003939853,
				"y": -1.6680966007,
				"z": 1.6848092533,
				"element": "H" 
			},
			{
				"x": -2.9531134055,
				"y": -1.1235395109,
				"z": 0.2306301,
				"element": "H" 
			},
			{
				"x": -2.2264694493,
				"y": 2.113943725,
				"z": 1.4901992585,
				"element": "H" 
			},
			{
				"x": -1.8684646481,
				"y": 0.953589502,
				"z": 0.2576741891,
				"element": "H" 
			},
			{
				"x": -3.487213848,
				"y": 1.7833299176,
				"z": 4.3494901596,
				"element": "H" 
			},
			{
				"x": 0.3008910058,
				"y": -1.5267246351,
				"z": 2.3000163144,
				"element": "H" 
			},
			{
				"x": 1.1885396267,
				"y": -1.0142638064,
				"z": -2.1771100535,
				"element": "H" 
			},
			{
				"x": 2.8480525339,
				"y": -0.484462039,
				"z": -2.5287257491,
				"element": "H" 
			},
			{
				"x": 2.5729730582,
				"y": -1.8807668273,
				"z": -1.4731558497,
				"element": "H" 
			},
			{
				"x": 3.9516419429,
				"y": -0.8136187668,
				"z": 0.357381319,
				"element": "H" 
			},
			{
				"x": 3.5407509549,
				"y": 0.8050360037,
				"z": 0.9563167191,
				"element": "H" 
			},
			{
				"x": 4.2534174926,
				"y": 0.6107880873,
				"z": -0.6582073095,
				"element": "H" 
			},
			{
				"x": 0.6083380731,
				"y": 1.3339713371,
				"z": -1.3383733352,
				"element": "H" 
			},
			{
				"x": 1.5234370914,
				"y": 2.0331914908,
				"z": 0.0187118357,
				"element": "H" 
			},
			{
				"x": 2.2623210349,
				"y": 1.9283647189,
				"z": -1.5878754017,
				"element": "H" 
			}
		],
		 "valence_orbital": [ 
			{
				"type": "occ",
				"energy": -0.29182,
				"method": "rhf"
			},
			{
				"type": "occ",
				"energy": -0.2691,
				"method": "rhf"
			},
			{
				"type": "occ",
				"energy": -0.25893,
				"method": "rhf"
			},
			{
				"type": "occ",
				"energy": -0.25489,
				"method": "rhf"
			},
			{
				"type": "occ",
				"energy": -0.19397,
				"method": "rhf"
			},
			{
				"type": "unocc",
				"energy": 0.04245,
				"method": "rhf"
			},
			{
				"type": "unocc",
				"energy": 0.05225,
				"method": "rhf"
			},
			{
				"type": "unocc",
				"energy": 0.0723,
				"method": "rhf"
			},
			{
				"type": "unocc",
				"energy": 0.08467,
				"method": "rhf"
			},
			{
				"type": "unocc",
				"energy": 0.09079,
				"method": "rhf"
			}
		],
		"cosmo_sigma_profile": { 
			"-0.025": 0.0,
			"-0.024": 0.0,
			"-0.023": 0.0,
			"-0.022": 0.0,
			"-0.021": 0.0,
			"-0.02": 0.0,
			"-0.019": 0.0,
			"-0.018": 0.0,
			"-0.017": 0.0114148572595,
			"-0.016": 0.719439664071,
			"-0.015": 0.801610902514,
			"-0.014": 1.51044636792,
			"-0.013": 2.21685012155,
			"-0.012": 1.30089395123,
			"-0.011": 2.37257823891,
			"-0.01": 3.02666747264,
			"-0.009": 2.14336338166,
			"-0.008": 1.81622218774,
			"-0.007": 2.72920885219,
			"-0.006": 4.4089719631,
			"-0.005": 7.73402881685,
			"-0.004": 21.4488080436,
			"-0.003": 28.3176012739,
			"-0.002": 27.7188770118,
			"-0.001": 32.5128712618,
			"0.0": 36.4253005621,
			"0.001": 24.500831938,
			"0.002": 9.21630553576,
			"0.003": 7.11574929323,
			"0.004": 7.62516446814,
			"0.005": 7.53335807383,
			"0.006": 6.96699209282,
			"0.007": 6.60809504671,
			"0.008": 6.57218310558,
			"0.009": 5.27856035297,
			"0.01": 5.00043524662,
			"0.011": 5.41207735042,
			"0.012": 2.55173998241,
			"0.013": 1.81040461769,
			"0.014": 0.880973510614,
			"0.015": 0.987026102826,
			"0.016": 0.539656561592,
			"0.017": 0.0,
			"0.018": 0.0,
			"0.019": 0.0,
			"0.02": 0.0,
			"0.021": 0.0,
			"0.022": 0.0,
			"0.023": 0.0,
			"0.024": 0.0,
			"0.025": 0.0
		}
	}
}
