{
	 "smiles": "C1=CC2=CC3=CC=C4C=C5C=CC=CC5=CC4=C3C=C2C=C1", 
	 "Tm": 530.15, 
	 "num_atms": 36, 
	 "gaussian": { 
		 "optdone": 1, 
		 "sigma_profile": "yes", 
		 "theory": "DFT", 
		 "functional": "B3LYP", 
		 "basiset": "6-31G**", 
		 "properties": { 
			 "R2extent": 8363.1643, 
			 "electric_dipole_moment_norm": 0.0849190791283, 
			 "electric_quadrupole_moment_norm": 14.0327331522, 
			 "total_energy": -846.824235646, 
			 "HOMO_LUMO_gap": 0.13907, 
			 "cosmo_polarized_energy": -8.44, 
			 "cosmo_cavitation_energy": 38.91, 
			 "cosmo_dispersion_energy": -28.97, 
			 "cosmo_repulsion_energy": 2.08, 
			 "cosmo_total_nonelectrostatic_energy": 12.03, 
			 "SMD_solvation_energy": 5.27 
		},
		"coords": [
			{
				"x": -3.7145585266,
				"y": 3.8312468694,
				"z": 1.8066503157,
				"element": "C" 
			},
			{
				"x": -3.3066974039,
				"y": 2.736866729,
				"z": 2.5308813094,
				"element": "C" 
			},
			{
				"x": -2.2789052664,
				"y": 1.8808399426,
				"z": 2.0410560386,
				"element": "C" 
			},
			{
				"x": -1.8286058729,
				"y": 0.7492156889,
				"z": 2.7475438304,
				"element": "C" 
			},
			{
				"x": -0.8235014414,
				"y": -0.0770757144,
				"z": 2.2555809046,
				"element": "C" 
			},
			{
				"x": -0.3857712696,
				"y": -1.2304955256,
				"z": 3.0076999361,
				"element": "C" 
			},
			{
				"x": 0.5902563058,
				"y": -2.0476441049,
				"z": 2.5483412986,
				"element": "C" 
			},
			{
				"x": 1.2442161449,
				"y": -1.8083218189,
				"z": 1.2823562157,
				"element": "C" 
			},
			{
				"x": 2.2452539922,
				"y": -2.6617649519,
				"z": 0.8300589266,
				"element": "C" 
			},
			{
				"x": 2.9029079578,
				"y": -2.4581535217,
				"z": -0.3981466046,
				"element": "C" 
			},
			{
				"x": 3.929642452,
				"y": -3.3225002631,
				"z": -0.8754194179,
				"element": "C" 
			},
			{
				"x": 4.5443701223,
				"y": -3.0848110634,
				"z": -2.0812969018,
				"element": "C" 
			},
			{
				"x": 4.1635992167,
				"y": -1.9685555353,
				"z": -2.8738090547,
				"element": "C" 
			},
			{
				"x": 3.17655576,
				"y": -1.1147823036,
				"z": -2.4427651761,
				"element": "C" 
			},
			{
				"x": 2.5172414215,
				"y": -1.3295114836,
				"z": -1.1983619615,
				"element": "C" 
			},
			{
				"x": 1.5006481265,
				"y": -0.4705198017,
				"z": -0.7295017517,
				"element": "C" 
			},
			{
				"x": 0.8519934903,
				"y": -0.6725795234,
				"z": 0.4835537314,
				"element": "C" 
			},
			{
				"x": -0.2095077762,
				"y": 0.2163129686,
				"z": 0.9832682412,
				"element": "C" 
			},
			{
				"x": -0.6533757444,
				"y": 1.3334662058,
				"z": 0.28469409,
				"element": "C" 
			},
			{
				"x": -1.6719318152,
				"y": 2.1786899269,
				"z": 0.7738658763,
				"element": "C" 
			},
			{
				"x": -2.1204235972,
				"y": 3.3215020636,
				"z": 0.0512407659,
				"element": "C" 
			},
			{
				"x": -3.1147558666,
				"y": 4.1268791005,
				"z": 0.5528819262,
				"element": "C" 
			},
			{
				"x": -4.4992323538,
				"y": 4.4769820542,
				"z": 2.1901600581,
				"element": "H" 
			},
			{
				"x": -3.7632976212,
				"y": 2.5076541293,
				"z": 3.4904405413,
				"element": "H" 
			},
			{
				"x": -2.2810845259,
				"y": 0.5138716125,
				"z": 3.7084786083,
				"element": "H" 
			},
			{
				"x": -0.8662097606,
				"y": -1.4268067576,
				"z": 3.9626812221,
				"element": "H" 
			},
			{
				"x": 0.9062357372,
				"y": -2.910727154,
				"z": 3.1285152555,
				"element": "H" 
			},
			{
				"x": 2.529073406,
				"y": -3.5134482128,
				"z": 1.444552553,
				"element": "H" 
			},
			{
				"x": 4.218366313,
				"y": -4.1755070235,
				"z": -0.2664912077,
				"element": "H" 
			},
			{
				"x": 5.3260961654,
				"y": -3.7507473621,
				"z": -2.4351356036,
				"element": "H" 
			},
			{
				"x": 4.6584233767,
				"y": -1.7934700406,
				"z": -3.8246996336,
				"element": "H" 
			},
			{
				"x": 2.8838726092,
				"y": -0.2601836829,
				"z": -3.0477381973,
				"element": "H" 
			},
			{
				"x": 1.2339060777,
				"y": 0.372524122,
				"z": -1.3589269487,
				"element": "H" 
			},
			{
				"x": -0.2164702789,
				"y": 1.5874888719,
				"z": -0.6758411678,
				"element": "H" 
			},
			{
				"x": -1.6603185566,
				"y": 3.5460728366,
				"z": -0.9078516092,
				"element": "H" 
			},
			{
				"x": -3.4475109977,
				"y": 4.9952927229,
				"z": -0.0082164087,
				"element": "H" 
			}
		],
		 "valence_orbital": [ 
			{
				"type": "occ",
				"energy": -0.27799,
				"method": "rhf"
			},
			{
				"type": "occ",
				"energy": -0.24998,
				"method": "rhf"
			},
			{
				"type": "occ",
				"energy": -0.24108,
				"method": "rhf"
			},
			{
				"type": "occ",
				"energy": -0.2019,
				"method": "rhf"
			},
			{
				"type": "occ",
				"energy": -0.19581,
				"method": "rhf"
			},
			{
				"type": "unocc",
				"energy": -0.05674,
				"method": "rhf"
			},
			{
				"type": "unocc",
				"energy": -0.05569,
				"method": "rhf"
			},
			{
				"type": "unocc",
				"energy": -0.00885,
				"method": "rhf"
			},
			{
				"type": "unocc",
				"energy": 0.00063,
				"method": "rhf"
			},
			{
				"type": "unocc",
				"energy": 0.02879,
				"method": "rhf"
			}
		],
		"cosmo_sigma_profile": { 
			"-0.025": 0.0,
			"-0.024": 0.0,
			"-0.023": 0.0,
			"-0.022": 0.0,
			"-0.021": 0.0,
			"-0.02": 0.0,
			"-0.019": 0.0,
			"-0.018": 0.0,
			"-0.017": 0.0,
			"-0.016": 0.0,
			"-0.015": 0.0,
			"-0.014": 0.0,
			"-0.013": 0.0,
			"-0.012": 0.0,
			"-0.011": 0.0,
			"-0.01": 0.0,
			"-0.009": 0.0879334092654,
			"-0.008": 1.44834595488,
			"-0.007": 2.25864247629,
			"-0.006": 25.6338730072,
			"-0.005": 27.3963883236,
			"-0.004": 25.9176015723,
			"-0.003": 22.7269310897,
			"-0.002": 16.390470951,
			"-0.001": 15.788202255,
			"0.0": 13.7392907381,
			"0.001": 17.7764103132,
			"0.002": 21.9798719183,
			"0.003": 41.1017301254,
			"0.004": 58.3209189816,
			"0.005": 21.1354630281,
			"0.006": 2.11772955518,
			"0.007": 0.0,
			"0.008": 0.0,
			"0.009": 0.0,
			"0.01": 0.0,
			"0.011": 0.0,
			"0.012": 0.0,
			"0.013": 0.0,
			"0.014": 0.0,
			"0.015": 0.0,
			"0.016": 0.0,
			"0.017": 0.0,
			"0.018": 0.0,
			"0.019": 0.0,
			"0.02": 0.0,
			"0.021": 0.0,
			"0.022": 0.0,
			"0.023": 0.0,
			"0.024": 0.0,
			"0.025": 0.0
		}
	}
}
