{
	 "smiles": "CC(C)OC1=NC=C(C=C1)C(O)=O", 
	 "Tm": 396.15, 
	 "num_atms": 24, 
	 "gaussian": { 
		 "optdone": 1, 
		 "sigma_profile": "yes", 
		 "theory": "DFT", 
		 "functional": "B3LYP", 
		 "basiset": "6-31G**", 
		 "properties": { 
			 "R2extent": 4270.5107, 
			 "electric_dipole_moment_norm": 4.83622622817, 
			 "electric_quadrupole_moment_norm": 23.6256887603, 
			 "total_energy": -630.023172631, 
			 "HOMO_LUMO_gap": 0.19967, 
			 "cosmo_polarized_energy": -13.93, 
			 "cosmo_cavitation_energy": 27.83, 
			 "cosmo_dispersion_energy": -20.34, 
			 "cosmo_repulsion_energy": 1.63, 
			 "cosmo_total_nonelectrostatic_energy": 9.12, 
			 "SMD_solvation_energy": 6.12 
		},
		"coords": [
			{
				"x": -1.1468055373,
				"y": 2.3117703975,
				"z": -0.6646546168,
				"element": "C" 
			},
			{
				"x": -1.7871047009,
				"y": 1.1646609688,
				"z": 0.1142059887,
				"element": "C" 
			},
			{
				"x": -1.8511123117,
				"y": -0.156375166,
				"z": -0.6495892365,
				"element": "C" 
			},
			{
				"x": -1.1994360288,
				"y": 1.0049673324,
				"z": 1.4417568026,
				"element": "O" 
			},
			{
				"x": 0.0766970802,
				"y": 0.645466482,
				"z": 1.6417088254,
				"element": "C" 
			},
			{
				"x": 0.897275951,
				"y": 0.399612955,
				"z": 0.6193338791,
				"element": "N" 
			},
			{
				"x": 2.1527153951,
				"y": 0.0314169126,
				"z": 0.905028895,
				"element": "C" 
			},
			{
				"x": 2.6550180969,
				"y": -0.116273278,
				"z": 2.1973640964,
				"element": "C" 
			},
			{
				"x": 1.7794228076,
				"y": 0.1785006632,
				"z": 3.262716842,
				"element": "C" 
			},
			{
				"x": 0.4816750922,
				"y": 0.5545060935,
				"z": 2.9940083865,
				"element": "C" 
			},
			{
				"x": 4.0589883465,
				"y": -0.5070916251,
				"z": 2.5146173334,
				"element": "C" 
			},
			{
				"x": 4.7814616256,
				"y": -1.0893050815,
				"z": 1.5183437455,
				"element": "O" 
			},
			{
				"x": 4.5650825623,
				"y": -0.3273846701,
				"z": 3.598268481,
				"element": "O" 
			},
			{
				"x": -1.7580647724,
				"y": 2.5313302887,
				"z": -1.5464633001,
				"element": "H" 
			},
			{
				"x": -1.1051940952,
				"y": 3.2152657927,
				"z": -0.0490888936,
				"element": "H" 
			},
			{
				"x": -0.1378297702,
				"y": 2.0578136036,
				"z": -0.9916071666,
				"element": "H" 
			},
			{
				"x": -2.8075036536,
				"y": 1.4573190072,
				"z": 0.3819804215,
				"element": "H" 
			},
			{
				"x": -2.2891781466,
				"y": -0.9392227023,
				"z": -0.0232427469,
				"element": "H" 
			},
			{
				"x": -0.8610882467,
				"y": -0.475536882,
				"z": -0.9774921767,
				"element": "H" 
			},
			{
				"x": -2.4900883161,
				"y": -0.0308993501,
				"z": -1.5301470751,
				"element": "H" 
			},
			{
				"x": 2.7896778379,
				"y": -0.121442938,
				"z": 0.0329612419,
				"element": "H" 
			},
			{
				"x": 2.1514065684,
				"y": 0.1012982137,
				"z": 4.278903997,
				"element": "H" 
			},
			{
				"x": -0.2312199474,
				"y": 0.7835418742,
				"z": 3.7774720411,
				"element": "H" 
			},
			{
				"x": 4.2082041632,
				"y": -1.3224388921,
				"z": 0.7754142352,
				"element": "H" 
			}
		],
		 "valence_orbital": [ 
			{
				"type": "occ",
				"energy": -0.31694,
				"method": "rhf"
			},
			{
				"type": "occ",
				"energy": -0.30013,
				"method": "rhf"
			},
			{
				"type": "occ",
				"energy": -0.28674,
				"method": "rhf"
			},
			{
				"type": "occ",
				"energy": -0.26889,
				"method": "rhf"
			},
			{
				"type": "occ",
				"energy": -0.24711,
				"method": "rhf"
			},
			{
				"type": "unocc",
				"energy": -0.04744,
				"method": "rhf"
			},
			{
				"type": "unocc",
				"energy": -0.03788,
				"method": "rhf"
			},
			{
				"type": "unocc",
				"energy": 0.04852,
				"method": "rhf"
			},
			{
				"type": "unocc",
				"energy": 0.06069,
				"method": "rhf"
			},
			{
				"type": "unocc",
				"energy": 0.08986,
				"method": "rhf"
			}
		],
		"cosmo_sigma_profile": { 
			"-0.025": 0.0,
			"-0.024": 0.0,
			"-0.023": 0.0,
			"-0.022": 0.0,
			"-0.021": 0.0,
			"-0.02": 0.000589262044405,
			"-0.019": 0.469498477092,
			"-0.018": 1.38995738303,
			"-0.017": 0.756756932986,
			"-0.016": 0.669269321848,
			"-0.015": 1.06204422127,
			"-0.014": 0.874473288873,
			"-0.013": 1.23466613262,
			"-0.012": 1.40957352587,
			"-0.011": 1.22667936795,
			"-0.01": 0.756261523698,
			"-0.009": 1.53499681075,
			"-0.008": 2.07598758038,
			"-0.007": 5.01337176408,
			"-0.006": 5.03787053341,
			"-0.005": 7.9774851291,
			"-0.004": 16.0515220504,
			"-0.003": 16.2289684801,
			"-0.002": 17.8368818735,
			"-0.001": 21.1548180334,
			"0.0": 28.4639549069,
			"0.001": 24.5485552631,
			"0.002": 11.8128299151,
			"0.003": 6.29247821848,
			"0.004": 6.12530918996,
			"0.005": 5.92171982485,
			"0.006": 4.66501845275,
			"0.007": 4.58320520933,
			"0.008": 3.82224195128,
			"0.009": 5.24392489606,
			"0.01": 3.94175671869,
			"0.011": 5.99704034623,
			"0.012": 4.78078662981,
			"0.013": 1.67018082682,
			"0.014": 0.0343830883792,
			"0.015": 0.0,
			"0.016": 0.0,
			"0.017": 0.0,
			"0.018": 0.0,
			"0.019": 0.0,
			"0.02": 0.0,
			"0.021": 0.0,
			"0.022": 0.0,
			"0.023": 0.0,
			"0.024": 0.0,
			"0.025": 0.0
		}
	}
}
