{
	 "smiles": "OC(=O)C1=CC=CC(CN2C=CC=N2)=C1", 
	 "Tm": 425.15, 
	 "num_atms": 25, 
	 "gaussian": { 
		 "optdone": 1, 
		 "sigma_profile": "yes", 
		 "theory": "DFT", 
		 "functional": "B3LYP", 
		 "basiset": "6-31G**", 
		 "properties": { 
			 "R2extent": 4274.2443, 
			 "electric_dipole_moment_norm": 1.15935139194, 
			 "electric_quadrupole_moment_norm": 8.7070941496, 
			 "total_energy": -685.143848668, 
			 "HOMO_LUMO_gap": 0.19183, 
			 "cosmo_polarized_energy": -13.34, 
			 "cosmo_cavitation_energy": 30.14, 
			 "cosmo_dispersion_energy": -21.57, 
			 "cosmo_repulsion_energy": 1.68, 
			 "cosmo_total_nonelectrostatic_energy": 10.25, 
			 "SMD_solvation_energy": 6.05 
		},
		"coords": [
			{
				"x": -2.5463374683,
				"y": -2.3520455525,
				"z": 3.2921470614,
				"element": "O" 
			},
			{
				"x": -2.4553100016,
				"y": -1.1338479393,
				"z": 2.7020111737,
				"element": "C" 
			},
			{
				"x": -2.8201722542,
				"y": -0.1181342984,
				"z": 3.2618789293,
				"element": "O" 
			},
			{
				"x": -1.8752731742,
				"y": -1.1891098056,
				"z": 1.3343696473,
				"element": "C" 
			},
			{
				"x": -1.4629992063,
				"y": -2.3889848136,
				"z": 0.7429576139,
				"element": "C" 
			},
			{
				"x": -0.9208343154,
				"y": -2.3710358785,
				"z": -0.5426145379,
				"element": "C" 
			},
			{
				"x": -0.7926469772,
				"y": -1.1690099753,
				"z": -1.2373620623,
				"element": "C" 
			},
			{
				"x": -1.2028023625,
				"y": 0.0382982657,
				"z": -0.6511653082,
				"element": "C" 
			},
			{
				"x": -1.0867775604,
				"y": 1.3460197308,
				"z": -1.416226015,
				"element": "C" 
			},
			{
				"x": 0.2403750999,
				"y": 1.5896568068,
				"z": -1.9663550428,
				"element": "N" 
			},
			{
				"x": 1.3143763499,
				"y": 2.1492889525,
				"z": -1.346509881,
				"element": "C" 
			},
			{
				"x": 2.371034498,
				"y": 2.0771427551,
				"z": -2.2342063757,
				"element": "C" 
			},
			{
				"x": 1.8300707431,
				"y": 1.4399964486,
				"z": -3.3717805966,
				"element": "C" 
			},
			{
				"x": 0.5403530563,
				"y": 1.1416231158,
				"z": -3.2081988929,
				"element": "N" 
			},
			{
				"x": -1.7401645291,
				"y": 0.0182834214,
				"z": 0.6342958324,
				"element": "C" 
			},
			{
				"x": -2.9340502364,
				"y": -2.1914945291,
				"z": 4.1680390885,
				"element": "H" 
			},
			{
				"x": -1.5661891363,
				"y": -3.320451672,
				"z": 1.2876147462,
				"element": "H" 
			},
			{
				"x": -0.59826008,
				"y": -3.2987321042,
				"z": -1.0057714123,
				"element": "H" 
			},
			{
				"x": -0.3664708545,
				"y": -1.1520609944,
				"z": -2.2363209266,
				"element": "H" 
			},
			{
				"x": -1.7717400328,
				"y": 1.3561969407,
				"z": -2.2687666544,
				"element": "H" 
			},
			{
				"x": -1.3487611117,
				"y": 2.1860097278,
				"z": -0.7667709672,
				"element": "H" 
			},
			{
				"x": 1.2425029103,
				"y": 2.5500666563,
				"z": -0.345714827,
				"element": "H" 
			},
			{
				"x": 3.3765870219,
				"y": 2.4410073381,
				"z": -2.085313779,
				"element": "H" 
			},
			{
				"x": 2.3201640429,
				"y": 1.1952691,
				"z": -4.3047996694,
				"element": "H" 
			},
			{
				"x": -2.0655744214,
				"y": 0.9328483034,
				"z": 1.1212628557,
				"element": "H" 
			}
		],
		 "valence_orbital": [ 
			{
				"type": "occ",
				"energy": -0.27965,
				"method": "rhf"
			},
			{
				"type": "occ",
				"energy": -0.26436,
				"method": "rhf"
			},
			{
				"type": "occ",
				"energy": -0.26354,
				"method": "rhf"
			},
			{
				"type": "occ",
				"energy": -0.24737,
				"method": "rhf"
			},
			{
				"type": "occ",
				"energy": -0.24432,
				"method": "rhf"
			},
			{
				"type": "unocc",
				"energy": -0.05249,
				"method": "rhf"
			},
			{
				"type": "unocc",
				"energy": -0.01505,
				"method": "rhf"
			},
			{
				"type": "unocc",
				"energy": 0.01809,
				"method": "rhf"
			},
			{
				"type": "unocc",
				"energy": 0.04907,
				"method": "rhf"
			},
			{
				"type": "unocc",
				"energy": 0.07019,
				"method": "rhf"
			}
		],
		"cosmo_sigma_profile": { 
			"-0.025": 0.0,
			"-0.024": 0.0,
			"-0.023": 0.0,
			"-0.022": 0.0,
			"-0.021": 0.0,
			"-0.02": 0.0,
			"-0.019": 0.146792320352,
			"-0.018": 0.681895735027,
			"-0.017": 0.645598052411,
			"-0.016": 1.48666101063,
			"-0.015": 0.691871722975,
			"-0.014": 0.234820277534,
			"-0.013": 0.190788996363,
			"-0.012": 0.893483564584,
			"-0.011": 1.1139308994,
			"-0.01": 0.554543657922,
			"-0.009": 2.118738827,
			"-0.008": 5.75487489683,
			"-0.007": 9.86897435456,
			"-0.006": 14.3088015527,
			"-0.005": 14.8140687334,
			"-0.004": 14.8858298578,
			"-0.003": 13.8742695744,
			"-0.002": 14.8656403723,
			"-0.001": 15.3291944425,
			"0.0": 14.2290396732,
			"0.001": 17.5463363047,
			"0.002": 18.807329767,
			"0.003": 20.6298518145,
			"0.004": 12.5994368315,
			"0.005": 10.7711269128,
			"0.006": 8.58987650587,
			"0.007": 5.01298929715,
			"0.008": 2.85340896141,
			"0.009": 3.10113361167,
			"0.01": 2.51472006586,
			"0.011": 4.8584512481,
			"0.012": 4.84782387508,
			"0.013": 0.804590197281,
			"0.014": 0.973760981576,
			"0.015": 0.630954039247,
			"0.016": 0.248909388376,
			"0.017": 0.0,
			"0.018": 0.0,
			"0.019": 0.0,
			"0.02": 0.0,
			"0.021": 0.0,
			"0.022": 0.0,
			"0.023": 0.0,
			"0.024": 0.0,
			"0.025": 0.0
		}
	}
}
