{
	 "smiles": "CC(C)(C)OC(=O)N1CCC(O)(CC2=CC(Cl)=CC=C2)C1", 
	 "Tm": 383.15, 
	 "num_atms": 43, 
	 "gaussian": { 
		 "optdone": 1, 
		 "sigma_profile": "yes", 
		 "theory": "DFT", 
		 "functional": "B3LYP", 
		 "basiset": "6-31G**", 
		 "properties": { 
			 "R2extent": 13243.7213, 
			 "electric_dipole_moment_norm": 2.02879969933, 
			 "electric_quadrupole_moment_norm": 17.9657901093, 
			 "total_energy": -1363.61838369, 
			 "HOMO_LUMO_gap": 0.2189, 
			 "cosmo_polarized_energy": -15.34, 
			 "cosmo_cavitation_energy": 46.07, 
			 "cosmo_dispersion_energy": -31.56, 
			 "cosmo_repulsion_energy": 2.43, 
			 "cosmo_total_nonelectrostatic_energy": 16.95, 
			 "SMD_solvation_energy": 7.32 
		},
		"coords": [
			{
				"x": 1.5552775631,
				"y": -3.9409736824,
				"z": -1.0182986913,
				"element": "C" 
			},
			{
				"x": 0.0783833978,
				"y": -3.5606343894,
				"z": -0.8652047175,
				"element": "C" 
			},
			{
				"x": -0.6706217626,
				"y": -3.7495904349,
				"z": -2.187192957,
				"element": "C" 
			},
			{
				"x": -0.6067404091,
				"y": -4.3396474583,
				"z": 0.2630766161,
				"element": "C" 
			},
			{
				"x": -0.0489811159,
				"y": -2.1156133381,
				"z": -0.6294719487,
				"element": "O" 
			},
			{
				"x": 0.501939193,
				"y": -1.5393557437,
				"z": 0.468857996,
				"element": "C" 
			},
			{
				"x": 1.1272489507,
				"y": -2.1125695543,
				"z": 1.3524649201,
				"element": "O" 
			},
			{
				"x": 0.2712529966,
				"y": -0.1961976852,
				"z": 0.463299485,
				"element": "N" 
			},
			{
				"x": -0.57169303,
				"y": 0.5293941277,
				"z": -0.4964405581,
				"element": "C" 
			},
			{
				"x": -0.4149322449,
				"y": 1.9888605005,
				"z": -0.0486261691,
				"element": "C" 
			},
			{
				"x": -0.2111561629,
				"y": 1.8848227456,
				"z": 1.4722230888,
				"element": "C" 
			},
			{
				"x": -1.5149951098,
				"y": 1.6281431645,
				"z": 2.009731159,
				"element": "O" 
			},
			{
				"x": 0.42675155,
				"y": 3.1260520362,
				"z": 2.1334472347,
				"element": "C" 
			},
			{
				"x": -0.2715474917,
				"y": 4.4409566561,
				"z": 1.8492238386,
				"element": "C" 
			},
			{
				"x": -1.5590312214,
				"y": 4.6978261097,
				"z": 2.3442324404,
				"element": "C" 
			},
			{
				"x": -2.1736404298,
				"y": 5.9169849119,
				"z": 2.0713779347,
				"element": "C" 
			},
			{
				"x": -3.788881822,
				"y": 6.2215784751,
				"z": 2.7036844593,
				"element": "Cl" 
			},
			{
				"x": -1.5432266627,
				"y": 6.9043972578,
				"z": 1.3143854382,
				"element": "C" 
			},
			{
				"x": -0.2641413303,
				"y": 6.6471806494,
				"z": 0.8231365687,
				"element": "C" 
			},
			{
				"x": 0.3649119044,
				"y": 5.4295825403,
				"z": 1.0873509131,
				"element": "C" 
			},
			{
				"x": 0.67135641,
				"y": 0.6245589571,
				"z": 1.6018339292,
				"element": "C" 
			},
			{
				"x": 2.0959952457,
				"y": -3.7845527996,
				"z": -0.0846955009,
				"element": "H" 
			},
			{
				"x": 2.022241363,
				"y": -3.3394336334,
				"z": -1.8048505324,
				"element": "H" 
			},
			{
				"x": 1.6364140456,
				"y": -4.9949236236,
				"z": -1.30391127,
				"element": "H" 
			},
			{
				"x": -0.6535265256,
				"y": -4.8029946381,
				"z": -2.482373191,
				"element": "H" 
			},
			{
				"x": -1.7133536559,
				"y": -3.4339234984,
				"z": -2.0885254561,
				"element": "H" 
			},
			{
				"x": -0.2057297459,
				"y": -3.1592832618,
				"z": -2.9823182766,
				"element": "H" 
			},
			{
				"x": -0.0888574477,
				"y": -4.1876528555,
				"z": 1.2102297691,
				"element": "H" 
			},
			{
				"x": -1.6468618241,
				"y": -4.0153744951,
				"z": 0.3702400729,
				"element": "H" 
			},
			{
				"x": -0.6071296135,
				"y": -5.4085301242,
				"z": 0.0254222606,
				"element": "H" 
			},
			{
				"x": -1.6146161392,
				"y": 0.2020233367,
				"z": -0.4213402276,
				"element": "H" 
			},
			{
				"x": -0.2336323616,
				"y": 0.3568209813,
				"z": -1.5215100273,
				"element": "H" 
			},
			{
				"x": 0.4712116752,
				"y": 2.441304535,
				"z": -0.5068526776,
				"element": "H" 
			},
			{
				"x": -1.2821118475,
				"y": 2.6052843597,
				"z": -0.2921090425,
				"element": "H" 
			},
			{
				"x": -1.4079107066,
				"y": 1.2835709048,
				"z": 2.9067658802,
				"element": "H" 
			},
			{
				"x": 1.4690782153,
				"y": 3.1999676827,
				"z": 1.8048774905,
				"element": "H" 
			},
			{
				"x": 0.4592091599,
				"y": 2.9476150459,
				"z": 3.2175495033,
				"element": "H" 
			},
			{
				"x": -2.0825402535,
				"y": 3.9435907084,
				"z": 2.9178956514,
				"element": "H" 
			},
			{
				"x": -2.0423024064,
				"y": 7.8470757779,
				"z": 1.1201477745,
				"element": "H" 
			},
			{
				"x": 0.2448779739,
				"y": 7.403935595,
				"z": 0.233386586,
				"element": "H" 
			},
			{
				"x": 1.3650211397,
				"y": 5.2473833645,
				"z": 0.7030497447,
				"element": "H" 
			},
			{
				"x": 0.5076590345,
				"y": 0.0897161779,
				"z": 2.5439916244,
				"element": "H" 
			},
			{
				"x": 1.739831502,
				"y": 0.8758246139,
				"z": 1.5547388639,
				"element": "H" 
			}
		],
		 "valence_orbital": [ 
			{
				"type": "occ",
				"energy": -0.28192,
				"method": "rhf"
			},
			{
				"type": "occ",
				"energy": -0.25611,
				"method": "rhf"
			},
			{
				"type": "occ",
				"energy": -0.25527,
				"method": "rhf"
			},
			{
				"type": "occ",
				"energy": -0.24407,
				"method": "rhf"
			},
			{
				"type": "occ",
				"energy": -0.23398,
				"method": "rhf"
			},
			{
				"type": "unocc",
				"energy": -0.01508,
				"method": "rhf"
			},
			{
				"type": "unocc",
				"energy": -0.01139,
				"method": "rhf"
			},
			{
				"type": "unocc",
				"energy": 0.03222,
				"method": "rhf"
			},
			{
				"type": "unocc",
				"energy": 0.05411,
				"method": "rhf"
			},
			{
				"type": "unocc",
				"energy": 0.05423,
				"method": "rhf"
			}
		],
		"cosmo_sigma_profile": { 
			"-0.025": 0.0,
			"-0.024": 0.0,
			"-0.023": 0.0,
			"-0.022": 0.0,
			"-0.021": 0.0,
			"-0.02": 0.0,
			"-0.019": 0.0,
			"-0.018": 0.0,
			"-0.017": 0.0,
			"-0.016": 0.251209105395,
			"-0.015": 0.806740267425,
			"-0.014": 1.23252513464,
			"-0.013": 1.03634424573,
			"-0.012": 1.72140495109,
			"-0.011": 0.681481397241,
			"-0.01": 0.876021897287,
			"-0.009": 1.41370269728,
			"-0.008": 1.89367821247,
			"-0.007": 3.3821177222,
			"-0.006": 8.33586498972,
			"-0.005": 20.8331802455,
			"-0.004": 30.7722832928,
			"-0.003": 35.4160664386,
			"-0.002": 33.067151125,
			"-0.001": 30.5014468493,
			"0.0": 37.5278394177,
			"0.001": 34.1971890443,
			"0.002": 23.9901299248,
			"0.003": 22.0745411321,
			"0.004": 24.6766481969,
			"0.005": 17.7843704047,
			"0.006": 6.19631805102,
			"0.007": 4.10217960271,
			"0.008": 3.95824280503,
			"0.009": 2.31052832759,
			"0.01": 2.12561004722,
			"0.011": 2.50240499107,
			"0.012": 2.31099627094,
			"0.013": 3.38247439377,
			"0.014": 2.90432053909,
			"0.015": 0.23862367635,
			"0.016": 0.0,
			"0.017": 0.0,
			"0.018": 0.0,
			"0.019": 0.0,
			"0.02": 0.0,
			"0.021": 0.0,
			"0.022": 0.0,
			"0.023": 0.0,
			"0.024": 0.0,
			"0.025": 0.0
		}
	}
}
