{
	 "smiles": "FC1=CC(=CC=C1)C(=O)C1=NC=CC=C1", 
	 "Tm": 311.15, 
	 "num_atms": 23, 
	 "gaussian": { 
		 "optdone": 1, 
		 "sigma_profile": "yes", 
		 "theory": "DFT", 
		 "functional": "B3LYP", 
		 "basiset": "6-31G**", 
		 "properties": { 
			 "R2extent": 3735.2635, 
			 "electric_dipole_moment_norm": 2.22825667507, 
			 "electric_quadrupole_moment_norm": 20.8266129447, 
			 "total_energy": -691.901878671, 
			 "HOMO_LUMO_gap": 0.16435, 
			 "cosmo_polarized_energy": -8.13, 
			 "cosmo_cavitation_energy": 28.4, 
			 "cosmo_dispersion_energy": -20.78, 
			 "cosmo_repulsion_energy": 1.57, 
			 "cosmo_total_nonelectrostatic_energy": 9.19, 
			 "SMD_solvation_energy": 5.33 
		},
		"coords": [
			{
				"x": 2.5027780697,
				"y": -2.8849509898,
				"z": -2.267382515,
				"element": "F" 
			},
			{
				"x": 1.5128225958,
				"y": -1.9709084,
				"z": -2.3667870145,
				"element": "C" 
			},
			{
				"x": 1.1829844385,
				"y": -1.2252813338,
				"z": -1.2428288275,
				"element": "C" 
			},
			{
				"x": 0.1575929502,
				"y": -0.2705808311,
				"z": -1.3415346396,
				"element": "C" 
			},
			{
				"x": -0.5019988375,
				"y": -0.0966074456,
				"z": -2.5729355215,
				"element": "C" 
			},
			{
				"x": -0.1544410682,
				"y": -0.8654615518,
				"z": -3.6786844542,
				"element": "C" 
			},
			{
				"x": 0.8655512171,
				"y": -1.8161655059,
				"z": -3.5864437924,
				"element": "C" 
			},
			{
				"x": -0.2742461934,
				"y": 0.6399752686,
				"z": -0.2277142121,
				"element": "C" 
			},
			{
				"x": -1.0252186871,
				"y": 1.578197059,
				"z": -0.4767886753,
				"element": "O" 
			},
			{
				"x": 0.166661233,
				"y": 0.4701175534,
				"z": 1.2130725717,
				"element": "C" 
			},
			{
				"x": 0.7957550578,
				"y": -0.6496567332,
				"z": 1.6036024155,
				"element": "N" 
			},
			{
				"x": 1.1312099558,
				"y": -0.7678926267,
				"z": 2.891671499,
				"element": "C" 
			},
			{
				"x": 0.8655952575,
				"y": 0.2124544469,
				"z": 3.8492791272,
				"element": "C" 
			},
			{
				"x": 0.2147594819,
				"y": 1.3765878328,
				"z": 3.4410057843,
				"element": "C" 
			},
			{
				"x": -0.1449687907,
				"y": 1.5086557801,
				"z": 2.1036330644,
				"element": "C" 
			},
			{
				"x": 1.6983513604,
				"y": -1.3986411678,
				"z": -0.3095300197,
				"element": "H" 
			},
			{
				"x": -1.2826036742,
				"y": 0.6522323963,
				"z": -2.635812034,
				"element": "H" 
			},
			{
				"x": -0.674299184,
				"y": -0.7264033803,
				"z": -4.6217349035,
				"element": "H" 
			},
			{
				"x": 1.1604085916,
				"y": -2.42767917,
				"z": -4.4325880893,
				"element": "H" 
			},
			{
				"x": 1.6358358343,
				"y": -1.6904962694,
				"z": 3.1720445143,
				"element": "H" 
			},
			{
				"x": 1.1625665904,
				"y": 0.0628988909,
				"z": 4.8825021777,
				"element": "H" 
			},
			{
				"x": -0.0104256759,
				"y": 2.1653765384,
				"z": 4.152875602,
				"element": "H" 
			},
			{
				"x": -0.662770523,
				"y": 2.382329639,
				"z": 1.7271779425,
				"element": "H" 
			}
		],
		 "valence_orbital": [ 
			{
				"type": "occ",
				"energy": -0.28109,
				"method": "rhf"
			},
			{
				"type": "occ",
				"energy": -0.2729,
				"method": "rhf"
			},
			{
				"type": "occ",
				"energy": -0.26264,
				"method": "rhf"
			},
			{
				"type": "occ",
				"energy": -0.25,
				"method": "rhf"
			},
			{
				"type": "occ",
				"energy": -0.2445,
				"method": "rhf"
			},
			{
				"type": "unocc",
				"energy": -0.08015,
				"method": "rhf"
			},
			{
				"type": "unocc",
				"energy": -0.03458,
				"method": "rhf"
			},
			{
				"type": "unocc",
				"energy": -0.01918,
				"method": "rhf"
			},
			{
				"type": "unocc",
				"energy": 0.00108,
				"method": "rhf"
			},
			{
				"type": "unocc",
				"energy": 0.05609,
				"method": "rhf"
			}
		],
		"cosmo_sigma_profile": { 
			"-0.025": 0.0,
			"-0.024": 0.0,
			"-0.023": 0.0,
			"-0.022": 0.0,
			"-0.021": 0.0,
			"-0.02": 0.0,
			"-0.019": 0.0,
			"-0.018": 0.0,
			"-0.017": 0.0,
			"-0.016": 0.0,
			"-0.015": 0.0,
			"-0.014": 0.0,
			"-0.013": 0.0,
			"-0.012": 0.0,
			"-0.011": 0.0,
			"-0.01": 0.0,
			"-0.009": 0.0,
			"-0.008": 2.90270360008,
			"-0.007": 9.93025353217,
			"-0.006": 14.6796426966,
			"-0.005": 13.0233417508,
			"-0.004": 12.5492592553,
			"-0.003": 12.7484853681,
			"-0.002": 13.2590597068,
			"-0.001": 15.4849157114,
			"0.0": 23.9594374935,
			"0.001": 29.3517208891,
			"0.002": 25.7746143932,
			"0.003": 17.4398033819,
			"0.004": 14.676631274,
			"0.005": 6.30078528943,
			"0.006": 3.26746827139,
			"0.007": 2.4979465671,
			"0.008": 2.39244449583,
			"0.009": 2.71987961023,
			"0.01": 2.85801760731,
			"0.011": 3.19744539047,
			"0.012": 0.882952349269,
			"0.013": 0.0,
			"0.014": 0.0,
			"0.015": 0.0,
			"0.016": 0.0,
			"0.017": 0.0,
			"0.018": 0.0,
			"0.019": 0.0,
			"0.02": 0.0,
			"0.021": 0.0,
			"0.022": 0.0,
			"0.023": 0.0,
			"0.024": 0.0,
			"0.025": 0.0
		}
	}
}
