{
	 "smiles": "N#CCN(CC#N)CC#N", 
	 "Tm": 399.15, 
	 "num_atms": 16, 
	 "gaussian": { 
		 "optdone": 1, 
		 "sigma_profile": "yes", 
		 "theory": "DFT", 
		 "functional": "B3LYP", 
		 "basiset": "6-31G**", 
		 "properties": { 
			 "R2extent": 1888.5421, 
			 "electric_dipole_moment_norm": 2.69789764817, 
			 "electric_quadrupole_moment_norm": 18.8167272003, 
			 "total_energy": -451.170777899, 
			 "HOMO_LUMO_gap": 0.26029, 
			 "cosmo_polarized_energy": -20.79, 
			 "cosmo_cavitation_energy": 23.08, 
			 "cosmo_dispersion_energy": -14.73, 
			 "cosmo_repulsion_energy": 1.21, 
			 "cosmo_total_nonelectrostatic_energy": 9.56, 
			 "SMD_solvation_energy": 5.78 
		},
		"coords": [
			{
				"x": 0.080493021,
				"y": 3.1188450702,
				"z": 2.054036346,
				"element": "N" 
			},
			{
				"x": -0.7501479308,
				"y": 2.4892005799,
				"z": 1.5426378659,
				"element": "C" 
			},
			{
				"x": -1.7301306392,
				"y": 1.6153225752,
				"z": 0.8535343034,
				"element": "C" 
			},
			{
				"x": -1.1160749212,
				"y": 0.5467162281,
				"z": 0.0659197771,
				"element": "N" 
			},
			{
				"x": -0.3457671248,
				"y": 1.0362502454,
				"z": -1.0870579065,
				"element": "C" 
			},
			{
				"x": -1.2115409232,
				"y": 1.7486389699,
				"z": -2.0353966078,
				"element": "C" 
			},
			{
				"x": -1.896509985,
				"y": 2.3314240815,
				"z": -2.7678202665,
				"element": "N" 
			},
			{
				"x": -0.336571278,
				"y": -0.3750407542,
				"z": 0.9015904897,
				"element": "C" 
			},
			{
				"x": 0.0206385623,
				"y": -1.5962045275,
				"z": 0.1671018665,
				"element": "C" 
			},
			{
				"x": 0.3247614017,
				"y": -2.5503605569,
				"z": -0.4180630287,
				"element": "N" 
			},
			{
				"x": -2.3511339568,
				"y": 2.2285473397,
				"z": 0.1932274084,
				"element": "H" 
			},
			{
				"x": -2.3943476448,
				"y": 1.170417397,
				"z": 1.6016591241,
				"element": "H" 
			},
			{
				"x": 0.0888169501,
				"y": 0.1726808231,
				"z": -1.6010660978,
				"element": "H" 
			},
			{
				"x": 0.484219163,
				"y": 1.7053486215,
				"z": -0.799835429,
				"element": "H" 
			},
			{
				"x": 0.5892758726,
				"y": 0.0739270411,
				"z": 1.3021243698,
				"element": "H" 
			},
			{
				"x": -0.952180567,
				"y": -0.6611131341,
				"z": 1.7613077853,
				"element": "H" 
			}
		],
		 "valence_orbital": [ 
			{
				"type": "occ",
				"energy": -0.35841,
				"method": "rhf"
			},
			{
				"type": "occ",
				"energy": -0.35432,
				"method": "rhf"
			},
			{
				"type": "occ",
				"energy": -0.35322,
				"method": "rhf"
			},
			{
				"type": "occ",
				"energy": -0.34622,
				"method": "rhf"
			},
			{
				"type": "occ",
				"energy": -0.29112,
				"method": "rhf"
			},
			{
				"type": "unocc",
				"energy": -0.03083,
				"method": "rhf"
			},
			{
				"type": "unocc",
				"energy": 0.00223,
				"method": "rhf"
			},
			{
				"type": "unocc",
				"energy": 0.00593,
				"method": "rhf"
			},
			{
				"type": "unocc",
				"energy": 0.01186,
				"method": "rhf"
			},
			{
				"type": "unocc",
				"energy": 0.01523,
				"method": "rhf"
			}
		],
		"cosmo_sigma_profile": { 
			"-0.025": 0.0,
			"-0.024": 0.0,
			"-0.023": 0.0,
			"-0.022": 0.0,
			"-0.021": 0.0,
			"-0.02": 0.0,
			"-0.019": 0.0,
			"-0.018": 0.0,
			"-0.017": 0.0,
			"-0.016": 0.0,
			"-0.015": 0.0,
			"-0.014": 0.0,
			"-0.013": 0.310690947531,
			"-0.012": 1.69188863661,
			"-0.011": 4.5602150157,
			"-0.01": 9.74177273902,
			"-0.009": 15.040376023,
			"-0.008": 14.5690512303,
			"-0.007": 11.3932057694,
			"-0.006": 6.89571669203,
			"-0.005": 5.77981383834,
			"-0.004": 5.11957290765,
			"-0.003": 5.25746406379,
			"-0.002": 4.982763862,
			"-0.001": 4.83499064166,
			"0.0": 5.48981236887,
			"0.001": 6.12955310415,
			"0.002": 6.43478764439,
			"0.003": 7.12524070446,
			"0.004": 5.72128687613,
			"0.005": 7.33531949484,
			"0.006": 7.42864521636,
			"0.007": 9.53867992138,
			"0.008": 9.46087022488,
			"0.009": 9.48023824452,
			"0.01": 8.37485162828,
			"0.011": 7.06537431122,
			"0.012": 6.01925358292,
			"0.013": 1.08292459957,
			"0.014": 0.0,
			"0.015": 0.0,
			"0.016": 0.0,
			"0.017": 0.0,
			"0.018": 0.0,
			"0.019": 0.0,
			"0.02": 0.0,
			"0.021": 0.0,
			"0.022": 0.0,
			"0.023": 0.0,
			"0.024": 0.0,
			"0.025": 0.0
		}
	}
}
