{
	 "smiles": "CCOC(=O)C1=CC(O)=C(O)C(O)=C1", 
	 "Tm": 425.15, 
	 "num_atms": 24, 
	 "gaussian": { 
		 "optdone": 1, 
		 "sigma_profile": "yes", 
		 "theory": "DFT", 
		 "functional": "B3LYP", 
		 "basiset": "6-31G**", 
		 "properties": { 
			 "R2extent": 4072.9087, 
			 "electric_dipole_moment_norm": 4.64719176062, 
			 "electric_quadrupole_moment_norm": 9.5094620647, 
			 "total_energy": -725.11300384, 
			 "HOMO_LUMO_gap": 0.18276, 
			 "cosmo_polarized_energy": -15.97, 
			 "cosmo_cavitation_energy": 28.63, 
			 "cosmo_dispersion_energy": -21.31, 
			 "cosmo_repulsion_energy": 1.7, 
			 "cosmo_total_nonelectrostatic_energy": 9.02, 
			 "SMD_solvation_energy": 6.93 
		},
		"coords": [
			{
				"x": 2.2864897236,
				"y": -1.8644976772,
				"z": 2.0486372966,
				"element": "C" 
			},
			{
				"x": 1.7073118791,
				"y": -2.1437916878,
				"z": 0.6694370813,
				"element": "C" 
			},
			{
				"x": 1.2240729705,
				"y": -0.9330180845,
				"z": 0.0445251472,
				"element": "O" 
			},
			{
				"x": -0.0398161646,
				"y": -0.5544631161,
				"z": 0.3633723288,
				"element": "C" 
			},
			{
				"x": -0.752607739,
				"y": -1.1819497433,
				"z": 1.1242580702,
				"element": "O" 
			},
			{
				"x": -0.4434427129,
				"y": 0.7005661037,
				"z": -0.3243532686,
				"element": "C" 
			},
			{
				"x": 0.4268780127,
				"y": 1.3791052311,
				"z": -1.1928723319,
				"element": "C" 
			},
			{
				"x": -0.0088535026,
				"y": 2.5474623609,
				"z": -1.8062119477,
				"element": "C" 
			},
			{
				"x": 0.7394372959,
				"y": 3.3077070876,
				"z": -2.675853081,
				"element": "O" 
			},
			{
				"x": -1.2946806233,
				"y": 3.0412973096,
				"z": -1.5628548073,
				"element": "C" 
			},
			{
				"x": -1.7555672977,
				"y": 4.1877723519,
				"z": -2.1492907612,
				"element": "O" 
			},
			{
				"x": -2.1593626183,
				"y": 2.3611323787,
				"z": -0.695481917,
				"element": "C" 
			},
			{
				"x": -3.4093684794,
				"y": 2.8457275629,
				"z": -0.4618309306,
				"element": "O" 
			},
			{
				"x": -1.7315457453,
				"y": 1.189607516,
				"z": -0.0760105163,
				"element": "C" 
			},
			{
				"x": 3.0796203775,
				"y": -1.1127483942,
				"z": 1.9944317436,
				"element": "H" 
			},
			{
				"x": 2.7115525656,
				"y": -2.7833112072,
				"z": 2.4665691997,
				"element": "H" 
			},
			{
				"x": 1.5062692816,
				"y": -1.5086312501,
				"z": 2.7255700108,
				"element": "H" 
			},
			{
				"x": 0.8863554111,
				"y": -2.8622921868,
				"z": 0.7272238803,
				"element": "H" 
			},
			{
				"x": 2.4708472626,
				"y": -2.5185170421,
				"z": -0.0170398078,
				"element": "H" 
			},
			{
				"x": 1.4228825874,
				"y": 0.9918314073,
				"z": -1.3777090623,
				"element": "H" 
			},
			{
				"x": 1.6084714998,
				"y": 2.9053409746,
				"z": -2.7944619607,
				"element": "H" 
			},
			{
				"x": -1.0512110834,
				"y": 4.5381198922,
				"z": -2.714504362,
				"element": "H" 
			},
			{
				"x": -3.5136220875,
				"y": 3.6581263507,
				"z": -0.9794114072,
				"element": "H" 
			},
			{
				"x": -2.3926108135,
				"y": 0.6563238619,
				"z": 0.5961614031,
				"element": "H" 
			}
		],
		 "valence_orbital": [ 
			{
				"type": "occ",
				"energy": -0.31461,
				"method": "rhf"
			},
			{
				"type": "occ",
				"energy": -0.29286,
				"method": "rhf"
			},
			{
				"type": "occ",
				"energy": -0.26712,
				"method": "rhf"
			},
			{
				"type": "occ",
				"energy": -0.22584,
				"method": "rhf"
			},
			{
				"type": "occ",
				"energy": -0.21669,
				"method": "rhf"
			},
			{
				"type": "unocc",
				"energy": -0.03393,
				"method": "rhf"
			},
			{
				"type": "unocc",
				"energy": 0.01313,
				"method": "rhf"
			},
			{
				"type": "unocc",
				"energy": 0.04108,
				"method": "rhf"
			},
			{
				"type": "unocc",
				"energy": 0.07618,
				"method": "rhf"
			},
			{
				"type": "unocc",
				"energy": 0.07926,
				"method": "rhf"
			}
		],
		"cosmo_sigma_profile": { 
			"-0.025": 0.0,
			"-0.024": 0.0,
			"-0.023": 0.0,
			"-0.022": 0.0,
			"-0.021": 0.0,
			"-0.02": 0.0,
			"-0.019": 0.329955163799,
			"-0.018": 1.11226107637,
			"-0.017": 1.11682117891,
			"-0.016": 0.976546349607,
			"-0.015": 2.50895248855,
			"-0.014": 2.20446539059,
			"-0.013": 1.9335288227,
			"-0.012": 1.97310727424,
			"-0.011": 2.07416424528,
			"-0.01": 2.91948780547,
			"-0.009": 2.30239818523,
			"-0.008": 2.47481762724,
			"-0.007": 1.53290896478,
			"-0.006": 4.99939011056,
			"-0.005": 8.65361379662,
			"-0.004": 13.1065982269,
			"-0.003": 15.1820284743,
			"-0.002": 15.9353865447,
			"-0.001": 16.3915126531,
			"0.0": 18.1786221491,
			"0.001": 16.4322568581,
			"0.002": 18.8455966702,
			"0.003": 20.6488921034,
			"0.004": 13.3834207251,
			"0.005": 8.04427070688,
			"0.006": 9.00694173129,
			"0.007": 5.61708140866,
			"0.008": 3.51384448317,
			"0.009": 2.37219895812,
			"0.01": 3.22377200475,
			"0.011": 4.77210131208,
			"0.012": 3.97368931958,
			"0.013": 1.01294564663,
			"0.014": 0.0,
			"0.015": 0.0,
			"0.016": 0.0,
			"0.017": 0.0,
			"0.018": 0.0,
			"0.019": 0.0,
			"0.02": 0.0,
			"0.021": 0.0,
			"0.022": 0.0,
			"0.023": 0.0,
			"0.024": 0.0,
			"0.025": 0.0
		}
	}
}
