{
	 "smiles": "CC1=NC(=NC(=C1)C(O)=O)C1=CC=C(Cl)C=C1", 
	 "Tm": 437.15, 
	 "num_atms": 26, 
	 "gaussian": { 
		 "optdone": 1, 
		 "sigma_profile": "yes", 
		 "theory": "DFT", 
		 "functional": "B3LYP", 
		 "basiset": "6-31G**", 
		 "properties": { 
			 "R2extent": 6378.1613, 
			 "electric_dipole_moment_norm": 2.19137563416, 
			 "electric_quadrupole_moment_norm": 12.5542371513, 
			 "total_energy": -1182.87412834, 
			 "HOMO_LUMO_gap": 0.16092, 
			 "cosmo_polarized_energy": -12.36, 
			 "cosmo_cavitation_energy": 33.66, 
			 "cosmo_dispersion_energy": -24.53, 
			 "cosmo_repulsion_energy": 1.91, 
			 "cosmo_total_nonelectrostatic_energy": 11.03, 
			 "SMD_solvation_energy": 4.98 
		},
		"coords": [
			{
				"x": 1.474367891,
				"y": 0.1257641907,
				"z": -3.6840569137,
				"element": "C" 
			},
			{
				"x": 0.584394045,
				"y": 0.5720294543,
				"z": -2.5546307405,
				"element": "C" 
			},
			{
				"x": 0.4572336463,
				"y": -0.2464106567,
				"z": -1.504863861,
				"element": "N" 
			},
			{
				"x": -0.3375452589,
				"y": 0.1444912843,
				"z": -0.4886142439,
				"element": "C" 
			},
			{
				"x": -1.0189230385,
				"y": 1.2993137854,
				"z": -0.4428965042,
				"element": "N" 
			},
			{
				"x": -0.8864714063,
				"y": 2.1112668217,
				"z": -1.4954914526,
				"element": "C" 
			},
			{
				"x": -0.0912026878,
				"y": 1.800425508,
				"z": -2.5932220223,
				"element": "C" 
			},
			{
				"x": -1.6281860692,
				"y": 3.4219024985,
				"z": -1.4994665885,
				"element": "C" 
			},
			{
				"x": -2.3659382183,
				"y": 3.6228855283,
				"z": -0.3946027569,
				"element": "O" 
			},
			{
				"x": -1.5638974824,
				"y": 4.2165006081,
				"z": -2.415771612,
				"element": "O" 
			},
			{
				"x": -0.4700619351,
				"y": -0.7724787471,
				"z": 0.6694950143,
				"element": "C" 
			},
			{
				"x": -1.2827165346,
				"y": -0.424008074,
				"z": 1.7598043283,
				"element": "C" 
			},
			{
				"x": -1.4130376328,
				"y": -1.2783990289,
				"z": 2.8507529037,
				"element": "C" 
			},
			{
				"x": -0.723799054,
				"y": -2.4919183211,
				"z": 2.8498837148,
				"element": "C" 
			},
			{
				"x": -0.8836588273,
				"y": -3.5753604756,
				"z": 4.2236365899,
				"element": "Cl" 
			},
			{
				"x": 0.0900525848,
				"y": -2.860783307,
				"z": 1.7780825728,
				"element": "C" 
			},
			{
				"x": 0.2127596167,
				"y": -1.9982284503,
				"z": 0.6924120851,
				"element": "C" 
			},
			{
				"x": 1.9019370479,
				"y": -0.8516933589,
				"z": -3.4575847698,
				"element": "H" 
			},
			{
				"x": 0.9105237938,
				"y": 0.0607832397,
				"z": -4.6211430797,
				"element": "H" 
			},
			{
				"x": 2.2869696067,
				"y": 0.8426267862,
				"z": -3.8454642633,
				"element": "H" 
			},
			{
				"x": -0.0115371254,
				"y": 2.4877384298,
				"z": -3.426693605,
				"element": "H" 
			},
			{
				"x": -2.7909250709,
				"y": 4.4889696429,
				"z": -0.5141848924,
				"element": "H" 
			},
			{
				"x": -1.8087360729,
				"y": 0.5236709177,
				"z": 1.7387894035,
				"element": "H" 
			},
			{
				"x": -2.0403695857,
				"y": -1.0106135,
				"z": 3.6936262841,
				"element": "H" 
			},
			{
				"x": 0.6171191413,
				"y": -3.8081735071,
				"z": 1.7970173285,
				"element": "H" 
			},
			{
				"x": 0.8394486268,
				"y": -2.264501269,
				"z": -0.1508129191,
				"element": "H" 
			}
		],
		 "valence_orbital": [ 
			{
				"type": "occ",
				"energy": -0.29441,
				"method": "rhf"
			},
			{
				"type": "occ",
				"energy": -0.29393,
				"method": "rhf"
			},
			{
				"type": "occ",
				"energy": -0.26379,
				"method": "rhf"
			},
			{
				"type": "occ",
				"energy": -0.25933,
				"method": "rhf"
			},
			{
				"type": "occ",
				"energy": -0.23861,
				"method": "rhf"
			},
			{
				"type": "unocc",
				"energy": -0.07769,
				"method": "rhf"
			},
			{
				"type": "unocc",
				"energy": -0.06062,
				"method": "rhf"
			},
			{
				"type": "unocc",
				"energy": -0.01208,
				"method": "rhf"
			},
			{
				"type": "unocc",
				"energy": 0.00377,
				"method": "rhf"
			},
			{
				"type": "unocc",
				"energy": 0.03099,
				"method": "rhf"
			}
		],
		"cosmo_sigma_profile": { 
			"-0.025": 0.0,
			"-0.024": 0.0,
			"-0.023": 0.0,
			"-0.022": 0.0,
			"-0.021": 0.0,
			"-0.02": 0.0,
			"-0.019": 0.401613163661,
			"-0.018": 1.15164043507,
			"-0.017": 0.959875989169,
			"-0.016": 0.417866445505,
			"-0.015": 1.01957103137,
			"-0.014": 0.682230816715,
			"-0.013": 0.43556073832,
			"-0.012": 1.42956314533,
			"-0.011": 0.746502809484,
			"-0.01": 0.234094592971,
			"-0.009": 0.557325227184,
			"-0.008": 1.948979008,
			"-0.007": 7.1689451084,
			"-0.006": 10.2851070589,
			"-0.005": 17.1538505089,
			"-0.004": 15.4824360484,
			"-0.003": 19.4660361224,
			"-0.002": 23.0886052286,
			"-0.001": 25.1854468373,
			"0.0": 18.8634932653,
			"0.001": 21.4707593535,
			"0.002": 24.7701262497,
			"0.003": 24.3060543903,
			"0.004": 16.3749475307,
			"0.005": 8.42565970788,
			"0.006": 5.37748287933,
			"0.007": 4.36918518424,
			"0.008": 4.46749321607,
			"0.009": 4.11433316413,
			"0.01": 3.87082213055,
			"0.011": 6.47560283877,
			"0.012": 1.54362215556,
			"0.013": 0.512433192289,
			"0.014": 0.0,
			"0.015": 0.0,
			"0.016": 0.0,
			"0.017": 0.0,
			"0.018": 0.0,
			"0.019": 0.0,
			"0.02": 0.0,
			"0.021": 0.0,
			"0.022": 0.0,
			"0.023": 0.0,
			"0.024": 0.0,
			"0.025": 0.0
		}
	}
}
