{
	 "smiles": "CCOC(=O)C1=C(C)N=C(C)S1", 
	 "Tm": 322.15, 
	 "num_atms": 23, 
	 "gaussian": { 
		 "optdone": 1, 
		 "sigma_profile": "yes", 
		 "theory": "DFT", 
		 "functional": "B3LYP", 
		 "basiset": "6-31G**", 
		 "properties": { 
			 "R2extent": 3632.5509, 
			 "electric_dipole_moment_norm": 1.22900187551, 
			 "electric_quadrupole_moment_norm": 18.1560616029, 
			 "total_energy": -914.889984548, 
			 "HOMO_LUMO_gap": 0.18621, 
			 "cosmo_polarized_energy": -8.48, 
			 "cosmo_cavitation_energy": 28.49, 
			 "cosmo_dispersion_energy": -20.91, 
			 "cosmo_repulsion_energy": 1.65, 
			 "cosmo_total_nonelectrostatic_energy": 9.23, 
			 "SMD_solvation_energy": 4.43 
		},
		"coords": [
			{
				"x": -0.6081516311,
				"y": 3.0054485903,
				"z": 2.2155470222,
				"element": "C" 
			},
			{
				"x": 0.5401899873,
				"y": 2.5279710296,
				"z": 1.339539871,
				"element": "C" 
			},
			{
				"x": 0.3246791158,
				"y": 1.1716450375,
				"z": 0.8777069593,
				"element": "O" 
			},
			{
				"x": 0.7089773525,
				"y": 0.1853754421,
				"z": 1.7223835224,
				"element": "C" 
			},
			{
				"x": 1.2158241612,
				"y": 0.3818918707,
				"z": 2.8131948444,
				"element": "O" 
			},
			{
				"x": 0.4499152045,
				"y": -1.1502199337,
				"z": 1.1725574192,
				"element": "C" 
			},
			{
				"x": -0.1036783897,
				"y": -1.5657338051,
				"z": -0.024209313,
				"element": "C" 
			},
			{
				"x": -0.6127887682,
				"y": -0.6992703819,
				"z": -1.1408255772,
				"element": "C" 
			},
			{
				"x": -0.1803195428,
				"y": -2.9317462093,
				"z": -0.1753103948,
				"element": "N" 
			},
			{
				"x": 0.2956395849,
				"y": -3.5687787887,
				"z": 0.8645278453,
				"element": "C" 
			},
			{
				"x": 0.3367018102,
				"y": -5.0629782937,
				"z": 0.9680454954,
				"element": "C" 
			},
			{
				"x": 0.8880170433,
				"y": -2.5349749565,
				"z": 2.141455478,
				"element": "S" 
			},
			{
				"x": -1.5627989355,
				"y": 2.9217810274,
				"z": 1.6877347663,
				"element": "H" 
			},
			{
				"x": -0.4558376042,
				"y": 4.0557668106,
				"z": 2.4857964255,
				"element": "H" 
			},
			{
				"x": -0.6580824326,
				"y": 2.4184714609,
				"z": 3.1356372786,
				"element": "H" 
			},
			{
				"x": 1.4899459162,
				"y": 2.5690777028,
				"z": 1.8775302706,
				"element": "H" 
			},
			{
				"x": 0.6157539394,
				"y": 3.1152073195,
				"z": 0.421272288,
				"element": "H" 
			},
			{
				"x": 0.1791072276,
				"y": -0.0583327243,
				"z": -1.5389839369,
				"element": "H" 
			},
			{
				"x": -1.4111786046,
				"y": -0.0356099191,
				"z": -0.7970939788,
				"element": "H" 
			},
			{
				"x": -0.9931806367,
				"y": -1.3392980083,
				"z": -1.9383335272,
				"element": "H" 
			},
			{
				"x": 1.3623297312,
				"y": -5.4283604154,
				"z": 1.0858342129,
				"element": "H" 
			},
			{
				"x": -0.2427558961,
				"y": -5.4213011786,
				"z": 1.8254425237,
				"element": "H" 
			},
			{
				"x": -0.0859086325,
				"y": -5.4853316766,
				"z": 0.0548505049,
				"element": "H" 
			}
		],
		 "valence_orbital": [ 
			{
				"type": "occ",
				"energy": -0.2999,
				"method": "rhf"
			},
			{
				"type": "occ",
				"energy": -0.29099,
				"method": "rhf"
			},
			{
				"type": "occ",
				"energy": -0.28137,
				"method": "rhf"
			},
			{
				"type": "occ",
				"energy": -0.26199,
				"method": "rhf"
			},
			{
				"type": "occ",
				"energy": -0.2411,
				"method": "rhf"
			},
			{
				"type": "unocc",
				"energy": -0.05489,
				"method": "rhf"
			},
			{
				"type": "unocc",
				"energy": 0.01876,
				"method": "rhf"
			},
			{
				"type": "unocc",
				"energy": 0.02163,
				"method": "rhf"
			},
			{
				"type": "unocc",
				"energy": 0.08979,
				"method": "rhf"
			},
			{
				"type": "unocc",
				"energy": 0.09427,
				"method": "rhf"
			}
		],
		"cosmo_sigma_profile": { 
			"-0.025": 0.0,
			"-0.024": 0.0,
			"-0.023": 0.0,
			"-0.022": 0.0,
			"-0.021": 0.0,
			"-0.02": 0.0,
			"-0.019": 0.0,
			"-0.018": 0.0,
			"-0.017": 0.0,
			"-0.016": 0.0,
			"-0.015": 0.0,
			"-0.014": 0.0,
			"-0.013": 0.0,
			"-0.012": 0.0,
			"-0.011": 0.0,
			"-0.01": 0.0,
			"-0.009": 0.0,
			"-0.008": 0.0,
			"-0.007": 0.702533699252,
			"-0.006": 7.02147614089,
			"-0.005": 14.5986972223,
			"-0.004": 21.3890065646,
			"-0.003": 23.7057274545,
			"-0.002": 26.5206060958,
			"-0.001": 28.1576502968,
			"0.0": 26.1222716378,
			"0.001": 19.3218078472,
			"0.002": 13.9672737542,
			"0.003": 11.4375251364,
			"0.004": 5.95434339957,
			"0.005": 4.42475508088,
			"0.006": 3.59873422534,
			"0.007": 2.78920755351,
			"0.008": 2.23237338997,
			"0.009": 1.8037611581,
			"0.01": 3.74564866893,
			"0.011": 3.40845547375,
			"0.012": 4.81456627864,
			"0.013": 0.889919821338,
			"0.014": 0.574094209755,
			"0.015": 0.312548155442,
			"0.016": 0.0,
			"0.017": 0.0,
			"0.018": 0.0,
			"0.019": 0.0,
			"0.02": 0.0,
			"0.021": 0.0,
			"0.022": 0.0,
			"0.023": 0.0,
			"0.024": 0.0,
			"0.025": 0.0
		}
	}
}
