{
	 "smiles": "CC1=CC=C(C=C)C=C1", 
	 "Tm": 239.15, 
	 "num_atms": 19, 
	 "gaussian": { 
		 "optdone": 1, 
		 "sigma_profile": "yes", 
		 "theory": "DFT", 
		 "functional": "B3LYP", 
		 "basiset": "6-31G**", 
		 "properties": { 
			 "R2extent": 1565.5437, 
			 "electric_dipole_moment_norm": 0.638286095728, 
			 "electric_quadrupole_moment_norm": 5.41316863861, 
			 "total_energy": -348.974192182, 
			 "HOMO_LUMO_gap": 0.18735, 
			 "cosmo_polarized_energy": -4.0, 
			 "cosmo_cavitation_energy": 22.41, 
			 "cosmo_dispersion_energy": -16.34, 
			 "cosmo_repulsion_energy": 1.32, 
			 "cosmo_total_nonelectrostatic_energy": 7.39, 
			 "SMD_solvation_energy": 4.57 
		},
		"coords": [
			{
				"x": 2.5858033498,
				"y": 1.0193875696,
				"z": 0.573160717,
				"element": "C" 
			},
			{
				"x": 1.1111713377,
				"y": 0.6949580837,
				"z": 0.5588755988,
				"element": "C" 
			},
			{
				"x": 0.209708838,
				"y": 1.3531005678,
				"z": 1.4013227925,
				"element": "C" 
			},
			{
				"x": -1.1522187111,
				"y": 1.0545928111,
				"z": 1.3708677204,
				"element": "C" 
			},
			{
				"x": -1.668659238,
				"y": 0.0849024899,
				"z": 0.4974924364,
				"element": "C" 
			},
			{
				"x": -3.1136078469,
				"y": -0.1920187484,
				"z": 0.5071333783,
				"element": "C" 
			},
			{
				"x": -3.7832015564,
				"y": -1.0739694752,
				"z": -0.2458033273,
				"element": "C" 
			},
			{
				"x": -0.758442205,
				"y": -0.5773054268,
				"z": -0.3484060477,
				"element": "C" 
			},
			{
				"x": 0.5975224662,
				"y": -0.2775819083,
				"z": -0.3155622409,
				"element": "C" 
			},
			{
				"x": 3.1941508451,
				"y": 0.1136351906,
				"z": 0.6744137376,
				"element": "H" 
			},
			{
				"x": 2.8399648844,
				"y": 1.6886916943,
				"z": 1.399764964,
				"element": "H" 
			},
			{
				"x": 2.8952220863,
				"y": 1.5101787677,
				"z": -0.3577898643,
				"element": "H" 
			},
			{
				"x": 0.5765687371,
				"y": 2.1090331459,
				"z": 2.0913963515,
				"element": "H" 
			},
			{
				"x": -1.830367643,
				"y": 1.5814797809,
				"z": 2.0379951488,
				"element": "H" 
			},
			{
				"x": -3.6814906457,
				"y": 0.4054019327,
				"z": 1.2203012921,
				"element": "H" 
			},
			{
				"x": -3.2981462389,
				"y": -1.7096291643,
				"z": -0.980853071,
				"element": "H" 
			},
			{
				"x": -4.8576776213,
				"y": -1.1879873702,
				"z": -0.1467307127,
				"element": "H" 
			},
			{
				"x": -1.1153393524,
				"y": -1.3363332843,
				"z": -1.0381153207,
				"element": "H" 
			},
			{
				"x": 1.276238514,
				"y": -0.8075366567,
				"z": -0.9801635527,
				"element": "H" 
			}
		],
		 "valence_orbital": [ 
			{
				"type": "occ",
				"energy": -0.33791,
				"method": "rhf"
			},
			{
				"type": "occ",
				"energy": -0.33002,
				"method": "rhf"
			},
			{
				"type": "occ",
				"energy": -0.2885,
				"method": "rhf"
			},
			{
				"type": "occ",
				"energy": -0.24731,
				"method": "rhf"
			},
			{
				"type": "occ",
				"energy": -0.21501,
				"method": "rhf"
			},
			{
				"type": "unocc",
				"energy": -0.02766,
				"method": "rhf"
			},
			{
				"type": "unocc",
				"energy": 0.00229,
				"method": "rhf"
			},
			{
				"type": "unocc",
				"energy": 0.06282,
				"method": "rhf"
			},
			{
				"type": "unocc",
				"energy": 0.09918,
				"method": "rhf"
			},
			{
				"type": "unocc",
				"energy": 0.11407,
				"method": "rhf"
			}
		],
		"cosmo_sigma_profile": { 
			"-0.025": 0.0,
			"-0.024": 0.0,
			"-0.023": 0.0,
			"-0.022": 0.0,
			"-0.021": 0.0,
			"-0.02": 0.0,
			"-0.019": 0.0,
			"-0.018": 0.0,
			"-0.017": 0.0,
			"-0.016": 0.0,
			"-0.015": 0.0,
			"-0.014": 0.0,
			"-0.013": 0.0,
			"-0.012": 0.0,
			"-0.011": 0.0,
			"-0.01": 0.0,
			"-0.009": 0.0,
			"-0.008": 0.0,
			"-0.007": 0.463158422828,
			"-0.006": 3.90700492085,
			"-0.005": 13.0284760449,
			"-0.004": 18.9627367316,
			"-0.003": 18.7275555571,
			"-0.002": 16.62123622,
			"-0.001": 16.4150020245,
			"0.0": 16.1849208887,
			"0.001": 12.5765093623,
			"0.002": 10.0907548288,
			"0.003": 10.5387482933,
			"0.004": 12.4890328421,
			"0.005": 14.33335187,
			"0.006": 11.5756696135,
			"0.007": 2.25094635028,
			"0.008": 0.0104069801647,
			"0.009": 0.0,
			"0.01": 0.0,
			"0.011": 0.0,
			"0.012": 0.0,
			"0.013": 0.0,
			"0.014": 0.0,
			"0.015": 0.0,
			"0.016": 0.0,
			"0.017": 0.0,
			"0.018": 0.0,
			"0.019": 0.0,
			"0.02": 0.0,
			"0.021": 0.0,
			"0.022": 0.0,
			"0.023": 0.0,
			"0.024": 0.0,
			"0.025": 0.0
		}
	}
}
