{
	 "smiles": "OC1(CC2=CC=CC=C12)C#CC1=CC=CC=C1", 
	 "Tm": 372.15, 
	 "num_atms": 29, 
	 "gaussian": { 
		 "optdone": 1, 
		 "sigma_profile": "yes", 
		 "theory": "DFT", 
		 "functional": "B3LYP", 
		 "basiset": "6-31G**", 
		 "properties": { 
			 "R2extent": 5781.8116, 
			 "electric_dipole_moment_norm": 1.75575564359, 
			 "electric_quadrupole_moment_norm": 8.32385137421, 
			 "total_energy": -692.051435461, 
			 "HOMO_LUMO_gap": 0.18999, 
			 "cosmo_polarized_energy": -10.16, 
			 "cosmo_cavitation_energy": 34.73, 
			 "cosmo_dispersion_energy": -24.56, 
			 "cosmo_repulsion_energy": 1.95, 
			 "cosmo_total_nonelectrostatic_energy": 12.13, 
			 "SMD_solvation_energy": 5.72 
		},
		"coords": [
			{
				"x": -2.3238049285,
				"y": -0.5273073684,
				"z": 1.6785151655,
				"element": "O" 
			},
			{
				"x": -0.9750792468,
				"y": -0.8525698717,
				"z": 1.3771187686,
				"element": "C" 
			},
			{
				"x": -0.5702991471,
				"y": -2.3850613499,
				"z": 1.6272506443,
				"element": "C" 
			},
			{
				"x": 0.3270601317,
				"y": -1.8613814557,
				"z": 2.7360656511,
				"element": "C" 
			},
			{
				"x": 1.2433021067,
				"y": -2.2353501703,
				"z": 3.7102398105,
				"element": "C" 
			},
			{
				"x": 1.7639990378,
				"y": -1.1943381923,
				"z": 4.4946543015,
				"element": "C" 
			},
			{
				"x": 1.3835902155,
				"y": 0.1432373521,
				"z": 4.301053487,
				"element": "C" 
			},
			{
				"x": 0.4650404822,
				"y": 0.5103566995,
				"z": 3.3065423758,
				"element": "C" 
			},
			{
				"x": -0.0374112606,
				"y": -0.5331580626,
				"z": 2.5434368117,
				"element": "C" 
			},
			{
				"x": -0.5747184616,
				"y": -0.3333452341,
				"z": 0.0680138521,
				"element": "C" 
			},
			{
				"x": -0.2823181316,
				"y": 0.0867239714,
				"z": -1.0330329759,
				"element": "C" 
			},
			{
				"x": 0.0738347842,
				"y": 0.5874081499,
				"z": -2.3229898359,
				"element": "C" 
			},
			{
				"x": -0.3023227546,
				"y": 1.8872814748,
				"z": -2.7145193144,
				"element": "C" 
			},
			{
				"x": 0.0446855781,
				"y": 2.3708604623,
				"z": -3.9735077258,
				"element": "C" 
			},
			{
				"x": 0.7714112523,
				"y": 1.5718621472,
				"z": -4.8596865588,
				"element": "C" 
			},
			{
				"x": 1.1502984353,
				"y": 0.2817970192,
				"z": -4.4802478747,
				"element": "C" 
			},
			{
				"x": 0.805315609,
				"y": -0.2107687242,
				"z": -3.2241975492,
				"element": "C" 
			},
			{
				"x": -2.8435809331,
				"y": -0.6775676564,
				"z": 0.876555601,
				"element": "H" 
			},
			{
				"x": -0.0786191753,
				"y": -2.8854689833,
				"z": 0.7870192147,
				"element": "H" 
			},
			{
				"x": -1.4324495292,
				"y": -2.9731807083,
				"z": 1.9569027297,
				"element": "H" 
			},
			{
				"x": 1.5477243959,
				"y": -3.2649179592,
				"z": 3.8763279694,
				"element": "H" 
			},
			{
				"x": 2.481316005,
				"y": -1.426169276,
				"z": 5.2774659363,
				"element": "H" 
			},
			{
				"x": 1.8158120516,
				"y": 0.9096090579,
				"z": 4.9385675261,
				"element": "H" 
			},
			{
				"x": 0.1777255786,
				"y": 1.5466067036,
				"z": 3.1571826178,
				"element": "H" 
			},
			{
				"x": -0.8645231432,
				"y": 2.5056791772,
				"z": -2.0221938162,
				"element": "H" 
			},
			{
				"x": -0.2514441186,
				"y": 3.3748189474,
				"z": -4.2636403015,
				"element": "H" 
			},
			{
				"x": 1.0413642989,
				"y": 1.9525894814,
				"z": -5.8403713035,
				"element": "H" 
			},
			{
				"x": 1.7159010169,
				"y": -0.3429484033,
				"z": -5.165519094,
				"element": "H" 
			},
			{
				"x": 1.0973898503,
				"y": -1.2125972281,
				"z": -2.9261061132,
				"element": "H" 
			}
		],
		 "valence_orbital": [ 
			{
				"type": "occ",
				"energy": -0.26116,
				"method": "rhf"
			},
			{
				"type": "occ",
				"energy": -0.25697,
				"method": "rhf"
			},
			{
				"type": "occ",
				"energy": -0.24945,
				"method": "rhf"
			},
			{
				"type": "occ",
				"energy": -0.24141,
				"method": "rhf"
			},
			{
				"type": "occ",
				"energy": -0.22481,
				"method": "rhf"
			},
			{
				"type": "unocc",
				"energy": -0.03482,
				"method": "rhf"
			},
			{
				"type": "unocc",
				"energy": -0.00582,
				"method": "rhf"
			},
			{
				"type": "unocc",
				"energy": -0.0057,
				"method": "rhf"
			},
			{
				"type": "unocc",
				"energy": 0.00574,
				"method": "rhf"
			},
			{
				"type": "unocc",
				"energy": 0.04555,
				"method": "rhf"
			}
		],
		"cosmo_sigma_profile": { 
			"-0.025": 0.0,
			"-0.024": 0.0,
			"-0.023": 0.0,
			"-0.022": 0.0,
			"-0.021": 0.0,
			"-0.02": 0.0,
			"-0.019": 0.0,
			"-0.018": 0.0,
			"-0.017": 0.0,
			"-0.016": 0.376761751951,
			"-0.015": 1.36095267503,
			"-0.014": 0.418953297833,
			"-0.013": 0.754591836018,
			"-0.012": 0.411150123358,
			"-0.011": 1.03166972136,
			"-0.01": 1.49646208115,
			"-0.009": 0.224281199578,
			"-0.008": 0.426590867698,
			"-0.007": 2.06859652307,
			"-0.006": 15.629514177,
			"-0.005": 21.1456408574,
			"-0.004": 26.1350996828,
			"-0.003": 20.7215143914,
			"-0.002": 17.9507188625,
			"-0.001": 21.4302862699,
			"0.0": 16.6067030301,
			"0.001": 16.3965661898,
			"0.002": 19.9737670816,
			"0.003": 23.9446550547,
			"0.004": 28.0938311616,
			"0.005": 24.5880707399,
			"0.006": 6.91874116675,
			"0.007": 2.04864557706,
			"0.008": 1.06640601051,
			"0.009": 1.29845783071,
			"0.01": 1.39417654985,
			"0.011": 1.3790266203,
			"0.012": 1.6612317723,
			"0.013": 1.97632165986,
			"0.014": 0.12518948197,
			"0.015": 0.0,
			"0.016": 0.0,
			"0.017": 0.0,
			"0.018": 0.0,
			"0.019": 0.0,
			"0.02": 0.0,
			"0.021": 0.0,
			"0.022": 0.0,
			"0.023": 0.0,
			"0.024": 0.0,
			"0.025": 0.0
		}
	}
}
