{
	 "smiles": "CN1C(C=CC2=CC=NC(N)=N2)=NC=C1[N+]([O-])=O", 
	 "Tm": 507.15, 
	 "num_atms": 28, 
	 "gaussian": { 
		 "optdone": 1, 
		 "sigma_profile": "yes", 
		 "theory": "DFT", 
		 "functional": "B3LYP", 
		 "basiset": "6-31G**", 
		 "properties": { 
			 "R2extent": 7616.2546, 
			 "electric_dipole_moment_norm": 4.4311475297, 
			 "electric_quadrupole_moment_norm": 27.0619974497, 
			 "total_energy": -865.939904665, 
			 "HOMO_LUMO_gap": 0.12922, 
			 "cosmo_polarized_energy": -20.23, 
			 "cosmo_cavitation_energy": 34.29, 
			 "cosmo_dispersion_energy": -25.12, 
			 "cosmo_repulsion_energy": 1.92, 
			 "cosmo_total_nonelectrostatic_energy": 11.09, 
			 "SMD_solvation_energy": 4.03 
		},
		"coords": [
			{
				"x": 1.9959053362,
				"y": -1.888377644,
				"z": -2.3834152342,
				"element": "C" 
			},
			{
				"x": 0.5893940296,
				"y": -1.4922671845,
				"z": -2.4789929732,
				"element": "N" 
			},
			{
				"x": -0.1643671212,
				"y": -0.8318388326,
				"z": -1.5374912653,
				"element": "C" 
			},
			{
				"x": 0.3295266128,
				"y": -0.398117098,
				"z": -0.2453603327,
				"element": "C" 
			},
			{
				"x": -0.4596773142,
				"y": 0.2396388089,
				"z": 0.6432521351,
				"element": "C" 
			},
			{
				"x": -0.0571561628,
				"y": 0.7170316212,
				"z": 1.9704105178,
				"element": "C" 
			},
			{
				"x": 1.2397453903,
				"y": 0.5894414376,
				"z": 2.4971584495,
				"element": "C" 
			},
			{
				"x": 1.4481790879,
				"y": 1.1108727255,
				"z": 3.7700132786,
				"element": "C" 
			},
			{
				"x": 0.4938160397,
				"y": 1.7010414274,
				"z": 4.4911533716,
				"element": "N" 
			},
			{
				"x": -0.7182791896,
				"y": 1.7620345415,
				"z": 3.8997684249,
				"element": "C" 
			},
			{
				"x": -1.7253693654,
				"y": 2.3223837241,
				"z": 4.6263396806,
				"element": "N" 
			},
			{
				"x": -1.0383123905,
				"y": 1.307340349,
				"z": 2.6742133359,
				"element": "N" 
			},
			{
				"x": -1.4225095262,
				"y": -0.6335402734,
				"z": -1.9606749415,
				"element": "N" 
			},
			{
				"x": -1.4946286383,
				"y": -1.1698565968,
				"z": -3.1931398169,
				"element": "C" 
			},
			{
				"x": -0.2689134138,
				"y": -1.7093723503,
				"z": -3.5457715477,
				"element": "C" 
			},
			{
				"x": 0.0769345655,
				"y": -2.3634361229,
				"z": -4.7556981919,
				"element": "N" 
			},
			{
				"x": 1.2361944128,
				"y": -2.7824189518,
				"z": -4.8934228904,
				"element": "O" 
			},
			{
				"x": -0.8165747715,
				"y": -2.4705397785,
				"z": -5.6004105842,
				"element": "O" 
			},
			{
				"x": 2.3816237473,
				"y": -1.5785211797,
				"z": -1.414682744,
				"element": "H" 
			},
			{
				"x": 2.0895948639,
				"y": -2.9693263038,
				"z": -2.4867489584,
				"element": "H" 
			},
			{
				"x": 2.5746451501,
				"y": -1.4162322357,
				"z": -3.1773189944,
				"element": "H" 
			},
			{
				"x": 1.3670694368,
				"y": -0.6021651605,
				"z": -0.0050128708,
				"element": "H" 
			},
			{
				"x": -1.4965281412,
				"y": 0.4314191542,
				"z": 0.3842644188,
				"element": "H" 
			},
			{
				"x": 2.0486145017,
				"y": 0.1212987223,
				"z": 1.9501076931,
				"element": "H" 
			},
			{
				"x": 2.4316772725,
				"y": 1.0552766248,
				"z": 4.2349155769,
				"element": "H" 
			},
			{
				"x": -1.4759196358,
				"y": 2.8313522019,
				"z": 5.45842819,
				"element": "H" 
			},
			{
				"x": -2.5823389974,
				"y": 2.5461136621,
				"z": 4.1475588879,
				"element": "H" 
			},
			{
				"x": -2.3934457791,
				"y": -1.1623352884,
				"z": -3.7920426151,
				"element": "H" 
			}
		],
		 "valence_orbital": [ 
			{
				"type": "occ",
				"energy": -0.29746,
				"method": "rhf"
			},
			{
				"type": "occ",
				"energy": -0.2873,
				"method": "rhf"
			},
			{
				"type": "occ",
				"energy": -0.2527,
				"method": "rhf"
			},
			{
				"type": "occ",
				"energy": -0.24342,
				"method": "rhf"
			},
			{
				"type": "occ",
				"energy": -0.22714,
				"method": "rhf"
			},
			{
				"type": "unocc",
				"energy": -0.09792,
				"method": "rhf"
			},
			{
				"type": "unocc",
				"energy": -0.06476,
				"method": "rhf"
			},
			{
				"type": "unocc",
				"energy": -0.01545,
				"method": "rhf"
			},
			{
				"type": "unocc",
				"energy": 0.01476,
				"method": "rhf"
			},
			{
				"type": "unocc",
				"energy": 0.04736,
				"method": "rhf"
			}
		],
		"cosmo_sigma_profile": { 
			"-0.025": 0.0,
			"-0.024": 0.0,
			"-0.023": 0.0,
			"-0.022": 0.0,
			"-0.021": 0.0,
			"-0.02": 0.0,
			"-0.019": 0.0,
			"-0.018": 0.0,
			"-0.017": 0.0,
			"-0.016": 0.0,
			"-0.015": 0.0,
			"-0.014": 0.746254306628,
			"-0.013": 2.11499401776,
			"-0.012": 2.0269934242,
			"-0.011": 3.73508244125,
			"-0.01": 5.00169042161,
			"-0.009": 5.68866301621,
			"-0.008": 5.7539507855,
			"-0.007": 11.520221528,
			"-0.006": 17.2517209245,
			"-0.005": 16.6750592831,
			"-0.004": 18.5620898038,
			"-0.003": 13.025760768,
			"-0.002": 13.1495916386,
			"-0.001": 16.063450976,
			"0.0": 17.76965538,
			"0.001": 22.666055349,
			"0.002": 17.3780732128,
			"0.003": 11.6756934784,
			"0.004": 7.95473207821,
			"0.005": 10.1156269037,
			"0.006": 8.0446908286,
			"0.007": 8.80778305256,
			"0.008": 13.4425773895,
			"0.009": 9.10039127115,
			"0.01": 6.71402818267,
			"0.011": 2.82401957991,
			"0.012": 2.61203930095,
			"0.013": 2.91648353968,
			"0.014": 1.30805683568,
			"0.015": 0.624169173624,
			"0.016": 0.0752953124102,
			"0.017": 0.0,
			"0.018": 0.0,
			"0.019": 0.0,
			"0.02": 0.0,
			"0.021": 0.0,
			"0.022": 0.0,
			"0.023": 0.0,
			"0.024": 0.0,
			"0.025": 0.0
		}
	}
}
