{
	 "smiles": "OC(=O)CCN1C(=O)C2=C(C=CC=C2)S1(=O)=O", 
	 "Tm": 438.15, 
	 "num_atms": 26, 
	 "gaussian": { 
		 "optdone": 1, 
		 "sigma_profile": "yes", 
		 "theory": "DFT", 
		 "functional": "B3LYP", 
		 "basiset": "6-31G**", 
		 "properties": { 
			 "R2extent": 5152.6818, 
			 "electric_dipole_moment_norm": 9.16920392891, 
			 "electric_quadrupole_moment_norm": 19.7609300039, 
			 "total_energy": -1215.49236809, 
			 "HOMO_LUMO_gap": 0.16514, 
			 "cosmo_polarized_energy": -21.44, 
			 "cosmo_cavitation_energy": 31.93, 
			 "cosmo_dispersion_energy": -23.22, 
			 "cosmo_repulsion_energy": 1.72, 
			 "cosmo_total_nonelectrostatic_energy": 10.43, 
			 "SMD_solvation_energy": 6.14 
		},
		"coords": [
			{
				"x": -3.8275799331,
				"y": -2.47335517,
				"z": -1.0860483494,
				"element": "O" 
			},
			{
				"x": -3.6760444544,
				"y": -3.2463633129,
				"z": 0.0065083794,
				"element": "C" 
			},
			{
				"x": -4.5625017428,
				"y": -3.9817638267,
				"z": 0.3718493187,
				"element": "O" 
			},
			{
				"x": -2.3555573349,
				"y": -3.1216027958,
				"z": 0.7722158791,
				"element": "C" 
			},
			{
				"x": -2.2430815596,
				"y": -1.8203072591,
				"z": 1.6179502323,
				"element": "C" 
			},
			{
				"x": -1.243068839,
				"y": -0.8621439614,
				"z": 1.1356442916,
				"element": "N" 
			},
			{
				"x": 0.0279392336,
				"y": -0.7291938291,
				"z": 1.7024607679,
				"element": "C" 
			},
			{
				"x": 0.4209162749,
				"y": -1.3695584243,
				"z": 2.6575662868,
				"element": "O" 
			},
			{
				"x": 0.7902834254,
				"y": 0.3103955982,
				"z": 0.9530143156,
				"element": "C" 
			},
			{
				"x": 0.0844092256,
				"y": 0.8739416357,
				"z": -0.107995782,
				"element": "C" 
			},
			{
				"x": 0.6161201759,
				"y": 1.8612896249,
				"z": -0.9254019678,
				"element": "C" 
			},
			{
				"x": 1.9212720543,
				"y": 2.2812606243,
				"z": -0.645014474,
				"element": "C" 
			},
			{
				"x": 2.6463413402,
				"y": 1.7247001037,
				"z": 0.4161167477,
				"element": "C" 
			},
			{
				"x": 2.0875141369,
				"y": 0.7332783674,
				"z": 1.2268519028,
				"element": "C" 
			},
			{
				"x": -1.5389172641,
				"y": 0.1483902718,
				"z": -0.2124956679,
				"element": "S" 
			},
			{
				"x": -2.6079101481,
				"y": 1.0980353757,
				"z": 0.0825042701,
				"element": "O" 
			},
			{
				"x": -1.6628026234,
				"y": -0.6975981165,
				"z": -1.4156623669,
				"element": "O" 
			},
			{
				"x": -3.0311370097,
				"y": -1.9449142208,
				"z": -1.2896601597,
				"element": "H" 
			},
			{
				"x": -2.3143504534,
				"y": -3.9839996234,
				"z": 1.4388742238,
				"element": "H" 
			},
			{
				"x": -1.5040741419,
				"y": -3.1855830839,
				"z": 0.0872406087,
				"element": "H" 
			},
			{
				"x": -1.9146812065,
				"y": -2.062934111,
				"z": 2.6301402457,
				"element": "H" 
			},
			{
				"x": -3.2034211398,
				"y": -1.3015943937,
				"z": 1.6960012298,
				"element": "H" 
			},
			{
				"x": 0.0486592401,
				"y": 2.2894762185,
				"z": -1.7445288678,
				"element": "H" 
			},
			{
				"x": 2.3755706399,
				"y": 3.0508271599,
				"z": -1.2609743386,
				"element": "H" 
			},
			{
				"x": 3.6566774489,
				"y": 2.0703985283,
				"z": 0.6105759776,
				"element": "H" 
			},
			{
				"x": 2.6330246552,
				"y": 0.2916186202,
				"z": 2.0539672963,
				"element": "H" 
			}
		],
		 "valence_orbital": [ 
			{
				"type": "occ",
				"energy": -0.30591,
				"method": "rhf"
			},
			{
				"type": "occ",
				"energy": -0.30306,
				"method": "rhf"
			},
			{
				"type": "occ",
				"energy": -0.30099,
				"method": "rhf"
			},
			{
				"type": "occ",
				"energy": -0.29398,
				"method": "rhf"
			},
			{
				"type": "occ",
				"energy": -0.25765,
				"method": "rhf"
			},
			{
				"type": "unocc",
				"energy": -0.09251,
				"method": "rhf"
			},
			{
				"type": "unocc",
				"energy": -0.06613,
				"method": "rhf"
			},
			{
				"type": "unocc",
				"energy": 0.00808,
				"method": "rhf"
			},
			{
				"type": "unocc",
				"energy": 0.01386,
				"method": "rhf"
			},
			{
				"type": "unocc",
				"energy": 0.01909,
				"method": "rhf"
			}
		],
		"cosmo_sigma_profile": { 
			"-0.025": 0.0,
			"-0.024": 0.0,
			"-0.023": 0.0,
			"-0.022": 0.0,
			"-0.021": 0.0,
			"-0.02": 0.0,
			"-0.019": 0.0,
			"-0.018": 0.0,
			"-0.017": 0.0,
			"-0.016": 0.0,
			"-0.015": 0.0,
			"-0.014": 0.0,
			"-0.013": 0.000459300783645,
			"-0.012": 0.0336938904333,
			"-0.011": 0.626208675619,
			"-0.01": 2.4325723786,
			"-0.009": 4.72088273479,
			"-0.008": 13.5329681254,
			"-0.007": 19.7538292317,
			"-0.006": 19.26579785,
			"-0.005": 16.245712245,
			"-0.004": 16.7157739841,
			"-0.003": 15.0452631326,
			"-0.002": 14.9050336737,
			"-0.001": 16.3404911233,
			"0.0": 18.0586308352,
			"0.001": 13.7915183318,
			"0.002": 5.63982416812,
			"0.003": 5.71348495148,
			"0.004": 5.66995668794,
			"0.005": 5.44592672554,
			"0.006": 5.36716229793,
			"0.007": 6.25785978622,
			"0.008": 10.1095346939,
			"0.009": 13.1396422108,
			"0.01": 8.35040872445,
			"0.011": 9.33141011817,
			"0.012": 6.24799952298,
			"0.013": 3.13378030415,
			"0.014": 0.282983567326,
			"0.015": 0.0,
			"0.016": 0.0,
			"0.017": 0.0,
			"0.018": 0.0,
			"0.019": 0.0,
			"0.02": 0.0,
			"0.021": 0.0,
			"0.022": 0.0,
			"0.023": 0.0,
			"0.024": 0.0,
			"0.025": 0.0
		}
	}
}
