{
	 "smiles": "COC1=C(C#N)C(=O)N(C)C=C1", 
	 "Tm": 475.15, 
	 "num_atms": 20, 
	 "gaussian": { 
		 "optdone": 1, 
		 "sigma_profile": "yes", 
		 "theory": "DFT", 
		 "functional": "B3LYP", 
		 "basiset": "6-31G**", 
		 "properties": { 
			 "R2extent": 2382.7318, 
			 "electric_dipole_moment_norm": 6.79042233223, 
			 "electric_quadrupole_moment_norm": 9.83885713485, 
			 "total_energy": -569.59585313, 
			 "HOMO_LUMO_gap": 0.1724, 
			 "cosmo_polarized_energy": -18.78, 
			 "cosmo_cavitation_energy": 24.93, 
			 "cosmo_dispersion_energy": -17.88, 
			 "cosmo_repulsion_energy": 1.41, 
			 "cosmo_total_nonelectrostatic_energy": 8.46, 
			 "SMD_solvation_energy": 7.24 
		},
		"coords": [
			{
				"x": -0.8485719653,
				"y": -2.601432365,
				"z": -3.2570191102,
				"element": "C" 
			},
			{
				"x": -0.7103664487,
				"y": -2.9239517733,
				"z": -1.8656840066,
				"element": "O" 
			},
			{
				"x": -0.5143305216,
				"y": -1.999005914,
				"z": -0.913413994,
				"element": "C" 
			},
			{
				"x": -0.4082247634,
				"y": -0.6146306743,
				"z": -1.055866918,
				"element": "C" 
			},
			{
				"x": -0.492123511,
				"y": 0.0967969334,
				"z": -2.2893117362,
				"element": "C" 
			},
			{
				"x": -0.557213348,
				"y": 0.6998839854,
				"z": -3.2832342167,
				"element": "N" 
			},
			{
				"x": -0.1922828161,
				"y": 0.2477061247,
				"z": 0.1114939617,
				"element": "C" 
			},
			{
				"x": -0.0887351077,
				"y": 1.4677362352,
				"z": 0.0741256107,
				"element": "O" 
			},
			{
				"x": -0.1023669985,
				"y": -0.4187951769,
				"z": 1.3580552523,
				"element": "N" 
			},
			{
				"x": 0.1127861294,
				"y": 0.4375083647,
				"z": 2.5256080637,
				"element": "C" 
			},
			{
				"x": -0.2095934683,
				"y": -1.7700816411,
				"z": 1.4676244722,
				"element": "C" 
			},
			{
				"x": -0.4100761001,
				"y": -2.5742990285,
				"z": 0.3881793836,
				"element": "C" 
			},
			{
				"x": 0.0501464221,
				"y": -2.1162258604,
				"z": -3.642776616,
				"element": "H" 
			},
			{
				"x": -0.9928528745,
				"y": -3.5629386051,
				"z": -3.7507085219,
				"element": "H" 
			},
			{
				"x": -1.7149262737,
				"y": -1.9601344766,
				"z": -3.4309717446,
				"element": "H" 
			},
			{
				"x": 1.0409357694,
				"y": 1.0008574975,
				"z": 2.4082054913,
				"element": "H" 
			},
			{
				"x": -0.705007185,
				"y": 1.1555413713,
				"z": 2.6163330596,
				"element": "H" 
			},
			{
				"x": 0.1639008065,
				"y": -0.1867255816,
				"z": 3.4185173463,
				"element": "H" 
			},
			{
				"x": -0.1257232049,
				"y": -2.1738669883,
				"z": 2.4705338486,
				"element": "H" 
			},
			{
				"x": -0.4928745406,
				"y": -3.647242427,
				"z": 0.4948103742,
				"element": "H" 
			}
		],
		 "valence_orbital": [ 
			{
				"type": "occ",
				"energy": -0.33615,
				"method": "rhf"
			},
			{
				"type": "occ",
				"energy": -0.3142,
				"method": "rhf"
			},
			{
				"type": "occ",
				"energy": -0.26424,
				"method": "rhf"
			},
			{
				"type": "occ",
				"energy": -0.26398,
				"method": "rhf"
			},
			{
				"type": "occ",
				"energy": -0.22884,
				"method": "rhf"
			},
			{
				"type": "unocc",
				"energy": -0.05644,
				"method": "rhf"
			},
			{
				"type": "unocc",
				"energy": 0.00033,
				"method": "rhf"
			},
			{
				"type": "unocc",
				"energy": 0.03338,
				"method": "rhf"
			},
			{
				"type": "unocc",
				"energy": 0.06356,
				"method": "rhf"
			},
			{
				"type": "unocc",
				"energy": 0.06899,
				"method": "rhf"
			}
		],
		"cosmo_sigma_profile": { 
			"-0.025": 0.0,
			"-0.024": 0.0,
			"-0.023": 0.0,
			"-0.022": 0.0,
			"-0.021": 0.0,
			"-0.02": 0.0,
			"-0.019": 0.0,
			"-0.018": 0.0,
			"-0.017": 0.0,
			"-0.016": 0.0,
			"-0.015": 0.0,
			"-0.014": 0.0,
			"-0.013": 0.0,
			"-0.012": 0.0,
			"-0.011": 1.17093727932,
			"-0.01": 3.26456499073,
			"-0.009": 2.76227018142,
			"-0.008": 4.7629307292,
			"-0.007": 9.10429834355,
			"-0.006": 13.9410015441,
			"-0.005": 16.5550021005,
			"-0.004": 18.083590913,
			"-0.003": 21.6277713401,
			"-0.002": 11.9215326784,
			"-0.001": 13.0300658931,
			"0.0": 10.9793237574,
			"0.001": 9.39459097954,
			"0.002": 7.1813761017,
			"0.003": 4.56101578247,
			"0.004": 4.42735944147,
			"0.005": 3.29552767634,
			"0.006": 4.52891790998,
			"0.007": 5.24506900763,
			"0.008": 3.79685358278,
			"0.009": 5.06182768524,
			"0.01": 5.01801834521,
			"0.011": 5.02404165978,
			"0.012": 5.01684399857,
			"0.013": 7.88381445275,
			"0.014": 2.26693875268,
			"0.015": 0.0,
			"0.016": 0.0,
			"0.017": 0.0,
			"0.018": 0.0,
			"0.019": 0.0,
			"0.02": 0.0,
			"0.021": 0.0,
			"0.022": 0.0,
			"0.023": 0.0,
			"0.024": 0.0,
			"0.025": 0.0
		}
	}
}
