{
	 "smiles": "OC(C1=CC=C(Br)C=C1)C(F)(F)F", 
	 "Tm": 324.15, 
	 "num_atms": 19, 
	 "gaussian": { 
		 "optdone": 1, 
		 "sigma_profile": "yes", 
		 "theory": "DFT", 
		 "functional": "B3LYP", 
		 "basiset": "6-31G**", 
		 "properties": { 
			 "R2extent": 5557.4073, 
			 "electric_dipole_moment_norm": 2.06308358774, 
			 "electric_quadrupole_moment_norm": 9.472970665, 
			 "total_energy": -3254.61543637, 
			 "HOMO_LUMO_gap": 0.22102, 
			 "cosmo_polarized_energy": -7.88, 
			 "cosmo_cavitation_energy": 26.86, 
			 "cosmo_dispersion_energy": -19.52, 
			 "cosmo_repulsion_energy": 1.5, 
			 "cosmo_total_nonelectrostatic_energy": 8.84, 
			 "SMD_solvation_energy": 4.49 
		},
		"coords": [
			{
				"x": -0.551080002,
				"y": -1.2863210326,
				"z": -3.1595452727,
				"element": "O" 
			},
			{
				"x": -1.2425016265,
				"y": -0.1897308121,
				"z": -2.6017048035,
				"element": "C" 
			},
			{
				"x": -1.1350587311,
				"y": -0.2330018425,
				"z": -1.0925158066,
				"element": "C" 
			},
			{
				"x": -0.9291456286,
				"y": -1.4470265049,
				"z": -0.4302665902,
				"element": "C" 
			},
			{
				"x": -0.8532066724,
				"y": -1.4899612719,
				"z": 0.9614055856,
				"element": "C" 
			},
			{
				"x": -0.9945346059,
				"y": -0.3090605203,
				"z": 1.6882521395,
				"element": "C" 
			},
			{
				"x": -0.8896274802,
				"y": -0.3607009532,
				"z": 3.5958642017,
				"element": "Br" 
			},
			{
				"x": -1.2060666876,
				"y": 0.9106110832,
				"z": 1.047718638,
				"element": "C" 
			},
			{
				"x": -1.2738336933,
				"y": 0.9404868565,
				"z": -0.3445393063,
				"element": "C" 
			},
			{
				"x": -2.7065998587,
				"y": -0.2272688661,
				"z": -3.0636230755,
				"element": "C" 
			},
			{
				"x": -3.3756023563,
				"y": -1.2878105625,
				"z": -2.5894621872,
				"element": "F" 
			},
			{
				"x": -2.7470369715,
				"y": -0.2960794105,
				"z": -4.4224120251,
				"element": "F" 
			},
			{
				"x": -3.3633244062,
				"y": 0.8893991946,
				"z": -2.6946425499,
				"element": "F" 
			},
			{
				"x": -0.71790204,
				"y": -1.2883863742,
				"z": -4.1120549179,
				"element": "H" 
			},
			{
				"x": -0.8475315506,
				"y": 0.7701050353,
				"z": -2.9701350156,
				"element": "H" 
			},
			{
				"x": -0.8154858185,
				"y": -2.3557185419,
				"z": -1.0098604268,
				"element": "H" 
			},
			{
				"x": -0.6870135871,
				"y": -2.4298215856,
				"z": 1.4752859279,
				"element": "H" 
			},
			{
				"x": -1.3106791451,
				"y": 1.8214061614,
				"z": 1.6258126729,
				"element": "H" 
			},
			{
				"x": -1.4371691383,
				"y": 1.8894799473,
				"z": -0.8474771882,
				"element": "H" 
			}
		],
		 "valence_orbital": [ 
			{
				"type": "occ",
				"energy": -0.31797,
				"method": "rhf"
			},
			{
				"type": "occ",
				"energy": -0.30106,
				"method": "rhf"
			},
			{
				"type": "occ",
				"energy": -0.28927,
				"method": "rhf"
			},
			{
				"type": "occ",
				"energy": -0.26813,
				"method": "rhf"
			},
			{
				"type": "occ",
				"energy": -0.24562,
				"method": "rhf"
			},
			{
				"type": "unocc",
				"energy": -0.0246,
				"method": "rhf"
			},
			{
				"type": "unocc",
				"energy": -0.01891,
				"method": "rhf"
			},
			{
				"type": "unocc",
				"energy": 0.00504,
				"method": "rhf"
			},
			{
				"type": "unocc",
				"energy": 0.06679,
				"method": "rhf"
			},
			{
				"type": "unocc",
				"energy": 0.09757,
				"method": "rhf"
			}
		],
		"cosmo_sigma_profile": { 
			"-0.025": 0.0,
			"-0.024": 0.0,
			"-0.023": 0.0,
			"-0.022": 0.0,
			"-0.021": 0.0,
			"-0.02": 0.0,
			"-0.019": 0.0,
			"-0.018": 0.0,
			"-0.017": 0.0179549524875,
			"-0.016": 0.563326254717,
			"-0.015": 0.565317372837,
			"-0.014": 0.723532494296,
			"-0.013": 0.883177113442,
			"-0.012": 1.05375253314,
			"-0.011": 1.23963411078,
			"-0.01": 0.699350247596,
			"-0.009": 1.11849034713,
			"-0.008": 5.82767775428,
			"-0.007": 8.65111641929,
			"-0.006": 8.81480805774,
			"-0.005": 9.5933605043,
			"-0.004": 8.27823731563,
			"-0.003": 9.78776183764,
			"-0.002": 8.28132052296,
			"-0.001": 10.1276584019,
			"0.0": 13.0789848392,
			"0.001": 19.985587403,
			"0.002": 40.1955392852,
			"0.003": 38.6497634115,
			"0.004": 14.9265636973,
			"0.005": 6.87068204068,
			"0.006": 1.66975482399,
			"0.007": 1.36342168386,
			"0.008": 1.74852984362,
			"0.009": 0.667539773795,
			"0.01": 0.911993949905,
			"0.011": 1.08776119307,
			"0.012": 0.58448888066,
			"0.013": 0.0,
			"0.014": 0.0,
			"0.015": 0.0,
			"0.016": 0.0,
			"0.017": 0.0,
			"0.018": 0.0,
			"0.019": 0.0,
			"0.02": 0.0,
			"0.021": 0.0,
			"0.022": 0.0,
			"0.023": 0.0,
			"0.024": 0.0,
			"0.025": 0.0
		}
	}
}
