{
	 "smiles": "COC1=C(OCC2=CN=CC=C2)C=C(C=O)C=C1", 
	 "Tm": 358.15, 
	 "num_atms": 31, 
	 "gaussian": { 
		 "optdone": 1, 
		 "sigma_profile": "yes", 
		 "theory": "DFT", 
		 "functional": "B3LYP", 
		 "basiset": "6-31G**", 
		 "properties": { 
			 "R2extent": 5301.2512, 
			 "electric_dipole_moment_norm": 4.16139815927, 
			 "electric_quadrupole_moment_norm": 15.3963085534, 
			 "total_energy": -821.701994953, 
			 "HOMO_LUMO_gap": 0.18235, 
			 "cosmo_polarized_energy": -13.68, 
			 "cosmo_cavitation_energy": 36.12, 
			 "cosmo_dispersion_energy": -24.23, 
			 "cosmo_repulsion_energy": 1.89, 
			 "cosmo_total_nonelectrostatic_energy": 13.78, 
			 "SMD_solvation_energy": 6.57 
		},
		"coords": [
			{
				"x": -1.9114121165,
				"y": 0.6760902791,
				"z": 2.4343207638,
				"element": "C" 
			},
			{
				"x": -1.0741087299,
				"y": -0.3788556717,
				"z": 1.9356076246,
				"element": "O" 
			},
			{
				"x": -0.0578444811,
				"y": 0.0212928112,
				"z": 1.1044447705,
				"element": "C" 
			},
			{
				"x": -0.3187089918,
				"y": 0.5313944309,
				"z": -0.1848136255,
				"element": "C" 
			},
			{
				"x": -1.6085996357,
				"y": 0.7055251167,
				"z": -0.6361915931,
				"element": "O" 
			},
			{
				"x": -2.3460383558,
				"y": -0.5119533772,
				"z": -0.9123336354,
				"element": "C" 
			},
			{
				"x": -1.8613820453,
				"y": -1.2083399986,
				"z": -2.1591733517,
				"element": "C" 
			},
			{
				"x": -2.1187227483,
				"y": -0.663720389,
				"z": -3.4256169921,
				"element": "C" 
			},
			{
				"x": -1.7084574548,
				"y": -1.2045982809,
				"z": -4.5759842409,
				"element": "N" 
			},
			{
				"x": -1.0058476665,
				"y": -2.3440180754,
				"z": -4.5005227341,
				"element": "C" 
			},
			{
				"x": -0.690496146,
				"y": -2.9768509042,
				"z": -3.2983497114,
				"element": "C" 
			},
			{
				"x": -1.1252226861,
				"y": -2.3947355304,
				"z": -2.1080764252,
				"element": "C" 
			},
			{
				"x": 0.7478510479,
				"y": 0.9110063605,
				"z": -0.9959109828,
				"element": "C" 
			},
			{
				"x": 2.0687134525,
				"y": 0.7727934303,
				"z": -0.5499251796,
				"element": "C" 
			},
			{
				"x": 3.1863147348,
				"y": 1.1802923532,
				"z": -1.4282860058,
				"element": "C" 
			},
			{
				"x": 4.3641307507,
				"y": 1.0863657235,
				"z": -1.136743479,
				"element": "O" 
			},
			{
				"x": 2.3235840669,
				"y": 0.2350260069,
				"z": 0.7205422496,
				"element": "C" 
			},
			{
				"x": 1.264360094,
				"y": -0.1338514874,
				"z": 1.5398807292,
				"element": "C" 
			},
			{
				"x": -2.6724070162,
				"y": 0.1928736688,
				"z": 3.0495647505,
				"element": "H" 
			},
			{
				"x": -1.3277330801,
				"y": 1.3667460903,
				"z": 3.0546210921,
				"element": "H" 
			},
			{
				"x": -2.3862176898,
				"y": 1.2279975987,
				"z": 1.6183250028,
				"element": "H" 
			},
			{
				"x": -2.2972143537,
				"y": -1.1786927294,
				"z": -0.045762043,
				"element": "H" 
			},
			{
				"x": -3.3781865166,
				"y": -0.1727084102,
				"z": -1.0342485864,
				"element": "H" 
			},
			{
				"x": -2.6889368758,
				"y": 0.2616321143,
				"z": -3.5070958054,
				"element": "H" 
			},
			{
				"x": -0.6822104484,
				"y": -2.770237668,
				"z": -5.4484505832,
				"element": "H" 
			},
			{
				"x": -0.1182831849,
				"y": -3.8992255597,
				"z": -3.2966027287,
				"element": "H" 
			},
			{
				"x": -0.8984507992,
				"y": -2.8557108428,
				"z": -1.1499338634,
				"element": "H" 
			},
			{
				"x": 0.5320186878,
				"y": 1.3094407218,
				"z": -1.9834142773,
				"element": "H" 
			},
			{
				"x": 2.8731860765,
				"y": 1.5952076927,
				"z": -2.4123964199,
				"element": "H" 
			},
			{
				"x": 3.353815111,
				"y": 0.1286017419,
				"z": 1.0438917625,
				"element": "H" 
			},
			{
				"x": 1.4284070005,
				"y": -0.541387216,
				"z": 2.5324335182,
				"element": "H" 
			}
		],
		 "valence_orbital": [ 
			{
				"type": "occ",
				"energy": -0.26737,
				"method": "rhf"
			},
			{
				"type": "occ",
				"energy": -0.26222,
				"method": "rhf"
			},
			{
				"type": "occ",
				"energy": -0.25678,
				"method": "rhf"
			},
			{
				"type": "occ",
				"energy": -0.25241,
				"method": "rhf"
			},
			{
				"type": "occ",
				"energy": -0.24311,
				"method": "rhf"
			},
			{
				"type": "unocc",
				"energy": -0.06076,
				"method": "rhf"
			},
			{
				"type": "unocc",
				"energy": -0.03267,
				"method": "rhf"
			},
			{
				"type": "unocc",
				"energy": -0.02539,
				"method": "rhf"
			},
			{
				"type": "unocc",
				"energy": -0.01271,
				"method": "rhf"
			},
			{
				"type": "unocc",
				"energy": 0.03933,
				"method": "rhf"
			}
		],
		"cosmo_sigma_profile": { 
			"-0.025": 0.0,
			"-0.024": 0.0,
			"-0.023": 0.0,
			"-0.022": 0.0,
			"-0.021": 0.0,
			"-0.02": 0.0,
			"-0.019": 0.0,
			"-0.018": 0.0,
			"-0.017": 0.0,
			"-0.016": 0.0,
			"-0.015": 0.0,
			"-0.014": 0.0,
			"-0.013": 0.0,
			"-0.012": 0.0,
			"-0.011": 0.0,
			"-0.01": 0.0,
			"-0.009": 0.0,
			"-0.008": 1.5184549837,
			"-0.007": 11.2788721958,
			"-0.006": 22.1051070084,
			"-0.005": 23.5427338062,
			"-0.004": 25.0663337525,
			"-0.003": 24.3900602418,
			"-0.002": 20.8153755226,
			"-0.001": 19.6333045059,
			"0.0": 19.8496760503,
			"0.001": 21.8959547812,
			"0.002": 27.5960725159,
			"0.003": 18.6031000541,
			"0.004": 6.72814979935,
			"0.005": 6.63028324167,
			"0.006": 4.14948096866,
			"0.007": 5.27763619163,
			"0.008": 3.80844278968,
			"0.009": 4.8437614021,
			"0.01": 5.14854108833,
			"0.011": 6.83350450215,
			"0.012": 4.30878733299,
			"0.013": 2.20692648717,
			"0.014": 0.363817068106,
			"0.015": 1.04442018915,
			"0.016": 0.908135176513,
			"0.017": 0.247316316133,
			"0.018": 0.0,
			"0.019": 0.0,
			"0.02": 0.0,
			"0.021": 0.0,
			"0.022": 0.0,
			"0.023": 0.0,
			"0.024": 0.0,
			"0.025": 0.0
		}
	}
}
