{
	 "smiles": "CC1=CC(OCCNC2=C(N)C=C(F)C=C2)=CC=C1", 
	 "Tm": 350.15, 
	 "num_atms": 36, 
	 "gaussian": { 
		 "optdone": 1, 
		 "sigma_profile": "yes", 
		 "theory": "DFT", 
		 "functional": "B3LYP", 
		 "basiset": "6-31G**", 
		 "properties": { 
			 "R2extent": 8340.5259, 
			 "electric_dipole_moment_norm": 2.7531454157, 
			 "electric_quadrupole_moment_norm": 23.1899978353, 
			 "total_energy": -866.403357557, 
			 "HOMO_LUMO_gap": 0.18566, 
			 "cosmo_polarized_energy": -12.67, 
			 "cosmo_cavitation_energy": 39.73, 
			 "cosmo_dispersion_energy": -28.17, 
			 "cosmo_repulsion_energy": 2.17, 
			 "cosmo_total_nonelectrostatic_energy": 13.73, 
			 "SMD_solvation_energy": 6.49 
		},
		"coords": [
			{
				"x": -0.0451470077,
				"y": 3.7330054671,
				"z": 5.1209669836,
				"element": "C" 
			},
			{
				"x": 0.8458603674,
				"y": 3.1382471168,
				"z": 4.055289945,
				"element": "C" 
			},
			{
				"x": 0.3551786849,
				"y": 2.882970291,
				"z": 2.7760343148,
				"element": "C" 
			},
			{
				"x": 1.1734499383,
				"y": 2.3250700139,
				"z": 1.7824464364,
				"element": "C" 
			},
			{
				"x": 0.5614447125,
				"y": 2.1460567241,
				"z": 0.5655510666,
				"element": "O" 
			},
			{
				"x": 1.285874112,
				"y": 1.5753793113,
				"z": -0.5250467143,
				"element": "C" 
			},
			{
				"x": 1.2957625844,
				"y": 0.0497657642,
				"z": -0.4720666491,
				"element": "C" 
			},
			{
				"x": -0.0712315394,
				"y": -0.4424882629,
				"z": -0.4939944189,
				"element": "N" 
			},
			{
				"x": -0.3117597561,
				"y": -1.8305542864,
				"z": -0.4239034128,
				"element": "C" 
			},
			{
				"x": -1.6712483229,
				"y": -2.2389327598,
				"z": -0.3677608483,
				"element": "C" 
			},
			{
				"x": -2.6555811718,
				"y": -1.2394126242,
				"z": -0.3325548404,
				"element": "N" 
			},
			{
				"x": -1.9834858868,
				"y": -3.5972919483,
				"z": -0.3007289358,
				"element": "C" 
			},
			{
				"x": -0.9563494157,
				"y": -4.5371491059,
				"z": -0.3105027713,
				"element": "C" 
			},
			{
				"x": -1.2851983462,
				"y": -5.8499847167,
				"z": -0.2506720655,
				"element": "F" 
			},
			{
				"x": 0.3751558983,
				"y": -4.1704450576,
				"z": -0.3966137451,
				"element": "C" 
			},
			{
				"x": 0.6877249669,
				"y": -2.8055574877,
				"z": -0.4467115744,
				"element": "C" 
			},
			{
				"x": 2.5048489519,
				"y": 2.0123805255,
				"z": 2.0700949222,
				"element": "C" 
			},
			{
				"x": 2.9972180542,
				"y": 2.2718795902,
				"z": 3.354265513,
				"element": "C" 
			},
			{
				"x": 2.1868883173,
				"y": 2.8265837566,
				"z": 4.338174396,
				"element": "C" 
			},
			{
				"x": -1.0308008267,
				"y": 3.9891060608,
				"z": 4.7234389261,
				"element": "H" 
			},
			{
				"x": -0.1914603896,
				"y": 3.0317308175,
				"z": 5.9509326027,
				"element": "H" 
			},
			{
				"x": 0.3946292442,
				"y": 4.643153388,
				"z": 5.5440055655,
				"element": "H" 
			},
			{
				"x": -0.6738253647,
				"y": 3.1154456782,
				"z": 2.5182041806,
				"element": "H" 
			},
			{
				"x": 2.3055864217,
				"y": 1.9740057903,
				"z": -0.5731760176,
				"element": "H" 
			},
			{
				"x": 0.7458934583,
				"y": 1.9029384489,
				"z": -1.4176212134,
				"element": "H" 
			},
			{
				"x": 1.8283116233,
				"y": -0.3196165375,
				"z": -1.357711895,
				"element": "H" 
			},
			{
				"x": 1.8579924877,
				"y": -0.2955182266,
				"z": 0.4114940207,
				"element": "H" 
			},
			{
				"x": -0.6457520918,
				"y": 0.0664988816,
				"z": 0.1737950858,
				"element": "H" 
			},
			{
				"x": -2.4499902345,
				"y": -0.4723255498,
				"z": -0.9652458791,
				"element": "H" 
			},
			{
				"x": -3.5946262506,
				"y": -1.5874295881,
				"z": -0.4784878861,
				"element": "H" 
			},
			{
				"x": -3.0150348946,
				"y": -3.9328262729,
				"z": -0.2560782147,
				"element": "H" 
			},
			{
				"x": 1.1489333085,
				"y": -4.9293493054,
				"z": -0.4110785385,
				"element": "H" 
			},
			{
				"x": 1.7298467235,
				"y": -2.5099274968,
				"z": -0.4942624602,
				"element": "H" 
			},
			{
				"x": 3.1588505274,
				"y": 1.5727483868,
				"z": 1.3270255975,
				"element": "H" 
			},
			{
				"x": 4.0322459594,
				"y": 2.0297350592,
				"z": 3.5793877469,
				"element": "H" 
			},
			{
				"x": 2.5882951567,
				"y": 3.0184081547,
				"z": 5.329610777,
				"element": "H" 
			}
		],
		 "valence_orbital": [ 
			{
				"type": "occ",
				"energy": -0.28029,
				"method": "rhf"
			},
			{
				"type": "occ",
				"energy": -0.24317,
				"method": "rhf"
			},
			{
				"type": "occ",
				"energy": -0.22312,
				"method": "rhf"
			},
			{
				"type": "occ",
				"energy": -0.21872,
				"method": "rhf"
			},
			{
				"type": "occ",
				"energy": -0.18455,
				"method": "rhf"
			},
			{
				"type": "unocc",
				"energy": 0.00111,
				"method": "rhf"
			},
			{
				"type": "unocc",
				"energy": 0.01013,
				"method": "rhf"
			},
			{
				"type": "unocc",
				"energy": 0.01185,
				"method": "rhf"
			},
			{
				"type": "unocc",
				"energy": 0.03002,
				"method": "rhf"
			},
			{
				"type": "unocc",
				"energy": 0.08127,
				"method": "rhf"
			}
		],
		"cosmo_sigma_profile": { 
			"-0.025": 0.0,
			"-0.024": 0.0,
			"-0.023": 0.0,
			"-0.022": 0.0,
			"-0.021": 0.0,
			"-0.02": 0.0,
			"-0.019": 0.0,
			"-0.018": 0.0,
			"-0.017": 0.0,
			"-0.016": 0.0,
			"-0.015": 0.0,
			"-0.014": 0.0,
			"-0.013": 0.13875268347,
			"-0.012": 1.26848703211,
			"-0.011": 1.87468677636,
			"-0.01": 2.63149822059,
			"-0.009": 3.65835214159,
			"-0.008": 2.77455744477,
			"-0.007": 4.95881898207,
			"-0.006": 11.2000456568,
			"-0.005": 24.3926181305,
			"-0.004": 29.9107389421,
			"-0.003": 25.2539992473,
			"-0.002": 23.1000427124,
			"-0.001": 21.6230030829,
			"0.0": 19.7968743473,
			"0.001": 16.9531132126,
			"0.002": 17.2569727883,
			"0.003": 20.3809144888,
			"0.004": 22.3753886378,
			"0.005": 31.2711026432,
			"0.006": 19.2878576318,
			"0.007": 5.29740326737,
			"0.008": 2.65259574452,
			"0.009": 2.42142589352,
			"0.01": 1.31173659649,
			"0.011": 1.19706100056,
			"0.012": 0.65174420386,
			"0.013": 0.3696382067,
			"0.014": 0.497184818012,
			"0.015": 0.0643269463457,
			"0.016": 0.0,
			"0.017": 0.0,
			"0.018": 0.0,
			"0.019": 0.0,
			"0.02": 0.0,
			"0.021": 0.0,
			"0.022": 0.0,
			"0.023": 0.0,
			"0.024": 0.0,
			"0.025": 0.0
		}
	}
}
