{
	 "smiles": "CCCCCCCCCC1=CC=NC(=C1)C1=CC(CCCCCCCCC)=CC=N1", 
	 "Tm": 335.15, 
	 "num_atms": 74, 
	 "gaussian": { 
		 "optdone": 1, 
		 "sigma_profile": "yes", 
		 "theory": "DFT", 
		 "functional": "B3LYP", 
		 "basiset": "6-31G**", 
		 "properties": { 
			 "R2extent": 26162.9251, 
			 "electric_dipole_moment_norm": 0.205923820866, 
			 "electric_quadrupole_moment_norm": 12.6069411104, 
			 "total_energy": -1203.06906954, 
			 "HOMO_LUMO_gap": 0.18413, 
			 "cosmo_polarized_energy": -8.72, 
			 "cosmo_cavitation_energy": 72.79, 
			 "cosmo_dispersion_energy": -46.95, 
			 "cosmo_repulsion_energy": 3.67, 
			 "cosmo_total_nonelectrostatic_energy": 29.52, 
			 "SMD_solvation_energy": 7.85 
		},
		"coords": [
			{
				"x": -5.1819390914,
				"y": 4.2634850371,
				"z": 5.3438369911,
				"element": "C" 
			},
			{
				"x": -5.5799073375,
				"y": 2.8162507491,
				"z": 5.0367856712,
				"element": "C" 
			},
			{
				"x": -5.7238121141,
				"y": 2.5328517921,
				"z": 3.536069028,
				"element": "C" 
			},
			{
				"x": -6.1243513896,
				"y": 1.0861702104,
				"z": 3.2188458228,
				"element": "C" 
			},
			{
				"x": -6.2710860899,
				"y": 0.813164367,
				"z": 1.7156947014,
				"element": "C" 
			},
			{
				"x": -6.7601189935,
				"y": -0.6017643722,
				"z": 1.3607369713,
				"element": "C" 
			},
			{
				"x": -5.8637456217,
				"y": -1.7911364885,
				"z": 1.7587694066,
				"element": "C" 
			},
			{
				"x": -4.4986943297,
				"y": -1.8866175633,
				"z": 1.0437406755,
				"element": "C" 
			},
			{
				"x": -3.334870972,
				"y": -1.1536880445,
				"z": 1.7492632829,
				"element": "C" 
			},
			{
				"x": -2.0222575405,
				"y": -1.3266746718,
				"z": 1.0197730025,
				"element": "C" 
			},
			{
				"x": -1.1693796171,
				"y": -2.403741723,
				"z": 1.2919165821,
				"element": "C" 
			},
			{
				"x": 0.0114955272,
				"y": -2.5347374743,
				"z": 0.5618128135,
				"element": "C" 
			},
			{
				"x": 0.3902858822,
				"y": -1.6864259031,
				"z": -0.3970820652,
				"element": "N" 
			},
			{
				"x": -0.4222401694,
				"y": -0.647987755,
				"z": -0.6664892876,
				"element": "C" 
			},
			{
				"x": -1.6270496726,
				"y": -0.4377080206,
				"z": 0.0171462689,
				"element": "C" 
			},
			{
				"x": 0.0163755627,
				"y": 0.2916920693,
				"z": -1.7379955862,
				"element": "C" 
			},
			{
				"x": 1.2225109558,
				"y": 0.0801111865,
				"z": -2.4216228186,
				"element": "C" 
			},
			{
				"x": 1.6202910848,
				"y": 0.9668798569,
				"z": -3.4238827936,
				"element": "C" 
			},
			{
				"x": 2.9196568016,
				"y": 0.7869560363,
				"z": -4.1782020153,
				"element": "C" 
			},
			{
				"x": 4.0102813028,
				"y": 1.8159926058,
				"z": -3.7993050877,
				"element": "C" 
			},
			{
				"x": 4.4953351372,
				"y": 1.754770868,
				"z": -2.3404909426,
				"element": "C" 
			},
			{
				"x": 5.1970945391,
				"y": 0.4514995924,
				"z": -1.9170931503,
				"element": "C" 
			},
			{
				"x": 6.4948660981,
				"y": 0.1559270269,
				"z": -2.6839471568,
				"element": "C" 
			},
			{
				"x": 7.3435751745,
				"y": -1.0113262168,
				"z": -2.1465432186,
				"element": "C" 
			},
			{
				"x": 6.7067945269,
				"y": -2.4160542923,
				"z": -2.2357941077,
				"element": "C" 
			},
			{
				"x": 5.9013625737,
				"y": -2.8574181512,
				"z": -1.0036037728,
				"element": "C" 
			},
			{
				"x": 5.3237489977,
				"y": -4.2694132084,
				"z": -1.145573771,
				"element": "C" 
			},
			{
				"x": 0.7656607471,
				"y": 2.0440891413,
				"z": -3.6981419833,
				"element": "C" 
			},
			{
				"x": -0.4143529895,
				"y": 2.1764801575,
				"z": -2.969024734,
				"element": "C" 
			},
			{
				"x": -0.7945630254,
				"y": 1.3297290788,
				"z": -2.0078825892,
				"element": "N" 
			},
			{
				"x": -4.2207667884,
				"y": 4.5166433611,
				"z": 4.8818931211,
				"element": "H" 
			},
			{
				"x": -5.0875776334,
				"y": 4.4337201398,
				"z": 6.4214084862,
				"element": "H" 
			},
			{
				"x": -5.9273989743,
				"y": 4.9693727076,
				"z": 4.9598715355,
				"element": "H" 
			},
			{
				"x": -6.5274111557,
				"y": 2.5819841068,
				"z": 5.541185723,
				"element": "H" 
			},
			{
				"x": -4.8331561789,
				"y": 2.1328652782,
				"z": 5.4638680116,
				"element": "H" 
			},
			{
				"x": -6.4692484021,
				"y": 3.2184599445,
				"z": 3.1079058264,
				"element": "H" 
			},
			{
				"x": -4.7752088241,
				"y": 2.7669696407,
				"z": 3.0314497392,
				"element": "H" 
			},
			{
				"x": -7.0749485611,
				"y": 0.8540356091,
				"z": 3.7208600445,
				"element": "H" 
			},
			{
				"x": -5.3800148211,
				"y": 0.4063640535,
				"z": 3.6546954662,
				"element": "H" 
			},
			{
				"x": -5.3200354261,
				"y": 1.0228998616,
				"z": 1.2085760386,
				"element": "H" 
			},
			{
				"x": -6.98835734,
				"y": 1.5332675687,
				"z": 1.298449745,
				"element": "H" 
			},
			{
				"x": -7.7453741078,
				"y": -0.7510652183,
				"z": 1.8241319085,
				"element": "H" 
			},
			{
				"x": -6.9294437545,
				"y": -0.6498436722,
				"z": 0.2763535569,
				"element": "H" 
			},
			{
				"x": -5.7100051598,
				"y": -1.8050078392,
				"z": 2.8460595812,
				"element": "H" 
			},
			{
				"x": -6.4290103288,
				"y": -2.7039260789,
				"z": 1.5327719792,
				"element": "H" 
			},
			{
				"x": -4.5903066647,
				"y": -1.5129437589,
				"z": 0.0152455437,
				"element": "H" 
			},
			{
				"x": -4.2155591551,
				"y": -2.9426552179,
				"z": 0.9524909137,
				"element": "H" 
			},
			{
				"x": -3.5595403485,
				"y": -0.0864956542,
				"z": 1.8392915939,
				"element": "H" 
			},
			{
				"x": -3.2400982286,
				"y": -1.5448949226,
				"z": 2.7700436864,
				"element": "H" 
			},
			{
				"x": -1.4160053962,
				"y": -3.1275745305,
				"z": 2.0640660883,
				"element": "H" 
			},
			{
				"x": 0.6889135327,
				"y": -3.3637253941,
				"z": 0.7623104688,
				"element": "H" 
			},
			{
				"x": -2.2309980831,
				"y": 0.4231696788,
				"z": -0.247452715,
				"element": "H" 
			},
			{
				"x": 1.8242863025,
				"y": -0.7815549505,
				"z": -2.1560367822,
				"element": "H" 
			},
			{
				"x": 3.2931562391,
				"y": -0.2302285217,
				"z": -4.0185192589,
				"element": "H" 
			},
			{
				"x": 2.7217324469,
				"y": 0.879059401,
				"z": -5.2535864263,
				"element": "H" 
			},
			{
				"x": 3.6224671211,
				"y": 2.8238066489,
				"z": -3.9952853029,
				"element": "H" 
			},
			{
				"x": 4.8584056059,
				"y": 1.6819427094,
				"z": -4.4816285488,
				"element": "H" 
			},
			{
				"x": 3.6413154431,
				"y": 1.9281281495,
				"z": -1.6741247522,
				"element": "H" 
			},
			{
				"x": 5.1848917662,
				"y": 2.5938335574,
				"z": -2.1752737896,
				"element": "H" 
			},
			{
				"x": 4.5023200883,
				"y": -0.3907930314,
				"z": -2.0183173137,
				"element": "H" 
			},
			{
				"x": 5.4255148604,
				"y": 0.5206244164,
				"z": -0.8450018228,
				"element": "H" 
			},
			{
				"x": 6.2658361969,
				"y": -0.0401772416,
				"z": -3.7405060307,
				"element": "H" 
			},
			{
				"x": 7.1165476604,
				"y": 1.0628007261,
				"z": -2.6758906605,
				"element": "H" 
			},
			{
				"x": 8.2829464704,
				"y": -1.0174914084,
				"z": -2.7136609439,
				"element": "H" 
			},
			{
				"x": 7.6273632615,
				"y": -0.8066232932,
				"z": -1.1042640745,
				"element": "H" 
			},
			{
				"x": 7.503100348,
				"y": -3.1556216968,
				"z": -2.3954234057,
				"element": "H" 
			},
			{
				"x": 6.069376061,
				"y": -2.4725135543,
				"z": -3.1304772469,
				"element": "H" 
			},
			{
				"x": 5.0870237782,
				"y": -2.151061359,
				"z": -0.8066262748,
				"element": "H" 
			},
			{
				"x": 6.55554532,
				"y": -2.8172641223,
				"z": -0.1217910843,
				"element": "H" 
			},
			{
				"x": 4.6340851457,
				"y": -4.3321940092,
				"z": -1.9951896654,
				"element": "H" 
			},
			{
				"x": 6.1170140607,
				"y": -5.0081052883,
				"z": -1.3101898426,
				"element": "H" 
			},
			{
				"x": 4.7714242082,
				"y": -4.5684047167,
				"z": -0.2486590282,
				"element": "H" 
			},
			{
				"x": 1.0098394389,
				"y": 2.766701259,
				"z": -4.472180178,
				"element": "H" 
			},
			{
				"x": -1.0915059811,
				"y": 3.0052607718,
				"z": -3.1711600473,
				"element": "H" 
			}
		],
		 "valence_orbital": [ 
			{
				"type": "occ",
				"energy": -0.26816,
				"method": "rhf"
			},
			{
				"type": "occ",
				"energy": -0.26141,
				"method": "rhf"
			},
			{
				"type": "occ",
				"energy": -0.25817,
				"method": "rhf"
			},
			{
				"type": "occ",
				"energy": -0.24203,
				"method": "rhf"
			},
			{
				"type": "occ",
				"energy": -0.22805,
				"method": "rhf"
			},
			{
				"type": "unocc",
				"energy": -0.04392,
				"method": "rhf"
			},
			{
				"type": "unocc",
				"energy": -0.01851,
				"method": "rhf"
			},
			{
				"type": "unocc",
				"energy": -0.00164,
				"method": "rhf"
			},
			{
				"type": "unocc",
				"energy": 0.03226,
				"method": "rhf"
			},
			{
				"type": "unocc",
				"energy": 0.07555,
				"method": "rhf"
			}
		],
		"cosmo_sigma_profile": { 
			"-0.025": 0.0,
			"-0.024": 0.0,
			"-0.023": 0.0,
			"-0.022": 0.0,
			"-0.021": 0.0,
			"-0.02": 0.0,
			"-0.019": 0.0,
			"-0.018": 0.0,
			"-0.017": 0.0,
			"-0.016": 0.0,
			"-0.015": 0.0,
			"-0.014": 0.0,
			"-0.013": 0.0,
			"-0.012": 0.0,
			"-0.011": 0.0,
			"-0.01": 0.0,
			"-0.009": 0.0,
			"-0.008": 0.0,
			"-0.007": 0.431228574116,
			"-0.006": 7.46935681863,
			"-0.005": 10.7071599485,
			"-0.004": 20.2753829809,
			"-0.003": 26.7976018535,
			"-0.002": 73.6440978294,
			"-0.001": 108.969188833,
			"0.0": 108.360195949,
			"0.001": 90.7018979171,
			"0.002": 55.6988980438,
			"0.003": 27.9423330007,
			"0.004": 6.98803290335,
			"0.005": 5.53009008647,
			"0.006": 4.05803969264,
			"0.007": 2.61510660678,
			"0.008": 3.67732195428,
			"0.009": 2.79762747023,
			"0.01": 2.50422558359,
			"0.011": 2.1286414852,
			"0.012": 2.55067309128,
			"0.013": 0.218562944824,
			"0.014": 0.0,
			"0.015": 0.0,
			"0.016": 0.0,
			"0.017": 0.0,
			"0.018": 0.0,
			"0.019": 0.0,
			"0.02": 0.0,
			"0.021": 0.0,
			"0.022": 0.0,
			"0.023": 0.0,
			"0.024": 0.0,
			"0.025": 0.0
		}
	}
}
