{
	 "smiles": "CC(C)(C)Br", 
	 "Tm": 255.15, 
	 "num_atms": 14, 
	 "gaussian": { 
		 "optdone": 1, 
		 "sigma_profile": "yes", 
		 "theory": "DFT", 
		 "functional": "B3LYP", 
		 "basiset": "6-31G**", 
		 "properties": { 
			 "R2extent": 759.754, 
			 "electric_dipole_moment_norm": 2.42719057966, 
			 "electric_quadrupole_moment_norm": 0.872148869173, 
			 "total_energy": -2729.27642872, 
			 "HOMO_LUMO_gap": 0.26022, 
			 "cosmo_polarized_energy": -4.03, 
			 "cosmo_cavitation_energy": 18.16, 
			 "cosmo_dispersion_energy": -13.54, 
			 "cosmo_repulsion_energy": 1.16, 
			 "cosmo_total_nonelectrostatic_energy": 5.78, 
			 "SMD_solvation_energy": 2.3 
		},
		"coords": [
			{
				"x": -1.708925417,
				"y": -0.8186887254,
				"z": 1.0106539267,
				"element": "C" 
			},
			{
				"x": -0.2308253535,
				"y": -0.5913554696,
				"z": 0.7031011053,
				"element": "C" 
			},
			{
				"x": 0.376197172,
				"y": -1.7501861692,
				"z": -0.0841036584,
				"element": "C" 
			},
			{
				"x": 0.5735466158,
				"y": -0.2677292233,
				"z": 1.9598179085,
				"element": "C" 
			},
			{
				"x": -0.1277702786,
				"y": 1.0492404327,
				"z": -0.4966564819,
				"element": "Br" 
			},
			{
				"x": -2.1440259252,
				"y": 0.0389574538,
				"z": 1.5294358634,
				"element": "H" 
			},
			{
				"x": -2.2822954013,
				"y": -0.9984858579,
				"z": 0.0980057082,
				"element": "H" 
			},
			{
				"x": -1.8089721525,
				"y": -1.699262203,
				"z": 1.6585229067,
				"element": "H" 
			},
			{
				"x": -0.1787650638,
				"y": -1.9387771567,
				"z": -1.0063047161,
				"element": "H" 
			},
			{
				"x": 1.4194712774,
				"y": -1.5528075002,
				"z": -0.3422176174,
				"element": "H" 
			},
			{
				"x": 0.3402177404,
				"y": -2.658965492,
				"z": 0.5306923319,
				"element": "H" 
			},
			{
				"x": 0.5432327109,
				"y": -1.131097964,
				"z": 2.6371926113,
				"element": "H" 
			},
			{
				"x": 0.1588178289,
				"y": 0.5951310309,
				"z": 2.4865718563,
				"element": "H" 
			},
			{
				"x": 1.6186962467,
				"y": -0.0573731562,
				"z": 1.7201882554,
				"element": "H" 
			}
		],
		 "valence_orbital": [ 
			{
				"type": "occ",
				"energy": -0.35329,
				"method": "rhf"
			},
			{
				"type": "occ",
				"energy": -0.35329,
				"method": "rhf"
			},
			{
				"type": "occ",
				"energy": -0.32346,
				"method": "rhf"
			},
			{
				"type": "occ",
				"energy": -0.26306,
				"method": "rhf"
			},
			{
				"type": "occ",
				"energy": -0.26306,
				"method": "rhf"
			},
			{
				"type": "unocc",
				"energy": -0.00284,
				"method": "rhf"
			},
			{
				"type": "unocc",
				"energy": 0.07976,
				"method": "rhf"
			},
			{
				"type": "unocc",
				"energy": 0.14212,
				"method": "rhf"
			},
			{
				"type": "unocc",
				"energy": 0.14213,
				"method": "rhf"
			},
			{
				"type": "unocc",
				"energy": 0.14282,
				"method": "rhf"
			}
		],
		"cosmo_sigma_profile": { 
			"-0.025": 0.0,
			"-0.024": 0.0,
			"-0.023": 0.0,
			"-0.022": 0.0,
			"-0.021": 0.0,
			"-0.02": 0.0,
			"-0.019": 0.0,
			"-0.018": 0.0,
			"-0.017": 0.0,
			"-0.016": 0.0,
			"-0.015": 0.0,
			"-0.014": 0.0,
			"-0.013": 0.0,
			"-0.012": 0.0,
			"-0.011": 0.0,
			"-0.01": 0.0,
			"-0.009": 0.0,
			"-0.008": 0.0,
			"-0.007": 0.0,
			"-0.006": 0.302825260092,
			"-0.005": 4.9687230083,
			"-0.004": 17.3455094766,
			"-0.003": 18.2217626517,
			"-0.002": 15.6711401869,
			"-0.001": 20.9005708793,
			"0.0": 20.7311600757,
			"0.001": 7.24023224397,
			"0.002": 4.91900933526,
			"0.003": 4.28469855756,
			"0.004": 5.3598721803,
			"0.005": 5.356566148,
			"0.006": 6.94705156733,
			"0.007": 10.5351814831,
			"0.008": 1.13107916484,
			"0.009": 0.0,
			"0.01": 0.0,
			"0.011": 0.0,
			"0.012": 0.0,
			"0.013": 0.0,
			"0.014": 0.0,
			"0.015": 0.0,
			"0.016": 0.0,
			"0.017": 0.0,
			"0.018": 0.0,
			"0.019": 0.0,
			"0.02": 0.0,
			"0.021": 0.0,
			"0.022": 0.0,
			"0.023": 0.0,
			"0.024": 0.0,
			"0.025": 0.0
		}
	}
}
