{
	 "smiles": "CCC(C)OC1=NC=CC(=C1)C(O)=O", 
	 "Tm": 357.15, 
	 "num_atms": 27, 
	 "gaussian": { 
		 "optdone": 1, 
		 "sigma_profile": "yes", 
		 "theory": "DFT", 
		 "functional": "B3LYP", 
		 "basiset": "6-31G**", 
		 "properties": { 
			 "R2extent": 4016.4657, 
			 "electric_dipole_moment_norm": 4.38012376766, 
			 "electric_quadrupole_moment_norm": 15.7700851383, 
			 "total_energy": -669.334918672, 
			 "HOMO_LUMO_gap": 0.17907, 
			 "cosmo_polarized_energy": -13.26, 
			 "cosmo_cavitation_energy": 30.5, 
			 "cosmo_dispersion_energy": -22.04, 
			 "cosmo_repulsion_energy": 1.76, 
			 "cosmo_total_nonelectrostatic_energy": 10.22, 
			 "SMD_solvation_energy": 6.5 
		},
		"coords": [
			{
				"x": 0.4975745784,
				"y": -0.5958477844,
				"z": 5.1108617697,
				"element": "C" 
			},
			{
				"x": 0.2806848255,
				"y": -0.4513345264,
				"z": 3.5994098104,
				"element": "C" 
			},
			{
				"x": 1.190644548,
				"y": 0.6110070951,
				"z": 2.9683237977,
				"element": "C" 
			},
			{
				"x": 2.679860089,
				"y": 0.2704008145,
				"z": 2.951711157,
				"element": "C" 
			},
			{
				"x": 0.7122325261,
				"y": 1.0173060568,
				"z": 1.6501872163,
				"element": "O" 
			},
			{
				"x": 0.7055705188,
				"y": 0.1910838131,
				"z": 0.5880807285,
				"element": "C" 
			},
			{
				"x": 1.1008076897,
				"y": -1.0754735151,
				"z": 0.6840086174,
				"element": "N" 
			},
			{
				"x": 1.0733758217,
				"y": -1.8261287437,
				"z": -0.4314251419,
				"element": "C" 
			},
			{
				"x": 0.6546249128,
				"y": -1.3630642728,
				"z": -1.6693554184,
				"element": "C" 
			},
			{
				"x": 0.2191559567,
				"y": -0.0309703123,
				"z": -1.7583592137,
				"element": "C" 
			},
			{
				"x": 0.2514819427,
				"y": 0.7645347191,
				"z": -0.6192558342,
				"element": "C" 
			},
			{
				"x": -0.2313151859,
				"y": 0.4827282289,
				"z": -3.0989884644,
				"element": "C" 
			},
			{
				"x": -1.0439024491,
				"y": 1.5694650626,
				"z": -3.0922052969,
				"element": "O" 
			},
			{
				"x": 0.0981454469,
				"y": -0.0287022877,
				"z": -4.1416372811,
				"element": "O" 
			},
			{
				"x": 0.3662120006,
				"y": 0.3607876739,
				"z": 5.6301903949,
				"element": "H" 
			},
			{
				"x": -0.2219297518,
				"y": -1.3026883822,
				"z": 5.5350503499,
				"element": "H" 
			},
			{
				"x": 1.4992526324,
				"y": -0.9688934765,
				"z": 5.3468609383,
				"element": "H" 
			},
			{
				"x": 0.4376515999,
				"y": -1.409813768,
				"z": 3.0984989083,
				"element": "H" 
			},
			{
				"x": -0.7572816897,
				"y": -0.1529489898,
				"z": 3.4082129213,
				"element": "H" 
			},
			{
				"x": 1.0571223247,
				"y": 1.5440502219,
				"z": 3.5278986498,
				"element": "H" 
			},
			{
				"x": 2.8658017421,
				"y": -0.6830125914,
				"z": 2.4554116263,
				"element": "H" 
			},
			{
				"x": 3.0556160731,
				"y": 0.2140498909,
				"z": 3.9779188291,
				"element": "H" 
			},
			{
				"x": 3.240176172,
				"y": 1.0551248078,
				"z": 2.4346790393,
				"element": "H" 
			},
			{
				"x": 1.4085921883,
				"y": -2.8543895625,
				"z": -0.3135103549,
				"element": "H" 
			},
			{
				"x": 0.6559896449,
				"y": -1.9934715692,
				"z": -2.5499536553,
				"element": "H" 
			},
			{
				"x": -0.0159357336,
				"y": 1.8164992684,
				"z": -0.6193863331,
				"element": "H" 
			},
			{
				"x": -1.3275084244,
				"y": 1.769502129,
				"z": -2.1889277602,
				"element": "H" 
			}
		],
		 "valence_orbital": [ 
			{
				"type": "occ",
				"energy": -0.31993,
				"method": "rhf"
			},
			{
				"type": "occ",
				"energy": -0.30112,
				"method": "rhf"
			},
			{
				"type": "occ",
				"energy": -0.28242,
				"method": "rhf"
			},
			{
				"type": "occ",
				"energy": -0.27321,
				"method": "rhf"
			},
			{
				"type": "occ",
				"energy": -0.24349,
				"method": "rhf"
			},
			{
				"type": "unocc",
				"energy": -0.06442,
				"method": "rhf"
			},
			{
				"type": "unocc",
				"energy": -0.01645,
				"method": "rhf"
			},
			{
				"type": "unocc",
				"energy": 0.04146,
				"method": "rhf"
			},
			{
				"type": "unocc",
				"energy": 0.06145,
				"method": "rhf"
			},
			{
				"type": "unocc",
				"energy": 0.08474,
				"method": "rhf"
			}
		],
		"cosmo_sigma_profile": { 
			"-0.025": 0.0,
			"-0.024": 0.0,
			"-0.023": 0.0,
			"-0.022": 0.0,
			"-0.021": 0.0,
			"-0.02": 0.0,
			"-0.019": 0.295960260932,
			"-0.018": 0.833918350889,
			"-0.017": 1.51150634358,
			"-0.016": 1.07925403016,
			"-0.015": 1.18556097381,
			"-0.014": 0.38614110759,
			"-0.013": 0.963577144802,
			"-0.012": 1.64705705819,
			"-0.011": 1.20603294494,
			"-0.01": 1.40564827073,
			"-0.009": 0.826252243393,
			"-0.008": 1.69167986721,
			"-0.007": 4.03836304963,
			"-0.006": 5.73087167706,
			"-0.005": 7.00286538202,
			"-0.004": 13.1427222482,
			"-0.003": 20.9107955443,
			"-0.002": 21.034810182,
			"-0.001": 25.519850842,
			"0.0": 32.9531148665,
			"0.001": 27.8948165333,
			"0.002": 15.2047707598,
			"0.003": 7.38436832216,
			"0.004": 6.13581355925,
			"0.005": 5.76739788779,
			"0.006": 5.09314569572,
			"0.007": 5.21235463599,
			"0.008": 4.77194042177,
			"0.009": 5.44245895573,
			"0.01": 5.68858084543,
			"0.011": 5.53862574551,
			"0.012": 2.91033553218,
			"0.013": 0.435315707471,
			"0.014": 0.0,
			"0.015": 0.0,
			"0.016": 0.0,
			"0.017": 0.0,
			"0.018": 0.0,
			"0.019": 0.0,
			"0.02": 0.0,
			"0.021": 0.0,
			"0.022": 0.0,
			"0.023": 0.0,
			"0.024": 0.0,
			"0.025": 0.0
		}
	}
}
