{
	 "smiles": "CC(C)C1=CC=C(Cl)C=C1", 
	 "Tm": 260.95, 
	 "num_atms": 21, 
	 "gaussian": { 
		 "optdone": 1, 
		 "sigma_profile": "yes", 
		 "theory": "DFT", 
		 "functional": "B3LYP", 
		 "basiset": "6-31G**", 
		 "properties": { 
			 "R2extent": 2873.8035, 
			 "electric_dipole_moment_norm": 2.34825114713, 
			 "electric_quadrupole_moment_norm": 9.23998757683, 
			 "total_energy": -809.795238039, 
			 "HOMO_LUMO_gap": 0.22566, 
			 "cosmo_polarized_energy": -3.85, 
			 "cosmo_cavitation_energy": 25.51, 
			 "cosmo_dispersion_energy": -18.53, 
			 "cosmo_repulsion_energy": 1.52, 
			 "cosmo_total_nonelectrostatic_energy": 8.5, 
			 "SMD_solvation_energy": 4.19 
		},
		"coords": [
			{
				"x": 0.0687294742,
				"y": 2.1413977045,
				"z": 0.6111094405,
				"element": "C" 
			},
			{
				"x": 0.4083695416,
				"y": 1.1879874624,
				"z": -0.5502425124,
				"element": "C" 
			},
			{
				"x": -0.6846031097,
				"y": 1.2251836164,
				"z": -1.6351959652,
				"element": "C" 
			},
			{
				"x": 0.6723832097,
				"y": -0.2295951995,
				"z": -0.0606119781,
				"element": "C" 
			},
			{
				"x": -0.3249975178,
				"y": -0.9808134712,
				"z": 0.5792961668,
				"element": "C" 
			},
			{
				"x": -0.0847567179,
				"y": -2.2785412957,
				"z": 1.0279610141,
				"element": "C" 
			},
			{
				"x": 1.176734739,
				"y": -2.8412222902,
				"z": 0.8353316865,
				"element": "C" 
			},
			{
				"x": 1.490748549,
				"y": -4.4794247982,
				"z": 1.3980469899,
				"element": "Cl" 
			},
			{
				"x": 2.189923057,
				"y": -2.1242819496,
				"z": 0.2041754604,
				"element": "C" 
			},
			{
				"x": 1.9267824031,
				"y": -0.826150871,
				"z": -0.2369982182,
				"element": "C" 
			},
			{
				"x": -0.8635740804,
				"y": 1.8486113585,
				"z": 1.1065727694,
				"element": "H" 
			},
			{
				"x": 0.8605768823,
				"y": 2.1447493717,
				"z": 1.3664404764,
				"element": "H" 
			},
			{
				"x": -0.0584052355,
				"y": 3.1657935231,
				"z": 0.2446182149,
				"element": "H" 
			},
			{
				"x": 1.3393719605,
				"y": 1.5465181014,
				"z": -1.0086711713,
				"element": "H" 
			},
			{
				"x": -1.6502748361,
				"y": 0.8926438098,
				"z": -1.2386150753,
				"element": "H" 
			},
			{
				"x": -0.815860815,
				"y": 2.2438911792,
				"z": -2.0158238442,
				"element": "H" 
			},
			{
				"x": -0.4292643638,
				"y": 0.5758927307,
				"z": -2.478274721,
				"element": "H" 
			},
			{
				"x": -1.3111184661,
				"y": -0.5515042286,
				"z": 0.7341784162,
				"element": "H" 
			},
			{
				"x": -0.8644113993,
				"y": -2.8487564103,
				"z": 1.5212058947,
				"element": "H" 
			},
			{
				"x": 3.1668500425,
				"y": -2.5726961075,
				"z": 0.0601725584,
				"element": "H" 
			},
			{
				"x": 2.7188966826,
				"y": -0.267682236,
				"z": -0.7296756024,
				"element": "H" 
			}
		],
		 "valence_orbital": [ 
			{
				"type": "occ",
				"energy": -0.33038,
				"method": "rhf"
			},
			{
				"type": "occ",
				"energy": -0.32059,
				"method": "rhf"
			},
			{
				"type": "occ",
				"energy": -0.30823,
				"method": "rhf"
			},
			{
				"type": "occ",
				"energy": -0.25966,
				"method": "rhf"
			},
			{
				"type": "occ",
				"energy": -0.23713,
				"method": "rhf"
			},
			{
				"type": "unocc",
				"energy": -0.01147,
				"method": "rhf"
			},
			{
				"type": "unocc",
				"energy": -0.00772,
				"method": "rhf"
			},
			{
				"type": "unocc",
				"energy": 0.03277,
				"method": "rhf"
			},
			{
				"type": "unocc",
				"energy": 0.08876,
				"method": "rhf"
			},
			{
				"type": "unocc",
				"energy": 0.10835,
				"method": "rhf"
			}
		],
		"cosmo_sigma_profile": { 
			"-0.025": 0.0,
			"-0.024": 0.0,
			"-0.023": 0.0,
			"-0.022": 0.0,
			"-0.021": 0.0,
			"-0.02": 0.0,
			"-0.019": 0.0,
			"-0.018": 0.0,
			"-0.017": 0.0,
			"-0.016": 0.0,
			"-0.015": 0.0,
			"-0.014": 0.0,
			"-0.013": 0.0,
			"-0.012": 0.0,
			"-0.011": 0.0,
			"-0.01": 0.0,
			"-0.009": 0.0,
			"-0.008": 0.00332474737245,
			"-0.007": 2.04229754644,
			"-0.006": 5.93032988375,
			"-0.005": 10.5554416847,
			"-0.004": 11.7757578673,
			"-0.003": 16.5473826776,
			"-0.002": 19.0476665916,
			"-0.001": 24.0170989387,
			"0.0": 21.2198603348,
			"0.001": 25.0479410071,
			"0.002": 18.3116251948,
			"0.003": 15.0971539871,
			"0.004": 17.5761749644,
			"0.005": 15.2428599308,
			"0.006": 1.0722073944,
			"0.007": 0.0,
			"0.008": 0.0,
			"0.009": 0.0,
			"0.01": 0.0,
			"0.011": 0.0,
			"0.012": 0.0,
			"0.013": 0.0,
			"0.014": 0.0,
			"0.015": 0.0,
			"0.016": 0.0,
			"0.017": 0.0,
			"0.018": 0.0,
			"0.019": 0.0,
			"0.02": 0.0,
			"0.021": 0.0,
			"0.022": 0.0,
			"0.023": 0.0,
			"0.024": 0.0,
			"0.025": 0.0
		}
	}
}
