{
	 "smiles": "CN1C(=CC=C1C1=CC=C(F)C=C1)C(O)=O", 
	 "Tm": 433.15, 
	 "num_atms": 26, 
	 "gaussian": { 
		 "optdone": 1, 
		 "sigma_profile": "yes", 
		 "theory": "DFT", 
		 "functional": "B3LYP", 
		 "basiset": "6-31G**", 
		 "properties": { 
			 "R2extent": 5067.4434, 
			 "electric_dipole_moment_norm": 4.6837942664, 
			 "electric_quadrupole_moment_norm": 24.9780833296, 
			 "total_energy": -768.336000015, 
			 "HOMO_LUMO_gap": 0.17185, 
			 "cosmo_polarized_energy": -17.39, 
			 "cosmo_cavitation_energy": 30.85, 
			 "cosmo_dispersion_energy": -22.01, 
			 "cosmo_repulsion_energy": 1.66, 
			 "cosmo_total_nonelectrostatic_energy": 10.5, 
			 "SMD_solvation_energy": 6.53 
		},
		"coords": [
			{
				"x": -1.0637282766,
				"y": -0.0338844849,
				"z": -1.1686865221,
				"element": "C" 
			},
			{
				"x": -0.3422296105,
				"y": -0.8135890345,
				"z": -0.1630735688,
				"element": "N" 
			},
			{
				"x": 0.1631264163,
				"y": -2.1020706566,
				"z": -0.3513846692,
				"element": "C" 
			},
			{
				"x": 0.4715130349,
				"y": -2.6281359735,
				"z": 0.8935586032,
				"element": "C" 
			},
			{
				"x": 0.1570888413,
				"y": -1.6554748357,
				"z": 1.8591616693,
				"element": "C" 
			},
			{
				"x": -0.3536560569,
				"y": -0.5438391587,
				"z": 1.1959771658,
				"element": "C" 
			},
			{
				"x": -0.8357119327,
				"y": 0.7140721695,
				"z": 1.784267076,
				"element": "C" 
			},
			{
				"x": -1.609984381,
				"y": 0.6752972125,
				"z": 2.9592240318,
				"element": "C" 
			},
			{
				"x": -2.0439663145,
				"y": 1.8450308634,
				"z": 3.5771460164,
				"element": "C" 
			},
			{
				"x": -1.7075970735,
				"y": 3.0681614829,
				"z": 3.0066792195,
				"element": "C" 
			},
			{
				"x": -2.1314298893,
				"y": 4.2045317864,
				"z": 3.5940991572,
				"element": "F" 
			},
			{
				"x": -0.944404632,
				"y": 3.1510194367,
				"z": 1.8474925425,
				"element": "C" 
			},
			{
				"x": -0.5068651252,
				"y": 1.9724673223,
				"z": 1.2466342409,
				"element": "C" 
			},
			{
				"x": 0.3810877271,
				"y": -2.794146911,
				"z": -1.6320900419,
				"element": "C" 
			},
			{
				"x": 0.5081086531,
				"y": -2.0209452523,
				"z": -2.7582930371,
				"element": "O" 
			},
			{
				"x": 0.46414461,
				"y": -3.9971419221,
				"z": -1.7245184278,
				"element": "O" 
			},
			{
				"x": -0.4074206838,
				"y": 0.6674931139,
				"z": -1.6997295105,
				"element": "H" 
			},
			{
				"x": -1.8446235432,
				"y": 0.5491506584,
				"z": -0.6805890793,
				"element": "H" 
			},
			{
				"x": -1.5257257024,
				"y": -0.7036213771,
				"z": -1.8945734781,
				"element": "H" 
			},
			{
				"x": 0.908735417,
				"y": -3.6036267772,
				"z": 1.0478494038,
				"element": "H" 
			},
			{
				"x": 0.3173841582,
				"y": -1.7185963607,
				"z": 2.92612712,
				"element": "H" 
			},
			{
				"x": -1.8828674308,
				"y": -0.2868967771,
				"z": 3.3804918181,
				"element": "H" 
			},
			{
				"x": -2.6442087383,
				"y": 1.8215965805,
				"z": 4.4801684523,
				"element": "H" 
			},
			{
				"x": -0.6899629543,
				"y": 4.1240815826,
				"z": 1.4416590063,
				"element": "H" 
			},
			{
				"x": 0.1234552131,
				"y": 2.0340782574,
				"z": 0.3652618606,
				"element": "H" 
			},
			{
				"x": 0.684938274,
				"y": -1.1026109451,
				"z": -2.514559049,
				"element": "H" 
			}
		],
		 "valence_orbital": [ 
			{
				"type": "occ",
				"energy": -0.27649,
				"method": "rhf"
			},
			{
				"type": "occ",
				"energy": -0.27621,
				"method": "rhf"
			},
			{
				"type": "occ",
				"energy": -0.26705,
				"method": "rhf"
			},
			{
				"type": "occ",
				"energy": -0.25733,
				"method": "rhf"
			},
			{
				"type": "occ",
				"energy": -0.21737,
				"method": "rhf"
			},
			{
				"type": "unocc",
				"energy": -0.04552,
				"method": "rhf"
			},
			{
				"type": "unocc",
				"energy": -0.02691,
				"method": "rhf"
			},
			{
				"type": "unocc",
				"energy": -0.00611,
				"method": "rhf"
			},
			{
				"type": "unocc",
				"energy": 0.04504,
				"method": "rhf"
			},
			{
				"type": "unocc",
				"energy": 0.05678,
				"method": "rhf"
			}
		],
		"cosmo_sigma_profile": { 
			"-0.025": 0.0,
			"-0.024": 0.0,
			"-0.023": 0.0,
			"-0.022": 0.0,
			"-0.021": 0.0,
			"-0.02": 0.0,
			"-0.019": 0.0,
			"-0.018": 0.360982102096,
			"-0.017": 0.597557934558,
			"-0.016": 1.27301594657,
			"-0.015": 1.09601193985,
			"-0.014": 0.811338190312,
			"-0.013": 0.748122455951,
			"-0.012": 1.08789027278,
			"-0.011": 0.899828964103,
			"-0.01": 1.65367808318,
			"-0.009": 0.692666802437,
			"-0.008": 2.19952089835,
			"-0.007": 12.0466931068,
			"-0.006": 16.1578034585,
			"-0.005": 18.6587424177,
			"-0.004": 16.3450804064,
			"-0.003": 15.6549421031,
			"-0.002": 12.5857996714,
			"-0.001": 11.1181186598,
			"0.0": 15.4234527719,
			"0.001": 18.7294655866,
			"0.002": 17.3111688431,
			"0.003": 20.3904058686,
			"0.004": 19.885219791,
			"0.005": 9.01338244424,
			"0.006": 4.9880087346,
			"0.007": 2.77703266917,
			"0.008": 2.77300890787,
			"0.009": 2.95933060551,
			"0.01": 3.66079766435,
			"0.011": 5.11859168461,
			"0.012": 6.38682406664,
			"0.013": 3.3108687371,
			"0.014": 0.517012058814,
			"0.015": 0.0,
			"0.016": 0.0,
			"0.017": 0.0,
			"0.018": 0.0,
			"0.019": 0.0,
			"0.02": 0.0,
			"0.021": 0.0,
			"0.022": 0.0,
			"0.023": 0.0,
			"0.024": 0.0,
			"0.025": 0.0
		}
	}
}
