{
	 "smiles": "NC1=CC=C(CCN2CCSCC2)C=C1", 
	 "Tm": 362.15, 
	 "num_atms": 33, 
	 "gaussian": { 
		 "optdone": 1, 
		 "sigma_profile": "yes", 
		 "theory": "DFT", 
		 "functional": "B3LYP", 
		 "basiset": "6-31G**", 
		 "properties": { 
			 "R2extent": 5633.4308, 
			 "electric_dipole_moment_norm": 2.633449616, 
			 "electric_quadrupole_moment_norm": 7.11372455328, 
			 "total_energy": -975.81440723, 
			 "HOMO_LUMO_gap": 0.20074, 
			 "cosmo_polarized_energy": -12.16, 
			 "cosmo_cavitation_energy": 35.31, 
			 "cosmo_dispersion_energy": -25.58, 
			 "cosmo_repulsion_energy": 1.96, 
			 "cosmo_total_nonelectrostatic_energy": 11.69, 
			 "SMD_solvation_energy": 4.31 
		},
		"coords": [
			{
				"x": -4.7186439798,
				"y": 1.9128094609,
				"z": 0.3241917029,
				"element": "N" 
			},
			{
				"x": -3.6170116245,
				"y": 1.1256906714,
				"z": 0.6807786495,
				"element": "C" 
			},
			{
				"x": -3.3426003234,
				"y": 0.8359486784,
				"z": 2.0267097871,
				"element": "C" 
			},
			{
				"x": -2.2130238516,
				"y": 0.0981517365,
				"z": 2.3743926797,
				"element": "C" 
			},
			{
				"x": -1.3166087569,
				"y": -0.3791342203,
				"z": 1.4092483268,
				"element": "C" 
			},
			{
				"x": -0.0800715101,
				"y": -1.1514378463,
				"z": 1.8119019579,
				"element": "C" 
			},
			{
				"x": 1.2164147174,
				"y": -0.3085586154,
				"z": 1.8085277895,
				"element": "C" 
			},
			{
				"x": 1.6494697431,
				"y": 0.0484034996,
				"z": 0.4548969997,
				"element": "N" 
			},
			{
				"x": 2.469705589,
				"y": -0.963979967,
				"z": -0.2098383576,
				"element": "C" 
			},
			{
				"x": 3.926262505,
				"y": -1.050062624,
				"z": 0.2769028205,
				"element": "C" 
			},
			{
				"x": 4.8266150005,
				"y": 0.537467292,
				"z": 0.0551364161,
				"element": "S" 
			},
			{
				"x": 3.5849729612,
				"y": 1.6349328167,
				"z": 0.8510448988,
				"element": "C" 
			},
			{
				"x": 2.1736743734,
				"y": 1.4020681161,
				"z": 0.2883612723,
				"element": "C" 
			},
			{
				"x": -1.6002332305,
				"y": -0.086227364,
				"z": 0.0671715912,
				"element": "C" 
			},
			{
				"x": -2.7248635093,
				"y": 0.6500359947,
				"z": -0.2949770386,
				"element": "C" 
			},
			{
				"x": -5.4812779562,
				"y": 1.8965410414,
				"z": 0.9880195985,
				"element": "H" 
			},
			{
				"x": -5.050355555,
				"y": 1.7700022738,
				"z": -0.6203142707,
				"element": "H" 
			},
			{
				"x": -4.0188668806,
				"y": 1.1910719148,
				"z": 2.8010740559,
				"element": "H" 
			},
			{
				"x": -2.0296488881,
				"y": -0.1164572259,
				"z": 3.4253103239,
				"element": "H" 
			},
			{
				"x": 0.0603960463,
				"y": -2.0175800748,
				"z": 1.1526642198,
				"element": "H" 
			},
			{
				"x": -0.2156149858,
				"y": -1.5561622854,
				"z": 2.822757846,
				"element": "H" 
			},
			{
				"x": 1.993826732,
				"y": -0.853429975,
				"z": 2.3712404128,
				"element": "H" 
			},
			{
				"x": 1.0277938015,
				"y": 0.6154163351,
				"z": 2.3655163068,
				"element": "H" 
			},
			{
				"x": 2.4715840709,
				"y": -0.7519739867,
				"z": -1.2863857446,
				"element": "H" 
			},
			{
				"x": 1.9914974671,
				"y": -1.9421694632,
				"z": -0.0747099633,
				"element": "H" 
			},
			{
				"x": 4.4807337739,
				"y": -1.7927111777,
				"z": -0.3045898905,
				"element": "H" 
			},
			{
				"x": 3.9770800778,
				"y": -1.3485100047,
				"z": 1.3295211385,
				"element": "H" 
			},
			{
				"x": 3.9175175953,
				"y": 2.6576263713,
				"z": 0.6486572105,
				"element": "H" 
			},
			{
				"x": 3.6076738937,
				"y": 1.4840861335,
				"z": 1.9362194098,
				"element": "H" 
			},
			{
				"x": 1.473131067,
				"y": 2.0992143477,
				"z": 0.763200406,
				"element": "H" 
			},
			{
				"x": 2.1842024178,
				"y": 1.6322187284,
				"z": -0.7847132759,
				"element": "H" 
			},
			{
				"x": -0.9232796315,
				"y": -0.4364390204,
				"z": -0.7056425303,
				"element": "H" 
			},
			{
				"x": -2.9179511494,
				"y": 0.8623484385,
				"z": -1.3442747489,
				"element": "H" 
			}
		],
		 "valence_orbital": [ 
			{
				"type": "occ",
				"energy": -0.2923,
				"method": "rhf"
			},
			{
				"type": "occ",
				"energy": -0.23848,
				"method": "rhf"
			},
			{
				"type": "occ",
				"energy": -0.22695,
				"method": "rhf"
			},
			{
				"type": "occ",
				"energy": -0.19742,
				"method": "rhf"
			},
			{
				"type": "occ",
				"energy": -0.19028,
				"method": "rhf"
			},
			{
				"type": "unocc",
				"energy": 0.01046,
				"method": "rhf"
			},
			{
				"type": "unocc",
				"energy": 0.0237,
				"method": "rhf"
			},
			{
				"type": "unocc",
				"energy": 0.04278,
				"method": "rhf"
			},
			{
				"type": "unocc",
				"energy": 0.07887,
				"method": "rhf"
			},
			{
				"type": "unocc",
				"energy": 0.08523,
				"method": "rhf"
			}
		],
		"cosmo_sigma_profile": { 
			"-0.025": 0.0,
			"-0.024": 0.0,
			"-0.023": 0.0,
			"-0.022": 0.0,
			"-0.021": 0.0,
			"-0.02": 0.0,
			"-0.019": 0.0,
			"-0.018": 0.0,
			"-0.017": 0.0,
			"-0.016": 0.0,
			"-0.015": 0.0,
			"-0.014": 0.0,
			"-0.013": 0.0,
			"-0.012": 1.26849624438,
			"-0.011": 2.83266057019,
			"-0.01": 2.48927805028,
			"-0.009": 3.56402456053,
			"-0.008": 3.05697941881,
			"-0.007": 3.00442082149,
			"-0.006": 4.07650247352,
			"-0.005": 12.6065234435,
			"-0.004": 26.3937845299,
			"-0.003": 35.9580297385,
			"-0.002": 33.8082499915,
			"-0.001": 27.2094909694,
			"0.0": 18.5487740141,
			"0.001": 11.9424531069,
			"0.002": 11.2165442585,
			"0.003": 10.6595520863,
			"0.004": 10.7986809511,
			"0.005": 11.0264327255,
			"0.006": 11.4587143304,
			"0.007": 14.2745137284,
			"0.008": 8.36735641101,
			"0.009": 3.69664056143,
			"0.01": 3.22706032091,
			"0.011": 2.62907750898,
			"0.012": 1.62770328089,
			"0.013": 0.589856061735,
			"0.014": 0.463062894877,
			"0.015": 0.858917456013,
			"0.016": 0.00562972294452,
			"0.017": 0.0,
			"0.018": 0.0,
			"0.019": 0.0,
			"0.02": 0.0,
			"0.021": 0.0,
			"0.022": 0.0,
			"0.023": 0.0,
			"0.024": 0.0,
			"0.025": 0.0
		}
	}
}
