{
	 "smiles": "CC(=O)NC1=C(C)C=CC=C1C", 
	 "Tm": 455.15, 
	 "num_atms": 25, 
	 "gaussian": { 
		 "optdone": 1, 
		 "sigma_profile": "yes", 
		 "theory": "DFT", 
		 "functional": "B3LYP", 
		 "basiset": "6-31G**", 
		 "properties": { 
			 "R2extent": 2452.5245, 
			 "electric_dipole_moment_norm": 3.3808904197, 
			 "electric_quadrupole_moment_norm": 7.371402119, 
			 "total_energy": -518.906331618, 
			 "HOMO_LUMO_gap": 0.22114, 
			 "cosmo_polarized_energy": -12.66, 
			 "cosmo_cavitation_energy": 27.69, 
			 "cosmo_dispersion_energy": -19.69, 
			 "cosmo_repulsion_energy": 1.57, 
			 "cosmo_total_nonelectrostatic_energy": 9.58, 
			 "SMD_solvation_energy": 5.78 
		},
		"coords": [
			{
				"x": -1.3159671829,
				"y": 2.6399866295,
				"z": -0.4423391378,
				"element": "C" 
			},
			{
				"x": -0.6026954653,
				"y": 1.294484383,
				"z": -0.4010271851,
				"element": "C" 
			},
			{
				"x": -0.5424511036,
				"y": 0.5650920732,
				"z": -1.3787341866,
				"element": "O" 
			},
			{
				"x": -0.004854925,
				"y": 0.9992593737,
				"z": 0.807448551,
				"element": "N" 
			},
			{
				"x": 0.66814914,
				"y": -0.2197731565,
				"z": 1.1232013114,
				"element": "C" 
			},
			{
				"x": 0.1687850882,
				"y": -0.9940026017,
				"z": 2.1904245026,
				"element": "C" 
			},
			{
				"x": -1.068862386,
				"y": -0.5681026373,
				"z": 2.9450617083,
				"element": "C" 
			},
			{
				"x": 0.8382145845,
				"y": -2.1713985066,
				"z": 2.5354833569,
				"element": "C" 
			},
			{
				"x": 1.9705508755,
				"y": -2.5794047044,
				"z": 1.8332111801,
				"element": "C" 
			},
			{
				"x": 2.4534538013,
				"y": -1.7985227787,
				"z": 0.7866847989,
				"element": "C" 
			},
			{
				"x": 1.8258684244,
				"y": -0.6018431075,
				"z": 0.4177819789,
				"element": "C" 
			},
			{
				"x": 2.4003476692,
				"y": 0.2445794165,
				"z": -0.6886297576,
				"element": "C" 
			},
			{
				"x": -1.5250338845,
				"y": 3.06343153,
				"z": 0.5444789898,
				"element": "H" 
			},
			{
				"x": -2.2521323781,
				"y": 2.5190993277,
				"z": -0.9908014361,
				"element": "H" 
			},
			{
				"x": -0.6979663091,
				"y": 3.3520768197,
				"z": -0.9987721994,
				"element": "H" 
			},
			{
				"x": -0.2559662454,
				"y": 1.5885415817,
				"z": 1.5884244712,
				"element": "H" 
			},
			{
				"x": -0.9043823979,
				"y": 0.3458154572,
				"z": 3.5329137766,
				"element": "H" 
			},
			{
				"x": -1.9052421903,
				"y": -0.3672743862,
				"z": 2.2667055594,
				"element": "H" 
			},
			{
				"x": -1.3807305643,
				"y": -1.3458557702,
				"z": 3.6464917445,
				"element": "H" 
			},
			{
				"x": 0.4579424188,
				"y": -2.7756666507,
				"z": 3.3548700551,
				"element": "H" 
			},
			{
				"x": 2.478081949,
				"y": -3.5004197247,
				"z": 2.1052365413,
				"element": "H" 
			},
			{
				"x": 3.3448354105,
				"y": -2.1080379051,
				"z": 0.2475107754,
				"element": "H" 
			},
			{
				"x": 1.7818002866,
				"y": 0.1772190338,
				"z": -1.5884852108,
				"element": "H" 
			},
			{
				"x": 3.4177268256,
				"y": -0.074091001,
				"z": -0.930542031,
				"element": "H" 
			},
			{
				"x": 2.4306285588,
				"y": 1.3015073043,
				"z": -0.4015981571,
				"element": "H" 
			}
		],
		 "valence_orbital": [ 
			{
				"type": "occ",
				"energy": -0.33427,
				"method": "rhf"
			},
			{
				"type": "occ",
				"energy": -0.27829,
				"method": "rhf"
			},
			{
				"type": "occ",
				"energy": -0.24813,
				"method": "rhf"
			},
			{
				"type": "occ",
				"energy": -0.23449,
				"method": "rhf"
			},
			{
				"type": "occ",
				"energy": -0.2261,
				"method": "rhf"
			},
			{
				"type": "unocc",
				"energy": -0.00496,
				"method": "rhf"
			},
			{
				"type": "unocc",
				"energy": 0.00717,
				"method": "rhf"
			},
			{
				"type": "unocc",
				"energy": 0.033,
				"method": "rhf"
			},
			{
				"type": "unocc",
				"energy": 0.06383,
				"method": "rhf"
			},
			{
				"type": "unocc",
				"energy": 0.10187,
				"method": "rhf"
			}
		],
		"cosmo_sigma_profile": { 
			"-0.025": 0.0,
			"-0.024": 0.0,
			"-0.023": 0.0,
			"-0.022": 0.0,
			"-0.021": 0.0,
			"-0.02": 0.0,
			"-0.019": 0.0,
			"-0.018": 0.0,
			"-0.017": 0.0,
			"-0.016": 0.0,
			"-0.015": 0.0,
			"-0.014": 0.343117177277,
			"-0.013": 1.38162298987,
			"-0.012": 1.26297291058,
			"-0.011": 1.83120431488,
			"-0.01": 1.38466536958,
			"-0.009": 1.4369654448,
			"-0.008": 1.86018598805,
			"-0.007": 1.9321698593,
			"-0.006": 3.99844487552,
			"-0.005": 14.4704360358,
			"-0.004": 19.7062723597,
			"-0.003": 21.4946942586,
			"-0.002": 22.9561981875,
			"-0.001": 22.117358745,
			"0.0": 21.1338373186,
			"0.001": 16.0997841846,
			"0.002": 10.8248071169,
			"0.003": 7.27567837165,
			"0.004": 8.01755030893,
			"0.005": 9.10669037655,
			"0.006": 8.97625831592,
			"0.007": 3.32987011679,
			"0.008": 1.85641342012,
			"0.009": 1.63826736936,
			"0.01": 1.90453114363,
			"0.011": 1.82590623721,
			"0.012": 1.87178672171,
			"0.013": 3.27841254944,
			"0.014": 3.84528288892,
			"0.015": 1.10746449937,
			"0.016": 0.0191897346313,
			"0.017": 0.0,
			"0.018": 0.0,
			"0.019": 0.0,
			"0.02": 0.0,
			"0.021": 0.0,
			"0.022": 0.0,
			"0.023": 0.0,
			"0.024": 0.0,
			"0.025": 0.0
		}
	}
}
