{
	 "smiles": "CC1=CC(CO)=C(C)N1C1=CC=CC=C1", 
	 "Tm": 351.15, 
	 "num_atms": 30, 
	 "gaussian": { 
		 "optdone": 1, 
		 "sigma_profile": "yes", 
		 "theory": "DFT", 
		 "functional": "B3LYP", 
		 "basiset": "6-31G**", 
		 "properties": { 
			 "R2extent": 4260.909, 
			 "electric_dipole_moment_norm": 3.37615163463, 
			 "electric_quadrupole_moment_norm": 12.5889878684, 
			 "total_energy": -634.390937223, 
			 "HOMO_LUMO_gap": 0.17101, 
			 "cosmo_polarized_energy": -8.68, 
			 "cosmo_cavitation_energy": 32.83, 
			 "cosmo_dispersion_energy": -22.67, 
			 "cosmo_repulsion_energy": 1.81, 
			 "cosmo_total_nonelectrostatic_energy": 11.96, 
			 "SMD_solvation_energy": 5.86 
		},
		"coords": [
			{
				"x": -0.2320841703,
				"y": 2.3889002309,
				"z": -1.9399763427,
				"element": "C" 
			},
			{
				"x": -1.2205376602,
				"y": 1.2706281168,
				"z": -1.8454685619,
				"element": "C" 
			},
			{
				"x": -2.1974893929,
				"y": 0.8678576667,
				"z": -2.7266249483,
				"element": "C" 
			},
			{
				"x": -2.848316895,
				"y": -0.2835517491,
				"z": -2.187683103,
				"element": "C" 
			},
			{
				"x": -3.9940578231,
				"y": -1.0289575355,
				"z": -2.8123013471,
				"element": "C" 
			},
			{
				"x": -3.7938843098,
				"y": -2.4453229789,
				"z": -2.8848438537,
				"element": "O" 
			},
			{
				"x": -2.2415330455,
				"y": -0.5708906261,
				"z": -0.9762196212,
				"element": "C" 
			},
			{
				"x": -2.5581116381,
				"y": -1.6355502821,
				"z": 0.0267742379,
				"element": "C" 
			},
			{
				"x": -1.2485363611,
				"y": 0.3826565047,
				"z": -0.7723595573,
				"element": "N" 
			},
			{
				"x": -0.3773920043,
				"y": 0.4372855496,
				"z": 0.3594925595,
				"element": "C" 
			},
			{
				"x": -0.5809880919,
				"y": 1.4013803438,
				"z": 1.3525110439,
				"element": "C" 
			},
			{
				"x": 0.2750732697,
				"y": 1.4591354481,
				"z": 2.4529965576,
				"element": "C" 
			},
			{
				"x": 1.328449646,
				"y": 0.5501655654,
				"z": 2.5711955795,
				"element": "C" 
			},
			{
				"x": 1.5281524629,
				"y": -0.4153858779,
				"z": 1.5822844876,
				"element": "C" 
			},
			{
				"x": 0.681308894,
				"y": -0.4702794348,
				"z": 0.4746527594,
				"element": "C" 
			},
			{
				"x": 0.8046351242,
				"y": 2.0319104476,
				"z": -1.9040160358,
				"element": "H" 
			},
			{
				"x": -0.3717028945,
				"y": 2.9133888218,
				"z": -2.8884393168,
				"element": "H" 
			},
			{
				"x": -0.3442517638,
				"y": 3.1236264842,
				"z": -1.1334962341,
				"element": "H" 
			},
			{
				"x": -2.4231005627,
				"y": 1.3472176702,
				"z": -3.6707142825,
				"element": "H" 
			},
			{
				"x": -4.1908391384,
				"y": -0.6091985062,
				"z": -3.8115662251,
				"element": "H" 
			},
			{
				"x": -4.9178183096,
				"y": -0.9092925569,
				"z": -2.2335030549,
				"element": "H" 
			},
			{
				"x": -2.896263758,
				"y": -2.577165212,
				"z": -3.2183626344,
				"element": "H" 
			},
			{
				"x": -3.2538650527,
				"y": -2.3453966346,
				"z": -0.423797654,
				"element": "H" 
			},
			{
				"x": -3.0160618958,
				"y": -1.2250661977,
				"z": 0.9363483713,
				"element": "H" 
			},
			{
				"x": -1.6675680401,
				"y": -2.1904880696,
				"z": 0.3425602118,
				"element": "H" 
			},
			{
				"x": -1.4124538501,
				"y": 2.0926042057,
				"z": 1.256279484,
				"element": "H" 
			},
			{
				"x": 0.1141517097,
				"y": 2.2099520906,
				"z": 3.2210626012,
				"element": "H" 
			},
			{
				"x": 1.9910401475,
				"y": 0.5938924604,
				"z": 3.4305288616,
				"element": "H" 
			},
			{
				"x": 2.3477376096,
				"y": -1.1227572702,
				"z": 1.6686502305,
				"element": "H" 
			},
			{
				"x": 0.8345077942,
				"y": -1.2068986747,
				"z": -0.3078642128,
				"element": "H" 
			}
		],
		 "valence_orbital": [ 
			{
				"type": "occ",
				"energy": -0.26259,
				"method": "rhf"
			},
			{
				"type": "occ",
				"energy": -0.26236,
				"method": "rhf"
			},
			{
				"type": "occ",
				"energy": -0.25899,
				"method": "rhf"
			},
			{
				"type": "occ",
				"energy": -0.22368,
				"method": "rhf"
			},
			{
				"type": "occ",
				"energy": -0.1873,
				"method": "rhf"
			},
			{
				"type": "unocc",
				"energy": -0.01629,
				"method": "rhf"
			},
			{
				"type": "unocc",
				"energy": -0.01423,
				"method": "rhf"
			},
			{
				"type": "unocc",
				"energy": 0.03876,
				"method": "rhf"
			},
			{
				"type": "unocc",
				"energy": 0.07594,
				"method": "rhf"
			},
			{
				"type": "unocc",
				"energy": 0.08195,
				"method": "rhf"
			}
		],
		"cosmo_sigma_profile": { 
			"-0.025": 0.0,
			"-0.024": 0.0,
			"-0.023": 0.0,
			"-0.022": 0.0,
			"-0.021": 0.0,
			"-0.02": 0.0,
			"-0.019": 0.0,
			"-0.018": 0.0,
			"-0.017": 0.0,
			"-0.016": 0.0,
			"-0.015": 0.0252408060541,
			"-0.014": 0.746225014558,
			"-0.013": 0.963744285679,
			"-0.012": 0.720201973263,
			"-0.011": 0.262288139516,
			"-0.01": 0.72255445141,
			"-0.009": 0.505055057671,
			"-0.008": 1.09655423799,
			"-0.007": 1.38910990829,
			"-0.006": 9.99479755794,
			"-0.005": 11.9116400014,
			"-0.004": 20.8401774951,
			"-0.003": 26.4637419143,
			"-0.002": 26.6740971872,
			"-0.001": 25.6255826803,
			"0.0": 30.2345785521,
			"0.001": 21.4948815667,
			"0.002": 16.207035847,
			"0.003": 14.1983664496,
			"0.004": 13.6477506355,
			"0.005": 11.3813570712,
			"0.006": 4.93329268244,
			"0.007": 4.46239173547,
			"0.008": 4.6614592462,
			"0.009": 2.7578184718,
			"0.01": 0.887599593097,
			"0.011": 1.22844945855,
			"0.012": 1.18036424651,
			"0.013": 1.14644292767,
			"0.014": 1.84783134811,
			"0.015": 1.15403971529,
			"0.016": 0.00141820208555,
			"0.017": 0.0,
			"0.018": 0.0,
			"0.019": 0.0,
			"0.02": 0.0,
			"0.021": 0.0,
			"0.022": 0.0,
			"0.023": 0.0,
			"0.024": 0.0,
			"0.025": 0.0
		}
	}
}
