{
	 "smiles": "COC1=CC(C)=C(OC)C=C1CC(C)N", 
	 "Tm": 333.9, 
	 "num_atms": 34, 
	 "gaussian": { 
		 "optdone": 1, 
		 "sigma_profile": "yes", 
		 "theory": "DFT", 
		 "functional": "B3LYP", 
		 "basiset": "6-31G**", 
		 "properties": { 
			 "R2extent": 4301.6854, 
			 "electric_dipole_moment_norm": 1.23703791373, 
			 "electric_quadrupole_moment_norm": 17.3073672143, 
			 "total_energy": -673.914686884, 
			 "HOMO_LUMO_gap": 0.19457, 
			 "cosmo_polarized_energy": -11.24, 
			 "cosmo_cavitation_energy": 35.55, 
			 "cosmo_dispersion_energy": -24.72, 
			 "cosmo_repulsion_energy": 1.98, 
			 "cosmo_total_nonelectrostatic_energy": 12.82, 
			 "SMD_solvation_energy": 6.39 
		},
		"coords": [
			{
				"x": -3.3576563272,
				"y": 0.0713531137,
				"z": 0.8491694821,
				"element": "C" 
			},
			{
				"x": -2.0545163783,
				"y": 0.4026938859,
				"z": 0.4085786875,
				"element": "O" 
			},
			{
				"x": -0.9814298123,
				"y": -0.1787630689,
				"z": 1.0407631341,
				"element": "C" 
			},
			{
				"x": -1.1063320624,
				"y": -1.1076550171,
				"z": 2.0819221566,
				"element": "C" 
			},
			{
				"x": 0.0117265929,
				"y": -1.6767651202,
				"z": 2.6953282267,
				"element": "C" 
			},
			{
				"x": -0.1244247467,
				"y": -2.6762771023,
				"z": 3.81540868,
				"element": "C" 
			},
			{
				"x": 1.2854112729,
				"y": -1.290424169,
				"z": 2.2440818786,
				"element": "C" 
			},
			{
				"x": 2.3450411287,
				"y": -1.8808371173,
				"z": 2.8895161536,
				"element": "O" 
			},
			{
				"x": 3.6547824608,
				"y": -1.5318492689,
				"z": 2.4828522496,
				"element": "C" 
			},
			{
				"x": 1.4115121333,
				"y": -0.3599465121,
				"z": 1.2102683983,
				"element": "C" 
			},
			{
				"x": 0.2915618332,
				"y": 0.2085158824,
				"z": 0.5893937215,
				"element": "C" 
			},
			{
				"x": 0.4674386888,
				"y": 1.205388975,
				"z": -0.5345693926,
				"element": "C" 
			},
			{
				"x": 0.7751038205,
				"y": 0.5713111718,
				"z": -1.9112275047,
				"element": "C" 
			},
			{
				"x": -0.3773851426,
				"y": -0.2845525696,
				"z": -2.4385887451,
				"element": "C" 
			},
			{
				"x": 1.027491012,
				"y": 1.6626629866,
				"z": -2.8641655103,
				"element": "N" 
			},
			{
				"x": -3.5740588585,
				"y": -0.9977911582,
				"z": 0.7202287035,
				"element": "H" 
			},
			{
				"x": -3.5139014804,
				"y": 0.3400545903,
				"z": 1.9026743981,
				"element": "H" 
			},
			{
				"x": -4.0432984357,
				"y": 0.6505113184,
				"z": 0.2278794319,
				"element": "H" 
			},
			{
				"x": -2.0876287588,
				"y": -1.4050832899,
				"z": 2.4342194599,
				"element": "H" 
			},
			{
				"x": 0.3474284785,
				"y": -3.6305987274,
				"z": 3.5561689818,
				"element": "H" 
			},
			{
				"x": -1.1761031815,
				"y": -2.8642129755,
				"z": 4.048064472,
				"element": "H" 
			},
			{
				"x": 0.3726317793,
				"y": -2.3230298617,
				"z": 4.7257051609,
				"element": "H" 
			},
			{
				"x": 3.8368793977,
				"y": -1.7868064539,
				"z": 1.4300483253,
				"element": "H" 
			},
			{
				"x": 3.8560674923,
				"y": -0.4617851647,
				"z": 2.6278430854,
				"element": "H" 
			},
			{
				"x": 4.3331450291,
				"y": -2.1106014315,
				"z": 3.1125957803,
				"element": "H" 
			},
			{
				"x": 2.3938551987,
				"y": -0.0512797112,
				"z": 0.8689789658,
				"element": "H" 
			},
			{
				"x": -0.4239436602,
				"y": 1.8289345953,
				"z": -0.6367783171,
				"element": "H" 
			},
			{
				"x": 1.3007662834,
				"y": 1.8750876725,
				"z": -0.2807079377,
				"element": "H" 
			},
			{
				"x": 1.6531313269,
				"y": -0.0893831526,
				"z": -1.7799054874,
				"element": "H" 
			},
			{
				"x": -0.6003836177,
				"y": -1.1070518354,
				"z": -1.7540618233,
				"element": "H" 
			},
			{
				"x": -0.121684253,
				"y": -0.7184120846,
				"z": -3.4128986217,
				"element": "H" 
			},
			{
				"x": -1.2780336271,
				"y": 0.3242265397,
				"z": -2.5596974427,
				"element": "H" 
			},
			{
				"x": 1.8492650484,
				"y": 2.1911416814,
				"z": -2.5778785403,
				"element": "H" 
			},
			{
				"x": 1.2426413651,
				"y": 1.2755233789,
				"z": -3.7805102108,
				"element": "H" 
			}
		],
		 "valence_orbital": [ 
			{
				"type": "occ",
				"energy": -0.30581,
				"method": "rhf"
			},
			{
				"type": "occ",
				"energy": -0.27797,
				"method": "rhf"
			},
			{
				"type": "occ",
				"energy": -0.23235,
				"method": "rhf"
			},
			{
				"type": "occ",
				"energy": -0.22607,
				"method": "rhf"
			},
			{
				"type": "occ",
				"energy": -0.18814,
				"method": "rhf"
			},
			{
				"type": "unocc",
				"energy": 0.00643,
				"method": "rhf"
			},
			{
				"type": "unocc",
				"energy": 0.03194,
				"method": "rhf"
			},
			{
				"type": "unocc",
				"energy": 0.08465,
				"method": "rhf"
			},
			{
				"type": "unocc",
				"energy": 0.09984,
				"method": "rhf"
			},
			{
				"type": "unocc",
				"energy": 0.10401,
				"method": "rhf"
			}
		],
		"cosmo_sigma_profile": { 
			"-0.025": 0.0,
			"-0.024": 0.0,
			"-0.023": 0.0,
			"-0.022": 0.0,
			"-0.021": 0.0,
			"-0.02": 0.0,
			"-0.019": 0.0,
			"-0.018": 0.0,
			"-0.017": 0.0,
			"-0.016": 0.0,
			"-0.015": 0.0,
			"-0.014": 0.0,
			"-0.013": 0.0,
			"-0.012": 0.0,
			"-0.011": 0.0,
			"-0.01": 0.160394666725,
			"-0.009": 2.39263803189,
			"-0.008": 2.26258696401,
			"-0.007": 3.14064807672,
			"-0.006": 6.26136818808,
			"-0.005": 22.8070035809,
			"-0.004": 27.4998939091,
			"-0.003": 30.2035950221,
			"-0.002": 24.4093973625,
			"-0.001": 23.918465832,
			"0.0": 23.4716966022,
			"0.001": 21.950577153,
			"0.002": 16.3984007345,
			"0.003": 12.9741199637,
			"0.004": 14.4633956947,
			"0.005": 12.0870140398,
			"0.006": 12.1860708856,
			"0.007": 6.36428692693,
			"0.008": 3.58305704252,
			"0.009": 3.38100214788,
			"0.01": 1.23498795942,
			"0.011": 0.840952292871,
			"0.012": 0.997206001768,
			"0.013": 0.485293574746,
			"0.014": 0.316662773579,
			"0.015": 0.296449051742,
			"0.016": 0.993468364586,
			"0.017": 0.6304533249,
			"0.018": 0.421731717799,
			"0.019": 0.463315913832,
			"0.02": 0.352902059198,
			"0.021": 0.0346325226834,
			"0.022": 0.0,
			"0.023": 0.0,
			"0.024": 0.0,
			"0.025": 0.0
		}
	}
}
