{
	 "smiles": "[O-][N+](=O)C1=CC(Cl)=C(Cl)N=C1", 
	 "Tm": 326.15, 
	 "num_atms": 13, 
	 "gaussian": { 
		 "optdone": 1, 
		 "sigma_profile": "yes", 
		 "theory": "DFT", 
		 "functional": "B3LYP", 
		 "basiset": "6-31G**", 
		 "properties": { 
			 "R2extent": 2858.2962, 
			 "electric_dipole_moment_norm": 1.51318028999, 
			 "electric_quadrupole_moment_norm": 8.95847174857, 
			 "total_energy": -1371.95357597, 
			 "HOMO_LUMO_gap": 0.1723, 
			 "cosmo_polarized_energy": -7.86, 
			 "cosmo_cavitation_energy": 22.52, 
			 "cosmo_dispersion_energy": -17.01, 
			 "cosmo_repulsion_energy": 1.37, 
			 "cosmo_total_nonelectrostatic_energy": 6.87, 
			 "SMD_solvation_energy": 4.39 
		},
		"coords": [
			{
				"x": 1.2188629969,
				"y": 1.2901064336,
				"z": 2.6606162109,
				"element": "O" 
			},
			{
				"x": 0.7217333787,
				"y": 0.394125313,
				"z": 1.9823982459,
				"element": "N" 
			},
			{
				"x": 0.4729846105,
				"y": -0.744095763,
				"z": 2.374085621,
				"element": "O" 
			},
			{
				"x": 0.3979166146,
				"y": 0.7117135821,
				"z": 0.585805803,
				"element": "C" 
			},
			{
				"x": -0.1669946698,
				"y": -0.2670916545,
				"z": -0.2257672122,
				"element": "C" 
			},
			{
				"x": -0.4602594829,
				"y": 0.0690427652,
				"z": -1.5422376785,
				"element": "C" 
			},
			{
				"x": -1.1662716288,
				"y": -1.1206472453,
				"z": -2.592020967,
				"element": "Cl" 
			},
			{
				"x": -0.1667608263,
				"y": 1.380793124,
				"z": -1.9723752128,
				"element": "C" 
			},
			{
				"x": -0.5076842121,
				"y": 1.8695336559,
				"z": -3.6069319479,
				"element": "Cl" 
			},
			{
				"x": 0.3712611221,
				"y": 2.2977017067,
				"z": -1.1831644004,
				"element": "N" 
			},
			{
				"x": 0.6560429607,
				"y": 1.983954887,
				"z": 0.081914067,
				"element": "C" 
			},
			{
				"x": -0.3673045009,
				"y": -1.256076801,
				"z": 0.1670420603,
				"element": "H" 
			},
			{
				"x": 1.0961736374,
				"y": 2.7510399963,
				"z": 0.7094354107,
				"element": "H" 
			}
		],
		 "valence_orbital": [ 
			{
				"type": "occ",
				"energy": -0.33333,
				"method": "rhf"
			},
			{
				"type": "occ",
				"energy": -0.32379,
				"method": "rhf"
			},
			{
				"type": "occ",
				"energy": -0.31612,
				"method": "rhf"
			},
			{
				"type": "occ",
				"energy": -0.30512,
				"method": "rhf"
			},
			{
				"type": "occ",
				"energy": -0.28886,
				"method": "rhf"
			},
			{
				"type": "unocc",
				"energy": -0.11656,
				"method": "rhf"
			},
			{
				"type": "unocc",
				"energy": -0.07392,
				"method": "rhf"
			},
			{
				"type": "unocc",
				"energy": -0.0346,
				"method": "rhf"
			},
			{
				"type": "unocc",
				"energy": -0.01599,
				"method": "rhf"
			},
			{
				"type": "unocc",
				"energy": 0.03086,
				"method": "rhf"
			}
		],
		"cosmo_sigma_profile": { 
			"-0.025": 0.0,
			"-0.024": 0.0,
			"-0.023": 0.0,
			"-0.022": 0.0,
			"-0.021": 0.0,
			"-0.02": 0.0,
			"-0.019": 0.0,
			"-0.018": 0.0,
			"-0.017": 0.0,
			"-0.016": 0.0,
			"-0.015": 0.0,
			"-0.014": 0.0,
			"-0.013": 0.0,
			"-0.012": 0.0,
			"-0.011": 0.223345810281,
			"-0.01": 1.33688814763,
			"-0.009": 2.50772991052,
			"-0.008": 4.88652325129,
			"-0.007": 5.0089259274,
			"-0.006": 7.44439607412,
			"-0.005": 11.720247187,
			"-0.004": 19.4171025494,
			"-0.003": 14.2640430383,
			"-0.002": 10.4437940348,
			"-0.001": 10.5161585463,
			"0.0": 10.8408152199,
			"0.001": 12.657149218,
			"0.002": 17.8313225585,
			"0.003": 16.7591964579,
			"0.004": 7.60242381686,
			"0.005": 4.60785820585,
			"0.006": 8.85321742192,
			"0.007": 8.88367423645,
			"0.008": 5.53343958021,
			"0.009": 3.47483765461,
			"0.01": 0.463019751656,
			"0.011": 1.30438737032,
			"0.012": 0.446022159896,
			"0.013": 0.0,
			"0.014": 0.0,
			"0.015": 0.0,
			"0.016": 0.0,
			"0.017": 0.0,
			"0.018": 0.0,
			"0.019": 0.0,
			"0.02": 0.0,
			"0.021": 0.0,
			"0.022": 0.0,
			"0.023": 0.0,
			"0.024": 0.0,
			"0.025": 0.0
		}
	}
}
