{
	 "smiles": "CC(NC(N)=O)C12CC3CC(CC(C3)C1)C2", 
	 "Tm": 433.15, 
	 "num_atms": 38, 
	 "gaussian": { 
		 "optdone": 1, 
		 "sigma_profile": "yes", 
		 "theory": "DFT", 
		 "functional": "B3LYP", 
		 "basiset": "6-31G**", 
		 "properties": { 
			 "R2extent": 4322.9615, 
			 "electric_dipole_moment_norm": 3.66356347973, 
			 "electric_quadrupole_moment_norm": 20.0186725701, 
			 "total_energy": -693.429380978, 
			 "HOMO_LUMO_gap": 0.29083, 
			 "cosmo_polarized_energy": -13.49, 
			 "cosmo_cavitation_energy": 34.4, 
			 "cosmo_dispersion_energy": -24.94, 
			 "cosmo_repulsion_energy": 1.92, 
			 "cosmo_total_nonelectrostatic_energy": 11.37, 
			 "SMD_solvation_energy": 4.96 
		},
		"coords": [
			{
				"x": -1.7561619182,
				"y": -0.6018435075,
				"z": 0.0779249685,
				"element": "C" 
			},
			{
				"x": -0.4910784027,
				"y": 0.2616329249,
				"z": 0.218937066,
				"element": "C" 
			},
			{
				"x": -0.8861521289,
				"y": 1.6744284194,
				"z": 0.2418111186,
				"element": "N" 
			},
			{
				"x": -0.4826280766,
				"y": 2.6587041273,
				"z": 1.1208072874,
				"element": "C" 
			},
			{
				"x": -0.01517307,
				"y": 2.2193298295,
				"z": 2.3582049647,
				"element": "N" 
			},
			{
				"x": -0.5261330401,
				"y": 3.8480081554,
				"z": 0.828094883,
				"element": "O" 
			},
			{
				"x": 0.6303278704,
				"y": -0.0281102927,
				"z": -0.8343665512,
				"element": "C" 
			},
			{
				"x": 1.1139821013,
				"y": -1.4974016225,
				"z": -0.7082849853,
				"element": "C" 
			},
			{
				"x": 2.2600565579,
				"y": -1.7887220036,
				"z": -1.7001563468,
				"element": "C" 
			},
			{
				"x": 1.7566309168,
				"y": -1.5521220413,
				"z": -3.1388360255,
				"element": "C" 
			},
			{
				"x": 1.3011150557,
				"y": -0.0862915284,
				"z": -3.2890873712,
				"element": "C" 
			},
			{
				"x": 2.4896086708,
				"y": 0.8517426576,
				"z": -2.9976458392,
				"element": "C" 
			},
			{
				"x": 2.9911050907,
				"y": 0.6113421849,
				"z": -1.5593149276,
				"element": "C" 
			},
			{
				"x": 3.4493144368,
				"y": -0.8525168652,
				"z": -1.4105482119,
				"element": "C" 
			},
			{
				"x": 1.8464264707,
				"y": 0.898592581,
				"z": -0.5671358002,
				"element": "C" 
			},
			{
				"x": 0.1558539361,
				"y": 0.2008491473,
				"z": -2.292592678,
				"element": "C" 
			},
			{
				"x": -1.5323176248,
				"y": -1.6710440099,
				"z": 0.1124645831,
				"element": "H" 
			},
			{
				"x": -2.4486293246,
				"y": -0.371890571,
				"z": 0.8926887173,
				"element": "H" 
			},
			{
				"x": -2.2784999277,
				"y": -0.3954431688,
				"z": -0.8617060577,
				"element": "H" 
			},
			{
				"x": -0.0411328342,
				"y": 0.045583,
				"z": 1.1938278079,
				"element": "H" 
			},
			{
				"x": -1.1710298583,
				"y": 2.0786274937,
				"z": -0.6403245083,
				"element": "H" 
			},
			{
				"x": -0.4526766364,
				"y": 1.4012654944,
				"z": 2.7593042043,
				"element": "H" 
			},
			{
				"x": 0.0749765384,
				"y": 2.9902270043,
				"z": 3.005515794,
				"element": "H" 
			},
			{
				"x": 1.4510785249,
				"y": -1.6868337022,
				"z": 0.3207573044,
				"element": "H" 
			},
			{
				"x": 0.2881198426,
				"y": -2.1912336999,
				"z": -0.9051474589,
				"element": "H" 
			},
			{
				"x": 2.5746157014,
				"y": -2.8341021604,
				"z": -1.5866896567,
				"element": "H" 
			},
			{
				"x": 2.5544226907,
				"y": -1.7742888748,
				"z": -3.8594327411,
				"element": "H" 
			},
			{
				"x": 0.9245579652,
				"y": -2.2322848462,
				"z": -3.3650164741,
				"element": "H" 
			},
			{
				"x": 0.9374080621,
				"y": 0.0837625073,
				"z": -4.3104568224,
				"element": "H" 
			},
			{
				"x": 3.2981781272,
				"y": 0.6689793648,
				"z": -3.7175196874,
				"element": "H" 
			},
			{
				"x": 2.1839149585,
				"y": 1.89898369,
				"z": -3.1201071084,
				"element": "H" 
			},
			{
				"x": 3.8297091822,
				"y": 1.2854081578,
				"z": -1.3440012547,
				"element": "H" 
			},
			{
				"x": 3.8301623647,
				"y": -1.0279212555,
				"z": -0.3956971687,
				"element": "H" 
			},
			{
				"x": 4.2748232145,
				"y": -1.0655709988,
				"z": -2.1023596634,
				"element": "H" 
			},
			{
				"x": 2.1962913863,
				"y": 0.7571692303,
				"z": 0.4641484992,
				"element": "H" 
			},
			{
				"x": 1.5416404413,
				"y": 1.9473803035,
				"z": -0.6528148466,
				"element": "H" 
			},
			{
				"x": -0.184560275,
				"y": 1.2370797827,
				"z": -2.4248173113,
				"element": "H" 
			},
			{
				"x": -0.6979469898,
				"y": -0.4486749073,
				"z": -2.5232277017,
				"element": "H" 
			}
		],
		 "valence_orbital": [ 
			{
				"type": "occ",
				"energy": -0.27965,
				"method": "rhf"
			},
			{
				"type": "occ",
				"energy": -0.27773,
				"method": "rhf"
			},
			{
				"type": "occ",
				"energy": -0.26588,
				"method": "rhf"
			},
			{
				"type": "occ",
				"energy": -0.24555,
				"method": "rhf"
			},
			{
				"type": "occ",
				"energy": -0.23412,
				"method": "rhf"
			},
			{
				"type": "unocc",
				"energy": 0.05671,
				"method": "rhf"
			},
			{
				"type": "unocc",
				"energy": 0.06212,
				"method": "rhf"
			},
			{
				"type": "unocc",
				"energy": 0.08191,
				"method": "rhf"
			},
			{
				"type": "unocc",
				"energy": 0.09372,
				"method": "rhf"
			},
			{
				"type": "unocc",
				"energy": 0.10651,
				"method": "rhf"
			}
		],
		"cosmo_sigma_profile": { 
			"-0.025": 0.0,
			"-0.024": 0.0,
			"-0.023": 0.0,
			"-0.022": 0.0,
			"-0.021": 0.0,
			"-0.02": 0.0,
			"-0.019": 0.0,
			"-0.018": 0.0,
			"-0.017": 0.0,
			"-0.016": 0.0,
			"-0.015": 0.0,
			"-0.014": 0.00307243107358,
			"-0.013": 1.33140552051,
			"-0.012": 2.41887532536,
			"-0.011": 2.89738915721,
			"-0.01": 3.93502855062,
			"-0.009": 3.6717272572,
			"-0.008": 2.44087763946,
			"-0.007": 3.62945974855,
			"-0.006": 2.8317429685,
			"-0.005": 4.17244212207,
			"-0.004": 5.36389079959,
			"-0.003": 13.4760433509,
			"-0.002": 32.3015763905,
			"-0.001": 52.4584838724,
			"0.0": 44.5806450249,
			"0.001": 36.04319815,
			"0.002": 13.8294550429,
			"0.003": 3.71954750288,
			"0.004": 3.40896051417,
			"0.005": 3.32592322281,
			"0.006": 3.75090257224,
			"0.007": 2.89939279369,
			"0.008": 1.36246644671,
			"0.009": 1.82577886292,
			"0.01": 2.13570869544,
			"0.011": 1.44539113494,
			"0.012": 1.14157462403,
			"0.013": 2.04823252992,
			"0.014": 3.35715560404,
			"0.015": 6.41969876398,
			"0.016": 1.03985887137,
			"0.017": 0.0,
			"0.018": 0.0,
			"0.019": 0.0,
			"0.02": 0.0,
			"0.021": 0.0,
			"0.022": 0.0,
			"0.023": 0.0,
			"0.024": 0.0,
			"0.025": 0.0
		}
	}
}
