{
	 "smiles": "OC(=O)C1=C(OCCOC2=CC=CC=C2)C=CC=C1", 
	 "Tm": 358.15, 
	 "num_atms": 33, 
	 "gaussian": { 
		 "optdone": 1, 
		 "sigma_profile": "yes", 
		 "theory": "DFT", 
		 "functional": "B3LYP", 
		 "basiset": "6-31G**", 
		 "properties": { 
			 "R2extent": 5282.7975, 
			 "electric_dipole_moment_norm": 5.89202852505, 
			 "electric_quadrupole_moment_norm": 20.5637126949, 
			 "total_energy": -880.921702609, 
			 "HOMO_LUMO_gap": 0.18087, 
			 "cosmo_polarized_energy": -18.34, 
			 "cosmo_cavitation_energy": 37.35, 
			 "cosmo_dispersion_energy": -25.4, 
			 "cosmo_repulsion_energy": 1.96, 
			 "cosmo_total_nonelectrostatic_energy": 13.91, 
			 "SMD_solvation_energy": 7.57 
		},
		"coords": [
			{
				"x": -2.3463040958,
				"y": 0.5769541596,
				"z": -1.6281720667,
				"element": "O" 
			},
			{
				"x": -2.2270974881,
				"y": 1.200924752,
				"z": -0.4393535633,
				"element": "C" 
			},
			{
				"x": -2.436887283,
				"y": 2.389650715,
				"z": -0.3384820263,
				"element": "O" 
			},
			{
				"x": -1.8386049278,
				"y": 0.3566297534,
				"z": 0.7498763196,
				"element": "C" 
			},
			{
				"x": -1.4459504272,
				"y": -0.9932869924,
				"z": 0.6962291595,
				"element": "C" 
			},
			{
				"x": -1.4774132022,
				"y": -1.6563698675,
				"z": -0.5265552734,
				"element": "O" 
			},
			{
				"x": -0.2816299889,
				"y": -2.3088645396,
				"z": -0.9938861164,
				"element": "C" 
			},
			{
				"x": 0.6188643729,
				"y": -1.370737813,
				"z": -1.7789617481,
				"element": "C" 
			},
			{
				"x": 1.185922671,
				"y": -0.4518405461,
				"z": -0.8630481141,
				"element": "O" 
			},
			{
				"x": 2.0353715267,
				"y": 0.5167991905,
				"z": -1.3383851256,
				"element": "C" 
			},
			{
				"x": 2.42763291,
				"y": 0.6354956795,
				"z": -2.675214625,
				"element": "C" 
			},
			{
				"x": 3.308766227,
				"y": 1.6588033466,
				"z": -3.0410866301,
				"element": "C" 
			},
			{
				"x": 3.7970727083,
				"y": 2.5549232812,
				"z": -2.0935398518,
				"element": "C" 
			},
			{
				"x": 3.3956567513,
				"y": 2.4266660014,
				"z": -0.7592278941,
				"element": "C" 
			},
			{
				"x": 2.5202408095,
				"y": 1.4156086128,
				"z": -0.3789602733,
				"element": "C" 
			},
			{
				"x": -1.1093196945,
				"y": -1.6872910771,
				"z": 1.8599101355,
				"element": "C" 
			},
			{
				"x": -1.1372452562,
				"y": -1.0338075122,
				"z": 3.0901147835,
				"element": "C" 
			},
			{
				"x": -1.512951302,
				"y": 0.3098926523,
				"z": 3.1637184443,
				"element": "C" 
			},
			{
				"x": -1.8621716288,
				"y": 0.9889695649,
				"z": 2.0016793674,
				"element": "C" 
			},
			{
				"x": -2.1594129723,
				"y": -0.3745996117,
				"z": -1.5003521868,
				"element": "H" 
			},
			{
				"x": 0.2695558142,
				"y": -2.7356706979,
				"z": -0.1512963623,
				"element": "H" 
			},
			{
				"x": -0.6231366618,
				"y": -3.1196677436,
				"z": -1.6430832821,
				"element": "H" 
			},
			{
				"x": 1.3995736539,
				"y": -1.9668680877,
				"z": -2.2763975194,
				"element": "H" 
			},
			{
				"x": 0.0416963474,
				"y": -0.846693703,
				"z": -2.5531599371,
				"element": "H" 
			},
			{
				"x": 2.0588940545,
				"y": -0.0472128965,
				"z": -3.4317637942,
				"element": "H" 
			},
			{
				"x": 3.6086777584,
				"y": 1.7485937018,
				"z": -4.0813261385,
				"element": "H" 
			},
			{
				"x": 4.4788929259,
				"y": 3.3466781786,
				"z": -2.3875933149,
				"element": "H" 
			},
			{
				"x": 3.7646293918,
				"y": 3.1212638146,
				"z": -0.0100467841,
				"element": "H" 
			},
			{
				"x": 2.19268947,
				"y": 1.3035681208,
				"z": 0.6493029748,
				"element": "H" 
			},
			{
				"x": -0.8438567918,
				"y": -2.7378187506,
				"z": 1.8012870672,
				"element": "H" 
			},
			{
				"x": -0.8759198987,
				"y": -1.5805039072,
				"z": 3.9914705655,
				"element": "H" 
			},
			{
				"x": -1.5384694824,
				"y": 0.8198254753,
				"z": 4.1215283649,
				"element": "H" 
			},
			{
				"x": -2.1581662914,
				"y": 2.0321867459,
				"z": 2.0217754453,
				"element": "H" 
			}
		],
		 "valence_orbital": [ 
			{
				"type": "occ",
				"energy": -0.2646,
				"method": "rhf"
			},
			{
				"type": "occ",
				"energy": -0.25887,
				"method": "rhf"
			},
			{
				"type": "occ",
				"energy": -0.25125,
				"method": "rhf"
			},
			{
				"type": "occ",
				"energy": -0.24908,
				"method": "rhf"
			},
			{
				"type": "occ",
				"energy": -0.22371,
				"method": "rhf"
			},
			{
				"type": "unocc",
				"energy": -0.04284,
				"method": "rhf"
			},
			{
				"type": "unocc",
				"energy": -0.01256,
				"method": "rhf"
			},
			{
				"type": "unocc",
				"energy": -0.00191,
				"method": "rhf"
			},
			{
				"type": "unocc",
				"energy": 0.01118,
				"method": "rhf"
			},
			{
				"type": "unocc",
				"energy": 0.06008,
				"method": "rhf"
			}
		],
		"cosmo_sigma_profile": { 
			"-0.025": 0.0,
			"-0.024": 0.0,
			"-0.023": 0.0,
			"-0.022": 0.0,
			"-0.021": 0.0,
			"-0.02": 0.0,
			"-0.019": 0.0,
			"-0.018": 0.0,
			"-0.017": 0.0,
			"-0.016": 0.0,
			"-0.015": 0.0,
			"-0.014": 0.0,
			"-0.013": 0.0,
			"-0.012": 0.0,
			"-0.011": 0.114973540108,
			"-0.01": 0.602245506049,
			"-0.009": 1.35751404922,
			"-0.008": 4.97754424204,
			"-0.007": 15.3518555055,
			"-0.006": 25.9361320987,
			"-0.005": 25.9309711199,
			"-0.004": 21.1768181866,
			"-0.003": 19.5844215063,
			"-0.002": 16.6911479616,
			"-0.001": 15.2030059476,
			"0.0": 15.8088210162,
			"0.001": 17.0276488929,
			"0.002": 22.0943001746,
			"0.003": 21.519039033,
			"0.004": 19.8063736824,
			"0.005": 13.5716981922,
			"0.006": 13.4623036648,
			"0.007": 4.22355215591,
			"0.008": 2.98747532719,
			"0.009": 2.62839843673,
			"0.01": 3.90048645405,
			"0.011": 5.29645794658,
			"0.012": 5.88964780678,
			"0.013": 2.73701013143,
			"0.014": 0.694641724624,
			"0.015": 0.0,
			"0.016": 0.0,
			"0.017": 0.0,
			"0.018": 0.0,
			"0.019": 0.0,
			"0.02": 0.0,
			"0.021": 0.0,
			"0.022": 0.0,
			"0.023": 0.0,
			"0.024": 0.0,
			"0.0": 0.0
		}
	}
}
