{
	 "smiles": "CC(OC1=C(F)C=CC=C1)C(=O)NN", 
	 "Tm": 338.15, 
	 "num_atms": 25, 
	 "gaussian": { 
		 "optdone": 1, 
		 "sigma_profile": "yes", 
		 "theory": "DFT", 
		 "functional": "B3LYP", 
		 "basiset": "6-31G**", 
		 "properties": { 
			 "R2extent": 3231.2322, 
			 "electric_dipole_moment_norm": 3.30675422885, 
			 "electric_quadrupole_moment_norm": 16.9081131919, 
			 "total_energy": -709.332635554, 
			 "HOMO_LUMO_gap": 0.22358, 
			 "cosmo_polarized_energy": -15.57, 
			 "cosmo_cavitation_energy": 29.47, 
			 "cosmo_dispersion_energy": -20.67, 
			 "cosmo_repulsion_energy": 1.66, 
			 "cosmo_total_nonelectrostatic_energy": 10.46, 
			 "SMD_solvation_energy": 7.13 
		},
		"coords": [
			{
				"x": -0.5239039348,
				"y": -1.823787467,
				"z": -0.6107536609,
				"element": "C" 
			},
			{
				"x": -0.9475001782,
				"y": -0.4641640847,
				"z": -1.1406625356,
				"element": "C" 
			},
			{
				"x": -1.1025282145,
				"y": 0.500503111,
				"z": -0.0650610524,
				"element": "O" 
			},
			{
				"x": 0.0131315511,
				"y": 0.9169509794,
				"z": 0.6093745669,
				"element": "C" 
			},
			{
				"x": 1.1477848313,
				"y": 1.4613676811,
				"z": -0.0105014889,
				"element": "C" 
			},
			{
				"x": 1.1976015995,
				"y": 1.5447097496,
				"z": -1.3610717088,
				"element": "F" 
			},
			{
				"x": 2.2307752925,
				"y": 1.9266698534,
				"z": 0.7238348733,
				"element": "C" 
			},
			{
				"x": 2.1906804353,
				"y": 1.8770382372,
				"z": 2.1182070276,
				"element": "C" 
			},
			{
				"x": 1.0652892493,
				"y": 1.3552769764,
				"z": 2.7583923358,
				"element": "C" 
			},
			{
				"x": -0.0071723576,
				"y": 0.8733069784,
				"z": 2.0079287945,
				"element": "C" 
			},
			{
				"x": -2.3436697094,
				"y": -0.5275232418,
				"z": -1.7812620139,
				"element": "C" 
			},
			{
				"x": -3.0999761602,
				"y": -1.477731448,
				"z": -1.6428157107,
				"element": "O" 
			},
			{
				"x": -2.7144171289,
				"y": 0.5614823218,
				"z": -2.5263740937,
				"element": "N" 
			},
			{
				"x": -1.9088696801,
				"y": 1.6958078379,
				"z": -2.6631348976,
				"element": "N" 
			},
			{
				"x": 0.432299475,
				"y": -1.7466057565,
				"z": -0.0857283515,
				"element": "H" 
			},
			{
				"x": -1.2829858622,
				"y": -2.2215289634,
				"z": 0.0655170907,
				"element": "H" 
			},
			{
				"x": -0.4063089934,
				"y": -2.5280474293,
				"z": -1.4394328456,
				"element": "H" 
			},
			{
				"x": -0.2359722301,
				"y": -0.0729268754,
				"z": -1.8699253693,
				"element": "H" 
			},
			{
				"x": 3.0824592807,
				"y": 2.3332477062,
				"z": 0.1883471657,
				"element": "H" 
			},
			{
				"x": 3.0326885421,
				"y": 2.2462273891,
				"z": 2.6950197221,
				"element": "H" 
			},
			{
				"x": 1.0234095263,
				"y": 1.3125223591,
				"z": 3.8423896942,
				"element": "H" 
			},
			{
				"x": -0.8888166811,
				"y": 0.456252094,
				"z": 2.483654607,
				"element": "H" 
			},
			{
				"x": -3.6846474211,
				"y": 0.5615271788,
				"z": -2.8281020484,
				"element": "H" 
			},
			{
				"x": -2.2559843109,
				"y": 2.4608290508,
				"z": -2.0900464626,
				"element": "H" 
			},
			{
				"x": -1.8796669206,
				"y": 1.9825957621,
				"z": -3.6364936378,
				"element": "H" 
			}
		],
		 "valence_orbital": [ 
			{
				"type": "occ",
				"energy": -0.28455,
				"method": "rhf"
			},
			{
				"type": "occ",
				"energy": -0.25456,
				"method": "rhf"
			},
			{
				"type": "occ",
				"energy": -0.24909,
				"method": "rhf"
			},
			{
				"type": "occ",
				"energy": -0.24671,
				"method": "rhf"
			},
			{
				"type": "occ",
				"energy": -0.22744,
				"method": "rhf"
			},
			{
				"type": "unocc",
				"energy": -0.00386,
				"method": "rhf"
			},
			{
				"type": "unocc",
				"energy": 0.00247,
				"method": "rhf"
			},
			{
				"type": "unocc",
				"energy": 0.01814,
				"method": "rhf"
			},
			{
				"type": "unocc",
				"energy": 0.06833,
				"method": "rhf"
			},
			{
				"type": "unocc",
				"energy": 0.08471,
				"method": "rhf"
			}
		],
		"cosmo_sigma_profile": { 
			"-0.025": 0.0,
			"-0.024": 0.0,
			"-0.023": 0.0,
			"-0.022": 0.0,
			"-0.021": 0.0,
			"-0.02": 0.0,
			"-0.019": 0.0,
			"-0.018": 0.0,
			"-0.017": 0.0,
			"-0.016": 0.0,
			"-0.015": 0.0,
			"-0.014": 0.592467559425,
			"-0.013": 1.60497364803,
			"-0.012": 3.38877469612,
			"-0.011": 4.86816092823,
			"-0.01": 4.6168159603,
			"-0.009": 3.92968586129,
			"-0.008": 3.88380608564,
			"-0.007": 4.78688903204,
			"-0.006": 9.18659994635,
			"-0.005": 11.3875397415,
			"-0.004": 16.2449600523,
			"-0.003": 15.3163101342,
			"-0.002": 12.9395662948,
			"-0.001": 14.1241121253,
			"0.0": 16.7943726358,
			"0.001": 16.9634559419,
			"0.002": 14.5932546381,
			"0.003": 16.8050126427,
			"0.004": 17.8690352655,
			"0.005": 11.2753178706,
			"0.006": 5.25770428145,
			"0.007": 3.35482762416,
			"0.008": 4.20887827752,
			"0.009": 3.44757318207,
			"0.01": 3.17727506854,
			"0.011": 1.82920417044,
			"0.012": 2.26299949572,
			"0.013": 4.97448278824,
			"0.014": 3.40706338279,
			"0.015": 0.05259051107,
			"0.016": 0.0,
			"0.017": 0.0,
			"0.018": 0.0,
			"0.019": 0.0,
			"0.02": 0.0,
			"0.021": 0.0,
			"0.022": 0.0,
			"0.023": 0.0,
			"0.024": 0.0,
			"0.025": 0.0
		}
	}
}
