{
	 "smiles": "OC(=O)C1=CC(=CC=C1)N1CCCC1", 
	 "Tm": 489.15, 
	 "num_atms": 27, 
	 "gaussian": { 
		 "optdone": 1, 
		 "sigma_profile": "yes", 
		 "theory": "DFT", 
		 "functional": "B3LYP", 
		 "basiset": "6-31G**", 
		 "properties": { 
			 "R2extent": 3989.1736, 
			 "electric_dipole_moment_norm": 7.22797355142, 
			 "electric_quadrupole_moment_norm": 25.2625742328, 
			 "total_energy": -632.216057025, 
			 "HOMO_LUMO_gap": 0.16182, 
			 "cosmo_polarized_energy": -14.93, 
			 "cosmo_cavitation_energy": 29.41, 
			 "cosmo_dispersion_energy": -21.84, 
			 "cosmo_repulsion_energy": 1.71, 
			 "cosmo_total_nonelectrostatic_energy": 9.28, 
			 "SMD_solvation_energy": 4.8 
		},
		"coords": [
			{
				"x": -3.4637520209,
				"y": 0.7708337604,
				"z": 1.8359987798,
				"element": "O" 
			},
			{
				"x": -3.7077605535,
				"y": -0.4916039118,
				"z": 1.3817641218,
				"element": "C" 
			},
			{
				"x": -4.8275231354,
				"y": -0.9430518709,
				"z": 1.432497235,
				"element": "O" 
			},
			{
				"x": -2.5279500012,
				"y": -1.2446584539,
				"z": 0.8435025086,
				"element": "C" 
			},
			{
				"x": -1.4050948978,
				"y": -0.581687296,
				"z": 0.3333716029,
				"element": "C" 
			},
			{
				"x": -0.3023505297,
				"y": -1.3042289458,
				"z": -0.1747405577,
				"element": "C" 
			},
			{
				"x": -0.3718504758,
				"y": -2.7169550773,
				"z": -0.1374991798,
				"element": "C" 
			},
			{
				"x": -1.4980454431,
				"y": -3.3619830076,
				"z": 0.3655845281,
				"element": "C" 
			},
			{
				"x": -2.5885084922,
				"y": -2.6421221804,
				"z": 0.8500257011,
				"element": "C" 
			},
			{
				"x": 0.7966401803,
				"y": -0.6564280899,
				"z": -0.6913052132,
				"element": "N" 
			},
			{
				"x": 2.0054567801,
				"y": -1.3454098024,
				"z": -1.1400030668,
				"element": "C" 
			},
			{
				"x": 3.0144854769,
				"y": -0.2063120431,
				"z": -1.3475245714,
				"element": "C" 
			},
			{
				"x": 2.1260687944,
				"y": 0.9846498326,
				"z": -1.7402887097,
				"element": "C" 
			},
			{
				"x": 0.8717678921,
				"y": 0.7915114895,
				"z": -0.8743635796,
				"element": "C" 
			},
			{
				"x": -2.5081789221,
				"y": 0.9118490933,
				"z": 1.8917595891,
				"element": "H" 
			},
			{
				"x": -1.3949677932,
				"y": 0.5018573169,
				"z": 0.2802428015,
				"element": "H" 
			},
			{
				"x": 0.4508173537,
				"y": -3.308466996,
				"z": -0.5224137516,
				"element": "H" 
			},
			{
				"x": -1.5228870112,
				"y": -4.448125541,
				"z": 0.3716040888,
				"element": "H" 
			},
			{
				"x": -3.4755507264,
				"y": -3.1319441884,
				"z": 1.2336578526,
				"element": "H" 
			},
			{
				"x": 1.8274275984,
				"y": -1.9005648887,
				"z": -2.0750308257,
				"element": "H" 
			},
			{
				"x": 2.3492436004,
				"y": -2.0688432142,
				"z": -0.3905413771,
				"element": "H" 
			},
			{
				"x": 3.7690110169,
				"y": -0.449439782,
				"z": -2.100130914,
				"element": "H" 
			},
			{
				"x": 3.5349554196,
				"y": 0.0050849562,
				"z": -0.406761948,
				"element": "H" 
			},
			{
				"x": 1.8578024062,
				"y": 0.921199095,
				"z": -2.8006573454,
				"element": "H" 
			},
			{
				"x": 2.6028018978,
				"y": 1.9540328459,
				"z": -1.5734518862,
				"element": "H" 
			},
			{
				"x": 0.9657540371,
				"y": 1.3135918306,
				"z": 0.0919759,
				"element": "H" 
			},
			{
				"x": -0.0300124515,
				"y": 1.1762150688,
				"z": -1.3673717831,
				"element": "H" 
			}
		],
		 "valence_orbital": [ 
			{
				"type": "occ",
				"energy": -0.30778,
				"method": "rhf"
			},
			{
				"type": "occ",
				"energy": -0.29159,
				"method": "rhf"
			},
			{
				"type": "occ",
				"energy": -0.26492,
				"method": "rhf"
			},
			{
				"type": "occ",
				"energy": -0.2557,
				"method": "rhf"
			},
			{
				"type": "occ",
				"energy": -0.19859,
				"method": "rhf"
			},
			{
				"type": "unocc",
				"energy": -0.03677,
				"method": "rhf"
			},
			{
				"type": "unocc",
				"energy": 0.00355,
				"method": "rhf"
			},
			{
				"type": "unocc",
				"energy": 0.05838,
				"method": "rhf"
			},
			{
				"type": "unocc",
				"energy": 0.06703,
				"method": "rhf"
			},
			{
				"type": "unocc",
				"energy": 0.07683,
				"method": "rhf"
			}
		],
		"cosmo_sigma_profile": { 
			"-0.025": 0.0,
			"-0.024": 0.0,
			"-0.023": 0.0,
			"-0.022": 0.0,
			"-0.021": 0.0,
			"-0.02": 0.0,
			"-0.019": 0.0,
			"-0.018": 0.0860126801413,
			"-0.017": 0.927346837634,
			"-0.016": 1.0344575404,
			"-0.015": 0.946721703073,
			"-0.014": 0.761911843229,
			"-0.013": 0.490229943531,
			"-0.012": 1.14203993185,
			"-0.011": 1.4579891646,
			"-0.01": 0.70039981603,
			"-0.009": 1.01115135233,
			"-0.008": 0.963443292682,
			"-0.007": 1.88479780102,
			"-0.006": 5.6327965585,
			"-0.005": 9.60609166518,
			"-0.004": 19.9521471217,
			"-0.003": 31.512094443,
			"-0.002": 31.9579555582,
			"-0.001": 20.7148442842,
			"0.0": 16.8137507637,
			"0.001": 10.1753488755,
			"0.002": 8.26588156114,
			"0.003": 10.5081743862,
			"0.004": 12.2154853236,
			"0.005": 11.8231535299,
			"0.006": 4.75429129607,
			"0.007": 2.80695778828,
			"0.008": 2.9920732815,
			"0.009": 2.83613401174,
			"0.01": 4.47976488823,
			"0.011": 5.45516189516,
			"0.012": 5.62053067654,
			"0.013": 2.38150818227,
			"0.014": 0.233568232852,
			"0.015": 0.0,
			"0.016": 0.0,
			"0.017": 0.0,
			"0.018": 0.0,
			"0.019": 0.0,
			"0.02": 0.0,
			"0.021": 0.0,
			"0.022": 0.0,
			"0.023": 0.0,
			"0.024": 0.0,
			"0.025": 0.0
		}
	}
}
