{
	 "smiles": "CN1C=C(C=CC1=O)C#N", 
	 "Tm": 433.15, 
	 "num_atms": 16, 
	 "gaussian": { 
		 "optdone": 1, 
		 "sigma_profile": "yes", 
		 "theory": "DFT", 
		 "functional": "B3LYP", 
		 "basiset": "6-31G**", 
		 "properties": { 
			 "R2extent": 1948.2689, 
			 "electric_dipole_moment_norm": 2.34137274264, 
			 "electric_quadrupole_moment_norm": 25.3007662323, 
			 "total_energy": -455.071565341, 
			 "HOMO_LUMO_gap": 0.17132, 
			 "cosmo_polarized_energy": -15.02, 
			 "cosmo_cavitation_energy": 21.45, 
			 "cosmo_dispersion_energy": -15.32, 
			 "cosmo_repulsion_energy": 1.24, 
			 "cosmo_total_nonelectrostatic_energy": 7.37, 
			 "SMD_solvation_energy": 6.29 
		},
		"coords": [
			{
				"x": -1.1885197503,
				"y": 1.738409235,
				"z": 1.4573722762,
				"element": "C" 
			},
			{
				"x": -0.3189115482,
				"y": 0.5635355897,
				"z": 1.3132758256,
				"element": "N" 
			},
			{
				"x": -0.8675607325,
				"y": -0.6746938647,
				"z": 1.3032363454,
				"element": "C" 
			},
			{
				"x": -0.1042842072,
				"y": -1.812797271,
				"z": 1.1711921576,
				"element": "C" 
			},
			{
				"x": 1.3161539222,
				"y": -1.6607274845,
				"z": 1.0412548658,
				"element": "C" 
			},
			{
				"x": 1.8769104447,
				"y": -0.4220212834,
				"z": 1.0501823592,
				"element": "C" 
			},
			{
				"x": 1.0913850915,
				"y": 0.7913418549,
				"z": 1.1884593421,
				"element": "C" 
			},
			{
				"x": 1.5384221114,
				"y": 1.9317435051,
				"z": 1.2029850196,
				"element": "O" 
			},
			{
				"x": -0.7275579959,
				"y": -3.0957631613,
				"z": 1.1659907145,
				"element": "C" 
			},
			{
				"x": -1.2261117683,
				"y": -4.1478217143,
				"z": 1.16049053,
				"element": "N" 
			},
			{
				"x": -1.7291788064,
				"y": 1.6927391401,
				"z": 2.4063770814,
				"element": "H" 
			},
			{
				"x": -1.901864453,
				"y": 1.7827436338,
				"z": 0.6302236026,
				"element": "H" 
			},
			{
				"x": -0.5466319368,
				"y": 2.6169654687,
				"z": 1.4395011427,
				"element": "H" 
			},
			{
				"x": -1.9463701217,
				"y": -0.7238078798,
				"z": 1.4052060595,
				"element": "H" 
			},
			{
				"x": 1.9320286567,
				"y": -2.5483573499,
				"z": 0.9361694596,
				"element": "H" 
			},
			{
				"x": 2.9462910939,
				"y": -0.2770884186,
				"z": 0.9538832184,
				"element": "H" 
			}
		],
		 "valence_orbital": [ 
			{
				"type": "occ",
				"energy": -0.33953,
				"method": "rhf"
			},
			{
				"type": "occ",
				"energy": -0.33787,
				"method": "rhf"
			},
			{
				"type": "occ",
				"energy": -0.31442,
				"method": "rhf"
			},
			{
				"type": "occ",
				"energy": -0.27334,
				"method": "rhf"
			},
			{
				"type": "occ",
				"energy": -0.23767,
				"method": "rhf"
			},
			{
				"type": "unocc",
				"energy": -0.06635,
				"method": "rhf"
			},
			{
				"type": "unocc",
				"energy": -0.03733,
				"method": "rhf"
			},
			{
				"type": "unocc",
				"energy": 0.02465,
				"method": "rhf"
			},
			{
				"type": "unocc",
				"energy": 0.06945,
				"method": "rhf"
			},
			{
				"type": "unocc",
				"energy": 0.07221,
				"method": "rhf"
			}
		],
		"cosmo_sigma_profile": { 
			"-0.025": 0.0,
			"-0.024": 0.0,
			"-0.023": 0.0,
			"-0.022": 0.0,
			"-0.021": 0.0,
			"-0.02": 0.0,
			"-0.019": 0.0,
			"-0.018": 0.0,
			"-0.017": 0.0,
			"-0.016": 0.0,
			"-0.015": 0.0,
			"-0.014": 0.0,
			"-0.013": 0.0,
			"-0.012": 0.139916741347,
			"-0.011": 2.02609044308,
			"-0.01": 2.65701765476,
			"-0.009": 3.98333732975,
			"-0.008": 6.99411022959,
			"-0.007": 10.7408894673,
			"-0.006": 10.0295841949,
			"-0.005": 10.4417424398,
			"-0.004": 12.7462801454,
			"-0.003": 16.4466944334,
			"-0.002": 11.2754631236,
			"-0.001": 12.6216836828,
			"0.0": 8.87639683968,
			"0.001": 7.0126065999,
			"0.002": 6.34581966489,
			"0.003": 3.88050024332,
			"0.004": 3.75735626757,
			"0.005": 3.16065139459,
			"0.006": 3.89095242493,
			"0.007": 4.71767901042,
			"0.008": 4.22586727875,
			"0.009": 4.15095320759,
			"0.01": 4.77517813479,
			"0.011": 5.17456058834,
			"0.012": 4.77835372907,
			"0.013": 6.59842928466,
			"0.014": 1.76909245098,
			"0.015": 0.088622131844,
			"0.016": 0.0,
			"0.017": 0.0,
			"0.018": 0.0,
			"0.019": 0.0,
			"0.02": 0.0,
			"0.021": 0.0,
			"0.022": 0.0,
			"0.023": 0.0,
			"0.024": 0.0,
			"0.025": 0.0
		}
	}
}
