{
	 "smiles": "NC1=NC=C(I)C(Cl)=C1", 
	 "Tm": 373.15, 
	 "num_atms": 13, 
	 "gaussian": { 
		 "optdone": 1, 
		 "sigma_profile": "yes", 
		 "theory": "DFT", 
		 "functional": "B3LYP", 
		 "basiset": "6-31G**", 
		 "properties": { 
			 "R2extent": 2101.7539, 
			 "electric_dipole_moment_norm": 3.18095779601, 
			 "electric_quadrupole_moment_norm": 10.0690198133, 
			 "total_energy": -774.023772254, 
			 "HOMO_LUMO_gap": 0.17747, 
			 "cosmo_polarized_energy": -9.23, 
			 "cosmo_cavitation_energy": 22.27, 
			 "cosmo_dispersion_energy": -18.27, 
			 "cosmo_repulsion_energy": 1.47, 
			 "cosmo_total_nonelectrostatic_energy": 5.46, 
			 "SMD_solvation_energy": 1.38 
		},
		"coords": [
			{
				"x": -0.0033282137,
				"y": -2.6350930072,
				"z": 0.1955785566,
				"element": "N" 
			},
			{
				"x": -0.4322672723,
				"y": -1.5071524957,
				"z": -0.4644572038,
				"element": "C" 
			},
			{
				"x": 0.1420105302,
				"y": -1.2581469104,
				"z": -1.653064225,
				"element": "N" 
			},
			{
				"x": -0.2109628426,
				"y": -0.1484935504,
				"z": -2.301059315,
				"element": "C" 
			},
			{
				"x": -1.1487627884,
				"y": 0.7761649834,
				"z": -1.8313593393,
				"element": "C" 
			},
			{
				"x": -1.5914069793,
				"y": 2.4713814986,
				"z": -2.9988238152,
				"element": "I" 
			},
			{
				"x": -1.7461726852,
				"y": 0.5006104294,
				"z": -0.5908479575,
				"element": "C" 
			},
			{
				"x": -2.9365766703,
				"y": 1.5593950806,
				"z": 0.1212727365,
				"element": "Cl" 
			},
			{
				"x": -1.3898284149,
				"y": -0.6456502248,
				"z": 0.1058046791,
				"element": "C" 
			},
			{
				"x": 0.5143106422,
				"y": -3.2880295595,
				"z": -0.3746752458,
				"element": "H" 
			},
			{
				"x": -0.6078737308,
				"y": -3.0420839991,
				"z": 0.8920588005,
				"element": "H" 
			},
			{
				"x": 0.2750519005,
				"y": 0.0212279947,
				"z": -3.2586850213,
				"element": "H" 
			},
			{
				"x": -1.8387934755,
				"y": -0.8610302398,
				"z": 1.0687573503,
				"element": "H" 
			}
		],
		 "valence_orbital": [ 
			{
				"type": "occ",
				"energy": -0.28676,
				"method": "rhf"
			},
			{
				"type": "occ",
				"energy": -0.27948,
				"method": "rhf"
			},
			{
				"type": "occ",
				"energy": -0.27275,
				"method": "rhf"
			},
			{
				"type": "occ",
				"energy": -0.2652,
				"method": "rhf"
			},
			{
				"type": "occ",
				"energy": -0.22286,
				"method": "rhf"
			},
			{
				"type": "unocc",
				"energy": -0.04539,
				"method": "rhf"
			},
			{
				"type": "unocc",
				"energy": -0.0363,
				"method": "rhf"
			},
			{
				"type": "unocc",
				"energy": -0.01391,
				"method": "rhf"
			},
			{
				"type": "unocc",
				"energy": 0.02744,
				"method": "rhf"
			},
			{
				"type": "unocc",
				"energy": 0.05189,
				"method": "rhf"
			}
		],
		"cosmo_sigma_profile": { 
			"-0.025": 0.0,
			"-0.024": 0.0,
			"-0.023": 0.0,
			"-0.022": 0.0,
			"-0.021": 0.0,
			"-0.02": 0.0,
			"-0.019": 0.0,
			"-0.018": 0.0,
			"-0.017": 0.0,
			"-0.016": 0.0,
			"-0.015": 0.0344577886584,
			"-0.014": 1.09538710514,
			"-0.013": 2.88029346102,
			"-0.012": 2.40717586818,
			"-0.011": 2.39826402503,
			"-0.01": 3.16107772525,
			"-0.009": 3.34814675058,
			"-0.008": 3.09555956978,
			"-0.007": 5.1612687518,
			"-0.006": 5.10876632705,
			"-0.005": 5.79883995676,
			"-0.004": 6.25319743487,
			"-0.003": 6.81741502062,
			"-0.002": 7.67207817372,
			"-0.001": 10.0210812938,
			"0.0": 18.1007394322,
			"0.001": 24.1480060037,
			"0.002": 17.7297678298,
			"0.003": 17.5196068662,
			"0.004": 22.7559896979,
			"0.005": 7.13927883763,
			"0.006": 2.16662036984,
			"0.007": 1.60058929894,
			"0.008": 2.14369032175,
			"0.009": 1.77213637239,
			"0.01": 1.73731761136,
			"0.011": 0.774405862265,
			"0.012": 0.930216746926,
			"0.013": 1.12880985052,
			"0.014": 0.463996197153,
			"0.015": 0.310243307134,
			"0.016": 0.0,
			"0.017": 0.0,
			"0.018": 0.0,
			"0.019": 0.0,
			"0.02": 0.0,
			"0.021": 0.0,
			"0.022": 0.0,
			"0.023": 0.0,
			"0.024": 0.0,
			"0.025": 0.0
		}
	}
}
