{
	 "smiles": "OCC(CO)(CO)NC(=O)C=C", 
	 "Tm": 411.15, 
	 "num_atms": 25, 
	 "gaussian": { 
		 "optdone": 1, 
		 "sigma_profile": "yes", 
		 "theory": "DFT", 
		 "functional": "B3LYP", 
		 "basiset": "6-31G**", 
		 "properties": { 
			 "R2extent": 2571.7468, 
			 "electric_dipole_moment_norm": 5.2497856661, 
			 "electric_quadrupole_moment_norm": 14.2048839492, 
			 "total_energy": -630.184068883, 
			 "HOMO_LUMO_gap": 0.20823, 
			 "cosmo_polarized_energy": -21.03, 
			 "cosmo_cavitation_energy": 27.54, 
			 "cosmo_dispersion_energy": -19.77, 
			 "cosmo_repulsion_energy": 1.6, 
			 "cosmo_total_nonelectrostatic_energy": 9.38, 
			 "SMD_solvation_energy": 5.99 
		},
		"coords": [
			{
				"x": -3.138707834,
				"y": -1.2793557161,
				"z": 0.8071847635,
				"element": "O" 
			},
			{
				"x": -2.4789225454,
				"y": -0.0962721384,
				"z": 0.4005517345,
				"element": "C" 
			},
			{
				"x": -1.0331023139,
				"y": -0.3454358494,
				"z": -0.1118181361,
				"element": "C" 
			},
			{
				"x": -1.0634577694,
				"y": -1.0552205459,
				"z": -1.481371916,
				"element": "C" 
			},
			{
				"x": -1.7841575272,
				"y": -2.2802761045,
				"z": -1.354078716,
				"element": "O" 
			},
			{
				"x": -0.2340123436,
				"y": -1.1733947483,
				"z": 0.9072159591,
				"element": "C" 
			},
			{
				"x": 1.0798429755,
				"y": -1.3598676313,
				"z": 0.3795433379,
				"element": "O" 
			},
			{
				"x": -0.3766974954,
				"y": 0.9464367245,
				"z": -0.3756655386,
				"element": "N" 
			},
			{
				"x": -0.0929756582,
				"y": 1.892355153,
				"z": 0.5806051838,
				"element": "C" 
			},
			{
				"x": -0.5319735578,
				"y": 1.8588112637,
				"z": 1.7275291573,
				"element": "O" 
			},
			{
				"x": 0.7819850101,
				"y": 3.0048565593,
				"z": 0.0903635776,
				"element": "C" 
			},
			{
				"x": 1.1343021625,
				"y": 3.9989292543,
				"z": 0.9062914332,
				"element": "C" 
			},
			{
				"x": -3.0785158685,
				"y": -1.8967550265,
				"z": 0.0620107281,
				"element": "H" 
			},
			{
				"x": -2.4324630416,
				"y": 0.5602943475,
				"z": 1.2697880284,
				"element": "H" 
			},
			{
				"x": -3.0275650467,
				"y": 0.4350598713,
				"z": -0.395756018,
				"element": "H" 
			},
			{
				"x": -0.031718023,
				"y": -1.2468592643,
				"z": -1.8060774915,
				"element": "H" 
			},
			{
				"x": -1.5512237988,
				"y": -0.3875074162,
				"z": -2.2080171383,
				"element": "H" 
			},
			{
				"x": -1.7760180618,
				"y": -2.7337316769,
				"z": -2.2050736747,
				"element": "H" 
			},
			{
				"x": -0.7508831278,
				"y": -2.1268509047,
				"z": 1.060862073,
				"element": "H" 
			},
			{
				"x": -0.2127310084,
				"y": -0.6258720589,
				"z": 1.8565465714,
				"element": "H" 
			},
			{
				"x": 1.5903102399,
				"y": -1.8554747414,
				"z": 1.0301949235,
				"element": "H" 
			},
			{
				"x": 0.2231063689,
				"y": 0.9691199701,
				"z": -1.1891154263,
				"element": "H" 
			},
			{
				"x": 1.1190962944,
				"y": 2.9833367269,
				"z": -0.9447182068,
				"element": "H" 
			},
			{
				"x": 0.7818746059,
				"y": 4.0006992928,
				"z": 1.9334450672,
				"element": "H" 
			},
			{
				"x": 1.7674073643,
				"y": 4.8162746595,
				"z": 0.5766597237,
				"element": "H" 
			}
		],
		 "valence_orbital": [ 
			{
				"type": "occ",
				"energy": -0.27421,
				"method": "rhf"
			},
			{
				"type": "occ",
				"energy": -0.27383,
				"method": "rhf"
			},
			{
				"type": "occ",
				"energy": -0.25817,
				"method": "rhf"
			},
			{
				"type": "occ",
				"energy": -0.24592,
				"method": "rhf"
			},
			{
				"type": "occ",
				"energy": -0.24151,
				"method": "rhf"
			},
			{
				"type": "unocc",
				"energy": -0.03328,
				"method": "rhf"
			},
			{
				"type": "unocc",
				"energy": 0.05085,
				"method": "rhf"
			},
			{
				"type": "unocc",
				"energy": 0.06801,
				"method": "rhf"
			},
			{
				"type": "unocc",
				"energy": 0.08519,
				"method": "rhf"
			},
			{
				"type": "unocc",
				"energy": 0.09351,
				"method": "rhf"
			}
		],
		"cosmo_sigma_profile": { 
			"-0.025": 0.0,
			"-0.024": 0.0,
			"-0.023": 0.0,
			"-0.022": 0.0,
			"-0.021": 0.0,
			"-0.02": 0.0,
			"-0.019": 0.0,
			"-0.018": 0.0316516675287,
			"-0.017": 0.672505971588,
			"-0.016": 1.59550077271,
			"-0.015": 2.59181138924,
			"-0.014": 2.56047592348,
			"-0.013": 3.3669614968,
			"-0.012": 2.63237246689,
			"-0.011": 3.02384821666,
			"-0.01": 2.67375808491,
			"-0.009": 3.16108154497,
			"-0.008": 3.16431569735,
			"-0.007": 6.63588672044,
			"-0.006": 6.66787750522,
			"-0.005": 10.4568603087,
			"-0.004": 15.5756486875,
			"-0.003": 13.7870871802,
			"-0.002": 13.9942750376,
			"-0.001": 12.4016362,
			"0.0": 11.4146487995,
			"0.001": 13.7384952335,
			"0.002": 10.6666734917,
			"0.003": 12.0844607675,
			"0.004": 10.2418978892,
			"0.005": 7.55757976764,
			"0.006": 5.29484961389,
			"0.007": 5.39936942439,
			"0.008": 6.12578406315,
			"0.009": 4.47279184436,
			"0.01": 4.61531809312,
			"0.011": 4.52057258745,
			"0.012": 3.82398936231,
			"0.013": 4.52124136639,
			"0.014": 3.83855528452,
			"0.015": 1.43382726173,
			"0.016": 0.0,
			"0.017": 0.0,
			"0.018": 0.0,
			"0.019": 0.0,
			"0.02": 0.0,
			"0.021": 0.0,
			"0.022": 0.0,
			"0.023": 0.0,
			"0.024": 0.0,
			"0.025": 0.0
		}
	}
}
