{
	 "smiles": "NC1=C(NC2=CC=C(F)C=C2)C=CC(=C1)[N+]([O-])=O", 
	 "Tm": 436.15, 
	 "num_atms": 28, 
	 "gaussian": { 
		 "optdone": 1, 
		 "sigma_profile": "yes", 
		 "theory": "DFT", 
		 "functional": "B3LYP", 
		 "basiset": "6-31G**", 
		 "properties": { 
			 "R2extent": 6728.4525, 
			 "electric_dipole_moment_norm": 5.95776332779, 
			 "electric_quadrupole_moment_norm": 36.3746170774, 
			 "total_energy": -877.748674106, 
			 "HOMO_LUMO_gap": 0.13175, 
			 "cosmo_polarized_energy": -17.06, 
			 "cosmo_cavitation_energy": 33.71, 
			 "cosmo_dispersion_energy": -24.43, 
			 "cosmo_repulsion_energy": 1.85, 
			 "cosmo_total_nonelectrostatic_energy": 11.13, 
			 "SMD_solvation_energy": 8.35 
		},
		"coords": [
			{
				"x": 0.6334244453,
				"y": 2.2558621512,
				"z": 2.2442323797,
				"element": "N" 
			},
			{
				"x": 0.1329050309,
				"y": 2.2930036213,
				"z": 0.9252459243,
				"element": "C" 
			},
			{
				"x": 0.2071061744,
				"y": 1.0946584854,
				"z": 0.1575413497,
				"element": "C" 
			},
			{
				"x": 0.7708870208,
				"y": -0.0069329048,
				"z": 0.7929900971,
				"element": "N" 
			},
			{
				"x": 0.8484151879,
				"y": -1.329483538,
				"z": 0.3165179899,
				"element": "C" 
			},
			{
				"x": 2.0374308283,
				"y": -2.0542432669,
				"z": 0.4951461143,
				"element": "C" 
			},
			{
				"x": 2.1262573146,
				"y": -3.3881000783,
				"z": 0.1025945106,
				"element": "C" 
			},
			{
				"x": 1.0225438414,
				"y": -3.9906042539,
				"z": -0.4891582478,
				"element": "C" 
			},
			{
				"x": 1.1066066176,
				"y": -5.2784587543,
				"z": -0.8840908508,
				"element": "F" 
			},
			{
				"x": -0.1680195744,
				"y": -3.2981969717,
				"z": -0.6793969046,
				"element": "C" 
			},
			{
				"x": -0.2582219555,
				"y": -1.9711499546,
				"z": -0.2645557282,
				"element": "C" 
			},
			{
				"x": -0.248177409,
				"y": 1.0994275497,
				"z": -1.1703090823,
				"element": "C" 
			},
			{
				"x": -0.7532428126,
				"y": 2.260166228,
				"z": -1.7457750188,
				"element": "C" 
			},
			{
				"x": -0.7958630136,
				"y": 3.4262552076,
				"z": -0.9863616862,
				"element": "C" 
			},
			{
				"x": -0.3639854137,
				"y": 3.4508856066,
				"z": 0.342904582,
				"element": "C" 
			},
			{
				"x": -1.3189597391,
				"y": 4.6512625648,
				"z": -1.5797435857,
				"element": "N" 
			},
			{
				"x": -1.3246002872,
				"y": 5.6714406809,
				"z": -0.884223197,
				"element": "O" 
			},
			{
				"x": -1.7266907144,
				"y": 4.6013625515,
				"z": -2.7428890201,
				"element": "O" 
			},
			{
				"x": 0.5508470036,
				"y": 3.1462951561,
				"z": 2.720250555,
				"element": "H" 
			},
			{
				"x": 0.2007037074,
				"y": 1.5265545552,
				"z": 2.8050193214,
				"element": "H" 
			},
			{
				"x": 1.4640418284,
				"y": 0.2516332015,
				"z": 1.4861003781,
				"element": "H" 
			},
			{
				"x": 2.9007914053,
				"y": -1.5666204578,
				"z": 0.9398300722,
				"element": "H" 
			},
			{
				"x": 3.0403425447,
				"y": -3.9557480404,
				"z": 0.2381335848,
				"element": "H" 
			},
			{
				"x": -1.0151255849,
				"y": -3.8035029216,
				"z": -1.1304161479,
				"element": "H" 
			},
			{
				"x": -1.1958947443,
				"y": -1.437693068,
				"z": -0.3735394562,
				"element": "H" 
			},
			{
				"x": -0.1732418988,
				"y": 0.1966710603,
				"z": -1.7641180133,
				"element": "H" 
			},
			{
				"x": -1.0933740107,
				"y": 2.2794388158,
				"z": -2.7730771117,
				"element": "H" 
			},
			{
				"x": -0.4366057926,
				"y": 4.3756167744,
				"z": 0.9033471913,
				"element": "H" 
			}
		],
		 "valence_orbital": [ 
			{
				"type": "occ",
				"energy": -0.27605,
				"method": "rhf"
			},
			{
				"type": "occ",
				"energy": -0.27418,
				"method": "rhf"
			},
			{
				"type": "occ",
				"energy": -0.26785,
				"method": "rhf"
			},
			{
				"type": "occ",
				"energy": -0.24508,
				"method": "rhf"
			},
			{
				"type": "occ",
				"energy": -0.20693,
				"method": "rhf"
			},
			{
				"type": "unocc",
				"energy": -0.07518,
				"method": "rhf"
			},
			{
				"type": "unocc",
				"energy": -0.02566,
				"method": "rhf"
			},
			{
				"type": "unocc",
				"energy": -0.01639,
				"method": "rhf"
			},
			{
				"type": "unocc",
				"energy": -0.00576,
				"method": "rhf"
			},
			{
				"type": "unocc",
				"energy": 0.02666,
				"method": "rhf"
			}
		],
		"cosmo_sigma_profile": { 
			"-0.025": 0.0,
			"-0.024": 0.0,
			"-0.023": 0.0,
			"-0.022": 0.0,
			"-0.021": 0.0,
			"-0.02": 0.0,
			"-0.019": 0.0,
			"-0.018": 0.0,
			"-0.017": 0.0,
			"-0.016": 0.0,
			"-0.015": 0.0,
			"-0.014": 0.0,
			"-0.013": 1.19444858918,
			"-0.012": 4.18842806841,
			"-0.011": 4.37333252635,
			"-0.01": 4.10513257698,
			"-0.009": 5.29756122163,
			"-0.008": 4.71009325087,
			"-0.007": 9.42655224359,
			"-0.006": 12.0397212226,
			"-0.005": 15.2425023316,
			"-0.004": 13.779473909,
			"-0.003": 12.0842689553,
			"-0.002": 12.5650035914,
			"-0.001": 14.4411509627,
			"0.0": 17.1115428783,
			"0.001": 23.3199732608,
			"0.002": 25.1280625372,
			"0.003": 26.343017495,
			"0.004": 21.6849300107,
			"0.005": 8.25576782903,
			"0.006": 3.73126458064,
			"0.007": 4.2837210055,
			"0.008": 8.39583337576,
			"0.009": 8.81418067929,
			"0.01": 4.69561688657,
			"0.011": 4.10235931391,
			"0.012": 0.713347906358,
			"0.013": 0.117795300378,
			"0.014": 0.0,
			"0.015": 0.0,
			"0.016": 0.0,
			"0.017": 0.0,
			"0.018": 0.0,
			"0.019": 0.0,
			"0.02": 0.0,
			"0.021": 0.0,
			"0.022": 0.0,
			"0.023": 0.0,
			"0.024": 0.0,
			"0.025": 0.0
		}
	}
}
