{
	 "smiles": "CC1=CC2=C(C=C1C)N=NN2", 
	 "Tm": 427.15, 
	 "num_atms": 20, 
	 "gaussian": { 
		 "optdone": 1, 
		 "sigma_profile": "yes", 
		 "theory": "DFT", 
		 "functional": "B3LYP", 
		 "basiset": "6-31G**", 
		 "properties": { 
			 "R2extent": 1968.4687, 
			 "electric_dipole_moment_norm": 4.50564789792, 
			 "electric_quadrupole_moment_norm": 15.4864284785, 
			 "total_energy": -474.506535526, 
			 "HOMO_LUMO_gap": 0.1958, 
			 "cosmo_polarized_energy": -13.26, 
			 "cosmo_cavitation_energy": 23.43, 
			 "cosmo_dispersion_energy": -17.62, 
			 "cosmo_repulsion_energy": 1.4, 
			 "cosmo_total_nonelectrostatic_energy": 7.21, 
			 "SMD_solvation_energy": 2.37 
		},
		"coords": [
			{
				"x": -1.4800326494,
				"y": -0.9180303777,
				"z": -1.3963657849,
				"element": "C" 
			},
			{
				"x": -0.6237934502,
				"y": -0.1482069063,
				"z": -0.4190157752,
				"element": "C" 
			},
			{
				"x": 0.0474485901,
				"y": -0.8353789461,
				"z": 0.5865997212,
				"element": "C" 
			},
			{
				"x": 0.8327925638,
				"y": -0.0894872365,
				"z": 1.475688949,
				"element": "C" 
			},
			{
				"x": 0.9499630763,
				"y": 1.3074382767,
				"z": 1.3698137802,
				"element": "C" 
			},
			{
				"x": 0.2708144448,
				"y": 1.9971152472,
				"z": 0.3533931026,
				"element": "C" 
			},
			{
				"x": -0.5128743981,
				"y": 1.2782393518,
				"z": -0.5384825368,
				"element": "C" 
			},
			{
				"x": -1.2526587427,
				"y": 2.0009401995,
				"z": -1.6402670188,
				"element": "C" 
			},
			{
				"x": 1.7820951488,
				"y": 1.7625732458,
				"z": 2.3740421535,
				"element": "N" 
			},
			{
				"x": 2.1742749814,
				"y": 0.7505846444,
				"z": 3.0749049131,
				"element": "N" 
			},
			{
				"x": 1.6160457946,
				"y": -0.3829944435,
				"z": 2.5548657986,
				"element": "N" 
			},
			{
				"x": -2.5247485974,
				"y": -0.5861577792,
				"z": -1.366877553,
				"element": "H" 
			},
			{
				"x": -1.4639327193,
				"y": -1.9887553275,
				"z": -1.1776273482,
				"element": "H" 
			},
			{
				"x": -1.1364191805,
				"y": -0.7821910726,
				"z": -2.4287935588,
				"element": "H" 
			},
			{
				"x": -0.0414485662,
				"y": -1.9144138811,
				"z": 0.6704294815,
				"element": "H" 
			},
			{
				"x": 0.3629606358,
				"y": 3.0758355296,
				"z": 0.2738415541,
				"element": "H" 
			},
			{
				"x": -2.3366478256,
				"y": 1.8486673062,
				"z": -1.5718703439,
				"element": "H" 
			},
			{
				"x": -1.0652597534,
				"y": 3.0765735384,
				"z": -1.5945586099,
				"element": "H" 
			},
			{
				"x": -0.9471344157,
				"y": 1.6517316869,
				"z": -2.6340493995,
				"element": "H" 
			},
			{
				"x": 1.8207550628,
				"y": -1.270583056,
				"z": 2.9873284751,
				"element": "H" 
			}
		],
		 "valence_orbital": [ 
			{
				"type": "occ",
				"energy": -0.32812,
				"method": "rhf"
			},
			{
				"type": "occ",
				"energy": -0.317,
				"method": "rhf"
			},
			{
				"type": "occ",
				"energy": -0.26326,
				"method": "rhf"
			},
			{
				"type": "occ",
				"energy": -0.2397,
				"method": "rhf"
			},
			{
				"type": "occ",
				"energy": -0.23258,
				"method": "rhf"
			},
			{
				"type": "unocc",
				"energy": -0.03678,
				"method": "rhf"
			},
			{
				"type": "unocc",
				"energy": 0.01211,
				"method": "rhf"
			},
			{
				"type": "unocc",
				"energy": 0.03951,
				"method": "rhf"
			},
			{
				"type": "unocc",
				"energy": 0.078,
				"method": "rhf"
			},
			{
				"type": "unocc",
				"energy": 0.08769,
				"method": "rhf"
			}
		],
		"cosmo_sigma_profile": { 
			"-0.025": 0.0,
			"-0.024": 0.0,
			"-0.023": 0.0,
			"-0.022": 0.0,
			"-0.021": 0.0,
			"-0.02": 0.0,
			"-0.019": 0.0,
			"-0.018": 0.208663044928,
			"-0.017": 1.77064559528,
			"-0.016": 1.53144766009,
			"-0.015": 1.46449548431,
			"-0.014": 0.885513954612,
			"-0.013": 0.933980361228,
			"-0.012": 0.95165837809,
			"-0.011": 1.20628048526,
			"-0.01": 0.649687973223,
			"-0.009": 1.09489004313,
			"-0.008": 1.16401770979,
			"-0.007": 2.62958166619,
			"-0.006": 4.80140063993,
			"-0.005": 8.39098352563,
			"-0.004": 16.5110704961,
			"-0.003": 13.7213386672,
			"-0.002": 15.3739071919,
			"-0.001": 15.8165250528,
			"0.0": 19.8967313802,
			"0.001": 14.5132685918,
			"0.002": 10.6188979253,
			"0.003": 11.6134955207,
			"0.004": 12.2395703281,
			"0.005": 3.25607334244,
			"0.006": 2.48124969034,
			"0.007": 2.11221019061,
			"0.008": 2.48044151809,
			"0.009": 2.12004254549,
			"0.01": 3.24337781084,
			"0.011": 3.64802160146,
			"0.012": 2.92889491797,
			"0.013": 2.82922181992,
			"0.014": 1.40379716322,
			"0.015": 1.18047101489,
			"0.016": 0.573195123032,
			"0.017": 0.0,
			"0.018": 0.0,
			"0.019": 0.0,
			"0.02": 0.0,
			"0.021": 0.0,
			"0.022": 0.0,
			"0.023": 0.0,
			"0.024": 0.0,
			"0.025": 0.0
		}
	}
}
