{
	 "smiles": "O=C1NC2=C(C=CC=C2)N=C1", 
	 "Tm": 545.15, 
	 "num_atms": 17, 
	 "gaussian": { 
		 "optdone": 1, 
		 "sigma_profile": "yes", 
		 "theory": "DFT", 
		 "functional": "B3LYP", 
		 "basiset": "6-31G**", 
		 "properties": { 
			 "R2extent": 2168.5171, 
			 "electric_dipole_moment_norm": 3.95069223681, 
			 "electric_quadrupole_moment_norm": 10.658235407, 
			 "total_energy": -493.204809324, 
			 "HOMO_LUMO_gap": 0.16012, 
			 "cosmo_polarized_energy": -12.66, 
			 "cosmo_cavitation_energy": 21.5, 
			 "cosmo_dispersion_energy": -16.36, 
			 "cosmo_repulsion_energy": 1.29, 
			 "cosmo_total_nonelectrostatic_energy": 6.43, 
			 "SMD_solvation_energy": 2.94 
		},
		"coords": [
			{
				"x": -3.9613450908,
				"y": 0.1063066504,
				"z": 2.3875541746,
				"element": "O" 
			},
			{
				"x": -2.7721617856,
				"y": 0.2182752061,
				"z": 2.1215981348,
				"element": "C" 
			},
			{
				"x": -2.2864647916,
				"y": 0.1317883779,
				"z": 0.8227165173,
				"element": "N" 
			},
			{
				"x": -0.9514334522,
				"y": 0.2522122083,
				"z": 0.4819038099,
				"element": "C" 
			},
			{
				"x": -0.0290513875,
				"y": 0.4779196472,
				"z": 1.5330104563,
				"element": "C" 
			},
			{
				"x": 1.3371368215,
				"y": 0.6061030267,
				"z": 1.2281227599,
				"element": "C" 
			},
			{
				"x": 1.7783770843,
				"y": 0.5131829989,
				"z": -0.0835268876,
				"element": "C" 
			},
			{
				"x": 0.8529410841,
				"y": 0.2891225493,
				"z": -1.1162537467,
				"element": "C" 
			},
			{
				"x": -0.502996278,
				"y": 0.1585420509,
				"z": -0.8438656258,
				"element": "C" 
			},
			{
				"x": -0.4446383266,
				"y": 0.5749262356,
				"z": 2.8549478202,
				"element": "N" 
			},
			{
				"x": -1.7035973271,
				"y": 0.4549100188,
				"z": 3.1191093204,
				"element": "C" 
			},
			{
				"x": -2.9821211902,
				"y": -0.030373424,
				"z": 0.1038156494,
				"element": "H" 
			},
			{
				"x": 2.0210769209,
				"y": 0.778451328,
				"z": 2.0526546652,
				"element": "H" 
			},
			{
				"x": 2.8341131142,
				"y": 0.6128711811,
				"z": -0.3134989391,
				"element": "H" 
			},
			{
				"x": 1.1970742843,
				"y": 0.2161657147,
				"z": -2.1435926043,
				"element": "H" 
			},
			{
				"x": -1.2171691483,
				"y": -0.0147791763,
				"z": -1.6444546188,
				"element": "H" 
			},
			{
				"x": -2.0379405316,
				"y": 0.5297754063,
				"z": 4.1526591141,
				"element": "H" 
			}
		],
		 "valence_orbital": [ 
			{
				"type": "occ",
				"energy": -0.32227,
				"method": "rhf"
			},
			{
				"type": "occ",
				"energy": -0.30023,
				"method": "rhf"
			},
			{
				"type": "occ",
				"energy": -0.25998,
				"method": "rhf"
			},
			{
				"type": "occ",
				"energy": -0.25024,
				"method": "rhf"
			},
			{
				"type": "occ",
				"energy": -0.2323,
				"method": "rhf"
			},
			{
				"type": "unocc",
				"energy": -0.07218,
				"method": "rhf"
			},
			{
				"type": "unocc",
				"energy": -0.01592,
				"method": "rhf"
			},
			{
				"type": "unocc",
				"energy": -0.00282,
				"method": "rhf"
			},
			{
				"type": "unocc",
				"energy": 0.07288,
				"method": "rhf"
			},
			{
				"type": "unocc",
				"energy": 0.08474,
				"method": "rhf"
			}
		],
		"cosmo_sigma_profile": { 
			"-0.025": 0.0,
			"-0.024": 0.0,
			"-0.023": 0.0,
			"-0.022": 0.0,
			"-0.021": 0.0,
			"-0.02": 0.0,
			"-0.019": 0.0,
			"-0.018": 0.0,
			"-0.017": 0.000196324556204,
			"-0.016": 0.986798052669,
			"-0.015": 1.62672820521,
			"-0.014": 1.32720662515,
			"-0.013": 1.27797426534,
			"-0.012": 1.10364507869,
			"-0.011": 0.845157823028,
			"-0.01": 1.04875278085,
			"-0.009": 1.60209625437,
			"-0.008": 2.30118896778,
			"-0.007": 5.75686306771,
			"-0.006": 10.7801711412,
			"-0.005": 10.9876477614,
			"-0.004": 12.2366659184,
			"-0.003": 10.515994642,
			"-0.002": 12.013491987,
			"-0.001": 13.1132531878,
			"0.0": 9.47264033637,
			"0.001": 10.9534434884,
			"0.002": 13.381565423,
			"0.003": 12.4212529074,
			"0.004": 9.72476419611,
			"0.005": 2.21997479405,
			"0.006": 2.98786732381,
			"0.007": 2.98673559885,
			"0.008": 1.39531820461,
			"0.009": 1.81151563268,
			"0.01": 2.06949330463,
			"0.011": 3.16274910805,
			"0.012": 3.17783102449,
			"0.013": 6.83613652408,
			"0.014": 2.92862685377,
			"0.015": 0.143086719574,
			"0.016": 0.0,
			"0.017": 0.0,
			"0.018": 0.0,
			"0.019": 0.0,
			"0.02": 0.0,
			"0.021": 0.0,
			"0.022": 0.0,
			"0.023": 0.0,
			"0.024": 0.0,
			"0.025": 0.0
		}
	}
}
