{
	 "smiles": "OCC1CCCNC1", 
	 "Tm": 333.65, 
	 "num_atms": 21, 
	 "gaussian": { 
		 "optdone": 1, 
		 "sigma_profile": "yes", 
		 "theory": "DFT", 
		 "functional": "B3LYP", 
		 "basiset": "6-31G**", 
		 "properties": { 
			 "R2extent": 1181.4521, 
			 "electric_dipole_moment_norm": 3.24191151175, 
			 "electric_quadrupole_moment_norm": 6.82746360298, 
			 "total_energy": -366.436451586, 
			 "HOMO_LUMO_gap": 0.29426, 
			 "cosmo_polarized_energy": -7.08, 
			 "cosmo_cavitation_energy": 20.77, 
			 "cosmo_dispersion_energy": -16.21, 
			 "cosmo_repulsion_energy": 1.35, 
			 "cosmo_total_nonelectrostatic_energy": 5.9, 
			 "SMD_solvation_energy": 2.32 
		},
		"coords": [
			{
				"x": -0.3986649369,
				"y": 1.9555847068,
				"z": -0.9683588801,
				"element": "O" 
			},
			{
				"x": 0.9290561483,
				"y": 1.6397159263,
				"z": -0.5877950177,
				"element": "C" 
			},
			{
				"x": 0.9956550543,
				"y": 0.7405590733,
				"z": 0.6604457194,
				"element": "C" 
			},
			{
				"x": 0.2833878229,
				"y": 1.4232852235,
				"z": 1.8651365226,
				"element": "C" 
			},
			{
				"x": -0.5513222361,
				"y": 0.4247587451,
				"z": 2.6777604593,
				"element": "C" 
			},
			{
				"x": -1.6177177174,
				"y": -0.2579855906,
				"z": 1.7987131593,
				"element": "C" 
			},
			{
				"x": -1.1135232251,
				"y": -0.4634381796,
				"z": 0.4205776117,
				"element": "N" 
			},
			{
				"x": 0.347830218,
				"y": -0.6301471787,
				"z": 0.3683082468,
				"element": "C" 
			},
			{
				"x": -0.944426152,
				"y": 1.1842173443,
				"z": -0.715534092,
				"element": "H" 
			},
			{
				"x": 1.4719167377,
				"y": 1.1430208424,
				"z": -1.412384154,
				"element": "H" 
			},
			{
				"x": 1.4472549626,
				"y": 2.5882374324,
				"z": -0.3911491406,
				"element": "H" 
			},
			{
				"x": 2.054614186,
				"y": 0.5696479618,
				"z": 0.8957569402,
				"element": "H" 
			},
			{
				"x": 1.0166986868,
				"y": 1.9177949447,
				"z": 2.5110241452,
				"element": "H" 
			},
			{
				"x": -0.3794688632,
				"y": 2.2032914571,
				"z": 1.4751179506,
				"element": "H" 
			},
			{
				"x": -1.0460115093,
				"y": 0.92374338,
				"z": 3.5180678724,
				"element": "H" 
			},
			{
				"x": 0.1081667782,
				"y": -0.3336192231,
				"z": 3.1174894532,
				"element": "H" 
			},
			{
				"x": -1.9203397968,
				"y": -1.2075644317,
				"z": 2.2678444008,
				"element": "H" 
			},
			{
				"x": -2.5139335569,
				"y": 0.3721454884,
				"z": 1.7416325098,
				"element": "H" 
			},
			{
				"x": -1.5805457889,
				"y": -1.2580472515,
				"z": -0.0050813883,
				"element": "H" 
			},
			{
				"x": 0.717935873,
				"y": -1.3976359719,
				"z": 1.0696299944,
				"element": "H" 
			},
			{
				"x": 0.6206373149,
				"y": -0.9668646993,
				"z": -0.6385023131,
				"element": "H" 
			}
		],
		 "valence_orbital": [ 
			{
				"type": "occ",
				"energy": -0.31677,
				"method": "rhf"
			},
			{
				"type": "occ",
				"energy": -0.31374,
				"method": "rhf"
			},
			{
				"type": "occ",
				"energy": -0.301,
				"method": "rhf"
			},
			{
				"type": "occ",
				"energy": -0.23984,
				"method": "rhf"
			},
			{
				"type": "occ",
				"energy": -0.2268,
				"method": "rhf"
			},
			{
				"type": "unocc",
				"energy": 0.06746,
				"method": "rhf"
			},
			{
				"type": "unocc",
				"energy": 0.10994,
				"method": "rhf"
			},
			{
				"type": "unocc",
				"energy": 0.11799,
				"method": "rhf"
			},
			{
				"type": "unocc",
				"energy": 0.12139,
				"method": "rhf"
			},
			{
				"type": "unocc",
				"energy": 0.13757,
				"method": "rhf"
			}
		],
		"cosmo_sigma_profile": { 
			"-0.025": 0.0,
			"-0.024": 0.0,
			"-0.023": 0.0,
			"-0.022": 0.0,
			"-0.021": 0.0,
			"-0.02": 0.0,
			"-0.019": 0.0,
			"-0.018": 0.0,
			"-0.017": 0.0,
			"-0.016": 0.0,
			"-0.015": 0.0,
			"-0.014": 0.0,
			"-0.013": 0.0,
			"-0.012": 0.0,
			"-0.011": 0.443863829495,
			"-0.01": 1.34847430581,
			"-0.009": 1.68315501616,
			"-0.008": 0.746503509618,
			"-0.007": 1.26644721665,
			"-0.006": 1.57575583427,
			"-0.005": 1.55661345057,
			"-0.004": 3.74013375428,
			"-0.003": 17.2024113216,
			"-0.002": 33.834571319,
			"-0.001": 33.0712231956,
			"0.0": 22.6427975122,
			"0.001": 10.842437562,
			"0.002": 4.41577131114,
			"0.003": 4.47007230593,
			"0.004": 2.60901966192,
			"0.005": 2.47075157902,
			"0.006": 1.23556327696,
			"0.007": 1.20000358264,
			"0.008": 0.936158386351,
			"0.009": 1.1835433252,
			"0.01": 1.58312449339,
			"0.011": 1.15139273082,
			"0.012": 1.48004407938,
			"0.013": 0.496076482378,
			"0.014": 2.03426862289,
			"0.015": 1.7808269608,
			"0.016": 2.10333803721,
			"0.017": 0.101003127655,
			"0.018": 0.0,
			"0.019": 0.0,
			"0.02": 0.0,
			"0.021": 0.0,
			"0.022": 0.0,
			"0.023": 0.0,
			"0.024": 0.0,
			"0.025": 0.0
		}
	}
}
