{
	 "smiles": "NC1=CC(=NC(N)=N1)C1=CC=C(Cl)C=C1", 
	 "Tm": 433.15, 
	 "num_atms": 24, 
	 "gaussian": { 
		 "optdone": 1, 
		 "sigma_profile": "yes", 
		 "theory": "DFT", 
		 "functional": "B3LYP", 
		 "basiset": "6-31G**", 
		 "properties": { 
			 "R2extent": 5920.8018, 
			 "electric_dipole_moment_norm": 3.32190274391, 
			 "electric_quadrupole_moment_norm": 14.589331848, 
			 "total_energy": -1065.7255979, 
			 "HOMO_LUMO_gap": 0.16987, 
			 "cosmo_polarized_energy": -14.76, 
			 "cosmo_cavitation_energy": 30.52, 
			 "cosmo_dispersion_energy": -23.0, 
			 "cosmo_repulsion_energy": 1.81, 
			 "cosmo_total_nonelectrostatic_energy": 9.34, 
			 "SMD_solvation_energy": 2.31 
		},
		"coords": [
			{
				"x": 0.9633986049,
				"y": 0.4120202925,
				"z": 3.1050505538,
				"element": "N" 
			},
			{
				"x": 0.4931683603,
				"y": -0.3683897587,
				"z": 2.0803552923,
				"element": "C" 
			},
			{
				"x": 0.762592985,
				"y": -0.0540721755,
				"z": 0.7327182202,
				"element": "C" 
			},
			{
				"x": 0.2832282277,
				"y": -0.9421836816,
				"z": -0.2274030285,
				"element": "C" 
			},
			{
				"x": -0.4249182215,
				"y": -2.0377035904,
				"z": 0.1100508376,
				"element": "N" 
			},
			{
				"x": -0.6326616852,
				"y": -2.2284034321,
				"z": 1.4217677559,
				"element": "C" 
			},
			{
				"x": -1.3895123295,
				"y": -3.315289623,
				"z": 1.7685688474,
				"element": "N" 
			},
			{
				"x": -0.2030561656,
				"y": -1.4553196067,
				"z": 2.4343625875,
				"element": "N" 
			},
			{
				"x": 0.5073243894,
				"y": -0.7299812956,
				"z": -1.6830690366,
				"element": "C" 
			},
			{
				"x": -0.2992894827,
				"y": -1.4050795833,
				"z": -2.6128216207,
				"element": "C" 
			},
			{
				"x": -0.1278146655,
				"y": -1.2231998582,
				"z": -3.9822133751,
				"element": "C" 
			},
			{
				"x": 0.8710792596,
				"y": -0.3606601259,
				"z": -4.4336374258,
				"element": "C" 
			},
			{
				"x": 1.0981341449,
				"y": -0.1247704565,
				"z": -6.1611374478,
				"element": "Cl" 
			},
			{
				"x": 1.6976734964,
				"y": 0.3132225514,
				"z": -3.5354241597,
				"element": "C" 
			},
			{
				"x": 1.5102200308,
				"y": 0.1236117671,
				"z": -2.1680121726,
				"element": "C" 
			},
			{
				"x": 1.228302566,
				"y": 1.3632922239,
				"z": 2.9045757606,
				"element": "H" 
			},
			{
				"x": 0.5476096341,
				"y": 0.2402194016,
				"z": 4.0085187755,
				"element": "H" 
			},
			{
				"x": 1.30511514,
				"y": 0.8459013725,
				"z": 0.4718930327,
				"element": "H" 
			},
			{
				"x": -1.3462496537,
				"y": -3.609162951,
				"z": 2.7313212619,
				"element": "H" 
			},
			{
				"x": -1.5099172689,
				"y": -4.0224098998,
				"z": 1.0610197261,
				"element": "H" 
			},
			{
				"x": -1.0636992288,
				"y": -2.0761354621,
				"z": -2.2386422464,
				"element": "H" 
			},
			{
				"x": -0.7599940603,
				"y": -1.7423322267,
				"z": -4.6942278229,
				"element": "H" 
			},
			{
				"x": 2.4798305987,
				"y": 0.9686466663,
				"z": -3.9020589382,
				"element": "H" 
			},
			{
				"x": 2.1751353238,
				"y": 0.6326794517,
				"z": -1.478055377,
				"element": "H" 
			}
		],
		 "valence_orbital": [ 
			{
				"type": "occ",
				"energy": -0.26087,
				"method": "rhf"
			},
			{
				"type": "occ",
				"energy": -0.25177,
				"method": "rhf"
			},
			{
				"type": "occ",
				"energy": -0.24424,
				"method": "rhf"
			},
			{
				"type": "occ",
				"energy": -0.23606,
				"method": "rhf"
			},
			{
				"type": "occ",
				"energy": -0.21365,
				"method": "rhf"
			},
			{
				"type": "unocc",
				"energy": -0.04378,
				"method": "rhf"
			},
			{
				"type": "unocc",
				"energy": -0.01089,
				"method": "rhf"
			},
			{
				"type": "unocc",
				"energy": 0.01679,
				"method": "rhf"
			},
			{
				"type": "unocc",
				"energy": 0.03258,
				"method": "rhf"
			},
			{
				"type": "unocc",
				"energy": 0.03366,
				"method": "rhf"
			}
		],
		"cosmo_sigma_profile": { 
			"-0.025": 0.0,
			"-0.024": 0.0,
			"-0.023": 0.0,
			"-0.022": 0.0,
			"-0.021": 0.0,
			"-0.02": 0.0,
			"-0.019": 0.0,
			"-0.018": 0.0,
			"-0.017": 0.0,
			"-0.016": 0.0,
			"-0.015": 0.0,
			"-0.014": 0.86143437639,
			"-0.013": 3.4098115057,
			"-0.012": 4.54854149732,
			"-0.011": 4.19964018028,
			"-0.01": 4.61908823922,
			"-0.009": 5.16881265362,
			"-0.008": 6.15343498704,
			"-0.007": 8.60303359087,
			"-0.006": 9.76342945126,
			"-0.005": 9.83929692522,
			"-0.004": 9.21560228086,
			"-0.003": 8.17888146524,
			"-0.002": 10.1586850029,
			"-0.001": 10.6436158928,
			"0.0": 12.29055115,
			"0.001": 20.3194939252,
			"0.002": 26.2297727528,
			"0.003": 29.8852109169,
			"0.004": 21.411191073,
			"0.005": 11.7521252817,
			"0.006": 5.32866738503,
			"0.007": 5.29088602995,
			"0.008": 5.38165465549,
			"0.009": 4.65519841174,
			"0.01": 2.69357827911,
			"0.011": 2.61110704811,
			"0.012": 1.81550887178,
			"0.013": 0.912529071003,
			"0.014": 0.43563939645,
			"0.015": 0.0,
			"0.016": 0.0,
			"0.017": 0.0,
			"0.018": 0.0,
			"0.019": 0.0,
			"0.02": 0.0,
			"0.021": 0.0,
			"0.022": 0.0,
			"0.023": 0.0,
			"0.024": 0.0,
			"0.025": 0.0
		}
	}
}
