{
	 "smiles": "ClCCCN1C(=O)CNC1=O", 
	 "Tm": 364.15, 
	 "num_atms": 20, 
	 "gaussian": { 
		 "optdone": 1, 
		 "sigma_profile": "yes", 
		 "theory": "DFT", 
		 "functional": "B3LYP", 
		 "basiset": "6-31G**", 
		 "properties": { 
			 "R2extent": 2625.849, 
			 "electric_dipole_moment_norm": 3.93737040422, 
			 "electric_quadrupole_moment_norm": 20.6238041319, 
			 "total_energy": -954.253010746, 
			 "HOMO_LUMO_gap": 0.25412, 
			 "cosmo_polarized_energy": -16.37, 
			 "cosmo_cavitation_energy": 25.55, 
			 "cosmo_dispersion_energy": -18.59, 
			 "cosmo_repulsion_energy": 1.54, 
			 "cosmo_total_nonelectrostatic_energy": 8.5, 
			 "SMD_solvation_energy": 4.36 
		},
		"coords": [
			{
				"x": -0.2621676403,
				"y": 2.4390529966,
				"z": 2.287266822,
				"element": "Cl" 
			},
			{
				"x": -0.6362374174,
				"y": 1.0727191991,
				"z": 1.1462013768,
				"element": "C" 
			},
			{
				"x": 0.3197547807,
				"y": 1.0770558864,
				"z": -0.0409140117,
				"element": "C" 
			},
			{
				"x": 0.026216896,
				"y": -0.041506649,
				"z": -1.053146151,
				"element": "C" 
			},
			{
				"x": 0.280183926,
				"y": -1.3838487613,
				"z": -0.5418435717,
				"element": "N" 
			},
			{
				"x": -0.6695928791,
				"y": -2.2070924366,
				"z": 0.0272171108,
				"element": "C" 
			},
			{
				"x": -1.8353154736,
				"y": -1.9344216229,
				"z": 0.2352765654,
				"element": "O" 
			},
			{
				"x": 0.0442314761,
				"y": -3.5274835473,
				"z": 0.3406924194,
				"element": "C" 
			},
			{
				"x": 1.4069220061,
				"y": -3.2464425921,
				"z": -0.0641211539,
				"element": "N" 
			},
			{
				"x": 1.5452825478,
				"y": -2.0136789002,
				"z": -0.6496503412,
				"element": "C" 
			},
			{
				"x": 2.5311360138,
				"y": -1.524663461,
				"z": -1.1625220284,
				"element": "O" 
			},
			{
				"x": -1.67359645,
				"y": 1.2036614444,
				"z": 0.8350530695,
				"element": "H" 
			},
			{
				"x": -0.5650645265,
				"y": 0.1579939258,
				"z": 1.7342759601,
				"element": "H" 
			},
			{
				"x": 0.2400842284,
				"y": 2.0361399321,
				"z": -0.56451612,
				"element": "H" 
			},
			{
				"x": 1.3538444504,
				"y": 0.9877791591,
				"z": 0.3067858588,
				"element": "H" 
			},
			{
				"x": -1.0192826409,
				"y": -0.0160727943,
				"z": -1.3737252099,
				"element": "H" 
			},
			{
				"x": 0.668807892,
				"y": 0.0884226687,
				"z": -1.9272054833,
				"element": "H" 
			},
			{
				"x": -0.0515248762,
				"y": -3.7585529929,
				"z": 1.4076447221,
				"element": "H" 
			},
			{
				"x": -0.4218144208,
				"y": -4.3398348541,
				"z": -0.2307516577,
				"element": "H" 
			},
			{
				"x": 2.1421321073,
				"y": -3.9301266006,
				"z": -0.1462181762,
				"element": "H" 
			}
		],
		 "valence_orbital": [ 
			{
				"type": "occ",
				"energy": -0.29518,
				"method": "rhf"
			},
			{
				"type": "occ",
				"energy": -0.29174,
				"method": "rhf"
			},
			{
				"type": "occ",
				"energy": -0.28509,
				"method": "rhf"
			},
			{
				"type": "occ",
				"energy": -0.27542,
				"method": "rhf"
			},
			{
				"type": "occ",
				"energy": -0.27245,
				"method": "rhf"
			},
			{
				"type": "unocc",
				"energy": -0.01833,
				"method": "rhf"
			},
			{
				"type": "unocc",
				"energy": 0.02518,
				"method": "rhf"
			},
			{
				"type": "unocc",
				"energy": 0.04968,
				"method": "rhf"
			},
			{
				"type": "unocc",
				"energy": 0.07108,
				"method": "rhf"
			},
			{
				"type": "unocc",
				"energy": 0.09616,
				"method": "rhf"
			}
		],
		"cosmo_sigma_profile": { 
			"-0.025": 0.0,
			"-0.024": 0.0,
			"-0.023": 0.0,
			"-0.022": 0.0,
			"-0.021": 0.0,
			"-0.02": 0.0,
			"-0.019": 0.0,
			"-0.018": 0.0,
			"-0.017": 0.0,
			"-0.016": 0.296427867013,
			"-0.015": 1.39299771497,
			"-0.014": 1.16851440213,
			"-0.013": 1.53499654791,
			"-0.012": 0.991651267896,
			"-0.011": 0.599079889947,
			"-0.01": 0.873077219327,
			"-0.009": 1.51791351436,
			"-0.008": 5.4559386483,
			"-0.007": 11.2309726933,
			"-0.006": 16.0169551271,
			"-0.005": 19.4823294629,
			"-0.004": 15.968695621,
			"-0.003": 13.9825337703,
			"-0.002": 11.0543748934,
			"-0.001": 8.31954784745,
			"0.0": 7.65272053828,
			"0.001": 8.23913627146,
			"0.002": 7.28600368683,
			"0.003": 7.26385402652,
			"0.004": 7.2063118893,
			"0.005": 8.73244543296,
			"0.006": 11.4087050745,
			"0.007": 8.97052135654,
			"0.008": 2.01419587342,
			"0.009": 2.25815594326,
			"0.01": 2.99493623529,
			"0.011": 4.62953956261,
			"0.012": 8.31727670537,
			"0.013": 6.16546123648,
			"0.014": 0.555896511763,
			"0.015": 0.0,
			"0.016": 0.0,
			"0.017": 0.0,
			"0.018": 0.0,
			"0.019": 0.0,
			"0.02": 0.0,
			"0.021": 0.0,
			"0.022": 0.0,
			"0.023": 0.0,
			"0.024": 0.0,
			"0.025": 0.0
		}
	}
}
