{
	 "smiles": "NCC(O)C1CCCCC1", 
	 "Tm": 359.15, 
	 "num_atms": 27, 
	 "gaussian": { 
		 "optdone": 1, 
		 "sigma_profile": "yes", 
		 "theory": "DFT", 
		 "functional": "B3LYP", 
		 "basiset": "6-31G**", 
		 "properties": { 
			 "R2extent": 2093.5631, 
			 "electric_dipole_moment_norm": 2.69742033988, 
			 "electric_quadrupole_moment_norm": 6.08138925247, 
			 "total_energy": -445.069866679, 
			 "HOMO_LUMO_gap": 0.29508, 
			 "cosmo_polarized_energy": -9.68, 
			 "cosmo_cavitation_energy": 26.44, 
			 "cosmo_dispersion_energy": -19.4, 
			 "cosmo_repulsion_energy": 1.59, 
			 "cosmo_total_nonelectrostatic_energy": 8.63, 
			 "SMD_solvation_energy": 2.13 
		},
		"coords": [
			{
				"x": 0.5242942642,
				"y": -1.8124429416,
				"z": -1.6076558206,
				"element": "N" 
			},
			{
				"x": 0.4821846235,
				"y": -1.8730750685,
				"z": -0.1479098335,
				"element": "C" 
			},
			{
				"x": -0.2186585249,
				"y": -0.7047543856,
				"z": 0.5695494313,
				"element": "C" 
			},
			{
				"x": -0.2401994786,
				"y": -1.0648656205,
				"z": 1.9515590473,
				"element": "O" 
			},
			{
				"x": 0.435020194,
				"y": 0.6735046767,
				"z": 0.3347285744,
				"element": "C" 
			},
			{
				"x": 1.9037591466,
				"y": 0.7291457894,
				"z": 0.8316656302,
				"element": "C" 
			},
			{
				"x": 2.3590575141,
				"y": 2.1592361125,
				"z": 1.2058980135,
				"element": "C" 
			},
			{
				"x": 1.67891187,
				"y": 3.2083647857,
				"z": 0.3173748311,
				"element": "C" 
			},
			{
				"x": 0.1453641597,
				"y": 3.2032361057,
				"z": 0.5309369442,
				"element": "C" 
			},
			{
				"x": -0.3793425407,
				"y": 1.8157427691,
				"z": 0.9684170371,
				"element": "C" 
			},
			{
				"x": 1.067027718,
				"y": -1.0119925592,
				"z": -1.9205239581,
				"element": "H" 
			},
			{
				"x": -0.412895223,
				"y": -1.6959922069,
				"z": -1.9864316907,
				"element": "H" 
			},
			{
				"x": 1.5075139403,
				"y": -1.9629314025,
				"z": 0.2265415388,
				"element": "H" 
			},
			{
				"x": -0.03352805,
				"y": -2.7925757215,
				"z": 0.150223645,
				"element": "H" 
			},
			{
				"x": -1.2533947939,
				"y": -0.6505355473,
				"z": 0.181721202,
				"element": "H" 
			},
			{
				"x": -0.7654228067,
				"y": -0.4085077611,
				"z": 2.4261582414,
				"element": "H" 
			},
			{
				"x": 0.4164480722,
				"y": 0.8373082264,
				"z": -0.7531836925,
				"element": "H" 
			},
			{
				"x": 2.0037133142,
				"y": 0.0714090616,
				"z": 1.7017914633,
				"element": "H" 
			},
			{
				"x": 2.5665487238,
				"y": 0.3283449839,
				"z": 0.0550297043,
				"element": "H" 
			},
			{
				"x": 2.1128747557,
				"y": 2.3679711862,
				"z": 2.255414908,
				"element": "H" 
			},
			{
				"x": 3.4496166464,
				"y": 2.2351954796,
				"z": 1.1311234268,
				"element": "H" 
			},
			{
				"x": 1.9103171962,
				"y": 2.9853913583,
				"z": -0.7325734954,
				"element": "H" 
			},
			{
				"x": 2.0841047982,
				"y": 4.207572794,
				"z": 0.5122588531,
				"element": "H" 
			},
			{
				"x": -0.1300849818,
				"y": 3.946438706,
				"z": 1.2885949901,
				"element": "H" 
			},
			{
				"x": -0.3545847247,
				"y": 3.5111243981,
				"z": -0.395182597,
				"element": "H" 
			},
			{
				"x": -1.4422030656,
				"y": 1.7196288561,
				"z": 0.7116890548,
				"element": "H" 
			},
			{
				"x": -0.3159427471,
				"y": 1.7328579254,
				"z": 2.0627845511,
				"element": "H" 
			}
		],
		 "valence_orbital": [ 
			{
				"type": "occ",
				"energy": -0.30596,
				"method": "rhf"
			},
			{
				"type": "occ",
				"energy": -0.29893,
				"method": "rhf"
			},
			{
				"type": "occ",
				"energy": -0.29577,
				"method": "rhf"
			},
			{
				"type": "occ",
				"energy": -0.26337,
				"method": "rhf"
			},
			{
				"type": "occ",
				"energy": -0.22953,
				"method": "rhf"
			},
			{
				"type": "unocc",
				"energy": 0.06555,
				"method": "rhf"
			},
			{
				"type": "unocc",
				"energy": 0.06675,
				"method": "rhf"
			},
			{
				"type": "unocc",
				"energy": 0.09564,
				"method": "rhf"
			},
			{
				"type": "unocc",
				"energy": 0.11205,
				"method": "rhf"
			},
			{
				"type": "unocc",
				"energy": 0.11381,
				"method": "rhf"
			}
		],
		"cosmo_sigma_profile": { 
			"-0.025": 0.0,
			"-0.024": 0.0,
			"-0.023": 0.0,
			"-0.022": 0.0,
			"-0.021": 0.0,
			"-0.02": 0.0,
			"-0.019": 0.0,
			"-0.018": 0.0,
			"-0.017": 0.0,
			"-0.016": 0.0,
			"-0.015": 0.0,
			"-0.014": 0.292811336304,
			"-0.013": 1.03656817322,
			"-0.012": 0.65190046865,
			"-0.011": 0.906339654783,
			"-0.01": 1.40547048821,
			"-0.009": 2.90510660756,
			"-0.008": 3.54173024147,
			"-0.007": 3.47514868104,
			"-0.006": 5.33449830984,
			"-0.005": 6.19840548478,
			"-0.004": 5.08339862705,
			"-0.003": 10.7432257936,
			"-0.002": 28.5370649514,
			"-0.001": 31.7724970845,
			"0.0": 33.0951863393,
			"0.001": 24.2074865719,
			"0.002": 12.0447355389,
			"0.003": 2.81086611966,
			"0.004": 2.84640213278,
			"0.005": 1.83557445797,
			"0.006": 2.66025952887,
			"0.007": 1.48102657237,
			"0.008": 2.34127191346,
			"0.009": 2.53923143455,
			"0.01": 1.95626447377,
			"0.011": 1.49365079541,
			"0.012": 1.65982592876,
			"0.013": 2.46880421182,
			"0.014": 2.37011445077,
			"0.015": 0.666949587764,
			"0.016": 1.01925712831,
			"0.017": 0.547275550607,
			"0.018": 0.532073344862,
			"0.019": 0.792661979702,
			"0.02": 0.292718796133,
			"0.021": 0.0,
			"0.022": 0.0,
			"0.023": 0.0,
			"0.024": 0.0,
			"0.025": 0.0
		}
	}
}
