{
	 "smiles": "COC(=O)N1CCC2=C1C=CC(N)=C2", 
	 "Tm": 423.15, 
	 "num_atms": 26, 
	 "gaussian": { 
		 "optdone": 1, 
		 "sigma_profile": "yes", 
		 "theory": "DFT", 
		 "functional": "B3LYP", 
		 "basiset": "6-31G**", 
		 "properties": { 
			 "R2extent": 3170.7824, 
			 "electric_dipole_moment_norm": 3.02373190776, 
			 "electric_quadrupole_moment_norm": 13.6136458203, 
			 "total_energy": -648.268905522, 
			 "HOMO_LUMO_gap": 0.18013, 
			 "cosmo_polarized_energy": -13.34, 
			 "cosmo_cavitation_energy": 29.12, 
			 "cosmo_dispersion_energy": -21.66, 
			 "cosmo_repulsion_energy": 1.71, 
			 "cosmo_total_nonelectrostatic_energy": 9.16, 
			 "SMD_solvation_energy": 5.87 
		},
		"coords": [
			{
				"x": 3.886674664,
				"y": -1.0620348245,
				"z": -0.1571736582,
				"element": "C" 
			},
			{
				"x": 2.4825854714,
				"y": -0.7798869791,
				"z": -0.0877788862,
				"element": "O" 
			},
			{
				"x": 2.1843529974,
				"y": 0.4597753333,
				"z": 0.3838200201,
				"element": "C" 
			},
			{
				"x": 3.0247868518,
				"y": 1.2753323662,
				"z": 0.7307675475,
				"element": "O" 
			},
			{
				"x": 0.8400069626,
				"y": 0.697124048,
				"z": 0.4197596697,
				"element": "N" 
			},
			{
				"x": 0.3714085503,
				"y": 2.0004492218,
				"z": 0.9343270533,
				"element": "C" 
			},
			{
				"x": -1.134036372,
				"y": 2.0373194507,
				"z": 0.5835128904,
				"element": "C" 
			},
			{
				"x": -1.4529586393,
				"y": 0.5987427426,
				"z": 0.240218361,
				"element": "C" 
			},
			{
				"x": -0.2673520296,
				"y": -0.1401176376,
				"z": 0.1225433959,
				"element": "C" 
			},
			{
				"x": -0.3151214977,
				"y": -1.4895370315,
				"z": -0.2262047626,
				"element": "C" 
			},
			{
				"x": -1.5615337313,
				"y": -2.0795654738,
				"z": -0.4497966544,
				"element": "C" 
			},
			{
				"x": -2.7576438377,
				"y": -1.353917185,
				"z": -0.3314672343,
				"element": "C" 
			},
			{
				"x": -3.9931267883,
				"y": -1.9539541957,
				"z": -0.6162580854,
				"element": "N" 
			},
			{
				"x": -2.6874995544,
				"y": 0.0079251664,
				"z": 0.0178701771,
				"element": "C" 
			},
			{
				"x": 4.391362207,
				"y": -0.3614976092,
				"z": -0.8271425709,
				"element": "H" 
			},
			{
				"x": 4.3465435585,
				"y": -0.9950849659,
				"z": 0.8319553762,
				"element": "H" 
			},
			{
				"x": 3.9604880939,
				"y": -2.0788421381,
				"z": -0.544224354,
				"element": "H" 
			},
			{
				"x": 0.5382190902,
				"y": 2.0466637401,
				"z": 2.0169405322,
				"element": "H" 
			},
			{
				"x": 0.9495265127,
				"y": 2.8053684879,
				"z": 0.4781730527,
				"element": "H" 
			},
			{
				"x": -1.3239976541,
				"y": 2.6903690866,
				"z": -0.2776746841,
				"element": "H" 
			},
			{
				"x": -1.7337324612,
				"y": 2.4210823172,
				"z": 1.4145992804,
				"element": "H" 
			},
			{
				"x": 0.5904535242,
				"y": -2.0723298226,
				"z": -0.3188520795,
				"element": "H" 
			},
			{
				"x": -1.6047224887,
				"y": -3.1309694463,
				"z": -0.7236169385,
				"element": "H" 
			},
			{
				"x": -4.7831502028,
				"y": -1.5233540758,
				"z": -0.154256789,
				"element": "H" 
			},
			{
				"x": -4.0064862479,
				"y": -2.958045534,
				"z": -0.4954229179,
				"element": "H" 
			},
			{
				"x": -3.6007469788,
				"y": 0.5922849585,
				"z": 0.1071822585,
				"element": "H" 
			}
		],
		 "valence_orbital": [ 
			{
				"type": "occ",
				"energy": -0.29023,
				"method": "rhf"
			},
			{
				"type": "occ",
				"energy": -0.26588,
				"method": "rhf"
			},
			{
				"type": "occ",
				"energy": -0.25669,
				"method": "rhf"
			},
			{
				"type": "occ",
				"energy": -0.24041,
				"method": "rhf"
			},
			{
				"type": "occ",
				"energy": -0.18005,
				"method": "rhf"
			},
			{
				"type": "unocc",
				"energy": 8e-05,
				"method": "rhf"
			},
			{
				"type": "unocc",
				"energy": 0.01692,
				"method": "rhf"
			},
			{
				"type": "unocc",
				"energy": 0.07148,
				"method": "rhf"
			},
			{
				"type": "unocc",
				"energy": 0.08411,
				"method": "rhf"
			},
			{
				"type": "unocc",
				"energy": 0.10191,
				"method": "rhf"
			}
		],
		"cosmo_sigma_profile": { 
			"-0.025": 0.0,
			"-0.024": 0.0,
			"-0.023": 0.0,
			"-0.022": 0.0,
			"-0.021": 0.0,
			"-0.02": 0.0,
			"-0.019": 0.0,
			"-0.018": 0.0,
			"-0.017": 0.0,
			"-0.016": 0.0,
			"-0.015": 0.0,
			"-0.014": 0.0,
			"-0.013": 0.0627142086235,
			"-0.012": 1.81211794322,
			"-0.011": 2.71198609591,
			"-0.01": 2.47511865414,
			"-0.009": 3.06980496671,
			"-0.008": 3.54440376596,
			"-0.007": 2.98360402508,
			"-0.006": 7.21448064085,
			"-0.005": 18.154676114,
			"-0.004": 23.6175065435,
			"-0.003": 25.0722275116,
			"-0.002": 19.6981422955,
			"-0.001": 16.2412069819,
			"0.0": 11.7255207141,
			"0.001": 10.7519666752,
			"0.002": 9.55799180473,
			"0.003": 11.7434596943,
			"0.004": 10.3743597343,
			"0.005": 9.98914620387,
			"0.006": 12.9763181392,
			"0.007": 6.46329910702,
			"0.008": 1.35574530855,
			"0.009": 2.38303512722,
			"0.01": 2.04799607663,
			"0.011": 2.34591571339,
			"0.012": 2.89098557022,
			"0.013": 5.62511265406,
			"0.014": 2.66919774582,
			"0.015": 0.483549871909,
			"0.016": 0.161588940674,
			"0.017": 0.0,
			"0.018": 0.0,
			"0.019": 0.0,
			"0.02": 0.0,
			"0.021": 0.0,
			"0.022": 0.0,
			"0.023": 0.0,
			"0.024": 0.0,
			"0.025": 0.0
		}
	}
}
