{
	 "smiles": "FC(F)(F)C1=NNC(=O)CC1", 
	 "Tm": 349.15, 
	 "num_atms": 16, 
	 "gaussian": { 
		 "optdone": 1, 
		 "sigma_profile": "yes", 
		 "theory": "DFT", 
		 "functional": "B3LYP", 
		 "basiset": "6-31G**", 
		 "properties": { 
			 "R2extent": 2029.311, 
			 "electric_dipole_moment_norm": 1.34686563918, 
			 "electric_quadrupole_moment_norm": 11.4136647651, 
			 "total_energy": -677.774164514, 
			 "HOMO_LUMO_gap": 0.21039, 
			 "cosmo_polarized_energy": -10.77, 
			 "cosmo_cavitation_energy": 21.65, 
			 "cosmo_dispersion_energy": -15.72, 
			 "cosmo_repulsion_energy": 1.23, 
			 "cosmo_total_nonelectrostatic_energy": 7.16, 
			 "SMD_solvation_energy": 4.86 
		},
		"coords": [
			{
				"x": -2.1044353294,
				"y": 0.2082044467,
				"z": -2.4061243792,
				"element": "F" 
			},
			{
				"x": -1.1160877945,
				"y": 0.8072028391,
				"z": -1.6972142034,
				"element": "C" 
			},
			{
				"x": -1.7239194217,
				"y": 1.6016681616,
				"z": -0.7816781883,
				"element": "F" 
			},
			{
				"x": -0.4186595866,
				"y": 1.5868783345,
				"z": -2.5264787293,
				"element": "F" 
			},
			{
				"x": -0.2807600835,
				"y": -0.2392840982,
				"z": -1.0064190267,
				"element": "C" 
			},
			{
				"x": 0.9775513933,
				"y": -0.2405459516,
				"z": -1.2467519177,
				"element": "N" 
			},
			{
				"x": 1.7247380015,
				"y": -1.2073915018,
				"z": -0.6300388529,
				"element": "N" 
			},
			{
				"x": 1.3747906885,
				"y": -1.9518448055,
				"z": 0.491446211,
				"element": "C" 
			},
			{
				"x": 2.1745470213,
				"y": -2.7037010185,
				"z": 1.0161684265,
				"element": "O" 
			},
			{
				"x": -0.0300733235,
				"y": -1.6806949141,
				"z": 1.0001358976,
				"element": "C" 
			},
			{
				"x": -0.9775188974,
				"y": -1.2412798794,
				"z": -0.1239074756,
				"element": "C" 
			},
			{
				"x": 2.7011871679,
				"y": -1.2148702806,
				"z": -0.8946435544,
				"element": "H" 
			},
			{
				"x": -0.3840210665,
				"y": -2.5751016467,
				"z": 1.5160939188,
				"element": "H" 
			},
			{
				"x": 0.0579511741,
				"y": -0.8867222588,
				"z": 1.7537136955,
				"element": "H" 
			},
			{
				"x": -1.2625324854,
				"y": -2.1035872377,
				"z": -0.7431330344,
				"element": "H" 
			},
			{
				"x": -1.9038574582,
				"y": -0.824530189,
				"z": 0.2795312124,
				"element": "H" 
			}
		],
		 "valence_orbital": [ 
			{
				"type": "occ",
				"energy": -0.38487,
				"method": "rhf"
			},
			{
				"type": "occ",
				"energy": -0.35724,
				"method": "rhf"
			},
			{
				"type": "occ",
				"energy": -0.32392,
				"method": "rhf"
			},
			{
				"type": "occ",
				"energy": -0.26773,
				"method": "rhf"
			},
			{
				"type": "occ",
				"energy": -0.26302,
				"method": "rhf"
			},
			{
				"type": "unocc",
				"energy": -0.05263,
				"method": "rhf"
			},
			{
				"type": "unocc",
				"energy": 0.0177,
				"method": "rhf"
			},
			{
				"type": "unocc",
				"energy": 0.07975,
				"method": "rhf"
			},
			{
				"type": "unocc",
				"energy": 0.09707,
				"method": "rhf"
			},
			{
				"type": "unocc",
				"energy": 0.11409,
				"method": "rhf"
			}
		],
		"cosmo_sigma_profile": { 
			"-0.025": 0.0,
			"-0.024": 0.0,
			"-0.023": 0.0,
			"-0.022": 0.0,
			"-0.021": 0.0,
			"-0.02": 0.0,
			"-0.019": 0.0,
			"-0.018": 0.0,
			"-0.017": 0.0,
			"-0.016": 0.458950375797,
			"-0.015": 1.09638542176,
			"-0.014": 0.943181455378,
			"-0.013": 1.21654773283,
			"-0.012": 0.645384706912,
			"-0.011": 0.12549502278,
			"-0.01": 1.30536120835,
			"-0.009": 0.720298720055,
			"-0.008": 2.14213583278,
			"-0.007": 10.729068418,
			"-0.006": 12.3375503289,
			"-0.005": 10.8903672514,
			"-0.004": 10.3537346514,
			"-0.003": 9.96536818885,
			"-0.002": 8.25708203113,
			"-0.001": 6.4520547454,
			"0.0": 8.6760432191,
			"0.001": 10.1705938686,
			"0.002": 24.8002291231,
			"0.003": 20.6357559278,
			"0.004": 2.48325828798,
			"0.005": 2.86430559646,
			"0.006": 2.82114764265,
			"0.007": 2.15743518026,
			"0.008": 2.16407592813,
			"0.009": 2.76523680199,
			"0.01": 2.95829659005,
			"0.011": 3.50843964579,
			"0.012": 5.52952355674,
			"0.013": 2.91338058507,
			"0.014": 0.154690474483,
			"0.015": 0.0,
			"0.016": 0.0,
			"0.017": 0.0,
			"0.018": 0.0,
			"0.019": 0.0,
			"0.02": 0.0,
			"0.021": 0.0,
			"0.022": 0.0,
			"0.023": 0.0,
			"0.024": 0.0,
			"0.025": 0.0
		}
	}
}
