{
	 "smiles": "COC1CC2C3(C)CCCC2(COC3OC(C)=O)C2C(CC3C(OC(C)=O)C12C(=O)C3=C)OC(C)=O", 
	 "Tm": 487.15, 
	 "num_atms": 72, 
	 "gaussian": { 
		 "optdone": 1, 
		 "sigma_profile": "yes", 
		 "theory": "DFT", 
		 "functional": "B3LYP", 
		 "basiset": "6-31G**", 
		 "properties": { 
			 "R2extent": 14972.7986, 
			 "electric_dipole_moment_norm": 4.49323177791, 
			 "electric_quadrupole_moment_norm": 25.2990360449, 
			 "total_energy": -1727.5663456, 
			 "HOMO_LUMO_gap": 0.17728, 
			 "cosmo_polarized_energy": -25.43, 
			 "cosmo_cavitation_energy": 64.95, 
			 "cosmo_dispersion_energy": -39.28, 
			 "cosmo_repulsion_energy": 2.83, 
			 "cosmo_total_nonelectrostatic_energy": 28.5, 
			 "SMD_solvation_energy": 14.42 
		},
		"coords": [
			{
				"x": 4.0662090486,
				"y": -3.0959718607,
				"z": 1.2677193376,
				"element": "C" 
			},
			{
				"x": 3.3459635629,
				"y": -1.8786071957,
				"z": 1.1689628606,
				"element": "O" 
			},
			{
				"x": 1.997787339,
				"y": -1.9974674813,
				"z": 0.7226445982,
				"element": "C" 
			},
			{
				"x": 1.1114203069,
				"y": -1.1156692016,
				"z": 1.6166353155,
				"element": "C" 
			},
			{
				"x": 0.9985410735,
				"y": 0.3931430743,
				"z": 1.2568207087,
				"element": "C" 
			},
			{
				"x": 1.384003473,
				"y": 1.383642999,
				"z": 2.3929487479,
				"element": "C" 
			},
			{
				"x": 0.6466683046,
				"y": 1.0836376678,
				"z": 3.7107414755,
				"element": "C" 
			},
			{
				"x": 2.9116808249,
				"y": 1.3361342194,
				"z": 2.6433408772,
				"element": "C" 
			},
			{
				"x": 3.7603424776,
				"y": 1.6853429386,
				"z": 1.4116062245,
				"element": "C" 
			},
			{
				"x": 3.2965213752,
				"y": 0.9304974174,
				"z": 0.1510285408,
				"element": "C" 
			},
			{
				"x": 1.7495155854,
				"y": 0.8193327691,
				"z": -0.0376638209,
				"element": "C" 
			},
			{
				"x": 1.2097577947,
				"y": 2.2248727786,
				"z": -0.386360677,
				"element": "C" 
			},
			{
				"x": 1.4631834756,
				"y": 3.1658980098,
				"z": 0.6648823642,
				"element": "O" 
			},
			{
				"x": 0.9873291481,
				"y": 2.8073437924,
				"z": 1.9270365357,
				"element": "C" 
			},
			{
				"x": -0.4694365425,
				"y": 2.9085481478,
				"z": 1.9196482865,
				"element": "O" 
			},
			{
				"x": -1.0178944978,
				"y": 4.0501652711,
				"z": 2.4207674597,
				"element": "C" 
			},
			{
				"x": -2.514061826,
				"y": 4.0580486722,
				"z": 2.210496056,
				"element": "C" 
			},
			{
				"x": -0.3904886005,
				"y": 4.9301430873,
				"z": 2.9633509474,
				"element": "O" 
			},
			{
				"x": 1.4905002345,
				"y": -0.1893697582,
				"z": -1.205988459,
				"element": "C" 
			},
			{
				"x": 0.2069672788,
				"y": 0.020674248,
				"z": -2.0395647013,
				"element": "C" 
			},
			{
				"x": 0.0247929414,
				"y": -1.0405442497,
				"z": -3.1507728793,
				"element": "C" 
			},
			{
				"x": 0.6798259608,
				"y": -2.413426478,
				"z": -2.8499928014,
				"element": "C" 
			},
			{
				"x": 0.6777267672,
				"y": -2.6975036008,
				"z": -1.3409842071,
				"element": "C" 
			},
			{
				"x": -0.5960933632,
				"y": -2.5819174916,
				"z": -0.6905882779,
				"element": "O" 
			},
			{
				"x": -1.4216101585,
				"y": -3.6564656679,
				"z": -0.8058106997,
				"element": "C" 
			},
			{
				"x": -2.7205285539,
				"y": -3.4196201155,
				"z": -0.0746266584,
				"element": "C" 
			},
			{
				"x": -1.1394091579,
				"y": -4.6563654211,
				"z": -1.4279861288,
				"element": "O" 
			},
			{
				"x": 1.7581755828,
				"y": -1.7237578681,
				"z": -0.7943380059,
				"element": "C" 
			},
			{
				"x": 2.8776252103,
				"y": -2.1109173628,
				"z": -1.7998898878,
				"element": "C" 
			},
			{
				"x": 4.0798840179,
				"y": -2.1099988571,
				"z": -1.6329323314,
				"element": "O" 
			},
			{
				"x": 2.1785605709,
				"y": -2.4355466681,
				"z": -3.096092559,
				"element": "C" 
			},
			{
				"x": 2.8471757902,
				"y": -2.7341594876,
				"z": -4.2123510132,
				"element": "C" 
			},
			{
				"x": -0.9505039576,
				"y": 0.0676785646,
				"z": -1.1612131671,
				"element": "O" 
			},
			{
				"x": -2.0213523494,
				"y": 0.7671638558,
				"z": -1.6066609109,
				"element": "C" 
			},
			{
				"x": -3.0897954766,
				"y": 0.8420937353,
				"z": -0.5418533479,
				"element": "C" 
			},
			{
				"x": -2.0857185545,
				"y": 1.2805046668,
				"z": -2.7032872563,
				"element": "O" 
			},
			{
				"x": 3.5572035501,
				"y": -3.8070395862,
				"z": 1.9368092277,
				"element": "H" 
			},
			{
				"x": 5.0400534892,
				"y": -2.8471617414,
				"z": 1.6959418142,
				"element": "H" 
			},
			{
				"x": 4.2267408504,
				"y": -3.5646647039,
				"z": 0.2913148286,
				"element": "H" 
			},
			{
				"x": 1.6868032305,
				"y": -3.0384059475,
				"z": 0.8978801517,
				"element": "H" 
			},
			{
				"x": 0.1053090461,
				"y": -1.5423945241,
				"z": 1.5834279333,
				"element": "H" 
			},
			{
				"x": 1.4797557825,
				"y": -1.2601509594,
				"z": 2.6353077724,
				"element": "H" 
			},
			{
				"x": -0.0610578541,
				"y": 0.5668431765,
				"z": 1.0525214074,
				"element": "H" 
			},
			{
				"x": 0.7958504579,
				"y": 1.8984407346,
				"z": 4.4286294272,
				"element": "H" 
			},
			{
				"x": -0.4290929485,
				"y": 0.9661036526,
				"z": 3.5550889271,
				"element": "H" 
			},
			{
				"x": 1.0282788759,
				"y": 0.1708752131,
				"z": 4.1763982133,
				"element": "H" 
			},
			{
				"x": 3.1665954674,
				"y": 2.0022573629,
				"z": 3.4780655362,
				"element": "H" 
			},
			{
				"x": 3.1577541939,
				"y": 0.3188606812,
				"z": 2.9707238215,
				"element": "H" 
			},
			{
				"x": 4.806569254,
				"y": 1.4255430859,
				"z": 1.6131164317,
				"element": "H" 
			},
			{
				"x": 3.7319599336,
				"y": 2.7630758244,
				"z": 1.2381569261,
				"element": "H" 
			},
			{
				"x": 3.7284385062,
				"y": -0.0682772709,
				"z": 0.1692047597,
				"element": "H" 
			},
			{
				"x": 3.7031106048,
				"y": 1.4286830316,
				"z": -0.7395586451,
				"element": "H" 
			},
			{
				"x": 1.719673063,
				"y": 2.6401797365,
				"z": -1.2615420528,
				"element": "H" 
			},
			{
				"x": 0.1345605186,
				"y": 2.2046296122,
				"z": -0.588130049,
				"element": "H" 
			},
			{
				"x": 1.3619868857,
				"y": 3.5678321889,
				"z": 2.6138055085,
				"element": "H" 
			},
			{
				"x": -2.7352567511,
				"y": 4.1195081996,
				"z": 1.140099158,
				"element": "H" 
			},
			{
				"x": -2.9469944638,
				"y": 4.9181938744,
				"z": 2.7203938246,
				"element": "H" 
			},
			{
				"x": -2.9588119967,
				"y": 3.1333024868,
				"z": 2.5890017828,
				"element": "H" 
			},
			{
				"x": 2.2653090501,
				"y": 0.0610284227,
				"z": -1.9448004681,
				"element": "H" 
			},
			{
				"x": 0.2594153564,
				"y": 0.998737959,
				"z": -2.5220159119,
				"element": "H" 
			},
			{
				"x": -1.0460509841,
				"y": -1.1680284756,
				"z": -3.3240536093,
				"element": "H" 
			},
			{
				"x": 0.4400272457,
				"y": -0.648912109,
				"z": -4.0849564653,
				"element": "H" 
			},
			{
				"x": 0.1701451678,
				"y": -3.2001858333,
				"z": -3.4110164161,
				"element": "H" 
			},
			{
				"x": 1.0278932614,
				"y": -3.7224707916,
				"z": -1.175941808,
				"element": "H" 
			},
			{
				"x": -2.5368583416,
				"y": -3.0170950375,
				"z": 0.9245945645,
				"element": "H" 
			},
			{
				"x": -3.2748828754,
				"y": -4.355653899,
				"z": -0.0125326079,
				"element": "H" 
			},
			{
				"x": -3.3182982716,
				"y": -2.6849966371,
				"z": -0.6241000619,
				"element": "H" 
			},
			{
				"x": 3.9334148014,
				"y": -2.7187340632,
				"z": -4.2076201862,
				"element": "H" 
			},
			{
				"x": 2.3459942881,
				"y": -2.9992051624,
				"z": -5.1388543162,
				"element": "H" 
			},
			{
				"x": -3.2863819386,
				"y": -0.1469937775,
				"z": -0.1205787004,
				"element": "H" 
			},
			{
				"x": -4.0003574559,
				"y": 1.2634375878,
				"z": -0.9671513159,
				"element": "H" 
			},
			{
				"x": -2.7349641059,
				"y": 1.4788805391,
				"z": 0.2751980518,
				"element": "H" 
			}
		],
		 "valence_orbital": [ 
			{
				"type": "occ",
				"energy": -0.27451,
				"method": "rhf"
			},
			{
				"type": "occ",
				"energy": -0.27102,
				"method": "rhf"
			},
			{
				"type": "occ",
				"energy": -0.25591,
				"method": "rhf"
			},
			{
				"type": "occ",
				"energy": -0.25459,
				"method": "rhf"
			},
			{
				"type": "occ",
				"energy": -0.24421,
				"method": "rhf"
			},
			{
				"type": "unocc",
				"energy": -0.06693,
				"method": "rhf"
			},
			{
				"type": "unocc",
				"energy": -0.00526,
				"method": "rhf"
			},
			{
				"type": "unocc",
				"energy": 0.0032,
				"method": "rhf"
			},
			{
				"type": "unocc",
				"energy": 0.01003,
				"method": "rhf"
			},
			{
				"type": "unocc",
				"energy": 0.04729,
				"method": "rhf"
			}
		],
		"cosmo_sigma_profile": { 
			"-0.025": 0.0,
			"-0.024": 0.0,
			"-0.023": 0.0,
			"-0.022": 0.0,
			"-0.021": 0.0,
			"-0.02": 0.0,
			"-0.019": 0.0,
			"-0.018": 0.0,
			"-0.017": 0.0,
			"-0.016": 0.0,
			"-0.015": 0.0,
			"-0.014": 0.0,
			"-0.013": 0.0,
			"-0.012": 0.0,
			"-0.011": 0.0,
			"-0.01": 0.0,
			"-0.009": 0.0517262076718,
			"-0.008": 1.37389531273,
			"-0.007": 8.22138578714,
			"-0.006": 21.4828030751,
			"-0.005": 39.1270653174,
			"-0.004": 54.1098891693,
			"-0.003": 53.3947103363,
			"-0.002": 64.1698436553,
			"-0.001": 54.5425408249,
			"0.0": 38.3156991336,
			"0.001": 34.4760714922,
			"0.002": 21.9680460208,
			"0.003": 15.5679346798,
			"0.004": 10.2131685111,
			"0.005": 10.3256248529,
			"0.006": 10.4500020312,
			"0.007": 9.17058167365,
			"0.008": 11.3302089442,
			"0.009": 7.16483691594,
			"0.01": 8.58371791426,
			"0.011": 14.5485300229,
			"0.012": 14.5457666528,
			"0.013": 2.56719957961,
			"0.014": 0.0194182050971,
			"0.015": 0.0,
			"0.016": 0.0,
			"0.017": 0.0,
			"0.018": 0.0,
			"0.019": 0.0,
			"0.02": 0.0,
			"0.021": 0.0,
			"0.022": 0.0,
			"0.023": 0.0,
			"0.024": 0.0,
			"0.025": 0.0
		}
	}
}
