{
	 "smiles": "CN1C(N)=NN=C1S", 
	 "Tm": 552.15, 
	 "num_atms": 14, 
	 "gaussian": { 
		 "optdone": 1, 
		 "sigma_profile": "yes", 
		 "theory": "DFT", 
		 "functional": "B3LYP", 
		 "basiset": "6-31G**", 
		 "properties": { 
			 "R2extent": 1482.5747, 
			 "electric_dipole_moment_norm": 4.52267254397, 
			 "electric_quadrupole_moment_norm": 12.9638393534, 
			 "total_energy": -735.098429804, 
			 "HOMO_LUMO_gap": 0.22155, 
			 "cosmo_polarized_energy": -18.19, 
			 "cosmo_cavitation_energy": 19.73, 
			 "cosmo_dispersion_energy": -15.32, 
			 "cosmo_repulsion_energy": 1.23, 
			 "cosmo_total_nonelectrostatic_energy": 5.65, 
			 "SMD_solvation_energy": 1.34 
		},
		"coords": [
			{
				"x": 0.9110241298,
				"y": 0.5867839865,
				"z": -0.0346899463,
				"element": "C" 
			},
			{
				"x": -0.0379700635,
				"y": -0.4002953617,
				"z": 0.4503678464,
				"element": "N" 
			},
			{
				"x": -0.5498270515,
				"y": -1.4797136378,
				"z": -0.2373458764,
				"element": "C" 
			},
			{
				"x": -0.1877867639,
				"y": -1.7483422298,
				"z": -1.5578644304,
				"element": "N" 
			},
			{
				"x": -1.3094811477,
				"y": -2.2139615259,
				"z": 0.536647448,
				"element": "N" 
			},
			{
				"x": -1.3154440253,
				"y": -1.6186167066,
				"z": 1.7935560654,
				"element": "N" 
			},
			{
				"x": -0.5692550668,
				"y": -0.5472179555,
				"z": 1.7117173058,
				"element": "C" 
			},
			{
				"x": -0.2481370715,
				"y": 0.6148423568,
				"z": 3.0071378989,
				"element": "S" 
			},
			{
				"x": 1.6559685575,
				"y": 0.7958363587,
				"z": 0.7372889729,
				"element": "H" 
			},
			{
				"x": 1.4151250938,
				"y": 0.170136483,
				"z": -0.9089216589,
				"element": "H" 
			},
			{
				"x": 0.4143441817,
				"y": 1.5225985256,
				"z": -0.3124392316,
				"element": "H" 
			},
			{
				"x": -0.5240602777,
				"y": -2.6722550484,
				"z": -1.8090707728,
				"element": "H" 
			},
			{
				"x": -0.5573390175,
				"y": -1.0704316189,
				"z": -2.2191551293,
				"element": "H" 
			},
			{
				"x": -0.9197614774,
				"y": -0.115363626,
				"z": 3.9170715084,
				"element": "H" 
			}
		],
		 "valence_orbital": [ 
			{
				"type": "occ",
				"energy": -0.30366,
				"method": "rhf"
			},
			{
				"type": "occ",
				"energy": -0.28811,
				"method": "rhf"
			},
			{
				"type": "occ",
				"energy": -0.27964,
				"method": "rhf"
			},
			{
				"type": "occ",
				"energy": -0.25104,
				"method": "rhf"
			},
			{
				"type": "occ",
				"energy": -0.2142,
				"method": "rhf"
			},
			{
				"type": "unocc",
				"energy": 0.00735,
				"method": "rhf"
			},
			{
				"type": "unocc",
				"energy": 0.02752,
				"method": "rhf"
			},
			{
				"type": "unocc",
				"energy": 0.05517,
				"method": "rhf"
			},
			{
				"type": "unocc",
				"energy": 0.06027,
				"method": "rhf"
			},
			{
				"type": "unocc",
				"energy": 0.07423,
				"method": "rhf"
			}
		],
		"cosmo_sigma_profile": { 
			"-0.025": 0.0,
			"-0.024": 0.0,
			"-0.023": 0.0,
			"-0.022": 0.0,
			"-0.021": 0.0,
			"-0.02": 0.0,
			"-0.019": 0.0,
			"-0.018": 0.0,
			"-0.017": 0.0,
			"-0.016": 0.0,
			"-0.015": 0.0,
			"-0.014": 0.454263960563,
			"-0.013": 2.84801335513,
			"-0.012": 3.50483159064,
			"-0.011": 4.81364857478,
			"-0.01": 3.93089826947,
			"-0.009": 3.2679651673,
			"-0.008": 3.32696209028,
			"-0.007": 6.21128145596,
			"-0.006": 10.3046193897,
			"-0.005": 11.4712608224,
			"-0.004": 12.9590424603,
			"-0.003": 8.38065175799,
			"-0.002": 6.61857768743,
			"-0.001": 6.35368823732,
			"0.0": 5.70618436951,
			"0.001": 7.4925744697,
			"0.002": 9.23218953317,
			"0.003": 5.71266344541,
			"0.004": 6.47066281267,
			"0.005": 4.39981859473,
			"0.006": 4.27946780864,
			"0.007": 4.51821920186,
			"0.008": 2.32282294257,
			"0.009": 2.01320059091,
			"0.01": 2.2067688419,
			"0.011": 2.73368762702,
			"0.012": 3.1604669922,
			"0.013": 3.16744283539,
			"0.014": 3.780408992,
			"0.015": 2.83482215792,
			"0.016": 2.88637574198,
			"0.017": 1.62417659332,
			"0.018": 0.177388722863,
			"0.019": 0.0,
			"0.02": 0.0,
			"0.021": 0.0,
			"0.022": 0.0,
			"0.023": 0.0,
			"0.024": 0.0,
			"0.025": 0.0
		}
	}
}
