{
	 "smiles": "CNS(=O)(=O)C1=CC=C(C=C1)C(C)=O", 
	 "Tm": 383.15, 
	 "num_atms": 25, 
	 "gaussian": { 
		 "optdone": 1, 
		 "sigma_profile": "yes", 
		 "theory": "DFT", 
		 "functional": "B3LYP", 
		 "basiset": "6-31G**", 
		 "properties": { 
			 "R2extent": 4039.8784, 
			 "electric_dipole_moment_norm": 4.93470944332, 
			 "electric_quadrupole_moment_norm": 27.5025554851, 
			 "total_energy": -1028.12749203, 
			 "HOMO_LUMO_gap": 0.18324, 
			 "cosmo_polarized_energy": -19.36, 
			 "cosmo_cavitation_energy": 30.46, 
			 "cosmo_dispersion_energy": -22.28, 
			 "cosmo_repulsion_energy": 1.7, 
			 "cosmo_total_nonelectrostatic_energy": 9.88, 
			 "SMD_solvation_energy": 4.91 
		},
		"coords": [
			{
				"x": -3.4133710503,
				"y": 1.9337227561,
				"z": -0.482748796,
				"element": "C" 
			},
			{
				"x": -2.3439206745,
				"y": 1.9492630505,
				"z": -1.481186166,
				"element": "N" 
			},
			{
				"x": -1.4354122607,
				"y": 0.5661762831,
				"z": -1.7475961595,
				"element": "S" 
			},
			{
				"x": -0.4741488231,
				"y": 0.9301301495,
				"z": -2.788526763,
				"element": "O" 
			},
			{
				"x": -2.3880306998,
				"y": -0.5345750535,
				"z": -1.8885645726,
				"element": "O" 
			},
			{
				"x": -0.4980176522,
				"y": 0.2639176578,
				"z": -0.2375768866,
				"element": "C" 
			},
			{
				"x": -1.0622537376,
				"y": -0.5069074359,
				"z": 0.7845018306,
				"element": "C" 
			},
			{
				"x": -0.3442348259,
				"y": -0.7018191495,
				"z": 1.9599036952,
				"element": "C" 
			},
			{
				"x": 0.9326026835,
				"y": -0.1418108943,
				"z": 2.1197989484,
				"element": "C" 
			},
			{
				"x": 1.486868966,
				"y": 0.6153553717,
				"z": 1.0766434856,
				"element": "C" 
			},
			{
				"x": 0.7749101317,
				"y": 0.8226488398,
				"z": -0.1034434361,
				"element": "C" 
			},
			{
				"x": 1.6547653379,
				"y": -0.3932026342,
				"z": 3.4159874637,
				"element": "C" 
			},
			{
				"x": 3.050641887,
				"y": 0.173223856,
				"z": 3.6006388562,
				"element": "C" 
			},
			{
				"x": 1.1200800936,
				"y": -1.0429601127,
				"z": 4.3000468112,
				"element": "O" 
			},
			{
				"x": -3.0500710892,
				"y": 1.8842118708,
				"z": 0.5531534575,
				"element": "H" 
			},
			{
				"x": -4.0571281166,
				"y": 1.075221887,
				"z": -0.6796110691,
				"element": "H" 
			},
			{
				"x": -4.0067307065,
				"y": 2.8428172777,
				"z": -0.6066005874,
				"element": "H" 
			},
			{
				"x": -1.7529896782,
				"y": 2.7745804482,
				"z": -1.4891928168,
				"element": "H" 
			},
			{
				"x": -2.0353226378,
				"y": -0.9634956208,
				"z": 0.6404633112,
				"element": "H" 
			},
			{
				"x": -0.7487767017,
				"y": -1.295308765,
				"z": 2.7727452028,
				"element": "H" 
			},
			{
				"x": 2.4791797559,
				"y": 1.0427804958,
				"z": 1.1746263518,
				"element": "H" 
			},
			{
				"x": 1.2037616657,
				"y": 1.3874233067,
				"z": -0.924178676,
				"element": "H" 
			},
			{
				"x": 3.047358216,
				"y": 1.2653670961,
				"z": 3.5124298862,
				"element": "H" 
			},
			{
				"x": 3.4131283022,
				"y": -0.1082506997,
				"z": 4.5894398401,
				"element": "H" 
			},
			{
				"x": 3.7356116143,
				"y": -0.214109981,
				"z": 2.8382467886,
				"element": "H" 
			}
		],
		 "valence_orbital": [ 
			{
				"type": "occ",
				"energy": -0.3083,
				"method": "rhf"
			},
			{
				"type": "occ",
				"energy": -0.29359,
				"method": "rhf"
			},
			{
				"type": "occ",
				"energy": -0.28268,
				"method": "rhf"
			},
			{
				"type": "occ",
				"energy": -0.27039,
				"method": "rhf"
			},
			{
				"type": "occ",
				"energy": -0.26342,
				"method": "rhf"
			},
			{
				"type": "unocc",
				"energy": -0.08018,
				"method": "rhf"
			},
			{
				"type": "unocc",
				"energy": -0.03227,
				"method": "rhf"
			},
			{
				"type": "unocc",
				"energy": 0.00721,
				"method": "rhf"
			},
			{
				"type": "unocc",
				"energy": 0.0533,
				"method": "rhf"
			},
			{
				"type": "unocc",
				"energy": 0.07396,
				"method": "rhf"
			}
		],
		"cosmo_sigma_profile": { 
			"-0.025": 0.0,
			"-0.024": 0.0,
			"-0.023": 0.0,
			"-0.022": 0.0,
			"-0.021": 0.0,
			"-0.02": 0.0,
			"-0.019": 0.0,
			"-0.018": 0.0,
			"-0.017": 0.0,
			"-0.016": 0.0672494239149,
			"-0.015": 0.928973938723,
			"-0.014": 1.49013143843,
			"-0.013": 0.886369163595,
			"-0.012": 1.58795676583,
			"-0.011": 1.12905792572,
			"-0.01": 0.969275973767,
			"-0.009": 1.16052924575,
			"-0.008": 2.89226376125,
			"-0.007": 12.2444902036,
			"-0.006": 18.3550480274,
			"-0.005": 16.0921616582,
			"-0.004": 19.1078932676,
			"-0.003": 21.8975168644,
			"-0.002": 18.7220664413,
			"-0.001": 14.1602741955,
			"0.0": 12.9418013291,
			"0.001": 18.5839283589,
			"0.002": 12.6218784226,
			"0.003": 4.51813458163,
			"0.004": 4.70924400654,
			"0.005": 5.01826666571,
			"0.006": 5.74747205657,
			"0.007": 5.68514815705,
			"0.008": 5.78351096153,
			"0.009": 5.66153483343,
			"0.01": 10.6345069015,
			"0.011": 12.364445563,
			"0.012": 5.61592124848,
			"0.013": 0.746136382098,
			"0.014": 0.0,
			"0.015": 0.0,
			"0.016": 0.0,
			"0.017": 0.0,
			"0.018": 0.0,
			"0.019": 0.0,
			"0.02": 0.0,
			"0.021": 0.0,
			"0.022": 0.0,
			"0.023": 0.0,
			"0.024": 0.0,
			"0.025": 0.0
		}
	}
}
