{
	 "smiles": "ClC1=CN=C(Br)C=C1", 
	 "Tm": 340.15, 
	 "num_atms": 11, 
	 "gaussian": { 
		 "optdone": 1, 
		 "sigma_profile": "yes", 
		 "theory": "DFT", 
		 "functional": "B3LYP", 
		 "basiset": "6-31G**", 
		 "properties": { 
			 "R2extent": 3471.5057, 
			 "electric_dipole_moment_norm": 2.15394994371, 
			 "electric_quadrupole_moment_norm": 9.06517690837, 
			 "total_energy": -3278.678235, 
			 "HOMO_LUMO_gap": 0.20554, 
			 "cosmo_polarized_energy": -5.82, 
			 "cosmo_cavitation_energy": 19.77, 
			 "cosmo_dispersion_energy": -15.47, 
			 "cosmo_repulsion_energy": 1.29, 
			 "cosmo_total_nonelectrostatic_energy": 5.59, 
			 "SMD_solvation_energy": 0.66 
		},
		"coords": [
			{
				"x": -0.1775580657,
				"y": -1.9221588416,
				"z": -1.4544978821,
				"element": "Cl" 
			},
			{
				"x": 0.0930621101,
				"y": -0.2172613857,
				"z": -1.1748777086,
				"element": "C" 
			},
			{
				"x": 0.5301956314,
				"y": 0.2240540075,
				"z": 0.0741408268,
				"element": "C" 
			},
			{
				"x": 0.7510044804,
				"y": 1.517701846,
				"z": 0.3359665184,
				"element": "N" 
			},
			{
				"x": 0.5428239888,
				"y": 2.3901030351,
				"z": -0.6320858916,
				"element": "C" 
			},
			{
				"x": 0.8681674271,
				"y": 4.2359907398,
				"z": -0.2252071932,
				"element": "Br" 
			},
			{
				"x": 0.1060219904,
				"y": 2.0579750861,
				"z": -1.9176391263,
				"element": "C" 
			},
			{
				"x": -0.1241306253,
				"y": 0.7134361068,
				"z": -2.191896758,
				"element": "C" 
			},
			{
				"x": 0.7063229908,
				"y": -0.481168857,
				"z": 0.8817408395,
				"element": "H" 
			},
			{
				"x": -0.0464161615,
				"y": 2.822356384,
				"z": -2.6696381448,
				"element": "H" 
			},
			{
				"x": -0.4639937664,
				"y": 0.393371879,
				"z": -3.1709054799,
				"element": "H" 
			}
		],
		 "valence_orbital": [ 
			{
				"type": "occ",
				"energy": -0.31419,
				"method": "rhf"
			},
			{
				"type": "occ",
				"energy": -0.30988,
				"method": "rhf"
			},
			{
				"type": "occ",
				"energy": -0.29557,
				"method": "rhf"
			},
			{
				"type": "occ",
				"energy": -0.28369,
				"method": "rhf"
			},
			{
				"type": "occ",
				"energy": -0.25745,
				"method": "rhf"
			},
			{
				"type": "unocc",
				"energy": -0.05191,
				"method": "rhf"
			},
			{
				"type": "unocc",
				"energy": -0.03963,
				"method": "rhf"
			},
			{
				"type": "unocc",
				"energy": 0.00051,
				"method": "rhf"
			},
			{
				"type": "unocc",
				"energy": 0.01566,
				"method": "rhf"
			},
			{
				"type": "unocc",
				"energy": 0.11282,
				"method": "rhf"
			}
		],
		"cosmo_sigma_profile": { 
			"-0.025": 0.0,
			"-0.024": 0.0,
			"-0.023": 0.0,
			"-0.022": 0.0,
			"-0.021": 0.0,
			"-0.02": 0.0,
			"-0.019": 0.0,
			"-0.018": 0.0,
			"-0.017": 0.0,
			"-0.016": 0.0,
			"-0.015": 0.0,
			"-0.014": 0.0,
			"-0.013": 0.0,
			"-0.012": 0.0,
			"-0.011": 0.0,
			"-0.01": 0.219496746305,
			"-0.009": 3.49692805982,
			"-0.008": 6.34089070503,
			"-0.007": 5.19535058846,
			"-0.006": 4.54020440627,
			"-0.005": 5.08195046898,
			"-0.004": 6.8346794032,
			"-0.003": 8.13575686234,
			"-0.002": 12.6487988592,
			"-0.001": 21.9362516469,
			"0.0": 18.6350509632,
			"0.001": 11.5605615021,
			"0.002": 11.3064681989,
			"0.003": 16.4952723559,
			"0.004": 18.0930449116,
			"0.005": 5.21715721141,
			"0.006": 1.75227736918,
			"0.007": 1.49531337512,
			"0.008": 1.41510546674,
			"0.009": 1.31674481711,
			"0.01": 1.21621528107,
			"0.011": 0.642626519888,
			"0.012": 1.01838051702,
			"0.013": 0.775610809926,
			"0.014": 0.156531522207,
			"0.015": 0.0,
			"0.016": 0.0,
			"0.017": 0.0,
			"0.018": 0.0,
			"0.019": 0.0,
			"0.02": 0.0,
			"0.021": 0.0,
			"0.022": 0.0,
			"0.023": 0.0,
			"0.024": 0.0,
			"0.025": 0.0
		}
	}
}
