{
	 "smiles": "[O-][N+](=O)C1=C(Cl)N=CC=C1", 
	 "Tm": 374.15, 
	 "num_atms": 13, 
	 "gaussian": { 
		 "optdone": 1, 
		 "sigma_profile": "yes", 
		 "theory": "DFT", 
		 "functional": "B3LYP", 
		 "basiset": "6-31G**", 
		 "properties": { 
			 "R2extent": 2951.0487, 
			 "electric_dipole_moment_norm": 4.5512992969, 
			 "electric_quadrupole_moment_norm": 7.96264178649, 
			 "total_energy": -912.359578925, 
			 "HOMO_LUMO_gap": 0.18378, 
			 "cosmo_polarized_energy": -10.22, 
			 "cosmo_cavitation_energy": 20.25, 
			 "cosmo_dispersion_energy": -15.26, 
			 "cosmo_repulsion_energy": 1.24, 
			 "cosmo_total_nonelectrostatic_energy": 6.23, 
			 "SMD_solvation_energy": 4.31 
		},
		"coords": [
			{
				"x": 1.7628873395,
				"y": -0.4657098105,
				"z": -3.4807388883,
				"element": "O" 
			},
			{
				"x": 2.2362359339,
				"y": 0.2202413556,
				"z": -2.5742755881,
				"element": "N" 
			},
			{
				"x": 3.4137228041,
				"y": 0.5386369755,
				"z": -2.463959693,
				"element": "O" 
			},
			{
				"x": 1.2969321696,
				"y": 0.6499118514,
				"z": -1.523592227,
				"element": "C" 
			},
			{
				"x": 1.4095232638,
				"y": 1.8503589612,
				"z": -0.7977902053,
				"element": "C" 
			},
			{
				"x": 2.6294289048,
				"y": 3.0467882979,
				"z": -1.1407861127,
				"element": "Cl" 
			},
			{
				"x": 0.552499966,
				"y": 2.1704113373,
				"z": 0.1590337881,
				"element": "N" 
			},
			{
				"x": -0.4446736213,
				"y": 1.3277210191,
				"z": 0.4485995437,
				"element": "C" 
			},
			{
				"x": -0.6549837219,
				"y": 0.1283097314,
				"z": -0.2305045502,
				"element": "C" 
			},
			{
				"x": 0.2342914106,
				"y": -0.2074634949,
				"z": -1.2442245429,
				"element": "C" 
			},
			{
				"x": -1.1042799216,
				"y": 1.6362214796,
				"z": 1.2561934594,
				"element": "H" 
			},
			{
				"x": -1.4861665746,
				"y": -0.5192404027,
				"z": 0.0249533831,
				"element": "H" 
			},
			{
				"x": 0.1337820472,
				"y": -1.1161873009,
				"z": -1.8258083668,
				"element": "H" 
			}
		],
		 "valence_orbital": [ 
			{
				"type": "occ",
				"energy": -0.32327,
				"method": "rhf"
			},
			{
				"type": "occ",
				"energy": -0.31678,
				"method": "rhf"
			},
			{
				"type": "occ",
				"energy": -0.30043,
				"method": "rhf"
			},
			{
				"type": "occ",
				"energy": -0.29502,
				"method": "rhf"
			},
			{
				"type": "occ",
				"energy": -0.28614,
				"method": "rhf"
			},
			{
				"type": "unocc",
				"energy": -0.10236,
				"method": "rhf"
			},
			{
				"type": "unocc",
				"energy": -0.06071,
				"method": "rhf"
			},
			{
				"type": "unocc",
				"energy": -0.03207,
				"method": "rhf"
			},
			{
				"type": "unocc",
				"energy": 0.01557,
				"method": "rhf"
			},
			{
				"type": "unocc",
				"energy": 0.08128,
				"method": "rhf"
			}
		],
		"cosmo_sigma_profile": { 
			"-0.025": 0.0,
			"-0.024": 0.0,
			"-0.023": 0.0,
			"-0.022": 0.0,
			"-0.021": 0.0,
			"-0.02": 0.0,
			"-0.019": 0.0,
			"-0.018": 0.0,
			"-0.017": 0.0,
			"-0.016": 0.0,
			"-0.015": 0.0,
			"-0.014": 0.0,
			"-0.013": 0.0,
			"-0.012": 0.0,
			"-0.011": 0.0,
			"-0.01": 0.695088413487,
			"-0.009": 5.77395097027,
			"-0.008": 10.1960799595,
			"-0.007": 7.37139980844,
			"-0.006": 5.50499220685,
			"-0.005": 6.69855931652,
			"-0.004": 10.8538506958,
			"-0.003": 11.3022886454,
			"-0.002": 12.7909003612,
			"-0.001": 13.6586850381,
			"0.0": 8.30270204742,
			"0.001": 7.09582049729,
			"0.002": 7.47837197244,
			"0.003": 11.4025317204,
			"0.004": 6.71599069143,
			"0.005": 5.93362866133,
			"0.006": 7.61770876128,
			"0.007": 12.1491682855,
			"0.008": 7.54825390505,
			"0.009": 3.55071116524,
			"0.01": 0.978391163206,
			"0.011": 1.21015612713,
			"0.012": 0.637608046239,
			"0.013": 0.628356527783,
			"0.014": 0.000590897568823,
			"0.015": 0.0,
			"0.016": 0.0,
			"0.017": 0.0,
			"0.018": 0.0,
			"0.019": 0.0,
			"0.02": 0.0,
			"0.021": 0.0,
			"0.022": 0.0,
			"0.023": 0.0,
			"0.024": 0.0,
			"0.025": 0.0
		}
	}
}
