{
	 "smiles": "CC1=CC=C(C=C1)C1=NC(N)=NN=C1", 
	 "Tm": 551.15, 
	 "num_atms": 24, 
	 "gaussian": { 
		 "optdone": 1, 
		 "sigma_profile": "yes", 
		 "theory": "DFT", 
		 "functional": "B3LYP", 
		 "basiset": "6-31G**", 
		 "properties": { 
			 "R2extent": 3848.4091, 
			 "electric_dipole_moment_norm": 3.86567990139, 
			 "electric_quadrupole_moment_norm": 23.165222556, 
			 "total_energy": -606.080167161, 
			 "HOMO_LUMO_gap": 0.15481, 
			 "cosmo_polarized_energy": -13.55, 
			 "cosmo_cavitation_energy": 28.42, 
			 "cosmo_dispersion_energy": -21.21, 
			 "cosmo_repulsion_energy": 1.66, 
			 "cosmo_total_nonelectrostatic_energy": 8.87, 
			 "SMD_solvation_energy": 2.1 
		},
		"coords": [
			{
				"x": -3.4864602228,
				"y": -1.1954958356,
				"z": -1.5618403754,
				"element": "C" 
			},
			{
				"x": -2.2081656227,
				"y": -0.6917394783,
				"z": -0.9372732951,
				"element": "C" 
			},
			{
				"x": -2.0415931961,
				"y": -0.6794009989,
				"z": 0.4559165619,
				"element": "C" 
			},
			{
				"x": -0.8558627524,
				"y": -0.2439721843,
				"z": 1.0357502235,
				"element": "C" 
			},
			{
				"x": 0.2104222596,
				"y": 0.2069153431,
				"z": 0.2393176074,
				"element": "C" 
			},
			{
				"x": 0.0481525512,
				"y": 0.1948240514,
				"z": -1.1553610121,
				"element": "C" 
			},
			{
				"x": -1.1413175374,
				"y": -0.2470373308,
				"z": -1.7289911575,
				"element": "C" 
			},
			{
				"x": 1.4593993535,
				"y": 0.6750999248,
				"z": 0.8812296373,
				"element": "C" 
			},
			{
				"x": 1.6311473271,
				"y": 0.4147812849,
				"z": 2.1799500205,
				"element": "N" 
			},
			{
				"x": 2.7804493931,
				"y": 0.8574181551,
				"z": 2.7199128286,
				"element": "C" 
			},
			{
				"x": 3.0082291479,
				"y": 0.5732115783,
				"z": 4.0314355265,
				"element": "N" 
			},
			{
				"x": 3.7575076719,
				"y": 1.5430765326,
				"z": 2.0817894043,
				"element": "N" 
			},
			{
				"x": 3.5710968125,
				"y": 1.8081684817,
				"z": 0.7967889639,
				"element": "N" 
			},
			{
				"x": 2.4600281559,
				"y": 1.392417012,
				"z": 0.1917630992,
				"element": "C" 
			},
			{
				"x": -4.3591999109,
				"y": -0.9273625219,
				"z": -0.9584006411,
				"element": "H" 
			},
			{
				"x": -3.4773296866,
				"y": -2.2893633213,
				"z": -1.6488316439,
				"element": "H" 
			},
			{
				"x": -3.6293514612,
				"y": -0.7893951081,
				"z": -2.5672769772,
				"element": "H" 
			},
			{
				"x": -2.8560988049,
				"y": -1.0148772347,
				"z": 1.0933584455,
				"element": "H" 
			},
			{
				"x": -0.7349309549,
				"y": -0.2403037116,
				"z": 2.1130986818,
				"element": "H" 
			},
			{
				"x": 0.8550415757,
				"y": 0.5148544751,
				"z": -1.8062128885,
				"element": "H" 
			},
			{
				"x": -1.2418772047,
				"y": -0.2493379822,
				"z": -2.8113194409,
				"element": "H" 
			},
			{
				"x": 2.232227571,
				"y": 0.2515357652,
				"z": 4.5863325794,
				"element": "H" 
			},
			{
				"x": 3.7713604307,
				"y": 1.0521191279,
				"z": 4.4822070833,
				"element": "H" 
			},
			{
				"x": 2.3697251045,
				"y": 1.6654639757,
				"z": -0.8531432314,
				"element": "H" 
			}
		],
		 "valence_orbital": [ 
			{
				"type": "occ",
				"energy": -0.30844,
				"method": "rhf"
			},
			{
				"type": "occ",
				"energy": -0.25892,
				"method": "rhf"
			},
			{
				"type": "occ",
				"energy": -0.24912,
				"method": "rhf"
			},
			{
				"type": "occ",
				"energy": -0.22998,
				"method": "rhf"
			},
			{
				"type": "occ",
				"energy": -0.22159,
				"method": "rhf"
			},
			{
				"type": "unocc",
				"energy": -0.06678,
				"method": "rhf"
			},
			{
				"type": "unocc",
				"energy": -0.02299,
				"method": "rhf"
			},
			{
				"type": "unocc",
				"energy": -0.00497,
				"method": "rhf"
			},
			{
				"type": "unocc",
				"energy": 0.02554,
				"method": "rhf"
			},
			{
				"type": "unocc",
				"energy": 0.08603,
				"method": "rhf"
			}
		],
		"cosmo_sigma_profile": { 
			"-0.025": 0.0,
			"-0.024": 0.0,
			"-0.023": 0.0,
			"-0.022": 0.0,
			"-0.021": 0.0,
			"-0.02": 0.0,
			"-0.019": 0.0,
			"-0.018": 0.0,
			"-0.017": 0.0,
			"-0.016": 0.0,
			"-0.015": 0.0735327788529,
			"-0.014": 1.5735017844,
			"-0.013": 2.48957008162,
			"-0.012": 1.75045785685,
			"-0.011": 1.87044731421,
			"-0.01": 2.09057802782,
			"-0.009": 3.24191918121,
			"-0.008": 3.95127075012,
			"-0.007": 4.07918894934,
			"-0.006": 5.78771823766,
			"-0.005": 12.459537446,
			"-0.004": 16.9667661497,
			"-0.003": 16.8122960593,
			"-0.002": 17.6247251941,
			"-0.001": 21.2555412863,
			"0.0": 19.7839038091,
			"0.001": 15.2699222748,
			"0.002": 11.905554585,
			"0.003": 13.9277313311,
			"0.004": 16.6145292186,
			"0.005": 9.35944278908,
			"0.006": 4.11915189985,
			"0.007": 4.24772680105,
			"0.008": 3.27813331912,
			"0.009": 2.81176412661,
			"0.01": 1.63347895238,
			"0.011": 2.12809704406,
			"0.012": 2.2494934713,
			"0.013": 3.22204910026,
			"0.014": 2.3808122768,
			"0.015": 1.88084575959,
			"0.016": 0.490131021738,
			"0.017": 0.0,
			"0.018": 0.0,
			"0.019": 0.0,
			"0.02": 0.0,
			"0.021": 0.0,
			"0.022": 0.0,
			"0.023": 0.0,
			"0.024": 0.0,
			"0.025": 0.0
		}
	}
}
