{
	 "smiles": "CC1=CC=C(C=C1)S(=O)(=O)OC1CS(=O)(=O)C=C1", 
	 "Tm": 410.15, 
	 "num_atms": 30, 
	 "gaussian": { 
		 "optdone": 1, 
		 "sigma_profile": "yes", 
		 "theory": "DFT", 
		 "functional": "B3LYP", 
		 "basiset": "6-31G**", 
		 "properties": { 
			 "R2extent": 6590.776, 
			 "electric_dipole_moment_norm": 8.63337769416, 
			 "electric_quadrupole_moment_norm": 19.9229656399, 
			 "total_energy": -1598.72887659, 
			 "HOMO_LUMO_gap": 0.21874, 
			 "cosmo_polarized_energy": -23.33, 
			 "cosmo_cavitation_energy": 36.38, 
			 "cosmo_dispersion_energy": -26.76, 
			 "cosmo_repulsion_energy": 1.98, 
			 "cosmo_total_nonelectrostatic_energy": 11.6, 
			 "SMD_solvation_energy": 4.68 
		},
		"coords": [
			{
				"x": -0.2543396239,
				"y": -1.1385990861,
				"z": 5.0861405755,
				"element": "C" 
			},
			{
				"x": -0.1621087172,
				"y": -1.1168423421,
				"z": 3.580056364,
				"element": "C" 
			},
			{
				"x": -0.8891573267,
				"y": -0.1858970428,
				"z": 2.8262188957,
				"element": "C" 
			},
			{
				"x": -0.8271224221,
				"y": -0.1779896434,
				"z": 1.4326900006,
				"element": "C" 
			},
			{
				"x": -0.0208279134,
				"y": -1.1170834768,
				"z": 0.7893016822,
				"element": "C" 
			},
			{
				"x": 0.709399877,
				"y": -2.0652420648,
				"z": 1.5121529138,
				"element": "C" 
			},
			{
				"x": 0.6365845933,
				"y": -2.0523046017,
				"z": 2.9011214207,
				"element": "C" 
			},
			{
				"x": 0.0508035941,
				"y": -1.13524818,
				"z": -0.9931504532,
				"element": "S" 
			},
			{
				"x": -0.9086412356,
				"y": -0.1635726346,
				"z": -1.5161122525,
				"element": "O" 
			},
			{
				"x": 0.0838986214,
				"y": -2.5155687836,
				"z": -1.4498286125,
				"element": "O" 
			},
			{
				"x": 1.5900330672,
				"y": -0.5932022406,
				"z": -1.3008446541,
				"element": "O" 
			},
			{
				"x": 1.8869822606,
				"y": 0.7904800985,
				"z": -1.6058297072,
				"element": "C" 
			},
			{
				"x": 1.3858728855,
				"y": 1.2474428311,
				"z": -2.9866680566,
				"element": "C" 
			},
			{
				"x": 1.1386696272,
				"y": 3.0580453305,
				"z": -2.8323536725,
				"element": "S" 
			},
			{
				"x": -0.1422313574,
				"y": 3.4732330864,
				"z": -3.4145245842,
				"element": "O" 
			},
			{
				"x": 2.3782439261,
				"y": 3.7554608516,
				"z": -3.2097814692,
				"element": "O" 
			},
			{
				"x": 1.0316715409,
				"y": 2.9820050626,
				"z": -1.0486323138,
				"element": "C" 
			},
			{
				"x": 1.4087693007,
				"y": 1.7960774449,
				"z": -0.5780925801,
				"element": "C" 
			},
			{
				"x": 0.7222721371,
				"y": -1.325140635,
				"z": 5.5433088532,
				"element": "H" 
			},
			{
				"x": -0.9269495078,
				"y": -1.9366994573,
				"z": 5.4230728251,
				"element": "H" 
			},
			{
				"x": -0.6412331965,
				"y": -0.1945880353,
				"z": 5.4785599678,
				"element": "H" 
			},
			{
				"x": -1.5180350305,
				"y": 0.5399237154,
				"z": 3.3342935339,
				"element": "H" 
			},
			{
				"x": -1.3981914374,
				"y": 0.5348196118,
				"z": 0.8481241695,
				"element": "H" 
			},
			{
				"x": 1.3137804984,
				"y": -2.8010955022,
				"z": 0.9928190301,
				"element": "H" 
			},
			{
				"x": 1.2039009595,
				"y": -2.7838071562,
				"z": 3.4702035836,
				"element": "H" 
			},
			{
				"x": 2.9825348081,
				"y": 0.7798921204,
				"z": -1.5904470542,
				"element": "H" 
			},
			{
				"x": 0.4111935827,
				"y": 0.8144839733,
				"z": -3.2089554103,
				"element": "H" 
			},
			{
				"x": 2.0945924511,
				"y": 1.0684355245,
				"z": -3.7953328397,
				"element": "H" 
			},
			{
				"x": 0.7283584525,
				"y": 3.8628387345,
				"z": -0.4962922775,
				"element": "H" 
			},
			{
				"x": 1.4583755852,
				"y": 1.5509424968,
				"z": 0.4779821218,
				"element": "H" 
			}
		],
		 "valence_orbital": [ 
			{
				"type": "occ",
				"energy": -0.30937,
				"method": "rhf"
			},
			{
				"type": "occ",
				"energy": -0.2931,
				"method": "rhf"
			},
			{
				"type": "occ",
				"energy": -0.28683,
				"method": "rhf"
			},
			{
				"type": "occ",
				"energy": -0.28408,
				"method": "rhf"
			},
			{
				"type": "occ",
				"energy": -0.27681,
				"method": "rhf"
			},
			{
				"type": "unocc",
				"energy": -0.05807,
				"method": "rhf"
			},
			{
				"type": "unocc",
				"energy": -0.04744,
				"method": "rhf"
			},
			{
				"type": "unocc",
				"energy": -0.03502,
				"method": "rhf"
			},
			{
				"type": "unocc",
				"energy": 0.01972,
				"method": "rhf"
			},
			{
				"type": "unocc",
				"energy": 0.04881,
				"method": "rhf"
			}
		],
		"cosmo_sigma_profile": { 
			"-0.025": 0.0,
			"-0.024": 0.0,
			"-0.023": 0.0,
			"-0.022": 0.0,
			"-0.021": 0.0,
			"-0.02": 0.0,
			"-0.019": 0.0,
			"-0.018": 0.0,
			"-0.017": 0.0,
			"-0.016": 0.0,
			"-0.015": 0.0,
			"-0.014": 0.0,
			"-0.013": 0.0,
			"-0.012": 0.0314416801591,
			"-0.011": 1.915526072,
			"-0.01": 5.62124641945,
			"-0.009": 9.17198176995,
			"-0.008": 8.67188479781,
			"-0.007": 13.856994279,
			"-0.006": 18.4436875516,
			"-0.005": 20.9058499642,
			"-0.004": 18.5590152787,
			"-0.003": 18.7540688059,
			"-0.002": 17.1156646013,
			"-0.001": 19.9444136499,
			"0.0": 18.9564459836,
			"0.001": 15.8155365116,
			"0.002": 17.1763941111,
			"0.003": 11.0140919899,
			"0.004": 5.45785896794,
			"0.005": 6.02711312594,
			"0.006": 5.01527080962,
			"0.007": 5.26248978612,
			"0.008": 8.89583805383,
			"0.009": 11.247875493,
			"0.01": 13.4841224367,
			"0.011": 14.2803777044,
			"0.012": 4.82370633235,
			"0.013": 0.032543411773,
			"0.014": 0.0,
			"0.015": 0.0,
			"0.016": 0.0,
			"0.017": 0.0,
			"0.018": 0.0,
			"0.019": 0.0,
			"0.02": 0.0,
			"0.021": 0.0,
			"0.022": 0.0,
			"0.023": 0.0,
			"0.024": 0.0,
			"0.025": 0.0
		}
	}
}
