{
	 "smiles": "COC(=O)C1=NC=CC=C1", 
	 "Tm": 291.85, 
	 "num_atms": 17, 
	 "gaussian": { 
		 "optdone": 1, 
		 "sigma_profile": "yes", 
		 "theory": "DFT", 
		 "functional": "B3LYP", 
		 "basiset": "6-31G**", 
		 "properties": { 
			 "R2extent": 1814.1864, 
			 "electric_dipole_moment_norm": 1.66245406854, 
			 "electric_quadrupole_moment_norm": 13.0010087436, 
			 "total_energy": -476.16173934, 
			 "HOMO_LUMO_gap": 0.20073, 
			 "cosmo_polarized_energy": -10.27, 
			 "cosmo_cavitation_energy": 21.8, 
			 "cosmo_dispersion_energy": -16.23, 
			 "cosmo_repulsion_energy": 1.32, 
			 "cosmo_total_nonelectrostatic_energy": 6.89, 
			 "SMD_solvation_energy": 4.37 
		},
		"coords": [
			{
				"x": 2.2748732575,
				"y": -2.255423298,
				"z": 1.5762988848,
				"element": "C" 
			},
			{
				"x": 1.3565322107,
				"y": -1.3781183101,
				"z": 0.9064007991,
				"element": "O" 
			},
			{
				"x": 1.0923493695,
				"y": -0.2335020869,
				"z": 1.5530364305,
				"element": "C" 
			},
			{
				"x": 1.5787064587,
				"y": 0.0676061882,
				"z": 2.6275692558,
				"element": "O" 
			},
			{
				"x": 0.1272479772,
				"y": 0.6529849163,
				"z": 0.8144510573,
				"element": "C" 
			},
			{
				"x": -0.3584510125,
				"y": 0.2405164406,
				"z": -0.364732641,
				"element": "N" 
			},
			{
				"x": -1.212552429,
				"y": 1.0520233833,
				"z": -0.9930226395,
				"element": "C" 
			},
			{
				"x": -1.6178938128,
				"y": 2.2912378891,
				"z": -0.4879904308,
				"element": "C" 
			},
			{
				"x": -1.1054268179,
				"y": 2.7085502905,
				"z": 0.7393976769,
				"element": "C" 
			},
			{
				"x": -0.2132355728,
				"y": 1.8740007607,
				"z": 1.4080618447,
				"element": "C" 
			},
			{
				"x": 3.2414550842,
				"y": -1.7653485626,
				"z": 1.719681957,
				"element": "H" 
			},
			{
				"x": 1.8836045454,
				"y": -2.5499501139,
				"z": 2.5536316362,
				"element": "H" 
			},
			{
				"x": 2.376828557,
				"y": -3.1234366678,
				"z": 0.925653269,
				"element": "H" 
			},
			{
				"x": -1.5947094255,
				"y": 0.6977430919,
				"z": -1.9488093466,
				"element": "H" 
			},
			{
				"x": -2.3160829144,
				"y": 2.9068438178,
				"z": -1.0465325655,
				"element": "H" 
			},
			{
				"x": -1.3945832135,
				"y": 3.6640998663,
				"z": 1.1669823949,
				"element": "H" 
			},
			{
				"x": 0.2230377382,
				"y": 2.1356723945,
				"z": 2.3649224171,
				"element": "H" 
			}
		],
		 "valence_orbital": [ 
			{
				"type": "occ",
				"energy": -0.30073,
				"method": "rhf"
			},
			{
				"type": "occ",
				"energy": -0.29422,
				"method": "rhf"
			},
			{
				"type": "occ",
				"energy": -0.28331,
				"method": "rhf"
			},
			{
				"type": "occ",
				"energy": -0.26968,
				"method": "rhf"
			},
			{
				"type": "occ",
				"energy": -0.25589,
				"method": "rhf"
			},
			{
				"type": "unocc",
				"energy": -0.05516,
				"method": "rhf"
			},
			{
				"type": "unocc",
				"energy": -0.02658,
				"method": "rhf"
			},
			{
				"type": "unocc",
				"energy": 0.05231,
				"method": "rhf"
			},
			{
				"type": "unocc",
				"energy": 0.09254,
				"method": "rhf"
			},
			{
				"type": "unocc",
				"energy": 0.11749,
				"method": "rhf"
			}
		],
		"cosmo_sigma_profile": { 
			"-0.025": 0.0,
			"-0.024": 0.0,
			"-0.023": 0.0,
			"-0.022": 0.0,
			"-0.021": 0.0,
			"-0.02": 0.0,
			"-0.019": 0.0,
			"-0.018": 0.0,
			"-0.017": 0.0,
			"-0.016": 0.0,
			"-0.015": 0.0,
			"-0.014": 0.0,
			"-0.013": 0.0,
			"-0.012": 0.0,
			"-0.011": 0.0,
			"-0.01": 0.0,
			"-0.009": 0.0,
			"-0.008": 1.72956881138,
			"-0.007": 8.89040707911,
			"-0.006": 14.4897652813,
			"-0.005": 14.8006048135,
			"-0.004": 14.447027688,
			"-0.003": 16.9547255734,
			"-0.002": 10.3339643285,
			"-0.001": 10.3203420785,
			"0.0": 14.4261554111,
			"0.001": 17.3130068045,
			"0.002": 10.5662824482,
			"0.003": 4.43219951778,
			"0.004": 3.66474251053,
			"0.005": 3.09867023716,
			"0.006": 2.99378785171,
			"0.007": 3.58780300879,
			"0.008": 3.18079811756,
			"0.009": 2.67293711422,
			"0.01": 3.06336687977,
			"0.011": 4.8085537634,
			"0.012": 4.0259369792,
			"0.013": 1.39332554287,
			"0.014": 1.14129254551,
			"0.015": 0.872605619966,
			"0.016": 1.10600183032,
			"0.017": 0.434856802678,
			"0.018": 0.0,
			"0.019": 0.0,
			"0.02": 0.0,
			"0.021": 0.0,
			"0.022": 0.0,
			"0.023": 0.0,
			"0.024": 0.0,
			"0.025": 0.0
		}
	}
}
