{
	 "smiles": "CN(C)C1=CC(I)=C(CC2=CC=C(C=C2C=CC(C)=O)N(C)C)C=C1", 
	 "Tm": 437.5, 
	 "num_atms": 50, 
	 "gaussian": { 
		 "optdone": 1, 
		 "sigma_profile": "no", 
		 "theory": "DFT", 
		 "functional": "B3LYP", 
		 "basiset": "6-31G**", 
		 "properties": { 
			 "R2extent": 11097.6352, 
			 "electric_dipole_moment_norm": 4.4282807883, 
			 "electric_quadrupole_moment_norm": 31.3292094396, 
			 "total_energy": -1011.3845593, 
			 "HOMO_LUMO_gap": 0.14025, 
			 "cosmo_polarized_energy": -85006.71, 
			 "cosmo_cavitation_energy": 54.02, 
			 "cosmo_dispersion_energy": -36.32, 
			 "cosmo_repulsion_energy": 2.75, 
			 "cosmo_total_nonelectrostatic_energy": 20.45, 
			 "SMD_solvation_energy": 7.83 
		},
		"coords": [
			{
				"x": -0.5667169478,
				"y": 3.4609676961,
				"z": 3.8296200003,
				"element": "C" 
			},
			{
				"x": -1.7963973593,
				"y": 3.0739314388,
				"z": 3.1578530232,
				"element": "N" 
			},
			{
				"x": -3.0396408859,
				"y": 3.1504882964,
				"z": 3.9071087431,
				"element": "C" 
			},
			{
				"x": -1.7245642158,
				"y": 2.2486165105,
				"z": 2.0429512012,
				"element": "C" 
			},
			{
				"x": -2.8830714945,
				"y": 1.6557952899,
				"z": 1.4943355305,
				"element": "C" 
			},
			{
				"x": -2.7987907761,
				"y": 0.8496743706,
				"z": 0.3606681745,
				"element": "C" 
			},
			{
				"x": -4.657519337,
				"y": 0.0662713206,
				"z": -0.3591884422,
				"element": "I" 
			},
			{
				"x": -1.5924543428,
				"y": 0.5611850469,
				"z": -0.2908074719,
				"element": "C" 
			},
			{
				"x": -1.4892574531,
				"y": -0.294147166,
				"z": -1.5477941373,
				"element": "C" 
			},
			{
				"x": -0.1453478511,
				"y": -0.9472918488,
				"z": -1.7935793993,
				"element": "C" 
			},
			{
				"x": 0.7292332355,
				"y": -0.4309755528,
				"z": -2.7541050739,
				"element": "C" 
			},
			{
				"x": 1.97050506,
				"y": -0.9995893726,
				"z": -3.023876108,
				"element": "C" 
			},
			{
				"x": 2.3956465675,
				"y": -2.155519563,
				"z": -2.3332056008,
				"element": "C" 
			},
			{
				"x": 1.5253892785,
				"y": -2.6694767063,
				"z": -1.3471024396,
				"element": "C" 
			},
			{
				"x": 0.2846031658,
				"y": -2.0813026392,
				"z": -1.0665295331,
				"element": "C" 
			},
			{
				"x": -0.6059531906,
				"y": -2.7217510182,
				"z": -0.0738986704,
				"element": "C" 
			},
			{
				"x": -0.3449267346,
				"y": -3.1369652127,
				"z": 1.1806872308,
				"element": "C" 
			},
			{
				"x": 0.8538605788,
				"y": -2.9433910162,
				"z": 2.0497560242,
				"element": "C" 
			},
			{
				"x": 1.7453631065,
				"y": -1.7246154977,
				"z": 1.8877894392,
				"element": "C" 
			},
			{
				"x": 1.047281222,
				"y": -3.740721046,
				"z": 2.9583081084,
				"element": "O" 
			},
			{
				"x": 3.6044771225,
				"y": -2.7748253229,
				"z": -2.6248975492,
				"element": "N" 
			},
			{
				"x": 4.5538446644,
				"y": -2.1030289142,
				"z": -3.4953572291,
				"element": "C" 
			},
			{
				"x": 4.0938000688,
				"y": -3.8330453415,
				"z": -1.7571213782,
				"element": "C" 
			},
			{
				"x": -0.4549659783,
				"y": 1.1595350259,
				"z": 0.2726331483,
				"element": "C" 
			},
			{
				"x": -0.4987888502,
				"y": 1.9712910081,
				"z": 1.3993264796,
				"element": "C" 
			},
			{
				"x": 0.0021506631,
				"y": 2.6001043513,
				"z": 4.2146843309,
				"element": "H" 
			},
			{
				"x": -0.8097746333,
				"y": 4.1127064741,
				"z": 4.6702056795,
				"element": "H" 
			},
			{
				"x": 0.0884541802,
				"y": 4.0257254395,
				"z": 3.1568362971,
				"element": "H" 
			},
			{
				"x": -3.3491407014,
				"y": 2.1806412223,
				"z": 4.3274952144,
				"element": "H" 
			},
			{
				"x": -2.9169773244,
				"y": 3.8557363035,
				"z": 4.730518123,
				"element": "H" 
			},
			{
				"x": -3.8556695308,
				"y": 3.5220915857,
				"z": 3.277156282,
				"element": "H" 
			},
			{
				"x": -3.8491331638,
				"y": 1.8188429323,
				"z": 1.9499362028,
				"element": "H" 
			},
			{
				"x": -1.7396266881,
				"y": 0.3262391475,
				"z": -2.4192042895,
				"element": "H" 
			},
			{
				"x": -2.2706207606,
				"y": -1.0609541124,
				"z": -1.5104857931,
				"element": "H" 
			},
			{
				"x": 0.4292491021,
				"y": 0.4506115397,
				"z": -3.3161052428,
				"element": "H" 
			},
			{
				"x": 2.595724707,
				"y": -0.5491491419,
				"z": -3.7846509279,
				"element": "H" 
			},
			{
				"x": 1.7899276619,
				"y": -3.5660338915,
				"z": -0.8010217384,
				"element": "H" 
			},
			{
				"x": -1.6116595973,
				"y": -2.9328947177,
				"z": -0.4401681886,
				"element": "H" 
			},
			{
				"x": -1.1130737566,
				"y": -3.7157312817,
				"z": 1.6898435185,
				"element": "H" 
			},
			{
				"x": 2.3126982546,
				"y": -1.7636215079,
				"z": 0.954943387,
				"element": "H" 
			},
			{
				"x": 1.1392358196,
				"y": -0.8130016641,
				"z": 1.8537235246,
				"element": "H" 
			},
			{
				"x": 2.4330711735,
				"y": -1.6876430362,
				"z": 2.7344613699,
				"element": "H" 
			},
			{
				"x": 5.4296107008,
				"y": -2.7400344618,
				"z": -3.6281595104,
				"element": "H" 
			},
			{
				"x": 4.1230826606,
				"y": -1.9270367347,
				"z": -4.4878442455,
				"element": "H" 
			},
			{
				"x": 4.8921417685,
				"y": -1.1334774037,
				"z": -3.0965913474,
				"element": "H" 
			},
			{
				"x": 5.0395192628,
				"y": -4.208665031,
				"z": -2.1506943029,
				"element": "H" 
			},
			{
				"x": 4.2626497514,
				"y": -3.4973931216,
				"z": -0.7217990669,
				"element": "H" 
			},
			{
				"x": 3.3938182805,
				"y": -4.6756378721,
				"z": -1.7275840677,
				"element": "H" 
			},
			{
				"x": 0.5066245705,
				"y": 0.9704487945,
				"z": -0.1950358953,
				"element": "H" 
			},
			{
				"x": 0.4277089459,
				"y": 2.3884164022,
				"z": 1.7736666163,
				"element": "H" 
			}
		],
		 "valence_orbital": [ 
			{
				"type": "occ",
				"energy": -0.23997,
				"method": "rhf"
			},
			{
				"type": "occ",
				"energy": -0.23359,
				"method": "rhf"
			},
			{
				"type": "occ",
				"energy": -0.23071,
				"method": "rhf"
			},
			{
				"type": "occ",
				"energy": -0.19539,
				"method": "rhf"
			},
			{
				"type": "occ",
				"energy": -0.19097,
				"method": "rhf"
			},
			{
				"type": "unocc",
				"energy": -0.05072,
				"method": "rhf"
			},
			{
				"type": "unocc",
				"energy": -0.03087,
				"method": "rhf"
			},
			{
				"type": "unocc",
				"energy": -0.00858,
				"method": "rhf"
			},
			{
				"type": "unocc",
				"energy": 0.00385,
				"method": "rhf"
			},
			{
				"type": "unocc",
				"energy": 0.01023,
				"method": "rhf"
			}
		],
		"cosmo_sigma_profile": { 
			"0.0": 0.0,
			"0.0": 0.0,
			"0.0": 0.0,
			"0.0": 0.0,
			"0.0": 0.0,
			"0.0": 0.0,
			"0.0": 0.0,
			"0.0": 0.0,
			"0.0": 0.0,
			"0.0": 0.0,
			"0.0": 0.0,
			"0.0": 0.0,
			"0.0": 0.0,
			"0.0": 0.0,
			"0.0": 0.0,
			"0.0": 0.0,
			"0.0": 0.0,
			"0.0": 0.0,
			"0.0": 0.0,
			"0.0": 0.0,
			"0.0": 0.0,
			"0.0": 0.0,
			"0.0": 0.0,
			"0.0": 0.0,
			"0.0": 0.0,
			"0.0": 0.0,
			"0.0": 0.0,
			"0.0": 0.0,
			"0.0": 0.0,
			"0.0": 0.0,
			"0.0": 0.0,
			"0.0": 0.0,
			"0.0": 0.0,
			"0.0": 0.0,
			"0.0": 0.0,
			"0.0": 0.0,
			"0.0": 0.0,
			"0.0": 0.0,
			"0.0": 0.0,
			"0.0": 0.0,
			"0.0": 0.0,
			"0.0": 0.0,
			"0.0": 0.0,
			"0.0": 0.0,
			"0.0": 0.0,
			"0.0": 0.0,
			"0.0": 0.0,
			"0.0": 0.0,
			"0.0": 0.0,
			"0.0": 0.0,
			"0.0": 0.0
		}
	}
}
