{
	 "smiles": "O=CC1=CC=C(C=C1)C1=NC=CS1", 
	 "Tm": 363.65, 
	 "num_atms": 20, 
	 "gaussian": { 
		 "optdone": 1, 
		 "sigma_profile": "yes", 
		 "theory": "DFT", 
		 "functional": "B3LYP", 
		 "basiset": "6-31G**", 
		 "properties": { 
			 "R2extent": 3656.8992, 
			 "electric_dipole_moment_norm": 3.56312526443, 
			 "electric_quadrupole_moment_norm": 10.9332857591, 
			 "total_energy": -913.431891588, 
			 "HOMO_LUMO_gap": 0.15141, 
			 "cosmo_polarized_energy": -9.77, 
			 "cosmo_cavitation_energy": 26.67, 
			 "cosmo_dispersion_energy": -20.2, 
			 "cosmo_repulsion_energy": 1.51, 
			 "cosmo_total_nonelectrostatic_energy": 7.98, 
			 "SMD_solvation_energy": 4.44 
		},
		"coords": [
			{
				"x": 3.0283229344,
				"y": -2.7228967944,
				"z": 1.8057615459,
				"element": "O" 
			},
			{
				"x": 2.732820741,
				"y": -2.2768932884,
				"z": 0.7126929784,
				"element": "C" 
			},
			{
				"x": 1.7387879912,
				"y": -1.2055806653,
				"z": 0.4842354018,
				"element": "C" 
			},
			{
				"x": 1.4682418117,
				"y": -0.7608949009,
				"z": -0.8174195172,
				"element": "C" 
			},
			{
				"x": 0.5361581156,
				"y": 0.2448068351,
				"z": -1.0407558581,
				"element": "C" 
			},
			{
				"x": -0.1470435138,
				"y": 0.8279724009,
				"z": 0.0425005232,
				"element": "C" 
			},
			{
				"x": 0.12807181,
				"y": 0.3779151769,
				"z": 1.348705434,
				"element": "C" 
			},
			{
				"x": 1.0594088263,
				"y": -0.6264080682,
				"z": 1.567101963,
				"element": "C" 
			},
			{
				"x": -1.1257396811,
				"y": 1.8883803026,
				"z": -0.227474083,
				"element": "C" 
			},
			{
				"x": -1.4072619191,
				"y": 2.3321260332,
				"z": -1.4272773129,
				"element": "N" 
			},
			{
				"x": -2.3533694857,
				"y": 3.3204283987,
				"z": -1.3914505288,
				"element": "C" 
			},
			{
				"x": -2.8214510475,
				"y": 3.6581942382,
				"z": -0.1516561274,
				"element": "C" 
			},
			{
				"x": -2.0422435365,
				"y": 2.6922202741,
				"z": 1.0524361225,
				"element": "S" 
			},
			{
				"x": 3.2130422662,
				"y": -2.667419638,
				"z": -0.2121946564,
				"element": "H" 
			},
			{
				"x": 1.9942543037,
				"y": -1.209133967,
				"z": -1.657312448,
				"element": "H" 
			},
			{
				"x": 0.3179719533,
				"y": 0.5974519894,
				"z": -2.0423551403,
				"element": "H" 
			},
			{
				"x": -0.3902851574,
				"y": 0.8171372044,
				"z": 2.1964530557,
				"element": "H" 
			},
			{
				"x": 1.280668008,
				"y": -0.982251911,
				"z": 2.5683047883,
				"element": "H" 
			},
			{
				"x": -2.6789897384,
				"y": 3.7767001963,
				"z": -2.3190481981,
				"element": "H" 
			},
			{
				"x": -3.5602646821,
				"y": 4.4004461835,
				"z": 0.1142520574,
				"element": "H" 
			}
		],
		 "valence_orbital": [ 
			{
				"type": "occ",
				"energy": -0.28932,
				"method": "rhf"
			},
			{
				"type": "occ",
				"energy": -0.2853,
				"method": "rhf"
			},
			{
				"type": "occ",
				"energy": -0.27051,
				"method": "rhf"
			},
			{
				"type": "occ",
				"energy": -0.25689,
				"method": "rhf"
			},
			{
				"type": "occ",
				"energy": -0.23528,
				"method": "rhf"
			},
			{
				"type": "unocc",
				"energy": -0.08387,
				"method": "rhf"
			},
			{
				"type": "unocc",
				"energy": -0.02752,
				"method": "rhf"
			},
			{
				"type": "unocc",
				"energy": -0.01645,
				"method": "rhf"
			},
			{
				"type": "unocc",
				"energy": 0.01053,
				"method": "rhf"
			},
			{
				"type": "unocc",
				"energy": 0.02908,
				"method": "rhf"
			}
		],
		"cosmo_sigma_profile": { 
			"-0.025": 0.0,
			"-0.024": 0.0,
			"-0.023": 0.0,
			"-0.022": 0.0,
			"-0.021": 0.0,
			"-0.02": 0.0,
			"-0.019": 0.0,
			"-0.018": 0.0,
			"-0.017": 0.0,
			"-0.016": 0.0,
			"-0.015": 0.0,
			"-0.014": 0.0,
			"-0.013": 0.0,
			"-0.012": 0.0,
			"-0.011": 0.0,
			"-0.01": 0.550874455208,
			"-0.009": 2.24398760258,
			"-0.008": 5.31102699856,
			"-0.007": 10.7404725514,
			"-0.006": 13.4929421271,
			"-0.005": 13.9893036101,
			"-0.004": 11.9072454423,
			"-0.003": 10.6882033719,
			"-0.002": 12.1278185885,
			"-0.001": 14.6454776271,
			"0.0": 18.9289157842,
			"0.001": 22.9203559,
			"0.002": 28.3378054103,
			"0.003": 17.3147938916,
			"0.004": 5.16282135707,
			"0.005": 4.10709367715,
			"0.006": 2.30700833672,
			"0.007": 2.74577636208,
			"0.008": 3.37112190529,
			"0.009": 3.77733313264,
			"0.01": 3.8348169111,
			"0.011": 4.95698275621,
			"0.012": 3.65889919021,
			"0.013": 0.618426485725,
			"0.014": 0.0,
			"0.015": 0.0,
			"0.016": 0.0,
			"0.017": 0.0,
			"0.018": 0.0,
			"0.019": 0.0,
			"0.02": 0.0,
			"0.021": 0.0,
			"0.022": 0.0,
			"0.023": 0.0,
			"0.024": 0.0,
			"0.025": 0.0
		}
	}
}
