{
	 "smiles": "CC1=NN(C(C)=C1)C1=C(N)C=CC=C1", 
	 "Tm": 355.15, 
	 "num_atms": 27, 
	 "gaussian": { 
		 "optdone": 1, 
		 "sigma_profile": "yes", 
		 "theory": "DFT", 
		 "functional": "B3LYP", 
		 "basiset": "6-31G**", 
		 "properties": { 
			 "R2extent": 2992.4058, 
			 "electric_dipole_moment_norm": 0.70140839744, 
			 "electric_quadrupole_moment_norm": 8.84841235816, 
			 "total_energy": -591.260225898, 
			 "HOMO_LUMO_gap": 0.18813, 
			 "cosmo_polarized_energy": -9.41, 
			 "cosmo_cavitation_energy": 29.9, 
			 "cosmo_dispersion_energy": -21.61, 
			 "cosmo_repulsion_energy": 1.71, 
			 "cosmo_total_nonelectrostatic_energy": 10.0, 
			 "SMD_solvation_energy": 4.56 
		},
		"coords": [
			{
				"x": 1.0072435066,
				"y": -3.7946474628,
				"z": -1.6251725818,
				"element": "C" 
			},
			{
				"x": 0.3593451345,
				"y": -2.6109846445,
				"z": -0.9733609184,
				"element": "C" 
			},
			{
				"x": 1.1041218147,
				"y": -1.6385705061,
				"z": -0.4485478062,
				"element": "N" 
			},
			{
				"x": 0.2145825984,
				"y": -0.7285018975,
				"z": 0.0535635538,
				"element": "N" 
			},
			{
				"x": -1.0846030117,
				"y": -1.1143642058,
				"z": -0.1610565664,
				"element": "C" 
			},
			{
				"x": -2.2787400922,
				"y": -0.3017832805,
				"z": 0.2313067471,
				"element": "C" 
			},
			{
				"x": -1.018080114,
				"y": -2.3315537353,
				"z": -0.8145263224,
				"element": "C" 
			},
			{
				"x": 0.6963451809,
				"y": 0.4530700492,
				"z": 0.6929088627,
				"element": "C" 
			},
			{
				"x": 1.6629801117,
				"y": 1.258932968,
				"z": 0.0416086363,
				"element": "C" 
			},
			{
				"x": 2.1389530693,
				"y": 0.9280343119,
				"z": -1.2175219563,
				"element": "N" 
			},
			{
				"x": 2.0783003871,
				"y": 2.4331769279,
				"z": 0.6959119805,
				"element": "C" 
			},
			{
				"x": 1.5647825082,
				"y": 2.7928541902,
				"z": 1.9380513293,
				"element": "C" 
			},
			{
				"x": 0.6287817057,
				"y": 1.9800496349,
				"z": 2.5804890967,
				"element": "C" 
			},
			{
				"x": 0.2116676912,
				"y": 0.8070604995,
				"z": 1.9534984171,
				"element": "C" 
			},
			{
				"x": 2.0942976069,
				"y": -3.6934725975,
				"z": -1.5868005687,
				"element": "H" 
			},
			{
				"x": 0.7315327651,
				"y": -4.7280081804,
				"z": -1.1216856835,
				"element": "H" 
			},
			{
				"x": 0.7046547426,
				"y": -3.8895109708,
				"z": -2.6741675563,
				"element": "H" 
			},
			{
				"x": -2.1018608323,
				"y": 0.7675729136,
				"z": 0.0855031165,
				"element": "H" 
			},
			{
				"x": -2.5577093409,
				"y": -0.4474670927,
				"z": 1.2811951211,
				"element": "H" 
			},
			{
				"x": -3.1350650056,
				"y": -0.5965564395,
				"z": -0.3802562907,
				"element": "H" 
			},
			{
				"x": -1.8567495716,
				"y": -2.9276106593,
				"z": -1.1451426913,
				"element": "H" 
			},
			{
				"x": 2.9995034792,
				"y": 1.389482557,
				"z": -1.4767338171,
				"element": "H" 
			},
			{
				"x": 2.1435537097,
				"y": -0.0705330822,
				"z": -1.3992922394,
				"element": "H" 
			},
			{
				"x": 2.8136185208,
				"y": 3.0675134907,
				"z": 0.2067865761,
				"element": "H" 
			},
			{
				"x": 1.9086352009,
				"y": 3.7084650679,
				"z": 2.4109330486,
				"element": "H" 
			},
			{
				"x": 0.2396087101,
				"y": 2.2445120885,
				"z": 3.5581215477,
				"element": "H" 
			},
			{
				"x": -0.4908004753,
				"y": 0.1426400556,
				"z": 2.4458869649,
				"element": "H" 
			}
		],
		 "valence_orbital": [ 
			{
				"type": "occ",
				"energy": -0.28132,
				"method": "rhf"
			},
			{
				"type": "occ",
				"energy": -0.26413,
				"method": "rhf"
			},
			{
				"type": "occ",
				"energy": -0.23242,
				"method": "rhf"
			},
			{
				"type": "occ",
				"energy": -0.22722,
				"method": "rhf"
			},
			{
				"type": "occ",
				"energy": -0.19615,
				"method": "rhf"
			},
			{
				"type": "unocc",
				"energy": -0.00802,
				"method": "rhf"
			},
			{
				"type": "unocc",
				"energy": 0.01379,
				"method": "rhf"
			},
			{
				"type": "unocc",
				"energy": 0.03703,
				"method": "rhf"
			},
			{
				"type": "unocc",
				"energy": 0.07042,
				"method": "rhf"
			},
			{
				"type": "unocc",
				"energy": 0.09315,
				"method": "rhf"
			}
		],
		"cosmo_sigma_profile": { 
			"-0.025": 0.0,
			"-0.024": 0.0,
			"-0.023": 0.0,
			"-0.022": 0.0,
			"-0.021": 0.0,
			"-0.02": 0.0,
			"-0.019": 0.0,
			"-0.018": 0.0,
			"-0.017": 0.0,
			"-0.016": 0.0,
			"-0.015": 0.0,
			"-0.014": 0.0,
			"-0.013": 0.110031219276,
			"-0.012": 1.34743531472,
			"-0.011": 1.34418688423,
			"-0.01": 1.37483211048,
			"-0.009": 1.90709987466,
			"-0.008": 1.93586431276,
			"-0.007": 2.46984069439,
			"-0.006": 8.89611011282,
			"-0.005": 15.279577028,
			"-0.004": 20.2040885488,
			"-0.003": 21.8758016132,
			"-0.002": 21.1047980201,
			"-0.001": 23.9300780053,
			"0.0": 19.0343848383,
			"0.001": 13.5342104355,
			"0.002": 11.9671017241,
			"0.003": 13.4550386312,
			"0.004": 14.4194962031,
			"0.005": 15.6066553733,
			"0.006": 12.4615260318,
			"0.007": 3.5313597311,
			"0.008": 1.99088842007,
			"0.009": 2.03103449181,
			"0.01": 1.36108469058,
			"0.011": 1.94303977089,
			"0.012": 1.27888093704,
			"0.013": 1.02860435068,
			"0.014": 1.54824137233,
			"0.015": 0.256057383661,
			"0.016": 0.0,
			"0.017": 0.0,
			"0.018": 0.0,
			"0.019": 0.0,
			"0.02": 0.0,
			"0.021": 0.0,
			"0.022": 0.0,
			"0.023": 0.0,
			"0.024": 0.0,
			"0.025": 0.0
		}
	}
}
