{
	 "smiles": "O=CC1=C2NN=CC2=CC=C1", 
	 "Tm": 395.15, 
	 "num_atms": 17, 
	 "gaussian": { 
		 "optdone": 1, 
		 "sigma_profile": "yes", 
		 "theory": "DFT", 
		 "functional": "B3LYP", 
		 "basiset": "6-31G**", 
		 "properties": { 
			 "R2extent": 1753.7337, 
			 "electric_dipole_moment_norm": 1.99869997999, 
			 "electric_quadrupole_moment_norm": 12.7318802335, 
			 "total_energy": -493.1669419, 
			 "HOMO_LUMO_gap": 0.16214, 
			 "cosmo_polarized_energy": -12.75, 
			 "cosmo_cavitation_energy": 21.79, 
			 "cosmo_dispersion_energy": -16.24, 
			 "cosmo_repulsion_energy": 1.28, 
			 "cosmo_total_nonelectrostatic_energy": 6.83, 
			 "SMD_solvation_energy": 3.81 
		},
		"coords": [
			{
				"x": -1.1924346718,
				"y": 2.8191792818,
				"z": 1.1654170659,
				"element": "O" 
			},
			{
				"x": -1.5386960314,
				"y": 1.6926131938,
				"z": 0.8597827737,
				"element": "C" 
			},
			{
				"x": -0.68880787,
				"y": 0.7162993403,
				"z": 0.1569528899,
				"element": "C" 
			},
			{
				"x": -1.1327564742,
				"y": -0.5845786964,
				"z": -0.1792310567,
				"element": "C" 
			},
			{
				"x": -2.3133513783,
				"y": -1.242090518,
				"z": 0.0149525611,
				"element": "N" 
			},
			{
				"x": -2.2993982261,
				"y": -2.5114248694,
				"z": -0.4833281151,
				"element": "N" 
			},
			{
				"x": -1.1005697236,
				"y": -2.6797895057,
				"z": -1.0051574404,
				"element": "C" 
			},
			{
				"x": -0.2931660573,
				"y": -1.508045545,
				"z": -0.857544089,
				"element": "C" 
			},
			{
				"x": 1.0132915127,
				"y": -1.1341228667,
				"z": -1.2097297679,
				"element": "C" 
			},
			{
				"x": 1.4572826911,
				"y": 0.142996433,
				"z": -0.8828036891,
				"element": "C" 
			},
			{
				"x": 0.6178862041,
				"y": 1.0477437795,
				"z": -0.2118575237,
				"element": "C" 
			},
			{
				"x": -2.5640476117,
				"y": 1.3373371186,
				"z": 1.11233395,
				"element": "H" 
			},
			{
				"x": -3.1531276016,
				"y": -0.9131363024,
				"z": 0.4624678701,
				"element": "H" 
			},
			{
				"x": -0.842641575,
				"y": -3.6222338064,
				"z": -1.4693579526,
				"element": "H" 
			},
			{
				"x": 1.6653323411,
				"y": -1.8308917993,
				"z": -1.7285515348,
				"element": "H" 
			},
			{
				"x": 2.4644950163,
				"y": 0.4484679625,
				"z": -1.1476424456,
				"element": "H" 
			},
			{
				"x": 0.9689094557,
				"y": 2.0432767998,
				"z": 0.0410965043,
				"element": "H" 
			}
		],
		 "valence_orbital": [ 
			{
				"type": "occ",
				"energy": -0.30511,
				"method": "rhf"
			},
			{
				"type": "occ",
				"energy": -0.30494,
				"method": "rhf"
			},
			{
				"type": "occ",
				"energy": -0.26116,
				"method": "rhf"
			},
			{
				"type": "occ",
				"energy": -0.25728,
				"method": "rhf"
			},
			{
				"type": "occ",
				"energy": -0.23811,
				"method": "rhf"
			},
			{
				"type": "unocc",
				"energy": -0.07597,
				"method": "rhf"
			},
			{
				"type": "unocc",
				"energy": -0.00693,
				"method": "rhf"
			},
			{
				"type": "unocc",
				"energy": 0.00823,
				"method": "rhf"
			},
			{
				"type": "unocc",
				"energy": 0.05566,
				"method": "rhf"
			},
			{
				"type": "unocc",
				"energy": 0.06684,
				"method": "rhf"
			}
		],
		"cosmo_sigma_profile": { 
			"-0.025": 0.0,
			"-0.024": 0.0,
			"-0.023": 0.0,
			"-0.022": 0.0,
			"-0.021": 0.0,
			"-0.02": 0.0,
			"-0.019": 0.0,
			"-0.018": 0.0,
			"-0.017": 0.3815860124,
			"-0.016": 1.4667322634,
			"-0.015": 1.59704178207,
			"-0.014": 1.71305121406,
			"-0.013": 1.06853907859,
			"-0.012": 1.79166173492,
			"-0.011": 1.40739626692,
			"-0.01": 1.66160979545,
			"-0.009": 1.13494019776,
			"-0.008": 3.47413494641,
			"-0.007": 6.10611171882,
			"-0.006": 10.5160972055,
			"-0.005": 11.3600014716,
			"-0.004": 9.45943934495,
			"-0.003": 8.33007833387,
			"-0.002": 8.27782645445,
			"-0.001": 8.30219483116,
			"0.0": 9.46244692729,
			"0.001": 15.5841287552,
			"0.002": 18.5237746585,
			"0.003": 14.1999868464,
			"0.004": 6.67801838856,
			"0.005": 3.67493880548,
			"0.006": 3.00282085885,
			"0.007": 3.44306565422,
			"0.008": 3.20582500364,
			"0.009": 2.95187871137,
			"0.01": 3.77408428133,
			"0.011": 5.00271581292,
			"0.012": 4.43894493951,
			"0.013": 2.09075768547,
			"0.014": 0.929413292723,
			"0.015": 0.695257789988,
			"0.016": 0.0102357612182,
			"0.017": 0.0,
			"0.018": 0.0,
			"0.019": 0.0,
			"0.02": 0.0,
			"0.021": 0.0,
			"0.022": 0.0,
			"0.023": 0.0,
			"0.024": 0.0,
			"0.025": 0.0
		}
	}
}
