{
	 "smiles": "CC(C)C1=CC(O)=C(C)C=C1C(C1=CC=CC=C1S([O-])(=O)=O)=C1/C=C(C)C(=O)C=C1C(C)C", 
	 "Tm": 556.15, 
	 "num_atms": 62, 
	 "gaussian": { 
		 "optdone": 1, 
		 "sigma_profile": "yes", 
		 "theory": "DFT", 
		 "functional": "B3LYP", 
		 "basiset": "6-31G**", 
		 "properties": { 
			 "R2extent": 14061.1924, 
			 "electric_dipole_moment_norm": 8.23540289239, 
			 "electric_quadrupole_moment_norm": 77.3426995139, 
			 "total_energy": -1820.66897602, 
			 "HOMO_LUMO_gap": 0.10733, 
			 "cosmo_polarized_energy": -76.03, 
			 "cosmo_cavitation_energy": 61.79, 
			 "cosmo_dispersion_energy": -38.06, 
			 "cosmo_repulsion_energy": 2.86, 
			 "cosmo_total_nonelectrostatic_energy": 26.58, 
			 "SMD_solvation_energy": 10.12 
		},
		"coords": [
			{
				"x": 4.2085453854,
				"y": 0.9829524377,
				"z": 2.3419279443,
				"element": "C" 
			},
			{
				"x": 3.6292161641,
				"y": 0.5047668119,
				"z": 0.9952307235,
				"element": "C" 
			},
			{
				"x": 4.7419989345,
				"y": 0.2509805548,
				"z": -0.0398761406,
				"element": "C" 
			},
			{
				"x": 2.7407427428,
				"y": -0.7180067599,
				"z": 1.1977076157,
				"element": "C" 
			},
			{
				"x": 3.3470893702,
				"y": -1.8954014089,
				"z": 1.6445754002,
				"element": "C" 
			},
			{
				"x": 2.6178613615,
				"y": -3.0563820921,
				"z": 1.8838082763,
				"element": "C" 
			},
			{
				"x": 3.3093270774,
				"y": -4.1519735471,
				"z": 2.3369707902,
				"element": "O" 
			},
			{
				"x": 1.2318981943,
				"y": -3.0886180343,
				"z": 1.6634630735,
				"element": "C" 
			},
			{
				"x": 0.4254877424,
				"y": -4.3295194101,
				"z": 1.9626069621,
				"element": "C" 
			},
			{
				"x": 0.6351049816,
				"y": -1.9265168438,
				"z": 1.1914550963,
				"element": "C" 
			},
			{
				"x": 1.3459563455,
				"y": -0.7323679423,
				"z": 0.9498197875,
				"element": "C" 
			},
			{
				"x": 0.5272725084,
				"y": 0.4121137777,
				"z": 0.4655412678,
				"element": "C" 
			},
			{
				"x": 0.6379256737,
				"y": 1.7415464696,
				"z": 1.1319362941,
				"element": "C" 
			},
			{
				"x": 0.9727757597,
				"y": 2.8363030678,
				"z": 0.3070014651,
				"element": "C" 
			},
			{
				"x": 1.1710888433,
				"y": 4.1125761202,
				"z": 0.8297988239,
				"element": "C" 
			},
			{
				"x": 1.0134372288,
				"y": 4.3260492312,
				"z": 2.1994663665,
				"element": "C" 
			},
			{
				"x": 0.6473451159,
				"y": 3.2631935428,
				"z": 3.0254962291,
				"element": "C" 
			},
			{
				"x": 0.4646283422,
				"y": 1.9761748722,
				"z": 2.5150925488,
				"element": "C" 
			},
			{
				"x": -0.1240677052,
				"y": 0.6939146799,
				"z": 3.684702004,
				"element": "S" 
			},
			{
				"x": -0.6726239609,
				"y": 1.4760107461,
				"z": 4.8207694574,
				"element": "O" 
			},
			{
				"x": -1.1512764684,
				"y": -0.0403869463,
				"z": 2.8906952976,
				"element": "O" 
			},
			{
				"x": 1.0927082751,
				"y": -0.0940632565,
				"z": 4.0109190014,
				"element": "O" 
			},
			{
				"x": -0.2648210537,
				"y": 0.2435769638,
				"z": -0.6729059311,
				"element": "C" 
			},
			{
				"x": 0.1505305679,
				"y": -0.7518221338,
				"z": -1.6545237899,
				"element": "C" 
			},
			{
				"x": -0.383700253,
				"y": -0.8700252674,
				"z": -2.8973017577,
				"element": "C" 
			},
			{
				"x": 0.1323843824,
				"y": -1.8342749981,
				"z": -3.9286810015,
				"element": "C" 
			},
			{
				"x": -1.4979676617,
				"y": 0.0045585164,
				"z": -3.2926529492,
				"element": "C" 
			},
			{
				"x": -1.9994817243,
				"y": -0.0443830472,
				"z": -4.4293279763,
				"element": "O" 
			},
			{
				"x": -1.9983456665,
				"y": 0.9037177043,
				"z": -2.256836936,
				"element": "C" 
			},
			{
				"x": -1.4587950679,
				"y": 1.0366139252,
				"z": -1.0111318789,
				"element": "C" 
			},
			{
				"x": -2.2456713521,
				"y": 1.819985509,
				"z": 0.0450198872,
				"element": "C" 
			},
			{
				"x": -3.5030545461,
				"y": 1.0265366185,
				"z": 0.4570571318,
				"element": "C" 
			},
			{
				"x": -2.6058050936,
				"y": 3.2446231469,
				"z": -0.4088647608,
				"element": "C" 
			},
			{
				"x": 3.4138799301,
				"y": 1.0963033163,
				"z": 3.0836697037,
				"element": "H" 
			},
			{
				"x": 4.7268307252,
				"y": 1.9416098424,
				"z": 2.2191276033,
				"element": "H" 
			},
			{
				"x": 4.9314672015,
				"y": 0.2601605563,
				"z": 2.738256783,
				"element": "H" 
			},
			{
				"x": 3.0123666271,
				"y": 1.3135411151,
				"z": 0.6031991947,
				"element": "H" 
			},
			{
				"x": 5.3319518667,
				"y": 1.1619177234,
				"z": -0.196807651,
				"element": "H" 
			},
			{
				"x": 5.4305038802,
				"y": -0.5356543129,
				"z": 0.2883554502,
				"element": "H" 
			},
			{
				"x": 4.3252686029,
				"y": -0.0533829803,
				"z": -1.0060823878,
				"element": "H" 
			},
			{
				"x": 4.4146451666,
				"y": -1.9258275524,
				"z": 1.8378190222,
				"element": "H" 
			},
			{
				"x": 2.6746967221,
				"y": -4.8476113847,
				"z": 2.5491585706,
				"element": "H" 
			},
			{
				"x": -0.6277427299,
				"y": -4.1686892392,
				"z": 1.7221678941,
				"element": "H" 
			},
			{
				"x": 0.4694498879,
				"y": -4.6001175966,
				"z": 3.0271934844,
				"element": "H" 
			},
			{
				"x": 0.7643433759,
				"y": -5.2003766501,
				"z": 1.382307223,
				"element": "H" 
			},
			{
				"x": -0.4403704196,
				"y": -1.9055476351,
				"z": 1.0645195577,
				"element": "H" 
			},
			{
				"x": 1.0995305681,
				"y": 2.661451569,
				"z": -0.7571794031,
				"element": "H" 
			},
			{
				"x": 1.4422468424,
				"y": 4.9315082621,
				"z": 0.1685200966,
				"element": "H" 
			},
			{
				"x": 1.155932148,
				"y": 5.3183055128,
				"z": 2.6206544782,
				"element": "H" 
			},
			{
				"x": 0.4604655628,
				"y": 3.408399221,
				"z": 4.084312143,
				"element": "H" 
			},
			{
				"x": 1.0073850494,
				"y": -1.3644362327,
				"z": -1.395203123,
				"element": "H" 
			},
			{
				"x": -0.662576752,
				"y": -2.5142641376,
				"z": -4.2567719537,
				"element": "H" 
			},
			{
				"x": 0.462413896,
				"y": -1.303271642,
				"z": -4.8292066829,
				"element": "H" 
			},
			{
				"x": 0.9663273331,
				"y": -2.4275762657,
				"z": -3.541564205,
				"element": "H" 
			},
			{
				"x": -2.9055239092,
				"y": 1.4388997618,
				"z": -2.5241460174,
				"element": "H" 
			},
			{
				"x": -1.6456584486,
				"y": 1.9001801886,
				"z": 0.9473458489,
				"element": "H" 
			},
			{
				"x": -4.1733687418,
				"y": 0.860508474,
				"z": -0.3943154245,
				"element": "H" 
			},
			{
				"x": -4.0533836535,
				"y": 1.5746651994,
				"z": 1.2301282976,
				"element": "H" 
			},
			{
				"x": -3.2192658717,
				"y": 0.0607143627,
				"z": 0.8822965432,
				"element": "H" 
			},
			{
				"x": -1.7093762349,
				"y": 3.8169461833,
				"z": -0.666842125,
				"element": "H" 
			},
			{
				"x": -3.1234550402,
				"y": 3.7743465089,
				"z": 0.3985734855,
				"element": "H" 
			},
			{
				"x": -3.2691980281,
				"y": 3.2433448243,
				"z": -1.2811447287,
				"element": "H" 
			}
		],
		 "valence_orbital": [ 
			{
				"type": "occ",
				"energy": -0.1301,
				"method": "rhf"
			},
			{
				"type": "occ",
				"energy": -0.12793,
				"method": "rhf"
			},
			{
				"type": "occ",
				"energy": -0.12155,
				"method": "rhf"
			},
			{
				"type": "occ",
				"energy": -0.10494,
				"method": "rhf"
			},
			{
				"type": "occ",
				"energy": -0.0949,
				"method": "rhf"
			},
			{
				"type": "unocc",
				"energy": 0.01243,
				"method": "rhf"
			},
			{
				"type": "unocc",
				"energy": 0.08235,
				"method": "rhf"
			},
			{
				"type": "unocc",
				"energy": 0.08547,
				"method": "rhf"
			},
			{
				"type": "unocc",
				"energy": 0.09674,
				"method": "rhf"
			},
			{
				"type": "unocc",
				"energy": 0.10312,
				"method": "rhf"
			}
		],
		"cosmo_sigma_profile": { 
			"-0.025": 0.0,
			"-0.024": 0.0,
			"-0.023": 0.0,
			"-0.022": 0.0,
			"-0.021": 0.0,
			"-0.02": 0.0,
			"-0.019": 0.0,
			"-0.018": 0.0,
			"-0.017": 0.0,
			"-0.016": 0.492678287401,
			"-0.015": 0.479421369721,
			"-0.014": 0.836183209547,
			"-0.013": 1.13938361784,
			"-0.012": 1.03822845415,
			"-0.011": 1.41543261189,
			"-0.01": 1.38287820047,
			"-0.009": 1.37241129548,
			"-0.008": 0.80362443154,
			"-0.007": 2.40242787776,
			"-0.006": 8.71965086479,
			"-0.005": 16.6781394551,
			"-0.004": 24.4850207805,
			"-0.003": 33.3513131202,
			"-0.002": 39.4775624749,
			"-0.001": 44.9331244524,
			"0.0": 46.7272917893,
			"0.001": 53.5635334386,
			"0.002": 43.1485926549,
			"0.003": 30.6943349488,
			"0.004": 21.8825016936,
			"0.005": 9.51970499678,
			"0.006": 7.94438869968,
			"0.007": 7.88796107861,
			"0.008": 6.95601960023,
			"0.009": 8.21385775587,
			"0.01": 7.89578244842,
			"0.011": 7.09542775317,
			"0.012": 8.54862735199,
			"0.013": 8.90476051528,
			"0.014": 12.8959788378,
			"0.015": 14.1951721986,
			"0.016": 11.6360624852,
			"0.017": 1.02009147651,
			"0.018": 0.0,
			"0.019": 0.0,
			"0.02": 0.0,
			"0.021": 0.0,
			"0.022": 0.0,
			"0.023": 0.0,
			"0.024": 0.0,
			"0.025": 0.0
		}
	}
}
