{
	 "smiles": "CC(C)C12CCC(C)(OO1)C=C2", 
	 "Tm": 276.45, 
	 "num_atms": 28, 
	 "gaussian": { 
		 "optdone": 1, 
		 "sigma_profile": "yes", 
		 "theory": "DFT", 
		 "functional": "B3LYP", 
		 "basiset": "6-31G**", 
		 "properties": { 
			 "R2extent": 2050.7591, 
			 "electric_dipole_moment_norm": 2.7278629841, 
			 "electric_quadrupole_moment_norm": 5.93221226525, 
			 "total_energy": -541.044048947, 
			 "HOMO_LUMO_gap": 0.21488, 
			 "cosmo_polarized_energy": -8.26, 
			 "cosmo_cavitation_energy": 27.94, 
			 "cosmo_dispersion_energy": -20.3, 
			 "cosmo_repulsion_energy": 1.59, 
			 "cosmo_total_nonelectrostatic_energy": 9.23, 
			 "SMD_solvation_energy": 4.2 
		},
		"coords": [
			{
				"x": 1.0265813746,
				"y": -2.795832837,
				"z": -0.703168328,
				"element": "C" 
			},
			{
				"x": 0.589287787,
				"y": -1.4574913223,
				"z": -1.3204920163,
				"element": "C" 
			},
			{
				"x": 1.7508131239,
				"y": -0.7997304547,
				"z": -2.0841369169,
				"element": "C" 
			},
			{
				"x": -0.0308831464,
				"y": -0.5087711506,
				"z": -0.2705798114,
				"element": "C" 
			},
			{
				"x": -1.2801551052,
				"y": -1.0786812871,
				"z": 0.4414753677,
				"element": "C" 
			},
			{
				"x": -1.9155860951,
				"y": 0.0502210937,
				"z": 1.2947860549,
				"element": "C" 
			},
			{
				"x": -1.0412214501,
				"y": 1.3157329592,
				"z": 1.1744289401,
				"element": "C" 
			},
			{
				"x": -1.6127928621,
				"y": 2.5287000668,
				"z": 1.8947710775,
				"element": "C" 
			},
			{
				"x": -1.0474069972,
				"y": 1.7010536141,
				"z": -0.2295366001,
				"element": "O" 
			},
			{
				"x": -0.5058402471,
				"y": 0.6171497435,
				"z": -1.0726079707,
				"element": "O" 
			},
			{
				"x": 0.3848410652,
				"y": 0.9784024833,
				"z": 1.5428301624,
				"element": "C" 
			},
			{
				"x": 0.9203136327,
				"y": 0.026208453,
				"z": 0.7751890618,
				"element": "C" 
			},
			{
				"x": 1.789066528,
				"y": -2.6528053017,
				"z": 0.0710846465,
				"element": "H" 
			},
			{
				"x": 0.1917043471,
				"y": -3.3427749886,
				"z": -0.2564496839,
				"element": "H" 
			},
			{
				"x": 1.463821731,
				"y": -3.4354328801,
				"z": -1.4765271831,
				"element": "H" 
			},
			{
				"x": -0.2130412406,
				"y": -1.6614403592,
				"z": -2.0419460918,
				"element": "H" 
			},
			{
				"x": 1.4488516997,
				"y": 0.1577549758,
				"z": -2.5124141731,
				"element": "H" 
			},
			{
				"x": 2.0862379349,
				"y": -1.454664683,
				"z": -2.8951070599,
				"element": "H" 
			},
			{
				"x": 2.6121060616,
				"y": -0.6216548339,
				"z": -1.4302516005,
				"element": "H" 
			},
			{
				"x": -1.9813102653,
				"y": -1.4318980326,
				"z": -0.3215292816,
				"element": "H" 
			},
			{
				"x": -1.0039125588,
				"y": -1.9335328234,
				"z": 1.0645974425,
				"element": "H" 
			},
			{
				"x": -2.002767041,
				"y": -0.2407366837,
				"z": 2.346722265,
				"element": "H" 
			},
			{
				"x": -2.9186883136,
				"y": 0.2957653359,
				"z": 0.9325099842,
				"element": "H" 
			},
			{
				"x": -2.6242014541,
				"y": 2.7458781488,
				"z": 1.5416202437,
				"element": "H" 
			},
			{
				"x": -1.6516064816,
				"y": 2.3355516389,
				"z": 2.9713775167,
				"element": "H" 
			},
			{
				"x": -0.9867808719,
				"y": 3.4080766376,
				"z": 1.71959967,
				"element": "H" 
			},
			{
				"x": 0.9145253945,
				"y": 1.5158188964,
				"z": 2.3246064379,
				"element": "H" 
			},
			{
				"x": 1.9469434494,
				"y": -0.3176664092,
				"z": 0.8530478464,
				"element": "H" 
			}
		],
		 "valence_orbital": [ 
			{
				"type": "occ",
				"energy": -0.32095,
				"method": "rhf"
			},
			{
				"type": "occ",
				"energy": -0.31088,
				"method": "rhf"
			},
			{
				"type": "occ",
				"energy": -0.30667,
				"method": "rhf"
			},
			{
				"type": "occ",
				"energy": -0.25876,
				"method": "rhf"
			},
			{
				"type": "occ",
				"energy": -0.21166,
				"method": "rhf"
			},
			{
				"type": "unocc",
				"energy": 0.00322,
				"method": "rhf"
			},
			{
				"type": "unocc",
				"energy": 0.02835,
				"method": "rhf"
			},
			{
				"type": "unocc",
				"energy": 0.08523,
				"method": "rhf"
			},
			{
				"type": "unocc",
				"energy": 0.10042,
				"method": "rhf"
			},
			{
				"type": "unocc",
				"energy": 0.10138,
				"method": "rhf"
			}
		],
		"cosmo_sigma_profile": { 
			"-0.025": 0.0,
			"-0.024": 0.0,
			"-0.023": 0.0,
			"-0.022": 0.0,
			"-0.021": 0.0,
			"-0.02": 0.0,
			"-0.019": 0.0,
			"-0.018": 0.0,
			"-0.017": 0.0,
			"-0.016": 0.0,
			"-0.015": 0.0,
			"-0.014": 0.0,
			"-0.013": 0.0,
			"-0.012": 0.0,
			"-0.011": 0.0,
			"-0.01": 0.0,
			"-0.009": 0.0,
			"-0.008": 0.0,
			"-0.007": 0.0,
			"-0.006": 2.06238790376,
			"-0.005": 6.46418626148,
			"-0.004": 20.1039578816,
			"-0.003": 34.6099593722,
			"-0.002": 31.7877329686,
			"-0.001": 29.4023923119,
			"0.0": 27.2218785106,
			"0.001": 19.7600550886,
			"0.002": 8.22882147452,
			"0.003": 4.6377288372,
			"0.004": 3.35398952342,
			"0.005": 4.01978779227,
			"0.006": 2.22176180356,
			"0.007": 2.49106464894,
			"0.008": 2.25233733817,
			"0.009": 2.03214748041,
			"0.01": 4.56264762175,
			"0.011": 5.55775729775,
			"0.012": 4.47843618122,
			"0.013": 0.724909723938,
			"0.014": 0.0,
			"0.015": 0.0,
			"0.016": 0.0,
			"0.017": 0.0,
			"0.018": 0.0,
			"0.019": 0.0,
			"0.02": 0.0,
			"0.021": 0.0,
			"0.022": 0.0,
			"0.023": 0.0,
			"0.024": 0.0,
			"0.025": 0.0
		}
	}
}
