{
	 "smiles": "CCCCCCCC(=O)OC1=C(Br)C=C(C=C1Br)C#N", 
	 "Tm": 318.65, 
	 "num_atms": 37, 
	 "gaussian": { 
		 "optdone": 1, 
		 "sigma_profile": "yes", 
		 "theory": "DFT", 
		 "functional": "B3LYP", 
		 "basiset": "6-31G**", 
		 "properties": { 
			 "R2extent": 12927.8932, 
			 "electric_dipole_moment_norm": 4.59524812605, 
			 "electric_quadrupole_moment_norm": 21.4818543483, 
			 "total_energy": -5929.85303347, 
			 "HOMO_LUMO_gap": 0.19899, 
			 "cosmo_polarized_energy": -11.47, 
			 "cosmo_cavitation_energy": 46.81, 
			 "cosmo_dispersion_energy": -30.8, 
			 "cosmo_repulsion_energy": 2.41, 
			 "cosmo_total_nonelectrostatic_energy": 18.42, 
			 "SMD_solvation_energy": 7.21 
		},
		"coords": [
			{
				"x": -4.5967762952,
				"y": 3.4189305871,
				"z": -1.8444413196,
				"element": "C" 
			},
			{
				"x": -5.1047726225,
				"y": 2.4526398943,
				"z": -0.7674621882,
				"element": "C" 
			},
			{
				"x": -4.1320996507,
				"y": 1.3128662736,
				"z": -0.4223350158,
				"element": "C" 
			},
			{
				"x": -2.8240239176,
				"y": 1.7657931195,
				"z": 0.2414188872,
				"element": "C" 
			},
			{
				"x": -1.910755982,
				"y": 0.5961140937,
				"z": 0.6304042425,
				"element": "C" 
			},
			{
				"x": -0.6108977406,
				"y": 1.0523067839,
				"z": 1.3047033676,
				"element": "C" 
			},
			{
				"x": 0.3105998164,
				"y": -0.1107211259,
				"z": 1.7352153426,
				"element": "C" 
			},
			{
				"x": 0.8415359803,
				"y": -0.9026672955,
				"z": 0.56776741,
				"element": "C" 
			},
			{
				"x": 0.5211849028,
				"y": -2.0042216948,
				"z": 0.213327398,
				"element": "O" 
			},
			{
				"x": 1.8056907323,
				"y": -0.1519813604,
				"z": -0.1124615687,
				"element": "O" 
			},
			{
				"x": 2.4237097108,
				"y": -0.7336543871,
				"z": -1.1902214651,
				"element": "C" 
			},
			{
				"x": 3.56274956,
				"y": -1.5323873427,
				"z": -1.0147977753,
				"element": "C" 
			},
			{
				"x": 4.209125442,
				"y": -1.8800032826,
				"z": 0.7355836375,
				"element": "Br" 
			},
			{
				"x": 4.2387160802,
				"y": -2.0667048996,
				"z": -2.1052913325,
				"element": "C" 
			},
			{
				"x": 3.7726523864,
				"y": -1.8021256755,
				"z": -3.4014512443,
				"element": "C" 
			},
			{
				"x": 2.6373571678,
				"y": -1.0023606518,
				"z": -3.5964482351,
				"element": "C" 
			},
			{
				"x": 1.9742356286,
				"y": -0.4785164845,
				"z": -2.4926632888,
				"element": "C" 
			},
			{
				"x": 0.4433196058,
				"y": 0.6105650612,
				"z": -2.7679201053,
				"element": "Br" 
			},
			{
				"x": 4.4647769306,
				"y": -2.3459675423,
				"z": -4.5333581067,
				"element": "C" 
			},
			{
				"x": 5.0268179337,
				"y": -2.7856299851,
				"z": -5.4514862046,
				"element": "N" 
			},
			{
				"x": -4.3573754121,
				"y": 2.8848893492,
				"z": -2.7716254837,
				"element": "H" 
			},
			{
				"x": -3.6939260763,
				"y": 3.9502619423,
				"z": -1.5260136009,
				"element": "H" 
			},
			{
				"x": -5.3525459661,
				"y": 4.1742680678,
				"z": -2.0835604792,
				"element": "H" 
			},
			{
				"x": -6.0523524162,
				"y": 2.0129208847,
				"z": -1.1036550923,
				"element": "H" 
			},
			{
				"x": -5.3402358146,
				"y": 3.0149738903,
				"z": 0.1467047876,
				"element": "H" 
			},
			{
				"x": -4.6398491125,
				"y": 0.6059624362,
				"z": 0.2478404892,
				"element": "H" 
			},
			{
				"x": -3.897935081,
				"y": 0.7478206107,
				"z": -1.3360394091,
				"element": "H" 
			},
			{
				"x": -2.2750263119,
				"y": 2.4384652154,
				"z": -0.430679725,
				"element": "H" 
			},
			{
				"x": -3.0599995936,
				"y": 2.3576183106,
				"z": 1.1379372555,
				"element": "H" 
			},
			{
				"x": -1.6752006671,
				"y": 0.0069505503,
				"z": -0.2655014138,
				"element": "H" 
			},
			{
				"x": -2.451155731,
				"y": -0.0815861526,
				"z": 1.3060132035,
				"element": "H" 
			},
			{
				"x": -0.8483930968,
				"y": 1.636425488,
				"z": 2.2022381318,
				"element": "H" 
			},
			{
				"x": -0.0548950435,
				"y": 1.7195651175,
				"z": 0.6359043168,
				"element": "H" 
			},
			{
				"x": 1.1656929328,
				"y": 0.284632758,
				"z": 2.2932149586,
				"element": "H" 
			},
			{
				"x": -0.2300333116,
				"y": -0.8131457771,
				"z": 2.3748150763,
				"element": "H" 
			},
			{
				"x": 5.1171610528,
				"y": -2.6812868376,
				"z": -1.9538758407,
				"element": "H" 
			},
			{
				"x": 2.2782239798,
				"y": -0.7954099393,
				"z": -4.5966996099,
				"element": "H" 
			}
		],
		 "valence_orbital": [ 
			{
				"type": "occ",
				"energy": -0.31207,
				"method": "rhf"
			},
			{
				"type": "occ",
				"energy": -0.30711,
				"method": "rhf"
			},
			{
				"type": "occ",
				"energy": -0.29491,
				"method": "rhf"
			},
			{
				"type": "occ",
				"energy": -0.27101,
				"method": "rhf"
			},
			{
				"type": "occ",
				"energy": -0.27036,
				"method": "rhf"
			},
			{
				"type": "unocc",
				"energy": -0.07137,
				"method": "rhf"
			},
			{
				"type": "unocc",
				"energy": -0.05107,
				"method": "rhf"
			},
			{
				"type": "unocc",
				"energy": -0.03778,
				"method": "rhf"
			},
			{
				"type": "unocc",
				"energy": -0.01431,
				"method": "rhf"
			},
			{
				"type": "unocc",
				"energy": -0.00172,
				"method": "rhf"
			}
		],
		"cosmo_sigma_profile": { 
			"-0.025": 0.0,
			"-0.024": 0.0,
			"-0.023": 0.0,
			"-0.022": 0.0,
			"-0.021": 0.0,
			"-0.02": 0.0,
			"-0.019": 0.0,
			"-0.018": 0.0,
			"-0.017": 0.0,
			"-0.016": 0.0,
			"-0.015": 0.0,
			"-0.014": 0.0,
			"-0.013": 0.0,
			"-0.012": 0.0,
			"-0.011": 0.059212438233,
			"-0.01": 2.5543343732,
			"-0.009": 3.56368853064,
			"-0.008": 4.18250171522,
			"-0.007": 3.34509759314,
			"-0.006": 7.97663265439,
			"-0.005": 11.5643511474,
			"-0.004": 15.6944141817,
			"-0.003": 28.2121089899,
			"-0.002": 51.5417569295,
			"-0.001": 56.3467094296,
			"0.0": 51.2903849467,
			"0.001": 42.837878316,
			"0.002": 28.0405894743,
			"0.003": 21.6743467291,
			"0.004": 8.27423956341,
			"0.005": 5.26106311167,
			"0.006": 4.71850594504,
			"0.007": 4.60602629238,
			"0.008": 5.47581043261,
			"0.009": 5.03077469848,
			"0.01": 6.98426668287,
			"0.011": 4.82688840182,
			"0.012": 2.25970097261,
			"0.013": 0.294832350193,
			"0.014": 0.0,
			"0.015": 0.0,
			"0.016": 0.0,
			"0.017": 0.0,
			"0.018": 0.0,
			"0.019": 0.0,
			"0.02": 0.0,
			"0.021": 0.0,
			"0.022": 0.0,
			"0.023": 0.0,
			"0.024": 0.0,
			"0.025": 0.0
		}
	}
}
