{
	 "smiles": "CCOC1=CC=C(O)C=C1", 
	 "Tm": 339.35, 
	 "num_atms": 20, 
	 "gaussian": { 
		 "optdone": 1, 
		 "sigma_profile": "yes", 
		 "theory": "DFT", 
		 "functional": "B3LYP", 
		 "basiset": "6-31G**", 
		 "properties": { 
			 "R2extent": 2286.22, 
			 "electric_dipole_moment_norm": 2.54380842832, 
			 "electric_quadrupole_moment_norm": 9.23547158948, 
			 "total_energy": -461.312185985, 
			 "HOMO_LUMO_gap": 0.1947, 
			 "cosmo_polarized_energy": -9.85, 
			 "cosmo_cavitation_energy": 23.27, 
			 "cosmo_dispersion_energy": -17.42, 
			 "cosmo_repulsion_energy": 1.43, 
			 "cosmo_total_nonelectrostatic_energy": 7.27, 
			 "SMD_solvation_energy": 4.73 
		},
		"coords": [
			{
				"x": -0.1217997251,
				"y": 1.6127376955,
				"z": -1.977947376,
				"element": "C" 
			},
			{
				"x": -0.4145936162,
				"y": 2.3898616624,
				"z": -0.6973660195,
				"element": "C" 
			},
			{
				"x": 0.1533985799,
				"y": 1.7803270163,
				"z": 0.4604602274,
				"element": "O" 
			},
			{
				"x": -0.4780030979,
				"y": 0.7120134967,
				"z": 1.0444953948,
				"element": "C" 
			},
			{
				"x": -1.7053219012,
				"y": 0.1752670496,
				"z": 0.6458351164,
				"element": "C" 
			},
			{
				"x": -2.2568918612,
				"y": -0.9059581664,
				"z": 1.3441956491,
				"element": "C" 
			},
			{
				"x": -1.593512986,
				"y": -1.4600726473,
				"z": 2.4374998443,
				"element": "C" 
			},
			{
				"x": -2.0851079804,
				"y": -2.5198595749,
				"z": 3.1563170685,
				"element": "O" 
			},
			{
				"x": -0.3616841788,
				"y": -0.9238694574,
				"z": 2.8351510097,
				"element": "C" 
			},
			{
				"x": 0.1868117857,
				"y": 0.1480106688,
				"z": 2.1449553379,
				"element": "C" 
			},
			{
				"x": 0.9577605275,
				"y": 1.4981269159,
				"z": -2.1110970283,
				"element": "H" 
			},
			{
				"x": -0.5691659037,
				"y": 0.6153691005,
				"z": -1.9578216911,
				"element": "H" 
			},
			{
				"x": -0.5215891466,
				"y": 2.1502940164,
				"z": -2.8445572796,
				"element": "H" 
			},
			{
				"x": -1.4929515843,
				"y": 2.545430054,
				"z": -0.559011895,
				"element": "H" 
			},
			{
				"x": 0.05164663,
				"y": 3.3785558616,
				"z": -0.742583242,
				"element": "H" 
			},
			{
				"x": -2.2473445399,
				"y": 0.5780090046,
				"z": -0.2014108634,
				"element": "H" 
			},
			{
				"x": -3.2126709502,
				"y": -1.3148339716,
				"z": 1.0221313497,
				"element": "H" 
			},
			{
				"x": -2.9340105015,
				"y": -2.7856966546,
				"z": 2.7809236891,
				"element": "H" 
			},
			{
				"x": 0.1501685608,
				"y": -1.3594224443,
				"z": 3.6870430145,
				"element": "H" 
			},
			{
				"x": 1.1386618891,
				"y": 0.5741103741,
				"z": 2.4449876932,
				"element": "H" 
			}
		],
		 "valence_orbital": [ 
			{
				"type": "occ",
				"energy": -0.33974,
				"method": "rhf"
			},
			{
				"type": "occ",
				"energy": -0.31517,
				"method": "rhf"
			},
			{
				"type": "occ",
				"energy": -0.28929,
				"method": "rhf"
			},
			{
				"type": "occ",
				"energy": -0.2481,
				"method": "rhf"
			},
			{
				"type": "occ",
				"energy": -0.19479,
				"method": "rhf"
			},
			{
				"type": "unocc",
				"energy": -9e-05,
				"method": "rhf"
			},
			{
				"type": "unocc",
				"energy": 0.03082,
				"method": "rhf"
			},
			{
				"type": "unocc",
				"energy": 0.07463,
				"method": "rhf"
			},
			{
				"type": "unocc",
				"energy": 0.08968,
				"method": "rhf"
			},
			{
				"type": "unocc",
				"energy": 0.11034,
				"method": "rhf"
			}
		],
		"cosmo_sigma_profile": { 
			"-0.025": 0.0,
			"-0.024": 0.0,
			"-0.023": 0.0,
			"-0.022": 0.0,
			"-0.021": 0.0,
			"-0.02": 0.0,
			"-0.019": 0.0,
			"-0.018": 0.102031087804,
			"-0.017": 1.18471226571,
			"-0.016": 0.744859853347,
			"-0.015": 1.05033377396,
			"-0.014": 1.428585118,
			"-0.013": 0.809839678943,
			"-0.012": 0.469479914767,
			"-0.011": 0.502968014816,
			"-0.01": 1.55024863861,
			"-0.009": 1.27155835618,
			"-0.008": 1.49619774191,
			"-0.007": 1.79647782629,
			"-0.006": 6.36396164568,
			"-0.005": 11.1128745606,
			"-0.004": 15.41518897,
			"-0.003": 18.2268770296,
			"-0.002": 14.3204574363,
			"-0.001": 12.142827137,
			"0.0": 13.4480979113,
			"0.001": 9.38018052021,
			"0.002": 8.69095266319,
			"0.003": 8.40351531508,
			"0.004": 13.3226329223,
			"0.005": 13.9821058898,
			"0.006": 9.67514126469,
			"0.007": 3.30977291974,
			"0.008": 2.8611742744,
			"0.009": 3.46739767748,
			"0.01": 2.17524781403,
			"0.011": 3.41356240826,
			"0.012": 1.76874066999,
			"0.013": 0.0,
			"0.014": 0.0,
			"0.015": 0.0,
			"0.016": 0.0,
			"0.017": 0.0,
			"0.018": 0.0,
			"0.019": 0.0,
			"0.02": 0.0,
			"0.021": 0.0,
			"0.022": 0.0,
			"0.023": 0.0,
			"0.024": 0.0,
			"0.025": 0.0
		}
	}
}
