{
	 "smiles": "COC1=CC=C(C)C(=C1)C(O)=O", 
	 "Tm": 420.15, 
	 "num_atms": 22, 
	 "gaussian": { 
		 "optdone": 1, 
		 "sigma_profile": "yes", 
		 "theory": "DFT", 
		 "functional": "B3LYP", 
		 "basiset": "6-31G**", 
		 "properties": { 
			 "R2extent": 2868.3334, 
			 "electric_dipole_moment_norm": 4.22642623738, 
			 "electric_quadrupole_moment_norm": 22.8793184584, 
			 "total_energy": -574.656732444, 
			 "HOMO_LUMO_gap": 0.18357, 
			 "cosmo_polarized_energy": -14.14, 
			 "cosmo_cavitation_energy": 25.78, 
			 "cosmo_dispersion_energy": -18.9, 
			 "cosmo_repulsion_energy": 1.5, 
			 "cosmo_total_nonelectrostatic_energy": 8.38, 
			 "SMD_solvation_energy": 6.27 
		},
		"coords": [
			{
				"x": 1.5377796856,
				"y": 0.5849091353,
				"z": -2.9226399948,
				"element": "C" 
			},
			{
				"x": 1.8734428763,
				"y": 0.3954351682,
				"z": -1.5569690999,
				"element": "O" 
			},
			{
				"x": 1.0220510527,
				"y": -0.3271716823,
				"z": -0.774905016,
				"element": "C" 
			},
			{
				"x": 1.3943512746,
				"y": -0.4751224844,
				"z": 0.5678052995,
				"element": "C" 
			},
			{
				"x": 0.5751103587,
				"y": -1.1766439527,
				"z": 1.4415625679,
				"element": "C" 
			},
			{
				"x": -0.638426011,
				"y": -1.7565384904,
				"z": 1.0370792196,
				"element": "C" 
			},
			{
				"x": -1.4934167286,
				"y": -2.4851268346,
				"z": 2.0469489362,
				"element": "C" 
			},
			{
				"x": -0.9890524221,
				"y": -1.6242173664,
				"z": -0.3204064781,
				"element": "C" 
			},
			{
				"x": -0.1659267612,
				"y": -0.9122893644,
				"z": -1.2156486391,
				"element": "C" 
			},
			{
				"x": -2.2679610841,
				"y": -2.2134036275,
				"z": -0.8382509744,
				"element": "C" 
			},
			{
				"x": -2.2394350683,
				"y": -2.647474305,
				"z": -2.1320849821,
				"element": "O" 
			},
			{
				"x": -3.2894404196,
				"y": -2.3125259938,
				"z": -0.2000185426,
				"element": "O" 
			},
			{
				"x": 2.3435558336,
				"y": 1.1823322608,
				"z": -3.3511099147,
				"element": "H" 
			},
			{
				"x": 0.5891458315,
				"y": 1.1253736472,
				"z": -3.0357406689,
				"element": "H" 
			},
			{
				"x": 1.4736587179,
				"y": -0.3701700507,
				"z": -3.460671433,
				"element": "H" 
			},
			{
				"x": 2.3238466819,
				"y": -0.0263265567,
				"z": 0.9026044788,
				"element": "H" 
			},
			{
				"x": 0.8810552698,
				"y": -1.2787456468,
				"z": 2.47927102,
				"element": "H" 
			},
			{
				"x": -1.7935014878,
				"y": -3.4758624135,
				"z": 1.693939628,
				"element": "H" 
			},
			{
				"x": -0.9483797917,
				"y": -2.6037553233,
				"z": 2.9874919768,
				"element": "H" 
			},
			{
				"x": -2.4204651899,
				"y": -1.9403289104,
				"z": 2.2448351297,
				"element": "H" 
			},
			{
				"x": -0.491164786,
				"y": -0.7761037301,
				"z": -2.2408623408,
				"element": "H" 
			},
			{
				"x": -1.3241278322,
				"y": -2.6633434785,
				"z": -2.4454301724,
				"element": "H" 
			}
		],
		 "valence_orbital": [ 
			{
				"type": "occ",
				"energy": -0.32476,
				"method": "rhf"
			},
			{
				"type": "occ",
				"energy": -0.31208,
				"method": "rhf"
			},
			{
				"type": "occ",
				"energy": -0.27313,
				"method": "rhf"
			},
			{
				"type": "occ",
				"energy": -0.26296,
				"method": "rhf"
			},
			{
				"type": "occ",
				"energy": -0.22864,
				"method": "rhf"
			},
			{
				"type": "unocc",
				"energy": -0.04507,
				"method": "rhf"
			},
			{
				"type": "unocc",
				"energy": -0.00465,
				"method": "rhf"
			},
			{
				"type": "unocc",
				"energy": 0.04662,
				"method": "rhf"
			},
			{
				"type": "unocc",
				"energy": 0.06654,
				"method": "rhf"
			},
			{
				"type": "unocc",
				"energy": 0.09494,
				"method": "rhf"
			}
		],
		"cosmo_sigma_profile": { 
			"-0.025": 0.0,
			"-0.024": 0.0,
			"-0.023": 0.0,
			"-0.022": 0.0,
			"-0.021": 0.0,
			"-0.02": 0.0,
			"-0.019": 0.0,
			"-0.018": 0.159390427993,
			"-0.017": 1.08328004747,
			"-0.016": 0.933518169607,
			"-0.015": 0.685976430313,
			"-0.014": 1.1418959907,
			"-0.013": 0.781249437379,
			"-0.012": 1.23369544923,
			"-0.011": 1.23274388165,
			"-0.01": 0.694135683676,
			"-0.009": 1.27911791819,
			"-0.008": 1.71912561992,
			"-0.007": 4.04702583162,
			"-0.006": 10.41828934,
			"-0.005": 16.4708919773,
			"-0.004": 17.2343903323,
			"-0.003": 17.7068390236,
			"-0.002": 13.2328898829,
			"-0.001": 11.1366514084,
			"0.0": 14.6981358856,
			"0.001": 13.6260240548,
			"0.002": 10.8480293735,
			"0.003": 14.4643611128,
			"0.004": 10.9081330207,
			"0.005": 4.6755596294,
			"0.006": 4.26231141894,
			"0.007": 4.53849046438,
			"0.008": 3.52053422163,
			"0.009": 4.89447121709,
			"0.01": 5.5311649759,
			"0.011": 5.40921539135,
			"0.012": 4.16917621003,
			"0.013": 1.71868070744,
			"0.014": 0.0668347884357,
			"0.015": 0.0,
			"0.016": 0.0,
			"0.017": 0.0,
			"0.018": 0.0,
			"0.019": 0.0,
			"0.02": 0.0,
			"0.021": 0.0,
			"0.022": 0.0,
			"0.023": 0.0,
			"0.024": 0.0,
			"0.025": 0.0
		}
	}
}
