{
	 "smiles": "OC1=CC=C(C(=O)C2=CC=CC=C2)C(O)=C1O", 
	 "Tm": 414.15, 
	 "num_atms": 27, 
	 "gaussian": { 
		 "optdone": 1, 
		 "sigma_profile": "yes", 
		 "theory": "DFT", 
		 "functional": "B3LYP", 
		 "basiset": "6-31G**", 
		 "properties": { 
			 "R2extent": 5042.8093, 
			 "electric_dipole_moment_norm": 4.34208890512, 
			 "electric_quadrupole_moment_norm": 7.94973576731, 
			 "total_energy": -802.306395905, 
			 "HOMO_LUMO_gap": 0.14125, 
			 "cosmo_polarized_energy": -15.58, 
			 "cosmo_cavitation_energy": 31.24, 
			 "cosmo_dispersion_energy": -23.47, 
			 "cosmo_repulsion_energy": 1.79, 
			 "cosmo_total_nonelectrostatic_energy": 9.56, 
			 "SMD_solvation_energy": 6.5 
		},
		"coords": [
			{
				"x": -1.1866814413,
				"y": 4.6674548347,
				"z": -1.1950719922,
				"element": "O" 
			},
			{
				"x": -0.937330577,
				"y": 3.3351014692,
				"z": -1.1214166859,
				"element": "C" 
			},
			{
				"x": -0.2602251342,
				"y": 2.7415968011,
				"z": -0.0387735392,
				"element": "C" 
			},
			{
				"x": -0.0362222968,
				"y": 1.3768676782,
				"z": -0.0095539763,
				"element": "C" 
			},
			{
				"x": -0.4810339559,
				"y": 0.5441042743,
				"z": -1.0613971909,
				"element": "C" 
			},
			{
				"x": -0.277849339,
				"y": -0.9061253441,
				"z": -1.1079290571,
				"element": "C" 
			},
			{
				"x": -0.493847374,
				"y": -1.5423510099,
				"z": -2.1625310711,
				"element": "O" 
			},
			{
				"x": 0.1933957167,
				"y": -1.6829227406,
				"z": 0.0813748595,
				"element": "C" 
			},
			{
				"x": -0.2744425579,
				"y": -1.4420461721,
				"z": 1.3826820079,
				"element": "C" 
			},
			{
				"x": 0.1448695005,
				"y": -2.2490608434,
				"z": 2.441040328,
				"element": "C" 
			},
			{
				"x": 1.0417324046,
				"y": -3.2939296571,
				"z": 2.2134116243,
				"element": "C" 
			},
			{
				"x": 1.5028339634,
				"y": -3.5470288543,
				"z": 0.9182191602,
				"element": "C" 
			},
			{
				"x": 1.0693981077,
				"y": -2.7571721606,
				"z": -0.1429311652,
				"element": "C" 
			},
			{
				"x": -1.1224351446,
				"y": 1.1640691795,
				"z": -2.1684696718,
				"element": "C" 
			},
			{
				"x": -1.5393549126,
				"y": 0.4848275829,
				"z": -3.2556801352,
				"element": "O" 
			},
			{
				"x": -1.367925947,
				"y": 2.5445875159,
				"z": -2.1913732558,
				"element": "C" 
			},
			{
				"x": -1.9994105665,
				"y": 3.1125468879,
				"z": -3.2527785254,
				"element": "O" 
			},
			{
				"x": -0.8281713079,
				"y": 5.0983397644,
				"z": -0.4081553877,
				"element": "H" 
			},
			{
				"x": 0.0958871523,
				"y": 3.3728832465,
				"z": 0.7717245218,
				"element": "H" 
			},
			{
				"x": 0.5121845892,
				"y": 0.9463457955,
				"z": 0.8186746826,
				"element": "H" 
			},
			{
				"x": -0.990258145,
				"y": -0.6468880749,
				"z": 1.5615887001,
				"element": "H" 
			},
			{
				"x": -0.2343824653,
				"y": -2.0643873285,
				"z": 3.4418342318,
				"element": "H" 
			},
			{
				"x": 1.3732732549,
				"y": -3.9156509107,
				"z": 3.0401190161,
				"element": "H" 
			},
			{
				"x": 2.1933557346,
				"y": -4.365341415,
				"z": 0.7363900586,
				"element": "H" 
			},
			{
				"x": 1.3989817693,
				"y": -2.957884787,
				"z": -1.1568569843,
				"element": "H" 
			},
			{
				"x": -1.2119777503,
				"y": -0.4507361405,
				"z": -3.1234837519,
				"element": "H" 
			},
			{
				"x": -2.1820632781,
				"y": 2.3932004086,
				"z": -3.8783568012,
				"element": "H" 
			}
		],
		 "valence_orbital": [ 
			{
				"type": "occ",
				"energy": -0.27184,
				"method": "rhf"
			},
			{
				"type": "occ",
				"energy": -0.26357,
				"method": "rhf"
			},
			{
				"type": "occ",
				"energy": -0.25691,
				"method": "rhf"
			},
			{
				"type": "occ",
				"energy": -0.23077,
				"method": "rhf"
			},
			{
				"type": "occ",
				"energy": -0.20875,
				"method": "rhf"
			},
			{
				"type": "unocc",
				"energy": -0.0675,
				"method": "rhf"
			},
			{
				"type": "unocc",
				"energy": -0.01422,
				"method": "rhf"
			},
			{
				"type": "unocc",
				"energy": -0.01021,
				"method": "rhf"
			},
			{
				"type": "unocc",
				"energy": 0.00942,
				"method": "rhf"
			},
			{
				"type": "unocc",
				"energy": 0.05956,
				"method": "rhf"
			}
		],
		"cosmo_sigma_profile": { 
			"-0.025": 0.0,
			"-0.024": 0.0,
			"-0.023": 0.0,
			"-0.022": 0.0,
			"-0.021": 0.0,
			"-0.02": 0.0,
			"-0.019": 0.25274043487,
			"-0.018": 1.20294946114,
			"-0.017": 0.913002759014,
			"-0.016": 1.22794387429,
			"-0.015": 1.52462208607,
			"-0.014": 1.30180055856,
			"-0.013": 1.06603833813,
			"-0.012": 1.19967264342,
			"-0.011": 2.05421324691,
			"-0.01": 2.24055080979,
			"-0.009": 1.18366669983,
			"-0.008": 1.98336785961,
			"-0.007": 3.98667613387,
			"-0.006": 13.1015088206,
			"-0.005": 16.3637608747,
			"-0.004": 17.8090578749,
			"-0.003": 14.235303613,
			"-0.002": 16.4304610194,
			"-0.001": 13.9321937288,
			"0.0": 14.9783242961,
			"0.001": 21.338187866,
			"0.002": 21.7955562619,
			"0.003": 18.45210898,
			"0.004": 19.4745265456,
			"0.005": 7.95539315449,
			"0.006": 6.17421988981,
			"0.007": 4.76889733947,
			"0.008": 5.11704291748,
			"0.009": 3.72132275985,
			"0.01": 4.70886447117,
			"0.011": 3.92290479222,
			"0.012": 4.45882183281,
			"0.013": 1.66051226621,
			"0.014": 0.0,
			"0.015": 0.0,
			"0.016": 0.0,
			"0.017": 0.0,
			"0.018": 0.0,
			"0.019": 0.0,
			"0.02": 0.0,
			"0.021": 0.0,
			"0.022": 0.0,
			"0.023": 0.0,
			"0.024": 0.0,
			"0.025": 0.0
		}
	}
}
