{
	 "smiles": "CCCC(NC(N)=O)C(O)=O", 
	 "Tm": 444.15, 
	 "num_atms": 23, 
	 "gaussian": { 
		 "optdone": 1, 
		 "sigma_profile": "yes", 
		 "theory": "DFT", 
		 "functional": "B3LYP", 
		 "basiset": "6-31G**", 
		 "properties": { 
			 "R2extent": 2170.5536, 
			 "electric_dipole_moment_norm": 2.58935180306, 
			 "electric_quadrupole_moment_norm": 21.9921357574, 
			 "total_energy": -571.090699403, 
			 "HOMO_LUMO_gap": 0.23741, 
			 "cosmo_polarized_energy": -18.89, 
			 "cosmo_cavitation_energy": 26.63, 
			 "cosmo_dispersion_energy": -18.8, 
			 "cosmo_repulsion_energy": 1.57, 
			 "cosmo_total_nonelectrostatic_energy": 9.41, 
			 "SMD_solvation_energy": 6.45 
		},
		"coords": [
			{
				"x": -2.0366637583,
				"y": -0.8073889432,
				"z": -2.9276610831,
				"element": "C" 
			},
			{
				"x": -1.254434515,
				"y": -0.8721002198,
				"z": -1.6121020284,
				"element": "C" 
			},
			{
				"x": -0.4118917442,
				"y": 0.3842549828,
				"z": -1.3661034265,
				"element": "C" 
			},
			{
				"x": 0.3387076352,
				"y": 0.3918279351,
				"z": -0.0097185914,
				"element": "C" 
			},
			{
				"x": -0.5439815298,
				"y": 0.3123140422,
				"z": 1.1457182499,
				"element": "N" 
			},
			{
				"x": -0.8897195904,
				"y": 1.3755981879,
				"z": 1.9612349702,
				"element": "C" 
			},
			{
				"x": -0.7058326157,
				"y": 2.6385322306,
				"z": 1.4041545897,
				"element": "N" 
			},
			{
				"x": -1.3077613281,
				"y": 1.2130365247,
				"z": 3.0988181671,
				"element": "O" 
			},
			{
				"x": 1.3972560183,
				"y": -0.7113222252,
				"z": -0.0228815515,
				"element": "C" 
			},
			{
				"x": 1.2570674564,
				"y": -1.6108311156,
				"z": 0.9771378976,
				"element": "O" 
			},
			{
				"x": 2.2683282385,
				"y": -0.7880330361,
				"z": -0.859136117,
				"element": "O" 
			},
			{
				"x": -2.6270706266,
				"y": -1.7158981604,
				"z": -3.082406462,
				"element": "H" 
			},
			{
				"x": -2.7282007239,
				"y": 0.0428795429,
				"z": -2.9362325506,
				"element": "H" 
			},
			{
				"x": -1.3643396664,
				"y": -0.6965937202,
				"z": -3.7857266588,
				"element": "H" 
			},
			{
				"x": -1.9484481301,
				"y": -1.0070779047,
				"z": -0.7740232883,
				"element": "H" 
			},
			{
				"x": -0.5999892889,
				"y": -1.7539727353,
				"z": -1.6233430683,
				"element": "H" 
			},
			{
				"x": 0.331623229,
				"y": 0.5062576876,
				"z": -2.1613932618,
				"element": "H" 
			},
			{
				"x": -1.0632971572,
				"y": 1.2679669908,
				"z": -1.3976040853,
				"element": "H" 
			},
			{
				"x": 0.9124421456,
				"y": 1.3245317799,
				"z": 0.0536233159,
				"element": "H" 
			},
			{
				"x": -0.5714854794,
				"y": -0.5666834802,
				"z": 1.6427310486,
				"element": "H" 
			},
			{
				"x": -0.871917621,
				"y": 2.7515902497,
				"z": 0.4136178309,
				"element": "H" 
			},
			{
				"x": -1.1251155575,
				"y": 3.3597606971,
				"z": 1.9743686056,
				"element": "H" 
			},
			{
				"x": 1.9699246094,
				"y": -2.2621493107,
				"z": 0.8645274976,
				"element": "H" 
			}
		],
		 "valence_orbital": [ 
			{
				"type": "occ",
				"energy": -0.33313,
				"method": "rhf"
			},
			{
				"type": "occ",
				"energy": -0.29778,
				"method": "rhf"
			},
			{
				"type": "occ",
				"energy": -0.27598,
				"method": "rhf"
			},
			{
				"type": "occ",
				"energy": -0.25488,
				"method": "rhf"
			},
			{
				"type": "occ",
				"energy": -0.2447,
				"method": "rhf"
			},
			{
				"type": "unocc",
				"energy": -0.00729,
				"method": "rhf"
			},
			{
				"type": "unocc",
				"energy": 0.04645,
				"method": "rhf"
			},
			{
				"type": "unocc",
				"energy": 0.05834,
				"method": "rhf"
			},
			{
				"type": "unocc",
				"energy": 0.07716,
				"method": "rhf"
			},
			{
				"type": "unocc",
				"energy": 0.09647,
				"method": "rhf"
			}
		],
		"cosmo_sigma_profile": { 
			"-0.025": 0.0,
			"-0.024": 0.0,
			"-0.023": 0.0,
			"-0.022": 0.0,
			"-0.021": 0.0,
			"-0.02": 0.0,
			"-0.019": 0.41467376143,
			"-0.018": 1.06042349938,
			"-0.017": 0.910208131189,
			"-0.016": 0.68243152066,
			"-0.015": 1.46474232337,
			"-0.014": 0.299404110967,
			"-0.013": 1.68872777336,
			"-0.012": 3.38134466073,
			"-0.011": 4.05510027295,
			"-0.01": 4.74793377526,
			"-0.009": 3.21795577591,
			"-0.008": 3.55001112628,
			"-0.007": 5.45890675491,
			"-0.006": 5.82223256796,
			"-0.005": 5.22373969889,
			"-0.004": 8.24545802875,
			"-0.003": 15.1450086229,
			"-0.002": 20.0372095847,
			"-0.001": 19.5796079557,
			"0.0": 20.8463433226,
			"0.001": 16.4458940388,
			"0.002": 7.64203329238,
			"0.003": 6.28951124345,
			"0.004": 7.01090985396,
			"0.005": 5.11802320524,
			"0.006": 3.12270125556,
			"0.007": 2.64726495797,
			"0.008": 3.16641261229,
			"0.009": 4.07435617771,
			"0.01": 3.54834035534,
			"0.011": 6.17157008765,
			"0.012": 3.9333969828,
			"0.013": 2.57360294438,
			"0.014": 6.26903551032,
			"0.015": 3.4937451962,
			"0.016": 0.0,
			"0.017": 0.0,
			"0.018": 0.0,
			"0.019": 0.0,
			"0.02": 0.0,
			"0.021": 0.0,
			"0.022": 0.0,
			"0.023": 0.0,
			"0.024": 0.0,
			"0.025": 0.0
		}
	}
}
