{
	 "smiles": "CCCN(CCCl)C1=C(C=C(C=C1[N+]([O-])=O)C(F)(F)F)[N+]([O-])=O", 
	 "Tm": 315.15, 
	 "num_atms": 36, 
	 "gaussian": { 
		 "optdone": 1, 
		 "sigma_profile": "yes", 
		 "theory": "DFT", 
		 "functional": "B3LYP", 
		 "basiset": "6-31G**", 
		 "properties": { 
			 "R2extent": 9132.1826, 
			 "electric_dipole_moment_norm": 2.05196661279, 
			 "electric_quadrupole_moment_norm": 11.3503863053, 
			 "total_energy": -1689.75661377, 
			 "HOMO_LUMO_gap": 0.1294, 
			 "cosmo_polarized_energy": -13.69, 
			 "cosmo_cavitation_energy": 42.9, 
			 "cosmo_dispersion_energy": -28.33, 
			 "cosmo_repulsion_energy": 2.12, 
			 "cosmo_total_nonelectrostatic_energy": 16.69, 
			 "SMD_solvation_energy": 12.17 
		},
		"coords": [
			{
				"x": -3.3816862304,
				"y": 0.9671707744,
				"z": 1.6651555385,
				"element": "C" 
			},
			{
				"x": -2.2385747371,
				"y": 0.0511480525,
				"z": 2.1120699359,
				"element": "C" 
			},
			{
				"x": -0.8236602849,
				"y": 0.4863124211,
				"z": 1.6892464526,
				"element": "C" 
			},
			{
				"x": -0.565840226,
				"y": 0.3853529008,
				"z": 0.2423440307,
				"element": "N" 
			},
			{
				"x": -0.7956382233,
				"y": 1.5723125021,
				"z": -0.5828648634,
				"element": "C" 
			},
			{
				"x": 0.4110136953,
				"y": 2.5187191259,
				"z": -0.5250616786,
				"element": "C" 
			},
			{
				"x": 0.0746732376,
				"y": 4.0012887336,
				"z": -1.5139288498,
				"element": "Cl" 
			},
			{
				"x": -0.0344562741,
				"y": -0.7649931375,
				"z": -0.3118722236,
				"element": "C" 
			},
			{
				"x": -0.5917533661,
				"y": -1.4021606428,
				"z": -1.4533120014,
				"element": "C" 
			},
			{
				"x": -0.0509716954,
				"y": -2.540160798,
				"z": -2.0400053058,
				"element": "C" 
			},
			{
				"x": 1.043945387,
				"y": -3.1708735629,
				"z": -1.4549309993,
				"element": "C" 
			},
			{
				"x": 1.6177310399,
				"y": -2.6123632275,
				"z": -0.3164198909,
				"element": "C" 
			},
			{
				"x": 1.1180429189,
				"y": -1.4218075875,
				"z": 0.1994061233,
				"element": "C" 
			},
			{
				"x": 1.9524050272,
				"y": -0.8088921858,
				"z": 1.2518992,
				"element": "N" 
			},
			{
				"x": 2.4474636121,
				"y": -1.5667624808,
				"z": 2.0830430164,
				"element": "O" 
			},
			{
				"x": 2.1394688928,
				"y": 0.405114938,
				"z": 1.2043728607,
				"element": "O" 
			},
			{
				"x": 1.5696957083,
				"y": -4.4644122107,
				"z": -2.0195694886,
				"element": "C" 
			},
			{
				"x": 0.9425946141,
				"y": -5.5300046284,
				"z": -1.4763006178,
				"element": "F" 
			},
			{
				"x": 2.8878989459,
				"y": -4.6089404904,
				"z": -1.7734293804,
				"element": "F" 
			},
			{
				"x": 1.3834368827,
				"y": -4.5291396894,
				"z": -3.353493165,
				"element": "F" 
			},
			{
				"x": -1.8619169218,
				"y": -0.9433765716,
				"z": -2.0524220044,
				"element": "N" 
			},
			{
				"x": -1.9367943502,
				"y": -0.9696163229,
				"z": -3.278936072,
				"element": "O" 
			},
			{
				"x": -2.7705458342,
				"y": -0.6148903711,
				"z": -1.294638442,
				"element": "O" 
			},
			{
				"x": -3.5076530122,
				"y": 0.9550692092,
				"z": 0.580119191,
				"element": "H" 
			},
			{
				"x": -4.3282448271,
				"y": 0.6385461558,
				"z": 2.1056815032,
				"element": "H" 
			},
			{
				"x": -3.2130009498,
				"y": 2.0021028686,
				"z": 1.9863816734,
				"element": "H" 
			},
			{
				"x": -2.2293361157,
				"y": -0.0083709592,
				"z": 3.2088412221,
				"element": "H" 
			},
			{
				"x": -2.4150975128,
				"y": -0.9675429094,
				"z": 1.7468644256,
				"element": "H" 
			},
			{
				"x": -0.6345791558,
				"y": 1.5201526291,
				"z": 1.9982773759,
				"element": "H" 
			},
			{
				"x": -0.1051526784,
				"y": -0.1249430993,
				"z": 2.2373416306,
				"element": "H" 
			},
			{
				"x": -1.6942321622,
				"y": 2.0902993612,
				"z": -0.2424050004,
				"element": "H" 
			},
			{
				"x": -0.9670650612,
				"y": 1.2951281659,
				"z": -1.6240748331,
				"element": "H" 
			},
			{
				"x": 0.6233270422,
				"y": 2.8538891046,
				"z": 0.4899672777,
				"element": "H" 
			},
			{
				"x": 1.3062255508,
				"y": 2.0500715559,
				"z": -0.9327035967,
				"element": "H" 
			},
			{
				"x": -0.5185363385,
				"y": -2.9416506728,
				"z": -2.9308592155,
				"element": "H" 
			},
			{
				"x": 2.4888134025,
				"y": -3.0586769509,
				"z": 0.1475161713,
				"element": "H" 
			}
		],
		 "valence_orbital": [ 
			{
				"type": "occ",
				"energy": -0.31004,
				"method": "rhf"
			},
			{
				"type": "occ",
				"energy": -0.30789,
				"method": "rhf"
			},
			{
				"type": "occ",
				"energy": -0.30347,
				"method": "rhf"
			},
			{
				"type": "occ",
				"energy": -0.3018,
				"method": "rhf"
			},
			{
				"type": "occ",
				"energy": -0.24333,
				"method": "rhf"
			},
			{
				"type": "unocc",
				"energy": -0.11393,
				"method": "rhf"
			},
			{
				"type": "unocc",
				"energy": -0.10905,
				"method": "rhf"
			},
			{
				"type": "unocc",
				"energy": -0.05609,
				"method": "rhf"
			},
			{
				"type": "unocc",
				"energy": -0.04275,
				"method": "rhf"
			},
			{
				"type": "unocc",
				"energy": 0.01676,
				"method": "rhf"
			}
		],
		"cosmo_sigma_profile": { 
			"-0.025": 0.0,
			"-0.024": 0.0,
			"-0.023": 0.0,
			"-0.022": 0.0,
			"-0.021": 0.0,
			"-0.02": 0.0,
			"-0.019": 0.0,
			"-0.018": 0.0,
			"-0.017": 0.0,
			"-0.016": 0.0,
			"-0.015": 0.0,
			"-0.014": 0.0,
			"-0.013": 0.0,
			"-0.012": 0.0,
			"-0.011": 0.0,
			"-0.01": 0.514425120034,
			"-0.009": 4.0978227901,
			"-0.008": 9.00255318839,
			"-0.007": 12.598719189,
			"-0.006": 12.36901665,
			"-0.005": 15.9070409144,
			"-0.004": 22.4729076387,
			"-0.003": 31.3202214344,
			"-0.002": 30.0674430013,
			"-0.001": 22.933777419,
			"0.0": 24.0039161346,
			"0.001": 25.2053117656,
			"0.002": 37.4128654673,
			"0.003": 21.2846663922,
			"0.004": 11.4044878498,
			"0.005": 12.9060988576,
			"0.006": 20.4128684386,
			"0.007": 15.0700457532,
			"0.008": 8.50543207036,
			"0.009": 5.07191668422,
			"0.01": 0.405112754004,
			"0.011": 0.0,
			"0.012": 0.0,
			"0.013": 0.0,
			"0.014": 0.0,
			"0.015": 0.0,
			"0.016": 0.0,
			"0.017": 0.0,
			"0.018": 0.0,
			"0.019": 0.0,
			"0.02": 0.0,
			"0.021": 0.0,
			"0.022": 0.0,
			"0.023": 0.0,
			"0.024": 0.0,
			"0.025": 0.0
		}
	}
}
