{
	 "smiles": "CC(C)(C)OC(=O)NC(C(O)=O)C1=CC=C(F)C=C1", 
	 "Tm": 403.15, 
	 "num_atms": 35, 
	 "gaussian": { 
		 "optdone": 1, 
		 "sigma_profile": "yes", 
		 "theory": "DFT", 
		 "functional": "B3LYP", 
		 "basiset": "6-31G**", 
		 "properties": { 
			 "R2extent": 6918.9136, 
			 "electric_dipole_moment_norm": 3.38574893783, 
			 "electric_quadrupole_moment_norm": 12.6237379389, 
			 "total_energy": -960.558129037, 
			 "HOMO_LUMO_gap": 0.22518, 
			 "cosmo_polarized_energy": -14.82, 
			 "cosmo_cavitation_energy": 39.52, 
			 "cosmo_dispersion_energy": -26.74, 
			 "cosmo_repulsion_energy": 2.09, 
			 "cosmo_total_nonelectrostatic_energy": 14.87, 
			 "SMD_solvation_energy": 8.95 
		},
		"coords": [
			{
				"x": -3.2583620016,
				"y": 0.2961789981,
				"z": 0.2086747449,
				"element": "C" 
			},
			{
				"x": -2.7423131489,
				"y": -0.3534796209,
				"z": -1.0795980429,
				"element": "C" 
			},
			{
				"x": -3.5156912474,
				"y": -1.6377321296,
				"z": -1.3891573543,
				"element": "C" 
			},
			{
				"x": -2.7820254031,
				"y": 0.6076000993,
				"z": -2.272233592,
				"element": "C" 
			},
			{
				"x": -1.3698851336,
				"y": -0.8492862293,
				"z": -0.8783622493,
				"element": "O" 
			},
			{
				"x": -0.3602496809,
				"y": 0.0000790477,
				"z": -0.5834690968,
				"element": "C" 
			},
			{
				"x": -0.4417692039,
				"y": 1.2108880273,
				"z": -0.4378330463,
				"element": "O" 
			},
			{
				"x": 0.8109362963,
				"y": -0.7044223205,
				"z": -0.4873190767,
				"element": "N" 
			},
			{
				"x": 2.021996347,
				"y": -0.0526235961,
				"z": -0.0082695237,
				"element": "C" 
			},
			{
				"x": 3.2582481108,
				"y": -0.6360908464,
				"z": -0.6850440429,
				"element": "C" 
			},
			{
				"x": 3.1421113851,
				"y": -1.9723082576,
				"z": -0.9073334487,
				"element": "O" 
			},
			{
				"x": 4.2510467892,
				"y": -0.0104371794,
				"z": -0.968239866,
				"element": "O" 
			},
			{
				"x": 2.1645797995,
				"y": -0.0697723821,
				"z": 1.5155052253,
				"element": "C" 
			},
			{
				"x": 1.7634937544,
				"y": 1.0553374046,
				"z": 2.2478388874,
				"element": "C" 
			},
			{
				"x": 1.8335280779,
				"y": 1.0641065674,
				"z": 3.6403682392,
				"element": "C" 
			},
			{
				"x": 2.3112713724,
				"y": -0.0674106068,
				"z": 4.2913137614,
				"element": "C" 
			},
			{
				"x": 2.3860122318,
				"y": -0.0663562335,
				"z": 5.6380735095,
				"element": "F" 
			},
			{
				"x": 2.7145595175,
				"y": -1.2016009367,
				"z": 3.5954956747,
				"element": "C" 
			},
			{
				"x": 2.6364932746,
				"y": -1.1960188313,
				"z": 2.2032729385,
				"element": "C" 
			},
			{
				"x": -3.1744111231,
				"y": -0.4028005733,
				"z": 1.046874729,
				"element": "H" 
			},
			{
				"x": -2.6954876913,
				"y": 1.1997918095,
				"z": 0.4435479682,
				"element": "H" 
			},
			{
				"x": -4.3147082868,
				"y": 0.5582548319,
				"z": 0.0896923224,
				"element": "H" 
			},
			{
				"x": -3.1155017204,
				"y": -2.1236634594,
				"z": -2.2837364028,
				"element": "H" 
			},
			{
				"x": -3.4469752649,
				"y": -2.3411070825,
				"z": -0.554180886,
				"element": "H" 
			},
			{
				"x": -4.5710957624,
				"y": -1.4075833586,
				"z": -1.5623006155,
				"element": "H" 
			},
			{
				"x": -3.8195888406,
				"y": 0.883394945,
				"z": -2.4869591034,
				"element": "H" 
			},
			{
				"x": -2.3677883529,
				"y": 0.1250070512,
				"z": -3.16313237,
				"element": "H" 
			},
			{
				"x": -2.2127721282,
				"y": 1.5136635653,
				"z": -2.0631996413,
				"element": "H" 
			},
			{
				"x": 0.7640352015,
				"y": -1.7125199516,
				"z": -0.4933383309,
				"element": "H" 
			},
			{
				"x": 1.9628847808,
				"y": 0.987074865,
				"z": -0.332852572,
				"element": "H" 
			},
			{
				"x": 3.9760630344,
				"y": -2.253281191,
				"z": -1.3211193014,
				"element": "H" 
			},
			{
				"x": 1.3776524339,
				"y": 1.9229765418,
				"z": 1.7219747286,
				"element": "H" 
			},
			{
				"x": 1.5267681026,
				"y": 1.9278028587,
				"z": 4.2202344955,
				"element": "H" 
			},
			{
				"x": 3.0823304498,
				"y": -2.0632717643,
				"z": 4.1419835499,
				"element": "H" 
			},
			{
				"x": 2.9488140305,
				"y": -2.077990062,
				"z": 1.6520277882,
				"element": "H" 
			}
		],
		 "valence_orbital": [ 
			{
				"type": "occ",
				"energy": -0.29097,
				"method": "rhf"
			},
			{
				"type": "occ",
				"energy": -0.27149,
				"method": "rhf"
			},
			{
				"type": "occ",
				"energy": -0.26502,
				"method": "rhf"
			},
			{
				"type": "occ",
				"energy": -0.25705,
				"method": "rhf"
			},
			{
				"type": "occ",
				"energy": -0.24428,
				"method": "rhf"
			},
			{
				"type": "unocc",
				"energy": -0.0191,
				"method": "rhf"
			},
			{
				"type": "unocc",
				"energy": -0.01519,
				"method": "rhf"
			},
			{
				"type": "unocc",
				"energy": 0.00536,
				"method": "rhf"
			},
			{
				"type": "unocc",
				"energy": 0.05141,
				"method": "rhf"
			},
			{
				"type": "unocc",
				"energy": 0.06033,
				"method": "rhf"
			}
		],
		"cosmo_sigma_profile": { 
			"-0.025": 0.0,
			"-0.024": 0.0,
			"-0.023": 0.0,
			"-0.022": 0.0,
			"-0.021": 0.0,
			"-0.02": 0.0,
			"-0.019": 0.508126451232,
			"-0.018": 0.823533554256,
			"-0.017": 1.23688242471,
			"-0.016": 0.567344308532,
			"-0.015": 1.02725840703,
			"-0.014": 0.38717384987,
			"-0.013": 0.975628752628,
			"-0.012": 1.35202915384,
			"-0.011": 1.44753098438,
			"-0.01": 1.07046439339,
			"-0.009": 1.23253223283,
			"-0.008": 2.57878176623,
			"-0.007": 6.41365434016,
			"-0.006": 8.8790976564,
			"-0.005": 12.4904019496,
			"-0.004": 20.8543651781,
			"-0.003": 25.7466333346,
			"-0.002": 23.650461188,
			"-0.001": 25.8483322925,
			"0.0": 37.6344043923,
			"0.001": 32.8009344883,
			"0.002": 19.8571549475,
			"0.003": 21.8391566797,
			"0.004": 22.501495527,
			"0.005": 9.49124861102,
			"0.006": 3.94753281781,
			"0.007": 4.94399551241,
			"0.008": 2.82959628738,
			"0.009": 3.1655171533,
			"0.01": 4.48380333129,
			"0.011": 6.59720641741,
			"0.012": 3.25781900622,
			"0.013": 1.28159741102,
			"0.014": 0.0,
			"0.015": 0.0,
			"0.016": 0.0,
			"0.017": 0.0,
			"0.018": 0.0,
			"0.019": 0.0,
			"0.02": 0.0,
			"0.021": 0.0,
			"0.022": 0.0,
			"0.023": 0.0,
			"0.024": 0.0,
			"0.025": 0.0
		}
	}
}
