{
	 "smiles": "CC1=CC(=O)NC(SCC(O)=O)=C1C#N", 
	 "Tm": 472.15, 
	 "num_atms": 23, 
	 "gaussian": { 
		 "optdone": 1, 
		 "sigma_profile": "yes", 
		 "theory": "DFT", 
		 "functional": "B3LYP", 
		 "basiset": "6-31G**", 
		 "properties": { 
			 "R2extent": 4298.0608, 
			 "electric_dipole_moment_norm": 2.60233892681, 
			 "electric_quadrupole_moment_norm": 28.5639631727, 
			 "total_energy": -1081.14371174, 
			 "HOMO_LUMO_gap": 0.16453, 
			 "cosmo_polarized_energy": -20.74, 
			 "cosmo_cavitation_energy": 30.72, 
			 "cosmo_dispersion_energy": -21.34, 
			 "cosmo_repulsion_energy": 1.65, 
			 "cosmo_total_nonelectrostatic_energy": 11.03, 
			 "SMD_solvation_energy": 7.93 
		},
		"coords": [
			{
				"x": -2.2675575769,
				"y": -2.7408400037,
				"z": 1.9822484804,
				"element": "C" 
			},
			{
				"x": -1.0629710282,
				"y": -2.3223315332,
				"z": 1.1817445258,
				"element": "C" 
			},
			{
				"x": -0.9289251311,
				"y": -2.6500639476,
				"z": -0.1361123062,
				"element": "C" 
			},
			{
				"x": 0.214618014,
				"y": -2.2566297579,
				"z": -0.9366605562,
				"element": "C" 
			},
			{
				"x": 0.4081866585,
				"y": -2.495256548,
				"z": -2.1195655617,
				"element": "O" 
			},
			{
				"x": 1.1704230281,
				"y": -1.4970261066,
				"z": -0.2092674703,
				"element": "N" 
			},
			{
				"x": 1.0851506863,
				"y": -1.1556925404,
				"z": 1.0983763591,
				"element": "C" 
			},
			{
				"x": 2.4996628456,
				"y": -0.2870979273,
				"z": 1.7604996372,
				"element": "S" 
			},
			{
				"x": 1.7641324916,
				"y": 1.3033093837,
				"z": 2.2708729837,
				"element": "C" 
			},
			{
				"x": 1.2389934684,
				"y": 2.1433862604,
				"z": 1.1176512552,
				"element": "C" 
			},
			{
				"x": 0.9156949234,
				"y": 3.3774783902,
				"z": 1.5586411016,
				"element": "O" 
			},
			{
				"x": 1.1019547516,
				"y": 1.7842183309,
				"z": -0.028028786,
				"element": "O" 
			},
			{
				"x": -0.0126670753,
				"y": -1.5654082904,
				"z": 1.8360769171,
				"element": "C" 
			},
			{
				"x": -0.1125035439,
				"y": -1.2429429582,
				"z": 3.219855254,
				"element": "C" 
			},
			{
				"x": -0.2246819321,
				"y": -0.9628527102,
				"z": 4.3455223837,
				"element": "N" 
			},
			{
				"x": -2.7889545383,
				"y": -1.8678707384,
				"z": 2.3900366985,
				"element": "H" 
			},
			{
				"x": -2.967568056,
				"y": -3.3088133677,
				"z": 1.3667031284,
				"element": "H" 
			},
			{
				"x": -1.9734707915,
				"y": -3.3591369869,
				"z": 2.8374635736,
				"element": "H" 
			},
			{
				"x": -1.6934818997,
				"y": -3.2189362288,
				"z": -0.6526667065,
				"element": "H" 
			},
			{
				"x": 1.9287137939,
				"y": -1.1161533375,
				"z": -0.7645765916,
				"element": "H" 
			},
			{
				"x": 2.5654650638,
				"y": 1.8447389139,
				"z": 2.782493806,
				"element": "H" 
			},
			{
				"x": 0.9719901815,
				"y": 1.1475835772,
				"z": 3.0090037377,
				"element": "H" 
			},
			{
				"x": 0.5645956662,
				"y": 3.8646381266,
				"z": 0.7936881367,
				"element": "H" 
			}
		],
		 "valence_orbital": [ 
			{
				"type": "occ",
				"energy": -0.307,
				"method": "rhf"
			},
			{
				"type": "occ",
				"energy": -0.30254,
				"method": "rhf"
			},
			{
				"type": "occ",
				"energy": -0.2794,
				"method": "rhf"
			},
			{
				"type": "occ",
				"energy": -0.26279,
				"method": "rhf"
			},
			{
				"type": "occ",
				"energy": -0.23405,
				"method": "rhf"
			},
			{
				"type": "unocc",
				"energy": -0.06952,
				"method": "rhf"
			},
			{
				"type": "unocc",
				"energy": -0.03902,
				"method": "rhf"
			},
			{
				"type": "unocc",
				"energy": -0.01637,
				"method": "rhf"
			},
			{
				"type": "unocc",
				"energy": 0.00813,
				"method": "rhf"
			},
			{
				"type": "unocc",
				"energy": 0.01905,
				"method": "rhf"
			}
		],
		"cosmo_sigma_profile": { 
			"-0.025": 0.0,
			"-0.024": 0.0,
			"-0.023": 0.0,
			"-0.022": 0.0,
			"-0.021": 0.0,
			"-0.02": 0.0,
			"-0.019": 0.474963982115,
			"-0.018": 1.00001976193,
			"-0.017": 1.12587494202,
			"-0.016": 1.31538177305,
			"-0.015": 0.913264178607,
			"-0.014": 1.47083643344,
			"-0.013": 1.58878534064,
			"-0.012": 1.44617307098,
			"-0.011": 1.79036520158,
			"-0.01": 4.09555459398,
			"-0.009": 3.54899648605,
			"-0.008": 5.62440006763,
			"-0.007": 9.12526362293,
			"-0.006": 12.8891695728,
			"-0.005": 14.5141332281,
			"-0.004": 15.0692831164,
			"-0.003": 16.8098230953,
			"-0.002": 20.8949069115,
			"-0.001": 19.043442529,
			"0.0": 13.0426549497,
			"0.001": 12.662241833,
			"0.002": 9.82621887988,
			"0.003": 7.52181949605,
			"0.004": 9.49064853835,
			"0.005": 8.47286522908,
			"0.006": 6.46801505007,
			"0.007": 5.88054747263,
			"0.008": 6.97403092266,
			"0.009": 7.02377022167,
			"0.01": 6.07124841913,
			"0.011": 6.49087698808,
			"0.012": 5.79609400708,
			"0.013": 6.89512673237,
			"0.014": 2.18974464132,
			"0.015": 0.123699432932,
			"0.016": 0.0,
			"0.017": 0.0,
			"0.018": 0.0,
			"0.019": 0.0,
			"0.02": 0.0,
			"0.021": 0.0,
			"0.022": 0.0,
			"0.023": 0.0,
			"0.024": 0.0,
			"0.025": 0.0
		}
	}
}
