{
	 "smiles": "CC1=C(SC(=N1)C1=NC=CN=C1)C(Cl)=O", 
	 "Tm": 374.15, 
	 "num_atms": 21, 
	 "gaussian": { 
		 "optdone": 1, 
		 "sigma_profile": "yes", 
		 "theory": "DFT", 
		 "functional": "B3LYP", 
		 "basiset": "6-31G**", 
		 "properties": { 
			 "R2extent": 5106.474, 
			 "electric_dipole_moment_norm": 3.44573750741, 
			 "electric_quadrupole_moment_norm": 22.5742052954, 
			 "total_energy": -1444.42476047, 
			 "HOMO_LUMO_gap": 0.14985, 
			 "cosmo_polarized_energy": -9.31, 
			 "cosmo_cavitation_energy": 29.97, 
			 "cosmo_dispersion_energy": -22.62, 
			 "cosmo_repulsion_energy": 1.71, 
			 "cosmo_total_nonelectrostatic_energy": 9.06, 
			 "SMD_solvation_energy": 1.82 
		},
		"coords": [
			{
				"x": 2.5497638867,
				"y": -1.6388794104,
				"z": -1.3932852449,
				"element": "C" 
			},
			{
				"x": 1.2243265777,
				"y": -0.9535788803,
				"z": -1.2245836965,
				"element": "C" 
			},
			{
				"x": 0.4040207075,
				"y": -0.3731292258,
				"z": -2.1922233635,
				"element": "C" 
			},
			{
				"x": -1.0394701975,
				"y": 0.2916655361,
				"z": -1.4525525528,
				"element": "S" 
			},
			{
				"x": -0.4368440653,
				"y": -0.254439489,
				"z": 0.0803456883,
				"element": "C" 
			},
			{
				"x": 0.7245418644,
				"y": -0.8711323848,
				"z": 0.0448765688,
				"element": "N" 
			},
			{
				"x": -1.1964585363,
				"y": -0.0275072333,
				"z": 1.3127508143,
				"element": "C" 
			},
			{
				"x": -2.3691659203,
				"y": 0.6161569993,
				"z": 1.1970304182,
				"element": "N" 
			},
			{
				"x": -3.0524590866,
				"y": 0.8175829654,
				"z": 2.3231796509,
				"element": "C" 
			},
			{
				"x": -2.5729151584,
				"y": 0.3809515839,
				"z": 3.5627384449,
				"element": "C" 
			},
			{
				"x": -1.4049860619,
				"y": -0.2610094031,
				"z": 3.6849543633,
				"element": "N" 
			},
			{
				"x": -0.7172648158,
				"y": -0.4649008712,
				"z": 2.559459222,
				"element": "C" 
			},
			{
				"x": 0.4893452099,
				"y": -0.2081361523,
				"z": -3.6368636973,
				"element": "C" 
			},
			{
				"x": 1.9828108974,
				"y": -0.8927404876,
				"z": -4.4237076303,
				"element": "Cl" 
			},
			{
				"x": -0.3320667766,
				"y": 0.3316290062,
				"z": -4.3231678401,
				"element": "O" 
			},
			{
				"x": 2.8919396042,
				"y": -1.9655029493,
				"z": -0.4104045802,
				"element": "H" 
			},
			{
				"x": 3.2961166593,
				"y": -0.9701456517,
				"z": -1.8300463006,
				"element": "H" 
			},
			{
				"x": 2.4731090417,
				"y": -2.5063989013,
				"z": -2.054023765,
				"element": "H" 
			},
			{
				"x": -4.0037644119,
				"y": 1.3380976283,
				"z": 2.2405146036,
				"element": "H" 
			},
			{
				"x": -3.1426004665,
				"y": 0.5530030168,
				"z": 4.4730292175,
				"element": "H" 
			},
			{
				"x": 0.2343210483,
				"y": -0.9834856961,
				"z": 2.6281796794,
				"element": "H" 
			}
		],
		 "valence_orbital": [ 
			{
				"type": "occ",
				"energy": -0.31468,
				"method": "rhf"
			},
			{
				"type": "occ",
				"energy": -0.29996,
				"method": "rhf"
			},
			{
				"type": "occ",
				"energy": -0.28949,
				"method": "rhf"
			},
			{
				"type": "occ",
				"energy": -0.26844,
				"method": "rhf"
			},
			{
				"type": "occ",
				"energy": -0.25738,
				"method": "rhf"
			},
			{
				"type": "unocc",
				"energy": -0.10753,
				"method": "rhf"
			},
			{
				"type": "unocc",
				"energy": -0.06341,
				"method": "rhf"
			},
			{
				"type": "unocc",
				"energy": -0.04814,
				"method": "rhf"
			},
			{
				"type": "unocc",
				"energy": -0.00269,
				"method": "rhf"
			},
			{
				"type": "unocc",
				"energy": 0.0125,
				"method": "rhf"
			}
		],
		"cosmo_sigma_profile": { 
			"-0.025": 0.0,
			"-0.024": 0.0,
			"-0.023": 0.0,
			"-0.022": 0.0,
			"-0.021": 0.0,
			"-0.02": 0.0,
			"-0.019": 0.0,
			"-0.018": 0.0,
			"-0.017": 0.0,
			"-0.016": 0.0,
			"-0.015": 0.0,
			"-0.014": 0.0,
			"-0.013": 0.0,
			"-0.012": 0.0,
			"-0.011": 0.0,
			"-0.01": 0.0,
			"-0.009": 1.4749194945,
			"-0.008": 6.68118043507,
			"-0.007": 4.94988335252,
			"-0.006": 5.84428797045,
			"-0.005": 10.9216837293,
			"-0.004": 16.8632308706,
			"-0.003": 26.7389566955,
			"-0.002": 31.6283706296,
			"-0.001": 24.6457852557,
			"0.0": 20.4127232554,
			"0.001": 19.6549188827,
			"0.002": 13.8208285535,
			"0.003": 11.6703681992,
			"0.004": 11.2954995714,
			"0.005": 8.62730779522,
			"0.006": 6.42000180002,
			"0.007": 5.54508590275,
			"0.008": 7.06696681336,
			"0.009": 6.88358986005,
			"0.01": 1.80022966557,
			"0.011": 1.33394225337,
			"0.012": 0.574730049431,
			"0.013": 0.603297801911,
			"0.014": 0.99012176172,
			"0.015": 0.00894309710908,
			"0.016": 0.0,
			"0.017": 0.0,
			"0.018": 0.0,
			"0.019": 0.0,
			"0.02": 0.0,
			"0.021": 0.0,
			"0.022": 0.0,
			"0.023": 0.0,
			"0.024": 0.0,
			"0.025": 0.0
		}
	}
}
