{
	 "smiles": "ClS(=O)(=O)C1=CC2=C(OCC2)C=C1", 
	 "Tm": 357.65, 
	 "num_atms": 20, 
	 "gaussian": { 
		 "optdone": 1, 
		 "sigma_profile": "yes", 
		 "theory": "DFT", 
		 "functional": "B3LYP", 
		 "basiset": "6-31G**", 
		 "properties": { 
			 "R2extent": 4089.1863, 
			 "electric_dipole_moment_norm": 6.70749257845, 
			 "electric_quadrupole_moment_norm": 16.4139572511, 
			 "total_energy": -1393.04802987, 
			 "HOMO_LUMO_gap": 0.16541, 
			 "cosmo_polarized_energy": -11.32, 
			 "cosmo_cavitation_energy": 27.32, 
			 "cosmo_dispersion_energy": -20.97, 
			 "cosmo_repulsion_energy": 1.63, 
			 "cosmo_total_nonelectrostatic_energy": 7.98, 
			 "SMD_solvation_energy": 3.42 
		},
		"coords": [
			{
				"x": -1.6066774061,
				"y": -2.5598258952,
				"z": 1.9267630474,
				"element": "Cl" 
			},
			{
				"x": 0.5377561274,
				"y": -2.4638190946,
				"z": 1.9434323896,
				"element": "S" 
			},
			{
				"x": 0.9885434565,
				"y": -3.6120596051,
				"z": 1.1658181229,
				"element": "O" 
			},
			{
				"x": 0.9089597469,
				"y": -2.2759494406,
				"z": 3.3414932504,
				"element": "O" 
			},
			{
				"x": 0.8474423539,
				"y": -0.9695006607,
				"z": 1.0410338653,
				"element": "C" 
			},
			{
				"x": 0.9106655704,
				"y": 0.2415752174,
				"z": 1.7490405212,
				"element": "C" 
			},
			{
				"x": 1.149627445,
				"y": 1.3939924931,
				"z": 1.0228022684,
				"element": "C" 
			},
			{
				"x": 1.3185337824,
				"y": 1.3239395065,
				"z": -0.3686089044,
				"element": "C" 
			},
			{
				"x": 1.5494584232,
				"y": 2.5254635098,
				"z": -0.9431305718,
				"element": "O" 
			},
			{
				"x": 1.3744234036,
				"y": 3.5550465893,
				"z": 0.0728687392,
				"element": "C" 
			},
			{
				"x": 1.336396172,
				"y": 2.8342624585,
				"z": 1.4436059803,
				"element": "C" 
			},
			{
				"x": 1.2614184467,
				"y": 0.121395677,
				"z": -1.0732415703,
				"element": "C" 
			},
			{
				"x": 1.0166184969,
				"y": -1.0419508517,
				"z": -0.3460167782,
				"element": "C" 
			},
			{
				"x": 0.7873199684,
				"y": 0.2525250251,
				"z": 2.8265381796,
				"element": "H" 
			},
			{
				"x": 0.4344950575,
				"y": 4.0731605046,
				"z": -0.1440777873,
				"element": "H" 
			},
			{
				"x": 2.200974106,
				"y": 4.2600152507,
				"z": -0.0323204098,
				"element": "H" 
			},
			{
				"x": 0.5258420955,
				"y": 3.2069277855,
				"z": 2.0764496821,
				"element": "H" 
			},
			{
				"x": 2.2734613592,
				"y": 2.9653600242,
				"z": 1.9971446557,
				"element": "H" 
			},
			{
				"x": 1.4024885783,
				"y": 0.1001057651,
				"z": -2.1476124051,
				"element": "H" 
			},
			{
				"x": 0.9632528163,
				"y": -2.0034642589,
				"z": -0.8439822752,
				"element": "H" 
			}
		],
		 "valence_orbital": [ 
			{
				"type": "occ",
				"energy": -0.32885,
				"method": "rhf"
			},
			{
				"type": "occ",
				"energy": -0.31858,
				"method": "rhf"
			},
			{
				"type": "occ",
				"energy": -0.30517,
				"method": "rhf"
			},
			{
				"type": "occ",
				"energy": -0.28348,
				"method": "rhf"
			},
			{
				"type": "occ",
				"energy": -0.24789,
				"method": "rhf"
			},
			{
				"type": "unocc",
				"energy": -0.08248,
				"method": "rhf"
			},
			{
				"type": "unocc",
				"energy": -0.03749,
				"method": "rhf"
			},
			{
				"type": "unocc",
				"energy": -0.02867,
				"method": "rhf"
			},
			{
				"type": "unocc",
				"energy": 0.06007,
				"method": "rhf"
			},
			{
				"type": "unocc",
				"energy": 0.07082,
				"method": "rhf"
			}
		],
		"cosmo_sigma_profile": { 
			"-0.025": 0.0,
			"-0.024": 0.0,
			"-0.023": 0.0,
			"-0.022": 0.0,
			"-0.021": 0.0,
			"-0.02": 0.0,
			"-0.019": 0.0,
			"-0.018": 0.0,
			"-0.017": 0.0,
			"-0.016": 0.0,
			"-0.015": 0.0,
			"-0.014": 0.0,
			"-0.013": 0.0,
			"-0.012": 0.0,
			"-0.011": 0.0,
			"-0.01": 0.0,
			"-0.009": 0.311717906737,
			"-0.008": 3.56474581958,
			"-0.007": 7.1692569989,
			"-0.006": 18.9799576068,
			"-0.005": 19.0448649135,
			"-0.004": 16.949381241,
			"-0.003": 14.4405947117,
			"-0.002": 9.53613252687,
			"-0.001": 13.1328406453,
			"0.0": 16.4893645218,
			"0.001": 21.3558513913,
			"0.002": 14.4999235935,
			"0.003": 11.3142913264,
			"0.004": 17.1642251225,
			"0.005": 7.34792433131,
			"0.006": 3.04638770414,
			"0.007": 6.05431555737,
			"0.008": 10.824017264,
			"0.009": 8.46223990707,
			"0.01": 1.78113053822,
			"0.011": 0.0296297080543,
			"0.012": 0.0,
			"0.013": 0.0,
			"0.014": 0.0,
			"0.015": 0.0,
			"0.016": 0.0,
			"0.017": 0.0,
			"0.018": 0.0,
			"0.019": 0.0,
			"0.02": 0.0,
			"0.021": 0.0,
			"0.022": 0.0,
			"0.023": 0.0,
			"0.024": 0.0,
			"0.025": 0.0
		}
	}
}
