{
	 "smiles": "S1C=C(N=N1)C1=CC=CC=C1", 
	 "Tm": 351.15, 
	 "num_atms": 17, 
	 "gaussian": { 
		 "optdone": 1, 
		 "sigma_profile": "yes", 
		 "theory": "DFT", 
		 "functional": "B3LYP", 
		 "basiset": "6-31G**", 
		 "properties": { 
			 "R2extent": 3762.6766, 
			 "electric_dipole_moment_norm": 3.30834743339, 
			 "electric_quadrupole_moment_norm": 12.8258553403, 
			 "total_energy": -816.1161113, 
			 "HOMO_LUMO_gap": 0.171, 
			 "cosmo_polarized_energy": -8.47, 
			 "cosmo_cavitation_energy": 23.16, 
			 "cosmo_dispersion_energy": -18.02, 
			 "cosmo_repulsion_energy": 1.36, 
			 "cosmo_total_nonelectrostatic_energy": 6.51, 
			 "SMD_solvation_energy": 2.28 
		},
		"coords": [
			{
				"x": -0.5053181881,
				"y": -1.4589673695,
				"z": 5.0178302526,
				"element": "S" 
			},
			{
				"x": 0.1908557538,
				"y": -2.0325484351,
				"z": 3.5750975617,
				"element": "C" 
			},
			{
				"x": -0.1351525718,
				"y": -1.1951059705,
				"z": 2.5290734888,
				"element": "C" 
			},
			{
				"x": -0.9262154755,
				"y": -0.1372118178,
				"z": 2.9401284287,
				"element": "N" 
			},
			{
				"x": -1.2237261562,
				"y": -0.095156241,
				"z": 4.1712214081,
				"element": "N" 
			},
			{
				"x": 0.2490358733,
				"y": -1.3059923361,
				"z": 1.1105828942,
				"element": "C" 
			},
			{
				"x": -0.1837429651,
				"y": -0.3356260738,
				"z": 0.1910927612,
				"element": "C" 
			},
			{
				"x": 0.1719894926,
				"y": -0.4274892435,
				"z": -1.1529395128,
				"element": "C" 
			},
			{
				"x": 0.9634581707,
				"y": -1.4853864044,
				"z": -1.6038332703,
				"element": "C" 
			},
			{
				"x": 1.3981444136,
				"y": -2.4547516142,
				"z": -0.6970284961,
				"element": "C" 
			},
			{
				"x": 1.0447193224,
				"y": -2.3666721637,
				"z": 0.6472426594,
				"element": "C" 
			},
			{
				"x": 0.7927907393,
				"y": -2.9286880773,
				"z": 3.5415005753,
				"element": "H" 
			},
			{
				"x": -0.7982636963,
				"y": 0.4848317579,
				"z": 0.5438909531,
				"element": "H" 
			},
			{
				"x": -0.1712668636,
				"y": 0.3314101668,
				"z": -1.850052569,
				"element": "H" 
			},
			{
				"x": 1.2396073422,
				"y": -1.5551087015,
				"z": -2.6518196108,
				"element": "H" 
			},
			{
				"x": 2.0140975584,
				"y": -3.2823368129,
				"z": -1.0366869239,
				"element": "H" 
			},
			{
				"x": 1.3921872503,
				"y": -3.1307006636,
				"z": 1.3363993998,
				"element": "H" 
			}
		],
		 "valence_orbital": [ 
			{
				"type": "occ",
				"energy": -0.31375,
				"method": "rhf"
			},
			{
				"type": "occ",
				"energy": -0.30189,
				"method": "rhf"
			},
			{
				"type": "occ",
				"energy": -0.26363,
				"method": "rhf"
			},
			{
				"type": "occ",
				"energy": -0.25854,
				"method": "rhf"
			},
			{
				"type": "occ",
				"energy": -0.23411,
				"method": "rhf"
			},
			{
				"type": "unocc",
				"energy": -0.06311,
				"method": "rhf"
			},
			{
				"type": "unocc",
				"energy": -0.03018,
				"method": "rhf"
			},
			{
				"type": "unocc",
				"energy": -0.01414,
				"method": "rhf"
			},
			{
				"type": "unocc",
				"energy": -0.00672,
				"method": "rhf"
			},
			{
				"type": "unocc",
				"energy": 0.06309,
				"method": "rhf"
			}
		],
		"cosmo_sigma_profile": { 
			"-0.025": 0.0,
			"-0.024": 0.0,
			"-0.023": 0.0,
			"-0.022": 0.0,
			"-0.021": 0.0,
			"-0.02": 0.0,
			"-0.019": 0.0,
			"-0.018": 0.0,
			"-0.017": 0.0,
			"-0.016": 0.0,
			"-0.015": 0.0,
			"-0.014": 0.0,
			"-0.013": 0.0,
			"-0.012": 0.150474478667,
			"-0.011": 2.17045503595,
			"-0.01": 2.39483366505,
			"-0.009": 2.49231358723,
			"-0.008": 2.77261170477,
			"-0.007": 2.49113992447,
			"-0.006": 7.50344116147,
			"-0.005": 10.9964935151,
			"-0.004": 12.7323890928,
			"-0.003": 13.0935860797,
			"-0.002": 13.0420106507,
			"-0.001": 16.3315529568,
			"0.0": 19.190345234,
			"0.001": 18.8526382776,
			"0.002": 12.2518586955,
			"0.003": 11.6219085272,
			"0.004": 12.172468177,
			"0.005": 11.8462309531,
			"0.006": 2.59135682516,
			"0.007": 2.27600243014,
			"0.008": 2.53846759441,
			"0.009": 3.64813671562,
			"0.01": 3.39558168691,
			"0.011": 1.55126722117,
			"0.012": 1.46118917762,
			"0.013": 0.226634196896,
			"0.014": 0.0,
			"0.015": 0.0,
			"0.016": 0.0,
			"0.017": 0.0,
			"0.018": 0.0,
			"0.019": 0.0,
			"0.02": 0.0,
			"0.021": 0.0,
			"0.022": 0.0,
			"0.023": 0.0,
			"0.024": 0.0,
			"0.025": 0.0
		}
	}
}
