{
	 "smiles": "CC1=C(C)C=C(C=C1)C1=CC(F)=C(C=C1)C(O)=O", 
	 "Tm": 487.15, 
	 "num_atms": 31, 
	 "gaussian": { 
		 "optdone": 1, 
		 "sigma_profile": "yes", 
		 "theory": "DFT", 
		 "functional": "B3LYP", 
		 "basiset": "6-31G**", 
		 "properties": { 
			 "R2extent": 7383.8467, 
			 "electric_dipole_moment_norm": 6.64213394626, 
			 "electric_quadrupole_moment_norm": 23.3828967487, 
			 "total_energy": -829.750487364, 
			 "HOMO_LUMO_gap": 0.17154, 
			 "cosmo_polarized_energy": -12.39, 
			 "cosmo_cavitation_energy": 35.28, 
			 "cosmo_dispersion_energy": -25.58, 
			 "cosmo_repulsion_energy": 1.91, 
			 "cosmo_total_nonelectrostatic_energy": 11.61, 
			 "SMD_solvation_energy": 7.33 
		},
		"coords": [
			{
				"x": -3.2309720256,
				"y": 1.2815890265,
				"z": -3.2211752294,
				"element": "C" 
			},
			{
				"x": -2.3374052308,
				"y": 0.9113016657,
				"z": -2.0628461301,
				"element": "C" 
			},
			{
				"x": -1.0614031426,
				"y": 1.4979396767,
				"z": -1.9122855644,
				"element": "C" 
			},
			{
				"x": -0.5595473476,
				"y": 2.5215935333,
				"z": -2.9027574298,
				"element": "C" 
			},
			{
				"x": -0.2650051613,
				"y": 1.1259251911,
				"z": -0.8271411534,
				"element": "C" 
			},
			{
				"x": -0.6896823638,
				"y": 0.1875832317,
				"z": 0.1281322973,
				"element": "C" 
			},
			{
				"x": -1.9593780063,
				"y": -0.3845329382,
				"z": -0.0324976627,
				"element": "C" 
			},
			{
				"x": -2.7610350004,
				"y": -0.024360717,
				"z": -1.1127818542,
				"element": "C" 
			},
			{
				"x": 0.1817876143,
				"y": -0.1833762387,
				"z": 1.2682416206,
				"element": "C" 
			},
			{
				"x": -0.3690753161,
				"y": -0.4604949845,
				"z": 2.5299126402,
				"element": "C" 
			},
			{
				"x": 0.4634171808,
				"y": -0.8081777017,
				"z": 3.579240381,
				"element": "C" 
			},
			{
				"x": -0.1348145665,
				"y": -1.0571084187,
				"z": 4.7863536035,
				"element": "F" 
			},
			{
				"x": 1.8530779738,
				"y": -0.89948506,
				"z": 3.4660652872,
				"element": "C" 
			},
			{
				"x": 2.3889953563,
				"y": -0.6192290988,
				"z": 2.1986989867,
				"element": "C" 
			},
			{
				"x": 1.5805164035,
				"y": -0.2712159404,
				"z": 1.1258265215,
				"element": "C" 
			},
			{
				"x": 2.8131837523,
				"y": -1.2686707886,
				"z": 4.5630812322,
				"element": "C" 
			},
			{
				"x": 2.3024662466,
				"y": -1.5354869753,
				"z": 5.7833354104,
				"element": "O" 
			},
			{
				"x": 4.0068501951,
				"y": -1.3278933889,
				"z": 4.3713719992,
				"element": "O" 
			},
			{
				"x": -3.4666360585,
				"y": 2.3528097627,
				"z": -3.2237220902,
				"element": "H" 
			},
			{
				"x": -4.1752516491,
				"y": 0.7325971718,
				"z": -3.1824243993,
				"element": "H" 
			},
			{
				"x": -2.7558079756,
				"y": 1.0627516608,
				"z": -4.1851632892,
				"element": "H" 
			},
			{
				"x": 0.4394285302,
				"y": 2.8747543785,
				"z": -2.6347098455,
				"element": "H" 
			},
			{
				"x": -1.2208448566,
				"y": 3.3950433053,
				"z": -2.9520168856,
				"element": "H" 
			},
			{
				"x": -0.5072232843,
				"y": 2.1092162601,
				"z": -3.9176318935,
				"element": "H" 
			},
			{
				"x": 0.7040505095,
				"y": 1.602444331,
				"z": -0.7058481694,
				"element": "H" 
			},
			{
				"x": -2.310137918,
				"y": -1.1353072359,
				"z": 0.669270955,
				"element": "H" 
			},
			{
				"x": -3.7381102995,
				"y": -0.4870427937,
				"z": -1.2269255076,
				"element": "H" 
			},
			{
				"x": -1.4346525556,
				"y": -0.3823292464,
				"z": 2.7127051652,
				"element": "H" 
			},
			{
				"x": 3.4654981406,
				"y": -0.6964280618,
				"z": 2.0910975846,
				"element": "H" 
			},
			{
				"x": 2.0303681508,
				"y": -0.0905805838,
				"z": 0.1554358186,
				"element": "H" 
			},
			{
				"x": 1.3367427045,
				"y": -1.4437290228,
				"z": 5.7740576012,
				"element": "H" 
			}
		],
		 "valence_orbital": [ 
			{
				"type": "occ",
				"energy": -0.28397,
				"method": "rhf"
			},
			{
				"type": "occ",
				"energy": -0.27154,
				"method": "rhf"
			},
			{
				"type": "occ",
				"energy": -0.26848,
				"method": "rhf"
			},
			{
				"type": "occ",
				"energy": -0.25456,
				"method": "rhf"
			},
			{
				"type": "occ",
				"energy": -0.23495,
				"method": "rhf"
			},
			{
				"type": "unocc",
				"energy": -0.06341,
				"method": "rhf"
			},
			{
				"type": "unocc",
				"energy": -0.01994,
				"method": "rhf"
			},
			{
				"type": "unocc",
				"energy": -0.00949,
				"method": "rhf"
			},
			{
				"type": "unocc",
				"energy": -0.00282,
				"method": "rhf"
			},
			{
				"type": "unocc",
				"energy": 0.05812,
				"method": "rhf"
			}
		],
		"cosmo_sigma_profile": { 
			"-0.025": 0.0,
			"-0.024": 0.0,
			"-0.023": 0.0,
			"-0.022": 0.0,
			"-0.021": 0.0,
			"-0.02": 0.0,
			"-0.019": 0.0,
			"-0.018": 0.0,
			"-0.017": 0.0,
			"-0.016": 0.0,
			"-0.015": 0.0,
			"-0.014": 0.0,
			"-0.013": 0.195141452926,
			"-0.012": 0.940888931515,
			"-0.011": 0.498840119084,
			"-0.01": 1.54663321303,
			"-0.009": 1.90155617455,
			"-0.008": 2.79780193423,
			"-0.007": 5.1503020975,
			"-0.006": 9.57460711445,
			"-0.005": 16.8211716008,
			"-0.004": 24.4876051861,
			"-0.003": 25.2277358626,
			"-0.002": 21.490247006,
			"-0.001": 25.566592214,
			"0.0": 30.5238310885,
			"0.001": 27.3662144772,
			"0.002": 22.947114629,
			"0.003": 14.7895172091,
			"0.004": 10.0888966348,
			"0.005": 10.6662220549,
			"0.006": 4.64833437719,
			"0.007": 2.2738800766,
			"0.008": 2.63376842236,
			"0.009": 3.29463405172,
			"0.01": 4.21816574975,
			"0.011": 5.79499396441,
			"0.012": 4.41496448857,
			"0.013": 1.74003727655,
			"0.014": 0.0955233314545,
			"0.015": 0.0,
			"0.016": 0.0,
			"0.017": 0.0,
			"0.018": 0.0,
			"0.019": 0.0,
			"0.02": 0.0,
			"0.021": 0.0,
			"0.022": 0.0,
			"0.023": 0.0,
			"0.024": 0.0,
			"0.025": 0.0
		}
	}
}
