{
	 "smiles": "OC(=O)CN1C=C(C=CC1=O)[N+]([O-])=O", 
	 "Tm": 499.15, 
	 "num_atms": 20, 
	 "gaussian": { 
		 "optdone": 1, 
		 "sigma_profile": "yes", 
		 "theory": "DFT", 
		 "functional": "B3LYP", 
		 "basiset": "6-31G**", 
		 "properties": { 
			 "R2extent": 3799.6979, 
			 "electric_dipole_moment_norm": 3.88430304044, 
			 "electric_quadrupole_moment_norm": 20.608737309, 
			 "total_energy": -755.893254352, 
			 "HOMO_LUMO_gap": 0.16319, 
			 "cosmo_polarized_energy": -19.74, 
			 "cosmo_cavitation_energy": 25.79, 
			 "cosmo_dispersion_energy": -18.88, 
			 "cosmo_repulsion_energy": 1.47, 
			 "cosmo_total_nonelectrostatic_energy": 8.38, 
			 "SMD_solvation_energy": 8.68 
		},
		"coords": [
			{
				"x": -2.4443894408,
				"y": -2.9707870766,
				"z": 1.0619832263,
				"element": "O" 
			},
			{
				"x": -1.253292419,
				"y": -3.5711487129,
				"z": 1.0708404493,
				"element": "C" 
			},
			{
				"x": -0.8538347141,
				"y": -4.2418022516,
				"z": 1.9913558305,
				"element": "O" 
			},
			{
				"x": -0.3997047542,
				"y": -3.384860867,
				"z": -0.2050059391,
				"element": "C" 
			},
			{
				"x": 0.0056111089,
				"y": -1.9869030293,
				"z": -0.4541614286,
				"element": "N" 
			},
			{
				"x": 1.271047495,
				"y": -1.5874271027,
				"z": -0.1808311768,
				"element": "C" 
			},
			{
				"x": 1.6713509085,
				"y": -0.3090757475,
				"z": -0.4684900806,
				"element": "C" 
			},
			{
				"x": 0.7723551119,
				"y": 0.6095378887,
				"z": -1.066318648,
				"element": "C" 
			},
			{
				"x": -0.5040438814,
				"y": 0.2090575424,
				"z": -1.3350587447,
				"element": "C" 
			},
			{
				"x": -0.970058965,
				"y": -1.1145709655,
				"z": -1.0076504565,
				"element": "C" 
			},
			{
				"x": -2.1265979927,
				"y": -1.5309017649,
				"z": -1.1687289528,
				"element": "O" 
			},
			{
				"x": 3.0407147144,
				"y": 0.0799984703,
				"z": -0.1662037714,
				"element": "N" 
			},
			{
				"x": 3.7778087908,
				"y": -0.7665061419,
				"z": 0.3418880547,
				"element": "O" 
			},
			{
				"x": 3.3684787322,
				"y": 1.2332200339,
				"z": -0.4428768174,
				"element": "O" 
			},
			{
				"x": -2.5651418366,
				"y": -2.4776155772,
				"z": 0.2132840992,
				"element": "H" 
			},
			{
				"x": 0.4986065074,
				"y": -3.9881964206,
				"z": -0.0904206668,
				"element": "H" 
			},
			{
				"x": -0.9650599531,
				"y": -3.7204966014,
				"z": -1.079057731,
				"element": "H" 
			},
			{
				"x": 1.9494009513,
				"y": -2.3054383373,
				"z": 0.2622596158,
				"element": "H" 
			},
			{
				"x": 1.1218208811,
				"y": 1.6100545184,
				"z": -1.2921177511,
				"element": "H" 
			},
			{
				"x": -1.2339712448,
				"y": 0.8716621427,
				"z": -1.783589111,
				"element": "H" 
			}
		],
		 "valence_orbital": [ 
			{
				"type": "occ",
				"energy": -0.3225,
				"method": "rhf"
			},
			{
				"type": "occ",
				"energy": -0.31688,
				"method": "rhf"
			},
			{
				"type": "occ",
				"energy": -0.30828,
				"method": "rhf"
			},
			{
				"type": "occ",
				"energy": -0.28549,
				"method": "rhf"
			},
			{
				"type": "occ",
				"energy": -0.27127,
				"method": "rhf"
			},
			{
				"type": "unocc",
				"energy": -0.10808,
				"method": "rhf"
			},
			{
				"type": "unocc",
				"energy": -0.08893,
				"method": "rhf"
			},
			{
				"type": "unocc",
				"energy": -0.01731,
				"method": "rhf"
			},
			{
				"type": "unocc",
				"energy": -0.0126,
				"method": "rhf"
			},
			{
				"type": "unocc",
				"energy": 0.05376,
				"method": "rhf"
			}
		],
		"cosmo_sigma_profile": { 
			"-0.025": 0.0,
			"-0.024": 0.0,
			"-0.023": 0.0,
			"-0.022": 0.0,
			"-0.021": 0.0,
			"-0.02": 0.0,
			"-0.019": 0.0,
			"-0.018": 0.0,
			"-0.017": 0.0,
			"-0.016": 0.0,
			"-0.015": 0.0,
			"-0.014": 0.578748843566,
			"-0.013": 1.35402501097,
			"-0.012": 1.62428165609,
			"-0.011": 1.95382544496,
			"-0.01": 3.23590911861,
			"-0.009": 7.27961883906,
			"-0.008": 11.3636841049,
			"-0.007": 14.578306864,
			"-0.006": 14.5115727251,
			"-0.005": 12.7809376896,
			"-0.004": 12.1360564807,
			"-0.003": 10.9299033625,
			"-0.002": 9.5971026971,
			"-0.001": 10.4966069065,
			"0.0": 7.40477602204,
			"0.001": 5.06420706319,
			"0.002": 5.48597924754,
			"0.003": 5.27598949983,
			"0.004": 4.74064195645,
			"0.005": 6.1159859489,
			"0.006": 7.84343129214,
			"0.007": 11.565747734,
			"0.008": 10.0902391114,
			"0.009": 8.97674929054,
			"0.01": 8.55070631361,
			"0.011": 7.86168677564,
			"0.012": 5.08936612136,
			"0.013": 0.859693491639,
			"0.014": 0.0,
			"0.015": 0.0,
			"0.016": 0.0,
			"0.017": 0.0,
			"0.018": 0.0,
			"0.019": 0.0,
			"0.02": 0.0,
			"0.021": 0.0,
			"0.022": 0.0,
			"0.023": 0.0,
			"0.024": 0.0,
			"0.025": 0.0
		}
	}
}
