{
	 "smiles": "O=CC1=C(OCC2=CN=CC=C2)C=CC=C1", 
	 "Tm": 331.15, 
	 "num_atms": 27, 
	 "gaussian": { 
		 "optdone": 1, 
		 "sigma_profile": "yes", 
		 "theory": "DFT", 
		 "functional": "B3LYP", 
		 "basiset": "6-31G**", 
		 "properties": { 
			 "R2extent": 6190.498, 
			 "electric_dipole_moment_norm": 3.78610569847, 
			 "electric_quadrupole_moment_norm": 21.5399017642, 
			 "total_energy": -707.185512263, 
			 "HOMO_LUMO_gap": 0.17799, 
			 "cosmo_polarized_energy": -13.69, 
			 "cosmo_cavitation_energy": 32.17, 
			 "cosmo_dispersion_energy": -22.92, 
			 "cosmo_repulsion_energy": 1.76, 
			 "cosmo_total_nonelectrostatic_energy": 11.02, 
			 "SMD_solvation_energy": 5.25 
		},
		"coords": [
			{
				"x": 0.434821787,
				"y": 1.8141342001,
				"z": 4.0875694584,
				"element": "O" 
			},
			{
				"x": 0.8682789525,
				"y": 1.28367559,
				"z": 3.0782230841,
				"element": "C" 
			},
			{
				"x": 1.5074360673,
				"y": 2.0337194953,
				"z": 1.9724493014,
				"element": "C" 
			},
			{
				"x": 1.983396946,
				"y": 1.3825740822,
				"z": 0.8102501126,
				"element": "C" 
			},
			{
				"x": 1.8174971671,
				"y": 0.030309255,
				"z": 0.7640918082,
				"element": "O" 
			},
			{
				"x": 2.2467664497,
				"y": -0.6828750596,
				"z": -0.3995290542,
				"element": "C" 
			},
			{
				"x": 1.8936880616,
				"y": -2.1357942616,
				"z": -0.2231812616,
				"element": "C" 
			},
			{
				"x": 2.8485099779,
				"y": -3.1353921806,
				"z": -0.4329323511,
				"element": "C" 
			},
			{
				"x": 2.6010058371,
				"y": -4.4463090964,
				"z": -0.3309418006,
				"element": "N" 
			},
			{
				"x": 1.3586785748,
				"y": -4.809325048,
				"z": 0.0060137976,
				"element": "C" 
			},
			{
				"x": 0.3286055448,
				"y": -3.8972180522,
				"z": 0.2507980551,
				"element": "C" 
			},
			{
				"x": 0.6007844211,
				"y": -2.5380448603,
				"z": 0.1297693879,
				"element": "C" 
			},
			{
				"x": 2.5870490586,
				"y": 2.1314845761,
				"z": -0.2083544588,
				"element": "C" 
			},
			{
				"x": 2.7094867696,
				"y": 3.5152648991,
				"z": -0.069100048,
				"element": "C" 
			},
			{
				"x": 2.2404389616,
				"y": 4.1705548136,
				"z": 1.0721153218,
				"element": "C" 
			},
			{
				"x": 1.6445617345,
				"y": 3.4238410591,
				"z": 2.0822644013,
				"element": "C" 
			},
			{
				"x": 0.8030399153,
				"y": 0.1886548162,
				"z": 2.94036673,
				"element": "H" 
			},
			{
				"x": 1.745174327,
				"y": -0.2658617944,
				"z": -1.2848155643,
				"element": "H" 
			},
			{
				"x": 3.3292698665,
				"y": -0.5663807999,
				"z": -0.5405061661,
				"element": "H" 
			},
			{
				"x": 3.8700742802,
				"y": -2.8616602077,
				"z": -0.697217495,
				"element": "H" 
			},
			{
				"x": 1.1766544326,
				"y": -5.8794607361,
				"z": 0.0878395966,
				"element": "H" 
			},
			{
				"x": -0.6604924818,
				"y": -4.2485313613,
				"z": 0.5272983782,
				"element": "H" 
			},
			{
				"x": -0.1697589191,
				"y": -1.7953991453,
				"z": 0.315043357,
				"element": "H" 
			},
			{
				"x": 2.9637260262,
				"y": 1.6520212949,
				"z": -1.1034409452,
				"element": "H" 
			},
			{
				"x": 3.1799361307,
				"y": 4.0832964801,
				"z": -0.86682663,
				"element": "H" 
			},
			{
				"x": 2.3421116869,
				"y": 5.246735872,
				"z": 1.1678341553,
				"element": "H" 
			},
			{
				"x": 1.2669584244,
				"y": 3.8884861698,
				"z": 2.9878188292,
				"element": "H" 
			}
		],
		 "valence_orbital": [ 
			{
				"type": "occ",
				"energy": -0.27011,
				"method": "rhf"
			},
			{
				"type": "occ",
				"energy": -0.26414,
				"method": "rhf"
			},
			{
				"type": "occ",
				"energy": -0.26178,
				"method": "rhf"
			},
			{
				"type": "occ",
				"energy": -0.2467,
				"method": "rhf"
			},
			{
				"type": "occ",
				"energy": -0.2384,
				"method": "rhf"
			},
			{
				"type": "unocc",
				"energy": -0.06041,
				"method": "rhf"
			},
			{
				"type": "unocc",
				"energy": -0.03631,
				"method": "rhf"
			},
			{
				"type": "unocc",
				"energy": -0.02251,
				"method": "rhf"
			},
			{
				"type": "unocc",
				"energy": -0.00348,
				"method": "rhf"
			},
			{
				"type": "unocc",
				"energy": 0.03946,
				"method": "rhf"
			}
		],
		"cosmo_sigma_profile": { 
			"-0.025": 0.0,
			"-0.024": 0.0,
			"-0.023": 0.0,
			"-0.022": 0.0,
			"-0.021": 0.0,
			"-0.02": 0.0,
			"-0.019": 0.0,
			"-0.018": 0.0,
			"-0.017": 0.0,
			"-0.016": 0.0,
			"-0.015": 0.0,
			"-0.014": 0.0,
			"-0.013": 0.0,
			"-0.012": 0.0,
			"-0.011": 0.0,
			"-0.01": 0.0,
			"-0.009": 0.0,
			"-0.008": 2.04200985659,
			"-0.007": 14.0780649028,
			"-0.006": 21.4166181334,
			"-0.005": 22.7477908226,
			"-0.004": 18.2653238128,
			"-0.003": 16.2511599692,
			"-0.002": 16.3834289648,
			"-0.001": 12.9447297067,
			"0.0": 17.4114055654,
			"0.001": 20.8423810112,
			"0.002": 26.0138069989,
			"0.003": 20.0000606518,
			"0.004": 13.7630029386,
			"0.005": 5.96943030088,
			"0.006": 3.19346230071,
			"0.007": 2.80280932243,
			"0.008": 2.90371113028,
			"0.009": 3.50645066869,
			"0.01": 3.00969182861,
			"0.011": 4.85311376008,
			"0.012": 5.00116656559,
			"0.013": 2.08071283347,
			"0.014": 0.654652961738,
			"0.015": 1.29128628711,
			"0.016": 0.752462418828,
			"0.017": 0.190749569725,
			"0.018": 0.0,
			"0.019": 0.0,
			"0.02": 0.0,
			"0.021": 0.0,
			"0.022": 0.0,
			"0.023": 0.0,
			"0.024": 0.0,
			"0.025": 0.0
		}
	}
}
