{
	 "smiles": "COC1=CC(C)=CC(OC)=C1C=O", 
	 "Tm": 366.15, 
	 "num_atms": 25, 
	 "gaussian": { 
		 "optdone": 1, 
		 "sigma_profile": "yes", 
		 "theory": "DFT", 
		 "functional": "B3LYP", 
		 "basiset": "6-31G**", 
		 "properties": { 
			 "R2extent": 2815.3322, 
			 "electric_dipole_moment_norm": 5.06622970956, 
			 "electric_quadrupole_moment_norm": 12.8321132114, 
			 "total_energy": -613.932900206, 
			 "HOMO_LUMO_gap": 0.1773, 
			 "cosmo_polarized_energy": -11.11, 
			 "cosmo_cavitation_energy": 28.42, 
			 "cosmo_dispersion_energy": -20.57, 
			 "cosmo_repulsion_energy": 1.64, 
			 "cosmo_total_nonelectrostatic_energy": 9.49, 
			 "SMD_solvation_energy": 7.49 
		},
		"coords": [
			{
				"x": -0.787396126,
				"y": 2.2523265529,
				"z": 2.6311920295,
				"element": "C" 
			},
			{
				"x": -0.0129088636,
				"y": 1.984010432,
				"z": 1.4561769835,
				"element": "O" 
			},
			{
				"x": -0.378706593,
				"y": 0.8985023983,
				"z": 0.7134284708,
				"element": "C" 
			},
			{
				"x": -1.0096927472,
				"y": 1.1631384809,
				"z": -0.5047923226,
				"element": "C" 
			},
			{
				"x": -1.3714154501,
				"y": 0.129503839,
				"z": -1.3691081994,
				"element": "C" 
			},
			{
				"x": -2.0297371101,
				"y": 0.4271373666,
				"z": -2.6944379021,
				"element": "C" 
			},
			{
				"x": -1.1015095675,
				"y": -1.1954798165,
				"z": -1.0003586213,
				"element": "C" 
			},
			{
				"x": -0.4588754756,
				"y": -1.4721300118,
				"z": 0.2068454546,
				"element": "C" 
			},
			{
				"x": -0.1707793327,
				"y": -2.7383642995,
				"z": 0.6197012108,
				"element": "O" 
			},
			{
				"x": -0.4650055408,
				"y": -3.8295384716,
				"z": -0.2407303791,
				"element": "C" 
			},
			{
				"x": -0.0723409481,
				"y": -0.4305258145,
				"z": 1.0962741639,
				"element": "C" 
			},
			{
				"x": 0.7201033874,
				"y": -0.7788770319,
				"z": 2.2930820418,
				"element": "C" 
			},
			{
				"x": 1.0134648638,
				"y": -0.0267372316,
				"z": 3.2098457342,
				"element": "O" 
			},
			{
				"x": -1.8448741357,
				"y": 2.3895037171,
				"z": 2.3707526536,
				"element": "H" 
			},
			{
				"x": -0.6699674909,
				"y": 1.4568885695,
				"z": 3.3691672206,
				"element": "H" 
			},
			{
				"x": -0.3927963413,
				"y": 3.1844749638,
				"z": 3.039649664,
				"element": "H" 
			},
			{
				"x": -1.2055858115,
				"y": 2.1996652827,
				"z": -0.7593574193,
				"element": "H" 
			},
			{
				"x": -2.7791311406,
				"y": -0.3288248155,
				"z": -2.9488990522,
				"element": "H" 
			},
			{
				"x": -1.2884007121,
				"y": 0.4351399903,
				"z": -3.5032077369,
				"element": "H" 
			},
			{
				"x": -2.5177540809,
				"y": 1.4053015366,
				"z": -2.6874706149,
				"element": "H" 
			},
			{
				"x": -1.3974484336,
				"y": -1.9983886095,
				"z": -1.6646190303,
				"element": "H" 
			},
			{
				"x": -1.5428188301,
				"y": -3.9181639553,
				"z": -0.4239231181,
				"element": "H" 
			},
			{
				"x": -0.1149378882,
				"y": -4.7214806001,
				"z": 0.2805309939,
				"element": "H" 
			},
			{
				"x": 0.0591807253,
				"y": -3.7399051556,
				"z": -1.2000105715,
				"element": "H" 
			},
			{
				"x": 1.0740336431,
				"y": -1.8257773161,
				"z": 2.3036683466,
				"element": "H" 
			}
		],
		 "valence_orbital": [ 
			{
				"type": "occ",
				"energy": -0.31147,
				"method": "rhf"
			},
			{
				"type": "occ",
				"energy": -0.26914,
				"method": "rhf"
			},
			{
				"type": "occ",
				"energy": -0.24288,
				"method": "rhf"
			},
			{
				"type": "occ",
				"energy": -0.23354,
				"method": "rhf"
			},
			{
				"type": "occ",
				"energy": -0.22867,
				"method": "rhf"
			},
			{
				"type": "unocc",
				"energy": -0.05137,
				"method": "rhf"
			},
			{
				"type": "unocc",
				"energy": 0.00551,
				"method": "rhf"
			},
			{
				"type": "unocc",
				"energy": 0.0431,
				"method": "rhf"
			},
			{
				"type": "unocc",
				"energy": 0.08639,
				"method": "rhf"
			},
			{
				"type": "unocc",
				"energy": 0.09741,
				"method": "rhf"
			}
		],
		"cosmo_sigma_profile": { 
			"-0.025": 0.0,
			"-0.024": 0.0,
			"-0.023": 0.0,
			"-0.022": 0.0,
			"-0.021": 0.0,
			"-0.02": 0.0,
			"-0.019": 0.0,
			"-0.018": 0.0,
			"-0.017": 0.0,
			"-0.016": 0.0,
			"-0.015": 0.0,
			"-0.014": 0.0,
			"-0.013": 0.0,
			"-0.012": 0.0,
			"-0.011": 0.0,
			"-0.01": 0.0,
			"-0.009": 0.0,
			"-0.008": 0.0,
			"-0.007": 1.35827725845,
			"-0.006": 10.1953363457,
			"-0.005": 19.5566836939,
			"-0.004": 24.2201466517,
			"-0.003": 24.4833826445,
			"-0.002": 24.1183528962,
			"-0.001": 21.8689730164,
			"0.0": 17.1897863863,
			"0.001": 12.7151332562,
			"0.002": 14.0295244665,
			"0.003": 13.7749253286,
			"0.004": 10.123016613,
			"0.005": 4.29957876122,
			"0.006": 3.55809501009,
			"0.007": 3.14430739803,
			"0.008": 2.72523549662,
			"0.009": 2.56760947642,
			"0.01": 3.66309810026,
			"0.011": 4.28119955779,
			"0.012": 5.08209832258,
			"0.013": 1.85140476257,
			"0.014": 0.559951876025,
			"0.015": 0.0,
			"0.016": 0.0,
			"0.017": 0.0,
			"0.018": 0.0,
			"0.019": 0.0,
			"0.02": 0.0,
			"0.021": 0.0,
			"0.022": 0.0,
			"0.023": 0.0,
			"0.024": 0.0,
			"0.025": 0.0
		}
	}
}
