{
	 "smiles": "NC1=C(C=C(O)C=C1)C(O)=O", 
	 "Tm": 507.15, 
	 "num_atms": 18, 
	 "gaussian": { 
		 "optdone": 1, 
		 "sigma_profile": "yes", 
		 "theory": "DFT", 
		 "functional": "B3LYP", 
		 "basiset": "6-31G**", 
		 "properties": { 
			 "R2extent": 3143.7586, 
			 "electric_dipole_moment_norm": 7.9616085994, 
			 "electric_quadrupole_moment_norm": 29.2634300799, 
			 "total_energy": -551.396986708, 
			 "HOMO_LUMO_gap": 0.19257, 
			 "cosmo_polarized_energy": -22.32, 
			 "cosmo_cavitation_energy": 22.27, 
			 "cosmo_dispersion_energy": -16.92, 
			 "cosmo_repulsion_energy": 1.36, 
			 "cosmo_total_nonelectrostatic_energy": 6.71, 
			 "SMD_solvation_energy": 5.83 
		},
		"coords": [
			{
				"x": 3.0542271949,
				"y": -1.9606744403,
				"z": -1.9816184948,
				"element": "N" 
			},
			{
				"x": 2.125346143,
				"y": -1.1607683962,
				"z": -1.2058433591,
				"element": "C" 
			},
			{
				"x": 2.5169726668,
				"y": 0.1165778742,
				"z": -0.7536966979,
				"element": "C" 
			},
			{
				"x": 1.6153491652,
				"y": 0.889925639,
				"z": -0.0189733423,
				"element": "C" 
			},
			{
				"x": 0.3426690407,
				"y": 0.4080152095,
				"z": 0.2901794137,
				"element": "C" 
			},
			{
				"x": -0.4781964607,
				"y": 1.2181123493,
				"z": 1.0173854388,
				"element": "O" 
			},
			{
				"x": -0.0391187834,
				"y": -0.8671399768,
				"z": -0.1428649645,
				"element": "C" 
			},
			{
				"x": 0.8504414199,
				"y": -1.635082263,
				"z": -0.8909597626,
				"element": "C" 
			},
			{
				"x": 3.8867803726,
				"y": 0.7340083194,
				"z": -0.9814377695,
				"element": "C" 
			},
			{
				"x": 4.8132115139,
				"y": -0.0412723464,
				"z": -1.5546390515,
				"element": "O" 
			},
			{
				"x": 4.1278821637,
				"y": 1.873300381,
				"z": -0.6408890003,
				"element": "O" 
			},
			{
				"x": 3.0309813009,
				"y": -2.9345004661,
				"z": -1.691207131,
				"element": "H" 
			},
			{
				"x": 2.8235305921,
				"y": -1.9348153183,
				"z": -2.9735031654,
				"element": "H" 
			},
			{
				"x": 1.9258087586,
				"y": 1.8720681515,
				"z": 0.317656737,
				"element": "H" 
			},
			{
				"x": -1.3223371229,
				"y": 0.7727029065,
				"z": 1.1658090496,
				"element": "H" 
			},
			{
				"x": -1.0263110139,
				"y": -1.2564933551,
				"z": 0.0963265708,
				"element": "H" 
			},
			{
				"x": 0.5471426206,
				"y": -2.6195309986,
				"z": -1.2388722643,
				"element": "H" 
			},
			{
				"x": 4.4017204283,
				"y": -0.9258332696,
				"z": -1.7596522067,
				"element": "H" 
			}
		],
		 "valence_orbital": [ 
			{
				"type": "occ",
				"energy": -0.2922,
				"method": "rhf"
			},
			{
				"type": "occ",
				"energy": -0.28997,
				"method": "rhf"
			},
			{
				"type": "occ",
				"energy": -0.26583,
				"method": "rhf"
			},
			{
				"type": "occ",
				"energy": -0.25348,
				"method": "rhf"
			},
			{
				"type": "occ",
				"energy": -0.23509,
				"method": "rhf"
			},
			{
				"type": "unocc",
				"energy": -0.04252,
				"method": "rhf"
			},
			{
				"type": "unocc",
				"energy": -0.01133,
				"method": "rhf"
			},
			{
				"type": "unocc",
				"energy": 0.05637,
				"method": "rhf"
			},
			{
				"type": "unocc",
				"energy": 0.06077,
				"method": "rhf"
			},
			{
				"type": "unocc",
				"energy": 0.06883,
				"method": "rhf"
			}
		],
		"cosmo_sigma_profile": { 
			"-0.025": 0.0,
			"-0.024": 0.0,
			"-0.023": 0.0,
			"-0.022": 0.0,
			"-0.021": 0.0,
			"-0.02": 0.0,
			"-0.019": 0.0377724631093,
			"-0.018": 0.820335430309,
			"-0.017": 1.16636913704,
			"-0.016": 0.848878296119,
			"-0.015": 1.21635472627,
			"-0.014": 1.48093479719,
			"-0.013": 2.84486276981,
			"-0.012": 3.88411652094,
			"-0.011": 4.74454326027,
			"-0.01": 4.11398439239,
			"-0.009": 4.60477780295,
			"-0.008": 4.3570395169,
			"-0.007": 6.66619392184,
			"-0.006": 6.48225048016,
			"-0.005": 6.74103722876,
			"-0.004": 6.39234196116,
			"-0.003": 7.30945791736,
			"-0.002": 9.08252343798,
			"-0.001": 8.06510435476,
			"0.0": 7.99576822259,
			"0.001": 9.07516168277,
			"0.002": 11.4989168859,
			"0.003": 16.547423933,
			"0.004": 7.86369947879,
			"0.005": 4.18368928048,
			"0.006": 3.64908710865,
			"0.007": 3.6485110827,
			"0.008": 2.96565567915,
			"0.009": 4.9907311545,
			"0.01": 4.64313356917,
			"0.011": 5.51192013339,
			"0.012": 7.35846318033,
			"0.013": 4.59140791229,
			"0.014": 1.77286316709,
			"0.015": 0.0820082708601,
			"0.016": 0.0,
			"0.017": 0.0,
			"0.018": 0.0,
			"0.019": 0.0,
			"0.02": 0.0,
			"0.021": 0.0,
			"0.022": 0.0,
			"0.023": 0.0,
			"0.024": 0.0,
			"0.025": 0.0
		}
	}
}
