{
	 "smiles": "CCS(=O)(=O)C1=C(N2C=CC=CC2=N1)S(=O)(=O)NC(=O)NC1=NC(OC)=CC(OC)=N1", 
	 "Tm": 475.15, 
	 "num_atms": 49, 
	 "gaussian": { 
		 "optdone": 1, 
		 "sigma_profile": "yes", 
		 "theory": "DFT", 
		 "functional": "B3LYP", 
		 "basiset": "6-31G**", 
		 "properties": { 
			 "R2extent": 13247.6466, 
			 "electric_dipole_moment_norm": 6.76834505326, 
			 "electric_quadrupole_moment_norm": 43.0972738673, 
			 "total_energy": -2271.85547938, 
			 "HOMO_LUMO_gap": 0.17505, 
			 "cosmo_polarized_energy": -35.08, 
			 "cosmo_cavitation_energy": 56.22, 
			 "cosmo_dispersion_energy": -36.1, 
			 "cosmo_repulsion_energy": 2.62, 
			 "cosmo_total_nonelectrostatic_energy": 22.73, 
			 "SMD_solvation_energy": 8.31 
		},
		"coords": [
			{
				"x": -4.0130866317,
				"y": -1.1905674533,
				"z": -1.1165846477,
				"element": "C" 
			},
			{
				"x": -2.5015837051,
				"y": -0.9620251412,
				"z": -1.0989144337,
				"element": "C" 
			},
			{
				"x": -1.7856110517,
				"y": -1.4458585432,
				"z": -2.6948799585,
				"element": "S" 
			},
			{
				"x": -2.1224079666,
				"y": -0.4409929733,
				"z": -3.7117028945,
				"element": "O" 
			},
			{
				"x": -2.0903300436,
				"y": -2.8632956994,
				"z": -2.9125909181,
				"element": "O" 
			},
			{
				"x": 0.0294331307,
				"y": -1.3564927085,
				"z": -2.454747288,
				"element": "C" 
			},
			{
				"x": 0.8900018498,
				"y": -0.2590353791,
				"z": -2.30114854,
				"element": "C" 
			},
			{
				"x": 2.1733320724,
				"y": -0.7880200728,
				"z": -2.4271581361,
				"element": "N" 
			},
			{
				"x": 3.4189924294,
				"y": -0.2021909789,
				"z": -2.4353710212,
				"element": "C" 
			},
			{
				"x": 4.5217460553,
				"y": -0.9973424799,
				"z": -2.5780621983,
				"element": "C" 
			},
			{
				"x": 4.3914997374,
				"y": -2.4037960553,
				"z": -2.7309504994,
				"element": "C" 
			},
			{
				"x": 3.145913855,
				"y": -2.982750796,
				"z": -2.7577487525,
				"element": "C" 
			},
			{
				"x": 2.004565689,
				"y": -2.1656801689,
				"z": -2.613005832,
				"element": "C" 
			},
			{
				"x": 0.7101210184,
				"y": -2.4985513614,
				"z": -2.633350973,
				"element": "N" 
			},
			{
				"x": 0.631526488,
				"y": 1.444198521,
				"z": -1.9461646395,
				"element": "S" 
			},
			{
				"x": -0.7968753331,
				"y": 1.6354233989,
				"z": -1.7613296698,
				"element": "O" 
			},
			{
				"x": 1.4170617814,
				"y": 2.2664525835,
				"z": -2.8677341783,
				"element": "O" 
			},
			{
				"x": 1.4710578612,
				"y": 1.7021770499,
				"z": -0.4648757175,
				"element": "N" 
			},
			{
				"x": 1.5620923124,
				"y": 0.8494906107,
				"z": 0.6505271533,
				"element": "C" 
			},
			{
				"x": 2.649685512,
				"y": 0.5704812743,
				"z": 1.1223666856,
				"element": "O" 
			},
			{
				"x": 0.3830150402,
				"y": 0.304511297,
				"z": 1.1422183257,
				"element": "N" 
			},
			{
				"x": -0.8225566101,
				"y": 0.9509441891,
				"z": 1.4794487539,
				"element": "C" 
			},
			{
				"x": -1.6750084906,
				"y": 0.1546615826,
				"z": 2.1341787511,
				"element": "N" 
			},
			{
				"x": -2.8309299754,
				"y": 0.730381782,
				"z": 2.491419732,
				"element": "C" 
			},
			{
				"x": -3.7425111557,
				"y": 0.0086283708,
				"z": 3.1615287842,
				"element": "O" 
			},
			{
				"x": -3.4130579462,
				"y": -1.3462400044,
				"z": 3.49375314,
				"element": "C" 
			},
			{
				"x": -3.1483029732,
				"y": 2.0546612519,
				"z": 2.1883410556,
				"element": "C" 
			},
			{
				"x": -2.1617739474,
				"y": 2.7622597974,
				"z": 1.4983781717,
				"element": "C" 
			},
			{
				"x": -2.4145543504,
				"y": 4.0353324696,
				"z": 1.1787924409,
				"element": "O" 
			},
			{
				"x": -1.437226345,
				"y": 4.7303136702,
				"z": 0.3854063179,
				"element": "C" 
			},
			{
				"x": -0.98135019,
				"y": 2.2254720316,
				"z": 1.1566914561,
				"element": "N" 
			},
			{
				"x": -4.2504924972,
				"y": -2.2428725369,
				"z": -1.2873555303,
				"element": "H" 
			},
			{
				"x": -4.430168677,
				"y": -0.8863654643,
				"z": -0.1521126614,
				"element": "H" 
			},
			{
				"x": -4.4881842839,
				"y": -0.59229025,
				"z": -1.8981336633,
				"element": "H" 
			},
			{
				"x": -2.2430704168,
				"y": 0.0867577934,
				"z": -0.9566573547,
				"element": "H" 
			},
			{
				"x": -2.002177318,
				"y": -1.5714096429,
				"z": -0.340836424,
				"element": "H" 
			},
			{
				"x": 3.4547806828,
				"y": 0.8752835052,
				"z": -2.3724442528,
				"element": "H" 
			},
			{
				"x": 5.4993312166,
				"y": -0.5299599927,
				"z": -2.5870725127,
				"element": "H" 
			},
			{
				"x": 5.2808729782,
				"y": -3.0145513232,
				"z": -2.842293167,
				"element": "H" 
			},
			{
				"x": 2.9921517746,
				"y": -4.0464278023,
				"z": -2.8939361724,
				"element": "H" 
			},
			{
				"x": 2.3649506904,
				"y": 2.1441024152,
				"z": -0.6540705521,
				"element": "H" 
			},
			{
				"x": 0.5653477161,
				"y": -0.4886992502,
				"z": 1.7457569068,
				"element": "H" 
			},
			{
				"x": -3.2466383908,
				"y": -1.9439681825,
				"z": 2.5936028937,
				"element": "H" 
			},
			{
				"x": -2.5167403713,
				"y": -1.3909208668,
				"z": 4.1180427335,
				"element": "H" 
			},
			{
				"x": -4.2761527205,
				"y": -1.7232537866,
				"z": 4.0428008672,
				"element": "H" 
			},
			{
				"x": -4.0920110547,
				"y": 2.5014231692,
				"z": 2.4676594361,
				"element": "H" 
			},
			{
				"x": -1.8658488292,
				"y": 5.7172535798,
				"z": 0.2105613039,
				"element": "H" 
			},
			{
				"x": -1.2685545997,
				"y": 4.2091827976,
				"z": -0.5594652325,
				"element": "H" 
			},
			{
				"x": -0.4892740162,
				"y": 4.8162657727,
				"z": 0.9224229122,
				"element": "H" 
			}
		],
		 "valence_orbital": [ 
			{
				"type": "occ",
				"energy": -0.28186,
				"method": "rhf"
			},
			{
				"type": "occ",
				"energy": -0.27924,
				"method": "rhf"
			},
			{
				"type": "occ",
				"energy": -0.2767,
				"method": "rhf"
			},
			{
				"type": "occ",
				"energy": -0.25124,
				"method": "rhf"
			},
			{
				"type": "occ",
				"energy": -0.24267,
				"method": "rhf"
			},
			{
				"type": "unocc",
				"energy": -0.06762,
				"method": "rhf"
			},
			{
				"type": "unocc",
				"energy": -0.06166,
				"method": "rhf"
			},
			{
				"type": "unocc",
				"energy": -0.04216,
				"method": "rhf"
			},
			{
				"type": "unocc",
				"energy": -0.0168,
				"method": "rhf"
			},
			{
				"type": "unocc",
				"energy": -0.00368,
				"method": "rhf"
			}
		],
		"cosmo_sigma_profile": { 
			"-0.025": 0.0,
			"-0.024": 0.0,
			"-0.023": 0.0,
			"-0.022": 0.0,
			"-0.021": 0.0,
			"-0.02": 0.0,
			"-0.019": 0.0,
			"-0.018": 0.0,
			"-0.017": 0.277674979991,
			"-0.016": 1.13481578205,
			"-0.015": 1.43537926748,
			"-0.014": 2.61442428583,
			"-0.013": 0.935607501901,
			"-0.012": 1.53506666917,
			"-0.011": 2.86194709824,
			"-0.01": 2.42647782395,
			"-0.009": 5.54095272515,
			"-0.008": 12.2068471703,
			"-0.007": 14.2265986246,
			"-0.006": 17.6498520666,
			"-0.005": 23.3985679459,
			"-0.004": 39.0982551611,
			"-0.003": 46.2671280447,
			"-0.002": 38.0789860075,
			"-0.001": 37.4717904699,
			"0.0": 29.3431140604,
			"0.001": 25.3766681546,
			"0.002": 19.978274218,
			"0.003": 11.7942473217,
			"0.004": 13.3519729997,
			"0.005": 13.835924786,
			"0.006": 9.85175041828,
			"0.007": 11.034482374,
			"0.008": 12.600377085,
			"0.009": 13.8993698018,
			"0.01": 12.7042669101,
			"0.011": 16.443909737,
			"0.012": 6.63392370552,
			"0.013": 1.63958321996,
			"0.014": 1.51367291256,
			"0.015": 1.37269503959,
			"0.016": 0.780025563466,
			"0.017": 0.0572563720247,
			"0.018": 0.0,
			"0.019": 0.0,
			"0.02": 0.0,
			"0.021": 0.0,
			"0.022": 0.0,
			"0.023": 0.0,
			"0.024": 0.0,
			"0.025": 0.0
		}
	}
}
