{
	 "smiles": "OCCNCC1=CC=CC=C1", 
	 "Tm": 243.15, 
	 "num_atms": 24, 
	 "gaussian": { 
		 "optdone": 1, 
		 "sigma_profile": "yes", 
		 "theory": "DFT", 
		 "functional": "B3LYP", 
		 "basiset": "6-31G**", 
		 "properties": { 
			 "R2extent": 2213.8335, 
			 "electric_dipole_moment_norm": 1.40894543187, 
			 "electric_quadrupole_moment_norm": 9.80643530086, 
			 "total_energy": -480.74908399, 
			 "HOMO_LUMO_gap": 0.21808, 
			 "cosmo_polarized_energy": -9.26, 
			 "cosmo_cavitation_energy": 26.1, 
			 "cosmo_dispersion_energy": -19.15, 
			 "cosmo_repulsion_energy": 1.57, 
			 "cosmo_total_nonelectrostatic_energy": 8.52, 
			 "SMD_solvation_energy": 2.31 
		},
		"coords": [
			{
				"x": -1.4806501218,
				"y": -0.8942132219,
				"z": -3.0481774751,
				"element": "O" 
			},
			{
				"x": -0.1076317139,
				"y": -1.1127639082,
				"z": -3.3786840967,
				"element": "C" 
			},
			{
				"x": 0.7432656272,
				"y": -0.9765218554,
				"z": -2.1216661473,
				"element": "C" 
			},
			{
				"x": 0.9311264938,
				"y": 0.4138129378,
				"z": -1.6996346209,
				"element": "N" 
			},
			{
				"x": -0.2025385018,
				"y": 1.0475890298,
				"z": -0.9962481187,
				"element": "C" 
			},
			{
				"x": -0.5743038422,
				"y": 0.428417444,
				"z": 0.3418002276,
				"element": "C" 
			},
			{
				"x": -1.5590945986,
				"y": -0.5667491489,
				"z": 0.4308358454,
				"element": "C" 
			},
			{
				"x": -1.8647095883,
				"y": -1.1596929619,
				"z": 1.6580709721,
				"element": "C" 
			},
			{
				"x": -1.1928558031,
				"y": -0.7652273615,
				"z": 2.8164128395,
				"element": "C" 
			},
			{
				"x": -0.212950544,
				"y": 0.2275035918,
				"z": 2.7418133903,
				"element": "C" 
			},
			{
				"x": 0.0909244882,
				"y": 0.8163056876,
				"z": 1.5139858817,
				"element": "C" 
			},
			{
				"x": -1.9911526395,
				"y": -0.8864825807,
				"z": -3.866927629,
				"element": "H" 
			},
			{
				"x": 0.2431536573,
				"y": -0.3842385877,
				"z": -4.1238629377,
				"element": "H" 
			},
			{
				"x": 0.0313393136,
				"y": -2.1252772373,
				"z": -3.7914409602,
				"element": "H" 
			},
			{
				"x": 1.7357925926,
				"y": -1.3765765732,
				"z": -2.3606575937,
				"element": "H" 
			},
			{
				"x": 0.3139310893,
				"y": -1.6278710999,
				"z": -1.3416218863,
				"element": "H" 
			},
			{
				"x": 1.7453099594,
				"y": 0.4556810834,
				"z": -1.0916130405,
				"element": "H" 
			},
			{
				"x": -1.0622449225,
				"y": 1.0229678025,
				"z": -1.6683317169,
				"element": "H" 
			},
			{
				"x": 0.0704806004,
				"y": 2.0989698532,
				"z": -0.8455975901,
				"element": "H" 
			},
			{
				"x": -2.0813696106,
				"y": -0.872457069,
				"z": -0.4715903627,
				"element": "H" 
			},
			{
				"x": -2.6313440728,
				"y": -1.9283160131,
				"z": 1.7098518381,
				"element": "H" 
			},
			{
				"x": -1.4340385685,
				"y": -1.2233743267,
				"z": 3.7716004357,
				"element": "H" 
			},
			{
				"x": 0.3077916071,
				"y": 0.5474364003,
				"z": 3.6404505702,
				"element": "H" 
			},
			{
				"x": 0.8481690986,
				"y": 1.5968781149,
				"z": 1.4645321752,
				"element": "H" 
			}
		],
		 "valence_orbital": [ 
			{
				"type": "occ",
				"energy": -0.31772,
				"method": "rhf"
			},
			{
				"type": "occ",
				"energy": -0.26862,
				"method": "rhf"
			},
			{
				"type": "occ",
				"energy": -0.24114,
				"method": "rhf"
			},
			{
				"type": "occ",
				"energy": -0.23709,
				"method": "rhf"
			},
			{
				"type": "occ",
				"energy": -0.21177,
				"method": "rhf"
			},
			{
				"type": "unocc",
				"energy": 0.00631,
				"method": "rhf"
			},
			{
				"type": "unocc",
				"energy": 0.00792,
				"method": "rhf"
			},
			{
				"type": "unocc",
				"energy": 0.06945,
				"method": "rhf"
			},
			{
				"type": "unocc",
				"energy": 0.10033,
				"method": "rhf"
			},
			{
				"type": "unocc",
				"energy": 0.10742,
				"method": "rhf"
			}
		],
		"cosmo_sigma_profile": { 
			"-0.025": 0.0,
			"-0.024": 0.0,
			"-0.023": 0.0,
			"-0.022": 0.0,
			"-0.021": 0.0,
			"-0.02": 0.0,
			"-0.019": 0.0,
			"-0.018": 0.0,
			"-0.017": 0.0,
			"-0.016": 0.382427510035,
			"-0.015": 0.962080360268,
			"-0.014": 1.25244602101,
			"-0.013": 0.970728435569,
			"-0.012": 0.659031586892,
			"-0.011": 0.809063840187,
			"-0.01": 0.819010478524,
			"-0.009": 1.47724372416,
			"-0.008": 2.33843643806,
			"-0.007": 2.65722891844,
			"-0.006": 3.67857349818,
			"-0.005": 12.4179358485,
			"-0.004": 16.1334618913,
			"-0.003": 23.9620356306,
			"-0.002": 18.8375476231,
			"-0.001": 16.7002600748,
			"0.0": 15.4579219485,
			"0.001": 11.34913452,
			"0.002": 11.8219133378,
			"0.003": 11.208837771,
			"0.004": 10.7210598284,
			"0.005": 10.7862521329,
			"0.006": 11.627515225,
			"0.007": 7.01658428731,
			"0.008": 2.87414010711,
			"0.009": 1.08545860377,
			"0.01": 1.50802417324,
			"0.011": 1.14308601938,
			"0.012": 1.01021221825,
			"0.013": 0.992875027283,
			"0.014": 0.215022535451,
			"0.015": 0.653586054928,
			"0.016": 0.504683561243,
			"0.017": 0.492544678196,
			"0.018": 0.158956656535,
			"0.019": 0.0,
			"0.02": 0.0,
			"0.021": 0.0,
			"0.022": 0.0,
			"0.023": 0.0,
			"0.024": 0.0,
			"0.025": 0.0
		}
	}
}
