{
	 "smiles": "OC(=O)C1=CN(N=C1C1=CN=CC=C1)C1=CC=CC=C1", 
	 "Tm": 512.15, 
	 "num_atms": 31, 
	 "gaussian": { 
		 "optdone": 1, 
		 "sigma_profile": "yes", 
		 "theory": "DFT", 
		 "functional": "B3LYP", 
		 "basiset": "6-31G**", 
		 "properties": { 
			 "R2extent": 7571.6807, 
			 "electric_dipole_moment_norm": 4.87625053704, 
			 "electric_quadrupole_moment_norm": 9.75728258789, 
			 "total_energy": -892.925688588, 
			 "HOMO_LUMO_gap": 0.18019, 
			 "cosmo_polarized_energy": -15.07, 
			 "cosmo_cavitation_energy": 36.39, 
			 "cosmo_dispersion_energy": -26.53, 
			 "cosmo_repulsion_energy": 1.99, 
			 "cosmo_total_nonelectrostatic_energy": 11.85, 
			 "SMD_solvation_energy": 5.39 
		},
		"coords": [
			{
				"x": -0.9376623453,
				"y": 2.5662210307,
				"z": 2.5806331209,
				"element": "O" 
			},
			{
				"x": -0.1454957821,
				"y": 1.4630394102,
				"z": 2.6930095467,
				"element": "C" 
			},
			{
				"x": 0.7668021573,
				"y": 1.4241018068,
				"z": 3.4981202313,
				"element": "O" 
			},
			{
				"x": -0.5542185389,
				"y": 0.4155635977,
				"z": 1.7537468341,
				"element": "C" 
			},
			{
				"x": -1.6689403707,
				"y": 0.5214917168,
				"z": 0.9345254209,
				"element": "C" 
			},
			{
				"x": -1.7265349915,
				"y": -0.6019082252,
				"z": 0.1858483393,
				"element": "N" 
			},
			{
				"x": -0.7067857014,
				"y": -1.4522053884,
				"z": 0.4727689768,
				"element": "N" 
			},
			{
				"x": 0.0240196328,
				"y": -0.8596388527,
				"z": 1.4182757987,
				"element": "C" 
			},
			{
				"x": 1.2353121198,
				"y": -1.5604771141,
				"z": 1.8882805632,
				"element": "C" 
			},
			{
				"x": 1.8463910658,
				"y": -2.503380131,
				"z": 1.037566678,
				"element": "C" 
			},
			{
				"x": 2.919881626,
				"y": -3.2255385209,
				"z": 1.36274817,
				"element": "N" 
			},
			{
				"x": 3.4462520425,
				"y": -3.0319770297,
				"z": 2.5805629378,
				"element": "C" 
			},
			{
				"x": 2.9307663161,
				"y": -2.1210823193,
				"z": 3.5003410983,
				"element": "C" 
			},
			{
				"x": 1.8077744791,
				"y": -1.3727068489,
				"z": 3.1534260828,
				"element": "C" 
			},
			{
				"x": -2.7047173823,
				"y": -0.9652716495,
				"z": -0.7829961452,
				"element": "C" 
			},
			{
				"x": -2.8862801954,
				"y": -2.3158325092,
				"z": -1.0966176581,
				"element": "C" 
			},
			{
				"x": -3.8493166941,
				"y": -2.6734043637,
				"z": -2.0379916402,
				"element": "C" 
			},
			{
				"x": -4.6326391013,
				"y": -1.6987071364,
				"z": -2.6599706468,
				"element": "C" 
			},
			{
				"x": -4.4391670818,
				"y": -0.353229936,
				"z": -2.3429539378,
				"element": "C" 
			},
			{
				"x": -3.4713656079,
				"y": 0.0211734017,
				"z": -1.4117728538,
				"element": "C" 
			},
			{
				"x": -0.6041485436,
				"y": 3.1929763472,
				"z": 3.2432746869,
				"element": "H" 
			},
			{
				"x": -2.4057465652,
				"y": 1.3056905498,
				"z": 0.8742111797,
				"element": "H" 
			},
			{
				"x": 1.4344610573,
				"y": -2.6662159594,
				"z": 0.0451176519,
				"element": "H" 
			},
			{
				"x": 4.3207073799,
				"y": -3.632405055,
				"z": 2.8262897518,
				"element": "H" 
			},
			{
				"x": 3.3972694455,
				"y": -1.9992527814,
				"z": 4.4730229441,
				"element": "H" 
			},
			{
				"x": 1.3917158432,
				"y": -0.6457575235,
				"z": 3.8382651769,
				"element": "H" 
			},
			{
				"x": -2.2721982331,
				"y": -3.0589227541,
				"z": -0.6032893103,
				"element": "H" 
			},
			{
				"x": -3.9901049411,
				"y": -3.7222568494,
				"z": -2.2810783936,
				"element": "H" 
			},
			{
				"x": -5.3834783171,
				"y": -1.9844911323,
				"z": -3.3900707539,
				"element": "H" 
			},
			{
				"x": -5.0326798606,
				"y": 0.4141082508,
				"z": -2.8306236222,
				"element": "H" 
			},
			{
				"x": -3.3032729119,
				"y": 1.0711959685,
				"z": -1.1974702281,
				"element": "H" 
			}
		],
		 "valence_orbital": [ 
			{
				"type": "occ",
				"energy": -0.27139,
				"method": "rhf"
			},
			{
				"type": "occ",
				"energy": -0.26786,
				"method": "rhf"
			},
			{
				"type": "occ",
				"energy": -0.2553,
				"method": "rhf"
			},
			{
				"type": "occ",
				"energy": -0.24378,
				"method": "rhf"
			},
			{
				"type": "occ",
				"energy": -0.22859,
				"method": "rhf"
			},
			{
				"type": "unocc",
				"energy": -0.0484,
				"method": "rhf"
			},
			{
				"type": "unocc",
				"energy": -0.04048,
				"method": "rhf"
			},
			{
				"type": "unocc",
				"energy": -0.01843,
				"method": "rhf"
			},
			{
				"type": "unocc",
				"energy": -0.01103,
				"method": "rhf"
			},
			{
				"type": "unocc",
				"energy": 0.0054,
				"method": "rhf"
			}
		],
		"cosmo_sigma_profile": { 
			"-0.025": 0.0,
			"-0.024": 0.0,
			"-0.023": 0.0,
			"-0.022": 0.0,
			"-0.021": 0.0,
			"-0.02": 0.0,
			"-0.019": 0.0,
			"-0.018": 0.47594307479,
			"-0.017": 1.32012155317,
			"-0.016": 0.71785285732,
			"-0.015": 0.54244942789,
			"-0.014": 0.644377996575,
			"-0.013": 0.875577726684,
			"-0.012": 0.95251166864,
			"-0.011": 2.00877234718,
			"-0.01": 1.74182271934,
			"-0.009": 2.89614503293,
			"-0.008": 2.2156283428,
			"-0.007": 6.8370087853,
			"-0.006": 16.4933243618,
			"-0.005": 16.8889986033,
			"-0.004": 17.5194926056,
			"-0.003": 16.6895988502,
			"-0.002": 18.8600237878,
			"-0.001": 21.5802218875,
			"0.0": 26.5104567138,
			"0.001": 24.8505941143,
			"0.002": 28.2756875739,
			"0.003": 22.84627621,
			"0.004": 19.2020657005,
			"0.005": 8.60390333399,
			"0.006": 6.83551687774,
			"0.007": 6.47687933622,
			"0.008": 5.63826668539,
			"0.009": 2.7127641784,
			"0.01": 2.92166582119,
			"0.011": 3.26727457653,
			"0.012": 2.49889984155,
			"0.013": 1.10067184676,
			"0.014": 0.938555007272,
			"0.015": 0.486996273882,
			"0.016": 1.1201943973,
			"0.017": 0.207760795351,
			"0.018": 0.0,
			"0.019": 0.0,
			"0.02": 0.0,
			"0.021": 0.0,
			"0.022": 0.0,
			"0.023": 0.0,
			"0.024": 0.0,
			"0.0": 0.0
		}
	}
}
