{
	 "smiles": "CC1=NN(CC(O)=O)C(C)=C1Cl", 
	 "Tm": 513.15, 
	 "num_atms": 21, 
	 "gaussian": { 
		 "optdone": 1, 
		 "sigma_profile": "yes", 
		 "theory": "DFT", 
		 "functional": "B3LYP", 
		 "basiset": "6-31G**", 
		 "properties": { 
			 "R2extent": 3467.7354, 
			 "electric_dipole_moment_norm": 4.21290275582, 
			 "electric_quadrupole_moment_norm": 19.7316935398, 
			 "total_energy": -992.31626076, 
			 "HOMO_LUMO_gap": 0.2317, 
			 "cosmo_polarized_energy": -12.58, 
			 "cosmo_cavitation_energy": 26.77, 
			 "cosmo_dispersion_energy": -19.51, 
			 "cosmo_repulsion_energy": 1.58, 
			 "cosmo_total_nonelectrostatic_energy": 8.84, 
			 "SMD_solvation_energy": 5.06 
		},
		"coords": [
			{
				"x": 3.1934523265,
				"y": 1.2203253302,
				"z": -0.4341254891,
				"element": "C" 
			},
			{
				"x": 2.1450333022,
				"y": 0.1606436809,
				"z": -0.5311422798,
				"element": "C" 
			},
			{
				"x": 1.138706616,
				"y": 0.081059482,
				"z": 0.3413177037,
				"element": "N" 
			},
			{
				"x": 0.3972000951,
				"y": -0.9991540625,
				"z": -0.0237258676,
				"element": "N" 
			},
			{
				"x": -0.8186589339,
				"y": -1.302645313,
				"z": 0.7203704537,
				"element": "C" 
			},
			{
				"x": -0.6840211836,
				"y": -1.2782162497,
				"z": 2.2594960931,
				"element": "C" 
			},
			{
				"x": 0.2134471032,
				"y": -0.4405911231,
				"z": 2.7760127559,
				"element": "O" 
			},
			{
				"x": -1.4259756048,
				"y": -1.9562551354,
				"z": 2.9299281489,
				"element": "O" 
			},
			{
				"x": 0.891379175,
				"y": -1.6156183188,
				"z": -1.1335671993,
				"element": "C" 
			},
			{
				"x": 0.2790611641,
				"y": -2.8156633889,
				"z": -1.7761182864,
				"element": "C" 
			},
			{
				"x": 2.0191838842,
				"y": -0.8813447379,
				"z": -1.4752542851,
				"element": "C" 
			},
			{
				"x": 3.0824946613,
				"y": -1.1931191286,
				"z": -2.8099245378,
				"element": "Cl" 
			},
			{
				"x": 2.9831962932,
				"y": 1.8778515508,
				"z": 0.4116885971,
				"element": "H" 
			},
			{
				"x": 4.1869433151,
				"y": 0.7803921976,
				"z": -0.2980379098,
				"element": "H" 
			},
			{
				"x": 3.2275653385,
				"y": 1.8240412092,
				"z": -1.3469579922,
				"element": "H" 
			},
			{
				"x": -1.6048235997,
				"y": -0.5851888339,
				"z": 0.4516046323,
				"element": "H" 
			},
			{
				"x": -1.1633258399,
				"y": -2.2976698023,
				"z": 0.4445559246,
				"element": "H" 
			},
			{
				"x": 0.7085403589,
				"y": 0.0096388296,
				"z": 2.0417788656,
				"element": "H" 
			},
			{
				"x": 0.8808401409,
				"y": -3.1087043798,
				"z": -2.6381939023,
				"element": "H" 
			},
			{
				"x": 0.2369619172,
				"y": -3.6680020034,
				"z": -1.089072971,
				"element": "H" 
			},
			{
				"x": -0.7392005294,
				"y": -2.6154798026,
				"z": -2.1275324544,
				"element": "H" 
			}
		],
		 "valence_orbital": [ 
			{
				"type": "occ",
				"energy": -0.31258,
				"method": "rhf"
			},
			{
				"type": "occ",
				"energy": -0.30719,
				"method": "rhf"
			},
			{
				"type": "occ",
				"energy": -0.28103,
				"method": "rhf"
			},
			{
				"type": "occ",
				"energy": -0.26412,
				"method": "rhf"
			},
			{
				"type": "occ",
				"energy": -0.24697,
				"method": "rhf"
			},
			{
				"type": "unocc",
				"energy": -0.01527,
				"method": "rhf"
			},
			{
				"type": "unocc",
				"energy": 0.01062,
				"method": "rhf"
			},
			{
				"type": "unocc",
				"energy": 0.02974,
				"method": "rhf"
			},
			{
				"type": "unocc",
				"energy": 0.04112,
				"method": "rhf"
			},
			{
				"type": "unocc",
				"energy": 0.07449,
				"method": "rhf"
			}
		],
		"cosmo_sigma_profile": { 
			"-0.025": 0.0,
			"-0.024": 0.0,
			"-0.023": 0.0,
			"-0.022": 0.0,
			"-0.021": 0.0,
			"-0.02": 0.0,
			"-0.019": 0.0,
			"-0.018": 0.0,
			"-0.017": 0.0,
			"-0.016": 0.0,
			"-0.015": 0.0,
			"-0.014": 0.0,
			"-0.013": 0.0,
			"-0.012": 0.0,
			"-0.011": 0.0,
			"-0.01": 0.246073797624,
			"-0.009": 4.126256624,
			"-0.008": 6.04418837702,
			"-0.007": 7.68175774639,
			"-0.006": 11.7715430125,
			"-0.005": 13.8768619532,
			"-0.004": 13.7656794501,
			"-0.003": 16.5735232001,
			"-0.002": 20.3307268054,
			"-0.001": 20.035957546,
			"0.0": 15.3942125513,
			"0.001": 12.8326446933,
			"0.002": 14.2226244414,
			"0.003": 10.6718421866,
			"0.004": 11.0057042648,
			"0.005": 5.40204742077,
			"0.006": 3.38200537788,
			"0.007": 3.41522484291,
			"0.008": 3.0041598769,
			"0.009": 2.82076318305,
			"0.01": 5.22055304509,
			"0.011": 5.37474188521,
			"0.012": 5.76072191467,
			"0.013": 1.98096706153,
			"0.014": 0.0688388130885,
			"0.015": 0.0,
			"0.016": 0.0,
			"0.017": 0.0,
			"0.018": 0.0,
			"0.019": 0.0,
			"0.02": 0.0,
			"0.021": 0.0,
			"0.022": 0.0,
			"0.023": 0.0,
			"0.024": 0.0,
			"0.025": 0.0
		}
	}
}
