{
	 "smiles": "CC1=C(SC(=C1)C(O)=O)C1=CC(Cl)=CC=C1", 
	 "Tm": 452.15, 
	 "num_atms": 25, 
	 "gaussian": { 
		 "optdone": 1, 
		 "sigma_profile": "yes", 
		 "theory": "DFT", 
		 "functional": "B3LYP", 
		 "basiset": "6-31G**", 
		 "properties": { 
			 "R2extent": 6273.5279, 
			 "electric_dipole_moment_norm": 4.27448678908, 
			 "electric_quadrupole_moment_norm": 26.7401545429, 
			 "total_energy": -1471.53548938, 
			 "HOMO_LUMO_gap": 0.16612, 
			 "cosmo_polarized_energy": -14.1, 
			 "cosmo_cavitation_energy": 33.08, 
			 "cosmo_dispersion_energy": -24.36, 
			 "cosmo_repulsion_energy": 1.86, 
			 "cosmo_total_nonelectrostatic_energy": 10.58, 
			 "SMD_solvation_energy": 6.14 
		},
		"coords": [
			{
				"x": -0.9095328525,
				"y": -1.5086071964,
				"z": -0.5485400893,
				"element": "C" 
			},
			{
				"x": 0.4852499138,
				"y": -0.9570798253,
				"z": -0.398448586,
				"element": "C" 
			},
			{
				"x": 0.8937020673,
				"y": -0.0466865436,
				"z": 0.564230215,
				"element": "C" 
			},
			{
				"x": 2.6062436329,
				"y": 0.2910470171,
				"z": 0.4252812026,
				"element": "S" 
			},
			{
				"x": 2.7690998519,
				"y": -0.7895392291,
				"z": -0.9350840875,
				"element": "C" 
			},
			{
				"x": 1.5614957661,
				"y": -1.3683211172,
				"z": -1.2354582673,
				"element": "C" 
			},
			{
				"x": 4.0297745505,
				"y": -1.0601565908,
				"z": -1.6638320178,
				"element": "C" 
			},
			{
				"x": 5.1096230573,
				"y": -0.2899679962,
				"z": -1.3621087977,
				"element": "O" 
			},
			{
				"x": 4.1206179026,
				"y": -1.9300192446,
				"z": -2.4988392052,
				"element": "O" 
			},
			{
				"x": 0.1163978127,
				"y": 0.6136015548,
				"z": 1.626837342,
				"element": "C" 
			},
			{
				"x": -1.1605261242,
				"y": 1.1338598296,
				"z": 1.3508703862,
				"element": "C" 
			},
			{
				"x": -1.887470301,
				"y": 1.7557055688,
				"z": 2.3629450009,
				"element": "C" 
			},
			{
				"x": -3.481574918,
				"y": 2.3982710093,
				"z": 1.9958888148,
				"element": "Cl" 
			},
			{
				"x": -1.3756647529,
				"y": 1.8918197769,
				"z": 3.6526436997,
				"element": "C" 
			},
			{
				"x": -0.1029749597,
				"y": 1.3859156072,
				"z": 3.9216504091,
				"element": "C" 
			},
			{
				"x": 0.6365985266,
				"y": 0.7515719023,
				"z": 2.9265689156,
				"element": "C" 
			},
			{
				"x": -0.8713444078,
				"y": -2.5584386831,
				"z": -0.8538880077,
				"element": "H" 
			},
			{
				"x": -1.4761577176,
				"y": -0.969647876,
				"z": -1.3175943719,
				"element": "H" 
			},
			{
				"x": -1.4744682459,
				"y": -1.4457273474,
				"z": 0.3841042401,
				"element": "H" 
			},
			{
				"x": 1.4652284634,
				"y": -2.0847109052,
				"z": -2.0432944969,
				"element": "H" 
			},
			{
				"x": 4.8763562135,
				"y": 0.4358465203,
				"z": -0.7656083678,
				"element": "H" 
			},
			{
				"x": -1.5722452203,
				"y": 1.0785554921,
				"z": 0.3507103307,
				"element": "H" 
			},
			{
				"x": -1.9596223884,
				"y": 2.3823793498,
				"z": 4.4230388559,
				"element": "H" 
			},
			{
				"x": 0.3088600045,
				"y": 1.4807081368,
				"z": 4.9217818851,
				"element": "H" 
			},
			{
				"x": 1.614334125,
				"y": 0.3411207901,
				"z": 3.1580449975,
				"element": "H" 
			}
		],
		 "valence_orbital": [ 
			{
				"type": "occ",
				"energy": -0.29008,
				"method": "rhf"
			},
			{
				"type": "occ",
				"energy": -0.27853,
				"method": "rhf"
			},
			{
				"type": "occ",
				"energy": -0.26806,
				"method": "rhf"
			},
			{
				"type": "occ",
				"energy": -0.26375,
				"method": "rhf"
			},
			{
				"type": "occ",
				"energy": -0.23832,
				"method": "rhf"
			},
			{
				"type": "unocc",
				"energy": -0.0722,
				"method": "rhf"
			},
			{
				"type": "unocc",
				"energy": -0.0323,
				"method": "rhf"
			},
			{
				"type": "unocc",
				"energy": -0.02703,
				"method": "rhf"
			},
			{
				"type": "unocc",
				"energy": -0.00363,
				"method": "rhf"
			},
			{
				"type": "unocc",
				"energy": 0.01747,
				"method": "rhf"
			}
		],
		"cosmo_sigma_profile": { 
			"-0.025": 0.0,
			"-0.024": 0.0,
			"-0.023": 0.0,
			"-0.022": 0.0,
			"-0.021": 0.0,
			"-0.02": 0.0,
			"-0.019": 0.0,
			"-0.018": 0.521684934381,
			"-0.017": 0.846133608609,
			"-0.016": 0.522353705216,
			"-0.015": 1.23253589346,
			"-0.014": 0.859304883639,
			"-0.013": 0.768061781363,
			"-0.012": 1.14736136965,
			"-0.011": 1.27172451754,
			"-0.01": 0.784486865353,
			"-0.009": 0.711122674031,
			"-0.008": 2.31614636976,
			"-0.007": 7.71434683125,
			"-0.006": 12.1673274363,
			"-0.005": 15.3261922993,
			"-0.004": 15.7865153274,
			"-0.003": 17.0099451084,
			"-0.002": 19.1938474296,
			"-0.001": 22.440572108,
			"0.0": 21.6823800733,
			"0.001": 28.5659781792,
			"0.002": 30.3685006783,
			"0.003": 20.6888437688,
			"0.004": 13.3347997102,
			"0.005": 7.21448599929,
			"0.006": 2.17835210059,
			"0.007": 2.43918917354,
			"0.008": 2.57680478978,
			"0.009": 3.9301917245,
			"0.01": 4.45779468227,
			"0.011": 5.1981760573,
			"0.012": 4.92326809445,
			"0.013": 1.39918294567,
			"0.014": 0.0196880912548,
			"0.015": 0.0,
			"0.016": 0.0,
			"0.017": 0.0,
			"0.018": 0.0,
			"0.019": 0.0,
			"0.02": 0.0,
			"0.021": 0.0,
			"0.022": 0.0,
			"0.023": 0.0,
			"0.024": 0.0,
			"0.025": 0.0
		}
	}
}
