{
	 "smiles": "[O-][N+](=O)C1=CC2=C(C=CC=C2)C(=C1)[N+]([O-])=O", 
	 "Tm": 421.15, 
	 "num_atms": 22, 
	 "gaussian": { 
		 "optdone": 1, 
		 "sigma_profile": "yes", 
		 "theory": "DFT", 
		 "functional": "B3LYP", 
		 "basiset": "6-31G**", 
		 "properties": { 
			 "R2extent": 4499.5322, 
			 "electric_dipole_moment_norm": 5.80107786622, 
			 "electric_quadrupole_moment_norm": 10.6755727317, 
			 "total_energy": -794.879094518, 
			 "HOMO_LUMO_gap": 0.14567, 
			 "cosmo_polarized_energy": -11.97, 
			 "cosmo_cavitation_energy": 27.97, 
			 "cosmo_dispersion_energy": -20.61, 
			 "cosmo_repulsion_energy": 1.56, 
			 "cosmo_total_nonelectrostatic_energy": 8.92, 
			 "SMD_solvation_energy": 8.99 
		},
		"coords": [
			{
				"x": 2.8704483468,
				"y": -3.3878169887,
				"z": 2.8791449677,
				"element": "O" 
			},
			{
				"x": 1.7412786828,
				"y": -2.9187496166,
				"z": 3.0045235154,
				"element": "N" 
			},
			{
				"x": 0.9299874144,
				"y": -3.2461781011,
				"z": 3.8690598905,
				"element": "O" 
			},
			{
				"x": 1.3287010669,
				"y": -1.8832749311,
				"z": 2.0435927917,
				"element": "C" 
			},
			{
				"x": 0.0719974868,
				"y": -1.3366921606,
				"z": 2.141323968,
				"element": "C" 
			},
			{
				"x": -0.3335109891,
				"y": -0.3376991617,
				"z": 1.2251013253,
				"element": "C" 
			},
			{
				"x": 0.5559407247,
				"y": 0.0946146385,
				"z": 0.1762374291,
				"element": "C" 
			},
			{
				"x": 0.1046509571,
				"y": 1.1178230432,
				"z": -0.6998789501,
				"element": "C" 
			},
			{
				"x": -1.1504276191,
				"y": 1.6686976101,
				"z": -0.5469741204,
				"element": "C" 
			},
			{
				"x": -2.0275458401,
				"y": 1.2336531275,
				"z": 0.4724541867,
				"element": "C" 
			},
			{
				"x": -1.6231096152,
				"y": 0.2490956495,
				"z": 1.341405181,
				"element": "C" 
			},
			{
				"x": 1.8465389569,
				"y": -0.5310527905,
				"z": 0.1386878528,
				"element": "C" 
			},
			{
				"x": 2.2378970503,
				"y": -1.4834765941,
				"z": 1.0503590734,
				"element": "C" 
			},
			{
				"x": 2.8536980377,
				"y": -0.2023681262,
				"z": -0.8925785551,
				"element": "N" 
			},
			{
				"x": 2.4607125731,
				"y": 0.2244650342,
				"z": -1.9785736011,
				"element": "O" 
			},
			{
				"x": 4.0328661069,
				"y": -0.4018711521,
				"z": -0.6103763836,
				"element": "O" 
			},
			{
				"x": -0.5979037924,
				"y": -1.6731700775,
				"z": 2.9239437193,
				"element": "H" 
			},
			{
				"x": 0.7523094087,
				"y": 1.4583587462,
				"z": -1.4937129016,
				"element": "H" 
			},
			{
				"x": -1.4696290676,
				"y": 2.4519094266,
				"z": -1.2279927224,
				"element": "H" 
			},
			{
				"x": -3.0123243944,
				"y": 1.6799943931,
				"z": 0.5679465608,
				"element": "H" 
			},
			{
				"x": -2.2778080159,
				"y": -0.0949274377,
				"z": 2.1366736094,
				"element": "H" 
			},
			{
				"x": 3.2249325206,
				"y": -1.9218345312,
				"z": 1.003133163,
				"element": "H" 
			}
		],
		 "valence_orbital": [ 
			{
				"type": "occ",
				"energy": -0.31749,
				"method": "rhf"
			},
			{
				"type": "occ",
				"energy": -0.30486,
				"method": "rhf"
			},
			{
				"type": "occ",
				"energy": -0.30055,
				"method": "rhf"
			},
			{
				"type": "occ",
				"energy": -0.28874,
				"method": "rhf"
			},
			{
				"type": "occ",
				"energy": -0.26076,
				"method": "rhf"
			},
			{
				"type": "unocc",
				"energy": -0.11509,
				"method": "rhf"
			},
			{
				"type": "unocc",
				"energy": -0.0974,
				"method": "rhf"
			},
			{
				"type": "unocc",
				"energy": -0.05752,
				"method": "rhf"
			},
			{
				"type": "unocc",
				"energy": -0.03076,
				"method": "rhf"
			},
			{
				"type": "unocc",
				"energy": 0.00439,
				"method": "rhf"
			}
		],
		"cosmo_sigma_profile": { 
			"-0.025": 0.0,
			"-0.024": 0.0,
			"-0.023": 0.0,
			"-0.022": 0.0,
			"-0.021": 0.0,
			"-0.02": 0.0,
			"-0.019": 0.0,
			"-0.018": 0.0,
			"-0.017": 0.0,
			"-0.016": 0.0,
			"-0.015": 0.0,
			"-0.014": 0.0,
			"-0.013": 0.0,
			"-0.012": 0.0,
			"-0.011": 0.0,
			"-0.01": 1.24480754089,
			"-0.009": 2.07442887773,
			"-0.008": 4.58024272407,
			"-0.007": 11.913920041,
			"-0.006": 13.8556702478,
			"-0.005": 14.7271005689,
			"-0.004": 13.6670164176,
			"-0.003": 18.2175119631,
			"-0.002": 19.8919626355,
			"-0.001": 15.5207204821,
			"0.0": 14.4571793941,
			"0.001": 13.8380080961,
			"0.002": 15.9891935649,
			"0.003": 7.28699342808,
			"0.004": 5.6274322611,
			"0.005": 6.51236737928,
			"0.006": 9.92220309445,
			"0.007": 17.6487831383,
			"0.008": 9.91798868902,
			"0.009": 7.48347723315,
			"0.01": 1.84595475657,
			"0.011": 0.0,
			"0.012": 0.0,
			"0.013": 0.0,
			"0.014": 0.0,
			"0.015": 0.0,
			"0.016": 0.0,
			"0.017": 0.0,
			"0.018": 0.0,
			"0.019": 0.0,
			"0.02": 0.0,
			"0.021": 0.0,
			"0.022": 0.0,
			"0.023": 0.0,
			"0.024": 0.0,
			"0.025": 0.0
		}
	}
}
