{
	 "smiles": "FC1=C(C=C(Br)C=C1)S(Cl)(=O)=O", 
	 "Tm": 342.15, 
	 "num_atms": 15, 
	 "gaussian": { 
		 "optdone": 1, 
		 "sigma_profile": "yes", 
		 "theory": "DFT", 
		 "functional": "B3LYP", 
		 "basiset": "6-31G**", 
		 "properties": { 
			 "R2extent": 5990.4227, 
			 "electric_dipole_moment_norm": 4.84536271914, 
			 "electric_quadrupole_moment_norm": 12.1263139259, 
			 "total_energy": -3910.43097982, 
			 "HOMO_LUMO_gap": 0.17421, 
			 "cosmo_polarized_energy": -8.72, 
			 "cosmo_cavitation_energy": 26.08, 
			 "cosmo_dispersion_energy": -19.96, 
			 "cosmo_repulsion_energy": 1.53, 
			 "cosmo_total_nonelectrostatic_energy": 7.65, 
			 "SMD_solvation_energy": 2.51 
		},
		"coords": [
			{
				"x": 0.2962321132,
				"y": -3.9054767152,
				"z": -0.1208958864,
				"element": "F" 
			},
			{
				"x": 0.0021399806,
				"y": -2.822339377,
				"z": -0.8439608596,
				"element": "C" 
			},
			{
				"x": 0.8667897788,
				"y": -1.7245189669,
				"z": -0.8514281669,
				"element": "C" 
			},
			{
				"x": 0.5768659403,
				"y": -0.5963662208,
				"z": -1.6222555289,
				"element": "C" 
			},
			{
				"x": -0.5929147666,
				"y": -0.5846493916,
				"z": -2.3770803384,
				"element": "C" 
			},
			{
				"x": -1.0115818664,
				"y": 0.9440882079,
				"z": -3.4304195799,
				"element": "Br" 
			},
			{
				"x": -1.4617442384,
				"y": -1.6783753418,
				"z": -2.3703452775,
				"element": "C" 
			},
			{
				"x": -1.1618807569,
				"y": -2.8022865143,
				"z": -1.6025356396,
				"element": "C" 
			},
			{
				"x": 2.341096055,
				"y": -1.6953508362,
				"z": 0.1633506054,
				"element": "S" 
			},
			{
				"x": 3.5394702413,
				"y": -3.1418838568,
				"z": -0.8188259676,
				"element": "Cl" 
			},
			{
				"x": 2.9976167305,
				"y": -0.4094415802,
				"z": -0.0323325017,
				"element": "O" 
			},
			{
				"x": 2.0445845085,
				"y": -2.2204400433,
				"z": 1.4867692191,
				"element": "O" 
			},
			{
				"x": 1.2586148406,
				"y": 0.2450063879,
				"z": -1.6185315929,
				"element": "H" 
			},
			{
				"x": -2.3679825634,
				"y": -1.6536449252,
				"z": -2.964274593,
				"element": "H" 
			},
			{
				"x": -1.8175059972,
				"y": -3.6657208263,
				"z": -1.5832338922,
				"element": "H" 
			}
		],
		 "valence_orbital": [ 
			{
				"type": "occ",
				"energy": -0.33483,
				"method": "rhf"
			},
			{
				"type": "occ",
				"energy": -0.32116,
				"method": "rhf"
			},
			{
				"type": "occ",
				"energy": -0.31305,
				"method": "rhf"
			},
			{
				"type": "occ",
				"energy": -0.30936,
				"method": "rhf"
			},
			{
				"type": "occ",
				"energy": -0.27172,
				"method": "rhf"
			},
			{
				"type": "unocc",
				"energy": -0.09751,
				"method": "rhf"
			},
			{
				"type": "unocc",
				"energy": -0.06346,
				"method": "rhf"
			},
			{
				"type": "unocc",
				"energy": -0.04873,
				"method": "rhf"
			},
			{
				"type": "unocc",
				"energy": -0.01976,
				"method": "rhf"
			},
			{
				"type": "unocc",
				"energy": 0.03509,
				"method": "rhf"
			}
		],
		"cosmo_sigma_profile": { 
			"-0.025": 0.0,
			"-0.024": 0.0,
			"-0.023": 0.0,
			"-0.022": 0.0,
			"-0.021": 0.0,
			"-0.02": 0.0,
			"-0.019": 0.0,
			"-0.018": 0.0,
			"-0.017": 0.0,
			"-0.016": 0.0,
			"-0.015": 0.0,
			"-0.014": 0.0,
			"-0.013": 0.0,
			"-0.012": 0.0,
			"-0.011": 0.0,
			"-0.01": 0.859586120683,
			"-0.009": 5.08490590913,
			"-0.008": 5.94966866772,
			"-0.007": 5.37493051014,
			"-0.006": 6.19802348178,
			"-0.005": 8.11356459242,
			"-0.004": 9.70049213849,
			"-0.003": 17.2422504864,
			"-0.002": 18.8130942406,
			"-0.001": 21.2726560369,
			"0.0": 17.8104258511,
			"0.001": 14.1587908405,
			"0.002": 25.3465600814,
			"0.003": 24.8370691877,
			"0.004": 8.93896888477,
			"0.005": 3.89526796396,
			"0.006": 4.41686628462,
			"0.007": 8.73774623106,
			"0.008": 8.67271464026,
			"0.009": 1.38599063725,
			"0.01": 0.0,
			"0.011": 0.0,
			"0.012": 0.0,
			"0.013": 0.0,
			"0.014": 0.0,
			"0.015": 0.0,
			"0.016": 0.0,
			"0.017": 0.0,
			"0.018": 0.0,
			"0.019": 0.0,
			"0.02": 0.0,
			"0.021": 0.0,
			"0.022": 0.0,
			"0.023": 0.0,
			"0.024": 0.0,
			"0.025": 0.0
		}
	}
}
