{
	 "smiles": "OC1=CC=C2C(O)=C3C=CC=CC3=CC2=C1O", 
	 "Tm": 481.15, 
	 "num_atms": 27, 
	 "gaussian": { 
		 "optdone": 1, 
		 "sigma_profile": "yes", 
		 "theory": "DFT", 
		 "functional": "B3LYP", 
		 "basiset": "6-31G**", 
		 "properties": { 
			 "R2extent": 4597.2788, 
			 "electric_dipole_moment_norm": 1.27881615567, 
			 "electric_quadrupole_moment_norm": 14.7663428478, 
			 "total_energy": -765.190277869, 
			 "HOMO_LUMO_gap": 0.12244, 
			 "cosmo_polarized_energy": -14.68, 
			 "cosmo_cavitation_energy": 30.33, 
			 "cosmo_dispersion_energy": -23.2, 
			 "cosmo_repulsion_energy": 1.73, 
			 "cosmo_total_nonelectrostatic_energy": 8.86, 
			 "SMD_solvation_energy": 5.33 
		},
		"coords": [
			{
				"x": 4.5851042192,
				"y": -0.9477877461,
				"z": -2.4888952525,
				"element": "O" 
			},
			{
				"x": 3.4004717422,
				"y": -1.1663647339,
				"z": -1.857473437,
				"element": "C" 
			},
			{
				"x": 2.8544668846,
				"y": -2.4775565616,
				"z": -1.8719190407,
				"element": "C" 
			},
			{
				"x": 1.6439003649,
				"y": -2.7249566707,
				"z": -1.280872565,
				"element": "C" 
			},
			{
				"x": 0.9098715458,
				"y": -1.6904815564,
				"z": -0.6213062396,
				"element": "C" 
			},
			{
				"x": -0.3485378713,
				"y": -1.904062532,
				"z": -0.0216796442,
				"element": "C" 
			},
			{
				"x": -0.9758678519,
				"y": -3.1148167137,
				"z": -0.0675956692,
				"element": "O" 
			},
			{
				"x": -1.0269410543,
				"y": -0.878606236,
				"z": 0.6702052259,
				"element": "C" 
			},
			{
				"x": -2.2973045586,
				"y": -1.0966929952,
				"z": 1.2829893644,
				"element": "C" 
			},
			{
				"x": -2.9267994616,
				"y": -0.0866841156,
				"z": 1.9648067197,
				"element": "C" 
			},
			{
				"x": -2.3191501298,
				"y": 1.196723077,
				"z": 2.0697704852,
				"element": "C" 
			},
			{
				"x": -1.1023389976,
				"y": 1.4406716889,
				"z": 1.4875650776,
				"element": "C" 
			},
			{
				"x": -0.4115087461,
				"y": 0.4203499474,
				"z": 0.7629183645,
				"element": "C" 
			},
			{
				"x": 0.8268070202,
				"y": 0.6520429924,
				"z": 0.1482911593,
				"element": "C" 
			},
			{
				"x": 1.4866040928,
				"y": -0.3649137785,
				"z": -0.551473477,
				"element": "C" 
			},
			{
				"x": 2.732703414,
				"y": -0.1483709218,
				"z": -1.2130710571,
				"element": "C" 
			},
			{
				"x": 3.3522709686,
				"y": 1.089854269,
				"z": -1.2259141,
				"element": "O" 
			},
			{
				"x": 4.7829865898,
				"y": -0.0029787438,
				"z": -2.387829433,
				"element": "H" 
			},
			{
				"x": 3.4158111203,
				"y": -3.2605514876,
				"z": -2.3703093263,
				"element": "H" 
			},
			{
				"x": 1.267647481,
				"y": -3.7449747379,
				"z": -1.3001188668,
				"element": "H" 
			},
			{
				"x": -0.5200396275,
				"y": -3.6962396064,
				"z": -0.6877116454,
				"element": "H" 
			},
			{
				"x": -2.7509963777,
				"y": -2.0775635435,
				"z": 1.199028878,
				"element": "H" 
			},
			{
				"x": -3.8929453702,
				"y": -0.2620465352,
				"z": 2.4285984443,
				"element": "H" 
			},
			{
				"x": -2.8283582079,
				"y": 1.9865218142,
				"z": 2.6149737057,
				"element": "H" 
			},
			{
				"x": -0.6398698763,
				"y": 2.4212619361,
				"z": 1.566173762,
				"element": "H" 
			},
			{
				"x": 1.2894594957,
				"y": 1.6284054939,
				"z": 0.2596577849,
				"element": "H" 
			},
			{
				"x": 2.6808531916,
				"y": 1.7751179967,
				"z": -1.3464092179,
				"element": "H" 
			}
		],
		 "valence_orbital": [ 
			{
				"type": "occ",
				"energy": -0.29435,
				"method": "rhf"
			},
			{
				"type": "occ",
				"energy": -0.26416,
				"method": "rhf"
			},
			{
				"type": "occ",
				"energy": -0.24318,
				"method": "rhf"
			},
			{
				"type": "occ",
				"energy": -0.2262,
				"method": "rhf"
			},
			{
				"type": "occ",
				"energy": -0.1787,
				"method": "rhf"
			},
			{
				"type": "unocc",
				"energy": -0.05626,
				"method": "rhf"
			},
			{
				"type": "unocc",
				"energy": -0.01089,
				"method": "rhf"
			},
			{
				"type": "unocc",
				"energy": 0.00986,
				"method": "rhf"
			},
			{
				"type": "unocc",
				"energy": 0.05076,
				"method": "rhf"
			},
			{
				"type": "unocc",
				"energy": 0.05308,
				"method": "rhf"
			}
		],
		"cosmo_sigma_profile": { 
			"-0.025": 0.0,
			"-0.024": 0.0,
			"-0.023": 0.0,
			"-0.022": 0.0,
			"-0.021": 0.0,
			"-0.02": 0.0,
			"-0.019": 0.0,
			"-0.018": 0.616001621985,
			"-0.017": 2.24060265445,
			"-0.016": 1.33354110299,
			"-0.015": 1.40458718626,
			"-0.014": 1.98198838605,
			"-0.013": 2.68519236354,
			"-0.012": 1.74733003489,
			"-0.011": 2.92434059533,
			"-0.01": 3.63402278485,
			"-0.009": 2.91606386523,
			"-0.008": 3.03076791691,
			"-0.007": 2.93674293773,
			"-0.006": 8.72834893807,
			"-0.005": 15.0193654411,
			"-0.004": 12.9422915304,
			"-0.003": 12.561665016,
			"-0.002": 10.4272672962,
			"-0.001": 10.3775715135,
			"0.0": 11.8712091938,
			"0.001": 10.8617055491,
			"0.002": 17.4792101479,
			"0.003": 30.5642578377,
			"0.004": 29.2719528962,
			"0.005": 21.0512917208,
			"0.006": 6.87105707377,
			"0.007": 4.30943590412,
			"0.008": 4.17503461867,
			"0.009": 3.42591313024,
			"0.01": 2.62798763717,
			"0.011": 2.75474139517,
			"0.012": 0.476021651845,
			"0.013": 0.0,
			"0.014": 0.0,
			"0.015": 0.0,
			"0.016": 0.0,
			"0.017": 0.0,
			"0.018": 0.0,
			"0.019": 0.0,
			"0.02": 0.0,
			"0.021": 0.0,
			"0.022": 0.0,
			"0.023": 0.0,
			"0.024": 0.0,
			"0.025": 0.0
		}
	}
}
