{
	 "smiles": "CCCCCCCCN1C(=O)C2=CC3=C(OC)C4=CC5=C(C=C4C(OC)=C3C=C2C1=O)C(=O)N(CCCCCCCC)C5=O", 
	 "Tm": 511.15, 
	 "num_atms": 88, 
	 "gaussian": { 
		 "optdone": 1, 
		 "sigma_profile": "yes", 
		 "theory": "DFT", 
		 "functional": "B3LYP", 
		 "basiset": "6-31G**", 
		 "properties": { 
			 "R2extent": 44799.8545, 
			 "electric_dipole_moment_norm": 2.67601909933, 
			 "electric_quadrupole_moment_norm": 19.1729642455, 
			 "total_energy": -1959.29852328, 
			 "HOMO_LUMO_gap": 0.11985, 
			 "cosmo_polarized_energy": -21.2, 
			 "cosmo_cavitation_energy": 88.01, 
			 "cosmo_dispersion_energy": -56.44, 
			 "cosmo_repulsion_energy": 4.28, 
			 "cosmo_total_nonelectrostatic_energy": 35.84, 
			 "SMD_solvation_energy": 15.81 
		},
		"coords": [
			{
				"x": -1.0597610143,
				"y": -8.4861367217,
				"z": -2.322205396,
				"element": "C" 
			},
			{
				"x": -0.0774715169,
				"y": -7.9107399875,
				"z": -3.3497620493,
				"element": "C" 
			},
			{
				"x": -0.6978114531,
				"y": -6.895184641,
				"z": -4.3241586905,
				"element": "C" 
			},
			{
				"x": -1.1731131144,
				"y": -5.5926727711,
				"z": -3.661946413,
				"element": "C" 
			},
			{
				"x": -1.6474490762,
				"y": -4.5098137866,
				"z": -4.6458754113,
				"element": "C" 
			},
			{
				"x": -2.9112285268,
				"y": -4.8832157277,
				"z": -5.4389360332,
				"element": "C" 
			},
			{
				"x": -3.434830153,
				"y": -3.7729260358,
				"z": -6.3746419705,
				"element": "C" 
			},
			{
				"x": -4.4512891651,
				"y": -2.7993638328,
				"z": -5.7567312214,
				"element": "C" 
			},
			{
				"x": -3.9360509164,
				"y": -1.9747136018,
				"z": -4.666719434,
				"element": "N" 
			},
			{
				"x": -3.1983749406,
				"y": -0.7968059047,
				"z": -4.8751721795,
				"element": "C" 
			},
			{
				"x": -2.8880660978,
				"y": -0.3486818977,
				"z": -5.9624103724,
				"element": "O" 
			},
			{
				"x": -2.916970475,
				"y": -0.2544059508,
				"z": -3.5159892928,
				"element": "C" 
			},
			{
				"x": -2.2156430739,
				"y": 0.8530969381,
				"z": -3.1400106412,
				"element": "C" 
			},
			{
				"x": -2.0962655663,
				"y": 1.1419880808,
				"z": -1.7417451192,
				"element": "C" 
			},
			{
				"x": -1.3856948743,
				"y": 2.2702086294,
				"z": -1.290266168,
				"element": "C" 
			},
			{
				"x": -0.8118383596,
				"y": 3.1155478492,
				"z": -2.2102427914,
				"element": "O" 
			},
			{
				"x": -1.6425567466,
				"y": 4.2068379891,
				"z": -2.6334728912,
				"element": "C" 
			},
			{
				"x": -1.2044121784,
				"y": 2.5226516199,
				"z": 0.0826024626,
				"element": "C" 
			},
			{
				"x": -0.4204201983,
				"y": 3.6339479798,
				"z": 0.53339418,
				"element": "C" 
			},
			{
				"x": -0.2816208428,
				"y": 3.8270303752,
				"z": 1.8762740313,
				"element": "C" 
			},
			{
				"x": -0.8782710665,
				"y": 2.9547487097,
				"z": 2.8286744938,
				"element": "C" 
			},
			{
				"x": -1.6226384653,
				"y": 1.8759447568,
				"z": 2.4522425196,
				"element": "C" 
			},
			{
				"x": -1.8123713385,
				"y": 1.6338522985,
				"z": 1.0527523076,
				"element": "C" 
			},
			{
				"x": -2.5710799134,
				"y": 0.5378824049,
				"z": 0.6005720817,
				"element": "C" 
			},
			{
				"x": -3.1513663175,
				"y": -0.3030318915,
				"z": 1.5206106769,
				"element": "O" 
			},
			{
				"x": -4.4878172147,
				"y": 0.0496016194,
				"z": 1.9075019019,
				"element": "C" 
			},
			{
				"x": -2.7045411214,
				"y": 0.253418496,
				"z": -0.771663389,
				"element": "C" 
			},
			{
				"x": -3.4190534453,
				"y": -0.9041314388,
				"z": -1.2214632395,
				"element": "C" 
			},
			{
				"x": -3.5144154858,
				"y": -1.126450491,
				"z": -2.5636706204,
				"element": "C" 
			},
			{
				"x": -4.1803070489,
				"y": -2.2335247355,
				"z": -3.3065923482,
				"element": "C" 
			},
			{
				"x": -4.8140089211,
				"y": -3.176372256,
				"z": -2.8715315215,
				"element": "O" 
			},
			{
				"x": -0.5176922154,
				"y": 3.445406607,
				"z": 4.1884647444,
				"element": "C" 
			},
			{
				"x": -0.8414790117,
				"y": 3.0073178142,
				"z": 5.2759240297,
				"element": "O" 
			},
			{
				"x": 0.2949204119,
				"y": 4.5739292624,
				"z": 3.9810828374,
				"element": "N" 
			},
			{
				"x": 0.813434803,
				"y": 5.3953073317,
				"z": 5.0731518202,
				"element": "C" 
			},
			{
				"x": 1.9928174619,
				"y": 4.7876941014,
				"z": 5.8512945824,
				"element": "C" 
			},
			{
				"x": 3.3582347793,
				"y": 4.7691740609,
				"z": 5.1404269978,
				"element": "C" 
			},
			{
				"x": 3.5434235164,
				"y": 3.6788129507,
				"z": 4.0732854164,
				"element": "C" 
			},
			{
				"x": 4.9879269153,
				"y": 3.5551308003,
				"z": 3.5550082748,
				"element": "C" 
			},
			{
				"x": 5.545133698,
				"y": 4.7836052636,
				"z": 2.8137015365,
				"element": "C" 
			},
			{
				"x": 4.8047123792,
				"y": 5.1436595329,
				"z": 1.5176387737,
				"element": "C" 
			},
			{
				"x": 5.4618056788,
				"y": 6.3042873485,
				"z": 0.7627124655,
				"element": "C" 
			},
			{
				"x": 0.4656552793,
				"y": 4.8789005425,
				"z": 2.6204657857,
				"element": "C" 
			},
			{
				"x": 1.100884703,
				"y": 5.821390973,
				"z": 2.1840056232,
				"element": "O" 
			},
			{
				"x": -0.5743643067,
				"y": -9.2383878028,
				"z": -1.6915362642,
				"element": "H" 
			},
			{
				"x": -1.9109053174,
				"y": -8.9679520976,
				"z": -2.81779096,
				"element": "H" 
			},
			{
				"x": -1.4592063851,
				"y": -7.7116212937,
				"z": -1.6596462159,
				"element": "H" 
			},
			{
				"x": 0.3531042709,
				"y": -8.7365100747,
				"z": -3.9307589146,
				"element": "H" 
			},
			{
				"x": 0.7646660644,
				"y": -7.4382914808,
				"z": -2.8252235652,
				"element": "H" 
			},
			{
				"x": 0.0455975094,
				"y": -6.6460227781,
				"z": -5.0944864646,
				"element": "H" 
			},
			{
				"x": -1.532804934,
				"y": -7.3759169712,
				"z": -4.8513993577,
				"element": "H" 
			},
			{
				"x": -1.9836307661,
				"y": -5.8048358735,
				"z": -2.9525539784,
				"element": "H" 
			},
			{
				"x": -0.3461048461,
				"y": -5.1835983801,
				"z": -3.0649145995,
				"element": "H" 
			},
			{
				"x": -0.8377723475,
				"y": -4.2810547206,
				"z": -5.3539755181,
				"element": "H" 
			},
			{
				"x": -1.8239260517,
				"y": -3.5856169693,
				"z": -4.0841234241,
				"element": "H" 
			},
			{
				"x": -2.6944471374,
				"y": -5.769563009,
				"z": -6.0463396076,
				"element": "H" 
			},
			{
				"x": -3.7060576257,
				"y": -5.1780228813,
				"z": -4.7408008142,
				"element": "H" 
			},
			{
				"x": -3.9479736594,
				"y": -4.2305596383,
				"z": -7.2299087619,
				"element": "H" 
			},
			{
				"x": -2.599539184,
				"y": -3.1989216182,
				"z": -6.7935066489,
				"element": "H" 
			},
			{
				"x": -5.3027113621,
				"y": -3.3487222564,
				"z": -5.3456453427,
				"element": "H" 
			},
			{
				"x": -4.8142209113,
				"y": -2.114363877,
				"z": -6.528932201,
				"element": "H" 
			},
			{
				"x": -1.7348972745,
				"y": 1.4963005032,
				"z": -3.8677521617,
				"element": "H" 
			},
			{
				"x": -1.0537257406,
				"y": 4.7775170068,
				"z": -3.3531647364,
				"element": "H" 
			},
			{
				"x": -2.5577412338,
				"y": 3.8430145399,
				"z": -3.115051429,
				"element": "H" 
			},
			{
				"x": -1.9110326299,
				"y": 4.850103415,
				"z": -1.7872744889,
				"element": "H" 
			},
			{
				"x": 0.0626829222,
				"y": 4.2825242763,
				"z": -0.187968719,
				"element": "H" 
			},
			{
				"x": -2.0482419719,
				"y": 1.1958966876,
				"z": 3.1808272154,
				"element": "H" 
			},
			{
				"x": -5.1648334023,
				"y": 0.0375128559,
				"z": 1.0453062323,
				"element": "H" 
			},
			{
				"x": -4.8049071544,
				"y": -0.7030298908,
				"z": 2.6309373803,
				"element": "H" 
			},
			{
				"x": -4.5152934894,
				"y": 1.0412036179,
				"z": 2.3742511445,
				"element": "H" 
			},
			{
				"x": -3.8479422687,
				"y": -1.5889935859,
				"z": -0.4993542682,
				"element": "H" 
			},
			{
				"x": -0.0185022913,
				"y": 5.5650420419,
				"z": 5.7639774197,
				"element": "H" 
			},
			{
				"x": 1.0954242956,
				"y": 6.3523196962,
				"z": 4.6254573988,
				"element": "H" 
			},
			{
				"x": 1.7165890548,
				"y": 3.779862944,
				"z": 6.1829301365,
				"element": "H" 
			},
			{
				"x": 2.0869785374,
				"y": 5.3911907282,
				"z": 6.7633240232,
				"element": "H" 
			},
			{
				"x": 3.5468989169,
				"y": 5.7589206422,
				"z": 4.7049992954,
				"element": "H" 
			},
			{
				"x": 4.130822664,
				"y": 4.6261204675,
				"z": 5.9086834914,
				"element": "H" 
			},
			{
				"x": 2.8704340969,
				"y": 3.8569655395,
				"z": 3.2288273813,
				"element": "H" 
			},
			{
				"x": 3.2459922355,
				"y": 2.712519911,
				"z": 4.5033226747,
				"element": "H" 
			},
			{
				"x": 5.0449135524,
				"y": 2.6861639679,
				"z": 2.8851466427,
				"element": "H" 
			},
			{
				"x": 5.6471285351,
				"y": 3.325908408,
				"z": 4.4039462862,
				"element": "H" 
			},
			{
				"x": 6.6002861521,
				"y": 4.5902543353,
				"z": 2.5752071221,
				"element": "H" 
			},
			{
				"x": 5.5487899604,
				"y": 5.6555732662,
				"z": 3.4819862158,
				"element": "H" 
			},
			{
				"x": 4.7702581154,
				"y": 4.2582394104,
				"z": 0.8669200976,
				"element": "H" 
			},
			{
				"x": 3.7621965629,
				"y": 5.4038869918,
				"z": 1.7361095782,
				"element": "H" 
			},
			{
				"x": 5.4857127221,
				"y": 7.2120639758,
				"z": 1.3767675494,
				"element": "H" 
			},
			{
				"x": 4.9175582939,
				"y": 6.5425865891,
				"z": -0.1570371844,
				"element": "H" 
			},
			{
				"x": 6.4959080588,
				"y": 6.066190718,
				"z": 0.4868379911,
				"element": "H" 
			}
		],
		 "valence_orbital": [ 
			{
				"type": "occ",
				"energy": -0.27206,
				"method": "rhf"
			},
			{
				"type": "occ",
				"energy": -0.26933,
				"method": "rhf"
			},
			{
				"type": "occ",
				"energy": -0.26808,
				"method": "rhf"
			},
			{
				"type": "occ",
				"energy": -0.26243,
				"method": "rhf"
			},
			{
				"type": "occ",
				"energy": -0.2205,
				"method": "rhf"
			},
			{
				"type": "unocc",
				"energy": -0.10065,
				"method": "rhf"
			},
			{
				"type": "unocc",
				"energy": -0.09079,
				"method": "rhf"
			},
			{
				"type": "unocc",
				"energy": -0.06146,
				"method": "rhf"
			},
			{
				"type": "unocc",
				"energy": -0.04146,
				"method": "rhf"
			},
			{
				"type": "unocc",
				"energy": 0.00928,
				"method": "rhf"
			}
		],
		"cosmo_sigma_profile": { 
			"-0.025": 0.0,
			"-0.024": 0.0,
			"-0.023": 0.0,
			"-0.022": 0.0,
			"-0.021": 0.0,
			"-0.02": 0.0,
			"-0.019": 0.0,
			"-0.018": 0.0,
			"-0.017": 0.0,
			"-0.016": 0.0,
			"-0.015": 0.0,
			"-0.014": 0.0,
			"-0.013": 0.0,
			"-0.012": 0.0,
			"-0.011": 0.0,
			"-0.01": 0.0,
			"-0.009": 0.0,
			"-0.008": 0.0,
			"-0.007": 2.06790308139,
			"-0.006": 15.9165869487,
			"-0.005": 35.2043007879,
			"-0.004": 45.8707314733,
			"-0.003": 60.8600724151,
			"-0.002": 84.5183207365,
			"-0.001": 103.353168645,
			"0.0": 121.707156776,
			"0.001": 79.5273407569,
			"0.002": 39.2685185829,
			"0.003": 13.7034215431,
			"0.004": 11.0050119927,
			"0.005": 9.58765329426,
			"0.006": 7.71179109519,
			"0.007": 7.1018689504,
			"0.008": 7.08959421579,
			"0.009": 8.63830739926,
			"0.01": 10.70603618,
			"0.011": 14.5296019621,
			"0.012": 11.2074562261,
			"0.013": 0.45911153775,
			"0.014": 0.0,
			"0.015": 0.0,
			"0.016": 0.0,
			"0.017": 0.0,
			"0.018": 0.0,
			"0.019": 0.0,
			"0.02": 0.0,
			"0.021": 0.0,
			"0.022": 0.0,
			"0.023": 0.0,
			"0.024": 0.0,
			"0.025": 0.0
		}
	}
}
