{
	 "smiles": "CC1=NN(C(C)=C1CC(O)=O)C1=CC=CC=C1", 
	 "Tm": 384.15, 
	 "num_atms": 31, 
	 "gaussian": { 
		 "optdone": 1, 
		 "sigma_profile": "yes", 
		 "theory": "DFT", 
		 "functional": "B3LYP", 
		 "basiset": "6-31G**", 
		 "properties": { 
			 "R2extent": 5210.2956, 
			 "electric_dipole_moment_norm": 2.89503012074, 
			 "electric_quadrupole_moment_norm": 11.3379853444, 
			 "total_energy": -763.783807526, 
			 "HOMO_LUMO_gap": 0.20111, 
			 "cosmo_polarized_energy": -15.49, 
			 "cosmo_cavitation_energy": 34.86, 
			 "cosmo_dispersion_energy": -24.61, 
			 "cosmo_repulsion_energy": 1.93, 
			 "cosmo_total_nonelectrostatic_energy": 12.18, 
			 "SMD_solvation_energy": 6.27 
		},
		"coords": [
			{
				"x": 2.52986998,
				"y": 2.2147896747,
				"z": 1.1031942549,
				"element": "C" 
			},
			{
				"x": 1.4025787885,
				"y": 1.5449513182,
				"z": 0.3809753876,
				"element": "C" 
			},
			{
				"x": 1.6077643687,
				"y": 0.9469219725,
				"z": -0.7853755456,
				"element": "N" 
			},
			{
				"x": 0.3914347014,
				"y": 0.4534332389,
				"z": -1.1609667534,
				"element": "N" 
			},
			{
				"x": -0.5821691547,
				"y": 0.7201562459,
				"z": -0.2260359487,
				"element": "C" 
			},
			{
				"x": -1.9983006807,
				"y": 0.2418711082,
				"z": -0.3198496351,
				"element": "C" 
			},
			{
				"x": 0.0420445934,
				"y": 1.4359777249,
				"z": 0.7827932306,
				"element": "C" 
			},
			{
				"x": -0.5871510627,
				"y": 1.9818507522,
				"z": 2.0269066933,
				"element": "C" 
			},
			{
				"x": -0.1832364403,
				"y": 1.2697955239,
				"z": 3.3104289068,
				"element": "C" 
			},
			{
				"x": -1.0270246869,
				"y": 1.5906918434,
				"z": 4.3238614969,
				"element": "O" 
			},
			{
				"x": 0.7663223618,
				"y": 0.53593062,
				"z": 3.4643661237,
				"element": "O" 
			},
			{
				"x": 0.3077991326,
				"y": -0.2916508219,
				"z": -2.3674861127,
				"element": "C" 
			},
			{
				"x": -0.7943920337,
				"y": -0.1685837367,
				"z": -3.2211056186,
				"element": "C" 
			},
			{
				"x": -0.8469961748,
				"y": -0.9186497398,
				"z": -4.3970351793,
				"element": "C" 
			},
			{
				"x": 0.2020898755,
				"y": -1.7720228926,
				"z": -4.7388257228,
				"element": "C" 
			},
			{
				"x": 1.3117747152,
				"y": -1.871121304,
				"z": -3.895059134,
				"element": "C" 
			},
			{
				"x": 1.3680423632,
				"y": -1.1404859867,
				"z": -2.7109622534,
				"element": "C" 
			},
			{
				"x": 2.698415753,
				"y": 1.7421771283,
				"z": 2.0758378824,
				"element": "H" 
			},
			{
				"x": 3.4437740857,
				"y": 2.1437937631,
				"z": 0.5096508372,
				"element": "H" 
			},
			{
				"x": 2.3188225962,
				"y": 3.2764387171,
				"z": 1.2820952274,
				"element": "H" 
			},
			{
				"x": -2.4348370219,
				"y": 0.1783226404,
				"z": 0.6801664497,
				"element": "H" 
			},
			{
				"x": -2.0567015961,
				"y": -0.7514506885,
				"z": -0.7732223142,
				"element": "H" 
			},
			{
				"x": -2.6337862574,
				"y": 0.9118697267,
				"z": -0.9115675675,
				"element": "H" 
			},
			{
				"x": -1.6796753901,
				"y": 1.9744948033,
				"z": 1.9678772229,
				"element": "H" 
			},
			{
				"x": -0.3158451253,
				"y": 3.0376144288,
				"z": 2.1727557316,
				"element": "H" 
			},
			{
				"x": -0.6867557147,
				"y": 1.1336026441,
				"z": 5.1114106526,
				"element": "H" 
			},
			{
				"x": -1.5912365059,
				"y": 0.5268072805,
				"z": -2.9849725511,
				"element": "H" 
			},
			{
				"x": -1.7058159045,
				"y": -0.8184250231,
				"z": -5.054365084,
				"element": "H" 
			},
			{
				"x": 0.160049606,
				"y": -2.3489541973,
				"z": -5.6577487106,
				"element": "H" 
			},
			{
				"x": 2.1369420325,
				"y": -2.5274662294,
				"z": -4.1558742451,
				"element": "H" 
			},
			{
				"x": 2.221498796,
				"y": -1.204380535,
				"z": -2.0467677216,
				"element": "H" 
			}
		],
		 "valence_orbital": [ 
			{
				"type": "occ",
				"energy": -0.27608,
				"method": "rhf"
			},
			{
				"type": "occ",
				"energy": -0.27063,
				"method": "rhf"
			},
			{
				"type": "occ",
				"energy": -0.25379,
				"method": "rhf"
			},
			{
				"type": "occ",
				"energy": -0.23026,
				"method": "rhf"
			},
			{
				"type": "occ",
				"energy": -0.21633,
				"method": "rhf"
			},
			{
				"type": "unocc",
				"energy": -0.01522,
				"method": "rhf"
			},
			{
				"type": "unocc",
				"energy": -0.00489,
				"method": "rhf"
			},
			{
				"type": "unocc",
				"energy": 0.00806,
				"method": "rhf"
			},
			{
				"type": "unocc",
				"energy": 0.03876,
				"method": "rhf"
			},
			{
				"type": "unocc",
				"energy": 0.06532,
				"method": "rhf"
			}
		],
		"cosmo_sigma_profile": { 
			"-0.025": 0.0,
			"-0.024": 0.0,
			"-0.023": 0.0,
			"-0.022": 0.0,
			"-0.021": 0.0,
			"-0.02": 0.0,
			"-0.019": 0.000800255661271,
			"-0.018": 0.567743696413,
			"-0.017": 1.04819323626,
			"-0.016": 0.662304292636,
			"-0.015": 1.05354726689,
			"-0.014": 0.691764598159,
			"-0.013": 0.58049258253,
			"-0.012": 0.513454866493,
			"-0.011": 0.912162017131,
			"-0.01": 0.901391416001,
			"-0.009": 0.471366247473,
			"-0.008": 0.660219306138,
			"-0.007": 6.67709354122,
			"-0.006": 15.0153524596,
			"-0.005": 20.948060119,
			"-0.004": 23.8695729598,
			"-0.003": 22.4059228122,
			"-0.002": 24.5048725104,
			"-0.001": 21.3637612294,
			"0.0": 19.3647050638,
			"0.001": 16.0957958601,
			"0.002": 13.7509228492,
			"0.003": 13.3313578266,
			"0.004": 17.5673505744,
			"0.005": 16.5423974553,
			"0.006": 5.97876529368,
			"0.007": 5.37123383663,
			"0.008": 5.27933320174,
			"0.009": 4.49613803686,
			"0.01": 4.45255061321,
			"0.011": 4.87744054361,
			"0.012": 4.23110880363,
			"0.013": 0.836794929905,
			"0.014": 0.908355678512,
			"0.015": 0.707137045249,
			"0.016": 0.182990805291,
			"0.017": 0.0,
			"0.018": 0.0,
			"0.019": 0.0,
			"0.02": 0.0,
			"0.021": 0.0,
			"0.022": 0.0,
			"0.023": 0.0,
			"0.024": 0.0,
			"0.025": 0.0
		}
	}
}
