{
	 "smiles": "CC1=C(N)C=CC(=C1)N1CCOCC1", 
	 "Tm": 363.15, 
	 "num_atms": 30, 
	 "gaussian": { 
		 "optdone": 1, 
		 "sigma_profile": "yes", 
		 "theory": "DFT", 
		 "functional": "B3LYP", 
		 "basiset": "6-31G**", 
		 "properties": { 
			 "R2extent": 4046.277, 
			 "electric_dipole_moment_norm": 1.75905355802, 
			 "electric_quadrupole_moment_norm": 9.74260735276, 
			 "total_energy": -613.519202448, 
			 "HOMO_LUMO_gap": 0.17586, 
			 "cosmo_polarized_energy": -11.24, 
			 "cosmo_cavitation_energy": 30.84, 
			 "cosmo_dispersion_energy": -23.13, 
			 "cosmo_repulsion_energy": 1.82, 
			 "cosmo_total_nonelectrostatic_energy": 9.52, 
			 "SMD_solvation_energy": 3.93 
		},
		"coords": [
			{
				"x": -0.4048579427,
				"y": 3.4204312745,
				"z": 1.0789696434,
				"element": "C" 
			},
			{
				"x": -0.7948789563,
				"y": 2.3098184877,
				"z": 0.13468188,
				"element": "C" 
			},
			{
				"x": -2.0903681084,
				"y": 2.2832395804,
				"z": -0.4233844173,
				"element": "C" 
			},
			{
				"x": -3.0115195333,
				"y": 3.3140041409,
				"z": -0.1390910973,
				"element": "N" 
			},
			{
				"x": -2.4089920263,
				"y": 1.2550516201,
				"z": -1.3163113061,
				"element": "C" 
			},
			{
				"x": -1.4876893451,
				"y": 0.2663473528,
				"z": -1.6556570798,
				"element": "C" 
			},
			{
				"x": -0.1925697126,
				"y": 0.2728248681,
				"z": -1.1060604169,
				"element": "C" 
			},
			{
				"x": 0.1223505433,
				"y": 1.316820646,
				"z": -0.2127038238,
				"element": "C" 
			},
			{
				"x": 0.7552775538,
				"y": -0.6988600285,
				"z": -1.4402332361,
				"element": "N" 
			},
			{
				"x": 1.8737104488,
				"y": -1.00118951,
				"z": -0.5531975328,
				"element": "C" 
			},
			{
				"x": 2.2092827483,
				"y": -2.4906973645,
				"z": -0.6173624396,
				"element": "C" 
			},
			{
				"x": 2.5332165262,
				"y": -2.9370743996,
				"z": -1.9285816662,
				"element": "O" 
			},
			{
				"x": 1.829174055,
				"y": -2.2631340623,
				"z": -2.969642757,
				"element": "C" 
			},
			{
				"x": 0.5082299038,
				"y": -1.6488101304,
				"z": -2.5120870518,
				"element": "C" 
			},
			{
				"x": -0.5846207379,
				"y": 4.4046658093,
				"z": 0.6297502727,
				"element": "H" 
			},
			{
				"x": -0.9821573075,
				"y": 3.3875082626,
				"z": 2.0145450401,
				"element": "H" 
			},
			{
				"x": 0.6519484172,
				"y": 3.3578236081,
				"z": 1.350938323,
				"element": "H" 
			},
			{
				"x": -2.974526882,
				"y": 3.6454729457,
				"z": 0.8171636452,
				"element": "H" 
			},
			{
				"x": -3.9639674497,
				"y": 3.0707857998,
				"z": -0.3818277933,
				"element": "H" 
			},
			{
				"x": -3.4053024867,
				"y": 1.2193075143,
				"z": -1.7525787768,
				"element": "H" 
			},
			{
				"x": -1.7974206232,
				"y": -0.5228436048,
				"z": -2.3311260145,
				"element": "H" 
			},
			{
				"x": 1.121686735,
				"y": 1.381436371,
				"z": 0.2060318099,
				"element": "H" 
			},
			{
				"x": 1.6030507683,
				"y": -0.7566757024,
				"z": 0.4811181732,
				"element": "H" 
			},
			{
				"x": 2.7697693311,
				"y": -0.4097283453,
				"z": -0.8026590087,
				"element": "H" 
			},
			{
				"x": 3.0804358869,
				"y": -2.7037238572,
				"z": 0.0110879273,
				"element": "H" 
			},
			{
				"x": 1.3597198605,
				"y": -3.066794675,
				"z": -0.2175081145,
				"element": "H" 
			},
			{
				"x": 2.4628885984,
				"y": -1.4673398491,
				"z": -3.3900522431,
				"element": "H" 
			},
			{
				"x": 1.642675747,
				"y": -2.9977017365,
				"z": -3.7610086085,
				"element": "H" 
			},
			{
				"x": 0.0619418744,
				"y": -1.1261144013,
				"z": -3.3664967499,
				"element": "H" 
			},
			{
				"x": -0.1963878861,
				"y": -2.4486506145,
				"z": -2.2218165808,
				"element": "H" 
			}
		],
		 "valence_orbital": [ 
			{
				"type": "occ",
				"energy": -0.30093,
				"method": "rhf"
			},
			{
				"type": "occ",
				"energy": -0.24848,
				"method": "rhf"
			},
			{
				"type": "occ",
				"energy": -0.23705,
				"method": "rhf"
			},
			{
				"type": "occ",
				"energy": -0.22975,
				"method": "rhf"
			},
			{
				"type": "occ",
				"energy": -0.16304,
				"method": "rhf"
			},
			{
				"type": "unocc",
				"energy": 0.01282,
				"method": "rhf"
			},
			{
				"type": "unocc",
				"energy": 0.03875,
				"method": "rhf"
			},
			{
				"type": "unocc",
				"energy": 0.08232,
				"method": "rhf"
			},
			{
				"type": "unocc",
				"energy": 0.08552,
				"method": "rhf"
			},
			{
				"type": "unocc",
				"energy": 0.10874,
				"method": "rhf"
			}
		],
		"cosmo_sigma_profile": { 
			"-0.025": 0.0,
			"-0.024": 0.0,
			"-0.023": 0.0,
			"-0.022": 0.0,
			"-0.021": 0.0,
			"-0.02": 0.0,
			"-0.019": 0.0,
			"-0.018": 0.0,
			"-0.017": 0.0,
			"-0.016": 0.0,
			"-0.015": 0.0,
			"-0.014": 0.0,
			"-0.013": 0.0,
			"-0.012": 0.15175751309,
			"-0.011": 1.66482166533,
			"-0.01": 2.80972973422,
			"-0.009": 2.15045105287,
			"-0.008": 3.66409952147,
			"-0.007": 2.886884015,
			"-0.006": 3.39175104741,
			"-0.005": 13.9352847271,
			"-0.004": 27.9293544216,
			"-0.003": 35.9776875942,
			"-0.002": 25.8696918496,
			"-0.001": 16.7563784781,
			"0.0": 15.6724918783,
			"0.001": 13.5058596264,
			"0.002": 7.62101779795,
			"0.003": 8.12966065465,
			"0.004": 7.44676475284,
			"0.005": 8.87797575602,
			"0.006": 8.81442683914,
			"0.007": 10.5825910279,
			"0.008": 9.03600615328,
			"0.009": 3.0511234677,
			"0.01": 1.79222784757,
			"0.011": 2.03816574897,
			"0.012": 1.62815921513,
			"0.013": 2.98713744604,
			"0.014": 1.40328286435,
			"0.015": 0.495523340554,
			"0.016": 0.428087590231,
			"0.017": 0.241383631126,
			"0.018": 0.0,
			"0.019": 0.0,
			"0.02": 0.0,
			"0.021": 0.0,
			"0.022": 0.0,
			"0.023": 0.0,
			"0.024": 0.0,
			"0.025": 0.0
		}
	}
}
