{
	 "smiles": "ClC1=NC(Cl)=CS1", 
	 "Tm": 317.15, 
	 "num_atms": 8, 
	 "gaussian": { 
		 "optdone": 1, 
		 "sigma_profile": "yes", 
		 "theory": "DFT", 
		 "functional": "B3LYP", 
		 "basiset": "6-31G**", 
		 "properties": { 
			 "R2extent": 2809.9907, 
			 "electric_dipole_moment_norm": 2.57292532733, 
			 "electric_quadrupole_moment_norm": 7.15796097782, 
			 "total_energy": -1488.21807433, 
			 "HOMO_LUMO_gap": 0.20041, 
			 "cosmo_polarized_energy": -5.02, 
			 "cosmo_cavitation_energy": 18.04, 
			 "cosmo_dispersion_energy": -14.59, 
			 "cosmo_repulsion_energy": 1.19, 
			 "cosmo_total_nonelectrostatic_energy": 4.64, 
			 "SMD_solvation_energy": 1.04 
		},
		"coords": [
			{
				"x": 0.0921266278,
				"y": -3.0722275931,
				"z": -2.8151409782,
				"element": "Cl" 
			},
			{
				"x": 0.4237078985,
				"y": -2.5819265401,
				"z": -1.1930707741,
				"element": "C" 
			},
			{
				"x": 1.1414047061,
				"y": -1.5491546473,
				"z": -0.8911208724,
				"element": "N" 
			},
			{
				"x": 1.2164862456,
				"y": -1.4298459072,
				"z": 0.4716902554,
				"element": "C" 
			},
			{
				"x": 2.1280513804,
				"y": -0.1151463463,
				"z": 1.146930448,
				"element": "Cl" 
			},
			{
				"x": 0.5610617042,
				"y": -2.3643072001,
				"z": 1.2192685175,
				"element": "C" 
			},
			{
				"x": -0.2189502911,
				"y": -3.4945276435,
				"z": 0.1558769576,
				"element": "S" 
			},
			{
				"x": 0.4967117286,
				"y": -2.4474641223,
				"z": 2.2936664461,
				"element": "H" 
			}
		],
		 "valence_orbital": [ 
			{
				"type": "occ",
				"energy": -0.34128,
				"method": "rhf"
			},
			{
				"type": "occ",
				"energy": -0.32914,
				"method": "rhf"
			},
			{
				"type": "occ",
				"energy": -0.31338,
				"method": "rhf"
			},
			{
				"type": "occ",
				"energy": -0.30875,
				"method": "rhf"
			},
			{
				"type": "occ",
				"energy": -0.25417,
				"method": "rhf"
			},
			{
				"type": "unocc",
				"energy": -0.05376,
				"method": "rhf"
			},
			{
				"type": "unocc",
				"energy": -0.02702,
				"method": "rhf"
			},
			{
				"type": "unocc",
				"energy": 0.01489,
				"method": "rhf"
			},
			{
				"type": "unocc",
				"energy": 0.02308,
				"method": "rhf"
			},
			{
				"type": "unocc",
				"energy": 0.03533,
				"method": "rhf"
			}
		],
		"cosmo_sigma_profile": { 
			"-0.025": 0.0,
			"-0.024": 0.0,
			"-0.023": 0.0,
			"-0.022": 0.0,
			"-0.021": 0.0,
			"-0.02": 0.0,
			"-0.019": 0.0,
			"-0.018": 0.0,
			"-0.017": 0.0,
			"-0.016": 0.0,
			"-0.015": 0.0,
			"-0.014": 0.0,
			"-0.013": 0.0,
			"-0.012": 0.0752788550799,
			"-0.011": 1.82233661023,
			"-0.01": 1.99820897761,
			"-0.009": 1.42176893937,
			"-0.008": 2.57970201552,
			"-0.007": 1.5873601093,
			"-0.006": 1.85482157021,
			"-0.005": 3.32325637007,
			"-0.004": 6.70951554011,
			"-0.003": 13.1279282279,
			"-0.002": 12.8306571905,
			"-0.001": 17.6351653627,
			"0.0": 19.4899010272,
			"0.001": 17.3807475379,
			"0.002": 15.4217314428,
			"0.003": 14.9346550644,
			"0.004": 9.91345330531,
			"0.005": 2.90098998595,
			"0.006": 1.50216760486,
			"0.007": 1.7689080611,
			"0.008": 1.27805121186,
			"0.009": 0.916644440559,
			"0.01": 0.926529924896,
			"0.011": 0.851254754047,
			"0.012": 1.00216454422,
			"0.013": 0.100553543212,
			"0.014": 0.0,
			"0.015": 0.0,
			"0.016": 0.0,
			"0.017": 0.0,
			"0.018": 0.0,
			"0.019": 0.0,
			"0.02": 0.0,
			"0.021": 0.0,
			"0.022": 0.0,
			"0.023": 0.0,
			"0.024": 0.0,
			"0.025": 0.0
		}
	}
}
