{
	 "smiles": "OC1=CN=C(I)C=C1", 
	 "Tm": 459.15, 
	 "num_atms": 12, 
	 "gaussian": { 
		 "optdone": 1, 
		 "sigma_profile": "yes", 
		 "theory": "DFT", 
		 "functional": "B3LYP", 
		 "basiset": "6-31G**", 
		 "properties": { 
			 "R2extent": 1429.32, 
			 "electric_dipole_moment_norm": 4.57494307068, 
			 "electric_quadrupole_moment_norm": 6.34741366779, 
			 "total_energy": -334.288226666, 
			 "HOMO_LUMO_gap": 0.19383, 
			 "cosmo_polarized_energy": -12.1, 
			 "cosmo_cavitation_energy": 19.76, 
			 "cosmo_dispersion_energy": -16.41, 
			 "cosmo_repulsion_energy": 1.33, 
			 "cosmo_total_nonelectrostatic_energy": 4.68, 
			 "SMD_solvation_energy": 1.56 
		},
		"coords": [
			{
				"x": 1.8688820152,
				"y": 1.022949302,
				"z": -1.8891170972,
				"element": "O" 
			},
			{
				"x": 0.8256040081,
				"y": 1.1795168143,
				"z": -1.0309495797,
				"element": "C" 
			},
			{
				"x": 0.7195141924,
				"y": 2.3989522984,
				"z": -0.3487167814,
				"element": "C" 
			},
			{
				"x": -0.2648098381,
				"y": 2.6577279155,
				"z": 0.5158460158,
				"element": "N" 
			},
			{
				"x": -1.1729755062,
				"y": 1.7238451698,
				"z": 0.7337945345,
				"element": "C" 
			},
			{
				"x": -2.7329755068,
				"y": 2.1760759542,
				"z": 2.1248970791,
				"element": "I" 
			},
			{
				"x": -1.1690736975,
				"y": 0.4725799078,
				"z": 0.1122937227,
				"element": "C" 
			},
			{
				"x": -0.1432853457,
				"y": 0.2008094875,
				"z": -0.7896979051,
				"element": "C" 
			},
			{
				"x": 1.8307911197,
				"y": 0.1464170704,
				"z": -2.2938782831,
				"element": "H" 
			},
			{
				"x": 1.459496397,
				"y": 3.1768321992,
				"z": -0.5179674984,
				"element": "H" 
			},
			{
				"x": -1.9363834128,
				"y": -0.262632592,
				"z": 0.3230644462,
				"element": "H" 
			},
			{
				"x": -0.1003844254,
				"y": -0.760573527,
				"z": -1.2970686533,
				"element": "H" 
			}
		],
		 "valence_orbital": [ 
			{
				"type": "occ",
				"energy": -0.30049,
				"method": "rhf"
			},
			{
				"type": "occ",
				"energy": -0.2822,
				"method": "rhf"
			},
			{
				"type": "occ",
				"energy": -0.27383,
				"method": "rhf"
			},
			{
				"type": "occ",
				"energy": -0.25951,
				"method": "rhf"
			},
			{
				"type": "occ",
				"energy": -0.2341,
				"method": "rhf"
			},
			{
				"type": "unocc",
				"energy": -0.04027,
				"method": "rhf"
			},
			{
				"type": "unocc",
				"energy": -0.03638,
				"method": "rhf"
			},
			{
				"type": "unocc",
				"energy": -0.01786,
				"method": "rhf"
			},
			{
				"type": "unocc",
				"energy": 0.04923,
				"method": "rhf"
			},
			{
				"type": "unocc",
				"energy": 0.05264,
				"method": "rhf"
			}
		],
		"cosmo_sigma_profile": { 
			"-0.025": 0.0,
			"-0.024": 0.0,
			"-0.023": 0.0,
			"-0.022": 0.0,
			"-0.021": 0.0,
			"-0.02": 0.0,
			"-0.019": 0.394583954792,
			"-0.018": 1.21554209663,
			"-0.017": 1.67767529842,
			"-0.016": 1.15708339211,
			"-0.015": 0.755096952547,
			"-0.014": 1.07537655986,
			"-0.013": 1.00287145643,
			"-0.012": 1.0758749999,
			"-0.011": 1.07338212377,
			"-0.01": 1.43971191304,
			"-0.009": 1.7207172631,
			"-0.008": 3.4418062508,
			"-0.007": 6.57995301447,
			"-0.006": 6.27398200303,
			"-0.005": 6.41088546639,
			"-0.004": 5.52828048385,
			"-0.003": 6.13608805855,
			"-0.002": 6.60728156277,
			"-0.001": 7.5241639024,
			"0.0": 13.2809803356,
			"0.001": 19.0224850524,
			"0.002": 14.1481554345,
			"0.003": 10.3282578323,
			"0.004": 13.3887832827,
			"0.005": 12.4607038617,
			"0.006": 3.5202773118,
			"0.007": 3.69593880354,
			"0.008": 3.30741213251,
			"0.009": 2.71398130859,
			"0.01": 2.62426428788,
			"0.011": 1.59071190994,
			"0.012": 0.885615954392,
			"0.013": 0.769767140098,
			"0.014": 0.870160366056,
			"0.015": 0.188973021155,
			"0.016": 0.0,
			"0.017": 0.0,
			"0.018": 0.0,
			"0.019": 0.0,
			"0.02": 0.0,
			"0.021": 0.0,
			"0.022": 0.0,
			"0.023": 0.0,
			"0.024": 0.0,
			"0.025": 0.0
		}
	}
}
