{
	 "smiles": "[O-][N+](=O)C1=C(NN=C2C(=O)NC(=S)NC2=O)C=CC=C1", 
	 "Tm": 603.15, 
	 "num_atms": 27, 
	 "gaussian": { 
		 "optdone": 1, 
		 "sigma_profile": "yes", 
		 "theory": "DFT", 
		 "functional": "B3LYP", 
		 "basiset": "6-31G**", 
		 "properties": { 
			 "R2extent": 8215.4626, 
			 "electric_dipole_moment_norm": 4.62330618065, 
			 "electric_quadrupole_moment_norm": 16.7077990328, 
			 "total_energy": -1358.03385654, 
			 "HOMO_LUMO_gap": 0.11802, 
			 "cosmo_polarized_energy": -21.07, 
			 "cosmo_cavitation_energy": 35.62, 
			 "cosmo_dispersion_energy": -26.63, 
			 "cosmo_repulsion_energy": 1.96, 
			 "cosmo_total_nonelectrostatic_energy": 10.95, 
			 "SMD_solvation_energy": 7.84 
		},
		"coords": [
			{
				"x": 1.3383717051,
				"y": 3.1746999611,
				"z": -1.1709448156,
				"element": "O" 
			},
			{
				"x": 2.5343075146,
				"y": 2.8513910126,
				"z": -1.1900843912,
				"element": "N" 
			},
			{
				"x": 3.4433351739,
				"y": 3.6358480903,
				"z": -1.4455542455,
				"element": "O" 
			},
			{
				"x": 2.8858351924,
				"y": 1.4611206488,
				"z": -0.8926480346,
				"element": "C" 
			},
			{
				"x": 1.9191710682,
				"y": 0.4735701047,
				"z": -0.5838057824,
				"element": "C" 
			},
			{
				"x": 0.5456950055,
				"y": 0.748466904,
				"z": -0.5381434626,
				"element": "N" 
			},
			{
				"x": -0.2785864156,
				"y": -0.2226222047,
				"z": -0.2434855617,
				"element": "N" 
			},
			{
				"x": -1.5741076499,
				"y": -0.0325427104,
				"z": -0.1844361447,
				"element": "C" 
			},
			{
				"x": -2.3758723561,
				"y": -1.2313471071,
				"z": 0.1616941326,
				"element": "C" 
			},
			{
				"x": -1.938249284,
				"y": -2.3419845662,
				"z": 0.3883301445,
				"element": "O" 
			},
			{
				"x": -3.7611765908,
				"y": -0.9914802969,
				"z": 0.2158240382,
				"element": "N" 
			},
			{
				"x": -4.431870362,
				"y": 0.1837950779,
				"z": -0.0065597615,
				"element": "C" 
			},
			{
				"x": -6.0827196016,
				"y": 0.3208741752,
				"z": 0.0946294078,
				"element": "S" 
			},
			{
				"x": -3.6212634973,
				"y": 1.2524410611,
				"z": -0.3235000421,
				"element": "N" 
			},
			{
				"x": -2.2339031707,
				"y": 1.2567358591,
				"z": -0.4350795181,
				"element": "C" 
			},
			{
				"x": -1.6365128662,
				"y": 2.2904849254,
				"z": -0.7260830678,
				"element": "O" 
			},
			{
				"x": 2.3756080385,
				"y": -0.8299628368,
				"z": -0.3149473379,
				"element": "C" 
			},
			{
				"x": 3.7285979392,
				"y": -1.1322805488,
				"z": -0.3525990372,
				"element": "C" 
			},
			{
				"x": 4.6761457554,
				"y": -0.1476687933,
				"z": -0.6593030622,
				"element": "C" 
			},
			{
				"x": 4.2487120078,
				"y": 1.1429021196,
				"z": -0.9273764571,
				"element": "C" 
			},
			{
				"x": 0.2089567236,
				"y": 1.699981611,
				"z": -0.735313033,
				"element": "H" 
			},
			{
				"x": -4.3321614255,
				"y": -1.7947339337,
				"z": 0.4511044348,
				"element": "H" 
			},
			{
				"x": -4.0866319464,
				"y": 2.1366474436,
				"z": -0.4936992298,
				"element": "H" 
			},
			{
				"x": 1.6383426238,
				"y": -1.5866755845,
				"z": -0.0785197193,
				"element": "H" 
			},
			{
				"x": 4.0478912969,
				"y": -2.1479640942,
				"z": -0.1402502087,
				"element": "H" 
			},
			{
				"x": 5.7337258524,
				"y": -0.3862541787,
				"z": -0.6882302251,
				"element": "H" 
			},
			{
				"x": 4.9451592686,
				"y": 1.9352578611,
				"z": -1.1688190198,
				"element": "H" 
			}
		],
		 "valence_orbital": [ 
			{
				"type": "occ",
				"energy": -0.2976,
				"method": "rhf"
			},
			{
				"type": "occ",
				"energy": -0.28956,
				"method": "rhf"
			},
			{
				"type": "occ",
				"energy": -0.26237,
				"method": "rhf"
			},
			{
				"type": "occ",
				"energy": -0.24856,
				"method": "rhf"
			},
			{
				"type": "occ",
				"energy": -0.24069,
				"method": "rhf"
			},
			{
				"type": "unocc",
				"energy": -0.12267,
				"method": "rhf"
			},
			{
				"type": "unocc",
				"energy": -0.09769,
				"method": "rhf"
			},
			{
				"type": "unocc",
				"energy": -0.04451,
				"method": "rhf"
			},
			{
				"type": "unocc",
				"energy": -0.02183,
				"method": "rhf"
			},
			{
				"type": "unocc",
				"energy": -0.01697,
				"method": "rhf"
			}
		],
		"cosmo_sigma_profile": { 
			"-0.025": 0.0,
			"-0.024": 0.0,
			"-0.023": 0.0,
			"-0.022": 0.0,
			"-0.021": 0.0,
			"-0.02": 0.0,
			"-0.019": 0.0,
			"-0.018": 0.0,
			"-0.017": 0.457016415784,
			"-0.016": 1.69660585993,
			"-0.015": 1.73288943526,
			"-0.014": 1.22185120985,
			"-0.013": 1.28293320368,
			"-0.012": 1.87355403962,
			"-0.011": 2.08973333865,
			"-0.01": 2.48174145128,
			"-0.009": 2.15150298924,
			"-0.008": 8.35512302076,
			"-0.007": 14.9276697753,
			"-0.006": 19.5727455218,
			"-0.005": 18.1117816351,
			"-0.004": 18.1234238127,
			"-0.003": 18.4765388968,
			"-0.002": 17.8276968895,
			"-0.001": 16.8024637184,
			"0.0": 16.581013616,
			"0.001": 17.0956544345,
			"0.002": 12.3977638051,
			"0.003": 7.65616462897,
			"0.004": 8.63216481075,
			"0.005": 9.27801103471,
			"0.006": 11.9286000483,
			"0.007": 16.8591020562,
			"0.008": 14.4242241333,
			"0.009": 11.9247309955,
			"0.01": 6.36179646929,
			"0.011": 7.34144544785,
			"0.012": 3.25076770476,
			"0.013": 0.0715662872304,
			"0.014": 0.0,
			"0.015": 0.0,
			"0.016": 0.0,
			"0.017": 0.0,
			"0.018": 0.0,
			"0.019": 0.0,
			"0.02": 0.0,
			"0.021": 0.0,
			"0.022": 0.0,
			"0.023": 0.0,
			"0.024": 0.0,
			"0.025": 0.0
		}
	}
}
