{
	 "smiles": "OC(=O)C1=CC(Br)=C(C(Br)=C1)S(Cl)(=O)=O", 
	 "Tm": 473.15, 
	 "num_atms": 18, 
	 "gaussian": { 
		 "optdone": 1, 
		 "sigma_profile": "yes", 
		 "theory": "DFT", 
		 "functional": "B3LYP", 
		 "basiset": "6-31G**", 
		 "properties": { 
			 "R2extent": 9439.379, 
			 "electric_dipole_moment_norm": 2.72290885819, 
			 "electric_quadrupole_moment_norm": 24.8260439474, 
			 "total_energy": -6570.53652319, 
			 "HOMO_LUMO_gap": 0.16669, 
			 "cosmo_polarized_energy": -18.3, 
			 "cosmo_cavitation_energy": 30.92, 
			 "cosmo_dispersion_energy": -23.73, 
			 "cosmo_repulsion_energy": 1.8, 
			 "cosmo_total_nonelectrostatic_energy": 8.99, 
			 "SMD_solvation_energy": 3.38 
		},
		"coords": [
			{
				"x": -4.007608998,
				"y": 0.8659446399,
				"z": -0.3844199704,
				"element": "O" 
			},
			{
				"x": -3.0978652911,
				"y": 0.5220212407,
				"z": 0.557102299,
				"element": "C" 
			},
			{
				"x": -3.3629145865,
				"y": -0.2935274917,
				"z": 1.4048526369,
				"element": "O" 
			},
			{
				"x": -1.7532274726,
				"y": 1.2001904004,
				"z": 0.4852613193,
				"element": "C" 
			},
			{
				"x": -0.9795323503,
				"y": 1.2198641397,
				"z": 1.6444220261,
				"element": "C" 
			},
			{
				"x": 0.2710286333,
				"y": 1.828783664,
				"z": 1.6473761221,
				"element": "C" 
			},
			{
				"x": 1.1988709809,
				"y": 1.7334621244,
				"z": 3.3031911304,
				"element": "Br" 
			},
			{
				"x": 0.7847066307,
				"y": 2.42771364,
				"z": 0.4712178102,
				"element": "C" 
			},
			{
				"x": 0.0197535222,
				"y": 2.3497423978,
				"z": -0.7124271255,
				"element": "C" 
			},
			{
				"x": 0.5350811027,
				"y": 2.9754660052,
				"z": -2.434882875,
				"element": "Br" 
			},
			{
				"x": -1.2417681471,
				"y": 1.7473135995,
				"z": -0.6886221289,
				"element": "C" 
			},
			{
				"x": 2.3782024295,
				"y": 3.3174581722,
				"z": 0.5405406793,
				"element": "S" 
			},
			{
				"x": 3.726735282,
				"y": 1.6915083217,
				"z": 0.7077433993,
				"element": "Cl" 
			},
			{
				"x": 2.6759967973,
				"y": 3.9461223022,
				"z": -0.7331623137,
				"element": "O" 
			},
			{
				"x": 2.4271740472,
				"y": 4.0769817221,
				"z": 1.7787929838,
				"element": "O" 
			},
			{
				"x": -3.7195401168,
				"y": 1.6441315506,
				"z": -0.8818557836,
				"element": "H" 
			},
			{
				"x": -1.3618181422,
				"y": 0.7517743041,
				"z": 2.5427670886,
				"element": "H" 
			},
			{
				"x": -1.7862743214,
				"y": 1.6847492672,
				"z": -1.623997298,
				"element": "H" 
			}
		],
		 "valence_orbital": [ 
			{
				"type": "occ",
				"energy": -0.31473,
				"method": "rhf"
			},
			{
				"type": "occ",
				"energy": -0.30589,
				"method": "rhf"
			},
			{
				"type": "occ",
				"energy": -0.30367,
				"method": "rhf"
			},
			{
				"type": "occ",
				"energy": -0.30122,
				"method": "rhf"
			},
			{
				"type": "occ",
				"energy": -0.28094,
				"method": "rhf"
			},
			{
				"type": "unocc",
				"energy": -0.11425,
				"method": "rhf"
			},
			{
				"type": "unocc",
				"energy": -0.09083,
				"method": "rhf"
			},
			{
				"type": "unocc",
				"energy": -0.07114,
				"method": "rhf"
			},
			{
				"type": "unocc",
				"energy": -0.05001,
				"method": "rhf"
			},
			{
				"type": "unocc",
				"energy": -0.01214,
				"method": "rhf"
			}
		],
		"cosmo_sigma_profile": { 
			"-0.025": 0.0,
			"-0.024": 0.0,
			"-0.023": 0.0,
			"-0.022": 0.0,
			"-0.021": 0.0,
			"-0.02": 1.06161843769,
			"-0.019": 0.958769779129,
			"-0.018": 1.00380314973,
			"-0.017": 1.40215896675,
			"-0.016": 1.00356716164,
			"-0.015": 0.852935782515,
			"-0.014": 1.15898090132,
			"-0.013": 1.1684900251,
			"-0.012": 1.55959358607,
			"-0.011": 1.63118560161,
			"-0.01": 1.05028665614,
			"-0.009": 2.36265696519,
			"-0.008": 4.01547927301,
			"-0.007": 5.38002725871,
			"-0.006": 9.69537247386,
			"-0.005": 10.8572879806,
			"-0.004": 15.2425239547,
			"-0.003": 21.0265594585,
			"-0.002": 22.1384092895,
			"-0.001": 12.5452177317,
			"0.0": 15.6771818846,
			"0.001": 18.8123658138,
			"0.002": 25.6685194939,
			"0.003": 22.7820924655,
			"0.004": 5.85755468774,
			"0.005": 6.59631716259,
			"0.006": 7.34042049017,
			"0.007": 12.943732121,
			"0.008": 11.4080805938,
			"0.009": 5.19457522934,
			"0.01": 4.91859852086,
			"0.011": 3.8457844287,
			"0.012": 1.03064123065,
			"0.013": 0.0,
			"0.014": 0.0,
			"0.015": 0.0,
			"0.016": 0.0,
			"0.017": 0.0,
			"0.018": 0.0,
			"0.019": 0.0,
			"0.02": 0.0,
			"0.021": 0.0,
			"0.022": 0.0,
			"0.023": 0.0,
			"0.024": 0.0,
			"0.025": 0.0
		}
	}
}
