{
	 "smiles": "CC1=CC(C)=NC(NN)=N1", 
	 "Tm": 439.15, 
	 "num_atms": 20, 
	 "gaussian": { 
		 "optdone": 1, 
		 "sigma_profile": "yes", 
		 "theory": "DFT", 
		 "functional": "B3LYP", 
		 "basiset": "6-31G**", 
		 "properties": { 
			 "R2extent": 1787.3145, 
			 "electric_dipole_moment_norm": 1.90755625081, 
			 "electric_quadrupole_moment_norm": 2.96813827508, 
			 "total_energy": -453.664507795, 
			 "HOMO_LUMO_gap": 0.19092, 
			 "cosmo_polarized_energy": -9.24, 
			 "cosmo_cavitation_energy": 23.73, 
			 "cosmo_dispersion_energy": -17.65, 
			 "cosmo_repulsion_energy": 1.47, 
			 "cosmo_total_nonelectrostatic_energy": 7.56, 
			 "SMD_solvation_energy": 2.29 
		},
		"coords": [
			{
				"x": 0.8238770939,
				"y": 3.2068591477,
				"z": 1.3183984151,
				"element": "C" 
			},
			{
				"x": 0.4108406887,
				"y": 1.8220237148,
				"z": 0.8939728231,
				"element": "C" 
			},
			{
				"x": -0.8821900076,
				"y": 1.5376349048,
				"z": 0.4524140879,
				"element": "C" 
			},
			{
				"x": -1.169430011,
				"y": 0.2130819286,
				"z": 0.0928125034,
				"element": "C" 
			},
			{
				"x": -2.5357396894,
				"y": -0.2018759252,
				"z": -0.3878496273,
				"element": "C" 
			},
			{
				"x": -0.2429141401,
				"y": -0.7462119922,
				"z": 0.1601828179,
				"element": "N" 
			},
			{
				"x": 0.977936173,
				"y": -0.3611508158,
				"z": 0.5838609225,
				"element": "C" 
			},
			{
				"x": 1.927698271,
				"y": -1.3479790548,
				"z": 0.617109596,
				"element": "N" 
			},
			{
				"x": 3.1757197859,
				"y": -1.1908437216,
				"z": 1.243021334,
				"element": "N" 
			},
			{
				"x": 1.355555978,
				"y": 0.8707709555,
				"z": 0.9643102012,
				"element": "N" 
			},
			{
				"x": 1.1927030218,
				"y": 3.1907448157,
				"z": 2.3491825401,
				"element": "H" 
			},
			{
				"x": 1.6477569704,
				"y": 3.5629720898,
				"z": 0.691062287,
				"element": "H" 
			},
			{
				"x": -0.0036392053,
				"y": 3.9169621896,
				"z": 1.2499710794,
				"element": "H" 
			},
			{
				"x": -1.6403222981,
				"y": 2.310550149,
				"z": 0.3976142444,
				"element": "H" 
			},
			{
				"x": -3.2484774309,
				"y": 0.6254612065,
				"z": -0.3510533042,
				"element": "H" 
			},
			{
				"x": -2.915075194,
				"y": -1.0269796152,
				"z": 0.222922083,
				"element": "H" 
			},
			{
				"x": -2.4760842725,
				"y": -0.5689376366,
				"z": -1.4179339712,
				"element": "H" 
			},
			{
				"x": 1.5909007707,
				"y": -2.296233078,
				"z": 0.540888021,
				"element": "H" 
			},
			{
				"x": 3.7526088666,
				"y": -0.607667654,
				"z": 0.6383203132,
				"element": "H" 
			},
			{
				"x": 3.0383746287,
				"y": -0.6409816084,
				"z": 2.0919936335,
				"element": "H" 
			}
		],
		 "valence_orbital": [ 
			{
				"type": "occ",
				"energy": -0.29959,
				"method": "rhf"
			},
			{
				"type": "occ",
				"energy": -0.28766,
				"method": "rhf"
			},
			{
				"type": "occ",
				"energy": -0.26888,
				"method": "rhf"
			},
			{
				"type": "occ",
				"energy": -0.23932,
				"method": "rhf"
			},
			{
				"type": "occ",
				"energy": -0.21583,
				"method": "rhf"
			},
			{
				"type": "unocc",
				"energy": -0.02491,
				"method": "rhf"
			},
			{
				"type": "unocc",
				"energy": 0.01146,
				"method": "rhf"
			},
			{
				"type": "unocc",
				"energy": 0.09853,
				"method": "rhf"
			},
			{
				"type": "unocc",
				"energy": 0.10745,
				"method": "rhf"
			},
			{
				"type": "unocc",
				"energy": 0.12044,
				"method": "rhf"
			}
		],
		"cosmo_sigma_profile": { 
			"-0.025": 0.0,
			"-0.024": 0.0,
			"-0.023": 0.0,
			"-0.022": 0.0,
			"-0.021": 0.0,
			"-0.02": 0.0,
			"-0.019": 0.0,
			"-0.018": 0.0,
			"-0.017": 0.0,
			"-0.016": 0.0,
			"-0.015": 0.0,
			"-0.014": 0.043151933839,
			"-0.013": 0.693570320716,
			"-0.012": 0.778490320445,
			"-0.011": 1.00702506386,
			"-0.01": 2.98702417615,
			"-0.009": 3.60451563024,
			"-0.008": 2.15276611124,
			"-0.007": 2.3997196073,
			"-0.006": 3.89050505435,
			"-0.005": 12.6159611696,
			"-0.004": 16.130483021,
			"-0.003": 14.1988887716,
			"-0.002": 14.800226004,
			"-0.001": 20.8153200402,
			"0.0": 19.4513393249,
			"0.001": 12.7161962691,
			"0.002": 12.0538745617,
			"0.003": 8.86555670578,
			"0.004": 6.02658036886,
			"0.005": 4.98266617155,
			"0.006": 5.09900701792,
			"0.007": 3.05524291446,
			"0.008": 3.86110896051,
			"0.009": 2.09095089189,
			"0.01": 2.5365858715,
			"0.011": 2.67314480467,
			"0.012": 2.3228853752,
			"0.013": 1.27749107715,
			"0.014": 1.52157959101,
			"0.015": 1.26668091386,
			"0.016": 0.554866812749,
			"0.017": 0.374397192711,
			"0.018": 0.0,
			"0.019": 0.0,
			"0.02": 0.0,
			"0.021": 0.0,
			"0.022": 0.0,
			"0.023": 0.0,
			"0.024": 0.0,
			"0.025": 0.0
		}
	}
}
