{
	 "smiles": "CCOC(=O)C1=C(Cl)C2=C(C=CC(C)=C2)N=C1", 
	 "Tm": 336.15, 
	 "num_atms": 29, 
	 "gaussian": { 
		 "optdone": 1, 
		 "sigma_profile": "yes", 
		 "theory": "DFT", 
		 "functional": "B3LYP", 
		 "basiset": "6-31G**", 
		 "properties": { 
			 "R2extent": 5710.7712, 
			 "electric_dipole_moment_norm": 2.97470653511, 
			 "electric_quadrupole_moment_norm": 17.5165816554, 
			 "total_energy": -1168.03193703, 
			 "HOMO_LUMO_gap": 0.16528, 
			 "cosmo_polarized_energy": -9.17, 
			 "cosmo_cavitation_energy": 34.69, 
			 "cosmo_dispersion_energy": -25.22, 
			 "cosmo_repulsion_energy": 1.95, 
			 "cosmo_total_nonelectrostatic_energy": 11.42, 
			 "SMD_solvation_energy": 5.16 
		},
		"coords": [
			{
				"x": 3.5279291318,
				"y": -1.6900759957,
				"z": 2.2928439582,
				"element": "C" 
			},
			{
				"x": 2.1026058963,
				"y": -2.2081508125,
				"z": 2.4082882988,
				"element": "C" 
			},
			{
				"x": 1.197165738,
				"y": -1.4473822554,
				"z": 1.5685133469,
				"element": "O" 
			},
			{
				"x": 1.0927324686,
				"y": -1.839396875,
				"z": 0.2893296101,
				"element": "C" 
			},
			{
				"x": 1.733260352,
				"y": -2.7526901983,
				"z": -0.1974652448,
				"element": "O" 
			},
			{
				"x": 0.1476190729,
				"y": -1.0100956522,
				"z": -0.5247186094,
				"element": "C" 
			},
			{
				"x": -0.9636669734,
				"y": -0.3001358245,
				"z": -0.0954644012,
				"element": "C" 
			},
			{
				"x": -1.4891897604,
				"y": -0.3093380944,
				"z": 1.5753877064,
				"element": "Cl" 
			},
			{
				"x": -1.7466363704,
				"y": 0.4345268815,
				"z": -1.0357004074,
				"element": "C" 
			},
			{
				"x": -1.3238134359,
				"y": 0.3907795138,
				"z": -2.403524392,
				"element": "C" 
			},
			{
				"x": -2.0696914075,
				"y": 1.1118662587,
				"z": -3.3717023651,
				"element": "C" 
			},
			{
				"x": -3.1768531557,
				"y": 1.8381166065,
				"z": -3.0068183858,
				"element": "C" 
			},
			{
				"x": -3.6117403435,
				"y": 1.8899421628,
				"z": -1.6529727358,
				"element": "C" 
			},
			{
				"x": -4.8328470032,
				"y": 2.698253122,
				"z": -1.2891903561,
				"element": "C" 
			},
			{
				"x": -2.8991764621,
				"y": 1.193292457,
				"z": -0.6979597412,
				"element": "C" 
			},
			{
				"x": -0.2402042582,
				"y": -0.3206931363,
				"z": -2.8271415538,
				"element": "N" 
			},
			{
				"x": 0.4388907968,
				"y": -0.9836704382,
				"z": -1.923417982,
				"element": "C" 
			},
			{
				"x": 4.1732729367,
				"y": -2.2254427774,
				"z": 2.9972176951,
				"element": "H" 
			},
			{
				"x": 3.9150141393,
				"y": -1.8499910555,
				"z": 1.2837933788,
				"element": "H" 
			},
			{
				"x": 3.5745710047,
				"y": -0.6226848758,
				"z": 2.527452106,
				"element": "H" 
			},
			{
				"x": 1.7059797942,
				"y": -2.0730724701,
				"z": 3.4170049342,
				"element": "H" 
			},
			{
				"x": 2.0399998485,
				"y": -3.2621229239,
				"z": 2.1286205275,
				"element": "H" 
			},
			{
				"x": -1.7287346255,
				"y": 1.0614593786,
				"z": -4.4003357677,
				"element": "H" 
			},
			{
				"x": -3.7368906127,
				"y": 2.38479819,
				"z": -3.7615082129,
				"element": "H" 
			},
			{
				"x": -5.7177050134,
				"y": 2.3424919838,
				"z": -1.8298286379,
				"element": "H" 
			},
			{
				"x": -5.0470939602,
				"y": 2.6421934777,
				"z": -0.2190144767,
				"element": "H" 
			},
			{
				"x": -4.7007201276,
				"y": 3.7542926996,
				"z": -1.5522479954,
				"element": "H" 
			},
			{
				"x": -3.2188133139,
				"y": 1.2240528834,
				"z": 0.3372321488,
				"element": "H" 
			},
			{
				"x": 1.2955356438,
				"y": -1.5618222302,
				"z": -2.2602724456,
				"element": "H" 
			}
		],
		 "valence_orbital": [ 
			{
				"type": "occ",
				"energy": -0.29265,
				"method": "rhf"
			},
			{
				"type": "occ",
				"energy": -0.28405,
				"method": "rhf"
			},
			{
				"type": "occ",
				"energy": -0.26192,
				"method": "rhf"
			},
			{
				"type": "occ",
				"energy": -0.25684,
				"method": "rhf"
			},
			{
				"type": "occ",
				"energy": -0.23802,
				"method": "rhf"
			},
			{
				"type": "unocc",
				"energy": -0.07274,
				"method": "rhf"
			},
			{
				"type": "unocc",
				"energy": -0.03809,
				"method": "rhf"
			},
			{
				"type": "unocc",
				"energy": 0.00769,
				"method": "rhf"
			},
			{
				"type": "unocc",
				"energy": 0.02171,
				"method": "rhf"
			},
			{
				"type": "unocc",
				"energy": 0.02838,
				"method": "rhf"
			}
		],
		"cosmo_sigma_profile": { 
			"-0.025": 0.0,
			"-0.024": 0.0,
			"-0.023": 0.0,
			"-0.022": 0.0,
			"-0.021": 0.0,
			"-0.02": 0.0,
			"-0.019": 0.0,
			"-0.018": 0.0,
			"-0.017": 0.0,
			"-0.016": 0.0,
			"-0.015": 0.0,
			"-0.014": 0.0,
			"-0.013": 0.0,
			"-0.012": 0.0,
			"-0.011": 0.0,
			"-0.01": 0.0,
			"-0.009": 0.0,
			"-0.008": 0.0,
			"-0.007": 1.54419654868,
			"-0.006": 8.25179846658,
			"-0.005": 16.0630360561,
			"-0.004": 26.769152389,
			"-0.003": 28.1200809651,
			"-0.002": 27.4462065205,
			"-0.001": 35.1621198707,
			"0.0": 33.648831176,
			"0.001": 22.0226512746,
			"0.002": 20.6291502818,
			"0.003": 18.9621414456,
			"0.004": 9.0445843648,
			"0.005": 4.87255037256,
			"0.006": 4.00726583405,
			"0.007": 4.93592976185,
			"0.008": 3.06269384316,
			"0.009": 2.0085086151,
			"0.01": 3.02514663021,
			"0.011": 4.75590007413,
			"0.012": 2.29859289704,
			"0.013": 1.04147953659,
			"0.014": 0.528970692317,
			"0.015": 0.689343516592,
			"0.016": 0.0319501410086,
			"0.017": 0.0,
			"0.018": 0.0,
			"0.019": 0.0,
			"0.02": 0.0,
			"0.021": 0.0,
			"0.022": 0.0,
			"0.023": 0.0,
			"0.024": 0.0,
			"0.025": 0.0
		}
	}
}
