{
	 "smiles": "[O-][N+](=O)C1=CC=C2C(=O)N(CCCBr)C(=O)C2=C1", 
	 "Tm": 379.15, 
	 "num_atms": 27, 
	 "gaussian": { 
		 "optdone": 1, 
		 "sigma_profile": "yes", 
		 "theory": "DFT", 
		 "functional": "B3LYP", 
		 "basiset": "6-31G**", 
		 "properties": { 
			 "R2extent": 8067.493, 
			 "electric_dipole_moment_norm": 1.1004352866, 
			 "electric_quadrupole_moment_norm": 29.9601236211, 
			 "total_energy": -3406.33306804, 
			 "HOMO_LUMO_gap": 0.15338, 
			 "cosmo_polarized_energy": -16.51, 
			 "cosmo_cavitation_energy": 35.31, 
			 "cosmo_dispersion_energy": -24.95, 
			 "cosmo_repulsion_energy": 1.91, 
			 "cosmo_total_nonelectrostatic_energy": 12.28, 
			 "SMD_solvation_energy": 8.18 
		},
		"coords": [
			{
				"x": -1.3470678263,
				"y": -5.227369411,
				"z": 1.1376685604,
				"element": "O" 
			},
			{
				"x": -2.2495780115,
				"y": -4.4415075844,
				"z": 0.8594472703,
				"element": "N" 
			},
			{
				"x": -3.4234383283,
				"y": -4.7504335002,
				"z": 0.6673122806,
				"element": "O" 
			},
			{
				"x": -1.891960355,
				"y": -3.0117500282,
				"z": 0.7473396506,
				"element": "C" 
			},
			{
				"x": -2.9016922984,
				"y": -2.0987870023,
				"z": 0.4299111668,
				"element": "C" 
			},
			{
				"x": -2.5948987891,
				"y": -0.7389039611,
				"z": 0.316909304,
				"element": "C" 
			},
			{
				"x": -1.2767664698,
				"y": -0.3592421876,
				"z": 0.5286304811,
				"element": "C" 
			},
			{
				"x": -0.649676468,
				"y": 0.9999217361,
				"z": 0.4868882219,
				"element": "C" 
			},
			{
				"x": -1.180341162,
				"y": 2.0694378028,
				"z": 0.2781522086,
				"element": "O" 
			},
			{
				"x": 0.7164722488,
				"y": 0.7933867294,
				"z": 0.7562637078,
				"element": "N" 
			},
			{
				"x": 1.6969569873,
				"y": 1.8716112931,
				"z": 0.8819425564,
				"element": "C" 
			},
			{
				"x": 2.800321925,
				"y": 1.8161221645,
				"z": -0.1825566601,
				"element": "C" 
			},
			{
				"x": 2.3346985815,
				"y": 2.036543388,
				"z": -1.6136251421,
				"element": "C" 
			},
			{
				"x": 1.6863522624,
				"y": 3.8857734064,
				"z": -1.9221369768,
				"element": "Br" 
			},
			{
				"x": 1.0084221247,
				"y": -0.5557112843,
				"z": 1.0123204953,
				"element": "C" 
			},
			{
				"x": 2.1000517385,
				"y": -0.9975232325,
				"z": 1.3095229886,
				"element": "O" 
			},
			{
				"x": -0.2843754856,
				"y": -1.2889883272,
				"z": 0.8452617854,
				"element": "C" 
			},
			{
				"x": -0.5615970032,
				"y": -2.6408286552,
				"z": 0.9644262291,
				"element": "C" 
			},
			{
				"x": -3.9079160044,
				"y": -2.4690305623,
				"z": 0.278122441,
				"element": "H" 
			},
			{
				"x": -3.3566291628,
				"y": -0.0060665727,
				"z": 0.0735574974,
				"element": "H" 
			},
			{
				"x": 2.1509272253,
				"y": 1.8040960572,
				"z": 1.8752614882,
				"element": "H" 
			},
			{
				"x": 1.1358304856,
				"y": 2.806450681,
				"z": 0.8138494246,
				"element": "H" 
			},
			{
				"x": 3.5585736955,
				"y": 2.5629620117,
				"z": 0.0747231978,
				"element": "H" 
			},
			{
				"x": 3.2886421152,
				"y": 0.8351851104,
				"z": -0.1330107272,
				"element": "H" 
			},
			{
				"x": 3.1481824281,
				"y": 1.9000163595,
				"z": -2.3247417379,
				"element": "H" 
			},
			{
				"x": 1.5019864529,
				"y": 1.3895364503,
				"z": -1.890352092,
				"element": "H" 
			},
			{
				"x": 0.1926190934,
				"y": -3.3777008813,
				"z": 1.2107123805,
				"element": "H" 
			}
		],
		 "valence_orbital": [ 
			{
				"type": "occ",
				"energy": -0.30664,
				"method": "rhf"
			},
			{
				"type": "occ",
				"energy": -0.29228,
				"method": "rhf"
			},
			{
				"type": "occ",
				"energy": -0.28886,
				"method": "rhf"
			},
			{
				"type": "occ",
				"energy": -0.27825,
				"method": "rhf"
			},
			{
				"type": "occ",
				"energy": -0.27489,
				"method": "rhf"
			},
			{
				"type": "unocc",
				"energy": -0.12151,
				"method": "rhf"
			},
			{
				"type": "unocc",
				"energy": -0.08787,
				"method": "rhf"
			},
			{
				"type": "unocc",
				"energy": -0.05484,
				"method": "rhf"
			},
			{
				"type": "unocc",
				"energy": -0.0032,
				"method": "rhf"
			},
			{
				"type": "unocc",
				"energy": 0.01812,
				"method": "rhf"
			}
		],
		"cosmo_sigma_profile": { 
			"-0.025": 0.0,
			"-0.024": 0.0,
			"-0.023": 0.0,
			"-0.022": 0.0,
			"-0.021": 0.0,
			"-0.02": 0.0,
			"-0.019": 0.0,
			"-0.018": 0.0,
			"-0.017": 0.0,
			"-0.016": 0.0,
			"-0.015": 0.0,
			"-0.014": 0.0,
			"-0.013": 0.0,
			"-0.012": 0.0,
			"-0.011": 0.0,
			"-0.01": 0.055973580371,
			"-0.009": 2.65177375759,
			"-0.008": 7.53389435433,
			"-0.007": 14.4786720775,
			"-0.006": 16.9524832796,
			"-0.005": 24.3122355149,
			"-0.004": 24.6122351177,
			"-0.003": 25.864282896,
			"-0.002": 27.6278973416,
			"-0.001": 16.2828783229,
			"0.0": 11.4155402175,
			"0.001": 9.73719039936,
			"0.002": 7.88667760245,
			"0.003": 10.6967202993,
			"0.004": 11.2778906577,
			"0.005": 11.8673695819,
			"0.006": 17.399708073,
			"0.007": 15.3355917722,
			"0.008": 7.7564567291,
			"0.009": 8.18533371475,
			"0.01": 7.69327469806,
			"0.011": 6.22770786898,
			"0.012": 0.302702848287,
			"0.013": 0.0,
			"0.014": 0.0,
			"0.015": 0.0,
			"0.016": 0.0,
			"0.017": 0.0,
			"0.018": 0.0,
			"0.019": 0.0,
			"0.02": 0.0,
			"0.021": 0.0,
			"0.022": 0.0,
			"0.023": 0.0,
			"0.024": 0.0,
			"0.025": 0.0
		}
	}
}
