{
	 "smiles": "OC(=O)CCCC1=CC=C(F)C=C1", 
	 "Tm": 319.15, 
	 "num_atms": 24, 
	 "gaussian": { 
		 "optdone": 1, 
		 "sigma_profile": "yes", 
		 "theory": "DFT", 
		 "functional": "B3LYP", 
		 "basiset": "6-31G**", 
		 "properties": { 
			 "R2extent": 3725.3598, 
			 "electric_dipole_moment_norm": 2.81345316115, 
			 "electric_quadrupole_moment_norm": 6.59219291966, 
			 "total_energy": -638.002260898, 
			 "HOMO_LUMO_gap": 0.22638, 
			 "cosmo_polarized_energy": -9.33, 
			 "cosmo_cavitation_energy": 28.0, 
			 "cosmo_dispersion_energy": -19.88, 
			 "cosmo_repulsion_energy": 1.56, 
			 "cosmo_total_nonelectrostatic_energy": 9.69, 
			 "SMD_solvation_energy": 5.99 
		},
		"coords": [
			{
				"x": 2.0844255275,
				"y": -3.0589502047,
				"z": -1.7157424297,
				"element": "O" 
			},
			{
				"x": 1.6394171621,
				"y": -1.7829412161,
				"z": -1.61724143,
				"element": "C" 
			},
			{
				"x": 2.299432743,
				"y": -0.9110459136,
				"z": -1.0877140234,
				"element": "O" 
			},
			{
				"x": 0.2496183204,
				"y": -1.6179647365,
				"z": -2.1861370924,
				"element": "C" 
			},
			{
				"x": -0.8391032504,
				"y": -1.8116541326,
				"z": -1.1047318588,
				"element": "C" 
			},
			{
				"x": -0.8226909452,
				"y": -0.7624376765,
				"z": 0.0294321834,
				"element": "C" 
			},
			{
				"x": -1.1434692668,
				"y": 0.6471278435,
				"z": -0.4260016346,
				"element": "C" 
			},
			{
				"x": -2.4729850125,
				"y": 1.0862119412,
				"z": -0.5065496644,
				"element": "C" 
			},
			{
				"x": -2.7885273742,
				"y": 2.3738530802,
				"z": -0.9405404125,
				"element": "C" 
			},
			{
				"x": -1.7511582482,
				"y": 3.2280256543,
				"z": -1.2962960107,
				"element": "C" 
			},
			{
				"x": -2.0459491688,
				"y": 4.4788151842,
				"z": -1.7145605529,
				"element": "F" 
			},
			{
				"x": -0.4208567703,
				"y": 2.8322779872,
				"z": -1.2299012684,
				"element": "C" 
			},
			{
				"x": -0.1245957586,
				"y": 1.539934766,
				"z": -0.7932201275,
				"element": "C" 
			},
			{
				"x": 2.9599953369,
				"y": -3.0734044106,
				"z": -1.2927443176,
				"element": "H" 
			},
			{
				"x": 0.1005192846,
				"y": -2.3481077669,
				"z": -2.9859999583,
				"element": "H" 
			},
			{
				"x": 0.1797919009,
				"y": -0.6123961838,
				"z": -2.6082249023,
				"element": "H" 
			},
			{
				"x": -1.8138040266,
				"y": -1.785920173,
				"z": -1.6057322757,
				"element": "H" 
			},
			{
				"x": -0.7344300759,
				"y": -2.8130285407,
				"z": -0.6699378446,
				"element": "H" 
			},
			{
				"x": 0.1557503009,
				"y": -0.774831214,
				"z": 0.520747067,
				"element": "H" 
			},
			{
				"x": -1.5557119513,
				"y": -1.0743048266,
				"z": 0.7828459555,
				"element": "H" 
			},
			{
				"x": -3.2776851279,
				"y": 0.4141690195,
				"z": -0.2174699286,
				"element": "H" 
			},
			{
				"x": -3.8143487441,
				"y": 2.7217955765,
				"z": -0.9991585879,
				"element": "H" 
			},
			{
				"x": 0.3605980622,
				"y": 3.5296378672,
				"z": -1.5127058144,
				"element": "H" 
			},
			{
				"x": 0.9100670822,
				"y": 1.2124380758,
				"z": -0.7425150711,
				"element": "H" 
			}
		],
		 "valence_orbital": [ 
			{
				"type": "occ",
				"energy": -0.33493,
				"method": "rhf"
			},
			{
				"type": "occ",
				"energy": -0.32065,
				"method": "rhf"
			},
			{
				"type": "occ",
				"energy": -0.27737,
				"method": "rhf"
			},
			{
				"type": "occ",
				"energy": -0.25405,
				"method": "rhf"
			},
			{
				"type": "occ",
				"energy": -0.23288,
				"method": "rhf"
			},
			{
				"type": "unocc",
				"energy": -0.0065,
				"method": "rhf"
			},
			{
				"type": "unocc",
				"energy": 0.00135,
				"method": "rhf"
			},
			{
				"type": "unocc",
				"energy": 0.00571,
				"method": "rhf"
			},
			{
				"type": "unocc",
				"energy": 0.07291,
				"method": "rhf"
			},
			{
				"type": "unocc",
				"energy": 0.09129,
				"method": "rhf"
			}
		],
		"cosmo_sigma_profile": { 
			"-0.025": 0.0,
			"-0.024": 0.0,
			"-0.023": 0.0,
			"-0.022": 0.0,
			"-0.021": 0.0,
			"-0.02": 0.0,
			"-0.019": 0.0,
			"-0.018": 0.44737391546,
			"-0.017": 1.25194576444,
			"-0.016": 0.530542469674,
			"-0.015": 0.740748316308,
			"-0.014": 1.18490186144,
			"-0.013": 0.337869777251,
			"-0.012": 0.533949701196,
			"-0.011": 0.9263042426,
			"-0.01": 0.483569538728,
			"-0.009": 0.455959233615,
			"-0.008": 0.749294173735,
			"-0.007": 2.83091340719,
			"-0.006": 6.78123953084,
			"-0.005": 8.85490108046,
			"-0.004": 17.4796615244,
			"-0.003": 24.1539192823,
			"-0.002": 23.2771891518,
			"-0.001": 17.9019476247,
			"0.0": 15.0194499153,
			"0.001": 14.4763488065,
			"0.002": 15.6560171733,
			"0.003": 13.6246969372,
			"0.004": 19.4526351257,
			"0.005": 15.6980629951,
			"0.006": 2.61375432874,
			"0.007": 2.45689578974,
			"0.008": 2.8375774907,
			"0.009": 2.60997204234,
			"0.01": 2.97754118501,
			"0.011": 2.50441786491,
			"0.012": 2.42037998052,
			"0.013": 0.207834701726,
			"0.014": 0.0,
			"0.015": 0.0,
			"0.016": 0.0,
			"0.017": 0.0,
			"0.018": 0.0,
			"0.019": 0.0,
			"0.02": 0.0,
			"0.021": 0.0,
			"0.022": 0.0,
			"0.023": 0.0,
			"0.024": 0.0,
			"0.025": 0.0
		}
	}
}
