{
	 "smiles": "CN(C)S(=O)(=O)C1=CNC(=C1)C(O)=O", 
	 "Tm": 471.15, 
	 "num_atms": 24, 
	 "gaussian": { 
		 "optdone": 1, 
		 "sigma_profile": "yes", 
		 "theory": "DFT", 
		 "functional": "B3LYP", 
		 "basiset": "6-31G**", 
		 "properties": { 
			 "R2extent": 3747.7147, 
			 "electric_dipole_moment_norm": 5.09299838209, 
			 "electric_quadrupole_moment_norm": 12.6892481952, 
			 "total_energy": -1081.29366147, 
			 "HOMO_LUMO_gap": 0.19866, 
			 "cosmo_polarized_energy": -21.37, 
			 "cosmo_cavitation_energy": 29.85, 
			 "cosmo_dispersion_energy": -21.65, 
			 "cosmo_repulsion_energy": 1.67, 
			 "cosmo_total_nonelectrostatic_energy": 9.86, 
			 "SMD_solvation_energy": 4.97 
		},
		"coords": [
			{
				"x": -2.339885384,
				"y": 1.412202479,
				"z": -0.0285978307,
				"element": "C" 
			},
			{
				"x": -0.9617199747,
				"y": 1.7993370906,
				"z": -0.33495749,
				"element": "N" 
			},
			{
				"x": -0.3014370855,
				"y": 2.597024539,
				"z": 0.7007988457,
				"element": "C" 
			},
			{
				"x": -0.0100016309,
				"y": 0.6109545609,
				"z": -1.0708264339,
				"element": "S" 
			},
			{
				"x": 1.2780459416,
				"y": 1.2407171551,
				"z": -1.3597838752,
				"element": "O" 
			},
			{
				"x": -0.8440525672,
				"y": 0.007565749,
				"z": -2.1125933457,
				"element": "O" 
			},
			{
				"x": 0.2777961714,
				"y": -0.6467600855,
				"z": 0.1407432721,
				"element": "C" 
			},
			{
				"x": -0.4821776007,
				"y": -1.8055987902,
				"z": 0.2704116645,
				"element": "C" 
			},
			{
				"x": 0.0261117564,
				"y": -2.505461521,
				"z": 1.3124640715,
				"element": "N" 
			},
			{
				"x": 1.0978441172,
				"y": -1.8299066509,
				"z": 1.8618172992,
				"element": "C" 
			},
			{
				"x": 1.2779162848,
				"y": -0.6583510951,
				"z": 1.1455526379,
				"element": "C" 
			},
			{
				"x": 1.7896025495,
				"y": -2.4369865589,
				"z": 2.9936038594,
				"element": "C" 
			},
			{
				"x": 2.8196496465,
				"y": -1.6904757408,
				"z": 3.4466342143,
				"element": "O" 
			},
			{
				"x": 1.4685153165,
				"y": -3.5081026013,
				"z": 3.4809611578,
				"element": "O" 
			},
			{
				"x": -2.7695131183,
				"y": 0.896254461,
				"z": -0.886763441,
				"element": "H" 
			},
			{
				"x": -2.9151071098,
				"y": 2.3245065264,
				"z": 0.1532202734,
				"element": "H" 
			},
			{
				"x": -2.413698075,
				"y": 0.770162966,
				"z": 0.8636501783,
				"element": "H" 
			},
			{
				"x": -0.2174601784,
				"y": 2.0627938569,
				"z": 1.6603152653,
				"element": "H" 
			},
			{
				"x": 0.6904857545,
				"y": 2.8872972597,
				"z": 0.35569188,
				"element": "H" 
			},
			{
				"x": -0.8937773942,
				"y": 3.5027587844,
				"z": 0.8596198456,
				"element": "H" 
			},
			{
				"x": -1.3083479849,
				"y": -2.158562335,
				"z": -0.3271527049,
				"element": "H" 
			},
			{
				"x": -0.2795044757,
				"y": -3.4038986361,
				"z": 1.660976521,
				"element": "H" 
			},
			{
				"x": 2.0489790673,
				"y": 0.0794102431,
				"z": 1.3057810496,
				"element": "H" 
			},
			{
				"x": 3.2080359737,
				"y": -2.1856816564,
				"z": 4.1866330858,
				"element": "H" 
			}
		],
		 "valence_orbital": [ 
			{
				"type": "occ",
				"energy": -0.29937,
				"method": "rhf"
			},
			{
				"type": "occ",
				"energy": -0.29515,
				"method": "rhf"
			},
			{
				"type": "occ",
				"energy": -0.28494,
				"method": "rhf"
			},
			{
				"type": "occ",
				"energy": -0.26275,
				"method": "rhf"
			},
			{
				"type": "occ",
				"energy": -0.24816,
				"method": "rhf"
			},
			{
				"type": "unocc",
				"energy": -0.0495,
				"method": "rhf"
			},
			{
				"type": "unocc",
				"energy": 0.0004,
				"method": "rhf"
			},
			{
				"type": "unocc",
				"energy": 0.05769,
				"method": "rhf"
			},
			{
				"type": "unocc",
				"energy": 0.06981,
				"method": "rhf"
			},
			{
				"type": "unocc",
				"energy": 0.08365,
				"method": "rhf"
			}
		],
		"cosmo_sigma_profile": { 
			"-0.025": 0.0,
			"-0.024": 0.0,
			"-0.023": 0.0,
			"-0.022": 0.0,
			"-0.021": 0.0,
			"-0.02": 0.0,
			"-0.019": 0.202483675512,
			"-0.018": 0.861161747542,
			"-0.017": 1.83082571171,
			"-0.016": 1.7599777925,
			"-0.015": 1.31033462163,
			"-0.014": 1.80243141703,
			"-0.013": 2.08934736127,
			"-0.012": 1.39175008012,
			"-0.011": 2.01804695709,
			"-0.01": 3.38008579597,
			"-0.009": 3.23793061164,
			"-0.008": 3.33166087431,
			"-0.007": 4.77752779925,
			"-0.006": 7.82976272646,
			"-0.005": 10.7577148199,
			"-0.004": 18.4909951141,
			"-0.003": 24.3319338611,
			"-0.002": 25.8727485702,
			"-0.001": 11.8130194684,
			"0.0": 11.2893001778,
			"0.001": 13.2334555799,
			"0.002": 9.60777108884,
			"0.003": 7.85198087763,
			"0.004": 6.08582277262,
			"0.005": 6.16976029567,
			"0.006": 6.33404473243,
			"0.007": 7.56916948753,
			"0.008": 7.08726368084,
			"0.009": 6.23043981817,
			"0.01": 8.33856921918,
			"0.011": 12.7142022712,
			"0.012": 7.04149514887,
			"0.013": 0.0995131395289,
			"0.014": 0.0,
			"0.015": 0.0,
			"0.016": 0.0,
			"0.017": 0.0,
			"0.018": 0.0,
			"0.019": 0.0,
			"0.02": 0.0,
			"0.021": 0.0,
			"0.022": 0.0,
			"0.023": 0.0,
			"0.024": 0.0,
			"0.025": 0.0
		}
	}
}
