{
	 "smiles": "CC1=CC(C)=NN1", 
	 "Tm": 380.15, 
	 "num_atms": 15, 
	 "gaussian": { 
		 "optdone": 1, 
		 "sigma_profile": "yes", 
		 "theory": "DFT", 
		 "functional": "B3LYP", 
		 "basiset": "6-31G**", 
		 "properties": { 
			 "R2extent": 824.1946, 
			 "electric_dipole_moment_norm": 2.38220949121, 
			 "electric_quadrupole_moment_norm": 5.47785565345, 
			 "total_energy": -304.846414441, 
			 "HOMO_LUMO_gap": 0.25275, 
			 "cosmo_polarized_energy": -8.85, 
			 "cosmo_cavitation_energy": 18.41, 
			 "cosmo_dispersion_energy": -13.87, 
			 "cosmo_repulsion_energy": 1.2, 
			 "cosmo_total_nonelectrostatic_energy": 5.73, 
			 "SMD_solvation_energy": 2.59 
		},
		"coords": [
			{
				"x": -0.2133946846,
				"y": 1.3206194851,
				"z": -1.9246099119,
				"element": "C" 
			},
			{
				"x": -0.1413079837,
				"y": 0.5900766412,
				"z": -0.620982231,
				"element": "C" 
			},
			{
				"x": -1.0742797462,
				"y": -0.1618308442,
				"z": 0.0717332412,
				"element": "C" 
			},
			{
				"x": -0.4169661183,
				"y": -0.6000031216,
				"z": 1.249394008,
				"element": "C" 
			},
			{
				"x": -0.9693942388,
				"y": -1.4503186764,
				"z": 2.3565156027,
				"element": "C" 
			},
			{
				"x": 0.8397075088,
				"y": -0.1540926286,
				"z": 1.292248195,
				"element": "N" 
			},
			{
				"x": 0.9800100358,
				"y": 0.5617021559,
				"z": 0.1506276401,
				"element": "N" 
			},
			{
				"x": 0.5170878862,
				"y": 0.9392446926,
				"z": -2.6481071338,
				"element": "H" 
			},
			{
				"x": -1.2065729613,
				"y": 1.2036814758,
				"z": -2.3635658947,
				"element": "H" 
			},
			{
				"x": -0.0280270524,
				"y": 2.3944960114,
				"z": -1.8024216098,
				"element": "H" 
			},
			{
				"x": -2.0910665122,
				"y": -0.3662796099,
				"z": -0.2317726192,
				"element": "H" 
			},
			{
				"x": -0.3931666595,
				"y": -2.3741531281,
				"z": 2.4728134141,
				"element": "H" 
			},
			{
				"x": -2.0086349105,
				"y": -1.7216659717,
				"z": 2.1532438353,
				"element": "H" 
			},
			{
				"x": -0.9368808981,
				"y": -0.9233166331,
				"z": 3.3158097592,
				"element": "H" 
			},
			{
				"x": 1.8657863347,
				"y": 1.0039401515,
				"z": -0.0395262953,
				"element": "H" 
			}
		],
		 "valence_orbital": [ 
			{
				"type": "occ",
				"energy": -0.37838,
				"method": "rhf"
			},
			{
				"type": "occ",
				"energy": -0.35787,
				"method": "rhf"
			},
			{
				"type": "occ",
				"energy": -0.27167,
				"method": "rhf"
			},
			{
				"type": "occ",
				"energy": -0.23594,
				"method": "rhf"
			},
			{
				"type": "occ",
				"energy": -0.22554,
				"method": "rhf"
			},
			{
				"type": "unocc",
				"energy": 0.02721,
				"method": "rhf"
			},
			{
				"type": "unocc",
				"energy": 0.08383,
				"method": "rhf"
			},
			{
				"type": "unocc",
				"energy": 0.08401,
				"method": "rhf"
			},
			{
				"type": "unocc",
				"energy": 0.11806,
				"method": "rhf"
			},
			{
				"type": "unocc",
				"energy": 0.12731,
				"method": "rhf"
			}
		],
		"cosmo_sigma_profile": { 
			"-0.025": 0.0,
			"-0.024": 0.0,
			"-0.023": 0.0,
			"-0.022": 0.0,
			"-0.021": 0.0,
			"-0.02": 0.0,
			"-0.019": 0.0,
			"-0.018": 0.0,
			"-0.017": 0.0,
			"-0.016": 0.307165662182,
			"-0.015": 1.45945594652,
			"-0.014": 1.13934132741,
			"-0.013": 1.09781166753,
			"-0.012": 1.36652397798,
			"-0.011": 0.815137562967,
			"-0.01": 0.798193033305,
			"-0.009": 1.01174063825,
			"-0.008": 1.16774658816,
			"-0.007": 0.810393987865,
			"-0.006": 1.45421655932,
			"-0.005": 8.75416932619,
			"-0.004": 13.6154431847,
			"-0.003": 15.5669277715,
			"-0.002": 12.7594800323,
			"-0.001": 15.1548892293,
			"0.0": 14.9827315101,
			"0.001": 8.48344239132,
			"0.002": 4.54503633514,
			"0.003": 5.27971314623,
			"0.004": 5.03356142919,
			"0.005": 5.74217409582,
			"0.006": 6.13721937697,
			"0.007": 5.0285802463,
			"0.008": 1.90481171022,
			"0.009": 1.53970213625,
			"0.01": 1.09888414083,
			"0.011": 1.64020133968,
			"0.012": 1.12566389129,
			"0.013": 0.867362747221,
			"0.014": 1.19078424903,
			"0.015": 1.26563487166,
			"0.016": 0.979761621438,
			"0.017": 0.854925390031,
			"0.018": 0.227610491777,
			"0.019": 0.0,
			"0.02": 0.0,
			"0.021": 0.0,
			"0.022": 0.0,
			"0.023": 0.0,
			"0.024": 0.0,
			"0.025": 0.0
		}
	}
}
