{
	 "smiles": "OC1CCCCC1C#N", 
	 "Tm": 320.65, 
	 "num_atms": 20, 
	 "gaussian": { 
		 "optdone": 1, 
		 "sigma_profile": "yes", 
		 "theory": "DFT", 
		 "functional": "B3LYP", 
		 "basiset": "6-31G**", 
		 "properties": { 
			 "R2extent": 1959.6866, 
			 "electric_dipole_moment_norm": 5.03321564509, 
			 "electric_quadrupole_moment_norm": 28.3644817136, 
			 "total_energy": -403.329371122, 
			 "HOMO_LUMO_gap": 0.31628, 
			 "cosmo_polarized_energy": -12.93, 
			 "cosmo_cavitation_energy": 22.1, 
			 "cosmo_dispersion_energy": -16.08, 
			 "cosmo_repulsion_energy": 1.34, 
			 "cosmo_total_nonelectrostatic_energy": 7.37, 
			 "SMD_solvation_energy": 4.59 
		},
		"coords": [
			{
				"x": 2.2563920382,
				"y": 2.1421750264,
				"z": -0.9225082816,
				"element": "O" 
			},
			{
				"x": 1.143776994,
				"y": 1.51779341,
				"z": -1.5562816085,
				"element": "C" 
			},
			{
				"x": 1.2214731471,
				"y": -0.0272746728,
				"z": -1.5076044114,
				"element": "C" 
			},
			{
				"x": 0.6072692528,
				"y": -0.6321205469,
				"z": -0.224516901,
				"element": "C" 
			},
			{
				"x": 0.7502319438,
				"y": 0.3239114779,
				"z": 0.9676527712,
				"element": "C" 
			},
			{
				"x": -0.0054378982,
				"y": 1.6509419192,
				"z": 0.726773133,
				"element": "C" 
			},
			{
				"x": -0.1070549789,
				"y": 1.9958048098,
				"z": -0.7901512906,
				"element": "C" 
			},
			{
				"x": -0.3644013749,
				"y": 3.4251285914,
				"z": -0.9980541251,
				"element": "C" 
			},
			{
				"x": -0.5839493645,
				"y": 4.5536178625,
				"z": -1.1596971879,
				"element": "N" 
			},
			{
				"x": 3.0427607016,
				"y": 1.9711102133,
				"z": -1.4555916153,
				"element": "H" 
			},
			{
				"x": 1.0713790309,
				"y": 1.8493401369,
				"z": -2.602137886,
				"element": "H" 
			},
			{
				"x": 2.2801424682,
				"y": -0.3033107325,
				"z": -1.5883198708,
				"element": "H" 
			},
			{
				"x": 0.7252616133,
				"y": -0.4434796063,
				"z": -2.3925422787,
				"element": "H" 
			},
			{
				"x": -0.4570546348,
				"y": -0.847098993,
				"z": -0.3897188785,
				"element": "H" 
			},
			{
				"x": 1.0784631744,
				"y": -1.5957207369,
				"z": -0.0040247148,
				"element": "H" 
			},
			{
				"x": 1.8118183787,
				"y": 0.5413975915,
				"z": 1.1206074264,
				"element": "H" 
			},
			{
				"x": 0.3811492759,
				"y": -0.1490787529,
				"z": 1.883872558,
				"element": "H" 
			},
			{
				"x": -1.022511236,
				"y": 1.5986003788,
				"z": 1.1292600648,
				"element": "H" 
			},
			{
				"x": 0.5023310202,
				"y": 2.4669434319,
				"z": 1.2453021547,
				"element": "H" 
			},
			{
				"x": -0.9618395517,
				"y": 1.4590191919,
				"z": -1.2219190578,
				"element": "H" 
			}
		],
		 "valence_orbital": [ 
			{
				"type": "occ",
				"energy": -0.33124,
				"method": "rhf"
			},
			{
				"type": "occ",
				"energy": -0.32735,
				"method": "rhf"
			},
			{
				"type": "occ",
				"energy": -0.30798,
				"method": "rhf"
			},
			{
				"type": "occ",
				"energy": -0.3011,
				"method": "rhf"
			},
			{
				"type": "occ",
				"energy": -0.27778,
				"method": "rhf"
			},
			{
				"type": "unocc",
				"energy": 0.0385,
				"method": "rhf"
			},
			{
				"type": "unocc",
				"energy": 0.04592,
				"method": "rhf"
			},
			{
				"type": "unocc",
				"energy": 0.0626,
				"method": "rhf"
			},
			{
				"type": "unocc",
				"energy": 0.08838,
				"method": "rhf"
			},
			{
				"type": "unocc",
				"energy": 0.10006,
				"method": "rhf"
			}
		],
		"cosmo_sigma_profile": { 
			"-0.025": 0.0,
			"-0.024": 0.0,
			"-0.023": 0.0,
			"-0.022": 0.0,
			"-0.021": 0.0,
			"-0.02": 0.0,
			"-0.019": 0.0,
			"-0.018": 0.0,
			"-0.017": 0.0,
			"-0.016": 0.521952464426,
			"-0.015": 1.12861145539,
			"-0.014": 0.935790214536,
			"-0.013": 1.07687512845,
			"-0.012": 0.848426322851,
			"-0.011": 0.493589482495,
			"-0.01": 1.50371605769,
			"-0.009": 1.30288793405,
			"-0.008": 1.71245388062,
			"-0.007": 4.92934390126,
			"-0.006": 6.06248070303,
			"-0.005": 9.00887948501,
			"-0.004": 12.5605471711,
			"-0.003": 17.8759783844,
			"-0.002": 17.7000994712,
			"-0.001": 20.196059077,
			"0.0": 18.6074195114,
			"0.001": 7.80131866098,
			"0.002": 3.75910725385,
			"0.003": 2.24565826575,
			"0.004": 2.79179088478,
			"0.005": 3.55215563794,
			"0.006": 3.94443197149,
			"0.007": 4.92620919693,
			"0.008": 4.32358583336,
			"0.009": 5.60058786195,
			"0.01": 4.7570774328,
			"0.011": 4.49763665141,
			"0.012": 3.86175604824,
			"0.013": 2.75081218787,
			"0.014": 0.73027018372,
			"0.015": 0.0,
			"0.016": 0.0,
			"0.017": 0.0,
			"0.018": 0.0,
			"0.019": 0.0,
			"0.02": 0.0,
			"0.021": 0.0,
			"0.022": 0.0,
			"0.023": 0.0,
			"0.024": 0.0,
			"0.025": 0.0
		}
	}
}
