{
	 "smiles": "CC1=CC=C(CNCCO)C=C1", 
	 "Tm": 336.15, 
	 "num_atms": 27, 
	 "gaussian": { 
		 "optdone": 1, 
		 "sigma_profile": "yes", 
		 "theory": "DFT", 
		 "functional": "B3LYP", 
		 "basiset": "6-31G**", 
		 "properties": { 
			 "R2extent": 4259.5874, 
			 "electric_dipole_moment_norm": 1.33894436404, 
			 "electric_quadrupole_moment_norm": 12.0488194621, 
			 "total_energy": -520.072191905, 
			 "HOMO_LUMO_gap": 0.22329, 
			 "cosmo_polarized_energy": -9.03, 
			 "cosmo_cavitation_energy": 29.75, 
			 "cosmo_dispersion_energy": -21.68, 
			 "cosmo_repulsion_energy": 1.78, 
			 "cosmo_total_nonelectrostatic_energy": 9.85, 
			 "SMD_solvation_energy": 3.73 
		},
		"coords": [
			{
				"x": 1.2115885814,
				"y": -0.345128321,
				"z": 3.4128412423,
				"element": "C" 
			},
			{
				"x": 0.437466514,
				"y": -0.1427949431,
				"z": 2.131019488,
				"element": "C" 
			},
			{
				"x": 0.6816943326,
				"y": -0.9353437035,
				"z": 1.0035438108,
				"element": "C" 
			},
			{
				"x": -0.0120090206,
				"y": -0.7239234731,
				"z": -0.1891341296,
				"element": "C" 
			},
			{
				"x": -0.9803576085,
				"y": 0.2799520898,
				"z": -0.2899925693,
				"element": "C" 
			},
			{
				"x": -1.7638751452,
				"y": 0.4788503966,
				"z": -1.5722574623,
				"element": "C" 
			},
			{
				"x": -2.0020268997,
				"y": 1.8906832482,
				"z": -1.8566678995,
				"element": "N" 
			},
			{
				"x": -2.7575657966,
				"y": 2.120501837,
				"z": -3.0808443784,
				"element": "C" 
			},
			{
				"x": -2.8474024991,
				"y": 3.6098957508,
				"z": -3.3699817546,
				"element": "C" 
			},
			{
				"x": -1.5203494003,
				"y": 4.0784784611,
				"z": -3.6031311367,
				"element": "O" 
			},
			{
				"x": -1.2291938337,
				"y": 1.075331108,
				"z": 0.8368009344,
				"element": "C" 
			},
			{
				"x": -0.5311227424,
				"y": 0.8657260613,
				"z": 2.0242979481,
				"element": "C" 
			},
			{
				"x": 2.0582156698,
				"y": 0.3498468227,
				"z": 3.4818976214,
				"element": "H" 
			},
			{
				"x": 0.5823903968,
				"y": -0.1737111902,
				"z": 4.2922487787,
				"element": "H" 
			},
			{
				"x": 1.6170322439,
				"y": -1.3591257909,
				"z": 3.480302115,
				"element": "H" 
			},
			{
				"x": 1.4284024396,
				"y": -1.7244236476,
				"z": 1.0559623767,
				"element": "H" 
			},
			{
				"x": 0.2023980168,
				"y": -1.3502631121,
				"z": -1.0523301334,
				"element": "H" 
			},
			{
				"x": -1.2480933024,
				"y": -0.0490693945,
				"z": -2.3971450187,
				"element": "H" 
			},
			{
				"x": -2.7477529711,
				"y": -0.0061541783,
				"z": -1.4787246512,
				"element": "H" 
			},
			{
				"x": -1.1121701263,
				"y": 2.3773506745,
				"z": -1.9412326221,
				"element": "H" 
			},
			{
				"x": -2.3195593363,
				"y": 1.6173888217,
				"z": -3.9641743681,
				"element": "H" 
			},
			{
				"x": -3.7732005671,
				"y": 1.7211251546,
				"z": -2.9570529302,
				"element": "H" 
			},
			{
				"x": -3.4903609523,
				"y": 3.7784703556,
				"z": -4.2480682539,
				"element": "H" 
			},
			{
				"x": -3.301670906,
				"y": 4.1159549492,
				"z": -2.5056628345,
				"element": "H" 
			},
			{
				"x": -1.5317576689,
				"y": 5.0427907458,
				"z": -3.595878324,
				"element": "H" 
			},
			{
				"x": -1.9708521627,
				"y": 1.8648038652,
				"z": 0.765154056,
				"element": "H" 
			},
			{
				"x": -0.7424672559,
				"y": 1.494687412,
				"z": 2.8865100951,
				"element": "H" 
			}
		],
		 "valence_orbital": [ 
			{
				"type": "occ",
				"energy": -0.31923,
				"method": "rhf"
			},
			{
				"type": "occ",
				"energy": -0.27077,
				"method": "rhf"
			},
			{
				"type": "occ",
				"energy": -0.23851,
				"method": "rhf"
			},
			{
				"type": "occ",
				"energy": -0.22723,
				"method": "rhf"
			},
			{
				"type": "occ",
				"energy": -0.21442,
				"method": "rhf"
			},
			{
				"type": "unocc",
				"energy": 0.00887,
				"method": "rhf"
			},
			{
				"type": "unocc",
				"energy": 0.00934,
				"method": "rhf"
			},
			{
				"type": "unocc",
				"energy": 0.07319,
				"method": "rhf"
			},
			{
				"type": "unocc",
				"energy": 0.10729,
				"method": "rhf"
			},
			{
				"type": "unocc",
				"energy": 0.11024,
				"method": "rhf"
			}
		],
		"cosmo_sigma_profile": { 
			"-0.025": 0.0,
			"-0.024": 0.0,
			"-0.023": 0.0,
			"-0.022": 0.0,
			"-0.021": 0.0,
			"-0.02": 0.0,
			"-0.019": 0.0,
			"-0.018": 0.0,
			"-0.017": 0.0,
			"-0.016": 0.42278277182,
			"-0.015": 1.54889003467,
			"-0.014": 0.164786936935,
			"-0.013": 0.954909568821,
			"-0.012": 1.53359453075,
			"-0.011": 0.766345703799,
			"-0.01": 0.388542194257,
			"-0.009": 0.676084020917,
			"-0.008": 1.06148068944,
			"-0.007": 1.11302333512,
			"-0.006": 2.06247437216,
			"-0.005": 5.86596143638,
			"-0.004": 20.0561066943,
			"-0.003": 32.2114847952,
			"-0.002": 29.9058999827,
			"-0.001": 27.4553972679,
			"0.0": 21.736358335,
			"0.001": 13.4591328105,
			"0.002": 10.462634858,
			"0.003": 10.3193081417,
			"0.004": 9.96444052647,
			"0.005": 10.3314464276,
			"0.006": 10.0226169801,
			"0.007": 7.33316089256,
			"0.008": 2.52187320995,
			"0.009": 2.27130683372,
			"0.01": 0.729330868933,
			"0.011": 1.78073672735,
			"0.012": 2.01427099011,
			"0.013": 1.87253771565,
			"0.014": 1.03645220753,
			"0.015": 0.324330109632,
			"0.016": 0.0,
			"0.017": 0.0,
			"0.018": 0.0,
			"0.019": 0.0,
			"0.02": 0.0,
			"0.021": 0.0,
			"0.022": 0.0,
			"0.023": 0.0,
			"0.024": 0.0,
			"0.025": 0.0
		}
	}
}
