{
	 "smiles": "ClCCC(=O)NC1=C(Br)C=CC=C1", 
	 "Tm": 378.15, 
	 "num_atms": 22, 
	 "gaussian": { 
		 "optdone": 1, 
		 "sigma_profile": "yes", 
		 "theory": "DFT", 
		 "functional": "B3LYP", 
		 "basiset": "6-31G**", 
		 "properties": { 
			 "R2extent": 5838.918, 
			 "electric_dipole_moment_norm": 4.90106920376, 
			 "electric_quadrupole_moment_norm": 10.3543212583, 
			 "total_energy": -3509.97236702, 
			 "HOMO_LUMO_gap": 0.2067, 
			 "cosmo_polarized_energy": -13.2, 
			 "cosmo_cavitation_energy": 30.02, 
			 "cosmo_dispersion_energy": -21.79, 
			 "cosmo_repulsion_energy": 1.76, 
			 "cosmo_total_nonelectrostatic_energy": 9.98, 
			 "SMD_solvation_energy": 4.19 
		},
		"coords": [
			{
				"x": 0.1992505458,
				"y": -1.7495015897,
				"z": 3.0021294735,
				"element": "Cl" 
			},
			{
				"x": -0.9053904046,
				"y": -1.7504616374,
				"z": 1.5593000402,
				"element": "C" 
			},
			{
				"x": -0.3971138682,
				"y": -0.8221352416,
				"z": 0.4648648541,
				"element": "C" 
			},
			{
				"x": -0.6557044377,
				"y": 0.6417896209,
				"z": 0.8186818513,
				"element": "C" 
			},
			{
				"x": -1.6069284587,
				"y": 0.9699093361,
				"z": 1.5110701772,
				"element": "O" 
			},
			{
				"x": 0.2101310227,
				"y": 1.6130212841,
				"z": 0.3466839178,
				"element": "N" 
			},
			{
				"x": 1.362114933,
				"y": 1.5264808167,
				"z": -0.4534349581,
				"element": "C" 
			},
			{
				"x": 2.4915981698,
				"y": 2.3155823246,
				"z": -0.1614065389,
				"element": "C" 
			},
			{
				"x": 2.4710845589,
				"y": 3.4899323623,
				"z": 1.3479068731,
				"element": "Br" 
			},
			{
				"x": 3.6330473736,
				"y": 2.2746279337,
				"z": -0.9574338111,
				"element": "C" 
			},
			{
				"x": 3.6781956027,
				"y": 1.429600301,
				"z": -2.0658227909,
				"element": "C" 
			},
			{
				"x": 2.5650779982,
				"y": 0.6517146419,
				"z": -2.3834341623,
				"element": "C" 
			},
			{
				"x": 1.416077373,
				"y": 0.7153186403,
				"z": -1.59887552,
				"element": "C" 
			},
			{
				"x": -1.8809318906,
				"y": -1.4223482256,
				"z": 1.9152071857,
				"element": "H" 
			},
			{
				"x": -0.9511437461,
				"y": -2.782542165,
				"z": 1.2117533572,
				"element": "H" 
			},
			{
				"x": 0.6559988259,
				"y": -1.0145940107,
				"z": 0.2497112111,
				"element": "H" 
			},
			{
				"x": -0.961893819,
				"y": -1.0486912493,
				"z": -0.4505713924,
				"element": "H" 
			},
			{
				"x": 0.0378641702,
				"y": 2.5098432587,
				"z": 0.7882077255,
				"element": "H" 
			},
			{
				"x": 4.4821586699,
				"y": 2.8974513338,
				"z": -0.7002189252,
				"element": "H" 
			},
			{
				"x": 4.5731097479,
				"y": 1.3919839734,
				"z": -2.6784793838,
				"element": "H" 
			},
			{
				"x": 2.5778520338,
				"y": 0.0087626982,
				"z": -3.2580233323,
				"element": "H" 
			},
			{
				"x": 0.5359455996,
				"y": 0.1519555937,
				"z": -1.886015852,
				"element": "H" 
			}
		],
		 "valence_orbital": [ 
			{
				"type": "occ",
				"energy": -0.29456,
				"method": "rhf"
			},
			{
				"type": "occ",
				"energy": -0.2905,
				"method": "rhf"
			},
			{
				"type": "occ",
				"energy": -0.26723,
				"method": "rhf"
			},
			{
				"type": "occ",
				"energy": -0.26175,
				"method": "rhf"
			},
			{
				"type": "occ",
				"energy": -0.23858,
				"method": "rhf"
			},
			{
				"type": "unocc",
				"energy": -0.03188,
				"method": "rhf"
			},
			{
				"type": "unocc",
				"energy": -0.02795,
				"method": "rhf"
			},
			{
				"type": "unocc",
				"energy": -0.00585,
				"method": "rhf"
			},
			{
				"type": "unocc",
				"energy": 0.01659,
				"method": "rhf"
			},
			{
				"type": "unocc",
				"energy": 0.02926,
				"method": "rhf"
			}
		],
		"cosmo_sigma_profile": { 
			"-0.025": 0.0,
			"-0.024": 0.0,
			"-0.023": 0.0,
			"-0.022": 0.0,
			"-0.021": 0.0,
			"-0.02": 0.0,
			"-0.019": 0.0,
			"-0.018": 0.0,
			"-0.017": 0.0,
			"-0.016": 0.0,
			"-0.015": 0.0,
			"-0.014": 0.0,
			"-0.013": 0.0,
			"-0.012": 0.422236684329,
			"-0.011": 0.5170891282,
			"-0.01": 1.3774697286,
			"-0.009": 2.48387939691,
			"-0.008": 5.95698384258,
			"-0.007": 12.2188586546,
			"-0.006": 15.9549356633,
			"-0.005": 17.0935600038,
			"-0.004": 17.5433856427,
			"-0.003": 12.362755308,
			"-0.002": 13.1750570968,
			"-0.001": 11.5545845808,
			"0.0": 15.3327537578,
			"0.001": 20.0369905815,
			"0.002": 20.7970102607,
			"0.003": 21.1880667664,
			"0.004": 17.5219733819,
			"0.005": 8.11869929004,
			"0.006": 10.5854226669,
			"0.007": 6.37233034241,
			"0.008": 1.50755770344,
			"0.009": 1.61072556374,
			"0.01": 1.62317234937,
			"0.011": 1.89154430144,
			"0.012": 3.52065005676,
			"0.013": 3.83533593201,
			"0.014": 0.223840759009,
			"0.015": 0.0,
			"0.016": 0.0,
			"0.017": 0.0,
			"0.018": 0.0,
			"0.019": 0.0,
			"0.02": 0.0,
			"0.021": 0.0,
			"0.022": 0.0,
			"0.023": 0.0,
			"0.024": 0.0,
			"0.025": 0.0
		}
	}
}
