{
	 "smiles": "OC(=O)CN1C2=C(C=CC=C2)N=C1C1=C(Cl)C(Cl)=CC=C1", 
	 "Tm": 509.15, 
	 "num_atms": 31, 
	 "gaussian": { 
		 "optdone": 1, 
		 "sigma_profile": "yes", 
		 "theory": "DFT", 
		 "functional": "B3LYP", 
		 "basiset": "6-31G**", 
		 "properties": { 
			 "R2extent": 8987.6073, 
			 "electric_dipole_moment_norm": 2.9104871362, 
			 "electric_quadrupole_moment_norm": 23.9523982165, 
			 "total_energy": -1757.97556483, 
			 "HOMO_LUMO_gap": 0.17907, 
			 "cosmo_polarized_energy": -17.2, 
			 "cosmo_cavitation_energy": 39.65, 
			 "cosmo_dispersion_energy": -27.31, 
			 "cosmo_repulsion_energy": 2.1, 
			 "cosmo_total_nonelectrostatic_energy": 14.45, 
			 "SMD_solvation_energy": 5.13 
		},
		"coords": [
			{
				"x": 0.5775324545,
				"y": -2.1018488415,
				"z": -2.0985865389,
				"element": "O" 
			},
			{
				"x": -0.5842725008,
				"y": -2.0782361819,
				"z": -1.4154048493,
				"element": "C" 
			},
			{
				"x": -1.2911073659,
				"y": -3.0452086083,
				"z": -1.2518795188,
				"element": "O" 
			},
			{
				"x": -0.940629941,
				"y": -0.6783747534,
				"z": -0.917168181,
				"element": "C" 
			},
			{
				"x": 0.193491455,
				"y": 0.1435136102,
				"z": -0.5617702011,
				"element": "N" 
			},
			{
				"x": 1.0042434109,
				"y": -0.0653344659,
				"z": 0.54539262,
				"element": "C" 
			},
			{
				"x": 2.0938893731,
				"y": 0.8191590481,
				"z": 0.3789523572,
				"element": "C" 
			},
			{
				"x": 3.1059505883,
				"y": 0.870032385,
				"z": 1.3457152107,
				"element": "C" 
			},
			{
				"x": 2.9999499841,
				"y": 0.0244496685,
				"z": 2.4451144046,
				"element": "C" 
			},
			{
				"x": 1.9110210141,
				"y": -0.8593489235,
				"z": 2.5897916717,
				"element": "C" 
			},
			{
				"x": 0.8918969039,
				"y": -0.9232252806,
				"z": 1.6422155057,
				"element": "C" 
			},
			{
				"x": 1.9572745507,
				"y": 1.5309100889,
				"z": -0.8027430613,
				"element": "N" 
			},
			{
				"x": 0.8312117944,
				"y": 1.1116894254,
				"z": -1.3295748666,
				"element": "C" 
			},
			{
				"x": 0.3265583176,
				"y": 1.585350934,
				"z": -2.6395536333,
				"element": "C" 
			},
			{
				"x": -0.8910990766,
				"y": 2.274867498,
				"z": -2.7979363036,
				"element": "C" 
			},
			{
				"x": -1.8816616752,
				"y": 2.631503225,
				"z": -1.4010678681,
				"element": "Cl" 
			},
			{
				"x": -1.287862349,
				"y": 2.7124350766,
				"z": -4.0710579608,
				"element": "C" 
			},
			{
				"x": -2.7935385929,
				"y": 3.5661308312,
				"z": -4.3092063322,
				"element": "Cl" 
			},
			{
				"x": -0.4722489836,
				"y": 2.4825727456,
				"z": -5.179825445,
				"element": "C" 
			},
			{
				"x": 0.7442741026,
				"y": 1.823370308,
				"z": -5.0220371588,
				"element": "C" 
			},
			{
				"x": 1.1384392556,
				"y": 1.3795827789,
				"z": -3.7635734924,
				"element": "C" 
			},
			{
				"x": 0.7095414684,
				"y": -3.0212299103,
				"z": -2.3859912632,
				"element": "H" 
			},
			{
				"x": -1.5102777386,
				"y": -0.1834613424,
				"z": -1.7074923939,
				"element": "H" 
			},
			{
				"x": -1.6108617762,
				"y": -0.7965600636,
				"z": -0.0626287226,
				"element": "H" 
			},
			{
				"x": 3.9419618426,
				"y": 1.5513861152,
				"z": 1.2261415714,
				"element": "H" 
			},
			{
				"x": 3.7706176091,
				"y": 0.040891129,
				"z": 3.2099554337,
				"element": "H" 
			},
			{
				"x": 1.8646652336,
				"y": -1.506113927,
				"z": 3.4608562184,
				"element": "H" 
			},
			{
				"x": 0.0579804175,
				"y": -1.6087023616,
				"z": 1.7592992848,
				"element": "H" 
			},
			{
				"x": -0.7980425895,
				"y": 2.8310200299,
				"z": -6.1534420233,
				"element": "H" 
			},
			{
				"x": 1.3814378321,
				"y": 1.6556691031,
				"z": -5.8843405693,
				"element": "H" 
			},
			{
				"x": 2.0837649812,
				"y": 0.867710659,
				"z": -3.6241538947,
				"element": "H" 
			}
		],
		 "valence_orbital": [ 
			{
				"type": "occ",
				"energy": -0.27801,
				"method": "rhf"
			},
			{
				"type": "occ",
				"energy": -0.27205,
				"method": "rhf"
			},
			{
				"type": "occ",
				"energy": -0.25943,
				"method": "rhf"
			},
			{
				"type": "occ",
				"energy": -0.22939,
				"method": "rhf"
			},
			{
				"type": "occ",
				"energy": -0.22622,
				"method": "rhf"
			},
			{
				"type": "unocc",
				"energy": -0.04715,
				"method": "rhf"
			},
			{
				"type": "unocc",
				"energy": -0.03308,
				"method": "rhf"
			},
			{
				"type": "unocc",
				"energy": -0.01329,
				"method": "rhf"
			},
			{
				"type": "unocc",
				"energy": -0.01122,
				"method": "rhf"
			},
			{
				"type": "unocc",
				"energy": -0.0056,
				"method": "rhf"
			}
		],
		"cosmo_sigma_profile": { 
			"-0.025": 0.0,
			"-0.024": 0.0,
			"-0.023": 0.0,
			"-0.022": 0.0,
			"-0.021": 0.0,
			"-0.02": 0.0,
			"-0.019": 0.439290307386,
			"-0.018": 1.22934861935,
			"-0.017": 0.699218034358,
			"-0.016": 0.777091685671,
			"-0.015": 0.707034807393,
			"-0.014": 0.810659487573,
			"-0.013": 0.963811712817,
			"-0.012": 0.694894455153,
			"-0.011": 0.772451406779,
			"-0.01": 1.62592196303,
			"-0.009": 3.3311613178,
			"-0.008": 8.07859958204,
			"-0.007": 13.690914777,
			"-0.006": 14.9584155559,
			"-0.005": 17.6771121105,
			"-0.004": 15.8955847059,
			"-0.003": 18.2146916906,
			"-0.002": 17.1659356083,
			"-0.001": 20.752737941,
			"0.0": 24.0412443401,
			"0.001": 27.2312357442,
			"0.002": 28.9724706571,
			"0.003": 28.7672882401,
			"0.004": 26.8866734412,
			"0.005": 17.0372585526,
			"0.006": 5.96616325632,
			"0.007": 3.29797938167,
			"0.008": 2.55633100608,
			"0.009": 3.18077828402,
			"0.01": 4.12481078831,
			"0.011": 5.88823774074,
			"0.012": 2.38594367072,
			"0.013": 1.15736522062,
			"0.014": 0.910888268726,
			"0.015": 0.584419259928,
			"0.016": 1.09800719111,
			"0.017": 0.30658749885,
			"0.018": 0.0,
			"0.019": 0.0,
			"0.02": 0.0,
			"0.021": 0.0,
			"0.022": 0.0,
			"0.023": 0.0,
			"0.024": 0.0,
			"0.025": 0.0
		}
	}
}
