{
	 "smiles": "ClCC1=CC2=C(S1)C=CC=C2", 
	 "Tm": 323.15, 
	 "num_atms": 18, 
	 "gaussian": { 
		 "optdone": 1, 
		 "sigma_profile": "yes", 
		 "theory": "DFT", 
		 "functional": "B3LYP", 
		 "basiset": "6-31G**", 
		 "properties": { 
			 "R2extent": 2947.9071, 
			 "electric_dipole_moment_norm": 2.65917900488, 
			 "electric_quadrupole_moment_norm": 10.6482943845, 
			 "total_energy": -1205.56205017, 
			 "HOMO_LUMO_gap": 0.17799, 
			 "cosmo_polarized_energy": -7.46, 
			 "cosmo_cavitation_energy": 25.24, 
			 "cosmo_dispersion_energy": -19.26, 
			 "cosmo_repulsion_energy": 1.5, 
			 "cosmo_total_nonelectrostatic_energy": 7.48, 
			 "SMD_solvation_energy": 3.3 
		},
		"coords": [
			{
				"x": 2.3440984321,
				"y": -0.6241350347,
				"z": 3.7164356964,
				"element": "Cl" 
			},
			{
				"x": 1.4745383823,
				"y": 0.696206408,
				"z": 2.773175426,
				"element": "C" 
			},
			{
				"x": 0.7017984658,
				"y": 0.1767020528,
				"z": 1.6167898752,
				"element": "C" 
			},
			{
				"x": 1.0459997863,
				"y": 0.2650226662,
				"z": 0.3008523597,
				"element": "C" 
			},
			{
				"x": 0.0786572649,
				"y": -0.3174814199,
				"z": -0.5882906805,
				"element": "C" 
			},
			{
				"x": -1.023848818,
				"y": -0.862699037,
				"z": 0.1174719746,
				"element": "C" 
			},
			{
				"x": -0.8421361237,
				"y": -0.6426482139,
				"z": 1.8486606531,
				"element": "S" 
			},
			{
				"x": -2.0858152589,
				"y": -1.4825520248,
				"z": -0.5493310432,
				"element": "C" 
			},
			{
				"x": -2.040908262,
				"y": -1.5549974582,
				"z": -1.9374559234,
				"element": "C" 
			},
			{
				"x": -0.9552828675,
				"y": -1.0193459141,
				"z": -2.655111415,
				"element": "C" 
			},
			{
				"x": 0.0980226053,
				"y": -0.4047023369,
				"z": -1.9932358126,
				"element": "C" 
			},
			{
				"x": 2.2529984055,
				"y": 1.3794467877,
				"z": 2.433991246,
				"element": "H" 
			},
			{
				"x": 0.8461361981,
				"y": 1.1993908766,
				"z": 3.5086364729,
				"element": "H" 
			},
			{
				"x": 1.9651886157,
				"y": 0.7326445985,
				"z": -0.0365827037,
				"element": "H" 
			},
			{
				"x": -2.9242955185,
				"y": -1.8975145407,
				"z": 0.0013176727,
				"element": "H" 
			},
			{
				"x": -2.8559472595,
				"y": -2.032190564,
				"z": -2.4734204775,
				"element": "H" 
			},
			{
				"x": -0.9434700699,
				"y": -1.0895437545,
				"z": -3.738613473,
				"element": "H" 
			},
			{
				"x": 0.9358660219,
				"y": 0.0068969091,
				"z": -2.5489898478,
				"element": "H" 
			}
		],
		 "valence_orbital": [ 
			{
				"type": "occ",
				"energy": -0.29878,
				"method": "rhf"
			},
			{
				"type": "occ",
				"energy": -0.29634,
				"method": "rhf"
			},
			{
				"type": "occ",
				"energy": -0.28901,
				"method": "rhf"
			},
			{
				"type": "occ",
				"energy": -0.23937,
				"method": "rhf"
			},
			{
				"type": "occ",
				"energy": -0.22468,
				"method": "rhf"
			},
			{
				"type": "unocc",
				"energy": -0.04669,
				"method": "rhf"
			},
			{
				"type": "unocc",
				"energy": -0.0077,
				"method": "rhf"
			},
			{
				"type": "unocc",
				"energy": 0.01101,
				"method": "rhf"
			},
			{
				"type": "unocc",
				"energy": 0.02101,
				"method": "rhf"
			},
			{
				"type": "unocc",
				"energy": 0.05664,
				"method": "rhf"
			}
		],
		"cosmo_sigma_profile": { 
			"-0.025": 0.0,
			"-0.024": 0.0,
			"-0.023": 0.0,
			"-0.022": 0.0,
			"-0.021": 0.0,
			"-0.02": 0.0,
			"-0.019": 0.0,
			"-0.018": 0.0,
			"-0.017": 0.0,
			"-0.016": 0.0,
			"-0.015": 0.0,
			"-0.014": 0.0,
			"-0.013": 0.0,
			"-0.012": 0.0,
			"-0.011": 0.0,
			"-0.01": 0.0,
			"-0.009": 0.748600747842,
			"-0.008": 6.49430779988,
			"-0.007": 9.77752588345,
			"-0.006": 13.7082400606,
			"-0.005": 14.9317534479,
			"-0.004": 13.0185646715,
			"-0.003": 10.5952153085,
			"-0.002": 9.31171082511,
			"-0.001": 9.97957392223,
			"0.0": 10.1121529927,
			"0.001": 12.6254268331,
			"0.002": 17.562668991,
			"0.003": 22.2858358861,
			"0.004": 21.2879662743,
			"0.005": 18.3772633207,
			"0.006": 10.8883275746,
			"0.007": 5.26359850041,
			"0.008": 0.0,
			"0.009": 0.0,
			"0.01": 0.0,
			"0.011": 0.0,
			"0.012": 0.0,
			"0.013": 0.0,
			"0.014": 0.0,
			"0.015": 0.0,
			"0.016": 0.0,
			"0.017": 0.0,
			"0.018": 0.0,
			"0.019": 0.0,
			"0.02": 0.0,
			"0.021": 0.0,
			"0.022": 0.0,
			"0.023": 0.0,
			"0.024": 0.0,
			"0.025": 0.0
		}
	}
}
