{
	 "smiles": "OC1=CC=CC=C1I", 
	 "Tm": 313.95, 
	 "num_atms": 13, 
	 "gaussian": { 
		 "optdone": 1, 
		 "sigma_profile": "no", 
		 "theory": "DFT", 
		 "functional": "B3LYP", 
		 "basiset": "6-31G**", 
		 "properties": { 
			 "R2extent": 2105.5931, 
			 "electric_dipole_moment_norm": 0.840216430451, 
			 "electric_quadrupole_moment_norm": 7.64877048093, 
			 "total_energy": -318.257613965, 
			 "HOMO_LUMO_gap": 0.18357, 
			 "cosmo_polarized_energy": -89482.7, 
			 "cosmo_cavitation_energy": 19.84, 
			 "cosmo_dispersion_energy": -16.54, 
			 "cosmo_repulsion_energy": 1.32, 
			 "cosmo_total_nonelectrostatic_energy": 4.62, 
			 "SMD_solvation_energy": 2.93 
		},
		"coords": [
			{
				"x": -1.2075379293,
				"y": 0.7267091825,
				"z": -0.8837274854,
				"element": "O" 
			},
			{
				"x": -1.7617334981,
				"y": -0.2329147295,
				"z": -0.1034839806,
				"element": "C" 
			},
			{
				"x": -1.2444254209,
				"y": -1.5319874544,
				"z": -0.2201118523,
				"element": "C" 
			},
			{
				"x": -1.7594218648,
				"y": -2.5709843899,
				"z": 0.5460389042,
				"element": "C" 
			},
			{
				"x": -2.802739051,
				"y": -2.3392906017,
				"z": 1.4469255515,
				"element": "C" 
			},
			{
				"x": -3.328464129,
				"y": -1.0548020464,
				"z": 1.5753858305,
				"element": "C" 
			},
			{
				"x": -2.8098697844,
				"y": -0.0125012213,
				"z": 0.8049692425,
				"element": "C" 
			},
			{
				"x": -3.6159089386,
				"y": 1.9454454501,
				"z": 1.0049851349,
				"element": "I" 
			},
			{
				"x": -1.6466591313,
				"y": 1.5753930225,
				"z": -0.7137798633,
				"element": "H" 
			},
			{
				"x": -0.4348756286,
				"y": -1.6909364829,
				"z": -0.9249095601,
				"element": "H" 
			},
			{
				"x": -1.3433297976,
				"y": -3.5682647381,
				"z": 0.4389836716,
				"element": "H" 
			},
			{
				"x": -3.2074214365,
				"y": -3.1479563679,
				"z": 2.0467969701,
				"element": "H" 
			},
			{
				"x": -4.1379133899,
				"y": -0.860009623,
				"z": 2.2701274363,
				"element": "H" 
			}
		],
		 "valence_orbital": [ 
			{
				"type": "occ",
				"energy": -0.34399,
				"method": "rhf"
			},
			{
				"type": "occ",
				"energy": -0.30203,
				"method": "rhf"
			},
			{
				"type": "occ",
				"energy": -0.28473,
				"method": "rhf"
			},
			{
				"type": "occ",
				"energy": -0.25039,
				"method": "rhf"
			},
			{
				"type": "occ",
				"energy": -0.22968,
				"method": "rhf"
			},
			{
				"type": "unocc",
				"energy": -0.04611,
				"method": "rhf"
			},
			{
				"type": "unocc",
				"energy": -0.017,
				"method": "rhf"
			},
			{
				"type": "unocc",
				"energy": 0.00076,
				"method": "rhf"
			},
			{
				"type": "unocc",
				"energy": 0.03507,
				"method": "rhf"
			},
			{
				"type": "unocc",
				"energy": 0.04747,
				"method": "rhf"
			}
		],
		"cosmo_sigma_profile": { 
			"0.0": 0.0,
			"0.0": 0.0,
			"0.0": 0.0,
			"0.0": 0.0,
			"0.0": 0.0,
			"0.0": 0.0,
			"0.0": 0.0,
			"0.0": 0.0,
			"0.0": 0.0,
			"0.0": 0.0,
			"0.0": 0.0,
			"0.0": 0.0,
			"0.0": 0.0,
			"0.0": 0.0,
			"0.0": 0.0,
			"0.0": 0.0,
			"0.0": 0.0,
			"0.0": 0.0,
			"0.0": 0.0,
			"0.0": 0.0,
			"0.0": 0.0,
			"0.0": 0.0,
			"0.0": 0.0,
			"0.0": 0.0,
			"0.0": 0.0,
			"0.0": 0.0,
			"0.0": 0.0,
			"0.0": 0.0,
			"0.0": 0.0,
			"0.0": 0.0,
			"0.0": 0.0,
			"0.0": 0.0,
			"0.0": 0.0,
			"0.0": 0.0,
			"0.0": 0.0,
			"0.0": 0.0,
			"0.0": 0.0,
			"0.0": 0.0,
			"0.0": 0.0,
			"0.0": 0.0,
			"0.0": 0.0,
			"0.0": 0.0,
			"0.0": 0.0,
			"0.0": 0.0,
			"0.0": 0.0,
			"0.0": 0.0,
			"0.0": 0.0,
			"0.0": 0.0,
			"0.0": 0.0,
			"0.0": 0.0,
			"0.0": 0.0
		}
	}
}
