{
	 "smiles": "CCC12CCC3C(CCC4=CC(=O)CCC34)C1CCC2(O)C#C", 
	 "Tm": 513.15, 
	 "num_atms": 51, 
	 "gaussian": { 
		 "optdone": 1, 
		 "sigma_profile": "yes", 
		 "theory": "DFT", 
		 "functional": "B3LYP", 
		 "basiset": "6-31G**", 
		 "properties": { 
			 "R2extent": 8328.1122, 
			 "electric_dipole_moment_norm": 5.70290324922, 
			 "electric_quadrupole_moment_norm": 28.4252097589, 
			 "total_energy": -967.48118256, 
			 "HOMO_LUMO_gap": 0.18702, 
			 "cosmo_polarized_energy": -14.41, 
			 "cosmo_cavitation_energy": 45.87, 
			 "cosmo_dispersion_energy": -31.54, 
			 "cosmo_repulsion_energy": 2.33, 
			 "cosmo_total_nonelectrostatic_energy": 16.66, 
			 "SMD_solvation_energy": 8.2 
		},
		"coords": [
			{
				"x": -0.30768473,
				"y": 1.5003296281,
				"z": -4.74003136,
				"element": "C" 
			},
			{
				"x": 0.5609968708,
				"y": 1.5862814035,
				"z": -3.4778024094,
				"element": "C" 
			},
			{
				"x": 0.3870555483,
				"y": 0.588584095,
				"z": -2.285523063,
				"element": "C" 
			},
			{
				"x": 1.5137664352,
				"y": 0.9763997523,
				"z": -1.2888965015,
				"element": "C" 
			},
			{
				"x": 1.2895979346,
				"y": 0.6126694075,
				"z": 0.1805581303,
				"element": "C" 
			},
			{
				"x": -0.0842874593,
				"y": 1.0758302394,
				"z": 0.6804909871,
				"element": "C" 
			},
			{
				"x": -1.2035247048,
				"y": 0.4245753874,
				"z": -0.1598030258,
				"element": "C" 
			},
			{
				"x": -2.6235902086,
				"y": 0.8827775735,
				"z": 0.3044633838,
				"element": "C" 
			},
			{
				"x": -2.6172255827,
				"y": 1.6470347511,
				"z": 1.6498172482,
				"element": "C" 
			},
			{
				"x": -1.7323493294,
				"y": 0.9274602343,
				"z": 2.6227482686,
				"element": "C" 
			},
			{
				"x": -2.2121381733,
				"y": 0.3379949999,
				"z": 3.7378008446,
				"element": "C" 
			},
			{
				"x": -1.3741274982,
				"y": -0.4470688775,
				"z": 4.6588301526,
				"element": "C" 
			},
			{
				"x": -1.827610811,
				"y": -0.9563484081,
				"z": 5.6758236967,
				"element": "O" 
			},
			{
				"x": 0.0969894535,
				"y": -0.5784676749,
				"z": 4.2808278033,
				"element": "C" 
			},
			{
				"x": 0.338130369,
				"y": -0.4705589542,
				"z": 2.7692948556,
				"element": "C" 
			},
			{
				"x": -0.2695557305,
				"y": 0.8333631167,
				"z": 2.2148050186,
				"element": "C" 
			},
			{
				"x": -1.0553526921,
				"y": 0.6842405325,
				"z": -1.6853974829,
				"element": "C" 
			},
			{
				"x": -1.9195795157,
				"y": -0.3350812158,
				"z": -2.4941878788,
				"element": "C" 
			},
			{
				"x": -0.9438093644,
				"y": -1.2319809535,
				"z": -3.2948461692,
				"element": "C" 
			},
			{
				"x": 0.4718005504,
				"y": -0.9072922287,
				"z": -2.7529860292,
				"element": "C" 
			},
			{
				"x": 0.7119828526,
				"y": -1.6967165123,
				"z": -1.5714128351,
				"element": "O" 
			},
			{
				"x": 1.537661664,
				"y": -1.1793806685,
				"z": -3.7291174089,
				"element": "C" 
			},
			{
				"x": 2.4113242952,
				"y": -1.4510803861,
				"z": -4.5192377505,
				"element": "C" 
			},
			{
				"x": -0.0965648245,
				"y": 2.3675513455,
				"z": -5.375093539,
				"element": "H" 
			},
			{
				"x": -1.3795408292,
				"y": 1.5182919966,
				"z": -4.520624777,
				"element": "H" 
			},
			{
				"x": -0.0885518424,
				"y": 0.6105903487,
				"z": -5.3353994762,
				"element": "H" 
			},
			{
				"x": 1.6117144677,
				"y": 1.540750857,
				"z": -3.7881924241,
				"element": "H" 
			},
			{
				"x": 0.418816249,
				"y": 2.5840062281,
				"z": -3.0444374789,
				"element": "H" 
			},
			{
				"x": 2.4566047029,
				"y": 0.5420231525,
				"z": -1.6419951329,
				"element": "H" 
			},
			{
				"x": 1.6433732269,
				"y": 2.0650857287,
				"z": -1.3482769678,
				"element": "H" 
			},
			{
				"x": 1.3821105869,
				"y": -0.4674248633,
				"z": 0.303665383,
				"element": "H" 
			},
			{
				"x": 2.0817427916,
				"y": 1.0792696311,
				"z": 0.7820630807,
				"element": "H" 
			},
			{
				"x": -0.1417739355,
				"y": 2.1647235651,
				"z": 0.5236962347,
				"element": "H" 
			},
			{
				"x": -1.117904064,
				"y": -0.6578904013,
				"z": -0.0040130611,
				"element": "H" 
			},
			{
				"x": -3.2802615134,
				"y": 0.0124142342,
				"z": 0.4075286936,
				"element": "H" 
			},
			{
				"x": -3.0821402428,
				"y": 1.5266641008,
				"z": -0.4554369769,
				"element": "H" 
			},
			{
				"x": -2.2342316066,
				"y": 2.6639286087,
				"z": 1.487205211,
				"element": "H" 
			},
			{
				"x": -3.6353565768,
				"y": 1.7457385551,
				"z": 2.0384657237,
				"element": "H" 
			},
			{
				"x": -3.2641420042,
				"y": 0.4143995368,
				"z": 4.0035514314,
				"element": "H" 
			},
			{
				"x": 0.6363432537,
				"y": 0.2308438905,
				"z": 4.796657739,
				"element": "H" 
			},
			{
				"x": 0.4722053261,
				"y": -1.5184953181,
				"z": 4.6959435282,
				"element": "H" 
			},
			{
				"x": 1.4118529353,
				"y": -0.511568645,
				"z": 2.5671793846,
				"element": "H" 
			},
			{
				"x": -0.1148901329,
				"y": -1.3319863585,
				"z": 2.2617613321,
				"element": "H" 
			},
			{
				"x": 0.2561152224,
				"y": 1.6628559809,
				"z": 2.7185574676,
				"element": "H" 
			},
			{
				"x": -1.4160077811,
				"y": 1.7063797128,
				"z": -1.8617518548,
				"element": "H" 
			},
			{
				"x": -2.6144969931,
				"y": 0.1704144209,
				"z": -3.1706800588,
				"element": "H" 
			},
			{
				"x": -2.5328638607,
				"y": -0.9360653326,
				"z": -1.8170684461,
				"element": "H" 
			},
			{
				"x": -1.1456580988,
				"y": -2.3001519061,
				"z": -3.1642481225,
				"element": "H" 
			},
			{
				"x": -1.0029497644,
				"y": -1.0292518859,
				"z": -4.3649114544,
				"element": "H" 
			},
			{
				"x": 0.8151003397,
				"y": -2.6145491581,
				"z": -1.857373884,
				"element": "H" 
			},
			{
				"x": 3.1850847947,
				"y": -1.6830132663,
				"z": -5.2142900303,
				"element": "H" 
			}
		],
		 "valence_orbital": [ 
			{
				"type": "occ",
				"energy": -0.28325,
				"method": "rhf"
			},
			{
				"type": "occ",
				"energy": -0.27497,
				"method": "rhf"
			},
			{
				"type": "occ",
				"energy": -0.266,
				"method": "rhf"
			},
			{
				"type": "occ",
				"energy": -0.24571,
				"method": "rhf"
			},
			{
				"type": "occ",
				"energy": -0.22362,
				"method": "rhf"
			},
			{
				"type": "unocc",
				"energy": -0.0366,
				"method": "rhf"
			},
			{
				"type": "unocc",
				"energy": 0.02986,
				"method": "rhf"
			},
			{
				"type": "unocc",
				"energy": 0.0421,
				"method": "rhf"
			},
			{
				"type": "unocc",
				"energy": 0.06107,
				"method": "rhf"
			},
			{
				"type": "unocc",
				"energy": 0.06908,
				"method": "rhf"
			}
		],
		"cosmo_sigma_profile": { 
			"-0.025": 0.0,
			"-0.024": 0.0,
			"-0.023": 0.0,
			"-0.022": 0.0,
			"-0.021": 0.0,
			"-0.02": 0.0,
			"-0.019": 0.0,
			"-0.018": 0.0,
			"-0.017": 0.0,
			"-0.016": 0.10073881251,
			"-0.015": 0.822395182904,
			"-0.014": 0.615291329283,
			"-0.013": 0.847780967945,
			"-0.012": 1.11338788318,
			"-0.011": 1.8864715844,
			"-0.01": 2.64382914185,
			"-0.009": 1.30594753413,
			"-0.008": 2.49309684395,
			"-0.007": 1.91923314146,
			"-0.006": 2.12841547234,
			"-0.005": 6.12180993553,
			"-0.004": 19.9496341961,
			"-0.003": 34.0424582595,
			"-0.002": 61.5478582633,
			"-0.001": 55.6824858056,
			"0.0": 42.3236967262,
			"0.001": 31.8468628552,
			"0.002": 17.0721703391,
			"0.003": 12.6811896347,
			"0.004": 11.1604180449,
			"0.005": 10.3611549212,
			"0.006": 7.91773415176,
			"0.007": 5.21402978263,
			"0.008": 4.45001145354,
			"0.009": 2.63311945533,
			"0.01": 1.85603345565,
			"0.011": 1.92017803501,
			"0.012": 2.93244313974,
			"0.013": 4.73540336463,
			"0.014": 3.48157805607,
			"0.015": 1.00369590036,
			"0.016": 0.0,
			"0.017": 0.0,
			"0.018": 0.0,
			"0.019": 0.0,
			"0.02": 0.0,
			"0.021": 0.0,
			"0.022": 0.0,
			"0.023": 0.0,
			"0.024": 0.0,
			"0.025": 0.0
		}
	}
}
