{
	 "smiles": "CC1CCCCN1C(=O)C1=CC(C)=C(N)C=C1", 
	 "Tm": 397.15, 
	 "num_atms": 37, 
	 "gaussian": { 
		 "optdone": 1, 
		 "sigma_profile": "yes", 
		 "theory": "DFT", 
		 "functional": "B3LYP", 
		 "basiset": "6-31G**", 
		 "properties": { 
			 "R2extent": 5226.5562, 
			 "electric_dipole_moment_norm": 4.9108533006, 
			 "electric_quadrupole_moment_norm": 14.4452285548, 
			 "total_energy": -730.301778845, 
			 "HOMO_LUMO_gap": 0.19232, 
			 "cosmo_polarized_energy": -15.81, 
			 "cosmo_cavitation_energy": 37.18, 
			 "cosmo_dispersion_energy": -26.07, 
			 "cosmo_repulsion_energy": 2.03, 
			 "cosmo_total_nonelectrostatic_energy": 13.14, 
			 "SMD_solvation_energy": 5.98 
		},
		"coords": [
			{
				"x": 3.3191891785,
				"y": -0.7372788648,
				"z": -1.3544361729,
				"element": "C" 
			},
			{
				"x": 2.4916877132,
				"y": -0.9846997422,
				"z": -0.0788262942,
				"element": "C" 
			},
			{
				"x": 3.3736731568,
				"y": -1.2566033894,
				"z": 1.1758133971,
				"element": "C" 
			},
			{
				"x": 3.3677226708,
				"y": -2.7408098027,
				"z": 1.586310221,
				"element": "C" 
			},
			{
				"x": 3.3788887865,
				"y": -3.6339118752,
				"z": 0.3421010848,
				"element": "C" 
			},
			{
				"x": 2.0920507015,
				"y": -3.4286693151,
				"z": -0.4827841721,
				"element": "C" 
			},
			{
				"x": 1.5292296809,
				"y": -2.0856787943,
				"z": -0.2639747956,
				"element": "N" 
			},
			{
				"x": 0.2205236442,
				"y": -1.9136059336,
				"z": -0.6735615578,
				"element": "C" 
			},
			{
				"x": -0.3742522193,
				"y": -2.8098216888,
				"z": -1.2745287898,
				"element": "O" 
			},
			{
				"x": -0.4970359292,
				"y": -0.6420617259,
				"z": -0.3262320416,
				"element": "C" 
			},
			{
				"x": -0.4019908574,
				"y": -0.0140722093,
				"z": 0.9243452051,
				"element": "C" 
			},
			{
				"x": -1.1635083428,
				"y": 1.1063745085,
				"z": 1.2574819769,
				"element": "C" 
			},
			{
				"x": -1.0663646296,
				"y": 1.7402127308,
				"z": 2.6232100348,
				"element": "C" 
			},
			{
				"x": -2.0534623418,
				"y": 1.6323710302,
				"z": 0.291395237,
				"element": "C" 
			},
			{
				"x": -2.8606725088,
				"y": 2.7256846935,
				"z": 0.6010902239,
				"element": "N" 
			},
			{
				"x": -2.1667324794,
				"y": 0.9973369798,
				"z": -0.9576572152,
				"element": "C" 
			},
			{
				"x": -1.4152247467,
				"y": -0.1315333014,
				"z": -1.2529292959,
				"element": "C" 
			},
			{
				"x": 3.9751628874,
				"y": 0.1285266798,
				"z": -1.2125922004,
				"element": "H" 
			},
			{
				"x": 3.9507600089,
				"y": -1.5920063611,
				"z": -1.6144779267,
				"element": "H" 
			},
			{
				"x": 2.6604800406,
				"y": -0.5299306767,
				"z": -2.2037313911,
				"element": "H" 
			},
			{
				"x": 1.9055784919,
				"y": -0.0829707667,
				"z": 0.0913977825,
				"element": "H" 
			},
			{
				"x": 3.0294899013,
				"y": -0.640914421,
				"z": 2.0149079818,
				"element": "H" 
			},
			{
				"x": 4.4008392373,
				"y": -0.9383621802,
				"z": 0.9610232203,
				"element": "H" 
			},
			{
				"x": 2.467952813,
				"y": -2.9592498257,
				"z": 2.1741968121,
				"element": "H" 
			},
			{
				"x": 4.2267439301,
				"y": -2.9562555576,
				"z": 2.2312470792,
				"element": "H" 
			},
			{
				"x": 4.2679341211,
				"y": -3.4042986503,
				"z": -0.2582920713,
				"element": "H" 
			},
			{
				"x": 3.4597928922,
				"y": -4.691172274,
				"z": 0.6160957812,
				"element": "H" 
			},
			{
				"x": 1.3208148291,
				"y": -4.1403279748,
				"z": -0.1797324922,
				"element": "H" 
			},
			{
				"x": 2.2690758091,
				"y": -3.6120116598,
				"z": -1.5511372209,
				"element": "H" 
			},
			{
				"x": 0.2621043485,
				"y": -0.4280596147,
				"z": 1.6790727987,
				"element": "H" 
			},
			{
				"x": -0.3871276724,
				"y": 1.1787427837,
				"z": 3.2695706926,
				"element": "H" 
			},
			{
				"x": -2.0449043563,
				"y": 1.7812433599,
				"z": 3.117692378,
				"element": "H" 
			},
			{
				"x": -0.6872883116,
				"y": 2.7715998036,
				"z": 2.5754897187,
				"element": "H" 
			},
			{
				"x": -3.2699582267,
				"y": 3.1975324805,
				"z": -0.1930256965,
				"element": "H" 
			},
			{
				"x": -2.4924076564,
				"y": 3.3728776624,
				"z": 1.283271634,
				"element": "H" 
			},
			{
				"x": -2.8648809711,
				"y": 1.3926489165,
				"z": -1.6920470556,
				"element": "H" 
			},
			{
				"x": -1.5322835934,
				"y": -0.6370450237,
				"z": -2.2058468698,
				"element": "H" 
			}
		],
		 "valence_orbital": [ 
			{
				"type": "occ",
				"energy": -0.30049,
				"method": "rhf"
			},
			{
				"type": "occ",
				"energy": -0.24188,
				"method": "rhf"
			},
			{
				"type": "occ",
				"energy": -0.23671,
				"method": "rhf"
			},
			{
				"type": "occ",
				"energy": -0.21924,
				"method": "rhf"
			},
			{
				"type": "occ",
				"energy": -0.19994,
				"method": "rhf"
			},
			{
				"type": "unocc",
				"energy": -0.00762,
				"method": "rhf"
			},
			{
				"type": "unocc",
				"energy": 0.00517,
				"method": "rhf"
			},
			{
				"type": "unocc",
				"energy": 0.06326,
				"method": "rhf"
			},
			{
				"type": "unocc",
				"energy": 0.07162,
				"method": "rhf"
			},
			{
				"type": "unocc",
				"energy": 0.0765,
				"method": "rhf"
			}
		],
		"cosmo_sigma_profile": { 
			"-0.025": 0.0,
			"-0.024": 0.0,
			"-0.023": 0.0,
			"-0.022": 0.0,
			"-0.021": 0.0,
			"-0.02": 0.0,
			"-0.019": 0.0,
			"-0.018": 0.0,
			"-0.017": 0.0,
			"-0.016": 0.0,
			"-0.015": 0.0,
			"-0.014": 0.0,
			"-0.013": 0.332172368224,
			"-0.012": 2.18503114861,
			"-0.011": 2.51586518266,
			"-0.01": 2.79378729188,
			"-0.009": 3.2771392536,
			"-0.008": 3.06097096082,
			"-0.007": 2.92662967061,
			"-0.006": 3.31908695301,
			"-0.005": 6.90669779007,
			"-0.004": 16.3719351083,
			"-0.003": 36.5237912342,
			"-0.002": 38.7299137466,
			"-0.001": 39.9304414801,
			"0.0": 35.2066016106,
			"0.001": 23.1229822046,
			"0.002": 11.4015671902,
			"0.003": 8.36581958265,
			"0.004": 8.46468161355,
			"0.005": 9.63640822487,
			"0.006": 8.72828490606,
			"0.007": 2.94352699504,
			"0.008": 2.78367734177,
			"0.009": 2.65960259538,
			"0.01": 2.03151109163,
			"0.011": 2.06462169872,
			"0.012": 2.66432470629,
			"0.013": 2.59435688991,
			"0.014": 4.30699985936,
			"0.015": 3.83026860242,
			"0.016": 0.347084803288,
			"0.017": 0.0,
			"0.018": 0.0,
			"0.019": 0.0,
			"0.02": 0.0,
			"0.021": 0.0,
			"0.022": 0.0,
			"0.023": 0.0,
			"0.024": 0.0,
			"0.025": 0.0
		}
	}
}
