{
	 "smiles": "CC1=CC(=O)OC2=C1C=C(OCC(O)=O)C=C2", 
	 "Tm": 427.15, 
	 "num_atms": 27, 
	 "gaussian": { 
		 "optdone": 1, 
		 "sigma_profile": "yes", 
		 "theory": "DFT", 
		 "functional": "B3LYP", 
		 "basiset": "6-31G**", 
		 "properties": { 
			 "R2extent": 5239.1375, 
			 "electric_dipole_moment_norm": 5.88528283857, 
			 "electric_quadrupole_moment_norm": 32.1755240489, 
			 "total_energy": -839.419315054, 
			 "HOMO_LUMO_gap": 0.16799, 
			 "cosmo_polarized_energy": -23.92, 
			 "cosmo_cavitation_energy": 32.25, 
			 "cosmo_dispersion_energy": -23.13, 
			 "cosmo_repulsion_energy": 1.78, 
			 "cosmo_total_nonelectrostatic_energy": 10.91, 
			 "SMD_solvation_energy": 7.98 
		},
		"coords": [
			{
				"x": -1.0829193353,
				"y": -3.1141161053,
				"z": -1.28288729,
				"element": "C" 
			},
			{
				"x": 0.3904680651,
				"y": -2.8550878562,
				"z": -1.130112297,
				"element": "C" 
			},
			{
				"x": 1.316763191,
				"y": -3.7526903256,
				"z": -1.5507561948,
				"element": "C" 
			},
			{
				"x": 2.7527157727,
				"y": -3.5437836927,
				"z": -1.422794719,
				"element": "C" 
			},
			{
				"x": 3.6192488731,
				"y": -4.307275424,
				"z": -1.779340021,
				"element": "O" 
			},
			{
				"x": 3.1462184303,
				"y": -2.3428083801,
				"z": -0.8309941959,
				"element": "O" 
			},
			{
				"x": 2.2432982129,
				"y": -1.4171357057,
				"z": -0.3981028644,
				"element": "C" 
			},
			{
				"x": 0.8534216277,
				"y": -1.6160833299,
				"z": -0.5187028065,
				"element": "C" 
			},
			{
				"x": -0.0100071543,
				"y": -0.6093410446,
				"z": -0.0488203336,
				"element": "C" 
			},
			{
				"x": 0.5083076508,
				"y": 0.5471891482,
				"z": 0.5178058522,
				"element": "C" 
			},
			{
				"x": -0.3471942477,
				"y": 1.5116862964,
				"z": 1.0372585588,
				"element": "O" 
			},
			{
				"x": -0.681036959,
				"y": 2.5755274282,
				"z": 0.1803278432,
				"element": "C" 
			},
			{
				"x": -1.851785657,
				"y": 2.2596969354,
				"z": -0.7618793673,
				"element": "C" 
			},
			{
				"x": -2.2000797854,
				"y": 3.2887834152,
				"z": -1.5773609246,
				"element": "O" 
			},
			{
				"x": -2.4460030453,
				"y": 1.2152878993,
				"z": -0.8044821707,
				"element": "O" 
			},
			{
				"x": 1.8933653837,
				"y": 0.727261991,
				"z": 0.6383941667,
				"element": "C" 
			},
			{
				"x": 2.7621491133,
				"y": -0.2544333759,
				"z": 0.1776680838,
				"element": "C" 
			},
			{
				"x": -1.5826226413,
				"y": -3.1209280417,
				"z": -0.307549592,
				"element": "H" 
			},
			{
				"x": -1.2631587447,
				"y": -4.0755505531,
				"z": -1.7678746138,
				"element": "H" 
			},
			{
				"x": -1.5609995827,
				"y": -2.3294044929,
				"z": -1.8797577726,
				"element": "H" 
			},
			{
				"x": 1.0320204662,
				"y": -4.690908466,
				"z": -2.0134956119,
				"element": "H" 
			},
			{
				"x": -1.0851265348,
				"y": -0.7040985663,
				"z": -0.129374651,
				"element": "H" 
			},
			{
				"x": 0.1813339006,
				"y": 2.8998323165,
				"z": -0.4233319706,
				"element": "H" 
			},
			{
				"x": -0.9761202494,
				"y": 3.4186317589,
				"z": 0.8180621917,
				"element": "H" 
			},
			{
				"x": -1.6300851952,
				"y": 4.0585304628,
				"z": -1.4315188679,
				"element": "H" 
			},
			{
				"x": 2.2748655278,
				"y": 1.628874299,
				"z": 1.1073004074,
				"element": "H" 
			},
			{
				"x": 3.8380629168,
				"y": -0.1469565908,
				"z": 0.2600191609,
				"element": "H" 
			}
		],
		 "valence_orbital": [ 
			{
				"type": "occ",
				"energy": -0.30713,
				"method": "rhf"
			},
			{
				"type": "occ",
				"energy": -0.28414,
				"method": "rhf"
			},
			{
				"type": "occ",
				"energy": -0.26935,
				"method": "rhf"
			},
			{
				"type": "occ",
				"energy": -0.25609,
				"method": "rhf"
			},
			{
				"type": "occ",
				"energy": -0.23322,
				"method": "rhf"
			},
			{
				"type": "unocc",
				"energy": -0.06523,
				"method": "rhf"
			},
			{
				"type": "unocc",
				"energy": -0.01333,
				"method": "rhf"
			},
			{
				"type": "unocc",
				"energy": -0.00884,
				"method": "rhf"
			},
			{
				"type": "unocc",
				"energy": 0.00127,
				"method": "rhf"
			},
			{
				"type": "unocc",
				"energy": 0.0336,
				"method": "rhf"
			}
		],
		"cosmo_sigma_profile": { 
			"-0.025": 0.0,
			"-0.024": 0.0,
			"-0.023": 0.0,
			"-0.022": 0.0,
			"-0.021": 0.0,
			"-0.02": 0.396886789055,
			"-0.019": 1.74341887929,
			"-0.018": 0.924926336927,
			"-0.017": 1.46137417926,
			"-0.016": 1.72703830472,
			"-0.015": 1.13634287099,
			"-0.014": 0.885887556668,
			"-0.013": 1.03408515488,
			"-0.012": 1.17829674159,
			"-0.011": 1.95328731922,
			"-0.01": 1.90986662873,
			"-0.009": 3.0539920666,
			"-0.008": 5.2453428072,
			"-0.007": 9.62918488492,
			"-0.006": 13.922951393,
			"-0.005": 16.398393839,
			"-0.004": 15.5434933193,
			"-0.003": 16.0790153302,
			"-0.002": 16.6112367308,
			"-0.001": 18.7328723973,
			"0.0": 16.8678439843,
			"0.001": 17.6099282364,
			"0.002": 17.0157240439,
			"0.003": 8.95312532891,
			"0.004": 5.834475875,
			"0.005": 5.39102878385,
			"0.006": 6.00748880471,
			"0.007": 5.99875337168,
			"0.008": 6.0367372808,
			"0.009": 8.16134043369,
			"0.01": 10.4932762367,
			"0.011": 7.26329339589,
			"0.012": 8.4071916854,
			"0.013": 3.84393858458,
			"0.014": 0.23515488156,
			"0.015": 0.0,
			"0.016": 0.0,
			"0.017": 0.0,
			"0.018": 0.0,
			"0.019": 0.0,
			"0.02": 0.0,
			"0.021": 0.0,
			"0.022": 0.0,
			"0.023": 0.0,
			"0.024": 0.0,
			"0.025": 0.0
		}
	}
}
