{
	 "smiles": "ClCCCOC1=CC=CC=C1", 
	 "Tm": 285.15, 
	 "num_atms": 22, 
	 "gaussian": { 
		 "optdone": 1, 
		 "sigma_profile": "yes", 
		 "theory": "DFT", 
		 "functional": "B3LYP", 
		 "basiset": "6-31G**", 
		 "properties": { 
			 "R2extent": 3583.8882, 
			 "electric_dipole_moment_norm": 2.16412693944, 
			 "electric_quadrupole_moment_norm": 9.99660981583, 
			 "total_energy": -885.000588764, 
			 "HOMO_LUMO_gap": 0.21653, 
			 "cosmo_polarized_energy": -8.15, 
			 "cosmo_cavitation_energy": 26.82, 
			 "cosmo_dispersion_energy": -19.83, 
			 "cosmo_repulsion_energy": 1.62, 
			 "cosmo_total_nonelectrostatic_energy": 8.61, 
			 "SMD_solvation_energy": 4.32 
		},
		"coords": [
			{
				"x": 0.268792264,
				"y": -4.6681959387,
				"z": 2.4295668997,
				"element": "Cl" 
			},
			{
				"x": -0.372425482,
				"y": -2.9674228232,
				"z": 2.5776199316,
				"element": "C" 
			},
			{
				"x": -0.6379155322,
				"y": -2.3217855196,
				"z": 1.2250144651,
				"element": "C" 
			},
			{
				"x": 0.6214598319,
				"y": -2.12065605,
				"z": 0.3768090167,
				"element": "C" 
			},
			{
				"x": 0.3256056504,
				"y": -1.5089722531,
				"z": -0.8754293656,
				"element": "O" 
			},
			{
				"x": 0.1385181889,
				"y": -0.1548692239,
				"z": -0.9517269376,
				"element": "C" 
			},
			{
				"x": 0.2912169249,
				"y": 0.7438719802,
				"z": 0.1116437157,
				"element": "C" 
			},
			{
				"x": 0.0901935568,
				"y": 2.110953603,
				"z": -0.1067901023,
				"element": "C" 
			},
			{
				"x": -0.2623947874,
				"y": 2.592566427,
				"z": -1.3651626979,
				"element": "C" 
			},
			{
				"x": -0.4145895338,
				"y": 1.687970254,
				"z": -2.4217227813,
				"element": "C" 
			},
			{
				"x": -0.2175598657,
				"y": 0.3263703084,
				"z": -2.220878595,
				"element": "C" 
			},
			{
				"x": 0.3728875714,
				"y": -2.4169162425,
				"z": 3.1560435183,
				"element": "H" 
			},
			{
				"x": -1.2876867494,
				"y": -3.0452111672,
				"z": 3.1651157132,
				"element": "H" 
			},
			{
				"x": -1.1103531721,
				"y": -1.3503000949,
				"z": 1.418047898,
				"element": "H" 
			},
			{
				"x": -1.3581796926,
				"y": -2.9198542546,
				"z": 0.6576558001,
				"element": "H" 
			},
			{
				"x": 1.3822613593,
				"y": -1.5471570974,
				"z": 0.9234498174,
				"element": "H" 
			},
			{
				"x": 1.059654891,
				"y": -3.0879353522,
				"z": 0.1220912939,
				"element": "H" 
			},
			{
				"x": 0.5657488847,
				"y": 0.4007858619,
				"z": 1.1022392914,
				"element": "H" 
			},
			{
				"x": 0.2120728541,
				"y": 2.7994921988,
				"z": 0.7249088761,
				"element": "H" 
			},
			{
				"x": -0.4178008789,
				"y": 3.6550827703,
				"z": -1.5236267126,
				"element": "H" 
			},
			{
				"x": -0.688422058,
				"y": 2.045950325,
				"z": -3.410265441,
				"element": "H" 
			},
			{
				"x": -0.3287842252,
				"y": -0.3884677115,
				"z": -3.0297036039,
				"element": "H" 
			}
		],
		 "valence_orbital": [ 
			{
				"type": "occ",
				"energy": -0.31904,
				"method": "rhf"
			},
			{
				"type": "occ",
				"energy": -0.30049,
				"method": "rhf"
			},
			{
				"type": "occ",
				"energy": -0.29744,
				"method": "rhf"
			},
			{
				"type": "occ",
				"energy": -0.25095,
				"method": "rhf"
			},
			{
				"type": "occ",
				"energy": -0.21908,
				"method": "rhf"
			},
			{
				"type": "unocc",
				"energy": -0.00255,
				"method": "rhf"
			},
			{
				"type": "unocc",
				"energy": 0.01181,
				"method": "rhf"
			},
			{
				"type": "unocc",
				"energy": 0.02006,
				"method": "rhf"
			},
			{
				"type": "unocc",
				"energy": 0.07307,
				"method": "rhf"
			},
			{
				"type": "unocc",
				"energy": 0.09901,
				"method": "rhf"
			}
		],
		"cosmo_sigma_profile": { 
			"-0.025": 0.0,
			"-0.024": 0.0,
			"-0.023": 0.0,
			"-0.022": 0.0,
			"-0.021": 0.0,
			"-0.02": 0.0,
			"-0.019": 0.0,
			"-0.018": 0.0,
			"-0.017": 0.0,
			"-0.016": 0.0,
			"-0.015": 0.0,
			"-0.014": 0.0,
			"-0.013": 0.0,
			"-0.012": 0.0,
			"-0.011": 0.0,
			"-0.01": 0.0,
			"-0.009": 0.000502019468535,
			"-0.008": 1.35064725369,
			"-0.007": 8.42886072489,
			"-0.006": 10.9783316663,
			"-0.005": 19.6904532104,
			"-0.004": 20.8390133543,
			"-0.003": 18.9467623049,
			"-0.002": 14.0350168148,
			"-0.001": 12.6975075558,
			"0.0": 12.2512675198,
			"0.001": 9.90716300546,
			"0.002": 11.6426393112,
			"0.003": 12.953037158,
			"0.004": 14.8237600086,
			"0.005": 16.3105580548,
			"0.006": 17.8226896916,
			"0.007": 7.77560835692,
			"0.008": 0.913962877463,
			"0.009": 1.6053379013,
			"0.01": 1.24477498175,
			"0.011": 0.434906102475,
			"0.012": 0.0,
			"0.013": 0.0,
			"0.014": 0.0,
			"0.015": 0.0,
			"0.016": 0.0,
			"0.017": 0.0,
			"0.018": 0.0,
			"0.019": 0.0,
			"0.02": 0.0,
			"0.021": 0.0,
			"0.022": 0.0,
			"0.023": 0.0,
			"0.024": 0.0,
			"0.025": 0.0
		}
	}
}
