{
	 "smiles": "CN(C)C(=O)NC1=CC(Cl)=C(SC(F)(F)Cl)C=C1", 
	 "Tm": 387.15, 
	 "num_atms": 28, 
	 "gaussian": { 
		 "optdone": 1, 
		 "sigma_profile": "yes", 
		 "theory": "DFT", 
		 "functional": "B3LYP", 
		 "basiset": "6-31G**", 
		 "properties": { 
			 "R2extent": 8686.2631, 
			 "electric_dipole_moment_norm": 2.72660436624, 
			 "electric_quadrupole_moment_norm": 21.8101646837, 
			 "total_energy": -2090.06402747, 
			 "HOMO_LUMO_gap": 0.18993, 
			 "cosmo_polarized_energy": -12.44, 
			 "cosmo_cavitation_energy": 37.88, 
			 "cosmo_dispersion_energy": -26.4, 
			 "cosmo_repulsion_energy": 1.99, 
			 "cosmo_total_nonelectrostatic_energy": 13.47, 
			 "SMD_solvation_energy": 7.46 
		},
		"coords": [
			{
				"x": -1.8438958503,
				"y": 0.8949424918,
				"z": 1.9735528389,
				"element": "C" 
			},
			{
				"x": -1.5184268451,
				"y": -0.4626797201,
				"z": 2.4043023207,
				"element": "N" 
			},
			{
				"x": -1.7472008917,
				"y": -0.7344690903,
				"z": 3.8200864756,
				"element": "C" 
			},
			{
				"x": -1.5334574292,
				"y": -1.5481791007,
				"z": 1.5596654121,
				"element": "C" 
			},
			{
				"x": -1.8140844136,
				"y": -2.6843993413,
				"z": 1.9176127535,
				"element": "O" 
			},
			{
				"x": -1.2253333252,
				"y": -1.3035809176,
				"z": 0.199605901,
				"element": "N" 
			},
			{
				"x": -0.1435165322,
				"y": -0.6024132175,
				"z": -0.3508180252,
				"element": "C" 
			},
			{
				"x": 0.8164054725,
				"y": 0.0626530229,
				"z": 0.4278495771,
				"element": "C" 
			},
			{
				"x": 1.8664182202,
				"y": 0.7426912241,
				"z": -0.1844453965,
				"element": "C" 
			},
			{
				"x": 3.0237290266,
				"y": 1.5292794122,
				"z": 0.8672814872,
				"element": "Cl" 
			},
			{
				"x": 2.0012771881,
				"y": 0.7804962866,
				"z": -1.5847336353,
				"element": "C" 
			},
			{
				"x": 3.3583990762,
				"y": 1.5746250864,
				"z": -2.4204209203,
				"element": "S" 
			},
			{
				"x": 2.7271939668,
				"y": 3.2860330335,
				"z": -2.5941731036,
				"element": "C" 
			},
			{
				"x": 3.7422265691,
				"y": 4.0061880261,
				"z": -3.1012303398,
				"element": "F" 
			},
			{
				"x": 2.369451221,
				"y": 3.821374563,
				"z": -1.4171129566,
				"element": "F" 
			},
			{
				"x": 1.3068427002,
				"y": 3.4632218268,
				"z": -3.7068130304,
				"element": "Cl" 
			},
			{
				"x": 1.0467656723,
				"y": 0.0839383261,
				"z": -2.3450381898,
				"element": "C" 
			},
			{
				"x": -0.0092711217,
				"y": -0.5889250706,
				"z": -1.7511060175,
				"element": "C" 
			},
			{
				"x": -1.8700204868,
				"y": 0.9599617171,
				"z": 0.8879824879,
				"element": "H" 
			},
			{
				"x": -1.1069345359,
				"y": 1.612259944,
				"z": 2.3510796342,
				"element": "H" 
			},
			{
				"x": -2.8313198528,
				"y": 1.1813404871,
				"z": 2.3593076995,
				"element": "H" 
			},
			{
				"x": -1.3614378472,
				"y": -1.7226126808,
				"z": 4.0651760591,
				"element": "H" 
			},
			{
				"x": -1.2313395631,
				"y": 0.0236276527,
				"z": 4.417243062,
				"element": "H" 
			},
			{
				"x": -2.8170670429,
				"y": -0.7089702105,
				"z": 4.0679033841,
				"element": "H" 
			},
			{
				"x": -1.5232271255,
				"y": -2.1002100565,
				"z": -0.3495971147,
				"element": "H" 
			},
			{
				"x": 0.7583125632,
				"y": 0.0358533997,
				"z": 1.5074978491,
				"element": "H" 
			},
			{
				"x": 1.1413114613,
				"y": 0.0892095191,
				"z": -3.4254007046,
				"element": "H" 
			},
			{
				"x": -0.7412002743,
				"y": -1.1031566132,
				"z": -2.3670575078,
				"element": "H" 
			}
		],
		 "valence_orbital": [ 
			{
				"type": "occ",
				"energy": -0.28232,
				"method": "rhf"
			},
			{
				"type": "occ",
				"energy": -0.26646,
				"method": "rhf"
			},
			{
				"type": "occ",
				"energy": -0.26308,
				"method": "rhf"
			},
			{
				"type": "occ",
				"energy": -0.25366,
				"method": "rhf"
			},
			{
				"type": "occ",
				"energy": -0.23816,
				"method": "rhf"
			},
			{
				"type": "unocc",
				"energy": -0.04823,
				"method": "rhf"
			},
			{
				"type": "unocc",
				"energy": -0.03159,
				"method": "rhf"
			},
			{
				"type": "unocc",
				"energy": -0.01112,
				"method": "rhf"
			},
			{
				"type": "unocc",
				"energy": 0.00805,
				"method": "rhf"
			},
			{
				"type": "unocc",
				"energy": 0.02601,
				"method": "rhf"
			}
		],
		"cosmo_sigma_profile": { 
			"-0.025": 0.0,
			"-0.024": 0.0,
			"-0.023": 0.0,
			"-0.022": 0.0,
			"-0.021": 0.0,
			"-0.02": 0.0,
			"-0.019": 0.0,
			"-0.018": 0.0,
			"-0.017": 0.0,
			"-0.016": 0.0,
			"-0.015": 0.218410295327,
			"-0.014": 1.37611487382,
			"-0.013": 0.983481416531,
			"-0.012": 1.38483877999,
			"-0.011": 0.872754729285,
			"-0.01": 1.14469617074,
			"-0.009": 1.54039141812,
			"-0.008": 2.56195002528,
			"-0.007": 3.75283736931,
			"-0.006": 5.69146752928,
			"-0.005": 17.1705249804,
			"-0.004": 20.3514112001,
			"-0.003": 24.9163265482,
			"-0.002": 31.4254212057,
			"-0.001": 25.531803584,
			"0.0": 25.5240472382,
			"0.001": 36.2953749674,
			"0.002": 39.7153582855,
			"0.003": 26.6690945003,
			"0.004": 15.7730159249,
			"0.005": 5.12924612283,
			"0.006": 2.68184775793,
			"0.007": 1.75360190986,
			"0.008": 1.57303177736,
			"0.009": 1.0209611834,
			"0.01": 1.64520483268,
			"0.011": 1.44640013626,
			"0.012": 1.89649932356,
			"0.013": 5.39053835084,
			"0.014": 2.58586747465,
			"0.015": 0.00975347708612,
			"0.016": 0.0,
			"0.017": 0.0,
			"0.018": 0.0,
			"0.019": 0.0,
			"0.02": 0.0,
			"0.021": 0.0,
			"0.022": 0.0,
			"0.023": 0.0,
			"0.024": 0.0,
			"0.025": 0.0
		}
	}
}
