{
	 "smiles": "NC(=O)CN1N=CC(Cl)=C(Cl)C1=O", 
	 "Tm": 519.15, 
	 "num_atms": 18, 
	 "gaussian": { 
		 "optdone": 1, 
		 "sigma_profile": "yes", 
		 "theory": "DFT", 
		 "functional": "B3LYP", 
		 "basiset": "6-31G**", 
		 "properties": { 
			 "R2extent": 4179.4582, 
			 "electric_dipole_moment_norm": 2.16781306159, 
			 "electric_quadrupole_moment_norm": 14.202147469, 
			 "total_energy": -1466.72174645, 
			 "HOMO_LUMO_gap": 0.15982, 
			 "cosmo_polarized_energy": -14.32, 
			 "cosmo_cavitation_energy": 26.62, 
			 "cosmo_dispersion_energy": -19.87, 
			 "cosmo_repulsion_energy": 1.59, 
			 "cosmo_total_nonelectrostatic_energy": 8.35, 
			 "SMD_solvation_energy": 4.61 
		},
		"coords": [
			{
				"x": -2.6792146587,
				"y": -0.1991541041,
				"z": 0.5294295759,
				"element": "N" 
			},
			{
				"x": -2.4081799337,
				"y": -1.3772777911,
				"z": -0.0880262633,
				"element": "C" 
			},
			{
				"x": -2.9263048672,
				"y": -1.7515889761,
				"z": -1.1277464922,
				"element": "O" 
			},
			{
				"x": -1.3784928366,
				"y": -2.2674832772,
				"z": 0.6458672926,
				"element": "C" 
			},
			{
				"x": -0.0392347777,
				"y": -1.6681451708,
				"z": 0.7683454468,
				"element": "N" 
			},
			{
				"x": 0.844996887,
				"y": -2.0481758225,
				"z": -0.1647063999,
				"element": "N" 
			},
			{
				"x": 2.0560590415,
				"y": -1.5694546352,
				"z": -0.0955039585,
				"element": "C" 
			},
			{
				"x": 2.4807881394,
				"y": -0.6728657753,
				"z": 0.9302763113,
				"element": "C" 
			},
			{
				"x": 4.1260756726,
				"y": -0.127156602,
				"z": 0.9077315631,
				"element": "Cl" 
			},
			{
				"x": 1.5788819418,
				"y": -0.2860718583,
				"z": 1.8842997362,
				"element": "C" 
			},
			{
				"x": 1.9571252639,
				"y": 0.7845037345,
				"z": 3.1766975289,
				"element": "Cl" 
			},
			{
				"x": 0.2020964724,
				"y": -0.7754532707,
				"z": 1.8234557414,
				"element": "C" 
			},
			{
				"x": -0.6961570737,
				"y": -0.4586137573,
				"z": 2.6030859515,
				"element": "O" 
			},
			{
				"x": -3.3661425386,
				"y": 0.4079330181,
				"z": 0.1082889023,
				"element": "H" 
			},
			{
				"x": -2.2715668692,
				"y": 0.019749541,
				"z": 1.4312376705,
				"element": "H" 
			},
			{
				"x": -1.264333643,
				"y": -3.1783468489,
				"z": 0.0636052751,
				"element": "H" 
			},
			{
				"x": -1.7318289202,
				"y": -2.490341852,
				"z": 1.6559432169,
				"element": "H" 
			},
			{
				"x": 2.7494326999,
				"y": -1.894756552,
				"z": -0.8628810986,
				"element": "H" 
			}
		],
		 "valence_orbital": [ 
			{
				"type": "occ",
				"energy": -0.30753,
				"method": "rhf"
			},
			{
				"type": "occ",
				"energy": -0.28942,
				"method": "rhf"
			},
			{
				"type": "occ",
				"energy": -0.27167,
				"method": "rhf"
			},
			{
				"type": "occ",
				"energy": -0.26814,
				"method": "rhf"
			},
			{
				"type": "occ",
				"energy": -0.25123,
				"method": "rhf"
			},
			{
				"type": "unocc",
				"energy": -0.09141,
				"method": "rhf"
			},
			{
				"type": "unocc",
				"energy": -0.03531,
				"method": "rhf"
			},
			{
				"type": "unocc",
				"energy": -0.02049,
				"method": "rhf"
			},
			{
				"type": "unocc",
				"energy": 0.01414,
				"method": "rhf"
			},
			{
				"type": "unocc",
				"energy": 0.04367,
				"method": "rhf"
			}
		],
		"cosmo_sigma_profile": { 
			"-0.025": 0.0,
			"-0.024": 0.0,
			"-0.023": 0.0,
			"-0.022": 0.0,
			"-0.021": 0.0,
			"-0.02": 0.0,
			"-0.019": 0.0,
			"-0.018": 0.0,
			"-0.017": 0.0,
			"-0.016": 0.0,
			"-0.015": 0.0630421989993,
			"-0.014": 0.899710869734,
			"-0.013": 1.39652090121,
			"-0.012": 0.953713722476,
			"-0.011": 0.726392587836,
			"-0.01": 2.97496832664,
			"-0.009": 3.7815676112,
			"-0.008": 6.41345375526,
			"-0.007": 7.78119486308,
			"-0.006": 8.7897635311,
			"-0.005": 13.5072038466,
			"-0.004": 18.146813821,
			"-0.003": 17.0589082354,
			"-0.002": 13.7285771607,
			"-0.001": 12.9522006962,
			"0.0": 13.4993164962,
			"0.001": 15.6571491634,
			"0.002": 20.2659627102,
			"0.003": 15.013569915,
			"0.004": 5.62040593714,
			"0.005": 3.46665808796,
			"0.006": 3.74105312113,
			"0.007": 2.83289105218,
			"0.008": 3.99516549924,
			"0.009": 3.63458509553,
			"0.01": 3.43762854808,
			"0.011": 4.30401696562,
			"0.012": 4.44159477481,
			"0.013": 6.23132168683,
			"0.014": 2.74064059901,
			"0.015": 0.0755172202282,
			"0.016": 0.0,
			"0.017": 0.0,
			"0.018": 0.0,
			"0.019": 0.0,
			"0.02": 0.0,
			"0.021": 0.0,
			"0.022": 0.0,
			"0.023": 0.0,
			"0.024": 0.0,
			"0.025": 0.0
		}
	}
}
