{
	 "smiles": "NC(=O)C1=C(NC(=O)CCl)SC2=C1CCCC2", 
	 "Tm": 510.15, 
	 "num_atms": 30, 
	 "gaussian": { 
		 "optdone": 1, 
		 "sigma_profile": "yes", 
		 "theory": "DFT", 
		 "functional": "B3LYP", 
		 "basiset": "6-31G**", 
		 "properties": { 
			 "R2extent": 6886.9902, 
			 "electric_dipole_moment_norm": 4.38475693055, 
			 "electric_quadrupole_moment_norm": 13.0387132367, 
			 "total_energy": -1545.38433438, 
			 "HOMO_LUMO_gap": 0.16709, 
			 "cosmo_polarized_energy": -15.99, 
			 "cosmo_cavitation_energy": 35.07, 
			 "cosmo_dispersion_energy": -26.73, 
			 "cosmo_repulsion_energy": 2.04, 
			 "cosmo_total_nonelectrostatic_energy": 10.38, 
			 "SMD_solvation_energy": 5.48 
		},
		"coords": [
			{
				"x": -2.8928524324,
				"y": 3.0556450888,
				"z": -0.7194971073,
				"element": "N" 
			},
			{
				"x": -1.7305776447,
				"y": 2.5759700883,
				"z": -1.2619072145,
				"element": "C" 
			},
			{
				"x": -1.3209849585,
				"y": 3.0539388868,
				"z": -2.331921729,
				"element": "O" 
			},
			{
				"x": -1.0108884181,
				"y": 1.4926972636,
				"z": -0.5548148699,
				"element": "C" 
			},
			{
				"x": 0.2595641979,
				"y": 1.1228468062,
				"z": -0.9873744475,
				"element": "C" 
			},
			{
				"x": 0.90696859,
				"y": 1.6657510826,
				"z": -2.0833710978,
				"element": "N" 
			},
			{
				"x": 2.1607006091,
				"y": 1.3183713899,
				"z": -2.4830248814,
				"element": "C" 
			},
			{
				"x": 2.8558752105,
				"y": 0.4871874669,
				"z": -1.9086970007,
				"element": "O" 
			},
			{
				"x": 2.741980839,
				"y": 1.9905129559,
				"z": -3.7242156338,
				"element": "C" 
			},
			{
				"x": 1.7280422327,
				"y": 3.2536057984,
				"z": -4.5222137376,
				"element": "Cl" 
			},
			{
				"x": 0.9678442433,
				"y": -0.1190371601,
				"z": 0.0068956091,
				"element": "S" 
			},
			{
				"x": -0.4691135296,
				"y": -0.1701210041,
				"z": 1.006536849,
				"element": "C" 
			},
			{
				"x": -1.4274962876,
				"y": 0.7158649006,
				"z": 0.5988045842,
				"element": "C" 
			},
			{
				"x": -2.7638814658,
				"y": 0.7868026656,
				"z": 1.3105355538,
				"element": "C" 
			},
			{
				"x": -2.9983376077,
				"y": -0.427462375,
				"z": 2.2266397624,
				"element": "C" 
			},
			{
				"x": -1.7568634285,
				"y": -0.7477218064,
				"z": 3.067092415,
				"element": "C" 
			},
			{
				"x": -0.5750084549,
				"y": -1.1303541568,
				"z": 2.1611360548,
				"element": "C" 
			},
			{
				"x": -3.2670230941,
				"y": 3.8754345432,
				"z": -1.1751605724,
				"element": "H" 
			},
			{
				"x": -3.1220639025,
				"y": 2.9123679464,
				"z": 0.2494799651,
				"element": "H" 
			},
			{
				"x": 0.3237755488,
				"y": 2.3509037272,
				"z": -2.5844668317,
				"element": "H" 
			},
			{
				"x": 2.9443956248,
				"y": 1.2150542829,
				"z": -4.464465822,
				"element": "H" 
			},
			{
				"x": 3.6874992175,
				"y": 2.4547288014,
				"z": -3.4415793775,
				"element": "H" 
			},
			{
				"x": -2.8149958824,
				"y": 1.7024378906,
				"z": 1.9234801093,
				"element": "H" 
			},
			{
				"x": -3.5787082295,
				"y": 0.8521243784,
				"z": 0.580640223,
				"element": "H" 
			},
			{
				"x": -3.2504591077,
				"y": -1.2995478382,
				"z": 1.6094645419,
				"element": "H" 
			},
			{
				"x": -3.8632083914,
				"y": -0.2362181471,
				"z": 2.8713919866,
				"element": "H" 
			},
			{
				"x": -1.9657632004,
				"y": -1.5629309058,
				"z": 3.7683376378,
				"element": "H" 
			},
			{
				"x": -1.4873433299,
				"y": 0.129914383,
				"z": 3.6690810075,
				"element": "H" 
			},
			{
				"x": 0.3577133323,
				"y": -1.1436226209,
				"z": 2.7383685362,
				"element": "H" 
			},
			{
				"x": -0.7144902803,
				"y": -2.1545443322,
				"z": 1.7854254877,
				"element": "H" 
			}
		],
		 "valence_orbital": [ 
			{
				"type": "occ",
				"energy": -0.27796,
				"method": "rhf"
			},
			{
				"type": "occ",
				"energy": -0.27021,
				"method": "rhf"
			},
			{
				"type": "occ",
				"energy": -0.25853,
				"method": "rhf"
			},
			{
				"type": "occ",
				"energy": -0.24946,
				"method": "rhf"
			},
			{
				"type": "occ",
				"energy": -0.20739,
				"method": "rhf"
			},
			{
				"type": "unocc",
				"energy": -0.0403,
				"method": "rhf"
			},
			{
				"type": "unocc",
				"energy": 0.01187,
				"method": "rhf"
			},
			{
				"type": "unocc",
				"energy": 0.01982,
				"method": "rhf"
			},
			{
				"type": "unocc",
				"energy": 0.03121,
				"method": "rhf"
			},
			{
				"type": "unocc",
				"energy": 0.03676,
				"method": "rhf"
			}
		],
		"cosmo_sigma_profile": { 
			"-0.025": 0.0,
			"-0.024": 0.0,
			"-0.023": 0.0,
			"-0.022": 0.0,
			"-0.021": 0.0,
			"-0.02": 0.0,
			"-0.019": 0.0,
			"-0.018": 0.0,
			"-0.017": 0.0,
			"-0.016": 0.0,
			"-0.015": 0.0,
			"-0.014": 0.569502185054,
			"-0.013": 1.95931998666,
			"-0.012": 2.20478953288,
			"-0.011": 2.28125083487,
			"-0.01": 3.850939879,
			"-0.009": 6.84403920026,
			"-0.008": 5.17018553779,
			"-0.007": 5.99182472941,
			"-0.006": 6.56770533004,
			"-0.005": 7.13716340099,
			"-0.004": 14.0562362394,
			"-0.003": 24.0078450069,
			"-0.002": 30.4381313836,
			"-0.001": 29.8645918864,
			"0.0": 24.7152643986,
			"0.001": 17.1340790051,
			"0.002": 16.5777300811,
			"0.003": 16.1141416695,
			"0.004": 16.7457987523,
			"0.005": 16.5640496728,
			"0.006": 4.85871655539,
			"0.007": 3.60412670638,
			"0.008": 3.1189234182,
			"0.009": 3.61404676521,
			"0.01": 4.17501399429,
			"0.011": 4.05339246447,
			"0.012": 5.18938118645,
			"0.013": 2.89367717401,
			"0.014": 1.04166774194,
			"0.015": 0.0,
			"0.016": 0.0,
			"0.017": 0.0,
			"0.018": 0.0,
			"0.019": 0.0,
			"0.02": 0.0,
			"0.021": 0.0,
			"0.022": 0.0,
			"0.023": 0.0,
			"0.024": 0.0,
			"0.025": 0.0
		}
	}
}
