{
	 "smiles": "CN(C)C1=CC=CC2=C1C(=CC=C2)N(C)C", 
	 "Tm": 322.15, 
	 "num_atms": 34, 
	 "gaussian": { 
		 "optdone": 1, 
		 "sigma_profile": "yes", 
		 "theory": "DFT", 
		 "functional": "B3LYP", 
		 "basiset": "6-31G**", 
		 "properties": { 
			 "R2extent": 3633.4899, 
			 "electric_dipole_moment_norm": 1.42024849234, 
			 "electric_quadrupole_moment_norm": 6.26902706965, 
			 "total_energy": -653.820079653, 
			 "HOMO_LUMO_gap": 0.15611, 
			 "cosmo_polarized_energy": -5.45, 
			 "cosmo_cavitation_energy": 33.91, 
			 "cosmo_dispersion_energy": -23.77, 
			 "cosmo_repulsion_energy": 1.8, 
			 "cosmo_total_nonelectrostatic_energy": 11.94, 
			 "SMD_solvation_energy": 7.02 
		},
		"coords": [
			{
				"x": 1.0496786912,
				"y": -2.1329846549,
				"z": 1.4463757367,
				"element": "C" 
			},
			{
				"x": 0.0679548953,
				"y": -1.1933072478,
				"z": 0.9328562965,
				"element": "N" 
			},
			{
				"x": -1.1139849275,
				"y": -1.1316408646,
				"z": 1.7923437282,
				"element": "C" 
			},
			{
				"x": -0.1884356999,
				"y": -1.2057327045,
				"z": -0.4616059444,
				"element": "C" 
			},
			{
				"x": 0.1462851229,
				"y": -2.3235796118,
				"z": -1.2171701123,
				"element": "C" 
			},
			{
				"x": -0.1783965297,
				"y": -2.4299004794,
				"z": -2.5839259277,
				"element": "C" 
			},
			{
				"x": -0.9037058396,
				"y": -1.4373848747,
				"z": -3.1911711121,
				"element": "C" 
			},
			{
				"x": -1.25028483,
				"y": -0.2586094278,
				"z": -2.4774346016,
				"element": "C" 
			},
			{
				"x": -0.8133594053,
				"y": -0.0704002552,
				"z": -1.1164477971,
				"element": "C" 
			},
			{
				"x": -1.0386647122,
				"y": 1.2370923684,
				"z": -0.5265074911,
				"element": "C" 
			},
			{
				"x": -1.8325402193,
				"y": 2.1571612106,
				"z": -1.201601975,
				"element": "C" 
			},
			{
				"x": -2.357850083,
				"y": 1.8973293455,
				"z": -2.4827194708,
				"element": "C" 
			},
			{
				"x": -2.0347609062,
				"y": 0.7315196439,
				"z": -3.1280247158,
				"element": "C" 
			},
			{
				"x": -0.4493464029,
				"y": 1.5889718579,
				"z": 0.7141411542,
				"element": "N" 
			},
			{
				"x": 1.012133937,
				"y": 1.6472085537,
				"z": 0.7261645361,
				"element": "C" 
			},
			{
				"x": -1.0313426137,
				"y": 2.7007924762,
				"z": 1.4459733673,
				"element": "C" 
			},
			{
				"x": 1.3017316194,
				"y": -1.8464214058,
				"z": 2.4730200983,
				"element": "H" 
			},
			{
				"x": 1.9626769484,
				"y": -2.0936696336,
				"z": 0.8464217193,
				"element": "H" 
			},
			{
				"x": 0.6980932621,
				"y": -3.1808176153,
				"z": 1.47549507,
				"element": "H" 
			},
			{
				"x": -1.5874887567,
				"y": -2.1235443041,
				"z": 1.9017042801,
				"element": "H" 
			},
			{
				"x": -0.8284563327,
				"y": -0.7747752326,
				"z": 2.7877866058,
				"element": "H" 
			},
			{
				"x": -1.8471220476,
				"y": -0.4404100949,
				"z": 1.3829594744,
				"element": "H" 
			},
			{
				"x": 0.6206593126,
				"y": -3.1692287137,
				"z": -0.7340285653,
				"element": "H" 
			},
			{
				"x": 0.101557588,
				"y": -3.3260494329,
				"z": -3.1307779849,
				"element": "H" 
			},
			{
				"x": -1.2208150141,
				"y": -1.5288838551,
				"z": -4.2261999952,
				"element": "H" 
			},
			{
				"x": -2.0102324002,
				"y": 3.1306253761,
				"z": -0.7607107414,
				"element": "H" 
			},
			{
				"x": -2.970064366,
				"y": 2.6503482267,
				"z": -2.971246513,
				"element": "H" 
			},
			{
				"x": -2.3752936107,
				"y": 0.5396910076,
				"z": -4.1416597612,
				"element": "H" 
			},
			{
				"x": 1.3764288683,
				"y": 1.5677550824,
				"z": 1.7560798985,
				"element": "H" 
			},
			{
				"x": 1.4311106084,
				"y": 0.8219589572,
				"z": 0.1549316094,
				"element": "H" 
			},
			{
				"x": 1.3831458157,
				"y": 2.5957016447,
				"z": 0.2986813706,
				"element": "H" 
			},
			{
				"x": -0.8102325109,
				"y": 3.6923174998,
				"z": 1.009612432,
				"element": "H" 
			},
			{
				"x": -0.6274343195,
				"y": 2.6966652431,
				"z": 2.4640570421,
				"element": "H" 
			},
			{
				"x": -2.1168451414,
				"y": 2.5874019148,
				"z": 1.5082282895,
				"element": "H" 
			}
		],
		 "valence_orbital": [ 
			{
				"type": "occ",
				"energy": -0.27906,
				"method": "rhf"
			},
			{
				"type": "occ",
				"energy": -0.24834,
				"method": "rhf"
			},
			{
				"type": "occ",
				"energy": -0.23289,
				"method": "rhf"
			},
			{
				"type": "occ",
				"energy": -0.19312,
				"method": "rhf"
			},
			{
				"type": "occ",
				"energy": -0.18009,
				"method": "rhf"
			},
			{
				"type": "unocc",
				"energy": -0.02398,
				"method": "rhf"
			},
			{
				"type": "unocc",
				"energy": -0.00177,
				"method": "rhf"
			},
			{
				"type": "unocc",
				"energy": 0.04678,
				"method": "rhf"
			},
			{
				"type": "unocc",
				"energy": 0.08362,
				"method": "rhf"
			},
			{
				"type": "unocc",
				"energy": 0.10485,
				"method": "rhf"
			}
		],
		"cosmo_sigma_profile": { 
			"-0.025": 0.0,
			"-0.024": 0.0,
			"-0.023": 0.0,
			"-0.022": 0.0,
			"-0.021": 0.0,
			"-0.02": 0.0,
			"-0.019": 0.0,
			"-0.018": 0.0,
			"-0.017": 0.0,
			"-0.016": 0.0,
			"-0.015": 0.0,
			"-0.014": 0.0,
			"-0.013": 0.0,
			"-0.012": 0.0,
			"-0.011": 0.0,
			"-0.01": 0.0,
			"-0.009": 0.0,
			"-0.008": 0.0,
			"-0.007": 0.0,
			"-0.006": 0.75984845989,
			"-0.005": 10.1200801674,
			"-0.004": 20.4686405875,
			"-0.003": 33.1352982238,
			"-0.002": 35.5705707097,
			"-0.001": 39.119461238,
			"0.0": 36.1894849187,
			"0.001": 15.9121426234,
			"0.002": 12.0961541023,
			"0.003": 12.1634413777,
			"0.004": 12.630556478,
			"0.005": 17.7517823803,
			"0.006": 16.3515671782,
			"0.007": 4.38904876062,
			"0.008": 0.101622782622,
			"0.009": 0.0,
			"0.01": 0.0,
			"0.011": 0.0,
			"0.012": 0.0,
			"0.013": 0.0,
			"0.014": 0.0,
			"0.015": 0.0,
			"0.016": 0.0,
			"0.017": 0.0,
			"0.018": 0.0,
			"0.019": 0.0,
			"0.02": 0.0,
			"0.021": 0.0,
			"0.022": 0.0,
			"0.023": 0.0,
			"0.024": 0.0,
			"0.025": 0.0
		}
	}
}
