{
	 "smiles": "OC(=O)C1=C(F)C=CC(=C1)S(=O)(=O)N1CCOCC1", 
	 "Tm": 475.15, 
	 "num_atms": 31, 
	 "gaussian": { 
		 "optdone": 1, 
		 "sigma_profile": "yes", 
		 "theory": "DFT", 
		 "functional": "B3LYP", 
		 "basiset": "6-31G**", 
		 "properties": { 
			 "R2extent": 6822.6282, 
			 "electric_dipole_moment_norm": 3.58156947999, 
			 "electric_quadrupole_moment_norm": 25.3851485048, 
			 "total_energy": -1355.19717275, 
			 "HOMO_LUMO_gap": 0.18638, 
			 "cosmo_polarized_energy": -23.25, 
			 "cosmo_cavitation_energy": 36.41, 
			 "cosmo_dispersion_energy": -26.12, 
			 "cosmo_repulsion_energy": 1.96, 
			 "cosmo_total_nonelectrostatic_energy": 12.24, 
			 "SMD_solvation_energy": 6.06 
		},
		"coords": [
			{
				"x": 1.226412645,
				"y": 4.9893232826,
				"z": 0.3973455267,
				"element": "O" 
			},
			{
				"x": -0.1118747349,
				"y": 4.7680598421,
				"z": 0.4856223955,
				"element": "C" 
			},
			{
				"x": -0.832225461,
				"y": 5.5651757814,
				"z": 1.0298178812,
				"element": "O" 
			},
			{
				"x": -0.591262902,
				"y": 3.4682923015,
				"z": -0.0974623638,
				"element": "C" 
			},
			{
				"x": -1.8533863482,
				"y": 3.3713954619,
				"z": -0.6995303371,
				"element": "C" 
			},
			{
				"x": -2.615697641,
				"y": 4.4599545307,
				"z": -0.824391582,
				"element": "F" 
			},
			{
				"x": -2.3372545854,
				"y": 2.170634458,
				"z": -1.2159785088,
				"element": "C" 
			},
			{
				"x": -1.5627451796,
				"y": 1.0206250736,
				"z": -1.1129744188,
				"element": "C" 
			},
			{
				"x": -0.3097229044,
				"y": 1.0929529765,
				"z": -0.4970966071,
				"element": "C" 
			},
			{
				"x": 0.1788764237,
				"y": 2.2997807336,
				"z": -0.0046553561,
				"element": "C" 
			},
			{
				"x": 0.7018038346,
				"y": -0.3852594607,
				"z": -0.3667840496,
				"element": "S" 
			},
			{
				"x": 0.5039019682,
				"y": -1.1759276708,
				"z": -1.5855821826,
				"element": "O" 
			},
			{
				"x": 2.0399202272,
				"y": 0.063725929,
				"z": 0.041251257,
				"element": "O" 
			},
			{
				"x": -0.0447253665,
				"y": -1.2274710442,
				"z": 0.8879964505,
				"element": "N" 
			},
			{
				"x": 0.3333204566,
				"y": -0.8083986597,
				"z": 2.255773533,
				"element": "C" 
			},
			{
				"x": -0.2957356527,
				"y": -1.7813444826,
				"z": 3.2489789007,
				"element": "C" 
			},
			{
				"x": 0.1766425242,
				"y": -3.1133141231,
				"z": 3.0905106215,
				"element": "O" 
			},
			{
				"x": 0.5029767714,
				"y": -3.4764293049,
				"z": 1.7486338075,
				"element": "C" 
			},
			{
				"x": -0.2888865344,
				"y": -2.6795675354,
				"z": 0.7172950644,
				"element": "C" 
			},
			{
				"x": 1.6411509119,
				"y": 4.3464931235,
				"z": -0.1956543596,
				"element": "H" 
			},
			{
				"x": -3.3102710408,
				"y": 2.1611376847,
				"z": -1.6943030076,
				"element": "H" 
			},
			{
				"x": -1.9162551402,
				"y": 0.0784992677,
				"z": -1.5173639834,
				"element": "H" 
			},
			{
				"x": 1.1569278027,
				"y": 2.3146089558,
				"z": 0.4658332982,
				"element": "H" 
			},
			{
				"x": 1.4223887061,
				"y": -0.7950855287,
				"z": 2.381545518,
				"element": "H" 
			},
			{
				"x": -0.0435448642,
				"y": 0.2036040051,
				"z": 2.4440175685,
				"element": "H" 
			},
			{
				"x": -1.3919950189,
				"y": -1.7449327586,
				"z": 3.1529566079,
				"element": "H" 
			},
			{
				"x": -0.0406361915,
				"y": -1.4735779546,
				"z": 4.2677650618,
				"element": "H" 
			},
			{
				"x": 0.2808488819,
				"y": -4.5439597989,
				"z": 1.6438505748,
				"element": "H" 
			},
			{
				"x": 1.5801371932,
				"y": -3.337539583,
				"z": 1.5719107925,
				"element": "H" 
			},
			{
				"x": -1.3617962018,
				"y": -2.8724754629,
				"z": 0.8367463458,
				"element": "H" 
			},
			{
				"x": -0.0078925792,
				"y": -2.9742800396,
				"z": -0.2947744488,
				"element": "H" 
			}
		],
		 "valence_orbital": [ 
			{
				"type": "occ",
				"energy": -0.30197,
				"method": "rhf"
			},
			{
				"type": "occ",
				"energy": -0.29127,
				"method": "rhf"
			},
			{
				"type": "occ",
				"energy": -0.28384,
				"method": "rhf"
			},
			{
				"type": "occ",
				"energy": -0.26676,
				"method": "rhf"
			},
			{
				"type": "occ",
				"energy": -0.25798,
				"method": "rhf"
			},
			{
				"type": "unocc",
				"energy": -0.0716,
				"method": "rhf"
			},
			{
				"type": "unocc",
				"energy": -0.05527,
				"method": "rhf"
			},
			{
				"type": "unocc",
				"energy": 0.0135,
				"method": "rhf"
			},
			{
				"type": "unocc",
				"energy": 0.03913,
				"method": "rhf"
			},
			{
				"type": "unocc",
				"energy": 0.05838,
				"method": "rhf"
			}
		],
		"cosmo_sigma_profile": { 
			"-0.025": 0.0,
			"-0.024": 0.0,
			"-0.023": 0.0,
			"-0.022": 0.0,
			"-0.021": 0.0,
			"-0.02": 0.0295872130023,
			"-0.019": 0.868666907885,
			"-0.018": 1.09303854461,
			"-0.017": 1.00002243568,
			"-0.016": 1.0726228323,
			"-0.015": 0.769377280675,
			"-0.014": 0.796163886264,
			"-0.013": 1.38134476621,
			"-0.012": 1.21334569459,
			"-0.011": 0.820161890216,
			"-0.01": 1.42069602154,
			"-0.009": 3.64891448173,
			"-0.008": 6.34795520543,
			"-0.007": 5.56103696142,
			"-0.006": 15.9936567375,
			"-0.005": 29.9215230484,
			"-0.004": 26.3870044133,
			"-0.003": 21.1529136984,
			"-0.002": 22.9103113749,
			"-0.001": 17.0475249994,
			"0.0": 15.1355636898,
			"0.001": 11.0045631188,
			"0.002": 10.7862716747,
			"0.003": 12.7734760773,
			"0.004": 7.64441621278,
			"0.005": 7.53051003834,
			"0.006": 5.76822113556,
			"0.007": 7.49133359155,
			"0.008": 7.42186234828,
			"0.009": 10.06014918,
			"0.01": 14.0314483698,
			"0.011": 13.4655980024,
			"0.012": 4.72196355463,
			"0.013": 1.94943144439,
			"0.014": 0.156710642169,
			"0.015": 0.0,
			"0.016": 0.0,
			"0.017": 0.0,
			"0.018": 0.0,
			"0.019": 0.0,
			"0.02": 0.0,
			"0.021": 0.0,
			"0.022": 0.0,
			"0.023": 0.0,
			"0.024": 0.0,
			"0.0": 0.0
		}
	}
}
