{
	 "smiles": "CC(=O)C1=NC2=CC=CC=C2S1", 
	 "Tm": 383.15, 
	 "num_atms": 19, 
	 "gaussian": { 
		 "optdone": 1, 
		 "sigma_profile": "yes", 
		 "theory": "DFT", 
		 "functional": "B3LYP", 
		 "basiset": "6-31G**", 
		 "properties": { 
			 "R2extent": 2893.5881, 
			 "electric_dipole_moment_norm": 2.9963560753, 
			 "electric_quadrupole_moment_norm": 11.7941414033, 
			 "total_energy": -875.347787053, 
			 "HOMO_LUMO_gap": 0.16174, 
			 "cosmo_polarized_energy": -7.87, 
			 "cosmo_cavitation_energy": 25.25, 
			 "cosmo_dispersion_energy": -19.18, 
			 "cosmo_repulsion_energy": 1.47, 
			 "cosmo_total_nonelectrostatic_energy": 7.55, 
			 "SMD_solvation_energy": 3.2 
		},
		"coords": [
			{
				"x": 1.3300554997,
				"y": 2.9510957728,
				"z": 2.8462487399,
				"element": "C" 
			},
			{
				"x": 0.0482737259,
				"y": 2.942365955,
				"z": 2.0467042072,
				"element": "C" 
			},
			{
				"x": -0.8952943095,
				"y": 3.6804848053,
				"z": 2.2773567303,
				"element": "O" 
			},
			{
				"x": -0.0393203854,
				"y": 1.965549078,
				"z": 0.9232154942,
				"element": "C" 
			},
			{
				"x": 0.8992925415,
				"y": 1.1325544008,
				"z": 0.5875922072,
				"element": "N" 
			},
			{
				"x": 0.5109655623,
				"y": 0.3648588942,
				"z": -0.491997075,
				"element": "C" 
			},
			{
				"x": 1.29607881,
				"y": -0.6302201097,
				"z": -1.0996999599,
				"element": "C" 
			},
			{
				"x": 0.7752511612,
				"y": -1.3249151724,
				"z": -2.1808550493,
				"element": "C" 
			},
			{
				"x": -0.5171867972,
				"y": -1.042750538,
				"z": -2.6659388223,
				"element": "C" 
			},
			{
				"x": -1.3111579865,
				"y": -0.0626870142,
				"z": -2.0800864838,
				"element": "C" 
			},
			{
				"x": -0.7910120722,
				"y": 0.6417922719,
				"z": -0.9886612913,
				"element": "C" 
			},
			{
				"x": -1.5238640162,
				"y": 1.9158253261,
				"z": -0.0434474335,
				"element": "S" 
			},
			{
				"x": 1.5096271473,
				"y": 1.9641311793,
				"z": 3.2838957477,
				"element": "H" 
			},
			{
				"x": 2.1821481885,
				"y": 3.161694062,
				"z": 2.1924549847,
				"element": "H" 
			},
			{
				"x": 1.2576464537,
				"y": 3.7058596871,
				"z": 3.6298137564,
				"element": "H" 
			},
			{
				"x": 2.2888460196,
				"y": -0.8332615834,
				"z": -0.7120754804,
				"element": "H" 
			},
			{
				"x": 1.3679509491,
				"y": -2.0966875907,
				"z": -2.6621495226,
				"element": "H" 
			},
			{
				"x": -0.9020168772,
				"y": -1.6010971278,
				"z": -3.5141257347,
				"element": "H" 
			},
			{
				"x": -2.3053836145,
				"y": 0.1476077036,
				"z": -2.4606450148,
				"element": "H" 
			}
		],
		 "valence_orbital": [ 
			{
				"type": "occ",
				"energy": -0.31226,
				"method": "rhf"
			},
			{
				"type": "occ",
				"energy": -0.29658,
				"method": "rhf"
			},
			{
				"type": "occ",
				"energy": -0.26255,
				"method": "rhf"
			},
			{
				"type": "occ",
				"energy": -0.2516,
				"method": "rhf"
			},
			{
				"type": "occ",
				"energy": -0.2444,
				"method": "rhf"
			},
			{
				"type": "unocc",
				"energy": -0.08266,
				"method": "rhf"
			},
			{
				"type": "unocc",
				"energy": -0.01598,
				"method": "rhf"
			},
			{
				"type": "unocc",
				"energy": 0.00073,
				"method": "rhf"
			},
			{
				"type": "unocc",
				"energy": 0.01304,
				"method": "rhf"
			},
			{
				"type": "unocc",
				"energy": 0.05604,
				"method": "rhf"
			}
		],
		"cosmo_sigma_profile": { 
			"-0.025": 0.0,
			"-0.024": 0.0,
			"-0.023": 0.0,
			"-0.022": 0.0,
			"-0.021": 0.0,
			"-0.02": 0.0,
			"-0.019": 0.0,
			"-0.018": 0.0,
			"-0.017": 0.0,
			"-0.016": 0.0,
			"-0.015": 0.0,
			"-0.014": 0.0,
			"-0.013": 0.0,
			"-0.012": 0.0,
			"-0.011": 0.0,
			"-0.01": 0.0,
			"-0.009": 0.0,
			"-0.008": 0.968149676125,
			"-0.007": 6.77590440323,
			"-0.006": 14.6035320163,
			"-0.005": 15.4886140983,
			"-0.004": 14.8627423249,
			"-0.003": 12.7008654705,
			"-0.002": 17.8859334841,
			"-0.001": 15.6673704305,
			"0.0": 14.0240138499,
			"0.001": 17.5877942017,
			"0.002": 20.1144237123,
			"0.003": 19.465194504,
			"0.004": 9.96619338088,
			"0.005": 3.62156572886,
			"0.006": 2.09988356912,
			"0.007": 3.15608638648,
			"0.008": 3.40007026947,
			"0.009": 2.78467682624,
			"0.01": 4.35024374269,
			"0.011": 4.21945947492,
			"0.012": 1.43572957688,
			"0.013": 0.0824356135898,
			"0.014": 0.0,
			"0.015": 0.0,
			"0.016": 0.0,
			"0.017": 0.0,
			"0.018": 0.0,
			"0.019": 0.0,
			"0.02": 0.0,
			"0.021": 0.0,
			"0.022": 0.0,
			"0.023": 0.0,
			"0.024": 0.0,
			"0.025": 0.0
		}
	}
}
