{
	 "smiles": "CC1=CC(=O)OC2=C1C=CC(OCC(O)=O)=C2", 
	 "Tm": 480.15, 
	 "num_atms": 27, 
	 "gaussian": { 
		 "optdone": 1, 
		 "sigma_profile": "yes", 
		 "theory": "DFT", 
		 "functional": "B3LYP", 
		 "basiset": "6-31G**", 
		 "properties": { 
			 "R2extent": 5076.3716, 
			 "electric_dipole_moment_norm": 4.20932295387, 
			 "electric_quadrupole_moment_norm": 32.3867999115, 
			 "total_energy": -839.43355611, 
			 "HOMO_LUMO_gap": 0.16515, 
			 "cosmo_polarized_energy": -20.14, 
			 "cosmo_cavitation_energy": 32.29, 
			 "cosmo_dispersion_energy": -23.41, 
			 "cosmo_repulsion_energy": 1.82, 
			 "cosmo_total_nonelectrostatic_energy": 10.69, 
			 "SMD_solvation_energy": 8.12 
		},
		"coords": [
			{
				"x": -1.5553189111,
				"y": -0.670610126,
				"z": 4.0000544502,
				"element": "C" 
			},
			{
				"x": -1.304022028,
				"y": 0.3814852526,
				"z": 2.9537688569,
				"element": "C" 
			},
			{
				"x": -1.5948431672,
				"y": 1.6881853399,
				"z": 3.1871444289,
				"element": "C" 
			},
			{
				"x": -1.371276134,
				"y": 2.7397762087,
				"z": 2.209338009,
				"element": "C" 
			},
			{
				"x": -1.6038916538,
				"y": 3.917509184,
				"z": 2.3518700845,
				"element": "O" 
			},
			{
				"x": -0.8308431847,
				"y": 2.3311640749,
				"z": 0.9840908138,
				"element": "O" 
			},
			{
				"x": -0.5287195763,
				"y": 1.0301885898,
				"z": 0.7201068194,
				"element": "C" 
			},
			{
				"x": -0.7425530421,
				"y": 0.0110917561,
				"z": 1.6675454909,
				"element": "C" 
			},
			{
				"x": -0.3959335617,
				"y": -1.3037502895,
				"z": 1.2905513916,
				"element": "C" 
			},
			{
				"x": 0.1342843239,
				"y": -1.5823497041,
				"z": 0.0452779757,
				"element": "C" 
			},
			{
				"x": 0.3360339646,
				"y": -0.5402188123,
				"z": -0.87989077,
				"element": "C" 
			},
			{
				"x": 0.8871515074,
				"y": -0.9230153657,
				"z": -2.0688335301,
				"element": "O" 
			},
			{
				"x": 1.1416682791,
				"y": 0.0446380647,
				"z": -3.0589921703,
				"element": "C" 
			},
			{
				"x": -0.1219837961,
				"y": 0.4706827945,
				"z": -3.8004780304,
				"element": "C" 
			},
			{
				"x": 0.1831970443,
				"y": 1.418849088,
				"z": -4.7154211951,
				"element": "O" 
			},
			{
				"x": -1.2296945524,
				"y": 0.0295988541,
				"z": -3.6231235724,
				"element": "O" 
			},
			{
				"x": 0.0034490456,
				"y": 0.7706068266,
				"z": -0.5457348279,
				"element": "C" 
			},
			{
				"x": -1.9772346023,
				"y": -0.2296372327,
				"z": 4.9053824007,
				"element": "H" 
			},
			{
				"x": -2.2524339961,
				"y": -1.4322566611,
				"z": 3.632447855,
				"element": "H" 
			},
			{
				"x": -0.6271216507,
				"y": -1.1869630767,
				"z": 4.2704483672,
				"element": "H" 
			},
			{
				"x": -2.0155429059,
				"y": 2.0198520173,
				"z": 4.1294986148,
				"element": "H" 
			},
			{
				"x": -0.5472712604,
				"y": -2.1163490783,
				"z": 1.9930785785,
				"element": "H" 
			},
			{
				"x": 0.4016533458,
				"y": -2.5919089548,
				"z": -0.2453230231,
				"element": "H" 
			},
			{
				"x": 1.8173429742,
				"y": -0.4252321242,
				"z": -3.779928379,
				"element": "H" 
			},
			{
				"x": 1.6527935079,
				"y": 0.9304886755,
				"z": -2.6618324081,
				"element": "H" 
			},
			{
				"x": -0.6453795514,
				"y": 1.6446991269,
				"z": -5.1711460475,
				"element": "H" 
			},
			{
				"x": 0.1222895813,
				"y": 1.6056755716,
				"z": -1.2236001831,
				"element": "H" 
			}
		],
		 "valence_orbital": [ 
			{
				"type": "occ",
				"energy": -0.29882,
				"method": "rhf"
			},
			{
				"type": "occ",
				"energy": -0.28426,
				"method": "rhf"
			},
			{
				"type": "occ",
				"energy": -0.26633,
				"method": "rhf"
			},
			{
				"type": "occ",
				"energy": -0.25217,
				"method": "rhf"
			},
			{
				"type": "occ",
				"energy": -0.22206,
				"method": "rhf"
			},
			{
				"type": "unocc",
				"energy": -0.05691,
				"method": "rhf"
			},
			{
				"type": "unocc",
				"energy": -0.01507,
				"method": "rhf"
			},
			{
				"type": "unocc",
				"energy": -0.00472,
				"method": "rhf"
			},
			{
				"type": "unocc",
				"energy": 0.01088,
				"method": "rhf"
			},
			{
				"type": "unocc",
				"energy": 0.05937,
				"method": "rhf"
			}
		],
		"cosmo_sigma_profile": { 
			"-0.025": 0.0,
			"-0.024": 0.0,
			"-0.023": 0.0,
			"-0.022": 0.0,
			"-0.021": 0.0,
			"-0.02": 0.0,
			"-0.019": 0.459695820094,
			"-0.018": 1.09365083851,
			"-0.017": 0.862679548978,
			"-0.016": 1.20055087428,
			"-0.015": 0.545766024098,
			"-0.014": 0.568512004669,
			"-0.013": 0.54721795073,
			"-0.012": 0.400397842942,
			"-0.011": 1.42419165731,
			"-0.01": 2.55258776076,
			"-0.009": 5.46397608866,
			"-0.008": 6.10180445825,
			"-0.007": 9.61979349825,
			"-0.006": 16.8210891694,
			"-0.005": 17.3711800768,
			"-0.004": 14.5439366281,
			"-0.003": 15.5758349469,
			"-0.002": 16.5122590154,
			"-0.001": 17.2760183343,
			"0.0": 16.4504134452,
			"0.001": 17.3892782939,
			"0.002": 18.1530987957,
			"0.003": 12.3940586317,
			"0.004": 7.89420065285,
			"0.005": 4.38344929318,
			"0.006": 7.77771064138,
			"0.007": 5.36871700282,
			"0.008": 7.30212540324,
			"0.009": 5.80914152776,
			"0.01": 6.50905108696,
			"0.011": 8.13495685159,
			"0.012": 6.65387747675,
			"0.013": 4.2546653121,
			"0.014": 0.436731650374,
			"0.015": 0.0,
			"0.016": 0.0,
			"0.017": 0.0,
			"0.018": 0.0,
			"0.019": 0.0,
			"0.02": 0.0,
			"0.021": 0.0,
			"0.022": 0.0,
			"0.023": 0.0,
			"0.024": 0.0,
			"0.0": 0.0
		}
	}
}
