{
	 "smiles": "CCOC1=CC(=C(N)C=C1)[N+]([O-])=O", 
	 "Tm": 385.15, 
	 "num_atms": 23, 
	 "gaussian": { 
		 "optdone": 1, 
		 "sigma_profile": "yes", 
		 "theory": "DFT", 
		 "functional": "B3LYP", 
		 "basiset": "6-31G**", 
		 "properties": { 
			 "R2extent": 4324.7567, 
			 "electric_dipole_moment_norm": 3.96136344584, 
			 "electric_quadrupole_moment_norm": 25.8673837668, 
			 "total_energy": -645.956055533, 
			 "HOMO_LUMO_gap": 0.12608, 
			 "cosmo_polarized_energy": -12.35, 
			 "cosmo_cavitation_energy": 27.12, 
			 "cosmo_dispersion_energy": -20.33, 
			 "cosmo_repulsion_energy": 1.63, 
			 "cosmo_total_nonelectrostatic_energy": 8.43, 
			 "SMD_solvation_energy": 6.99 
		},
		"coords": [
			{
				"x": -1.5838570658,
				"y": -2.2440614986,
				"z": 2.9054610775,
				"element": "C" 
			},
			{
				"x": -1.0998129065,
				"y": -0.8279259504,
				"z": 2.6494017509,
				"element": "C" 
			},
			{
				"x": -0.5676888698,
				"y": -0.7852154292,
				"z": 1.325059025,
				"element": "O" 
			},
			{
				"x": -0.0696861475,
				"y": 0.4013032959,
				"z": 0.8710630845,
				"element": "C" 
			},
			{
				"x": -0.032361118,
				"y": 1.5827617666,
				"z": 1.5875586273,
				"element": "C" 
			},
			{
				"x": 0.5099714731,
				"y": 2.7497401505,
				"z": 1.0079773214,
				"element": "C" 
			},
			{
				"x": 1.0260592017,
				"y": 2.7619969466,
				"z": -0.3127887473,
				"element": "C" 
			},
			{
				"x": 1.5271073921,
				"y": 3.8646957672,
				"z": -0.936490896,
				"element": "N" 
			},
			{
				"x": 0.9712997083,
				"y": 1.5257466891,
				"z": -1.0109323019,
				"element": "C" 
			},
			{
				"x": 0.4454986188,
				"y": 0.3870705487,
				"z": -0.4443573821,
				"element": "C" 
			},
			{
				"x": 0.5255315443,
				"y": 3.9320921075,
				"z": 1.8403099249,
				"element": "N" 
			},
			{
				"x": 1.0115941887,
				"y": 4.9861670546,
				"z": 1.3834339549,
				"element": "O" 
			},
			{
				"x": 0.0591951422,
				"y": 3.8588385422,
				"z": 2.9801338028,
				"element": "O" 
			},
			{
				"x": -0.7587296062,
				"y": -2.9561550881,
				"z": 2.8160441715,
				"element": "H" 
			},
			{
				"x": -2.001183983,
				"y": -2.3210049629,
				"z": 3.9139979419,
				"element": "H" 
			},
			{
				"x": -2.3595398197,
				"y": -2.5226831926,
				"z": 2.1867245038,
				"element": "H" 
			},
			{
				"x": -0.322471034,
				"y": -0.540736968,
				"z": 3.3718762463,
				"element": "H" 
			},
			{
				"x": -1.9246444121,
				"y": -0.1069827316,
				"z": 2.7420065175,
				"element": "H" 
			},
			{
				"x": -0.4037385172,
				"y": 1.6652532501,
				"z": 2.5983883929,
				"element": "H" 
			},
			{
				"x": 2.0225822338,
				"y": 3.7471800479,
				"z": -1.8046418963,
				"element": "H" 
			},
			{
				"x": 1.6605710959,
				"y": 4.6957888653,
				"z": -0.3786672611,
				"element": "H" 
			},
			{
				"x": 1.35632137,
				"y": 1.4932596937,
				"z": -2.0264665736,
				"element": "H" 
			},
			{
				"x": 0.4155815109,
				"y": -0.5448289048,
				"z": -0.9998912849,
				"element": "H" 
			}
		],
		 "valence_orbital": [ 
			{
				"type": "occ",
				"energy": -0.29812,
				"method": "rhf"
			},
			{
				"type": "occ",
				"energy": -0.28805,
				"method": "rhf"
			},
			{
				"type": "occ",
				"energy": -0.27852,
				"method": "rhf"
			},
			{
				"type": "occ",
				"energy": -0.27219,
				"method": "rhf"
			},
			{
				"type": "occ",
				"energy": -0.20369,
				"method": "rhf"
			},
			{
				"type": "unocc",
				"energy": -0.07761,
				"method": "rhf"
			},
			{
				"type": "unocc",
				"energy": 0.0004,
				"method": "rhf"
			},
			{
				"type": "unocc",
				"energy": 0.02186,
				"method": "rhf"
			},
			{
				"type": "unocc",
				"energy": 0.07971,
				"method": "rhf"
			},
			{
				"type": "unocc",
				"energy": 0.09363,
				"method": "rhf"
			}
		],
		"cosmo_sigma_profile": { 
			"-0.025": 0.0,
			"-0.024": 0.0,
			"-0.023": 0.0,
			"-0.022": 0.0,
			"-0.021": 0.0,
			"-0.02": 0.0,
			"-0.019": 0.0,
			"-0.018": 0.0,
			"-0.017": 0.0,
			"-0.016": 0.0,
			"-0.015": 0.122551496397,
			"-0.014": 1.34192134567,
			"-0.013": 1.65524863094,
			"-0.012": 1.52095830426,
			"-0.011": 1.50614694732,
			"-0.01": 2.16517356616,
			"-0.009": 2.21790598565,
			"-0.008": 3.01650357992,
			"-0.007": 4.95425604918,
			"-0.006": 7.10265115739,
			"-0.005": 10.5957747443,
			"-0.004": 17.8095849801,
			"-0.003": 17.5445074368,
			"-0.002": 15.7426788493,
			"-0.001": 15.3837743597,
			"0.0": 17.5639945167,
			"0.001": 16.020545668,
			"0.002": 19.1257306882,
			"0.003": 13.9138931458,
			"0.004": 6.38681082313,
			"0.005": 5.00588019517,
			"0.006": 4.76116655272,
			"0.007": 5.66474175482,
			"0.008": 6.83101175186,
			"0.009": 7.5424146855,
			"0.01": 4.99262536931,
			"0.011": 3.76595041132,
			"0.012": 0.922138727324,
			"0.013": 0.0,
			"0.014": 0.0,
			"0.015": 0.0,
			"0.016": 0.0,
			"0.017": 0.0,
			"0.018": 0.0,
			"0.019": 0.0,
			"0.02": 0.0,
			"0.021": 0.0,
			"0.022": 0.0,
			"0.023": 0.0,
			"0.024": 0.0,
			"0.025": 0.0
		}
	}
}
