{
	 "smiles": "CC(C)OC1=C(C=CC(Br)=C1)C(O)=O", 
	 "Tm": 360.15, 
	 "num_atms": 25, 
	 "gaussian": { 
		 "optdone": 1, 
		 "sigma_profile": "yes", 
		 "theory": "DFT", 
		 "functional": "B3LYP", 
		 "basiset": "6-31G**", 
		 "properties": { 
			 "R2extent": 6306.618, 
			 "electric_dipole_moment_norm": 1.7143100653, 
			 "electric_quadrupole_moment_norm": 8.34449072442, 
			 "total_energy": -3184.7847028, 
			 "HOMO_LUMO_gap": 0.18966, 
			 "cosmo_polarized_energy": -9.42, 
			 "cosmo_cavitation_energy": 30.89, 
			 "cosmo_dispersion_energy": -22.49, 
			 "cosmo_repulsion_energy": 1.78, 
			 "cosmo_total_nonelectrostatic_energy": 10.18, 
			 "SMD_solvation_energy": 5.46 
		},
		"coords": [
			{
				"x": 0.8080308934,
				"y": -0.6727735239,
				"z": 3.4303467261,
				"element": "C" 
			},
			{
				"x": 1.1384946701,
				"y": -0.6678368681,
				"z": 1.9467633821,
				"element": "C" 
			},
			{
				"x": 2.6111877516,
				"y": -0.9395557883,
				"z": 1.6516417371,
				"element": "C" 
			},
			{
				"x": 0.3144730855,
				"y": -1.719430858,
				"z": 1.3583180213,
				"element": "O" 
			},
			{
				"x": 0.0589570103,
				"y": -1.6802876262,
				"z": 0.0243917788,
				"element": "C" 
			},
			{
				"x": -0.8822984463,
				"y": -0.8044770052,
				"z": -0.5752789985,
				"element": "C" 
			},
			{
				"x": -1.1064774416,
				"y": -0.9082720709,
				"z": -1.9604755674,
				"element": "C" 
			},
			{
				"x": -0.4422456216,
				"y": -1.8388145367,
				"z": -2.74885239,
				"element": "C" 
			},
			{
				"x": 0.4618841506,
				"y": -2.7047137,
				"z": -2.1331459308,
				"element": "C" 
			},
			{
				"x": 1.3760053412,
				"y": -4.0082186586,
				"z": -3.185067628,
				"element": "Br" 
			},
			{
				"x": 0.7142259536,
				"y": -2.6335361001,
				"z": -0.7691503961,
				"element": "C" 
			},
			{
				"x": -1.6825454802,
				"y": 0.1634189972,
				"z": 0.2189198603,
				"element": "C" 
			},
			{
				"x": -2.6562189407,
				"y": 0.7576222512,
				"z": -0.5232297442,
				"element": "O" 
			},
			{
				"x": -1.5434920378,
				"y": 0.4370424584,
				"z": 1.3957313738,
				"element": "O" 
			},
			{
				"x": 1.0408989946,
				"y": -1.6480533987,
				"z": 3.8703922486,
				"element": "H" 
			},
			{
				"x": -0.2532272645,
				"y": -0.4620613022,
				"z": 3.5726206434,
				"element": "H" 
			},
			{
				"x": 1.3950861188,
				"y": 0.0901395954,
				"z": 3.9513823748,
				"element": "H" 
			},
			{
				"x": 0.8339045191,
				"y": 0.2879260157,
				"z": 1.5108988994,
				"element": "H" 
			},
			{
				"x": 2.8047265697,
				"y": -0.9675744164,
				"z": 0.5749006229,
				"element": "H" 
			},
			{
				"x": 2.9222106215,
				"y": -1.8959350722,
				"z": 2.0846243266,
				"element": "H" 
			},
			{
				"x": 3.2328819008,
				"y": -0.1480010517,
				"z": 2.0832428413,
				"element": "H" 
			},
			{
				"x": -1.8285603133,
				"y": -0.2435898711,
				"z": -2.4187553037,
				"element": "H" 
			},
			{
				"x": -0.6294554545,
				"y": -1.9011206088,
				"z": -3.8139730907,
				"element": "H" 
			},
			{
				"x": 1.4104016745,
				"y": -3.3095031495,
				"z": -0.2889474996,
				"element": "H" 
			},
			{
				"x": -3.1082482549,
				"y": 1.3628062887,
				"z": 0.0870017122,
				"element": "H" 
			}
		],
		 "valence_orbital": [ 
			{
				"type": "occ",
				"energy": -0.2953,
				"method": "rhf"
			},
			{
				"type": "occ",
				"energy": -0.28484,
				"method": "rhf"
			},
			{
				"type": "occ",
				"energy": -0.27382,
				"method": "rhf"
			},
			{
				"type": "occ",
				"energy": -0.25854,
				"method": "rhf"
			},
			{
				"type": "occ",
				"energy": -0.24759,
				"method": "rhf"
			},
			{
				"type": "unocc",
				"energy": -0.05793,
				"method": "rhf"
			},
			{
				"type": "unocc",
				"energy": -0.01763,
				"method": "rhf"
			},
			{
				"type": "unocc",
				"energy": 0.00029,
				"method": "rhf"
			},
			{
				"type": "unocc",
				"energy": 0.04421,
				"method": "rhf"
			},
			{
				"type": "unocc",
				"energy": 0.07697,
				"method": "rhf"
			}
		],
		"cosmo_sigma_profile": { 
			"-0.025": 0.0,
			"-0.024": 0.0,
			"-0.023": 0.0,
			"-0.022": 0.0,
			"-0.021": 0.0,
			"-0.02": 0.0,
			"-0.019": 0.0,
			"-0.018": 0.555021891556,
			"-0.017": 1.08398623885,
			"-0.016": 0.998670851152,
			"-0.015": 0.73728473644,
			"-0.014": 0.426205629914,
			"-0.013": 0.508544504236,
			"-0.012": 0.571486819072,
			"-0.011": 1.19336010668,
			"-0.01": 0.811226041133,
			"-0.009": 0.495532732921,
			"-0.008": 1.24474035301,
			"-0.007": 4.33174163101,
			"-0.006": 5.90889310938,
			"-0.005": 5.46638596229,
			"-0.004": 14.2178516312,
			"-0.003": 23.074267515,
			"-0.002": 25.6779583646,
			"-0.001": 22.8186232696,
			"0.0": 27.6622057271,
			"0.001": 32.5949065652,
			"0.002": 19.7131682437,
			"0.003": 14.2754021352,
			"0.004": 15.4018437933,
			"0.005": 4.31742025236,
			"0.006": 5.21465862725,
			"0.007": 4.18514693592,
			"0.008": 3.0279296513,
			"0.009": 3.08953448594,
			"0.01": 3.98656156072,
			"0.011": 3.43827504365,
			"0.012": 1.15458280084,
			"0.013": 0.0097650874637,
			"0.014": 0.0,
			"0.015": 0.0,
			"0.016": 0.0,
			"0.017": 0.0,
			"0.018": 0.0,
			"0.019": 0.0,
			"0.02": 0.0,
			"0.021": 0.0,
			"0.022": 0.0,
			"0.023": 0.0,
			"0.024": 0.0,
			"0.025": 0.0
		}
	}
}
