{
	 "smiles": "CC(=O)N1C(=O)CC2=CC3=C(C=C12)N(C(C)=O)C(=O)C3", 
	 "Tm": 568.15, 
	 "num_atms": 32, 
	 "gaussian": { 
		 "optdone": 1, 
		 "sigma_profile": "yes", 
		 "theory": "DFT", 
		 "functional": "B3LYP", 
		 "basiset": "6-31G**", 
		 "properties": { 
			 "R2extent": 6117.9138, 
			 "electric_dipole_moment_norm": 5.45937973949, 
			 "electric_quadrupole_moment_norm": 25.2725529907, 
			 "total_energy": -951.16860018, 
			 "HOMO_LUMO_gap": 0.1819, 
			 "cosmo_polarized_energy": -21.55, 
			 "cosmo_cavitation_energy": 36.02, 
			 "cosmo_dispersion_energy": -25.96, 
			 "cosmo_repulsion_energy": 1.95, 
			 "cosmo_total_nonelectrostatic_energy": 12.01, 
			 "SMD_solvation_energy": 8.62 
		},
		"coords": [
			{
				"x": 2.9279101705,
				"y": 1.551488693,
				"z": 0.1958229019,
				"element": "C" 
			},
			{
				"x": 2.5281471983,
				"y": 1.7231702554,
				"z": -1.2575908404,
				"element": "C" 
			},
			{
				"x": 3.0920645979,
				"y": 2.5031532865,
				"z": -1.9892464159,
				"element": "O" 
			},
			{
				"x": 1.4892609928,
				"y": 0.8812755184,
				"z": -1.7633533742,
				"element": "N" 
			},
			{
				"x": 1.473234726,
				"y": 0.4584535994,
				"z": -3.1323639492,
				"element": "C" 
			},
			{
				"x": 2.2689053008,
				"y": 0.7634264191,
				"z": -3.983182226,
				"element": "O" 
			},
			{
				"x": 0.2938727867,
				"y": -0.5048980533,
				"z": -3.2881448293,
				"element": "C" 
			},
			{
				"x": -0.3261858315,
				"y": -0.5429914013,
				"z": -1.9248036018,
				"element": "C" 
			},
			{
				"x": -1.4573542808,
				"y": -1.2124899629,
				"z": -1.4721756931,
				"element": "C" 
			},
			{
				"x": -1.8467945446,
				"y": -1.0408105057,
				"z": -0.1470510019,
				"element": "C" 
			},
			{
				"x": -1.1170575044,
				"y": -0.1924924695,
				"z": 0.6975090735,
				"element": "C" 
			},
			{
				"x": 0.0168429388,
				"y": 0.5005309367,
				"z": 0.266875758,
				"element": "C" 
			},
			{
				"x": 0.4063916225,
				"y": 0.2876572189,
				"z": -1.0580617231,
				"element": "C" 
			},
			{
				"x": -1.7257304762,
				"y": -0.1689114623,
				"z": 1.9935614412,
				"element": "N" 
			},
			{
				"x": -1.2418508373,
				"y": 0.5839384006,
				"z": 3.0926718531,
				"element": "C" 
			},
			{
				"x": -1.9949101524,
				"y": 0.5026232569,
				"z": 4.3985364763,
				"element": "C" 
			},
			{
				"x": -0.2438273598,
				"y": 1.2715080607,
				"z": 2.9662300334,
				"element": "O" 
			},
			{
				"x": -2.8710748752,
				"y": -1.0150850163,
				"z": 2.0012574952,
				"element": "C" 
			},
			{
				"x": -3.6024076144,
				"y": -1.2121477618,
				"z": 2.9456580604,
				"element": "O" 
			},
			{
				"x": -3.0025654866,
				"y": -1.6237136121,
				"z": 0.6084020689,
				"element": "C" 
			},
			{
				"x": 2.3822188024,
				"y": 2.2572076742,
				"z": 0.8308922156,
				"element": "H" 
			},
			{
				"x": 2.7580619445,
				"y": 0.5422934983,
				"z": 0.5753689043,
				"element": "H" 
			},
			{
				"x": 3.9871552676,
				"y": 1.805124543,
				"z": 0.261629405,
				"element": "H" 
			},
			{
				"x": 0.6760859893,
				"y": -1.4719448771,
				"z": -3.6348341663,
				"element": "H" 
			},
			{
				"x": -0.3774305765,
				"y": -0.1288188984,
				"z": -4.0687029046,
				"element": "H" 
			},
			{
				"x": -2.0270710001,
				"y": -1.852540035,
				"z": -2.1403815007,
				"element": "H" 
			},
			{
				"x": 0.5293304283,
				"y": 1.1598840831,
				"z": 0.943706679,
				"element": "H" 
			},
			{
				"x": -3.0306795985,
				"y": 0.8299585678,
				"z": 4.2829328671,
				"element": "H" 
			},
			{
				"x": -1.4682146688,
				"y": 1.1440990751,
				"z": 5.1051787526,
				"element": "H" 
			},
			{
				"x": -2.0396825945,
				"y": -0.5230619417,
				"z": 4.7715181555,
				"element": "H" 
			},
			{
				"x": -2.9773852236,
				"y": -2.7163681864,
				"z": 0.6966821929,
				"element": "H" 
			},
			{
				"x": -3.9853601412,
				"y": -1.3618189034,
				"z": 0.1989578925,
				"element": "H" 
			}
		],
		 "valence_orbital": [ 
			{
				"type": "occ",
				"energy": -0.28606,
				"method": "rhf"
			},
			{
				"type": "occ",
				"energy": -0.27709,
				"method": "rhf"
			},
			{
				"type": "occ",
				"energy": -0.26038,
				"method": "rhf"
			},
			{
				"type": "occ",
				"energy": -0.25131,
				"method": "rhf"
			},
			{
				"type": "occ",
				"energy": -0.22918,
				"method": "rhf"
			},
			{
				"type": "unocc",
				"energy": -0.04728,
				"method": "rhf"
			},
			{
				"type": "unocc",
				"energy": -0.03567,
				"method": "rhf"
			},
			{
				"type": "unocc",
				"energy": -0.03169,
				"method": "rhf"
			},
			{
				"type": "unocc",
				"energy": -0.01865,
				"method": "rhf"
			},
			{
				"type": "unocc",
				"energy": 0.01957,
				"method": "rhf"
			}
		],
		"cosmo_sigma_profile": { 
			"-0.025": 0.0,
			"-0.024": 0.0,
			"-0.023": 0.0,
			"-0.022": 0.0,
			"-0.021": 0.0,
			"-0.02": 0.0,
			"-0.019": 0.0,
			"-0.018": 0.0,
			"-0.017": 0.0,
			"-0.016": 0.0,
			"-0.015": 0.0,
			"-0.014": 0.0,
			"-0.013": 0.0,
			"-0.012": 0.0,
			"-0.011": 0.0,
			"-0.01": 0.0,
			"-0.009": 0.546837372255,
			"-0.008": 8.58939608113,
			"-0.007": 14.2379031779,
			"-0.006": 25.1182048229,
			"-0.005": 29.3170266141,
			"-0.004": 28.1676048331,
			"-0.003": 23.4633849226,
			"-0.002": 22.543216531,
			"-0.001": 17.2063931331,
			"0.0": 10.9771796738,
			"0.001": 11.0013324594,
			"0.002": 15.2489784074,
			"0.003": 11.8497571717,
			"0.004": 5.98031533939,
			"0.005": 5.41555981146,
			"0.006": 4.31233431906,
			"0.007": 5.06521511196,
			"0.008": 5.9172134952,
			"0.009": 6.53317214818,
			"0.01": 7.39903856391,
			"0.011": 13.2733048966,
			"0.012": 9.48996322611,
			"0.013": 3.06029641261,
			"0.014": 1.61115483141,
			"0.015": 1.16406861427,
			"0.016": 0.472911538663,
			"0.017": 0.0,
			"0.018": 0.0,
			"0.019": 0.0,
			"0.02": 0.0,
			"0.021": 0.0,
			"0.022": 0.0,
			"0.023": 0.0,
			"0.024": 0.0,
			"0.025": 0.0
		}
	}
}
