{
	 "smiles": "COC1=CC=C2C=CC(=O)OC2=C1O", 
	 "Tm": 449.15, 
	 "num_atms": 22, 
	 "gaussian": { 
		 "optdone": 1, 
		 "sigma_profile": "yes", 
		 "theory": "DFT", 
		 "functional": "B3LYP", 
		 "basiset": "6-31G**", 
		 "properties": { 
			 "R2extent": 3372.0341, 
			 "electric_dipole_moment_norm": 3.19953129224, 
			 "electric_quadrupole_moment_norm": 18.2394923899, 
			 "total_energy": -686.761416182, 
			 "HOMO_LUMO_gap": 0.1512, 
			 "cosmo_polarized_energy": -11.25, 
			 "cosmo_cavitation_energy": 26.41, 
			 "cosmo_dispersion_energy": -19.99, 
			 "cosmo_repulsion_energy": 1.55, 
			 "cosmo_total_nonelectrostatic_energy": 7.97, 
			 "SMD_solvation_energy": 6.74 
		},
		"coords": [
			{
				"x": -2.4015299391,
				"y": -2.3701481934,
				"z": -2.4956927977,
				"element": "C" 
			},
			{
				"x": -1.0885180497,
				"y": -2.1790168206,
				"z": -1.9589737991,
				"element": "O" 
			},
			{
				"x": -0.772440686,
				"y": -1.1220033728,
				"z": -1.17123379,
				"element": "C" 
			},
			{
				"x": 0.5720159345,
				"y": -1.1035724724,
				"z": -0.737402888,
				"element": "C" 
			},
			{
				"x": 1.0660369849,
				"y": -0.098910612,
				"z": 0.0720244489,
				"element": "C" 
			},
			{
				"x": 0.2228304033,
				"y": 0.9487194444,
				"z": 0.4898206572,
				"element": "C" 
			},
			{
				"x": 0.6103846233,
				"y": 2.0487262188,
				"z": 1.327904796,
				"element": "C" 
			},
			{
				"x": -0.2766383955,
				"y": 3.0135112333,
				"z": 1.6778121776,
				"element": "C" 
			},
			{
				"x": -1.6596819611,
				"y": 2.9876135759,
				"z": 1.2263546447,
				"element": "C" 
			},
			{
				"x": -2.5271038745,
				"y": 3.7890508497,
				"z": 1.4776323751,
				"element": "O" 
			},
			{
				"x": -2.0066540966,
				"y": 1.8964949841,
				"z": 0.4076557307,
				"element": "O" 
			},
			{
				"x": -1.1098756669,
				"y": 0.9227854723,
				"z": 0.0548451301,
				"element": "C" 
			},
			{
				"x": -1.6332945519,
				"y": -0.0854731256,
				"z": -0.766072319,
				"element": "C" 
			},
			{
				"x": -2.9456614501,
				"y": -0.0310765697,
				"z": -1.1422290461,
				"element": "O" 
			},
			{
				"x": -2.3344908669,
				"y": -3.292368657,
				"z": -3.0753150734,
				"element": "H" 
			},
			{
				"x": -2.6932929364,
				"y": -1.5435258965,
				"z": -3.147775481,
				"element": "H" 
			},
			{
				"x": -3.1464166075,
				"y": -2.4835149462,
				"z": -1.704538925,
				"element": "H" 
			},
			{
				"x": 1.2034694517,
				"y": -1.9196924687,
				"z": -1.0708874373,
				"element": "H" 
			},
			{
				"x": 2.1040258874,
				"y": -0.1111554966,
				"z": 0.3897445467,
				"element": "H" 
			},
			{
				"x": 1.6375540803,
				"y": 2.0964143881,
				"z": 1.6815252406,
				"element": "H" 
			},
			{
				"x": -0.0074996353,
				"y": 3.8518275569,
				"z": 2.3085283568,
				"element": "H" 
			},
			{
				"x": -3.3223186478,
				"y": 0.767914908,
				"z": -0.7398265478,
				"element": "H" 
			}
		],
		 "valence_orbital": [ 
			{
				"type": "occ",
				"energy": -0.33518,
				"method": "rhf"
			},
			{
				"type": "occ",
				"energy": -0.28892,
				"method": "rhf"
			},
			{
				"type": "occ",
				"energy": -0.27807,
				"method": "rhf"
			},
			{
				"type": "occ",
				"energy": -0.23292,
				"method": "rhf"
			},
			{
				"type": "occ",
				"energy": -0.21551,
				"method": "rhf"
			},
			{
				"type": "unocc",
				"energy": -0.06431,
				"method": "rhf"
			},
			{
				"type": "unocc",
				"energy": -0.00735,
				"method": "rhf"
			},
			{
				"type": "unocc",
				"energy": 0.01374,
				"method": "rhf"
			},
			{
				"type": "unocc",
				"energy": 0.06032,
				"method": "rhf"
			},
			{
				"type": "unocc",
				"energy": 0.09067,
				"method": "rhf"
			}
		],
		"cosmo_sigma_profile": { 
			"-0.025": 0.0,
			"-0.024": 0.0,
			"-0.023": 0.0,
			"-0.022": 0.0,
			"-0.021": 0.0,
			"-0.02": 0.0,
			"-0.019": 0.0,
			"-0.018": 0.0,
			"-0.017": 0.0,
			"-0.016": 0.017508500557,
			"-0.015": 0.536426614362,
			"-0.014": 0.363539034497,
			"-0.013": 0.409449098643,
			"-0.012": 0.817783837522,
			"-0.011": 0.607199591349,
			"-0.01": 1.20583342114,
			"-0.009": 1.3275505527,
			"-0.008": 4.73345201877,
			"-0.007": 7.97634126872,
			"-0.006": 9.83625725404,
			"-0.005": 13.2550095959,
			"-0.004": 14.9997267727,
			"-0.003": 16.7939813475,
			"-0.002": 14.6132433584,
			"-0.001": 15.6882161099,
			"0.0": 18.2331263592,
			"0.001": 17.9074438367,
			"0.002": 15.740889394,
			"0.003": 11.712504963,
			"0.004": 8.62395817971,
			"0.005": 5.55889361197,
			"0.006": 5.0006297528,
			"0.007": 4.73522318675,
			"0.008": 3.06831631466,
			"0.009": 3.73198031491,
			"0.01": 2.14378419357,
			"0.011": 3.90322955558,
			"0.012": 6.06204862395,
			"0.013": 2.17707638921,
			"0.014": 0.0105677064083,
			"0.015": 0.0,
			"0.016": 0.0,
			"0.017": 0.0,
			"0.018": 0.0,
			"0.019": 0.0,
			"0.02": 0.0,
			"0.021": 0.0,
			"0.022": 0.0,
			"0.023": 0.0,
			"0.024": 0.0,
			"0.025": 0.0
		}
	}
}
