{
	 "smiles": "FC(F)(F)C1=CC=C(C=C1)N1CCNCC1", 
	 "Tm": 363.65, 
	 "num_atms": 29, 
	 "gaussian": { 
		 "optdone": 1, 
		 "sigma_profile": "yes", 
		 "theory": "DFT", 
		 "functional": "B3LYP", 
		 "basiset": "6-31G**", 
		 "properties": { 
			 "R2extent": 5836.5177, 
			 "electric_dipole_moment_norm": 4.7985473729, 
			 "electric_quadrupole_moment_norm": 13.7320656356, 
			 "total_energy": -836.023203037, 
			 "HOMO_LUMO_gap": 0.18481, 
			 "cosmo_polarized_energy": -9.56, 
			 "cosmo_cavitation_energy": 31.99, 
			 "cosmo_dispersion_energy": -23.1, 
			 "cosmo_repulsion_energy": 1.72, 
			 "cosmo_total_nonelectrostatic_energy": 10.6, 
			 "SMD_solvation_energy": 2.61 
		},
		"coords": [
			{
				"x": -5.0149922985,
				"y": -2.0893432736,
				"z": 1.0252108951,
				"element": "F" 
			},
			{
				"x": -4.0028281243,
				"y": -1.9490988182,
				"z": 1.9136060322,
				"element": "C" 
			},
			{
				"x": -4.3922413629,
				"y": -1.0311697923,
				"z": 2.8303650898,
				"element": "F" 
			},
			{
				"x": -3.9063689858,
				"y": -3.1308433575,
				"z": 2.574764158,
				"element": "F" 
			},
			{
				"x": -2.7191812283,
				"y": -1.5640060255,
				"z": 1.2468872702,
				"element": "C" 
			},
			{
				"x": -2.4543293234,
				"y": -1.9461804123,
				"z": -0.0690063536,
				"element": "C" 
			},
			{
				"x": -1.2437454174,
				"y": -1.6292591492,
				"z": -0.6752818721,
				"element": "C" 
			},
			{
				"x": -0.235703062,
				"y": -0.9264614311,
				"z": 0.0238870899,
				"element": "C" 
			},
			{
				"x": -0.5201565354,
				"y": -0.5524311052,
				"z": 1.3594253246,
				"element": "C" 
			},
			{
				"x": -1.7350319953,
				"y": -0.862713397,
				"z": 1.952030968,
				"element": "C" 
			},
			{
				"x": 1.006259261,
				"y": -0.6450494041,
				"z": -0.544135495,
				"element": "N" 
			},
			{
				"x": 1.4032214797,
				"y": -1.1908499726,
				"z": -1.8415260144,
				"element": "C" 
			},
			{
				"x": 1.1947873251,
				"y": -0.1698689504,
				"z": -2.9740566188,
				"element": "C" 
			},
			{
				"x": 1.8634128556,
				"y": 1.1088445964,
				"z": -2.7083291222,
				"element": "N" 
			},
			{
				"x": 1.5344878334,
				"y": 1.6245105903,
				"z": -1.3764108305,
				"element": "C" 
			},
			{
				"x": 1.7270816389,
				"y": 0.5954227459,
				"z": -0.2432420702,
				"element": "C" 
			},
			{
				"x": -3.2117994616,
				"y": -2.4756527948,
				"z": -0.6376546259,
				"element": "H" 
			},
			{
				"x": -1.1002512816,
				"y": -1.9100439225,
				"z": -1.7113572357,
				"element": "H" 
			},
			{
				"x": 0.2297099959,
				"y": -0.0413359455,
				"z": 1.9520631318,
				"element": "H" 
			},
			{
				"x": -1.920010788,
				"y": -0.5619482511,
				"z": 2.9782305065,
				"element": "H" 
			},
			{
				"x": 2.4751661506,
				"y": -1.4348495553,
				"z": -1.7812136635,
				"element": "H" 
			},
			{
				"x": 0.8797474827,
				"y": -2.1302107854,
				"z": -2.0294003892,
				"element": "H" 
			},
			{
				"x": 1.5639474122,
				"y": -0.5711252312,
				"z": -3.9248200098,
				"element": "H" 
			},
			{
				"x": 0.1216179434,
				"y": 0.0268388569,
				"z": -3.0953214997,
				"element": "H" 
			},
			{
				"x": 2.8714852866,
				"y": 0.9752451393,
				"z": -2.7740815377,
				"element": "H" 
			},
			{
				"x": 0.4831464671,
				"y": 1.9412180113,
				"z": -1.3858246514,
				"element": "H" 
			},
			{
				"x": 2.1424164599,
				"y": 2.5157863093,
				"z": -1.1825142442,
				"element": "H" 
			},
			{
				"x": 2.7967703145,
				"y": 0.3615880041,
				"z": -0.1337783117,
				"element": "H" 
			},
			{
				"x": 1.3877819579,
				"y": 1.0135873215,
				"z": 0.7046840797,
				"element": "H" 
			}
		],
		 "valence_orbital": [ 
			{
				"type": "occ",
				"energy": -0.34029,
				"method": "rhf"
			},
			{
				"type": "occ",
				"energy": -0.30055,
				"method": "rhf"
			},
			{
				"type": "occ",
				"energy": -0.2575,
				"method": "rhf"
			},
			{
				"type": "occ",
				"energy": -0.24052,
				"method": "rhf"
			},
			{
				"type": "occ",
				"energy": -0.19322,
				"method": "rhf"
			},
			{
				"type": "unocc",
				"energy": -0.00841,
				"method": "rhf"
			},
			{
				"type": "unocc",
				"energy": -0.00575,
				"method": "rhf"
			},
			{
				"type": "unocc",
				"energy": 0.07148,
				"method": "rhf"
			},
			{
				"type": "unocc",
				"energy": 0.08895,
				"method": "rhf"
			},
			{
				"type": "unocc",
				"energy": 0.1078,
				"method": "rhf"
			}
		],
		"cosmo_sigma_profile": { 
			"-0.025": 0.0,
			"-0.024": 0.0,
			"-0.023": 0.0,
			"-0.022": 0.0,
			"-0.021": 0.0,
			"-0.02": 0.0,
			"-0.019": 0.0,
			"-0.018": 0.0,
			"-0.017": 0.0,
			"-0.016": 0.0,
			"-0.015": 0.0,
			"-0.014": 0.0,
			"-0.013": 0.0,
			"-0.012": 0.0,
			"-0.011": 0.0,
			"-0.01": 0.707456553866,
			"-0.009": 1.6887132277,
			"-0.008": 1.76229420841,
			"-0.007": 5.62515230229,
			"-0.006": 9.83222919123,
			"-0.005": 14.613565879,
			"-0.004": 24.6614571714,
			"-0.003": 25.7732005835,
			"-0.002": 23.1462296009,
			"-0.001": 15.8333245817,
			"0.0": 13.0698426773,
			"0.001": 12.5354772764,
			"0.002": 17.299597575,
			"0.003": 35.8476073855,
			"0.004": 25.739948931,
			"0.005": 12.2091185293,
			"0.006": 3.5067358869,
			"0.007": 1.37475453141,
			"0.008": 0.966124584546,
			"0.009": 0.632021118574,
			"0.01": 1.2403280963,
			"0.011": 0.490666949568,
			"0.012": 0.341837911762,
			"0.013": 0.885123437042,
			"0.014": 0.468514478142,
			"0.015": 0.426140942171,
			"0.016": 0.732436118082,
			"0.017": 0.575305616005,
			"0.018": 0.519126282496,
			"0.019": 0.126370829417,
			"0.02": 0.0,
			"0.021": 0.0,
			"0.022": 0.0,
			"0.023": 0.0,
			"0.024": 0.0,
			"0.025": 0.0
		}
	}
}
