{
	 "smiles": "CC1=CC(=CC=C1F)C(O)=O", 
	 "Tm": 440.15, 
	 "num_atms": 18, 
	 "gaussian": { 
		 "optdone": 1, 
		 "sigma_profile": "yes", 
		 "theory": "DFT", 
		 "functional": "B3LYP", 
		 "basiset": "6-31G**", 
		 "properties": { 
			 "R2extent": 2502.9012, 
			 "electric_dipole_moment_norm": 3.77438618188, 
			 "electric_quadrupole_moment_norm": 11.392010287, 
			 "total_energy": -559.368544983, 
			 "HOMO_LUMO_gap": 0.20941, 
			 "cosmo_polarized_energy": -13.17, 
			 "cosmo_cavitation_energy": 22.93, 
			 "cosmo_dispersion_energy": -16.77, 
			 "cosmo_repulsion_energy": 1.32, 
			 "cosmo_total_nonelectrostatic_energy": 7.48, 
			 "SMD_solvation_energy": 5.66 
		},
		"coords": [
			{
				"x": -3.3280427103,
				"y": -0.7354290608,
				"z": -0.2804121408,
				"element": "C" 
			},
			{
				"x": -1.9695173315,
				"y": -0.8133219587,
				"z": -0.9269812319,
				"element": "C" 
			},
			{
				"x": -0.7828935585,
				"y": -0.586304786,
				"z": -0.2308663349,
				"element": "C" 
			},
			{
				"x": 0.470485243,
				"y": -0.678296309,
				"z": -0.8547520603,
				"element": "C" 
			},
			{
				"x": 0.5373473828,
				"y": -0.97620718,
				"z": -2.2224462672,
				"element": "C" 
			},
			{
				"x": -0.6316353001,
				"y": -1.1995691082,
				"z": -2.9476914193,
				"element": "C" 
			},
			{
				"x": -1.8504439076,
				"y": -1.1209898649,
				"z": -2.2872653332,
				"element": "C" 
			},
			{
				"x": -2.9807007948,
				"y": -1.3434281673,
				"z": -2.9896396413,
				"element": "F" 
			},
			{
				"x": 1.6805797411,
				"y": -0.4094815596,
				"z": -0.0139833601,
				"element": "C" 
			},
			{
				"x": 2.8701033393,
				"y": -0.874841372,
				"z": -0.4845676902,
				"element": "O" 
			},
			{
				"x": 1.6412233957,
				"y": 0.1869051166,
				"z": 1.0366899386,
				"element": "O" 
			},
			{
				"x": -3.9590165265,
				"y": 0.0105920266,
				"z": -0.7748452516,
				"element": "H" 
			},
			{
				"x": -3.2408011394,
				"y": -0.4670507214,
				"z": 0.7745868276,
				"element": "H" 
			},
			{
				"x": -3.8551897764,
				"y": -1.6930233224,
				"z": -0.3495922923,
				"element": "H" 
			},
			{
				"x": -0.8099973056,
				"y": -0.3305111223,
				"z": 0.8234920071,
				"element": "H" 
			},
			{
				"x": 1.4884824293,
				"y": -0.9968154668,
				"z": -2.7481185342,
				"element": "H" 
			},
			{
				"x": -0.6138593778,
				"y": -1.4218231038,
				"z": -4.0088642476,
				"element": "H" 
			},
			{
				"x": 2.7234761975,
				"y": -1.4732040402,
				"z": -1.2298429683,
				"element": "H" 
			}
		],
		 "valence_orbital": [ 
			{
				"type": "occ",
				"energy": -0.35895,
				"method": "rhf"
			},
			{
				"type": "occ",
				"energy": -0.31682,
				"method": "rhf"
			},
			{
				"type": "occ",
				"energy": -0.27775,
				"method": "rhf"
			},
			{
				"type": "occ",
				"energy": -0.27064,
				"method": "rhf"
			},
			{
				"type": "occ",
				"energy": -0.25909,
				"method": "rhf"
			},
			{
				"type": "unocc",
				"energy": -0.04968,
				"method": "rhf"
			},
			{
				"type": "unocc",
				"energy": -0.02706,
				"method": "rhf"
			},
			{
				"type": "unocc",
				"energy": 0.04617,
				"method": "rhf"
			},
			{
				"type": "unocc",
				"energy": 0.05744,
				"method": "rhf"
			},
			{
				"type": "unocc",
				"energy": 0.09849,
				"method": "rhf"
			}
		],
		"cosmo_sigma_profile": { 
			"-0.025": 0.0,
			"-0.024": 0.0,
			"-0.023": 0.0,
			"-0.022": 0.0,
			"-0.021": 0.0,
			"-0.02": 0.0,
			"-0.019": 0.215574606767,
			"-0.018": 0.692788884301,
			"-0.017": 1.17491946895,
			"-0.016": 0.856543171672,
			"-0.015": 1.41567400137,
			"-0.014": 0.497168180258,
			"-0.013": 0.720797931545,
			"-0.012": 1.63864156559,
			"-0.011": 1.16347707027,
			"-0.01": 1.43489786564,
			"-0.009": 1.3836579167,
			"-0.008": 2.65243818382,
			"-0.007": 4.29603729593,
			"-0.006": 6.44424234607,
			"-0.005": 9.59258203505,
			"-0.004": 10.4502976504,
			"-0.003": 12.0016646949,
			"-0.002": 12.4444297589,
			"-0.001": 17.1565622717,
			"0.0": 17.6469299854,
			"0.001": 12.9896963508,
			"0.002": 15.0030259147,
			"0.003": 10.5469567126,
			"0.004": 10.7573455995,
			"0.005": 2.26352475398,
			"0.006": 2.50321497704,
			"0.007": 2.51160965203,
			"0.008": 3.09126459985,
			"0.009": 2.62914415991,
			"0.01": 5.02311757125,
			"0.011": 5.25468762273,
			"0.012": 4.95269194369,
			"0.013": 1.75070599368,
			"0.014": 0.0889877620478,
			"0.015": 0.0,
			"0.016": 0.0,
			"0.017": 0.0,
			"0.018": 0.0,
			"0.019": 0.0,
			"0.02": 0.0,
			"0.021": 0.0,
			"0.022": 0.0,
			"0.023": 0.0,
			"0.024": 0.0,
			"0.025": 0.0
		}
	}
}
