{
	 "smiles": "CC(O)C(C1=CC=CC=C1)C1=CC=CC=C1", 
	 "Tm": 334.15, 
	 "num_atms": 32, 
	 "gaussian": { 
		 "optdone": 1, 
		 "sigma_profile": "yes", 
		 "theory": "DFT", 
		 "functional": "B3LYP", 
		 "basiset": "6-31G**", 
		 "properties": { 
			 "R2extent": 3914.7142, 
			 "electric_dipole_moment_norm": 1.59450291, 
			 "electric_quadrupole_moment_norm": 10.070042203, 
			 "total_energy": -656.465415852, 
			 "HOMO_LUMO_gap": 0.22727, 
			 "cosmo_polarized_energy": -8.55, 
			 "cosmo_cavitation_energy": 33.88, 
			 "cosmo_dispersion_energy": -23.65, 
			 "cosmo_repulsion_energy": 1.85, 
			 "cosmo_total_nonelectrostatic_energy": 12.08, 
			 "SMD_solvation_energy": 5.56 
		},
		"coords": [
			{
				"x": 2.7106586086,
				"y": -1.0286813267,
				"z": -0.4847661884,
				"element": "C" 
			},
			{
				"x": 1.673937393,
				"y": -0.0964378115,
				"z": 0.1324321149,
				"element": "C" 
			},
			{
				"x": 2.1761428736,
				"y": 0.2522186961,
				"z": 1.4170304775,
				"element": "O" 
			},
			{
				"x": 0.2635390201,
				"y": -0.7560090483,
				"z": 0.2554481341,
				"element": "C" 
			},
			{
				"x": -0.6852858172,
				"y": 0.1524745494,
				"z": 1.0422521279,
				"element": "C" 
			},
			{
				"x": -1.4404058542,
				"y": 1.1640980909,
				"z": 0.4301421962,
				"element": "C" 
			},
			{
				"x": -2.2548600426,
				"y": 2.0076362415,
				"z": 1.1864082981,
				"element": "C" 
			},
			{
				"x": -2.3321582446,
				"y": 1.8593220625,
				"z": 2.5727533121,
				"element": "C" 
			},
			{
				"x": -1.5882271072,
				"y": 0.8577151419,
				"z": 3.196653019,
				"element": "C" 
			},
			{
				"x": -0.7738885909,
				"y": 0.0143118867,
				"z": 2.4373214016,
				"element": "C" 
			},
			{
				"x": -0.3218292844,
				"y": -1.2223098276,
				"z": -1.0721707543,
				"element": "C" 
			},
			{
				"x": -1.0113181154,
				"y": -2.4426431968,
				"z": -1.124506064,
				"element": "C" 
			},
			{
				"x": -1.5850334035,
				"y": -2.9008462739,
				"z": -2.3102312531,
				"element": "C" 
			},
			{
				"x": -1.4775950607,
				"y": -2.1444096328,
				"z": -3.4786194647,
				"element": "C" 
			},
			{
				"x": -0.7916445941,
				"y": -0.9301717666,
				"z": -3.4462164872,
				"element": "C" 
			},
			{
				"x": -0.2208271773,
				"y": -0.4742156713,
				"z": -2.2557980169,
				"element": "C" 
			},
			{
				"x": 3.6852790844,
				"y": -0.5332360215,
				"z": -0.500154444,
				"element": "H" 
			},
			{
				"x": 2.4406875202,
				"y": -1.3099711386,
				"z": -1.5048263035,
				"element": "H" 
			},
			{
				"x": 2.8026865427,
				"y": -1.93821334,
				"z": 0.1180225642,
				"element": "H" 
			},
			{
				"x": 1.5834110594,
				"y": 0.8103121044,
				"z": -0.4882477905,
				"element": "H" 
			},
			{
				"x": 1.5287719903,
				"y": 0.8330312254,
				"z": 1.8405688945,
				"element": "H" 
			},
			{
				"x": 0.4230742835,
				"y": -1.6500848902,
				"z": 0.8709489435,
				"element": "H" 
			},
			{
				"x": -1.4076693346,
				"y": 1.2817050568,
				"z": -0.6482062767,
				"element": "H" 
			},
			{
				"x": -2.8347076674,
				"y": 2.78041798,
				"z": 0.6892660551,
				"element": "H" 
			},
			{
				"x": -2.9698002427,
				"y": 2.5145671977,
				"z": 3.1591201607,
				"element": "H" 
			},
			{
				"x": -1.6434892884,
				"y": 0.726266274,
				"z": 4.2737347877,
				"element": "H" 
			},
			{
				"x": -0.201165249,
				"y": -0.7671045863,
				"z": 2.9299814069,
				"element": "H" 
			},
			{
				"x": -1.1000844928,
				"y": -3.0393322438,
				"z": -0.2199222676,
				"element": "H" 
			},
			{
				"x": -2.1127467456,
				"y": -3.8504924483,
				"z": -2.3217110766,
				"element": "H" 
			},
			{
				"x": -1.9205443175,
				"y": -2.499234418,
				"z": -4.4046969339,
				"element": "H" 
			},
			{
				"x": -0.6961437332,
				"y": -0.3340706296,
				"z": -4.3495938831,
				"element": "H" 
			},
			{
				"x": 0.3158359875,
				"y": 0.4698877647,
				"z": -2.2593166893,
				"element": "H" 
			}
		],
		 "valence_orbital": [ 
			{
				"type": "occ",
				"energy": -0.26737,
				"method": "rhf"
			},
			{
				"type": "occ",
				"energy": -0.25225,
				"method": "rhf"
			},
			{
				"type": "occ",
				"energy": -0.25039,
				"method": "rhf"
			},
			{
				"type": "occ",
				"energy": -0.24499,
				"method": "rhf"
			},
			{
				"type": "occ",
				"energy": -0.2388,
				"method": "rhf"
			},
			{
				"type": "unocc",
				"energy": -0.01153,
				"method": "rhf"
			},
			{
				"type": "unocc",
				"energy": -0.00619,
				"method": "rhf"
			},
			{
				"type": "unocc",
				"energy": -0.00172,
				"method": "rhf"
			},
			{
				"type": "unocc",
				"energy": 0.00446,
				"method": "rhf"
			},
			{
				"type": "unocc",
				"energy": 0.08774,
				"method": "rhf"
			}
		],
		"cosmo_sigma_profile": { 
			"-0.025": 0.0,
			"-0.024": 0.0,
			"-0.023": 0.0,
			"-0.022": 0.0,
			"-0.021": 0.0,
			"-0.02": 0.0,
			"-0.019": 0.0,
			"-0.018": 0.0,
			"-0.017": 0.0,
			"-0.016": 0.0,
			"-0.015": 0.0,
			"-0.014": 0.0,
			"-0.013": 0.0,
			"-0.012": 0.0760704325176,
			"-0.011": 0.387448452774,
			"-0.01": 1.10139905492,
			"-0.009": 0.657331577071,
			"-0.008": 0.148730166859,
			"-0.007": 1.14392587698,
			"-0.006": 7.35348130655,
			"-0.005": 23.5655682491,
			"-0.004": 27.3972511989,
			"-0.003": 30.1181366205,
			"-0.002": 22.816801727,
			"-0.001": 22.5292197376,
			"0.0": 19.2722319505,
			"0.001": 21.787698255,
			"0.002": 15.0819682159,
			"0.003": 15.5671677137,
			"0.004": 16.6462478368,
			"0.005": 17.0620507774,
			"0.006": 13.609558776,
			"0.007": 1.79620207867,
			"0.008": 1.47356304644,
			"0.009": 1.02897295672,
			"0.01": 0.882762747923,
			"0.011": 1.29122193295,
			"0.012": 1.3655144481,
			"0.013": 1.59682234831,
			"0.014": 1.91948469764,
			"0.015": 0.500365189346,
			"0.016": 0.0,
			"0.017": 0.0,
			"0.018": 0.0,
			"0.019": 0.0,
			"0.02": 0.0,
			"0.021": 0.0,
			"0.022": 0.0,
			"0.023": 0.0,
			"0.024": 0.0,
			"0.025": 0.0
		}
	}
}
