{
	 "smiles": "BrC1=C2C=CC=CC2=C(Br)C2=C1C=CC=C2", 
	 "Tm": 499.15, 
	 "num_atms": 24, 
	 "gaussian": { 
		 "optdone": 1, 
		 "sigma_profile": "yes", 
		 "theory": "DFT", 
		 "functional": "B3LYP", 
		 "basiset": "6-31G**", 
		 "properties": { 
			 "R2extent": 6252.6393, 
			 "electric_dipole_moment_norm": 0.0, 
			 "electric_quadrupole_moment_norm": 15.7839303223, 
			 "total_energy": -5681.13105505, 
			 "HOMO_LUMO_gap": 0.12374, 
			 "cosmo_polarized_energy": -4.4, 
			 "cosmo_cavitation_energy": 31.09, 
			 "cosmo_dispersion_energy": -24.3, 
			 "cosmo_repulsion_energy": 1.82, 
			 "cosmo_total_nonelectrostatic_energy": 8.61, 
			 "SMD_solvation_energy": 2.8 
		},
		"coords": [
			{
				"x": 2.4537985129,
				"y": 3.3488508315,
				"z": -0.0142585615,
				"element": "Br" 
			},
			{
				"x": 1.4946281223,
				"y": 1.696041259,
				"z": -0.2156956121,
				"element": "C" 
			},
			{
				"x": 1.2132753354,
				"y": 0.938445742,
				"z": 0.9340383518,
				"element": "C" 
			},
			{
				"x": 1.6050272029,
				"y": 1.334676704,
				"z": 2.2516613025,
				"element": "C" 
			},
			{
				"x": 1.3121170791,
				"y": 0.568849709,
				"z": 3.3470692529,
				"element": "C" 
			},
			{
				"x": 0.6030402006,
				"y": -0.652943368,
				"z": 3.1982232316,
				"element": "C" 
			},
			{
				"x": 0.2069434057,
				"y": -1.07433194,
				"z": 1.9581666039,
				"element": "C" 
			},
			{
				"x": 0.4885533138,
				"y": -0.3103382065,
				"z": 0.7819039746,
				"element": "C" 
			},
			{
				"x": 0.0994332707,
				"y": -0.7080725044,
				"z": -0.508603325,
				"element": "C" 
			},
			{
				"x": -0.8597288116,
				"y": -2.3608880634,
				"z": -0.7100376428,
				"element": "Br" 
			},
			{
				"x": 0.3807918378,
				"y": 0.0495196487,
				"z": -1.6583387308,
				"element": "C" 
			},
			{
				"x": 1.1055114185,
				"y": 1.2983064836,
				"z": -1.5062030499,
				"element": "C" 
			},
			{
				"x": 1.3871186174,
				"y": 2.0623007593,
				"z": -2.682465803,
				"element": "C" 
			},
			{
				"x": 0.9910265222,
				"y": 1.6409102588,
				"z": -3.9225233611,
				"element": "C" 
			},
			{
				"x": 0.2819531587,
				"y": 0.4191155246,
				"z": -4.0713701132,
				"element": "C" 
			},
			{
				"x": -0.0109606569,
				"y": -0.3467097586,
				"z": -2.9759617039,
				"element": "C" 
			},
			{
				"x": 2.1454781207,
				"y": 2.2652665995,
				"z": 2.3681965693,
				"element": "H" 
			},
			{
				"x": 1.6233281411,
				"y": 0.8970642894,
				"z": 4.3342155356,
				"element": "H" 
			},
			{
				"x": 0.3740281285,
				"y": -1.2555802238,
				"z": 4.0719594813,
				"element": "H" 
			},
			{
				"x": -0.333277704,
				"y": -2.0058032597,
				"z": 1.8478178274,
				"element": "H" 
			},
			{
				"x": 1.9273374371,
				"y": 2.9937736881,
				"z": -2.5721190232,
				"element": "H" 
			},
			{
				"x": 1.2200405085,
				"y": 2.2435480118,
				"z": -4.7962583815,
				"element": "H" 
			},
			{
				"x": -0.0292527405,
				"y": 0.0908978044,
				"z": -5.0585168796,
				"element": "H" 
			},
			{
				"x": -0.551410421,
				"y": -1.2772999896,
				"z": -3.0924999433,
				"element": "H" 
			}
		],
		 "valence_orbital": [ 
			{
				"type": "occ",
				"energy": -0.28871,
				"method": "rhf"
			},
			{
				"type": "occ",
				"energy": -0.27331,
				"method": "rhf"
			},
			{
				"type": "occ",
				"energy": -0.26635,
				"method": "rhf"
			},
			{
				"type": "occ",
				"energy": -0.2547,
				"method": "rhf"
			},
			{
				"type": "occ",
				"energy": -0.20356,
				"method": "rhf"
			},
			{
				"type": "unocc",
				"energy": -0.07982,
				"method": "rhf"
			},
			{
				"type": "unocc",
				"energy": -0.02862,
				"method": "rhf"
			},
			{
				"type": "unocc",
				"energy": -0.00422,
				"method": "rhf"
			},
			{
				"type": "unocc",
				"energy": 0.00362,
				"method": "rhf"
			},
			{
				"type": "unocc",
				"energy": 0.0048,
				"method": "rhf"
			}
		],
		"cosmo_sigma_profile": { 
			"-0.025": 0.0,
			"-0.024": 0.0,
			"-0.023": 0.0,
			"-0.022": 0.0,
			"-0.021": 0.0,
			"-0.02": 0.0,
			"-0.019": 0.0,
			"-0.018": 0.0,
			"-0.017": 0.0,
			"-0.016": 0.0,
			"-0.015": 0.0,
			"-0.014": 0.0,
			"-0.013": 0.0,
			"-0.012": 0.0,
			"-0.011": 0.0,
			"-0.01": 0.0,
			"-0.009": 0.0,
			"-0.008": 0.0,
			"-0.007": 2.96339803904,
			"-0.006": 10.8327419588,
			"-0.005": 16.2807114889,
			"-0.004": 17.5649379243,
			"-0.003": 14.0045738113,
			"-0.002": 14.2339233681,
			"-0.001": 16.5771826137,
			"0.0": 23.3009511002,
			"0.001": 45.603882581,
			"0.002": 39.760728139,
			"0.003": 30.1464634562,
			"0.004": 24.626939942,
			"0.005": 1.90685931353,
			"0.006": 0.0,
			"0.007": 0.0,
			"0.008": 0.0,
			"0.009": 0.0,
			"0.01": 0.0,
			"0.011": 0.0,
			"0.012": 0.0,
			"0.013": 0.0,
			"0.014": 0.0,
			"0.015": 0.0,
			"0.016": 0.0,
			"0.017": 0.0,
			"0.018": 0.0,
			"0.019": 0.0,
			"0.02": 0.0,
			"0.021": 0.0,
			"0.022": 0.0,
			"0.023": 0.0,
			"0.024": 0.0,
			"0.025": 0.0
		}
	}
}
