{
	 "smiles": "CCC1=C(N)C=NN1C", 
	 "Tm": 323.15, 
	 "num_atms": 20, 
	 "gaussian": { 
		 "optdone": 1, 
		 "sigma_profile": "yes", 
		 "theory": "DFT", 
		 "functional": "B3LYP", 
		 "basiset": "6-31G**", 
		 "properties": { 
			 "R2extent": 1468.6764, 
			 "electric_dipole_moment_norm": 2.00832137866, 
			 "electric_quadrupole_moment_norm": 11.8877870001, 
			 "total_energy": -399.50230525, 
			 "HOMO_LUMO_gap": 0.22571, 
			 "cosmo_polarized_energy": -10.81, 
			 "cosmo_cavitation_energy": 22.99, 
			 "cosmo_dispersion_energy": -16.55, 
			 "cosmo_repulsion_energy": 1.37, 
			 "cosmo_total_nonelectrostatic_energy": 7.82, 
			 "SMD_solvation_energy": 3.34 
		},
		"coords": [
			{
				"x": 1.062956923,
				"y": 1.8951517517,
				"z": 2.3540206134,
				"element": "C" 
			},
			{
				"x": 1.0580431669,
				"y": 2.169673286,
				"z": 0.8374417633,
				"element": "C" 
			},
			{
				"x": 0.7362647576,
				"y": 0.9780824096,
				"z": -0.0098037872,
				"element": "C" 
			},
			{
				"x": -0.4805032023,
				"y": 0.5877182141,
				"z": -0.5601987265,
				"element": "C" 
			},
			{
				"x": -1.7004771688,
				"y": 1.3021427091,
				"z": -0.4438333879,
				"element": "N" 
			},
			{
				"x": -0.1913595746,
				"y": -0.5965889432,
				"z": -1.2753528275,
				"element": "C" 
			},
			{
				"x": 1.0980857584,
				"y": -0.9255553404,
				"z": -1.1870518686,
				"element": "N" 
			},
			{
				"x": 1.6437535957,
				"y": 0.0305614555,
				"z": -0.4028243269,
				"element": "N" 
			},
			{
				"x": 3.0601053316,
				"y": -0.0291711487,
				"z": -0.1020401861,
				"element": "C" 
			},
			{
				"x": 0.0918956884,
				"y": 1.5147236696,
				"z": 2.6864717827,
				"element": "H" 
			},
			{
				"x": 1.8181924671,
				"y": 1.1507849372,
				"z": 2.6267754746,
				"element": "H" 
			},
			{
				"x": 1.2774127883,
				"y": 2.8112923507,
				"z": 2.9142931527,
				"element": "H" 
			},
			{
				"x": 2.028050605,
				"y": 2.5901196808,
				"z": 0.542270443,
				"element": "H" 
			},
			{
				"x": 0.3055138426,
				"y": 2.9331962139,
				"z": 0.6101491979,
				"element": "H" 
			},
			{
				"x": -2.382257438,
				"y": 0.9729256997,
				"z": -1.1186108596,
				"element": "H" 
			},
			{
				"x": -2.1130016082,
				"y": 1.2112624874,
				"z": 0.4800840864,
				"element": "H" 
			},
			{
				"x": -0.8654619317,
				"y": -1.2108954178,
				"z": -1.8594667598,
				"element": "H" 
			},
			{
				"x": 3.5714594106,
				"y": 0.8844815013,
				"z": -0.4229300713,
				"element": "H" 
			},
			{
				"x": 3.2368720354,
				"y": -0.1753561114,
				"z": 0.9689791332,
				"element": "H" 
			},
			{
				"x": 3.4648545531,
				"y": -0.8781494052,
				"z": -0.6519728457,
				"element": "H" 
			}
		],
		 "valence_orbital": [ 
			{
				"type": "occ",
				"energy": -0.34456,
				"method": "rhf"
			},
			{
				"type": "occ",
				"energy": -0.29452,
				"method": "rhf"
			},
			{
				"type": "occ",
				"energy": -0.26517,
				"method": "rhf"
			},
			{
				"type": "occ",
				"energy": -0.22896,
				"method": "rhf"
			},
			{
				"type": "occ",
				"energy": -0.19636,
				"method": "rhf"
			},
			{
				"type": "unocc",
				"energy": 0.02935,
				"method": "rhf"
			},
			{
				"type": "unocc",
				"energy": 0.07307,
				"method": "rhf"
			},
			{
				"type": "unocc",
				"energy": 0.09108,
				"method": "rhf"
			},
			{
				"type": "unocc",
				"energy": 0.09174,
				"method": "rhf"
			},
			{
				"type": "unocc",
				"energy": 0.12605,
				"method": "rhf"
			}
		],
		"cosmo_sigma_profile": { 
			"-0.025": 0.0,
			"-0.024": 0.0,
			"-0.023": 0.0,
			"-0.022": 0.0,
			"-0.021": 0.0,
			"-0.02": 0.0,
			"-0.019": 0.0,
			"-0.018": 0.0,
			"-0.017": 0.0,
			"-0.016": 0.0,
			"-0.015": 0.0,
			"-0.014": 0.0,
			"-0.013": 0.0,
			"-0.012": 0.0761374108487,
			"-0.011": 1.66837704626,
			"-0.01": 3.12544580121,
			"-0.009": 2.23837126326,
			"-0.008": 2.6427920327,
			"-0.007": 2.30378363045,
			"-0.006": 7.59955841359,
			"-0.005": 13.0252338743,
			"-0.004": 15.9115590266,
			"-0.003": 19.5838945163,
			"-0.002": 17.4356237384,
			"-0.001": 15.7556073,
			"0.0": 14.7156730004,
			"0.001": 11.5451927817,
			"0.002": 5.94714450829,
			"0.003": 4.60563635113,
			"0.004": 4.57093320791,
			"0.005": 5.97688996481,
			"0.006": 7.04269888885,
			"0.007": 4.95434762899,
			"0.008": 2.4710660119,
			"0.009": 2.31669479697,
			"0.01": 3.01323480058,
			"0.011": 2.08561511559,
			"0.012": 2.2063003947,
			"0.013": 2.09966213378,
			"0.014": 1.02729813216,
			"0.015": 1.51579075488,
			"0.016": 2.22186968787,
			"0.017": 0.407997654636,
			"0.018": 0.0,
			"0.019": 0.0,
			"0.02": 0.0,
			"0.021": 0.0,
			"0.022": 0.0,
			"0.023": 0.0,
			"0.024": 0.0,
			"0.025": 0.0
		}
	}
}
