{
	 "smiles": "CN1N=CC(C(O)=O)=C1N", 
	 "Tm": 413.15, 
	 "num_atms": 17, 
	 "gaussian": { 
		 "optdone": 1, 
		 "sigma_profile": "yes", 
		 "theory": "DFT", 
		 "functional": "B3LYP", 
		 "basiset": "6-31G**", 
		 "properties": { 
			 "R2extent": 1620.3307, 
			 "electric_dipole_moment_norm": 3.88022051564, 
			 "electric_quadrupole_moment_norm": 19.5074368547, 
			 "total_energy": -509.449301428, 
			 "HOMO_LUMO_gap": 0.21031, 
			 "cosmo_polarized_energy": -18.47, 
			 "cosmo_cavitation_energy": 21.25, 
			 "cosmo_dispersion_energy": -16.05, 
			 "cosmo_repulsion_energy": 1.3, 
			 "cosmo_total_nonelectrostatic_energy": 6.5, 
			 "SMD_solvation_energy": 3.98 
		},
		"coords": [
			{
				"x": -1.9578879206,
				"y": 0.7805911417,
				"z": 2.0900330848,
				"element": "C" 
			},
			{
				"x": -0.7227483643,
				"y": 0.3862548712,
				"z": 1.4455911904,
				"element": "N" 
			},
			{
				"x": 0.4184238345,
				"y": 1.1373774392,
				"z": 1.6192249286,
				"element": "N" 
			},
			{
				"x": 1.342641091,
				"y": 0.5063387599,
				"z": 0.9192020164,
				"element": "C" 
			},
			{
				"x": 0.8362885609,
				"y": -0.6533607619,
				"z": 0.2674411006,
				"element": "C" 
			},
			{
				"x": 1.4183105661,
				"y": -1.6332228775,
				"z": -0.6370974197,
				"element": "C" 
			},
			{
				"x": 2.7337862358,
				"y": -1.5011692871,
				"z": -0.9553948799,
				"element": "O" 
			},
			{
				"x": 0.7828846797,
				"y": -2.5565735734,
				"z": -1.1249249555,
				"element": "O" 
			},
			{
				"x": -0.5187132889,
				"y": -0.6824362464,
				"z": 0.6409482897,
				"element": "C" 
			},
			{
				"x": -1.4700079239,
				"y": -1.6223204741,
				"z": 0.3450391445,
				"element": "N" 
			},
			{
				"x": -1.7022740991,
				"y": 1.4735493334,
				"z": 2.890957663,
				"element": "H" 
			},
			{
				"x": -2.6395218105,
				"y": 1.2806905294,
				"z": 1.3915968367,
				"element": "H" 
			},
			{
				"x": -2.4532087227,
				"y": -0.0989318975,
				"z": 2.5122916167,
				"element": "H" 
			},
			{
				"x": 2.3492769261,
				"y": 0.9085341679,
				"z": 0.9062979942,
				"element": "H" 
			},
			{
				"x": 3.1146406584,
				"y": -0.7399285464,
				"z": -0.4964692272,
				"element": "H" 
			},
			{
				"x": -2.4135879565,
				"y": -1.2935178969,
				"z": 0.1937341636,
				"element": "H" 
			},
			{
				"x": -1.1237024659,
				"y": -2.2790746815,
				"z": -0.3514715469,
				"element": "H" 
			}
		],
		 "valence_orbital": [ 
			{
				"type": "occ",
				"energy": -0.30836,
				"method": "rhf"
			},
			{
				"type": "occ",
				"energy": -0.30269,
				"method": "rhf"
			},
			{
				"type": "occ",
				"energy": -0.26874,
				"method": "rhf"
			},
			{
				"type": "occ",
				"energy": -0.26125,
				"method": "rhf"
			},
			{
				"type": "occ",
				"energy": -0.22144,
				"method": "rhf"
			},
			{
				"type": "unocc",
				"energy": -0.01113,
				"method": "rhf"
			},
			{
				"type": "unocc",
				"energy": 0.01981,
				"method": "rhf"
			},
			{
				"type": "unocc",
				"energy": 0.05867,
				"method": "rhf"
			},
			{
				"type": "unocc",
				"energy": 0.06729,
				"method": "rhf"
			},
			{
				"type": "unocc",
				"energy": 0.11677,
				"method": "rhf"
			}
		],
		"cosmo_sigma_profile": { 
			"-0.025": 0.0,
			"-0.024": 0.0,
			"-0.023": 0.0,
			"-0.022": 0.0,
			"-0.021": 0.0,
			"-0.02": 0.0,
			"-0.019": 0.0316264433022,
			"-0.018": 0.708025227654,
			"-0.017": 1.23061253283,
			"-0.016": 1.37395313934,
			"-0.015": 0.997918396444,
			"-0.014": 2.34102600574,
			"-0.013": 2.18361308405,
			"-0.012": 1.98528796949,
			"-0.011": 3.60537843377,
			"-0.01": 2.97751738173,
			"-0.009": 3.41859448744,
			"-0.008": 3.69070687159,
			"-0.007": 7.13966638988,
			"-0.006": 9.62013257627,
			"-0.005": 8.54093649903,
			"-0.004": 9.05673489152,
			"-0.003": 9.41817975302,
			"-0.002": 6.90038977051,
			"-0.001": 6.67907805706,
			"0.0": 7.94124835126,
			"0.001": 8.34868088252,
			"0.002": 9.86506706306,
			"0.003": 8.60477671293,
			"0.004": 5.63843080818,
			"0.005": 4.95520843799,
			"0.006": 3.7234224159,
			"0.007": 5.35888205469,
			"0.008": 4.88853649157,
			"0.009": 4.14754639664,
			"0.01": 4.69757635603,
			"0.011": 6.96920502678,
			"0.012": 4.6261098166,
			"0.013": 3.96035683951,
			"0.014": 2.25613274308,
			"0.015": 0.893734059694,
			"0.016": 0.209255183898,
			"0.017": 0.0,
			"0.018": 0.0,
			"0.019": 0.0,
			"0.02": 0.0,
			"0.021": 0.0,
			"0.022": 0.0,
			"0.023": 0.0,
			"0.024": 0.0,
			"0.025": 0.0
		}
	}
}
