{
	 "smiles": "[O-][N+](=O)C1=CC=C(C=C1)C1=CC=NO1", 
	 "Tm": 446.15, 
	 "num_atms": 20, 
	 "gaussian": { 
		 "optdone": 1, 
		 "sigma_profile": "yes", 
		 "theory": "DFT", 
		 "functional": "B3LYP", 
		 "basiset": "6-31G**", 
		 "properties": { 
			 "R2extent": 4736.173, 
			 "electric_dipole_moment_norm": 4.23446620957, 
			 "electric_quadrupole_moment_norm": 22.5603997775, 
			 "total_energy": -681.59493732, 
			 "HOMO_LUMO_gap": 0.15316, 
			 "cosmo_polarized_energy": -12.44, 
			 "cosmo_cavitation_energy": 26.11, 
			 "cosmo_dispersion_energy": -19.28, 
			 "cosmo_repulsion_energy": 1.47, 
			 "cosmo_total_nonelectrostatic_energy": 8.31, 
			 "SMD_solvation_energy": 6.71 
		},
		"coords": [
			{
				"x": 4.6663505112,
				"y": -3.32587623,
				"z": 1.3162938536,
				"element": "O" 
			},
			{
				"x": 3.466059362,
				"y": -3.547113844,
				"z": 1.4721688265,
				"element": "N" 
			},
			{
				"x": 2.9841442864,
				"y": -4.6413047001,
				"z": 1.7646394868,
				"element": "O" 
			},
			{
				"x": 2.5375476336,
				"y": -2.4202176067,
				"z": 1.2960182023,
				"element": "C" 
			},
			{
				"x": 3.0483901569,
				"y": -1.1665944876,
				"z": 0.9645475826,
				"element": "C" 
			},
			{
				"x": 2.1671463059,
				"y": -0.1048848744,
				"z": 0.7991745536,
				"element": "C" 
			},
			{
				"x": 0.7824789968,
				"y": -0.2941632778,
				"z": 0.9640171638,
				"element": "C" 
			},
			{
				"x": 0.2977298872,
				"y": -1.572133992,
				"z": 1.2988201694,
				"element": "C" 
			},
			{
				"x": 1.1707284725,
				"y": -2.6387646397,
				"z": 1.4660304139,
				"element": "C" 
			},
			{
				"x": -0.1430008394,
				"y": 0.821966176,
				"z": 0.7899980972,
				"element": "C" 
			},
			{
				"x": -1.505309587,
				"y": 0.9460491255,
				"z": 0.8809724514,
				"element": "C" 
			},
			{
				"x": -1.7390077832,
				"y": 2.3139862343,
				"z": 0.588667724,
				"element": "C" 
			},
			{
				"x": -0.6280315684,
				"y": 2.9704414221,
				"z": 0.3413552526,
				"element": "N" 
			},
			{
				"x": 0.388067035,
				"y": 2.0259457532,
				"z": 0.468194869,
				"element": "O" 
			},
			{
				"x": 4.1171181327,
				"y": -1.0427988978,
				"z": 0.8424326578,
				"element": "H" 
			},
			{
				"x": 2.5441909793,
				"y": 0.8779804702,
				"z": 0.5413538111,
				"element": "H" 
			},
			{
				"x": -0.7673493312,
				"y": -1.7320975726,
				"z": 1.4289675394,
				"element": "H" 
			},
			{
				"x": 0.8183715674,
				"y": -3.6295925153,
				"z": 1.7235514337,
				"element": "H" 
			},
			{
				"x": -2.2335869613,
				"y": 0.1868814102,
				"z": 1.1183280294,
				"element": "H" 
			},
			{
				"x": -2.6813372562,
				"y": 2.8451920463,
				"z": 0.549767882,
				"element": "H" 
			}
		],
		 "valence_orbital": [ 
			{
				"type": "occ",
				"energy": -0.31494,
				"method": "rhf"
			},
			{
				"type": "occ",
				"energy": -0.31261,
				"method": "rhf"
			},
			{
				"type": "occ",
				"energy": -0.29644,
				"method": "rhf"
			},
			{
				"type": "occ",
				"energy": -0.28935,
				"method": "rhf"
			},
			{
				"type": "occ",
				"energy": -0.25706,
				"method": "rhf"
			},
			{
				"type": "unocc",
				"energy": -0.1039,
				"method": "rhf"
			},
			{
				"type": "unocc",
				"energy": -0.04572,
				"method": "rhf"
			},
			{
				"type": "unocc",
				"energy": -0.03784,
				"method": "rhf"
			},
			{
				"type": "unocc",
				"energy": 0.01101,
				"method": "rhf"
			},
			{
				"type": "unocc",
				"energy": 0.05926,
				"method": "rhf"
			}
		],
		"cosmo_sigma_profile": { 
			"-0.025": 0.0,
			"-0.024": 0.0,
			"-0.023": 0.0,
			"-0.022": 0.0,
			"-0.021": 0.0,
			"-0.02": 0.0,
			"-0.019": 0.0,
			"-0.018": 0.0,
			"-0.017": 0.0,
			"-0.016": 0.0,
			"-0.015": 0.0,
			"-0.014": 0.0,
			"-0.013": 0.0,
			"-0.012": 0.0,
			"-0.011": 0.0598167531612,
			"-0.01": 2.80350876841,
			"-0.009": 5.81552001154,
			"-0.008": 6.9315944458,
			"-0.007": 10.6196875324,
			"-0.006": 10.282314192,
			"-0.005": 10.0600578637,
			"-0.004": 9.40316512337,
			"-0.003": 9.69964719142,
			"-0.002": 16.3428143787,
			"-0.001": 21.5221824274,
			"0.0": 22.8684879818,
			"0.001": 19.9890578839,
			"0.002": 7.74562545066,
			"0.003": 4.73641724458,
			"0.004": 4.66727871418,
			"0.005": 5.74040000549,
			"0.006": 6.96414990552,
			"0.007": 11.4459768889,
			"0.008": 9.07014926958,
			"0.009": 6.33395119849,
			"0.01": 3.59799754995,
			"0.011": 1.92635408565,
			"0.012": 0.968424485059,
			"0.013": 1.47890739749,
			"0.014": 0.3449392279,
			"0.015": 0.0,
			"0.016": 0.0,
			"0.017": 0.0,
			"0.018": 0.0,
			"0.019": 0.0,
			"0.02": 0.0,
			"0.021": 0.0,
			"0.022": 0.0,
			"0.023": 0.0,
			"0.024": 0.0,
			"0.025": 0.0
		}
	}
}
