{
	 "smiles": "CC(=O)C1=CC=C(NC(=O)CCl)C=C1", 
	 "Tm": 423.15, 
	 "num_atms": 24, 
	 "gaussian": { 
		 "optdone": 1, 
		 "sigma_profile": "yes", 
		 "theory": "DFT", 
		 "functional": "B3LYP", 
		 "basiset": "6-31G**", 
		 "properties": { 
			 "R2extent": 5040.0968, 
			 "electric_dipole_moment_norm": 4.24176695965, 
			 "electric_quadrupole_moment_norm": 14.8574561426, 
			 "total_energy": -1052.50777968, 
			 "HOMO_LUMO_gap": 0.17908, 
			 "cosmo_polarized_energy": -15.33, 
			 "cosmo_cavitation_energy": 30.33, 
			 "cosmo_dispersion_energy": -22.3, 
			 "cosmo_repulsion_energy": 1.75, 
			 "cosmo_total_nonelectrostatic_energy": 9.78, 
			 "SMD_solvation_energy": 6.12 
		},
		"coords": [
			{
				"x": 3.6922203569,
				"y": 2.0714762445,
				"z": 1.6897464926,
				"element": "C" 
			},
			{
				"x": 2.2275221834,
				"y": 2.4664550344,
				"z": 1.5865703582,
				"element": "C" 
			},
			{
				"x": 1.8347045251,
				"y": 3.5205997664,
				"z": 2.0651389393,
				"element": "O" 
			},
			{
				"x": 1.2785857512,
				"y": 1.543223695,
				"z": 0.8901966158,
				"element": "C" 
			},
			{
				"x": -0.0719579904,
				"y": 1.9145902465,
				"z": 0.7988988608,
				"element": "C" 
			},
			{
				"x": -1.011409674,
				"y": 1.1094456946,
				"z": 0.1676279692,
				"element": "C" 
			},
			{
				"x": -0.6001692989,
				"y": -0.1111639257,
				"z": -0.3958621708,
				"element": "C" 
			},
			{
				"x": -1.4783229515,
				"y": -0.9930697138,
				"z": -1.0550897166,
				"element": "N" 
			},
			{
				"x": -2.8187151361,
				"y": -0.8553474623,
				"z": -1.2682184718,
				"element": "C" 
			},
			{
				"x": -3.5162070176,
				"y": 0.083864148,
				"z": -0.9152794989,
				"element": "O" 
			},
			{
				"x": -3.5241318497,
				"y": -1.9879634833,
				"z": -2.024296395,
				"element": "C" 
			},
			{
				"x": -2.5048461744,
				"y": -3.3926639996,
				"z": -2.5595252381,
				"element": "Cl" 
			},
			{
				"x": 0.7480123618,
				"y": -0.4957957555,
				"z": -0.3121355252,
				"element": "C" 
			},
			{
				"x": 1.673851528,
				"y": 0.3221366891,
				"z": 0.3230554299,
				"element": "C" 
			},
			{
				"x": 4.2273533161,
				"y": 2.8567720912,
				"z": 2.2241575063,
				"element": "H" 
			},
			{
				"x": 4.1364307793,
				"y": 1.9412077262,
				"z": 0.6966258518,
				"element": "H" 
			},
			{
				"x": 3.8081870745,
				"y": 1.1234913799,
				"z": 2.2268245364,
				"element": "H" 
			},
			{
				"x": -0.3694384413,
				"y": 2.8601253748,
				"z": 1.2399322127,
				"element": "H" 
			},
			{
				"x": -2.0490669575,
				"y": 1.4042765934,
				"z": 0.1026301389,
				"element": "H" 
			},
			{
				"x": -1.0625699543,
				"y": -1.8411322591,
				"z": -1.4197171197,
				"element": "H" 
			},
			{
				"x": -3.9822312263,
				"y": -1.5644556096,
				"z": -2.9183164085,
				"element": "H" 
			},
			{
				"x": -4.3088520675,
				"y": -2.38713,
				"z": -1.3813410319,
				"element": "H" 
			},
			{
				"x": 1.0678405305,
				"y": -1.439553596,
				"z": -0.7473466435,
				"element": "H" 
			},
			{
				"x": 2.7087103327,
				"y": -0.0001888792,
				"z": 0.3729233082,
				"element": "H" 
			}
		],
		 "valence_orbital": [ 
			{
				"type": "occ",
				"energy": -0.31477,
				"method": "rhf"
			},
			{
				"type": "occ",
				"energy": -0.27587,
				"method": "rhf"
			},
			{
				"type": "occ",
				"energy": -0.26651,
				"method": "rhf"
			},
			{
				"type": "occ",
				"energy": -0.24669,
				"method": "rhf"
			},
			{
				"type": "occ",
				"energy": -0.23854,
				"method": "rhf"
			},
			{
				"type": "unocc",
				"energy": -0.05946,
				"method": "rhf"
			},
			{
				"type": "unocc",
				"energy": -0.01517,
				"method": "rhf"
			},
			{
				"type": "unocc",
				"energy": -0.00126,
				"method": "rhf"
			},
			{
				"type": "unocc",
				"energy": 0.00054,
				"method": "rhf"
			},
			{
				"type": "unocc",
				"energy": 0.05428,
				"method": "rhf"
			}
		],
		"cosmo_sigma_profile": { 
			"-0.025": 0.0,
			"-0.024": 0.0,
			"-0.023": 0.0,
			"-0.022": 0.0,
			"-0.021": 0.0,
			"-0.02": 0.0,
			"-0.019": 0.0,
			"-0.018": 0.0,
			"-0.017": 0.0,
			"-0.016": 0.0,
			"-0.015": 0.0,
			"-0.014": 0.224617869835,
			"-0.013": 1.02648558397,
			"-0.012": 0.911269669487,
			"-0.011": 1.14779041907,
			"-0.01": 2.66209453158,
			"-0.009": 5.53013498357,
			"-0.008": 5.14704775117,
			"-0.007": 8.64789059287,
			"-0.006": 14.9677884453,
			"-0.005": 17.6786795804,
			"-0.004": 14.5091035196,
			"-0.003": 14.1170521284,
			"-0.002": 14.5835062751,
			"-0.001": 16.5738787364,
			"0.0": 17.0372465523,
			"0.001": 15.7866292738,
			"0.002": 17.0267931944,
			"0.003": 20.3505840653,
			"0.004": 13.8395770875,
			"0.005": 10.0082394276,
			"0.006": 3.69540469502,
			"0.007": 3.18098395649,
			"0.008": 3.26194467229,
			"0.009": 3.10638238384,
			"0.01": 3.74578907046,
			"0.011": 5.17904469842,
			"0.012": 7.49288534083,
			"0.013": 2.60749039442,
			"0.014": 0.396716757722,
			"0.015": 0.0,
			"0.016": 0.0,
			"0.017": 0.0,
			"0.018": 0.0,
			"0.019": 0.0,
			"0.02": 0.0,
			"0.021": 0.0,
			"0.022": 0.0,
			"0.023": 0.0,
			"0.024": 0.0,
			"0.025": 0.0
		}
	}
}
