{
	 "smiles": "CCOC1=CC=C(NC2=C(C=CC=N2)C(O)=O)C=C1", 
	 "Tm": 463.15, 
	 "num_atms": 33, 
	 "gaussian": { 
		 "optdone": 1, 
		 "sigma_profile": "yes", 
		 "theory": "DFT", 
		 "functional": "B3LYP", 
		 "basiset": "6-31G**", 
		 "properties": { 
			 "R2extent": 6754.4953, 
			 "electric_dipole_moment_norm": 3.87690362145, 
			 "electric_quadrupole_moment_norm": 20.9773946345, 
			 "total_energy": -877.107924537, 
			 "HOMO_LUMO_gap": 0.15247, 
			 "cosmo_polarized_energy": -16.53, 
			 "cosmo_cavitation_energy": 36.93, 
			 "cosmo_dispersion_energy": -26.28, 
			 "cosmo_repulsion_energy": 2.03, 
			 "cosmo_total_nonelectrostatic_energy": 12.69, 
			 "SMD_solvation_energy": 6.41 
		},
		"coords": [
			{
				"x": 2.1204653318,
				"y": -4.3695625305,
				"z": -0.9968796066,
				"element": "C" 
			},
			{
				"x": 3.2497556639,
				"y": -3.8536289498,
				"z": -0.1107951209,
				"element": "C" 
			},
			{
				"x": 2.7717713293,
				"y": -3.2398030624,
				"z": 1.0892444049,
				"element": "O" 
			},
			{
				"x": 2.2946475738,
				"y": -1.9610382328,
				"z": 1.0558639847,
				"element": "C" 
			},
			{
				"x": 2.2954791711,
				"y": -1.1199419303,
				"z": -0.0614419377,
				"element": "C" 
			},
			{
				"x": 1.8040697679,
				"y": 0.1859409776,
				"z": 0.0389662521,
				"element": "C" 
			},
			{
				"x": 1.2856188903,
				"y": 0.6602974807,
				"z": 1.2421334434,
				"element": "C" 
			},
			{
				"x": 0.7352824059,
				"y": 1.9872244129,
				"z": 1.405072392,
				"element": "N" 
			},
			{
				"x": 0.708465326,
				"y": 2.8985557117,
				"z": 0.3143782821,
				"element": "C" 
			},
			{
				"x": -0.2292886978,
				"y": 2.7561742536,
				"z": -0.7303744985,
				"element": "C" 
			},
			{
				"x": -0.1588557849,
				"y": 3.6747144212,
				"z": -1.782162085,
				"element": "C" 
			},
			{
				"x": 0.7657299443,
				"y": 4.7134810635,
				"z": -1.7342366852,
				"element": "C" 
			},
			{
				"x": 1.5870128604,
				"y": 4.8058906564,
				"z": -0.6106204347,
				"element": "C" 
			},
			{
				"x": 1.5772989113,
				"y": 3.9115291395,
				"z": 0.3846512596,
				"element": "N" 
			},
			{
				"x": -1.3542896518,
				"y": 1.7516157636,
				"z": -0.766773038,
				"element": "C" 
			},
			{
				"x": -1.6704413326,
				"y": 1.1522460852,
				"z": 0.3920218445,
				"element": "O" 
			},
			{
				"x": -1.9804086521,
				"y": 1.5358023676,
				"z": -1.7817696966,
				"element": "O" 
			},
			{
				"x": 1.2759672771,
				"y": -0.1889525123,
				"z": 2.3580875753,
				"element": "C" 
			},
			{
				"x": 1.7826639853,
				"y": -1.4770541198,
				"z": 2.2704351433,
				"element": "C" 
			},
			{
				"x": 1.4806623944,
				"y": -3.5583430286,
				"z": -1.3542450948,
				"element": "H" 
			},
			{
				"x": 2.5351101963,
				"y": -4.8873956692,
				"z": -1.8682917266,
				"element": "H" 
			},
			{
				"x": 1.4965100282,
				"y": -5.0751896471,
				"z": -0.4412019788,
				"element": "H" 
			},
			{
				"x": 3.9088986234,
				"y": -3.1647599951,
				"z": -0.6547553032,
				"element": "H" 
			},
			{
				"x": 3.8673823833,
				"y": -4.6855944583,
				"z": 0.2390288504,
				"element": "H" 
			},
			{
				"x": 2.6800024247,
				"y": -1.4561071438,
				"z": -1.0166201111,
				"element": "H" 
			},
			{
				"x": 1.8309567704,
				"y": 0.8242684396,
				"z": -0.8374082041,
				"element": "H" 
			},
			{
				"x": 1.1744195694,
				"y": 2.4570049074,
				"z": 2.1928788879,
				"element": "H" 
			},
			{
				"x": -0.860298795,
				"y": 3.5625874057,
				"z": -2.6022866187,
				"element": "H" 
			},
			{
				"x": 0.8331359424,
				"y": 5.4474632677,
				"z": -2.5300559177,
				"element": "H" 
			},
			{
				"x": 2.2927683859,
				"y": 5.6273309465,
				"z": -0.5040056738,
				"element": "H" 
			},
			{
				"x": -1.0401557827,
				"y": 1.4374982572,
				"z": 1.0898562533,
				"element": "H" 
			},
			{
				"x": 0.8634477314,
				"y": 0.1663794614,
				"z": 3.2987800288,
				"element": "H" 
			},
			{
				"x": 1.7838158086,
				"y": -2.1364337391,
				"z": 3.1319251298,
				"element": "H" 
			}
		],
		 "valence_orbital": [ 
			{
				"type": "occ",
				"energy": -0.28886,
				"method": "rhf"
			},
			{
				"type": "occ",
				"energy": -0.26461,
				"method": "rhf"
			},
			{
				"type": "occ",
				"energy": -0.26161,
				"method": "rhf"
			},
			{
				"type": "occ",
				"energy": -0.25926,
				"method": "rhf"
			},
			{
				"type": "occ",
				"energy": -0.20921,
				"method": "rhf"
			},
			{
				"type": "unocc",
				"energy": -0.05674,
				"method": "rhf"
			},
			{
				"type": "unocc",
				"energy": -0.03607,
				"method": "rhf"
			},
			{
				"type": "unocc",
				"energy": -0.01153,
				"method": "rhf"
			},
			{
				"type": "unocc",
				"energy": 0.01191,
				"method": "rhf"
			},
			{
				"type": "unocc",
				"energy": 0.04735,
				"method": "rhf"
			}
		],
		"cosmo_sigma_profile": { 
			"-0.025": 0.0,
			"-0.024": 0.0,
			"-0.023": 0.0,
			"-0.022": 0.0,
			"-0.021": 0.0,
			"-0.02": 0.0,
			"-0.019": 0.0,
			"-0.018": 0.0,
			"-0.017": 0.0,
			"-0.016": 0.0,
			"-0.015": 0.0,
			"-0.014": 0.203357423612,
			"-0.013": 0.794330485492,
			"-0.012": 0.753817594537,
			"-0.011": 1.33690404022,
			"-0.01": 1.01790650033,
			"-0.009": 1.34511475992,
			"-0.008": 4.32729270343,
			"-0.007": 10.7959866691,
			"-0.006": 16.8855277517,
			"-0.005": 21.514553981,
			"-0.004": 24.2356916362,
			"-0.003": 25.4736372231,
			"-0.002": 22.6584631179,
			"-0.001": 21.3381780502,
			"0.0": 24.08891692,
			"0.001": 20.7428976781,
			"0.002": 14.3042904008,
			"0.003": 13.0589087484,
			"0.004": 14.5935833437,
			"0.005": 12.5152037673,
			"0.006": 5.79176456506,
			"0.007": 4.81673564602,
			"0.008": 4.53663663433,
			"0.009": 4.95216939041,
			"0.01": 7.08216650704,
			"0.011": 6.80630408254,
			"0.012": 5.50136168607,
			"0.013": 2.77514685178,
			"0.014": 0.464526663822,
			"0.015": 0.0,
			"0.016": 0.0,
			"0.017": 0.0,
			"0.018": 0.0,
			"0.019": 0.0,
			"0.02": 0.0,
			"0.021": 0.0,
			"0.022": 0.0,
			"0.023": 0.0,
			"0.024": 0.0,
			"0.025": 0.0
		}
	}
}
