{
	 "smiles": "CC=CC(O)=O", 
	 "Tm": 345.15, 
	 "num_atms": 12, 
	 "gaussian": { 
		 "optdone": 1, 
		 "sigma_profile": "yes", 
		 "theory": "DFT", 
		 "functional": "B3LYP", 
		 "basiset": "6-31G**", 
		 "properties": { 
			 "R2extent": 1236.0792, 
			 "electric_dipole_moment_norm": 2.6353328841, 
			 "electric_quadrupole_moment_norm": 7.94403460466, 
			 "total_energy": -306.489059946, 
			 "HOMO_LUMO_gap": 0.22855, 
			 "cosmo_polarized_energy": -8.56, 
			 "cosmo_cavitation_energy": 16.44, 
			 "cosmo_dispersion_energy": -12.09, 
			 "cosmo_repulsion_energy": 1.07, 
			 "cosmo_total_nonelectrostatic_energy": 5.43, 
			 "SMD_solvation_energy": 4.7 
		},
		"coords": [
			{
				"x": 0.9276562646,
				"y": 0.0144966682,
				"z": -1.1519666752,
				"element": "C" 
			},
			{
				"x": 0.6508170338,
				"y": -0.9603390373,
				"z": -0.0513020922,
				"element": "C" 
			},
			{
				"x": -0.5648742134,
				"y": -1.2313007005,
				"z": 0.442282882,
				"element": "C" 
			},
			{
				"x": -0.8284915087,
				"y": -2.1947397931,
				"z": 1.5280202446,
				"element": "C" 
			},
			{
				"x": 0.2899937335,
				"y": -2.8042603212,
				"z": 2.006503695,
				"element": "O" 
			},
			{
				"x": -1.9334807206,
				"y": -2.4361815037,
				"z": 1.9737977066,
				"element": "O" 
			},
			{
				"x": 1.6160214745,
				"y": 0.7981468431,
				"z": -0.8112372856,
				"element": "H" 
			},
			{
				"x": 0.0138123047,
				"y": 0.4908304382,
				"z": -1.5169376925,
				"element": "H" 
			},
			{
				"x": 1.4208567971,
				"y": -0.4840187711,
				"z": -1.9959394058,
				"element": "H" 
			},
			{
				"x": 1.5079572965,
				"y": -1.4813950763,
				"z": 0.3712310825,
				"element": "H" 
			},
			{
				"x": -1.4576075915,
				"y": -0.743466522,
				"z": 0.0616199914,
				"element": "H" 
			},
			{
				"x": -0.0207608705,
				"y": -3.4015722243,
				"z": 2.7059275492,
				"element": "H" 
			}
		],
		 "valence_orbital": [ 
			{
				"type": "occ",
				"energy": -0.38152,
				"method": "rhf"
			},
			{
				"type": "occ",
				"energy": -0.36986,
				"method": "rhf"
			},
			{
				"type": "occ",
				"energy": -0.31358,
				"method": "rhf"
			},
			{
				"type": "occ",
				"energy": -0.27228,
				"method": "rhf"
			},
			{
				"type": "occ",
				"energy": -0.26959,
				"method": "rhf"
			},
			{
				"type": "unocc",
				"energy": -0.04104,
				"method": "rhf"
			},
			{
				"type": "unocc",
				"energy": 0.08183,
				"method": "rhf"
			},
			{
				"type": "unocc",
				"energy": 0.09245,
				"method": "rhf"
			},
			{
				"type": "unocc",
				"energy": 0.10816,
				"method": "rhf"
			},
			{
				"type": "unocc",
				"energy": 0.12204,
				"method": "rhf"
			}
		],
		"cosmo_sigma_profile": { 
			"-0.025": 0.0,
			"-0.024": 0.0,
			"-0.023": 0.0,
			"-0.022": 0.0,
			"-0.021": 0.0,
			"-0.02": 0.0,
			"-0.019": 0.0,
			"-0.018": 0.354513828276,
			"-0.017": 0.998744814391,
			"-0.016": 0.45443728947,
			"-0.015": 1.02683007859,
			"-0.014": 0.662650811148,
			"-0.013": 1.0880983359,
			"-0.012": 0.740626517989,
			"-0.011": 0.537969516017,
			"-0.01": 0.461695041069,
			"-0.009": 0.494881482654,
			"-0.008": 0.475089568011,
			"-0.007": 0.958670791279,
			"-0.006": 4.70735256698,
			"-0.005": 10.4380246812,
			"-0.004": 10.3151897816,
			"-0.003": 10.8015027343,
			"-0.002": 10.5847393886,
			"-0.001": 13.4836229225,
			"0.0": 11.1122194383,
			"0.001": 7.69617259673,
			"0.002": 7.8345284441,
			"0.003": 6.38902979918,
			"0.004": 2.60288325077,
			"0.005": 2.52149802197,
			"0.006": 3.03891152286,
			"0.007": 2.89889696823,
			"0.008": 3.0045729383,
			"0.009": 1.62888679504,
			"0.01": 1.81231919204,
			"0.011": 2.59915304104,
			"0.012": 5.26666074602,
			"0.013": 2.81432277627,
			"0.014": 0.148956773149,
			"0.015": 0.0,
			"0.016": 0.0,
			"0.017": 0.0,
			"0.018": 0.0,
			"0.019": 0.0,
			"0.02": 0.0,
			"0.021": 0.0,
			"0.022": 0.0,
			"0.023": 0.0,
			"0.024": 0.0,
			"0.025": 0.0
		}
	}
}
