{
	 "smiles": "CC1=C(C=CC(Cl)=N1)[N+]([O-])=O", 
	 "Tm": 329.15, 
	 "num_atms": 16, 
	 "gaussian": { 
		 "optdone": 1, 
		 "sigma_profile": "yes", 
		 "theory": "DFT", 
		 "functional": "B3LYP", 
		 "basiset": "6-31G**", 
		 "properties": { 
			 "R2extent": 2486.7704, 
			 "electric_dipole_moment_norm": 1.76481746932, 
			 "electric_quadrupole_moment_norm": 13.2419093117, 
			 "total_energy": -951.692124444, 
			 "HOMO_LUMO_gap": 0.17979, 
			 "cosmo_polarized_energy": -8.33, 
			 "cosmo_cavitation_energy": 22.83, 
			 "cosmo_dispersion_energy": -17.17, 
			 "cosmo_repulsion_energy": 1.38, 
			 "cosmo_total_nonelectrostatic_energy": 7.03, 
			 "SMD_solvation_energy": 4.62 
		},
		"coords": [
			{
				"x": 2.5958495053,
				"y": -1.1580030152,
				"z": -0.155495079,
				"element": "C" 
			},
			{
				"x": 1.1095478447,
				"y": -0.9841675433,
				"z": -0.3070491056,
				"element": "C" 
			},
			{
				"x": 0.4595499968,
				"y": -0.1916494822,
				"z": -1.2760439693,
				"element": "C" 
			},
			{
				"x": -0.9354378577,
				"y": -0.1137253871,
				"z": -1.3117258572,
				"element": "C" 
			},
			{
				"x": -1.6769154455,
				"y": -0.8239674122,
				"z": -0.3834733399,
				"element": "C" 
			},
			{
				"x": -0.9526970996,
				"y": -1.5834051794,
				"z": 0.5408366485,
				"element": "C" 
			},
			{
				"x": -1.8347577622,
				"y": -2.5062586061,
				"z": 1.7436065351,
				"element": "Cl" 
			},
			{
				"x": 0.3627867431,
				"y": -1.6646709316,
				"z": 0.5838067347,
				"element": "N" 
			},
			{
				"x": 1.1899460425,
				"y": 0.5861188927,
				"z": -2.2882648005,
				"element": "N" 
			},
			{
				"x": 2.4195135358,
				"y": 0.5432221925,
				"z": -2.2834658986,
				"element": "O" 
			},
			{
				"x": 0.5214431556,
				"y": 1.2408942463,
				"z": -3.0885788778,
				"element": "O" 
			},
			{
				"x": 3.0917215705,
				"y": -0.2005119794,
				"z": 0.023533689,
				"element": "H" 
			},
			{
				"x": 3.043254679,
				"y": -1.5660570286,
				"z": -1.0654517966,
				"element": "H" 
			},
			{
				"x": 2.7717173217,
				"y": -1.8326169645,
				"z": 0.6827455639,
				"element": "H" 
			},
			{
				"x": -1.4054262134,
				"y": 0.5028702446,
				"z": -2.0675911592,
				"element": "H" 
			},
			{
				"x": -2.7591960165,
				"y": -0.7970720465,
				"z": -0.3686892875,
				"element": "H" 
			}
		],
		 "valence_orbital": [ 
			{
				"type": "occ",
				"energy": -0.32251,
				"method": "rhf"
			},
			{
				"type": "occ",
				"energy": -0.31959,
				"method": "rhf"
			},
			{
				"type": "occ",
				"energy": -0.30393,
				"method": "rhf"
			},
			{
				"type": "occ",
				"energy": -0.29328,
				"method": "rhf"
			},
			{
				"type": "occ",
				"energy": -0.28373,
				"method": "rhf"
			},
			{
				"type": "unocc",
				"energy": -0.10394,
				"method": "rhf"
			},
			{
				"type": "unocc",
				"energy": -0.05656,
				"method": "rhf"
			},
			{
				"type": "unocc",
				"energy": -0.02355,
				"method": "rhf"
			},
			{
				"type": "unocc",
				"energy": 0.01656,
				"method": "rhf"
			},
			{
				"type": "unocc",
				"energy": 0.08663,
				"method": "rhf"
			}
		],
		"cosmo_sigma_profile": { 
			"-0.025": 0.0,
			"-0.024": 0.0,
			"-0.023": 0.0,
			"-0.022": 0.0,
			"-0.021": 0.0,
			"-0.02": 0.0,
			"-0.019": 0.0,
			"-0.018": 0.0,
			"-0.017": 0.0,
			"-0.016": 0.0,
			"-0.015": 0.0,
			"-0.014": 0.0,
			"-0.013": 0.0,
			"-0.012": 0.0,
			"-0.011": 0.0,
			"-0.01": 0.421302960738,
			"-0.009": 3.24187157237,
			"-0.008": 4.05984303504,
			"-0.007": 5.03385191058,
			"-0.006": 6.8277734112,
			"-0.005": 11.3612554375,
			"-0.004": 12.9398756214,
			"-0.003": 19.1315876625,
			"-0.002": 19.2283045819,
			"-0.001": 18.9766121469,
			"0.0": 9.08570730955,
			"0.001": 8.87847920477,
			"0.002": 9.50675176966,
			"0.003": 12.2862039917,
			"0.004": 8.99117192019,
			"0.005": 5.85427666874,
			"0.006": 6.06665360993,
			"0.007": 8.36412150802,
			"0.008": 6.12255916599,
			"0.009": 5.11937355627,
			"0.01": 2.73861663701,
			"0.011": 0.981082316543,
			"0.012": 0.543248766512,
			"0.013": 0.0,
			"0.014": 0.0,
			"0.015": 0.0,
			"0.016": 0.0,
			"0.017": 0.0,
			"0.018": 0.0,
			"0.019": 0.0,
			"0.02": 0.0,
			"0.021": 0.0,
			"0.022": 0.0,
			"0.023": 0.0,
			"0.024": 0.0,
			"0.025": 0.0
		}
	}
}
