{
	 "smiles": "NC(=O)C1=CC(O)=C(O)C(O)=C1", 
	 "Tm": 515.15, 
	 "num_atms": 19, 
	 "gaussian": { 
		 "optdone": 1, 
		 "sigma_profile": "yes", 
		 "theory": "DFT", 
		 "functional": "B3LYP", 
		 "basiset": "6-31G**", 
		 "properties": { 
			 "R2extent": 3372.4368, 
			 "electric_dipole_moment_norm": 2.25275549272, 
			 "electric_quadrupole_moment_norm": 12.226226981, 
			 "total_energy": -626.619185162, 
			 "HOMO_LUMO_gap": 0.18861, 
			 "cosmo_polarized_energy": -19.47, 
			 "cosmo_cavitation_energy": 23.73, 
			 "cosmo_dispersion_energy": -18.09, 
			 "cosmo_repulsion_energy": 1.45, 
			 "cosmo_total_nonelectrostatic_energy": 7.09, 
			 "SMD_solvation_energy": 5.76 
		},
		"coords": [
			{
				"x": 1.3610331087,
				"y": -3.101720133,
				"z": -2.4940241287,
				"element": "N" 
			},
			{
				"x": 1.0204271394,
				"y": -2.3623499365,
				"z": -1.3861727433,
				"element": "C" 
			},
			{
				"x": 1.5603739941,
				"y": -2.5479025066,
				"z": -0.3004184267,
				"element": "O" 
			},
			{
				"x": -0.0569236327,
				"y": -1.3356210806,
				"z": -1.5722642644,
				"element": "C" 
			},
			{
				"x": -0.1986155752,
				"y": -0.386636105,
				"z": -0.5506969366,
				"element": "C" 
			},
			{
				"x": -1.1719083674,
				"y": 0.5983625009,
				"z": -0.6593311067,
				"element": "C" 
			},
			{
				"x": -1.4025882459,
				"y": 1.5838347598,
				"z": 0.2713942388,
				"element": "O" 
			},
			{
				"x": -2.0112439883,
				"y": 0.644335079,
				"z": -1.776851627,
				"element": "C" 
			},
			{
				"x": -2.9848216543,
				"y": 1.5957605098,
				"z": -1.9216637267,
				"element": "O" 
			},
			{
				"x": -1.8804909951,
				"y": -0.3111961891,
				"z": -2.7908047835,
				"element": "C" 
			},
			{
				"x": -2.7103542943,
				"y": -0.2797547423,
				"z": -3.8701801125,
				"element": "O" 
			},
			{
				"x": -0.903877335,
				"y": -1.3019695831,
				"z": -2.6882223051,
				"element": "C" 
			},
			{
				"x": 2.1687560039,
				"y": -3.6969081858,
				"z": -2.3814998479,
				"element": "H" 
			},
			{
				"x": 1.1797404819,
				"y": -2.7472049396,
				"z": -3.4197693576,
				"element": "H" 
			},
			{
				"x": 0.4589083453,
				"y": -0.4494523312,
				"z": 0.310967369,
				"element": "H" 
			},
			{
				"x": -0.8075677803,
				"y": 1.4651952115,
				"z": 1.0221432478,
				"element": "H" 
			},
			{
				"x": -2.9684562616,
				"y": 2.1602630731,
				"z": -1.1347204687,
				"element": "H" 
			},
			{
				"x": -3.3244294,
				"y": 0.4598808015,
				"z": -3.7481687072,
				"element": "H" 
			},
			{
				"x": -0.8594615432,
				"y": -2.0517162028,
				"z": -3.470116313,
				"element": "H" 
			}
		],
		 "valence_orbital": [ 
			{
				"type": "occ",
				"energy": -0.31431,
				"method": "rhf"
			},
			{
				"type": "occ",
				"energy": -0.26786,
				"method": "rhf"
			},
			{
				"type": "occ",
				"energy": -0.24731,
				"method": "rhf"
			},
			{
				"type": "occ",
				"energy": -0.2269,
				"method": "rhf"
			},
			{
				"type": "occ",
				"energy": -0.21558,
				"method": "rhf"
			},
			{
				"type": "unocc",
				"energy": -0.02697,
				"method": "rhf"
			},
			{
				"type": "unocc",
				"energy": 0.0112,
				"method": "rhf"
			},
			{
				"type": "unocc",
				"energy": 0.04271,
				"method": "rhf"
			},
			{
				"type": "unocc",
				"energy": 0.07012,
				"method": "rhf"
			},
			{
				"type": "unocc",
				"energy": 0.07972,
				"method": "rhf"
			}
		],
		"cosmo_sigma_profile": { 
			"-0.025": 0.0,
			"-0.024": 0.0,
			"-0.023": 0.0,
			"-0.022": 0.0,
			"-0.021": 0.0,
			"-0.02": 0.0,
			"-0.019": 0.181888401784,
			"-0.018": 1.1308551476,
			"-0.017": 0.792558820727,
			"-0.016": 1.59557949551,
			"-0.015": 1.78360203855,
			"-0.014": 3.92662426494,
			"-0.013": 4.07761003659,
			"-0.012": 3.60028572816,
			"-0.011": 5.01043588467,
			"-0.01": 5.45245774083,
			"-0.009": 4.73907606028,
			"-0.008": 3.72066564421,
			"-0.007": 4.40199992511,
			"-0.006": 5.68527433291,
			"-0.005": 6.00007171634,
			"-0.004": 5.00898236622,
			"-0.003": 4.89897508627,
			"-0.002": 6.75980286246,
			"-0.001": 6.2888896649,
			"0.0": 7.13677953414,
			"0.001": 12.2504102789,
			"0.002": 15.9658533993,
			"0.003": 15.5920329424,
			"0.004": 13.7933192914,
			"0.005": 9.5277530502,
			"0.006": 7.33845793932,
			"0.007": 5.5819638165,
			"0.008": 4.54277448999,
			"0.009": 3.81250433629,
			"0.01": 2.77202402801,
			"0.011": 3.51186937289,
			"0.012": 2.57331770285,
			"0.013": 3.60947593519,
			"0.014": 4.70099155769,
			"0.015": 0.535386275833,
			"0.016": 0.0,
			"0.017": 0.0,
			"0.018": 0.0,
			"0.019": 0.0,
			"0.02": 0.0,
			"0.021": 0.0,
			"0.022": 0.0,
			"0.023": 0.0,
			"0.024": 0.0,
			"0.025": 0.0
		}
	}
}
