{
	 "smiles": "CNCC(O)CN1CCCC1=O", 
	 "Tm": 362.15, 
	 "num_atms": 28, 
	 "gaussian": { 
		 "optdone": 1, 
		 "sigma_profile": "yes", 
		 "theory": "DFT", 
		 "functional": "B3LYP", 
		 "basiset": "6-31G**", 
		 "properties": { 
			 "R2extent": 3116.8775, 
			 "electric_dipole_moment_norm": 4.55337005415, 
			 "electric_quadrupole_moment_norm": 13.2181845493, 
			 "total_energy": -574.457564278, 
			 "HOMO_LUMO_gap": 0.22846, 
			 "cosmo_polarized_energy": -12.64, 
			 "cosmo_cavitation_energy": 29.06, 
			 "cosmo_dispersion_energy": -21.44, 
			 "cosmo_repulsion_energy": 1.75, 
			 "cosmo_total_nonelectrostatic_energy": 9.37, 
			 "SMD_solvation_energy": 2.96 
		},
		"coords": [
			{
				"x": -3.9934884127,
				"y": -1.2359437446,
				"z": 0.3615534129,
				"element": "C" 
			},
			{
				"x": -2.7973880363,
				"y": -0.4067060305,
				"z": 0.3277308218,
				"element": "N" 
			},
			{
				"x": -1.664013488,
				"y": -1.0526468569,
				"z": -0.321536165,
				"element": "C" 
			},
			{
				"x": -0.4982210079,
				"y": -0.0687961764,
				"z": -0.4442830448,
				"element": "C" 
			},
			{
				"x": -0.9441302281,
				"y": 0.9789140505,
				"z": -1.2865657103,
				"element": "O" 
			},
			{
				"x": -0.0501349703,
				"y": 0.4540682162,
				"z": 0.9383691247,
				"element": "C" 
			},
			{
				"x": 1.3057834743,
				"y": 1.0104550406,
				"z": 0.9693582499,
				"element": "N" 
			},
			{
				"x": 2.415634529,
				"y": 0.3616102788,
				"z": 1.667523641,
				"element": "C" 
			},
			{
				"x": 3.4856779638,
				"y": 1.472007637,
				"z": 1.7508648084,
				"element": "C" 
			},
			{
				"x": 3.1513885921,
				"y": 2.3948549795,
				"z": 0.5674858816,
				"element": "C" 
			},
			{
				"x": 1.6731972687,
				"y": 2.1340564568,
				"z": 0.2961895754,
				"element": "C" 
			},
			{
				"x": 0.9406915318,
				"y": 2.804424045,
				"z": -0.4348336788,
				"element": "O" 
			},
			{
				"x": -3.8228856054,
				"y": -2.1064751875,
				"z": 1.0066728342,
				"element": "H" 
			},
			{
				"x": -4.8248431424,
				"y": -0.666988822,
				"z": 0.78932252,
				"element": "H" 
			},
			{
				"x": -4.3106893769,
				"y": -1.6169006346,
				"z": -0.6271353301,
				"element": "H" 
			},
			{
				"x": -2.9809542022,
				"y": 0.4499956496,
				"z": -0.189693819,
				"element": "H" 
			},
			{
				"x": -1.9003016209,
				"y": -1.4269657879,
				"z": -1.3357324007,
				"element": "H" 
			},
			{
				"x": -1.3529543981,
				"y": -1.9219341318,
				"z": 0.2746809156,
				"element": "H" 
			},
			{
				"x": 0.3559341224,
				"y": -0.6049807494,
				"z": -0.8970267408,
				"element": "H" 
			},
			{
				"x": -0.3710491331,
				"y": 1.7564441977,
				"z": -1.1273706248,
				"element": "H" 
			},
			{
				"x": -0.0791984813,
				"y": -0.3567017754,
				"z": 1.67089917,
				"element": "H" 
			},
			{
				"x": -0.7614517967,
				"y": 1.2170895456,
				"z": 1.267711864,
				"element": "H" 
			},
			{
				"x": 2.0956691282,
				"y": 0.0102416694,
				"z": 2.6542118852,
				"element": "H" 
			},
			{
				"x": 2.7744717198,
				"y": -0.5121938679,
				"z": 1.1038622483,
				"element": "H" 
			},
			{
				"x": 4.5004842086,
				"y": 1.0689297707,
				"z": 1.7185768931,
				"element": "H" 
			},
			{
				"x": 3.3728759458,
				"y": 2.0166964831,
				"z": 2.6933027996,
				"element": "H" 
			},
			{
				"x": 3.3224797278,
				"y": 3.4567168467,
				"z": 0.7573274519,
				"element": "H" 
			},
			{
				"x": 3.710915688,
				"y": 2.1334288976,
				"z": -0.3390665834,
				"element": "H" 
			}
		],
		 "valence_orbital": [ 
			{
				"type": "occ",
				"energy": -0.31818,
				"method": "rhf"
			},
			{
				"type": "occ",
				"energy": -0.25884,
				"method": "rhf"
			},
			{
				"type": "occ",
				"energy": -0.25324,
				"method": "rhf"
			},
			{
				"type": "occ",
				"energy": -0.24097,
				"method": "rhf"
			},
			{
				"type": "occ",
				"energy": -0.21053,
				"method": "rhf"
			},
			{
				"type": "unocc",
				"energy": 0.01793,
				"method": "rhf"
			},
			{
				"type": "unocc",
				"energy": 0.07378,
				"method": "rhf"
			},
			{
				"type": "unocc",
				"energy": 0.09378,
				"method": "rhf"
			},
			{
				"type": "unocc",
				"energy": 0.10031,
				"method": "rhf"
			},
			{
				"type": "unocc",
				"energy": 0.10873,
				"method": "rhf"
			}
		],
		"cosmo_sigma_profile": { 
			"-0.025": 0.0,
			"-0.024": 0.0,
			"-0.023": 0.0,
			"-0.022": 0.0,
			"-0.021": 0.0,
			"-0.02": 0.0,
			"-0.019": 0.0,
			"-0.018": 0.0,
			"-0.017": 0.0,
			"-0.016": 0.0,
			"-0.015": 0.0,
			"-0.014": 0.0,
			"-0.013": 0.0,
			"-0.012": 0.0,
			"-0.011": 0.0,
			"-0.01": 0.0,
			"-0.009": 0.0,
			"-0.008": 0.184583842835,
			"-0.007": 0.877346164639,
			"-0.006": 6.09213184343,
			"-0.005": 13.7150587936,
			"-0.004": 30.5590278323,
			"-0.003": 32.9705452814,
			"-0.002": 28.4415018643,
			"-0.001": 29.3810640192,
			"0.0": 20.2064068679,
			"0.001": 9.69896696725,
			"0.002": 6.36986637596,
			"0.003": 5.49047563882,
			"0.004": 4.91982608968,
			"0.005": 3.23344853182,
			"0.006": 3.6476437824,
			"0.007": 3.21636391953,
			"0.008": 3.37612765557,
			"0.009": 3.40821361078,
			"0.01": 3.19151574377,
			"0.011": 2.6817898071,
			"0.012": 3.60693492961,
			"0.013": 4.34257402406,
			"0.014": 2.72707355801,
			"0.015": 2.19094955886,
			"0.016": 0.570665115464,
			"0.017": 0.055214201784,
			"0.018": 0.0,
			"0.019": 0.0,
			"0.02": 0.0,
			"0.021": 0.0,
			"0.022": 0.0,
			"0.023": 0.0,
			"0.024": 0.0,
			"0.025": 0.0
		}
	}
}
