{
	 "smiles": "CCCCCCCOC1=CC=C(C=C1)C(O)=O", 
	 "Tm": 419.15, 
	 "num_atms": 37, 
	 "gaussian": { 
		 "optdone": 1, 
		 "sigma_profile": "yes", 
		 "theory": "DFT", 
		 "functional": "B3LYP", 
		 "basiset": "6-31G**", 
		 "properties": { 
			 "R2extent": 9836.9395, 
			 "electric_dipole_moment_norm": 2.84782076156, 
			 "electric_quadrupole_moment_norm": 15.1050214952, 
			 "total_energy": -771.248280507, 
			 "HOMO_LUMO_gap": 0.19354, 
			 "cosmo_polarized_energy": -10.72, 
			 "cosmo_cavitation_energy": 39.83, 
			 "cosmo_dispersion_energy": -28.27, 
			 "cosmo_repulsion_energy": 2.25, 
			 "cosmo_total_nonelectrostatic_energy": 13.81, 
			 "SMD_solvation_energy": 7.54 
		},
		"coords": [
			{
				"x": 1.9620975873,
				"y": 1.281601107,
				"z": -2.9732242844,
				"element": "C" 
			},
			{
				"x": 2.390057665,
				"y": 2.6398629015,
				"z": -2.4007719589,
				"element": "C" 
			},
			{
				"x": 3.0261921638,
				"y": 2.591397778,
				"z": -0.9938918222,
				"element": "C" 
			},
			{
				"x": 2.0595686094,
				"y": 2.7195665196,
				"z": 0.197434784,
				"element": "C" 
			},
			{
				"x": 1.0379321193,
				"y": 1.5871648879,
				"z": 0.3677900639,
				"element": "C" 
			},
			{
				"x": 0.2181742099,
				"y": 1.7253483725,
				"z": 1.6577345757,
				"element": "C" 
			},
			{
				"x": -0.8124260345,
				"y": 0.6222288536,
				"z": 1.8555283166,
				"element": "C" 
			},
			{
				"x": -0.1111802196,
				"y": -0.6179140843,
				"z": 1.9935939895,
				"element": "O" 
			},
			{
				"x": -0.8175343072,
				"y": -1.7635718572,
				"z": 2.1693001797,
				"element": "C" 
			},
			{
				"x": -0.0525172302,
				"y": -2.9371256663,
				"z": 2.2923703726,
				"element": "C" 
			},
			{
				"x": -0.676309596,
				"y": -4.1604305056,
				"z": 2.4765683309,
				"element": "C" 
			},
			{
				"x": -2.078698947,
				"y": -4.2406622048,
				"z": 2.5422340764,
				"element": "C" 
			},
			{
				"x": -2.8334430778,
				"y": -3.0686977582,
				"z": 2.4191851924,
				"element": "C" 
			},
			{
				"x": -2.2181357041,
				"y": -1.8339090593,
				"z": 2.2339016722,
				"element": "C" 
			},
			{
				"x": -2.7968426706,
				"y": -5.5191035727,
				"z": 2.7374318961,
				"element": "C" 
			},
			{
				"x": -1.9640942769,
				"y": -6.5891604749,
				"z": 2.8441840132,
				"element": "O" 
			},
			{
				"x": -4.0060528069,
				"y": -5.6425497031,
				"z": 2.8012298796,
				"element": "O" 
			},
			{
				"x": 1.5483360749,
				"y": 1.3935317697,
				"z": -3.9813057278,
				"element": "H" 
			},
			{
				"x": 1.2036911516,
				"y": 0.7888383552,
				"z": -2.358346648,
				"element": "H" 
			},
			{
				"x": 2.8192796297,
				"y": 0.6019754127,
				"z": -3.0420422561,
				"element": "H" 
			},
			{
				"x": 3.1131567194,
				"y": 3.085542459,
				"z": -3.095318359,
				"element": "H" 
			},
			{
				"x": 1.5314183614,
				"y": 3.3256456483,
				"z": -2.3879188597,
				"element": "H" 
			},
			{
				"x": 3.7505215056,
				"y": 3.4114470291,
				"z": -0.9106479065,
				"element": "H" 
			},
			{
				"x": 3.611029325,
				"y": 1.6662283655,
				"z": -0.891692896,
				"element": "H" 
			},
			{
				"x": 2.658916262,
				"y": 2.787357768,
				"z": 1.1161657395,
				"element": "H" 
			},
			{
				"x": 1.5242225255,
				"y": 3.677092595,
				"z": 0.1183509585,
				"element": "H" 
			},
			{
				"x": 0.3496874719,
				"y": 1.569636239,
				"z": -0.4870192616,
				"element": "H" 
			},
			{
				"x": 1.5520099417,
				"y": 0.6186811907,
				"z": 0.3735391329,
				"element": "H" 
			},
			{
				"x": 0.886750572,
				"y": 1.7388473873,
				"z": 2.5277174211,
				"element": "H" 
			},
			{
				"x": -0.3182010381,
				"y": 2.6837189341,
				"z": 1.6599098439,
				"element": "H" 
			},
			{
				"x": -1.4948535654,
				"y": 0.5672836528,
				"z": 0.9951887832,
				"element": "H" 
			},
			{
				"x": -1.4136344571,
				"y": 0.8079166245,
				"z": 2.7560499752,
				"element": "H" 
			},
			{
				"x": 1.0280331491,
				"y": -2.8558405223,
				"z": 2.239251148,
				"element": "H" 
			},
			{
				"x": -0.0835333072,
				"y": -5.0632083592,
				"z": 2.5709686298,
				"element": "H" 
			},
			{
				"x": -3.9146387343,
				"y": -3.1423376491,
				"z": 2.4716045686,
				"element": "H" 
			},
			{
				"x": -2.8262739269,
				"y": -0.9424318403,
				"z": 2.1423457988,
				"element": "H" 
			},
			{
				"x": -2.5455051445,
				"y": -7.3569705937,
				"z": 2.9674006377,
				"element": "H" 
			}
		],
		 "valence_orbital": [ 
			{
				"type": "occ",
				"energy": -0.30862,
				"method": "rhf"
			},
			{
				"type": "occ",
				"energy": -0.3057,
				"method": "rhf"
			},
			{
				"type": "occ",
				"energy": -0.26847,
				"method": "rhf"
			},
			{
				"type": "occ",
				"energy": -0.25946,
				"method": "rhf"
			},
			{
				"type": "occ",
				"energy": -0.22875,
				"method": "rhf"
			},
			{
				"type": "unocc",
				"energy": -0.03521,
				"method": "rhf"
			},
			{
				"type": "unocc",
				"energy": -0.00706,
				"method": "rhf"
			},
			{
				"type": "unocc",
				"energy": 0.06967,
				"method": "rhf"
			},
			{
				"type": "unocc",
				"energy": 0.08279,
				"method": "rhf"
			},
			{
				"type": "unocc",
				"energy": 0.08328,
				"method": "rhf"
			}
		],
		"cosmo_sigma_profile": { 
			"-0.025": 0.0,
			"-0.024": 0.0,
			"-0.023": 0.0,
			"-0.022": 0.0,
			"-0.021": 0.0,
			"-0.02": 0.0,
			"-0.019": 0.0,
			"-0.018": 0.458833358971,
			"-0.017": 0.825087471762,
			"-0.016": 1.13482118146,
			"-0.015": 0.711443555989,
			"-0.014": 0.488423174198,
			"-0.013": 0.688021090558,
			"-0.012": 0.600905605083,
			"-0.011": 0.892880660621,
			"-0.01": 1.07935165997,
			"-0.009": 0.184268714905,
			"-0.008": 0.421755367352,
			"-0.007": 2.91078436244,
			"-0.006": 7.71833265118,
			"-0.005": 12.8665766893,
			"-0.004": 14.9831467,
			"-0.003": 19.5814379494,
			"-0.002": 33.030093255,
			"-0.001": 43.4949393847,
			"0.0": 41.4968314014,
			"0.001": 38.5867335566,
			"0.002": 25.870356463,
			"0.003": 17.7660286331,
			"0.004": 14.3102808179,
			"0.005": 5.42962693499,
			"0.006": 5.58293446256,
			"0.007": 3.99708178109,
			"0.008": 3.21166324554,
			"0.009": 2.18976381655,
			"0.01": 2.01377459477,
			"0.011": 2.30246776073,
			"0.012": 5.49591476142,
			"0.013": 1.01529833451,
			"0.014": 0.0,
			"0.015": 0.0,
			"0.016": 0.0,
			"0.017": 0.0,
			"0.018": 0.0,
			"0.019": 0.0,
			"0.02": 0.0,
			"0.021": 0.0,
			"0.022": 0.0,
			"0.023": 0.0,
			"0.024": 0.0,
			"0.025": 0.0
		}
	}
}
