{
	 "smiles": "COC(=O)CC1=CC(O)=NN1", 
	 "Tm": 417.15, 
	 "num_atms": 19, 
	 "gaussian": { 
		 "optdone": 1, 
		 "sigma_profile": "yes", 
		 "theory": "DFT", 
		 "functional": "B3LYP", 
		 "basiset": "6-31G**", 
		 "properties": { 
			 "R2extent": 2529.2491, 
			 "electric_dipole_moment_norm": 2.86773692134, 
			 "electric_quadrupole_moment_norm": 9.62581121101, 
			 "total_energy": -568.615733857, 
			 "HOMO_LUMO_gap": 0.21274, 
			 "cosmo_polarized_energy": -14.35, 
			 "cosmo_cavitation_energy": 23.92, 
			 "cosmo_dispersion_energy": -17.58, 
			 "cosmo_repulsion_energy": 1.45, 
			 "cosmo_total_nonelectrostatic_energy": 7.79, 
			 "SMD_solvation_energy": 5.18 
		},
		"coords": [
			{
				"x": 1.3507522612,
				"y": -1.5359612295,
				"z": 4.0801340196,
				"element": "C" 
			},
			{
				"x": 1.50067092,
				"y": -1.1642899609,
				"z": 2.6957766124,
				"element": "O" 
			},
			{
				"x": 1.9621893625,
				"y": 0.0948557834,
				"z": 2.4810278684,
				"element": "C" 
			},
			{
				"x": 2.2559910709,
				"y": 0.8566624165,
				"z": 3.3712408708,
				"element": "O" 
			},
			{
				"x": 2.0827978207,
				"y": 0.3840692737,
				"z": 0.9911685844,
				"element": "C" 
			},
			{
				"x": 0.7896490151,
				"y": 0.2893609989,
				"z": 0.2312621822,
				"element": "C" 
			},
			{
				"x": 0.2022824161,
				"y": 1.1782485221,
				"z": -0.6534175483,
				"element": "C" 
			},
			{
				"x": -0.9743279804,
				"y": 0.5156641575,
				"z": -1.0747255856,
				"element": "C" 
			},
			{
				"x": -1.8786712019,
				"y": 1.0063168498,
				"z": -1.9536347376,
				"element": "O" 
			},
			{
				"x": -1.1247146175,
				"y": -0.6761435035,
				"z": -0.5116866976,
				"element": "N" 
			},
			{
				"x": -0.0202182682,
				"y": -0.8002296309,
				"z": 0.2748197004,
				"element": "N" 
			},
			{
				"x": 0.9946274058,
				"y": -2.5657377369,
				"z": 4.0719322039,
				"element": "H" 
			},
			{
				"x": 0.6287538102,
				"y": -0.8824023177,
				"z": 4.5750146221,
				"element": "H" 
			},
			{
				"x": 2.3092246881,
				"y": -1.4639721406,
				"z": 4.5987147997,
				"element": "H" 
			},
			{
				"x": 2.8170744069,
				"y": -0.3211094029,
				"z": 0.5778048961,
				"element": "H" 
			},
			{
				"x": 2.4916426403,
				"y": 1.3895823173,
				"z": 0.8902233276,
				"element": "H" 
			},
			{
				"x": 0.562586027,
				"y": 2.1490384633,
				"z": -0.9556652644,
				"element": "H" 
			},
			{
				"x": -2.5729172245,
				"y": 0.3370614108,
				"z": -2.0438447419,
				"element": "H" 
			},
			{
				"x": 0.0763074479,
				"y": -1.5910142704,
				"z": 0.8917548879,
				"element": "H" 
			}
		],
		 "valence_orbital": [ 
			{
				"type": "occ",
				"energy": -0.3188,
				"method": "rhf"
			},
			{
				"type": "occ",
				"energy": -0.29216,
				"method": "rhf"
			},
			{
				"type": "occ",
				"energy": -0.28991,
				"method": "rhf"
			},
			{
				"type": "occ",
				"energy": -0.23976,
				"method": "rhf"
			},
			{
				"type": "occ",
				"energy": -0.21936,
				"method": "rhf"
			},
			{
				"type": "unocc",
				"energy": -0.00662,
				"method": "rhf"
			},
			{
				"type": "unocc",
				"energy": 0.0263,
				"method": "rhf"
			},
			{
				"type": "unocc",
				"energy": 0.07691,
				"method": "rhf"
			},
			{
				"type": "unocc",
				"energy": 0.08959,
				"method": "rhf"
			},
			{
				"type": "unocc",
				"energy": 0.0959,
				"method": "rhf"
			}
		],
		"cosmo_sigma_profile": { 
			"-0.025": 0.0,
			"-0.024": 0.0,
			"-0.023": 0.0,
			"-0.022": 0.0,
			"-0.021": 0.0,
			"-0.02": 0.0,
			"-0.019": 0.0,
			"-0.018": 0.0527841198734,
			"-0.017": 0.7928049028,
			"-0.016": 0.652533507236,
			"-0.015": 1.04395291274,
			"-0.014": 0.91755971384,
			"-0.013": 1.26014739447,
			"-0.012": 1.24393238385,
			"-0.011": 1.43429192388,
			"-0.01": 1.49927776333,
			"-0.009": 1.35925171984,
			"-0.008": 3.17950983373,
			"-0.007": 7.64948372263,
			"-0.006": 14.9993347581,
			"-0.005": 15.1767708013,
			"-0.004": 16.9601756558,
			"-0.003": 14.8487966944,
			"-0.002": 11.2475815481,
			"-0.001": 8.90233242661,
			"0.0": 5.51020817802,
			"0.001": 6.66287922747,
			"0.002": 5.76553437798,
			"0.003": 7.98197923654,
			"0.004": 12.2171950652,
			"0.005": 9.27937724145,
			"0.006": 5.12522538544,
			"0.007": 3.7298426153,
			"0.008": 4.92775331677,
			"0.009": 4.38840460159,
			"0.01": 5.7236986344,
			"0.011": 7.63038664734,
			"0.012": 3.8252115352,
			"0.013": 1.4837510112,
			"0.014": 1.15362766185,
			"0.015": 0.70112072657,
			"0.016": 0.450308418216,
			"0.017": 0.0,
			"0.018": 0.0,
			"0.019": 0.0,
			"0.02": 0.0,
			"0.021": 0.0,
			"0.022": 0.0,
			"0.023": 0.0,
			"0.024": 0.0,
			"0.025": 0.0
		}
	}
}
