{
	 "smiles": "CN1C=CN=C1C1=NC=CC(Cl)=C1", 
	 "Tm": 351.15, 
	 "num_atms": 21, 
	 "gaussian": { 
		 "optdone": 1, 
		 "sigma_profile": "yes", 
		 "theory": "DFT", 
		 "functional": "B3LYP", 
		 "basiset": "6-31G**", 
		 "properties": { 
			 "R2extent": 3480.8246, 
			 "electric_dipole_moment_norm": 3.53353028854, 
			 "electric_quadrupole_moment_norm": 6.6540990457, 
			 "total_energy": -972.224875406, 
			 "HOMO_LUMO_gap": 0.17042, 
			 "cosmo_polarized_energy": -8.87, 
			 "cosmo_cavitation_energy": 27.08, 
			 "cosmo_dispersion_energy": -20.17, 
			 "cosmo_repulsion_energy": 1.57, 
			 "cosmo_total_nonelectrostatic_energy": 8.48, 
			 "SMD_solvation_energy": 2.97 
		},
		"coords": [
			{
				"x": 1.9292727626,
				"y": 2.6002279898,
				"z": -0.3083815958,
				"element": "C" 
			},
			{
				"x": 1.890483131,
				"y": 1.1628896888,
				"z": -0.5687555126,
				"element": "N" 
			},
			{
				"x": 2.7162885843,
				"y": 0.5171569415,
				"z": -1.4583875916,
				"element": "C" 
			},
			{
				"x": 2.368690204,
				"y": -0.8143489465,
				"z": -1.4142156903,
				"element": "C" 
			},
			{
				"x": 1.3544848606,
				"y": -1.0064907439,
				"z": -0.5246630243,
				"element": "N" 
			},
			{
				"x": 1.0761529771,
				"y": 0.1932557502,
				"z": -0.0224529252,
				"element": "C" 
			},
			{
				"x": 0.0308838295,
				"y": 0.4130852999,
				"z": 0.9808336617,
				"element": "C" 
			},
			{
				"x": -0.1837655,
				"y": 1.6608938564,
				"z": 1.4349906029,
				"element": "N" 
			},
			{
				"x": -1.1431524097,
				"y": 1.8343086621,
				"z": 2.3503065875,
				"element": "C" 
			},
			{
				"x": -1.9330179278,
				"y": 0.8080616489,
				"z": 2.8627441203,
				"element": "C" 
			},
			{
				"x": -1.6933028688,
				"y": -0.4796175549,
				"z": 2.3773078245,
				"element": "C" 
			},
			{
				"x": -2.646786584,
				"y": -1.8235734706,
				"z": 2.9742105891,
				"element": "Cl" 
			},
			{
				"x": -0.7080434691,
				"y": -0.6990821947,
				"z": 1.428746853,
				"element": "C" 
			},
			{
				"x": 0.9696459507,
				"y": 3.0614340537,
				"z": -0.5438404496,
				"element": "H" 
			},
			{
				"x": 2.147206748,
				"y": 2.7967690049,
				"z": 0.7418091286,
				"element": "H" 
			},
			{
				"x": 2.7110102201,
				"y": 3.0333552722,
				"z": -0.9352751333,
				"element": "H" 
			},
			{
				"x": 3.4589658989,
				"y": 1.0551801629,
				"z": -2.0280148304,
				"element": "H" 
			},
			{
				"x": 2.7974648955,
				"y": -1.6329289995,
				"z": -1.9756703624,
				"element": "H" 
			},
			{
				"x": -1.2935579357,
				"y": 2.8545629269,
				"z": 2.6986499263,
				"element": "H" 
			},
			{
				"x": -2.6988495982,
				"y": 1.0001622546,
				"z": 3.6045060077,
				"element": "H" 
			},
			{
				"x": -0.4926737692,
				"y": -1.6814016029,
				"z": 1.0286518139,
				"element": "H" 
			}
		],
		 "valence_orbital": [ 
			{
				"type": "occ",
				"energy": -0.27428,
				"method": "rhf"
			},
			{
				"type": "occ",
				"energy": -0.27365,
				"method": "rhf"
			},
			{
				"type": "occ",
				"energy": -0.27017,
				"method": "rhf"
			},
			{
				"type": "occ",
				"energy": -0.26498,
				"method": "rhf"
			},
			{
				"type": "occ",
				"energy": -0.21613,
				"method": "rhf"
			},
			{
				"type": "unocc",
				"energy": -0.04571,
				"method": "rhf"
			},
			{
				"type": "unocc",
				"energy": -0.02818,
				"method": "rhf"
			},
			{
				"type": "unocc",
				"energy": 0.02547,
				"method": "rhf"
			},
			{
				"type": "unocc",
				"energy": 0.04674,
				"method": "rhf"
			},
			{
				"type": "unocc",
				"energy": 0.07209,
				"method": "rhf"
			}
		],
		"cosmo_sigma_profile": { 
			"-0.025": 0.0,
			"-0.024": 0.0,
			"-0.023": 0.0,
			"-0.022": 0.0,
			"-0.021": 0.0,
			"-0.02": 0.0,
			"-0.019": 0.0,
			"-0.018": 0.0,
			"-0.017": 0.0,
			"-0.016": 0.0,
			"-0.015": 0.0,
			"-0.014": 0.0,
			"-0.013": 0.0,
			"-0.012": 0.0,
			"-0.011": 0.0,
			"-0.01": 0.0,
			"-0.009": 1.77378475709,
			"-0.008": 5.19032121093,
			"-0.007": 7.78813292338,
			"-0.006": 9.52268495406,
			"-0.005": 12.8778822409,
			"-0.004": 13.6265081895,
			"-0.003": 16.0815957153,
			"-0.002": 13.901505349,
			"-0.001": 13.5646337535,
			"0.0": 24.1316617244,
			"0.001": 26.5244113915,
			"0.002": 15.6526835838,
			"0.003": 15.5336057945,
			"0.004": 17.4667869784,
			"0.005": 8.04721596072,
			"0.006": 4.19476036983,
			"0.007": 3.67877500565,
			"0.008": 2.15960283832,
			"0.009": 2.06567657088,
			"0.01": 1.54884768828,
			"0.011": 0.838261736849,
			"0.012": 0.982166295,
			"0.013": 1.20765177622,
			"0.014": 1.21262987252,
			"0.015": 0.55154398238,
			"0.016": 0.0,
			"0.017": 0.0,
			"0.018": 0.0,
			"0.019": 0.0,
			"0.02": 0.0,
			"0.021": 0.0,
			"0.022": 0.0,
			"0.023": 0.0,
			"0.024": 0.0,
			"0.025": 0.0
		}
	}
}
