{
	 "smiles": "O=C1NN(C(=O)C1C1=CC=CC=C1)C1=CC=CC=C1", 
	 "Tm": 506.15, 
	 "num_atms": 31, 
	 "gaussian": { 
		 "optdone": 1, 
		 "sigma_profile": "yes", 
		 "theory": "DFT", 
		 "functional": "B3LYP", 
		 "basiset": "6-31G**", 
		 "properties": { 
			 "R2extent": 6129.6352, 
			 "electric_dipole_moment_norm": 2.18323664544, 
			 "electric_quadrupole_moment_norm": 11.7394228849, 
			 "total_energy": -838.762676972, 
			 "HOMO_LUMO_gap": 0.18751, 
			 "cosmo_polarized_energy": -14.6, 
			 "cosmo_cavitation_energy": 35.05, 
			 "cosmo_dispersion_energy": -25.58, 
			 "cosmo_repulsion_energy": 1.94, 
			 "cosmo_total_nonelectrostatic_energy": 11.4, 
			 "SMD_solvation_energy": 6.98 
		},
		"coords": [
			{
				"x": 1.7595770403,
				"y": 2.2202707454,
				"z": -1.1882974943,
				"element": "O" 
			},
			{
				"x": 1.5540385256,
				"y": 1.3134425623,
				"z": -0.4081770369,
				"element": "C" 
			},
			{
				"x": 1.4546806367,
				"y": -0.0230233834,
				"z": -0.7854345102,
				"element": "N" 
			},
			{
				"x": 1.5559152637,
				"y": -0.8569727904,
				"z": 0.3602414759,
				"element": "N" 
			},
			{
				"x": 1.4913174983,
				"y": -0.1036711996,
				"z": 1.524161896,
				"element": "C" 
			},
			{
				"x": 1.5044475242,
				"y": -0.5574201898,
				"z": 2.6551504109,
				"element": "O" 
			},
			{
				"x": 1.3946350479,
				"y": 1.3672957987,
				"z": 1.1099627293,
				"element": "C" 
			},
			{
				"x": 0.1221344743,
				"y": 2.0945192543,
				"z": 1.5718575708,
				"element": "C" 
			},
			{
				"x": -0.6680041711,
				"y": 1.6064280405,
				"z": 2.6188690466,
				"element": "C" 
			},
			{
				"x": -1.8018557665,
				"y": 2.3122866051,
				"z": 3.0279692852,
				"element": "C" 
			},
			{
				"x": -2.154999553,
				"y": 3.5081385268,
				"z": 2.4037032223,
				"element": "C" 
			},
			{
				"x": -1.3628811405,
				"y": 4.000869559,
				"z": 1.3650933702,
				"element": "C" 
			},
			{
				"x": -0.2297019263,
				"y": 3.3014836295,
				"z": 0.950730977,
				"element": "C" 
			},
			{
				"x": 1.3488302252,
				"y": -2.2509742591,
				"z": 0.2071624939,
				"element": "C" 
			},
			{
				"x": 0.8129326076,
				"y": -2.7488373873,
				"z": -0.9895169021,
				"element": "C" 
			},
			{
				"x": 0.6360341169,
				"y": -4.1230867218,
				"z": -1.1484099183,
				"element": "C" 
			},
			{
				"x": 0.9828743771,
				"y": -5.0064437671,
				"z": -0.1266883642,
				"element": "C" 
			},
			{
				"x": 1.5104263693,
				"y": -4.5011882808,
				"z": 1.0636919443,
				"element": "C" 
			},
			{
				"x": 1.7041944668,
				"y": -3.133050697,
				"z": 1.2403148497,
				"element": "C" 
			},
			{
				"x": 2.0411386131,
				"y": -0.3132453192,
				"z": -1.5631863977,
				"element": "H" 
			},
			{
				"x": 2.2679495411,
				"y": 1.8975874343,
				"z": 1.5127070514,
				"element": "H" 
			},
			{
				"x": -0.3924635331,
				"y": 0.6869810728,
				"z": 3.1217974857,
				"element": "H" 
			},
			{
				"x": -2.407745363,
				"y": 1.9213208507,
				"z": 3.8404666201,
				"element": "H" 
			},
			{
				"x": -3.0373083187,
				"y": 4.0539969775,
				"z": 2.7253842283,
				"element": "H" 
			},
			{
				"x": -1.6254770489,
				"y": 4.9328740058,
				"z": 0.8726522894,
				"element": "H" 
			},
			{
				"x": 0.3799503962,
				"y": 3.683588656,
				"z": 0.1388524212,
				"element": "H" 
			},
			{
				"x": 0.5104996759,
				"y": -2.0686443507,
				"z": -1.777417838,
				"element": "H" 
			},
			{
				"x": 0.2169937686,
				"y": -4.4982245639,
				"z": -2.07746707,
				"element": "H" 
			},
			{
				"x": 0.8435250877,
				"y": -6.0753229117,
				"z": -0.2551145765,
				"element": "H" 
			},
			{
				"x": 1.7835435695,
				"y": -5.1780919973,
				"z": 1.8678906379,
				"element": "H" 
			},
			{
				"x": 2.108097995,
				"y": -2.7418858995,
				"z": 2.1635501018,
				"element": "H" 
			}
		],
		 "valence_orbital": [ 
			{
				"type": "occ",
				"energy": -0.26489,
				"method": "rhf"
			},
			{
				"type": "occ",
				"energy": -0.26062,
				"method": "rhf"
			},
			{
				"type": "occ",
				"energy": -0.24948,
				"method": "rhf"
			},
			{
				"type": "occ",
				"energy": -0.24648,
				"method": "rhf"
			},
			{
				"type": "occ",
				"energy": -0.22362,
				"method": "rhf"
			},
			{
				"type": "unocc",
				"energy": -0.03611,
				"method": "rhf"
			},
			{
				"type": "unocc",
				"energy": -0.01609,
				"method": "rhf"
			},
			{
				"type": "unocc",
				"energy": -0.01101,
				"method": "rhf"
			},
			{
				"type": "unocc",
				"energy": -0.00331,
				"method": "rhf"
			},
			{
				"type": "unocc",
				"energy": 0.00164,
				"method": "rhf"
			}
		],
		"cosmo_sigma_profile": { 
			"-0.025": 0.0,
			"-0.024": 0.0,
			"-0.023": 0.0,
			"-0.022": 0.0,
			"-0.021": 0.0,
			"-0.02": 0.0,
			"-0.019": 0.0,
			"-0.018": 0.0,
			"-0.017": 0.451715853969,
			"-0.016": 1.27256105174,
			"-0.015": 1.18375439501,
			"-0.014": 0.779164740478,
			"-0.013": 0.644177824894,
			"-0.012": 1.57498917109,
			"-0.011": 1.40345204013,
			"-0.01": 2.41418161938,
			"-0.009": 4.84656193618,
			"-0.008": 4.00579046008,
			"-0.007": 4.13279523921,
			"-0.006": 14.0175666042,
			"-0.005": 17.5187506454,
			"-0.004": 22.2258112107,
			"-0.003": 20.7347857364,
			"-0.002": 16.8457863304,
			"-0.001": 17.1976153952,
			"0.0": 18.4594756473,
			"0.001": 17.1412603972,
			"0.002": 18.5770880448,
			"0.003": 19.7670935304,
			"0.004": 22.7670570474,
			"0.005": 22.612795999,
			"0.006": 6.26087737674,
			"0.007": 2.58693943219,
			"0.008": 3.21321847354,
			"0.009": 3.26279843926,
			"0.01": 4.19517132378,
			"0.011": 7.12503606358,
			"0.012": 4.17725850311,
			"0.013": 0.199833283165,
			"0.014": 0.0,
			"0.015": 0.0,
			"0.016": 0.0,
			"0.017": 0.0,
			"0.018": 0.0,
			"0.019": 0.0,
			"0.02": 0.0,
			"0.021": 0.0,
			"0.022": 0.0,
			"0.023": 0.0,
			"0.024": 0.0,
			"0.025": 0.0
		}
	}
}
