{
	 "smiles": "CN1N=C(C=C1CN)C1=CC=CS1", 
	 "Tm": 350.65, 
	 "num_atms": 24, 
	 "gaussian": { 
		 "optdone": 1, 
		 "sigma_profile": "yes", 
		 "theory": "DFT", 
		 "functional": "B3LYP", 
		 "basiset": "6-31G**", 
		 "properties": { 
			 "R2extent": 4260.0958, 
			 "electric_dipole_moment_norm": 1.65893845877, 
			 "electric_quadrupole_moment_norm": 7.38312110899, 
			 "total_energy": -911.994124869, 
			 "HOMO_LUMO_gap": 0.1779, 
			 "cosmo_polarized_energy": -13.18, 
			 "cosmo_cavitation_energy": 29.39, 
			 "cosmo_dispersion_energy": -21.87, 
			 "cosmo_repulsion_energy": 1.69, 
			 "cosmo_total_nonelectrostatic_energy": 9.21, 
			 "SMD_solvation_energy": 2.5 
		},
		"coords": [
			{
				"x": 0.1945502202,
				"y": -0.6209433718,
				"z": -2.256037847,
				"element": "C" 
			},
			{
				"x": -0.1263694928,
				"y": 0.133461788,
				"z": -1.060209855,
				"element": "N" 
			},
			{
				"x": -0.8947657983,
				"y": -0.4495218175,
				"z": -0.1139027538,
				"element": "N" 
			},
			{
				"x": -1.0745710875,
				"y": 0.4947488336,
				"z": 0.8203926773,
				"element": "C" 
			},
			{
				"x": -0.417745519,
				"y": 1.6968012596,
				"z": 0.4535933519,
				"element": "C" 
			},
			{
				"x": 0.1821244397,
				"y": 1.4343123098,
				"z": -0.7655667692,
				"element": "C" 
			},
			{
				"x": 0.9748549261,
				"y": 2.3364555156,
				"z": -1.6733274666,
				"element": "C" 
			},
			{
				"x": 0.2731137392,
				"y": 2.8665436443,
				"z": -2.8532383858,
				"element": "N" 
			},
			{
				"x": -1.8544938797,
				"y": 0.2019231185,
				"z": 2.0163105287,
				"element": "C" 
			},
			{
				"x": -2.4697794419,
				"y": -0.9785815062,
				"z": 2.3616944478,
				"element": "C" 
			},
			{
				"x": -3.1545598206,
				"y": -0.9139598768,
				"z": 3.6094098862,
				"element": "C" 
			},
			{
				"x": -3.0586340885,
				"y": 0.3124652159,
				"z": 4.2082443392,
				"element": "C" 
			},
			{
				"x": -2.1230545785,
				"y": 1.4152451054,
				"z": 3.2490202184,
				"element": "S" 
			},
			{
				"x": -0.5411988785,
				"y": -0.4488538945,
				"z": -3.0507345824,
				"element": "H" 
			},
			{
				"x": 0.1877343657,
				"y": -1.6792254758,
				"z": -1.9949986446,
				"element": "H" 
			},
			{
				"x": 1.1870288657,
				"y": -0.3464754564,
				"z": -2.6210366222,
				"element": "H" 
			},
			{
				"x": -0.3703501348,
				"y": 2.6243999636,
				"z": 1.0058777601,
				"element": "H" 
			},
			{
				"x": 1.8794618577,
				"y": 1.8263997858,
				"z": -2.0260402534,
				"element": "H" 
			},
			{
				"x": 1.3206262858,
				"y": 3.1867454716,
				"z": -1.077445717,
				"element": "H" 
			},
			{
				"x": -0.5894895808,
				"y": 3.3173595558,
				"z": -2.5555478562,
				"element": "H" 
			},
			{
				"x": -0.0065361852,
				"y": 2.1046155245,
				"z": -3.4667239097,
				"element": "H" 
			},
			{
				"x": -2.422327612,
				"y": -1.8566940177,
				"z": 1.7294079993,
				"element": "H" 
			},
			{
				"x": -3.6961196588,
				"y": -1.7470640052,
				"z": 4.0434122012,
				"element": "H" 
			},
			{
				"x": -3.4765989432,
				"y": 0.6383423299,
				"z": 5.1503472526,
				"element": "H" 
			}
		],
		 "valence_orbital": [ 
			{
				"type": "occ",
				"energy": -0.27717,
				"method": "rhf"
			},
			{
				"type": "occ",
				"energy": -0.25741,
				"method": "rhf"
			},
			{
				"type": "occ",
				"energy": -0.24402,
				"method": "rhf"
			},
			{
				"type": "occ",
				"energy": -0.23455,
				"method": "rhf"
			},
			{
				"type": "occ",
				"energy": -0.20037,
				"method": "rhf"
			},
			{
				"type": "unocc",
				"energy": -0.02247,
				"method": "rhf"
			},
			{
				"type": "unocc",
				"energy": 0.01725,
				"method": "rhf"
			},
			{
				"type": "unocc",
				"energy": 0.03698,
				"method": "rhf"
			},
			{
				"type": "unocc",
				"energy": 0.05987,
				"method": "rhf"
			},
			{
				"type": "unocc",
				"energy": 0.07083,
				"method": "rhf"
			}
		],
		"cosmo_sigma_profile": { 
			"-0.025": 0.0,
			"-0.024": 0.0,
			"-0.023": 0.0,
			"-0.022": 0.0,
			"-0.021": 0.0,
			"-0.02": 0.0,
			"-0.019": 0.0,
			"-0.018": 0.0,
			"-0.017": 0.0,
			"-0.016": 0.0,
			"-0.015": 0.0,
			"-0.014": 0.0,
			"-0.013": 0.0,
			"-0.012": 0.0,
			"-0.011": 0.0,
			"-0.01": 0.84460220248,
			"-0.009": 3.34996981661,
			"-0.008": 7.75580815832,
			"-0.007": 10.7312535332,
			"-0.006": 15.6578999554,
			"-0.005": 19.0532066422,
			"-0.004": 17.6598675968,
			"-0.003": 19.0502066424,
			"-0.002": 13.4918613673,
			"-0.001": 11.2809259998,
			"0.0": 10.6099733705,
			"0.001": 10.5681555856,
			"0.002": 12.7708473273,
			"0.003": 14.092130394,
			"0.004": 20.6117497534,
			"0.005": 19.9134112272,
			"0.006": 8.33795603449,
			"0.007": 3.21624515955,
			"0.008": 3.03957875427,
			"0.009": 2.03937865262,
			"0.01": 1.39810347485,
			"0.011": 2.4955269274,
			"0.012": 1.81256340294,
			"0.013": 1.61696178588,
			"0.014": 0.739760269607,
			"0.015": 0.501700094364,
			"0.016": 1.27075748153,
			"0.017": 0.370146189762,
			"0.018": 0.772438400716,
			"0.019": 0.391830368264,
			"0.02": 0.121413906217,
			"0.021": 0.0,
			"0.022": 0.0,
			"0.023": 0.0,
			"0.024": 0.0,
			"0.025": 0.0
		}
	}
}
