{
	 "smiles": "OCCNC(=O)C1=NN=C(Cl)C=C1", 
	 "Tm": 393.15, 
	 "num_atms": 21, 
	 "gaussian": { 
		 "optdone": 1, 
		 "sigma_profile": "yes", 
		 "theory": "DFT", 
		 "functional": "B3LYP", 
		 "basiset": "6-31G**", 
		 "properties": { 
			 "R2extent": 5986.9721, 
			 "electric_dipole_moment_norm": 2.06486125684, 
			 "electric_quadrupole_moment_norm": 20.5517421653, 
			 "total_energy": -1046.4283811, 
			 "HOMO_LUMO_gap": 0.18354, 
			 "cosmo_polarized_energy": -15.29, 
			 "cosmo_cavitation_energy": 28.03, 
			 "cosmo_dispersion_energy": -20.85, 
			 "cosmo_repulsion_energy": 1.69, 
			 "cosmo_total_nonelectrostatic_energy": 8.87, 
			 "SMD_solvation_energy": 3.23 
		},
		"coords": [
			{
				"x": -3.0603916808,
				"y": -2.3327286655,
				"z": 1.1113011431,
				"element": "O" 
			},
			{
				"x": -2.1506972256,
				"y": -1.8065281646,
				"z": 2.0718178431,
				"element": "C" 
			},
			{
				"x": -0.9107056462,
				"y": -1.3638027282,
				"z": 1.3085124213,
				"element": "C" 
			},
			{
				"x": -1.2472520259,
				"y": -0.3574615501,
				"z": 0.3194686169,
				"element": "N" 
			},
			{
				"x": -0.5736766888,
				"y": 0.8069715359,
				"z": 0.193175798,
				"element": "C" 
			},
			{
				"x": 0.3981411478,
				"y": 1.1448719406,
				"z": 0.8680415939,
				"element": "O" 
			},
			{
				"x": -1.1069923025,
				"y": 1.727084271,
				"z": -0.8825463903,
				"element": "C" 
			},
			{
				"x": -2.174578755,
				"y": 1.3251396316,
				"z": -1.5747705842,
				"element": "N" 
			},
			{
				"x": -2.6863860575,
				"y": 2.0992778332,
				"z": -2.5322614844,
				"element": "N" 
			},
			{
				"x": -2.1105277861,
				"y": 3.26815911,
				"z": -2.7768132841,
				"element": "C" 
			},
			{
				"x": -2.8362898417,
				"y": 4.2272564443,
				"z": -4.0452321196,
				"element": "Cl" 
			},
			{
				"x": -0.987997092,
				"y": 3.7643547641,
				"z": -2.0978778549,
				"element": "C" 
			},
			{
				"x": -0.4681803131,
				"y": 2.9550144067,
				"z": -1.1086998451,
				"element": "C" 
			},
			{
				"x": -3.9202326319,
				"y": -2.4531917572,
				"z": 1.5314147968,
				"element": "H" 
			},
			{
				"x": -2.5810792344,
				"y": -0.9454875636,
				"z": 2.6042425416,
				"element": "H" 
			},
			{
				"x": -1.8656418651,
				"y": -2.5641583714,
				"z": 2.8183977245,
				"element": "H" 
			},
			{
				"x": -0.4622214717,
				"y": -2.2389000104,
				"z": 0.8199949519,
				"element": "H" 
			},
			{
				"x": -0.1689411664,
				"y": -0.9320048111,
				"z": 1.9841366913,
				"element": "H" 
			},
			{
				"x": -2.0426460783,
				"y": -0.5160230193,
				"z": -0.2880086748,
				"element": "H" 
			},
			{
				"x": -0.5664819086,
				"y": 4.7306980268,
				"z": -2.349318143,
				"element": "H" 
			},
			{
				"x": 0.3953786236,
				"y": 3.2204586773,
				"z": -0.5095757417,
				"element": "H" 
			}
		],
		 "valence_orbital": [ 
			{
				"type": "occ",
				"energy": -0.28606,
				"method": "rhf"
			},
			{
				"type": "occ",
				"energy": -0.28339,
				"method": "rhf"
			},
			{
				"type": "occ",
				"energy": -0.26239,
				"method": "rhf"
			},
			{
				"type": "occ",
				"energy": -0.25944,
				"method": "rhf"
			},
			{
				"type": "occ",
				"energy": -0.25581,
				"method": "rhf"
			},
			{
				"type": "unocc",
				"energy": -0.07227,
				"method": "rhf"
			},
			{
				"type": "unocc",
				"energy": -0.0621,
				"method": "rhf"
			},
			{
				"type": "unocc",
				"energy": 0.01916,
				"method": "rhf"
			},
			{
				"type": "unocc",
				"energy": 0.04167,
				"method": "rhf"
			},
			{
				"type": "unocc",
				"energy": 0.06537,
				"method": "rhf"
			}
		],
		"cosmo_sigma_profile": { 
			"-0.025": 0.0,
			"-0.024": 0.0,
			"-0.023": 0.0,
			"-0.022": 0.0,
			"-0.021": 0.0,
			"-0.02": 0.0,
			"-0.019": 0.0,
			"-0.018": 0.0,
			"-0.017": 0.0531518035207,
			"-0.016": 0.773740457345,
			"-0.015": 1.1245647972,
			"-0.014": 1.12728943656,
			"-0.013": 0.642440253178,
			"-0.012": 1.1614365808,
			"-0.011": 0.875783083231,
			"-0.01": 2.33588427389,
			"-0.009": 3.8217837682,
			"-0.008": 4.77697624978,
			"-0.007": 4.5457266675,
			"-0.006": 5.39638493399,
			"-0.005": 11.1421353398,
			"-0.004": 23.3628145449,
			"-0.003": 26.6849569153,
			"-0.002": 22.1797017623,
			"-0.001": 14.0553912861,
			"0.0": 12.2973849907,
			"0.001": 11.6585100919,
			"0.002": 11.5096240814,
			"0.003": 12.6526930992,
			"0.004": 8.53592452453,
			"0.005": 5.80642889507,
			"0.006": 4.66746388565,
			"0.007": 4.56446719073,
			"0.008": 4.00514368937,
			"0.009": 3.81285353389,
			"0.01": 4.8396219425,
			"0.011": 4.42572933994,
			"0.012": 4.90979912133,
			"0.013": 6.61813550769,
			"0.014": 1.36751925148,
			"0.015": 0.0,
			"0.016": 0.0,
			"0.017": 0.0,
			"0.018": 0.0,
			"0.019": 0.0,
			"0.02": 0.0,
			"0.021": 0.0,
			"0.022": 0.0,
			"0.023": 0.0,
			"0.024": 0.0,
			"0.025": 0.0
		}
	}
}
