{
	 "smiles": "OC(=O)C1=CSN=N1", 
	 "Tm": 507.15, 
	 "num_atms": 10, 
	 "gaussian": { 
		 "optdone": 1, 
		 "sigma_profile": "yes", 
		 "theory": "DFT", 
		 "functional": "B3LYP", 
		 "basiset": "6-31G**", 
		 "properties": { 
			 "R2extent": 1330.0474, 
			 "electric_dipole_moment_norm": 3.09545687419, 
			 "electric_quadrupole_moment_norm": 12.7222570195, 
			 "total_energy": -773.621923937, 
			 "HOMO_LUMO_gap": 0.19658, 
			 "cosmo_polarized_energy": -11.7, 
			 "cosmo_cavitation_energy": 17.12, 
			 "cosmo_dispersion_energy": -13.58, 
			 "cosmo_repulsion_energy": 1.08, 
			 "cosmo_total_nonelectrostatic_energy": 4.62, 
			 "SMD_solvation_energy": 2.94 
		},
		"coords": [
			{
				"x": -3.1054713226,
				"y": -1.2531259695,
				"z": -0.6450001408,
				"element": "O" 
			},
			{
				"x": -1.9019330428,
				"y": -1.5213750622,
				"z": -0.1050758702,
				"element": "C" 
			},
			{
				"x": -1.4970710511,
				"y": -2.6459580233,
				"z": 0.0679131823,
				"element": "O" 
			},
			{
				"x": -1.1086032233,
				"y": -0.311561626,
				"z": 0.2617985554,
				"element": "C" 
			},
			{
				"x": 0.1438257536,
				"y": -0.3000503173,
				"z": 0.825697829,
				"element": "C" 
			},
			{
				"x": 0.6198903577,
				"y": 1.3137591495,
				"z": 1.0536172185,
				"element": "S" 
			},
			{
				"x": -0.8801720098,
				"y": 1.9152871567,
				"z": 0.3822750534,
				"element": "N" 
			},
			{
				"x": -1.6243646044,
				"y": 0.9411522348,
				"z": 0.0396306751,
				"element": "N" 
			},
			{
				"x": -3.2254242221,
				"y": -0.2873463374,
				"z": -0.6911696916,
				"element": "H" 
			},
			{
				"x": 0.7387233647,
				"y": -1.1639812052,
				"z": 1.0866131888,
				"element": "H" 
			}
		],
		 "valence_orbital": [ 
			{
				"type": "occ",
				"energy": -0.34302,
				"method": "rhf"
			},
			{
				"type": "occ",
				"energy": -0.32837,
				"method": "rhf"
			},
			{
				"type": "occ",
				"energy": -0.30208,
				"method": "rhf"
			},
			{
				"type": "occ",
				"energy": -0.30186,
				"method": "rhf"
			},
			{
				"type": "occ",
				"energy": -0.28761,
				"method": "rhf"
			},
			{
				"type": "unocc",
				"energy": -0.09103,
				"method": "rhf"
			},
			{
				"type": "unocc",
				"energy": -0.0498,
				"method": "rhf"
			},
			{
				"type": "unocc",
				"energy": -0.03925,
				"method": "rhf"
			},
			{
				"type": "unocc",
				"energy": 0.05618,
				"method": "rhf"
			},
			{
				"type": "unocc",
				"energy": 0.08274,
				"method": "rhf"
			}
		],
		"cosmo_sigma_profile": { 
			"-0.025": 0.0,
			"-0.024": 0.0,
			"-0.023": 0.0,
			"-0.022": 0.0,
			"-0.021": 0.0,
			"-0.02": 0.0,
			"-0.019": 0.0,
			"-0.018": 0.0,
			"-0.017": 0.0,
			"-0.016": 0.353626326967,
			"-0.015": 0.594925035338,
			"-0.014": 0.41936920543,
			"-0.013": 0.819630987376,
			"-0.012": 2.91534855728,
			"-0.011": 2.55531184498,
			"-0.01": 2.4934406108,
			"-0.009": 2.91433132588,
			"-0.008": 3.67585925576,
			"-0.007": 2.57482417671,
			"-0.006": 4.77744483842,
			"-0.005": 8.5486021205,
			"-0.004": 10.3906282979,
			"-0.003": 14.7114679117,
			"-0.002": 13.7136641909,
			"-0.001": 10.4697997338,
			"0.0": 3.28826286566,
			"0.001": 3.30561609423,
			"0.002": 4.25346855251,
			"0.003": 3.99145090663,
			"0.004": 3.09676287137,
			"0.005": 4.25455922186,
			"0.006": 5.1787167991,
			"0.007": 5.13467292438,
			"0.008": 6.01150409632,
			"0.009": 5.87978075165,
			"0.01": 5.91944550313,
			"0.011": 6.19839859464,
			"0.012": 2.42274655365,
			"0.013": 0.306578569228,
			"0.014": 0.0,
			"0.015": 0.0,
			"0.016": 0.0,
			"0.017": 0.0,
			"0.018": 0.0,
			"0.019": 0.0,
			"0.02": 0.0,
			"0.021": 0.0,
			"0.022": 0.0,
			"0.023": 0.0,
			"0.024": 0.0,
			"0.025": 0.0
		}
	}
}
