{
	 "smiles": "CC1=C(C)C(C)=NN1", 
	 "Tm": 411.15, 
	 "num_atms": 18, 
	 "gaussian": { 
		 "optdone": 1, 
		 "sigma_profile": "yes", 
		 "theory": "DFT", 
		 "functional": "B3LYP", 
		 "basiset": "6-31G**", 
		 "properties": { 
			 "R2extent": 1350.3202, 
			 "electric_dipole_moment_norm": 2.38780463816, 
			 "electric_quadrupole_moment_norm": 9.13014329296, 
			 "total_energy": -344.166975665, 
			 "HOMO_LUMO_gap": 0.25309, 
			 "cosmo_polarized_energy": -8.72, 
			 "cosmo_cavitation_energy": 20.9, 
			 "cosmo_dispersion_energy": -15.46, 
			 "cosmo_repulsion_energy": 1.31, 
			 "cosmo_total_nonelectrostatic_energy": 6.74, 
			 "SMD_solvation_energy": 2.98 
		},
		"coords": [
			{
				"x": 0.9121055928,
				"y": -2.9852199871,
				"z": -1.1793131974,
				"element": "C" 
			},
			{
				"x": 1.1104406878,
				"y": -1.5911371595,
				"z": -0.6739679368,
				"element": "C" 
			},
			{
				"x": 0.6321708094,
				"y": -0.3653787526,
				"z": -1.1132782083,
				"element": "C" 
			},
			{
				"x": -0.2737486504,
				"y": -0.0816035052,
				"z": -2.2738405962,
				"element": "C" 
			},
			{
				"x": 1.1956701092,
				"y": 0.5873244245,
				"z": -0.2148861814,
				"element": "C" 
			},
			{
				"x": 1.0109373428,
				"y": 2.0739155857,
				"z": -0.2205900692,
				"element": "C" 
			},
			{
				"x": 1.9600305805,
				"y": 0.0030513791,
				"z": 0.7064268205,
				"element": "N" 
			},
			{
				"x": 1.8945193871,
				"y": -1.3150288242,
				"z": 0.4076095054,
				"element": "N" 
			},
			{
				"x": 0.6184001157,
				"y": -3.6699213663,
				"z": -0.375044578,
				"element": "H" 
			},
			{
				"x": 1.8218115065,
				"y": -3.3884953425,
				"z": -1.6412015465,
				"element": "H" 
			},
			{
				"x": 0.123196419,
				"y": -3.0083722833,
				"z": -1.9345010212,
				"element": "H" 
			},
			{
				"x": -0.6230172092,
				"y": -1.0030737183,
				"z": -2.7493089106,
				"element": "H" 
			},
			{
				"x": 0.2275490128,
				"y": 0.5126948128,
				"z": -3.0481580161,
				"element": "H" 
			},
			{
				"x": -1.1620933228,
				"y": 0.4826760487,
				"z": -1.9651065336,
				"element": "H" 
			},
			{
				"x": 1.5671036112,
				"y": 2.5195108635,
				"z": 0.6071591783,
				"element": "H" 
			},
			{
				"x": -0.0451751626,
				"y": 2.3498867843,
				"z": -0.1142111326,
				"element": "H" 
			},
			{
				"x": 1.3676242937,
				"y": 2.5219597893,
				"z": -1.1559252274,
				"element": "H" 
			},
			{
				"x": 2.3987748766,
				"y": -1.9712887491,
				"z": 0.9824376511,
				"element": "H" 
			}
		],
		 "valence_orbital": [ 
			{
				"type": "occ",
				"energy": -0.3724,
				"method": "rhf"
			},
			{
				"type": "occ",
				"energy": -0.34737,
				"method": "rhf"
			},
			{
				"type": "occ",
				"energy": -0.26972,
				"method": "rhf"
			},
			{
				"type": "occ",
				"energy": -0.22813,
				"method": "rhf"
			},
			{
				"type": "occ",
				"energy": -0.2191,
				"method": "rhf"
			},
			{
				"type": "unocc",
				"energy": 0.03399,
				"method": "rhf"
			},
			{
				"type": "unocc",
				"energy": 0.08017,
				"method": "rhf"
			},
			{
				"type": "unocc",
				"energy": 0.08461,
				"method": "rhf"
			},
			{
				"type": "unocc",
				"energy": 0.09761,
				"method": "rhf"
			},
			{
				"type": "unocc",
				"energy": 0.12544,
				"method": "rhf"
			}
		],
		"cosmo_sigma_profile": { 
			"-0.025": 0.0,
			"-0.024": 0.0,
			"-0.023": 0.0,
			"-0.022": 0.0,
			"-0.021": 0.0,
			"-0.02": 0.0,
			"-0.019": 0.0,
			"-0.018": 0.0,
			"-0.017": 0.0,
			"-0.016": 0.0406235890108,
			"-0.015": 1.21955138001,
			"-0.014": 1.2845243374,
			"-0.013": 1.34166310858,
			"-0.012": 0.701488765714,
			"-0.011": 1.08300152155,
			"-0.01": 1.29486651148,
			"-0.009": 0.615466492186,
			"-0.008": 1.17390088014,
			"-0.007": 0.850974861196,
			"-0.006": 1.57255486177,
			"-0.005": 6.7071290446,
			"-0.004": 11.5662744161,
			"-0.003": 17.0307124196,
			"-0.002": 18.3882301588,
			"-0.001": 20.8335642421,
			"0.0": 20.7182942011,
			"0.001": 13.7747621426,
			"0.002": 6.83603712968,
			"0.003": 4.69435651586,
			"0.004": 4.47600606661,
			"0.005": 4.8930384725,
			"0.006": 6.26072971081,
			"0.007": 3.21170937865,
			"0.008": 2.17327440448,
			"0.009": 1.27834464729,
			"0.01": 1.62507865041,
			"0.011": 1.64894877725,
			"0.012": 1.57300881382,
			"0.013": 1.31901167187,
			"0.014": 0.426114867668,
			"0.015": 1.15668001673,
			"0.016": 1.22210787644,
			"0.017": 0.934137852633,
			"0.018": 0.11694783046,
			"0.019": 0.0,
			"0.02": 0.0,
			"0.021": 0.0,
			"0.022": 0.0,
			"0.023": 0.0,
			"0.024": 0.0,
			"0.025": 0.0
		}
	}
}
