{
	 "smiles": "COC1=CC=C(CC2=CN=C(N)N=C2N)C=C1OC", 
	 "Tm": 506.15, 
	 "num_atms": 35, 
	 "gaussian": { 
		 "optdone": 1, 
		 "sigma_profile": "yes", 
		 "theory": "DFT", 
		 "functional": "B3LYP", 
		 "basiset": "6-31G**", 
		 "properties": { 
			 "R2extent": 6400.1447, 
			 "electric_dipole_moment_norm": 1.63795238942, 
			 "electric_quadrupole_moment_norm": 7.56550114599, 
			 "total_energy": -874.483486559, 
			 "HOMO_LUMO_gap": 0.1997, 
			 "cosmo_polarized_energy": -17.07, 
			 "cosmo_cavitation_energy": 38.57, 
			 "cosmo_dispersion_energy": -27.01, 
			 "cosmo_repulsion_energy": 2.14, 
			 "cosmo_total_nonelectrostatic_energy": 13.7, 
			 "SMD_solvation_energy": 4.76 
		},
		"coords": [
			{
				"x": -1.6381612895,
				"y": -4.6456670477,
				"z": -1.6456881173,
				"element": "C" 
			},
			{
				"x": -1.4959399972,
				"y": -4.4686398276,
				"z": -0.2344647996,
				"element": "O" 
			},
			{
				"x": -1.3629775863,
				"y": -3.1735901429,
				"z": 0.2015231572,
				"element": "C" 
			},
			{
				"x": -2.3602884099,
				"y": -2.6258099358,
				"z": 0.9991132662,
				"element": "C" 
			},
			{
				"x": -2.2360656187,
				"y": -1.333475361,
				"z": 1.522711511,
				"element": "C" 
			},
			{
				"x": -1.1052933392,
				"y": -0.5644949649,
				"z": 1.2413570696,
				"element": "C" 
			},
			{
				"x": -0.9444179697,
				"y": 0.8368544437,
				"z": 1.8219268327,
				"element": "C" 
			},
			{
				"x": -0.5427834889,
				"y": 1.9041403757,
				"z": 0.8312142523,
				"element": "C" 
			},
			{
				"x": 0.6439123509,
				"y": 2.6168525857,
				"z": 0.9352529154,
				"element": "C" 
			},
			{
				"x": 1.0289062616,
				"y": 3.5958176625,
				"z": 0.1062764346,
				"element": "N" 
			},
			{
				"x": 0.1597090449,
				"y": 3.8673716767,
				"z": -0.8822600655,
				"element": "C" 
			},
			{
				"x": 0.5324381106,
				"y": 4.8349561458,
				"z": -1.7802189629,
				"element": "N" 
			},
			{
				"x": -1.0212196098,
				"y": 3.2669437976,
				"z": -1.106121156,
				"element": "N" 
			},
			{
				"x": -1.37034245,
				"y": 2.2936670312,
				"z": -0.2564593329,
				"element": "C" 
			},
			{
				"x": -2.5976033408,
				"y": 1.7156729584,
				"z": -0.4596658896,
				"element": "N" 
			},
			{
				"x": -0.0970511458,
				"y": -1.1126417306,
				"z": 0.4304865338,
				"element": "C" 
			},
			{
				"x": -0.2064044631,
				"y": -2.406185971,
				"z": -0.081146691,
				"element": "C" 
			},
			{
				"x": 0.7418207951,
				"y": -3.0159414039,
				"z": -0.8505070768,
				"element": "O" 
			},
			{
				"x": 1.9363208089,
				"y": -2.3021549415,
				"z": -1.1352852125,
				"element": "C" 
			},
			{
				"x": -0.7483298679,
				"y": -4.310138926,
				"z": -2.1858809544,
				"element": "H" 
			},
			{
				"x": -1.7788683258,
				"y": -5.7169643769,
				"z": -1.8040027455,
				"element": "H" 
			},
			{
				"x": -2.519214144,
				"y": -4.1081014269,
				"z": -2.0208213551,
				"element": "H" 
			},
			{
				"x": -3.2323306377,
				"y": -3.2366374378,
				"z": 1.2107251425,
				"element": "H" 
			},
			{
				"x": -3.0214238534,
				"y": -0.931097418,
				"z": 2.1575233601,
				"element": "H" 
			},
			{
				"x": -0.1884126906,
				"y": 0.8097654422,
				"z": 2.6179521092,
				"element": "H" 
			},
			{
				"x": -1.8869375493,
				"y": 1.1161403476,
				"z": 2.3118074526,
				"element": "H" 
			},
			{
				"x": 1.3322610775,
				"y": 2.3882695833,
				"z": 1.7506651301,
				"element": "H" 
			},
			{
				"x": -0.2020433672,
				"y": 5.2276221296,
				"z": -2.3476645815,
				"element": "H" 
			},
			{
				"x": 1.2748640194,
				"y": 5.4487203443,
				"z": -1.4834403208,
				"element": "H" 
			},
			{
				"x": -2.7367250711,
				"y": 0.7735932126,
				"z": -0.1220954955,
				"element": "H" 
			},
			{
				"x": -3.0203660302,
				"y": 1.9342445976,
				"z": -1.3507162398,
				"element": "H" 
			},
			{
				"x": 0.7751299022,
				"y": -0.5090145561,
				"z": 0.2070986785,
				"element": "H" 
			},
			{
				"x": 2.5505074336,
				"y": -2.974026744,
				"z": -1.7365575207,
				"element": "H" 
			},
			{
				"x": 2.4774107977,
				"y": -2.0416542086,
				"z": -0.2171724685,
				"element": "H" 
			},
			{
				"x": 1.7360196437,
				"y": -1.3862959134,
				"z": -1.7054648598,
				"element": "H" 
			}
		],
		 "valence_orbital": [ 
			{
				"type": "occ",
				"energy": -0.24446,
				"method": "rhf"
			},
			{
				"type": "occ",
				"energy": -0.24053,
				"method": "rhf"
			},
			{
				"type": "occ",
				"energy": -0.23547,
				"method": "rhf"
			},
			{
				"type": "occ",
				"energy": -0.21559,
				"method": "rhf"
			},
			{
				"type": "occ",
				"energy": -0.20544,
				"method": "rhf"
			},
			{
				"type": "unocc",
				"energy": -0.00574,
				"method": "rhf"
			},
			{
				"type": "unocc",
				"energy": -0.00264,
				"method": "rhf"
			},
			{
				"type": "unocc",
				"energy": 0.00972,
				"method": "rhf"
			},
			{
				"type": "unocc",
				"energy": 0.02142,
				"method": "rhf"
			},
			{
				"type": "unocc",
				"energy": 0.08846,
				"method": "rhf"
			}
		],
		"cosmo_sigma_profile": { 
			"-0.025": 0.0,
			"-0.024": 0.0,
			"-0.023": 0.0,
			"-0.022": 0.0,
			"-0.021": 0.0,
			"-0.02": 0.0,
			"-0.019": 0.0,
			"-0.018": 0.0,
			"-0.017": 0.0,
			"-0.016": 0.0,
			"-0.015": 0.0,
			"-0.014": 0.00280687149421,
			"-0.013": 1.91736957821,
			"-0.012": 2.74421887215,
			"-0.011": 3.30434197498,
			"-0.01": 2.90630680716,
			"-0.009": 4.63747691949,
			"-0.008": 3.44303670678,
			"-0.007": 2.50230296213,
			"-0.006": 12.5757720256,
			"-0.005": 26.6925623718,
			"-0.004": 26.3200254103,
			"-0.003": 29.2289583115,
			"-0.002": 23.619034393,
			"-0.001": 17.328283017,
			"0.0": 17.2196573617,
			"0.001": 17.60926327,
			"0.002": 21.5489321368,
			"0.003": 17.1974340343,
			"0.004": 15.3897589267,
			"0.005": 11.0317294167,
			"0.006": 8.07046736176,
			"0.007": 6.56858375771,
			"0.008": 6.05832338178,
			"0.009": 6.76982630734,
			"0.01": 5.65616817234,
			"0.011": 6.36422091582,
			"0.012": 3.21689569884,
			"0.013": 2.08081542601,
			"0.014": 1.3928723653,
			"0.015": 0.860185914867,
			"0.016": 0.783848042923,
			"0.017": 0.208567476454,
			"0.018": 0.0,
			"0.019": 0.0,
			"0.02": 0.0,
			"0.021": 0.0,
			"0.022": 0.0,
			"0.023": 0.0,
			"0.024": 0.0,
			"0.025": 0.0
		}
	}
}
