{
	 "smiles": "[O-][N+](=O)C1=C(Br)SC(Br)=C1[N+]([O-])=O", 
	 "Tm": 408.65, 
	 "num_atms": 13, 
	 "gaussian": { 
		 "optdone": 1, 
		 "sigma_profile": "yes", 
		 "theory": "DFT", 
		 "functional": "B3LYP", 
		 "basiset": "6-31G**", 
		 "properties": { 
			 "R2extent": 5201.6145, 
			 "electric_dipole_moment_norm": 5.62501668442, 
			 "electric_quadrupole_moment_norm": 4.11159183286, 
			 "total_energy": -6103.54723291, 
			 "HOMO_LUMO_gap": 0.16983, 
			 "cosmo_polarized_energy": -11.1, 
			 "cosmo_cavitation_energy": 26.11, 
			 "cosmo_dispersion_energy": -19.96, 
			 "cosmo_repulsion_energy": 1.54, 
			 "cosmo_total_nonelectrostatic_energy": 7.69, 
			 "SMD_solvation_energy": 6.66 
		},
		"coords": [
			{
				"x": -1.7173271104,
				"y": -0.2613084352,
				"z": -1.4370048384,
				"element": "O" 
			},
			{
				"x": -1.9398268451,
				"y": -0.1021924709,
				"z": -0.2412701817,
				"element": "N" 
			},
			{
				"x": -3.0398083537,
				"y": -0.0137073988,
				"z": 0.2916320744,
				"element": "O" 
			},
			{
				"x": -0.7667538236,
				"y": -0.0535330406,
				"z": 0.6300383591,
				"element": "C" 
			},
			{
				"x": -0.6850571612,
				"y": -0.7122465441,
				"z": 1.8272964686,
				"element": "C" 
			},
			{
				"x": -1.9747734846,
				"y": -1.7365119799,
				"z": 2.7090282269,
				"element": "Br" 
			},
			{
				"x": 0.9148500286,
				"y": -0.6000820545,
				"z": 2.5034598856,
				"element": "S" 
			},
			{
				"x": 1.474426696,
				"y": 0.3460618229,
				"z": 1.1539437525,
				"element": "C" 
			},
			{
				"x": 3.2238339149,
				"y": 1.0012996726,
				"z": 1.1664456328,
				"element": "Br" 
			},
			{
				"x": 0.4736537916,
				"y": 0.5551471844,
				"z": 0.2435956033,
				"element": "C" 
			},
			{
				"x": 0.6048721411,
				"y": 1.438908063,
				"z": -0.9137139406,
				"element": "N" 
			},
			{
				"x": 1.6558186032,
				"y": 1.3898179506,
				"z": -1.5421047072,
				"element": "O" 
			},
			{
				"x": -0.3458083967,
				"y": 2.1815472304,
				"z": -1.1357463352,
				"element": "O" 
			}
		],
		 "valence_orbital": [ 
			{
				"type": "occ",
				"energy": -0.3251,
				"method": "rhf"
			},
			{
				"type": "occ",
				"energy": -0.31665,
				"method": "rhf"
			},
			{
				"type": "occ",
				"energy": -0.31494,
				"method": "rhf"
			},
			{
				"type": "occ",
				"energy": -0.30027,
				"method": "rhf"
			},
			{
				"type": "occ",
				"energy": -0.27633,
				"method": "rhf"
			},
			{
				"type": "unocc",
				"energy": -0.1065,
				"method": "rhf"
			},
			{
				"type": "unocc",
				"energy": -0.10645,
				"method": "rhf"
			},
			{
				"type": "unocc",
				"energy": -0.06367,
				"method": "rhf"
			},
			{
				"type": "unocc",
				"energy": -0.06098,
				"method": "rhf"
			},
			{
				"type": "unocc",
				"energy": -0.04064,
				"method": "rhf"
			}
		],
		"cosmo_sigma_profile": { 
			"-0.025": 0.0,
			"-0.024": 0.0,
			"-0.023": 0.0,
			"-0.022": 0.0,
			"-0.021": 0.0,
			"-0.02": 0.0,
			"-0.019": 0.0,
			"-0.018": 0.0,
			"-0.017": 0.0,
			"-0.016": 0.0,
			"-0.015": 0.0,
			"-0.014": 0.0,
			"-0.013": 0.0,
			"-0.012": 0.0,
			"-0.011": 0.0,
			"-0.01": 0.229660794908,
			"-0.009": 1.63999905734,
			"-0.008": 4.30684388029,
			"-0.007": 5.61448738784,
			"-0.006": 10.0543289624,
			"-0.005": 17.8168816909,
			"-0.004": 20.1122405166,
			"-0.003": 18.1870712115,
			"-0.002": 17.7670058005,
			"-0.001": 14.7998318654,
			"0.0": 17.1485337073,
			"0.001": 17.4241291265,
			"0.002": 9.00818056386,
			"0.003": 6.02137981547,
			"0.004": 7.20102830099,
			"0.005": 10.778973725,
			"0.006": 20.2314192749,
			"0.007": 13.163918723,
			"0.008": 6.97771528306,
			"0.009": 1.80654221739,
			"0.01": 0.0,
			"0.011": 0.0,
			"0.012": 0.0,
			"0.013": 0.0,
			"0.014": 0.0,
			"0.015": 0.0,
			"0.016": 0.0,
			"0.017": 0.0,
			"0.018": 0.0,
			"0.019": 0.0,
			"0.02": 0.0,
			"0.021": 0.0,
			"0.022": 0.0,
			"0.023": 0.0,
			"0.024": 0.0,
			"0.025": 0.0
		}
	}
}
