{
	 "smiles": "NN1N=NC2=C1C=CC=C2", 
	 "Tm": 356.15, 
	 "num_atms": 16, 
	 "gaussian": { 
		 "optdone": 1, 
		 "sigma_profile": "yes", 
		 "theory": "DFT", 
		 "functional": "B3LYP", 
		 "basiset": "6-31G**", 
		 "properties": { 
			 "R2extent": 1694.5243, 
			 "electric_dipole_moment_norm": 2.9583323985, 
			 "electric_quadrupole_moment_norm": 10.8331567717, 
			 "total_energy": -451.190673556, 
			 "HOMO_LUMO_gap": 0.19328, 
			 "cosmo_polarized_energy": -12.27, 
			 "cosmo_cavitation_energy": 20.47, 
			 "cosmo_dispersion_energy": -15.5, 
			 "cosmo_repulsion_energy": 1.25, 
			 "cosmo_total_nonelectrostatic_energy": 6.22, 
			 "SMD_solvation_energy": 2.37 
		},
		"coords": [
			{
				"x": -2.3592543687,
				"y": -1.3362327854,
				"z": 0.2835503255,
				"element": "N" 
			},
			{
				"x": -1.0590573012,
				"y": -0.8645403778,
				"z": 0.4361364691,
				"element": "N" 
			},
			{
				"x": -0.7775148605,
				"y": 0.37822886,
				"z": 0.9333451991,
				"element": "N" 
			},
			{
				"x": 0.5057620013,
				"y": 0.5353162225,
				"z": 0.9582030564,
				"element": "N" 
			},
			{
				"x": 1.0991561533,
				"y": -0.6153149415,
				"z": 0.4724429506,
				"element": "C" 
			},
			{
				"x": 0.0904473206,
				"y": -1.535298753,
				"z": 0.1286589823,
				"element": "C" 
			},
			{
				"x": 0.3685145136,
				"y": -2.8046116293,
				"z": -0.3959900879,
				"element": "C" 
			},
			{
				"x": 1.7105464308,
				"y": -3.1122566467,
				"z": -0.5615616054,
				"element": "C" 
			},
			{
				"x": 2.7401684258,
				"y": -2.1982173657,
				"z": -0.2208117431,
				"element": "C" 
			},
			{
				"x": 2.4537013439,
				"y": -0.9456466702,
				"z": 0.2972722016,
				"element": "C" 
			},
			{
				"x": -2.860962215,
				"y": -0.6969856242,
				"z": -0.3296987693,
				"element": "H" 
			},
			{
				"x": -2.8147763901,
				"y": -1.3170897292,
				"z": 1.1938029443,
				"element": "H" 
			},
			{
				"x": -0.4252223843,
				"y": -3.4966306,
				"z": -0.6535316695,
				"element": "H" 
			},
			{
				"x": 1.9852527837,
				"y": -4.0827174213,
				"z": -0.9645871609,
				"element": "H" 
			},
			{
				"x": 3.7737005706,
				"y": -2.494084125,
				"z": -0.3723286634,
				"element": "H" 
			},
			{
				"x": 3.2328379761,
				"y": -0.2384184132,
				"z": 0.5613975704,
				"element": "H" 
			}
		],
		 "valence_orbital": [ 
			{
				"type": "occ",
				"energy": -0.3153,
				"method": "rhf"
			},
			{
				"type": "occ",
				"energy": -0.31497,
				"method": "rhf"
			},
			{
				"type": "occ",
				"energy": -0.26134,
				"method": "rhf"
			},
			{
				"type": "occ",
				"energy": -0.25122,
				"method": "rhf"
			},
			{
				"type": "occ",
				"energy": -0.23639,
				"method": "rhf"
			},
			{
				"type": "unocc",
				"energy": -0.04311,
				"method": "rhf"
			},
			{
				"type": "unocc",
				"energy": 0.01117,
				"method": "rhf"
			},
			{
				"type": "unocc",
				"energy": 0.03337,
				"method": "rhf"
			},
			{
				"type": "unocc",
				"energy": 0.06329,
				"method": "rhf"
			},
			{
				"type": "unocc",
				"energy": 0.09916,
				"method": "rhf"
			}
		],
		"cosmo_sigma_profile": { 
			"-0.025": 0.0,
			"-0.024": 0.0,
			"-0.023": 0.0,
			"-0.022": 0.0,
			"-0.021": 0.0,
			"-0.02": 0.0,
			"-0.019": 0.0,
			"-0.018": 0.0,
			"-0.017": 0.0,
			"-0.016": 0.0,
			"-0.015": 0.0,
			"-0.014": 1.37761220468,
			"-0.013": 3.61452810821,
			"-0.012": 4.05006313735,
			"-0.011": 2.30767783654,
			"-0.01": 1.57317086422,
			"-0.009": 1.84232439261,
			"-0.008": 1.76390378831,
			"-0.007": 4.9338691658,
			"-0.006": 9.49189395319,
			"-0.005": 9.31622849057,
			"-0.004": 9.8261359235,
			"-0.003": 7.92890648259,
			"-0.002": 8.80363915714,
			"-0.001": 8.60771528448,
			"0.0": 10.6421668424,
			"0.001": 10.1584409367,
			"0.002": 12.2019222682,
			"0.003": 12.1197544223,
			"0.004": 11.7049710789,
			"0.005": 4.61182320231,
			"0.006": 2.82892427939,
			"0.007": 2.61299842593,
			"0.008": 3.33979943082,
			"0.009": 3.10371073412,
			"0.01": 3.74856647893,
			"0.011": 3.93015795836,
			"0.012": 3.01176226616,
			"0.013": 2.34950131786,
			"0.014": 1.07870037863,
			"0.015": 1.06716983416,
			"0.016": 0.218084692725,
			"0.017": 0.0,
			"0.018": 0.0,
			"0.019": 0.0,
			"0.02": 0.0,
			"0.021": 0.0,
			"0.022": 0.0,
			"0.023": 0.0,
			"0.024": 0.0,
			"0.025": 0.0
		}
	}
}
