{
	 "smiles": "NC1=C2C=NC=CC2=C(C=C1)N1CCCCC1", 
	 "Tm": 423.15, 
	 "num_atms": 34, 
	 "gaussian": { 
		 "optdone": 1, 
		 "sigma_profile": "yes", 
		 "theory": "DFT", 
		 "functional": "B3LYP", 
		 "basiset": "6-31G**", 
		 "properties": { 
			 "R2extent": 5698.4712, 
			 "electric_dipole_moment_norm": 3.51841908106, 
			 "electric_quadrupole_moment_norm": 23.4226104506, 
			 "total_energy": -707.986457573, 
			 "HOMO_LUMO_gap": 0.14636, 
			 "cosmo_polarized_energy": -11.9, 
			 "cosmo_cavitation_energy": 34.48, 
			 "cosmo_dispersion_energy": -25.28, 
			 "cosmo_repulsion_energy": 1.93, 
			 "cosmo_total_nonelectrostatic_energy": 11.12, 
			 "SMD_solvation_energy": 2.84 
		},
		"coords": [
			{
				"x": -3.0118788281,
				"y": -1.2168693333,
				"z": 4.349723182,
				"element": "N" 
			},
			{
				"x": -2.1181349047,
				"y": -1.0751118497,
				"z": 3.2857129636,
				"element": "C" 
			},
			{
				"x": -1.4253538357,
				"y": -2.2182579343,
				"z": 2.76382242,
				"element": "C" 
			},
			{
				"x": -1.5972128323,
				"y": -3.5271849479,
				"z": 3.2893535348,
				"element": "C" 
			},
			{
				"x": -0.9414005259,
				"y": -4.5980272938,
				"z": 2.8843734296,
				"element": "N" 
			},
			{
				"x": -0.029675627,
				"y": -4.422195009,
				"z": 1.8908479707,
				"element": "C" 
			},
			{
				"x": 0.2040505372,
				"y": -3.2178232536,
				"z": 1.2685674378,
				"element": "C" 
			},
			{
				"x": -0.5130349321,
				"y": -2.0630386683,
				"z": 1.6726445035,
				"element": "C" 
			},
			{
				"x": -0.3469165159,
				"y": -0.7870077214,
				"z": 1.0436305884,
				"element": "C" 
			},
			{
				"x": -1.0641074614,
				"y": 0.2807561781,
				"z": 1.5556418434,
				"element": "C" 
			},
			{
				"x": -1.9142381972,
				"y": 0.1510840775,
				"z": 2.6733737462,
				"element": "C" 
			},
			{
				"x": 0.5247166134,
				"y": -0.6854490764,
				"z": -0.0801263546,
				"element": "N" 
			},
			{
				"x": -0.1136638799,
				"y": -1.0563715813,
				"z": -1.3587535115,
				"element": "C" 
			},
			{
				"x": 0.8457056821,
				"y": -0.8026584816,
				"z": -2.522595526,
				"element": "C" 
			},
			{
				"x": 1.1632477014,
				"y": 0.7049028689,
				"z": -2.6713054873,
				"element": "C" 
			},
			{
				"x": 1.0599074796,
				"y": 1.4382314882,
				"z": -1.3135881725,
				"element": "C" 
			},
			{
				"x": 1.412136143,
				"y": 0.4929342307,
				"z": -0.1571599426,
				"element": "C" 
			},
			{
				"x": -2.7392162027,
				"y": -1.8823437931,
				"z": 5.060049902,
				"element": "H" 
			},
			{
				"x": -3.3002612418,
				"y": -0.3403963718,
				"z": 4.7633735656,
				"element": "H" 
			},
			{
				"x": -2.3368667422,
				"y": -3.6975550356,
				"z": 4.0710556384,
				"element": "H" 
			},
			{
				"x": 0.5207132212,
				"y": -5.3129935547,
				"z": 1.595387971,
				"element": "H" 
			},
			{
				"x": 0.9427877201,
				"y": -3.1265424972,
				"z": 0.4803332914,
				"element": "H" 
			},
			{
				"x": -0.9656475195,
				"y": 1.2599906385,
				"z": 1.0953708329,
				"element": "H" 
			},
			{
				"x": -2.4294168219,
				"y": 1.0304907844,
				"z": 3.0527375316,
				"element": "H" 
			},
			{
				"x": -1.0484903684,
				"y": -0.489126461,
				"z": -1.5220890278,
				"element": "H" 
			},
			{
				"x": -0.3968560699,
				"y": -2.1138108423,
				"z": -1.3143661722,
				"element": "H" 
			},
			{
				"x": 0.4142490623,
				"y": -1.1999010774,
				"z": -3.4474374385,
				"element": "H" 
			},
			{
				"x": 1.7669196106,
				"y": -1.3681301748,
				"z": -2.3375781344,
				"element": "H" 
			},
			{
				"x": 2.1697079571,
				"y": 0.8255714318,
				"z": -3.0880524055,
				"element": "H" 
			},
			{
				"x": 0.4750658618,
				"y": 1.1664687581,
				"z": -3.3886390348,
				"element": "H" 
			},
			{
				"x": 1.7220269603,
				"y": 2.3113926739,
				"z": -1.2942837482,
				"element": "H" 
			},
			{
				"x": 0.040726275,
				"y": 1.817355864,
				"z": -1.1696469479,
				"element": "H" 
			},
			{
				"x": 2.4511570299,
				"y": 0.1521729483,
				"z": -0.2850439745,
				"element": "H" 
			},
			{
				"x": 1.3784546515,
				"y": 1.0179430161,
				"z": 0.8010655255,
				"element": "H" 
			}
		],
		 "valence_orbital": [ 
			{
				"type": "occ",
				"energy": -0.26086,
				"method": "rhf"
			},
			{
				"type": "occ",
				"energy": -0.25027,
				"method": "rhf"
			},
			{
				"type": "occ",
				"energy": -0.24355,
				"method": "rhf"
			},
			{
				"type": "occ",
				"energy": -0.21675,
				"method": "rhf"
			},
			{
				"type": "occ",
				"energy": -0.18352,
				"method": "rhf"
			},
			{
				"type": "unocc",
				"energy": -0.03716,
				"method": "rhf"
			},
			{
				"type": "unocc",
				"energy": -0.01297,
				"method": "rhf"
			},
			{
				"type": "unocc",
				"energy": 0.04337,
				"method": "rhf"
			},
			{
				"type": "unocc",
				"energy": 0.07436,
				"method": "rhf"
			},
			{
				"type": "unocc",
				"energy": 0.07575,
				"method": "rhf"
			}
		],
		"cosmo_sigma_profile": { 
			"-0.025": 0.0,
			"-0.024": 0.0,
			"-0.023": 0.0,
			"-0.022": 0.0,
			"-0.021": 0.0,
			"-0.02": 0.0,
			"-0.019": 0.0,
			"-0.018": 0.0,
			"-0.017": 0.0,
			"-0.016": 0.0,
			"-0.015": 0.0,
			"-0.014": 0.0,
			"-0.013": 0.890685505838,
			"-0.012": 3.09314281377,
			"-0.011": 2.60421146279,
			"-0.01": 2.95185409108,
			"-0.009": 3.27739491091,
			"-0.008": 3.36289397846,
			"-0.007": 3.12921520448,
			"-0.006": 4.27854013977,
			"-0.005": 8.40747860969,
			"-0.004": 12.4665733953,
			"-0.003": 20.1193187901,
			"-0.002": 31.6797886104,
			"-0.001": 39.5721457769,
			"0.0": 27.0301319185,
			"0.001": 22.0969734091,
			"0.002": 14.8988669062,
			"0.003": 20.1546649809,
			"0.004": 17.7126158742,
			"0.005": 9.54871886457,
			"0.006": 4.16045517405,
			"0.007": 3.28463718776,
			"0.008": 3.04815348427,
			"0.009": 3.2875940974,
			"0.01": 1.96921982579,
			"0.011": 1.19623152452,
			"0.012": 0.804839476899,
			"0.013": 2.26347334944,
			"0.014": 1.18663080433,
			"0.015": 0.644598859291,
			"0.016": 1.14795967675,
			"0.017": 0.678527338918,
			"0.018": 0.138333799583,
			"0.019": 0.0,
			"0.02": 0.0,
			"0.021": 0.0,
			"0.022": 0.0,
			"0.023": 0.0,
			"0.024": 0.0,
			"0.025": 0.0
		}
	}
}
