{
	 "smiles": "COC1=C(O)C=CC(CC#N)=C1", 
	 "Tm": 329.65, 
	 "num_atms": 21, 
	 "gaussian": { 
		 "optdone": 1, 
		 "sigma_profile": "yes", 
		 "theory": "DFT", 
		 "functional": "B3LYP", 
		 "basiset": "6-31G**", 
		 "properties": { 
			 "R2extent": 2897.162, 
			 "electric_dipole_moment_norm": 2.14570692081, 
			 "electric_quadrupole_moment_norm": 27.2328014662, 
			 "total_energy": -553.549251667, 
			 "HOMO_LUMO_gap": 0.21002, 
			 "cosmo_polarized_energy": -12.71, 
			 "cosmo_cavitation_energy": 25.93, 
			 "cosmo_dispersion_energy": -18.43, 
			 "cosmo_repulsion_energy": 1.48, 
			 "cosmo_total_nonelectrostatic_energy": 8.99, 
			 "SMD_solvation_energy": 6.82 
		},
		"coords": [
			{
				"x": 2.4038304568,
				"y": 0.6745560611,
				"z": 0.5984872895,
				"element": "C" 
			},
			{
				"x": 1.2359461142,
				"y": 0.7115210359,
				"z": -0.2113356608,
				"element": "O" 
			},
			{
				"x": 0.0438334327,
				"y": 0.3266126226,
				"z": 0.3487968625,
				"element": "C" 
			},
			{
				"x": -1.0552071966,
				"y": 0.4375843433,
				"z": -0.5293308125,
				"element": "C" 
			},
			{
				"x": -0.873086727,
				"y": 0.8900337848,
				"z": -1.7987085782,
				"element": "O" 
			},
			{
				"x": -2.3238740725,
				"y": 0.0888164623,
				"z": -0.0815919122,
				"element": "C" 
			},
			{
				"x": -2.5038335246,
				"y": -0.3674480178,
				"z": 1.2276206859,
				"element": "C" 
			},
			{
				"x": -1.4193186935,
				"y": -0.4852359623,
				"z": 2.0961627056,
				"element": "C" 
			},
			{
				"x": -1.6348386805,
				"y": -1.0428083093,
				"z": 3.4984540454,
				"element": "C" 
			},
			{
				"x": -0.7088729498,
				"y": -0.5093460247,
				"z": 4.5028793355,
				"element": "C" 
			},
			{
				"x": 0.0434333026,
				"y": -0.0960803081,
				"z": 5.2842652036,
				"element": "N" 
			},
			{
				"x": -0.1358173859,
				"y": -0.1333998158,
				"z": 1.6487316484,
				"element": "C" 
			},
			{
				"x": 2.6229526176,
				"y": -0.3462788723,
				"z": 0.9345679709,
				"element": "H" 
			},
			{
				"x": 3.2206983038,
				"y": 1.0311566305,
				"z": -0.0302045812,
				"element": "H" 
			},
			{
				"x": 2.3029193184,
				"y": 1.3290464672,
				"z": 1.4725076407,
				"element": "H" 
			},
			{
				"x": 0.0717996833,
				"y": 1.084214486,
				"z": -1.8984103449,
				"element": "H" 
			},
			{
				"x": -3.1614623499,
				"y": 0.1876397483,
				"z": -0.7639227192,
				"element": "H" 
			},
			{
				"x": -3.5020078742,
				"y": -0.6315884553,
				"z": 1.5660050394,
				"element": "H" 
			},
			{
				"x": -2.6576595066,
				"y": -0.8346190488,
				"z": 3.8318463558,
				"element": "H" 
			},
			{
				"x": -1.5274509517,
				"y": -2.1367678926,
				"z": 3.5027058181,
				"element": "H" 
			},
			{
				"x": 0.7069166835,
				"y": -0.207308935,
				"z": 2.3266740075,
				"element": "H" 
			}
		],
		 "valence_orbital": [ 
			{
				"type": "occ",
				"energy": -0.33273,
				"method": "rhf"
			},
			{
				"type": "occ",
				"energy": -0.32477,
				"method": "rhf"
			},
			{
				"type": "occ",
				"energy": -0.31847,
				"method": "rhf"
			},
			{
				"type": "occ",
				"energy": -0.24676,
				"method": "rhf"
			},
			{
				"type": "occ",
				"energy": -0.2136,
				"method": "rhf"
			},
			{
				"type": "unocc",
				"energy": -0.00358,
				"method": "rhf"
			},
			{
				"type": "unocc",
				"energy": 0.00222,
				"method": "rhf"
			},
			{
				"type": "unocc",
				"energy": 0.03155,
				"method": "rhf"
			},
			{
				"type": "unocc",
				"energy": 0.0429,
				"method": "rhf"
			},
			{
				"type": "unocc",
				"energy": 0.075,
				"method": "rhf"
			}
		],
		"cosmo_sigma_profile": { 
			"-0.025": 0.0,
			"-0.024": 0.0,
			"-0.023": 0.0,
			"-0.022": 0.0,
			"-0.021": 0.0,
			"-0.02": 0.0,
			"-0.019": 0.0,
			"-0.018": 0.0,
			"-0.017": 0.0,
			"-0.016": 0.0,
			"-0.015": 0.0379560613949,
			"-0.014": 0.392588838728,
			"-0.013": 0.448380798418,
			"-0.012": 0.995500116973,
			"-0.011": 0.584306418162,
			"-0.01": 0.556478395385,
			"-0.009": 2.62669787272,
			"-0.008": 6.25744094776,
			"-0.007": 7.62518446612,
			"-0.006": 16.306054435,
			"-0.005": 19.4521411473,
			"-0.004": 16.030362354,
			"-0.003": 15.2606733057,
			"-0.002": 9.9747834432,
			"-0.001": 8.29881149518,
			"0.0": 8.62154685639,
			"0.001": 10.0852884766,
			"0.002": 12.9873073584,
			"0.003": 12.7518014521,
			"0.004": 12.7944438776,
			"0.005": 11.4329912799,
			"0.006": 5.64813664414,
			"0.007": 3.70928736647,
			"0.008": 4.79247292446,
			"0.009": 3.97575231521,
			"0.01": 5.58413195641,
			"0.011": 4.38731503703,
			"0.012": 3.65194135773,
			"0.013": 1.72572145806,
			"0.014": 0.337432469414,
			"0.015": 0.0,
			"0.016": 0.0,
			"0.017": 0.0,
			"0.018": 0.0,
			"0.019": 0.0,
			"0.02": 0.0,
			"0.021": 0.0,
			"0.022": 0.0,
			"0.023": 0.0,
			"0.024": 0.0,
			"0.025": 0.0
		}
	}
}
