{
	 "smiles": "OCC1CCC(=O)N1", 
	 "Tm": 355.15, 
	 "num_atms": 17, 
	 "gaussian": { 
		 "optdone": 1, 
		 "sigma_profile": "yes", 
		 "theory": "DFT", 
		 "functional": "B3LYP", 
		 "basiset": "6-31G**", 
		 "properties": { 
			 "R2extent": 1413.2969, 
			 "electric_dipole_moment_norm": 3.7984558481, 
			 "electric_quadrupole_moment_norm": 18.7535194116, 
			 "total_energy": -401.161937791, 
			 "HOMO_LUMO_gap": 0.2738, 
			 "cosmo_polarized_energy": -14.61, 
			 "cosmo_cavitation_energy": 19.77, 
			 "cosmo_dispersion_energy": -14.92, 
			 "cosmo_repulsion_energy": 1.28, 
			 "cosmo_total_nonelectrostatic_energy": 6.13, 
			 "SMD_solvation_energy": 3.46 
		},
		"coords": [
			{
				"x": -0.6479837673,
				"y": 2.5811119046,
				"z": -0.2116362955,
				"element": "O" 
			},
			{
				"x": 0.6088020275,
				"y": 1.9215446003,
				"z": -0.2175521906,
				"element": "C" 
			},
			{
				"x": 0.346027252,
				"y": 0.4360647204,
				"z": 0.0559554368,
				"element": "C" 
			},
			{
				"x": -0.158922967,
				"y": 0.1616786278,
				"z": 1.4966797625,
				"element": "C" 
			},
			{
				"x": 1.105119342,
				"y": -0.2199133214,
				"z": 2.2876179899,
				"element": "C" 
			},
			{
				"x": 2.0973438274,
				"y": -0.7049273595,
				"z": 1.2247996055,
				"element": "C" 
			},
			{
				"x": 3.1529169443,
				"y": -1.2863760917,
				"z": 1.4025246228,
				"element": "O" 
			},
			{
				"x": 1.5752650751,
				"y": -0.3419823456,
				"z": 0.006388722,
				"element": "N" 
			},
			{
				"x": -0.4988235292,
				"y": 3.5257852017,
				"z": -0.3372350541,
				"element": "H" 
			},
			{
				"x": 1.2875261345,
				"y": 2.3189226571,
				"z": 0.5545103546,
				"element": "H" 
			},
			{
				"x": 1.1187785093,
				"y": 2.0269005162,
				"z": -1.1892703349,
				"element": "H" 
			},
			{
				"x": -0.3756421012,
				"y": 0.0826277977,
				"z": -0.6897651786,
				"element": "H" 
			},
			{
				"x": -0.6920672173,
				"y": 1.0281340479,
				"z": 1.8928256277,
				"element": "H" 
			},
			{
				"x": -0.8587446119,
				"y": -0.6789384618,
				"z": 1.4792063258,
				"element": "H" 
			},
			{
				"x": 0.9459313807,
				"y": -0.9996504665,
				"z": 3.0356041699,
				"element": "H" 
			},
			{
				"x": 1.5555073603,
				"y": 0.6347191432,
				"z": 2.8058064141,
				"element": "H" 
			},
			{
				"x": 2.1094663408,
				"y": -0.4950011703,
				"z": -0.837059978,
				"element": "H" 
			}
		],
		 "valence_orbital": [ 
			{
				"type": "occ",
				"energy": -0.349,
				"method": "rhf"
			},
			{
				"type": "occ",
				"energy": -0.32479,
				"method": "rhf"
			},
			{
				"type": "occ",
				"energy": -0.28125,
				"method": "rhf"
			},
			{
				"type": "occ",
				"energy": -0.25039,
				"method": "rhf"
			},
			{
				"type": "occ",
				"energy": -0.23769,
				"method": "rhf"
			},
			{
				"type": "unocc",
				"energy": 0.03611,
				"method": "rhf"
			},
			{
				"type": "unocc",
				"energy": 0.06335,
				"method": "rhf"
			},
			{
				"type": "unocc",
				"energy": 0.07704,
				"method": "rhf"
			},
			{
				"type": "unocc",
				"energy": 0.11081,
				"method": "rhf"
			},
			{
				"type": "unocc",
				"energy": 0.11443,
				"method": "rhf"
			}
		],
		"cosmo_sigma_profile": { 
			"-0.025": 0.0,
			"-0.024": 0.0,
			"-0.023": 0.0,
			"-0.022": 0.0,
			"-0.021": 0.0,
			"-0.02": 0.0,
			"-0.019": 0.0,
			"-0.018": 0.0,
			"-0.017": 0.0,
			"-0.016": 0.818286540925,
			"-0.015": 0.854409924576,
			"-0.014": 1.92780827251,
			"-0.013": 1.83767079931,
			"-0.012": 2.43582835277,
			"-0.011": 1.7434722619,
			"-0.01": 1.69102536417,
			"-0.009": 2.1377753226,
			"-0.008": 1.56110815361,
			"-0.007": 2.24723089072,
			"-0.006": 3.38221013602,
			"-0.005": 9.28812687607,
			"-0.004": 17.9789361703,
			"-0.003": 19.2949030318,
			"-0.002": 14.5072104056,
			"-0.001": 11.5005024601,
			"0.0": 8.61949107124,
			"0.001": 4.70361092565,
			"0.002": 3.60135712363,
			"0.003": 3.49886312666,
			"0.004": 3.75015067068,
			"0.005": 3.34978544332,
			"0.006": 2.21950349925,
			"0.007": 1.65898839525,
			"0.008": 3.60925955475,
			"0.009": 2.93965630307,
			"0.01": 1.68826844854,
			"0.011": 2.64924382006,
			"0.012": 3.31348926049,
			"0.013": 4.76556785779,
			"0.014": 7.1003200982,
			"0.015": 2.83516788502,
			"0.016": 0.116450450453,
			"0.017": 0.0,
			"0.018": 0.0,
			"0.019": 0.0,
			"0.02": 0.0,
			"0.021": 0.0,
			"0.022": 0.0,
			"0.023": 0.0,
			"0.024": 0.0,
			"0.025": 0.0
		}
	}
}
