{
	 "smiles": "OC1=C(Br)C=C(C=C1)[N+]([O-])=O", 
	 "Tm": 385.15, 
	 "num_atms": 15, 
	 "gaussian": { 
		 "optdone": 1, 
		 "sigma_profile": "yes", 
		 "theory": "DFT", 
		 "functional": "B3LYP", 
		 "basiset": "6-31G**", 
		 "properties": { 
			 "R2extent": 2764.1831, 
			 "electric_dipole_moment_norm": 5.14885383556, 
			 "electric_quadrupole_moment_norm": 19.9014213362, 
			 "total_energy": -3082.76769269, 
			 "HOMO_LUMO_gap": 0.1652, 
			 "cosmo_polarized_energy": -14.13, 
			 "cosmo_cavitation_energy": 22.83, 
			 "cosmo_dispersion_energy": -17.4, 
			 "cosmo_repulsion_energy": 1.4, 
			 "cosmo_total_nonelectrostatic_energy": 6.82, 
			 "SMD_solvation_energy": 5.6 
		},
		"coords": [
			{
				"x": 1.727441051,
				"y": 1.1361347124,
				"z": 2.3544410645,
				"element": "O" 
			},
			{
				"x": 1.4760649303,
				"y": 0.3678516934,
				"z": 1.2725820961,
				"element": "C" 
			},
			{
				"x": 0.1742226695,
				"y": 0.3764608045,
				"z": 0.7345659211,
				"element": "C" 
			},
			{
				"x": -1.1674100151,
				"y": 1.4541820563,
				"z": 1.5379927744,
				"element": "Br" 
			},
			{
				"x": -0.1331931775,
				"y": -0.3955934567,
				"z": -0.3757669388,
				"element": "C" 
			},
			{
				"x": 0.8651587707,
				"y": -1.1809750551,
				"z": -0.9523595963,
				"element": "C" 
			},
			{
				"x": 2.1612029083,
				"y": -1.2095745049,
				"z": -0.4421176228,
				"element": "C" 
			},
			{
				"x": 2.4584726437,
				"y": -0.4329801074,
				"z": 0.6696525803,
				"element": "C" 
			},
			{
				"x": 0.5376478221,
				"y": -1.9954681714,
				"z": -2.1249192661,
				"element": "N" 
			},
			{
				"x": -0.6163657299,
				"y": -1.947879074,
				"z": -2.5508794865,
				"element": "O" 
			},
			{
				"x": 1.4386528427,
				"y": -2.6790491568,
				"z": -2.6128056223,
				"element": "O" 
			},
			{
				"x": 2.6524638195,
				"y": 1.0357440989,
				"z": 2.6168518676,
				"element": "H" 
			},
			{
				"x": -1.1291735495,
				"y": -0.397544542,
				"z": -0.7982349509,
				"element": "H" 
			},
			{
				"x": 2.9086456616,
				"y": -1.8318546038,
				"z": -0.9172576653,
				"element": "H" 
			},
			{
				"x": 3.4640693526,
				"y": -0.4414546935,
				"z": 1.0829548447,
				"element": "H" 
			}
		],
		 "valence_orbital": [ 
			{
				"type": "occ",
				"energy": -0.31057,
				"method": "rhf"
			},
			{
				"type": "occ",
				"energy": -0.29756,
				"method": "rhf"
			},
			{
				"type": "occ",
				"energy": -0.2923,
				"method": "rhf"
			},
			{
				"type": "occ",
				"energy": -0.27782,
				"method": "rhf"
			},
			{
				"type": "occ",
				"energy": -0.25475,
				"method": "rhf"
			},
			{
				"type": "unocc",
				"energy": -0.08955,
				"method": "rhf"
			},
			{
				"type": "unocc",
				"energy": -0.04104,
				"method": "rhf"
			},
			{
				"type": "unocc",
				"energy": -0.00802,
				"method": "rhf"
			},
			{
				"type": "unocc",
				"energy": 0.00136,
				"method": "rhf"
			},
			{
				"type": "unocc",
				"energy": 0.04006,
				"method": "rhf"
			}
		],
		"cosmo_sigma_profile": { 
			"-0.025": 0.0,
			"-0.024": 0.0,
			"-0.023": 0.0,
			"-0.022": 0.0,
			"-0.021": 0.0,
			"-0.02": 0.370191094435,
			"-0.019": 1.25279627035,
			"-0.018": 1.30683325167,
			"-0.017": 1.64724187514,
			"-0.016": 0.819656802905,
			"-0.015": 0.579973251353,
			"-0.014": 0.943845320416,
			"-0.013": 1.13367283126,
			"-0.012": 1.4627705202,
			"-0.011": 1.35155374077,
			"-0.01": 0.875934317721,
			"-0.009": 2.0118035651,
			"-0.008": 3.4160601821,
			"-0.007": 5.17060948719,
			"-0.006": 5.61066353349,
			"-0.005": 7.14885004914,
			"-0.004": 7.60150263537,
			"-0.003": 8.21478890578,
			"-0.002": 10.737224797,
			"-0.001": 19.7975500918,
			"0.0": 19.8187649609,
			"0.001": 12.6602726677,
			"0.002": 9.47221958499,
			"0.003": 10.5226163563,
			"0.004": 11.518802007,
			"0.005": 5.91084909727,
			"0.006": 4.68246261381,
			"0.007": 9.76262821422,
			"0.008": 9.74939608929,
			"0.009": 6.91329223825,
			"0.01": 3.97605065535,
			"0.011": 0.356887386707,
			"0.012": 0.0,
			"0.013": 0.0,
			"0.014": 0.0,
			"0.015": 0.0,
			"0.016": 0.0,
			"0.017": 0.0,
			"0.018": 0.0,
			"0.019": 0.0,
			"0.02": 0.0,
			"0.021": 0.0,
			"0.022": 0.0,
			"0.023": 0.0,
			"0.024": 0.0,
			"0.025": 0.0
		}
	}
}
