{
	 "smiles": "NC1=NC=C(C=C1)C1=NC2=C(N1)C=CC=C2", 
	 "Tm": 626.15, 
	 "num_atms": 26, 
	 "gaussian": { 
		 "optdone": 1, 
		 "sigma_profile": "yes", 
		 "theory": "DFT", 
		 "functional": "B3LYP", 
		 "basiset": "6-31G**", 
		 "properties": { 
			 "R2extent": 4958.3235, 
			 "electric_dipole_moment_norm": 2.87756306794, 
			 "electric_quadrupole_moment_norm": 20.8477209762, 
			 "total_energy": -682.338057935, 
			 "HOMO_LUMO_gap": 0.16263, 
			 "cosmo_polarized_energy": -18.12, 
			 "cosmo_cavitation_energy": 30.52, 
			 "cosmo_dispersion_energy": -23.12, 
			 "cosmo_repulsion_energy": 1.77, 
			 "cosmo_total_nonelectrostatic_energy": 9.17, 
			 "SMD_solvation_energy": 1.61 
		},
		"coords": [
			{
				"x": -1.0678363842,
				"y": -5.9350943617,
				"z": 0.8461399082,
				"element": "N" 
			},
			{
				"x": -0.923671253,
				"y": -4.577566349,
				"z": 0.6682299214,
				"element": "C" 
			},
			{
				"x": 0.173149585,
				"y": -4.0215275216,
				"z": 1.2072928779,
				"element": "N" 
			},
			{
				"x": 0.3727468974,
				"y": -2.7166532365,
				"z": 1.0112536036,
				"element": "C" 
			},
			{
				"x": -0.4828892115,
				"y": -1.879956458,
				"z": 0.2865155442,
				"element": "C" 
			},
			{
				"x": -1.6351926248,
				"y": -2.4797833912,
				"z": -0.261967963,
				"element": "C" 
			},
			{
				"x": -1.8623497856,
				"y": -3.8278977306,
				"z": -0.0776728129,
				"element": "C" 
			},
			{
				"x": -0.2449434968,
				"y": -0.4525818568,
				"z": 0.0885141992,
				"element": "C" 
			},
			{
				"x": -1.0871826818,
				"y": 0.3671980384,
				"z": -0.5096859648,
				"element": "N" 
			},
			{
				"x": -0.476316481,
				"y": 1.6081476632,
				"z": -0.4860749612,
				"element": "C" 
			},
			{
				"x": 0.7855707856,
				"y": 1.5252034762,
				"z": 0.1541269351,
				"element": "C" 
			},
			{
				"x": 0.9037919225,
				"y": 0.1945938074,
				"z": 0.5137609387,
				"element": "N" 
			},
			{
				"x": 1.6211174492,
				"y": 2.6308083446,
				"z": 0.3164140478,
				"element": "C" 
			},
			{
				"x": 1.1571857385,
				"y": 3.8457003522,
				"z": -0.1850931439,
				"element": "C" 
			},
			{
				"x": -0.0951853596,
				"y": 3.948653994,
				"z": -0.8232613878,
				"element": "C" 
			},
			{
				"x": -0.9224403626,
				"y": 2.8409138862,
				"z": -0.9810714401,
				"element": "C" 
			},
			{
				"x": -1.9925724519,
				"y": -6.3295968471,
				"z": 0.7706334046,
				"element": "H" 
			},
			{
				"x": -0.4759292242,
				"y": -6.3345977383,
				"z": 1.5600612291,
				"element": "H" 
			},
			{
				"x": 1.2739926441,
				"y": -2.3210215077,
				"z": 1.4801562562,
				"element": "H" 
			},
			{
				"x": -2.3257136693,
				"y": -1.8608508537,
				"z": -0.8247889604,
				"element": "H" 
			},
			{
				"x": -2.7387592411,
				"y": -4.3102229824,
				"z": -0.5002371649,
				"element": "H" 
			},
			{
				"x": 1.7002413514,
				"y": -0.2307115359,
				"z": 0.9598455744,
				"element": "H" 
			},
			{
				"x": 2.5865142875,
				"y": 2.5553671834,
				"z": 0.808184512,
				"element": "H" 
			},
			{
				"x": 1.7751686544,
				"y": 4.7326391779,
				"z": -0.0809527484,
				"element": "H" 
			},
			{
				"x": -0.4177098971,
				"y": 4.9154095306,
				"z": -1.1985848722,
				"element": "H" 
			},
			{
				"x": -1.887587191,
				"y": 2.9148269162,
				"z": -1.4717375331,
				"element": "H" 
			}
		],
		 "valence_orbital": [ 
			{
				"type": "occ",
				"energy": -0.26616,
				"method": "rhf"
			},
			{
				"type": "occ",
				"energy": -0.26396,
				"method": "rhf"
			},
			{
				"type": "occ",
				"energy": -0.24191,
				"method": "rhf"
			},
			{
				"type": "occ",
				"energy": -0.22139,
				"method": "rhf"
			},
			{
				"type": "occ",
				"energy": -0.19786,
				"method": "rhf"
			},
			{
				"type": "unocc",
				"energy": -0.03523,
				"method": "rhf"
			},
			{
				"type": "unocc",
				"energy": -0.02026,
				"method": "rhf"
			},
			{
				"type": "unocc",
				"energy": 0.0173,
				"method": "rhf"
			},
			{
				"type": "unocc",
				"energy": 0.03079,
				"method": "rhf"
			},
			{
				"type": "unocc",
				"energy": 0.06621,
				"method": "rhf"
			}
		],
		"cosmo_sigma_profile": { 
			"-0.025": 0.0,
			"-0.024": 0.0,
			"-0.023": 0.0,
			"-0.022": 0.0,
			"-0.021": 0.0,
			"-0.02": 0.0,
			"-0.019": 0.0,
			"-0.018": 0.0,
			"-0.017": 0.327581844071,
			"-0.016": 1.45677686367,
			"-0.015": 1.41723580156,
			"-0.014": 1.72323837937,
			"-0.013": 2.93552245458,
			"-0.012": 4.75992496312,
			"-0.011": 4.16656604891,
			"-0.01": 3.09814594618,
			"-0.009": 4.64335064495,
			"-0.008": 4.27140805675,
			"-0.007": 5.1112879195,
			"-0.006": 8.72114948868,
			"-0.005": 14.0511521917,
			"-0.004": 12.5315677082,
			"-0.003": 14.32861157,
			"-0.002": 10.1056821702,
			"-0.001": 9.67571028838,
			"0.0": 12.775228666,
			"0.001": 16.8015722503,
			"0.002": 23.1279956154,
			"0.003": 19.7790723543,
			"0.004": 16.016149599,
			"0.005": 14.6165948439,
			"0.006": 12.004225092,
			"0.007": 5.8283664694,
			"0.008": 3.96459285383,
			"0.009": 3.56006650327,
			"0.01": 3.06208800245,
			"0.011": 2.31642465611,
			"0.012": 1.61825098701,
			"0.013": 2.24994123835,
			"0.014": 2.04319952204,
			"0.015": 1.75185768038,
			"0.016": 0.260079273361,
			"0.017": 0.0,
			"0.018": 0.0,
			"0.019": 0.0,
			"0.02": 0.0,
			"0.021": 0.0,
			"0.022": 0.0,
			"0.023": 0.0,
			"0.024": 0.0,
			"0.025": 0.0
		}
	}
}
