{
	 "smiles": "OC(=O)CCC1=NC2=C(O1)C=CC=C2", 
	 "Tm": 384.15, 
	 "num_atms": 23, 
	 "gaussian": { 
		 "optdone": 1, 
		 "sigma_profile": "yes", 
		 "theory": "DFT", 
		 "functional": "B3LYP", 
		 "basiset": "6-31G**", 
		 "properties": { 
			 "R2extent": 4549.1177, 
			 "electric_dipole_moment_norm": 3.52785804845, 
			 "electric_quadrupole_moment_norm": 17.7294718179, 
			 "total_energy": -666.925390451, 
			 "HOMO_LUMO_gap": 0.21002, 
			 "cosmo_polarized_energy": -16.62, 
			 "cosmo_cavitation_energy": 28.17, 
			 "cosmo_dispersion_energy": -20.92, 
			 "cosmo_repulsion_energy": 1.65, 
			 "cosmo_total_nonelectrostatic_energy": 8.91, 
			 "SMD_solvation_energy": 4.46 
		},
		"coords": [
			{
				"x": 4.9139768913,
				"y": 1.741318153,
				"z": 0.2452038259,
				"element": "O" 
			},
			{
				"x": 4.095141004,
				"y": 1.3895895304,
				"z": -0.7816616479,
				"element": "C" 
			},
			{
				"x": 4.38864067,
				"y": 1.6749909636,
				"z": -1.9156915068,
				"element": "O" 
			},
			{
				"x": 2.8357260103,
				"y": 0.6382662332,
				"z": -0.3766150052,
				"element": "C" 
			},
			{
				"x": 1.9716078386,
				"y": 0.2790347223,
				"z": -1.5837496059,
				"element": "C" 
			},
			{
				"x": 0.736291593,
				"y": -0.4552337825,
				"z": -1.1867306886,
				"element": "C" 
			},
			{
				"x": 0.3517838597,
				"y": -0.7940485019,
				"z": 0.0024586954,
				"element": "N" 
			},
			{
				"x": -0.8645762955,
				"y": -1.4551618868,
				"z": -0.1997464174,
				"element": "C" 
			},
			{
				"x": -1.1428314644,
				"y": -1.4689662718,
				"z": -1.5728087621,
				"element": "C" 
			},
			{
				"x": -0.108768328,
				"y": -0.8232314226,
				"z": -2.2090467575,
				"element": "O" 
			},
			{
				"x": -2.2751426564,
				"y": -2.0463638927,
				"z": -2.1268958271,
				"element": "C" 
			},
			{
				"x": -3.1587756031,
				"y": -2.6357868499,
				"z": -1.21844682,
				"element": "C" 
			},
			{
				"x": -2.9035328635,
				"y": -2.6360014866,
				"z": 0.1651181464,
				"element": "C" 
			},
			{
				"x": -1.7558662818,
				"y": -2.0477755577,
				"z": 0.697513898,
				"element": "C" 
			},
			{
				"x": 4.5434685595,
				"y": 1.4436461687,
				"z": 1.0885135661,
				"element": "H" 
			},
			{
				"x": 3.1167134454,
				"y": -0.2678348307,
				"z": 0.1742785259,
				"element": "H" 
			},
			{
				"x": 2.2637080515,
				"y": 1.248080622,
				"z": 0.3335822616,
				"element": "H" 
			},
			{
				"x": 1.6971015596,
				"y": 1.1850036477,
				"z": -2.1359538658,
				"element": "H" 
			},
			{
				"x": 2.545613914,
				"y": -0.3275478787,
				"z": -2.2934269086,
				"element": "H" 
			},
			{
				"x": -2.4612041096,
				"y": -2.0400154549,
				"z": -3.1950222331,
				"element": "H" 
			},
			{
				"x": -4.0642902299,
				"y": -3.104811499,
				"z": -1.5909931787,
				"element": "H" 
			},
			{
				"x": -3.6194504913,
				"y": -3.106433972,
				"z": 0.8322660329,
				"element": "H" 
			},
			{
				"x": -1.5559350735,
				"y": -2.046116753,
				"z": 1.7637542725,
				"element": "H" 
			}
		],
		 "valence_orbital": [ 
			{
				"type": "occ",
				"energy": -0.32044,
				"method": "rhf"
			},
			{
				"type": "occ",
				"energy": -0.29737,
				"method": "rhf"
			},
			{
				"type": "occ",
				"energy": -0.27676,
				"method": "rhf"
			},
			{
				"type": "occ",
				"energy": -0.24945,
				"method": "rhf"
			},
			{
				"type": "occ",
				"energy": -0.23912,
				"method": "rhf"
			},
			{
				"type": "unocc",
				"energy": -0.0291,
				"method": "rhf"
			},
			{
				"type": "unocc",
				"energy": 0.00262,
				"method": "rhf"
			},
			{
				"type": "unocc",
				"energy": 0.007,
				"method": "rhf"
			},
			{
				"type": "unocc",
				"energy": 0.0356,
				"method": "rhf"
			},
			{
				"type": "unocc",
				"energy": 0.05149,
				"method": "rhf"
			}
		],
		"cosmo_sigma_profile": { 
			"-0.025": 0.0,
			"-0.024": 0.0,
			"-0.023": 0.0,
			"-0.022": 0.0,
			"-0.021": 0.0,
			"-0.02": 0.0427211958418,
			"-0.019": 0.817041165693,
			"-0.018": 0.960900212303,
			"-0.017": 1.23662133683,
			"-0.016": 1.43507282735,
			"-0.015": 0.979046874356,
			"-0.014": 0.896464607555,
			"-0.013": 0.862738849541,
			"-0.012": 1.42872398817,
			"-0.011": 1.32559526592,
			"-0.01": 1.43468783764,
			"-0.009": 1.39736850357,
			"-0.008": 2.56795442543,
			"-0.007": 8.50370219672,
			"-0.006": 17.105478277,
			"-0.005": 17.7286967235,
			"-0.004": 13.4340633594,
			"-0.003": 14.2055928974,
			"-0.002": 11.6979150293,
			"-0.001": 9.34382932091,
			"0.0": 10.0498390239,
			"0.001": 14.0952468551,
			"0.002": 13.7967704582,
			"0.003": 14.3745002916,
			"0.004": 13.8448110792,
			"0.005": 11.5072051268,
			"0.006": 5.22560357335,
			"0.007": 5.13991002321,
			"0.008": 4.28927303128,
			"0.009": 3.86091546742,
			"0.01": 6.04653750183,
			"0.011": 6.73019011579,
			"0.012": 5.68137028106,
			"0.013": 1.91899630275,
			"0.014": 0.635009255357,
			"0.015": 0.211853941648,
			"0.016": 0.0,
			"0.017": 0.0,
			"0.018": 0.0,
			"0.019": 0.0,
			"0.02": 0.0,
			"0.021": 0.0,
			"0.022": 0.0,
			"0.023": 0.0,
			"0.024": 0.0,
			"0.025": 0.0
		}
	}
}
