{
	 "smiles": "CCCCCCCCCCCCCCCC=O", 
	 "Tm": 308.15, 
	 "num_atms": 49, 
	 "gaussian": { 
		 "optdone": 1, 
		 "sigma_profile": "yes", 
		 "theory": "DFT", 
		 "functional": "B3LYP", 
		 "basiset": "6-31G**", 
		 "properties": { 
			 "R2extent": 6925.0931, 
			 "electric_dipole_moment_norm": 2.69506664296, 
			 "electric_quadrupole_moment_norm": 16.0848085202, 
			 "total_energy": -704.239216668, 
			 "HOMO_LUMO_gap": 0.23238, 
			 "cosmo_polarized_energy": -6.55, 
			 "cosmo_cavitation_energy": 48.83, 
			 "cosmo_dispersion_energy": -29.83, 
			 "cosmo_repulsion_energy": 2.36, 
			 "cosmo_total_nonelectrostatic_energy": 21.37, 
			 "SMD_solvation_energy": 7.2 
		},
		"coords": [
			{
				"x": -2.63756279,
				"y": 0.9306252358,
				"z": 1.7326389356,
				"element": "C" 
			},
			{
				"x": -2.2246188221,
				"y": 2.3165508731,
				"z": 2.2427655221,
				"element": "C" 
			},
			{
				"x": -1.1341759726,
				"y": 3.0077630572,
				"z": 1.4066279881,
				"element": "C" 
			},
			{
				"x": -1.55681535,
				"y": 3.3475758727,
				"z": -0.0305789098,
				"element": "C" 
			},
			{
				"x": -0.5532078554,
				"y": 4.2252726873,
				"z": -0.798317295,
				"element": "C" 
			},
			{
				"x": 0.8295824516,
				"y": 3.6174593557,
				"z": -1.1048735661,
				"element": "C" 
			},
			{
				"x": 0.8311892797,
				"y": 2.4027498562,
				"z": -2.0612132466,
				"element": "C" 
			},
			{
				"x": 0.8254490758,
				"y": 1.0255867473,
				"z": -1.3786161767,
				"element": "C" 
			},
			{
				"x": 0.8095111147,
				"y": -0.1364919469,
				"z": -2.382215002,
				"element": "C" 
			},
			{
				"x": 0.8416801232,
				"y": -1.5398372605,
				"z": -1.7524679767,
				"element": "C" 
			},
			{
				"x": 2.1725018365,
				"y": -1.9011773883,
				"z": -1.0746125942,
				"element": "C" 
			},
			{
				"x": 2.2784758482,
				"y": -3.3672512676,
				"z": -0.6180298378,
				"element": "C" 
			},
			{
				"x": 1.3010620261,
				"y": -3.8566157058,
				"z": 0.4691466057,
				"element": "C" 
			},
			{
				"x": 1.4921686375,
				"y": -3.2607080785,
				"z": 1.8793457955,
				"element": "C" 
			},
			{
				"x": 0.7451281229,
				"y": -1.9508683006,
				"z": 2.1461178724,
				"element": "C" 
			},
			{
				"x": 0.8841262292,
				"y": -1.4377239334,
				"z": 3.5607761874,
				"element": "C" 
			},
			{
				"x": 1.5272612264,
				"y": -1.9777069472,
				"z": 4.4343896382,
				"element": "O" 
			},
			{
				"x": -3.3741561379,
				"y": 0.4683104714,
				"z": 2.3980772997,
				"element": "H" 
			},
			{
				"x": -3.0828485742,
				"y": 0.9781660812,
				"z": 0.7337225198,
				"element": "H" 
			},
			{
				"x": -1.7732254055,
				"y": 0.2574695976,
				"z": 1.6760930828,
				"element": "H" 
			},
			{
				"x": -1.8687297221,
				"y": 2.2238688219,
				"z": 3.2770587824,
				"element": "H" 
			},
			{
				"x": -3.1102500846,
				"y": 2.9653591087,
				"z": 2.2852555829,
				"element": "H" 
			},
			{
				"x": -0.2367389341,
				"y": 2.3742601693,
				"z": 1.394671884,
				"element": "H" 
			},
			{
				"x": -0.8401730156,
				"y": 3.9370472501,
				"z": 1.9140583959,
				"element": "H" 
			},
			{
				"x": -2.5163082121,
				"y": 3.8825880633,
				"z": 0.0074661533,
				"element": "H" 
			},
			{
				"x": -1.7526809648,
				"y": 2.4282711476,
				"z": -0.5962480346,
				"element": "H" 
			},
			{
				"x": -1.0113007019,
				"y": 4.5258725623,
				"z": -1.7506371775,
				"element": "H" 
			},
			{
				"x": -0.4029247655,
				"y": 5.1548095459,
				"z": -0.2315149111,
				"element": "H" 
			},
			{
				"x": 1.4359327516,
				"y": 4.4153444118,
				"z": -1.5512083837,
				"element": "H" 
			},
			{
				"x": 1.3417623463,
				"y": 3.3499853563,
				"z": -0.1709486354,
				"element": "H" 
			},
			{
				"x": -0.0263086053,
				"y": 2.4755734592,
				"z": -2.7456417642,
				"element": "H" 
			},
			{
				"x": 1.7225196679,
				"y": 2.4530750362,
				"z": -2.7004878262,
				"element": "H" 
			},
			{
				"x": -0.0430415043,
				"y": 0.9343523821,
				"z": -0.7133063082,
				"element": "H" 
			},
			{
				"x": 1.7122533031,
				"y": 0.9535238924,
				"z": -0.7344560912,
				"element": "H" 
			},
			{
				"x": -0.091890359,
				"y": -0.0479454137,
				"z": -3.0037755591,
				"element": "H" 
			},
			{
				"x": 1.6609171438,
				"y": -0.0322997827,
				"z": -3.0704432961,
				"element": "H" 
			},
			{
				"x": 0.0137206695,
				"y": -1.6311930199,
				"z": -1.0362445577,
				"element": "H" 
			},
			{
				"x": 0.6418748425,
				"y": -2.2817637877,
				"z": -2.5379200003,
				"element": "H" 
			},
			{
				"x": 2.9858216855,
				"y": -1.7117310304,
				"z": -1.7890569551,
				"element": "H" 
			},
			{
				"x": 2.366082303,
				"y": -1.2302241268,
				"z": -0.2287993458,
				"element": "H" 
			},
			{
				"x": 3.3019702847,
				"y": -3.5491514193,
				"z": -0.2628115212,
				"element": "H" 
			},
			{
				"x": 2.1499307919,
				"y": -4.0084418615,
				"z": -1.5012261072,
				"element": "H" 
			},
			{
				"x": 0.2629441984,
				"y": -3.7103368655,
				"z": 0.1414273173,
				"element": "H" 
			},
			{
				"x": 1.4316164642,
				"y": -4.9431816976,
				"z": 0.5449952213,
				"element": "H" 
			},
			{
				"x": 1.1543589571,
				"y": -3.9870216648,
				"z": 2.6268138937,
				"element": "H" 
			},
			{
				"x": 2.5601877949,
				"y": -3.1141876313,
				"z": 2.0821275536,
				"element": "H" 
			},
			{
				"x": -0.3335646906,
				"y": -2.0624216496,
				"z": 1.9512835363,
				"element": "H" 
			},
			{
				"x": 1.0631655248,
				"y": -1.1374390213,
				"z": 1.4789538635,
				"element": "H" 
			},
			{
				"x": 0.3349277665,
				"y": -0.4891412413,
				"z": 3.765937448,
				"element": "H" 
			}
		],
		 "valence_orbital": [ 
			{
				"type": "occ",
				"energy": -0.30847,
				"method": "rhf"
			},
			{
				"type": "occ",
				"energy": -0.30651,
				"method": "rhf"
			},
			{
				"type": "occ",
				"energy": -0.30355,
				"method": "rhf"
			},
			{
				"type": "occ",
				"energy": -0.29824,
				"method": "rhf"
			},
			{
				"type": "occ",
				"energy": -0.25035,
				"method": "rhf"
			},
			{
				"type": "unocc",
				"energy": -0.01797,
				"method": "rhf"
			},
			{
				"type": "unocc",
				"energy": 0.05384,
				"method": "rhf"
			},
			{
				"type": "unocc",
				"energy": 0.07802,
				"method": "rhf"
			},
			{
				"type": "unocc",
				"energy": 0.08533,
				"method": "rhf"
			},
			{
				"type": "unocc",
				"energy": 0.09224,
				"method": "rhf"
			}
		],
		"cosmo_sigma_profile": { 
			"-0.025": 0.0,
			"-0.024": 0.0,
			"-0.023": 0.0,
			"-0.022": 0.0,
			"-0.021": 0.0,
			"-0.02": 0.0,
			"-0.019": 0.0,
			"-0.018": 0.0,
			"-0.017": 0.0,
			"-0.016": 0.0,
			"-0.015": 0.0,
			"-0.014": 0.0,
			"-0.013": 0.0,
			"-0.012": 0.0,
			"-0.011": 0.0,
			"-0.01": 0.0,
			"-0.009": 0.0,
			"-0.008": 0.0,
			"-0.007": 0.0,
			"-0.006": 0.666784267527,
			"-0.005": 9.30506845503,
			"-0.004": 11.4582626559,
			"-0.003": 14.1498769626,
			"-0.002": 47.1084135501,
			"-0.001": 87.5159798425,
			"0.0": 89.0172037767,
			"0.001": 64.667499059,
			"0.002": 24.9480073596,
			"0.003": 2.28011699667,
			"0.004": 2.09995899769,
			"0.005": 2.04753746952,
			"0.006": 1.06931778352,
			"0.007": 1.88512143156,
			"0.008": 1.84842659916,
			"0.009": 2.38213863812,
			"0.01": 2.42484962175,
			"0.011": 3.78268833558,
			"0.012": 3.95362240872,
			"0.013": 0.981632302756,
			"0.014": 0.0,
			"0.015": 0.0,
			"0.016": 0.0,
			"0.017": 0.0,
			"0.018": 0.0,
			"0.019": 0.0,
			"0.02": 0.0,
			"0.021": 0.0,
			"0.022": 0.0,
			"0.023": 0.0,
			"0.024": 0.0,
			"0.025": 0.0
		}
	}
}
