{
	 "smiles": "OC1=CC2=C(C(O)=C1O)C(=O)C=C(O2)C1=CC=CC=C1", 
	 "Tm": 542.15, 
	 "num_atms": 30, 
	 "gaussian": { 
		 "optdone": 1, 
		 "sigma_profile": "yes", 
		 "theory": "DFT", 
		 "functional": "B3LYP", 
		 "basiset": "6-31G**", 
		 "properties": { 
			 "R2extent": 6858.8237, 
			 "electric_dipole_moment_norm": 5.59575088884, 
			 "electric_quadrupole_moment_norm": 6.25187672303, 
			 "total_energy": -953.742967053, 
			 "HOMO_LUMO_gap": 0.13419, 
			 "cosmo_polarized_energy": -17.56, 
			 "cosmo_cavitation_energy": 34.68, 
			 "cosmo_dispersion_energy": -26.18, 
			 "cosmo_repulsion_energy": 1.94, 
			 "cosmo_total_nonelectrostatic_energy": 10.44, 
			 "SMD_solvation_energy": 7.37 
		},
		"coords": [
			{
				"x": 2.0253016887,
				"y": -4.4734883792,
				"z": -0.7982701861,
				"element": "O" 
			},
			{
				"x": 1.2521298384,
				"y": -3.378218335,
				"z": -1.0126235063,
				"element": "C" 
			},
			{
				"x": 1.1507994575,
				"y": -2.3328044902,
				"z": -0.0844016746,
				"element": "C" 
			},
			{
				"x": 0.3358741525,
				"y": -1.2470878478,
				"z": -0.3827778004,
				"element": "C" 
			},
			{
				"x": -0.3818000919,
				"y": -1.1710495841,
				"z": -1.5853500906,
				"element": "C" 
			},
			{
				"x": -0.2662676503,
				"y": -2.2364511668,
				"z": -2.506432833,
				"element": "C" 
			},
			{
				"x": -0.9308357761,
				"y": -2.2298495594,
				"z": -3.680267462,
				"element": "O" 
			},
			{
				"x": 0.5447309125,
				"y": -3.3378387563,
				"z": -2.2293939901,
				"element": "C" 
			},
			{
				"x": 0.6577001319,
				"y": -4.3641753485,
				"z": -3.1151889763,
				"element": "O" 
			},
			{
				"x": -1.2301525872,
				"y": -0.0268155507,
				"z": -1.869284192,
				"element": "C" 
			},
			{
				"x": -1.8862217759,
				"y": 0.0627971054,
				"z": -2.9335383942,
				"element": "O" 
			},
			{
				"x": -1.2611884704,
				"y": 0.980489799,
				"z": -0.8296830039,
				"element": "C" 
			},
			{
				"x": -0.5257934101,
				"y": 0.8525612361,
				"z": 0.3099321847,
				"element": "C" 
			},
			{
				"x": 0.2592597643,
				"y": -0.2344015209,
				"z": 0.5421652429,
				"element": "O" 
			},
			{
				"x": -0.48427305,
				"y": 1.8191741777,
				"z": 1.4230916886,
				"element": "C" 
			},
			{
				"x": -0.871014479,
				"y": 3.1564718798,
				"z": 1.2284088229,
				"element": "C" 
			},
			{
				"x": -0.8471014615,
				"y": 4.0599842049,
				"z": 2.2872114458,
				"element": "C" 
			},
			{
				"x": -0.4319744206,
				"y": 3.6471443301,
				"z": 3.5556173505,
				"element": "C" 
			},
			{
				"x": -0.0360611529,
				"y": 2.3236177331,
				"z": 3.7563643291,
				"element": "C" 
			},
			{
				"x": -0.05828134,
				"y": 1.4155134026,
				"z": 2.7000958946,
				"element": "C" 
			},
			{
				"x": 2.4610282906,
				"y": -4.3909781126,
				"z": 0.0598516423,
				"element": "H" 
			},
			{
				"x": 1.6972772402,
				"y": -2.3614464481,
				"z": 0.8527696447,
				"element": "H" 
			},
			{
				"x": -1.4493683028,
				"y": -1.3734247561,
				"z": -3.6899119161,
				"element": "H" 
			},
			{
				"x": 0.0956165729,
				"y": -4.1364222769,
				"z": -3.8726195503,
				"element": "H" 
			},
			{
				"x": -1.9062400091,
				"y": 1.8370185436,
				"z": -0.9741561886,
				"element": "H" 
			},
			{
				"x": -1.1691441012,
				"y": 3.4968638851,
				"z": 0.2424431971,
				"element": "H" 
			},
			{
				"x": -1.1440011988,
				"y": 5.0908579706,
				"z": 2.1192456167,
				"element": "H" 
			},
			{
				"x": -0.4123899744,
				"y": 4.354080199,
				"z": 4.3797333504,
				"element": "H" 
			},
			{
				"x": 0.2893896791,
				"y": 1.9953762699,
				"z": 4.7390538736,
				"element": "H" 
			},
			{
				"x": 0.2462015233,
				"y": 0.387701396,
				"z": 2.8592154804,
				"element": "H" 
			}
		],
		 "valence_orbital": [ 
			{
				"type": "occ",
				"energy": -0.26868,
				"method": "rhf"
			},
			{
				"type": "occ",
				"energy": -0.25751,
				"method": "rhf"
			},
			{
				"type": "occ",
				"energy": -0.24873,
				"method": "rhf"
			},
			{
				"type": "occ",
				"energy": -0.23069,
				"method": "rhf"
			},
			{
				"type": "occ",
				"energy": -0.20463,
				"method": "rhf"
			},
			{
				"type": "unocc",
				"energy": -0.07044,
				"method": "rhf"
			},
			{
				"type": "unocc",
				"energy": -0.02566,
				"method": "rhf"
			},
			{
				"type": "unocc",
				"energy": -0.01708,
				"method": "rhf"
			},
			{
				"type": "unocc",
				"energy": 0.00928,
				"method": "rhf"
			},
			{
				"type": "unocc",
				"energy": 0.02453,
				"method": "rhf"
			}
		],
		"cosmo_sigma_profile": { 
			"-0.025": 0.0,
			"-0.024": 0.0,
			"-0.023": 0.0,
			"-0.022": 0.0,
			"-0.021": 0.0,
			"-0.02": 0.0,
			"-0.019": 0.402384933219,
			"-0.018": 1.07275925306,
			"-0.017": 1.53884121424,
			"-0.016": 0.999142975365,
			"-0.015": 1.45563578041,
			"-0.014": 1.58770433643,
			"-0.013": 1.19197283267,
			"-0.012": 1.24277938282,
			"-0.011": 2.39452769269,
			"-0.01": 2.02942324296,
			"-0.009": 2.10291162464,
			"-0.008": 3.89814093522,
			"-0.007": 6.88858001762,
			"-0.006": 12.8688171399,
			"-0.005": 14.7102419026,
			"-0.004": 14.1495418536,
			"-0.003": 13.5927895539,
			"-0.002": 17.3207297679,
			"-0.001": 21.8377606642,
			"0.0": 22.0373538098,
			"0.001": 32.9046796776,
			"0.002": 22.7347847799,
			"0.003": 20.0472834813,
			"0.004": 16.3498817755,
			"0.005": 6.09689424299,
			"0.006": 5.00214750499,
			"0.007": 5.6723067715,
			"0.008": 4.39498140664,
			"0.009": 4.26954293286,
			"0.01": 4.43007068788,
			"0.011": 4.55063641264,
			"0.012": 4.71593130318,
			"0.013": 3.39549623277,
			"0.014": 1.1545691809,
			"0.015": 0.0703973552615,
			"0.016": 0.0,
			"0.017": 0.0,
			"0.018": 0.0,
			"0.019": 0.0,
			"0.02": 0.0,
			"0.021": 0.0,
			"0.022": 0.0,
			"0.023": 0.0,
			"0.024": 0.0,
			"0.025": 0.0
		}
	}
}
