{
	 "smiles": "NCCNC1=NC=C(C=C1)C#N", 
	 "Tm": 377.15, 
	 "num_atms": 22, 
	 "gaussian": { 
		 "optdone": 1, 
		 "sigma_profile": "yes", 
		 "theory": "DFT", 
		 "functional": "B3LYP", 
		 "basiset": "6-31G**", 
		 "properties": { 
			 "R2extent": 3245.3173, 
			 "electric_dipole_moment_norm": 6.19492587526, 
			 "electric_quadrupole_moment_norm": 27.6534899655, 
			 "total_energy": -529.867742082, 
			 "HOMO_LUMO_gap": 0.18317, 
			 "cosmo_polarized_energy": -15.93, 
			 "cosmo_cavitation_energy": 27.05, 
			 "cosmo_dispersion_energy": -19.14, 
			 "cosmo_repulsion_energy": 1.55, 
			 "cosmo_total_nonelectrostatic_energy": 9.46, 
			 "SMD_solvation_energy": 3.2 
		},
		"coords": [
			{
				"x": 0.1681766027,
				"y": -2.7925934961,
				"z": 1.2836070874,
				"element": "N" 
			},
			{
				"x": -1.1658213909,
				"y": -2.2249035776,
				"z": 1.085151827,
				"element": "C" 
			},
			{
				"x": -1.26265779,
				"y": -0.863115212,
				"z": 1.7859488137,
				"element": "C" 
			},
			{
				"x": -0.3226607004,
				"y": 0.1229131897,
				"z": 1.2780681515,
				"element": "N" 
			},
			{
				"x": -0.4872004759,
				"y": 0.9283634482,
				"z": 0.1907766268,
				"element": "C" 
			},
			{
				"x": 0.5498648003,
				"y": 1.759435624,
				"z": -0.0618740089,
				"element": "N" 
			},
			{
				"x": 0.4598001818,
				"y": 2.5879612246,
				"z": -1.093930359,
				"element": "C" 
			},
			{
				"x": -0.6532096965,
				"y": 2.6589145772,
				"z": -1.9503456098,
				"element": "C" 
			},
			{
				"x": -1.7266914492,
				"y": 1.7861247953,
				"z": -1.6840960626,
				"element": "C" 
			},
			{
				"x": -1.6519956363,
				"y": 0.9126946414,
				"z": -0.6168444781,
				"element": "C" 
			},
			{
				"x": -0.6816779495,
				"y": 3.5751830961,
				"z": -3.0434793609,
				"element": "C" 
			},
			{
				"x": -0.7021589797,
				"y": 4.3237752623,
				"z": -3.9354034037,
				"element": "N" 
			},
			{
				"x": 0.2002001185,
				"y": -3.7447261216,
				"z": 0.9297753724,
				"element": "H" 
			},
			{
				"x": 0.8445715519,
				"y": -2.2632155198,
				"z": 0.7383093151,
				"element": "H" 
			},
			{
				"x": -1.4581928335,
				"y": -2.1101931061,
				"z": 0.0265652025,
				"element": "H" 
			},
			{
				"x": -1.9007936523,
				"y": -2.8945271154,
				"z": 1.5475291493,
				"element": "H" 
			},
			{
				"x": -2.2836732655,
				"y": -0.4702929686,
				"z": 1.7119333489,
				"element": "H" 
			},
			{
				"x": -1.0422527571,
				"y": -1.003469024,
				"z": 2.8478050364,
				"element": "H" 
			},
			{
				"x": 0.5572758579,
				"y": 0.2516575325,
				"z": 1.7564819562,
				"element": "H" 
			},
			{
				"x": 1.3133735793,
				"y": 3.2408870169,
				"z": -1.2652105803,
				"element": "H" 
			},
			{
				"x": -2.6057382317,
				"y": 1.8012292452,
				"z": -2.3204500765,
				"element": "H" 
			},
			{
				"x": -2.4675378839,
				"y": 0.2307964877,
				"z": -0.4095179472,
				"element": "H" 
			}
		],
		 "valence_orbital": [ 
			{
				"type": "occ",
				"energy": -0.30583,
				"method": "rhf"
			},
			{
				"type": "occ",
				"energy": -0.2986,
				"method": "rhf"
			},
			{
				"type": "occ",
				"energy": -0.27467,
				"method": "rhf"
			},
			{
				"type": "occ",
				"energy": -0.25202,
				"method": "rhf"
			},
			{
				"type": "occ",
				"energy": -0.22122,
				"method": "rhf"
			},
			{
				"type": "unocc",
				"energy": -0.03805,
				"method": "rhf"
			},
			{
				"type": "unocc",
				"energy": -0.0312,
				"method": "rhf"
			},
			{
				"type": "unocc",
				"energy": 0.04106,
				"method": "rhf"
			},
			{
				"type": "unocc",
				"energy": 0.06484,
				"method": "rhf"
			},
			{
				"type": "unocc",
				"energy": 0.07803,
				"method": "rhf"
			}
		],
		"cosmo_sigma_profile": { 
			"-0.025": 0.0,
			"-0.024": 0.0,
			"-0.023": 0.0,
			"-0.022": 0.0,
			"-0.021": 0.0,
			"-0.02": 0.0,
			"-0.019": 0.0,
			"-0.018": 0.0,
			"-0.017": 0.0,
			"-0.016": 0.0,
			"-0.015": 0.0,
			"-0.014": 0.0,
			"-0.013": 1.13472853627,
			"-0.012": 0.405796478414,
			"-0.011": 0.848022483325,
			"-0.01": 2.03920982675,
			"-0.009": 3.59533961832,
			"-0.008": 7.36447404887,
			"-0.007": 10.470073609,
			"-0.006": 13.6923830946,
			"-0.005": 12.6339734911,
			"-0.004": 15.4705934919,
			"-0.003": 16.3239266429,
			"-0.002": 16.0978380837,
			"-0.001": 16.1753255555,
			"0.0": 15.5136260705,
			"0.001": 14.868460159,
			"0.002": 12.2605652547,
			"0.003": 6.30281702809,
			"0.004": 5.16112527667,
			"0.005": 3.51847949608,
			"0.006": 4.35264976883,
			"0.007": 4.62024912761,
			"0.008": 4.46075339018,
			"0.009": 5.48093790759,
			"0.01": 5.05938747702,
			"0.011": 4.70066418308,
			"0.012": 4.57150221558,
			"0.013": 3.05197453253,
			"0.014": 1.6934540996,
			"0.015": 0.772337238733,
			"0.016": 0.701718126765,
			"0.017": 0.809466925025,
			"0.018": 0.239071897965,
			"0.019": 0.587125340187,
			"0.02": 0.102882366537,
			"0.021": 0.0,
			"0.022": 0.0,
			"0.023": 0.0,
			"0.024": 0.0,
			"0.025": 0.0
		}
	}
}
