{
	 "smiles": "ClCC1=CC(CCl)=CC=C1", 
	 "Tm": 308.25, 
	 "num_atms": 18, 
	 "gaussian": { 
		 "optdone": 1, 
		 "sigma_profile": "yes", 
		 "theory": "DFT", 
		 "functional": "B3LYP", 
		 "basiset": "6-31G**", 
		 "properties": { 
			 "R2extent": 2814.3525, 
			 "electric_dipole_moment_norm": 1.33598431503, 
			 "electric_quadrupole_moment_norm": 15.9926160521, 
			 "total_energy": -1230.06972547, 
			 "HOMO_LUMO_gap": 0.21839, 
			 "cosmo_polarized_energy": -8.97, 
			 "cosmo_cavitation_energy": 25.55, 
			 "cosmo_dispersion_energy": -18.52, 
			 "cosmo_repulsion_energy": 1.54, 
			 "cosmo_total_nonelectrostatic_energy": 8.57, 
			 "SMD_solvation_energy": 3.58 
		},
		"coords": [
			{
				"x": -1.5073454278,
				"y": -2.8328377035,
				"z": -1.3907296755,
				"element": "Cl" 
			},
			{
				"x": -1.5244205957,
				"y": -1.7317471193,
				"z": 0.0803575422,
				"element": "C" 
			},
			{
				"x": -0.42528197,
				"y": -0.712311682,
				"z": 0.0418011491,
				"element": "C" 
			},
			{
				"x": -0.6382319567,
				"y": 0.5354694074,
				"z": -0.5535706619,
				"element": "C" 
			},
			{
				"x": 0.3763768887,
				"y": 1.4974131422,
				"z": -0.5982829302,
				"element": "C" 
			},
			{
				"x": 0.130241435,
				"y": 2.8300264112,
				"z": -1.2404459986,
				"element": "C" 
			},
			{
				"x": -0.5021625234,
				"y": 4.0747585928,
				"z": -0.0455982324,
				"element": "Cl" 
			},
			{
				"x": 1.6229487865,
				"y": 1.1975834507,
				"z": -0.0338811693,
				"element": "C" 
			},
			{
				"x": 1.8470757385,
				"y": -0.0432127135,
				"z": 0.5612988085,
				"element": "C" 
			},
			{
				"x": 0.8285663773,
				"y": -0.99466904,
				"z": 0.5990564026,
				"element": "C" 
			},
			{
				"x": -1.4343900175,
				"y": -2.3970587105,
				"z": 0.939079107,
				"element": "H" 
			},
			{
				"x": -2.5114918668,
				"y": -1.2693771049,
				"z": 0.0828915377,
				"element": "H" 
			},
			{
				"x": -1.6089035845,
				"y": 0.7614876467,
				"z": -0.9890077756,
				"element": "H" 
			},
			{
				"x": 1.044043043,
				"y": 3.2614629709,
				"z": -1.6490735809,
				"element": "H" 
			},
			{
				"x": -0.6250147045,
				"y": 2.7732851541,
				"z": -2.0243250203,
				"element": "H" 
			},
			{
				"x": 2.4159052795,
				"y": 1.9402926431,
				"z": -0.0582766506,
				"element": "H" 
			},
			{
				"x": 2.8161411338,
				"y": -0.2688677943,
				"z": 0.9959910223,
				"element": "H" 
			},
			{
				"x": 1.0059439646,
				"y": -1.963297551,
				"z": 1.0587161257,
				"element": "H" 
			}
		],
		 "valence_orbital": [ 
			{
				"type": "occ",
				"energy": -0.29728,
				"method": "rhf"
			},
			{
				"type": "occ",
				"energy": -0.29708,
				"method": "rhf"
			},
			{
				"type": "occ",
				"energy": -0.29696,
				"method": "rhf"
			},
			{
				"type": "occ",
				"energy": -0.26463,
				"method": "rhf"
			},
			{
				"type": "occ",
				"energy": -0.26036,
				"method": "rhf"
			},
			{
				"type": "unocc",
				"energy": -0.04197,
				"method": "rhf"
			},
			{
				"type": "unocc",
				"energy": -0.03055,
				"method": "rhf"
			},
			{
				"type": "unocc",
				"energy": 0.02498,
				"method": "rhf"
			},
			{
				"type": "unocc",
				"energy": 0.04677,
				"method": "rhf"
			},
			{
				"type": "unocc",
				"energy": 0.08007,
				"method": "rhf"
			}
		],
		"cosmo_sigma_profile": { 
			"-0.025": 0.0,
			"-0.024": 0.0,
			"-0.023": 0.0,
			"-0.022": 0.0,
			"-0.021": 0.0,
			"-0.02": 0.0,
			"-0.019": 0.0,
			"-0.018": 0.0,
			"-0.017": 0.0,
			"-0.016": 0.0,
			"-0.015": 0.0,
			"-0.014": 0.0,
			"-0.013": 0.0,
			"-0.012": 0.0,
			"-0.011": 0.0,
			"-0.01": 0.0,
			"-0.009": 0.0,
			"-0.008": 4.98164013447,
			"-0.007": 16.9060567685,
			"-0.006": 16.7483517555,
			"-0.005": 14.7171289412,
			"-0.004": 14.4832422694,
			"-0.003": 9.90076619667,
			"-0.002": 8.51333510477,
			"-0.001": 7.0962580033,
			"0.0": 9.76345274359,
			"0.001": 11.0650028467,
			"0.002": 11.8783115512,
			"0.003": 14.9165502169,
			"0.004": 21.3301045296,
			"0.005": 12.5078835767,
			"0.006": 17.6428071484,
			"0.007": 15.3979545266,
			"0.008": 0.0292840906514,
			"0.009": 0.0,
			"0.01": 0.0,
			"0.011": 0.0,
			"0.012": 0.0,
			"0.013": 0.0,
			"0.014": 0.0,
			"0.015": 0.0,
			"0.016": 0.0,
			"0.017": 0.0,
			"0.018": 0.0,
			"0.019": 0.0,
			"0.02": 0.0,
			"0.021": 0.0,
			"0.022": 0.0,
			"0.023": 0.0,
			"0.024": 0.0,
			"0.025": 0.0
		}
	}
}
