{
	 "smiles": "CNC(=O)C1CCCCN1CC#C", 
	 "Tm": 390.15, 
	 "num_atms": 29, 
	 "gaussian": { 
		 "optdone": 1, 
		 "sigma_profile": "yes", 
		 "theory": "DFT", 
		 "functional": "B3LYP", 
		 "basiset": "6-31G**", 
		 "properties": { 
			 "R2extent": 2966.5922, 
			 "electric_dipole_moment_norm": 3.36807495314, 
			 "electric_quadrupole_moment_norm": 13.7941673808, 
			 "total_energy": -575.367331265, 
			 "HOMO_LUMO_gap": 0.25022, 
			 "cosmo_polarized_energy": -11.8, 
			 "cosmo_cavitation_energy": 30.91, 
			 "cosmo_dispersion_energy": -21.27, 
			 "cosmo_repulsion_energy": 1.7, 
			 "cosmo_total_nonelectrostatic_energy": 11.35, 
			 "SMD_solvation_energy": 6.05 
		},
		"coords": [
			{
				"x": -2.2025914059,
				"y": 1.6021792086,
				"z": 2.870597337,
				"element": "C" 
			},
			{
				"x": -1.564563446,
				"y": 0.7251836342,
				"z": 1.910562421,
				"element": "N" 
			},
			{
				"x": -2.2108636953,
				"y": 0.2245986172,
				"z": 0.8272314158,
				"element": "C" 
			},
			{
				"x": -3.3803965011,
				"y": 0.4598889179,
				"z": 0.5362302649,
				"element": "O" 
			},
			{
				"x": -1.3671650121,
				"y": -0.7357114432,
				"z": -0.036127207,
				"element": "C" 
			},
			{
				"x": -1.8893946245,
				"y": -2.171113179,
				"z": 0.1405115656,
				"element": "C" 
			},
			{
				"x": -1.1917990256,
				"y": -3.1492930171,
				"z": -0.8253320596,
				"element": "C" 
			},
			{
				"x": 0.3115851901,
				"y": -2.808175856,
				"z": -0.9901091173,
				"element": "C" 
			},
			{
				"x": 0.7951198127,
				"y": -1.9393154413,
				"z": 0.1783709866,
				"element": "C" 
			},
			{
				"x": 0.0765773409,
				"y": -0.649475157,
				"z": 0.2725695535,
				"element": "N" 
			},
			{
				"x": 0.7069467228,
				"y": 0.4269699588,
				"z": -0.5093782572,
				"element": "C" 
			},
			{
				"x": 2.0371384023,
				"y": 0.7924299499,
				"z": -0.0148709787,
				"element": "C" 
			},
			{
				"x": 3.13747079,
				"y": 1.1002180945,
				"z": 0.3758780417,
				"element": "C" 
			},
			{
				"x": -3.2118120123,
				"y": 1.8060531311,
				"z": 2.5089775357,
				"element": "H" 
			},
			{
				"x": -1.6573543957,
				"y": 2.5476972436,
				"z": 2.9682434671,
				"element": "H" 
			},
			{
				"x": -2.2679804388,
				"y": 1.1346762434,
				"z": 3.8603666163,
				"element": "H" 
			},
			{
				"x": -0.6024652171,
				"y": 0.4236258377,
				"z": 2.0166272913,
				"element": "H" 
			},
			{
				"x": -1.5695897224,
				"y": -0.4391286444,
				"z": -1.0795801855,
				"element": "H" 
			},
			{
				"x": -1.7269777264,
				"y": -2.4767419062,
				"z": 1.1813582756,
				"element": "H" 
			},
			{
				"x": -2.9702415293,
				"y": -2.1586658734,
				"z": -0.0189603769,
				"element": "H" 
			},
			{
				"x": -1.3140035186,
				"y": -4.1707571629,
				"z": -0.4484479778,
				"element": "H" 
			},
			{
				"x": -1.6888284705,
				"y": -3.118777891,
				"z": -1.80151956,
				"element": "H" 
			},
			{
				"x": 0.4763670287,
				"y": -2.2653140676,
				"z": -1.9291234041,
				"element": "H" 
			},
			{
				"x": 0.9181993713,
				"y": -3.718301709,
				"z": -1.0544150269,
				"element": "H" 
			},
			{
				"x": 0.6646957424,
				"y": -2.4833251061,
				"z": 1.12162803,
				"element": "H" 
			},
			{
				"x": 1.8626528535,
				"y": -1.718375278,
				"z": 0.0976796385,
				"element": "H" 
			},
			{
				"x": 0.7770854157,
				"y": 0.1778249204,
				"z": -1.5851435992,
				"element": "H" 
			},
			{
				"x": 0.0559652422,
				"y": 1.3069230939,
				"z": -0.4435745332,
				"element": "H" 
			},
			{
				"x": 4.1046228289,
				"y": 1.3769028808,
				"z": 0.7270498429,
				"element": "H" 
			}
		],
		 "valence_orbital": [ 
			{
				"type": "occ",
				"energy": -0.27795,
				"method": "rhf"
			},
			{
				"type": "occ",
				"energy": -0.27265,
				"method": "rhf"
			},
			{
				"type": "occ",
				"energy": -0.2475,
				"method": "rhf"
			},
			{
				"type": "occ",
				"energy": -0.24016,
				"method": "rhf"
			},
			{
				"type": "occ",
				"energy": -0.21812,
				"method": "rhf"
			},
			{
				"type": "unocc",
				"energy": 0.0321,
				"method": "rhf"
			},
			{
				"type": "unocc",
				"energy": 0.03775,
				"method": "rhf"
			},
			{
				"type": "unocc",
				"energy": 0.05311,
				"method": "rhf"
			},
			{
				"type": "unocc",
				"energy": 0.07834,
				"method": "rhf"
			},
			{
				"type": "unocc",
				"energy": 0.09854,
				"method": "rhf"
			}
		],
		"cosmo_sigma_profile": { 
			"-0.025": 0.0,
			"-0.024": 0.0,
			"-0.023": 0.0,
			"-0.022": 0.0,
			"-0.021": 0.0,
			"-0.02": 0.0,
			"-0.019": 0.0,
			"-0.018": 0.0,
			"-0.017": 0.0,
			"-0.016": 0.0,
			"-0.015": 0.0,
			"-0.014": 0.0,
			"-0.013": 0.0,
			"-0.012": 0.465021473144,
			"-0.011": 1.37395390445,
			"-0.01": 1.1474800034,
			"-0.009": 1.69593437102,
			"-0.008": 2.21250948604,
			"-0.007": 2.25495534761,
			"-0.006": 3.48556068233,
			"-0.005": 11.630192261,
			"-0.004": 21.5450795131,
			"-0.003": 29.7960063335,
			"-0.002": 37.8482346224,
			"-0.001": 29.5401179529,
			"0.0": 20.746618604,
			"0.001": 14.5199091672,
			"0.002": 8.71409833539,
			"0.003": 7.31871155773,
			"0.004": 6.81790161625,
			"0.005": 7.57987678534,
			"0.006": 8.39467653203,
			"0.007": 7.21655346424,
			"0.008": 2.08769256418,
			"0.009": 1.08222122068,
			"0.01": 1.65456296933,
			"0.011": 0.988453391212,
			"0.012": 1.36934524671,
			"0.013": 2.34476969176,
			"0.014": 4.2316765002,
			"0.015": 3.64476492452,
			"0.016": 0.404267607487,
			"0.017": 0.0,
			"0.018": 0.0,
			"0.019": 0.0,
			"0.02": 0.0,
			"0.021": 0.0,
			"0.022": 0.0,
			"0.023": 0.0,
			"0.024": 0.0,
			"0.025": 0.0
		}
	}
}
