{
	 "smiles": "CC(C)CCC[C@@H](C)[C@H]1CC[C@H]2[C@@H]3CC=C4C[C@@H](Cl)CC[C@]4(C)[C@H]3CC[C@]12C", 
	 "Tm": 370.15, 
	 "num_atms": 73, 
	 "gaussian": { 
		 "optdone": 1, 
		 "sigma_profile": "yes", 
		 "theory": "DFT", 
		 "functional": "B3LYP", 
		 "basiset": "6-31G**", 
		 "properties": { 
			 "R2extent": 22937.8105, 
			 "electric_dipole_moment_norm": 3.03966390576, 
			 "electric_quadrupole_moment_norm": 34.2519684326, 
			 "total_energy": -1516.23268534, 
			 "HOMO_LUMO_gap": 0.24541, 
			 "cosmo_polarized_energy": -5.17, 
			 "cosmo_cavitation_energy": 63.17, 
			 "cosmo_dispersion_energy": -43.25, 
			 "cosmo_repulsion_energy": 3.2, 
			 "cosmo_total_nonelectrostatic_energy": 23.11, 
			 "SMD_solvation_energy": 8.1 
		},
		"coords": [
			{
				"x": -6.8382446229,
				"y": 4.1941335456,
				"z": -0.8701244502,
				"element": "C" 
			},
			{
				"x": -5.7665665696,
				"y": 4.0435093849,
				"z": 0.2199088152,
				"element": "C" 
			},
			{
				"x": -6.4221487117,
				"y": 3.8434537047,
				"z": 1.5951148844,
				"element": "C" 
			},
			{
				"x": -4.7863287986,
				"y": 2.9074425463,
				"z": -0.138263611,
				"element": "C" 
			},
			{
				"x": -3.5753218465,
				"y": 2.7868009651,
				"z": 0.7990044616,
				"element": "C" 
			},
			{
				"x": -2.4440274843,
				"y": 1.8436460021,
				"z": 0.3430966607,
				"element": "C" 
			},
			{
				"x": -2.7926575529,
				"y": 0.3302711742,
				"z": 0.2846923179,
				"element": "C" 
			},
			{
				"x": -3.3469672376,
				"y": -0.0745717032,
				"z": -1.095265672,
				"element": "C" 
			},
			{
				"x": -1.6458642418,
				"y": -0.5584564699,
				"z": 0.8510901954,
				"element": "C" 
			},
			{
				"x": -2.0666429903,
				"y": -2.0368464488,
				"z": 1.116927972,
				"element": "C" 
			},
			{
				"x": -0.7509369895,
				"y": -2.8657820846,
				"z": 1.1786458009,
				"element": "C" 
			},
			{
				"x": 0.3594250357,
				"y": -1.8025172753,
				"z": 1.0965723659,
				"element": "C" 
			},
			{
				"x": 1.7882195337,
				"y": -2.2408490405,
				"z": 0.751861948,
				"element": "C" 
			},
			{
				"x": 2.3017997343,
				"y": -3.2808841908,
				"z": 1.7606404923,
				"element": "C" 
			},
			{
				"x": 3.7915759407,
				"y": -3.4614655157,
				"z": 1.714444932,
				"element": "C" 
			},
			{
				"x": 4.645317639,
				"y": -2.6474337508,
				"z": 1.0811175296,
				"element": "C" 
			},
			{
				"x": 6.1308528884,
				"y": -2.966716639,
				"z": 1.0659184678,
				"element": "C" 
			},
			{
				"x": 6.9535685313,
				"y": -1.7680383663,
				"z": 1.5393450181,
				"element": "C" 
			},
			{
				"x": 8.745106225,
				"y": -2.1616876385,
				"z": 1.4578315526,
				"element": "Cl" 
			},
			{
				"x": 6.6437730288,
				"y": -0.5272617579,
				"z": 0.7120491185,
				"element": "C" 
			},
			{
				"x": 5.1399600117,
				"y": -0.2112070621,
				"z": 0.787427721,
				"element": "C" 
			},
			{
				"x": 4.2017363836,
				"y": -1.3758254709,
				"z": 0.3455153157,
				"element": "C" 
			},
			{
				"x": 4.3422849877,
				"y": -1.6054088601,
				"z": -1.1817440753,
				"element": "C" 
			},
			{
				"x": 2.7296753235,
				"y": -1.0067660409,
				"z": 0.7427221949,
				"element": "C" 
			},
			{
				"x": 2.1469977167,
				"y": 0.1687358851,
				"z": -0.0774204524,
				"element": "C" 
			},
			{
				"x": 0.6924631901,
				"y": 0.5264596156,
				"z": 0.2897925513,
				"element": "C" 
			},
			{
				"x": -0.2370886746,
				"y": -0.6963659466,
				"z": 0.1794037986,
				"element": "C" 
			},
			{
				"x": -0.3316146889,
				"y": -1.1592684017,
				"z": -1.2926918646,
				"element": "C" 
			},
			{
				"x": -7.4461560942,
				"y": 3.2843490682,
				"z": -0.949982818,
				"element": "H" 
			},
			{
				"x": -6.3879977198,
				"y": 4.3792577321,
				"z": -1.8516585007,
				"element": "H" 
			},
			{
				"x": -7.51638925,
				"y": 5.0258877468,
				"z": -0.6499248396,
				"element": "H" 
			},
			{
				"x": -5.189031246,
				"y": 4.9801099473,
				"z": 0.2549070513,
				"element": "H" 
			},
			{
				"x": -7.1217785272,
				"y": 4.6566051531,
				"z": 1.8175291076,
				"element": "H" 
			},
			{
				"x": -5.6851015085,
				"y": 3.813240224,
				"z": 2.4032551805,
				"element": "H" 
			},
			{
				"x": -6.9878545134,
				"y": 2.9035265357,
				"z": 1.6234572818,
				"element": "H" 
			},
			{
				"x": -4.4255232219,
				"y": 3.0708842899,
				"z": -1.1636183515,
				"element": "H" 
			},
			{
				"x": -5.3454095404,
				"y": 1.9618427954,
				"z": -0.1579377173,
				"element": "H" 
			},
			{
				"x": -3.9081196176,
				"y": 2.4707574634,
				"z": 1.7965715555,
				"element": "H" 
			},
			{
				"x": -3.1423995972,
				"y": 3.7888319999,
				"z": 0.9310895242,
				"element": "H" 
			},
			{
				"x": -1.6152136796,
				"y": 1.9880053242,
				"z": 1.0453319019,
				"element": "H" 
			},
			{
				"x": -2.0677892278,
				"y": 2.1749630751,
				"z": -0.6351013459,
				"element": "H" 
			},
			{
				"x": -3.6134856624,
				"y": 0.1718416928,
				"z": 1.0028161833,
				"element": "H" 
			},
			{
				"x": -2.6634615331,
				"y": 0.1929313754,
				"z": -1.9050874491,
				"element": "H" 
			},
			{
				"x": -3.5411562167,
				"y": -1.1491541898,
				"z": -1.1650141749,
				"element": "H" 
			},
			{
				"x": -4.2931421369,
				"y": 0.4354386619,
				"z": -1.2928903222,
				"element": "H" 
			},
			{
				"x": -1.4333817115,
				"y": -0.1196224648,
				"z": 1.8376113492,
				"element": "H" 
			},
			{
				"x": -2.7223353569,
				"y": -2.4128096273,
				"z": 0.3255425235,
				"element": "H" 
			},
			{
				"x": -2.6401587222,
				"y": -2.1072888134,
				"z": 2.0471932922,
				"element": "H" 
			},
			{
				"x": -0.6842958563,
				"y": -3.5606284462,
				"z": 0.3328658666,
				"element": "H" 
			},
			{
				"x": -0.6821650591,
				"y": -3.4707207054,
				"z": 2.0878989665,
				"element": "H" 
			},
			{
				"x": 0.426412453,
				"y": -1.3434314876,
				"z": 2.0971389053,
				"element": "H" 
			},
			{
				"x": 1.7977295943,
				"y": -2.7078965023,
				"z": -0.2425517565,
				"element": "H" 
			},
			{
				"x": 2.0057818498,
				"y": -2.9836563436,
				"z": 2.7802986279,
				"element": "H" 
			},
			{
				"x": 1.8103372586,
				"y": -4.2477086232,
				"z": 1.589335206,
				"element": "H" 
			},
			{
				"x": 4.1907634893,
				"y": -4.3302759122,
				"z": 2.238219038,
				"element": "H" 
			},
			{
				"x": 6.3348141041,
				"y": -3.8384681294,
				"z": 1.6939995655,
				"element": "H" 
			},
			{
				"x": 6.462730527,
				"y": -3.2228463353,
				"z": 0.0508597788,
				"element": "H" 
			},
			{
				"x": 6.7653944344,
				"y": -1.5764861804,
				"z": 2.5992807012,
				"element": "H" 
			},
			{
				"x": 7.2225836911,
				"y": 0.3260881774,
				"z": 1.0797956316,
				"element": "H" 
			},
			{
				"x": 6.9567966841,
				"y": -0.6997491094,
				"z": -0.3239323173,
				"element": "H" 
			},
			{
				"x": 4.9379071808,
				"y": 0.6771272749,
				"z": 0.1794181432,
				"element": "H" 
			},
			{
				"x": 4.8929019845,
				"y": 0.0573669096,
				"z": 1.8234240643,
				"element": "H" 
			},
			{
				"x": 3.61019167,
				"y": -2.3348727417,
				"z": -1.5406915671,
				"element": "H" 
			},
			{
				"x": 5.3314145574,
				"y": -1.9905528457,
				"z": -1.4420513047,
				"element": "H" 
			},
			{
				"x": 4.2020449821,
				"y": -0.6762402072,
				"z": -1.7422114742,
				"element": "H" 
			},
			{
				"x": 2.7783071638,
				"y": -0.6681454446,
				"z": 1.7906202639,
				"element": "H" 
			},
			{
				"x": 2.7711107897,
				"y": 1.0588252227,
				"z": 0.0604788004,
				"element": "H" 
			},
			{
				"x": 2.1906037111,
				"y": -0.0649109082,
				"z": -1.146135255,
				"element": "H" 
			},
			{
				"x": 0.3529242264,
				"y": 1.3447453104,
				"z": -0.3560459693,
				"element": "H" 
			},
			{
				"x": 0.6614349955,
				"y": 0.9069296823,
				"z": 1.3206620988,
				"element": "H" 
			},
			{
				"x": 0.6143173787,
				"y": -1.5685691699,
				"z": -1.655806905,
				"element": "H" 
			},
			{
				"x": -1.0917052854,
				"y": -1.9309133478,
				"z": -1.4380952157,
				"element": "H" 
			},
			{
				"x": -0.5864972028,
				"y": -0.320308287,
				"z": -1.9463773137,
				"element": "H" 
			}
		],
		 "valence_orbital": [ 
			{
				"type": "occ",
				"energy": -0.28671,
				"method": "rhf"
			},
			{
				"type": "occ",
				"energy": -0.28414,
				"method": "rhf"
			},
			{
				"type": "occ",
				"energy": -0.27867,
				"method": "rhf"
			},
			{
				"type": "occ",
				"energy": -0.2659,
				"method": "rhf"
			},
			{
				"type": "occ",
				"energy": -0.23567,
				"method": "rhf"
			},
			{
				"type": "unocc",
				"energy": 0.00974,
				"method": "rhf"
			},
			{
				"type": "unocc",
				"energy": 0.04412,
				"method": "rhf"
			},
			{
				"type": "unocc",
				"energy": 0.06708,
				"method": "rhf"
			},
			{
				"type": "unocc",
				"energy": 0.07911,
				"method": "rhf"
			},
			{
				"type": "unocc",
				"energy": 0.08646,
				"method": "rhf"
			}
		],
		"cosmo_sigma_profile": { 
			"-0.025": 0.0,
			"-0.024": 0.0,
			"-0.023": 0.0,
			"-0.022": 0.0,
			"-0.021": 0.0,
			"-0.02": 0.0,
			"-0.019": 0.0,
			"-0.018": 0.0,
			"-0.017": 0.0,
			"-0.016": 0.0,
			"-0.015": 0.0,
			"-0.014": 0.0,
			"-0.013": 0.0,
			"-0.012": 0.0,
			"-0.011": 0.0,
			"-0.01": 0.0,
			"-0.009": 0.0,
			"-0.008": 0.0,
			"-0.007": 0.0,
			"-0.006": 1.48642714222,
			"-0.005": 3.99921830064,
			"-0.004": 10.9877206429,
			"-0.003": 28.4294946296,
			"-0.002": 63.9394787843,
			"-0.001": 108.178386385,
			"0.0": 102.479850584,
			"0.001": 73.4818962354,
			"0.002": 45.9631820334,
			"0.003": 11.7208163169,
			"0.004": 7.01682365942,
			"0.005": 8.10231004787,
			"0.006": 7.03805256311,
			"0.007": 10.6083992393,
			"0.008": 0.991682062827,
			"0.009": 0.0,
			"0.01": 0.0,
			"0.011": 0.0,
			"0.012": 0.0,
			"0.013": 0.0,
			"0.014": 0.0,
			"0.015": 0.0,
			"0.016": 0.0,
			"0.017": 0.0,
			"0.018": 0.0,
			"0.019": 0.0,
			"0.02": 0.0,
			"0.021": 0.0,
			"0.022": 0.0,
			"0.023": 0.0,
			"0.024": 0.0,
			"0.025": 0.0
		}
	}
}
