{
	 "smiles": "NC1=NCC(O1)C1=CC=CC=C1", 
	 "Tm": 409.15, 
	 "num_atms": 22, 
	 "gaussian": { 
		 "optdone": 1, 
		 "sigma_profile": "yes", 
		 "theory": "DFT", 
		 "functional": "B3LYP", 
		 "basiset": "6-31G**", 
		 "properties": { 
			 "R2extent": 2402.5956, 
			 "electric_dipole_moment_norm": 1.53889582818, 
			 "electric_quadrupole_moment_norm": 14.0439576488, 
			 "total_energy": -533.707125554, 
			 "HOMO_LUMO_gap": 0.21734, 
			 "cosmo_polarized_energy": -12.01, 
			 "cosmo_cavitation_energy": 25.73, 
			 "cosmo_dispersion_energy": -19.0, 
			 "cosmo_repulsion_energy": 1.54, 
			 "cosmo_total_nonelectrostatic_energy": 8.26, 
			 "SMD_solvation_energy": 0.79 
		},
		"coords": [
			{
				"x": 3.0547382185,
				"y": -1.4521330874,
				"z": -0.3530952131,
				"element": "N" 
			},
			{
				"x": 1.8886723416,
				"y": -1.0499878512,
				"z": -0.9498625785,
				"element": "C" 
			},
			{
				"x": 1.2529437573,
				"y": -1.6532846412,
				"z": -1.87956098,
				"element": "N" 
			},
			{
				"x": 0.0018441442,
				"y": -0.9124158699,
				"z": -2.0437552758,
				"element": "C" 
			},
			{
				"x": 0.19384436,
				"y": 0.4008296983,
				"z": -1.2158554897,
				"element": "C" 
			},
			{
				"x": 1.3661111663,
				"y": 0.0968466056,
				"z": -0.4128809206,
				"element": "O" 
			},
			{
				"x": -0.9721025126,
				"y": 0.7998286404,
				"z": -0.3476628275,
				"element": "C" 
			},
			{
				"x": -1.8818410473,
				"y": 1.7592616758,
				"z": -0.8069389959,
				"element": "C" 
			},
			{
				"x": -3.0051567216,
				"y": 2.09448444,
				"z": -0.0491818912,
				"element": "C" 
			},
			{
				"x": -3.2237114617,
				"y": 1.4805261423,
				"z": 1.1847720188,
				"element": "C" 
			},
			{
				"x": -2.3137003367,
				"y": 0.5302052305,
				"z": 1.6545625889,
				"element": "C" 
			},
			{
				"x": -1.1967258456,
				"y": 0.1886995374,
				"z": 0.8928059701,
				"element": "C" 
			},
			{
				"x": 3.5470135629,
				"y": -2.1705537367,
				"z": -0.8633993438,
				"element": "H" 
			},
			{
				"x": 3.6339555632,
				"y": -0.7098359225,
				"z": 0.0120825073,
				"element": "H" 
			},
			{
				"x": -0.1968264729,
				"y": -0.6942475736,
				"z": -3.0985025696,
				"element": "H" 
			},
			{
				"x": -0.8466117918,
				"y": -1.4976061963,
				"z": -1.6643285388,
				"element": "H" 
			},
			{
				"x": 0.4634297139,
				"y": 1.2344283479,
				"z": -1.8765546232,
				"element": "H" 
			},
			{
				"x": -1.7088791162,
				"y": 2.2493877264,
				"z": -1.7623875836,
				"element": "H" 
			},
			{
				"x": -3.7027405595,
				"y": 2.8406731437,
				"z": -0.4189284643,
				"element": "H" 
			},
			{
				"x": -4.0932096715,
				"y": 1.7448004393,
				"z": 1.7797326215,
				"element": "H" 
			},
			{
				"x": -2.4733304176,
				"y": 0.0548909583,
				"z": 2.6183806543,
				"element": "H" 
			},
			{
				"x": -0.483016873,
				"y": -0.5400977072,
				"z": 1.2635589347,
				"element": "H" 
			}
		],
		 "valence_orbital": [ 
			{
				"type": "occ",
				"energy": -0.28742,
				"method": "rhf"
			},
			{
				"type": "occ",
				"energy": -0.27112,
				"method": "rhf"
			},
			{
				"type": "occ",
				"energy": -0.25044,
				"method": "rhf"
			},
			{
				"type": "occ",
				"energy": -0.23751,
				"method": "rhf"
			},
			{
				"type": "occ",
				"energy": -0.22264,
				"method": "rhf"
			},
			{
				"type": "unocc",
				"energy": -0.0053,
				"method": "rhf"
			},
			{
				"type": "unocc",
				"energy": -0.00201,
				"method": "rhf"
			},
			{
				"type": "unocc",
				"energy": 0.05607,
				"method": "rhf"
			},
			{
				"type": "unocc",
				"energy": 0.08231,
				"method": "rhf"
			},
			{
				"type": "unocc",
				"energy": 0.09452,
				"method": "rhf"
			}
		],
		"cosmo_sigma_profile": { 
			"-0.025": 0.0,
			"-0.024": 0.0,
			"-0.023": 0.0,
			"-0.022": 0.0,
			"-0.021": 0.0,
			"-0.02": 0.0,
			"-0.019": 0.0,
			"-0.018": 0.0,
			"-0.017": 0.0,
			"-0.016": 0.0,
			"-0.015": 0.0221250500815,
			"-0.014": 1.23587551375,
			"-0.013": 2.88667151735,
			"-0.012": 1.87834616716,
			"-0.011": 1.98166674882,
			"-0.01": 2.0237248731,
			"-0.009": 1.90226951347,
			"-0.008": 1.8529956843,
			"-0.007": 2.23396518685,
			"-0.006": 9.93212019538,
			"-0.005": 15.8314616048,
			"-0.004": 17.1992646634,
			"-0.003": 18.1429915564,
			"-0.002": 15.3328733187,
			"-0.001": 13.8071375137,
			"0.0": 10.7279175915,
			"0.001": 9.82809254357,
			"0.002": 10.0937187546,
			"0.003": 10.3538486615,
			"0.004": 12.33027701,
			"0.005": 13.1587272708,
			"0.006": 9.58928764117,
			"0.007": 4.23951215564,
			"0.008": 2.00941868258,
			"0.009": 3.4086932537,
			"0.01": 2.53652169557,
			"0.011": 1.50333223451,
			"0.012": 1.63898941465,
			"0.013": 1.56320252211,
			"0.014": 0.679416002026,
			"0.015": 0.921220354798,
			"0.016": 1.32223714591,
			"0.017": 1.21416555989,
			"0.018": 0.640226753483,
			"0.019": 0.0854084676954,
			"0.02": 0.0,
			"0.021": 0.0,
			"0.022": 0.0,
			"0.023": 0.0,
			"0.024": 0.0,
			"0.025": 0.0
		}
	}
}
