{
	 "smiles": "CC1=CC(=O)N2N=C(CCl)SC2=N1", 
	 "Tm": 457.15, 
	 "num_atms": 19, 
	 "gaussian": { 
		 "optdone": 1, 
		 "sigma_profile": "yes", 
		 "theory": "DFT", 
		 "functional": "B3LYP", 
		 "basiset": "6-31G**", 
		 "properties": { 
			 "R2extent": 5546.9742, 
			 "electric_dipole_moment_norm": 2.98113817862, 
			 "electric_quadrupole_moment_norm": 19.882462646, 
			 "total_energy": -1368.19859528, 
			 "HOMO_LUMO_gap": 0.1662, 
			 "cosmo_polarized_energy": -14.38, 
			 "cosmo_cavitation_energy": 27.49, 
			 "cosmo_dispersion_energy": -20.96, 
			 "cosmo_repulsion_energy": 1.63, 
			 "cosmo_total_nonelectrostatic_energy": 8.16, 
			 "SMD_solvation_energy": 2.62 
		},
		"coords": [
			{
				"x": 0.8973954727,
				"y": -1.5807456547,
				"z": 1.6432863758,
				"element": "C" 
			},
			{
				"x": 1.0255937872,
				"y": -0.722484745,
				"z": 0.4169097076,
				"element": "C" 
			},
			{
				"x": 2.2264577553,
				"y": -0.2025884724,
				"z": 0.0074875274,
				"element": "C" 
			},
			{
				"x": 2.3680218453,
				"y": 0.6247906128,
				"z": -1.1687131811,
				"element": "C" 
			},
			{
				"x": 3.3679168214,
				"y": 1.1402369822,
				"z": -1.6243737105,
				"element": "O" 
			},
			{
				"x": 1.080272495,
				"y": 0.8023066337,
				"z": -1.8189669725,
				"element": "N" 
			},
			{
				"x": 0.9670262749,
				"y": 1.5455192315,
				"z": -2.9569214629,
				"element": "N" 
			},
			{
				"x": -0.2590671368,
				"y": 1.5758201408,
				"z": -3.3590542164,
				"element": "C" 
			},
			{
				"x": -0.6512031973,
				"y": 2.3636777506,
				"z": -4.5640091088,
				"element": "C" 
			},
			{
				"x": -1.3571561201,
				"y": 1.3196091932,
				"z": -5.8702095933,
				"element": "Cl" 
			},
			{
				"x": -1.417661377,
				"y": 0.6711492981,
				"z": -2.3747665893,
				"element": "S" 
			},
			{
				"x": -0.0729504533,
				"y": 0.2322280739,
				"z": -1.3180448592,
				"element": "C" 
			},
			{
				"x": -0.159698667,
				"y": -0.502860894,
				"z": -0.2577738583,
				"element": "N" 
			},
			{
				"x": 0.1942203377,
				"y": -1.1238578809,
				"z": 2.3477214936,
				"element": "H" 
			},
			{
				"x": 0.4855282616,
				"y": -2.5589601592,
				"z": 1.373286875,
				"element": "H" 
			},
			{
				"x": 1.8585542677,
				"y": -1.7235377892,
				"z": 2.1407251136,
				"element": "H" 
			},
			{
				"x": 3.1377942602,
				"y": -0.393692286,
				"z": 0.560900798,
				"element": "H" 
			},
			{
				"x": -1.4090885575,
				"y": 3.1117539928,
				"z": -4.3260323724,
				"element": "H" 
			},
			{
				"x": 0.2395439301,
				"y": 2.8465359718,
				"z": -4.9643519664,
				"element": "H" 
			}
		],
		 "valence_orbital": [ 
			{
				"type": "occ",
				"energy": -0.3159,
				"method": "rhf"
			},
			{
				"type": "occ",
				"energy": -0.2937,
				"method": "rhf"
			},
			{
				"type": "occ",
				"energy": -0.29299,
				"method": "rhf"
			},
			{
				"type": "occ",
				"energy": -0.26904,
				"method": "rhf"
			},
			{
				"type": "occ",
				"energy": -0.23889,
				"method": "rhf"
			},
			{
				"type": "unocc",
				"energy": -0.07269,
				"method": "rhf"
			},
			{
				"type": "unocc",
				"energy": -0.03443,
				"method": "rhf"
			},
			{
				"type": "unocc",
				"energy": -0.02584,
				"method": "rhf"
			},
			{
				"type": "unocc",
				"energy": -0.01104,
				"method": "rhf"
			},
			{
				"type": "unocc",
				"energy": 0.0178,
				"method": "rhf"
			}
		],
		"cosmo_sigma_profile": { 
			"-0.025": 0.0,
			"-0.024": 0.0,
			"-0.023": 0.0,
			"-0.022": 0.0,
			"-0.021": 0.0,
			"-0.02": 0.0,
			"-0.019": 0.0,
			"-0.018": 0.0,
			"-0.017": 0.0,
			"-0.016": 0.0,
			"-0.015": 0.0,
			"-0.014": 0.0,
			"-0.013": 0.0,
			"-0.012": 0.0,
			"-0.011": 0.740194614596,
			"-0.01": 4.47138284819,
			"-0.009": 4.1621724314,
			"-0.008": 4.94878985082,
			"-0.007": 8.76441251471,
			"-0.006": 10.4044146802,
			"-0.005": 13.5144534183,
			"-0.004": 14.1015688743,
			"-0.003": 16.5046701077,
			"-0.002": 20.8127085476,
			"-0.001": 23.3972067161,
			"0.0": 17.8603494072,
			"0.001": 14.5740875844,
			"0.002": 9.5443304743,
			"0.003": 8.56524801026,
			"0.004": 9.56587791136,
			"0.005": 11.0974310507,
			"0.006": 3.22126895728,
			"0.007": 3.47229068432,
			"0.008": 2.31684734787,
			"0.009": 2.75599403201,
			"0.01": 2.18918260995,
			"0.011": 3.81202987748,
			"0.012": 6.26077588611,
			"0.013": 5.558982256,
			"0.014": 2.16213970112,
			"0.015": 0.521242450778,
			"0.016": 0.0,
			"0.017": 0.0,
			"0.018": 0.0,
			"0.019": 0.0,
			"0.02": 0.0,
			"0.021": 0.0,
			"0.022": 0.0,
			"0.023": 0.0,
			"0.024": 0.0,
			"0.025": 0.0
		}
	}
}
