{
	 "smiles": "OCC(O)C(O)C(OC1OC(CO)C(O)C(O)C1O)C(=O)CO", 
	 "Tm": 441.15, 
	 "num_atms": 45, 
	 "gaussian": { 
		 "optdone": 1, 
		 "sigma_profile": "yes", 
		 "theory": "DFT", 
		 "functional": "B3LYP", 
		 "basiset": "6-31G**", 
		 "properties": { 
			 "R2extent": 8341.3553, 
			 "electric_dipole_moment_norm": 3.07226900027, 
			 "electric_quadrupole_moment_norm": 23.9433352211, 
			 "total_energy": -1297.90849124, 
			 "HOMO_LUMO_gap": 0.2119, 
			 "cosmo_polarized_energy": -32.89, 
			 "cosmo_cavitation_energy": 45.19, 
			 "cosmo_dispersion_energy": -30.18, 
			 "cosmo_repulsion_energy": 2.34, 
			 "cosmo_total_nonelectrostatic_energy": 17.34, 
			 "SMD_solvation_energy": 7.62 
		},
		"coords": [
			{
				"x": 1.9208518536,
				"y": 3.738108829,
				"z": 1.9606761133,
				"element": "O" 
			},
			{
				"x": 1.5414287932,
				"y": 2.7751019947,
				"z": 0.9650431508,
				"element": "C" 
			},
			{
				"x": 1.8238799441,
				"y": 3.36117836,
				"z": -0.4258046871,
				"element": "C" 
			},
			{
				"x": 1.339654802,
				"y": 4.7043752552,
				"z": -0.4495678218,
				"element": "O" 
			},
			{
				"x": 1.1157574861,
				"y": 2.6844882839,
				"z": -1.6146377657,
				"element": "C" 
			},
			{
				"x": -0.2862911968,
				"y": 2.8524290175,
				"z": -1.5143210759,
				"element": "O" 
			},
			{
				"x": 1.3851870886,
				"y": 1.186898207,
				"z": -1.8234576744,
				"element": "C" 
			},
			{
				"x": 1.040201582,
				"y": 0.3464774694,
				"z": -0.7296643137,
				"element": "O" 
			},
			{
				"x": -0.3044754199,
				"y": -0.0418962259,
				"z": -0.6040552515,
				"element": "C" 
			},
			{
				"x": -0.7926192388,
				"y": 0.5129752593,
				"z": 0.6002588873,
				"element": "O" 
			},
			{
				"x": -2.186251463,
				"y": 0.2572236163,
				"z": 0.8175110185,
				"element": "C" 
			},
			{
				"x": -2.5386719828,
				"y": 0.9721567937,
				"z": 2.1358492819,
				"element": "C" 
			},
			{
				"x": -3.6941534158,
				"y": 0.435861238,
				"z": 2.7550430051,
				"element": "O" 
			},
			{
				"x": -2.4492824207,
				"y": -1.2546832653,
				"z": 0.9021376614,
				"element": "C" 
			},
			{
				"x": -1.9376669098,
				"y": -1.8117622265,
				"z": 2.1088915193,
				"element": "O" 
			},
			{
				"x": -1.8689080655,
				"y": -1.982912163,
				"z": -0.3285706491,
				"element": "C" 
			},
			{
				"x": -2.5516932312,
				"y": -1.6387758638,
				"z": -1.5277584962,
				"element": "O" 
			},
			{
				"x": -0.4000199017,
				"y": -1.5731101582,
				"z": -0.5466795184,
				"element": "C" 
			},
			{
				"x": 0.4108480247,
				"y": -2.0228806375,
				"z": 0.5404464149,
				"element": "O" 
			},
			{
				"x": 2.8453729993,
				"y": 0.9095173332,
				"z": -2.1744873953,
				"element": "C" 
			},
			{
				"x": 3.4622214114,
				"y": 1.6316379992,
				"z": -2.9411771861,
				"element": "O" 
			},
			{
				"x": 3.52720173,
				"y": -0.3159059559,
				"z": -1.5880408716,
				"element": "C" 
			},
			{
				"x": 4.8414668891,
				"y": -0.4289542238,
				"z": -2.0533952856,
				"element": "O" 
			},
			{
				"x": 2.8851296654,
				"y": 3.733478394,
				"z": 2.0308350679,
				"element": "H" 
			},
			{
				"x": 2.0485003115,
				"y": 1.8167802756,
				"z": 1.1127050597,
				"element": "H" 
			},
			{
				"x": 0.4719438155,
				"y": 2.605719851,
				"z": 1.0904737869,
				"element": "H" 
			},
			{
				"x": 2.911150214,
				"y": 3.3514890382,
				"z": -0.6149179862,
				"element": "H" 
			},
			{
				"x": 1.4349740212,
				"y": 5.0148224215,
				"z": 0.467540264,
				"element": "H" 
			},
			{
				"x": 1.5019701887,
				"y": 3.1791376622,
				"z": -2.5189223299,
				"element": "H" 
			},
			{
				"x": -0.3976894244,
				"y": 3.7619254255,
				"z": -1.1918715603,
				"element": "H" 
			},
			{
				"x": 0.7996298681,
				"y": 0.899492491,
				"z": -2.712130498,
				"element": "H" 
			},
			{
				"x": -0.8959865127,
				"y": 0.3197822595,
				"z": -1.455233611,
				"element": "H" 
			},
			{
				"x": -2.7703641961,
				"y": 0.6630678461,
				"z": -0.0221956404,
				"element": "H" 
			},
			{
				"x": -1.6570330153,
				"y": 0.9084006935,
				"z": 2.7869684489,
				"element": "H" 
			},
			{
				"x": -2.7356522356,
				"y": 2.0305743987,
				"z": 1.9438874653,
				"element": "H" 
			},
			{
				"x": -3.4207713258,
				"y": -0.4220558676,
				"z": 3.1128000289,
				"element": "H" 
			},
			{
				"x": -3.534229439,
				"y": -1.4095360784,
				"z": 0.9326142386,
				"element": "H" 
			},
			{
				"x": -0.9691697942,
				"y": -1.7466950037,
				"z": 2.0398001359,
				"element": "H" 
			},
			{
				"x": -1.9135424066,
				"y": -3.067694597,
				"z": -0.1371378711,
				"element": "H" 
			},
			{
				"x": -3.485628715,
				"y": -1.8635724894,
				"z": -1.4252372832,
				"element": "H" 
			},
			{
				"x": -0.0473938143,
				"y": -1.9813898607,
				"z": -1.5037253561,
				"element": "H" 
			},
			{
				"x": 0.4948185046,
				"y": -2.9829662834,
				"z": 0.4725286615,
				"element": "H" 
			},
			{
				"x": 3.4857156948,
				"y": -0.24744944,
				"z": -0.4906249933,
				"element": "H" 
			},
			{
				"x": 2.9220384467,
				"y": -1.2004383087,
				"z": -1.8466819404,
				"element": "H" 
			},
			{
				"x": 4.9662507908,
				"y": 0.3198782353,
				"z": -2.6630131474,
				"element": "H" 
			}
		],
		 "valence_orbital": [ 
			{
				"type": "occ",
				"energy": -0.2723,
				"method": "rhf"
			},
			{
				"type": "occ",
				"energy": -0.27072,
				"method": "rhf"
			},
			{
				"type": "occ",
				"energy": -0.26686,
				"method": "rhf"
			},
			{
				"type": "occ",
				"energy": -0.26047,
				"method": "rhf"
			},
			{
				"type": "occ",
				"energy": -0.25279,
				"method": "rhf"
			},
			{
				"type": "unocc",
				"energy": -0.04089,
				"method": "rhf"
			},
			{
				"type": "unocc",
				"energy": 0.0347,
				"method": "rhf"
			},
			{
				"type": "unocc",
				"energy": 0.05061,
				"method": "rhf"
			},
			{
				"type": "unocc",
				"energy": 0.05651,
				"method": "rhf"
			},
			{
				"type": "unocc",
				"energy": 0.07706,
				"method": "rhf"
			}
		],
		"cosmo_sigma_profile": { 
			"-0.025": 0.0,
			"-0.024": 0.0,
			"-0.023": 0.0,
			"-0.022": 0.0,
			"-0.021": 0.0,
			"-0.02": 0.0,
			"-0.019": 0.0,
			"-0.018": 0.0529996609524,
			"-0.017": 1.24029762994,
			"-0.016": 3.2302070489,
			"-0.015": 2.86562890327,
			"-0.014": 2.92258318587,
			"-0.013": 3.84487641807,
			"-0.012": 2.45385432706,
			"-0.011": 4.36134075945,
			"-0.01": 5.17291764648,
			"-0.009": 8.36929357262,
			"-0.008": 10.5185371711,
			"-0.007": 13.5010738131,
			"-0.006": 17.2719402046,
			"-0.005": 20.20288069,
			"-0.004": 24.6732372727,
			"-0.003": 21.0436012535,
			"-0.002": 23.3604817873,
			"-0.001": 19.7171693651,
			"0.0": 16.0210323504,
			"0.001": 13.576887673,
			"0.002": 13.3890671004,
			"0.003": 10.7216237941,
			"0.004": 11.8437369305,
			"0.005": 10.4725616794,
			"0.006": 10.7036904984,
			"0.007": 11.0267152519,
			"0.008": 10.90139344,
			"0.009": 9.78028094741,
			"0.01": 11.1814169919,
			"0.011": 9.86204121592,
			"0.012": 10.1788232997,
			"0.013": 7.93822087829,
			"0.014": 6.03094812422,
			"0.015": 0.226398251594,
			"0.016": 0.00282559678174,
			"0.017": 0.0,
			"0.018": 0.0,
			"0.019": 0.0,
			"0.02": 0.0,
			"0.021": 0.0,
			"0.022": 0.0,
			"0.023": 0.0,
			"0.024": 0.0,
			"0.025": 0.0
		}
	}
}
