{
	 "smiles": "CC1=CC(CNCC2=CC(C)=C(O)C(C)=C2)=CC(C)=C1O", 
	 "Tm": 523.15, 
	 "num_atms": 44, 
	 "gaussian": { 
		 "optdone": 1, 
		 "sigma_profile": "yes", 
		 "theory": "DFT", 
		 "functional": "B3LYP", 
		 "basiset": "6-31G**", 
		 "properties": { 
			 "R2extent": 10184.4974, 
			 "electric_dipole_moment_norm": 0.926398240499, 
			 "electric_quadrupole_moment_norm": 20.5470958751, 
			 "total_energy": -904.997475359, 
			 "HOMO_LUMO_gap": 0.21058, 
			 "cosmo_polarized_energy": -15.13, 
			 "cosmo_cavitation_energy": 46.15, 
			 "cosmo_dispersion_energy": -32.09, 
			 "cosmo_repulsion_energy": 2.5, 
			 "cosmo_total_nonelectrostatic_energy": 16.56, 
			 "SMD_solvation_energy": 7.06 
		},
		"coords": [
			{
				"x": 3.7180683279,
				"y": 0.3031495124,
				"z": -3.2252247533,
				"element": "C" 
			},
			{
				"x": 3.154523387,
				"y": 1.1341478145,
				"z": -2.095508778,
				"element": "C" 
			},
			{
				"x": 2.2388510906,
				"y": 0.5987873167,
				"z": -1.185473037,
				"element": "C" 
			},
			{
				"x": 1.7144344883,
				"y": 1.3607931444,
				"z": -0.1364792433,
				"element": "C" 
			},
			{
				"x": 0.7007976252,
				"y": 0.7707472458,
				"z": 0.8213240797,
				"element": "C" 
			},
			{
				"x": 1.0764625646,
				"y": -0.5779419531,
				"z": 1.2513552817,
				"element": "N" 
			},
			{
				"x": 0.144499436,
				"y": -1.1734376016,
				"z": 2.2107283257,
				"element": "C" 
			},
			{
				"x": -1.1582171205,
				"y": -1.6150746091,
				"z": 1.5683743496,
				"element": "C" 
			},
			{
				"x": -2.386850432,
				"y": -1.3348811162,
				"z": 2.1671967304,
				"element": "C" 
			},
			{
				"x": -3.5962069663,
				"y": -1.7746628718,
				"z": 1.6152075073,
				"element": "C" 
			},
			{
				"x": -4.9215009065,
				"y": -1.4642772435,
				"z": 2.2717433984,
				"element": "C" 
			},
			{
				"x": -3.550035922,
				"y": -2.5106112333,
				"z": 0.4217744301,
				"element": "C" 
			},
			{
				"x": -4.6870847883,
				"y": -2.9772047173,
				"z": -0.190783394,
				"element": "O" 
			},
			{
				"x": -2.3316878827,
				"y": -2.8055104772,
				"z": -0.2154407414,
				"element": "C" 
			},
			{
				"x": -2.330554786,
				"y": -3.5944385648,
				"z": -1.5002293631,
				"element": "C" 
			},
			{
				"x": -1.1535876376,
				"y": -2.3498585323,
				"z": 0.375438812,
				"element": "C" 
			},
			{
				"x": 2.1345930524,
				"y": 2.6889672698,
				"z": -0.0094627726,
				"element": "C" 
			},
			{
				"x": 3.0436603058,
				"y": 3.2698822803,
				"z": -0.8972707751,
				"element": "C" 
			},
			{
				"x": 3.4952286595,
				"y": 4.7016244582,
				"z": -0.759464081,
				"element": "C" 
			},
			{
				"x": 3.5453705824,
				"y": 2.4749293855,
				"z": -1.9392902841,
				"element": "C" 
			},
			{
				"x": 4.4403606882,
				"y": 3.075800516,
				"z": -2.7904405562,
				"element": "O" 
			},
			{
				"x": 3.4731378988,
				"y": 0.7225009319,
				"z": -4.2112773928,
				"element": "H" 
			},
			{
				"x": 3.3119995866,
				"y": -0.7106643485,
				"z": -3.2001391733,
				"element": "H" 
			},
			{
				"x": 4.8120581966,
				"y": 0.2124951851,
				"z": -3.1687594644,
				"element": "H" 
			},
			{
				"x": 1.9319428079,
				"y": -0.4384267948,
				"z": -1.284744804,
				"element": "H" 
			},
			{
				"x": 0.5603514848,
				"y": 1.4641048699,
				"z": 1.6724408628,
				"element": "H" 
			},
			{
				"x": -0.2798244058,
				"y": 0.6911213093,
				"z": 0.3331281633,
				"element": "H" 
			},
			{
				"x": 2.0079840072,
				"y": -0.5464763355,
				"z": 1.6577873614,
				"element": "H" 
			},
			{
				"x": 0.650044493,
				"y": -2.0464963545,
				"z": 2.6447583216,
				"element": "H" 
			},
			{
				"x": -0.09034367,
				"y": -0.497817839,
				"z": 3.0551542388,
				"element": "H" 
			},
			{
				"x": -2.4133995699,
				"y": -0.758236268,
				"z": 3.0899147523,
				"element": "H" 
			},
			{
				"x": -4.7760205126,
				"y": -0.8813745074,
				"z": 3.1843328643,
				"element": "H" 
			},
			{
				"x": -5.5816375256,
				"y": -0.876657185,
				"z": 1.6183013413,
				"element": "H" 
			},
			{
				"x": -5.4670271945,
				"y": -2.3747711572,
				"z": 2.5572863392,
				"element": "H" 
			},
			{
				"x": -5.4583634211,
				"y": -2.7189780018,
				"z": 0.3283757966,
				"element": "H" 
			},
			{
				"x": -2.9078798199,
				"y": -3.0858531241,
				"z": -2.2805584936,
				"element": "H" 
			},
			{
				"x": -2.7935374075,
				"y": -4.578330548,
				"z": -1.3643580751,
				"element": "H" 
			},
			{
				"x": -1.310955466,
				"y": -3.7407510592,
				"z": -1.8661845674,
				"element": "H" 
			},
			{
				"x": -0.2015344206,
				"y": -2.5575017323,
				"z": -0.1052556441,
				"element": "H" 
			},
			{
				"x": 1.7444501317,
				"y": 3.2955858144,
				"z": 0.8055402647,
				"element": "H" 
			},
			{
				"x": 3.0206102886,
				"y": 5.1797435896,
				"z": 0.1016276799,
				"element": "H" 
			},
			{
				"x": 4.5819707891,
				"y": 4.7671982921,
				"z": -0.6348933012,
				"element": "H" 
			},
			{
				"x": 3.2507575198,
				"y": 5.2843463987,
				"z": -1.6547566319,
				"element": "H" 
			},
			{
				"x": 4.7163924434,
				"y": 2.440808841,
				"z": -3.4624955743,
				"element": "H" 
			}
		],
		 "valence_orbital": [ 
			{
				"type": "occ",
				"energy": -0.23067,
				"method": "rhf"
			},
			{
				"type": "occ",
				"energy": -0.22959,
				"method": "rhf"
			},
			{
				"type": "occ",
				"energy": -0.2201,
				"method": "rhf"
			},
			{
				"type": "occ",
				"energy": -0.20597,
				"method": "rhf"
			},
			{
				"type": "occ",
				"energy": -0.19984,
				"method": "rhf"
			},
			{
				"type": "unocc",
				"energy": 0.01074,
				"method": "rhf"
			},
			{
				"type": "unocc",
				"energy": 0.01308,
				"method": "rhf"
			},
			{
				"type": "unocc",
				"energy": 0.01434,
				"method": "rhf"
			},
			{
				"type": "unocc",
				"energy": 0.02435,
				"method": "rhf"
			},
			{
				"type": "unocc",
				"energy": 0.06772,
				"method": "rhf"
			}
		],
		"cosmo_sigma_profile": { 
			"-0.025": 0.0,
			"-0.024": 0.0,
			"-0.023": 0.0,
			"-0.022": 0.0,
			"-0.021": 0.0,
			"-0.02": 0.0,
			"-0.019": 0.0,
			"-0.018": 0.0,
			"-0.017": 0.0,
			"-0.016": 0.309112513976,
			"-0.015": 1.15932332031,
			"-0.014": 1.35622453936,
			"-0.013": 2.1370601719,
			"-0.012": 2.43358379767,
			"-0.011": 2.05173595072,
			"-0.01": 2.89480188221,
			"-0.009": 3.37594216265,
			"-0.008": 3.98664984294,
			"-0.007": 4.11801474391,
			"-0.006": 4.26352333829,
			"-0.005": 10.794957735,
			"-0.004": 29.1848325214,
			"-0.003": 32.352846057,
			"-0.002": 35.3316676763,
			"-0.001": 37.2067374625,
			"0.0": 38.0733215754,
			"0.001": 28.1074286383,
			"0.002": 19.565962097,
			"0.003": 18.7272298468,
			"0.004": 19.9835132107,
			"0.005": 18.6212582229,
			"0.006": 18.0618700387,
			"0.007": 10.5893862111,
			"0.008": 4.54709807359,
			"0.009": 3.96637116377,
			"0.01": 4.60244731956,
			"0.011": 3.23778347119,
			"0.012": 0.391199586785,
			"0.013": 0.0,
			"0.014": 0.0,
			"0.015": 0.0,
			"0.016": 0.0,
			"0.017": 0.0,
			"0.018": 0.0,
			"0.019": 0.0,
			"0.02": 0.0,
			"0.021": 0.0,
			"0.022": 0.0,
			"0.023": 0.0,
			"0.024": 0.0,
			"0.025": 0.0
		}
	}
}
