{
	 "smiles": "CCOC(=O)NC1=NN=C(S)S1", 
	 "Tm": 479.15, 
	 "num_atms": 19, 
	 "gaussian": { 
		 "optdone": 1, 
		 "sigma_profile": "yes", 
		 "theory": "DFT", 
		 "functional": "B3LYP", 
		 "basiset": "6-31G**", 
		 "properties": { 
			 "R2extent": 5030.3607, 
			 "electric_dipole_moment_norm": 3.35631813301, 
			 "electric_quadrupole_moment_norm": 7.09907445587, 
			 "total_energy": -1305.81452667, 
			 "HOMO_LUMO_gap": 0.19583, 
			 "cosmo_polarized_energy": -13.07, 
			 "cosmo_cavitation_energy": 27.52, 
			 "cosmo_dispersion_energy": -21.54, 
			 "cosmo_repulsion_energy": 1.65, 
			 "cosmo_total_nonelectrostatic_energy": 7.63, 
			 "SMD_solvation_energy": 3.48 
		},
		"coords": [
			{
				"x": -0.541685318,
				"y": -3.4224994013,
				"z": -0.6649876735,
				"element": "C" 
			},
			{
				"x": -0.7275201031,
				"y": -2.2616299643,
				"z": -1.6282714989,
				"element": "C" 
			},
			{
				"x": -0.814237034,
				"y": -0.996759924,
				"z": -0.9205679041,
				"element": "O" 
			},
			{
				"x": 0.3582667502,
				"y": -0.4115584729,
				"z": -0.6155643987,
				"element": "C" 
			},
			{
				"x": 1.4673986811,
				"y": -0.8303767983,
				"z": -0.8926043119,
				"element": "O" 
			},
			{
				"x": 0.1235366715,
				"y": 0.7614593714,
				"z": 0.067491858,
				"element": "N" 
			},
			{
				"x": 1.1050272098,
				"y": 1.6168832057,
				"z": 0.5300154058,
				"element": "C" 
			},
			{
				"x": 0.7956079614,
				"y": 2.7074771875,
				"z": 1.1699222414,
				"element": "N" 
			},
			{
				"x": 1.9028375621,
				"y": 3.4263040764,
				"z": 1.5505014714,
				"element": "N" 
			},
			{
				"x": 3.0149209782,
				"y": 2.8594389852,
				"z": 1.1880501448,
				"element": "C" 
			},
			{
				"x": 4.6196161091,
				"y": 3.521955171,
				"z": 1.5209326577,
				"element": "S" 
			},
			{
				"x": 2.8265951815,
				"y": 1.3377094919,
				"z": 0.3133807095,
				"element": "S" 
			},
			{
				"x": -0.5552962632,
				"y": -4.3664553006,
				"z": -1.219634942,
				"element": "H" 
			},
			{
				"x": -1.3457586056,
				"y": -3.4481484097,
				"z": 0.0761452472,
				"element": "H" 
			},
			{
				"x": 0.4177264351,
				"y": -3.3442432405,
				"z": -0.1477190399,
				"element": "H" 
			},
			{
				"x": 0.0932582936,
				"y": -2.2036856457,
				"z": -2.3465145777,
				"element": "H" 
			},
			{
				"x": -1.6761300646,
				"y": -2.328660906,
				"z": -2.1650621234,
				"element": "H" 
			},
			{
				"x": -0.8306082615,
				"y": 1.0411421139,
				"z": 0.2553839831,
				"element": "H" 
			},
			{
				"x": 4.1233438164,
				"y": 4.6002484604,
				"z": 2.1601027511,
				"element": "H" 
			}
		],
		 "valence_orbital": [ 
			{
				"type": "occ",
				"energy": -0.30489,
				"method": "rhf"
			},
			{
				"type": "occ",
				"energy": -0.30268,
				"method": "rhf"
			},
			{
				"type": "occ",
				"energy": -0.28582,
				"method": "rhf"
			},
			{
				"type": "occ",
				"energy": -0.26953,
				"method": "rhf"
			},
			{
				"type": "occ",
				"energy": -0.22933,
				"method": "rhf"
			},
			{
				"type": "unocc",
				"energy": -0.0335,
				"method": "rhf"
			},
			{
				"type": "unocc",
				"energy": -0.00785,
				"method": "rhf"
			},
			{
				"type": "unocc",
				"energy": 0.01664,
				"method": "rhf"
			},
			{
				"type": "unocc",
				"energy": 0.02161,
				"method": "rhf"
			},
			{
				"type": "unocc",
				"energy": 0.04206,
				"method": "rhf"
			}
		],
		"cosmo_sigma_profile": { 
			"-0.025": 0.0,
			"-0.024": 0.0,
			"-0.023": 0.0,
			"-0.022": 0.0,
			"-0.021": 0.0,
			"-0.02": 0.0,
			"-0.019": 0.0,
			"-0.018": 0.0,
			"-0.017": 0.6254786637,
			"-0.016": 0.656771164098,
			"-0.015": 0.842745734588,
			"-0.014": 0.866138686522,
			"-0.013": 0.975564701241,
			"-0.012": 2.11948445544,
			"-0.011": 2.33368309599,
			"-0.01": 1.6283072169,
			"-0.009": 1.90948794347,
			"-0.008": 2.1151253611,
			"-0.007": 3.25820546778,
			"-0.006": 6.48398301925,
			"-0.005": 10.1599433339,
			"-0.004": 18.7448902887,
			"-0.003": 22.5790982912,
			"-0.002": 21.0350630148,
			"-0.001": 20.687729965,
			"0.0": 17.8341641088,
			"0.001": 15.2105894523,
			"0.002": 12.2594105637,
			"0.003": 10.1005018472,
			"0.004": 7.37684448937,
			"0.005": 6.82586297001,
			"0.006": 7.95391628005,
			"0.007": 4.8018934468,
			"0.008": 3.96989453648,
			"0.009": 4.14736157853,
			"0.01": 4.66979306995,
			"0.011": 5.32127523959,
			"0.012": 3.00805427991,
			"0.013": 2.48798268902,
			"0.014": 1.12660033059,
			"0.015": 0.00930006902124,
			"0.016": 0.0,
			"0.017": 0.0,
			"0.018": 0.0,
			"0.019": 0.0,
			"0.02": 0.0,
			"0.021": 0.0,
			"0.022": 0.0,
			"0.023": 0.0,
			"0.024": 0.0,
			"0.025": 0.0
		}
	}
}
