{
	 "smiles": "BrC1=CC(Br)=CC=C1", 
	 "Tm": 266.15, 
	 "num_atms": 12, 
	 "gaussian": { 
		 "optdone": 1, 
		 "sigma_profile": "yes", 
		 "theory": "DFT", 
		 "functional": "B3LYP", 
		 "basiset": "6-31G**", 
		 "properties": { 
			 "R2extent": 5032.4094, 
			 "electric_dipole_moment_norm": 1.66283657345, 
			 "electric_quadrupole_moment_norm": 2.44624402912, 
			 "total_energy": -5373.8557713, 
			 "HOMO_LUMO_gap": 0.22174, 
			 "cosmo_polarized_energy": -3.73, 
			 "cosmo_cavitation_energy": 20.88, 
			 "cosmo_dispersion_energy": -16.43, 
			 "cosmo_repulsion_energy": 1.36, 
			 "cosmo_total_nonelectrostatic_energy": 5.8, 
			 "SMD_solvation_energy": 1.33 
		},
		"coords": [
			{
				"x": -0.7037743352,
				"y": -2.3344979853,
				"z": 2.6980737003,
				"element": "Br" 
			},
			{
				"x": 0.3658898574,
				"y": -1.4719775508,
				"z": 1.3720476844,
				"element": "C" 
			},
			{
				"x": 1.4838513567,
				"y": -2.1373580934,
				"z": 0.8709469208,
				"element": "C" 
			},
			{
				"x": 2.2548650776,
				"y": -1.4946519449,
				"z": -0.0966121047,
				"element": "C" 
			},
			{
				"x": 3.7904715348,
				"y": -2.3884378121,
				"z": -0.7962658862,
				"element": "Br" 
			},
			{
				"x": 1.9310632593,
				"y": -0.2209814849,
				"z": -0.5618096094,
				"element": "C" 
			},
			{
				"x": 0.8058654109,
				"y": 0.4186456646,
				"z": -0.0405395768,
				"element": "C" 
			},
			{
				"x": 0.0138931527,
				"y": -0.1979692293,
				"z": 0.9287359624,
				"element": "C" 
			},
			{
				"x": 1.7461764388,
				"y": -3.1264410939,
				"z": 1.223648762,
				"element": "H" 
			},
			{
				"x": 2.5458644563,
				"y": 0.2580188964,
				"z": -1.3144163081,
				"element": "H" 
			},
			{
				"x": 0.542703306,
				"y": 1.4107542887,
				"z": -0.3943530882,
				"element": "H" 
			},
			{
				"x": -0.8597695152,
				"y": 0.2988963449,
				"z": 1.3333435436,
				"element": "H" 
			}
		],
		 "valence_orbital": [ 
			{
				"type": "occ",
				"energy": -0.30827,
				"method": "rhf"
			},
			{
				"type": "occ",
				"energy": -0.29753,
				"method": "rhf"
			},
			{
				"type": "occ",
				"energy": -0.29242,
				"method": "rhf"
			},
			{
				"type": "occ",
				"energy": -0.26193,
				"method": "rhf"
			},
			{
				"type": "occ",
				"energy": -0.24915,
				"method": "rhf"
			},
			{
				"type": "unocc",
				"energy": -0.02741,
				"method": "rhf"
			},
			{
				"type": "unocc",
				"energy": -0.0273,
				"method": "rhf"
			},
			{
				"type": "unocc",
				"energy": -0.01839,
				"method": "rhf"
			},
			{
				"type": "unocc",
				"energy": 0.02293,
				"method": "rhf"
			},
			{
				"type": "unocc",
				"energy": 0.10829,
				"method": "rhf"
			}
		],
		"cosmo_sigma_profile": { 
			"-0.025": 0.0,
			"-0.024": 0.0,
			"-0.023": 0.0,
			"-0.022": 0.0,
			"-0.021": 0.0,
			"-0.02": 0.0,
			"-0.019": 0.0,
			"-0.018": 0.0,
			"-0.017": 0.0,
			"-0.016": 0.0,
			"-0.015": 0.0,
			"-0.014": 0.0,
			"-0.013": 0.0,
			"-0.012": 0.0,
			"-0.011": 0.0,
			"-0.01": 0.0,
			"-0.009": 0.0,
			"-0.008": 2.10249261874,
			"-0.007": 7.81103802095,
			"-0.006": 8.1547438928,
			"-0.005": 7.9651655456,
			"-0.004": 8.82285375974,
			"-0.003": 9.43261904149,
			"-0.002": 9.0848240649,
			"-0.001": 11.2740466127,
			"0.0": 13.6969202701,
			"0.001": 22.1791961887,
			"0.002": 27.3508821171,
			"0.003": 19.621022653,
			"0.004": 21.9460679477,
			"0.005": 5.40997231145,
			"0.006": 0.0,
			"0.007": 0.0,
			"0.008": 0.0,
			"0.009": 0.0,
			"0.01": 0.0,
			"0.011": 0.0,
			"0.012": 0.0,
			"0.013": 0.0,
			"0.014": 0.0,
			"0.015": 0.0,
			"0.016": 0.0,
			"0.017": 0.0,
			"0.018": 0.0,
			"0.019": 0.0,
			"0.02": 0.0,
			"0.021": 0.0,
			"0.022": 0.0,
			"0.023": 0.0,
			"0.024": 0.0,
			"0.025": 0.0
		}
	}
}
