{
	 "smiles": "CC1=C(C)C2=C(S1)N=C(CN1CCCCC1)N=C2Cl", 
	 "Tm": 335.15, 
	 "num_atms": 37, 
	 "gaussian": { 
		 "optdone": 1, 
		 "sigma_profile": "yes", 
		 "theory": "DFT", 
		 "functional": "B3LYP", 
		 "basiset": "6-31G**", 
		 "properties": { 
			 "R2extent": 7038.7172, 
			 "electric_dipole_moment_norm": 3.567230856, 
			 "electric_quadrupole_moment_norm": 16.7544836104, 
			 "total_energy": -1566.976465, 
			 "HOMO_LUMO_gap": 0.1393, 
			 "cosmo_polarized_energy": -7.6, 
			 "cosmo_cavitation_energy": 41.26, 
			 "cosmo_dispersion_energy": -29.35, 
			 "cosmo_repulsion_energy": 2.24, 
			 "cosmo_total_nonelectrostatic_energy": 14.14, 
			 "SMD_solvation_energy": 1.0 
		},
		"coords": [
			{
				"x": 0.6315625712,
				"y": 0.4321704938,
				"z": -5.3823460278,
				"element": "C" 
			},
			{
				"x": 0.2012587732,
				"y": 0.4997180819,
				"z": -3.9424309514,
				"element": "C" 
			},
			{
				"x": -0.9411561736,
				"y": -0.0052783803,
				"z": -3.3819453973,
				"element": "C" 
			},
			{
				"x": -1.9884015763,
				"y": -0.7419439987,
				"z": -4.1750781828,
				"element": "C" 
			},
			{
				"x": -0.9971470182,
				"y": 0.2621687417,
				"z": -1.959072675,
				"element": "C" 
			},
			{
				"x": 0.1349263678,
				"y": 0.9791725362,
				"z": -1.4867618151,
				"element": "C" 
			},
			{
				"x": 1.2523449926,
				"y": 1.316360858,
				"z": -2.7867764269,
				"element": "S" 
			},
			{
				"x": 0.3474980713,
				"y": 1.3666466281,
				"z": -0.2319360469,
				"element": "N" 
			},
			{
				"x": -0.6103459986,
				"y": 1.0329912832,
				"z": 0.6401953442,
				"element": "C" 
			},
			{
				"x": -0.3976210885,
				"y": 1.3914371536,
				"z": 2.101113834,
				"element": "C" 
			},
			{
				"x": 0.235241887,
				"y": 0.352935776,
				"z": 2.9084799352,
				"element": "N" 
			},
			{
				"x": -0.6172992622,
				"y": -0.8003756861,
				"z": 3.2148815956,
				"element": "C" 
			},
			{
				"x": 0.1791431343,
				"y": -1.8258304087,
				"z": 4.0247068589,
				"element": "C" 
			},
			{
				"x": 1.3458127212,
				"y": -2.4134303922,
				"z": 3.1928512699,
				"element": "C" 
			},
			{
				"x": 1.8148714198,
				"y": -1.4214500565,
				"z": 2.1050473715,
				"element": "C" 
			},
			{
				"x": 1.6356574228,
				"y": 0.0307402844,
				"z": 2.5672212432,
				"element": "C" 
			},
			{
				"x": -1.7346240901,
				"y": 0.3496608546,
				"z": 0.3228427782,
				"element": "N" 
			},
			{
				"x": -1.9119808262,
				"y": -0.0185021615,
				"z": -0.9265610844,
				"element": "C" 
			},
			{
				"x": -3.4043168278,
				"y": -0.9032458499,
				"z": -1.2498976455,
				"element": "Cl" 
			},
			{
				"x": 1.5972047374,
				"y": 0.9204425242,
				"z": -5.5345623405,
				"element": "H" 
			},
			{
				"x": -0.0942317331,
				"y": 0.9265856158,
				"z": -6.0373048788,
				"element": "H" 
			},
			{
				"x": 0.7305453957,
				"y": -0.6055722351,
				"z": -5.7190638998,
				"element": "H" 
			},
			{
				"x": -2.1321794036,
				"y": -1.7606469088,
				"z": -3.8023493576,
				"element": "H" 
			},
			{
				"x": -2.9602929593,
				"y": -0.242400725,
				"z": -4.1185290302,
				"element": "H" 
			},
			{
				"x": -1.7035470626,
				"y": -0.8056605423,
				"z": -5.2273697047,
				"element": "H" 
			},
			{
				"x": -1.3729550901,
				"y": 1.6186440369,
				"z": 2.5448029579,
				"element": "H" 
			},
			{
				"x": 0.220941987,
				"y": 2.2935405255,
				"z": 2.1400312549,
				"element": "H" 
			},
			{
				"x": -1.0305276691,
				"y": -1.2880373262,
				"z": 2.3144660386,
				"element": "H" 
			},
			{
				"x": -1.4805299599,
				"y": -0.4407221881,
				"z": 3.7900537063,
				"element": "H" 
			},
			{
				"x": -0.4883696959,
				"y": -2.6217419426,
				"z": 4.3716931064,
				"element": "H" 
			},
			{
				"x": 0.5677334121,
				"y": -1.3256810039,
				"z": 4.9197236475,
				"element": "H" 
			},
			{
				"x": 1.0387281201,
				"y": -3.3535726708,
				"z": 2.7201844698,
				"element": "H" 
			},
			{
				"x": 2.1798508929,
				"y": -2.6618132816,
				"z": 3.8594873145,
				"element": "H" 
			},
			{
				"x": 2.8639029334,
				"y": -1.601107993,
				"z": 1.8430095009,
				"element": "H" 
			},
			{
				"x": 1.2359977148,
				"y": -1.5721111839,
				"z": 1.1857670448,
				"element": "H" 
			},
			{
				"x": 1.9795682217,
				"y": 0.7137432783,
				"z": 1.7851081354,
				"element": "H" 
			},
			{
				"x": 2.2748356587,
				"y": 0.2075662631,
				"z": 3.4469180569,
				"element": "H" 
			}
		],
		 "valence_orbital": [ 
			{
				"type": "occ",
				"energy": -0.30202,
				"method": "rhf"
			},
			{
				"type": "occ",
				"energy": -0.26803,
				"method": "rhf"
			},
			{
				"type": "occ",
				"energy": -0.26284,
				"method": "rhf"
			},
			{
				"type": "occ",
				"energy": -0.23076,
				"method": "rhf"
			},
			{
				"type": "occ",
				"energy": -0.19045,
				"method": "rhf"
			},
			{
				"type": "unocc",
				"energy": -0.05115,
				"method": "rhf"
			},
			{
				"type": "unocc",
				"energy": -0.03583,
				"method": "rhf"
			},
			{
				"type": "unocc",
				"energy": 0.00161,
				"method": "rhf"
			},
			{
				"type": "unocc",
				"energy": 0.02196,
				"method": "rhf"
			},
			{
				"type": "unocc",
				"energy": 0.03682,
				"method": "rhf"
			}
		],
		"cosmo_sigma_profile": { 
			"-0.025": 0.0,
			"-0.024": 0.0,
			"-0.023": 0.0,
			"-0.022": 0.0,
			"-0.021": 0.0,
			"-0.02": 0.0,
			"-0.019": 0.0,
			"-0.018": 0.0,
			"-0.017": 0.0,
			"-0.016": 0.0,
			"-0.015": 0.0,
			"-0.014": 0.0,
			"-0.013": 0.0,
			"-0.012": 0.0,
			"-0.011": 0.0,
			"-0.01": 0.0,
			"-0.009": 0.0,
			"-0.008": 0.0,
			"-0.007": 0.347141756632,
			"-0.006": 3.18845486489,
			"-0.005": 9.08657761955,
			"-0.004": 17.201328311,
			"-0.003": 30.3130752325,
			"-0.002": 49.022947982,
			"-0.001": 61.2822827324,
			"0.0": 46.2250960659,
			"0.001": 37.040568966,
			"0.002": 22.0533691254,
			"0.003": 14.7487018136,
			"0.004": 12.0913249854,
			"0.005": 5.38127347274,
			"0.006": 3.98751630181,
			"0.007": 3.92285252152,
			"0.008": 2.94056367574,
			"0.009": 2.78953246647,
			"0.01": 1.40289308987,
			"0.011": 1.78264642953,
			"0.012": 1.98096829151,
			"0.013": 0.943716523569,
			"0.014": 0.411373562406,
			"0.015": 0.211261957594,
			"0.016": 0.0,
			"0.017": 0.0,
			"0.018": 0.0,
			"0.019": 0.0,
			"0.02": 0.0,
			"0.021": 0.0,
			"0.022": 0.0,
			"0.023": 0.0,
			"0.024": 0.0,
			"0.025": 0.0
		}
	}
}
