{
	 "smiles": "CC1=CC=C(O)C(=N1)[N+]([O-])=O", 
	 "Tm": 380.15, 
	 "num_atms": 17, 
	 "gaussian": { 
		 "optdone": 1, 
		 "sigma_profile": "yes", 
		 "theory": "DFT", 
		 "functional": "B3LYP", 
		 "basiset": "6-31G**", 
		 "properties": { 
			 "R2extent": 2398.7351, 
			 "electric_dipole_moment_norm": 4.63711039442, 
			 "electric_quadrupole_moment_norm": 10.7894243354, 
			 "total_energy": -567.331909219, 
			 "HOMO_LUMO_gap": 0.15452, 
			 "cosmo_polarized_energy": -10.81, 
			 "cosmo_cavitation_energy": 21.92, 
			 "cosmo_dispersion_energy": -16.58, 
			 "cosmo_repulsion_energy": 1.34, 
			 "cosmo_total_nonelectrostatic_energy": 6.68, 
			 "SMD_solvation_energy": 5.43 
		},
		"coords": [
			{
				"x": -0.9714048863,
				"y": -0.9230108402,
				"z": 2.1192123929,
				"element": "C" 
			},
			{
				"x": -0.1362376522,
				"y": -0.2563376978,
				"z": 1.0563394136,
				"element": "C" 
			},
			{
				"x": -0.7173133581,
				"y": 0.2500215706,
				"z": -0.1315612537,
				"element": "C" 
			},
			{
				"x": 0.0749236165,
				"y": 0.855003568,
				"z": -1.0849889097,
				"element": "C" 
			},
			{
				"x": 1.4641134784,
				"y": 0.9659155041,
				"z": -0.8700177891,
				"element": "C" 
			},
			{
				"x": 2.2158059472,
				"y": 1.5539737139,
				"z": -1.802567894,
				"element": "O" 
			},
			{
				"x": 1.9337782854,
				"y": 0.4277598814,
				"z": 0.3459777901,
				"element": "C" 
			},
			{
				"x": 1.1710776703,
				"y": -0.1550556515,
				"z": 1.2646888838,
				"element": "N" 
			},
			{
				"x": 3.3658313285,
				"y": 0.488392974,
				"z": 0.6739626536,
				"element": "N" 
			},
			{
				"x": 4.1187966898,
				"y": 1.0329150295,
				"z": -0.1714888451,
				"element": "O" 
			},
			{
				"x": 3.7639367027,
				"y": 0.0225670064,
				"z": 1.7234092692,
				"element": "O" 
			},
			{
				"x": -1.736980322,
				"y": -0.2414560272,
				"z": 2.5072253016,
				"element": "H" 
			},
			{
				"x": -0.3318846713,
				"y": -1.2377731823,
				"z": 2.9447716747,
				"element": "H" 
			},
			{
				"x": -1.4909999516,
				"y": -1.8022609513,
				"z": 1.7215727433,
				"element": "H" 
			},
			{
				"x": -1.7882276046,
				"y": 0.1604986069,
				"z": -0.2893154401,
				"element": "H" 
			},
			{
				"x": -0.3336992395,
				"y": 1.2547401473,
				"z": -2.0070412297,
				"element": "H" 
			},
			{
				"x": 3.1416839668,
				"y": 1.5255063483,
				"z": -1.4559787615,
				"element": "H" 
			}
		],
		 "valence_orbital": [ 
			{
				"type": "occ",
				"energy": -0.32034,
				"method": "rhf"
			},
			{
				"type": "occ",
				"energy": -0.30856,
				"method": "rhf"
			},
			{
				"type": "occ",
				"energy": -0.30733,
				"method": "rhf"
			},
			{
				"type": "occ",
				"energy": -0.28269,
				"method": "rhf"
			},
			{
				"type": "occ",
				"energy": -0.25491,
				"method": "rhf"
			},
			{
				"type": "unocc",
				"energy": -0.10039,
				"method": "rhf"
			},
			{
				"type": "unocc",
				"energy": -0.03252,
				"method": "rhf"
			},
			{
				"type": "unocc",
				"energy": -0.01068,
				"method": "rhf"
			},
			{
				"type": "unocc",
				"energy": 0.08302,
				"method": "rhf"
			},
			{
				"type": "unocc",
				"energy": 0.11275,
				"method": "rhf"
			}
		],
		"cosmo_sigma_profile": { 
			"-0.025": 0.0,
			"-0.024": 0.0,
			"-0.023": 0.0,
			"-0.022": 0.0,
			"-0.021": 0.0,
			"-0.02": 0.0,
			"-0.019": 0.0,
			"-0.018": 0.0,
			"-0.017": 0.0,
			"-0.016": 0.0,
			"-0.015": 0.0,
			"-0.014": 0.0,
			"-0.013": 0.0,
			"-0.012": 0.0,
			"-0.011": 0.0461929306026,
			"-0.01": 0.602373216192,
			"-0.009": 1.60187165505,
			"-0.008": 6.26287302035,
			"-0.007": 8.26322373541,
			"-0.006": 7.73716286567,
			"-0.005": 13.3906579307,
			"-0.004": 12.986302158,
			"-0.003": 12.7482356284,
			"-0.002": 16.0433361264,
			"-0.001": 18.7261271962,
			"0.0": 13.9503877102,
			"0.001": 7.53118778854,
			"0.002": 4.83752218866,
			"0.003": 5.167659648,
			"0.004": 4.21975828386,
			"0.005": 5.22835223537,
			"0.006": 5.55252825803,
			"0.007": 8.42904161764,
			"0.008": 8.05641804167,
			"0.009": 6.48866198549,
			"0.01": 3.06095792337,
			"0.011": 1.21262188987,
			"0.012": 1.01705758927,
			"0.013": 0.812722723868,
			"0.014": 0.846514620066,
			"0.015": 0.706681223803,
			"0.016": 0.119148077292,
			"0.017": 0.0,
			"0.018": 0.0,
			"0.019": 0.0,
			"0.02": 0.0,
			"0.021": 0.0,
			"0.022": 0.0,
			"0.023": 0.0,
			"0.024": 0.0,
			"0.025": 0.0
		}
	}
}
