{
	 "smiles": "CC1=NC(=CC=N1)C(O)=O", 
	 "Tm": 480.15, 
	 "num_atms": 16, 
	 "gaussian": { 
		 "optdone": 1, 
		 "sigma_profile": "yes", 
		 "theory": "DFT", 
		 "functional": "B3LYP", 
		 "basiset": "6-31G**", 
		 "properties": { 
			 "R2extent": 1727.105, 
			 "electric_dipole_moment_norm": 2.65057472258, 
			 "electric_quadrupole_moment_norm": 8.62291022045, 
			 "total_energy": -492.214169124, 
			 "HOMO_LUMO_gap": 0.18058, 
			 "cosmo_polarized_energy": -13.29, 
			 "cosmo_cavitation_energy": 21.2, 
			 "cosmo_dispersion_energy": -15.79, 
			 "cosmo_repulsion_energy": 1.3, 
			 "cosmo_total_nonelectrostatic_energy": 6.71, 
			 "SMD_solvation_energy": 2.61 
		},
		"coords": [
			{
				"x": -1.6783719959,
				"y": 0.9144393685,
				"z": -3.1478041209,
				"element": "C" 
			},
			{
				"x": -0.8872589965,
				"y": 0.8791757665,
				"z": -1.869381075,
				"element": "C" 
			},
			{
				"x": 0.0222308109,
				"y": -0.0928853651,
				"z": -1.7273363422,
				"element": "N" 
			},
			{
				"x": 0.7182170877,
				"y": -0.1105973426,
				"z": -0.5835510728,
				"element": "C" 
			},
			{
				"x": 0.5201260511,
				"y": 0.830583275,
				"z": 0.4252982402,
				"element": "C" 
			},
			{
				"x": -0.452477882,
				"y": 1.7992497331,
				"z": 0.1728405037,
				"element": "C" 
			},
			{
				"x": -1.1569048229,
				"y": 1.8358149636,
				"z": -0.9582399593,
				"element": "N" 
			},
			{
				"x": 1.734396166,
				"y": -1.2174201807,
				"z": -0.4541949389,
				"element": "C" 
			},
			{
				"x": 2.390136627,
				"y": -1.1553006852,
				"z": 0.7325579699,
				"element": "O" 
			},
			{
				"x": 1.9553737355,
				"y": -2.0635606258,
				"z": -1.286346236,
				"element": "O" 
			},
			{
				"x": -1.3742504275,
				"y": 0.0984540284,
				"z": -3.8035601583,
				"element": "H" 
			},
			{
				"x": -2.7485143554,
				"y": 0.8326438746,
				"z": -2.9317575325,
				"element": "H" 
			},
			{
				"x": -1.5286067137,
				"y": 1.8713665176,
				"z": -3.6580736367,
				"element": "H" 
			},
			{
				"x": 1.0874031215,
				"y": 0.8087664925,
				"z": 1.3466806218,
				"element": "H" 
			},
			{
				"x": -0.6717805482,
				"y": 2.5727349782,
				"z": 0.9072740148,
				"element": "H" 
			},
			{
				"x": 3.0175821426,
				"y": -1.8968647988,
				"z": 0.7301937222,
				"element": "H" 
			}
		],
		 "valence_orbital": [ 
			{
				"type": "occ",
				"energy": -0.31888,
				"method": "rhf"
			},
			{
				"type": "occ",
				"energy": -0.30915,
				"method": "rhf"
			},
			{
				"type": "occ",
				"energy": -0.28692,
				"method": "rhf"
			},
			{
				"type": "occ",
				"energy": -0.28567,
				"method": "rhf"
			},
			{
				"type": "occ",
				"energy": -0.25709,
				"method": "rhf"
			},
			{
				"type": "unocc",
				"energy": -0.07651,
				"method": "rhf"
			},
			{
				"type": "unocc",
				"energy": -0.03436,
				"method": "rhf"
			},
			{
				"type": "unocc",
				"energy": 0.03638,
				"method": "rhf"
			},
			{
				"type": "unocc",
				"energy": 0.06984,
				"method": "rhf"
			},
			{
				"type": "unocc",
				"energy": 0.10955,
				"method": "rhf"
			}
		],
		"cosmo_sigma_profile": { 
			"-0.025": 0.0,
			"-0.024": 0.0,
			"-0.023": 0.0,
			"-0.022": 0.0,
			"-0.021": 0.0,
			"-0.02": 0.0,
			"-0.019": 0.487189438762,
			"-0.018": 0.98282264185,
			"-0.017": 1.11372370524,
			"-0.016": 0.676370800654,
			"-0.015": 0.759272033776,
			"-0.014": 0.399709989207,
			"-0.013": 0.445606967281,
			"-0.012": 1.05690653706,
			"-0.011": 1.01871704062,
			"-0.01": 0.324207371765,
			"-0.009": 1.07855350395,
			"-0.008": 5.02852937412,
			"-0.007": 5.33776255626,
			"-0.006": 4.82608609662,
			"-0.005": 9.13178076839,
			"-0.004": 11.4749996606,
			"-0.003": 14.9659743476,
			"-0.002": 19.0226451382,
			"-0.001": 20.714150857,
			"0.0": 11.4600152649,
			"0.001": 4.77750165045,
			"0.002": 6.16442965582,
			"0.003": 4.76628375398,
			"0.004": 4.81576821436,
			"0.005": 4.92182958654,
			"0.006": 3.71396614572,
			"0.007": 4.51193640101,
			"0.008": 3.1118880992,
			"0.009": 2.68595676532,
			"0.01": 4.38035059561,
			"0.011": 6.00614228361,
			"0.012": 3.00531935616,
			"0.013": 2.12193060775,
			"0.014": 1.4162882044,
			"0.015": 1.92085457879,
			"0.016": 0.825849280894,
			"0.017": 0.256352430566,
			"0.018": 0.0,
			"0.019": 0.0,
			"0.02": 0.0,
			"0.021": 0.0,
			"0.022": 0.0,
			"0.023": 0.0,
			"0.024": 0.0,
			"0.025": 0.0
		}
	}
}
