{
	 "smiles": "NC1=C(N2C=NC=N2)C(Cl)=CC=C1", 
	 "Tm": 396.15, 
	 "num_atms": 20, 
	 "gaussian": { 
		 "optdone": 1, 
		 "sigma_profile": "yes", 
		 "theory": "DFT", 
		 "functional": "B3LYP", 
		 "basiset": "6-31G**", 
		 "properties": { 
			 "R2extent": 2812.572, 
			 "electric_dipole_moment_norm": 3.70425984375, 
			 "electric_quadrupole_moment_norm": 10.4997621397, 
			 "total_energy": -988.250266271, 
			 "HOMO_LUMO_gap": 0.18705, 
			 "cosmo_polarized_energy": -11.39, 
			 "cosmo_cavitation_energy": 25.9, 
			 "cosmo_dispersion_energy": -19.21, 
			 "cosmo_repulsion_energy": 1.49, 
			 "cosmo_total_nonelectrostatic_energy": 8.18, 
			 "SMD_solvation_energy": 2.44 
		},
		"coords": [
			{
				"x": -2.6086996751,
				"y": -1.6762806254,
				"z": 0.0788360719,
				"element": "N" 
			},
			{
				"x": -1.8937954843,
				"y": -0.5031062792,
				"z": -0.0685524603,
				"element": "C" 
			},
			{
				"x": -0.5546429429,
				"y": -0.5299572466,
				"z": -0.5357226759,
				"element": "C" 
			},
			{
				"x": 0.0348409931,
				"y": -1.7870779487,
				"z": -0.8517288002,
				"element": "N" 
			},
			{
				"x": 1.1692940747,
				"y": -2.3568741569,
				"z": -0.3694790084,
				"element": "C" 
			},
			{
				"x": 1.3474734186,
				"y": -3.556611673,
				"z": -0.8900241197,
				"element": "N" 
			},
			{
				"x": 0.2624096931,
				"y": -3.6928177683,
				"z": -1.7010674643,
				"element": "C" 
			},
			{
				"x": -0.5669063256,
				"y": -2.6604433917,
				"z": -1.7196918518,
				"element": "N" 
			},
			{
				"x": 0.1587894597,
				"y": 0.6712000618,
				"z": -0.662384293,
				"element": "C" 
			},
			{
				"x": 1.7917845586,
				"y": 0.6746984455,
				"z": -1.3096328232,
				"element": "Cl" 
			},
			{
				"x": -0.4015392957,
				"y": 1.8923937203,
				"z": -0.2966439539,
				"element": "C" 
			},
			{
				"x": -1.7106455141,
				"y": 1.9087560202,
				"z": 0.1859902189,
				"element": "C" 
			},
			{
				"x": -2.4494381962,
				"y": 0.737945566,
				"z": 0.2910591128,
				"element": "C" 
			},
			{
				"x": -2.3528131753,
				"y": -2.4170229446,
				"z": -0.563696679,
				"element": "H" 
			},
			{
				"x": -3.6053758673,
				"y": -1.5593458066,
				"z": 0.190288274,
				"element": "H" 
			},
			{
				"x": 1.8144145093,
				"y": -1.861115467,
				"z": 0.3405415889,
				"element": "H" 
			},
			{
				"x": 0.0750726323,
				"y": -4.5762365512,
				"z": -2.2962969402,
				"element": "H" 
			},
			{
				"x": 0.1753197987,
				"y": 2.8028788789,
				"z": -0.4012055789,
				"element": "H" 
			},
			{
				"x": -2.1620962238,
				"y": 2.8541371673,
				"z": 0.471433254,
				"element": "H" 
			},
			{
				"x": -3.4714464378,
				"y": 0.7663799992,
				"z": 0.658278128,
				"element": "H" 
			}
		],
		 "valence_orbital": [ 
			{
				"type": "occ",
				"energy": -0.30511,
				"method": "rhf"
			},
			{
				"type": "occ",
				"energy": -0.28384,
				"method": "rhf"
			},
			{
				"type": "occ",
				"energy": -0.2771,
				"method": "rhf"
			},
			{
				"type": "occ",
				"energy": -0.25113,
				"method": "rhf"
			},
			{
				"type": "occ",
				"energy": -0.21986,
				"method": "rhf"
			},
			{
				"type": "unocc",
				"energy": -0.03281,
				"method": "rhf"
			},
			{
				"type": "unocc",
				"energy": -0.00809,
				"method": "rhf"
			},
			{
				"type": "unocc",
				"energy": 0.00907,
				"method": "rhf"
			},
			{
				"type": "unocc",
				"energy": 0.01994,
				"method": "rhf"
			},
			{
				"type": "unocc",
				"energy": 0.04818,
				"method": "rhf"
			}
		],
		"cosmo_sigma_profile": { 
			"-0.025": 0.0,
			"-0.024": 0.0,
			"-0.023": 0.0,
			"-0.022": 0.0,
			"-0.021": 0.0,
			"-0.02": 0.0,
			"-0.019": 0.0,
			"-0.018": 0.0,
			"-0.017": 0.0,
			"-0.016": 0.0,
			"-0.015": 0.0,
			"-0.014": 0.158413581076,
			"-0.013": 1.48955995873,
			"-0.012": 1.15319377049,
			"-0.011": 1.60404423165,
			"-0.01": 3.91945254483,
			"-0.009": 5.62826162675,
			"-0.008": 5.58257438744,
			"-0.007": 8.01375678492,
			"-0.006": 10.5444137222,
			"-0.005": 9.1833778334,
			"-0.004": 9.68446485519,
			"-0.003": 9.29058970271,
			"-0.002": 11.045839307,
			"-0.001": 10.8848129095,
			"0.0": 15.9891656781,
			"0.001": 20.237119108,
			"0.002": 19.7093655339,
			"0.003": 19.2300009157,
			"0.004": 18.389113998,
			"0.005": 5.40151456186,
			"0.006": 2.89756835562,
			"0.007": 3.33634603062,
			"0.008": 2.76697183234,
			"0.009": 2.39839409957,
			"0.01": 3.25268980027,
			"0.011": 1.7948417336,
			"0.012": 2.58060470901,
			"0.013": 1.73700040978,
			"0.014": 0.738044362687,
			"0.015": 1.1869070629,
			"0.016": 0.759912150216,
			"0.017": 0.0461048960247,
			"0.018": 0.0,
			"0.019": 0.0,
			"0.02": 0.0,
			"0.021": 0.0,
			"0.022": 0.0,
			"0.023": 0.0,
			"0.024": 0.0,
			"0.025": 0.0
		}
	}
}
