{
	 "smiles": "COC1=CC=C(NC(=O)N(C)C)C=C1Cl", 
	 "Tm": 400.15, 
	 "num_atms": 28, 
	 "gaussian": { 
		 "optdone": 1, 
		 "sigma_profile": "yes", 
		 "theory": "DFT", 
		 "functional": "B3LYP", 
		 "basiset": "6-31G**", 
		 "properties": { 
			 "R2extent": 4797.0063, 
			 "electric_dipole_moment_norm": 3.73249407501, 
			 "electric_quadrupole_moment_norm": 11.6735495973, 
			 "total_energy": -1109.03831646, 
			 "HOMO_LUMO_gap": 0.19937, 
			 "cosmo_polarized_energy": -13.21, 
			 "cosmo_cavitation_energy": 33.08, 
			 "cosmo_dispersion_energy": -23.31, 
			 "cosmo_repulsion_energy": 1.84, 
			 "cosmo_total_nonelectrostatic_energy": 11.62, 
			 "SMD_solvation_energy": 7.49 
		},
		"coords": [
			{
				"x": 4.995774876,
				"y": 0.0992353444,
				"z": -1.1650714136,
				"element": "C" 
			},
			{
				"x": 3.8041586423,
				"y": 0.6700108527,
				"z": -1.7118354583,
				"element": "O" 
			},
			{
				"x": 2.7295655666,
				"y": 0.6917644677,
				"z": -0.8600931516,
				"element": "C" 
			},
			{
				"x": 2.4608304131,
				"y": 1.834711927,
				"z": -0.1007359189,
				"element": "C" 
			},
			{
				"x": 1.3549181219,
				"y": 1.8992999919,
				"z": 0.7391289882,
				"element": "C" 
			},
			{
				"x": 0.4674485291,
				"y": 0.8149447025,
				"z": 0.8324710063,
				"element": "C" 
			},
			{
				"x": -0.656006384,
				"y": 0.948915691,
				"z": 1.6805725882,
				"element": "N" 
			},
			{
				"x": -1.662276131,
				"y": 0.0081765425,
				"z": 1.9711145128,
				"element": "C" 
			},
			{
				"x": -2.8385568657,
				"y": 0.3527183328,
				"z": 1.9613491786,
				"element": "O" 
			},
			{
				"x": -1.2513617078,
				"y": -1.2713842793,
				"z": 2.2798622866,
				"element": "N" 
			},
			{
				"x": 0.0219627728,
				"y": -1.5701617554,
				"z": 2.9272819484,
				"element": "C" 
			},
			{
				"x": -2.3003247393,
				"y": -2.2622358024,
				"z": 2.4901426047,
				"element": "C" 
			},
			{
				"x": 0.714196112,
				"y": -0.3304018524,
				"z": 0.0629541695,
				"element": "C" 
			},
			{
				"x": 1.8387649642,
				"y": -0.3856853461,
				"z": -0.7586338823,
				"element": "C" 
			},
			{
				"x": 2.1142628667,
				"y": -1.8311204578,
				"z": -1.7146795121,
				"element": "Cl" 
			},
			{
				"x": 5.7558195506,
				"y": 0.1693262063,
				"z": -1.9454773135,
				"element": "H" 
			},
			{
				"x": 5.3304349233,
				"y": 0.6556844729,
				"z": -0.2799141452,
				"element": "H" 
			},
			{
				"x": 4.8493237955,
				"y": -0.9532662099,
				"z": -0.8962748366,
				"element": "H" 
			},
			{
				"x": 3.1401757719,
				"y": 2.6769007135,
				"z": -0.1871649904,
				"element": "H" 
			},
			{
				"x": 1.1722736017,
				"y": 2.7923095414,
				"z": 1.3300391846,
				"element": "H" 
			},
			{
				"x": -1.0727498813,
				"y": 1.8712915634,
				"z": 1.667223761,
				"element": "H" 
			},
			{
				"x": -0.1528547574,
				"y": -1.8922548724,
				"z": 3.9628370451,
				"element": "H" 
			},
			{
				"x": 0.5517080251,
				"y": -2.3740764607,
				"z": 2.403332035,
				"element": "H" 
			},
			{
				"x": 0.6598046484,
				"y": -0.6890960037,
				"z": 2.9478454878,
				"element": "H" 
			},
			{
				"x": -3.1646218651,
				"y": -2.0073124857,
				"z": 1.8791547425,
				"element": "H" 
			},
			{
				"x": -2.6189020969,
				"y": -2.2986426824,
				"z": 3.5413392836,
				"element": "H" 
			},
			{
				"x": -1.9235293156,
				"y": -3.2499593204,
				"z": 2.2057973691,
				"element": "H" 
			},
			{
				"x": 0.0311605629,
				"y": -1.1694928214,
				"z": 0.0911344306,
				"element": "H" 
			}
		],
		 "valence_orbital": [ 
			{
				"type": "occ",
				"energy": -0.27868,
				"method": "rhf"
			},
			{
				"type": "occ",
				"energy": -0.268,
				"method": "rhf"
			},
			{
				"type": "occ",
				"energy": -0.25473,
				"method": "rhf"
			},
			{
				"type": "occ",
				"energy": -0.24216,
				"method": "rhf"
			},
			{
				"type": "occ",
				"energy": -0.21903,
				"method": "rhf"
			},
			{
				"type": "unocc",
				"energy": -0.01966,
				"method": "rhf"
			},
			{
				"type": "unocc",
				"energy": -0.01102,
				"method": "rhf"
			},
			{
				"type": "unocc",
				"energy": 0.02707,
				"method": "rhf"
			},
			{
				"type": "unocc",
				"energy": 0.0447,
				"method": "rhf"
			},
			{
				"type": "unocc",
				"energy": 0.08602,
				"method": "rhf"
			}
		],
		"cosmo_sigma_profile": { 
			"-0.025": 0.0,
			"-0.024": 0.0,
			"-0.023": 0.0,
			"-0.022": 0.0,
			"-0.021": 0.0,
			"-0.02": 0.0,
			"-0.019": 0.0,
			"-0.018": 0.0,
			"-0.017": 0.0,
			"-0.016": 0.0,
			"-0.015": 0.0247875604716,
			"-0.014": 0.636536484881,
			"-0.013": 0.830452625449,
			"-0.012": 0.857133083266,
			"-0.011": 1.32131407038,
			"-0.01": 1.07149167403,
			"-0.009": 1.06557550218,
			"-0.008": 1.53852763172,
			"-0.007": 3.09531444427,
			"-0.006": 6.26386893619,
			"-0.005": 16.5409794826,
			"-0.004": 28.1331506785,
			"-0.003": 31.2419371901,
			"-0.002": 31.0204451538,
			"-0.001": 20.7988516478,
			"0.0": 16.4456575755,
			"0.001": 15.1384188361,
			"0.002": 18.2142444095,
			"0.003": 18.5756327206,
			"0.004": 13.0402529615,
			"0.005": 8.55713600178,
			"0.006": 3.43452642668,
			"0.007": 3.46032397709,
			"0.008": 2.84391311932,
			"0.009": 2.34618964632,
			"0.01": 2.52955723938,
			"0.011": 3.5792008698,
			"0.012": 2.47038060451,
			"0.013": 3.45862293752,
			"0.014": 5.07051874537,
			"0.015": 0.389162156326,
			"0.016": 0.0,
			"0.017": 0.0,
			"0.018": 0.0,
			"0.019": 0.0,
			"0.02": 0.0,
			"0.021": 0.0,
			"0.022": 0.0,
			"0.023": 0.0,
			"0.024": 0.0,
			"0.025": 0.0
		}
	}
}
