{
	 "smiles": "OCC1=CC(F)=CC(CO)=C1O", 
	 "Tm": 393.15, 
	 "num_atms": 21, 
	 "gaussian": { 
		 "optdone": 1, 
		 "sigma_profile": "yes", 
		 "theory": "DFT", 
		 "functional": "B3LYP", 
		 "basiset": "6-31G**", 
		 "properties": { 
			 "R2extent": 3417.5904, 
			 "electric_dipole_moment_norm": 4.41528113941, 
			 "electric_quadrupole_moment_norm": 15.5780556479, 
			 "total_energy": -635.761068985, 
			 "HOMO_LUMO_gap": 0.19863, 
			 "cosmo_polarized_energy": -13.99, 
			 "cosmo_cavitation_energy": 24.92, 
			 "cosmo_dispersion_energy": -18.59, 
			 "cosmo_repulsion_energy": 1.48, 
			 "cosmo_total_nonelectrostatic_energy": 7.81, 
			 "SMD_solvation_energy": 5.08 
		},
		"coords": [
			{
				"x": -1.6012437807,
				"y": 1.2075934798,
				"z": -1.18040761,
				"element": "O" 
			},
			{
				"x": -0.4981831438,
				"y": 0.6552983252,
				"z": -0.4765435515,
				"element": "C" 
			},
			{
				"x": -0.767667538,
				"y": -0.7278989856,
				"z": 0.0841828676,
				"element": "C" 
			},
			{
				"x": -1.8474529415,
				"y": -1.4887903221,
				"z": -0.3661989379,
				"element": "C" 
			},
			{
				"x": -2.0785060556,
				"y": -2.7437273398,
				"z": 0.1821979453,
				"element": "C" 
			},
			{
				"x": -3.1380790538,
				"y": -3.4682417247,
				"z": -0.2487078335,
				"element": "F" 
			},
			{
				"x": -1.2552886441,
				"y": -3.2748770494,
				"z": 1.1639319503,
				"element": "C" 
			},
			{
				"x": -0.153323017,
				"y": -2.5364582813,
				"z": 1.6089012723,
				"element": "C" 
			},
			{
				"x": 0.8184000615,
				"y": -3.1380419319,
				"z": 2.5924962913,
				"element": "C" 
			},
			{
				"x": 1.173296197,
				"y": -2.1506306116,
				"z": 3.5813549761,
				"element": "O" 
			},
			{
				"x": 0.0818886874,
				"y": -1.2574525902,
				"z": 1.0711398956,
				"element": "C" 
			},
			{
				"x": 1.140188045,
				"y": -0.4921028118,
				"z": 1.4725345416,
				"element": "O" 
			},
			{
				"x": -2.3133665508,
				"y": 1.344572416,
				"z": -0.5415297142,
				"element": "H" 
			},
			{
				"x": -0.1567697311,
				"y": 1.3127643491,
				"z": 0.3351524683,
				"element": "H" 
			},
			{
				"x": 0.3226935402,
				"y": 0.6114814037,
				"z": -1.2019912663,
				"element": "H" 
			},
			{
				"x": -2.5050382856,
				"y": -1.0942112549,
				"z": -1.1324510635,
				"element": "H" 
			},
			{
				"x": -1.4700999815,
				"y": -4.2586540203,
				"z": 1.5693279655,
				"element": "H" 
			},
			{
				"x": 1.7259603433,
				"y": -3.470967916,
				"z": 2.064653006,
				"element": "H" 
			},
			{
				"x": 0.3707850446,
				"y": -4.016433313,
				"z": 3.0744586304,
				"element": "H" 
			},
			{
				"x": 1.9257853901,
				"y": -2.4844203401,
				"z": 4.0868516698,
				"element": "H" 
			},
			{
				"x": 1.4194214144,
				"y": -0.8308014811,
				"z": 2.345946497,
				"element": "H" 
			}
		],
		 "valence_orbital": [ 
			{
				"type": "occ",
				"energy": -0.32126,
				"method": "rhf"
			},
			{
				"type": "occ",
				"energy": -0.30158,
				"method": "rhf"
			},
			{
				"type": "occ",
				"energy": -0.2731,
				"method": "rhf"
			},
			{
				"type": "occ",
				"energy": -0.24728,
				"method": "rhf"
			},
			{
				"type": "occ",
				"energy": -0.21095,
				"method": "rhf"
			},
			{
				"type": "unocc",
				"energy": -0.01232,
				"method": "rhf"
			},
			{
				"type": "unocc",
				"energy": 0.01361,
				"method": "rhf"
			},
			{
				"type": "unocc",
				"energy": 0.05427,
				"method": "rhf"
			},
			{
				"type": "unocc",
				"energy": 0.08604,
				"method": "rhf"
			},
			{
				"type": "unocc",
				"energy": 0.09803,
				"method": "rhf"
			}
		],
		"cosmo_sigma_profile": { 
			"-0.025": 0.0,
			"-0.024": 0.0,
			"-0.023": 0.0,
			"-0.022": 0.0,
			"-0.021": 0.0,
			"-0.02": 0.0,
			"-0.019": 0.0,
			"-0.018": 0.0,
			"-0.017": 0.950773589441,
			"-0.016": 1.50447904923,
			"-0.015": 2.12736880843,
			"-0.014": 1.55846352032,
			"-0.013": 2.28576463136,
			"-0.012": 1.2958341843,
			"-0.011": 2.11014765478,
			"-0.01": 1.33920936223,
			"-0.009": 2.10467850259,
			"-0.008": 2.47459764091,
			"-0.007": 6.15926532306,
			"-0.006": 10.0409220631,
			"-0.005": 12.9245945833,
			"-0.004": 12.6419261669,
			"-0.003": 10.1923584882,
			"-0.002": 9.17446876284,
			"-0.001": 7.23579212942,
			"0.0": 8.74791905839,
			"0.001": 10.706206744,
			"0.002": 15.3187293498,
			"0.003": 15.6774584945,
			"0.004": 19.6455312464,
			"0.005": 14.1071735911,
			"0.006": 3.248186408,
			"0.007": 3.93152915889,
			"0.008": 4.00404082158,
			"0.009": 2.76299890083,
			"0.01": 3.14360357007,
			"0.011": 3.43607551324,
			"0.012": 2.0853363911,
			"0.013": 2.22881269067,
			"0.014": 1.60023965505,
			"0.015": 0.0148534660434,
			"0.016": 0.0,
			"0.017": 0.0,
			"0.018": 0.0,
			"0.019": 0.0,
			"0.02": 0.0,
			"0.021": 0.0,
			"0.022": 0.0,
			"0.023": 0.0,
			"0.024": 0.0,
			"0.025": 0.0
		}
	}
}
