{
	 "smiles": "OC(=O)C1=CC=C(NC2=C3C=CC=CC3=NC=N2)C=C1", 
	 "Tm": 619.15, 
	 "num_atms": 31, 
	 "gaussian": { 
		 "optdone": 1, 
		 "sigma_profile": "yes", 
		 "theory": "DFT", 
		 "functional": "B3LYP", 
		 "basiset": "6-31G**", 
		 "properties": { 
			 "R2extent": 8158.7171, 
			 "electric_dipole_moment_norm": 5.23331808798, 
			 "electric_quadrupole_moment_norm": 5.34559490141, 
			 "total_energy": -892.967125751, 
			 "HOMO_LUMO_gap": 0.15309, 
			 "cosmo_polarized_energy": -19.08, 
			 "cosmo_cavitation_energy": 36.06, 
			 "cosmo_dispersion_energy": -26.86, 
			 "cosmo_repulsion_energy": 2.0, 
			 "cosmo_total_nonelectrostatic_energy": 11.19, 
			 "SMD_solvation_energy": 4.85 
		},
		"coords": [
			{
				"x": -3.8244890784,
				"y": 4.1192225671,
				"z": -2.7075216773,
				"element": "O" 
			},
			{
				"x": -2.7665423766,
				"y": 3.4187795441,
				"z": -3.1971636347,
				"element": "C" 
			},
			{
				"x": -2.3754251992,
				"y": 3.5653248923,
				"z": -4.3395549096,
				"element": "O" 
			},
			{
				"x": -2.1742746387,
				"y": 2.4927317213,
				"z": -2.2053357069,
				"element": "C" 
			},
			{
				"x": -1.0757295611,
				"y": 1.7134406987,
				"z": -2.5903253831,
				"element": "C" 
			},
			{
				"x": -0.4704613769,
				"y": 0.8236342922,
				"z": -1.7107118639,
				"element": "C" 
			},
			{
				"x": -0.9707676992,
				"y": 0.7003741424,
				"z": -0.4014781183,
				"element": "C" 
			},
			{
				"x": -0.4477614319,
				"y": -0.1600600487,
				"z": 0.5756530665,
				"element": "N" 
			},
			{
				"x": 0.6016362697,
				"y": -1.0476697333,
				"z": 0.5505569062,
				"element": "C" 
			},
			{
				"x": 0.9032405415,
				"y": -1.8087648068,
				"z": 1.7446405758,
				"element": "C" 
			},
			{
				"x": 0.2063433029,
				"y": -1.7299470845,
				"z": 2.9750415612,
				"element": "C" 
			},
			{
				"x": 0.5866026893,
				"y": -2.5083375487,
				"z": 4.0495980789,
				"element": "C" 
			},
			{
				"x": 1.679419081,
				"y": -3.3961067695,
				"z": 3.9344819009,
				"element": "C" 
			},
			{
				"x": 2.3752526336,
				"y": -3.492830603,
				"z": 2.749115318,
				"element": "C" 
			},
			{
				"x": 2.0057668846,
				"y": -2.7049951246,
				"z": 1.6303889922,
				"element": "C" 
			},
			{
				"x": 2.7268284283,
				"y": -2.8346795505,
				"z": 0.4726004731,
				"element": "N" 
			},
			{
				"x": 2.337368439,
				"y": -2.07999899,
				"z": -0.5266793681,
				"element": "C" 
			},
			{
				"x": 1.3140948228,
				"y": -1.191537791,
				"z": -0.5559652296,
				"element": "N" 
			},
			{
				"x": -2.076249576,
				"y": 1.4836361696,
				"z": -0.0119495713,
				"element": "C" 
			},
			{
				"x": -2.6705943176,
				"y": 2.3672416258,
				"z": -0.8991311212,
				"element": "C" 
			},
			{
				"x": -4.1225452307,
				"y": 4.6834293918,
				"z": -3.4394564484,
				"element": "H" 
			},
			{
				"x": -0.6993621358,
				"y": 1.8176993416,
				"z": -3.6025317979,
				"element": "H" 
			},
			{
				"x": 0.3758586428,
				"y": 0.2252498254,
				"z": -2.0120591771,
				"element": "H" 
			},
			{
				"x": -0.9381787833,
				"y": -0.1104158476,
				"z": 1.4546874891,
				"element": "H" 
			},
			{
				"x": -0.6392262362,
				"y": -1.0589054158,
				"z": 3.1020575166,
				"element": "H" 
			},
			{
				"x": 0.043649584,
				"y": -2.4380115007,
				"z": 4.987046556,
				"element": "H" 
			},
			{
				"x": 1.9689316371,
				"y": -4.0033418144,
				"z": 4.7870783678,
				"element": "H" 
			},
			{
				"x": 3.2184524787,
				"y": -4.1648079622,
				"z": 2.6297075344,
				"element": "H" 
			},
			{
				"x": 2.8960910815,
				"y": -2.1662375508,
				"z": -1.457262744,
				"element": "H" 
			},
			{
				"x": -2.4687042397,
				"y": 1.3937059703,
				"z": 0.9988450811,
				"element": "H" 
			},
			{
				"x": -3.5200246354,
				"y": 2.9629779595,
				"z": -0.5853726664,
				"element": "H" 
			}
		],
		 "valence_orbital": [ 
			{
				"type": "occ",
				"energy": -0.27228,
				"method": "rhf"
			},
			{
				"type": "occ",
				"energy": -0.26278,
				"method": "rhf"
			},
			{
				"type": "occ",
				"energy": -0.25359,
				"method": "rhf"
			},
			{
				"type": "occ",
				"energy": -0.25322,
				"method": "rhf"
			},
			{
				"type": "occ",
				"energy": -0.21977,
				"method": "rhf"
			},
			{
				"type": "unocc",
				"energy": -0.06668,
				"method": "rhf"
			},
			{
				"type": "unocc",
				"energy": -0.03469,
				"method": "rhf"
			},
			{
				"type": "unocc",
				"energy": -0.03216,
				"method": "rhf"
			},
			{
				"type": "unocc",
				"energy": -0.01029,
				"method": "rhf"
			},
			{
				"type": "unocc",
				"energy": 0.01767,
				"method": "rhf"
			}
		],
		"cosmo_sigma_profile": { 
			"-0.025": 0.0,
			"-0.024": 0.0,
			"-0.023": 0.0,
			"-0.022": 0.0,
			"-0.021": 0.0,
			"-0.02": 0.0,
			"-0.019": 0.0,
			"-0.018": 0.539968474169,
			"-0.017": 1.12492446953,
			"-0.016": 1.97886187481,
			"-0.015": 2.07433837875,
			"-0.014": 1.73619371012,
			"-0.013": 2.69078020392,
			"-0.012": 1.68948853374,
			"-0.011": 2.26542245099,
			"-0.01": 1.89793315508,
			"-0.009": 2.46900996036,
			"-0.008": 3.0271728133,
			"-0.007": 7.3755106887,
			"-0.006": 15.1778660025,
			"-0.005": 14.7386990047,
			"-0.004": 13.9328156605,
			"-0.003": 12.1008362804,
			"-0.002": 17.4381059066,
			"-0.001": 18.9813814792,
			"0.0": 21.8680236951,
			"0.001": 27.333589202,
			"0.002": 28.4470900138,
			"0.003": 32.1441720899,
			"0.004": 16.2033864889,
			"0.005": 7.23314490127,
			"0.006": 7.07534184679,
			"0.007": 5.63779619004,
			"0.008": 4.75344484268,
			"0.009": 2.04523542112,
			"0.01": 3.08828852387,
			"0.011": 3.52364489877,
			"0.012": 6.52102367894,
			"0.013": 1.48071523006,
			"0.014": 1.17308169309,
			"0.015": 0.399957414927,
			"0.016": 0.743623753231,
			"0.017": 0.0345931792443,
			"0.018": 0.0,
			"0.019": 0.0,
			"0.02": 0.0,
			"0.021": 0.0,
			"0.022": 0.0,
			"0.023": 0.0,
			"0.024": 0.0,
			"0.025": 0.0
		}
	}
}
