{
	 "smiles": "OC1=CC=C(C=C1)C(=O)C1=CC=C(Cl)C=C1", 
	 "Tm": 452.65, 
	 "num_atms": 25, 
	 "gaussian": { 
		 "optdone": 1, 
		 "sigma_profile": "yes", 
		 "theory": "DFT", 
		 "functional": "B3LYP", 
		 "basiset": "6-31G**", 
		 "properties": { 
			 "R2extent": 5804.9828, 
			 "electric_dipole_moment_norm": 3.95902644093, 
			 "electric_quadrupole_moment_norm": 11.3276644923, 
			 "total_energy": -1111.44817015, 
			 "HOMO_LUMO_gap": 0.17088, 
			 "cosmo_polarized_energy": -13.97, 
			 "cosmo_cavitation_energy": 31.81, 
			 "cosmo_dispersion_energy": -23.33, 
			 "cosmo_repulsion_energy": 1.81, 
			 "cosmo_total_nonelectrostatic_energy": 10.28, 
			 "SMD_solvation_energy": 5.88 
		},
		"coords": [
			{
				"x": 4.3011299309,
				"y": 2.0168797398,
				"z": -2.27712391,
				"element": "O" 
			},
			{
				"x": 3.3068413047,
				"y": 1.6277102762,
				"z": -1.4347173488,
				"element": "C" 
			},
			{
				"x": 2.8017223416,
				"y": 2.5905996463,
				"z": -0.5474559767,
				"element": "C" 
			},
			{
				"x": 1.7918169669,
				"y": 2.2451178123,
				"z": 0.3355734882,
				"element": "C" 
			},
			{
				"x": 1.2395613553,
				"y": 0.9498207556,
				"z": 0.3435791254,
				"element": "C" 
			},
			{
				"x": 1.7627131625,
				"y": -0.0040761447,
				"z": -0.5431215791,
				"element": "C" 
			},
			{
				"x": 2.7906530701,
				"y": 0.3264091463,
				"z": -1.4227979964,
				"element": "C" 
			},
			{
				"x": 0.1911057641,
				"y": 0.6457679326,
				"z": 1.3610143956,
				"element": "C" 
			},
			{
				"x": 0.1108211829,
				"y": 1.3172412493,
				"z": 2.3859070888,
				"element": "O" 
			},
			{
				"x": -0.7800933931,
				"y": -0.4816815424,
				"z": 1.1487659035,
				"element": "C" 
			},
			{
				"x": -1.3160374755,
				"y": -1.1031967129,
				"z": 2.2876896292,
				"element": "C" 
			},
			{
				"x": -2.2578522209,
				"y": -2.1198053889,
				"z": 2.1731435831,
				"element": "C" 
			},
			{
				"x": -2.6911009949,
				"y": -2.5009819255,
				"z": 0.9009404345,
				"element": "C" 
			},
			{
				"x": -3.8852978544,
				"y": -3.7784339803,
				"z": 0.7446371274,
				"element": "Cl" 
			},
			{
				"x": -2.1992115943,
				"y": -1.8805695024,
				"z": -0.2465184857,
				"element": "C" 
			},
			{
				"x": -1.2402878984,
				"y": -0.8760466614,
				"z": -0.1162388217,
				"element": "C" 
			},
			{
				"x": 4.5667078535,
				"y": 1.2697518082,
				"z": -2.829560289,
				"element": "H" 
			},
			{
				"x": 3.2206929983,
				"y": 3.591100287,
				"z": -0.567865977,
				"element": "H" 
			},
			{
				"x": 1.4048038226,
				"y": 2.9709475089,
				"z": 1.0428318951,
				"element": "H" 
			},
			{
				"x": 1.3890350232,
				"y": -1.0222280467,
				"z": -0.5303947345,
				"element": "H" 
			},
			{
				"x": 3.1972516036,
				"y": -0.4266621085,
				"z": -2.0944503737,
				"element": "H" 
			},
			{
				"x": -0.9813122696,
				"y": -0.7696401934,
				"z": 3.2641754079,
				"element": "H" 
			},
			{
				"x": -2.6600468056,
				"y": -2.6094399353,
				"z": 3.0531021672,
				"element": "H" 
			},
			{
				"x": -2.564931117,
				"y": -2.1757171026,
				"z": -1.2236758223,
				"element": "H" 
			},
			{
				"x": -0.8720847567,
				"y": -0.3796669174,
				"z": -1.0076389311,
				"element": "H" 
			}
		],
		 "valence_orbital": [ 
			{
				"type": "occ",
				"energy": -0.2716,
				"method": "rhf"
			},
			{
				"type": "occ",
				"energy": -0.26705,
				"method": "rhf"
			},
			{
				"type": "occ",
				"energy": -0.25842,
				"method": "rhf"
			},
			{
				"type": "occ",
				"energy": -0.24739,
				"method": "rhf"
			},
			{
				"type": "occ",
				"energy": -0.23577,
				"method": "rhf"
			},
			{
				"type": "unocc",
				"energy": -0.06489,
				"method": "rhf"
			},
			{
				"type": "unocc",
				"energy": -0.02333,
				"method": "rhf"
			},
			{
				"type": "unocc",
				"energy": -0.01489,
				"method": "rhf"
			},
			{
				"type": "unocc",
				"energy": -0.01272,
				"method": "rhf"
			},
			{
				"type": "unocc",
				"energy": 0.02548,
				"method": "rhf"
			}
		],
		"cosmo_sigma_profile": { 
			"-0.025": 0.0,
			"-0.024": 0.0,
			"-0.023": 0.0,
			"-0.022": 0.0,
			"-0.021": 0.0,
			"-0.02": 0.0,
			"-0.019": 0.0597435184137,
			"-0.018": 0.930790783755,
			"-0.017": 1.44385851652,
			"-0.016": 1.00280669462,
			"-0.015": 0.853874479871,
			"-0.014": 1.30655940079,
			"-0.013": 0.911000731173,
			"-0.012": 1.03989130292,
			"-0.011": 0.951839952614,
			"-0.01": 1.10355723981,
			"-0.009": 0.857095014192,
			"-0.008": 2.88524981798,
			"-0.007": 7.78039168221,
			"-0.006": 13.7370629962,
			"-0.005": 14.5377831807,
			"-0.004": 14.4005218448,
			"-0.003": 13.8873457861,
			"-0.002": 14.9095285608,
			"-0.001": 16.2018484187,
			"0.0": 17.5014122657,
			"0.001": 22.5620260167,
			"0.002": 28.7721625516,
			"0.003": 27.4309386415,
			"0.004": 21.2676450212,
			"0.005": 6.07109516416,
			"0.006": 3.39586136774,
			"0.007": 3.25865340941,
			"0.008": 3.13018443147,
			"0.009": 3.15138019075,
			"0.01": 3.2002380312,
			"0.011": 3.76494061472,
			"0.012": 4.09832838083,
			"0.013": 1.61588820381,
			"0.014": 0.0,
			"0.015": 0.0,
			"0.016": 0.0,
			"0.017": 0.0,
			"0.018": 0.0,
			"0.019": 0.0,
			"0.02": 0.0,
			"0.021": 0.0,
			"0.022": 0.0,
			"0.023": 0.0,
			"0.024": 0.0,
			"0.025": 0.0
		}
	}
}
