{
	 "smiles": "OCC1OC(C(O)C1O)N1C=NC2=C1N=CNC2=O", 
	 "Tm": 486.15, 
	 "num_atms": 31, 
	 "gaussian": { 
		 "optdone": 1, 
		 "sigma_profile": "yes", 
		 "theory": "DFT", 
		 "functional": "B3LYP", 
		 "basiset": "6-31G**", 
		 "properties": { 
			 "R2extent": 6062.4014, 
			 "electric_dipole_moment_norm": 7.82312874686, 
			 "electric_quadrupole_moment_norm": 36.570384498, 
			 "total_energy": -983.393855885, 
			 "HOMO_LUMO_gap": 0.19125, 
			 "cosmo_polarized_energy": -31.15, 
			 "cosmo_cavitation_energy": 34.1, 
			 "cosmo_dispersion_energy": -24.91, 
			 "cosmo_repulsion_energy": 1.92, 
			 "cosmo_total_nonelectrostatic_energy": 11.11, 
			 "SMD_solvation_energy": 4.89 
		},
		"coords": [
			{
				"x": -1.794751957,
				"y": -1.4430827118,
				"z": 3.3042194861,
				"element": "O" 
			},
			{
				"x": -0.5341859433,
				"y": -0.7615200974,
				"z": 3.3279616657,
				"element": "C" 
			},
			{
				"x": -0.4753657585,
				"y": 0.0672441806,
				"z": 2.0504118213,
				"element": "C" 
			},
			{
				"x": 0.7243474325,
				"y": 0.8722283965,
				"z": 2.1054530177,
				"element": "O" 
			},
			{
				"x": 1.4520782867,
				"y": 0.7947930684,
				"z": 0.9072740388,
				"element": "C" 
			},
			{
				"x": 1.0315104988,
				"y": -0.533514419,
				"z": 0.246563091,
				"element": "C" 
			},
			{
				"x": 1.1931520257,
				"y": -0.4659529409,
				"z": -1.1505406014,
				"element": "O" 
			},
			{
				"x": -0.3974159112,
				"y": -0.7821757514,
				"z": 0.753461318,
				"element": "C" 
			},
			{
				"x": -0.5678135739,
				"y": -2.1788316167,
				"z": 0.9394126779,
				"element": "O" 
			},
			{
				"x": 1.2838879749,
				"y": 1.977679663,
				"z": 0.0583634499,
				"element": "N" 
			},
			{
				"x": 2.3312959791,
				"y": 2.7420257455,
				"z": -0.42281528,
				"element": "C" 
			},
			{
				"x": 1.9586119466,
				"y": 3.7381571335,
				"z": -1.1857157355,
				"element": "N" 
			},
			{
				"x": 0.5871054823,
				"y": 3.63765498,
				"z": -1.2201342579,
				"element": "C" 
			},
			{
				"x": 0.1442392503,
				"y": 2.5527209404,
				"z": -0.4603262864,
				"element": "C" 
			},
			{
				"x": -1.1413699568,
				"y": 2.1471336552,
				"z": -0.2531729532,
				"element": "N" 
			},
			{
				"x": -2.0123105714,
				"y": 2.8966657289,
				"z": -0.8664373399,
				"element": "C" 
			},
			{
				"x": -1.6963025976,
				"y": 3.977569576,
				"z": -1.6346682956,
				"element": "N" 
			},
			{
				"x": -0.3766863941,
				"y": 4.4743106226,
				"z": -1.9003114116,
				"element": "C" 
			},
			{
				"x": -0.2260696846,
				"y": 5.4563357141,
				"z": -2.6048523288,
				"element": "O" 
			},
			{
				"x": -1.8527817589,
				"y": -2.0065114979,
				"z": 4.0856276977,
				"element": "H" 
			},
			{
				"x": -0.456731699,
				"y": -0.0944510566,
				"z": 4.1962124859,
				"element": "H" 
			},
			{
				"x": 0.303586755,
				"y": -1.4703445046,
				"z": 3.3528694059,
				"element": "H" 
			},
			{
				"x": -1.3394130085,
				"y": 0.7369659665,
				"z": 2.0135754244,
				"element": "H" 
			},
			{
				"x": 2.5171302213,
				"y": 0.7910257151,
				"z": 1.1565460525,
				"element": "H" 
			},
			{
				"x": 1.6573572068,
				"y": -1.3253182494,
				"z": 0.6861383441,
				"element": "H" 
			},
			{
				"x": 0.9466530156,
				"y": -1.3273869424,
				"z": -1.5120854849,
				"element": "H" 
			},
			{
				"x": -1.1073579387,
				"y": -0.3849559381,
				"z": 0.0188525737,
				"element": "H" 
			},
			{
				"x": -1.3128405177,
				"y": -2.2923175589,
				"z": 1.55276135,
				"element": "H" 
			},
			{
				"x": 3.3546778706,
				"y": 2.5015130852,
				"z": -0.1654529428,
				"element": "H" 
			},
			{
				"x": -3.0713415195,
				"y": 2.6685528827,
				"z": -0.7765502167,
				"element": "H" 
			},
			{
				"x": -2.4354951555,
				"y": 4.510686231,
				"z": -2.0773407659,
				"element": "H" 
			}
		],
		 "valence_orbital": [ 
			{
				"type": "occ",
				"energy": -0.27348,
				"method": "rhf"
			},
			{
				"type": "occ",
				"energy": -0.2725,
				"method": "rhf"
			},
			{
				"type": "occ",
				"energy": -0.2645,
				"method": "rhf"
			},
			{
				"type": "occ",
				"energy": -0.25514,
				"method": "rhf"
			},
			{
				"type": "occ",
				"energy": -0.2203,
				"method": "rhf"
			},
			{
				"type": "unocc",
				"energy": -0.02905,
				"method": "rhf"
			},
			{
				"type": "unocc",
				"energy": -0.00234,
				"method": "rhf"
			},
			{
				"type": "unocc",
				"energy": 0.03232,
				"method": "rhf"
			},
			{
				"type": "unocc",
				"energy": 0.04429,
				"method": "rhf"
			},
			{
				"type": "unocc",
				"energy": 0.06896,
				"method": "rhf"
			}
		],
		"cosmo_sigma_profile": { 
			"-0.025": 0.0,
			"-0.024": 0.0,
			"-0.023": 0.0,
			"-0.022": 0.0,
			"-0.021": 0.0,
			"-0.02": 0.0,
			"-0.019": 0.0,
			"-0.018": 0.0,
			"-0.017": 1.56938173214,
			"-0.016": 3.37140268972,
			"-0.015": 3.49251566917,
			"-0.014": 3.36686961773,
			"-0.013": 2.6605807362,
			"-0.012": 2.67088490214,
			"-0.011": 5.83040080313,
			"-0.01": 7.14981501857,
			"-0.009": 7.46502809521,
			"-0.008": 7.54065634804,
			"-0.007": 7.19507867201,
			"-0.006": 7.4242986757,
			"-0.005": 12.5092686519,
			"-0.004": 16.4466550782,
			"-0.003": 16.6604035512,
			"-0.002": 17.1564066661,
			"-0.001": 15.6377647208,
			"0.0": 11.2923581589,
			"0.001": 10.8834444016,
			"0.002": 10.4598757768,
			"0.003": 10.2696515396,
			"0.004": 12.8073657517,
			"0.005": 9.68974848242,
			"0.006": 5.91410158382,
			"0.007": 7.98465062561,
			"0.008": 7.39997717824,
			"0.009": 5.41232974424,
			"0.01": 8.14140257915,
			"0.011": 7.32542817705,
			"0.012": 6.88668628165,
			"0.013": 10.2672165358,
			"0.014": 3.90236953223,
			"0.015": 1.38457963405,
			"0.016": 0.924782472007,
			"0.017": 0.200569442235,
			"0.018": 0.0,
			"0.019": 0.0,
			"0.02": 0.0,
			"0.021": 0.0,
			"0.022": 0.0,
			"0.023": 0.0,
			"0.024": 0.0,
			"0.025": 0.0
		}
	}
}
