{
	 "smiles": "CC1=CC=C(OP(=O)(OC2=CC(C)=C(C)C=C2)OC2=CC=C(C)C(C)=C2)C=C1C", 
	 "Tm": 345.15, 
	 "num_atms": 56, 
	 "gaussian": { 
		 "optdone": 1, 
		 "sigma_profile": "yes", 
		 "theory": "DFT", 
		 "functional": "B3LYP", 
		 "basiset": "6-31G**", 
		 "properties": { 
			 "R2extent": 14888.248, 
			 "electric_dipole_moment_norm": 4.65235972061, 
			 "electric_quadrupole_moment_norm": 22.913156211, 
			 "total_energy": -1573.18965138, 
			 "HOMO_LUMO_gap": 0.21789, 
			 "cosmo_polarized_energy": -14.06, 
			 "cosmo_cavitation_energy": 60.79, 
			 "cosmo_dispersion_energy": -38.85, 
			 "cosmo_repulsion_energy": 3.01, 
			 "cosmo_total_nonelectrostatic_energy": 24.95, 
			 "SMD_solvation_energy": 11.8 
		},
		"coords": [
			{
				"x": -5.1618511363,
				"y": 4.3567630096,
				"z": -0.0203767625,
				"element": "C" 
			},
			{
				"x": -3.8207085078,
				"y": 4.0014207917,
				"z": 0.5761289052,
				"element": "C" 
			},
			{
				"x": -2.6438497952,
				"y": 4.5182341527,
				"z": 0.0232483106,
				"element": "C" 
			},
			{
				"x": -1.3875576316,
				"y": 4.2152604729,
				"z": 0.5492926168,
				"element": "C" 
			},
			{
				"x": -1.3216090361,
				"y": 3.3725768624,
				"z": 1.6508315216,
				"element": "C" 
			},
			{
				"x": -0.0793732661,
				"y": 3.1130695429,
				"z": 2.2497744415,
				"element": "O" 
			},
			{
				"x": 0.8956236981,
				"y": 1.9034210621,
				"z": 1.8708128684,
				"element": "P" 
			},
			{
				"x": 2.1409534531,
				"y": 1.8726534261,
				"z": 2.6603439259,
				"element": "O" 
			},
			{
				"x": 1.0494737176,
				"y": 2.099368868,
				"z": 0.2708405111,
				"element": "O" 
			},
			{
				"x": 2.0386927442,
				"y": 1.5208484958,
				"z": -0.535907499,
				"element": "C" 
			},
			{
				"x": 1.6146988978,
				"y": 1.0123753343,
				"z": -1.7614937669,
				"element": "C" 
			},
			{
				"x": 2.535411327,
				"y": 0.4760882119,
				"z": -2.6655420354,
				"element": "C" 
			},
			{
				"x": 2.0579272719,
				"y": -0.0697876209,
				"z": -3.9902230819,
				"element": "C" 
			},
			{
				"x": 3.9052305831,
				"y": 0.4515398176,
				"z": -2.3223461709,
				"element": "C" 
			},
			{
				"x": 4.9322839726,
				"y": -0.1216056802,
				"z": -3.2696544102,
				"element": "C" 
			},
			{
				"x": 4.2971250341,
				"y": 0.9709962028,
				"z": -1.0843986789,
				"element": "C" 
			},
			{
				"x": 3.3832018373,
				"y": 1.5146279767,
				"z": -0.180115053,
				"element": "C" 
			},
			{
				"x": -0.1080032307,
				"y": 0.6430336068,
				"z": 2.039430263,
				"element": "O" 
			},
			{
				"x": 0.2620091233,
				"y": -0.6896660364,
				"z": 1.8150571692,
				"element": "C" 
			},
			{
				"x": -0.5952827533,
				"y": -1.4623702653,
				"z": 1.0411928639,
				"element": "C" 
			},
			{
				"x": -0.2893495653,
				"y": -2.8098337891,
				"z": 0.8520600118,
				"element": "C" 
			},
			{
				"x": 0.8510593596,
				"y": -3.3928963018,
				"z": 1.4149201842,
				"element": "C" 
			},
			{
				"x": 1.1517434779,
				"y": -4.8548790125,
				"z": 1.1851927842,
				"element": "C" 
			},
			{
				"x": 1.7081659177,
				"y": -2.5904673538,
				"z": 2.1997625255,
				"element": "C" 
			},
			{
				"x": 2.9492821849,
				"y": -3.1742577531,
				"z": 2.832058996,
				"element": "C" 
			},
			{
				"x": 1.4018376818,
				"y": -1.2401729202,
				"z": 2.3990447574,
				"element": "C" 
			},
			{
				"x": -2.4724815676,
				"y": 2.8431128979,
				"z": 2.2270818479,
				"element": "C" 
			},
			{
				"x": -3.7305525225,
				"y": 3.1486355464,
				"z": 1.6988364587,
				"element": "C" 
			},
			{
				"x": -4.9725042229,
				"y": 2.5694289539,
				"z": 2.3336394466,
				"element": "C" 
			},
			{
				"x": -5.0464707664,
				"y": 5.0222588252,
				"z": -0.8798397223,
				"element": "H" 
			},
			{
				"x": -5.8091071357,
				"y": 4.8615364553,
				"z": 0.707218644,
				"element": "H" 
			},
			{
				"x": -5.7051168062,
				"y": 3.4660260071,
				"z": -0.3589882133,
				"element": "H" 
			},
			{
				"x": -2.7097382756,
				"y": 5.1770230239,
				"z": -0.8387620012,
				"element": "H" 
			},
			{
				"x": -0.4779454869,
				"y": 4.6191234253,
				"z": 0.1200396069,
				"element": "H" 
			},
			{
				"x": 0.556450583,
				"y": 1.042737053,
				"z": -2.0014115876,
				"element": "H" 
			},
			{
				"x": 0.9738707194,
				"y": 0.0267735469,
				"z": -4.0905012645,
				"element": "H" 
			},
			{
				"x": 2.3114486503,
				"y": -1.1307299969,
				"z": -4.1043748009,
				"element": "H" 
			},
			{
				"x": 2.5205022804,
				"y": 0.4564461879,
				"z": -4.8340770381,
				"element": "H" 
			},
			{
				"x": 4.7338001419,
				"y": -1.1766104245,
				"z": -3.4956675095,
				"element": "H" 
			},
			{
				"x": 5.9375966774,
				"y": -0.0568296397,
				"z": -2.8452359485,
				"element": "H" 
			},
			{
				"x": 4.9417381341,
				"y": 0.4087061596,
				"z": -4.2299123489,
				"element": "H" 
			},
			{
				"x": 5.350629531,
				"y": 0.9569436349,
				"z": -0.8166304732,
				"element": "H" 
			},
			{
				"x": 3.6981162459,
				"y": 1.9122944289,
				"z": 0.7767311742,
				"element": "H" 
			},
			{
				"x": -1.4801307095,
				"y": -1.0113084258,
				"z": 0.6053168687,
				"element": "H" 
			},
			{
				"x": -0.9544774076,
				"y": -3.4228407737,
				"z": 0.2491529845,
				"element": "H" 
			},
			{
				"x": 0.386799122,
				"y": -5.3202032534,
				"z": 0.5578840274,
				"element": "H" 
			},
			{
				"x": 2.1204402936,
				"y": -4.9978452378,
				"z": 0.6907957616,
				"element": "H" 
			},
			{
				"x": 1.1949799235,
				"y": -5.4143755579,
				"z": 2.1277011637,
				"element": "H" 
			},
			{
				"x": 3.6337614312,
				"y": -3.5782564607,
				"z": 2.0762611004,
				"element": "H" 
			},
			{
				"x": 3.4926000671,
				"y": -2.4192471927,
				"z": 3.4051731172,
				"element": "H" 
			},
			{
				"x": 2.7060199329,
				"y": -4.0010496818,
				"z": 3.5104704456,
				"element": "H" 
			},
			{
				"x": 2.0462255481,
				"y": -0.6104793093,
				"z": 3.0026543371,
				"element": "H" 
			},
			{
				"x": -2.3772069953,
				"y": 2.1916611096,
				"z": 3.0893070744,
				"element": "H" 
			},
			{
				"x": -4.7208740839,
				"y": 1.9334108956,
				"z": 3.1859020847,
				"element": "H" 
			},
			{
				"x": -5.6475405828,
				"y": 3.3565813175,
				"z": 2.6908199436,
				"element": "H" 
			},
			{
				"x": -5.5452680787,
				"y": 1.9635353842,
				"z": 1.6210796228,
				"element": "H" 
			}
		],
		 "valence_orbital": [ 
			{
				"type": "occ",
				"energy": -0.2451,
				"method": "rhf"
			},
			{
				"type": "occ",
				"energy": -0.24333,
				"method": "rhf"
			},
			{
				"type": "occ",
				"energy": -0.23434,
				"method": "rhf"
			},
			{
				"type": "occ",
				"energy": -0.23171,
				"method": "rhf"
			},
			{
				"type": "occ",
				"energy": -0.22045,
				"method": "rhf"
			},
			{
				"type": "unocc",
				"energy": -0.00256,
				"method": "rhf"
			},
			{
				"type": "unocc",
				"energy": -0.00191,
				"method": "rhf"
			},
			{
				"type": "unocc",
				"energy": -0.00068,
				"method": "rhf"
			},
			{
				"type": "unocc",
				"energy": 0.0024,
				"method": "rhf"
			},
			{
				"type": "unocc",
				"energy": 0.00547,
				"method": "rhf"
			}
		],
		"cosmo_sigma_profile": { 
			"-0.025": 0.0,
			"-0.024": 0.0,
			"-0.023": 0.0,
			"-0.022": 0.0,
			"-0.021": 0.0,
			"-0.02": 0.0,
			"-0.019": 0.0,
			"-0.018": 0.0,
			"-0.017": 0.0,
			"-0.016": 0.0,
			"-0.015": 0.0,
			"-0.014": 0.0,
			"-0.013": 0.0,
			"-0.012": 0.0,
			"-0.011": 0.0,
			"-0.01": 0.0,
			"-0.009": 0.0,
			"-0.008": 0.0,
			"-0.007": 0.755154767524,
			"-0.006": 8.96143882134,
			"-0.005": 23.8998316028,
			"-0.004": 54.1961695114,
			"-0.003": 45.561240374,
			"-0.002": 45.6632211324,
			"-0.001": 48.931853259,
			"0.0": 63.1558056794,
			"0.001": 40.0071414782,
			"0.002": 30.4722763137,
			"0.003": 33.3714097308,
			"0.004": 33.8289506544,
			"0.005": 28.8670580272,
			"0.006": 5.39285051003,
			"0.007": 2.72360414953,
			"0.008": 2.37818770853,
			"0.009": 1.48003745165,
			"0.01": 1.40573418946,
			"0.011": 1.23127499196,
			"0.012": 2.86221612299,
			"0.013": 3.19957401243,
			"0.014": 0.554621859266,
			"0.015": 0.0,
			"0.016": 0.0,
			"0.017": 0.0,
			"0.018": 0.0,
			"0.019": 0.0,
			"0.02": 0.0,
			"0.021": 0.0,
			"0.022": 0.0,
			"0.023": 0.0,
			"0.024": 0.0,
			"0.025": 0.0
		}
	}
}
