{
	 "smiles": "CCCCN(CC)C1=C(C=C(C=C1[N+]([O-])=O)C(F)(F)F)[N+]([O-])=O", 
	 "Tm": 339.15, 
	 "num_atms": 39, 
	 "gaussian": { 
		 "optdone": 1, 
		 "sigma_profile": "yes", 
		 "theory": "DFT", 
		 "functional": "B3LYP", 
		 "basiset": "6-31G**", 
		 "properties": { 
			 "R2extent": 7726.3294, 
			 "electric_dipole_moment_norm": 2.09381395783, 
			 "electric_quadrupole_moment_norm": 14.7739798284, 
			 "total_energy": -1269.48366638, 
			 "HOMO_LUMO_gap": 0.13016, 
			 "cosmo_polarized_energy": -10.95, 
			 "cosmo_cavitation_energy": 43.41, 
			 "cosmo_dispersion_energy": -28.14, 
			 "cosmo_repulsion_energy": 2.09, 
			 "cosmo_total_nonelectrostatic_energy": 17.36, 
			 "SMD_solvation_energy": 12.64 
		},
		"coords": [
			{
				"x": 3.2000822457,
				"y": 3.3306270515,
				"z": -0.4479277771,
				"element": "C" 
			},
			{
				"x": 2.1473869862,
				"y": 3.3252864882,
				"z": 0.6685007216,
				"element": "C" 
			},
			{
				"x": 1.2046491565,
				"y": 2.1097501439,
				"z": 0.6482272202,
				"element": "C" 
			},
			{
				"x": 1.9282688668,
				"y": 0.7916683362,
				"z": 0.9551509404,
				"element": "C" 
			},
			{
				"x": 1.0329510372,
				"y": -0.3724099099,
				"z": 1.1025749423,
				"element": "N" 
			},
			{
				"x": 1.4148909063,
				"y": -1.3355626204,
				"z": 2.1525831717,
				"element": "C" 
			},
			{
				"x": 1.1021001348,
				"y": -2.7954287153,
				"z": 1.8201809807,
				"element": "C" 
			},
			{
				"x": -0.0810250452,
				"y": -0.5430802867,
				"z": 0.3195140506,
				"element": "C" 
			},
			{
				"x": -0.082100197,
				"y": -0.3432049963,
				"z": -1.0918885878,
				"element": "C" 
			},
			{
				"x": -1.2152857716,
				"y": -0.4674493132,
				"z": -1.8863475226,
				"element": "C" 
			},
			{
				"x": -2.4144713725,
				"y": -0.9033106184,
				"z": -1.3283847348,
				"element": "C" 
			},
			{
				"x": -2.468656477,
				"y": -1.1567740501,
				"z": 0.0390074782,
				"element": "C" 
			},
			{
				"x": -1.3511023631,
				"y": -0.9329966365,
				"z": 0.8357270359,
				"element": "C" 
			},
			{
				"x": -1.6148410192,
				"y": -0.98340932,
				"z": 2.2834671653,
				"element": "N" 
			},
			{
				"x": -2.395454329,
				"y": -1.847757101,
				"z": 2.683335519,
				"element": "O" 
			},
			{
				"x": -1.0910763729,
				"y": -0.1279834472,
				"z": 2.9959796785,
				"element": "O" 
			},
			{
				"x": -3.6166234874,
				"y": -1.1461681813,
				"z": -2.1995820831,
				"element": "C" 
			},
			{
				"x": -3.6293848159,
				"y": -0.3161707545,
				"z": -3.2635417215,
				"element": "F" 
			},
			{
				"x": -3.6348192833,
				"y": -2.4088237783,
				"z": -2.6813775835,
				"element": "F" 
			},
			{
				"x": -4.7665735395,
				"y": -0.9660737127,
				"z": -1.5166963551,
				"element": "F" 
			},
			{
				"x": 1.1653432987,
				"y": -0.1137635353,
				"z": -1.839123975,
				"element": "N" 
			},
			{
				"x": 2.1573029627,
				"y": -0.7638277769,
				"z": -1.5132231794,
				"element": "O" 
			},
			{
				"x": 1.1194810643,
				"y": 0.6748041602,
				"z": -2.7838019178,
				"element": "O" 
			},
			{
				"x": 2.7312082624,
				"y": 3.2260525499,
				"z": -1.4328215615,
				"element": "H" 
			},
			{
				"x": 3.7665065867,
				"y": 4.2672777356,
				"z": -0.4447542994,
				"element": "H" 
			},
			{
				"x": 3.9214938577,
				"y": 2.5142685705,
				"z": -0.3400404599,
				"element": "H" 
			},
			{
				"x": 2.6425730783,
				"y": 3.3888450409,
				"z": 1.6470865059,
				"element": "H" 
			},
			{
				"x": 1.5318840318,
				"y": 4.2288285815,
				"z": 0.5838370388,
				"element": "H" 
			},
			{
				"x": 0.713571117,
				"y": 2.0715189647,
				"z": -0.3307031923,
				"element": "H" 
			},
			{
				"x": 0.411526979,
				"y": 2.240080872,
				"z": 1.3940831924,
				"element": "H" 
			},
			{
				"x": 2.4193125447,
				"y": 0.9035504675,
				"z": 1.9275011413,
				"element": "H" 
			},
			{
				"x": 2.716501042,
				"y": 0.5833116341,
				"z": 0.222054006,
				"element": "H" 
			},
			{
				"x": 0.9823481023,
				"y": -1.0513023391,
				"z": 3.120493972,
				"element": "H" 
			},
			{
				"x": 2.5008880088,
				"y": -1.2392925298,
				"z": 2.2458132318,
				"element": "H" 
			},
			{
				"x": 1.5570599856,
				"y": -3.4350437201,
				"z": 2.5823772895,
				"element": "H" 
			},
			{
				"x": 1.5218532019,
				"y": -3.064963316,
				"z": 0.8464873526,
				"element": "H" 
			},
			{
				"x": 0.0330108714,
				"y": -3.0207236237,
				"z": 1.8111000385,
				"element": "H" 
			},
			{
				"x": -1.1326267073,
				"y": -0.2636226373,
				"z": -2.9469544056,
				"element": "H" 
			},
			{
				"x": -3.3907535479,
				"y": -1.4693276768,
				"z": 0.5131866834,
				"element": "H" 
			}
		],
		 "valence_orbital": [ 
			{
				"type": "occ",
				"energy": -0.31959,
				"method": "rhf"
			},
			{
				"type": "occ",
				"energy": -0.31354,
				"method": "rhf"
			},
			{
				"type": "occ",
				"energy": -0.30046,
				"method": "rhf"
			},
			{
				"type": "occ",
				"energy": -0.29281,
				"method": "rhf"
			},
			{
				"type": "occ",
				"energy": -0.23559,
				"method": "rhf"
			},
			{
				"type": "unocc",
				"energy": -0.10543,
				"method": "rhf"
			},
			{
				"type": "unocc",
				"energy": -0.09665,
				"method": "rhf"
			},
			{
				"type": "unocc",
				"energy": -0.04608,
				"method": "rhf"
			},
			{
				"type": "unocc",
				"energy": -0.0326,
				"method": "rhf"
			},
			{
				"type": "unocc",
				"energy": 0.06484,
				"method": "rhf"
			}
		],
		"cosmo_sigma_profile": { 
			"-0.025": 0.0,
			"-0.024": 0.0,
			"-0.023": 0.0,
			"-0.022": 0.0,
			"-0.021": 0.0,
			"-0.02": 0.0,
			"-0.019": 0.0,
			"-0.018": 0.0,
			"-0.017": 0.0,
			"-0.016": 0.0,
			"-0.015": 0.0,
			"-0.014": 0.0,
			"-0.013": 0.0,
			"-0.012": 0.0,
			"-0.011": 0.0,
			"-0.01": 0.136972924059,
			"-0.009": 1.30305932597,
			"-0.008": 4.7635878461,
			"-0.007": 5.72017926829,
			"-0.006": 8.26285331392,
			"-0.005": 11.9933687326,
			"-0.004": 20.1931695851,
			"-0.003": 39.2921006554,
			"-0.002": 48.0296210769,
			"-0.001": 38.1508697885,
			"0.0": 28.6028868121,
			"0.001": 26.6950799855,
			"0.002": 31.7384179874,
			"0.003": 21.1224344834,
			"0.004": 7.31573839681,
			"0.005": 7.32753447842,
			"0.006": 9.47019438817,
			"0.007": 15.9798420001,
			"0.008": 9.34272092844,
			"0.009": 6.12149420134,
			"0.01": 1.40886629844,
			"0.011": 0.0,
			"0.012": 0.0,
			"0.013": 0.0,
			"0.014": 0.0,
			"0.015": 0.0,
			"0.016": 0.0,
			"0.017": 0.0,
			"0.018": 0.0,
			"0.019": 0.0,
			"0.02": 0.0,
			"0.021": 0.0,
			"0.022": 0.0,
			"0.023": 0.0,
			"0.024": 0.0,
			"0.025": 0.0
		}
	}
}
