{
	 "smiles": "CC1=C(C=C(Cl)C(Cl)=C1)[N+]([O-])=O", 
	 "Tm": 331.15, 
	 "num_atms": 17, 
	 "gaussian": { 
		 "optdone": 1, 
		 "sigma_profile": "yes", 
		 "theory": "DFT", 
		 "functional": "B3LYP", 
		 "basiset": "6-31G**", 
		 "properties": { 
			 "R2extent": 3413.4944, 
			 "electric_dipole_moment_norm": 2.8190835, 
			 "electric_quadrupole_moment_norm": 9.58962728212, 
			 "total_energy": -1395.23976118, 
			 "HOMO_LUMO_gap": 0.16965, 
			 "cosmo_polarized_energy": -7.07, 
			 "cosmo_cavitation_energy": 25.32, 
			 "cosmo_dispersion_energy": -18.99, 
			 "cosmo_repulsion_energy": 1.51, 
			 "cosmo_total_nonelectrostatic_energy": 7.84, 
			 "SMD_solvation_energy": 5.94 
		},
		"coords": [
			{
				"x": -1.3948143729,
				"y": 0.4740144313,
				"z": 1.5027634773,
				"element": "C" 
			},
			{
				"x": -0.2112807582,
				"y": 0.3867214745,
				"z": 0.5711135678,
				"element": "C" 
			},
			{
				"x": -0.2683086848,
				"y": 0.3020112401,
				"z": -0.8350226381,
				"element": "C" 
			},
			{
				"x": 0.8787566668,
				"y": 0.2253596388,
				"z": -1.6251866645,
				"element": "C" 
			},
			{
				"x": 2.1375850926,
				"y": 0.2292690776,
				"z": -1.038692717,
				"element": "C" 
			},
			{
				"x": 3.5482833624,
				"y": 0.1311203091,
				"z": -2.054677207,
				"element": "Cl" 
			},
			{
				"x": 2.2333887724,
				"y": 0.3125621993,
				"z": 0.3581906753,
				"element": "C" 
			},
			{
				"x": 3.775258935,
				"y": 0.3231807478,
				"z": 1.1629449678,
				"element": "Cl" 
			},
			{
				"x": 1.0733987203,
				"y": 0.3892852114,
				"z": 1.1288376914,
				"element": "C" 
			},
			{
				"x": -1.5481955104,
				"y": 0.2884701557,
				"z": -1.5695651847,
				"element": "N" 
			},
			{
				"x": -2.5922913648,
				"y": 0.3346956091,
				"z": -0.9195596967,
				"element": "O" 
			},
			{
				"x": -1.5010436971,
				"y": 0.2307277938,
				"z": -2.7976591549,
				"element": "O" 
			},
			{
				"x": -1.0448584093,
				"y": 0.537863056,
				"z": 2.535926737,
				"element": "H" 
			},
			{
				"x": -2.0142434121,
				"y": 1.3466688157,
				"z": 1.2828497,
				"element": "H" 
			},
			{
				"x": -2.0480372444,
				"y": -0.3958809944,
				"z": 1.4018585344,
				"element": "H" 
			},
			{
				"x": 0.7711613391,
				"y": 0.163082677,
				"z": -2.6996430876,
				"element": "H" 
			},
			{
				"x": 1.1775405653,
				"y": 0.4534485573,
				"z": 2.2062209996,
				"element": "H" 
			}
		],
		 "valence_orbital": [ 
			{
				"type": "occ",
				"energy": -0.31907,
				"method": "rhf"
			},
			{
				"type": "occ",
				"energy": -0.31527,
				"method": "rhf"
			},
			{
				"type": "occ",
				"energy": -0.29911,
				"method": "rhf"
			},
			{
				"type": "occ",
				"energy": -0.28611,
				"method": "rhf"
			},
			{
				"type": "occ",
				"energy": -0.27081,
				"method": "rhf"
			},
			{
				"type": "unocc",
				"energy": -0.10116,
				"method": "rhf"
			},
			{
				"type": "unocc",
				"energy": -0.04448,
				"method": "rhf"
			},
			{
				"type": "unocc",
				"energy": -0.02021,
				"method": "rhf"
			},
			{
				"type": "unocc",
				"energy": -0.01411,
				"method": "rhf"
			},
			{
				"type": "unocc",
				"energy": 0.04426,
				"method": "rhf"
			}
		],
		"cosmo_sigma_profile": { 
			"-0.025": 0.0,
			"-0.024": 0.0,
			"-0.023": 0.0,
			"-0.022": 0.0,
			"-0.021": 0.0,
			"-0.02": 0.0,
			"-0.019": 0.0,
			"-0.018": 0.0,
			"-0.017": 0.0,
			"-0.016": 0.0,
			"-0.015": 0.0,
			"-0.014": 0.0,
			"-0.013": 0.0,
			"-0.012": 0.0,
			"-0.011": 0.0,
			"-0.01": 0.0,
			"-0.009": 1.022489141,
			"-0.008": 3.08577475331,
			"-0.007": 3.92929344005,
			"-0.006": 7.13258037329,
			"-0.005": 9.23427126701,
			"-0.004": 13.1692114559,
			"-0.003": 15.9855265791,
			"-0.002": 24.9630394391,
			"-0.001": 32.465058395,
			"0.0": 15.357530424,
			"0.001": 11.3278190484,
			"0.002": 14.6656781705,
			"0.003": 18.4816371263,
			"0.004": 10.2272879089,
			"0.005": 4.40787807805,
			"0.006": 3.67014680073,
			"0.007": 6.51403066142,
			"0.008": 6.04304545695,
			"0.009": 4.03238361239,
			"0.01": 2.05116970252,
			"0.011": 0.0,
			"0.012": 0.0,
			"0.013": 0.0,
			"0.014": 0.0,
			"0.015": 0.0,
			"0.016": 0.0,
			"0.017": 0.0,
			"0.018": 0.0,
			"0.019": 0.0,
			"0.02": 0.0,
			"0.021": 0.0,
			"0.022": 0.0,
			"0.023": 0.0,
			"0.024": 0.0,
			"0.025": 0.0
		}
	}
}
