{
	 "smiles": "OC(=O)C=CC1=C2N=CC=CC2=CC=C1", 
	 "Tm": 462.15, 
	 "num_atms": 24, 
	 "gaussian": { 
		 "optdone": 1, 
		 "sigma_profile": "yes", 
		 "theory": "DFT", 
		 "functional": "B3LYP", 
		 "basiset": "6-31G**", 
		 "properties": { 
			 "R2extent": 4197.6204, 
			 "electric_dipole_moment_norm": 4.60087313235, 
			 "electric_quadrupole_moment_norm": 17.2770890222, 
			 "total_energy": -667.899419864, 
			 "HOMO_LUMO_gap": 0.15481, 
			 "cosmo_polarized_energy": -12.92, 
			 "cosmo_cavitation_energy": 28.81, 
			 "cosmo_dispersion_energy": -21.14, 
			 "cosmo_repulsion_energy": 1.65, 
			 "cosmo_total_nonelectrostatic_energy": 9.32, 
			 "SMD_solvation_energy": 5.11 
		},
		"coords": [
			{
				"x": 3.3836407822,
				"y": 1.966781295,
				"z": 1.0473602976,
				"element": "O" 
			},
			{
				"x": 3.8146777022,
				"y": 2.6710147428,
				"z": -0.031449759,
				"element": "C" 
			},
			{
				"x": 4.8160386849,
				"y": 3.361556076,
				"z": 0.0231788909,
				"element": "O" 
			},
			{
				"x": 3.029167895,
				"y": 2.5074737059,
				"z": -1.2705618741,
				"element": "C" 
			},
			{
				"x": 1.8603106154,
				"y": 1.8832391382,
				"z": -1.5295811021,
				"element": "C" 
			},
			{
				"x": 0.8594317154,
				"y": 1.2501746744,
				"z": -0.6602548819,
				"element": "C" 
			},
			{
				"x": 0.1228749824,
				"y": 0.1329411812,
				"z": -1.1898555756,
				"element": "C" 
			},
			{
				"x": 0.4334331486,
				"y": -0.317725968,
				"z": -2.4383514487,
				"element": "N" 
			},
			{
				"x": -0.233038537,
				"y": -1.3497387163,
				"z": -2.9166169569,
				"element": "C" 
			},
			{
				"x": -1.2517944774,
				"y": -2.0335979761,
				"z": -2.2095590088,
				"element": "C" 
			},
			{
				"x": -1.5852093549,
				"y": -1.5901104002,
				"z": -0.9519775229,
				"element": "C" 
			},
			{
				"x": -0.9031021142,
				"y": -0.4763153798,
				"z": -0.3988889274,
				"element": "C" 
			},
			{
				"x": -1.1976913495,
				"y": 0.0440530887,
				"z": 0.8871825734,
				"element": "C" 
			},
			{
				"x": -0.5031968928,
				"y": 1.13190154,
				"z": 1.3658016257,
				"element": "C" 
			},
			{
				"x": 0.5172089835,
				"y": 1.7305400924,
				"z": 0.5953113168,
				"element": "C" 
			},
			{
				"x": 4.0316041427,
				"y": 2.1563247431,
				"z": 1.7465029091,
				"element": "H" 
			},
			{
				"x": 3.5506518077,
				"y": 2.9564578267,
				"z": -2.1102351409,
				"element": "H" 
			},
			{
				"x": 1.5967909775,
				"y": 1.8215089714,
				"z": -2.582604276,
				"element": "H" 
			},
			{
				"x": 0.036558332,
				"y": -1.6751184039,
				"z": -3.9209040145,
				"element": "H" 
			},
			{
				"x": -1.7522752862,
				"y": -2.8824914792,
				"z": -2.6641462901,
				"element": "H" 
			},
			{
				"x": -2.3647940464,
				"y": -2.0774826281,
				"z": -0.3717287822,
				"element": "H" 
			},
			{
				"x": -1.979178978,
				"y": -0.4237038351,
				"z": 1.4804662365,
				"element": "H" 
			},
			{
				"x": -0.7379045184,
				"y": 1.5421679861,
				"z": 2.3434239808,
				"element": "H" 
			},
			{
				"x": 1.0397957852,
				"y": 2.5907497247,
				"z": 0.9931877305,
				"element": "H" 
			}
		],
		 "valence_orbital": [ 
			{
				"type": "occ",
				"energy": -0.28127,
				"method": "rhf"
			},
			{
				"type": "occ",
				"energy": -0.26936,
				"method": "rhf"
			},
			{
				"type": "occ",
				"energy": -0.25929,
				"method": "rhf"
			},
			{
				"type": "occ",
				"energy": -0.25764,
				"method": "rhf"
			},
			{
				"type": "occ",
				"energy": -0.2283,
				"method": "rhf"
			},
			{
				"type": "unocc",
				"energy": -0.07349,
				"method": "rhf"
			},
			{
				"type": "unocc",
				"energy": -0.038,
				"method": "rhf"
			},
			{
				"type": "unocc",
				"energy": -0.02184,
				"method": "rhf"
			},
			{
				"type": "unocc",
				"energy": 0.02484,
				"method": "rhf"
			},
			{
				"type": "unocc",
				"energy": 0.07748,
				"method": "rhf"
			}
		],
		"cosmo_sigma_profile": { 
			"-0.025": 0.0,
			"-0.024": 0.0,
			"-0.023": 0.0,
			"-0.022": 0.0,
			"-0.021": 0.0,
			"-0.02": 0.0,
			"-0.019": 0.0,
			"-0.018": 0.358174333396,
			"-0.017": 0.87193532308,
			"-0.016": 0.66083009101,
			"-0.015": 1.19716347943,
			"-0.014": 0.994848103579,
			"-0.013": 0.123802505952,
			"-0.012": 0.450521169063,
			"-0.011": 0.94008279491,
			"-0.01": 0.866678747353,
			"-0.009": 0.54009579797,
			"-0.008": 0.838415163447,
			"-0.007": 9.60737833808,
			"-0.006": 16.9062149777,
			"-0.005": 17.1988782064,
			"-0.004": 14.6751393454,
			"-0.003": 11.6557825878,
			"-0.002": 11.4859363856,
			"-0.001": 13.116601551,
			"0.0": 15.748151103,
			"0.001": 23.9427760676,
			"0.002": 27.0278597084,
			"0.003": 16.1984971147,
			"0.004": 9.17611026813,
			"0.005": 6.14341157757,
			"0.006": 3.97299505958,
			"0.007": 3.2240834093,
			"0.008": 5.01173687458,
			"0.009": 3.04406615569,
			"0.01": 3.4771441712,
			"0.011": 3.65259182742,
			"0.012": 6.05347266787,
			"0.013": 2.28991469881,
			"0.014": 0.127680554923,
			"0.015": 0.0,
			"0.016": 0.0,
			"0.017": 0.0,
			"0.018": 0.0,
			"0.019": 0.0,
			"0.02": 0.0,
			"0.021": 0.0,
			"0.022": 0.0,
			"0.023": 0.0,
			"0.024": 0.0,
			"0.025": 0.0
		}
	}
}
