{
	 "smiles": "CC1=NN(CN2CCOCC2)C(=O)C1=N/NC1=CC=C(C=C1)C(O)=O", 
	 "Tm": 460.15, 
	 "num_atms": 44, 
	 "gaussian": { 
		 "optdone": 1, 
		 "sigma_profile": "yes", 
		 "theory": "DFT", 
		 "functional": "B3LYP", 
		 "basiset": "6-31G**", 
		 "properties": { 
			 "R2extent": 16144.6204, 
			 "electric_dipole_moment_norm": 3.38042329006, 
			 "electric_quadrupole_moment_norm": 43.6635421337, 
			 "total_energy": -1195.74630859, 
			 "HOMO_LUMO_gap": 0.11678, 
			 "cosmo_polarized_energy": -25.03, 
			 "cosmo_cavitation_energy": 48.2, 
			 "cosmo_dispersion_energy": -34.37, 
			 "cosmo_repulsion_energy": 2.61, 
			 "cosmo_total_nonelectrostatic_energy": 16.44, 
			 "SMD_solvation_energy": 5.42 
		},
		"coords": [
			{
				"x": -1.3525852126,
				"y": -3.108148605,
				"z": -1.6868328634,
				"element": "C" 
			},
			{
				"x": -0.9734268138,
				"y": -2.3465490199,
				"z": -0.460182698,
				"element": "C" 
			},
			{
				"x": -1.0145028487,
				"y": -2.8775337059,
				"z": 0.7298886989,
				"element": "N" 
			},
			{
				"x": -0.5865749205,
				"y": -1.9076654668,
				"z": 1.6451497943,
				"element": "N" 
			},
			{
				"x": -0.5594945567,
				"y": -2.2124925688,
				"z": 3.0640214345,
				"element": "C" 
			},
			{
				"x": -1.8716049312,
				"y": -2.1700205331,
				"z": 3.6732051876,
				"element": "N" 
			},
			{
				"x": -2.4216309751,
				"y": -0.8136186373,
				"z": 3.8809072216,
				"element": "C" 
			},
			{
				"x": -2.5203412634,
				"y": -0.4590877296,
				"z": 5.3642336049,
				"element": "C" 
			},
			{
				"x": -3.325571793,
				"y": -1.385049006,
				"z": 6.0902291227,
				"element": "O" 
			},
			{
				"x": -3.2873492321,
				"y": -2.7184558382,
				"z": 5.5829821072,
				"element": "C" 
			},
			{
				"x": -1.9846192837,
				"y": -3.0288399517,
				"z": 4.856169936,
				"element": "C" 
			},
			{
				"x": -0.2756949935,
				"y": -0.71584474,
				"z": 1.0515812657,
				"element": "C" 
			},
			{
				"x": 0.1091601224,
				"y": 0.3378863207,
				"z": 1.5879012169,
				"element": "O" 
			},
			{
				"x": -0.5165293279,
				"y": -0.9706055221,
				"z": -0.3849263758,
				"element": "C" 
			},
			{
				"x": -0.3535035986,
				"y": -0.1314825332,
				"z": -1.375140714,
				"element": "N" 
			},
			{
				"x": 0.0741268814,
				"y": 1.0794172102,
				"z": -1.0681866557,
				"element": "N" 
			},
			{
				"x": 0.2829669864,
				"y": 2.0502127251,
				"z": -2.0482386666,
				"element": "C" 
			},
			{
				"x": 0.7455155534,
				"y": 3.3105523987,
				"z": -1.6401422052,
				"element": "C" 
			},
			{
				"x": 0.9582457273,
				"y": 4.3073426489,
				"z": -2.5852522115,
				"element": "C" 
			},
			{
				"x": 0.7171014259,
				"y": 4.0691535287,
				"z": -3.9461872258,
				"element": "C" 
			},
			{
				"x": 0.2778429687,
				"y": 2.7947632279,
				"z": -4.340643068,
				"element": "C" 
			},
			{
				"x": 0.0510883518,
				"y": 1.7927332884,
				"z": -3.4098997379,
				"element": "C" 
			},
			{
				"x": 0.9423840501,
				"y": 5.0897285143,
				"z": -5.0159955548,
				"element": "C" 
			},
			{
				"x": 0.9950463446,
				"y": 6.392561939,
				"z": -4.6236728478,
				"element": "O" 
			},
			{
				"x": 1.075876034,
				"y": 4.8077989862,
				"z": -6.1841896599,
				"element": "O" 
			},
			{
				"x": -0.5141484518,
				"y": -3.1611181377,
				"z": -2.3897590851,
				"element": "H" 
			},
			{
				"x": -1.652967231,
				"y": -4.121441276,
				"z": -1.4138437916,
				"element": "H" 
			},
			{
				"x": -2.1816571389,
				"y": -2.6192530069,
				"z": -2.2096911507,
				"element": "H" 
			},
			{
				"x": -0.1611394441,
				"y": -3.225122728,
				"z": 3.1712639211,
				"element": "H" 
			},
			{
				"x": 0.1600727723,
				"y": -1.5032795984,
				"z": 3.5045162782,
				"element": "H" 
			},
			{
				"x": -3.4205598145,
				"y": -0.7469894541,
				"z": 3.4295901672,
				"element": "H" 
			},
			{
				"x": -1.7890107908,
				"y": -0.0766943797,
				"z": 3.374931079,
				"element": "H" 
			},
			{
				"x": -1.5105938315,
				"y": -0.4083444921,
				"z": 5.8029498006,
				"element": "H" 
			},
			{
				"x": -2.9815665489,
				"y": 0.5264235032,
				"z": 5.4902588017,
				"element": "H" 
			},
			{
				"x": -4.1305090606,
				"y": -2.8875081342,
				"z": 4.8955002167,
				"element": "H" 
			},
			{
				"x": -3.4112377384,
				"y": -3.389446663,
				"z": 6.4394934616,
				"element": "H" 
			},
			{
				"x": -1.9797129343,
				"y": -4.0803415337,
				"z": 4.5420871276,
				"element": "H" 
			},
			{
				"x": -1.147630282,
				"y": -2.8983425031,
				"z": 5.5677526268,
				"element": "H" 
			},
			{
				"x": 0.2490397427,
				"y": 1.2857231673,
				"z": -0.075800812,
				"element": "H" 
			},
			{
				"x": 0.9450060014,
				"y": 3.5004249551,
				"z": -0.5893429028,
				"element": "H" 
			},
			{
				"x": 1.3536396311,
				"y": 5.26165478,
				"z": -2.2462979122,
				"element": "H" 
			},
			{
				"x": 0.1176892269,
				"y": 2.6130511045,
				"z": -5.397867416,
				"element": "H" 
			},
			{
				"x": -0.2980643467,
				"y": 0.813365549,
				"z": -3.7126999986,
				"element": "H" 
			},
			{
				"x": 0.6976255439,
				"y": 6.4794819173,
				"z": -3.7078195173,
				"element": "H" 
			}
		],
		 "valence_orbital": [ 
			{
				"type": "occ",
				"energy": -0.26305,
				"method": "rhf"
			},
			{
				"type": "occ",
				"energy": -0.25149,
				"method": "rhf"
			},
			{
				"type": "occ",
				"energy": -0.24844,
				"method": "rhf"
			},
			{
				"type": "occ",
				"energy": -0.22665,
				"method": "rhf"
			},
			{
				"type": "occ",
				"energy": -0.21746,
				"method": "rhf"
			},
			{
				"type": "unocc",
				"energy": -0.10068,
				"method": "rhf"
			},
			{
				"type": "unocc",
				"energy": -0.03968,
				"method": "rhf"
			},
			{
				"type": "unocc",
				"energy": -0.03061,
				"method": "rhf"
			},
			{
				"type": "unocc",
				"energy": 0.02319,
				"method": "rhf"
			},
			{
				"type": "unocc",
				"energy": 0.04866,
				"method": "rhf"
			}
		],
		"cosmo_sigma_profile": { 
			"-0.025": 0.0,
			"-0.024": 0.0,
			"-0.023": 0.0,
			"-0.022": 0.0,
			"-0.021": 0.0,
			"-0.02": 0.0,
			"-0.019": 0.333314340533,
			"-0.018": 0.999379717229,
			"-0.017": 0.773110188985,
			"-0.016": 1.01401742706,
			"-0.015": 0.915601601818,
			"-0.014": 0.985480393261,
			"-0.013": 1.39643686357,
			"-0.012": 2.0256912902,
			"-0.011": 2.11793003216,
			"-0.01": 2.02078704579,
			"-0.009": 2.56504196534,
			"-0.008": 4.14075849772,
			"-0.007": 5.80808085744,
			"-0.006": 11.7997735674,
			"-0.005": 23.8036319012,
			"-0.004": 37.7818129821,
			"-0.003": 43.0535848118,
			"-0.002": 38.5448190967,
			"-0.001": 35.8976883462,
			"0.0": 24.1560462529,
			"0.001": 20.5609537906,
			"0.002": 23.3918626751,
			"0.003": 14.5753334935,
			"0.004": 9.42482720414,
			"0.005": 7.99291301048,
			"0.006": 7.68562334731,
			"0.007": 5.92625526956,
			"0.008": 7.52002811591,
			"0.009": 6.80980372632,
			"0.01": 8.42694389388,
			"0.011": 10.4112002203,
			"0.012": 9.60993973615,
			"0.013": 6.66169985038,
			"0.014": 2.83011319184,
			"0.015": 0.289076626228,
			"0.016": 0.0,
			"0.017": 0.0,
			"0.018": 0.0,
			"0.019": 0.0,
			"0.02": 0.0,
			"0.021": 0.0,
			"0.022": 0.0,
			"0.023": 0.0,
			"0.024": 0.0,
			"0.025": 0.0
		}
	}
}
