{
	 "smiles": "FC(F)(F)C1=NC2=CC=CC=C2C(Cl)=C1", 
	 "Tm": 305.15, 
	 "num_atms": 20, 
	 "gaussian": { 
		 "optdone": 1, 
		 "sigma_profile": "yes", 
		 "theory": "DFT", 
		 "functional": "B3LYP", 
		 "basiset": "6-31G**", 
		 "properties": { 
			 "R2extent": 3803.2408, 
			 "electric_dipole_moment_norm": 3.36909533555, 
			 "electric_quadrupole_moment_norm": 10.412144076, 
			 "total_energy": -1198.55286358, 
			 "HOMO_LUMO_gap": 0.17101, 
			 "cosmo_polarized_energy": -5.75, 
			 "cosmo_cavitation_energy": 27.83, 
			 "cosmo_dispersion_energy": -20.28, 
			 "cosmo_repulsion_energy": 1.51, 
			 "cosmo_total_nonelectrostatic_energy": 9.06, 
			 "SMD_solvation_energy": 4.18 
		},
		"coords": [
			{
				"x": 1.8359284691,
				"y": -2.7896152088,
				"z": 0.6045864578,
				"element": "F" 
			},
			{
				"x": 1.993096557,
				"y": -1.4869478342,
				"z": 0.9359209711,
				"element": "C" 
			},
			{
				"x": 3.0033634763,
				"y": -0.9983198879,
				"z": 0.194495958,
				"element": "F" 
			},
			{
				"x": 2.37189162,
				"y": -1.4386732652,
				"z": 2.2255678115,
				"element": "F" 
			},
			{
				"x": 0.7119922312,
				"y": -0.7014602138,
				"z": 0.7078396129,
				"element": "C" 
			},
			{
				"x": 0.7789995789,
				"y": 0.5762642101,
				"z": 1.0084586776,
				"element": "N" 
			},
			{
				"x": -0.3371590859,
				"y": 1.3314252622,
				"z": 0.8249136136,
				"element": "C" 
			},
			{
				"x": -0.2682599338,
				"y": 2.7130570865,
				"z": 1.1488876395,
				"element": "C" 
			},
			{
				"x": -1.3657847329,
				"y": 3.5246041744,
				"z": 0.983475698,
				"element": "C" 
			},
			{
				"x": -2.5817665498,
				"y": 2.9924633658,
				"z": 0.486871993,
				"element": "C" 
			},
			{
				"x": -2.6861466212,
				"y": 1.6588471755,
				"z": 0.1622889301,
				"element": "C" 
			},
			{
				"x": -1.5717937923,
				"y": 0.7948637195,
				"z": 0.3214972857,
				"element": "C" 
			},
			{
				"x": -1.5695133662,
				"y": -0.5936533079,
				"z": 0.0182931838,
				"element": "C" 
			},
			{
				"x": -3.0135538832,
				"y": -1.3655694285,
				"z": -0.6021108995,
				"element": "Cl" 
			},
			{
				"x": -0.4379831646,
				"y": -1.3525775262,
				"z": 0.2058819063,
				"element": "C" 
			},
			{
				"x": 0.6763899585,
				"y": 3.0892356655,
				"z": 1.5265195124,
				"element": "H" 
			},
			{
				"x": -1.3052407943,
				"y": 4.5795365768,
				"z": 1.2333400532,
				"element": "H" 
			},
			{
				"x": -3.4402057396,
				"y": 3.6453543848,
				"z": 0.3614678622,
				"element": "H" 
			},
			{
				"x": -3.6174862798,
				"y": 1.2545829655,
				"z": -0.2173383633,
				"element": "H" 
			},
			{
				"x": -0.4224679473,
				"y": -2.4100179141,
				"z": -0.020657904,
				"element": "H" 
			}
		],
		 "valence_orbital": [ 
			{
				"type": "occ",
				"energy": -0.33325,
				"method": "rhf"
			},
			{
				"type": "occ",
				"energy": -0.30372,
				"method": "rhf"
			},
			{
				"type": "occ",
				"energy": -0.28241,
				"method": "rhf"
			},
			{
				"type": "occ",
				"energy": -0.27503,
				"method": "rhf"
			},
			{
				"type": "occ",
				"energy": -0.2501,
				"method": "rhf"
			},
			{
				"type": "unocc",
				"energy": -0.07909,
				"method": "rhf"
			},
			{
				"type": "unocc",
				"energy": -0.04235,
				"method": "rhf"
			},
			{
				"type": "unocc",
				"energy": 0.00117,
				"method": "rhf"
			},
			{
				"type": "unocc",
				"energy": 0.01357,
				"method": "rhf"
			},
			{
				"type": "unocc",
				"energy": 0.05892,
				"method": "rhf"
			}
		],
		"cosmo_sigma_profile": { 
			"-0.025": 0.0,
			"-0.024": 0.0,
			"-0.023": 0.0,
			"-0.022": 0.0,
			"-0.021": 0.0,
			"-0.02": 0.0,
			"-0.019": 0.0,
			"-0.018": 0.0,
			"-0.017": 0.0,
			"-0.016": 0.0,
			"-0.015": 0.0,
			"-0.014": 0.0,
			"-0.013": 0.0,
			"-0.012": 0.0,
			"-0.011": 0.0,
			"-0.01": 0.0,
			"-0.009": 0.301063224306,
			"-0.008": 1.29233948506,
			"-0.007": 6.32263522472,
			"-0.006": 9.55073736968,
			"-0.005": 11.7067023764,
			"-0.004": 10.9332476962,
			"-0.003": 12.5201452883,
			"-0.002": 16.6429540575,
			"-0.001": 24.3536411733,
			"0.0": 19.9442198106,
			"0.001": 23.116213451,
			"0.002": 39.4859431694,
			"0.003": 34.3212212431,
			"0.004": 5.7569288672,
			"0.005": 2.68553687854,
			"0.006": 2.35576367957,
			"0.007": 1.59155121177,
			"0.008": 0.926498366664,
			"0.009": 1.13920687988,
			"0.01": 0.943759867032,
			"0.011": 0.722253269289,
			"0.012": 0.7221355042,
			"0.013": 0.0425482374137,
			"0.014": 0.0,
			"0.015": 0.0,
			"0.016": 0.0,
			"0.017": 0.0,
			"0.018": 0.0,
			"0.019": 0.0,
			"0.02": 0.0,
			"0.021": 0.0,
			"0.022": 0.0,
			"0.023": 0.0,
			"0.024": 0.0,
			"0.025": 0.0
		}
	}
}
