{
	 "smiles": "OC(=O)C1=CN(CC#N)C2=C1C=CC=C2", 
	 "Tm": 473.15, 
	 "num_atms": 23, 
	 "gaussian": { 
		 "optdone": 1, 
		 "sigma_profile": "yes", 
		 "theory": "DFT", 
		 "functional": "B3LYP", 
		 "basiset": "6-31G**", 
		 "properties": { 
			 "R2extent": 3802.7382, 
			 "electric_dipole_moment_norm": 3.74689308761, 
			 "electric_quadrupole_moment_norm": 24.150787487, 
			 "total_energy": -683.938117887, 
			 "HOMO_LUMO_gap": 0.18349, 
			 "cosmo_polarized_energy": -19.97, 
			 "cosmo_cavitation_energy": 29.17, 
			 "cosmo_dispersion_energy": -20.34, 
			 "cosmo_repulsion_energy": 1.58, 
			 "cosmo_total_nonelectrostatic_energy": 10.41, 
			 "SMD_solvation_energy": 7.5 
		},
		"coords": [
			{
				"x": -4.7407077521,
				"y": -0.0600820467,
				"z": 0.2281846863,
				"element": "O" 
			},
			{
				"x": -3.6719987447,
				"y": 0.3644510668,
				"z": 0.9594359426,
				"element": "C" 
			},
			{
				"x": -3.8050101334,
				"y": 1.0561138083,
				"z": 1.9529563513,
				"element": "O" 
			},
			{
				"x": -2.3986677403,
				"y": -0.0994168588,
				"z": 0.4177721562,
				"element": "C" 
			},
			{
				"x": -2.219783093,
				"y": -0.8766472209,
				"z": -0.7048003295,
				"element": "C" 
			},
			{
				"x": -0.8777481661,
				"y": -1.0934133771,
				"z": -0.9105116428,
				"element": "N" 
			},
			{
				"x": -0.3093153177,
				"y": -1.8831608677,
				"z": -1.9826300613,
				"element": "C" 
			},
			{
				"x": 0.0912544405,
				"y": -3.2413277372,
				"z": -1.5658031069,
				"element": "C" 
			},
			{
				"x": 0.410717887,
				"y": -4.3098568688,
				"z": -1.2475862481,
				"element": "N" 
			},
			{
				"x": -0.1538808899,
				"y": -0.4639528992,
				"z": 0.1045820123,
				"element": "C" 
			},
			{
				"x": -1.086273867,
				"y": 0.1797034196,
				"z": 0.9546645515,
				"element": "C" 
			},
			{
				"x": -0.6193691676,
				"y": 0.9079940365,
				"z": 2.0594930114,
				"element": "C" 
			},
			{
				"x": 0.7514556463,
				"y": 0.9666754146,
				"z": 2.2822030096,
				"element": "C" 
			},
			{
				"x": 1.6622192892,
				"y": 0.3131460576,
				"z": 1.4287591007,
				"element": "C" 
			},
			{
				"x": 1.225059115,
				"y": -0.4150406118,
				"z": 0.3266052617,
				"element": "C" 
			},
			{
				"x": -5.5225144253,
				"y": 0.3000457087,
				"z": 0.6777208927,
				"element": "H" 
			},
			{
				"x": -2.9595872017,
				"y": -1.2872811217,
				"z": -1.3765729606,
				"element": "H" 
			},
			{
				"x": -1.0436882147,
				"y": -1.9648199181,
				"z": -2.7893725426,
				"element": "H" 
			},
			{
				"x": 0.5673366586,
				"y": -1.3698936693,
				"z": -2.3939417945,
				"element": "H" 
			},
			{
				"x": -1.3275726497,
				"y": 1.4043231025,
				"z": 2.7127130695,
				"element": "H" 
			},
			{
				"x": 1.1315144794,
				"y": 1.5236157214,
				"z": 3.1333900706,
				"element": "H" 
			},
			{
				"x": 2.7262132849,
				"y": 0.3728294174,
				"z": 1.6366291923,
				"element": "H" 
			},
			{
				"x": 1.9308465623,
				"y": -0.9302045562,
				"z": -0.3176906226,
				"element": "H" 
			}
		],
		 "valence_orbital": [ 
			{
				"type": "occ",
				"energy": -0.31697,
				"method": "rhf"
			},
			{
				"type": "occ",
				"energy": -0.28823,
				"method": "rhf"
			},
			{
				"type": "occ",
				"energy": -0.27412,
				"method": "rhf"
			},
			{
				"type": "occ",
				"energy": -0.24025,
				"method": "rhf"
			},
			{
				"type": "occ",
				"energy": -0.22501,
				"method": "rhf"
			},
			{
				"type": "unocc",
				"energy": -0.04152,
				"method": "rhf"
			},
			{
				"type": "unocc",
				"energy": -0.00582,
				"method": "rhf"
			},
			{
				"type": "unocc",
				"energy": -0.00087,
				"method": "rhf"
			},
			{
				"type": "unocc",
				"energy": 0.01192,
				"method": "rhf"
			},
			{
				"type": "unocc",
				"energy": 0.01765,
				"method": "rhf"
			}
		],
		"cosmo_sigma_profile": { 
			"-0.025": 0.0,
			"-0.024": 0.0,
			"-0.023": 0.0,
			"-0.022": 0.0,
			"-0.021": 0.0,
			"-0.02": 0.0,
			"-0.019": 0.0,
			"-0.018": 0.368838047485,
			"-0.017": 0.895940529481,
			"-0.016": 0.777420608784,
			"-0.015": 0.78059849719,
			"-0.014": 0.73454586457,
			"-0.013": 1.53960488843,
			"-0.012": 3.4790286314,
			"-0.011": 6.84279261223,
			"-0.01": 7.67035254067,
			"-0.009": 6.84580543032,
			"-0.008": 6.45827408904,
			"-0.007": 5.17862856537,
			"-0.006": 7.77534275596,
			"-0.005": 9.72338855354,
			"-0.004": 10.1391884753,
			"-0.003": 10.6252025558,
			"-0.002": 9.83131391516,
			"-0.001": 13.1855206548,
			"0.0": 12.9876742867,
			"0.001": 13.2882477614,
			"0.002": 15.7135640478,
			"0.003": 16.2215710427,
			"0.004": 15.2908137372,
			"0.005": 14.1679150737,
			"0.006": 9.33426165776,
			"0.007": 6.52676906935,
			"0.008": 7.09502706675,
			"0.009": 4.93177812396,
			"0.01": 4.19179131825,
			"0.011": 5.34795182585,
			"0.012": 5.93921168847,
			"0.013": 1.24734488258,
			"0.014": 0.0,
			"0.015": 0.0,
			"0.016": 0.0,
			"0.017": 0.0,
			"0.018": 0.0,
			"0.019": 0.0,
			"0.02": 0.0,
			"0.021": 0.0,
			"0.022": 0.0,
			"0.023": 0.0,
			"0.024": 0.0,
			"0.025": 0.0
		}
	}
}
