{
	 "smiles": "O=C(NC1=NN=CS1)C1CCCNC1", 
	 "Tm": 460.15, 
	 "num_atms": 26, 
	 "gaussian": { 
		 "optdone": 1, 
		 "sigma_profile": "yes", 
		 "theory": "DFT", 
		 "functional": "B3LYP", 
		 "basiset": "6-31G**", 
		 "properties": { 
			 "R2extent": 5965.4278, 
			 "electric_dipole_moment_norm": 5.98851222342, 
			 "electric_quadrupole_moment_norm": 27.3197817674, 
			 "total_energy": -1004.45427213, 
			 "HOMO_LUMO_gap": 0.18317, 
			 "cosmo_polarized_energy": -23.5, 
			 "cosmo_cavitation_energy": 30.38, 
			 "cosmo_dispersion_energy": -22.65, 
			 "cosmo_repulsion_energy": 1.74, 
			 "cosmo_total_nonelectrostatic_energy": 9.48, 
			 "SMD_solvation_energy": 1.62 
		},
		"coords": [
			{
				"x": 1.6682754189,
				"y": -1.9950037308,
				"z": 3.6454228058,
				"element": "O" 
			},
			{
				"x": 0.903574372,
				"y": -1.8714360042,
				"z": 2.7134224423,
				"element": "C" 
			},
			{
				"x": 1.1101715503,
				"y": -0.9440254001,
				"z": 1.6773902711,
				"element": "N" 
			},
			{
				"x": 2.1645797987,
				"y": -0.0486676499,
				"z": 1.5860458747,
				"element": "C" 
			},
			{
				"x": 2.76987217,
				"y": 0.5160149638,
				"z": 2.5899596372,
				"element": "N" 
			},
			{
				"x": 3.778446133,
				"y": 1.3523195551,
				"z": 2.1958816439,
				"element": "N" 
			},
			{
				"x": 3.9148972724,
				"y": 1.4247717963,
				"z": 0.908036091,
				"element": "C" 
			},
			{
				"x": 2.8084339075,
				"y": 0.4184236651,
				"z": 0.0025658119,
				"element": "S" 
			},
			{
				"x": -0.394036979,
				"y": -2.6761380902,
				"z": 2.6219097285,
				"element": "C" 
			},
			{
				"x": -1.0266280026,
				"y": -2.8951395852,
				"z": 1.2205237767,
				"element": "C" 
			},
			{
				"x": -2.1415316259,
				"y": -1.8784301652,
				"z": 0.9249192582,
				"element": "C" 
			},
			{
				"x": -3.276957573,
				"y": -1.9869266029,
				"z": 1.9705653412,
				"element": "C" 
			},
			{
				"x": -2.7552907763,
				"y": -2.5455585572,
				"z": 3.2243779661,
				"element": "N" 
			},
			{
				"x": -1.4401613898,
				"y": -2.0192311103,
				"z": 3.5705232019,
				"element": "C" 
			},
			{
				"x": 0.4836395766,
				"y": -0.9835995596,
				"z": 0.8881805783,
				"element": "H" 
			},
			{
				"x": 4.6428545847,
				"y": 2.0585670506,
				"z": 0.4177378741,
				"element": "H" 
			},
			{
				"x": -0.1335287915,
				"y": -3.6503729908,
				"z": 3.0436388639,
				"element": "H" 
			},
			{
				"x": -0.2624964545,
				"y": -2.8886140508,
				"z": 0.4329267036,
				"element": "H" 
			},
			{
				"x": -1.4594278915,
				"y": -3.8993676476,
				"z": 1.2019109323,
				"element": "H" 
			},
			{
				"x": -1.734382815,
				"y": -0.8588050315,
				"z": 0.9362272795,
				"element": "H" 
			},
			{
				"x": -2.5465900503,
				"y": -2.0320721371,
				"z": -0.0804127904,
				"element": "H" 
			},
			{
				"x": -3.7372465177,
				"y": -0.9913107745,
				"z": 2.1000745881,
				"element": "H" 
			},
			{
				"x": -4.0629919232,
				"y": -2.657142859,
				"z": 1.6015543654,
				"element": "H" 
			},
			{
				"x": -3.414963377,
				"y": -2.3985388136,
				"z": 3.9809517876,
				"element": "H" 
			},
			{
				"x": -1.3769723301,
				"y": -0.9171870201,
				"z": 3.4933223837,
				"element": "H" 
			},
			{
				"x": -1.1997382869,
				"y": -2.2761292502,
				"z": 4.6046435835,
				"element": "H" 
			}
		],
		 "valence_orbital": [ 
			{
				"type": "occ",
				"energy": -0.30142,
				"method": "rhf"
			},
			{
				"type": "occ",
				"energy": -0.27127,
				"method": "rhf"
			},
			{
				"type": "occ",
				"energy": -0.25471,
				"method": "rhf"
			},
			{
				"type": "occ",
				"energy": -0.24823,
				"method": "rhf"
			},
			{
				"type": "occ",
				"energy": -0.22644,
				"method": "rhf"
			},
			{
				"type": "unocc",
				"energy": -0.04327,
				"method": "rhf"
			},
			{
				"type": "unocc",
				"energy": -0.01393,
				"method": "rhf"
			},
			{
				"type": "unocc",
				"energy": 0.00725,
				"method": "rhf"
			},
			{
				"type": "unocc",
				"energy": 0.04495,
				"method": "rhf"
			},
			{
				"type": "unocc",
				"energy": 0.05548,
				"method": "rhf"
			}
		],
		"cosmo_sigma_profile": { 
			"-0.025": 0.0,
			"-0.024": 0.0,
			"-0.023": 0.0,
			"-0.022": 0.0,
			"-0.021": 0.0,
			"-0.02": 0.0,
			"-0.019": 0.0,
			"-0.018": 0.0,
			"-0.017": 0.0,
			"-0.016": 0.295570609133,
			"-0.015": 0.932050903209,
			"-0.014": 1.25780434557,
			"-0.013": 1.23135862646,
			"-0.012": 1.48362629746,
			"-0.011": 3.37336168831,
			"-0.01": 5.07363442882,
			"-0.009": 4.58889162905,
			"-0.008": 3.76510503359,
			"-0.007": 5.90431889865,
			"-0.006": 6.20521314415,
			"-0.005": 9.31136486503,
			"-0.004": 15.0878402971,
			"-0.003": 24.8593130491,
			"-0.002": 33.1643158951,
			"-0.001": 32.2600455907,
			"0.0": 18.306991832,
			"0.001": 9.11975048567,
			"0.002": 6.58548075395,
			"0.003": 4.12501310275,
			"0.004": 3.22037582507,
			"0.005": 3.7991648832,
			"0.006": 3.85779480113,
			"0.007": 3.7469391691,
			"0.008": 4.07291610075,
			"0.009": 3.98162435004,
			"0.01": 4.73797292712,
			"0.011": 5.64089240903,
			"0.012": 6.72742113237,
			"0.013": 6.37366341728,
			"0.014": 3.76680476687,
			"0.015": 2.43095272884,
			"0.016": 1.7333648384,
			"0.017": 0.730345634096,
			"0.018": 0.0,
			"0.019": 0.0,
			"0.02": 0.0,
			"0.021": 0.0,
			"0.022": 0.0,
			"0.023": 0.0,
			"0.024": 0.0,
			"0.025": 0.0
		}
	}
}
