{
	 "smiles": "ClC(=O)C1=CC(Cl)=C(Cl)C=C1", 
	 "Tm": 305.15, 
	 "num_atms": 14, 
	 "gaussian": { 
		 "optdone": 1, 
		 "sigma_profile": "yes", 
		 "theory": "DFT", 
		 "functional": "B3LYP", 
		 "basiset": "6-31G**", 
		 "properties": { 
			 "R2extent": 3625.1432, 
			 "electric_dipole_moment_norm": 2.37461300847, 
			 "electric_quadrupole_moment_norm": 9.11128085946, 
			 "total_energy": -1724.3561116, 
			 "HOMO_LUMO_gap": 0.18106, 
			 "cosmo_polarized_energy": -5.66, 
			 "cosmo_cavitation_energy": 24.53, 
			 "cosmo_dispersion_energy": -18.5, 
			 "cosmo_repulsion_energy": 1.48, 
			 "cosmo_total_nonelectrostatic_energy": 7.52, 
			 "SMD_solvation_energy": 4.31 
		},
		"coords": [
			{
				"x": -1.5388114584,
				"y": 2.8853546727,
				"z": -1.3560937295,
				"element": "Cl" 
			},
			{
				"x": 0.1068032966,
				"y": 2.5515955866,
				"z": -0.6433337702,
				"element": "C" 
			},
			{
				"x": 0.9843161816,
				"y": 3.343987705,
				"z": -0.8108873422,
				"element": "O" 
			},
			{
				"x": 0.2207189605,
				"y": 1.2785829946,
				"z": 0.1111443592,
				"element": "C" 
			},
			{
				"x": 1.4801412314,
				"y": 1.0058246,
				"z": 0.6663999049,
				"element": "C" 
			},
			{
				"x": 1.6918465992,
				"y": -0.1613399093,
				"z": 1.3923492439,
				"element": "C" 
			},
			{
				"x": 3.2715519769,
				"y": -0.4604760112,
				"z": 2.0645810576,
				"element": "Cl" 
			},
			{
				"x": 0.6349189593,
				"y": -1.0710404922,
				"z": 1.5687294968,
				"element": "C" 
			},
			{
				"x": 0.8490942169,
				"y": -2.5436463703,
				"z": 2.4678493112,
				"element": "Cl" 
			},
			{
				"x": -0.618802035,
				"y": -0.796719388,
				"z": 1.0143784908,
				"element": "C" 
			},
			{
				"x": -0.8298848843,
				"y": 0.3698007288,
				"z": 0.2889984348,
				"element": "C" 
			},
			{
				"x": 2.2897147654,
				"y": 1.7119991983,
				"z": 0.5260206803,
				"element": "H" 
			},
			{
				"x": -1.4239107868,
				"y": -1.5079315017,
				"z": 1.1590210719,
				"element": "H" 
			},
			{
				"x": -1.8046970234,
				"y": 0.5727081866,
				"z": -0.1361572094,
				"element": "H" 
			}
		],
		 "valence_orbital": [ 
			{
				"type": "occ",
				"energy": -0.33114,
				"method": "rhf"
			},
			{
				"type": "occ",
				"energy": -0.32745,
				"method": "rhf"
			},
			{
				"type": "occ",
				"energy": -0.30571,
				"method": "rhf"
			},
			{
				"type": "occ",
				"energy": -0.28763,
				"method": "rhf"
			},
			{
				"type": "occ",
				"energy": -0.27526,
				"method": "rhf"
			},
			{
				"type": "unocc",
				"energy": -0.0942,
				"method": "rhf"
			},
			{
				"type": "unocc",
				"energy": -0.04659,
				"method": "rhf"
			},
			{
				"type": "unocc",
				"energy": -0.0167,
				"method": "rhf"
			},
			{
				"type": "unocc",
				"energy": 0.00552,
				"method": "rhf"
			},
			{
				"type": "unocc",
				"energy": 0.01079,
				"method": "rhf"
			}
		],
		"cosmo_sigma_profile": { 
			"-0.025": 0.0,
			"-0.024": 0.0,
			"-0.023": 0.0,
			"-0.022": 0.0,
			"-0.021": 0.0,
			"-0.02": 0.0,
			"-0.019": 0.0,
			"-0.018": 0.0,
			"-0.017": 0.0,
			"-0.016": 0.0,
			"-0.015": 0.0,
			"-0.014": 0.0,
			"-0.013": 0.0,
			"-0.012": 0.0,
			"-0.011": 0.0,
			"-0.01": 0.0,
			"-0.009": 1.64695449855,
			"-0.008": 4.8265298657,
			"-0.007": 4.54781109166,
			"-0.006": 4.75491046331,
			"-0.005": 6.6705266434,
			"-0.004": 9.831344407,
			"-0.003": 13.9219836155,
			"-0.002": 21.316630433,
			"-0.001": 27.1528338611,
			"0.0": 20.7733319212,
			"0.001": 16.2691673668,
			"0.002": 17.5502078025,
			"0.003": 24.2037626098,
			"0.004": 15.0210704554,
			"0.005": 5.54113404877,
			"0.006": 2.32267341104,
			"0.007": 2.55140561651,
			"0.008": 4.16825674666,
			"0.009": 2.00775086103,
			"0.01": 0.119610945991,
			"0.011": 0.0,
			"0.012": 0.0,
			"0.013": 0.0,
			"0.014": 0.0,
			"0.015": 0.0,
			"0.016": 0.0,
			"0.017": 0.0,
			"0.018": 0.0,
			"0.019": 0.0,
			"0.02": 0.0,
			"0.021": 0.0,
			"0.022": 0.0,
			"0.023": 0.0,
			"0.024": 0.0,
			"0.025": 0.0
		}
	}
}
