{
	 "smiles": "NC1=NC(=CS1)C1=CC=C(Br)S1", 
	 "Tm": 443.15, 
	 "num_atms": 17, 
	 "gaussian": { 
		 "optdone": 1, 
		 "sigma_profile": "yes", 
		 "theory": "DFT", 
		 "functional": "B3LYP", 
		 "basiset": "6-31G**", 
		 "properties": { 
			 "R2extent": 6041.8132, 
			 "electric_dipole_moment_norm": 3.39810570318, 
			 "electric_quadrupole_moment_norm": 12.0996599713, 
			 "total_energy": -3747.01758163, 
			 "HOMO_LUMO_gap": 0.15636, 
			 "cosmo_polarized_energy": -10.59, 
			 "cosmo_cavitation_energy": 27.51, 
			 "cosmo_dispersion_energy": -21.99, 
			 "cosmo_repulsion_energy": 1.67, 
			 "cosmo_total_nonelectrostatic_energy": 7.19, 
			 "SMD_solvation_energy": 1.79 
		},
		"coords": [
			{
				"x": 2.6586951949,
				"y": -3.1192772794,
				"z": -1.4015005614,
				"element": "N" 
			},
			{
				"x": 1.7123471599,
				"y": -2.1504633883,
				"z": -1.1632342454,
				"element": "C" 
			},
			{
				"x": 1.5040866757,
				"y": -1.6071720705,
				"z": -0.0020083906,
				"element": "N" 
			},
			{
				"x": 0.435562523,
				"y": -0.7206236425,
				"z": -0.05137417,
				"element": "C" 
			},
			{
				"x": -0.1650395993,
				"y": -0.5871771737,
				"z": -1.274538489,
				"element": "C" 
			},
			{
				"x": 0.606718442,
				"y": -1.624951001,
				"z": -2.444912463,
				"element": "S" 
			},
			{
				"x": 0.0754853213,
				"y": -0.0276873212,
				"z": 1.1790668329,
				"element": "C" 
			},
			{
				"x": 0.675991669,
				"y": -0.1644741041,
				"z": 2.4085328227,
				"element": "C" 
			},
			{
				"x": 0.0973366528,
				"y": 0.6494707723,
				"z": 3.4246945043,
				"element": "C" 
			},
			{
				"x": -0.9421942128,
				"y": 1.3993847821,
				"z": 2.9509373883,
				"element": "C" 
			},
			{
				"x": -2.003497993,
				"y": 2.6160409443,
				"z": 3.9235864125,
				"element": "Br" 
			},
			{
				"x": -1.2396641061,
				"y": 1.1300908458,
				"z": 1.2557341518,
				"element": "S" 
			},
			{
				"x": 3.0548286393,
				"y": -3.1571776286,
				"z": -2.3295462467,
				"element": "H" 
			},
			{
				"x": 3.3400872042,
				"y": -3.1994940461,
				"z": -0.6581343616,
				"element": "H" 
			},
			{
				"x": -0.993018634,
				"y": 0.0445025478,
				"z": -1.5609979675,
				"element": "H" 
			},
			{
				"x": 1.5101591488,
				"y": -0.8368902246,
				"z": 2.5633134052,
				"element": "H" 
			},
			{
				"x": 0.4320159142,
				"y": 0.6792979876,
				"z": 4.4539813774,
				"element": "H" 
			}
		],
		 "valence_orbital": [ 
			{
				"type": "occ",
				"energy": -0.28408,
				"method": "rhf"
			},
			{
				"type": "occ",
				"energy": -0.28145,
				"method": "rhf"
			},
			{
				"type": "occ",
				"energy": -0.25855,
				"method": "rhf"
			},
			{
				"type": "occ",
				"energy": -0.23992,
				"method": "rhf"
			},
			{
				"type": "occ",
				"energy": -0.19928,
				"method": "rhf"
			},
			{
				"type": "unocc",
				"energy": -0.04292,
				"method": "rhf"
			},
			{
				"type": "unocc",
				"energy": -0.00195,
				"method": "rhf"
			},
			{
				"type": "unocc",
				"energy": 0.0026,
				"method": "rhf"
			},
			{
				"type": "unocc",
				"energy": 0.00837,
				"method": "rhf"
			},
			{
				"type": "unocc",
				"energy": 0.02181,
				"method": "rhf"
			}
		],
		"cosmo_sigma_profile": { 
			"-0.025": 0.0,
			"-0.024": 0.0,
			"-0.023": 0.0,
			"-0.022": 0.0,
			"-0.021": 0.0,
			"-0.02": 0.0,
			"-0.019": 0.0,
			"-0.018": 0.0,
			"-0.017": 0.0,
			"-0.016": 0.0,
			"-0.015": 0.538722924882,
			"-0.014": 1.98940577683,
			"-0.013": 3.23508653024,
			"-0.012": 2.54326911534,
			"-0.011": 2.36443359766,
			"-0.01": 2.4954886429,
			"-0.009": 3.40723010373,
			"-0.008": 4.36178086882,
			"-0.007": 5.81710080714,
			"-0.006": 7.61297394727,
			"-0.005": 7.83634335166,
			"-0.004": 8.24097459175,
			"-0.003": 8.59160571838,
			"-0.002": 8.97615411079,
			"-0.001": 12.528421118,
			"0.0": 16.6881932986,
			"0.001": 21.341649589,
			"0.002": 30.176486348,
			"0.003": 36.3256599749,
			"0.004": 24.9373941085,
			"0.005": 4.93106846271,
			"0.006": 3.03217249387,
			"0.007": 2.87938584996,
			"0.008": 1.68849125196,
			"0.009": 2.31698160696,
			"0.01": 1.78548204366,
			"0.011": 1.95657725978,
			"0.012": 0.568703889648,
			"0.013": 0.0,
			"0.014": 0.0,
			"0.015": 0.0,
			"0.016": 0.0,
			"0.017": 0.0,
			"0.018": 0.0,
			"0.019": 0.0,
			"0.02": 0.0,
			"0.021": 0.0,
			"0.022": 0.0,
			"0.023": 0.0,
			"0.024": 0.0,
			"0.025": 0.0
		}
	}
}
