{
	 "smiles": "ClC1=NC2=C(C=CC=C2)C(=C1)C(=O)N1CCOCC1", 
	 "Tm": 449.15, 
	 "num_atms": 32, 
	 "gaussian": { 
		 "optdone": 1, 
		 "sigma_profile": "yes", 
		 "theory": "DFT", 
		 "functional": "B3LYP", 
		 "basiset": "6-31G**", 
		 "properties": { 
			 "R2extent": 6384.7306, 
			 "electric_dipole_moment_norm": 3.24837843547, 
			 "electric_quadrupole_moment_norm": 18.2918614058, 
			 "total_energy": -1261.47228749, 
			 "HOMO_LUMO_gap": 0.17153, 
			 "cosmo_polarized_energy": -14.57, 
			 "cosmo_cavitation_energy": 36.67, 
			 "cosmo_dispersion_energy": -26.31, 
			 "cosmo_repulsion_energy": 2.03, 
			 "cosmo_total_nonelectrostatic_energy": 12.39, 
			 "SMD_solvation_energy": 4.07 
		},
		"coords": [
			{
				"x": 1.3948258106,
				"y": 4.0980805505,
				"z": -2.077516514,
				"element": "Cl" 
			},
			{
				"x": 0.3280166382,
				"y": 3.2014417058,
				"z": -0.9917917125,
				"element": "C" 
			},
			{
				"x": -0.7933766616,
				"y": 3.7626998768,
				"z": -0.6579992297,
				"element": "N" 
			},
			{
				"x": -1.6188356226,
				"y": 3.0758382733,
				"z": 0.1909783521,
				"element": "C" 
			},
			{
				"x": -1.2845398814,
				"y": 1.7862529444,
				"z": 0.7161723664,
				"element": "C" 
			},
			{
				"x": -2.1905920701,
				"y": 1.1532521757,
				"z": 1.6072132157,
				"element": "C" 
			},
			{
				"x": -3.3768827755,
				"y": 1.7673633418,
				"z": 1.945371178,
				"element": "C" 
			},
			{
				"x": -3.7098216887,
				"y": 3.0367725851,
				"z": 1.4152568351,
				"element": "C" 
			},
			{
				"x": -2.8473391503,
				"y": 3.6815322049,
				"z": 0.5569488629,
				"element": "C" 
			},
			{
				"x": -0.0492765808,
				"y": 1.2067794376,
				"z": 0.2855302222,
				"element": "C" 
			},
			{
				"x": 0.7644994356,
				"y": 1.9215010252,
				"z": -0.5665957687,
				"element": "C" 
			},
			{
				"x": 0.4170129959,
				"y": -0.1168203822,
				"z": 0.8493468795,
				"element": "C" 
			},
			{
				"x": 0.5517887372,
				"y": -0.2386899367,
				"z": 2.0649992213,
				"element": "O" 
			},
			{
				"x": 0.7178035795,
				"y": -1.1198408614,
				"z": -0.0361831938,
				"element": "N" 
			},
			{
				"x": 1.2691880188,
				"y": -2.3788244516,
				"z": 0.4761964532,
				"element": "C" 
			},
			{
				"x": 0.3319467433,
				"y": -3.5380686616,
				"z": 0.1380297834,
				"element": "C" 
			},
			{
				"x": 0.0610503019,
				"y": -3.5886812103,
				"z": -1.2582278365,
				"element": "O" 
			},
			{
				"x": -0.5521013079,
				"y": -2.390200654,
				"z": -1.7047141705,
				"element": "C" 
			},
			{
				"x": 0.3445839119,
				"y": -1.1723249199,
				"z": -1.4516366102,
				"element": "C" 
			},
			{
				"x": -1.9224723777,
				"y": 0.1960075016,
				"z": 2.0388902309,
				"element": "H" 
			},
			{
				"x": -4.0609146268,
				"y": 1.2769334848,
				"z": 2.6314495797,
				"element": "H" 
			},
			{
				"x": -4.6491295968,
				"y": 3.5051083509,
				"z": 1.6942227347,
				"element": "H" 
			},
			{
				"x": -3.0708845949,
				"y": 4.6577750449,
				"z": 0.1402963805,
				"element": "H" 
			},
			{
				"x": 1.7167607441,
				"y": 1.5309653899,
				"z": -0.9053356793,
				"element": "H" 
			},
			{
				"x": 2.2460131537,
				"y": -2.5506611006,
				"z": 0.0051746848,
				"element": "H" 
			},
			{
				"x": 1.4026655272,
				"y": -2.2733549803,
				"z": 1.5532821607,
				"element": "H" 
			},
			{
				"x": -0.6076752043,
				"y": -3.4325712578,
				"z": 0.7044464571,
				"element": "H" 
			},
			{
				"x": 0.7927595022,
				"y": -4.494074074,
				"z": 0.4019032541,
				"element": "H" 
			},
			{
				"x": -0.7343641697,
				"y": -2.5087158224,
				"z": -2.776826425,
				"element": "H" 
			},
			{
				"x": -1.5202824832,
				"y": -2.2421709387,
				"z": -1.1975724582,
				"element": "H" 
			},
			{
				"x": 1.2533979378,
				"y": -1.2590172925,
				"z": -2.0624214281,
				"element": "H" 
			},
			{
				"x": -0.1744242455,
				"y": -0.2574873492,
				"z": -1.7374878255,
				"element": "H" 
			}
		],
		 "valence_orbital": [ 
			{
				"type": "occ",
				"energy": -0.28214,
				"method": "rhf"
			},
			{
				"type": "occ",
				"energy": -0.2629,
				"method": "rhf"
			},
			{
				"type": "occ",
				"energy": -0.25747,
				"method": "rhf"
			},
			{
				"type": "occ",
				"energy": -0.24582,
				"method": "rhf"
			},
			{
				"type": "occ",
				"energy": -0.24254,
				"method": "rhf"
			},
			{
				"type": "unocc",
				"energy": -0.07101,
				"method": "rhf"
			},
			{
				"type": "unocc",
				"energy": -0.03076,
				"method": "rhf"
			},
			{
				"type": "unocc",
				"energy": -0.00838,
				"method": "rhf"
			},
			{
				"type": "unocc",
				"energy": 0.02338,
				"method": "rhf"
			},
			{
				"type": "unocc",
				"energy": 0.03559,
				"method": "rhf"
			}
		],
		"cosmo_sigma_profile": { 
			"-0.025": 0.0,
			"-0.024": 0.0,
			"-0.023": 0.0,
			"-0.022": 0.0,
			"-0.021": 0.0,
			"-0.02": 0.0,
			"-0.019": 0.0,
			"-0.018": 0.0,
			"-0.017": 0.0,
			"-0.016": 0.0,
			"-0.015": 0.0,
			"-0.014": 0.0,
			"-0.013": 0.0,
			"-0.012": 0.0,
			"-0.011": 0.0,
			"-0.01": 0.0,
			"-0.009": 0.314853133787,
			"-0.008": 1.45686061652,
			"-0.007": 4.7721081587,
			"-0.006": 18.0843628192,
			"-0.005": 33.0034680988,
			"-0.004": 35.3470895127,
			"-0.003": 23.6329606144,
			"-0.002": 20.9119709529,
			"-0.001": 18.6005916622,
			"0.0": 16.4728547359,
			"0.001": 17.7685018666,
			"0.002": 20.1686253789,
			"0.003": 21.6407658943,
			"0.004": 16.7217623197,
			"0.005": 8.71741428325,
			"0.006": 4.61395549545,
			"0.007": 5.27009220633,
			"0.008": 3.91372698981,
			"0.009": 3.31114413763,
			"0.01": 2.95286757886,
			"0.011": 5.31532702732,
			"0.012": 4.5302168661,
			"0.013": 6.04372419317,
			"0.014": 0.956055927598,
			"0.015": 0.0,
			"0.016": 0.0,
			"0.017": 0.0,
			"0.018": 0.0,
			"0.019": 0.0,
			"0.02": 0.0,
			"0.021": 0.0,
			"0.022": 0.0,
			"0.023": 0.0,
			"0.024": 0.0,
			"0.025": 0.0
		}
	}
}
