{
	 "smiles": "FC(F)CC(F)(F)F", 
	 "Tm": 171.15, 
	 "num_atms": 11, 
	 "gaussian": { 
		 "optdone": 1, 
		 "sigma_profile": "yes", 
		 "theory": "DFT", 
		 "functional": "B3LYP", 
		 "basiset": "6-31G**", 
		 "properties": { 
			 "R2extent": 1021.1723, 
			 "electric_dipole_moment_norm": 2.96966042672, 
			 "electric_quadrupole_moment_norm": 2.78772989187, 
			 "total_energy": -615.329882239, 
			 "HOMO_LUMO_gap": 0.41762, 
			 "cosmo_polarized_energy": -6.32, 
			 "cosmo_cavitation_energy": 16.84, 
			 "cosmo_dispersion_energy": -11.93, 
			 "cosmo_repulsion_energy": 0.93, 
			 "cosmo_total_nonelectrostatic_energy": 5.84, 
			 "SMD_solvation_energy": 4.94 
		},
		"coords": [
			{
				"x": 1.6069318098,
				"y": -1.5229619037,
				"z": -1.1160105415,
				"element": "F" 
			},
			{
				"x": 1.6818108035,
				"y": -0.4086515598,
				"z": -0.3332403726,
				"element": "C" 
			},
			{
				"x": 2.1872533702,
				"y": -0.7781235486,
				"z": 0.8783931418,
				"element": "F" 
			},
			{
				"x": 0.307203433,
				"y": 0.2204548772,
				"z": -0.1682178011,
				"element": "C" 
			},
			{
				"x": -0.7410994601,
				"y": -0.6743369014,
				"z": 0.4701902752,
				"element": "C" 
			},
			{
				"x": -0.9673987549,
				"y": -1.7861644547,
				"z": -0.2527514115,
				"element": "F" 
			},
			{
				"x": -0.3949041463,
				"y": -1.0540436775,
				"z": 1.713563936,
				"element": "F" 
			},
			{
				"x": -1.9128191657,
				"y": -0.0025889181,
				"z": 0.5612200625,
				"element": "F" 
			},
			{
				"x": 2.3880180963,
				"y": 0.28977967,
				"z": -0.7995422337,
				"element": "H" 
			},
			{
				"x": -0.064058865,
				"y": 0.5211977182,
				"z": -1.1512750169,
				"element": "H" 
			},
			{
				"x": 0.4011628793,
				"y": 1.1178386985,
				"z": 0.4486699618,
				"element": "H" 
			}
		],
		 "valence_orbital": [ 
			{
				"type": "occ",
				"energy": -0.40775,
				"method": "rhf"
			},
			{
				"type": "occ",
				"energy": -0.39945,
				"method": "rhf"
			},
			{
				"type": "occ",
				"energy": -0.39519,
				"method": "rhf"
			},
			{
				"type": "occ",
				"energy": -0.38802,
				"method": "rhf"
			},
			{
				"type": "occ",
				"energy": -0.34393,
				"method": "rhf"
			},
			{
				"type": "unocc",
				"energy": 0.07369,
				"method": "rhf"
			},
			{
				"type": "unocc",
				"energy": 0.10344,
				"method": "rhf"
			},
			{
				"type": "unocc",
				"energy": 0.13065,
				"method": "rhf"
			},
			{
				"type": "unocc",
				"energy": 0.13354,
				"method": "rhf"
			},
			{
				"type": "unocc",
				"energy": 0.14372,
				"method": "rhf"
			}
		],
		"cosmo_sigma_profile": { 
			"-0.025": 0.0,
			"-0.024": 0.0,
			"-0.023": 0.0,
			"-0.022": 0.0,
			"-0.021": 0.0,
			"-0.02": 0.0,
			"-0.019": 0.0,
			"-0.018": 0.0,
			"-0.017": 0.0,
			"-0.016": 0.0,
			"-0.015": 0.0,
			"-0.014": 0.0,
			"-0.013": 0.0,
			"-0.012": 0.0,
			"-0.011": 0.0,
			"-0.01": 0.943171649509,
			"-0.009": 9.80889342276,
			"-0.008": 7.43120784565,
			"-0.007": 5.77753287329,
			"-0.006": 3.92360448181,
			"-0.005": 3.72262527204,
			"-0.004": 2.94760184352,
			"-0.003": 2.79538979779,
			"-0.002": 2.81193401454,
			"-0.001": 3.37553281076,
			"0.0": 4.68065808771,
			"0.001": 6.66125959544,
			"0.002": 16.1586250524,
			"0.003": 31.8996428767,
			"0.004": 21.3083560877,
			"0.005": 9.68394247036,
			"0.006": 0.0,
			"0.007": 0.0,
			"0.008": 0.0,
			"0.009": 0.0,
			"0.01": 0.0,
			"0.011": 0.0,
			"0.012": 0.0,
			"0.013": 0.0,
			"0.014": 0.0,
			"0.015": 0.0,
			"0.016": 0.0,
			"0.017": 0.0,
			"0.018": 0.0,
			"0.019": 0.0,
			"0.02": 0.0,
			"0.021": 0.0,
			"0.022": 0.0,
			"0.023": 0.0,
			"0.024": 0.0,
			"0.025": 0.0
		}
	}
}
