{
	 "smiles": "CCCCCCCCCC(C)CC", 
	 "Tm": 220.15, 
	 "num_atms": 41, 
	 "gaussian": { 
		 "optdone": 1, 
		 "sigma_profile": "yes", 
		 "theory": "DFT", 
		 "functional": "B3LYP", 
		 "basiset": "6-31G**", 
		 "properties": { 
			 "R2extent": 4264.2209, 
			 "electric_dipole_moment_norm": 0.104324973041, 
			 "electric_quadrupole_moment_norm": 0.191625050554, 
			 "total_energy": -512.296646186, 
			 "HOMO_LUMO_gap": 0.35226, 
			 "cosmo_polarized_energy": -0.92, 
			 "cosmo_cavitation_energy": 39.19, 
			 "cosmo_dispersion_energy": -25.69, 
			 "cosmo_repulsion_energy": 2.08, 
			 "cosmo_total_nonelectrostatic_energy": 15.59, 
			 "SMD_solvation_energy": 5.59 
		},
		"coords": [
			{
				"x": -0.4355415858,
				"y": -2.901889227,
				"z": -0.5058770305,
				"element": "C" 
			},
			{
				"x": -1.0295961,
				"y": -2.8929112397,
				"z": -1.9195371408,
				"element": "C" 
			},
			{
				"x": -0.9495013255,
				"y": -1.5351816756,
				"z": -2.6370256558,
				"element": "C" 
			},
			{
				"x": -1.7878891404,
				"y": -0.419042963,
				"z": -1.9980879467,
				"element": "C" 
			},
			{
				"x": -1.7697100402,
				"y": 0.883786648,
				"z": -2.8131479337,
				"element": "C" 
			},
			{
				"x": -2.6072504766,
				"y": 2.0406199937,
				"z": -2.2247533302,
				"element": "C" 
			},
			{
				"x": -1.9050578692,
				"y": 3.0219013464,
				"z": -1.2643667275,
				"element": "C" 
			},
			{
				"x": -1.3893533216,
				"y": 2.4653482059,
				"z": 0.0827170714,
				"element": "C" 
			},
			{
				"x": 0.0753700314,
				"y": 1.9965318484,
				"z": 0.0628869728,
				"element": "C" 
			},
			{
				"x": 0.5667444018,
				"y": 1.3542474917,
				"z": 1.3772703286,
				"element": "C" 
			},
			{
				"x": 0.5742680645,
				"y": 2.3464568094,
				"z": 2.552479093,
				"element": "C" 
			},
			{
				"x": 1.937575134,
				"y": 0.6595366126,
				"z": 1.2026741377,
				"element": "C" 
			},
			{
				"x": 3.1149990491,
				"y": 1.5730923935,
				"z": 0.836034646,
				"element": "C" 
			},
			{
				"x": -0.4744471182,
				"y": -3.9047938439,
				"z": -0.0677313138,
				"element": "H" 
			},
			{
				"x": 0.6146504491,
				"y": -2.5863906786,
				"z": -0.5177162263,
				"element": "H" 
			},
			{
				"x": -0.974876318,
				"y": -2.229234562,
				"z": 0.1689158423,
				"element": "H" 
			},
			{
				"x": -2.0790316634,
				"y": -3.2158394251,
				"z": -1.8763053965,
				"element": "H" 
			},
			{
				"x": -0.5080189349,
				"y": -3.6425295947,
				"z": -2.5284836808,
				"element": "H" 
			},
			{
				"x": 0.1017132151,
				"y": -1.2154303267,
				"z": -2.6881181462,
				"element": "H" 
			},
			{
				"x": -1.2746983052,
				"y": -1.6670108666,
				"z": -3.6783476997,
				"element": "H" 
			},
			{
				"x": -1.4386308505,
				"y": -0.2297118256,
				"z": -0.9770999334,
				"element": "H" 
			},
			{
				"x": -2.8290595971,
				"y": -0.7604029044,
				"z": -1.9026669045,
				"element": "H" 
			},
			{
				"x": -0.732864797,
				"y": 1.2165720532,
				"z": -2.9614882914,
				"element": "H" 
			},
			{
				"x": -2.1494645392,
				"y": 0.6517205573,
				"z": -3.8173910663,
				"element": "H" 
			},
			{
				"x": -3.4928901795,
				"y": 1.6226393993,
				"z": -1.7248468369,
				"element": "H" 
			},
			{
				"x": -2.9968915242,
				"y": 2.640672882,
				"z": -3.0571257124,
				"element": "H" 
			},
			{
				"x": -1.0720078765,
				"y": 3.5059425765,
				"z": -1.7940584175,
				"element": "H" 
			},
			{
				"x": -2.6238471943,
				"y": 3.8243430552,
				"z": -1.0547309645,
				"element": "H" 
			},
			{
				"x": -2.0394364855,
				"y": 1.6443080081,
				"z": 0.4163343469,
				"element": "H" 
			},
			{
				"x": -1.4914705425,
				"y": 3.2499738585,
				"z": 0.841760002,
				"element": "H" 
			},
			{
				"x": 0.7105627259,
				"y": 2.8581190132,
				"z": -0.1856807153,
				"element": "H" 
			},
			{
				"x": 0.2190666526,
				"y": 1.2743257822,
				"z": -0.7504488334,
				"element": "H" 
			},
			{
				"x": -0.1471505886,
				"y": 0.5553171327,
				"z": 1.6311645432,
				"element": "H" 
			},
			{
				"x": 0.9629558141,
				"y": 1.873810564,
				"z": 3.4615887866,
				"element": "H" 
			},
			{
				"x": -0.4313544867,
				"y": 2.7129514685,
				"z": 2.7792921554,
				"element": "H" 
			},
			{
				"x": 1.2006409536,
				"y": 3.2199603188,
				"z": 2.3383227584,
				"element": "H" 
			},
			{
				"x": 2.1771013864,
				"y": 0.129906734,
				"z": 2.134555244,
				"element": "H" 
			},
			{
				"x": 1.8368595461,
				"y": -0.1163195334,
				"z": 0.431713647,
				"element": "H" 
			},
			{
				"x": 3.2890747124,
				"y": 2.3400236894,
				"z": 1.5978432341,
				"element": "H" 
			},
			{
				"x": 2.953716984,
				"y": 2.0839673027,
				"z": -0.1187883398,
				"element": "H" 
			},
			{
				"x": 4.0379417407,
				"y": 0.9911129213,
				"z": 0.7428714342,
				"element": "H" 
			}
		],
		 "valence_orbital": [ 
			{
				"type": "occ",
				"energy": -0.3107,
				"method": "rhf"
			},
			{
				"type": "occ",
				"energy": -0.306,
				"method": "rhf"
			},
			{
				"type": "occ",
				"energy": -0.30439,
				"method": "rhf"
			},
			{
				"type": "occ",
				"energy": -0.29579,
				"method": "rhf"
			},
			{
				"type": "occ",
				"energy": -0.28753,
				"method": "rhf"
			},
			{
				"type": "unocc",
				"energy": 0.06473,
				"method": "rhf"
			},
			{
				"type": "unocc",
				"energy": 0.09264,
				"method": "rhf"
			},
			{
				"type": "unocc",
				"energy": 0.09583,
				"method": "rhf"
			},
			{
				"type": "unocc",
				"energy": 0.09943,
				"method": "rhf"
			},
			{
				"type": "unocc",
				"energy": 0.11422,
				"method": "rhf"
			}
		],
		"cosmo_sigma_profile": { 
			"-0.025": 0.0,
			"-0.024": 0.0,
			"-0.023": 0.0,
			"-0.022": 0.0,
			"-0.021": 0.0,
			"-0.02": 0.0,
			"-0.019": 0.0,
			"-0.018": 0.0,
			"-0.017": 0.0,
			"-0.016": 0.0,
			"-0.015": 0.0,
			"-0.014": 0.0,
			"-0.013": 0.0,
			"-0.012": 0.0,
			"-0.011": 0.0,
			"-0.01": 0.0,
			"-0.009": 0.0,
			"-0.008": 0.0,
			"-0.007": 0.0,
			"-0.006": 0.0,
			"-0.005": 0.0,
			"-0.004": 0.0,
			"-0.003": 2.41998433024,
			"-0.002": 32.8387342584,
			"-0.001": 73.5408822928,
			"0.0": 81.6406732839,
			"0.001": 71.4318042289,
			"0.002": 35.4558101159,
			"0.003": 1.55657327596,
			"0.004": 0.0,
			"0.005": 0.0,
			"0.006": 0.0,
			"0.007": 0.0,
			"0.008": 0.0,
			"0.009": 0.0,
			"0.01": 0.0,
			"0.011": 0.0,
			"0.012": 0.0,
			"0.013": 0.0,
			"0.014": 0.0,
			"0.015": 0.0,
			"0.016": 0.0,
			"0.017": 0.0,
			"0.018": 0.0,
			"0.019": 0.0,
			"0.02": 0.0,
			"0.021": 0.0,
			"0.022": 0.0,
			"0.023": 0.0,
			"0.024": 0.0,
			"0.025": 0.0
		}
	}
}
