{
	 "smiles": "OC(=O)CCNC(=O)C1=C(Cl)C=CC=C1", 
	 "Tm": 356.15, 
	 "num_atms": 25, 
	 "gaussian": { 
		 "optdone": 1, 
		 "sigma_profile": "yes", 
		 "theory": "DFT", 
		 "functional": "B3LYP", 
		 "basiset": "6-31G**", 
		 "properties": { 
			 "R2extent": 4224.0696, 
			 "electric_dipole_moment_norm": 1.72534136622, 
			 "electric_quadrupole_moment_norm": 17.311072883, 
			 "total_energy": -1127.73733136, 
			 "HOMO_LUMO_gap": 0.20777, 
			 "cosmo_polarized_energy": -16.95, 
			 "cosmo_cavitation_energy": 31.39, 
			 "cosmo_dispersion_energy": -22.16, 
			 "cosmo_repulsion_energy": 1.75, 
			 "cosmo_total_nonelectrostatic_energy": 10.98, 
			 "SMD_solvation_energy": 6.06 
		},
		"coords": [
			{
				"x": 1.1519380027,
				"y": 4.0281062857,
				"z": 2.434278125,
				"element": "O" 
			},
			{
				"x": 1.820091578,
				"y": 3.0972982374,
				"z": 1.7146087098,
				"element": "C" 
			},
			{
				"x": 2.3311227953,
				"y": 2.1178690189,
				"z": 2.2105040582,
				"element": "O" 
			},
			{
				"x": 1.8217289906,
				"y": 3.4357181977,
				"z": 0.2388934994,
				"element": "C" 
			},
			{
				"x": 0.4869020675,
				"y": 3.0576608113,
				"z": -0.4435010395,
				"element": "C" 
			},
			{
				"x": 0.2240253801,
				"y": 1.6285845146,
				"z": -0.4578704237,
				"element": "N" 
			},
			{
				"x": -0.5100028177,
				"y": 1.0291773665,
				"z": 0.52038793,
				"element": "C" 
			},
			{
				"x": -0.9827715234,
				"y": 1.6668360195,
				"z": 1.4594137762,
				"element": "O" 
			},
			{
				"x": -0.6952138621,
				"y": -0.4739990603,
				"z": 0.461719121,
				"element": "C" 
			},
			{
				"x": -0.7008754856,
				"y": -1.3216114563,
				"z": -0.6592118912,
				"element": "C" 
			},
			{
				"x": -0.5064426247,
				"y": -0.7269327899,
				"z": -2.3170031573,
				"element": "Cl" 
			},
			{
				"x": -0.899851415,
				"y": -2.6980229619,
				"z": -0.5345837896,
				"element": "C" 
			},
			{
				"x": -1.0922630773,
				"y": -3.2610563083,
				"z": 0.7243843295,
				"element": "C" 
			},
			{
				"x": -1.0997104041,
				"y": -2.4438672517,
				"z": 1.855433711,
				"element": "C" 
			},
			{
				"x": -0.9113005789,
				"y": -1.0743461333,
				"z": 1.7149621529,
				"element": "C" 
			},
			{
				"x": 1.1089015306,
				"y": 3.6896470285,
				"z": 3.3440498664,
				"element": "H" 
			},
			{
				"x": 2.6512515017,
				"y": 2.8985212715,
				"z": -0.2272511361,
				"element": "H" 
			},
			{
				"x": 1.9798506745,
				"y": 4.5120692941,
				"z": 0.1151504027,
				"element": "H" 
			},
			{
				"x": -0.3416135931,
				"y": 3.5415729915,
				"z": 0.0770108388,
				"element": "H" 
			},
			{
				"x": 0.5049094708,
				"y": 3.415594149,
				"z": -1.4778095979,
				"element": "H" 
			},
			{
				"x": 0.6349394602,
				"y": 1.0654054512,
				"z": -1.1861470679,
				"element": "H" 
			},
			{
				"x": -0.9077664532,
				"y": -3.3151374038,
				"z": -1.4259762652,
				"element": "H" 
			},
			{
				"x": -1.2413939974,
				"y": -4.3328802867,
				"z": 0.8139941038,
				"element": "H" 
			},
			{
				"x": -1.2546046917,
				"y": -2.8708573746,
				"z": 2.8412594738,
				"element": "H" 
			},
			{
				"x": -0.9304509278,
				"y": -0.4140496107,
				"z": 2.5744042697,
				"element": "H" 
			}
		],
		 "valence_orbital": [ 
			{
				"type": "occ",
				"energy": -0.27128,
				"method": "rhf"
			},
			{
				"type": "occ",
				"energy": -0.26962,
				"method": "rhf"
			},
			{
				"type": "occ",
				"energy": -0.25774,
				"method": "rhf"
			},
			{
				"type": "occ",
				"energy": -0.25677,
				"method": "rhf"
			},
			{
				"type": "occ",
				"energy": -0.25123,
				"method": "rhf"
			},
			{
				"type": "unocc",
				"energy": -0.04346,
				"method": "rhf"
			},
			{
				"type": "unocc",
				"energy": -0.01884,
				"method": "rhf"
			},
			{
				"type": "unocc",
				"energy": 0.01196,
				"method": "rhf"
			},
			{
				"type": "unocc",
				"energy": 0.01466,
				"method": "rhf"
			},
			{
				"type": "unocc",
				"energy": 0.05118,
				"method": "rhf"
			}
		],
		"cosmo_sigma_profile": { 
			"-0.025": 0.0,
			"-0.024": 0.0,
			"-0.023": 0.0,
			"-0.022": 0.0,
			"-0.021": 0.0,
			"-0.02": 0.0,
			"-0.019": 0.0893378186762,
			"-0.018": 0.725250231513,
			"-0.017": 0.834271517358,
			"-0.016": 1.05221437438,
			"-0.015": 0.463119458001,
			"-0.014": 0.251772846421,
			"-0.013": 0.397633597112,
			"-0.012": 1.64701553848,
			"-0.011": 1.92948436921,
			"-0.01": 2.18215413284,
			"-0.009": 1.93000285707,
			"-0.008": 2.97383523625,
			"-0.007": 9.2345359482,
			"-0.006": 17.4301295837,
			"-0.005": 18.7463154888,
			"-0.004": 15.203105334,
			"-0.003": 15.4327593513,
			"-0.002": 14.6642894189,
			"-0.001": 15.9195654337,
			"0.0": 14.6745251036,
			"0.001": 19.1178557948,
			"0.002": 18.4467404403,
			"0.003": 22.3612976457,
			"0.004": 10.1113498356,
			"0.005": 5.06129987384,
			"0.006": 4.85500858239,
			"0.007": 5.6896250415,
			"0.008": 4.84643240622,
			"0.009": 4.74728488575,
			"0.01": 4.12289252184,
			"0.011": 4.64407715781,
			"0.012": 6.60583634965,
			"0.013": 4.30637589889,
			"0.014": 1.05376797717,
			"0.015": 0.0,
			"0.016": 0.0,
			"0.017": 0.0,
			"0.018": 0.0,
			"0.019": 0.0,
			"0.02": 0.0,
			"0.021": 0.0,
			"0.022": 0.0,
			"0.023": 0.0,
			"0.024": 0.0,
			"0.025": 0.0
		}
	}
}
