{
	 "smiles": "CCOC(CNC(=O)C(N)=O)OCC", 
	 "Tm": 412.15, 
	 "num_atms": 30, 
	 "gaussian": { 
		 "optdone": 1, 
		 "sigma_profile": "yes", 
		 "theory": "DFT", 
		 "functional": "B3LYP", 
		 "basiset": "6-31G**", 
		 "properties": { 
			 "R2extent": 5105.4019, 
			 "electric_dipole_moment_norm": 0.933156417756, 
			 "electric_quadrupole_moment_norm": 16.0142014849, 
			 "total_energy": -724.922825853, 
			 "HOMO_LUMO_gap": 0.20967, 
			 "cosmo_polarized_energy": -14.89, 
			 "cosmo_cavitation_energy": 33.72, 
			 "cosmo_dispersion_energy": -23.34, 
			 "cosmo_repulsion_energy": 1.93, 
			 "cosmo_total_nonelectrostatic_energy": 12.31, 
			 "SMD_solvation_energy": 7.02 
		},
		"coords": [
			{
				"x": -2.05603268,
				"y": 0.9228944221,
				"z": -1.2575980652,
				"element": "C" 
			},
			{
				"x": -0.6203959211,
				"y": 1.1368692932,
				"z": -0.811387256,
				"element": "C" 
			},
			{
				"x": -0.4748654745,
				"y": 0.5897885619,
				"z": 0.5032143768,
				"element": "O" 
			},
			{
				"x": 0.8197912007,
				"y": 0.7103707247,
				"z": 1.0465225015,
				"element": "C" 
			},
			{
				"x": 0.8577895078,
				"y": -0.2239382867,
				"z": 2.2621636063,
				"element": "C" 
			},
			{
				"x": 0.5439954406,
				"y": -1.5819149047,
				"z": 1.8704775194,
				"element": "N" 
			},
			{
				"x": 1.3246896045,
				"y": -2.6420788477,
				"z": 2.1523590874,
				"element": "C" 
			},
			{
				"x": 2.3720835234,
				"y": -2.6313000218,
				"z": 2.7976894011,
				"element": "O" 
			},
			{
				"x": 0.7535549996,
				"y": -3.949256775,
				"z": 1.5582902759,
				"element": "C" 
			},
			{
				"x": 1.5313247395,
				"y": -5.0093475405,
				"z": 1.8568744547,
				"element": "N" 
			},
			{
				"x": -0.2824593341,
				"y": -3.9675860706,
				"z": 0.9025800441,
				"element": "O" 
			},
			{
				"x": 1.1791422063,
				"y": 2.0385544992,
				"z": 1.3436624247,
				"element": "O" 
			},
			{
				"x": 0.3206820912,
				"y": 2.7733331736,
				"z": 2.2306342514,
				"element": "C" 
			},
			{
				"x": 1.0068421446,
				"y": 3.0435051177,
				"z": 3.5643674595,
				"element": "C" 
			},
			{
				"x": -2.3032879496,
				"y": -0.1426458017,
				"z": -1.2692761452,
				"element": "H" 
			},
			{
				"x": -2.2027780991,
				"y": 1.3235568168,
				"z": -2.2654653289,
				"element": "H" 
			},
			{
				"x": -2.7505006603,
				"y": 1.428876953,
				"z": -0.58046927,
				"element": "H" 
			},
			{
				"x": -0.3640682533,
				"y": 2.2038699228,
				"z": -0.7993912752,
				"element": "H" 
			},
			{
				"x": 0.0817245931,
				"y": 0.6348580405,
				"z": -1.4949246365,
				"element": "H" 
			},
			{
				"x": 1.5714504538,
				"y": 0.3867061103,
				"z": 0.3117545583,
				"element": "H" 
			},
			{
				"x": 0.1432572528,
				"y": 0.1270633824,
				"z": 3.0167900267,
				"element": "H" 
			},
			{
				"x": 1.8567786135,
				"y": -0.2226634556,
				"z": 2.7017785902,
				"element": "H" 
			},
			{
				"x": -0.2788121536,
				"y": -1.7620650241,
				"z": 1.3063757374,
				"element": "H" 
			},
			{
				"x": 2.364038626,
				"y": -4.8458808765,
				"z": 2.4053646764,
				"element": "H" 
			},
			{
				"x": 1.2816904084,
				"y": -5.9291126171,
				"z": 1.5309837327,
				"element": "H" 
			},
			{
				"x": -0.6309246768,
				"y": 2.2472097033,
				"z": 2.3630722664,
				"element": "H" 
			},
			{
				"x": 0.0953100302,
				"y": 3.7218393763,
				"z": 1.7284266817,
				"element": "H" 
			},
			{
				"x": 0.3826533449,
				"y": 3.6933130237,
				"z": 4.1878592575,
				"element": "H" 
			},
			{
				"x": 1.9674421445,
				"y": 3.5416841265,
				"z": 3.4039961026,
				"element": "H" 
			},
			{
				"x": 1.1934842771,
				"y": 2.118096974,
				"z": 4.1175749446,
				"element": "H" 
			}
		],
		 "valence_orbital": [ 
			{
				"type": "occ",
				"energy": -0.2837,
				"method": "rhf"
			},
			{
				"type": "occ",
				"energy": -0.27934,
				"method": "rhf"
			},
			{
				"type": "occ",
				"energy": -0.27347,
				"method": "rhf"
			},
			{
				"type": "occ",
				"energy": -0.25005,
				"method": "rhf"
			},
			{
				"type": "occ",
				"energy": -0.23918,
				"method": "rhf"
			},
			{
				"type": "unocc",
				"energy": -0.02951,
				"method": "rhf"
			},
			{
				"type": "unocc",
				"energy": 0.08414,
				"method": "rhf"
			},
			{
				"type": "unocc",
				"energy": 0.09099,
				"method": "rhf"
			},
			{
				"type": "unocc",
				"energy": 0.09672,
				"method": "rhf"
			},
			{
				"type": "unocc",
				"energy": 0.10544,
				"method": "rhf"
			}
		],
		"cosmo_sigma_profile": { 
			"-0.025": 0.0,
			"-0.024": 0.0,
			"-0.023": 0.0,
			"-0.022": 0.0,
			"-0.021": 0.0,
			"-0.02": 0.0,
			"-0.019": 0.0,
			"-0.018": 0.0,
			"-0.017": 0.0,
			"-0.016": 0.00333384081445,
			"-0.015": 0.914222645536,
			"-0.014": 1.30124710123,
			"-0.013": 1.80536450161,
			"-0.012": 1.9917136117,
			"-0.011": 1.88011384787,
			"-0.01": 1.84113111483,
			"-0.009": 1.73169572452,
			"-0.008": 1.71766463754,
			"-0.007": 1.91769250105,
			"-0.006": 4.65874992045,
			"-0.005": 11.3969209326,
			"-0.004": 23.7019700981,
			"-0.003": 32.9803609542,
			"-0.002": 32.6577104622,
			"-0.001": 27.6797633841,
			"0.0": 26.8566359824,
			"0.001": 18.7014727588,
			"0.002": 9.3586525944,
			"0.003": 7.2274019938,
			"0.004": 5.63593789609,
			"0.005": 5.0023024936,
			"0.006": 4.49335224921,
			"0.007": 4.44056010863,
			"0.008": 4.18725933454,
			"0.009": 3.80485609044,
			"0.01": 4.03629608201,
			"0.011": 4.91390375205,
			"0.012": 8.29801500261,
			"0.013": 7.03748011099,
			"0.014": 0.992140052003,
			"0.015": 0.0,
			"0.016": 0.0,
			"0.017": 0.0,
			"0.018": 0.0,
			"0.019": 0.0,
			"0.02": 0.0,
			"0.021": 0.0,
			"0.022": 0.0,
			"0.023": 0.0,
			"0.024": 0.0,
			"0.025": 0.0
		}
	}
}
