{
	 "smiles": "CC(C)(O)C1CCC(C)(O)CC1", 
	 "Tm": 431.15, 
	 "num_atms": 32, 
	 "gaussian": { 
		 "optdone": 1, 
		 "sigma_profile": "yes", 
		 "theory": "DFT", 
		 "functional": "B3LYP", 
		 "basiset": "6-31G**", 
		 "properties": { 
			 "R2extent": 2935.047, 
			 "electric_dipole_moment_norm": 1.80956303289, 
			 "electric_quadrupole_moment_norm": 11.0675978848, 
			 "total_energy": -543.574971761, 
			 "HOMO_LUMO_gap": 0.31926, 
			 "cosmo_polarized_energy": -10.34, 
			 "cosmo_cavitation_energy": 30.18, 
			 "cosmo_dispersion_energy": -21.56, 
			 "cosmo_repulsion_energy": 1.68, 
			 "cosmo_total_nonelectrostatic_energy": 10.3, 
			 "SMD_solvation_energy": 4.6 
		},
		"coords": [
			{
				"x": -1.527108126,
				"y": -2.2192933229,
				"z": -1.360034846,
				"element": "C" 
			},
			{
				"x": -0.1440657866,
				"y": -2.7866399742,
				"z": -1.0002427245,
				"element": "C" 
			},
			{
				"x": -0.2810254543,
				"y": -3.8849716477,
				"z": 0.0602830597,
				"element": "C" 
			},
			{
				"x": 0.3953813948,
				"y": -3.4757305219,
				"z": -2.1431152464,
				"element": "O" 
			},
			{
				"x": 0.8763970179,
				"y": -1.6992112889,
				"z": -0.5401250011,
				"element": "C" 
			},
			{
				"x": 0.397808689,
				"y": -0.8227488825,
				"z": 0.6571761034,
				"element": "C" 
			},
			{
				"x": -0.0577290514,
				"y": 0.5814549098,
				"z": 0.2345168209,
				"element": "C" 
			},
			{
				"x": 1.0634353007,
				"y": 1.3985561863,
				"z": -0.4505900744,
				"element": "C" 
			},
			{
				"x": 1.7908980389,
				"y": 2.3142527896,
				"z": 0.5411232874,
				"element": "C" 
			},
			{
				"x": 0.3782456187,
				"y": 2.1991145131,
				"z": -1.4302938603,
				"element": "O" 
			},
			{
				"x": 2.0631834712,
				"y": 0.4486470026,
				"z": -1.1568869244,
				"element": "C" 
			},
			{
				"x": 1.3614347223,
				"y": -0.7979840378,
				"z": -1.7031127139,
				"element": "C" 
			},
			{
				"x": -1.4618956691,
				"y": -1.4613622744,
				"z": -2.1486963917,
				"element": "H" 
			},
			{
				"x": -2.1659399149,
				"y": -3.0286426915,
				"z": -1.7257633458,
				"element": "H" 
			},
			{
				"x": -2.0195968535,
				"y": -1.7590691826,
				"z": -0.4981931646,
				"element": "H" 
			},
			{
				"x": -0.6702658774,
				"y": -3.4935092213,
				"z": 1.0040858768,
				"element": "H" 
			},
			{
				"x": 0.6929090256,
				"y": -4.3463236069,
				"z": 0.2493032027,
				"element": "H" 
			},
			{
				"x": -0.9613507806,
				"y": -4.6636561192,
				"z": -0.2964266488,
				"element": "H" 
			},
			{
				"x": 0.384983681,
				"y": -2.861250764,
				"z": -2.8882375184,
				"element": "H" 
			},
			{
				"x": 1.7544019331,
				"y": -2.2669165879,
				"z": -0.205258337,
				"element": "H" 
			},
			{
				"x": 1.2167194918,
				"y": -0.727576062,
				"z": 1.3813128424,
				"element": "H" 
			},
			{
				"x": -0.4127228003,
				"y": -1.3173011418,
				"z": 1.20212857,
				"element": "H" 
			},
			{
				"x": -0.8824761158,
				"y": 0.5078412182,
				"z": -0.4808791688,
				"element": "H" 
			},
			{
				"x": -0.4456407543,
				"y": 1.1339439066,
				"z": 1.0978032599,
				"element": "H" 
			},
			{
				"x": 1.0965302941,
				"y": 3.0566407422,
				"z": 0.9460944639,
				"element": "H" 
			},
			{
				"x": 2.617764644,
				"y": 2.8456000146,
				"z": 0.0522219195,
				"element": "H" 
			},
			{
				"x": 2.2157821954,
				"y": 1.7445015404,
				"z": 1.3746249609,
				"element": "H" 
			},
			{
				"x": 1.0310603954,
				"y": 2.7864424906,
				"z": -1.8357438508,
				"element": "H" 
			},
			{
				"x": 2.5633594213,
				"y": 1.0047081458,
				"z": -1.9603411335,
				"element": "H" 
			},
			{
				"x": 2.8513968566,
				"y": 0.1450900526,
				"z": -0.4551118475,
				"element": "H" 
			},
			{
				"x": 2.0357499717,
				"y": -1.3663302195,
				"z": -2.351352163,
				"element": "H" 
			},
			{
				"x": 0.5212750204,
				"y": -0.4626759653,
				"z": -2.3256694068,
				"element": "H" 
			}
		],
		 "valence_orbital": [ 
			{
				"type": "occ",
				"energy": -0.30845,
				"method": "rhf"
			},
			{
				"type": "occ",
				"energy": -0.29933,
				"method": "rhf"
			},
			{
				"type": "occ",
				"energy": -0.29411,
				"method": "rhf"
			},
			{
				"type": "occ",
				"energy": -0.25996,
				"method": "rhf"
			},
			{
				"type": "occ",
				"energy": -0.25396,
				"method": "rhf"
			},
			{
				"type": "unocc",
				"energy": 0.0653,
				"method": "rhf"
			},
			{
				"type": "unocc",
				"energy": 0.07669,
				"method": "rhf"
			},
			{
				"type": "unocc",
				"energy": 0.09524,
				"method": "rhf"
			},
			{
				"type": "unocc",
				"energy": 0.11015,
				"method": "rhf"
			},
			{
				"type": "unocc",
				"energy": 0.11447,
				"method": "rhf"
			}
		],
		"cosmo_sigma_profile": { 
			"-0.025": 0.0,
			"-0.024": 0.0,
			"-0.023": 0.0,
			"-0.022": 0.0,
			"-0.021": 0.0,
			"-0.02": 0.0,
			"-0.019": 0.0,
			"-0.018": 0.0,
			"-0.017": 0.0,
			"-0.016": 0.0,
			"-0.015": 0.00613469501793,
			"-0.014": 0.857739160169,
			"-0.013": 1.43460884237,
			"-0.012": 1.46685866088,
			"-0.011": 2.01325360552,
			"-0.01": 2.583705219,
			"-0.009": 1.92167400875,
			"-0.008": 1.23260436557,
			"-0.007": 2.16452125963,
			"-0.006": 2.60147403491,
			"-0.005": 3.81582992482,
			"-0.004": 7.59787776846,
			"-0.003": 21.067611302,
			"-0.002": 34.7901430686,
			"-0.001": 35.1546240662,
			"0.0": 33.0277710389,
			"0.001": 31.9453346935,
			"0.002": 10.8386587605,
			"0.003": 3.75027352115,
			"0.004": 2.59755900388,
			"0.005": 2.02568649157,
			"0.006": 3.30168698318,
			"0.007": 2.64599869718,
			"0.008": 2.74151300741,
			"0.009": 3.11505228089,
			"0.01": 1.71376056273,
			"0.011": 2.6011701029,
			"0.012": 2.64509760413,
			"0.013": 2.52276592297,
			"0.014": 3.34147273689,
			"0.015": 2.62128001055,
			"0.016": 0.0260877308263,
			"0.017": 0.0,
			"0.018": 0.0,
			"0.019": 0.0,
			"0.02": 0.0,
			"0.021": 0.0,
			"0.022": 0.0,
			"0.023": 0.0,
			"0.024": 0.0,
			"0.025": 0.0
		}
	}
}
