{
	 "smiles": "CC1=C(Cl)C=C(Cl)C(Cl)=C1", 
	 "Tm": 355.55, 
	 "num_atms": 15, 
	 "gaussian": { 
		 "optdone": 1, 
		 "sigma_profile": "yes", 
		 "theory": "DFT", 
		 "functional": "B3LYP", 
		 "basiset": "6-31G**", 
		 "properties": { 
			 "R2extent": 2706.2353, 
			 "electric_dipole_moment_norm": 2.04237881893, 
			 "electric_quadrupole_moment_norm": 6.4172797134, 
			 "total_energy": -1650.3397975, 
			 "HOMO_LUMO_gap": 0.21486, 
			 "cosmo_polarized_energy": -3.9, 
			 "cosmo_cavitation_energy": 24.28, 
			 "cosmo_dispersion_energy": -18.32, 
			 "cosmo_repulsion_energy": 1.48, 
			 "cosmo_total_nonelectrostatic_energy": 7.44, 
			 "SMD_solvation_energy": 3.41 
		},
		"coords": [
			{
				"x": 0.8597715961,
				"y": -3.0218317021,
				"z": 0.6734651197,
				"element": "C" 
			},
			{
				"x": 0.6951833801,
				"y": -1.5318064281,
				"z": 0.5265079127,
				"element": "C" 
			},
			{
				"x": 0.0053944762,
				"y": -0.9545680806,
				"z": -0.5514895058,
				"element": "C" 
			},
			{
				"x": -0.7019694996,
				"y": -1.9811310567,
				"z": -1.7890435712,
				"element": "Cl" 
			},
			{
				"x": -0.1436489056,
				"y": 0.4227847069,
				"z": -0.6821644264,
				"element": "C" 
			},
			{
				"x": 0.4027294555,
				"y": 1.2745192915,
				"z": 0.2784993587,
				"element": "C" 
			},
			{
				"x": 0.1979324386,
				"y": 2.9965030796,
				"z": 0.0850088297,
				"element": "Cl" 
			},
			{
				"x": 1.0965392335,
				"y": 0.7306315367,
				"z": 1.3656989638,
				"element": "C" 
			},
			{
				"x": 1.8023128134,
				"y": 1.7438230472,
				"z": 2.5993973638,
				"element": "Cl" 
			},
			{
				"x": 1.2318837128,
				"y": -0.6542755266,
				"z": 1.4734450356,
				"element": "C" 
			},
			{
				"x": 1.3857077506,
				"y": -3.4485547525,
				"z": -0.1870546022,
				"element": "H" 
			},
			{
				"x": -0.1119729791,
				"y": -3.5234149469,
				"z": 0.7311379491,
				"element": "H" 
			},
			{
				"x": 1.4253403996,
				"y": -3.2623237708,
				"z": 1.5763807284,
				"element": "H" 
			},
			{
				"x": -0.6815077637,
				"y": 0.8381099874,
				"z": -1.5255133888,
				"element": "H" 
			},
			{
				"x": 1.7731038917,
				"y": -1.0563653851,
				"z": 2.323324233,
				"element": "H" 
			}
		],
		 "valence_orbital": [ 
			{
				"type": "occ",
				"energy": -0.3251,
				"method": "rhf"
			},
			{
				"type": "occ",
				"energy": -0.31954,
				"method": "rhf"
			},
			{
				"type": "occ",
				"energy": -0.31525,
				"method": "rhf"
			},
			{
				"type": "occ",
				"energy": -0.26692,
				"method": "rhf"
			},
			{
				"type": "occ",
				"energy": -0.24853,
				"method": "rhf"
			},
			{
				"type": "unocc",
				"energy": -0.03367,
				"method": "rhf"
			},
			{
				"type": "unocc",
				"energy": -0.03101,
				"method": "rhf"
			},
			{
				"type": "unocc",
				"energy": -0.01026,
				"method": "rhf"
			},
			{
				"type": "unocc",
				"energy": 0.02911,
				"method": "rhf"
			},
			{
				"type": "unocc",
				"energy": 0.06029,
				"method": "rhf"
			}
		],
		"cosmo_sigma_profile": { 
			"-0.025": 0.0,
			"-0.024": 0.0,
			"-0.023": 0.0,
			"-0.022": 0.0,
			"-0.021": 0.0,
			"-0.02": 0.0,
			"-0.019": 0.0,
			"-0.018": 0.0,
			"-0.017": 0.0,
			"-0.016": 0.0,
			"-0.015": 0.0,
			"-0.014": 0.0,
			"-0.013": 0.0,
			"-0.012": 0.0,
			"-0.011": 0.0,
			"-0.01": 0.0,
			"-0.009": 0.541456860237,
			"-0.008": 3.04622284855,
			"-0.007": 4.16917882,
			"-0.006": 4.29471858656,
			"-0.005": 7.05744003204,
			"-0.004": 8.44552837551,
			"-0.003": 12.772027155,
			"-0.002": 15.81522825,
			"-0.001": 22.2700817758,
			"0.0": 27.6471346135,
			"0.001": 28.2138396331,
			"0.002": 17.9931739525,
			"0.003": 21.2545760113,
			"0.004": 22.470914651,
			"0.005": 4.89783503029,
			"0.006": 0.293878479468,
			"0.007": 0.0,
			"0.008": 0.0,
			"0.009": 0.0,
			"0.01": 0.0,
			"0.011": 0.0,
			"0.012": 0.0,
			"0.013": 0.0,
			"0.014": 0.0,
			"0.015": 0.0,
			"0.016": 0.0,
			"0.017": 0.0,
			"0.018": 0.0,
			"0.019": 0.0,
			"0.02": 0.0,
			"0.021": 0.0,
			"0.022": 0.0,
			"0.023": 0.0,
			"0.024": 0.0,
			"0.025": 0.0
		}
	}
}
