{
	 "smiles": "OC(=O)C1=C(F)C=C(Br)C(=C1)[N+]([O-])=O", 
	 "Tm": 426.15, 
	 "num_atms": 17, 
	 "gaussian": { 
		 "optdone": 1, 
		 "sigma_profile": "yes", 
		 "theory": "DFT", 
		 "functional": "B3LYP", 
		 "basiset": "6-31G**", 
		 "properties": { 
			 "R2extent": 4995.443, 
			 "electric_dipole_moment_norm": 5.34681328082, 
			 "electric_quadrupole_moment_norm": 10.733942293, 
			 "total_energy": -3295.32832873, 
			 "HOMO_LUMO_gap": 0.18217, 
			 "cosmo_polarized_energy": -15.51, 
			 "cosmo_cavitation_energy": 25.86, 
			 "cosmo_dispersion_energy": -19.4, 
			 "cosmo_repulsion_energy": 1.49, 
			 "cosmo_total_nonelectrostatic_energy": 7.95, 
			 "SMD_solvation_energy": 7.27 
		},
		"coords": [
			{
				"x": -2.2996846749,
				"y": -2.0796304295,
				"z": 0.9291427191,
				"element": "O" 
			},
			{
				"x": -1.723710054,
				"y": -2.0723004951,
				"z": -0.2868913356,
				"element": "C" 
			},
			{
				"x": -1.9672209424,
				"y": -2.9342857378,
				"z": -1.0969642305,
				"element": "O" 
			},
			{
				"x": -0.7630971762,
				"y": -0.9510852583,
				"z": -0.6058804954,
				"element": "C" 
			},
			{
				"x": -0.4061604019,
				"y": 0.1047066389,
				"z": 0.2368286382,
				"element": "C" 
			},
			{
				"x": -0.9396040487,
				"y": 0.1844812572,
				"z": 1.4840443908,
				"element": "F" 
			},
			{
				"x": 0.4894073794,
				"y": 1.0984305695,
				"z": -0.1253899771,
				"element": "C" 
			},
			{
				"x": 1.0613900713,
				"y": 1.078657336,
				"z": -1.397817858,
				"element": "C" 
			},
			{
				"x": 2.3125903714,
				"y": 2.4395194716,
				"z": -1.7933172072,
				"element": "Br" 
			},
			{
				"x": 0.7183174471,
				"y": 0.0310819878,
				"z": -2.2697465001,
				"element": "C" 
			},
			{
				"x": -0.1645310072,
				"y": -0.9652424661,
				"z": -1.8677344488,
				"element": "C" 
			},
			{
				"x": 1.2448367494,
				"y": -0.0834952189,
				"z": -3.644202577,
				"element": "N" 
			},
			{
				"x": 1.4756377211,
				"y": 0.9531179604,
				"z": -4.2565277912,
				"element": "O" 
			},
			{
				"x": 1.3862700143,
				"y": -1.221740113,
				"z": -4.0845314025,
				"element": "O" 
			},
			{
				"x": -2.0047906741,
				"y": -1.3256061077,
				"z": 1.4623456571,
				"element": "H" 
			},
			{
				"x": 0.7390452495,
				"y": 1.8778228544,
				"z": 0.5834202283,
				"element": "H" 
			},
			{
				"x": -0.4044960242,
				"y": -1.7778322494,
				"z": -2.5432778102,
				"element": "H" 
			}
		],
		 "valence_orbital": [ 
			{
				"type": "occ",
				"energy": -0.32503,
				"method": "rhf"
			},
			{
				"type": "occ",
				"energy": -0.30909,
				"method": "rhf"
			},
			{
				"type": "occ",
				"energy": -0.29964,
				"method": "rhf"
			},
			{
				"type": "occ",
				"energy": -0.29492,
				"method": "rhf"
			},
			{
				"type": "occ",
				"energy": -0.2896,
				"method": "rhf"
			},
			{
				"type": "unocc",
				"energy": -0.10743,
				"method": "rhf"
			},
			{
				"type": "unocc",
				"energy": -0.08676,
				"method": "rhf"
			},
			{
				"type": "unocc",
				"energy": -0.04122,
				"method": "rhf"
			},
			{
				"type": "unocc",
				"energy": -0.03402,
				"method": "rhf"
			},
			{
				"type": "unocc",
				"energy": 0.02096,
				"method": "rhf"
			}
		],
		"cosmo_sigma_profile": { 
			"-0.025": 0.0,
			"-0.024": 0.0,
			"-0.023": 0.0,
			"-0.022": 0.0,
			"-0.021": 0.0,
			"-0.02": 0.0,
			"-0.019": 0.0,
			"-0.018": 0.0,
			"-0.017": 0.0,
			"-0.016": 0.0,
			"-0.015": 0.0584856836694,
			"-0.014": 0.336371776966,
			"-0.013": 1.28399134591,
			"-0.012": 2.03030119018,
			"-0.011": 2.22620625391,
			"-0.01": 3.38854830063,
			"-0.009": 3.54091906078,
			"-0.008": 6.03792946298,
			"-0.007": 5.40149063409,
			"-0.006": 9.29282755692,
			"-0.005": 11.9032755998,
			"-0.004": 17.8848996513,
			"-0.003": 19.6917698267,
			"-0.002": 15.731095924,
			"-0.001": 9.90038201586,
			"0.0": 10.9955281911,
			"0.001": 12.2661721083,
			"0.002": 12.8453391987,
			"0.003": 7.74479144407,
			"0.004": 6.00168370391,
			"0.005": 5.29699201621,
			"0.006": 9.14619549859,
			"0.007": 12.9695313418,
			"0.008": 8.26247213061,
			"0.009": 6.91631546076,
			"0.01": 5.37781246472,
			"0.011": 4.19469562762,
			"0.012": 1.74343546906,
			"0.013": 0.11259982496,
			"0.014": 0.0,
			"0.015": 0.0,
			"0.016": 0.0,
			"0.017": 0.0,
			"0.018": 0.0,
			"0.019": 0.0,
			"0.02": 0.0,
			"0.021": 0.0,
			"0.022": 0.0,
			"0.023": 0.0,
			"0.024": 0.0,
			"0.025": 0.0
		}
	}
}
