{
	 "smiles": "OC(=O)C1=CC2=C(NN=N2)C=C1", 
	 "Tm": 579.15, 
	 "num_atms": 17, 
	 "gaussian": { 
		 "optdone": 1, 
		 "sigma_profile": "yes", 
		 "theory": "DFT", 
		 "functional": "B3LYP", 
		 "basiset": "6-31G**", 
		 "properties": { 
			 "R2extent": 2506.1045, 
			 "electric_dipole_moment_norm": 4.18365850901, 
			 "electric_quadrupole_moment_norm": 22.5681675472, 
			 "total_energy": -584.429996796, 
			 "HOMO_LUMO_gap": 0.19464, 
			 "cosmo_polarized_energy": -21.77, 
			 "cosmo_cavitation_energy": 22.32, 
			 "cosmo_dispersion_energy": -16.95, 
			 "cosmo_repulsion_energy": 1.33, 
			 "cosmo_total_nonelectrostatic_energy": 6.7, 
			 "SMD_solvation_energy": 3.35 
		},
		"coords": [
			{
				"x": 0.2660462796,
				"y": 2.4956897177,
				"z": 3.3323783792,
				"element": "O" 
			},
			{
				"x": 0.5846148468,
				"y": 1.2103860346,
				"z": 3.027013198,
				"element": "C" 
			},
			{
				"x": 1.3200981682,
				"y": 0.5820436755,
				"z": 3.7518670445,
				"element": "O" 
			},
			{
				"x": -0.0157067525,
				"y": 0.6399051801,
				"z": 1.776530157,
				"element": "C" 
			},
			{
				"x": -1.1510548765,
				"y": 1.1756061934,
				"z": 1.174830992,
				"element": "C" 
			},
			{
				"x": -1.636058303,
				"y": 0.5451040355,
				"z": 0.0218619702,
				"element": "C" 
			},
			{
				"x": -0.9916811166,
				"y": -0.5947829894,
				"z": -0.5016392664,
				"element": "C" 
			},
			{
				"x": -1.747736993,
				"y": -0.8975495228,
				"z": -1.5929542791,
				"element": "N" 
			},
			{
				"x": -2.7825327615,
				"y": -0.013525984,
				"z": -1.7322295233,
				"element": "N" 
			},
			{
				"x": -2.7239849617,
				"y": 0.8471329308,
				"z": -0.7740105552,
				"element": "N" 
			},
			{
				"x": 0.1457229452,
				"y": -1.1532326411,
				"z": 0.1042833771,
				"element": "C" 
			},
			{
				"x": 0.6078922051,
				"y": -0.5229119076,
				"z": 1.2447175537,
				"element": "C" 
			},
			{
				"x": -0.1789093192,
				"y": 2.920446387,
				"z": 2.5862607126,
				"element": "H" 
			},
			{
				"x": -1.6893016487,
				"y": 2.0278173324,
				"z": 1.5792974005,
				"element": "H" 
			},
			{
				"x": -1.651000274,
				"y": -1.6452971551,
				"z": -2.2635039984,
				"element": "H" 
			},
			{
				"x": 0.6375725434,
				"y": -2.0353513409,
				"z": -0.2916684092,
				"element": "H" 
			},
			{
				"x": 1.4722200184,
				"y": -0.9071799461,
				"z": 1.7747652469,
				"element": "H" 
			}
		],
		 "valence_orbital": [ 
			{
				"type": "occ",
				"energy": -0.32139,
				"method": "rhf"
			},
			{
				"type": "occ",
				"energy": -0.28884,
				"method": "rhf"
			},
			{
				"type": "occ",
				"energy": -0.28189,
				"method": "rhf"
			},
			{
				"type": "occ",
				"energy": -0.27121,
				"method": "rhf"
			},
			{
				"type": "occ",
				"energy": -0.26497,
				"method": "rhf"
			},
			{
				"type": "unocc",
				"energy": -0.07033,
				"method": "rhf"
			},
			{
				"type": "unocc",
				"energy": -0.04303,
				"method": "rhf"
			},
			{
				"type": "unocc",
				"energy": 0.01229,
				"method": "rhf"
			},
			{
				"type": "unocc",
				"energy": 0.04827,
				"method": "rhf"
			},
			{
				"type": "unocc",
				"energy": 0.05776,
				"method": "rhf"
			}
		],
		"cosmo_sigma_profile": { 
			"-0.025": 0.0,
			"-0.024": 0.0,
			"-0.023": 0.0,
			"-0.022": 0.0,
			"-0.021": 0.0,
			"-0.02": 0.0,
			"-0.019": 0.624147426528,
			"-0.018": 2.65698889898,
			"-0.017": 2.94664268187,
			"-0.016": 2.61693875133,
			"-0.015": 1.91048301471,
			"-0.014": 1.73756817555,
			"-0.013": 2.35538154851,
			"-0.012": 2.28082915643,
			"-0.011": 2.54493771184,
			"-0.01": 2.43032445349,
			"-0.009": 2.95193291612,
			"-0.008": 4.53812131655,
			"-0.007": 5.00957349268,
			"-0.006": 6.37429325518,
			"-0.005": 5.8067688585,
			"-0.004": 5.66609669501,
			"-0.003": 7.93241396998,
			"-0.002": 9.24063878744,
			"-0.001": 11.365712005,
			"0.0": 14.8100115143,
			"0.001": 13.1963970796,
			"0.002": 10.5218347503,
			"0.003": 4.68145058658,
			"0.004": 3.99965855011,
			"0.005": 3.61140799471,
			"0.006": 4.50162722738,
			"0.007": 4.69488469259,
			"0.008": 5.21568254321,
			"0.009": 6.8649844265,
			"0.01": 7.80577393079,
			"0.011": 8.60579651488,
			"0.012": 6.37444188206,
			"0.013": 2.48906252707,
			"0.014": 1.3242631978,
			"0.015": 0.402817208427,
			"0.016": 0.0,
			"0.017": 0.0,
			"0.018": 0.0,
			"0.019": 0.0,
			"0.02": 0.0,
			"0.021": 0.0,
			"0.022": 0.0,
			"0.023": 0.0,
			"0.024": 0.0,
			"0.025": 0.0
		}
	}
}
