{
	 "smiles": "CCOP(=S)(OCC)OC1=NN(C(=O)C=C1)C1=CC=CC=C1", 
	 "Tm": 329.35, 
	 "num_atms": 39, 
	 "gaussian": { 
		 "optdone": 1, 
		 "sigma_profile": "yes", 
		 "theory": "DFT", 
		 "functional": "B3LYP", 
		 "basiset": "6-31G**", 
		 "properties": { 
			 "R2extent": 9604.1814, 
			 "electric_dipole_moment_norm": 3.93292289652, 
			 "electric_quadrupole_moment_norm": 14.0994616628, 
			 "total_energy": -1693.72099585, 
			 "HOMO_LUMO_gap": 0.14867, 
			 "cosmo_polarized_energy": -15.41, 
			 "cosmo_cavitation_energy": 46.31, 
			 "cosmo_dispersion_energy": -31.39, 
			 "cosmo_repulsion_energy": 2.4, 
			 "cosmo_total_nonelectrostatic_energy": 17.32, 
			 "SMD_solvation_energy": 9.02 
		},
		"coords": [
			{
				"x": -0.0146301221,
				"y": -5.3218132308,
				"z": -0.6726782835,
				"element": "C" 
			},
			{
				"x": -0.1851590652,
				"y": -3.8445494459,
				"z": -0.9686815915,
				"element": "C" 
			},
			{
				"x": 0.1580219661,
				"y": -3.1151039364,
				"z": 0.2375095045,
				"element": "O" 
			},
			{
				"x": 0.1352046533,
				"y": -1.5112945973,
				"z": 0.2325832268,
				"element": "P" 
			},
			{
				"x": 1.2386953049,
				"y": -0.5792862726,
				"z": -1.0578839282,
				"element": "S" 
			},
			{
				"x": -1.4432378022,
				"y": -1.2089895921,
				"z": 0.2084556729,
				"element": "O" 
			},
			{
				"x": -2.0320075723,
				"y": 0.0107483969,
				"z": -0.3269737763,
				"element": "C" 
			},
			{
				"x": -3.5316404024,
				"y": -0.2030514271,
				"z": -0.3933214319,
				"element": "C" 
			},
			{
				"x": 0.577988505,
				"y": -1.4100854227,
				"z": 1.8205930202,
				"element": "O" 
			},
			{
				"x": 0.7227510542,
				"y": -0.2428022943,
				"z": 2.5166711387,
				"element": "C" 
			},
			{
				"x": 0.1923641726,
				"y": 0.8449786435,
				"z": 2.058652329,
				"element": "N" 
			},
			{
				"x": 0.3371386067,
				"y": 1.9915548924,
				"z": 2.773759798,
				"element": "N" 
			},
			{
				"x": 1.0081316704,
				"y": 2.0783579636,
				"z": 4.0211929345,
				"element": "C" 
			},
			{
				"x": 1.1013861644,
				"y": 3.1279402897,
				"z": 4.6469409215,
				"element": "O" 
			},
			{
				"x": 1.5735823039,
				"y": 0.8092763461,
				"z": 4.4695288881,
				"element": "C" 
			},
			{
				"x": 1.446955519,
				"y": -0.3273960352,
				"z": 3.7462966506,
				"element": "C" 
			},
			{
				"x": -0.1757924989,
				"y": 3.1615262854,
				"z": 2.1117816017,
				"element": "C" 
			},
			{
				"x": -0.0290378753,
				"y": 3.2588637862,
				"z": 0.7224890441,
				"element": "C" 
			},
			{
				"x": -0.5386326525,
				"y": 4.3701794967,
				"z": 0.0532638868,
				"element": "C" 
			},
			{
				"x": -1.1859863896,
				"y": 5.3849391893,
				"z": 0.7609432132,
				"element": "C" 
			},
			{
				"x": -1.3225626816,
				"y": 5.2805257588,
				"z": 2.1459801086,
				"element": "C" 
			},
			{
				"x": -0.8215098335,
				"y": 4.1734258787,
				"z": 2.8307212147,
				"element": "C" 
			},
			{
				"x": -0.2686521315,
				"y": -5.9071631529,
				"z": -1.5620571391,
				"element": "H" 
			},
			{
				"x": 1.0195829298,
				"y": -5.5431353063,
				"z": -0.3956756129,
				"element": "H" 
			},
			{
				"x": -0.6688565973,
				"y": -5.632777283,
				"z": 0.1463195772,
				"element": "H" 
			},
			{
				"x": 0.4744986966,
				"y": -3.5176740773,
				"z": -1.7792911215,
				"element": "H" 
			},
			{
				"x": -1.2199631236,
				"y": -3.6059761463,
				"z": -1.2377336258,
				"element": "H" 
			},
			{
				"x": -1.6021501275,
				"y": 0.2006946683,
				"z": -1.3148069872,
				"element": "H" 
			},
			{
				"x": -1.7647605841,
				"y": 0.8368066897,
				"z": 0.335097587,
				"element": "H" 
			},
			{
				"x": -4.011033308,
				"y": 0.699507061,
				"z": -0.7855608414,
				"element": "H" 
			},
			{
				"x": -3.781297281,
				"y": -1.0404028163,
				"z": -1.0514151256,
				"element": "H" 
			},
			{
				"x": -3.9421345748,
				"y": -0.4071696919,
				"z": 0.5994116917,
				"element": "H" 
			},
			{
				"x": 2.1092470793,
				"y": 0.8458336217,
				"z": 5.4111287106,
				"element": "H" 
			},
			{
				"x": 1.8637108528,
				"y": -1.2796131681,
				"z": 4.0556698505,
				"element": "H" 
			},
			{
				"x": 0.4802603937,
				"y": 2.4690731721,
				"z": 0.1813616568,
				"element": "H" 
			},
			{
				"x": -0.4188722986,
				"y": 4.4441032054,
				"z": -1.0235911391,
				"element": "H" 
			},
			{
				"x": -1.5770627237,
				"y": 6.2523701357,
				"z": 0.2374951067,
				"element": "H" 
			},
			{
				"x": -1.8244307379,
				"y": 6.0649283915,
				"z": 2.7046922148,
				"element": "H" 
			},
			{
				"x": -0.9163094889,
				"y": 4.100050024,
				"z": 3.9048310549,
				"element": "H" 
			}
		],
		 "valence_orbital": [ 
			{
				"type": "occ",
				"energy": -0.26045,
				"method": "rhf"
			},
			{
				"type": "occ",
				"energy": -0.25171,
				"method": "rhf"
			},
			{
				"type": "occ",
				"energy": -0.24805,
				"method": "rhf"
			},
			{
				"type": "occ",
				"energy": -0.24541,
				"method": "rhf"
			},
			{
				"type": "occ",
				"energy": -0.22378,
				"method": "rhf"
			},
			{
				"type": "unocc",
				"energy": -0.07511,
				"method": "rhf"
			},
			{
				"type": "unocc",
				"energy": -0.00756,
				"method": "rhf"
			},
			{
				"type": "unocc",
				"energy": -0.00439,
				"method": "rhf"
			},
			{
				"type": "unocc",
				"energy": 0.00539,
				"method": "rhf"
			},
			{
				"type": "unocc",
				"energy": 0.03442,
				"method": "rhf"
			}
		],
		"cosmo_sigma_profile": { 
			"-0.025": 0.0,
			"-0.024": 0.0,
			"-0.023": 0.0,
			"-0.022": 0.0,
			"-0.021": 0.0,
			"-0.02": 0.0,
			"-0.019": 0.0,
			"-0.018": 0.0,
			"-0.017": 0.0,
			"-0.016": 0.0,
			"-0.015": 0.0,
			"-0.014": 0.0,
			"-0.013": 0.0,
			"-0.012": 0.0,
			"-0.011": 0.0,
			"-0.01": 0.571864722277,
			"-0.009": 3.4496033366,
			"-0.008": 3.68399347041,
			"-0.007": 4.46362664597,
			"-0.006": 11.1624150019,
			"-0.005": 25.2313865337,
			"-0.004": 38.2341919076,
			"-0.003": 38.7730129881,
			"-0.002": 36.992090447,
			"-0.001": 33.8262087455,
			"0.0": 31.1578164828,
			"0.001": 21.7253288572,
			"0.002": 20.0331044972,
			"0.003": 20.0453454249,
			"0.004": 19.3830927859,
			"0.005": 15.9699456806,
			"0.006": 9.93258321468,
			"0.007": 9.66900474481,
			"0.008": 8.30113220757,
			"0.009": 5.62264971255,
			"0.01": 1.92772899081,
			"0.011": 2.11147760583,
			"0.012": 3.02043403306,
			"0.013": 4.15524024806,
			"0.014": 0.926700641106,
			"0.015": 0.0,
			"0.016": 0.0,
			"0.017": 0.0,
			"0.018": 0.0,
			"0.019": 0.0,
			"0.02": 0.0,
			"0.021": 0.0,
			"0.022": 0.0,
			"0.023": 0.0,
			"0.024": 0.0,
			"0.025": 0.0
		}
	}
}
