{
	 "smiles": "C(N1C=CN=C1)C1=CC=CC=C1", 
	 "Tm": 343.15, 
	 "num_atms": 22, 
	 "gaussian": { 
		 "optdone": 1, 
		 "sigma_profile": "yes", 
		 "theory": "DFT", 
		 "functional": "B3LYP", 
		 "basiset": "6-31G**", 
		 "properties": { 
			 "R2extent": 2603.5942, 
			 "electric_dipole_moment_norm": 4.03459813736, 
			 "electric_quadrupole_moment_norm": 12.9767442269, 
			 "total_energy": -496.582956653, 
			 "HOMO_LUMO_gap": 0.20668, 
			 "cosmo_polarized_energy": -11.6, 
			 "cosmo_cavitation_energy": 25.98, 
			 "cosmo_dispersion_energy": -18.62, 
			 "cosmo_repulsion_energy": 1.47, 
			 "cosmo_total_nonelectrostatic_energy": 8.84, 
			 "SMD_solvation_energy": 3.49 
		},
		"coords": [
			{
				"x": -0.100564554,
				"y": 0.0589063083,
				"z": 0.7024473965,
				"element": "C" 
			},
			{
				"x": -1.3476878925,
				"y": 0.5009193282,
				"z": 0.0894467023,
				"element": "N" 
			},
			{
				"x": -1.5202134664,
				"y": 0.9648451691,
				"z": -1.2009084408,
				"element": "C" 
			},
			{
				"x": -2.8557739766,
				"y": 1.2646124567,
				"z": -1.3086478695,
				"element": "C" 
			},
			{
				"x": -3.512638018,
				"y": 1.0003252302,
				"z": -0.1273820073,
				"element": "N" 
			},
			{
				"x": -2.5813682524,
				"y": 0.5462959265,
				"z": 0.6832129569,
				"element": "C" 
			},
			{
				"x": 0.5142958609,
				"y": -1.1621702352,
				"z": 0.040896937,
				"element": "C" 
			},
			{
				"x": 1.8892713353,
				"y": -1.2032263218,
				"z": -0.211617971,
				"element": "C" 
			},
			{
				"x": 2.4750374379,
				"y": -2.3374583271,
				"z": -0.778398702,
				"element": "C" 
			},
			{
				"x": 1.6862826717,
				"y": -3.4405469611,
				"z": -1.1048214027,
				"element": "C" 
			},
			{
				"x": 0.3106117155,
				"y": -3.4043759704,
				"z": -0.8612004145,
				"element": "C" 
			},
			{
				"x": -0.2716245571,
				"y": -2.2735301003,
				"z": -0.2906756472,
				"element": "C" 
			},
			{
				"x": -0.3283577744,
				"y": -0.1523445016,
				"z": 1.7535301916,
				"element": "H" 
			},
			{
				"x": 0.6185750166,
				"y": 0.8856350329,
				"z": 0.6955727173,
				"element": "H" 
			},
			{
				"x": -0.6986794274,
				"y": 1.0227422706,
				"z": -1.8983439471,
				"element": "H" 
			},
			{
				"x": -3.3802328829,
				"y": 1.6556265703,
				"z": -2.1698493327,
				"element": "H" 
			},
			{
				"x": -2.7270525212,
				"y": 0.2394472364,
				"z": 1.7110658486,
				"element": "H" 
			},
			{
				"x": 2.5069626249,
				"y": -0.3428540097,
				"z": 0.035529612,
				"element": "H" 
			},
			{
				"x": 3.5440235154,
				"y": -2.3542080412,
				"z": -0.9703942383,
				"element": "H" 
			},
			{
				"x": 2.1381251126,
				"y": -4.3220533349,
				"z": -1.5502727834,
				"element": "H" 
			},
			{
				"x": -0.3097858364,
				"y": -4.2585070195,
				"z": -1.1170461994,
				"element": "H" 
			},
			{
				"x": -1.3428061317,
				"y": -2.2459807067,
				"z": -0.1107434061,
				"element": "H" 
			}
		],
		 "valence_orbital": [ 
			{
				"type": "occ",
				"energy": -0.26885,
				"method": "rhf"
			},
			{
				"type": "occ",
				"energy": -0.25997,
				"method": "rhf"
			},
			{
				"type": "occ",
				"energy": -0.25804,
				"method": "rhf"
			},
			{
				"type": "occ",
				"energy": -0.25046,
				"method": "rhf"
			},
			{
				"type": "occ",
				"energy": -0.22157,
				"method": "rhf"
			},
			{
				"type": "unocc",
				"energy": -0.01489,
				"method": "rhf"
			},
			{
				"type": "unocc",
				"energy": -0.01018,
				"method": "rhf"
			},
			{
				"type": "unocc",
				"energy": 0.03068,
				"method": "rhf"
			},
			{
				"type": "unocc",
				"energy": 0.07305,
				"method": "rhf"
			},
			{
				"type": "unocc",
				"energy": 0.08924,
				"method": "rhf"
			}
		],
		"cosmo_sigma_profile": { 
			"-0.025": 0.0,
			"-0.024": 0.0,
			"-0.023": 0.0,
			"-0.022": 0.0,
			"-0.021": 0.0,
			"-0.02": 0.0,
			"-0.019": 0.0,
			"-0.018": 0.0,
			"-0.017": 0.0,
			"-0.016": 0.0,
			"-0.015": 0.0,
			"-0.014": 0.0,
			"-0.013": 0.0,
			"-0.012": 0.0,
			"-0.011": 0.0,
			"-0.01": 0.0,
			"-0.009": 1.45622099713,
			"-0.008": 4.84969955356,
			"-0.007": 7.09354675783,
			"-0.006": 15.3687733696,
			"-0.005": 18.657488237,
			"-0.004": 20.3888742511,
			"-0.003": 17.5165298993,
			"-0.002": 12.1076466967,
			"-0.001": 12.8486010476,
			"0.0": 10.191754235,
			"0.001": 9.36297416396,
			"0.002": 11.1161316421,
			"0.003": 13.0166362556,
			"0.004": 12.6593075779,
			"0.005": 13.1319272279,
			"0.006": 11.3873090408,
			"0.007": 1.87491769861,
			"0.008": 1.67711798664,
			"0.009": 1.78378944102,
			"0.01": 2.1261568398,
			"0.011": 0.785148116294,
			"0.012": 1.33307604713,
			"0.013": 1.1700273585,
			"0.014": 1.48126396425,
			"0.015": 1.07794899016,
			"0.016": 1.11638488858,
			"0.017": 1.31499973801,
			"0.018": 0.950586820232,
			"0.019": 0.153725426665,
			"0.02": 0.0,
			"0.021": 0.0,
			"0.022": 0.0,
			"0.023": 0.0,
			"0.024": 0.0,
			"0.025": 0.0
		}
	}
}
