{
	 "smiles": "COC(=O)NC1=CC(O)=CC=C1", 
	 "Tm": 369.15, 
	 "num_atms": 21, 
	 "gaussian": { 
		 "optdone": 1, 
		 "sigma_profile": "yes", 
		 "theory": "DFT", 
		 "functional": "B3LYP", 
		 "basiset": "6-31G**", 
		 "properties": { 
			 "R2extent": 3404.5626, 
			 "electric_dipole_moment_norm": 3.45082495065, 
			 "electric_quadrupole_moment_norm": 7.94302791321, 
			 "total_energy": -590.714761357, 
			 "HOMO_LUMO_gap": 0.20833, 
			 "cosmo_polarized_energy": -15.04, 
			 "cosmo_cavitation_energy": 25.6, 
			 "cosmo_dispersion_energy": -19.22, 
			 "cosmo_repulsion_energy": 1.53, 
			 "cosmo_total_nonelectrostatic_energy": 7.91, 
			 "SMD_solvation_energy": 6.4 
		},
		"coords": [
			{
				"x": 0.5408060957,
				"y": -2.4092625046,
				"z": 1.9059816914,
				"element": "C" 
			},
			{
				"x": 1.0878294312,
				"y": -1.2568940789,
				"z": 1.2516821708,
				"element": "O" 
			},
			{
				"x": 0.2382248447,
				"y": -0.6423208464,
				"z": 0.3821181776,
				"element": "C" 
			},
			{
				"x": -0.8967386215,
				"y": -1.0151998191,
				"z": 0.1574347953,
				"element": "O" 
			},
			{
				"x": 0.8870003195,
				"y": 0.435281509,
				"z": -0.1666212718,
				"element": "N" 
			},
			{
				"x": 0.400655378,
				"y": 1.3590091641,
				"z": -1.1120140717,
				"element": "C" 
			},
			{
				"x": 1.2801694319,
				"y": 2.3789918938,
				"z": -1.5100435845,
				"element": "C" 
			},
			{
				"x": 0.8732982038,
				"y": 3.3333601335,
				"z": -2.4431993775,
				"element": "C" 
			},
			{
				"x": 1.6955783711,
				"y": 4.3430259247,
				"z": -2.8592166097,
				"element": "O" 
			},
			{
				"x": -0.4132689088,
				"y": 3.2823551312,
				"z": -2.9898676148,
				"element": "C" 
			},
			{
				"x": -1.2723044974,
				"y": 2.2652938743,
				"z": -2.5848062648,
				"element": "C" 
			},
			{
				"x": -0.8903874185,
				"y": 1.2979507705,
				"z": -1.6528506977,
				"element": "C" 
			},
			{
				"x": -0.3411416385,
				"y": -2.1408641194,
				"z": 2.4931881552,
				"element": "H" 
			},
			{
				"x": 1.3333240565,
				"y": -2.7784249536,
				"z": 2.5572523367,
				"element": "H" 
			},
			{
				"x": 0.2596390343,
				"y": -3.1734282464,
				"z": 1.1768174557,
				"element": "H" 
			},
			{
				"x": 1.8329281058,
				"y": 0.5689419813,
				"z": 0.1599844373,
				"element": "H" 
			},
			{
				"x": 2.2835834896,
				"y": 2.4256807043,
				"z": -1.0890690936,
				"element": "H" 
			},
			{
				"x": 2.547520766,
				"y": 4.2666071589,
				"z": -2.4108133233,
				"element": "H" 
			},
			{
				"x": -0.7116466729,
				"y": 4.0325467725,
				"z": -3.7136109333,
				"element": "H" 
			},
			{
				"x": -2.2730740322,
				"y": 2.2189545383,
				"z": -3.0048422875,
				"element": "H" 
			},
			{
				"x": -1.5656957385,
				"y": 0.5127950119,
				"z": -1.34570409,
				"element": "H" 
			}
		],
		 "valence_orbital": [ 
			{
				"type": "occ",
				"energy": -0.30212,
				"method": "rhf"
			},
			{
				"type": "occ",
				"energy": -0.29783,
				"method": "rhf"
			},
			{
				"type": "occ",
				"energy": -0.27776,
				"method": "rhf"
			},
			{
				"type": "occ",
				"energy": -0.23308,
				"method": "rhf"
			},
			{
				"type": "occ",
				"energy": -0.21086,
				"method": "rhf"
			},
			{
				"type": "unocc",
				"energy": -0.00253,
				"method": "rhf"
			},
			{
				"type": "unocc",
				"energy": 0.01303,
				"method": "rhf"
			},
			{
				"type": "unocc",
				"energy": 0.06484,
				"method": "rhf"
			},
			{
				"type": "unocc",
				"energy": 0.06756,
				"method": "rhf"
			},
			{
				"type": "unocc",
				"energy": 0.07744,
				"method": "rhf"
			}
		],
		"cosmo_sigma_profile": { 
			"-0.025": 0.0,
			"-0.024": 0.0,
			"-0.023": 0.0,
			"-0.022": 0.0,
			"-0.021": 0.0,
			"-0.02": 0.0,
			"-0.019": 0.0,
			"-0.018": 0.440773822392,
			"-0.017": 1.05706380899,
			"-0.016": 1.19593839109,
			"-0.015": 1.92115552067,
			"-0.014": 2.47289624531,
			"-0.013": 1.7575185912,
			"-0.012": 1.90302836515,
			"-0.011": 1.49852595679,
			"-0.01": 3.27800279017,
			"-0.009": 2.17414866489,
			"-0.008": 2.55979360802,
			"-0.007": 3.01795306964,
			"-0.006": 6.96434170489,
			"-0.005": 12.4814997085,
			"-0.004": 13.3223330664,
			"-0.003": 15.3890903097,
			"-0.002": 12.4806162387,
			"-0.001": 11.4449332725,
			"0.0": 10.2817617221,
			"0.001": 9.50071870007,
			"0.002": 10.3308509248,
			"0.003": 12.7711088661,
			"0.004": 16.9853920128,
			"0.005": 13.8964438165,
			"0.006": 9.83695277674,
			"0.007": 5.42318451599,
			"0.008": 3.77447678171,
			"0.009": 2.84322336894,
			"0.01": 3.15699181427,
			"0.011": 4.40731856396,
			"0.012": 4.06706430581,
			"0.013": 1.05207769015,
			"0.014": 0.0,
			"0.015": 0.0,
			"0.016": 0.0,
			"0.017": 0.0,
			"0.018": 0.0,
			"0.019": 0.0,
			"0.02": 0.0,
			"0.021": 0.0,
			"0.022": 0.0,
			"0.023": 0.0,
			"0.024": 0.0,
			"0.025": 0.0
		}
	}
}
