{
	 "smiles": "NS(=O)(=O)C1=NC=C(Cl)C=C1", 
	 "Tm": 399.15, 
	 "num_atms": 16, 
	 "gaussian": { 
		 "optdone": 1, 
		 "sigma_profile": "yes", 
		 "theory": "DFT", 
		 "functional": "B3LYP", 
		 "basiset": "6-31G**", 
		 "properties": { 
			 "R2extent": 3185.1771, 
			 "electric_dipole_moment_norm": 4.94725919576, 
			 "electric_quadrupole_moment_norm": 18.1780086585, 
			 "total_energy": -1311.79494657, 
			 "HOMO_LUMO_gap": 0.21014, 
			 "cosmo_polarized_energy": -17.42, 
			 "cosmo_cavitation_energy": 24.16, 
			 "cosmo_dispersion_energy": -18.64, 
			 "cosmo_repulsion_energy": 1.46, 
			 "cosmo_total_nonelectrostatic_energy": 6.98, 
			 "SMD_solvation_energy": 2.48 
		},
		"coords": [
			{
				"x": -2.0987106279,
				"y": -0.7671295173,
				"z": -3.0911387214,
				"element": "N" 
			},
			{
				"x": -1.7235708741,
				"y": 0.6626595537,
				"z": -2.3093691557,
				"element": "S" 
			},
			{
				"x": -1.3178402665,
				"y": 1.6176353125,
				"z": -3.3353193263,
				"element": "O" 
			},
			{
				"x": -2.8103823098,
				"y": 0.9380885736,
				"z": -1.3693257672,
				"element": "O" 
			},
			{
				"x": -0.2542644408,
				"y": 0.2849950689,
				"z": -1.310894769,
				"element": "C" 
			},
			{
				"x": 0.667475405,
				"y": -0.4636437353,
				"z": -1.9119750506,
				"element": "N" 
			},
			{
				"x": 1.7900280954,
				"y": -0.7265927238,
				"z": -1.2399447949,
				"element": "C" 
			},
			{
				"x": 2.0108441063,
				"y": -0.2394853281,
				"z": 0.0532606264,
				"element": "C" 
			},
			{
				"x": 3.5028027518,
				"y": -0.6208681635,
				"z": 0.8750161103,
				"element": "Cl" 
			},
			{
				"x": 1.0357391242,
				"y": 0.5376721188,
				"z": 0.6766423953,
				"element": "C" 
			},
			{
				"x": -0.1379398863,
				"y": 0.8085151391,
				"z": -0.025298055,
				"element": "C" 
			},
			{
				"x": -1.3107056148,
				"y": -1.1063920778,
				"z": -3.6369446947,
				"element": "H" 
			},
			{
				"x": -2.4542248326,
				"y": -1.4675562154,
				"z": -2.4468890818,
				"element": "H" 
			},
			{
				"x": 2.537327373,
				"y": -1.3415427065,
				"z": -1.7337677924,
				"element": "H" 
			},
			{
				"x": 1.1910228577,
				"y": 0.915163794,
				"z": 1.6814548814,
				"element": "H" 
			},
			{
				"x": -0.9416008608,
				"y": 1.3952809071,
				"z": 0.4039931956,
				"element": "H" 
			}
		],
		 "valence_orbital": [ 
			{
				"type": "occ",
				"energy": -0.32194,
				"method": "rhf"
			},
			{
				"type": "occ",
				"energy": -0.3187,
				"method": "rhf"
			},
			{
				"type": "occ",
				"energy": -0.30735,
				"method": "rhf"
			},
			{
				"type": "occ",
				"energy": -0.29261,
				"method": "rhf"
			},
			{
				"type": "occ",
				"energy": -0.28007,
				"method": "rhf"
			},
			{
				"type": "unocc",
				"energy": -0.06993,
				"method": "rhf"
			},
			{
				"type": "unocc",
				"energy": -0.05642,
				"method": "rhf"
			},
			{
				"type": "unocc",
				"energy": 0.00448,
				"method": "rhf"
			},
			{
				"type": "unocc",
				"energy": 0.0526,
				"method": "rhf"
			},
			{
				"type": "unocc",
				"energy": 0.07416,
				"method": "rhf"
			}
		],
		"cosmo_sigma_profile": { 
			"-0.025": 0.0,
			"-0.024": 0.0,
			"-0.023": 0.0,
			"-0.022": 0.0,
			"-0.021": 0.0,
			"-0.02": 0.0,
			"-0.019": 0.0,
			"-0.018": 0.0,
			"-0.017": 0.0,
			"-0.016": 0.781776459663,
			"-0.015": 1.55061508173,
			"-0.014": 2.26336236022,
			"-0.013": 2.3532775992,
			"-0.012": 2.63783804477,
			"-0.011": 1.75802074984,
			"-0.01": 2.21716835133,
			"-0.009": 5.98907857792,
			"-0.008": 7.91655422377,
			"-0.007": 6.15047140438,
			"-0.006": 6.49742689535,
			"-0.005": 6.44839135967,
			"-0.004": 6.83434255083,
			"-0.003": 12.0475166396,
			"-0.002": 17.6893213663,
			"-0.001": 17.3526062889,
			"0.0": 9.15004155747,
			"0.001": 8.46623066469,
			"0.002": 10.2063403318,
			"0.003": 12.8422485124,
			"0.004": 7.80110723416,
			"0.005": 5.11967608945,
			"0.006": 3.42258553718,
			"0.007": 5.03449540274,
			"0.008": 5.54260283479,
			"0.009": 5.28085353064,
			"0.01": 10.5295743205,
			"0.011": 10.8176107822,
			"0.012": 1.5954360125,
			"0.013": 0.0736601221368,
			"0.014": 0.0,
			"0.015": 0.0,
			"0.016": 0.0,
			"0.017": 0.0,
			"0.018": 0.0,
			"0.019": 0.0,
			"0.02": 0.0,
			"0.021": 0.0,
			"0.022": 0.0,
			"0.023": 0.0,
			"0.024": 0.0,
			"0.025": 0.0
		}
	}
}
