{
	 "smiles": "ClS(=O)(=O)C1=CC2=C(NC(=O)CCC2)C=C1", 
	 "Tm": 482.15, 
	 "num_atms": 26, 
	 "gaussian": { 
		 "optdone": 1, 
		 "sigma_profile": "yes", 
		 "theory": "DFT", 
		 "functional": "B3LYP", 
		 "basiset": "6-31G**", 
		 "properties": { 
			 "R2extent": 6959.8688, 
			 "electric_dipole_moment_norm": 4.26567389869, 
			 "electric_quadrupole_moment_norm": 35.3400684532, 
			 "total_energy": -1525.84909899, 
			 "HOMO_LUMO_gap": 0.16099, 
			 "cosmo_polarized_energy": -16.93, 
			 "cosmo_cavitation_energy": 32.71, 
			 "cosmo_dispersion_energy": -24.55, 
			 "cosmo_repulsion_energy": 1.87, 
			 "cosmo_total_nonelectrostatic_energy": 10.02, 
			 "SMD_solvation_energy": 4.24 
		},
		"coords": [
			{
				"x": 2.8963666522,
				"y": 3.5985190199,
				"z": 2.8342219733,
				"element": "Cl" 
			},
			{
				"x": 1.670439787,
				"y": 4.2987893033,
				"z": 1.2223577721,
				"element": "S" 
			},
			{
				"x": 0.7733211314,
				"y": 5.2880973306,
				"z": 1.8071639763,
				"element": "O" 
			},
			{
				"x": 2.5901134815,
				"y": 4.622149443,
				"z": 0.1380104013,
				"element": "O" 
			},
			{
				"x": 0.7498757955,
				"y": 2.8397714386,
				"z": 0.8065075686,
				"element": "C" 
			},
			{
				"x": 1.2579894954,
				"y": 1.9626292049,
				"z": -0.1496405946,
				"element": "C" 
			},
			{
				"x": 0.5630640902,
				"y": 0.8086376654,
				"z": -0.5167938059,
				"element": "C" 
			},
			{
				"x": -0.6658083144,
				"y": 0.5375533791,
				"z": 0.1312796128,
				"element": "C" 
			},
			{
				"x": -1.4892897125,
				"y": -0.5667615897,
				"z": -0.1192121372,
				"element": "N" 
			},
			{
				"x": -1.392332306,
				"y": -1.8218872887,
				"z": -0.7246206168,
				"element": "C" 
			},
			{
				"x": -2.3676223974,
				"y": -2.552825567,
				"z": -0.6449452972,
				"element": "O" 
			},
			{
				"x": -0.1577637106,
				"y": -2.2720566299,
				"z": -1.483292986,
				"element": "C" 
			},
			{
				"x": 1.1759615035,
				"y": -1.5695661889,
				"z": -1.2389805783,
				"element": "C" 
			},
			{
				"x": 1.1449075109,
				"y": -0.0758717881,
				"z": -1.5948006856,
				"element": "C" 
			},
			{
				"x": -1.1605775914,
				"y": 1.4447235124,
				"z": 1.0937111566,
				"element": "C" 
			},
			{
				"x": -0.4681891749,
				"y": 2.5923794948,
				"z": 1.4398103911,
				"element": "C" 
			},
			{
				"x": 2.2018715548,
				"y": 2.1917592217,
				"z": -0.6330317146,
				"element": "H" 
			},
			{
				"x": -2.3962211185,
				"y": -0.5139705502,
				"z": 0.3321896912,
				"element": "H" 
			},
			{
				"x": -0.0802461622,
				"y": -3.3434387294,
				"z": -1.2775634034,
				"element": "H" 
			},
			{
				"x": -0.421807367,
				"y": -2.1947644611,
				"z": -2.5469563721,
				"element": "H" 
			},
			{
				"x": 1.9276707939,
				"y": -2.0667961812,
				"z": -1.8613359205,
				"element": "H" 
			},
			{
				"x": 1.5015270698,
				"y": -1.6999152624,
				"z": -0.200188777,
				"element": "H" 
			},
			{
				"x": 0.5776899515,
				"y": 0.0568980468,
				"z": -2.5279619982,
				"element": "H" 
			},
			{
				"x": 2.1594513621,
				"y": 0.2740300377,
				"z": -1.8070238222,
				"element": "H" 
			},
			{
				"x": -2.1095834994,
				"y": 1.2314279383,
				"z": 1.5779291016,
				"element": "H" 
			},
			{
				"x": -0.8602088252,
				"y": 3.2822892001,
				"z": 2.1780670646,
				"element": "H" 
			}
		],
		 "valence_orbital": [ 
			{
				"type": "occ",
				"energy": -0.32102,
				"method": "rhf"
			},
			{
				"type": "occ",
				"energy": -0.31051,
				"method": "rhf"
			},
			{
				"type": "occ",
				"energy": -0.28664,
				"method": "rhf"
			},
			{
				"type": "occ",
				"energy": -0.27623,
				"method": "rhf"
			},
			{
				"type": "occ",
				"energy": -0.2507,
				"method": "rhf"
			},
			{
				"type": "unocc",
				"energy": -0.08971,
				"method": "rhf"
			},
			{
				"type": "unocc",
				"energy": -0.04772,
				"method": "rhf"
			},
			{
				"type": "unocc",
				"energy": -0.04072,
				"method": "rhf"
			},
			{
				"type": "unocc",
				"energy": 0.00529,
				"method": "rhf"
			},
			{
				"type": "unocc",
				"energy": 0.04937,
				"method": "rhf"
			}
		],
		"cosmo_sigma_profile": { 
			"-0.025": 0.0,
			"-0.024": 0.0,
			"-0.023": 0.0,
			"-0.022": 0.0,
			"-0.021": 0.0,
			"-0.02": 0.0,
			"-0.019": 0.0,
			"-0.018": 0.0,
			"-0.017": 0.0,
			"-0.016": 0.0,
			"-0.015": 0.72592116829,
			"-0.014": 1.44757293851,
			"-0.013": 1.05947563598,
			"-0.012": 1.11571641579,
			"-0.011": 1.05908336342,
			"-0.01": 0.999418075693,
			"-0.009": 1.67681112798,
			"-0.008": 5.42503022798,
			"-0.007": 7.61989212139,
			"-0.006": 11.9693149435,
			"-0.005": 16.9689882814,
			"-0.004": 22.0783875684,
			"-0.003": 23.3235692371,
			"-0.002": 19.1667774438,
			"-0.001": 19.9106463476,
			"0.0": 17.7053613711,
			"0.001": 21.3052215743,
			"0.002": 12.9889919489,
			"0.003": 12.9650144794,
			"0.004": 15.9989887569,
			"0.005": 4.36372983663,
			"0.006": 4.56330382275,
			"0.007": 6.57693757321,
			"0.008": 10.4589685815,
			"0.009": 8.08982767357,
			"0.01": 1.62819794398,
			"0.011": 2.04610815479,
			"0.012": 4.1859679928,
			"0.013": 4.35667682109,
			"0.014": 1.00462534326,
			"0.015": 0.0,
			"0.016": 0.0,
			"0.017": 0.0,
			"0.018": 0.0,
			"0.019": 0.0,
			"0.02": 0.0,
			"0.021": 0.0,
			"0.022": 0.0,
			"0.023": 0.0,
			"0.024": 0.0,
			"0.025": 0.0
		}
	}
}
