{
	 "smiles": "CC(C)N1NC=CC1=NC(=O)OCC(F)(F)F", 
	 "Tm": 351.15, 
	 "num_atms": 29, 
	 "gaussian": { 
		 "optdone": 1, 
		 "sigma_profile": "yes", 
		 "theory": "DFT", 
		 "functional": "B3LYP", 
		 "basiset": "6-31G**", 
		 "properties": { 
			 "R2extent": 5316.5666, 
			 "electric_dipole_moment_norm": 6.20072151286, 
			 "electric_quadrupole_moment_norm": 10.4786926675, 
			 "total_energy": -964.390800008, 
			 "HOMO_LUMO_gap": 0.18106, 
			 "cosmo_polarized_energy": -19.98, 
			 "cosmo_cavitation_energy": 33.94, 
			 "cosmo_dispersion_energy": -22.92, 
			 "cosmo_repulsion_energy": 1.72, 
			 "cosmo_total_nonelectrostatic_energy": 12.73, 
			 "SMD_solvation_energy": 6.02 
		},
		"coords": [
			{
				"x": -2.5973213115,
				"y": -1.7437047142,
				"z": -0.6071928577,
				"element": "C" 
			},
			{
				"x": -1.2042955715,
				"y": -1.1107909177,
				"z": -0.5584493037,
				"element": "C" 
			},
			{
				"x": -0.6440650422,
				"y": -0.8030893901,
				"z": -1.9522298156,
				"element": "C" 
			},
			{
				"x": -1.2203789075,
				"y": 0.1038266124,
				"z": 0.2896219592,
				"element": "N" 
			},
			{
				"x": -2.2770347641,
				"y": 1.010837463,
				"z": 0.1026532334,
				"element": "N" 
			},
			{
				"x": -1.8794876055,
				"y": 2.2127609738,
				"z": 0.6443739605,
				"element": "C" 
			},
			{
				"x": -0.5711490593,
				"y": 2.1535051295,
				"z": 0.9946304725,
				"element": "C" 
			},
			{
				"x": -0.1141234619,
				"y": 0.8059581451,
				"z": 0.7474151483,
				"element": "C" 
			},
			{
				"x": 1.1376105527,
				"y": 0.4222181547,
				"z": 0.8549392336,
				"element": "N" 
			},
			{
				"x": 1.5164797279,
				"y": -0.8612289944,
				"z": 1.0459964824,
				"element": "C" 
			},
			{
				"x": 0.8805744219,
				"y": -1.807005889,
				"z": 1.5056709979,
				"element": "O" 
			},
			{
				"x": 2.8516363981,
				"y": -0.9907307634,
				"z": 0.7046383247,
				"element": "O" 
			},
			{
				"x": 3.3631476349,
				"y": -2.3084552089,
				"z": 0.7334227032,
				"element": "C" 
			},
			{
				"x": 3.3209558561,
				"y": -2.9111116107,
				"z": -0.6617700358,
				"element": "C" 
			},
			{
				"x": 3.7492440681,
				"y": -4.1927945031,
				"z": -0.6211606507,
				"element": "F" 
			},
			{
				"x": 4.1074449896,
				"y": -2.2443289205,
				"z": -1.5281061916,
				"element": "F" 
			},
			{
				"x": 2.0692871533,
				"y": -2.9090863223,
				"z": -1.1721570189,
				"element": "F" 
			},
			{
				"x": -3.3118557882,
				"y": -1.1299807707,
				"z": -1.167451421,
				"element": "H" 
			},
			{
				"x": -2.9876270107,
				"y": -1.9274547271,
				"z": 0.3992622928,
				"element": "H" 
			},
			{
				"x": -2.5317195474,
				"y": -2.7084091404,
				"z": -1.1169696809,
				"element": "H" 
			},
			{
				"x": -0.5382492625,
				"y": -1.7962075384,
				"z": -0.0335635399,
				"element": "H" 
			},
			{
				"x": -0.583486454,
				"y": -1.7240382978,
				"z": -2.5399697713,
				"element": "H" 
			},
			{
				"x": 0.362777475,
				"y": -0.3832645297,
				"z": -1.8843026841,
				"element": "H" 
			},
			{
				"x": -1.2864524759,
				"y": -0.0930411989,
				"z": -2.4840320856,
				"element": "H" 
			},
			{
				"x": -3.1864408103,
				"y": 0.6347477923,
				"z": 0.3516880449,
				"element": "H" 
			},
			{
				"x": -2.5940991162,
				"y": 3.0204569709,
				"z": 0.7230704688,
				"element": "H" 
			},
			{
				"x": 0.0584293853,
				"y": 2.9421823342,
				"z": 1.3746390355,
				"element": "H" 
			},
			{
				"x": 4.4064210036,
				"y": -2.2599216226,
				"z": 1.0543821747,
				"element": "H" 
			},
			{
				"x": 2.7835775221,
				"y": -2.9441485162,
				"z": 1.4056505245,
				"element": "H" 
			}
		],
		 "valence_orbital": [ 
			{
				"type": "occ",
				"energy": -0.28894,
				"method": "rhf"
			},
			{
				"type": "occ",
				"energy": -0.28101,
				"method": "rhf"
			},
			{
				"type": "occ",
				"energy": -0.27839,
				"method": "rhf"
			},
			{
				"type": "occ",
				"energy": -0.23703,
				"method": "rhf"
			},
			{
				"type": "occ",
				"energy": -0.21725,
				"method": "rhf"
			},
			{
				"type": "unocc",
				"energy": -0.03619,
				"method": "rhf"
			},
			{
				"type": "unocc",
				"energy": 0.03573,
				"method": "rhf"
			},
			{
				"type": "unocc",
				"energy": 0.05359,
				"method": "rhf"
			},
			{
				"type": "unocc",
				"energy": 0.08881,
				"method": "rhf"
			},
			{
				"type": "unocc",
				"energy": 0.09599,
				"method": "rhf"
			}
		],
		"cosmo_sigma_profile": { 
			"-0.025": 0.0,
			"-0.024": 0.0,
			"-0.023": 0.0,
			"-0.022": 0.0,
			"-0.021": 0.0,
			"-0.02": 0.0,
			"-0.019": 0.0,
			"-0.018": 0.0,
			"-0.017": 0.372433982008,
			"-0.016": 1.1916285935,
			"-0.015": 1.24444578685,
			"-0.014": 1.47920609741,
			"-0.013": 0.940165942974,
			"-0.012": 1.56287414383,
			"-0.011": 2.31005638325,
			"-0.01": 3.23102882154,
			"-0.009": 4.42753596499,
			"-0.008": 6.72744462662,
			"-0.007": 7.02470668353,
			"-0.006": 7.22829246174,
			"-0.005": 12.6757749529,
			"-0.004": 15.7972566155,
			"-0.003": 15.6436725159,
			"-0.002": 17.5185856238,
			"-0.001": 22.8029674419,
			"0.0": 23.2461258081,
			"0.001": 18.5249679932,
			"0.002": 24.6053564752,
			"0.003": 33.436752924,
			"0.004": 8.76902480386,
			"0.005": 4.90547922738,
			"0.006": 3.686181176,
			"0.007": 4.25096779846,
			"0.008": 3.156326172,
			"0.009": 2.94148124601,
			"0.01": 3.56724877585,
			"0.011": 2.49261232928,
			"0.012": 4.19249812939,
			"0.013": 4.32439161902,
			"0.014": 2.19668102839,
			"0.015": 1.08705827408,
			"0.016": 1.09806194081,
			"0.017": 0.226520560549,
			"0.018": 0.0,
			"0.019": 0.0,
			"0.02": 0.0,
			"0.021": 0.0,
			"0.022": 0.0,
			"0.023": 0.0,
			"0.024": 0.0,
			"0.025": 0.0
		}
	}
}
