{
	 "smiles": "NC1=C(F)C=C(Br)C(=C1)C(F)(F)F", 
	 "Tm": 309.15, 
	 "num_atms": 17, 
	 "gaussian": { 
		 "optdone": 1, 
		 "sigma_profile": "yes", 
		 "theory": "DFT", 
		 "functional": "B3LYP", 
		 "basiset": "6-31G**", 
		 "properties": { 
			 "R2extent": 4676.5875, 
			 "electric_dipole_moment_norm": 3.88750026367, 
			 "electric_quadrupole_moment_norm": 8.03848132299, 
			 "total_energy": -3294.66972428, 
			 "HOMO_LUMO_gap": 0.1917, 
			 "cosmo_polarized_energy": -8.32, 
			 "cosmo_cavitation_energy": 25.32, 
			 "cosmo_dispersion_energy": -18.64, 
			 "cosmo_repulsion_energy": 1.39, 
			 "cosmo_total_nonelectrostatic_energy": 8.07, 
			 "SMD_solvation_energy": 4.82 
		},
		"coords": [
			{
				"x": -3.5443215537,
				"y": -0.0694237745,
				"z": 0.3909274469,
				"element": "N" 
			},
			{
				"x": -2.4480620863,
				"y": 0.7447176843,
				"z": 0.1566357769,
				"element": "C" 
			},
			{
				"x": -2.6021386319,
				"y": 2.137690815,
				"z": 0.1115546136,
				"element": "C" 
			},
			{
				"x": -3.8577911125,
				"y": 2.6298478109,
				"z": 0.23322966,
				"element": "F" 
			},
			{
				"x": -1.5417206389,
				"y": 3.006671826,
				"z": -0.0619345692,
				"element": "C" 
			},
			{
				"x": -0.2525564788,
				"y": 2.4907718227,
				"z": -0.200992095,
				"element": "C" 
			},
			{
				"x": 1.1704627955,
				"y": 3.7380310391,
				"z": -0.4391885876,
				"element": "Br" 
			},
			{
				"x": -0.0487495445,
				"y": 1.1046412689,
				"z": -0.1664558045,
				"element": "C" 
			},
			{
				"x": -1.1446196505,
				"y": 0.2542943832,
				"z": 0.0120804182,
				"element": "C" 
			},
			{
				"x": 1.3230622507,
				"y": 0.48729316,
				"z": -0.3167353706,
				"element": "C" 
			},
			{
				"x": 1.2677825397,
				"y": -0.8636256397,
				"z": -0.2493976219,
				"element": "F" 
			},
			{
				"x": 2.1682363763,
				"y": 0.8938204123,
				"z": 0.6518122104,
				"element": "F" 
			},
			{
				"x": 1.8876789489,
				"y": 0.7971253574,
				"z": -1.5018659683,
				"element": "F" 
			},
			{
				"x": -3.4717703082,
				"y": -1.0204673907,
				"z": 0.0605395925,
				"element": "H" 
			},
			{
				"x": -4.4408706263,
				"y": 0.3569787132,
				"z": 0.2060194061,
				"element": "H" 
			},
			{
				"x": -1.7257560951,
				"y": 4.0734068419,
				"z": -0.0916852571,
				"element": "H" 
			},
			{
				"x": -0.9759661843,
				"y": -0.8156743301,
				"z": 0.0437561495,
				"element": "H" 
			}
		],
		 "valence_orbital": [ 
			{
				"type": "occ",
				"energy": -0.35503,
				"method": "rhf"
			},
			{
				"type": "occ",
				"energy": -0.294,
				"method": "rhf"
			},
			{
				"type": "occ",
				"energy": -0.29,
				"method": "rhf"
			},
			{
				"type": "occ",
				"energy": -0.27272,
				"method": "rhf"
			},
			{
				"type": "occ",
				"energy": -0.2213,
				"method": "rhf"
			},
			{
				"type": "unocc",
				"energy": -0.0296,
				"method": "rhf"
			},
			{
				"type": "unocc",
				"energy": -0.01876,
				"method": "rhf"
			},
			{
				"type": "unocc",
				"energy": -0.00116,
				"method": "rhf"
			},
			{
				"type": "unocc",
				"energy": 0.06431,
				"method": "rhf"
			},
			{
				"type": "unocc",
				"energy": 0.1081,
				"method": "rhf"
			}
		],
		"cosmo_sigma_profile": { 
			"-0.025": 0.0,
			"-0.024": 0.0,
			"-0.023": 0.0,
			"-0.022": 0.0,
			"-0.021": 0.0,
			"-0.02": 0.0,
			"-0.019": 0.0,
			"-0.018": 0.0,
			"-0.017": 0.0,
			"-0.016": 0.0,
			"-0.015": 0.0,
			"-0.014": 0.718133151764,
			"-0.013": 2.50731154547,
			"-0.012": 2.09935156255,
			"-0.011": 3.12595014645,
			"-0.01": 2.48066540092,
			"-0.009": 2.82678912468,
			"-0.008": 4.19879684357,
			"-0.007": 4.69187878012,
			"-0.006": 3.67255521961,
			"-0.005": 4.67574004305,
			"-0.004": 6.25782141451,
			"-0.003": 7.27379483698,
			"-0.002": 8.75294548138,
			"-0.001": 12.7495088935,
			"0.0": 18.6124935275,
			"0.001": 26.1850431132,
			"0.002": 31.4034407479,
			"0.003": 34.5868505656,
			"0.004": 20.3911726825,
			"0.005": 4.62757498434,
			"0.006": 0.829461205778,
			"0.007": 0.526936544373,
			"0.008": 0.783518880219,
			"0.009": 0.642493773495,
			"0.01": 0.389597509409,
			"0.011": 0.788194738227,
			"0.012": 0.553491070835,
			"0.013": 0.0874503690046,
			"0.014": 0.0,
			"0.015": 0.0,
			"0.016": 0.0,
			"0.017": 0.0,
			"0.018": 0.0,
			"0.019": 0.0,
			"0.02": 0.0,
			"0.021": 0.0,
			"0.022": 0.0,
			"0.023": 0.0,
			"0.024": 0.0,
			"0.025": 0.0
		}
	}
}
