{
	 "smiles": "COC1=CC(C2=CSC(N)=N2)=C(OC)C=C1", 
	 "Tm": 387.15, 
	 "num_atms": 28, 
	 "gaussian": { 
		 "optdone": 1, 
		 "sigma_profile": "yes", 
		 "theory": "DFT", 
		 "functional": "B3LYP", 
		 "basiset": "6-31G**", 
		 "properties": { 
			 "R2extent": 4955.4901, 
			 "electric_dipole_moment_norm": 1.51051985091, 
			 "electric_quadrupole_moment_norm": 23.7946374227, 
			 "total_energy": -1084.51466032, 
			 "HOMO_LUMO_gap": 0.16497, 
			 "cosmo_polarized_energy": -14.12, 
			 "cosmo_cavitation_energy": 33.31, 
			 "cosmo_dispersion_energy": -25.01, 
			 "cosmo_repulsion_energy": 1.91, 
			 "cosmo_total_nonelectrostatic_energy": 10.21, 
			 "SMD_solvation_energy": 5.88 
		},
		"coords": [
			{
				"x": -1.2471591609,
				"y": 3.9696820774,
				"z": 1.5304545345,
				"element": "C" 
			},
			{
				"x": -1.7478138293,
				"y": 3.6703656244,
				"z": 0.2394798628,
				"element": "O" 
			},
			{
				"x": -1.2408469866,
				"y": 2.5734439756,
				"z": -0.4068830121,
				"element": "C" 
			},
			{
				"x": -0.2673995196,
				"y": 1.725479418,
				"z": 0.1194194362,
				"element": "C" 
			},
			{
				"x": 0.2114476695,
				"y": 0.6142438445,
				"z": -0.599348846,
				"element": "C" 
			},
			{
				"x": 1.2446721773,
				"y": -0.225847338,
				"z": 0.039310172,
				"element": "C" 
			},
			{
				"x": 1.8637603505,
				"y": -1.3375612275,
				"z": -0.4693494491,
				"element": "C" 
			},
			{
				"x": 3.0244874455,
				"y": -1.9740512255,
				"z": 0.6682023432,
				"element": "S" 
			},
			{
				"x": 2.5642121619,
				"y": -0.6774540932,
				"z": 1.7778809107,
				"element": "C" 
			},
			{
				"x": 3.2001380024,
				"y": -0.5212608291,
				"z": 2.9927047386,
				"element": "N" 
			},
			{
				"x": 1.6557583064,
				"y": 0.128264501,
				"z": 1.324555774,
				"element": "N" 
			},
			{
				"x": -0.3227167092,
				"y": 0.3699946256,
				"z": -1.8855225595,
				"element": "C" 
			},
			{
				"x": 0.1554388486,
				"y": -0.7179569951,
				"z": -2.5721033981,
				"element": "O" 
			},
			{
				"x": -0.3595701528,
				"y": -0.9857044871,
				"z": -3.8647076464,
				"element": "C" 
			},
			{
				"x": -1.3005387608,
				"y": 1.2250362797,
				"z": -2.4078303861,
				"element": "C" 
			},
			{
				"x": -1.7588566447,
				"y": 2.3180423092,
				"z": -1.6795303714,
				"element": "C" 
			},
			{
				"x": -1.7739059924,
				"y": 4.8677546656,
				"z": 1.8584743379,
				"element": "H" 
			},
			{
				"x": -0.1678513897,
				"y": 4.1709823444,
				"z": 1.5126006904,
				"element": "H" 
			},
			{
				"x": -1.4431485655,
				"y": 3.1568117294,
				"z": 2.2423162822,
				"element": "H" 
			},
			{
				"x": 0.1566000411,
				"y": 1.8909210235,
				"z": 1.1000672891,
				"element": "H" 
			},
			{
				"x": 1.7101811872,
				"y": -1.8131926,
				"z": -1.4213577183,
				"element": "H" 
			},
			{
				"x": 3.4938425158,
				"y": -1.3690915848,
				"z": 3.4572738045,
				"element": "H" 
			},
			{
				"x": 2.7145305054,
				"y": 0.1239638898,
				"z": 3.6026482057,
				"element": "H" 
			},
			{
				"x": -1.439556429,
				"y": -1.1806320802,
				"z": -3.8399208687,
				"element": "H" 
			},
			{
				"x": 0.1567037565,
				"y": -1.8811200235,
				"z": -4.2154531092,
				"element": "H" 
			},
			{
				"x": -0.1603753053,
				"y": -0.160652508,
				"z": -4.5607910841,
				"element": "H" 
			},
			{
				"x": -1.7147379217,
				"y": 1.0449415389,
				"z": -3.3921755282,
				"element": "H" 
			},
			{
				"x": -2.5161956006,
				"y": 2.9805971453,
				"z": -2.0851144047,
				"element": "H" 
			}
		],
		 "valence_orbital": [ 
			{
				"type": "occ",
				"energy": -0.27253,
				"method": "rhf"
			},
			{
				"type": "occ",
				"energy": -0.26631,
				"method": "rhf"
			},
			{
				"type": "occ",
				"energy": -0.24205,
				"method": "rhf"
			},
			{
				"type": "occ",
				"energy": -0.20669,
				"method": "rhf"
			},
			{
				"type": "occ",
				"energy": -0.18466,
				"method": "rhf"
			},
			{
				"type": "unocc",
				"energy": -0.01969,
				"method": "rhf"
			},
			{
				"type": "unocc",
				"energy": 0.01269,
				"method": "rhf"
			},
			{
				"type": "unocc",
				"energy": 0.01915,
				"method": "rhf"
			},
			{
				"type": "unocc",
				"energy": 0.03609,
				"method": "rhf"
			},
			{
				"type": "unocc",
				"energy": 0.07543,
				"method": "rhf"
			}
		],
		"cosmo_sigma_profile": { 
			"-0.025": 0.0,
			"-0.024": 0.0,
			"-0.023": 0.0,
			"-0.022": 0.0,
			"-0.021": 0.0,
			"-0.02": 0.0,
			"-0.019": 0.0,
			"-0.018": 0.0,
			"-0.017": 0.0,
			"-0.016": 0.0,
			"-0.015": 0.244625098093,
			"-0.014": 1.67953534356,
			"-0.013": 2.39791530711,
			"-0.012": 2.45156491465,
			"-0.011": 2.97726762361,
			"-0.01": 2.82126659316,
			"-0.009": 1.47481670871,
			"-0.008": 2.12904743687,
			"-0.007": 2.43795208163,
			"-0.006": 11.1080756476,
			"-0.005": 21.0535098439,
			"-0.004": 24.3068073313,
			"-0.003": 25.1719730564,
			"-0.002": 14.0920386273,
			"-0.001": 13.1462751807,
			"0.0": 9.91340511544,
			"0.001": 11.9284042554,
			"0.002": 16.2889454555,
			"0.003": 17.7497828023,
			"0.004": 28.2116743113,
			"0.005": 25.6448438489,
			"0.006": 9.97240187935,
			"0.007": 5.63833647484,
			"0.008": 4.11542716314,
			"0.009": 3.8853781439,
			"0.01": 3.98203298664,
			"0.011": 2.388781879,
			"0.012": 0.455206456118,
			"0.013": 0.0252199526964,
			"0.014": 0.0,
			"0.015": 0.0,
			"0.016": 0.0,
			"0.017": 0.0,
			"0.018": 0.0,
			"0.019": 0.0,
			"0.02": 0.0,
			"0.021": 0.0,
			"0.022": 0.0,
			"0.023": 0.0,
			"0.024": 0.0,
			"0.025": 0.0
		}
	}
}
