{
	 "smiles": "CC1=C(Br)C=C(NC(=O)CCl)C=C1", 
	 "Tm": 453.15, 
	 "num_atms": 22, 
	 "gaussian": { 
		 "optdone": 1, 
		 "sigma_profile": "yes", 
		 "theory": "DFT", 
		 "functional": "B3LYP", 
		 "basiset": "6-31G**", 
		 "properties": { 
			 "R2extent": 6961.2468, 
			 "electric_dipole_moment_norm": 3.33161995131, 
			 "electric_quadrupole_moment_norm": 12.7500905291, 
			 "total_energy": -3509.97068077, 
			 "HOMO_LUMO_gap": 0.19883, 
			 "cosmo_polarized_energy": -12.01, 
			 "cosmo_cavitation_energy": 29.99, 
			 "cosmo_dispersion_energy": -22.13, 
			 "cosmo_repulsion_energy": 1.76, 
			 "cosmo_total_nonelectrostatic_energy": 9.62, 
			 "SMD_solvation_energy": 4.5 
		},
		"coords": [
			{
				"x": -3.0659912539,
				"y": -0.5862143406,
				"z": 2.8200036551,
				"element": "C" 
			},
			{
				"x": -2.1027948278,
				"y": 0.3112569431,
				"z": 2.0886993988,
				"element": "C" 
			},
			{
				"x": -2.4710263463,
				"y": 1.5651482101,
				"z": 1.5775652549,
				"element": "C" 
			},
			{
				"x": -4.2664725918,
				"y": 2.1967312865,
				"z": 1.79491289,
				"element": "Br" 
			},
			{
				"x": -1.5795047259,
				"y": 2.384641203,
				"z": 0.8936098811,
				"element": "C" 
			},
			{
				"x": -0.2518579535,
				"y": 1.9738626512,
				"z": 0.7122909683,
				"element": "C" 
			},
			{
				"x": 0.6360754102,
				"y": 2.8566623009,
				"z": 0.0489336201,
				"element": "N" 
			},
			{
				"x": 1.5852064432,
				"y": 2.6434671329,
				"z": -0.9294855172,
				"element": "C" 
			},
			{
				"x": 2.2333004067,
				"y": 3.5730274768,
				"z": -1.3813512716,
				"element": "O" 
			},
			{
				"x": 1.7653528651,
				"y": 1.2274565747,
				"z": -1.4697744909,
				"element": "C" 
			},
			{
				"x": 3.1919715263,
				"y": 0.4126383691,
				"z": -0.6999230312,
				"element": "Cl" 
			},
			{
				"x": 0.1560155305,
				"y": 0.7412449529,
				"z": 1.2345714906,
				"element": "C" 
			},
			{
				"x": -0.7688579583,
				"y": -0.0691842358,
				"z": 1.8902398493,
				"element": "C" 
			},
			{
				"x": -3.9187799317,
				"y": -0.8544019852,
				"z": 2.1871684887,
				"element": "H" 
			},
			{
				"x": -2.5706952449,
				"y": -1.5072123445,
				"z": 3.1367658041,
				"element": "H" 
			},
			{
				"x": -3.4751419431,
				"y": -0.0922987858,
				"z": 3.7077314646,
				"element": "H" 
			},
			{
				"x": -1.9148000067,
				"y": 3.3352838439,
				"z": 0.4938044313,
				"element": "H" 
			},
			{
				"x": 0.5197702639,
				"y": 3.8455813785,
				"z": 0.2377134211,
				"element": "H" 
			},
			{
				"x": 0.9017412721,
				"y": 0.5831261424,
				"z": -1.311227,
				"element": "H" 
			},
			{
				"x": 1.9954433748,
				"y": 1.3137798894,
				"z": -2.530253707,
				"element": "H" 
			},
			{
				"x": 1.1899368686,
				"y": 0.4266458184,
				"z": 1.1512129311,
				"element": "H" 
			},
			{
				"x": -0.4384911776,
				"y": -1.0256424818,
				"z": 2.2857914688,
				"element": "H" 
			}
		],
		 "valence_orbital": [ 
			{
				"type": "occ",
				"energy": -0.29973,
				"method": "rhf"
			},
			{
				"type": "occ",
				"energy": -0.29594,
				"method": "rhf"
			},
			{
				"type": "occ",
				"energy": -0.26876,
				"method": "rhf"
			},
			{
				"type": "occ",
				"energy": -0.25957,
				"method": "rhf"
			},
			{
				"type": "occ",
				"energy": -0.23953,
				"method": "rhf"
			},
			{
				"type": "unocc",
				"energy": -0.0407,
				"method": "rhf"
			},
			{
				"type": "unocc",
				"energy": -0.02875,
				"method": "rhf"
			},
			{
				"type": "unocc",
				"energy": -0.0135,
				"method": "rhf"
			},
			{
				"type": "unocc",
				"energy": -0.00191,
				"method": "rhf"
			},
			{
				"type": "unocc",
				"energy": 0.05274,
				"method": "rhf"
			}
		],
		"cosmo_sigma_profile": { 
			"-0.025": 0.0,
			"-0.024": 0.0,
			"-0.023": 0.0,
			"-0.022": 0.0,
			"-0.021": 0.0,
			"-0.02": 0.0,
			"-0.019": 0.0,
			"-0.018": 0.0,
			"-0.017": 0.0,
			"-0.016": 0.0035056799249,
			"-0.015": 0.679541566161,
			"-0.014": 1.28704873435,
			"-0.013": 0.941123735274,
			"-0.012": 0.925015583473,
			"-0.011": 1.73741066161,
			"-0.01": 1.08711559101,
			"-0.009": 2.89360012534,
			"-0.008": 4.71401142433,
			"-0.007": 7.60978362007,
			"-0.006": 10.6185676105,
			"-0.005": 10.5057609744,
			"-0.004": 14.3927623798,
			"-0.003": 15.928783693,
			"-0.002": 15.8937917541,
			"-0.001": 20.3969941845,
			"0.0": 20.9997459255,
			"0.001": 18.9980835906,
			"0.002": 22.1168955867,
			"0.003": 21.9560936588,
			"0.004": 17.7077161312,
			"0.005": 12.4084212287,
			"0.006": 3.69325525507,
			"0.007": 1.61495097402,
			"0.008": 0.949471998959,
			"0.009": 1.36817129764,
			"0.01": 2.1299396699,
			"0.011": 1.93428103158,
			"0.012": 4.10235835599,
			"0.013": 4.49989813872,
			"0.014": 0.272030297708,
			"0.015": 0.0,
			"0.016": 0.0,
			"0.017": 0.0,
			"0.018": 0.0,
			"0.019": 0.0,
			"0.02": 0.0,
			"0.021": 0.0,
			"0.022": 0.0,
			"0.023": 0.0,
			"0.024": 0.0,
			"0.025": 0.0
		}
	}
}
