{
	 "smiles": "OC(=O)CNS(=O)(=O)C1=CC(Cl)=C(Cl)C=C1", 
	 "Tm": 401.15, 
	 "num_atms": 23, 
	 "gaussian": { 
		 "optdone": 1, 
		 "sigma_profile": "yes", 
		 "theory": "DFT", 
		 "functional": "B3LYP", 
		 "basiset": "6-31G**", 
		 "properties": { 
			 "R2extent": 7254.5237, 
			 "electric_dipole_moment_norm": 3.63186299026, 
			 "electric_quadrupole_moment_norm": 10.2702724681, 
			 "total_energy": -1983.22120575, 
			 "HOMO_LUMO_gap": 0.20422, 
			 "cosmo_polarized_energy": -18.99, 
			 "cosmo_cavitation_energy": 33.53, 
			 "cosmo_dispersion_energy": -24.33, 
			 "cosmo_repulsion_energy": 1.88, 
			 "cosmo_total_nonelectrostatic_energy": 11.08, 
			 "SMD_solvation_energy": 5.04 
		},
		"coords": [
			{
				"x": 2.3808297304,
				"y": -1.1401561703,
				"z": -3.9088457345,
				"element": "O" 
			},
			{
				"x": 1.0577751073,
				"y": -0.8673312732,
				"z": -3.9340881898,
				"element": "C" 
			},
			{
				"x": 0.4263286348,
				"y": -0.6755628075,
				"z": -4.9449922658,
				"element": "O" 
			},
			{
				"x": 0.4403831417,
				"y": -0.9195414895,
				"z": -2.5393167348,
				"element": "C" 
			},
			{
				"x": 1.3381237928,
				"y": -0.6899190253,
				"z": -1.4093469166,
				"element": "N" 
			},
			{
				"x": 1.8762937794,
				"y": 0.9014871763,
				"z": -1.1601299656,
				"element": "S" 
			},
			{
				"x": 1.7237848899,
				"y": 1.6866192453,
				"z": -2.3898757688,
				"element": "O" 
			},
			{
				"x": 3.1631063915,
				"y": 0.7594398017,
				"z": -0.4768944421,
				"element": "O" 
			},
			{
				"x": 0.6694027143,
				"y": 1.5284889822,
				"z": 0.0126684599,
				"element": "C" 
			},
			{
				"x": -0.2557410876,
				"y": 2.4754325239,
				"z": -0.4156611725,
				"element": "C" 
			},
			{
				"x": -1.1890568185,
				"y": 2.979688838,
				"z": 0.4938650599,
				"element": "C" 
			},
			{
				"x": -2.341471685,
				"y": 4.1628430304,
				"z": -0.0608439013,
				"element": "Cl" 
			},
			{
				"x": -1.1782221048,
				"y": 2.5314013661,
				"z": 1.8226768905,
				"element": "C" 
			},
			{
				"x": -2.3218946663,
				"y": 3.1313022348,
				"z": 2.9904640054,
				"element": "Cl" 
			},
			{
				"x": -0.2318388952,
				"y": 1.5858362321,
				"z": 2.2359519463,
				"element": "C" 
			},
			{
				"x": 0.6973205024,
				"y": 1.0806001987,
				"z": 1.3351867326,
				"element": "C" 
			},
			{
				"x": 2.6970865294,
				"y": -1.0846707674,
				"z": -4.826153674,
				"element": "H" 
			},
			{
				"x": -0.0034650908,
				"y": -1.9143946838,
				"z": -2.4147662384,
				"element": "H" 
			},
			{
				"x": -0.3829635924,
				"y": -0.2038375039,
				"z": -2.5159313385,
				"element": "H" 
			},
			{
				"x": 2.1677309497,
				"y": -1.2801916445,
				"z": -1.4264437798,
				"element": "H" 
			},
			{
				"x": -0.2429799673,
				"y": 2.8272134138,
				"z": -1.440503166,
				"element": "H" 
			},
			{
				"x": -0.2338273415,
				"y": 1.2581665633,
				"z": 3.269340738,
				"element": "H" 
			},
			{
				"x": 1.4387950859,
				"y": 0.3571857588,
				"z": 1.6546394559,
				"element": "H" 
			}
		],
		 "valence_orbital": [ 
			{
				"type": "occ",
				"energy": -0.31715,
				"method": "rhf"
			},
			{
				"type": "occ",
				"energy": -0.31182,
				"method": "rhf"
			},
			{
				"type": "occ",
				"energy": -0.28655,
				"method": "rhf"
			},
			{
				"type": "occ",
				"energy": -0.27796,
				"method": "rhf"
			},
			{
				"type": "occ",
				"energy": -0.26544,
				"method": "rhf"
			},
			{
				"type": "unocc",
				"energy": -0.06122,
				"method": "rhf"
			},
			{
				"type": "unocc",
				"energy": -0.04522,
				"method": "rhf"
			},
			{
				"type": "unocc",
				"energy": -0.01348,
				"method": "rhf"
			},
			{
				"type": "unocc",
				"energy": -0.00447,
				"method": "rhf"
			},
			{
				"type": "unocc",
				"energy": 0.04236,
				"method": "rhf"
			}
		],
		"cosmo_sigma_profile": { 
			"-0.025": 0.0,
			"-0.024": 0.0,
			"-0.023": 0.0,
			"-0.022": 0.0,
			"-0.021": 0.0,
			"-0.02": 0.0,
			"-0.019": 0.447347653056,
			"-0.018": 0.85327807381,
			"-0.017": 1.53111228898,
			"-0.016": 0.315529465154,
			"-0.015": 0.782891271062,
			"-0.014": 1.5401498222,
			"-0.013": 1.33935567444,
			"-0.012": 1.74680238932,
			"-0.011": 1.69338151899,
			"-0.01": 2.26924849854,
			"-0.009": 6.77169051326,
			"-0.008": 9.59398907313,
			"-0.007": 12.0557625957,
			"-0.006": 9.74952836314,
			"-0.005": 9.25676045301,
			"-0.004": 10.8026000999,
			"-0.003": 11.8786137803,
			"-0.002": 18.3418009176,
			"-0.001": 25.9575211331,
			"0.0": 20.3839338786,
			"0.001": 17.041148032,
			"0.002": 17.3688642144,
			"0.003": 21.9179844844,
			"0.004": 14.8260837149,
			"0.005": 8.30906119953,
			"0.006": 5.92951698549,
			"0.007": 4.97199619767,
			"0.008": 5.67399033867,
			"0.009": 7.0029632829,
			"0.01": 10.2647332064,
			"0.011": 9.45665526508,
			"0.012": 2.55304677895,
			"0.013": 0.0398962163545,
			"0.014": 0.0,
			"0.015": 0.0,
			"0.016": 0.0,
			"0.017": 0.0,
			"0.018": 0.0,
			"0.019": 0.0,
			"0.02": 0.0,
			"0.021": 0.0,
			"0.022": 0.0,
			"0.023": 0.0,
			"0.024": 0.0,
			"0.025": 0.0
		}
	}
}
