{
	 "smiles": "CCOC(=O)C1=NOC(=N1)C1=C(N2C=CN=C2)C(F)=CC=C1", 
	 "Tm": 402.15, 
	 "num_atms": 33, 
	 "gaussian": { 
		 "optdone": 1, 
		 "sigma_profile": "yes", 
		 "theory": "DFT", 
		 "functional": "B3LYP", 
		 "basiset": "6-31G**", 
		 "properties": { 
			 "R2extent": 8822.0868, 
			 "electric_dipole_moment_norm": 3.78917358932, 
			 "electric_quadrupole_moment_norm": 33.3370445637, 
			 "total_energy": -1084.57401215, 
			 "HOMO_LUMO_gap": 0.14466, 
			 "cosmo_polarized_energy": -19.47, 
			 "cosmo_cavitation_energy": 40.14, 
			 "cosmo_dispersion_energy": -27.94, 
			 "cosmo_repulsion_energy": 2.12, 
			 "cosmo_total_nonelectrostatic_energy": 14.32, 
			 "SMD_solvation_energy": 6.07 
		},
		"coords": [
			{
				"x": -4.1622635412,
				"y": -0.6974614336,
				"z": 4.7100023591,
				"element": "C" 
			},
			{
				"x": -3.9107294347,
				"y": -1.6035098165,
				"z": 3.5149798017,
				"element": "C" 
			},
			{
				"x": -2.6229877597,
				"y": -1.3228799451,
				"z": 2.9057528707,
				"element": "O" 
			},
			{
				"x": -2.5934837264,
				"y": -0.332697483,
				"z": 2.0038985186,
				"element": "C" 
			},
			{
				"x": -3.5367615979,
				"y": 0.3365474312,
				"z": 1.6479749797,
				"element": "O" 
			},
			{
				"x": -1.2111165788,
				"y": -0.14029179,
				"z": 1.4592294629,
				"element": "C" 
			},
			{
				"x": -0.1759114353,
				"y": -0.8442903585,
				"z": 1.8600368051,
				"element": "N" 
			},
			{
				"x": 0.869538962,
				"y": -0.3260731388,
				"z": 1.0988653103,
				"element": "O" 
			},
			{
				"x": 0.3455952977,
				"y": 0.6400126923,
				"z": 0.3135943955,
				"element": "C" 
			},
			{
				"x": -0.9380938119,
				"y": 0.7962933726,
				"z": 0.4984196244,
				"element": "N" 
			},
			{
				"x": 1.1901204022,
				"y": 1.4295616812,
				"z": -0.5891920393,
				"element": "C" 
			},
			{
				"x": 2.5157845464,
				"y": 1.0852891406,
				"z": -0.9330313097,
				"element": "C" 
			},
			{
				"x": 3.1506648665,
				"y": -0.1114475207,
				"z": -0.5152226673,
				"element": "N" 
			},
			{
				"x": 2.8552897706,
				"y": -1.4044011298,
				"z": -0.9309460652,
				"element": "C" 
			},
			{
				"x": 3.7777023023,
				"y": -2.2043840052,
				"z": -0.3132108164,
				"element": "C" 
			},
			{
				"x": 4.6347090855,
				"y": -1.455250604,
				"z": 0.4667661769,
				"element": "N" 
			},
			{
				"x": 4.2417198562,
				"y": -0.2147959283,
				"z": 0.3211629962,
				"element": "C" 
			},
			{
				"x": 3.2320008457,
				"y": 1.9657600572,
				"z": -1.753342488,
				"element": "C" 
			},
			{
				"x": 4.4946917318,
				"y": 1.6495382797,
				"z": -2.080221897,
				"element": "F" 
			},
			{
				"x": 2.6839437852,
				"y": 3.1415845888,
				"z": -2.2476562725,
				"element": "C" 
			},
			{
				"x": 1.3641054337,
				"y": 3.4546862937,
				"z": -1.9232026374,
				"element": "C" 
			},
			{
				"x": 0.6239979134,
				"y": 2.6088559625,
				"z": -1.1041335457,
				"element": "C" 
			},
			{
				"x": -5.100020808,
				"y": -0.983720251,
				"z": 5.1974512322,
				"element": "H" 
			},
			{
				"x": -4.2457864111,
				"y": 0.3453216138,
				"z": 4.3941638084,
				"element": "H" 
			},
			{
				"x": -3.3537166877,
				"y": -0.7846127854,
				"z": 5.4412509762,
				"element": "H" 
			},
			{
				"x": -3.8398972899,
				"y": -2.6520466541,
				"z": 3.8109907471,
				"element": "H" 
			},
			{
				"x": -4.6889091854,
				"y": -1.4889386974,
				"z": 2.7568218259,
				"element": "H" 
			},
			{
				"x": 2.0412800123,
				"y": -1.6078540113,
				"z": -1.6089747196,
				"element": "H" 
			},
			{
				"x": 3.8756740943,
				"y": -3.2785838526,
				"z": -0.3854456569,
				"element": "H" 
			},
			{
				"x": 4.6804116869,
				"y": 0.6571369231,
				"z": 0.7863501629,
				"element": "H" 
			},
			{
				"x": 3.2900529391,
				"y": 3.7788846899,
				"z": -2.8819928808,
				"element": "H" 
			},
			{
				"x": 0.9155990644,
				"y": 4.3654481591,
				"z": -2.3059625294,
				"element": "H" 
			},
			{
				"x": -0.3982043282,
				"y": 2.8468185194,
				"z": -0.8345765286,
				"element": "H" 
			}
		],
		 "valence_orbital": [ 
			{
				"type": "occ",
				"energy": -0.29137,
				"method": "rhf"
			},
			{
				"type": "occ",
				"energy": -0.27144,
				"method": "rhf"
			},
			{
				"type": "occ",
				"energy": -0.26999,
				"method": "rhf"
			},
			{
				"type": "occ",
				"energy": -0.26039,
				"method": "rhf"
			},
			{
				"type": "occ",
				"energy": -0.22939,
				"method": "rhf"
			},
			{
				"type": "unocc",
				"energy": -0.08473,
				"method": "rhf"
			},
			{
				"type": "unocc",
				"energy": -0.0539,
				"method": "rhf"
			},
			{
				"type": "unocc",
				"energy": -0.03541,
				"method": "rhf"
			},
			{
				"type": "unocc",
				"energy": 0.02221,
				"method": "rhf"
			},
			{
				"type": "unocc",
				"energy": 0.02477,
				"method": "rhf"
			}
		],
		"cosmo_sigma_profile": { 
			"-0.025": 0.0,
			"-0.024": 0.0,
			"-0.023": 0.0,
			"-0.022": 0.0,
			"-0.021": 0.0,
			"-0.02": 0.0,
			"-0.019": 0.0,
			"-0.018": 0.0,
			"-0.017": 0.0,
			"-0.016": 0.0,
			"-0.015": 0.0,
			"-0.014": 0.0,
			"-0.013": 0.0,
			"-0.012": 0.0,
			"-0.011": 0.0,
			"-0.01": 0.51512838868,
			"-0.009": 5.1269816079,
			"-0.008": 8.9213579446,
			"-0.007": 12.98132099,
			"-0.006": 18.2201978849,
			"-0.005": 22.7433897313,
			"-0.004": 29.1396385518,
			"-0.003": 24.6286182511,
			"-0.002": 25.9483611726,
			"-0.001": 26.0492336688,
			"0.0": 22.8844942038,
			"0.001": 17.462161395,
			"0.002": 14.6075733451,
			"0.003": 19.3120048087,
			"0.004": 11.3953276512,
			"0.005": 11.0817553913,
			"0.006": 7.78871486145,
			"0.007": 7.17522234681,
			"0.008": 6.1749487295,
			"0.009": 5.98696421415,
			"0.01": 7.17091324443,
			"0.011": 6.68328565945,
			"0.012": 4.60605525172,
			"0.013": 2.21218172872,
			"0.014": 1.47041727953,
			"0.015": 0.794972743434,
			"0.016": 1.00298239317,
			"0.017": 1.14933108051,
			"0.018": 0.177649053472,
			"0.019": 0.0,
			"0.02": 0.0,
			"0.021": 0.0,
			"0.022": 0.0,
			"0.023": 0.0,
			"0.024": 0.0,
			"0.025": 0.0
		}
	}
}
