{
	 "smiles": "COC(=O)C(C(=O)OC)=C1SC2=C(N1C1=CC=CC=C1)C(=O)C1=CC=CC=C1C2=O", 
	 "Tm": 512.15, 
	 "num_atms": 45, 
	 "gaussian": { 
		 "optdone": 1, 
		 "sigma_profile": "yes", 
		 "theory": "DFT", 
		 "functional": "B3LYP", 
		 "basiset": "6-31G**", 
		 "properties": { 
			 "R2extent": 12910.8488, 
			 "electric_dipole_moment_norm": 4.72841847344, 
			 "electric_quadrupole_moment_norm": 13.0330650927, 
			 "total_energy": -1751.6479393, 
			 "HOMO_LUMO_gap": 0.08743, 
			 "cosmo_polarized_energy": -21.33, 
			 "cosmo_cavitation_energy": 51.78, 
			 "cosmo_dispersion_energy": -34.92, 
			 "cosmo_repulsion_energy": 2.55, 
			 "cosmo_total_nonelectrostatic_energy": 19.41, 
			 "SMD_solvation_energy": 11.71 
		},
		"coords": [
			{
				"x": 3.5799264808,
				"y": -2.1456860924,
				"z": -2.0877278462,
				"element": "C" 
			},
			{
				"x": 3.0174286397,
				"y": -1.7721096578,
				"z": -0.819527325,
				"element": "O" 
			},
			{
				"x": 2.5941429116,
				"y": -0.4994236612,
				"z": -0.7326888282,
				"element": "C" 
			},
			{
				"x": 2.5883019937,
				"y": 0.2777225225,
				"z": -1.6646465352,
				"element": "O" 
			},
			{
				"x": 2.1801513934,
				"y": -0.1493250036,
				"z": 0.6687268212,
				"element": "C" 
			},
			{
				"x": 3.3166850369,
				"y": -0.1425819813,
				"z": 1.5975725861,
				"element": "C" 
			},
			{
				"x": 4.4695381942,
				"y": -0.3742539923,
				"z": 1.280395576,
				"element": "O" 
			},
			{
				"x": 2.9619961398,
				"y": 0.1700665693,
				"z": 2.8744100031,
				"element": "O" 
			},
			{
				"x": 4.0450085653,
				"y": 0.2565108071,
				"z": 3.8130860402,
				"element": "C" 
			},
			{
				"x": 0.9226860638,
				"y": 0.3057505984,
				"z": 0.9832811038,
				"element": "C" 
			},
			{
				"x": 0.4927323382,
				"y": 1.0991364837,
				"z": 2.5239237017,
				"element": "S" 
			},
			{
				"x": -1.1239073905,
				"y": 1.3868755271,
				"z": 1.9363154602,
				"element": "C" 
			},
			{
				"x": -1.3331912786,
				"y": 0.8723719572,
				"z": 0.6925743638,
				"element": "C" 
			},
			{
				"x": -0.2134586073,
				"y": 0.241477472,
				"z": 0.157035905,
				"element": "N" 
			},
			{
				"x": -0.3011934456,
				"y": -0.6838472007,
				"z": -0.9580428507,
				"element": "C" 
			},
			{
				"x": -0.2891338274,
				"y": -0.2145313025,
				"z": -2.2705365435,
				"element": "C" 
			},
			{
				"x": -0.408382712,
				"y": -1.1239559943,
				"z": -3.3185076103,
				"element": "C" 
			},
			{
				"x": -0.5284765461,
				"y": -2.4912872052,
				"z": -3.0547544127,
				"element": "C" 
			},
			{
				"x": -0.5262166826,
				"y": -2.9526901585,
				"z": -1.7377045173,
				"element": "C" 
			},
			{
				"x": -0.413489325,
				"y": -2.0470185383,
				"z": -0.6818446119,
				"element": "C" 
			},
			{
				"x": -2.6534638974,
				"y": 1.0159700261,
				"z": 0.018052868,
				"element": "C" 
			},
			{
				"x": -2.8689754025,
				"y": 0.6176167759,
				"z": -1.1181385438,
				"element": "O" 
			},
			{
				"x": -3.7194518287,
				"y": 1.6996627454,
				"z": 0.819086097,
				"element": "C" 
			},
			{
				"x": -4.986455217,
				"y": 1.8435366479,
				"z": 0.2460866534,
				"element": "C" 
			},
			{
				"x": -6.0072219574,
				"y": 2.4790282058,
				"z": 0.9533734975,
				"element": "C" 
			},
			{
				"x": -5.7680925319,
				"y": 2.9764608712,
				"z": 2.2373747189,
				"element": "C" 
			},
			{
				"x": -4.5063031084,
				"y": 2.838946571,
				"z": 2.8163168621,
				"element": "C" 
			},
			{
				"x": -3.4808609189,
				"y": 2.2028025861,
				"z": 2.1136509826,
				"element": "C" 
			},
			{
				"x": -2.1388178046,
				"y": 2.0607298456,
				"z": 2.7488493187,
				"element": "C" 
			},
			{
				"x": -1.8908740295,
				"y": 2.4665186993,
				"z": 3.8803674154,
				"element": "O" 
			},
			{
				"x": 2.8317341072,
				"y": -2.0599319977,
				"z": -2.8792073824,
				"element": "H" 
			},
			{
				"x": 3.899548798,
				"y": -3.1813119519,
				"z": -1.9719117719,
				"element": "H" 
			},
			{
				"x": 4.4330170202,
				"y": -1.5068083071,
				"z": -2.3286550177,
				"element": "H" 
			},
			{
				"x": 4.7758592037,
				"y": 1.0013749934,
				"z": 3.4895829589,
				"element": "H" 
			},
			{
				"x": 4.5447243942,
				"y": -0.7105221543,
				"z": 3.9079121875,
				"element": "H" 
			},
			{
				"x": 3.5900213041,
				"y": 0.5481534541,
				"z": 4.7596145628,
				"element": "H" 
			},
			{
				"x": -0.1802445146,
				"y": 0.846170471,
				"z": -2.4599950767,
				"element": "H" 
			},
			{
				"x": -0.4049054831,
				"y": -0.7637036302,
				"z": -4.342445996,
				"element": "H" 
			},
			{
				"x": -0.6221732962,
				"y": -3.1957451776,
				"z": -3.8760825574,
				"element": "H" 
			},
			{
				"x": -0.6165573998,
				"y": -4.0140112718,
				"z": -1.5278320874,
				"element": "H" 
			},
			{
				"x": -0.4107703492,
				"y": -2.3916117455,
				"z": 0.3474245089,
				"element": "H" 
			},
			{
				"x": -5.1493264644,
				"y": 1.4517790758,
				"z": -0.752145947,
				"element": "H" 
			},
			{
				"x": -6.9892965144,
				"y": 2.5868491149,
				"z": 0.5028267425,
				"element": "H" 
			},
			{
				"x": -6.563957416,
				"y": 3.4712414442,
				"z": 2.7859490471,
				"element": "H" 
			},
			{
				"x": -4.2923046358,
				"y": 3.2158035591,
				"z": 3.8109054787,
				"element": "H" 
			}
		],
		 "valence_orbital": [ 
			{
				"type": "occ",
				"energy": -0.2678,
				"method": "rhf"
			},
			{
				"type": "occ",
				"energy": -0.26532,
				"method": "rhf"
			},
			{
				"type": "occ",
				"energy": -0.26162,
				"method": "rhf"
			},
			{
				"type": "occ",
				"energy": -0.25166,
				"method": "rhf"
			},
			{
				"type": "occ",
				"energy": -0.20777,
				"method": "rhf"
			},
			{
				"type": "unocc",
				"energy": -0.12034,
				"method": "rhf"
			},
			{
				"type": "unocc",
				"energy": -0.05213,
				"method": "rhf"
			},
			{
				"type": "unocc",
				"energy": -0.03653,
				"method": "rhf"
			},
			{
				"type": "unocc",
				"energy": -0.02605,
				"method": "rhf"
			},
			{
				"type": "unocc",
				"energy": -0.02142,
				"method": "rhf"
			}
		],
		"cosmo_sigma_profile": { 
			"-0.025": 0.0,
			"-0.024": 0.0,
			"-0.023": 0.0,
			"-0.022": 0.0,
			"-0.021": 0.0,
			"-0.02": 0.0,
			"-0.019": 0.0,
			"-0.018": 0.0,
			"-0.017": 0.0,
			"-0.016": 0.0,
			"-0.015": 0.0,
			"-0.014": 0.0,
			"-0.013": 0.0,
			"-0.012": 0.0,
			"-0.011": 0.0,
			"-0.01": 0.0,
			"-0.009": 0.0,
			"-0.008": 1.52699163621,
			"-0.007": 15.8807638664,
			"-0.006": 32.952109099,
			"-0.005": 35.5909136925,
			"-0.004": 38.7202822247,
			"-0.003": 33.2779425221,
			"-0.002": 26.981691472,
			"-0.001": 27.3735092767,
			"0.0": 32.8912373533,
			"0.001": 36.7761078925,
			"0.002": 30.0807779309,
			"0.003": 16.5854108074,
			"0.004": 13.6619371462,
			"0.005": 10.794173891,
			"0.006": 9.69193996298,
			"0.007": 7.93346313242,
			"0.008": 8.805343529,
			"0.009": 9.19888791231,
			"0.01": 10.7745873024,
			"0.011": 8.67989530231,
			"0.012": 7.74007148726,
			"0.013": 1.83895525155,
			"0.014": 0.0,
			"0.015": 0.0,
			"0.016": 0.0,
			"0.017": 0.0,
			"0.018": 0.0,
			"0.019": 0.0,
			"0.02": 0.0,
			"0.021": 0.0,
			"0.022": 0.0,
			"0.023": 0.0,
			"0.024": 0.0,
			"0.025": 0.0
		}
	}
}
