{
	 "smiles": "COC(=O)C1=CC=C(C=C1)N1CCCC1", 
	 "Tm": 415.15, 
	 "num_atms": 30, 
	 "gaussian": { 
		 "optdone": 1, 
		 "sigma_profile": "yes", 
		 "theory": "DFT", 
		 "functional": "B3LYP", 
		 "basiset": "6-31G**", 
		 "properties": { 
			 "R2extent": 5022.2236, 
			 "electric_dipole_moment_norm": 4.69585464958, 
			 "electric_quadrupole_moment_norm": 19.1467962156, 
			 "total_energy": -671.534877376, 
			 "HOMO_LUMO_gap": 0.1722, 
			 "cosmo_polarized_energy": -10.56, 
			 "cosmo_cavitation_energy": 32.32, 
			 "cosmo_dispersion_energy": -24.04, 
			 "cosmo_repulsion_energy": 1.88, 
			 "cosmo_total_nonelectrostatic_energy": 10.15, 
			 "SMD_solvation_energy": 5.71 
		},
		"coords": [
			{
				"x": 4.1095431234,
				"y": 2.6617115969,
				"z": -0.7304711872,
				"element": "C" 
			},
			{
				"x": 3.0358741464,
				"y": 1.7426661902,
				"z": -0.4983818627,
				"element": "O" 
			},
			{
				"x": 1.7890842776,
				"y": 2.2605492729,
				"z": -0.6666980321,
				"element": "C" 
			},
			{
				"x": 1.6033198271,
				"y": 3.4207857604,
				"z": -0.9903445925,
				"element": "O" 
			},
			{
				"x": 0.7238832519,
				"y": 1.2687816739,
				"z": -0.4150366557,
				"element": "C" 
			},
			{
				"x": -0.6131191455,
				"y": 1.6738488225,
				"z": -0.5515848439,
				"element": "C" 
			},
			{
				"x": -1.6582591965,
				"y": 0.7928817753,
				"z": -0.3288155062,
				"element": "C" 
			},
			{
				"x": -1.4039998219,
				"y": -0.5512420439,
				"z": 0.0440265828,
				"element": "C" 
			},
			{
				"x": -0.0521565298,
				"y": -0.9552853309,
				"z": 0.1795741019,
				"element": "C" 
			},
			{
				"x": 0.9828978212,
				"y": -0.0605371947,
				"z": -0.0453863449,
				"element": "C" 
			},
			{
				"x": -2.4327148559,
				"y": -1.4317035174,
				"z": 0.2661983106,
				"element": "N" 
			},
			{
				"x": -3.8415661383,
				"y": -1.1087899014,
				"z": 0.0384469194,
				"element": "C" 
			},
			{
				"x": -4.5470772732,
				"y": -2.469353729,
				"z": 0.1376445113,
				"element": "C" 
			},
			{
				"x": -3.6632763114,
				"y": -3.2540087798,
				"z": 1.1200278413,
				"element": "C" 
			},
			{
				"x": -2.2424692431,
				"y": -2.7961797394,
				"z": 0.7586368598,
				"element": "C" 
			},
			{
				"x": 5.0258545471,
				"y": 2.0966133841,
				"z": -0.5559752721,
				"element": "H" 
			},
			{
				"x": 4.0488829387,
				"y": 3.511936693,
				"z": -0.0456693176,
				"element": "H" 
			},
			{
				"x": 4.083396423,
				"y": 3.0397503962,
				"z": -1.7561072687,
				"element": "H" 
			},
			{
				"x": -0.8129881784,
				"y": 2.7024789668,
				"z": -0.8337322437,
				"element": "H" 
			},
			{
				"x": -2.678663778,
				"y": 1.1437614698,
				"z": -0.4306708483,
				"element": "H" 
			},
			{
				"x": 0.182861201,
				"y": -1.978069036,
				"z": 0.4505896649,
				"element": "H" 
			},
			{
				"x": 2.0098336584,
				"y": -0.3921077238,
				"z": 0.0611457922,
				"element": "H" 
			},
			{
				"x": -3.9842859632,
				"y": -0.639311334,
				"z": -0.942126052,
				"element": "H" 
			},
			{
				"x": -4.2168699274,
				"y": -0.4048366793,
				"z": 0.7978758968,
				"element": "H" 
			},
			{
				"x": -5.5851908884,
				"y": -2.3775783951,
				"z": 0.467594088,
				"element": "H" 
			},
			{
				"x": -4.5487737315,
				"y": -2.9597853546,
				"z": -0.8422335353,
				"element": "H" 
			},
			{
				"x": -3.7848479132,
				"y": -4.3375359213,
				"z": 1.0413585012,
				"element": "H" 
			},
			{
				"x": -3.8964251997,
				"y": -2.9643832321,
				"z": 2.150775413,
				"element": "H" 
			},
			{
				"x": -1.7969873997,
				"y": -3.4408121082,
				"z": -0.0154900557,
				"element": "H" 
			},
			{
				"x": -1.5699597205,
				"y": -2.8120459812,
				"z": 1.6246291352,
				"element": "H" 
			}
		],
		 "valence_orbital": [ 
			{
				"type": "occ",
				"energy": -0.28529,
				"method": "rhf"
			},
			{
				"type": "occ",
				"energy": -0.28185,
				"method": "rhf"
			},
			{
				"type": "occ",
				"energy": -0.25469,
				"method": "rhf"
			},
			{
				"type": "occ",
				"energy": -0.24623,
				"method": "rhf"
			},
			{
				"type": "occ",
				"energy": -0.19214,
				"method": "rhf"
			},
			{
				"type": "unocc",
				"energy": -0.01994,
				"method": "rhf"
			},
			{
				"type": "unocc",
				"energy": 0.00599,
				"method": "rhf"
			},
			{
				"type": "unocc",
				"energy": 0.07382,
				"method": "rhf"
			},
			{
				"type": "unocc",
				"energy": 0.07788,
				"method": "rhf"
			},
			{
				"type": "unocc",
				"energy": 0.10476,
				"method": "rhf"
			}
		],
		"cosmo_sigma_profile": { 
			"-0.025": 0.0,
			"-0.024": 0.0,
			"-0.023": 0.0,
			"-0.022": 0.0,
			"-0.021": 0.0,
			"-0.02": 0.0,
			"-0.019": 0.0,
			"-0.018": 0.0,
			"-0.017": 0.0,
			"-0.016": 0.0,
			"-0.015": 0.0,
			"-0.014": 0.0,
			"-0.013": 0.0,
			"-0.012": 0.0,
			"-0.011": 0.0,
			"-0.01": 0.0,
			"-0.009": 0.0,
			"-0.008": 0.0,
			"-0.007": 0.140443530879,
			"-0.006": 4.12531337933,
			"-0.005": 15.4226319577,
			"-0.004": 28.8610284959,
			"-0.003": 41.4655758303,
			"-0.002": 32.9110821447,
			"-0.001": 23.0046204924,
			"0.0": 19.113046552,
			"0.001": 10.5659682024,
			"0.002": 12.0552937218,
			"0.003": 13.8605237078,
			"0.004": 13.5950706158,
			"0.005": 13.7279128916,
			"0.006": 8.83947826769,
			"0.007": 2.92171512487,
			"0.008": 1.20154872036,
			"0.009": 1.7776321698,
			"0.01": 1.94172784548,
			"0.011": 1.53636011437,
			"0.012": 3.35313167262,
			"0.013": 4.28287432649,
			"0.014": 0.120266942759,
			"0.015": 0.0,
			"0.016": 0.0,
			"0.017": 0.0,
			"0.018": 0.0,
			"0.019": 0.0,
			"0.02": 0.0,
			"0.021": 0.0,
			"0.022": 0.0,
			"0.023": 0.0,
			"0.024": 0.0,
			"0.025": 0.0
		}
	}
}
