{
	 "smiles": "COC(=O)C1=C(O)C=CC(=C1)S(N)(=O)=O", 
	 "Tm": 410.15, 
	 "num_atms": 24, 
	 "gaussian": { 
		 "optdone": 1, 
		 "sigma_profile": "yes", 
		 "theory": "DFT", 
		 "functional": "B3LYP", 
		 "basiset": "6-31G**", 
		 "properties": { 
			 "R2extent": 4112.563, 
			 "electric_dipole_moment_norm": 3.44952591235, 
			 "electric_quadrupole_moment_norm": 19.5667784418, 
			 "total_energy": -1139.2852542, 
			 "HOMO_LUMO_gap": 0.18037, 
			 "cosmo_polarized_energy": -17.43, 
			 "cosmo_cavitation_energy": 30.18, 
			 "cosmo_dispersion_energy": -22.86, 
			 "cosmo_repulsion_energy": 1.75, 
			 "cosmo_total_nonelectrostatic_energy": 9.07, 
			 "SMD_solvation_energy": 6.67 
		},
		"coords": [
			{
				"x": 0.0437697929,
				"y": -2.4702480153,
				"z": -3.5468544223,
				"element": "C" 
			},
			{
				"x": 0.1010141616,
				"y": -1.6064792469,
				"z": -2.3960400054,
				"element": "O" 
			},
			{
				"x": 0.0419114748,
				"y": -2.2121004735,
				"z": -1.2041823936,
				"element": "C" 
			},
			{
				"x": -0.0626859453,
				"y": -3.4361033094,
				"z": -1.0921939428,
				"element": "O" 
			},
			{
				"x": 0.1112189454,
				"y": -1.2935065238,
				"z": -0.0560233495,
				"element": "C" 
			},
			{
				"x": 0.0614899373,
				"y": -1.8399360975,
				"z": 1.2545113676,
				"element": "C" 
			},
			{
				"x": -0.0521272925,
				"y": -3.1502735978,
				"z": 1.4852506566,
				"element": "O" 
			},
			{
				"x": 0.138547243,
				"y": -0.9779650402,
				"z": 2.3669410625,
				"element": "C" 
			},
			{
				"x": 0.2575066758,
				"y": 0.3867852144,
				"z": 2.1866352509,
				"element": "C" 
			},
			{
				"x": 0.2955200701,
				"y": 0.9216011972,
				"z": 0.8863027742,
				"element": "C" 
			},
			{
				"x": 0.2303884804,
				"y": 0.0956711174,
				"z": -0.2237798413,
				"element": "C" 
			},
			{
				"x": 0.4700867175,
				"y": 2.6826216247,
				"z": 0.6608614255,
				"element": "S" 
			},
			{
				"x": -1.0496139795,
				"y": 3.273632325,
				"z": 1.1343616013,
				"element": "N" 
			},
			{
				"x": 0.6635792834,
				"y": 2.9260212013,
				"z": -0.7731531648,
				"element": "O" 
			},
			{
				"x": 1.406186642,
				"y": 3.1951219241,
				"z": 1.6654158598,
				"element": "O" 
			},
			{
				"x": 0.8793814192,
				"y": -3.17353905,
				"z": -3.5375709788,
				"element": "H" 
			},
			{
				"x": 0.107684942,
				"y": -1.8070694943,
				"z": -4.4084645745,
				"element": "H" 
			},
			{
				"x": -0.894234962,
				"y": -3.029824294,
				"z": -3.55770755,
				"element": "H" 
			},
			{
				"x": -0.0859094909,
				"y": -3.598752352,
				"z": 0.6032617543,
				"element": "H" 
			},
			{
				"x": 0.1083370889,
				"y": -1.4181353747,
				"z": 3.3574565015,
				"element": "H" 
			},
			{
				"x": 0.3310807398,
				"y": 1.0483231916,
				"z": 3.0432753116,
				"element": "H" 
			},
			{
				"x": 0.2806565655,
				"y": 0.5191958595,
				"z": -1.2194770882,
				"element": "H" 
			},
			{
				"x": -1.6254713631,
				"y": 3.4565926114,
				"z": 0.3158696683,
				"element": "H" 
			},
			{
				"x": -0.9011171464,
				"y": 4.1257666029,
				"z": 1.6703040772,
				"element": "H" 
			}
		],
		 "valence_orbital": [ 
			{
				"type": "occ",
				"energy": -0.30597,
				"method": "rhf"
			},
			{
				"type": "occ",
				"energy": -0.29968,
				"method": "rhf"
			},
			{
				"type": "occ",
				"energy": -0.29324,
				"method": "rhf"
			},
			{
				"type": "occ",
				"energy": -0.28128,
				"method": "rhf"
			},
			{
				"type": "occ",
				"energy": -0.24566,
				"method": "rhf"
			},
			{
				"type": "unocc",
				"energy": -0.06529,
				"method": "rhf"
			},
			{
				"type": "unocc",
				"energy": -0.02938,
				"method": "rhf"
			},
			{
				"type": "unocc",
				"energy": 0.02607,
				"method": "rhf"
			},
			{
				"type": "unocc",
				"energy": 0.05446,
				"method": "rhf"
			},
			{
				"type": "unocc",
				"energy": 0.08567,
				"method": "rhf"
			}
		],
		"cosmo_sigma_profile": { 
			"-0.025": 0.0,
			"-0.024": 0.0,
			"-0.023": 0.0,
			"-0.022": 0.0,
			"-0.021": 0.0,
			"-0.02": 0.0,
			"-0.019": 0.0,
			"-0.018": 0.0,
			"-0.017": 0.0,
			"-0.016": 0.0,
			"-0.015": 1.12910212237,
			"-0.014": 2.67665809012,
			"-0.013": 2.67151352042,
			"-0.012": 2.78846135321,
			"-0.011": 1.67632673956,
			"-0.01": 2.64890203065,
			"-0.009": 1.79879311369,
			"-0.008": 3.91361737567,
			"-0.007": 8.94314590906,
			"-0.006": 12.2801259365,
			"-0.005": 14.5348415518,
			"-0.004": 18.9594425033,
			"-0.003": 16.182401741,
			"-0.002": 15.0501510222,
			"-0.001": 15.1389504052,
			"0.0": 18.2195791496,
			"0.001": 17.8700375514,
			"0.002": 11.0805589596,
			"0.003": 9.13693644385,
			"0.004": 6.81206489594,
			"0.005": 6.30453871236,
			"0.006": 6.5961933772,
			"0.007": 5.91473105922,
			"0.008": 5.98867159859,
			"0.009": 6.91423226368,
			"0.01": 11.9468969747,
			"0.011": 10.2765433051,
			"0.012": 3.51622466804,
			"0.013": 0.0,
			"0.014": 0.0,
			"0.015": 0.0,
			"0.016": 0.0,
			"0.017": 0.0,
			"0.018": 0.0,
			"0.019": 0.0,
			"0.02": 0.0,
			"0.021": 0.0,
			"0.022": 0.0,
			"0.023": 0.0,
			"0.024": 0.0,
			"0.025": 0.0
		}
	}
}
