{
	 "smiles": "CSC1=NN=C(Cl)C=C1", 
	 "Tm": 378.15, 
	 "num_atms": 14, 
	 "gaussian": { 
		 "optdone": 1, 
		 "sigma_profile": "yes", 
		 "theory": "DFT", 
		 "functional": "B3LYP", 
		 "basiset": "6-31G**", 
		 "properties": { 
			 "R2extent": 2807.4838, 
			 "electric_dipole_moment_norm": 3.0021422851, 
			 "electric_quadrupole_moment_norm": 9.78753387631, 
			 "total_energy": -1161.38382107, 
			 "HOMO_LUMO_gap": 0.17198, 
			 "cosmo_polarized_energy": -9.65, 
			 "cosmo_cavitation_energy": 21.95, 
			 "cosmo_dispersion_energy": -17.09, 
			 "cosmo_repulsion_energy": 1.36, 
			 "cosmo_total_nonelectrostatic_energy": 6.22, 
			 "SMD_solvation_energy": 2.14 
		},
		"coords": [
			{
				"x": 0.0324684126,
				"y": -1.1958722191,
				"z": -2.4318372132,
				"element": "C" 
			},
			{
				"x": -1.497106637,
				"y": -1.8898399457,
				"z": -1.7178854235,
				"element": "S" 
			},
			{
				"x": -1.5280810053,
				"y": -1.1102373639,
				"z": -0.1276724695,
				"element": "C" 
			},
			{
				"x": -0.5426181738,
				"y": -0.2702766699,
				"z": 0.1925148014,
				"element": "N" 
			},
			{
				"x": -0.5409896599,
				"y": 0.3338873464,
				"z": 1.3897013716,
				"element": "N" 
			},
			{
				"x": -1.5197406503,
				"y": 0.08651638,
				"z": 2.2367785651,
				"element": "C" 
			},
			{
				"x": -1.4451585888,
				"y": 0.9145550164,
				"z": 3.7788097754,
				"element": "Cl" 
			},
			{
				"x": -2.593673633,
				"y": -0.7839155785,
				"z": 1.9771120223,
				"element": "C" 
			},
			{
				"x": -2.5962079933,
				"y": -1.4038028871,
				"z": 0.7499360654,
				"element": "C" 
			},
			{
				"x": 0.8953409426,
				"y": -1.4651577387,
				"z": -1.8229653929,
				"element": "H" 
			},
			{
				"x": -0.0376505955,
				"y": -0.1107615268,
				"z": -2.5053815408,
				"element": "H" 
			},
			{
				"x": 0.11591808,
				"y": -1.6393051753,
				"z": -3.426023398,
				"element": "H" 
			},
			{
				"x": -3.3709967969,
				"y": -0.9479452231,
				"z": 2.7143549179,
				"element": "H" 
			},
			{
				"x": -3.3844037014,
				"y": -2.0920444148,
				"z": 0.4612579189,
				"element": "H" 
			}
		],
		 "valence_orbital": [ 
			{
				"type": "occ",
				"energy": -0.32643,
				"method": "rhf"
			},
			{
				"type": "occ",
				"energy": -0.31791,
				"method": "rhf"
			},
			{
				"type": "occ",
				"energy": -0.30053,
				"method": "rhf"
			},
			{
				"type": "occ",
				"energy": -0.2523,
				"method": "rhf"
			},
			{
				"type": "occ",
				"energy": -0.23726,
				"method": "rhf"
			},
			{
				"type": "unocc",
				"energy": -0.06528,
				"method": "rhf"
			},
			{
				"type": "unocc",
				"energy": -0.0376,
				"method": "rhf"
			},
			{
				"type": "unocc",
				"energy": 0.01781,
				"method": "rhf"
			},
			{
				"type": "unocc",
				"energy": 0.02315,
				"method": "rhf"
			},
			{
				"type": "unocc",
				"energy": 0.06774,
				"method": "rhf"
			}
		],
		"cosmo_sigma_profile": { 
			"-0.025": 0.0,
			"-0.024": 0.0,
			"-0.023": 0.0,
			"-0.022": 0.0,
			"-0.021": 0.0,
			"-0.02": 0.0,
			"-0.019": 0.0,
			"-0.018": 0.0,
			"-0.017": 0.0,
			"-0.016": 0.0,
			"-0.015": 0.0,
			"-0.014": 0.0,
			"-0.013": 0.0,
			"-0.012": 0.0,
			"-0.011": 0.0,
			"-0.01": 1.99648543285,
			"-0.009": 5.05730949642,
			"-0.008": 4.98123593717,
			"-0.007": 5.66010371289,
			"-0.006": 7.26581861145,
			"-0.005": 7.7729364106,
			"-0.004": 8.81555042353,
			"-0.003": 14.1746004003,
			"-0.002": 21.5825920905,
			"-0.001": 17.4947246459,
			"0.0": 10.5375648146,
			"0.001": 9.73364133101,
			"0.002": 11.146163119,
			"0.003": 11.6299190108,
			"0.004": 12.5680179578,
			"0.005": 6.61426300199,
			"0.006": 5.20719101211,
			"0.007": 4.24769212529,
			"0.008": 2.57855165129,
			"0.009": 2.00286759008,
			"0.01": 1.92330639936,
			"0.011": 2.35193378635,
			"0.012": 2.58702946047,
			"0.013": 1.79365714413,
			"0.014": 0.869664752316,
			"0.015": 0.13901197985,
			"0.016": 0.0,
			"0.017": 0.0,
			"0.018": 0.0,
			"0.019": 0.0,
			"0.02": 0.0,
			"0.021": 0.0,
			"0.022": 0.0,
			"0.023": 0.0,
			"0.024": 0.0,
			"0.025": 0.0
		}
	}
}
