{
	 "smiles": "COC1=CC=C(C=C1)C(C)CC(O)=O", 
	 "Tm": 340.15, 
	 "num_atms": 28, 
	 "gaussian": { 
		 "optdone": 1, 
		 "sigma_profile": "yes", 
		 "theory": "DFT", 
		 "functional": "B3LYP", 
		 "basiset": "6-31G**", 
		 "properties": { 
			 "R2extent": 3999.7984, 
			 "electric_dipole_moment_norm": 2.27125845513, 
			 "electric_quadrupole_moment_norm": 12.4827010847, 
			 "total_energy": -653.291178985, 
			 "HOMO_LUMO_gap": 0.21157, 
			 "cosmo_polarized_energy": -11.36, 
			 "cosmo_cavitation_energy": 30.88, 
			 "cosmo_dispersion_energy": -22.2, 
			 "cosmo_repulsion_energy": 1.77, 
			 "cosmo_total_nonelectrostatic_energy": 10.46, 
			 "SMD_solvation_energy": 7.04 
		},
		"coords": [
			{
				"x": -4.3519535045,
				"y": -1.0799246077,
				"z": 0.7310722298,
				"element": "C" 
			},
			{
				"x": -3.1176457394,
				"y": -1.5695446094,
				"z": 1.2263708708,
				"element": "O" 
			},
			{
				"x": -2.0034535093,
				"y": -1.4096370054,
				"z": 0.4509708018,
				"element": "C" 
			},
			{
				"x": -0.8084907236,
				"y": -1.912084978,
				"z": 0.9861547799,
				"element": "C" 
			},
			{
				"x": 0.3815799837,
				"y": -1.8027201391,
				"z": 0.27780865,
				"element": "C" 
			},
			{
				"x": 0.4230511498,
				"y": -1.1890551764,
				"z": -0.9876403228,
				"element": "C" 
			},
			{
				"x": -0.7791559222,
				"y": -0.6970907727,
				"z": -1.5039826246,
				"element": "C" 
			},
			{
				"x": -1.9866428287,
				"y": -0.7967478828,
				"z": -0.8056118336,
				"element": "C" 
			},
			{
				"x": 1.7112400241,
				"y": -1.0415869559,
				"z": -1.7909939231,
				"element": "C" 
			},
			{
				"x": 2.5216387858,
				"y": -2.3456793218,
				"z": -1.9058996721,
				"element": "C" 
			},
			{
				"x": 2.5683954112,
				"y": 0.161506651,
				"z": -1.3242467568,
				"element": "C" 
			},
			{
				"x": 3.1736887467,
				"y": 0.0822260725,
				"z": 0.0625096209,
				"element": "C" 
			},
			{
				"x": 3.4630181641,
				"y": 1.3201564369,
				"z": 0.5339187258,
				"element": "O" 
			},
			{
				"x": 3.4284825985,
				"y": -0.9179643888,
				"z": 0.7008720151,
				"element": "O" 
			},
			{
				"x": -5.0965114197,
				"y": -1.3058400651,
				"z": 1.4962860586,
				"element": "H" 
			},
			{
				"x": -4.3227697854,
				"y": 0.0054238078,
				"z": 0.5669820955,
				"element": "H" 
			},
			{
				"x": -4.6388188064,
				"y": -1.5739363017,
				"z": -0.2066828473,
				"element": "H" 
			},
			{
				"x": -0.8387548148,
				"y": -2.3866906135,
				"z": 1.9618329963,
				"element": "H" 
			},
			{
				"x": 1.2940648918,
				"y": -2.1888760093,
				"z": 0.7181476793,
				"element": "H" 
			},
			{
				"x": -0.784020303,
				"y": -0.2234346806,
				"z": -2.4835475901,
				"element": "H" 
			},
			{
				"x": -2.8930161391,
				"y": -0.4028881788,
				"z": -1.2503712464,
				"element": "H" 
			},
			{
				"x": 1.4033408495,
				"y": -0.7707334266,
				"z": -2.8096212458,
				"element": "H" 
			},
			{
				"x": 2.9055072337,
				"y": -2.6709111051,
				"z": -0.9382503424,
				"element": "H" 
			},
			{
				"x": 3.3794257343,
				"y": -2.2041946523,
				"z": -2.5736657274,
				"element": "H" 
			},
			{
				"x": 1.8982722017,
				"y": -3.1428273294,
				"z": -2.3220408854,
				"element": "H" 
			},
			{
				"x": 3.4143478979,
				"y": 0.2948193006,
				"z": -2.0140522846,
				"element": "H" 
			},
			{
				"x": 1.9850951475,
				"y": 1.0855660731,
				"z": -1.379732687,
				"element": "H" 
			},
			{
				"x": 3.8806846755,
				"y": 1.1848698584,
				"z": 1.4015134656,
				"element": "H" 
			}
		],
		 "valence_orbital": [ 
			{
				"type": "occ",
				"energy": -0.31351,
				"method": "rhf"
			},
			{
				"type": "occ",
				"energy": -0.30638,
				"method": "rhf"
			},
			{
				"type": "occ",
				"energy": -0.27149,
				"method": "rhf"
			},
			{
				"type": "occ",
				"energy": -0.24357,
				"method": "rhf"
			},
			{
				"type": "occ",
				"energy": -0.21001,
				"method": "rhf"
			},
			{
				"type": "unocc",
				"energy": 0.00156,
				"method": "rhf"
			},
			{
				"type": "unocc",
				"energy": 0.01101,
				"method": "rhf"
			},
			{
				"type": "unocc",
				"energy": 0.01746,
				"method": "rhf"
			},
			{
				"type": "unocc",
				"energy": 0.08141,
				"method": "rhf"
			},
			{
				"type": "unocc",
				"energy": 0.08848,
				"method": "rhf"
			}
		],
		"cosmo_sigma_profile": { 
			"-0.025": 0.0,
			"-0.024": 0.0,
			"-0.023": 0.0,
			"-0.022": 0.0,
			"-0.021": 0.0,
			"-0.02": 0.0,
			"-0.019": 0.0,
			"-0.018": 0.499661619763,
			"-0.017": 0.778218529036,
			"-0.016": 1.17384176877,
			"-0.015": 0.644847661754,
			"-0.014": 0.73677854737,
			"-0.013": 0.434830025931,
			"-0.012": 0.584657368405,
			"-0.011": 0.660731061378,
			"-0.01": 1.21535179668,
			"-0.009": 0.634619983006,
			"-0.008": 0.407979451913,
			"-0.007": 1.45926502803,
			"-0.006": 7.97416143045,
			"-0.005": 19.5371523377,
			"-0.004": 21.7534201414,
			"-0.003": 27.5185101677,
			"-0.002": 19.875512871,
			"-0.001": 18.4759315015,
			"0.0": 15.550988366,
			"0.001": 15.8721450615,
			"0.002": 13.6448906889,
			"0.003": 11.7443120686,
			"0.004": 13.4313681572,
			"0.005": 12.5567427525,
			"0.006": 12.1780322232,
			"0.007": 5.57701583747,
			"0.008": 3.95454009907,
			"0.009": 4.33189012923,
			"0.01": 4.26275451242,
			"0.011": 3.29318769953,
			"0.012": 2.14082795116,
			"0.013": 0.122171730397,
			"0.014": 0.0,
			"0.015": 0.0,
			"0.016": 0.0,
			"0.017": 0.0,
			"0.018": 0.0,
			"0.019": 0.0,
			"0.02": 0.0,
			"0.021": 0.0,
			"0.022": 0.0,
			"0.023": 0.0,
			"0.024": 0.0,
			"0.025": 0.0
		}
	}
}
