{
	 "smiles": "CCOC1=CC=CC(=C1)C(O)=O", 
	 "Tm": 409.15, 
	 "num_atms": 22, 
	 "gaussian": { 
		 "optdone": 1, 
		 "sigma_profile": "yes", 
		 "theory": "DFT", 
		 "functional": "B3LYP", 
		 "basiset": "6-31G**", 
		 "properties": { 
			 "R2extent": 2431.5333, 
			 "electric_dipole_moment_norm": 3.65999513114, 
			 "electric_quadrupole_moment_norm": 15.7913505857, 
			 "total_energy": -574.659892345, 
			 "HOMO_LUMO_gap": 0.18597, 
			 "cosmo_polarized_energy": -13.91, 
			 "cosmo_cavitation_energy": 25.94, 
			 "cosmo_dispersion_energy": -19.01, 
			 "cosmo_repulsion_energy": 1.53, 
			 "cosmo_total_nonelectrostatic_energy": 8.46, 
			 "SMD_solvation_energy": 6.07 
		},
		"coords": [
			{
				"x": -1.4130220324,
				"y": -2.4321422526,
				"z": 2.438127225,
				"element": "C" 
			},
			{
				"x": -2.2544860902,
				"y": -1.4920590404,
				"z": 1.5823435126,
				"element": "C" 
			},
			{
				"x": -1.9975408735,
				"y": -1.6486623497,
				"z": 0.1802198838,
				"element": "O" 
			},
			{
				"x": -0.9224482282,
				"y": -1.0382198216,
				"z": -0.3868870267,
				"element": "C" 
			},
			{
				"x": -0.7647122491,
				"y": -1.2592984603,
				"z": -1.7668923047,
				"element": "C" 
			},
			{
				"x": 0.283909653,
				"y": -0.6643453997,
				"z": -2.4563980922,
				"element": "C" 
			},
			{
				"x": 1.2047002413,
				"y": 0.1470366966,
				"z": -1.7872079392,
				"element": "C" 
			},
			{
				"x": 1.0600681602,
				"y": 0.3565019695,
				"z": -0.411383053,
				"element": "C" 
			},
			{
				"x": -0.0080941474,
				"y": -0.224450983,
				"z": 0.2870420062,
				"element": "C" 
			},
			{
				"x": 1.9979881741,
				"y": 1.2144697716,
				"z": 0.3863963306,
				"element": "C" 
			},
			{
				"x": 3.2219784607,
				"y": 1.4498107912,
				"z": -0.1567499913,
				"element": "O" 
			},
			{
				"x": 1.7164143982,
				"y": 1.6856164937,
				"z": 1.46397507,
				"element": "O" 
			},
			{
				"x": -1.5795557433,
				"y": -3.4702600867,
				"z": 2.136835269,
				"element": "H" 
			},
			{
				"x": -1.6944427529,
				"y": -2.3288173567,
				"z": 3.4912597181,
				"element": "H" 
			},
			{
				"x": -0.3448964763,
				"y": -2.2166016437,
				"z": 2.3499681408,
				"element": "H" 
			},
			{
				"x": -2.1198525465,
				"y": -0.4443633132,
				"z": 1.8768721161,
				"element": "H" 
			},
			{
				"x": -3.3165291593,
				"y": -1.7292336832,
				"z": 1.6882103275,
				"element": "H" 
			},
			{
				"x": -1.4868833337,
				"y": -1.8917469867,
				"z": -2.2725716187,
				"element": "H" 
			},
			{
				"x": 0.3817085158,
				"y": -0.8258317143,
				"z": -3.5257132065,
				"element": "H" 
			},
			{
				"x": 1.9902951145,
				"y": 0.6389805291,
				"z": -2.3544510851,
				"element": "H" 
			},
			{
				"x": -0.0849962328,
				"y": -0.0153989152,
				"z": 1.3460963178,
				"element": "H" 
			},
			{
				"x": 3.3535971476,
				"y": 0.8849157555,
				"z": -0.9307916,
				"element": "H" 
			}
		],
		 "valence_orbital": [ 
			{
				"type": "occ",
				"energy": -0.33048,
				"method": "rhf"
			},
			{
				"type": "occ",
				"energy": -0.31323,
				"method": "rhf"
			},
			{
				"type": "occ",
				"energy": -0.27489,
				"method": "rhf"
			},
			{
				"type": "occ",
				"energy": -0.26292,
				"method": "rhf"
			},
			{
				"type": "occ",
				"energy": -0.23391,
				"method": "rhf"
			},
			{
				"type": "unocc",
				"energy": -0.04794,
				"method": "rhf"
			},
			{
				"type": "unocc",
				"energy": -0.00863,
				"method": "rhf"
			},
			{
				"type": "unocc",
				"energy": 0.05395,
				"method": "rhf"
			},
			{
				"type": "unocc",
				"energy": 0.06453,
				"method": "rhf"
			},
			{
				"type": "unocc",
				"energy": 0.09234,
				"method": "rhf"
			}
		],
		"cosmo_sigma_profile": { 
			"-0.025": 0.0,
			"-0.024": 0.0,
			"-0.023": 0.0,
			"-0.022": 0.0,
			"-0.021": 0.0,
			"-0.02": 0.0,
			"-0.019": 0.0465617188978,
			"-0.018": 0.847979077611,
			"-0.017": 0.890211661541,
			"-0.016": 0.649815230972,
			"-0.015": 1.31941685373,
			"-0.014": 0.685601387113,
			"-0.013": 0.690002032795,
			"-0.012": 1.51592431655,
			"-0.011": 1.35337168393,
			"-0.01": 0.918407458256,
			"-0.009": 1.4139379494,
			"-0.008": 1.25909249642,
			"-0.007": 4.0951206257,
			"-0.006": 9.81855603137,
			"-0.005": 13.4791825857,
			"-0.004": 17.6894312961,
			"-0.003": 16.9637783922,
			"-0.002": 16.7446784702,
			"-0.001": 13.5740760218,
			"0.0": 14.0290755982,
			"0.001": 12.3437901985,
			"0.002": 11.7548047276,
			"0.003": 16.1888011301,
			"0.004": 9.83613951948,
			"0.005": 4.11928450626,
			"0.006": 4.25794195385,
			"0.007": 3.44377629908,
			"0.008": 4.336242683,
			"0.009": 3.61488157171,
			"0.01": 6.30154668101,
			"0.011": 5.00428392136,
			"0.012": 5.21119758049,
			"0.013": 1.7674147784,
			"0.014": 0.0353529827052,
			"0.015": 0.0,
			"0.016": 0.0,
			"0.017": 0.0,
			"0.018": 0.0,
			"0.019": 0.0,
			"0.02": 0.0,
			"0.021": 0.0,
			"0.022": 0.0,
			"0.023": 0.0,
			"0.024": 0.0,
			"0.025": 0.0
		}
	}
}
