{
	 "smiles": "CC1(C)C2=CC=CC=C2OC2=C1C=CC=C2", 
	 "Tm": 314.65, 
	 "num_atms": 30, 
	 "gaussian": { 
		 "optdone": 1, 
		 "sigma_profile": "yes", 
		 "theory": "DFT", 
		 "functional": "B3LYP", 
		 "basiset": "6-31G**", 
		 "properties": { 
			 "R2extent": 4178.325, 
			 "electric_dipole_moment_norm": 1.00443920672, 
			 "electric_quadrupole_moment_norm": 8.56767770811, 
			 "total_energy": -655.268238049, 
			 "HOMO_LUMO_gap": 0.19608, 
			 "cosmo_polarized_energy": -5.8, 
			 "cosmo_cavitation_energy": 31.41, 
			 "cosmo_dispersion_energy": -22.93, 
			 "cosmo_repulsion_energy": 1.74, 
			 "cosmo_total_nonelectrostatic_energy": 10.22, 
			 "SMD_solvation_energy": 5.64 
		},
		"coords": [
			{
				"x": 1.7380326758,
				"y": -0.3580746565,
				"z": -2.4957135387,
				"element": "C" 
			},
			{
				"x": 0.5388116127,
				"y": -1.0350975598,
				"z": -1.7815846843,
				"element": "C" 
			},
			{
				"x": -0.5424289669,
				"y": -1.4056027164,
				"z": -2.8304252275,
				"element": "C" 
			},
			{
				"x": -0.0583283615,
				"y": -0.0617768445,
				"z": -0.7594130756,
				"element": "C" 
			},
			{
				"x": -0.5721621085,
				"y": 1.1823376456,
				"z": -1.1576430109,
				"element": "C" 
			},
			{
				"x": -1.1196795779,
				"y": 2.0837636924,
				"z": -0.2482985547,
				"element": "C" 
			},
			{
				"x": -1.1658108456,
				"y": 1.752536577,
				"z": 1.108717478,
				"element": "C" 
			},
			{
				"x": -0.6655297804,
				"y": 0.5286307437,
				"z": 1.5358104408,
				"element": "C" 
			},
			{
				"x": -0.1196609405,
				"y": -0.3628756945,
				"z": 0.6061380171,
				"element": "C" 
			},
			{
				"x": 0.3444856924,
				"y": -1.5415802267,
				"z": 1.1361277026,
				"element": "O" 
			},
			{
				"x": 0.898832527,
				"y": -2.484344273,
				"z": 0.3056721977,
				"element": "C" 
			},
			{
				"x": 1.0204194108,
				"y": -2.3084119715,
				"z": -1.0776157066,
				"element": "C" 
			},
			{
				"x": 1.6081697674,
				"y": -3.3583028696,
				"z": -1.8006296338,
				"element": "C" 
			},
			{
				"x": 2.0534796468,
				"y": -4.5248399327,
				"z": -1.1840592262,
				"element": "C" 
			},
			{
				"x": 1.9173363284,
				"y": -4.6691397507,
				"z": 0.1994022136,
				"element": "C" 
			},
			{
				"x": 1.3397378701,
				"y": -3.6482934337,
				"z": 0.9443079661,
				"element": "C" 
			},
			{
				"x": 1.4220283162,
				"y": 0.5517144465,
				"z": -3.0151917708,
				"element": "H" 
			},
			{
				"x": 2.1809422775,
				"y": -1.0282661344,
				"z": -3.2387367048,
				"element": "H" 
			},
			{
				"x": 2.5154801002,
				"y": -0.0864829467,
				"z": -1.7760373342,
				"element": "H" 
			},
			{
				"x": -0.9000100471,
				"y": -0.5149688982,
				"z": -3.3560673956,
				"element": "H" 
			},
			{
				"x": -0.1416980725,
				"y": -2.0951794229,
				"z": -3.5795741446,
				"element": "H" 
			},
			{
				"x": -1.4003560053,
				"y": -1.8851583066,
				"z": -2.3507400692,
				"element": "H" 
			},
			{
				"x": -0.5420268306,
				"y": 1.4512347697,
				"z": -2.2095799497,
				"element": "H" 
			},
			{
				"x": -1.5070252296,
				"y": 3.0365776616,
				"z": -0.5956886581,
				"element": "H" 
			},
			{
				"x": -1.5893978825,
				"y": 2.4439573847,
				"z": 1.8311011825,
				"element": "H" 
			},
			{
				"x": -0.6840569389,
				"y": 0.2364187943,
				"z": 2.5805951205,
				"element": "H" 
			},
			{
				"x": 1.7195706218,
				"y": -3.2581497957,
				"z": -2.8764543274,
				"element": "H" 
			},
			{
				"x": 2.502912581,
				"y": -5.3145443532,
				"z": -1.7781539947,
				"element": "H" 
			},
			{
				"x": 2.2592936424,
				"y": -5.5723461417,
				"z": 0.6960014271,
				"element": "H" 
			},
			{
				"x": 1.2171385174,
				"y": -3.7240357868,
				"z": 2.0197332613,
				"element": "H" 
			}
		],
		 "valence_orbital": [ 
			{
				"type": "occ",
				"energy": -0.31111,
				"method": "rhf"
			},
			{
				"type": "occ",
				"energy": -0.25347,
				"method": "rhf"
			},
			{
				"type": "occ",
				"energy": -0.2474,
				"method": "rhf"
			},
			{
				"type": "occ",
				"energy": -0.24288,
				"method": "rhf"
			},
			{
				"type": "occ",
				"energy": -0.20563,
				"method": "rhf"
			},
			{
				"type": "unocc",
				"energy": -0.00955,
				"method": "rhf"
			},
			{
				"type": "unocc",
				"energy": -0.00511,
				"method": "rhf"
			},
			{
				"type": "unocc",
				"energy": 0.00393,
				"method": "rhf"
			},
			{
				"type": "unocc",
				"energy": 0.02724,
				"method": "rhf"
			},
			{
				"type": "unocc",
				"energy": 0.08147,
				"method": "rhf"
			}
		],
		"cosmo_sigma_profile": { 
			"-0.025": 0.0,
			"-0.024": 0.0,
			"-0.023": 0.0,
			"-0.022": 0.0,
			"-0.021": 0.0,
			"-0.02": 0.0,
			"-0.019": 0.0,
			"-0.018": 0.0,
			"-0.017": 0.0,
			"-0.016": 0.0,
			"-0.015": 0.0,
			"-0.014": 0.0,
			"-0.013": 0.0,
			"-0.012": 0.0,
			"-0.011": 0.0,
			"-0.01": 0.0,
			"-0.009": 0.0,
			"-0.008": 0.0,
			"-0.007": 0.190076739518,
			"-0.006": 10.8347472701,
			"-0.005": 18.0341427582,
			"-0.004": 21.1011081872,
			"-0.003": 23.5785786183,
			"-0.002": 20.2121264234,
			"-0.001": 23.2822482675,
			"0.0": 21.2839151371,
			"0.001": 22.7202251147,
			"0.002": 17.5138698698,
			"0.003": 19.5269713243,
			"0.004": 18.1659055484,
			"0.005": 18.4124764708,
			"0.006": 11.519732495,
			"0.007": 2.1690296588,
			"0.008": 1.12597758194,
			"0.009": 0.00064544385796,
			"0.01": 0.0,
			"0.011": 0.0,
			"0.012": 0.0,
			"0.013": 0.0,
			"0.014": 0.0,
			"0.015": 0.0,
			"0.016": 0.0,
			"0.017": 0.0,
			"0.018": 0.0,
			"0.019": 0.0,
			"0.02": 0.0,
			"0.021": 0.0,
			"0.022": 0.0,
			"0.023": 0.0,
			"0.024": 0.0,
			"0.025": 0.0
		}
	}
}
