{
	 "smiles": "CC1=NNC=N1", 
	 "Tm": 363.15, 
	 "num_atms": 11, 
	 "gaussian": { 
		 "optdone": 1, 
		 "sigma_profile": "yes", 
		 "theory": "DFT", 
		 "functional": "B3LYP", 
		 "basiset": "6-31G**", 
		 "properties": { 
			 "R2extent": 551.9065, 
			 "electric_dipole_moment_norm": 2.37751079283, 
			 "electric_quadrupole_moment_norm": 8.62568107456, 
			 "total_energy": -281.574354356, 
			 "HOMO_LUMO_gap": 0.26442, 
			 "cosmo_polarized_energy": -11.54, 
			 "cosmo_cavitation_energy": 14.92, 
			 "cosmo_dispersion_energy": -11.5, 
			 "cosmo_repulsion_energy": 1.0, 
			 "cosmo_total_nonelectrostatic_energy": 4.43, 
			 "SMD_solvation_energy": 0.68 
		},
		"coords": [
			{
				"x": -1.7647769932,
				"y": -1.6419685967,
				"z": -0.8162908829,
				"element": "C" 
			},
			{
				"x": -0.9886197772,
				"y": -0.4438705901,
				"z": -0.3659765186,
				"element": "C" 
			},
			{
				"x": -1.3698733473,
				"y": 0.3169968261,
				"z": 0.6552719251,
				"element": "N" 
			},
			{
				"x": -0.3891907327,
				"y": 1.2556277874,
				"z": 0.6946733171,
				"element": "N" 
			},
			{
				"x": 0.5187410095,
				"y": 1.0282935537,
				"z": -0.2781062638,
				"element": "C" 
			},
			{
				"x": 0.1729916463,
				"y": -0.0406964601,
				"z": -0.9718194426,
				"element": "N" 
			},
			{
				"x": -2.7793473521,
				"y": -1.363843743,
				"z": -1.1178265307,
				"element": "H" 
			},
			{
				"x": -1.2584936811,
				"y": -2.1024184835,
				"z": -1.6659606966,
				"element": "H" 
			},
			{
				"x": -1.8505602532,
				"y": -2.3806240782,
				"z": -0.0133841382,
				"element": "H" 
			},
			{
				"x": -0.4178707704,
				"y": 1.9854133497,
				"z": 1.3906742675,
				"element": "H" 
			},
			{
				"x": 1.3896002515,
				"y": 1.6487904348,
				"z": -0.4391550364,
				"element": "H" 
			}
		],
		 "valence_orbital": [ 
			{
				"type": "occ",
				"energy": -0.38384,
				"method": "rhf"
			},
			{
				"type": "occ",
				"energy": -0.32346,
				"method": "rhf"
			},
			{
				"type": "occ",
				"energy": -0.29113,
				"method": "rhf"
			},
			{
				"type": "occ",
				"energy": -0.27109,
				"method": "rhf"
			},
			{
				"type": "occ",
				"energy": -0.25567,
				"method": "rhf"
			},
			{
				"type": "unocc",
				"energy": 0.00875,
				"method": "rhf"
			},
			{
				"type": "unocc",
				"energy": 0.05842,
				"method": "rhf"
			},
			{
				"type": "unocc",
				"energy": 0.07615,
				"method": "rhf"
			},
			{
				"type": "unocc",
				"energy": 0.12666,
				"method": "rhf"
			},
			{
				"type": "unocc",
				"energy": 0.12922,
				"method": "rhf"
			}
		],
		"cosmo_sigma_profile": { 
			"-0.025": 0.0,
			"-0.024": 0.0,
			"-0.023": 0.0,
			"-0.022": 0.0,
			"-0.021": 0.0,
			"-0.02": 0.0,
			"-0.019": 0.0,
			"-0.018": 0.140885755731,
			"-0.017": 1.98363182048,
			"-0.016": 1.37749262583,
			"-0.015": 1.623237957,
			"-0.014": 0.95670238237,
			"-0.013": 0.646355437945,
			"-0.012": 1.09097594347,
			"-0.011": 1.48377053766,
			"-0.01": 3.18192031916,
			"-0.009": 3.02463480786,
			"-0.008": 1.78239545425,
			"-0.007": 2.26898964565,
			"-0.006": 2.06273501806,
			"-0.005": 5.42836491836,
			"-0.004": 6.72168898923,
			"-0.003": 6.74534700092,
			"-0.002": 8.17031818494,
			"-0.001": 9.57365084649,
			"0.0": 9.95313095371,
			"0.001": 8.20326190067,
			"0.002": 5.49889011255,
			"0.003": 3.95343518393,
			"0.004": 4.39051410701,
			"0.005": 3.45697628896,
			"0.006": 2.58035208934,
			"0.007": 2.585173495,
			"0.008": 3.47047103624,
			"0.009": 2.33532083877,
			"0.01": 1.68205095413,
			"0.011": 1.74213855458,
			"0.012": 3.39295039631,
			"0.013": 1.56117590447,
			"0.014": 1.7066160276,
			"0.015": 2.50848460762,
			"0.016": 0.931444827404,
			"0.017": 0.700225029373,
			"0.018": 0.0266932189248,
			"0.019": 0.0,
			"0.02": 0.0,
			"0.021": 0.0,
			"0.022": 0.0,
			"0.023": 0.0,
			"0.024": 0.0,
			"0.025": 0.0
		}
	}
}
