{
	 "smiles": "O=C1NC(=NO1)C1=NC=CC=C1", 
	 "Tm": 472.15, 
	 "num_atms": 17, 
	 "gaussian": { 
		 "optdone": 1, 
		 "sigma_profile": "yes", 
		 "theory": "DFT", 
		 "functional": "B3LYP", 
		 "basiset": "6-31G**", 
		 "properties": { 
			 "R2extent": 3865.8439, 
			 "electric_dipole_moment_norm": 7.13425431983, 
			 "electric_quadrupole_moment_norm": 27.7438333287, 
			 "total_energy": -584.431982238, 
			 "HOMO_LUMO_gap": 0.17792, 
			 "cosmo_polarized_energy": -14.04, 
			 "cosmo_cavitation_energy": 22.68, 
			 "cosmo_dispersion_energy": -17.2, 
			 "cosmo_repulsion_energy": 1.36, 
			 "cosmo_total_nonelectrostatic_energy": 6.84, 
			 "SMD_solvation_energy": 3.9 
		},
		"coords": [
			{
				"x": 5.3263392546,
				"y": 1.7985503557,
				"z": -1.1781748576,
				"element": "O" 
			},
			{
				"x": 4.4114138945,
				"y": 1.0833851086,
				"z": -1.4915955684,
				"element": "C" 
			},
			{
				"x": 3.1715334141,
				"y": 0.8948916441,
				"z": -0.9029177845,
				"element": "N" 
			},
			{
				"x": 2.4799069627,
				"y": -0.0284523315,
				"z": -1.6370470311,
				"element": "C" 
			},
			{
				"x": 3.1643400793,
				"y": -0.4577699692,
				"z": -2.6547465163,
				"element": "N" 
			},
			{
				"x": 4.3963449279,
				"y": 0.2344592224,
				"z": -2.5842192513,
				"element": "O" 
			},
			{
				"x": 1.1209471859,
				"y": -0.4584750519,
				"z": -1.2818903807,
				"element": "C" 
			},
			{
				"x": 0.6147147482,
				"y": 0.1252887366,
				"z": -0.183261606,
				"element": "N" 
			},
			{
				"x": -0.6201011511,
				"y": -0.2279344942,
				"z": 0.1881942694,
				"element": "C" 
			},
			{
				"x": -1.3921331262,
				"y": -1.1616192904,
				"z": -0.5055235611,
				"element": "C" 
			},
			{
				"x": -0.8516790019,
				"y": -1.7595134563,
				"z": -1.6455073229,
				"element": "C" 
			},
			{
				"x": 0.4321565661,
				"y": -1.4052141299,
				"z": -2.0484724978,
				"element": "C" 
			},
			{
				"x": 2.8227778604,
				"y": 1.3524539076,
				"z": -0.0743270842,
				"element": "H" 
			},
			{
				"x": -1.0087946536,
				"y": 0.2578067192,
				"z": 1.0804950208,
				"element": "H" 
			},
			{
				"x": -2.389520877,
				"y": -1.4108481477,
				"z": -0.1586685926,
				"element": "H" 
			},
			{
				"x": -1.421819458,
				"y": -2.4901030695,
				"z": -2.2111600257,
				"element": "H" 
			},
			{
				"x": 0.9023733743,
				"y": -1.8367057534,
				"z": -2.92507721,
				"element": "H" 
			}
		],
		 "valence_orbital": [ 
			{
				"type": "occ",
				"energy": -0.31496,
				"method": "rhf"
			},
			{
				"type": "occ",
				"energy": -0.29461,
				"method": "rhf"
			},
			{
				"type": "occ",
				"energy": -0.29403,
				"method": "rhf"
			},
			{
				"type": "occ",
				"energy": -0.28302,
				"method": "rhf"
			},
			{
				"type": "occ",
				"energy": -0.25024,
				"method": "rhf"
			},
			{
				"type": "unocc",
				"energy": -0.07232,
				"method": "rhf"
			},
			{
				"type": "unocc",
				"energy": -0.0479,
				"method": "rhf"
			},
			{
				"type": "unocc",
				"energy": 0.02773,
				"method": "rhf"
			},
			{
				"type": "unocc",
				"energy": 0.0515,
				"method": "rhf"
			},
			{
				"type": "unocc",
				"energy": 0.06812,
				"method": "rhf"
			}
		],
		"cosmo_sigma_profile": { 
			"-0.025": 0.0,
			"-0.024": 0.0,
			"-0.023": 0.0,
			"-0.022": 0.0,
			"-0.021": 0.0,
			"-0.02": 0.0,
			"-0.019": 0.0,
			"-0.018": 0.098459120551,
			"-0.017": 0.775989575097,
			"-0.016": 0.804106115877,
			"-0.015": 0.318174492472,
			"-0.014": 0.837052709893,
			"-0.013": 0.634566001707,
			"-0.012": 0.964726142175,
			"-0.011": 0.583343124524,
			"-0.01": 0.881941768163,
			"-0.009": 0.763051164905,
			"-0.008": 5.70859579203,
			"-0.007": 10.1306022823,
			"-0.006": 11.5762114776,
			"-0.005": 8.9853654589,
			"-0.004": 12.8559939197,
			"-0.003": 12.0013145446,
			"-0.002": 10.7959541488,
			"-0.001": 13.5898579689,
			"0.0": 15.1100809648,
			"0.001": 15.8598341172,
			"0.002": 6.27173384904,
			"0.003": 5.03402961083,
			"0.004": 3.21197810164,
			"0.005": 4.79359762895,
			"0.006": 7.14723824566,
			"0.007": 8.18776779555,
			"0.008": 5.81096335641,
			"0.009": 4.0290969903,
			"0.01": 3.87509450943,
			"0.011": 7.5736244082,
			"0.012": 4.32949025945,
			"0.013": 0.0780173234888,
			"0.014": 0.0,
			"0.015": 0.0,
			"0.016": 0.0,
			"0.017": 0.0,
			"0.018": 0.0,
			"0.019": 0.0,
			"0.02": 0.0,
			"0.021": 0.0,
			"0.022": 0.0,
			"0.023": 0.0,
			"0.024": 0.0,
			"0.025": 0.0
		}
	}
}
