{
	 "smiles": "OC(=O)C1=CC(=C(S1)N1CCOCC1)C1=CC=CC=C1", 
	 "Tm": 446.15, 
	 "num_atms": 35, 
	 "gaussian": { 
		 "optdone": 1, 
		 "sigma_profile": "yes", 
		 "theory": "DFT", 
		 "functional": "B3LYP", 
		 "basiset": "6-31G**", 
		 "properties": { 
			 "R2extent": 6707.4116, 
			 "electric_dipole_moment_norm": 5.94445059783, 
			 "electric_quadrupole_moment_norm": 31.3272417434, 
			 "total_energy": -1259.2219822, 
			 "HOMO_LUMO_gap": 0.15286, 
			 "cosmo_polarized_energy": -18.31, 
			 "cosmo_cavitation_energy": 38.88, 
			 "cosmo_dispersion_energy": -27.98, 
			 "cosmo_repulsion_energy": 2.1, 
			 "cosmo_total_nonelectrostatic_energy": 13.01, 
			 "SMD_solvation_energy": 6.97 
		},
		"coords": [
			{
				"x": -3.2527595903,
				"y": 2.6747808355,
				"z": 3.1333453305,
				"element": "O" 
			},
			{
				"x": -3.451469963,
				"y": 1.5748409879,
				"z": 2.3511431817,
				"element": "C" 
			},
			{
				"x": -4.5600468504,
				"y": 1.0995597513,
				"z": 2.2465575456,
				"element": "O" 
			},
			{
				"x": -2.2776688461,
				"y": 1.0222559009,
				"z": 1.6532823755,
				"element": "C" 
			},
			{
				"x": -2.222902494,
				"y": -0.2213964037,
				"z": 1.078651783,
				"element": "C" 
			},
			{
				"x": -0.9447502978,
				"y": -0.6105356102,
				"z": 0.5859911796,
				"element": "C" 
			},
			{
				"x": 0.0080076257,
				"y": 0.3948887068,
				"z": 0.7607921265,
				"element": "C" 
			},
			{
				"x": -0.720758111,
				"y": 1.8198006073,
				"z": 1.5248845593,
				"element": "S" 
			},
			{
				"x": 1.3244710122,
				"y": 0.4047374071,
				"z": 0.3503815939,
				"element": "N" 
			},
			{
				"x": 1.67620191,
				"y": 0.064270573,
				"z": -1.0400230912,
				"element": "C" 
			},
			{
				"x": 1.9623678137,
				"y": 1.3366054923,
				"z": -1.8425358534,
				"element": "C" 
			},
			{
				"x": 2.9710175147,
				"y": 2.1230523356,
				"z": -1.2194879121,
				"element": "O" 
			},
			{
				"x": 2.5806626678,
				"y": 2.5239929438,
				"z": 0.0870263426,
				"element": "C" 
			},
			{
				"x": 2.3112739519,
				"y": 1.2974063859,
				"z": 0.9659770185,
				"element": "C" 
			},
			{
				"x": -0.6898838267,
				"y": -1.9631680165,
				"z": 0.0334673908,
				"element": "C" 
			},
			{
				"x": -1.6410147489,
				"y": -2.5719172106,
				"z": -0.8037976583,
				"element": "C" 
			},
			{
				"x": -1.4424606713,
				"y": -3.8630254355,
				"z": -1.2929842341,
				"element": "C" 
			},
			{
				"x": -0.2877882005,
				"y": -4.5717298518,
				"z": -0.9580708111,
				"element": "C" 
			},
			{
				"x": 0.665870016,
				"y": -3.9785341067,
				"z": -0.1272372918,
				"element": "C" 
			},
			{
				"x": 0.4680819409,
				"y": -2.68970099,
				"z": 0.3646949813,
				"element": "C" 
			},
			{
				"x": -2.3076141821,
				"y": 2.8502797697,
				"z": 3.2502259456,
				"element": "H" 
			},
			{
				"x": -3.085273959,
				"y": -0.8774203194,
				"z": 1.0879157341,
				"element": "H" 
			},
			{
				"x": 2.5723272988,
				"y": -0.5688018941,
				"z": -1.0265874591,
				"element": "H" 
			},
			{
				"x": 0.8662115253,
				"y": -0.5066334562,
				"z": -1.4937363899,
				"element": "H" 
			},
			{
				"x": 1.0353811758,
				"y": 1.9230192462,
				"z": -1.9538012778,
				"element": "H" 
			},
			{
				"x": 2.335292049,
				"y": 1.0841446459,
				"z": -2.8398368101,
				"element": "H" 
			},
			{
				"x": 3.40619052,
				"y": 3.1152995666,
				"z": 0.4946698557,
				"element": "H" 
			},
			{
				"x": 1.6846595399,
				"y": 3.1639036656,
				"z": 0.0380423881,
				"element": "H" 
			},
			{
				"x": 1.9729721595,
				"y": 1.5866643488,
				"z": 1.9644325377,
				"element": "H" 
			},
			{
				"x": 3.2488139923,
				"y": 0.736588936,
				"z": 1.0785105729,
				"element": "H" 
			},
			{
				"x": -2.537213923,
				"y": -2.0233694479,
				"z": -1.0793167349,
				"element": "H" 
			},
			{
				"x": -2.1903693131,
				"y": -4.3129233368,
				"z": -1.9397125653,
				"element": "H" 
			},
			{
				"x": -0.1321959696,
				"y": -5.5766600353,
				"z": -1.3393675015,
				"element": "H" 
			},
			{
				"x": 1.5637403678,
				"y": -4.525433596,
				"z": 0.1469006922,
				"element": "H" 
			},
			{
				"x": 1.2075278655,
				"y": -2.2401423955,
				"z": 1.0196024553,
				"element": "H" 
			}
		],
		 "valence_orbital": [ 
			{
				"type": "occ",
				"energy": -0.27057,
				"method": "rhf"
			},
			{
				"type": "occ",
				"energy": -0.2629,
				"method": "rhf"
			},
			{
				"type": "occ",
				"energy": -0.25784,
				"method": "rhf"
			},
			{
				"type": "occ",
				"energy": -0.24437,
				"method": "rhf"
			},
			{
				"type": "occ",
				"energy": -0.20296,
				"method": "rhf"
			},
			{
				"type": "unocc",
				"energy": -0.0501,
				"method": "rhf"
			},
			{
				"type": "unocc",
				"energy": -0.02324,
				"method": "rhf"
			},
			{
				"type": "unocc",
				"energy": -0.01044,
				"method": "rhf"
			},
			{
				"type": "unocc",
				"energy": -0.00403,
				"method": "rhf"
			},
			{
				"type": "unocc",
				"energy": 0.04604,
				"method": "rhf"
			}
		],
		"cosmo_sigma_profile": { 
			"-0.025": 0.0,
			"-0.024": 0.0,
			"-0.023": 0.0,
			"-0.022": 0.0,
			"-0.021": 0.0,
			"-0.02": 0.0,
			"-0.019": 0.0,
			"-0.018": 0.0,
			"-0.017": 0.806207351665,
			"-0.016": 0.223113567013,
			"-0.015": 0.827638392936,
			"-0.014": 1.36724340924,
			"-0.013": 0.478650174936,
			"-0.012": 0.73014252166,
			"-0.011": 1.79979655303,
			"-0.01": 0.831889354327,
			"-0.009": 0.630867570314,
			"-0.008": 1.10019649044,
			"-0.007": 1.7056300387,
			"-0.006": 13.8395874801,
			"-0.005": 31.5251404784,
			"-0.004": 36.1148067492,
			"-0.003": 30.0236512717,
			"-0.002": 22.696249277,
			"-0.001": 17.5903935096,
			"0.0": 20.3627638126,
			"0.001": 19.5999610624,
			"0.002": 19.2866287545,
			"0.003": 19.2386150362,
			"0.004": 13.8097387427,
			"0.005": 12.8130038618,
			"0.006": 7.3712113457,
			"0.007": 4.56983346493,
			"0.008": 2.97971990848,
			"0.009": 3.62066438365,
			"0.01": 5.41388818341,
			"0.011": 6.13969457458,
			"0.012": 7.31373185192,
			"0.013": 5.17959248131,
			"0.014": 0.617333070374,
			"0.015": 0.0,
			"0.016": 0.0,
			"0.017": 0.0,
			"0.018": 0.0,
			"0.019": 0.0,
			"0.02": 0.0,
			"0.021": 0.0,
			"0.022": 0.0,
			"0.023": 0.0,
			"0.024": 0.0,
			"0.025": 0.0
		}
	}
}
