{
	 "smiles": "CC(C)N1NC=CC1=NC(=O)NC1=CC=CC=C1", 
	 "Tm": 384.15, 
	 "num_atms": 34, 
	 "gaussian": { 
		 "optdone": 1, 
		 "sigma_profile": "yes", 
		 "theory": "DFT", 
		 "functional": "B3LYP", 
		 "basiset": "6-31G**", 
		 "properties": { 
			 "R2extent": 5582.3115, 
			 "electric_dipole_moment_norm": 5.9854525326, 
			 "electric_quadrupole_moment_norm": 21.15416657, 
			 "total_energy": -799.246335441, 
			 "HOMO_LUMO_gap": 0.16035, 
			 "cosmo_polarized_energy": -20.3, 
			 "cosmo_cavitation_energy": 37.52, 
			 "cosmo_dispersion_energy": -25.96, 
			 "cosmo_repulsion_energy": 2.01, 
			 "cosmo_total_nonelectrostatic_energy": 13.56, 
			 "SMD_solvation_energy": 6.77 
		},
		"coords": [
			{
				"x": 1.7732056063,
				"y": 1.0913679526,
				"z": -2.9416190079,
				"element": "C" 
			},
			{
				"x": 1.2450216768,
				"y": 1.3180428669,
				"z": -1.522332702,
				"element": "C" 
			},
			{
				"x": 1.1064963069,
				"y": 2.8031431794,
				"z": -1.1651810915,
				"element": "C" 
			},
			{
				"x": 2.0793111791,
				"y": 0.604146615,
				"z": -0.5412453948,
				"element": "N" 
			},
			{
				"x": 3.4395415456,
				"y": 0.9309313589,
				"z": -0.4441966961,
				"element": "N" 
			},
			{
				"x": 3.8578303156,
				"y": 0.4812566621,
				"z": 0.7937852771,
				"element": "C" 
			},
			{
				"x": 2.8026443219,
				"y": 0.0655053445,
				"z": 1.5375641967,
				"element": "C" 
			},
			{
				"x": 1.6243653213,
				"y": 0.1839948994,
				"z": 0.6990696416,
				"element": "C" 
			},
			{
				"x": 0.336164423,
				"y": 0.0063195319,
				"z": 0.8829431886,
				"element": "N" 
			},
			{
				"x": -0.0944218228,
				"y": -0.3531118857,
				"z": 2.1432843359,
				"element": "C" 
			},
			{
				"x": 0.5858613153,
				"y": -0.4982499473,
				"z": 3.1648467976,
				"element": "O" 
			},
			{
				"x": -1.4712614187,
				"y": -0.54525659,
				"z": 2.2587236729,
				"element": "N" 
			},
			{
				"x": -2.5438738036,
				"y": -0.4810096651,
				"z": 1.3559255953,
				"element": "C" 
			},
			{
				"x": -2.4134529061,
				"y": -0.6256624223,
				"z": -0.0358445651,
				"element": "C" 
			},
			{
				"x": -3.5453451248,
				"y": -0.5808115401,
				"z": -0.8489313439,
				"element": "C" 
			},
			{
				"x": -4.8210085499,
				"y": -0.4088424784,
				"z": -0.3086349606,
				"element": "C" 
			},
			{
				"x": -4.9545388385,
				"y": -0.2811287633,
				"z": 1.0752503228,
				"element": "C" 
			},
			{
				"x": -3.8318419377,
				"y": -0.3134540002,
				"z": 1.8976927646,
				"element": "C" 
			},
			{
				"x": 2.7425673023,
				"y": 1.5798772919,
				"z": -3.0978401883,
				"element": "H" 
			},
			{
				"x": 1.8762449716,
				"y": 0.0243309067,
				"z": -3.161145105,
				"element": "H" 
			},
			{
				"x": 1.0781159247,
				"y": 1.5225928814,
				"z": -3.6674831337,
				"element": "H" 
			},
			{
				"x": 0.2700136808,
				"y": 0.8376110024,
				"z": -1.4158843027,
				"element": "H" 
			},
			{
				"x": 0.4468282498,
				"y": 3.3031401617,
				"z": -1.8812369118,
				"element": "H" 
			},
			{
				"x": 0.6740576995,
				"y": 2.914892281,
				"z": -0.1676051564,
				"element": "H" 
			},
			{
				"x": 2.0798903499,
				"y": 3.303450762,
				"z": -1.1849259223,
				"element": "H" 
			},
			{
				"x": 3.9796992909,
				"y": 0.6570984212,
				"z": -1.260160151,
				"element": "H" 
			},
			{
				"x": 4.9118335139,
				"y": 0.5141119679,
				"z": 1.0352105524,
				"element": "H" 
			},
			{
				"x": 2.7754255462,
				"y": -0.2572842723,
				"z": 2.5633264767,
				"element": "H" 
			},
			{
				"x": -1.7204515047,
				"y": -0.7010702971,
				"z": 3.2256861886,
				"element": "H" 
			},
			{
				"x": -1.4289728923,
				"y": -0.771583493,
				"z": -0.4566908175,
				"element": "H" 
			},
			{
				"x": -3.4244441448,
				"y": -0.6949036515,
				"z": -1.9232947622,
				"element": "H" 
			},
			{
				"x": -5.6948410304,
				"y": -0.3798735284,
				"z": -0.9524718903,
				"element": "H" 
			},
			{
				"x": -5.9369540656,
				"y": -0.150062947,
				"z": 1.5207477547,
				"element": "H" 
			},
			{
				"x": -3.9448105012,
				"y": -0.2020086054,
				"z": 2.9737673375,
				"element": "H" 
			}
		],
		 "valence_orbital": [ 
			{
				"type": "occ",
				"energy": -0.26985,
				"method": "rhf"
			},
			{
				"type": "occ",
				"energy": -0.23559,
				"method": "rhf"
			},
			{
				"type": "occ",
				"energy": -0.22399,
				"method": "rhf"
			},
			{
				"type": "occ",
				"energy": -0.21247,
				"method": "rhf"
			},
			{
				"type": "occ",
				"energy": -0.19275,
				"method": "rhf"
			},
			{
				"type": "unocc",
				"energy": -0.0324,
				"method": "rhf"
			},
			{
				"type": "unocc",
				"energy": 0.01443,
				"method": "rhf"
			},
			{
				"type": "unocc",
				"energy": 0.01714,
				"method": "rhf"
			},
			{
				"type": "unocc",
				"energy": 0.04917,
				"method": "rhf"
			},
			{
				"type": "unocc",
				"energy": 0.05804,
				"method": "rhf"
			}
		],
		"cosmo_sigma_profile": { 
			"-0.025": 0.0,
			"-0.024": 0.0,
			"-0.023": 0.0,
			"-0.022": 0.0,
			"-0.021": 0.0,
			"-0.02": 0.0,
			"-0.019": 0.0,
			"-0.018": 0.0,
			"-0.017": 0.137296507223,
			"-0.016": 1.33438298971,
			"-0.015": 0.991803690771,
			"-0.014": 0.907511780814,
			"-0.013": 1.89397662149,
			"-0.012": 2.48762847593,
			"-0.011": 2.97532250523,
			"-0.01": 4.22987088215,
			"-0.009": 4.5678361115,
			"-0.008": 3.90102374751,
			"-0.007": 3.46771714526,
			"-0.006": 6.36611925877,
			"-0.005": 12.9361142913,
			"-0.004": 22.3933029538,
			"-0.003": 26.5646687552,
			"-0.002": 25.3269331727,
			"-0.001": 24.027005955,
			"0.0": 23.5317809559,
			"0.001": 17.2425448956,
			"0.002": 16.949177235,
			"0.003": 20.9168215901,
			"0.004": 18.8206840312,
			"0.005": 14.7010360418,
			"0.006": 14.003927534,
			"0.007": 8.72340365537,
			"0.008": 2.53848559937,
			"0.009": 2.80745841228,
			"0.01": 1.87612256949,
			"0.011": 1.34778772894,
			"0.012": 1.419322085,
			"0.013": 2.07305575647,
			"0.014": 2.64304903758,
			"0.015": 3.26571754426,
			"0.016": 0.308151520303,
			"0.017": 0.0,
			"0.018": 0.0,
			"0.019": 0.0,
			"0.02": 0.0,
			"0.021": 0.0,
			"0.022": 0.0,
			"0.023": 0.0,
			"0.024": 0.0,
			"0.025": 0.0
		}
	}
}
