{
	 "smiles": "CCC1=NC2=C(C=C(N)C=C2)C(N)=C1", 
	 "Tm": 425.15, 
	 "num_atms": 27, 
	 "gaussian": { 
		 "optdone": 1, 
		 "sigma_profile": "yes", 
		 "theory": "DFT", 
		 "functional": "B3LYP", 
		 "basiset": "6-31G**", 
		 "properties": { 
			 "R2extent": 3379.2352, 
			 "electric_dipole_moment_norm": 4.24164424958, 
			 "electric_quadrupole_moment_norm": 14.4194200757, 
			 "total_energy": -591.288623492, 
			 "HOMO_LUMO_gap": 0.15717, 
			 "cosmo_polarized_energy": -17.45, 
			 "cosmo_cavitation_energy": 30.04, 
			 "cosmo_dispersion_energy": -22.18, 
			 "cosmo_repulsion_energy": 1.76, 
			 "cosmo_total_nonelectrostatic_energy": 9.62, 
			 "SMD_solvation_energy": 3.34 
		},
		"coords": [
			{
				"x": -2.2515077822,
				"y": 2.8494836802,
				"z": 3.1509635356,
				"element": "C" 
			},
			{
				"x": -1.7442976443,
				"y": 1.4216938275,
				"z": 3.4172028517,
				"element": "C" 
			},
			{
				"x": -0.7920843083,
				"y": 0.9445433537,
				"z": 2.3405172931,
				"element": "C" 
			},
			{
				"x": -1.3359206732,
				"y": 0.5066732616,
				"z": 1.2160227562,
				"element": "N" 
			},
			{
				"x": -0.495648389,
				"y": 0.1179535912,
				"z": 0.2149092444,
				"element": "C" 
			},
			{
				"x": 0.9293583742,
				"y": 0.15558823,
				"z": 0.3066606786,
				"element": "C" 
			},
			{
				"x": 1.7175669326,
				"y": -0.2402663877,
				"z": -0.8024858571,
				"element": "C" 
			},
			{
				"x": 1.1304904975,
				"y": -0.6850721232,
				"z": -1.9779806051,
				"element": "C" 
			},
			{
				"x": 1.8919851694,
				"y": -1.0117120391,
				"z": -3.1040612889,
				"element": "N" 
			},
			{
				"x": -0.2898509241,
				"y": -0.7420116575,
				"z": -2.0570948553,
				"element": "C" 
			},
			{
				"x": -1.0702210811,
				"y": -0.3516640444,
				"z": -0.9973054194,
				"element": "C" 
			},
			{
				"x": 1.4839081483,
				"y": 0.5986934097,
				"z": 1.5534625924,
				"element": "C" 
			},
			{
				"x": 2.8612377105,
				"y": 0.6656663336,
				"z": 1.7255959201,
				"element": "N" 
			},
			{
				"x": 0.6069551338,
				"y": 0.9971515099,
				"z": 2.5494708887,
				"element": "C" 
			},
			{
				"x": -2.9626277262,
				"y": 3.1643758438,
				"z": 3.9220421271,
				"element": "H" 
			},
			{
				"x": -1.4247863839,
				"y": 3.5679772255,
				"z": 3.1383976427,
				"element": "H" 
			},
			{
				"x": -2.752549127,
				"y": 2.8957904947,
				"z": 2.1797534187,
				"element": "H" 
			},
			{
				"x": -2.597670588,
				"y": 0.7361606659,
				"z": 3.4457331999,
				"element": "H" 
			},
			{
				"x": -1.2535187573,
				"y": 1.3782394131,
				"z": 4.3968808107,
				"element": "H" 
			},
			{
				"x": 2.8005832633,
				"y": -0.1570814037,
				"z": -0.7591165436,
				"element": "H" 
			},
			{
				"x": 2.8535702545,
				"y": -1.2589207261,
				"z": -2.9143112723,
				"element": "H" 
			},
			{
				"x": 1.4561529026,
				"y": -1.6690789258,
				"z": -3.7363951796,
				"element": "H" 
			},
			{
				"x": -0.7526081832,
				"y": -1.0860291913,
				"z": -2.9792571735,
				"element": "H" 
			},
			{
				"x": -2.1535142356,
				"y": -0.3838044214,
				"z": -1.0536814911,
				"element": "H" 
			},
			{
				"x": 3.1622686424,
				"y": 0.7778645338,
				"z": 2.68401548,
				"element": "H" 
			},
			{
				"x": 3.396999762,
				"y": -0.0415318859,
				"z": 1.2422599076,
				"element": "H" 
			},
			{
				"x": 0.9939290125,
				"y": 1.3403174319,
				"z": 3.5060013385,
				"element": "H" 
			}
		],
		 "valence_orbital": [ 
			{
				"type": "occ",
				"energy": -0.27861,
				"method": "rhf"
			},
			{
				"type": "occ",
				"energy": -0.25014,
				"method": "rhf"
			},
			{
				"type": "occ",
				"energy": -0.23372,
				"method": "rhf"
			},
			{
				"type": "occ",
				"energy": -0.21872,
				"method": "rhf"
			},
			{
				"type": "occ",
				"energy": -0.18528,
				"method": "rhf"
			},
			{
				"type": "unocc",
				"energy": -0.02811,
				"method": "rhf"
			},
			{
				"type": "unocc",
				"energy": 0.00691,
				"method": "rhf"
			},
			{
				"type": "unocc",
				"energy": 0.0448,
				"method": "rhf"
			},
			{
				"type": "unocc",
				"energy": 0.07103,
				"method": "rhf"
			},
			{
				"type": "unocc",
				"energy": 0.081,
				"method": "rhf"
			}
		],
		"cosmo_sigma_profile": { 
			"-0.025": 0.0,
			"-0.024": 0.0,
			"-0.023": 0.0,
			"-0.022": 0.0,
			"-0.021": 0.0,
			"-0.02": 0.0,
			"-0.019": 0.0,
			"-0.018": 0.0,
			"-0.017": 0.0,
			"-0.016": 0.0,
			"-0.015": 0.0,
			"-0.014": 0.0152650769735,
			"-0.013": 1.81251452086,
			"-0.012": 5.21697504501,
			"-0.011": 5.99019245327,
			"-0.01": 5.66813092202,
			"-0.009": 5.94015049571,
			"-0.008": 6.50021385946,
			"-0.007": 6.16199622641,
			"-0.006": 6.32731826531,
			"-0.005": 7.35134234471,
			"-0.004": 8.90199641031,
			"-0.003": 14.382389566,
			"-0.002": 15.1554456168,
			"-0.001": 16.9035929765,
			"0.0": 17.6326163453,
			"0.001": 18.8484608961,
			"0.002": 11.5416179538,
			"0.003": 10.7071528112,
			"0.004": 18.9824474933,
			"0.005": 19.9834808245,
			"0.006": 9.02615135723,
			"0.007": 3.93813194434,
			"0.008": 3.34981150417,
			"0.009": 3.82969187793,
			"0.01": 2.76680527403,
			"0.011": 2.10567886155,
			"0.012": 1.79033322235,
			"0.013": 2.48313076637,
			"0.014": 1.28574455612,
			"0.015": 0.970412630557,
			"0.016": 0.665618269189,
			"0.017": 0.553426318312,
			"0.018": 0.195560552331,
			"0.019": 0.0,
			"0.02": 0.0,
			"0.021": 0.0,
			"0.022": 0.0,
			"0.023": 0.0,
			"0.024": 0.0,
			"0.025": 0.0
		}
	}
}
