{
	 "smiles": "CC1=NN=C(N1)C1=CC=C(C=C1)C(O)=O", 
	 "Tm": 546.15, 
	 "num_atms": 24, 
	 "gaussian": { 
		 "optdone": 1, 
		 "sigma_profile": "yes", 
		 "theory": "DFT", 
		 "functional": "B3LYP", 
		 "basiset": "6-31G**", 
		 "properties": { 
			 "R2extent": 5947.2448, 
			 "electric_dipole_moment_norm": 4.42983016492, 
			 "electric_quadrupole_moment_norm": 33.9632292196, 
			 "total_energy": -701.193081189, 
			 "HOMO_LUMO_gap": 0.1682, 
			 "cosmo_polarized_energy": -28.52, 
			 "cosmo_cavitation_energy": 29.37, 
			 "cosmo_dispersion_energy": -21.79, 
			 "cosmo_repulsion_energy": 1.68, 
			 "cosmo_total_nonelectrostatic_energy": 9.26, 
			 "SMD_solvation_energy": 4.15 
		},
		"coords": [
			{
				"x": -3.0270837206,
				"y": -0.6442375301,
				"z": -1.793334024,
				"element": "C" 
			},
			{
				"x": -2.1442120905,
				"y": 0.0080480624,
				"z": -0.7851479539,
				"element": "C" 
			},
			{
				"x": -2.283095649,
				"y": 1.2285276829,
				"z": -0.3111072838,
				"element": "N" 
			},
			{
				"x": -1.2708849366,
				"y": 1.4478526199,
				"z": 0.5908105066,
				"element": "N" 
			},
			{
				"x": -0.5317122176,
				"y": 0.3569266497,
				"z": 0.6515843089,
				"element": "C" 
			},
			{
				"x": -1.0518876284,
				"y": -0.5848281537,
				"z": -0.2062318457,
				"element": "N" 
			},
			{
				"x": 0.6485806043,
				"y": 0.1823230834,
				"z": 1.4970146787,
				"element": "C" 
			},
			{
				"x": 1.0838160618,
				"y": 1.2671077569,
				"z": 2.277829641,
				"element": "C" 
			},
			{
				"x": 2.1961349003,
				"y": 1.1381368443,
				"z": 3.0996699948,
				"element": "C" 
			},
			{
				"x": 2.904434119,
				"y": -0.0724360638,
				"z": 3.1645953257,
				"element": "C" 
			},
			{
				"x": 2.4838913467,
				"y": -1.1463487307,
				"z": 2.3697543245,
				"element": "C" 
			},
			{
				"x": 1.3660720673,
				"y": -1.024637559,
				"z": 1.5535275726,
				"element": "C" 
			},
			{
				"x": 4.1196367766,
				"y": -0.2761790391,
				"z": 4.0175640409,
				"element": "C" 
			},
			{
				"x": 4.3034797235,
				"y": 0.5949412799,
				"z": 5.0449551461,
				"element": "O" 
			},
			{
				"x": 4.9178162823,
				"y": -1.1645915024,
				"z": 3.8293703653,
				"element": "O" 
			},
			{
				"x": -3.5025783152,
				"y": -1.5467088666,
				"z": -1.3930354635,
				"element": "H" 
			},
			{
				"x": -2.473206803,
				"y": -0.9267267599,
				"z": -2.6956799348,
				"element": "H" 
			},
			{
				"x": -3.8083732031,
				"y": 0.0633131942,
				"z": -2.07409883,
				"element": "H" 
			},
			{
				"x": -0.7009198138,
				"y": -1.5120301838,
				"z": -0.3901385837,
				"element": "H" 
			},
			{
				"x": 0.537687686,
				"y": 2.2017000182,
				"z": 2.2174327596,
				"element": "H" 
			},
			{
				"x": 2.5274167612,
				"y": 2.0088982171,
				"z": 3.6606836948,
				"element": "H" 
			},
			{
				"x": 3.0497858331,
				"y": -2.0705777828,
				"z": 2.4101184658,
				"element": "H" 
			},
			{
				"x": 1.0572202657,
				"y": -1.8816503612,
				"z": 0.9612270583,
				"element": "H" 
			},
			{
				"x": 3.5160819499,
				"y": 1.1427771241,
				"z": 5.1678360359,
				"element": "H" 
			}
		],
		 "valence_orbital": [ 
			{
				"type": "occ",
				"energy": -0.30234,
				"method": "rhf"
			},
			{
				"type": "occ",
				"energy": -0.28011,
				"method": "rhf"
			},
			{
				"type": "occ",
				"energy": -0.27589,
				"method": "rhf"
			},
			{
				"type": "occ",
				"energy": -0.25975,
				"method": "rhf"
			},
			{
				"type": "occ",
				"energy": -0.23934,
				"method": "rhf"
			},
			{
				"type": "unocc",
				"energy": -0.07114,
				"method": "rhf"
			},
			{
				"type": "unocc",
				"energy": -0.029,
				"method": "rhf"
			},
			{
				"type": "unocc",
				"energy": 0.00761,
				"method": "rhf"
			},
			{
				"type": "unocc",
				"energy": 0.03077,
				"method": "rhf"
			},
			{
				"type": "unocc",
				"energy": 0.04128,
				"method": "rhf"
			}
		],
		"cosmo_sigma_profile": { 
			"-0.025": 0.0,
			"-0.024": 0.0,
			"-0.023": 0.0,
			"-0.022": 0.0,
			"-0.021": 0.0,
			"-0.02": 0.0,
			"-0.019": 0.293796066072,
			"-0.018": 1.56627049331,
			"-0.017": 2.7627913416,
			"-0.016": 1.90308437358,
			"-0.015": 2.91985774799,
			"-0.014": 1.8180884635,
			"-0.013": 3.17753401691,
			"-0.012": 2.55251542424,
			"-0.011": 1.84749083853,
			"-0.01": 3.61981446873,
			"-0.009": 2.83966403383,
			"-0.008": 3.19929668703,
			"-0.007": 6.79692067778,
			"-0.006": 13.8360191129,
			"-0.005": 12.2649381786,
			"-0.004": 12.4276562335,
			"-0.003": 12.4480543621,
			"-0.002": 16.3122086947,
			"-0.001": 15.1622272152,
			"0.0": 13.5323639587,
			"0.001": 13.9257434929,
			"0.002": 20.0840448345,
			"0.003": 8.54744428921,
			"0.004": 4.13405357868,
			"0.005": 4.67274420885,
			"0.006": 4.10009438974,
			"0.007": 4.86287348254,
			"0.008": 4.81944005443,
			"0.009": 5.37584740115,
			"0.01": 5.89820672996,
			"0.011": 8.18323745337,
			"0.012": 6.94324599526,
			"0.013": 4.0438047133,
			"0.014": 3.61857538562,
			"0.015": 2.40959031625,
			"0.016": 1.7874794743,
			"0.017": 0.757734286268,
			"0.018": 0.150545699814,
			"0.019": 0.0,
			"0.02": 0.0,
			"0.021": 0.0,
			"0.022": 0.0,
			"0.023": 0.0,
			"0.024": 0.0,
			"0.025": 0.0
		}
	}
}
