{
	 "smiles": "COC(=O)C1=NN(C(C1)C1=CC=CC=C1)C1=CC=CC=C1", 
	 "Tm": 399.15, 
	 "num_atms": 37, 
	 "gaussian": { 
		 "optdone": 1, 
		 "sigma_profile": "yes", 
		 "theory": "DFT", 
		 "functional": "B3LYP", 
		 "basiset": "6-31G**", 
		 "properties": { 
			 "R2extent": 7680.5294, 
			 "electric_dipole_moment_norm": 1.68988854958, 
			 "electric_quadrupole_moment_norm": 16.665440776, 
			 "total_energy": -917.379198304, 
			 "HOMO_LUMO_gap": 0.14534, 
			 "cosmo_polarized_energy": -13.12, 
			 "cosmo_cavitation_energy": 41.15, 
			 "cosmo_dispersion_energy": -28.48, 
			 "cosmo_repulsion_energy": 2.21, 
			 "cosmo_total_nonelectrostatic_energy": 14.88, 
			 "SMD_solvation_energy": 7.66 
		},
		"coords": [
			{
				"x": 2.0319446185,
				"y": 4.4506176379,
				"z": -0.5141146131,
				"element": "C" 
			},
			{
				"x": 1.7693842655,
				"y": 3.1597740922,
				"z": 0.0542977648,
				"element": "O" 
			},
			{
				"x": 1.9430164519,
				"y": 2.1221533236,
				"z": -0.7907495936,
				"element": "C" 
			},
			{
				"x": 2.290452835,
				"y": 2.240177777,
				"z": -1.9543387044,
				"element": "O" 
			},
			{
				"x": 1.6776551007,
				"y": 0.813089731,
				"z": -0.1814042078,
				"element": "C" 
			},
			{
				"x": 1.3360653691,
				"y": 0.6505954541,
				"z": 1.057486479,
				"element": "N" 
			},
			{
				"x": 1.1505661733,
				"y": -0.6599799575,
				"z": 1.3096044225,
				"element": "N" 
			},
			{
				"x": 1.3513852572,
				"y": -1.5250422416,
				"z": 0.1151571635,
				"element": "C" 
			},
			{
				"x": 1.8044956248,
				"y": -0.4814022182,
				"z": -0.9489906007,
				"element": "C" 
			},
			{
				"x": 0.101431048,
				"y": -2.2920677294,
				"z": -0.2879244548,
				"element": "C" 
			},
			{
				"x": -1.1690315786,
				"y": -1.7116896787,
				"z": -0.1862154074,
				"element": "C" 
			},
			{
				"x": -2.2986739792,
				"y": -2.4072339338,
				"z": -0.6168198735,
				"element": "C" 
			},
			{
				"x": -2.1728966237,
				"y": -3.6893276268,
				"z": -1.1567883588,
				"element": "C" 
			},
			{
				"x": -0.9102057117,
				"y": -4.2743972513,
				"z": -1.2604427145,
				"element": "C" 
			},
			{
				"x": 0.2195353866,
				"y": -3.5789791342,
				"z": -0.8258030007,
				"element": "C" 
			},
			{
				"x": 0.9656809607,
				"y": -1.1099307794,
				"z": 2.6262573766,
				"element": "C" 
			},
			{
				"x": 0.8887019202,
				"y": -0.1881044647,
				"z": 3.6865356499,
				"element": "C" 
			},
			{
				"x": 0.7121200824,
				"y": -0.6445542938,
				"z": 4.9883716695,
				"element": "C" 
			},
			{
				"x": 0.6118432106,
				"y": -2.0113101542,
				"z": 5.2655624663,
				"element": "C" 
			},
			{
				"x": 0.6885348349,
				"y": -2.9212218079,
				"z": 4.2123190065,
				"element": "C" 
			},
			{
				"x": 0.8625458623,
				"y": -2.4840016477,
				"z": 2.8988810249,
				"element": "C" 
			},
			{
				"x": 1.3698846214,
				"y": 4.6432589535,
				"z": -1.362557018,
				"element": "H" 
			},
			{
				"x": 3.0679190295,
				"y": 4.5207864922,
				"z": -0.8564472615,
				"element": "H" 
			},
			{
				"x": 1.845086879,
				"y": 5.1661176384,
				"z": 0.2866612038,
				"element": "H" 
			},
			{
				"x": 2.1543565435,
				"y": -2.2399866196,
				"z": 0.3288726946,
				"element": "H" 
			},
			{
				"x": 1.1676634547,
				"y": -0.4976214781,
				"z": -1.8373773394,
				"element": "H" 
			},
			{
				"x": 2.8329187319,
				"y": -0.642919057,
				"z": -1.2877879344,
				"element": "H" 
			},
			{
				"x": -1.2720002276,
				"y": -0.7190292899,
				"z": 0.2426224606,
				"element": "H" 
			},
			{
				"x": -3.2791486137,
				"y": -1.9482828039,
				"z": -0.5277416107,
				"element": "H" 
			},
			{
				"x": -3.0539399359,
				"y": -4.2300143555,
				"z": -1.4899050093,
				"element": "H" 
			},
			{
				"x": -0.8033315234,
				"y": -5.2730521734,
				"z": -1.6742265057,
				"element": "H" 
			},
			{
				"x": 1.2014969805,
				"y": -4.0402810602,
				"z": -0.9052350644,
				"element": "H" 
			},
			{
				"x": 0.9739672018,
				"y": 0.8697555217,
				"z": 3.4723153059,
				"element": "H" 
			},
			{
				"x": 0.6555680733,
				"y": 0.0793680612,
				"z": 5.7966247474,
				"element": "H" 
			},
			{
				"x": 0.4750856339,
				"y": -2.3583772827,
				"z": 6.2849797945,
				"element": "H" 
			},
			{
				"x": 0.6096384866,
				"y": -3.9874004958,
				"z": 4.4053451279,
				"element": "H" 
			},
			{
				"x": 0.899283556,
				"y": -3.2096871475,
				"z": 2.0955749146,
				"element": "H" 
			}
		],
		 "valence_orbital": [ 
			{
				"type": "occ",
				"energy": -0.27025,
				"method": "rhf"
			},
			{
				"type": "occ",
				"energy": -0.25783,
				"method": "rhf"
			},
			{
				"type": "occ",
				"energy": -0.2527,
				"method": "rhf"
			},
			{
				"type": "occ",
				"energy": -0.24591,
				"method": "rhf"
			},
			{
				"type": "occ",
				"energy": -0.19645,
				"method": "rhf"
			},
			{
				"type": "unocc",
				"energy": -0.05111,
				"method": "rhf"
			},
			{
				"type": "unocc",
				"energy": -0.01247,
				"method": "rhf"
			},
			{
				"type": "unocc",
				"energy": -0.01124,
				"method": "rhf"
			},
			{
				"type": "unocc",
				"energy": 0.00384,
				"method": "rhf"
			},
			{
				"type": "unocc",
				"energy": 0.02087,
				"method": "rhf"
			}
		],
		"cosmo_sigma_profile": { 
			"-0.025": 0.0,
			"-0.024": 0.0,
			"-0.023": 0.0,
			"-0.022": 0.0,
			"-0.021": 0.0,
			"-0.02": 0.0,
			"-0.019": 0.0,
			"-0.018": 0.0,
			"-0.017": 0.0,
			"-0.016": 0.0,
			"-0.015": 0.0,
			"-0.014": 0.0,
			"-0.013": 0.0,
			"-0.012": 0.0,
			"-0.011": 0.0,
			"-0.01": 0.0,
			"-0.009": 0.0,
			"-0.008": 0.0,
			"-0.007": 4.42644882665,
			"-0.006": 21.139600082,
			"-0.005": 31.4386341395,
			"-0.004": 34.4584752531,
			"-0.003": 36.4022462339,
			"-0.002": 25.6334960358,
			"-0.001": 19.5820851615,
			"0.0": 18.3708597854,
			"0.001": 17.3577292081,
			"0.002": 19.011003028,
			"0.003": 19.4598306073,
			"0.004": 21.2011733477,
			"0.005": 21.3844840333,
			"0.006": 14.273091489,
			"0.007": 3.59228668257,
			"0.008": 2.84327270963,
			"0.009": 2.89751273625,
			"0.01": 3.40917582515,
			"0.011": 3.62112086352,
			"0.012": 6.29977749326,
			"0.013": 1.63166717349,
			"0.014": 0.0,
			"0.015": 0.0,
			"0.016": 0.0,
			"0.017": 0.0,
			"0.018": 0.0,
			"0.019": 0.0,
			"0.02": 0.0,
			"0.021": 0.0,
			"0.022": 0.0,
			"0.023": 0.0,
			"0.024": 0.0,
			"0.025": 0.0
		}
	}
}
