{
	 "smiles": "COC1=CC=C(C=C1)C1=CSC(=N1)C(=CC1=C(Cl)C=CC=C1)C#N", 
	 "Tm": 495.15, 
	 "num_atms": 37, 
	 "gaussian": { 
		 "optdone": 1, 
		 "sigma_profile": "yes", 
		 "theory": "DFT", 
		 "functional": "B3LYP", 
		 "basiset": "6-31G**", 
		 "properties": { 
			 "R2extent": 14089.3828, 
			 "electric_dipole_moment_norm": 3.54082238188, 
			 "electric_quadrupole_moment_norm": 20.4524912204, 
			 "total_energy": -1774.92304058, 
			 "HOMO_LUMO_gap": 0.1109, 
			 "cosmo_polarized_energy": -12.97, 
			 "cosmo_cavitation_energy": 46.57, 
			 "cosmo_dispersion_energy": -33.15, 
			 "cosmo_repulsion_energy": 2.43, 
			 "cosmo_total_nonelectrostatic_energy": 15.85, 
			 "SMD_solvation_energy": 8.21 
		},
		"coords": [
			{
				"x": -0.2636573821,
				"y": -6.150195818,
				"z": -0.6916811291,
				"element": "C" 
			},
			{
				"x": -0.949410554,
				"y": -5.5795472378,
				"z": 0.4122773092,
				"element": "O" 
			},
			{
				"x": -0.9396983676,
				"y": -4.2234059266,
				"z": 0.5473007977,
				"element": "C" 
			},
			{
				"x": -0.2997658149,
				"y": -3.3363451633,
				"z": -0.3260794,
				"element": "C" 
			},
			{
				"x": -0.358753972,
				"y": -1.9636502341,
				"z": -0.0847396738,
				"element": "C" 
			},
			{
				"x": -1.0471610411,
				"y": -1.4419387573,
				"z": 1.0183026145,
				"element": "C" 
			},
			{
				"x": -1.6850233878,
				"y": -2.3503112503,
				"z": 1.884777424,
				"element": "C" 
			},
			{
				"x": -1.6345239149,
				"y": -3.7162058056,
				"z": 1.6573062758,
				"element": "C" 
			},
			{
				"x": -1.0894267329,
				"y": 0.013874103,
				"z": 1.244793294,
				"element": "C" 
			},
			{
				"x": -1.7087792204,
				"y": 0.6678153453,
				"z": 2.2892636108,
				"element": "C" 
			},
			{
				"x": -1.5050521675,
				"y": 2.3755143437,
				"z": 2.1608142216,
				"element": "S" 
			},
			{
				"x": -0.5828327949,
				"y": 2.1118958114,
				"z": 0.6846744582,
				"element": "C" 
			},
			{
				"x": -0.4593613404,
				"y": 0.8559062033,
				"z": 0.3540640616,
				"element": "N" 
			},
			{
				"x": -0.017198062,
				"y": 3.2281557131,
				"z": -0.0906277353,
				"element": "C" 
			},
			{
				"x": 0.6465074747,
				"y": 2.9805893892,
				"z": -1.2561218742,
				"element": "C" 
			},
			{
				"x": 1.3104919381,
				"y": 3.892611562,
				"z": -2.1768305354,
				"element": "C" 
			},
			{
				"x": 1.6186652039,
				"y": 3.4727451073,
				"z": -3.4946457126,
				"element": "C" 
			},
			{
				"x": 1.1624182544,
				"y": 1.871347871,
				"z": -4.0654026603,
				"element": "Cl" 
			},
			{
				"x": 2.2733663076,
				"y": 4.3035555666,
				"z": -4.3999886957,
				"element": "C" 
			},
			{
				"x": 2.651758947,
				"y": 5.587555564,
				"z": -4.011316657,
				"element": "C" 
			},
			{
				"x": 2.3744111661,
				"y": 6.0314108849,
				"z": -2.716906026,
				"element": "C" 
			},
			{
				"x": 1.7186476106,
				"y": 5.1977048628,
				"z": -1.8198448879,
				"element": "C" 
			},
			{
				"x": -0.2401486076,
				"y": 4.5385042206,
				"z": 0.443966726,
				"element": "C" 
			},
			{
				"x": -0.4479034523,
				"y": 5.5835586742,
				"z": 0.913675382,
				"element": "N" 
			},
			{
				"x": -0.3988828745,
				"y": -7.2293279973,
				"z": -0.6051253074,
				"element": "H" 
			},
			{
				"x": 0.8086367623,
				"y": -5.9176219675,
				"z": -0.6661632237,
				"element": "H" 
			},
			{
				"x": -0.6815077379,
				"y": -5.8096350251,
				"z": -1.6476991257,
				"element": "H" 
			},
			{
				"x": 0.2435671114,
				"y": -3.6981777162,
				"z": -1.1908965045,
				"element": "H" 
			},
			{
				"x": 0.1370489354,
				"y": -1.2775237333,
				"z": -0.7618991459,
				"element": "H" 
			},
			{
				"x": -2.2314036655,
				"y": -1.9884080129,
				"z": 2.7505406045,
				"element": "H" 
			},
			{
				"x": -2.1261831908,
				"y": -4.4163899315,
				"z": 2.3245510603,
				"element": "H" 
			},
			{
				"x": -2.2616908242,
				"y": 0.2479596977,
				"z": 3.1161642259,
				"element": "H" 
			},
			{
				"x": 0.6638085946,
				"y": 1.9319391315,
				"z": -1.5333145696,
				"element": "H" 
			},
			{
				"x": 2.4802352604,
				"y": 3.9415133126,
				"z": -5.4006871624,
				"element": "H" 
			},
			{
				"x": 3.1635358503,
				"y": 6.2331180483,
				"z": -4.7184466559,
				"element": "H" 
			},
			{
				"x": 2.6742862537,
				"y": 7.0259073236,
				"z": -2.4023953642,
				"element": "H" 
			},
			{
				"x": 1.529779435,
				"y": 5.5535018405,
				"z": -0.8152600197,
				"element": "H" 
			}
		],
		 "valence_orbital": [ 
			{
				"type": "occ",
				"energy": -0.27812,
				"method": "rhf"
			},
			{
				"type": "occ",
				"energy": -0.26197,
				"method": "rhf"
			},
			{
				"type": "occ",
				"energy": -0.25478,
				"method": "rhf"
			},
			{
				"type": "occ",
				"energy": -0.23678,
				"method": "rhf"
			},
			{
				"type": "occ",
				"energy": -0.2043,
				"method": "rhf"
			},
			{
				"type": "unocc",
				"energy": -0.0934,
				"method": "rhf"
			},
			{
				"type": "unocc",
				"energy": -0.03274,
				"method": "rhf"
			},
			{
				"type": "unocc",
				"energy": -0.02404,
				"method": "rhf"
			},
			{
				"type": "unocc",
				"energy": -0.00694,
				"method": "rhf"
			},
			{
				"type": "unocc",
				"energy": 0.00037,
				"method": "rhf"
			}
		],
		"cosmo_sigma_profile": { 
			"-0.025": 0.0,
			"-0.024": 0.0,
			"-0.023": 0.0,
			"-0.022": 0.0,
			"-0.021": 0.0,
			"-0.02": 0.0,
			"-0.019": 0.0,
			"-0.018": 0.0,
			"-0.017": 0.0,
			"-0.016": 0.0,
			"-0.015": 0.0,
			"-0.014": 0.0,
			"-0.013": 0.0,
			"-0.012": 0.0,
			"-0.011": 0.0,
			"-0.01": 1.23411157405,
			"-0.009": 2.77208158028,
			"-0.008": 4.19840894657,
			"-0.007": 9.3278518435,
			"-0.006": 18.7325670849,
			"-0.005": 24.9862294763,
			"-0.004": 24.9214582034,
			"-0.003": 25.9898015747,
			"-0.002": 24.5178598087,
			"-0.001": 30.3243458065,
			"0.0": 34.4166697288,
			"0.001": 40.3955558061,
			"0.002": 38.6128760633,
			"0.003": 31.6590846982,
			"0.004": 24.4509789872,
			"0.005": 16.6938933336,
			"0.006": 5.89422082284,
			"0.007": 4.8559019437,
			"0.008": 4.46175537152,
			"0.009": 3.91775630115,
			"0.01": 3.98237105075,
			"0.011": 2.64610756045,
			"0.012": 1.73194858012,
			"0.013": 0.12145345239,
			"0.014": 0.0,
			"0.015": 0.0,
			"0.016": 0.0,
			"0.017": 0.0,
			"0.018": 0.0,
			"0.019": 0.0,
			"0.02": 0.0,
			"0.021": 0.0,
			"0.022": 0.0,
			"0.023": 0.0,
			"0.024": 0.0,
			"0.025": 0.0
		}
	}
}
