{
	 "smiles": "ClC1=CC=C(C=C1)C(=O)C1=CC=C(Cl)C=C1", 
	 "Tm": 419.15, 
	 "num_atms": 24, 
	 "gaussian": { 
		 "optdone": 1, 
		 "sigma_profile": "yes", 
		 "theory": "DFT", 
		 "functional": "B3LYP", 
		 "basiset": "6-31G**", 
		 "properties": { 
			 "R2extent": 6914.8022, 
			 "electric_dipole_moment_norm": 1.41330362626, 
			 "electric_quadrupole_moment_norm": 6.47327656137, 
			 "total_energy": -1495.81759265, 
			 "HOMO_LUMO_gap": 0.17572, 
			 "cosmo_polarized_energy": -8.75, 
			 "cosmo_cavitation_energy": 32.7, 
			 "cosmo_dispersion_energy": -24.0, 
			 "cosmo_repulsion_energy": 1.86, 
			 "cosmo_total_nonelectrostatic_energy": 10.56, 
			 "SMD_solvation_energy": 5.35 
		},
		"coords": [
			{
				"x": -4.2523795348,
				"y": 2.9076647637,
				"z": -1.6585107209,
				"element": "Cl" 
			},
			{
				"x": -3.1923899797,
				"y": 1.7515515802,
				"z": -0.8730144682,
				"element": "C" 
			},
			{
				"x": -3.5358338418,
				"y": 0.3970865497,
				"z": -0.8734092926,
				"element": "C" 
			},
			{
				"x": -2.6930669093,
				"y": -0.5117359642,
				"z": -0.2440461019,
				"element": "C" 
			},
			{
				"x": -1.4985801231,
				"y": -0.0895320768,
				"z": 0.362009475,
				"element": "C" 
			},
			{
				"x": -1.1819902592,
				"y": 1.277254947,
				"z": 0.3570541001,
				"element": "C" 
			},
			{
				"x": -2.0275140135,
				"y": 2.2028731187,
				"z": -0.2538083319,
				"element": "C" 
			},
			{
				"x": -0.6715777825,
				"y": -1.1246569775,
				"z": 1.0645571367,
				"element": "C" 
			},
			{
				"x": -1.2094786477,
				"y": -2.1355826075,
				"z": 1.5032764297,
				"element": "O" 
			},
			{
				"x": 0.8065554806,
				"y": -0.9372559991,
				"z": 1.2348006695,
				"element": "C" 
			},
			{
				"x": 1.4269652309,
				"y": -1.5955934404,
				"z": 2.3090647031,
				"element": "C" 
			},
			{
				"x": 2.8004585578,
				"y": -1.5081282264,
				"z": 2.5044320314,
				"element": "C" 
			},
			{
				"x": 3.5681168304,
				"y": -0.7738333941,
				"z": 1.5966606005,
				"element": "C" 
			},
			{
				"x": 5.3031360334,
				"y": -0.6627110568,
				"z": 1.8301348824,
				"element": "Cl" 
			},
			{
				"x": 2.9828248468,
				"y": -0.1341689933,
				"z": 0.5047305664,
				"element": "C" 
			},
			{
				"x": 1.601322072,
				"y": -0.2147887597,
				"z": 0.332155967,
				"element": "C" 
			},
			{
				"x": -4.4507305455,
				"y": 0.0691550697,
				"z": -1.3541381093,
				"element": "H" 
			},
			{
				"x": -2.9463283525,
				"y": -1.5659500383,
				"z": -0.2086227803,
				"element": "H" 
			},
			{
				"x": -0.2860820225,
				"y": 1.6315101382,
				"z": 0.8554075251,
				"element": "H" 
			},
			{
				"x": -1.790044479,
				"y": 3.2607247268,
				"z": -0.2465689808,
				"element": "H" 
			},
			{
				"x": 0.8095579296,
				"y": -2.1779787924,
				"z": 2.9846310156,
				"element": "H" 
			},
			{
				"x": 3.2775565618,
				"y": -2.0042804847,
				"z": 3.3422209985,
				"element": "H" 
			},
			{
				"x": 3.5991251991,
				"y": 0.413020534,
				"z": -0.199723551,
				"element": "H" 
			},
			{
				"x": 1.1493777486,
				"y": 0.2667553832,
				"z": -0.528293764,
				"element": "H" 
			}
		],
		 "valence_orbital": [ 
			{
				"type": "occ",
				"energy": -0.27884,
				"method": "rhf"
			},
			{
				"type": "occ",
				"energy": -0.27674,
				"method": "rhf"
			},
			{
				"type": "occ",
				"energy": -0.2681,
				"method": "rhf"
			},
			{
				"type": "occ",
				"energy": -0.25992,
				"method": "rhf"
			},
			{
				"type": "occ",
				"energy": -0.25354,
				"method": "rhf"
			},
			{
				"type": "unocc",
				"energy": -0.07782,
				"method": "rhf"
			},
			{
				"type": "unocc",
				"energy": -0.03296,
				"method": "rhf"
			},
			{
				"type": "unocc",
				"energy": -0.02749,
				"method": "rhf"
			},
			{
				"type": "unocc",
				"energy": -0.02312,
				"method": "rhf"
			},
			{
				"type": "unocc",
				"energy": 0.02026,
				"method": "rhf"
			}
		],
		"cosmo_sigma_profile": { 
			"-0.025": 0.0,
			"-0.024": 0.0,
			"-0.023": 0.0,
			"-0.022": 0.0,
			"-0.021": 0.0,
			"-0.02": 0.0,
			"-0.019": 0.0,
			"-0.018": 0.0,
			"-0.017": 0.0,
			"-0.016": 0.0,
			"-0.015": 0.0,
			"-0.014": 0.0,
			"-0.013": 0.0,
			"-0.012": 0.0,
			"-0.011": 0.0,
			"-0.01": 0.0,
			"-0.009": 0.0,
			"-0.008": 3.29691437566,
			"-0.007": 12.170574029,
			"-0.006": 15.4246204345,
			"-0.005": 15.351703216,
			"-0.004": 14.7296149909,
			"-0.003": 15.1275477644,
			"-0.002": 16.9177597177,
			"-0.001": 18.1991319885,
			"0.0": 23.0249734405,
			"0.001": 32.5042856536,
			"0.002": 37.2305229212,
			"0.003": 21.532700297,
			"0.004": 21.9680262473,
			"0.005": 5.43201536574,
			"0.006": 1.4188186625,
			"0.007": 1.89666642291,
			"0.008": 1.96154845267,
			"0.009": 1.37466238427,
			"0.01": 2.65835070035,
			"0.011": 3.08944323983,
			"0.012": 3.00633352961,
			"0.013": 0.106150949871,
			"0.014": 0.0,
			"0.015": 0.0,
			"0.016": 0.0,
			"0.017": 0.0,
			"0.018": 0.0,
			"0.019": 0.0,
			"0.02": 0.0,
			"0.021": 0.0,
			"0.022": 0.0,
			"0.023": 0.0,
			"0.024": 0.0,
			"0.025": 0.0
		}
	}
}
