{
	 "smiles": "COC1=CC(=CC=C1)C(N)CC(O)=O", 
	 "Tm": 497.15, 
	 "num_atms": 27, 
	 "gaussian": { 
		 "optdone": 1, 
		 "sigma_profile": "yes", 
		 "theory": "DFT", 
		 "functional": "B3LYP", 
		 "basiset": "6-31G**", 
		 "properties": { 
			 "R2extent": 4125.8664, 
			 "electric_dipole_moment_norm": 6.49541656324, 
			 "electric_quadrupole_moment_norm": 24.7431546336, 
			 "total_energy": -669.328649811, 
			 "HOMO_LUMO_gap": 0.21181, 
			 "cosmo_polarized_energy": -19.96, 
			 "cosmo_cavitation_energy": 30.39, 
			 "cosmo_dispersion_energy": -21.78, 
			 "cosmo_repulsion_energy": 1.74, 
			 "cosmo_total_nonelectrostatic_energy": 10.36, 
			 "SMD_solvation_energy": 6.8 
		},
		"coords": [
			{
				"x": 0.6383632039,
				"y": -1.5978682827,
				"z": 4.6433872331,
				"element": "C" 
			},
			{
				"x": 1.8799263613,
				"y": -1.3998240707,
				"z": 3.9857235718,
				"element": "O" 
			},
			{
				"x": 1.8745709113,
				"y": -1.1429057256,
				"z": 2.6467840745,
				"element": "C" 
			},
			{
				"x": 0.7235861207,
				"y": -1.075971033,
				"z": 1.8558755277,
				"element": "C" 
			},
			{
				"x": 0.8239543158,
				"y": -0.8014921406,
				"z": 0.480602405,
				"element": "C" 
			},
			{
				"x": 2.0818094239,
				"y": -0.5940689047,
				"z": -0.0870687591,
				"element": "C" 
			},
			{
				"x": 3.2315850797,
				"y": -0.6615674059,
				"z": 0.7089233222,
				"element": "C" 
			},
			{
				"x": 3.136554643,
				"y": -0.9351338907,
				"z": 2.065865706,
				"element": "C" 
			},
			{
				"x": -0.4241396073,
				"y": -0.755872822,
				"z": -0.3898956036,
				"element": "C" 
			},
			{
				"x": -1.1023716619,
				"y": -2.0723034795,
				"z": -0.5309038776,
				"element": "N" 
			},
			{
				"x": -1.4624524831,
				"y": 0.2789528021,
				"z": 0.0904510992,
				"element": "C" 
			},
			{
				"x": -2.6553366765,
				"y": 0.5031001966,
				"z": -0.8528263804,
				"element": "C" 
			},
			{
				"x": -3.1015137907,
				"y": -0.581042516,
				"z": -1.5040252066,
				"element": "O" 
			},
			{
				"x": -3.1743922273,
				"y": 1.5891464344,
				"z": -0.9758390086,
				"element": "O" 
			},
			{
				"x": -0.007267108,
				"y": -0.7137311559,
				"z": 4.5652456271,
				"element": "H" 
			},
			{
				"x": 0.8782118275,
				"y": -1.7746214294,
				"z": 5.692738874,
				"element": "H" 
			},
			{
				"x": 0.1030902648,
				"y": -2.4701051282,
				"z": 4.2456490126,
				"element": "H" 
			},
			{
				"x": -0.2527628233,
				"y": -1.2261986252,
				"z": 2.3039392619,
				"element": "H" 
			},
			{
				"x": 2.1669345173,
				"y": -0.3772518176,
				"z": -1.14836525,
				"element": "H" 
			},
			{
				"x": 4.2082681828,
				"y": -0.4980348431,
				"z": 0.2627412736,
				"element": "H" 
			},
			{
				"x": 4.0146771511,
				"y": -0.9907703028,
				"z": 2.7004436767,
				"element": "H" 
			},
			{
				"x": -0.114178332,
				"y": -0.473506547,
				"z": -1.4024900913,
				"element": "H" 
			},
			{
				"x": -1.2773352059,
				"y": -2.4726468708,
				"z": 0.3894267298,
				"element": "H" 
			},
			{
				"x": -0.4968027743,
				"y": -2.7279611378,
				"z": -1.0193995032,
				"element": "H" 
			},
			{
				"x": -0.9880151067,
				"y": 1.2498431762,
				"z": 0.2427362214,
				"element": "H" 
			},
			{
				"x": -1.8667408523,
				"y": -0.0296211683,
				"z": 1.0648755457,
				"element": "H" 
			},
			{
				"x": -2.5210233537,
				"y": -1.3559433118,
				"z": -1.2641954822,
				"element": "H" 
			}
		],
		 "valence_orbital": [ 
			{
				"type": "occ",
				"energy": -0.28756,
				"method": "rhf"
			},
			{
				"type": "occ",
				"energy": -0.2848,
				"method": "rhf"
			},
			{
				"type": "occ",
				"energy": -0.26219,
				"method": "rhf"
			},
			{
				"type": "occ",
				"energy": -0.24421,
				"method": "rhf"
			},
			{
				"type": "occ",
				"energy": -0.23271,
				"method": "rhf"
			},
			{
				"type": "unocc",
				"energy": -0.0209,
				"method": "rhf"
			},
			{
				"type": "unocc",
				"energy": -0.00254,
				"method": "rhf"
			},
			{
				"type": "unocc",
				"energy": 0.03027,
				"method": "rhf"
			},
			{
				"type": "unocc",
				"energy": 0.05738,
				"method": "rhf"
			},
			{
				"type": "unocc",
				"energy": 0.08043,
				"method": "rhf"
			}
		],
		"cosmo_sigma_profile": { 
			"-0.025": 0.0,
			"-0.024": 0.0,
			"-0.023": 0.0,
			"-0.022": 0.0,
			"-0.021": 0.0,
			"-0.02": 0.0,
			"-0.019": 0.0,
			"-0.018": 0.0,
			"-0.017": 0.0,
			"-0.016": 0.0,
			"-0.015": 0.0,
			"-0.014": 0.0,
			"-0.013": 0.0,
			"-0.012": 1.01879502595,
			"-0.011": 3.81011069578,
			"-0.01": 4.0509130877,
			"-0.009": 4.15123827738,
			"-0.008": 4.06158204512,
			"-0.007": 5.73146451094,
			"-0.006": 16.4502232378,
			"-0.005": 23.5630886679,
			"-0.004": 20.2637559359,
			"-0.003": 21.6052806486,
			"-0.002": 14.5787135437,
			"-0.001": 11.8196107633,
			"0.0": 10.539857425,
			"0.001": 9.80262018975,
			"0.002": 8.84731817886,
			"0.003": 10.4702514507,
			"0.004": 12.8313974658,
			"0.005": 11.9967999754,
			"0.006": 8.03549511292,
			"0.007": 3.74737636231,
			"0.008": 3.56527918568,
			"0.009": 3.85674584417,
			"0.01": 4.27264769382,
			"0.011": 4.3612178648,
			"0.012": 6.71691026508,
			"0.013": 6.33903555404,
			"0.014": 2.90238687737,
			"0.015": 0.241013499257,
			"0.016": 0.0,
			"0.017": 0.0,
			"0.018": 0.0,
			"0.019": 0.0,
			"0.02": 0.0,
			"0.021": 0.0,
			"0.022": 0.0,
			"0.023": 0.0,
			"0.024": 0.0,
			"0.025": 0.0
		}
	}
}
