{
	 "smiles": "CCOC(=O)C1=C(N)C(=C(SC)S1)S(=O)(=O)C(C)C", 
	 "Tm": 417.15, 
	 "num_atms": 36, 
	 "gaussian": { 
		 "optdone": 1, 
		 "sigma_profile": "yes", 
		 "theory": "DFT", 
		 "functional": "B3LYP", 
		 "basiset": "6-31G**", 
		 "properties": { 
			 "R2extent": 9224.1534, 
			 "electric_dipole_moment_norm": 3.31402670629, 
			 "electric_quadrupole_moment_norm": 17.8323394817, 
			 "total_energy": -1979.58348317, 
			 "HOMO_LUMO_gap": 0.15356, 
			 "cosmo_polarized_energy": -15.61, 
			 "cosmo_cavitation_energy": 42.27, 
			 "cosmo_dispersion_energy": -30.43, 
			 "cosmo_repulsion_energy": 2.25, 
			 "cosmo_total_nonelectrostatic_energy": 14.08, 
			 "SMD_solvation_energy": 7.43 
		},
		"coords": [
			{
				"x": -1.3011574799,
				"y": -4.0479357356,
				"z": -0.1510500146,
				"element": "C" 
			},
			{
				"x": 0.141534492,
				"y": -3.7475416905,
				"z": 0.2078449585,
				"element": "C" 
			},
			{
				"x": 0.2776675214,
				"y": -2.3091366076,
				"z": 0.3067682705,
				"element": "O" 
			},
			{
				"x": 1.5266323474,
				"y": -1.8589265471,
				"z": 0.6236751694,
				"element": "C" 
			},
			{
				"x": 2.4721749278,
				"y": -2.605425536,
				"z": 0.807508773,
				"element": "O" 
			},
			{
				"x": 1.5948162357,
				"y": -0.4076727576,
				"z": 0.721758074,
				"element": "C" 
			},
			{
				"x": 0.6092803602,
				"y": 0.5652829085,
				"z": 0.5487076642,
				"element": "C" 
			},
			{
				"x": -0.6798676558,
				"y": 0.3285168265,
				"z": 0.155203773,
				"element": "N" 
			},
			{
				"x": 1.1461415684,
				"y": 1.8933347811,
				"z": 0.766353221,
				"element": "C" 
			},
			{
				"x": 2.4924860601,
				"y": 1.8993749663,
				"z": 1.1045039604,
				"element": "C" 
			},
			{
				"x": 3.6509121602,
				"y": 3.2122133476,
				"z": 1.3825100472,
				"element": "S" 
			},
			{
				"x": 3.1193122442,
				"y": 3.8759368566,
				"z": 3.0096802755,
				"element": "C" 
			},
			{
				"x": 3.1306609201,
				"y": 0.2930949402,
				"z": 1.1635342537,
				"element": "S" 
			},
			{
				"x": 0.1092374687,
				"y": 3.3389490082,
				"z": 0.521410775,
				"element": "S" 
			},
			{
				"x": 0.7440443299,
				"y": 4.530247775,
				"z": 1.106493705,
				"element": "O" 
			},
			{
				"x": -1.2508527974,
				"y": 2.9570571076,
				"z": 0.971454836,
				"element": "O" 
			},
			{
				"x": 0.0380529573,
				"y": 3.5452410966,
				"z": -1.3068597489,
				"element": "C" 
			},
			{
				"x": 1.4104638701,
				"y": 3.9148916116,
				"z": -1.8664319069,
				"element": "C" 
			},
			{
				"x": -1.0437015033,
				"y": 4.5850748011,
				"z": -1.6166543918,
				"element": "C" 
			},
			{
				"x": -1.5722636063,
				"y": -3.5900453166,
				"z": -1.1070284257,
				"element": "H" 
			},
			{
				"x": -1.4421955932,
				"y": -5.1295815782,
				"z": -0.2385666532,
				"element": "H" 
			},
			{
				"x": -1.984292763,
				"y": -3.6771377151,
				"z": 0.6191508644,
				"element": "H" 
			},
			{
				"x": 0.4298946929,
				"y": -4.1942919269,
				"z": 1.1640581179,
				"element": "H" 
			},
			{
				"x": 0.8394395467,
				"y": -4.1136325211,
				"z": -0.5509132679,
				"element": "H" 
			},
			{
				"x": -1.3581532837,
				"y": 1.0247632232,
				"z": 0.4445401807,
				"element": "H" 
			},
			{
				"x": -0.9611664295,
				"y": -0.6415120625,
				"z": 0.1765819559,
				"element": "H" 
			},
			{
				"x": 2.1368996121,
				"y": 4.3360161317,
				"z": 2.9189015577,
				"element": "H" 
			},
			{
				"x": 3.1299524856,
				"y": 3.0865974368,
				"z": 3.7631286522,
				"element": "H" 
			},
			{
				"x": 3.865908919,
				"y": 4.6313261953,
				"z": 3.2668966627,
				"element": "H" 
			},
			{
				"x": -0.2758874258,
				"y": 2.5552248215,
				"z": -1.6577960472,
				"element": "H" 
			},
			{
				"x": 1.3365933369,
				"y": 4.0132088108,
				"z": -2.9541372619,
				"element": "H" 
			},
			{
				"x": 2.1624495617,
				"y": 3.1527886,
				"z": -1.6479533331,
				"element": "H" 
			},
			{
				"x": 1.7537473534,
				"y": 4.8666515898,
				"z": -1.4534163654,
				"element": "H" 
			},
			{
				"x": -1.1514174063,
				"y": 4.6716635411,
				"z": -2.7022147498,
				"element": "H" 
			},
			{
				"x": -0.7633761616,
				"y": 5.5652353292,
				"z": -1.2203559183,
				"element": "H" 
			},
			{
				"x": -2.007570866,
				"y": 4.2981482887,
				"z": -1.1914876632,
				"element": "H" 
			}
		],
		 "valence_orbital": [ 
			{
				"type": "occ",
				"energy": -0.29148,
				"method": "rhf"
			},
			{
				"type": "occ",
				"energy": -0.27695,
				"method": "rhf"
			},
			{
				"type": "occ",
				"energy": -0.26903,
				"method": "rhf"
			},
			{
				"type": "occ",
				"energy": -0.23969,
				"method": "rhf"
			},
			{
				"type": "occ",
				"energy": -0.21935,
				"method": "rhf"
			},
			{
				"type": "unocc",
				"energy": -0.06579,
				"method": "rhf"
			},
			{
				"type": "unocc",
				"energy": -0.0087,
				"method": "rhf"
			},
			{
				"type": "unocc",
				"energy": 0.01378,
				"method": "rhf"
			},
			{
				"type": "unocc",
				"energy": 0.03303,
				"method": "rhf"
			},
			{
				"type": "unocc",
				"energy": 0.05885,
				"method": "rhf"
			}
		],
		"cosmo_sigma_profile": { 
			"-0.025": 0.0,
			"-0.024": 0.0,
			"-0.023": 0.0,
			"-0.022": 0.0,
			"-0.021": 0.0,
			"-0.02": 0.0,
			"-0.019": 0.0,
			"-0.018": 0.0,
			"-0.017": 0.0,
			"-0.016": 0.0,
			"-0.015": 0.0,
			"-0.014": 0.0,
			"-0.013": 0.0,
			"-0.012": 0.0,
			"-0.011": 0.0602982769329,
			"-0.01": 1.19907001884,
			"-0.009": 1.32243734718,
			"-0.008": 1.97767797302,
			"-0.007": 4.23887170082,
			"-0.006": 9.48622287375,
			"-0.005": 21.3150160396,
			"-0.004": 33.6917751966,
			"-0.003": 36.0143467984,
			"-0.002": 39.1338573502,
			"-0.001": 40.225514472,
			"0.0": 32.1299807206,
			"0.001": 23.9164505762,
			"0.002": 16.5965699671,
			"0.003": 12.4437348639,
			"0.004": 8.3320023411,
			"0.005": 8.04675376412,
			"0.006": 8.15939884789,
			"0.007": 6.56346078878,
			"0.008": 4.27524166351,
			"0.009": 7.1107900823,
			"0.01": 6.44464707643,
			"0.011": 7.11939787865,
			"0.012": 7.22344452706,
			"0.013": 0.482829656093,
			"0.014": 0.0,
			"0.015": 0.0,
			"0.016": 0.0,
			"0.017": 0.0,
			"0.018": 0.0,
			"0.019": 0.0,
			"0.02": 0.0,
			"0.021": 0.0,
			"0.022": 0.0,
			"0.023": 0.0,
			"0.024": 0.0,
			"0.025": 0.0
		}
	}
}
