{
	 "smiles": "CCCCOC=O", 
	 "Tm": 181.35, 
	 "num_atms": 17, 
	 "gaussian": { 
		 "optdone": 1, 
		 "sigma_profile": "yes", 
		 "theory": "DFT", 
		 "functional": "B3LYP", 
		 "basiset": "6-31G**", 
		 "properties": { 
			 "R2extent": 1404.1939, 
			 "electric_dipole_moment_norm": 1.90850972751, 
			 "electric_quadrupole_moment_norm": 8.54418675124, 
			 "total_energy": -347.016620685, 
			 "HOMO_LUMO_gap": 0.2875, 
			 "cosmo_polarized_energy": -5.79, 
			 "cosmo_cavitation_energy": 20.25, 
			 "cosmo_dispersion_energy": -14.68, 
			 "cosmo_repulsion_energy": 1.27, 
			 "cosmo_total_nonelectrostatic_energy": 6.84, 
			 "SMD_solvation_energy": 5.43 
		},
		"coords": [
			{
				"x": 1.1060915726,
				"y": 3.4333284012,
				"z": -1.329065457,
				"element": "C" 
			},
			{
				"x": -0.0820713629,
				"y": 2.5388103262,
				"z": -0.9614010295,
				"element": "C" 
			},
			{
				"x": 0.3142776251,
				"y": 1.0663538187,
				"z": -0.7868158245,
				"element": "C" 
			},
			{
				"x": -0.879773914,
				"y": 0.1909643465,
				"z": -0.4223668223,
				"element": "C" 
			},
			{
				"x": -0.4763701691,
				"y": -1.179870165,
				"z": -0.1687322029,
				"element": "O" 
			},
			{
				"x": -0.3941237612,
				"y": -1.9872407457,
				"z": -1.2380393329,
				"element": "C" 
			},
			{
				"x": -0.6237007236,
				"y": -1.6852239302,
				"z": -2.3846261359,
				"element": "O" 
			},
			{
				"x": 0.7962521536,
				"y": 4.4762716673,
				"z": -1.4491728682,
				"element": "H" 
			},
			{
				"x": 1.8800062915,
				"y": 3.4024276931,
				"z": -0.5539295178,
				"element": "H" 
			},
			{
				"x": 1.5665578275,
				"y": 3.11159963,
				"z": -2.2696791254,
				"element": "H" 
			},
			{
				"x": -0.5433080463,
				"y": 2.9059848224,
				"z": -0.0343779603,
				"element": "H" 
			},
			{
				"x": -0.8533548807,
				"y": 2.617970359,
				"z": -1.7390068145,
				"element": "H" 
			},
			{
				"x": 0.7574265889,
				"y": 0.6883652941,
				"z": -1.7152579482,
				"element": "H" 
			},
			{
				"x": 1.0762218264,
				"y": 0.9735434932,
				"z": -0.0026047643,
				"element": "H" 
			},
			{
				"x": -1.3416635101,
				"y": 0.5167542311,
				"z": 0.5132493015,
				"element": "H" 
			},
			{
				"x": -1.6293298724,
				"y": 0.1964921005,
				"z": -1.2182462055,
				"element": "H" 
			},
			{
				"x": -0.0838376454,
				"y": -2.9894313422,
				"z": -0.9023272922,
				"element": "H" 
			}
		],
		 "valence_orbital": [ 
			{
				"type": "occ",
				"energy": -0.34806,
				"method": "rhf"
			},
			{
				"type": "occ",
				"energy": -0.33998,
				"method": "rhf"
			},
			{
				"type": "occ",
				"energy": -0.33251,
				"method": "rhf"
			},
			{
				"type": "occ",
				"energy": -0.29885,
				"method": "rhf"
			},
			{
				"type": "occ",
				"energy": -0.27966,
				"method": "rhf"
			},
			{
				"type": "unocc",
				"energy": 0.00784,
				"method": "rhf"
			},
			{
				"type": "unocc",
				"energy": 0.08759,
				"method": "rhf"
			},
			{
				"type": "unocc",
				"energy": 0.11351,
				"method": "rhf"
			},
			{
				"type": "unocc",
				"energy": 0.1184,
				"method": "rhf"
			},
			{
				"type": "unocc",
				"energy": 0.12217,
				"method": "rhf"
			}
		],
		"cosmo_sigma_profile": { 
			"-0.025": 0.0,
			"-0.024": 0.0,
			"-0.023": 0.0,
			"-0.022": 0.0,
			"-0.021": 0.0,
			"-0.02": 0.0,
			"-0.019": 0.0,
			"-0.018": 0.0,
			"-0.017": 0.0,
			"-0.016": 0.0,
			"-0.015": 0.0,
			"-0.014": 0.0,
			"-0.013": 0.0,
			"-0.012": 0.0,
			"-0.011": 0.0,
			"-0.01": 0.0,
			"-0.009": 1.9484780529,
			"-0.008": 2.82019243737,
			"-0.007": 1.78192801722,
			"-0.006": 2.62948088613,
			"-0.005": 5.41348178756,
			"-0.004": 8.53841310415,
			"-0.003": 19.0720621022,
			"-0.002": 25.3532799842,
			"-0.001": 20.039705773,
			"0.0": 18.8474362748,
			"0.001": 15.7378457532,
			"0.002": 6.08754639255,
			"0.003": 3.09428263536,
			"0.004": 2.92362349213,
			"0.005": 2.4638961554,
			"0.006": 2.94243533696,
			"0.007": 2.34961757611,
			"0.008": 2.49916372766,
			"0.009": 3.24503327516,
			"0.01": 2.20604803455,
			"0.011": 3.81084834524,
			"0.012": 3.53023955529,
			"0.013": 0.506254420846,
			"0.014": 0.0,
			"0.015": 0.0,
			"0.016": 0.0,
			"0.017": 0.0,
			"0.018": 0.0,
			"0.019": 0.0,
			"0.02": 0.0,
			"0.021": 0.0,
			"0.022": 0.0,
			"0.023": 0.0,
			"0.024": 0.0,
			"0.025": 0.0
		}
	}
}
