{
	 "smiles": "COC1=CC(CC=C)=C(OC)C2=C1OCO2", 
	 "Tm": 302.65, 
	 "num_atms": 30, 
	 "gaussian": { 
		 "optdone": 1, 
		 "sigma_profile": "yes", 
		 "theory": "DFT", 
		 "functional": "B3LYP", 
		 "basiset": "6-31G**", 
		 "properties": { 
			 "R2extent": 3942.9057, 
			 "electric_dipole_moment_norm": 2.47310332174, 
			 "electric_quadrupole_moment_norm": 6.4412621566, 
			 "total_energy": -766.52187583, 
			 "HOMO_LUMO_gap": 0.20817, 
			 "cosmo_polarized_energy": -8.43, 
			 "cosmo_cavitation_energy": 33.43, 
			 "cosmo_dispersion_energy": -23.87, 
			 "cosmo_repulsion_energy": 1.89, 
			 "cosmo_total_nonelectrostatic_energy": 11.45, 
			 "SMD_solvation_energy": 8.38 
		},
		"coords": [
			{
				"x": -1.422652138,
				"y": 3.3861206324,
				"z": -1.5325808716,
				"element": "C" 
			},
			{
				"x": -0.7832963987,
				"y": 2.2179974723,
				"z": -2.0426989097,
				"element": "O" 
			},
			{
				"x": -0.4465612853,
				"y": 1.2262177159,
				"z": -1.1676729532,
				"element": "C" 
			},
			{
				"x": -0.2738483754,
				"y": -0.065382946,
				"z": -1.7000679754,
				"element": "C" 
			},
			{
				"x": 0.1203497854,
				"y": -1.1609274624,
				"z": -0.9332151636,
				"element": "C" 
			},
			{
				"x": 0.2744500925,
				"y": -2.5331962893,
				"z": -1.5669796532,
				"element": "C" 
			},
			{
				"x": -0.913456643,
				"y": -3.4330215774,
				"z": -1.3177245326,
				"element": "C" 
			},
			{
				"x": -1.6698935365,
				"y": -3.9748195974,
				"z": -2.2719115726,
				"element": "C" 
			},
			{
				"x": 0.3393958371,
				"y": -1.0080645481,
				"z": 0.4563365887,
				"element": "C" 
			},
			{
				"x": 0.668605046,
				"y": -2.1194379076,
				"z": 1.1912154354,
				"element": "O" 
			},
			{
				"x": 1.6985969158,
				"y": -1.9738812171,
				"z": 2.1714934423,
				"element": "C" 
			},
			{
				"x": 0.1445179216,
				"y": 0.2624247327,
				"z": 0.9824410402,
				"element": "C" 
			},
			{
				"x": -0.2183727732,
				"y": 1.3558532664,
				"z": 0.1980397851,
				"element": "C" 
			},
			{
				"x": -0.2588743644,
				"y": 2.49160274,
				"z": 0.9960898607,
				"element": "O" 
			},
			{
				"x": -0.2401518401,
				"y": 1.9933470335,
				"z": 2.3316929937,
				"element": "C" 
			},
			{
				"x": 0.314107163,
				"y": 0.6770490908,
				"z": 2.2920741769,
				"element": "O" 
			},
			{
				"x": -2.3227674141,
				"y": 3.1293832319,
				"z": -0.9608363867,
				"element": "H" 
			},
			{
				"x": -0.7538876703,
				"y": 3.9734118848,
				"z": -0.896785198,
				"element": "H" 
			},
			{
				"x": -1.7061965518,
				"y": 3.9733210991,
				"z": -2.408023941,
				"element": "H" 
			},
			{
				"x": -0.4602780157,
				"y": -0.1888065978,
				"z": -2.7620615531,
				"element": "H" 
			},
			{
				"x": 0.4298571629,
				"y": -2.4193357643,
				"z": -2.6448098406,
				"element": "H" 
			},
			{
				"x": 1.171091404,
				"y": -3.01112751,
				"z": -1.1524980183,
				"element": "H" 
			},
			{
				"x": -1.1380413639,
				"y": -3.6295656877,
				"z": -0.2703471301,
				"element": "H" 
			},
			{
				"x": -1.4739055785,
				"y": -3.7969256175,
				"z": -3.3271629186,
				"element": "H" 
			},
			{
				"x": -2.5123995405,
				"y": -4.6185011679,
				"z": -2.0357959775,
				"element": "H" 
			},
			{
				"x": 2.6117588242,
				"y": -1.5623047763,
				"z": 1.7234472068,
				"element": "H" 
			},
			{
				"x": 1.3844997043,
				"y": -1.3312524041,
				"z": 2.9986041344,
				"element": "H" 
			},
			{
				"x": 1.9012362527,
				"y": -2.9796847684,
				"z": 2.5448334706,
				"element": "H" 
			},
			{
				"x": 0.3898075973,
				"y": 2.6362202373,
				"z": 2.9508938959,
				"element": "H" 
			},
			{
				"x": -1.2679902172,
				"y": 1.9447867023,
				"z": 2.7264105651,
				"element": "H" 
			}
		],
		 "valence_orbital": [ 
			{
				"type": "occ",
				"energy": -0.30063,
				"method": "rhf"
			},
			{
				"type": "occ",
				"energy": -0.27262,
				"method": "rhf"
			},
			{
				"type": "occ",
				"energy": -0.24529,
				"method": "rhf"
			},
			{
				"type": "occ",
				"energy": -0.20654,
				"method": "rhf"
			},
			{
				"type": "occ",
				"energy": -0.19987,
				"method": "rhf"
			},
			{
				"type": "unocc",
				"energy": 0.0083,
				"method": "rhf"
			},
			{
				"type": "unocc",
				"energy": 0.01847,
				"method": "rhf"
			},
			{
				"type": "unocc",
				"energy": 0.03762,
				"method": "rhf"
			},
			{
				"type": "unocc",
				"energy": 0.08416,
				"method": "rhf"
			},
			{
				"type": "unocc",
				"energy": 0.08726,
				"method": "rhf"
			}
		],
		"cosmo_sigma_profile": { 
			"-0.025": 0.0,
			"-0.024": 0.0,
			"-0.023": 0.0,
			"-0.022": 0.0,
			"-0.021": 0.0,
			"-0.02": 0.0,
			"-0.019": 0.0,
			"-0.018": 0.0,
			"-0.017": 0.0,
			"-0.016": 0.0,
			"-0.015": 0.0,
			"-0.014": 0.0,
			"-0.013": 0.0,
			"-0.012": 0.0,
			"-0.011": 0.0,
			"-0.01": 0.0,
			"-0.009": 0.0892810761342,
			"-0.008": 2.965768948,
			"-0.007": 3.94414364607,
			"-0.006": 10.3929152306,
			"-0.005": 16.3971017083,
			"-0.004": 25.1746643214,
			"-0.003": 28.2944060784,
			"-0.002": 23.735485102,
			"-0.001": 19.2896370541,
			"0.0": 20.0010585582,
			"0.001": 16.7348866882,
			"0.002": 18.6403321119,
			"0.003": 20.7771386259,
			"0.004": 17.7598347587,
			"0.005": 13.925294284,
			"0.006": 10.9458655698,
			"0.007": 7.65302696715,
			"0.008": 3.39905294738,
			"0.009": 2.37744837445,
			"0.01": 1.38464583981,
			"0.011": 1.05728930014,
			"0.012": 0.0198175112787,
			"0.013": 0.0,
			"0.014": 0.0,
			"0.015": 0.0,
			"0.016": 0.0,
			"0.017": 0.0,
			"0.018": 0.0,
			"0.019": 0.0,
			"0.02": 0.0,
			"0.021": 0.0,
			"0.022": 0.0,
			"0.023": 0.0,
			"0.024": 0.0,
			"0.025": 0.0
		}
	}
}
