{
	 "smiles": "CC1=CC=C(Cl)C(Cl)=C1", 
	 "Tm": 258.05, 
	 "num_atms": 15, 
	 "gaussian": { 
		 "optdone": 1, 
		 "sigma_profile": "yes", 
		 "theory": "DFT", 
		 "functional": "B3LYP", 
		 "basiset": "6-31G**", 
		 "properties": { 
			 "R2extent": 1939.5659, 
			 "electric_dipole_moment_norm": 3.22890215863, 
			 "electric_quadrupole_moment_norm": 4.26233205886, 
			 "total_energy": -1190.75062729, 
			 "HOMO_LUMO_gap": 0.22136, 
			 "cosmo_polarized_energy": -4.39, 
			 "cosmo_cavitation_energy": 22.3, 
			 "cosmo_dispersion_energy": -16.83, 
			 "cosmo_repulsion_energy": 1.38, 
			 "cosmo_total_nonelectrostatic_energy": 6.85, 
			 "SMD_solvation_energy": 3.4 
		},
		"coords": [
			{
				"x": 1.06091011,
				"y": 2.7544038967,
				"z": -1.3936044497,
				"element": "C" 
			},
			{
				"x": 0.7382310621,
				"y": 1.4682418039,
				"z": -0.6707436328,
				"element": "C" 
			},
			{
				"x": 0.9079802,
				"y": 0.2257200114,
				"z": -1.2970814484,
				"element": "C" 
			},
			{
				"x": 0.5885478495,
				"y": -0.9583268373,
				"z": -0.6405173879,
				"element": "C" 
			},
			{
				"x": 0.0910523903,
				"y": -0.9303061907,
				"z": 0.6648474473,
				"element": "C" 
			},
			{
				"x": -0.2951191437,
				"y": -2.4395891628,
				"z": 1.4568335744,
				"element": "Cl" 
			},
			{
				"x": -0.081097896,
				"y": 0.3025729996,
				"z": 1.3041423901,
				"element": "C" 
			},
			{
				"x": -0.6939009481,
				"y": 0.4056174185,
				"z": 2.9384411526,
				"element": "Cl" 
			},
			{
				"x": 0.2427837142,
				"y": 1.4859756265,
				"z": 0.6357079081,
				"element": "C" 
			},
			{
				"x": 1.9924879789,
				"y": 2.6681507666,
				"z": -1.9617426262,
				"element": "H" 
			},
			{
				"x": 1.165306222,
				"y": 3.5905736203,
				"z": -0.6971555946,
				"element": "H" 
			},
			{
				"x": 0.2692200591,
				"y": 3.0152333756,
				"z": -2.1064230146,
				"element": "H" 
			},
			{
				"x": 1.2962278516,
				"y": 0.1811278092,
				"z": -2.3109193238,
				"element": "H" 
			},
			{
				"x": 0.7238380852,
				"y": -1.9164771365,
				"z": -1.1301972683,
				"element": "H" 
			},
			{
				"x": 0.1024324647,
				"y": 2.4288819991,
				"z": 1.1541122737,
				"element": "H" 
			}
		],
		 "valence_orbital": [ 
			{
				"type": "occ",
				"energy": -0.32787,
				"method": "rhf"
			},
			{
				"type": "occ",
				"energy": -0.32537,
				"method": "rhf"
			},
			{
				"type": "occ",
				"energy": -0.3066,
				"method": "rhf"
			},
			{
				"type": "occ",
				"energy": -0.25963,
				"method": "rhf"
			},
			{
				"type": "occ",
				"energy": -0.24372,
				"method": "rhf"
			},
			{
				"type": "unocc",
				"energy": -0.02236,
				"method": "rhf"
			},
			{
				"type": "unocc",
				"energy": -0.01952,
				"method": "rhf"
			},
			{
				"type": "unocc",
				"energy": 0.00449,
				"method": "rhf"
			},
			{
				"type": "unocc",
				"energy": 0.06388,
				"method": "rhf"
			},
			{
				"type": "unocc",
				"energy": 0.102,
				"method": "rhf"
			}
		],
		"cosmo_sigma_profile": { 
			"-0.025": 0.0,
			"-0.024": 0.0,
			"-0.023": 0.0,
			"-0.022": 0.0,
			"-0.021": 0.0,
			"-0.02": 0.0,
			"-0.019": 0.0,
			"-0.018": 0.0,
			"-0.017": 0.0,
			"-0.016": 0.0,
			"-0.015": 0.0,
			"-0.014": 0.0,
			"-0.013": 0.0,
			"-0.012": 0.0,
			"-0.011": 0.0,
			"-0.01": 0.0,
			"-0.009": 0.0,
			"-0.008": 0.567781974128,
			"-0.007": 4.19304852614,
			"-0.006": 6.43995833529,
			"-0.005": 10.6178740618,
			"-0.004": 11.2260597706,
			"-0.003": 11.8790427432,
			"-0.002": 14.4986763263,
			"-0.001": 15.3953932791,
			"0.0": 17.632446009,
			"0.001": 21.4222939284,
			"0.002": 18.451615468,
			"0.003": 21.9120157791,
			"0.004": 18.8381723284,
			"0.005": 8.03286985036,
			"0.006": 1.58933668007,
			"0.007": 0.0,
			"0.008": 0.0,
			"0.009": 0.0,
			"0.01": 0.0,
			"0.011": 0.0,
			"0.012": 0.0,
			"0.013": 0.0,
			"0.014": 0.0,
			"0.015": 0.0,
			"0.016": 0.0,
			"0.017": 0.0,
			"0.018": 0.0,
			"0.019": 0.0,
			"0.02": 0.0,
			"0.021": 0.0,
			"0.022": 0.0,
			"0.023": 0.0,
			"0.024": 0.0,
			"0.025": 0.0
		}
	}
}
