{
	 "smiles": "CC1=NC2=CC(=NN2C(=C1)C(F)(F)F)C1=CC=CC=C1", 
	 "Tm": 447.15, 
	 "num_atms": 30, 
	 "gaussian": { 
		 "optdone": 1, 
		 "sigma_profile": "yes", 
		 "theory": "DFT", 
		 "functional": "B3LYP", 
		 "basiset": "6-31G**", 
		 "properties": { 
			 "R2extent": 7497.2457, 
			 "electric_dipole_moment_norm": 1.92613173485, 
			 "electric_quadrupole_moment_norm": 17.1999739325, 
			 "total_energy": -1003.28061452, 
			 "HOMO_LUMO_gap": 0.15282, 
			 "cosmo_polarized_energy": -9.81, 
			 "cosmo_cavitation_energy": 36.1, 
			 "cosmo_dispersion_energy": -25.73, 
			 "cosmo_repulsion_energy": 1.88, 
			 "cosmo_total_nonelectrostatic_energy": 12.26, 
			 "SMD_solvation_energy": 5.08 
		},
		"coords": [
			{
				"x": 0.7340688643,
				"y": -3.1587797114,
				"z": -5.009152273,
				"element": "C" 
			},
			{
				"x": 0.9383855706,
				"y": -2.2889355287,
				"z": -3.7951260417,
				"element": "C" 
			},
			{
				"x": -0.1269460427,
				"y": -1.690419688,
				"z": -3.2909265332,
				"element": "N" 
			},
			{
				"x": 0.0361710295,
				"y": -0.9092621914,
				"z": -2.2063415803,
				"element": "C" 
			},
			{
				"x": -0.8383065984,
				"y": -0.1515774552,
				"z": -1.4383433335,
				"element": "C" 
			},
			{
				"x": -0.0454202666,
				"y": 0.4399621822,
				"z": -0.4331652327,
				"element": "C" 
			},
			{
				"x": 1.2573556414,
				"y": 0.0918381215,
				"z": -0.5387258733,
				"element": "N" 
			},
			{
				"x": 1.3031685087,
				"y": -0.7204359511,
				"z": -1.6070227917,
				"element": "N" 
			},
			{
				"x": 2.4041568852,
				"y": -1.3344173392,
				"z": -2.122006704,
				"element": "C" 
			},
			{
				"x": 2.2391605303,
				"y": -2.1295739176,
				"z": -3.2258826025,
				"element": "C" 
			},
			{
				"x": 3.7392799674,
				"y": -1.1048580525,
				"z": -1.4498171454,
				"element": "C" 
			},
			{
				"x": 3.7265832001,
				"y": -1.5238771092,
				"z": -0.1742250058,
				"element": "F" 
			},
			{
				"x": 4.7042592044,
				"y": -1.7905489987,
				"z": -2.0987603816,
				"element": "F" 
			},
			{
				"x": 4.0802269615,
				"y": 0.1937766449,
				"z": -1.4632298497,
				"element": "F" 
			},
			{
				"x": -0.4666618505,
				"y": 1.3416976982,
				"z": 0.6506234038,
				"element": "C" 
			},
			{
				"x": 0.4782629451,
				"y": 1.8384610599,
				"z": 1.5647598125,
				"element": "C" 
			},
			{
				"x": 0.0856407239,
				"y": 2.6921471415,
				"z": 2.5922321232,
				"element": "C" 
			},
			{
				"x": -1.2541891285,
				"y": 3.0652910154,
				"z": 2.7264276274,
				"element": "C" 
			},
			{
				"x": -2.2002047597,
				"y": 2.5768788829,
				"z": 1.823137178,
				"element": "C" 
			},
			{
				"x": -1.8103935923,
				"y": 1.7222143145,
				"z": 0.7936866824,
				"element": "C" 
			},
			{
				"x": 1.6693783239,
				"y": -3.6086977669,
				"z": -5.349881776,
				"element": "H" 
			},
			{
				"x": 0.0214194607,
				"y": -3.9586845761,
				"z": -4.7849393728,
				"element": "H" 
			},
			{
				"x": 0.3093114319,
				"y": -2.5701146978,
				"z": -5.8283354464,
				"element": "H" 
			},
			{
				"x": -1.8986991323,
				"y": -0.0587668796,
				"z": -1.6067794406,
				"element": "H" 
			},
			{
				"x": 3.0992179873,
				"y": -2.627254966,
				"z": -3.6524043711,
				"element": "H" 
			},
			{
				"x": 1.5165845214,
				"y": 1.545318765,
				"z": 1.45536279,
				"element": "H" 
			},
			{
				"x": 0.8274333022,
				"y": 3.0680645618,
				"z": 3.29113994,
				"element": "H" 
			},
			{
				"x": -1.5585285935,
				"y": 3.7314013388,
				"z": 3.5286115777,
				"element": "H" 
			},
			{
				"x": -3.2440506415,
				"y": 2.861401997,
				"z": 1.9195927706,
				"element": "H" 
			},
			{
				"x": -2.5564644539,
				"y": 1.349751106,
				"z": 0.0985918496,
				"element": "H" 
			}
		],
		 "valence_orbital": [ 
			{
				"type": "occ",
				"energy": -0.28719,
				"method": "rhf"
			},
			{
				"type": "occ",
				"energy": -0.27223,
				"method": "rhf"
			},
			{
				"type": "occ",
				"energy": -0.2513,
				"method": "rhf"
			},
			{
				"type": "occ",
				"energy": -0.23349,
				"method": "rhf"
			},
			{
				"type": "occ",
				"energy": -0.22496,
				"method": "rhf"
			},
			{
				"type": "unocc",
				"energy": -0.07214,
				"method": "rhf"
			},
			{
				"type": "unocc",
				"energy": -0.0314,
				"method": "rhf"
			},
			{
				"type": "unocc",
				"energy": -0.00378,
				"method": "rhf"
			},
			{
				"type": "unocc",
				"energy": 0.00384,
				"method": "rhf"
			},
			{
				"type": "unocc",
				"energy": 0.07687,
				"method": "rhf"
			}
		],
		"cosmo_sigma_profile": { 
			"-0.025": 0.0,
			"-0.024": 0.0,
			"-0.023": 0.0,
			"-0.022": 0.0,
			"-0.021": 0.0,
			"-0.02": 0.0,
			"-0.019": 0.0,
			"-0.018": 0.0,
			"-0.017": 0.0,
			"-0.016": 0.0,
			"-0.015": 0.0,
			"-0.014": 0.0,
			"-0.013": 0.0,
			"-0.012": 0.0,
			"-0.011": 0.0,
			"-0.01": 0.0,
			"-0.009": 1.04611345776,
			"-0.008": 4.45154683277,
			"-0.007": 4.83934789224,
			"-0.006": 11.1314490715,
			"-0.005": 18.7550404603,
			"-0.004": 24.189457294,
			"-0.003": 24.7896655556,
			"-0.002": 24.5447645003,
			"-0.001": 23.8952837753,
			"0.0": 15.0109391131,
			"0.001": 22.316082836,
			"0.002": 39.5405156279,
			"0.003": 23.3985058377,
			"0.004": 17.6353698937,
			"0.005": 15.4183976135,
			"0.006": 5.61441691488,
			"0.007": 3.16160069824,
			"0.008": 3.75254626795,
			"0.009": 2.64897004645,
			"0.01": 1.49020809536,
			"0.011": 0.881204174286,
			"0.012": 0.836560182063,
			"0.013": 0.771663966936,
			"0.014": 0.588474366307,
			"0.015": 0.175697257897,
			"0.016": 0.0,
			"0.017": 0.0,
			"0.018": 0.0,
			"0.019": 0.0,
			"0.02": 0.0,
			"0.021": 0.0,
			"0.022": 0.0,
			"0.023": 0.0,
			"0.024": 0.0,
			"0.025": 0.0
		}
	}
}
