{
	 "smiles": "CC(=O)O[C@H]1CO[C@@H](C#N)[C@H](OC(C)=O)[C@H]1OC(C)=O", 
	 "Tm": 407.15, 
	 "num_atms": 35, 
	 "gaussian": { 
		 "optdone": 1, 
		 "sigma_profile": "yes", 
		 "theory": "DFT", 
		 "functional": "B3LYP", 
		 "basiset": "6-31G**", 
		 "properties": { 
			 "R2extent": 6140.6579, 
			 "electric_dipole_moment_norm": 4.47073771206, 
			 "electric_quadrupole_moment_norm": 17.1097452857, 
			 "total_energy": -1047.63259776, 
			 "HOMO_LUMO_gap": 0.26866, 
			 "cosmo_polarized_energy": -19.41, 
			 "cosmo_cavitation_energy": 40.31, 
			 "cosmo_dispersion_energy": -25.9, 
			 "cosmo_repulsion_energy": 2.06, 
			 "cosmo_total_nonelectrostatic_energy": 16.47, 
			 "SMD_solvation_energy": 11.1 
		},
		"coords": [
			{
				"x": -3.0767131564,
				"y": 0.0161855265,
				"z": 2.6504319916,
				"element": "C" 
			},
			{
				"x": -1.8157031854,
				"y": -0.74288847,
				"z": 2.9667187979,
				"element": "C" 
			},
			{
				"x": -1.6362328839,
				"y": -1.4854784698,
				"z": 3.9059549513,
				"element": "O" 
			},
			{
				"x": -0.8640101482,
				"y": -0.5065423191,
				"z": 2.0200350728,
				"element": "O" 
			},
			{
				"x": 0.3724253403,
				"y": -1.2400508995,
				"z": 2.1537357347,
				"element": "C" 
			},
			{
				"x": 0.2166368607,
				"y": -2.7057602191,
				"z": 1.7044543567,
				"element": "C" 
			},
			{
				"x": 0.6031156857,
				"y": -2.909595307,
				"z": 0.3376731807,
				"element": "O" 
			},
			{
				"x": 0.191007891,
				"y": -1.8890584415,
				"z": -0.5521082951,
				"element": "C" 
			},
			{
				"x": -1.2867743831,
				"y": -1.7896732623,
				"z": -0.6284652242,
				"element": "C" 
			},
			{
				"x": -2.4457101102,
				"y": -1.7529914454,
				"z": -0.6701124641,
				"element": "N" 
			},
			{
				"x": 0.8563192148,
				"y": -0.519045148,
				"z": -0.2023299061,
				"element": "C" 
			},
			{
				"x": 2.0080821338,
				"y": -0.285048362,
				"z": -1.0324989786,
				"element": "O" 
			},
			{
				"x": 1.7494791934,
				"y": 0.1301019811,
				"z": -2.3037040759,
				"element": "C" 
			},
			{
				"x": 3.0278278693,
				"y": 0.4409786547,
				"z": -3.0387989865,
				"element": "C" 
			},
			{
				"x": 0.6275180343,
				"y": 0.2227356663,
				"z": -2.7489722948,
				"element": "O" 
			},
			{
				"x": 1.3744034208,
				"y": -0.5478454572,
				"z": 1.2351491506,
				"element": "C" 
			},
			{
				"x": 1.6109245316,
				"y": 0.8137890969,
				"z": 1.6249930286,
				"element": "O" 
			},
			{
				"x": 2.556335039,
				"y": 1.0107174815,
				"z": 2.5852705623,
				"element": "C" 
			},
			{
				"x": 2.7229586443,
				"y": 2.4813019818,
				"z": 2.8726178725,
				"element": "C" 
			},
			{
				"x": 3.1606796705,
				"y": 0.1083924444,
				"z": 3.119768751,
				"element": "O" 
			},
			{
				"x": -2.8577867569,
				"y": 1.0780808857,
				"z": 2.5084778176,
				"element": "H" 
			},
			{
				"x": -3.7950656806,
				"y": -0.118312353,
				"z": 3.4583002026,
				"element": "H" 
			},
			{
				"x": -3.4915079026,
				"y": -0.3612929999,
				"z": 1.7099850037,
				"element": "H" 
			},
			{
				"x": 0.7007941553,
				"y": -1.2002687715,
				"z": 3.193345256,
				"element": "H" 
			},
			{
				"x": -0.8139745326,
				"y": -3.0378463097,
				"z": 1.8679151657,
				"element": "H" 
			},
			{
				"x": 0.8841205993,
				"y": -3.3482007026,
				"z": 2.2830101867,
				"element": "H" 
			},
			{
				"x": 0.5436368018,
				"y": -2.1980279528,
				"z": -1.5390456081,
				"element": "H" 
			},
			{
				"x": 0.144609722,
				"y": 0.2957816505,
				"z": -0.3398287407,
				"element": "H" 
			},
			{
				"x": 2.798856219,
				"y": 0.6839965678,
				"z": -4.0756619317,
				"element": "H" 
			},
			{
				"x": 3.7093814954,
				"y": -0.4128533277,
				"z": -2.9911990525,
				"element": "H" 
			},
			{
				"x": 3.5320478579,
				"y": 1.2873661419,
				"z": -2.5623709451,
				"element": "H" 
			},
			{
				"x": 2.3147056944,
				"y": -1.1026425972,
				"z": 1.2759967616,
				"element": "H" 
			},
			{
				"x": 3.4915237735,
				"y": 2.6165533113,
				"z": 3.6325708825,
				"element": "H" 
			},
			{
				"x": 2.9997231077,
				"y": 3.0139671911,
				"z": 1.9582419077,
				"element": "H" 
			},
			{
				"x": 1.7751657843,
				"y": 2.9025742336,
				"z": 3.2206498686,
				"element": "H" 
			}
		],
		 "valence_orbital": [ 
			{
				"type": "occ",
				"energy": -0.31355,
				"method": "rhf"
			},
			{
				"type": "occ",
				"energy": -0.29312,
				"method": "rhf"
			},
			{
				"type": "occ",
				"energy": -0.29087,
				"method": "rhf"
			},
			{
				"type": "occ",
				"energy": -0.28535,
				"method": "rhf"
			},
			{
				"type": "occ",
				"energy": -0.27941,
				"method": "rhf"
			},
			{
				"type": "unocc",
				"energy": -0.01075,
				"method": "rhf"
			},
			{
				"type": "unocc",
				"energy": -0.00436,
				"method": "rhf"
			},
			{
				"type": "unocc",
				"energy": 4e-05,
				"method": "rhf"
			},
			{
				"type": "unocc",
				"energy": 0.00792,
				"method": "rhf"
			},
			{
				"type": "unocc",
				"energy": 0.02191,
				"method": "rhf"
			}
		],
		"cosmo_sigma_profile": { 
			"-0.025": 0.0,
			"-0.024": 0.0,
			"-0.023": 0.0,
			"-0.022": 0.0,
			"-0.021": 0.0,
			"-0.02": 0.0,
			"-0.019": 0.0,
			"-0.018": 0.0,
			"-0.017": 0.0,
			"-0.016": 0.0,
			"-0.015": 0.0,
			"-0.014": 0.0,
			"-0.013": 0.0,
			"-0.012": 0.0,
			"-0.011": 1.02378977904,
			"-0.01": 1.62985249508,
			"-0.009": 1.79460968022,
			"-0.008": 4.84194727464,
			"-0.007": 14.4618876061,
			"-0.006": 24.0774676758,
			"-0.005": 26.9177980452,
			"-0.004": 28.1215474706,
			"-0.003": 29.7276637993,
			"-0.002": 32.5569734221,
			"-0.001": 19.5915990343,
			"0.0": 12.5085476048,
			"0.001": 11.9632898451,
			"0.002": 12.0344884328,
			"0.003": 11.9648197796,
			"0.004": 12.4303928508,
			"0.005": 9.57352241931,
			"0.006": 9.2719021629,
			"0.007": 8.45935522556,
			"0.008": 7.70692427247,
			"0.009": 8.84254351336,
			"0.01": 9.35638319894,
			"0.011": 12.5585382819,
			"0.012": 6.95647870424,
			"0.013": 0.572914056897,
			"0.014": 0.0,
			"0.015": 0.0,
			"0.016": 0.0,
			"0.017": 0.0,
			"0.018": 0.0,
			"0.019": 0.0,
			"0.02": 0.0,
			"0.021": 0.0,
			"0.022": 0.0,
			"0.023": 0.0,
			"0.024": 0.0,
			"0.025": 0.0
		}
	}
}
