{
	 "smiles": "COC1=CC2=C(C(OC)=C1OC)C1=CC=C(SC)C(=O)C=C1C(CC2)NC(C)=O", 
	 "Tm": 466.15, 
	 "num_atms": 54, 
	 "gaussian": { 
		 "optdone": 1, 
		 "sigma_profile": "yes", 
		 "theory": "DFT", 
		 "functional": "B3LYP", 
		 "basiset": "6-31G**", 
		 "properties": { 
			 "R2extent": 13623.9773, 
			 "electric_dipole_moment_norm": 6.19344186862, 
			 "electric_quadrupole_moment_norm": 17.6331790157, 
			 "total_energy": -1682.40701163, 
			 "HOMO_LUMO_gap": 0.12685, 
			 "cosmo_polarized_energy": -26.19, 
			 "cosmo_cavitation_energy": 57.11, 
			 "cosmo_dispersion_energy": -37.76, 
			 "cosmo_repulsion_energy": 2.85, 
			 "cosmo_total_nonelectrostatic_energy": 22.21, 
			 "SMD_solvation_energy": 12.6 
		},
		"coords": [
			{
				"x": 0.3717403127,
				"y": 6.0954537209,
				"z": 0.5466396471,
				"element": "C" 
			},
			{
				"x": 1.289433298,
				"y": 5.0504665354,
				"z": 0.8286160196,
				"element": "O" 
			},
			{
				"x": 0.9730214605,
				"y": 3.7911461973,
				"z": 0.4240029069,
				"element": "C" 
			},
			{
				"x": -0.1874875251,
				"y": 3.4413468193,
				"z": -0.275321596,
				"element": "C" 
			},
			{
				"x": -0.4181789476,
				"y": 2.1206920089,
				"z": -0.6710619586,
				"element": "C" 
			},
			{
				"x": 0.5258151303,
				"y": 1.1134271818,
				"z": -0.3821045373,
				"element": "C" 
			},
			{
				"x": 1.6787460089,
				"y": 1.4685197325,
				"z": 0.3510860643,
				"element": "C" 
			},
			{
				"x": 2.6140852671,
				"y": 0.5160451891,
				"z": 0.6779544563,
				"element": "O" 
			},
			{
				"x": 2.466137349,
				"y": -0.011238595,
				"z": 2.0087345937,
				"element": "C" 
			},
			{
				"x": 1.9008578774,
				"y": 2.7876164638,
				"z": 0.7630555874,
				"element": "C" 
			},
			{
				"x": 2.9853494665,
				"y": 3.1022145106,
				"z": 1.5421800648,
				"element": "O" 
			},
			{
				"x": 4.2116129876,
				"y": 3.2579040081,
				"z": 0.8220616658,
				"element": "C" 
			},
			{
				"x": 0.31252064,
				"y": -0.2915304975,
				"z": -0.8490103993,
				"element": "C" 
			},
			{
				"x": 1.3317314813,
				"y": -0.8694650781,
				"z": -1.5741338356,
				"element": "C" 
			},
			{
				"x": 1.432876991,
				"y": -2.1346646087,
				"z": -2.2124534011,
				"element": "C" 
			},
			{
				"x": 0.5607786697,
				"y": -3.1934898026,
				"z": -2.3141642808,
				"element": "C" 
			},
			{
				"x": 1.225251084,
				"y": -4.631355312,
				"z": -3.126837609,
				"element": "S" 
			},
			{
				"x": -0.1006729912,
				"y": -5.2410411297,
				"z": -4.2352805492,
				"element": "C" 
			},
			{
				"x": -0.7889401369,
				"y": -3.2814859473,
				"z": -1.715332256,
				"element": "C" 
			},
			{
				"x": -1.4813825722,
				"y": -4.2994063926,
				"z": -1.8556806648,
				"element": "O" 
			},
			{
				"x": -1.3459914651,
				"y": -2.1929591738,
				"z": -0.9094869409,
				"element": "C" 
			},
			{
				"x": -0.9334318971,
				"y": -0.9514841474,
				"z": -0.517700994,
				"element": "C" 
			},
			{
				"x": -1.8821700879,
				"y": -0.1352105843,
				"z": 0.3833860152,
				"element": "C" 
			},
			{
				"x": -2.6429862764,
				"y": 0.9347461863,
				"z": -0.4262217384,
				"element": "C" 
			},
			{
				"x": -1.7118115904,
				"y": 1.7429837112,
				"z": -1.3595762831,
				"element": "C" 
			},
			{
				"x": -2.8105737442,
				"y": -0.9270797227,
				"z": 1.1676307929,
				"element": "N" 
			},
			{
				"x": -2.4443986863,
				"y": -1.4509565716,
				"z": 2.3832370242,
				"element": "C" 
			},
			{
				"x": -3.491048484,
				"y": -2.3179991884,
				"z": 3.062957192,
				"element": "C" 
			},
			{
				"x": -1.3449227289,
				"y": -1.2419240016,
				"z": 2.8810330702,
				"element": "O" 
			},
			{
				"x": 0.8158283653,
				"y": 7.0027292491,
				"z": 0.9586738969,
				"element": "H" 
			},
			{
				"x": 0.2221062471,
				"y": 6.2248246861,
				"z": -0.5331397316,
				"element": "H" 
			},
			{
				"x": -0.6002250468,
				"y": 5.920365336,
				"z": 1.0252615116,
				"element": "H" 
			},
			{
				"x": -0.9236764642,
				"y": 4.196541487,
				"z": -0.5256320185,
				"element": "H" 
			},
			{
				"x": 1.4743384032,
				"y": -0.4581073119,
				"z": 2.1455441677,
				"element": "H" 
			},
			{
				"x": 3.2324039232,
				"y": -0.7810749872,
				"z": 2.1169640165,
				"element": "H" 
			},
			{
				"x": 2.6249042946,
				"y": 0.7759755844,
				"z": 2.7525995747,
				"element": "H" 
			},
			{
				"x": 4.4869287463,
				"y": 2.3295526638,
				"z": 0.3101774782,
				"element": "H" 
			},
			{
				"x": 4.9736446212,
				"y": 3.5049891406,
				"z": 1.5642256239,
				"element": "H" 
			},
			{
				"x": 4.1379555334,
				"y": 4.0758575415,
				"z": 0.0949796186,
				"element": "H" 
			},
			{
				"x": 2.2105208552,
				"y": -0.2474156157,
				"z": -1.7090876183,
				"element": "H" 
			},
			{
				"x": 2.3746499071,
				"y": -2.2737797475,
				"z": -2.7389627839,
				"element": "H" 
			},
			{
				"x": -0.9598575788,
				"y": -5.5655438835,
				"z": -3.6546627693,
				"element": "H" 
			},
			{
				"x": -0.3877112551,
				"y": -4.4673351785,
				"z": -4.9502079187,
				"element": "H" 
			},
			{
				"x": 0.3505413927,
				"y": -6.0764830215,
				"z": -4.776194119,
				"element": "H" 
			},
			{
				"x": -2.3063760048,
				"y": -2.5171581279,
				"z": -0.5179960792,
				"element": "H" 
			},
			{
				"x": -1.2532234979,
				"y": 0.3700635292,
				"z": 1.1190587319,
				"element": "H" 
			},
			{
				"x": -3.4255859989,
				"y": 0.4556266818,
				"z": -1.0303298495,
				"element": "H" 
			},
			{
				"x": -3.1415085615,
				"y": 1.6043816534,
				"z": 0.2839755438,
				"element": "H" 
			},
			{
				"x": -1.4936323843,
				"y": 1.1443779585,
				"z": -2.2513118805,
				"element": "H" 
			},
			{
				"x": -2.2363422359,
				"y": 2.6396990542,
				"z": -1.7036858277,
				"element": "H" 
			},
			{
				"x": -3.7110644644,
				"y": -1.1650119014,
				"z": 0.7794966904,
				"element": "H" 
			},
			{
				"x": -4.4973123052,
				"y": -2.1910850527,
				"z": 2.6535045912,
				"element": "H" 
			},
			{
				"x": -3.2024227607,
				"y": -3.3688070044,
				"z": 2.9578112318,
				"element": "H" 
			},
			{
				"x": -3.5005446217,
				"y": -2.0833542451,
				"z": 4.1291298626,
				"element": "H" 
			}
		],
		 "valence_orbital": [ 
			{
				"type": "occ",
				"energy": -0.24291,
				"method": "rhf"
			},
			{
				"type": "occ",
				"energy": -0.23567,
				"method": "rhf"
			},
			{
				"type": "occ",
				"energy": -0.23356,
				"method": "rhf"
			},
			{
				"type": "occ",
				"energy": -0.22192,
				"method": "rhf"
			},
			{
				"type": "occ",
				"energy": -0.20171,
				"method": "rhf"
			},
			{
				"type": "unocc",
				"energy": -0.07486,
				"method": "rhf"
			},
			{
				"type": "unocc",
				"energy": -0.04544,
				"method": "rhf"
			},
			{
				"type": "unocc",
				"energy": -0.00441,
				"method": "rhf"
			},
			{
				"type": "unocc",
				"energy": 0.00517,
				"method": "rhf"
			},
			{
				"type": "unocc",
				"energy": 0.0249,
				"method": "rhf"
			}
		],
		"cosmo_sigma_profile": { 
			"-0.025": 0.0,
			"-0.024": 0.0,
			"-0.023": 0.0,
			"-0.022": 0.0,
			"-0.021": 0.0,
			"-0.02": 0.0,
			"-0.019": 0.0,
			"-0.018": 0.0,
			"-0.017": 0.0,
			"-0.016": 0.0,
			"-0.015": 0.028034827946,
			"-0.014": 0.880842064118,
			"-0.013": 1.28440747245,
			"-0.012": 1.5104916898,
			"-0.011": 2.04050748391,
			"-0.01": 1.75010841288,
			"-0.009": 2.25839940213,
			"-0.008": 2.45248375215,
			"-0.007": 5.72885459892,
			"-0.006": 19.4949412738,
			"-0.005": 31.2376236698,
			"-0.004": 38.5469214924,
			"-0.003": 50.2996043886,
			"-0.002": 49.5855909172,
			"-0.001": 43.1188065474,
			"0.0": 32.7652571776,
			"0.001": 31.8023115665,
			"0.002": 24.302479898,
			"0.003": 18.6333554289,
			"0.004": 16.4971579291,
			"0.005": 15.0058460028,
			"0.006": 10.0048680107,
			"0.007": 8.74418395034,
			"0.008": 8.57470849377,
			"0.009": 6.99716890191,
			"0.01": 5.91878861687,
			"0.011": 5.20476598163,
			"0.012": 5.87949687877,
			"0.013": 5.7890550134,
			"0.014": 4.61440708416,
			"0.015": 1.92205166981,
			"0.016": 0.0638669921477,
			"0.017": 0.0,
			"0.018": 0.0,
			"0.019": 0.0,
			"0.02": 0.0,
			"0.021": 0.0,
			"0.022": 0.0,
			"0.023": 0.0,
			"0.024": 0.0,
			"0.025": 0.0
		}
	}
}
