{
	 "smiles": "OC1=C(OC2=C1C=CC=C2)C#N", 
	 "Tm": 412.15, 
	 "num_atms": 17, 
	 "gaussian": { 
		 "optdone": 1, 
		 "sigma_profile": "yes", 
		 "theory": "DFT", 
		 "functional": "B3LYP", 
		 "basiset": "6-31G**", 
		 "properties": { 
			 "R2extent": 2740.5828, 
			 "electric_dipole_moment_norm": 3.93047119185, 
			 "electric_quadrupole_moment_norm": 9.38067457862, 
			 "total_energy": -551.128226923, 
			 "HOMO_LUMO_gap": 0.17202, 
			 "cosmo_polarized_energy": -10.98, 
			 "cosmo_cavitation_energy": 23.15, 
			 "cosmo_dispersion_energy": -16.79, 
			 "cosmo_repulsion_energy": 1.32, 
			 "cosmo_total_nonelectrostatic_energy": 7.69, 
			 "SMD_solvation_energy": 6.1 
		},
		"coords": [
			{
				"x": 1.0888145418,
				"y": 3.7856647654,
				"z": -0.4902381057,
				"element": "O" 
			},
			{
				"x": 0.7625408231,
				"y": 2.4853107698,
				"z": -0.3768185052,
				"element": "C" 
			},
			{
				"x": 0.2724934685,
				"y": 1.8001151775,
				"z": 0.7103589357,
				"element": "C" 
			},
			{
				"x": 0.0659953269,
				"y": 0.4598843609,
				"z": 0.4080271068,
				"element": "O" 
			},
			{
				"x": 0.4372427032,
				"y": 0.3145211404,
				"z": -0.8961533999,
				"element": "C" 
			},
			{
				"x": 0.8798305312,
				"y": 1.5331175895,
				"z": -1.4441824931,
				"element": "C" 
			},
			{
				"x": 1.3057503485,
				"y": 1.5868167867,
				"z": -2.7807338149,
				"element": "C" 
			},
			{
				"x": 1.2712861774,
				"y": 0.411320957,
				"z": -3.5195130408,
				"element": "C" 
			},
			{
				"x": 0.8234074842,
				"y": -0.7987278835,
				"z": -2.9483248903,
				"element": "C" 
			},
			{
				"x": 0.3974006561,
				"y": -0.8706979874,
				"z": -1.6246624568,
				"element": "C" 
			},
			{
				"x": -0.0188398304,
				"y": 2.2819737919,
				"z": 2.0000211223,
				"element": "C" 
			},
			{
				"x": -0.2336787933,
				"y": 2.7622322317,
				"z": 3.0414655901,
				"element": "N" 
			},
			{
				"x": 0.9301444217,
				"y": 4.2400210194,
				"z": 0.3506691766,
				"element": "H" 
			},
			{
				"x": 1.6492305492,
				"y": 2.5194598404,
				"z": -3.215460171,
				"element": "H" 
			},
			{
				"x": 1.5939368922,
				"y": 0.4190149376,
				"z": -4.555884355,
				"element": "H" 
			},
			{
				"x": 0.8103915794,
				"y": -1.6979452763,
				"z": -3.5565991524,
				"element": "H" 
			},
			{
				"x": 0.0514531203,
				"y": -1.7949822209,
				"z": -1.1758715464,
				"element": "H" 
			}
		],
		 "valence_orbital": [ 
			{
				"type": "occ",
				"energy": -0.35352,
				"method": "rhf"
			},
			{
				"type": "occ",
				"energy": -0.34671,
				"method": "rhf"
			},
			{
				"type": "occ",
				"energy": -0.29019,
				"method": "rhf"
			},
			{
				"type": "occ",
				"energy": -0.25622,
				"method": "rhf"
			},
			{
				"type": "occ",
				"energy": -0.2314,
				"method": "rhf"
			},
			{
				"type": "unocc",
				"energy": -0.05938,
				"method": "rhf"
			},
			{
				"type": "unocc",
				"energy": -0.00957,
				"method": "rhf"
			},
			{
				"type": "unocc",
				"energy": -0.00778,
				"method": "rhf"
			},
			{
				"type": "unocc",
				"energy": 0.02082,
				"method": "rhf"
			},
			{
				"type": "unocc",
				"energy": 0.06138,
				"method": "rhf"
			}
		],
		"cosmo_sigma_profile": { 
			"-0.025": 0.0,
			"-0.024": 0.0,
			"-0.023": 0.0,
			"-0.022": 0.0,
			"-0.021": 0.0,
			"-0.02": 0.0,
			"-0.019": 0.365984829554,
			"-0.018": 0.850494327087,
			"-0.017": 1.24423887611,
			"-0.016": 0.902275318733,
			"-0.015": 0.962610578267,
			"-0.014": 1.34112186761,
			"-0.013": 1.18435405182,
			"-0.012": 0.690609627799,
			"-0.011": 1.06568361766,
			"-0.01": 0.55916494876,
			"-0.009": 0.609549944582,
			"-0.008": 2.33097828328,
			"-0.007": 5.40130608406,
			"-0.006": 9.71264017745,
			"-0.005": 10.3609506202,
			"-0.004": 7.69140382163,
			"-0.003": 8.03908465677,
			"-0.002": 12.2522906919,
			"-0.001": 16.756016691,
			"0.0": 17.311195833,
			"0.001": 15.6232883385,
			"0.002": 13.5736499321,
			"0.003": 14.4010729424,
			"0.004": 11.7501101935,
			"0.005": 5.58322694798,
			"0.006": 4.20490914219,
			"0.007": 5.69112756738,
			"0.008": 5.4083729089,
			"0.009": 3.94873360128,
			"0.01": 2.84041499363,
			"0.011": 2.67922514598,
			"0.012": 2.28319119809,
			"0.013": 0.485366964886,
			"0.014": 0.0,
			"0.015": 0.0,
			"0.016": 0.0,
			"0.017": 0.0,
			"0.018": 0.0,
			"0.019": 0.0,
			"0.02": 0.0,
			"0.021": 0.0,
			"0.022": 0.0,
			"0.023": 0.0,
			"0.024": 0.0,
			"0.025": 0.0
		}
	}
}
