{
	 "smiles": "COC(=O)C1=CN2C=CC=CC2=C1", 
	 "Tm": 368.15, 
	 "num_atms": 22, 
	 "gaussian": { 
		 "optdone": 1, 
		 "sigma_profile": "yes", 
		 "theory": "DFT", 
		 "functional": "B3LYP", 
		 "basiset": "6-31G**", 
		 "properties": { 
			 "R2extent": 3807.3689, 
			 "electric_dipole_moment_norm": 3.34935503344, 
			 "electric_quadrupole_moment_norm": 12.6439927819, 
			 "total_energy": -591.682828034, 
			 "HOMO_LUMO_gap": 0.15536, 
			 "cosmo_polarized_energy": -10.49, 
			 "cosmo_cavitation_energy": 26.69, 
			 "cosmo_dispersion_energy": -19.7, 
			 "cosmo_repulsion_energy": 1.54, 
			 "cosmo_total_nonelectrostatic_energy": 8.53, 
			 "SMD_solvation_energy": 6.7 
		},
		"coords": [
			{
				"x": 0.3988306213,
				"y": -1.7953000568,
				"z": -3.506481812,
				"element": "C" 
			},
			{
				"x": 0.0286220696,
				"y": -0.9728355482,
				"z": -2.3915598716,
				"element": "O" 
			},
			{
				"x": -1.2666246929,
				"y": -1.0898909372,
				"z": -1.9968454576,
				"element": "C" 
			},
			{
				"x": -2.0624049377,
				"y": -1.8319115012,
				"z": -2.5393853273,
				"element": "O" 
			},
			{
				"x": -1.5715963819,
				"y": -0.2186279125,
				"z": -0.852405299,
				"element": "C" 
			},
			{
				"x": -0.6916072902,
				"y": 0.6441022305,
				"z": -0.203764204,
				"element": "C" 
			},
			{
				"x": -1.3818034424,
				"y": 1.2618251698,
				"z": 0.8019488712,
				"element": "N" 
			},
			{
				"x": -0.9436274593,
				"y": 2.1980782511,
				"z": 1.7178608341,
				"element": "C" 
			},
			{
				"x": -1.8056361785,
				"y": 2.6919599824,
				"z": 2.6490349983,
				"element": "C" 
			},
			{
				"x": -3.1648700037,
				"y": 2.2490677672,
				"z": 2.6879398792,
				"element": "C" 
			},
			{
				"x": -3.6065858803,
				"y": 1.3206586604,
				"z": 1.7827311459,
				"element": "C" 
			},
			{
				"x": -2.7235512817,
				"y": 0.7940243298,
				"z": 0.8046033117,
				"element": "C" 
			},
			{
				"x": -2.8376615789,
				"y": -0.1282230282,
				"z": -0.2276898078,
				"element": "C" 
			},
			{
				"x": -0.2017484946,
				"y": -1.5492313943,
				"z": -4.3862942438,
				"element": "H" 
			},
			{
				"x": 1.4522578489,
				"y": -1.5845956449,
				"z": -3.6922441425,
				"element": "H" 
			},
			{
				"x": 0.2555868531,
				"y": -2.8535660885,
				"z": -3.2722409288,
				"element": "H" 
			},
			{
				"x": 0.3505184791,
				"y": 0.8514658556,
				"z": -0.3883510946,
				"element": "H" 
			},
			{
				"x": 0.0959640774,
				"y": 2.4917595417,
				"z": 1.6354214627,
				"element": "H" 
			},
			{
				"x": -1.4437942303,
				"y": 3.4262267482,
				"z": 3.3598882589,
				"element": "H" 
			},
			{
				"x": -3.8388105754,
				"y": 2.6523760102,
				"z": 3.4360615722,
				"element": "H" 
			},
			{
				"x": -4.6323020719,
				"y": 0.966751595,
				"z": 1.7890733991,
				"element": "H" 
			},
			{
				"x": -3.7229554498,
				"y": -0.6783140302,
				"z": -0.5084015442,
				"element": "H" 
			}
		],
		 "valence_orbital": [ 
			{
				"type": "occ",
				"energy": -0.30538,
				"method": "rhf"
			},
			{
				"type": "occ",
				"energy": -0.29163,
				"method": "rhf"
			},
			{
				"type": "occ",
				"energy": -0.26467,
				"method": "rhf"
			},
			{
				"type": "occ",
				"energy": -0.23959,
				"method": "rhf"
			},
			{
				"type": "occ",
				"energy": -0.19489,
				"method": "rhf"
			},
			{
				"type": "unocc",
				"energy": -0.03953,
				"method": "rhf"
			},
			{
				"type": "unocc",
				"energy": -0.00712,
				"method": "rhf"
			},
			{
				"type": "unocc",
				"energy": 0.02419,
				"method": "rhf"
			},
			{
				"type": "unocc",
				"energy": 0.08767,
				"method": "rhf"
			},
			{
				"type": "unocc",
				"energy": 0.11629,
				"method": "rhf"
			}
		],
		"cosmo_sigma_profile": { 
			"-0.025": 0.0,
			"-0.024": 0.0,
			"-0.023": 0.0,
			"-0.022": 0.0,
			"-0.021": 0.0,
			"-0.02": 0.0,
			"-0.019": 0.0,
			"-0.018": 0.0,
			"-0.017": 0.0,
			"-0.016": 0.0,
			"-0.015": 0.0,
			"-0.014": 0.0,
			"-0.013": 0.0,
			"-0.012": 0.0,
			"-0.011": 0.0,
			"-0.01": 0.680886373727,
			"-0.009": 3.38489874091,
			"-0.008": 3.56264752497,
			"-0.007": 6.16761815884,
			"-0.006": 14.4631896682,
			"-0.005": 16.1428179016,
			"-0.004": 17.5478456606,
			"-0.003": 14.9206514237,
			"-0.002": 14.8917370483,
			"-0.001": 10.8372481879,
			"0.0": 11.8464216002,
			"0.001": 14.4026347336,
			"0.002": 16.1966247959,
			"0.003": 17.8761504091,
			"0.004": 20.0065195531,
			"0.005": 8.82618472454,
			"0.006": 4.82689347792,
			"0.007": 3.21550856481,
			"0.008": 1.75831618508,
			"0.009": 1.24272693191,
			"0.01": 1.8803865108,
			"0.011": 2.42973534245,
			"0.012": 4.60191559156,
			"0.013": 2.35975027333,
			"0.014": 0.0,
			"0.015": 0.0,
			"0.016": 0.0,
			"0.017": 0.0,
			"0.018": 0.0,
			"0.019": 0.0,
			"0.02": 0.0,
			"0.021": 0.0,
			"0.022": 0.0,
			"0.023": 0.0,
			"0.024": 0.0,
			"0.025": 0.0
		}
	}
}
