{
	 "smiles": "NC1=NC=CC(=C1)C(F)(F)F", 
	 "Tm": 346.15, 
	 "num_atms": 16, 
	 "gaussian": { 
		 "optdone": 1, 
		 "sigma_profile": "yes", 
		 "theory": "DFT", 
		 "functional": "B3LYP", 
		 "basiset": "6-31G**", 
		 "properties": { 
			 "R2extent": 1917.7468, 
			 "electric_dipole_moment_norm": 2.23643262809, 
			 "electric_quadrupole_moment_norm": 13.0937902259, 
			 "total_energy": -640.686659663, 
			 "HOMO_LUMO_gap": 0.18851, 
			 "cosmo_polarized_energy": -8.58, 
			 "cosmo_cavitation_energy": 21.86, 
			 "cosmo_dispersion_energy": -15.86, 
			 "cosmo_repulsion_energy": 1.23, 
			 "cosmo_total_nonelectrostatic_energy": 7.22, 
			 "SMD_solvation_energy": 3.65 
		},
		"coords": [
			{
				"x": 0.6688680366,
				"y": -2.4001634712,
				"z": -1.6124651196,
				"element": "N" 
			},
			{
				"x": 0.6226340239,
				"y": -1.2985418995,
				"z": -0.7869035469,
				"element": "C" 
			},
			{
				"x": 1.670804504,
				"y": -0.4628734381,
				"z": -0.8507448358,
				"element": "N" 
			},
			{
				"x": 1.6338090683,
				"y": 0.6457092142,
				"z": -0.1023844824,
				"element": "C" 
			},
			{
				"x": 0.5856080075,
				"y": 0.9840272173,
				"z": 0.746692411,
				"element": "C" 
			},
			{
				"x": -0.497268874,
				"y": 0.0982291303,
				"z": 0.8101935242,
				"element": "C" 
			},
			{
				"x": -0.4951800093,
				"y": -1.0540552922,
				"z": 0.0408717974,
				"element": "C" 
			},
			{
				"x": -1.6386092525,
				"y": 0.3836720944,
				"z": 1.7525917947,
				"element": "C" 
			},
			{
				"x": -1.9753133228,
				"y": 1.6911543168,
				"z": 1.7406577691,
				"element": "F" 
			},
			{
				"x": -1.3078686671,
				"y": 0.0735545212,
				"z": 3.0265880507,
				"element": "F" 
			},
			{
				"x": -2.7454286389,
				"y": -0.3254572026,
				"z": 1.4443969364,
				"element": "F" 
			},
			{
				"x": 1.5805909,
				"y": -2.5983149595,
				"z": -1.9987758278,
				"element": "H" 
			},
			{
				"x": 0.1142773464,
				"y": -3.2048049294,
				"z": -1.3644737735,
				"element": "H" 
			},
			{
				"x": 2.4993722345,
				"y": 1.3002075519,
				"z": -0.1875151609,
				"element": "H" 
			},
			{
				"x": 0.6050573555,
				"y": 1.8964571633,
				"z": 1.3301655262,
				"element": "H" 
			},
			{
				"x": -1.3330527119,
				"y": -1.7415000169,
				"z": 0.0654049371,
				"element": "H" 
			}
		],
		 "valence_orbital": [ 
			{
				"type": "occ",
				"energy": -0.37697,
				"method": "rhf"
			},
			{
				"type": "occ",
				"energy": -0.32908,
				"method": "rhf"
			},
			{
				"type": "occ",
				"energy": -0.29328,
				"method": "rhf"
			},
			{
				"type": "occ",
				"energy": -0.2675,
				"method": "rhf"
			},
			{
				"type": "occ",
				"energy": -0.22564,
				"method": "rhf"
			},
			{
				"type": "unocc",
				"energy": -0.03713,
				"method": "rhf"
			},
			{
				"type": "unocc",
				"energy": -0.00412,
				"method": "rhf"
			},
			{
				"type": "unocc",
				"energy": 0.07723,
				"method": "rhf"
			},
			{
				"type": "unocc",
				"energy": 0.11273,
				"method": "rhf"
			},
			{
				"type": "unocc",
				"energy": 0.1232,
				"method": "rhf"
			}
		],
		"cosmo_sigma_profile": { 
			"-0.025": 0.0,
			"-0.024": 0.0,
			"-0.023": 0.0,
			"-0.022": 0.0,
			"-0.021": 0.0,
			"-0.02": 0.0,
			"-0.019": 0.0,
			"-0.018": 0.0,
			"-0.017": 0.0,
			"-0.016": 0.0,
			"-0.015": 0.0,
			"-0.014": 0.716039874852,
			"-0.013": 2.20570278691,
			"-0.012": 2.5231285627,
			"-0.011": 2.31518058281,
			"-0.01": 2.99524960568,
			"-0.009": 2.53263507511,
			"-0.008": 2.85264575332,
			"-0.007": 4.44541115491,
			"-0.006": 6.72537916568,
			"-0.005": 7.04564870513,
			"-0.004": 6.01965679331,
			"-0.003": 6.9115367939,
			"-0.002": 6.99852412487,
			"-0.001": 8.10083180639,
			"0.0": 11.6500324286,
			"0.001": 17.1093884761,
			"0.002": 32.633875103,
			"0.003": 30.6180618128,
			"0.004": 3.02055150332,
			"0.005": 2.80851711252,
			"0.006": 1.9080887981,
			"0.007": 2.30040564844,
			"0.008": 2.19889669496,
			"0.009": 1.53532530917,
			"0.01": 1.52746240937,
			"0.011": 2.0290134072,
			"0.012": 0.931078700948,
			"0.013": 0.699236464321,
			"0.014": 0.802347881338,
			"0.015": 0.731073658886,
			"0.016": 0.0607864003175,
			"0.017": 0.0,
			"0.018": 0.0,
			"0.019": 0.0,
			"0.02": 0.0,
			"0.021": 0.0,
			"0.022": 0.0,
			"0.023": 0.0,
			"0.024": 0.0,
			"0.025": 0.0
		}
	}
}
