{
	 "smiles": "CCOC(=O)C1=CC(Cl)=C(N=C1)C(O)=O", 
	 "Tm": 388.15, 
	 "num_atms": 23, 
	 "gaussian": { 
		 "optdone": 1, 
		 "sigma_profile": "yes", 
		 "theory": "DFT", 
		 "functional": "B3LYP", 
		 "basiset": "6-31G**", 
		 "properties": { 
			 "R2extent": 5559.4091, 
			 "electric_dipole_moment_norm": 6.90166152314, 
			 "electric_quadrupole_moment_norm": 11.5805588237, 
			 "total_energy": -1163.63848494, 
			 "HOMO_LUMO_gap": 0.16916, 
			 "cosmo_polarized_energy": -14.31, 
			 "cosmo_cavitation_energy": 30.49, 
			 "cosmo_dispersion_energy": -22.45, 
			 "cosmo_repulsion_energy": 1.78, 
			 "cosmo_total_nonelectrostatic_energy": 9.82, 
			 "SMD_solvation_energy": 6.79 
		},
		"coords": [
			{
				"x": 2.7750718688,
				"y": 3.7002982208,
				"z": 0.9589893411,
				"element": "C" 
			},
			{
				"x": 3.2660451129,
				"y": 2.2665267263,
				"z": 0.9855767133,
				"element": "C" 
			},
			{
				"x": 2.1741941151,
				"y": 1.4231316175,
				"z": 0.5342473877,
				"element": "O" 
			},
			{
				"x": 2.4289382038,
				"y": 0.1040163516,
				"z": 0.4927628248,
				"element": "C" 
			},
			{
				"x": 3.4885859323,
				"y": -0.4010245101,
				"z": 0.8025774881,
				"element": "O" 
			},
			{
				"x": 1.2475042626,
				"y": -0.680212127,
				"z": 0.0168008814,
				"element": "C" 
			},
			{
				"x": 1.3642525575,
				"y": -2.0656833219,
				"z": -0.0772184101,
				"element": "C" 
			},
			{
				"x": 0.2772082428,
				"y": -2.8218963258,
				"z": -0.5184498485,
				"element": "C" 
			},
			{
				"x": 0.476013636,
				"y": -4.5457762176,
				"z": -0.6171961121,
				"element": "Cl" 
			},
			{
				"x": -0.9112247462,
				"y": -2.1520802577,
				"z": -0.856654361,
				"element": "C" 
			},
			{
				"x": -1.0062699596,
				"y": -0.8130023337,
				"z": -0.7598082608,
				"element": "N" 
			},
			{
				"x": 0.0282358392,
				"y": -0.0903745765,
				"z": -0.3395286265,
				"element": "C" 
			},
			{
				"x": -2.1869133499,
				"y": -2.8156974969,
				"z": -1.3529830119,
				"element": "C" 
			},
			{
				"x": -3.1651802355,
				"y": -1.9319790928,
				"z": -1.5996928906,
				"element": "O" 
			},
			{
				"x": -2.3191831338,
				"y": -4.004957417,
				"z": -1.5121693692,
				"element": "O" 
			},
			{
				"x": 3.5742882849,
				"y": 4.3681759495,
				"z": 1.2942719838,
				"element": "H" 
			},
			{
				"x": 1.915879229,
				"y": 3.8336087849,
				"z": 1.6223999845,
				"element": "H" 
			},
			{
				"x": 2.4822634929,
				"y": 3.9965431928,
				"z": -0.0522477554,
				"element": "H" 
			},
			{
				"x": 3.5589795135,
				"y": 1.945854452,
				"z": 1.9897468827,
				"element": "H" 
			},
			{
				"x": 4.1225125208,
				"y": 2.1079218541,
				"z": 0.323526131,
				"element": "H" 
			},
			{
				"x": 2.299986813,
				"y": -2.5415870953,
				"z": 0.1939667717,
				"element": "H" 
			},
			{
				"x": -0.1080091954,
				"y": 0.9843762044,
				"z": -0.282067706,
				"element": "H" 
			},
			{
				"x": -2.7973790046,
				"y": -1.0467825816,
				"z": -1.389850038,
				"element": "H" 
			}
		],
		 "valence_orbital": [ 
			{
				"type": "occ",
				"energy": -0.31794,
				"method": "rhf"
			},
			{
				"type": "occ",
				"energy": -0.31234,
				"method": "rhf"
			},
			{
				"type": "occ",
				"energy": -0.29923,
				"method": "rhf"
			},
			{
				"type": "occ",
				"energy": -0.28299,
				"method": "rhf"
			},
			{
				"type": "occ",
				"energy": -0.26689,
				"method": "rhf"
			},
			{
				"type": "unocc",
				"energy": -0.09773,
				"method": "rhf"
			},
			{
				"type": "unocc",
				"energy": -0.06138,
				"method": "rhf"
			},
			{
				"type": "unocc",
				"energy": -0.00785,
				"method": "rhf"
			},
			{
				"type": "unocc",
				"energy": 0.01603,
				"method": "rhf"
			},
			{
				"type": "unocc",
				"energy": 0.06428,
				"method": "rhf"
			}
		],
		"cosmo_sigma_profile": { 
			"-0.025": 0.0,
			"-0.024": 0.0,
			"-0.023": 0.0,
			"-0.022": 0.0,
			"-0.021": 0.0,
			"-0.02": 0.0,
			"-0.019": 0.0,
			"-0.018": 0.0,
			"-0.017": 0.0,
			"-0.016": 0.0,
			"-0.015": 0.0,
			"-0.014": 0.0,
			"-0.013": 0.257833038987,
			"-0.012": 0.178950273013,
			"-0.011": 0.849741423696,
			"-0.01": 0.833877019567,
			"-0.009": 1.18583788674,
			"-0.008": 3.11673704477,
			"-0.007": 3.22438754284,
			"-0.006": 8.37691272987,
			"-0.005": 19.3390900329,
			"-0.004": 28.9549938513,
			"-0.003": 31.434619635,
			"-0.002": 24.1772719168,
			"-0.001": 18.8002575902,
			"0.0": 16.3108714892,
			"0.001": 11.5871345164,
			"0.002": 12.3306721476,
			"0.003": 12.7536981217,
			"0.004": 7.71423566464,
			"0.005": 4.06293531803,
			"0.006": 3.46612335145,
			"0.007": 4.37161696737,
			"0.008": 5.34537075856,
			"0.009": 5.87605994608,
			"0.01": 8.30801166322,
			"0.011": 9.76228639509,
			"0.012": 3.31392404464,
			"0.013": 0.372678234348,
			"0.014": 0.0,
			"0.015": 0.0,
			"0.016": 0.0,
			"0.017": 0.0,
			"0.018": 0.0,
			"0.019": 0.0,
			"0.02": 0.0,
			"0.021": 0.0,
			"0.022": 0.0,
			"0.023": 0.0,
			"0.024": 0.0,
			"0.025": 0.0
		}
	}
}
