{
	 "smiles": "CC(C)CC1=NC(O)=CC(=C1)C(O)=O", 
	 "Tm": 509.15, 
	 "num_atms": 27, 
	 "gaussian": { 
		 "optdone": 1, 
		 "sigma_profile": "yes", 
		 "theory": "DFT", 
		 "functional": "B3LYP", 
		 "basiset": "6-31G**", 
		 "properties": { 
			 "R2extent": 3368.0098, 
			 "electric_dipole_moment_norm": 3.63730448822, 
			 "electric_quadrupole_moment_norm": 15.2960768604, 
			 "total_energy": -669.350460848, 
			 "HOMO_LUMO_gap": 0.18147, 
			 "cosmo_polarized_energy": -15.17, 
			 "cosmo_cavitation_energy": 30.55, 
			 "cosmo_dispersion_energy": -21.44, 
			 "cosmo_repulsion_energy": 1.71, 
			 "cosmo_total_nonelectrostatic_energy": 10.82, 
			 "SMD_solvation_energy": 5.82 
		},
		"coords": [
			{
				"x": -2.6419118576,
				"y": 0.392744381,
				"z": 2.0748838658,
				"element": "C" 
			},
			{
				"x": -1.2980767401,
				"y": 0.3838739148,
				"z": 2.8166885595,
				"element": "C" 
			},
			{
				"x": -0.8368306157,
				"y": -1.0481985199,
				"z": 3.1219037958,
				"element": "C" 
			},
			{
				"x": -0.2036870682,
				"y": 1.2153696715,
				"z": 2.0867775601,
				"element": "C" 
			},
			{
				"x": 0.200562579,
				"y": 0.7074064456,
				"z": 0.722638213,
				"element": "C" 
			},
			{
				"x": -0.5508836095,
				"y": 1.1108828426,
				"z": -0.3233383541,
				"element": "N" 
			},
			{
				"x": -0.238295779,
				"y": 0.6787237969,
				"z": -1.5397563979,
				"element": "C" 
			},
			{
				"x": -1.0171993363,
				"y": 1.0846708573,
				"z": -2.5661723688,
				"element": "O" 
			},
			{
				"x": 0.8459578951,
				"y": -0.1653074439,
				"z": -1.8200047718,
				"element": "C" 
			},
			{
				"x": 1.6296090875,
				"y": -0.5713287233,
				"z": -0.7419339953,
				"element": "C" 
			},
			{
				"x": 1.2975512655,
				"y": -0.1395793136,
				"z": 0.5483842042,
				"element": "C" 
			},
			{
				"x": 2.8169521192,
				"y": -1.4829821313,
				"z": -0.8994877983,
				"element": "C" 
			},
			{
				"x": 3.3989818413,
				"y": -1.5143727894,
				"z": -2.1248780645,
				"element": "O" 
			},
			{
				"x": 3.2497153913,
				"y": -2.1605387658,
				"z": 0.0009295915,
				"element": "O" 
			},
			{
				"x": -2.986442404,
				"y": 1.4141386202,
				"z": 1.8825030859,
				"element": "H" 
			},
			{
				"x": -2.5708944398,
				"y": -0.1171351236,
				"z": 1.1091438722,
				"element": "H" 
			},
			{
				"x": -3.4088323521,
				"y": -0.1173776953,
				"z": 2.6678616942,
				"element": "H" 
			},
			{
				"x": -1.4483087523,
				"y": 0.8946698496,
				"z": 3.7783028641,
				"element": "H" 
			},
			{
				"x": -0.6743914274,
				"y": -1.6228739618,
				"z": 2.2036117981,
				"element": "H" 
			},
			{
				"x": -1.590505689,
				"y": -1.5782501134,
				"z": 3.7137863605,
				"element": "H" 
			},
			{
				"x": 0.0997106952,
				"y": -1.0576658933,
				"z": 3.6906907057,
				"element": "H" 
			},
			{
				"x": 0.6847015291,
				"y": 1.2517739963,
				"z": 2.7276484589,
				"element": "H" 
			},
			{
				"x": -0.5672788574,
				"y": 2.241690795,
				"z": 1.9684492729,
				"element": "H" 
			},
			{
				"x": -1.7040316073,
				"y": 1.647980161,
				"z": -2.1746685847,
				"element": "H" 
			},
			{
				"x": 1.0076055126,
				"y": -0.4978020983,
				"z": -2.8399944717,
				"element": "H" 
			},
			{
				"x": 1.8996809789,
				"y": -0.4646625217,
				"z": 1.388025834,
				"element": "H" 
			},
			{
				"x": 3.0324416411,
				"y": -0.8177502373,
				"z": -2.6876949293,
				"element": "H" 
			}
		],
		 "valence_orbital": [ 
			{
				"type": "occ",
				"energy": -0.32239,
				"method": "rhf"
			},
			{
				"type": "occ",
				"energy": -0.29791,
				"method": "rhf"
			},
			{
				"type": "occ",
				"energy": -0.28514,
				"method": "rhf"
			},
			{
				"type": "occ",
				"energy": -0.27776,
				"method": "rhf"
			},
			{
				"type": "occ",
				"energy": -0.24748,
				"method": "rhf"
			},
			{
				"type": "unocc",
				"energy": -0.06601,
				"method": "rhf"
			},
			{
				"type": "unocc",
				"energy": -0.01726,
				"method": "rhf"
			},
			{
				"type": "unocc",
				"energy": 0.03872,
				"method": "rhf"
			},
			{
				"type": "unocc",
				"energy": 0.06114,
				"method": "rhf"
			},
			{
				"type": "unocc",
				"energy": 0.07948,
				"method": "rhf"
			}
		],
		"cosmo_sigma_profile": { 
			"-0.025": 0.0,
			"-0.024": 0.0,
			"-0.023": 0.0,
			"-0.022": 0.0,
			"-0.021": 0.0,
			"-0.02": 0.0,
			"-0.019": 0.315389062008,
			"-0.018": 1.29864860875,
			"-0.017": 1.39495676438,
			"-0.016": 1.73754384736,
			"-0.015": 1.65173755754,
			"-0.014": 1.86762436814,
			"-0.013": 1.78075556439,
			"-0.012": 1.90743177512,
			"-0.011": 1.88795671841,
			"-0.01": 1.85565846976,
			"-0.009": 2.20685465063,
			"-0.008": 1.81220715555,
			"-0.007": 2.16490137673,
			"-0.006": 4.0989909722,
			"-0.005": 5.59648968213,
			"-0.004": 8.0380036142,
			"-0.003": 16.4545028366,
			"-0.002": 26.3263836157,
			"-0.001": 28.2698090215,
			"0.0": 31.9228266781,
			"0.001": 26.7296195163,
			"0.002": 14.7142197051,
			"0.003": 6.77733900176,
			"0.004": 4.58101078346,
			"0.005": 5.35224871354,
			"0.006": 4.57478368968,
			"0.007": 4.43249005459,
			"0.008": 5.88605704696,
			"0.009": 6.4599683121,
			"0.01": 7.83211365112,
			"0.011": 5.95556079739,
			"0.012": 3.69918929924,
			"0.013": 0.487093351476,
			"0.014": 0.0,
			"0.015": 0.0,
			"0.016": 0.0,
			"0.017": 0.0,
			"0.018": 0.0,
			"0.019": 0.0,
			"0.02": 0.0,
			"0.021": 0.0,
			"0.022": 0.0,
			"0.023": 0.0,
			"0.024": 0.0,
			"0.025": 0.0
		}
	}
}
