{
	 "smiles": "OC(=O)C1=CC2=C(C=CN=C2)N=C1C(F)(F)F", 
	 "Tm": 507.15, 
	 "num_atms": 22, 
	 "gaussian": { 
		 "optdone": 1, 
		 "sigma_profile": "yes", 
		 "theory": "DFT", 
		 "functional": "B3LYP", 
		 "basiset": "6-31G**", 
		 "properties": { 
			 "R2extent": 4736.673, 
			 "electric_dipole_moment_norm": 3.23210319297, 
			 "electric_quadrupole_moment_norm": 12.2795547847, 
			 "total_energy": -943.551744823, 
			 "HOMO_LUMO_gap": 0.17124, 
			 "cosmo_polarized_energy": -13.56, 
			 "cosmo_cavitation_energy": 28.44, 
			 "cosmo_dispersion_energy": -20.76, 
			 "cosmo_repulsion_energy": 1.51, 
			 "cosmo_total_nonelectrostatic_energy": 9.19, 
			 "SMD_solvation_energy": 4.18 
		},
		"coords": [
			{
				"x": 1.8993728933,
				"y": -2.8697481877,
				"z": -2.7060596589,
				"element": "O" 
			},
			{
				"x": 2.5506744347,
				"y": -1.9597615972,
				"z": -1.9619725299,
				"element": "C" 
			},
			{
				"x": 3.7461950951,
				"y": -2.0411272843,
				"z": -1.8015100095,
				"element": "O" 
			},
			{
				"x": 1.7780417257,
				"y": -0.7880550372,
				"z": -1.3870402056,
				"element": "C" 
			},
			{
				"x": 2.4931876571,
				"y": 0.3920891994,
				"z": -1.2896537254,
				"element": "C" 
			},
			{
				"x": 1.8851224169,
				"y": 1.5560306815,
				"z": -0.7789248315,
				"element": "C" 
			},
			{
				"x": 0.5321471129,
				"y": 1.4667628855,
				"z": -0.3450745744,
				"element": "C" 
			},
			{
				"x": -0.0798139779,
				"y": 2.6383852127,
				"z": 0.1608933543,
				"element": "C" 
			},
			{
				"x": 0.6612105549,
				"y": 3.7984245778,
				"z": 0.2090986983,
				"element": "C" 
			},
			{
				"x": 1.9592309635,
				"y": 3.8984542736,
				"z": -0.1970035456,
				"element": "N" 
			},
			{
				"x": 2.5387073976,
				"y": 2.8158999302,
				"z": -0.669031368,
				"element": "C" 
			},
			{
				"x": -0.1613835725,
				"y": 0.296276748,
				"z": -0.3949696145,
				"element": "N" 
			},
			{
				"x": 0.4325006251,
				"y": -0.7653012079,
				"z": -0.8908356184,
				"element": "C" 
			},
			{
				"x": -0.4259323989,
				"y": -2.0249355227,
				"z": -0.865179146,
				"element": "C" 
			},
			{
				"x": 0.2472813161,
				"y": -3.0646871526,
				"z": -0.3403421774,
				"element": "F" 
			},
			{
				"x": -0.7630499646,
				"y": -2.3842499397,
				"z": -2.1525907656,
				"element": "F" 
			},
			{
				"x": -1.560331408,
				"y": -1.8703216946,
				"z": -0.1962831421,
				"element": "F" 
			},
			{
				"x": 0.9548986657,
				"y": -2.6711472565,
				"z": -2.7987754141,
				"element": "H" 
			},
			{
				"x": 3.5297202512,
				"y": 0.4019440967,
				"z": -1.6125588402,
				"element": "H" 
			},
			{
				"x": -1.109422267,
				"y": 2.5985477328,
				"z": 0.4984582734,
				"element": "H" 
			},
			{
				"x": 0.2220119757,
				"y": 4.716730257,
				"z": 0.590672974,
				"element": "H" 
			},
			{
				"x": 3.5764305032,
				"y": 2.9065892852,
				"z": -0.9904181327,
				"element": "H" 
			}
		],
		 "valence_orbital": [ 
			{
				"type": "occ",
				"energy": -0.31133,
				"method": "rhf"
			},
			{
				"type": "occ",
				"energy": -0.30487,
				"method": "rhf"
			},
			{
				"type": "occ",
				"energy": -0.28723,
				"method": "rhf"
			},
			{
				"type": "occ",
				"energy": -0.28185,
				"method": "rhf"
			},
			{
				"type": "occ",
				"energy": -0.27069,
				"method": "rhf"
			},
			{
				"type": "unocc",
				"energy": -0.09945,
				"method": "rhf"
			},
			{
				"type": "unocc",
				"energy": -0.07918,
				"method": "rhf"
			},
			{
				"type": "unocc",
				"energy": -0.01711,
				"method": "rhf"
			},
			{
				"type": "unocc",
				"energy": 8e-05,
				"method": "rhf"
			},
			{
				"type": "unocc",
				"energy": 0.05568,
				"method": "rhf"
			}
		],
		"cosmo_sigma_profile": { 
			"-0.025": 0.0,
			"-0.024": 0.0,
			"-0.023": 0.0,
			"-0.022": 0.0,
			"-0.021": 0.0,
			"-0.02": 0.0,
			"-0.019": 0.0,
			"-0.018": 0.0,
			"-0.017": 0.0,
			"-0.016": 0.0,
			"-0.015": 0.198687374378,
			"-0.014": 0.719074493013,
			"-0.013": 0.829826439295,
			"-0.012": 1.19319247274,
			"-0.011": 1.05743906186,
			"-0.01": 2.44628773328,
			"-0.009": 3.01514845773,
			"-0.008": 6.61806379931,
			"-0.007": 8.95951640481,
			"-0.006": 10.199190346,
			"-0.005": 11.8607894755,
			"-0.004": 12.8450030665,
			"-0.003": 15.881882409,
			"-0.002": 19.8181448379,
			"-0.001": 17.5797942006,
			"0.0": 18.9752816636,
			"0.001": 26.7253167605,
			"0.002": 15.995583156,
			"0.003": 6.35089376452,
			"0.004": 5.33482517222,
			"0.005": 3.95603820415,
			"0.006": 5.18662178954,
			"0.007": 4.13631357713,
			"0.008": 6.10082641778,
			"0.009": 5.63164634811,
			"0.01": 6.86939763139,
			"0.011": 6.18008380073,
			"0.012": 3.24556114179,
			"0.013": 0.999462649535,
			"0.014": 0.888187599744,
			"0.015": 0.628302584778,
			"0.016": 0.133736762605,
			"0.017": 0.0,
			"0.018": 0.0,
			"0.019": 0.0,
			"0.02": 0.0,
			"0.021": 0.0,
			"0.022": 0.0,
			"0.023": 0.0,
			"0.024": 0.0,
			"0.025": 0.0
		}
	}
}
