{
	 "smiles": "NC(=O)C1=CC=C(C=C1)C(O)=O", 
	 "Tm": 573.15, 
	 "num_atms": 19, 
	 "gaussian": { 
		 "optdone": 1, 
		 "sigma_profile": "yes", 
		 "theory": "DFT", 
		 "functional": "B3LYP", 
		 "basiset": "6-31G**", 
		 "properties": { 
			 "R2extent": 3129.8677, 
			 "electric_dipole_moment_norm": 2.17914042457, 
			 "electric_quadrupole_moment_norm": 19.9921055699, 
			 "total_energy": -589.530445474, 
			 "HOMO_LUMO_gap": 0.18705, 
			 "cosmo_polarized_energy": -17.6, 
			 "cosmo_cavitation_energy": 24.42, 
			 "cosmo_dispersion_energy": -18.02, 
			 "cosmo_repulsion_energy": 1.44, 
			 "cosmo_total_nonelectrostatic_energy": 7.84, 
			 "SMD_solvation_energy": 6.27 
		},
		"coords": [
			{
				"x": 2.3016556507,
				"y": 1.8761922883,
				"z": 1.626453111,
				"element": "N" 
			},
			{
				"x": 2.0132096082,
				"y": 0.7133522802,
				"z": 0.9553055358,
				"element": "C" 
			},
			{
				"x": 2.8555309252,
				"y": 0.1198396416,
				"z": 0.2940728422,
				"element": "O" 
			},
			{
				"x": 0.594295031,
				"y": 0.2199099952,
				"z": 1.0567201491,
				"element": "C" 
			},
			{
				"x": 0.3555845488,
				"y": -1.1187559623,
				"z": 0.718996067,
				"element": "C" 
			},
			{
				"x": -0.9290183023,
				"y": -1.6467580577,
				"z": 0.7915753605,
				"element": "C" 
			},
			{
				"x": -1.9976433738,
				"y": -0.8319294448,
				"z": 1.1927055968,
				"element": "C" 
			},
			{
				"x": -1.767649088,
				"y": 0.5124491,
				"z": 1.5117829695,
				"element": "C" 
			},
			{
				"x": -0.4800986633,
				"y": 1.0348422056,
				"z": 1.4441909862,
				"element": "C" 
			},
			{
				"x": -3.3936802495,
				"y": -1.3395139054,
				"z": 1.288226395,
				"element": "C" 
			},
			{
				"x": -3.5063123952,
				"y": -2.6484341424,
				"z": 0.9541622788,
				"element": "O" 
			},
			{
				"x": -4.3512649644,
				"y": -0.6731836798,
				"z": 1.6282452397,
				"element": "O" 
			},
			{
				"x": 3.2773968558,
				"y": 2.135923904,
				"z": 1.6453946162,
				"element": "H" 
			},
			{
				"x": 1.7314853739,
				"y": 2.1796366747,
				"z": 2.4001000848,
				"element": "H" 
			},
			{
				"x": 1.1964172754,
				"y": -1.7247009772,
				"z": 0.3998118017,
				"element": "H" 
			},
			{
				"x": -1.1117231202,
				"y": -2.6845851235,
				"z": 0.5377555308,
				"element": "H" 
			},
			{
				"x": -2.6107781273,
				"y": 1.1295651175,
				"z": 1.8027601898,
				"element": "H" 
			},
			{
				"x": -0.3228802038,
				"y": 2.0871984344,
				"z": 1.660546361,
				"element": "H" 
			},
			{
				"x": -4.447826781,
				"y": -2.8666483485,
				"z": 1.050894884,
				"element": "H" 
			}
		],
		 "valence_orbital": [ 
			{
				"type": "occ",
				"energy": -0.28358,
				"method": "rhf"
			},
			{
				"type": "occ",
				"energy": -0.27972,
				"method": "rhf"
			},
			{
				"type": "occ",
				"energy": -0.27187,
				"method": "rhf"
			},
			{
				"type": "occ",
				"energy": -0.26931,
				"method": "rhf"
			},
			{
				"type": "occ",
				"energy": -0.25641,
				"method": "rhf"
			},
			{
				"type": "unocc",
				"energy": -0.06936,
				"method": "rhf"
			},
			{
				"type": "unocc",
				"energy": -0.01931,
				"method": "rhf"
			},
			{
				"type": "unocc",
				"energy": 0.01343,
				"method": "rhf"
			},
			{
				"type": "unocc",
				"energy": 0.0654,
				"method": "rhf"
			},
			{
				"type": "unocc",
				"energy": 0.07577,
				"method": "rhf"
			}
		],
		"cosmo_sigma_profile": { 
			"-0.025": 0.0,
			"-0.024": 0.0,
			"-0.023": 0.0,
			"-0.022": 0.0,
			"-0.021": 0.0,
			"-0.02": 0.0,
			"-0.019": 0.245606983589,
			"-0.018": 0.714903264716,
			"-0.017": 0.803086530225,
			"-0.016": 1.55944522199,
			"-0.015": 0.489874699672,
			"-0.014": 2.43821231195,
			"-0.013": 2.96772027845,
			"-0.012": 3.15355582526,
			"-0.011": 3.49357366655,
			"-0.01": 3.29464099913,
			"-0.009": 3.70145532448,
			"-0.008": 2.64880230053,
			"-0.007": 5.05555548104,
			"-0.006": 8.28188309053,
			"-0.005": 7.55739303785,
			"-0.004": 7.15107792582,
			"-0.003": 8.89433146915,
			"-0.002": 12.3831987186,
			"-0.001": 12.6977509743,
			"0.0": 14.7620757358,
			"0.001": 14.0159765448,
			"0.002": 18.1020107906,
			"0.003": 11.6625979485,
			"0.004": 5.64450346388,
			"0.005": 5.25024938827,
			"0.006": 4.32033126553,
			"0.007": 5.12465651568,
			"0.008": 3.43754579321,
			"0.009": 2.59073901985,
			"0.01": 3.74910435446,
			"0.011": 6.21922512352,
			"0.012": 4.9366267757,
			"0.013": 5.40288366664,
			"0.014": 2.29160638059,
			"0.015": 0.0682790530955,
			"0.016": 0.0,
			"0.017": 0.0,
			"0.018": 0.0,
			"0.019": 0.0,
			"0.02": 0.0,
			"0.021": 0.0,
			"0.022": 0.0,
			"0.023": 0.0,
			"0.024": 0.0,
			"0.025": 0.0
		}
	}
}
