{
	 "smiles": "COC1=CC=C(C=C1)C(=O)C1=CC=CC=C1C(O)=O", 
	 "Tm": 419.15, 
	 "num_atms": 31, 
	 "gaussian": { 
		 "optdone": 1, 
		 "sigma_profile": "yes", 
		 "theory": "DFT", 
		 "functional": "B3LYP", 
		 "basiset": "6-31G**", 
		 "properties": { 
			 "R2extent": 6408.4418, 
			 "electric_dipole_moment_norm": 3.01111289891, 
			 "electric_quadrupole_moment_norm": 25.3749393085, 
			 "total_energy": -879.726528563, 
			 "HOMO_LUMO_gap": 0.16837, 
			 "cosmo_polarized_energy": -17.85, 
			 "cosmo_cavitation_energy": 36.14, 
			 "cosmo_dispersion_energy": -25.43, 
			 "cosmo_repulsion_energy": 1.96, 
			 "cosmo_total_nonelectrostatic_energy": 12.67, 
			 "SMD_solvation_energy": 8.53 
		},
		"coords": [
			{
				"x": -3.1573469508,
				"y": 3.6584185919,
				"z": 1.0770870531,
				"element": "C" 
			},
			{
				"x": -2.858205965,
				"y": 2.2810656488,
				"z": 0.8977157515,
				"element": "O" 
			},
			{
				"x": -1.6499173876,
				"y": 1.941497055,
				"z": 0.3741489242,
				"element": "C" 
			},
			{
				"x": -0.6632112616,
				"y": 2.8618182756,
				"z": -0.0135767249,
				"element": "C" 
			},
			{
				"x": 0.5371683169,
				"y": 2.3961214656,
				"z": -0.5397476916,
				"element": "C" 
			},
			{
				"x": 0.7845288736,
				"y": 1.0248633781,
				"z": -0.6862281871,
				"element": "C" 
			},
			{
				"x": -0.2139918931,
				"y": 0.1154705964,
				"z": -0.296052893,
				"element": "C" 
			},
			{
				"x": -1.4172563181,
				"y": 0.5641911108,
				"z": 0.2267132296,
				"element": "C" 
			},
			{
				"x": 2.0810441895,
				"y": 0.6002559325,
				"z": -1.2756382814,
				"element": "C" 
			},
			{
				"x": 2.8818735377,
				"y": 1.4021243664,
				"z": -1.7349259131,
				"element": "O" 
			},
			{
				"x": 2.3649426293,
				"y": -0.8842875889,
				"z": -1.4523744663,
				"element": "C" 
			},
			{
				"x": 2.218236046,
				"y": -1.4001191864,
				"z": -2.7447856994,
				"element": "C" 
			},
			{
				"x": 2.48788822,
				"y": -2.7410898363,
				"z": -3.016846239,
				"element": "C" 
			},
			{
				"x": 2.9227098166,
				"y": -3.5887905578,
				"z": -1.9962574261,
				"element": "C" 
			},
			{
				"x": 3.0895928219,
				"y": -3.0871925435,
				"z": -0.7088295616,
				"element": "C" 
			},
			{
				"x": 2.8147990248,
				"y": -1.7400113084,
				"z": -0.4263896594,
				"element": "C" 
			},
			{
				"x": 3.0311223562,
				"y": -1.1951597382,
				"z": 0.9399839467,
				"element": "C" 
			},
			{
				"x": 3.3946877267,
				"y": -2.1423399945,
				"z": 1.8412607467,
				"element": "O" 
			},
			{
				"x": 2.9102012228,
				"y": -0.0272311701,
				"z": 1.2530370281,
				"element": "O" 
			},
			{
				"x": -4.1599804452,
				"y": 3.6940261698,
				"z": 1.5054150084,
				"element": "H" 
			},
			{
				"x": -2.4520872447,
				"y": 4.1380702982,
				"z": 1.7670925221,
				"element": "H" 
			},
			{
				"x": -3.1524950609,
				"y": 4.20025113,
				"z": 0.1230756056,
				"element": "H" 
			},
			{
				"x": -0.8231404219,
				"y": 3.9282062972,
				"z": 0.0920291037,
				"element": "H" 
			},
			{
				"x": 1.3119006505,
				"y": 3.0910646724,
				"z": -0.8463788174,
				"element": "H" 
			},
			{
				"x": -0.0492456569,
				"y": -0.9515641995,
				"z": -0.4080748998,
				"element": "H" 
			},
			{
				"x": -2.1970270307,
				"y": -0.1267971927,
				"z": 0.5293180018,
				"element": "H" 
			},
			{
				"x": 1.8910972494,
				"y": -0.7390068974,
				"z": -3.541506873,
				"element": "H" 
			},
			{
				"x": 2.3630320332,
				"y": -3.1215741646,
				"z": -4.0265627419,
				"element": "H" 
			},
			{
				"x": 3.1376528841,
				"y": -4.6325144345,
				"z": -2.2039879658,
				"element": "H" 
			},
			{
				"x": 3.4416925054,
				"y": -3.7297840115,
				"z": 0.0896490241,
				"element": "H" 
			},
			{
				"x": 3.5217355321,
				"y": -1.6689821645,
				"z": 2.679738095,
				"element": "H" 
			}
		],
		 "valence_orbital": [ 
			{
				"type": "occ",
				"energy": -0.26713,
				"method": "rhf"
			},
			{
				"type": "occ",
				"energy": -0.26592,
				"method": "rhf"
			},
			{
				"type": "occ",
				"energy": -0.2553,
				"method": "rhf"
			},
			{
				"type": "occ",
				"energy": -0.23801,
				"method": "rhf"
			},
			{
				"type": "occ",
				"energy": -0.22302,
				"method": "rhf"
			},
			{
				"type": "unocc",
				"energy": -0.05465,
				"method": "rhf"
			},
			{
				"type": "unocc",
				"energy": -0.03972,
				"method": "rhf"
			},
			{
				"type": "unocc",
				"energy": -0.01501,
				"method": "rhf"
			},
			{
				"type": "unocc",
				"energy": -0.00272,
				"method": "rhf"
			},
			{
				"type": "unocc",
				"energy": 0.05338,
				"method": "rhf"
			}
		],
		"cosmo_sigma_profile": { 
			"-0.025": 0.0,
			"-0.024": 0.0,
			"-0.023": 0.0,
			"-0.022": 0.0,
			"-0.021": 0.0,
			"-0.02": 0.0,
			"-0.019": 0.209665219205,
			"-0.018": 0.797836244702,
			"-0.017": 1.06972499015,
			"-0.016": 0.6171952793,
			"-0.015": 0.823828284079,
			"-0.014": 0.615133084624,
			"-0.013": 0.508458460279,
			"-0.012": 0.661095386569,
			"-0.011": 1.1222456689,
			"-0.01": 0.306663283806,
			"-0.009": 0.358412309926,
			"-0.008": 1.29689024617,
			"-0.007": 9.29183562834,
			"-0.006": 20.8933069372,
			"-0.005": 26.5360582829,
			"-0.004": 22.3693157864,
			"-0.003": 21.2941245717,
			"-0.002": 17.2712715673,
			"-0.001": 14.9660066251,
			"0.0": 16.8014045577,
			"0.001": 17.9983445411,
			"0.002": 22.5682685383,
			"0.003": 24.2952807737,
			"0.004": 14.5599475512,
			"0.005": 7.54921369316,
			"0.006": 6.39931261025,
			"0.007": 5.92784202537,
			"0.008": 6.2466586788,
			"0.009": 6.68798953424,
			"0.01": 5.73806457867,
			"0.011": 6.33657842422,
			"0.012": 5.72373479703,
			"0.013": 1.28602221042,
			"0.014": 0.0925614621346,
			"0.015": 0.0,
			"0.016": 0.0,
			"0.017": 0.0,
			"0.018": 0.0,
			"0.019": 0.0,
			"0.02": 0.0,
			"0.021": 0.0,
			"0.022": 0.0,
			"0.023": 0.0,
			"0.024": 0.0,
			"0.025": 0.0
		}
	}
}
