{
	 "smiles": "CN1C=CC(=C1)C(O)=O", 
	 "Tm": 418.15, 
	 "num_atms": 16, 
	 "gaussian": { 
		 "optdone": 1, 
		 "sigma_profile": "yes", 
		 "theory": "DFT", 
		 "functional": "B3LYP", 
		 "basiset": "6-31G**", 
		 "properties": { 
			 "R2extent": 2163.6208, 
			 "electric_dipole_moment_norm": 6.38359925199, 
			 "electric_quadrupole_moment_norm": 26.1878246034, 
			 "total_energy": -438.052879577, 
			 "HOMO_LUMO_gap": 0.21769, 
			 "cosmo_polarized_energy": -16.94, 
			 "cosmo_cavitation_energy": 20.42, 
			 "cosmo_dispersion_energy": -15.11, 
			 "cosmo_repulsion_energy": 1.24, 
			 "cosmo_total_nonelectrostatic_energy": 6.55, 
			 "SMD_solvation_energy": 5.53 
		},
		"coords": [
			{
				"x": 0.5763791684,
				"y": -2.4480216353,
				"z": 0.8978492031,
				"element": "C" 
			},
			{
				"x": 0.9794728145,
				"y": -1.0731407686,
				"z": 0.6473297447,
				"element": "N" 
			},
			{
				"x": 0.3120193204,
				"y": 0.0472181686,
				"z": 1.1033738463,
				"element": "C" 
			},
			{
				"x": 0.9452762997,
				"y": 1.1607464297,
				"z": 0.6054850405,
				"element": "C" 
			},
			{
				"x": 2.0439138015,
				"y": 0.7022336955,
				"z": -0.190658673,
				"element": "C" 
			},
			{
				"x": 2.023552425,
				"y": -0.682925345,
				"z": -0.1374473337,
				"element": "C" 
			},
			{
				"x": 3.0650634053,
				"y": 1.4449083743,
				"z": -0.9508016938,
				"element": "C" 
			},
			{
				"x": 2.9617130596,
				"y": 2.8055662963,
				"z": -0.9453740175,
				"element": "O" 
			},
			{
				"x": 3.9662967962,
				"y": 0.9167390888,
				"z": -1.5649072149,
				"element": "O" 
			},
			{
				"x": -0.2403632301,
				"y": -2.7510194115,
				"z": 0.2340934208,
				"element": "H" 
			},
			{
				"x": 0.249038942,
				"y": -2.555257097,
				"z": 1.9348695572,
				"element": "H" 
			},
			{
				"x": 1.4291222113,
				"y": -3.108800617,
				"z": 0.7330969265,
				"element": "H" 
			},
			{
				"x": -0.5516007023,
				"y": -0.0475697814,
				"z": 1.7452094135,
				"element": "H" 
			},
			{
				"x": 0.6497534128,
				"y": 2.1813145431,
				"z": 0.8133678565,
				"element": "H" 
			},
			{
				"x": 2.6874270627,
				"y": -1.3919191373,
				"z": -0.6083140968,
				"element": "H" 
			},
			{
				"x": 2.1905352129,
				"y": 3.0788271969,
				"z": -0.4305719793,
				"element": "H" 
			}
		],
		 "valence_orbital": [ 
			{
				"type": "occ",
				"energy": -0.36599,
				"method": "rhf"
			},
			{
				"type": "occ",
				"energy": -0.29826,
				"method": "rhf"
			},
			{
				"type": "occ",
				"energy": -0.25589,
				"method": "rhf"
			},
			{
				"type": "occ",
				"energy": -0.25418,
				"method": "rhf"
			},
			{
				"type": "occ",
				"energy": -0.22831,
				"method": "rhf"
			},
			{
				"type": "unocc",
				"energy": -0.01062,
				"method": "rhf"
			},
			{
				"type": "unocc",
				"energy": 0.02652,
				"method": "rhf"
			},
			{
				"type": "unocc",
				"energy": 0.06735,
				"method": "rhf"
			},
			{
				"type": "unocc",
				"energy": 0.08137,
				"method": "rhf"
			},
			{
				"type": "unocc",
				"energy": 0.11281,
				"method": "rhf"
			}
		],
		"cosmo_sigma_profile": { 
			"-0.025": 0.0,
			"-0.024": 0.0,
			"-0.023": 0.0,
			"-0.022": 0.0,
			"-0.021": 0.0,
			"-0.02": 0.0,
			"-0.019": 0.0,
			"-0.018": 0.13063565567,
			"-0.017": 0.933706266676,
			"-0.016": 1.09606905121,
			"-0.015": 1.24037613916,
			"-0.014": 0.516476158468,
			"-0.013": 1.21114659887,
			"-0.012": 0.861095505931,
			"-0.011": 1.33089633691,
			"-0.01": 1.00295347142,
			"-0.009": 1.45652870532,
			"-0.008": 5.88069747853,
			"-0.007": 8.21834627402,
			"-0.006": 12.0664680375,
			"-0.005": 11.0117127975,
			"-0.004": 12.0297005783,
			"-0.003": 13.5329720205,
			"-0.002": 6.91105921468,
			"-0.001": 6.68982428512,
			"0.0": 5.88188438074,
			"0.001": 6.06022930594,
			"0.002": 6.22772724837,
			"0.003": 7.67128301625,
			"0.004": 8.19992390245,
			"0.005": 6.84500823847,
			"0.006": 6.17249382136,
			"0.007": 3.82562726241,
			"0.008": 2.31055335432,
			"0.009": 2.41320803182,
			"0.01": 3.68507076668,
			"0.011": 4.2481813124,
			"0.012": 5.1998756211,
			"0.013": 5.94584927719,
			"0.014": 1.81624131232,
			"0.015": 0.143710041414,
			"0.016": 0.0,
			"0.017": 0.0,
			"0.018": 0.0,
			"0.019": 0.0,
			"0.02": 0.0,
			"0.021": 0.0,
			"0.022": 0.0,
			"0.023": 0.0,
			"0.024": 0.0,
			"0.025": 0.0
		}
	}
}
