{
	 "smiles": "ClC1=C2C3=C(CCCC3)SC2=NC(=N1)C1=CSC=C1", 
	 "Tm": 422.15, 
	 "num_atms": 30, 
	 "gaussian": { 
		 "optdone": 1, 
		 "sigma_profile": "yes", 
		 "theory": "DFT", 
		 "functional": "B3LYP", 
		 "basiset": "6-31G**", 
		 "properties": { 
			 "R2extent": 9261.0235, 
			 "electric_dipole_moment_norm": 3.14659319423, 
			 "electric_quadrupole_moment_norm": 9.04607373782, 
			 "total_energy": -1906.20236825, 
			 "HOMO_LUMO_gap": 0.15917, 
			 "cosmo_polarized_energy": -7.19, 
			 "cosmo_cavitation_energy": 37.69, 
			 "cosmo_dispersion_energy": -29.19, 
			 "cosmo_repulsion_energy": 2.14, 
			 "cosmo_total_nonelectrostatic_energy": 10.63, 
			 "SMD_solvation_energy": 2.32 
		},
		"coords": [
			{
				"x": -0.3834099277,
				"y": 2.7388888379,
				"z": -1.1602635439,
				"element": "Cl" 
			},
			{
				"x": -0.2025030236,
				"y": 1.0011824185,
				"z": -1.4112327486,
				"element": "C" 
			},
			{
				"x": 0.3602012887,
				"y": 0.1811646997,
				"z": -0.4139299969,
				"element": "C" 
			},
			{
				"x": 0.8794863047,
				"y": 0.3912434824,
				"z": 0.9206053734,
				"element": "C" 
			},
			{
				"x": 1.3536552239,
				"y": -0.7704910356,
				"z": 1.4645305181,
				"element": "C" 
			},
			{
				"x": 1.9766146387,
				"y": -0.9094988325,
				"z": 2.8264270797,
				"element": "C" 
			},
			{
				"x": 2.3704832708,
				"y": 0.4698729571,
				"z": 3.3811517198,
				"element": "C" 
			},
			{
				"x": 1.2361444527,
				"y": 1.4806902008,
				"z": 3.1747337117,
				"element": "C" 
			},
			{
				"x": 0.9290316942,
				"y": 1.6977594494,
				"z": 1.6828989478,
				"element": "C" 
			},
			{
				"x": 1.1772208641,
				"y": -2.1728301909,
				"z": 0.4123974537,
				"element": "S" 
			},
			{
				"x": 0.4450548458,
				"y": -1.1764108539,
				"z": -0.8277161868,
				"element": "C" 
			},
			{
				"x": 0.0406144375,
				"y": -1.6646170728,
				"z": -1.9936298034,
				"element": "N" 
			},
			{
				"x": -0.4880018292,
				"y": -0.7679486612,
				"z": -2.8370625303,
				"element": "C" 
			},
			{
				"x": -0.6141258287,
				"y": 0.55512373,
				"z": -2.5733488141,
				"element": "N" 
			},
			{
				"x": -0.9620197188,
				"y": -1.2447611486,
				"z": -4.1406698331,
				"element": "C" 
			},
			{
				"x": -1.5215795034,
				"y": -0.42598046,
				"z": -5.0950389423,
				"element": "C" 
			},
			{
				"x": -1.9702164528,
				"y": -1.3055497401,
				"z": -6.5080408554,
				"element": "S" 
			},
			{
				"x": -1.4022378411,
				"y": -2.799878153,
				"z": -5.819771086,
				"element": "C" 
			},
			{
				"x": -0.8969598716,
				"y": -2.6146132338,
				"z": -4.5676062217,
				"element": "C" 
			},
			{
				"x": 1.2643026218,
				"y": -1.3975745973,
				"z": 3.5073534137,
				"element": "H" 
			},
			{
				"x": 2.8517966564,
				"y": -1.568695352,
				"z": 2.7790501091,
				"element": "H" 
			},
			{
				"x": 2.6218915615,
				"y": 0.3802929915,
				"z": 4.4434166933,
				"element": "H" 
			},
			{
				"x": 3.2739846261,
				"y": 0.8232763837,
				"z": 2.867902987,
				"element": "H" 
			},
			{
				"x": 1.4884790957,
				"y": 2.44086878,
				"z": 3.637257617,
				"element": "H" 
			},
			{
				"x": 0.3335955521,
				"y": 1.1145461752,
				"z": 3.6818439365,
				"element": "H" 
			},
			{
				"x": 1.6892223788,
				"y": 2.3515535534,
				"z": 1.234096901,
				"element": "H" 
			},
			{
				"x": -0.0197576723,
				"y": 2.2306474644,
				"z": 1.5736392595,
				"element": "H" 
			},
			{
				"x": -1.6834343896,
				"y": 0.639335969,
				"z": -5.0221403999,
				"element": "H" 
			},
			{
				"x": -1.4782396309,
				"y": -3.7185688848,
				"z": -6.3844169234,
				"element": "H" 
			},
			{
				"x": -0.4873938239,
				"y": -3.4027288765,
				"z": -3.9491378354,
				"element": "H" 
			}
		],
		 "valence_orbital": [ 
			{
				"type": "occ",
				"energy": -0.27452,
				"method": "rhf"
			},
			{
				"type": "occ",
				"energy": -0.26444,
				"method": "rhf"
			},
			{
				"type": "occ",
				"energy": -0.25428,
				"method": "rhf"
			},
			{
				"type": "occ",
				"energy": -0.24125,
				"method": "rhf"
			},
			{
				"type": "occ",
				"energy": -0.21749,
				"method": "rhf"
			},
			{
				"type": "unocc",
				"energy": -0.05832,
				"method": "rhf"
			},
			{
				"type": "unocc",
				"energy": -0.04162,
				"method": "rhf"
			},
			{
				"type": "unocc",
				"energy": -0.00384,
				"method": "rhf"
			},
			{
				"type": "unocc",
				"energy": 0.00392,
				"method": "rhf"
			},
			{
				"type": "unocc",
				"energy": 0.02062,
				"method": "rhf"
			}
		],
		"cosmo_sigma_profile": { 
			"-0.025": 0.0,
			"-0.024": 0.0,
			"-0.023": 0.0,
			"-0.022": 0.0,
			"-0.021": 0.0,
			"-0.02": 0.0,
			"-0.019": 0.0,
			"-0.018": 0.0,
			"-0.017": 0.0,
			"-0.016": 0.0,
			"-0.015": 0.0,
			"-0.014": 0.0,
			"-0.013": 0.0,
			"-0.012": 0.0,
			"-0.011": 0.0,
			"-0.01": 0.0,
			"-0.009": 0.933092496296,
			"-0.008": 3.69376692668,
			"-0.007": 3.25481962261,
			"-0.006": 4.70465730902,
			"-0.005": 8.7382448647,
			"-0.004": 15.6590009979,
			"-0.003": 31.2125459756,
			"-0.002": 37.8319449814,
			"-0.001": 37.2178842362,
			"0.0": 32.4072518627,
			"0.001": 29.4992039087,
			"0.002": 29.7878414681,
			"0.003": 31.0588910017,
			"0.004": 20.8486313371,
			"0.005": 8.45024882963,
			"0.006": 3.8668450781,
			"0.007": 2.55290821069,
			"0.008": 3.15649599538,
			"0.009": 2.84376682692,
			"0.01": 0.371725868707,
			"0.011": 0.0,
			"0.012": 0.0,
			"0.013": 0.0,
			"0.014": 0.0,
			"0.015": 0.0,
			"0.016": 0.0,
			"0.017": 0.0,
			"0.018": 0.0,
			"0.019": 0.0,
			"0.02": 0.0,
			"0.021": 0.0,
			"0.022": 0.0,
			"0.023": 0.0,
			"0.024": 0.0,
			"0.025": 0.0
		}
	}
}
