{
	 "smiles": "CN(C)C(CSS(=O)(=O)C1=CC=CC=C1)CSS(=O)(=O)C1=CC=CC=C1", 
	 "Tm": 356.65, 
	 "num_atms": 47, 
	 "gaussian": { 
		 "optdone": 1, 
		 "sigma_profile": "yes", 
		 "theory": "DFT", 
		 "functional": "B3LYP", 
		 "basiset": "6-31G**", 
		 "properties": { 
			 "R2extent": 11999.0474, 
			 "electric_dipole_moment_norm": 6.62242737824, 
			 "electric_quadrupole_moment_norm": 30.9848648461, 
			 "total_energy": -2608.71010222, 
			 "HOMO_LUMO_gap": 0.15411, 
			 "cosmo_polarized_energy": -22.51, 
			 "cosmo_cavitation_energy": 55.03, 
			 "cosmo_dispersion_energy": -35.39, 
			 "cosmo_repulsion_energy": 2.51, 
			 "cosmo_total_nonelectrostatic_energy": 22.14, 
			 "SMD_solvation_energy": 5.49 
		},
		"coords": [
			{
				"x": 1.3547227178,
				"y": -3.6546220225,
				"z": 2.4683917383,
				"element": "C" 
			},
			{
				"x": 1.2371173972,
				"y": -2.534146441,
				"z": 1.5483528998,
				"element": "N" 
			},
			{
				"x": 2.1318157038,
				"y": -1.4409265014,
				"z": 1.9008719322,
				"element": "C" 
			},
			{
				"x": -0.1162308946,
				"y": -2.1472952128,
				"z": 1.1590517752,
				"element": "C" 
			},
			{
				"x": -0.7082367811,
				"y": -3.1429436238,
				"z": 0.1381155395,
				"element": "C" 
			},
			{
				"x": 0.2935042705,
				"y": -3.3960052847,
				"z": -1.3781167188,
				"element": "S" 
			},
			{
				"x": -0.433081777,
				"y": -1.7852801693,
				"z": -2.6091142499,
				"element": "S" 
			},
			{
				"x": -0.6635958521,
				"y": -2.3485045461,
				"z": -3.9434982166,
				"element": "O" 
			},
			{
				"x": -1.5071323267,
				"y": -1.0935129322,
				"z": -1.8703602948,
				"element": "O" 
			},
			{
				"x": 0.9560904215,
				"y": -0.6498585741,
				"z": -2.744414287,
				"element": "C" 
			},
			{
				"x": 1.9290660083,
				"y": -0.9000864782,
				"z": -3.7134385799,
				"element": "C" 
			},
			{
				"x": 3.0116444944,
				"y": -0.0268155946,
				"z": -3.817281682,
				"element": "C" 
			},
			{
				"x": 3.1070340178,
				"y": 1.0775410743,
				"z": -2.9668261361,
				"element": "C" 
			},
			{
				"x": 2.116713172,
				"y": 1.3197597587,
				"z": -2.0118437595,
				"element": "C" 
			},
			{
				"x": 1.0296589212,
				"y": 0.4527341151,
				"z": -1.8925339584,
				"element": "C" 
			},
			{
				"x": -1.146723401,
				"y": -1.9847140884,
				"z": 2.307595775,
				"element": "C" 
			},
			{
				"x": -0.9460431834,
				"y": -0.4635013291,
				"z": 3.3280379133,
				"element": "S" 
			},
			{
				"x": -2.7916669281,
				"y": 0.5723465517,
				"z": 2.8864661744,
				"element": "S" 
			},
			{
				"x": -3.0653065572,
				"y": 1.3652617664,
				"z": 4.0892760351,
				"element": "O" 
			},
			{
				"x": -3.7491382644,
				"y": -0.4149795272,
				"z": 2.3629105362,
				"element": "O" 
			},
			{
				"x": -2.4156197192,
				"y": 1.7160363815,
				"z": 1.5518245662,
				"element": "C" 
			},
			{
				"x": -2.0535172462,
				"y": 3.0251547378,
				"z": 1.8731896241,
				"element": "C" 
			},
			{
				"x": -1.777020082,
				"y": 3.9161243107,
				"z": 0.8358184339,
				"element": "C" 
			},
			{
				"x": -1.8610820256,
				"y": 3.4939176001,
				"z": -0.4936054938,
				"element": "C" 
			},
			{
				"x": -2.2266485269,
				"y": 2.1792133054,
				"z": -0.7958740454,
				"element": "C" 
			},
			{
				"x": -2.510841672,
				"y": 1.2768249045,
				"z": 0.2301498344,
				"element": "C" 
			},
			{
				"x": 1.1037280952,
				"y": -3.4066224592,
				"z": 3.5164766695,
				"element": "H" 
			},
			{
				"x": 0.7147236289,
				"y": -4.4855670128,
				"z": 2.1569401727,
				"element": "H" 
			},
			{
				"x": 2.3874919667,
				"y": -4.018601747,
				"z": 2.4580214191,
				"element": "H" 
			},
			{
				"x": 1.9314548191,
				"y": -0.9913950904,
				"z": 2.8899047057,
				"element": "H" 
			},
			{
				"x": 3.1629133816,
				"y": -1.8124170323,
				"z": 1.9091255612,
				"element": "H" 
			},
			{
				"x": 2.0670401681,
				"y": -0.6496031618,
				"z": 1.1487341612,
				"element": "H" 
			},
			{
				"x": -0.0356602084,
				"y": -1.1825439186,
				"z": 0.6503127159,
				"element": "H" 
			},
			{
				"x": -0.8000378984,
				"y": -4.1497742131,
				"z": 0.558688609,
				"element": "H" 
			},
			{
				"x": -1.7051205655,
				"y": -2.8273513834,
				"z": -0.1761216963,
				"element": "H" 
			},
			{
				"x": 1.8289406033,
				"y": -1.7516533681,
				"z": -4.3774052593,
				"element": "H" 
			},
			{
				"x": 3.7765128346,
				"y": -0.2063750438,
				"z": -4.5664979027,
				"element": "H" 
			},
			{
				"x": 3.951583114,
				"y": 1.7546717898,
				"z": -3.0533903318,
				"element": "H" 
			},
			{
				"x": 2.184315732,
				"y": 2.1872825277,
				"z": -1.3624488835,
				"element": "H" 
			},
			{
				"x": 0.2416729194,
				"y": 0.6401195659,
				"z": -1.1720485051,
				"element": "H" 
			},
			{
				"x": -1.1029359367,
				"y": -2.8267870336,
				"z": 3.0027622028,
				"element": "H" 
			},
			{
				"x": -2.1710412304,
				"y": -1.9491388525,
				"z": 1.9238066547,
				"element": "H" 
			},
			{
				"x": -2.008143771,
				"y": 3.3342991618,
				"z": 2.911443006,
				"element": "H" 
			},
			{
				"x": -1.5023803721,
				"y": 4.9408400138,
				"z": 1.0670437977,
				"element": "H" 
			},
			{
				"x": -1.6471631795,
				"y": 4.193055842,
				"z": -1.2968052188,
				"element": "H" 
			},
			{
				"x": -2.2960248824,
				"y": 1.8460528125,
				"z": -1.8262699346,
				"element": "H" 
			},
			{
				"x": -2.8065511059,
				"y": 0.2603864223,
				"z": -0.0008172987,
				"element": "H" 
			}
		],
		 "valence_orbital": [ 
			{
				"type": "occ",
				"energy": -0.28047,
				"method": "rhf"
			},
			{
				"type": "occ",
				"energy": -0.27459,
				"method": "rhf"
			},
			{
				"type": "occ",
				"energy": -0.26108,
				"method": "rhf"
			},
			{
				"type": "occ",
				"energy": -0.2512,
				"method": "rhf"
			},
			{
				"type": "occ",
				"energy": -0.21753,
				"method": "rhf"
			},
			{
				"type": "unocc",
				"energy": -0.06342,
				"method": "rhf"
			},
			{
				"type": "unocc",
				"energy": -0.06311,
				"method": "rhf"
			},
			{
				"type": "unocc",
				"energy": -0.03591,
				"method": "rhf"
			},
			{
				"type": "unocc",
				"energy": -0.03186,
				"method": "rhf"
			},
			{
				"type": "unocc",
				"energy": -0.02749,
				"method": "rhf"
			}
		],
		"cosmo_sigma_profile": { 
			"-0.025": 0.0,
			"-0.024": 0.0,
			"-0.023": 0.0,
			"-0.022": 0.0,
			"-0.021": 0.0,
			"-0.02": 0.0,
			"-0.019": 0.0,
			"-0.018": 0.0,
			"-0.017": 0.0,
			"-0.016": 0.0,
			"-0.015": 0.0,
			"-0.014": 0.0,
			"-0.013": 0.0,
			"-0.012": 0.0,
			"-0.011": 0.0,
			"-0.01": 0.0,
			"-0.009": 0.474452303302,
			"-0.008": 4.70160937804,
			"-0.007": 19.742622437,
			"-0.006": 27.5667578939,
			"-0.005": 32.4230981125,
			"-0.004": 29.6556931852,
			"-0.003": 34.661256941,
			"-0.002": 33.0322904216,
			"-0.001": 37.9782045858,
			"0.0": 38.5659238161,
			"0.001": 31.1251541064,
			"0.002": 34.4819060298,
			"0.003": 32.5120250184,
			"0.004": 12.0973134561,
			"0.005": 10.2260238636,
			"0.006": 11.2009101648,
			"0.007": 9.55056116375,
			"0.008": 7.24529049893,
			"0.009": 10.6741334294,
			"0.01": 15.109501627,
			"0.011": 7.59421464482,
			"0.012": 0.573311227982,
			"0.013": 0.480809846988,
			"0.014": 0.179631521482,
			"0.015": 0.0,
			"0.016": 0.0,
			"0.017": 0.0,
			"0.018": 0.0,
			"0.019": 0.0,
			"0.02": 0.0,
			"0.021": 0.0,
			"0.022": 0.0,
			"0.023": 0.0,
			"0.024": 0.0,
			"0.025": 0.0
		}
	}
}
