{
	 "smiles": "CCCCCC1=CC=C(O)C=C1", 
	 "Tm": 296.65, 
	 "num_atms": 28, 
	 "gaussian": { 
		 "optdone": 1, 
		 "sigma_profile": "yes", 
		 "theory": "DFT", 
		 "functional": "B3LYP", 
		 "basiset": "6-31G**", 
		 "properties": { 
			 "R2extent": 3572.464, 
			 "electric_dipole_moment_norm": 1.29992894037, 
			 "electric_quadrupole_moment_norm": 11.6405333263, 
			 "total_energy": -504.052860625, 
			 "HOMO_LUMO_gap": 0.21241, 
			 "cosmo_polarized_energy": -7.65, 
			 "cosmo_cavitation_energy": 30.2, 
			 "cosmo_dispersion_energy": -21.3, 
			 "cosmo_repulsion_energy": 1.74, 
			 "cosmo_total_nonelectrostatic_energy": 10.64, 
			 "SMD_solvation_energy": 4.97 
		},
		"coords": [
			{
				"x": 2.9090142622,
				"y": -0.0517523275,
				"z": 1.3053427281,
				"element": "C" 
			},
			{
				"x": 2.8805077105,
				"y": 0.8978877469,
				"z": 0.1014108044,
				"element": "C" 
			},
			{
				"x": 1.4718044619,
				"y": 1.2076741253,
				"z": -0.4324071558,
				"element": "C" 
			},
			{
				"x": 0.7490184832,
				"y": 0.0048310022,
				"z": -1.0525282905,
				"element": "C" 
			},
			{
				"x": -0.6408632915,
				"y": 0.341432689,
				"z": -1.6373580014,
				"element": "C" 
			},
			{
				"x": -1.6704771943,
				"y": 0.7529412974,
				"z": -0.6044108846,
				"element": "C" 
			},
			{
				"x": -2.0489571191,
				"y": 2.0891236619,
				"z": -0.4342666207,
				"element": "C" 
			},
			{
				"x": -2.9862799924,
				"y": 2.4662026034,
				"z": 0.5298335348,
				"element": "C" 
			},
			{
				"x": -3.5686628265,
				"y": 1.4972749148,
				"z": 1.3506484154,
				"element": "C" 
			},
			{
				"x": -4.4945031246,
				"y": 1.7969441801,
				"z": 2.3127006532,
				"element": "O" 
			},
			{
				"x": -3.2078105567,
				"y": 0.1537456495,
				"z": 1.1964614077,
				"element": "C" 
			},
			{
				"x": -2.2726431266,
				"y": -0.2027455345,
				"z": 0.2301562861,
				"element": "C" 
			},
			{
				"x": 2.5137533536,
				"y": -1.041795399,
				"z": 1.0557912275,
				"element": "H" 
			},
			{
				"x": 3.9311554746,
				"y": -0.1911055022,
				"z": 1.6728854726,
				"element": "H" 
			},
			{
				"x": 2.3089764983,
				"y": 0.3440959869,
				"z": 2.1329882938,
				"element": "H" 
			},
			{
				"x": 3.3623770308,
				"y": 1.8427066413,
				"z": 0.3841107339,
				"element": "H" 
			},
			{
				"x": 3.4916502362,
				"y": 0.4782541807,
				"z": -0.7098602896,
				"element": "H" 
			},
			{
				"x": 1.5483453468,
				"y": 1.9990812362,
				"z": -1.1914266756,
				"element": "H" 
			},
			{
				"x": 0.8597392498,
				"y": 1.6228477849,
				"z": 0.3790245751,
				"element": "H" 
			},
			{
				"x": 1.3722168293,
				"y": -0.4143437163,
				"z": -1.8547642776,
				"element": "H" 
			},
			{
				"x": 0.6330228103,
				"y": -0.7905030933,
				"z": -0.3056979879,
				"element": "H" 
			},
			{
				"x": -0.5314917006,
				"y": 1.1410765781,
				"z": -2.3809796677,
				"element": "H" 
			},
			{
				"x": -1.0088336347,
				"y": -0.5368873048,
				"z": -2.1830505824,
				"element": "H" 
			},
			{
				"x": -1.60810729,
				"y": 2.8544318809,
				"z": -1.0683370916,
				"element": "H" 
			},
			{
				"x": -3.2650019777,
				"y": 3.5126682553,
				"z": 0.6394490185,
				"element": "H" 
			},
			{
				"x": -4.6531258523,
				"y": 2.7496599711,
				"z": 2.3097779226,
				"element": "H" 
			},
			{
				"x": -3.6726913224,
				"y": -0.5905793091,
				"z": 1.8348553337,
				"element": "H" 
			},
			{
				"x": -2.007332738,
				"y": -1.2515681992,
				"z": 0.1170511182,
				"element": "H" 
			}
		],
		 "valence_orbital": [ 
			{
				"type": "occ",
				"energy": -0.31436,
				"method": "rhf"
			},
			{
				"type": "occ",
				"energy": -0.31307,
				"method": "rhf"
			},
			{
				"type": "occ",
				"energy": -0.30567,
				"method": "rhf"
			},
			{
				"type": "occ",
				"energy": -0.24691,
				"method": "rhf"
			},
			{
				"type": "occ",
				"energy": -0.21137,
				"method": "rhf"
			},
			{
				"type": "unocc",
				"energy": 0.00104,
				"method": "rhf"
			},
			{
				"type": "unocc",
				"energy": 0.0175,
				"method": "rhf"
			},
			{
				"type": "unocc",
				"energy": 0.07356,
				"method": "rhf"
			},
			{
				"type": "unocc",
				"energy": 0.09189,
				"method": "rhf"
			},
			{
				"type": "unocc",
				"energy": 0.10245,
				"method": "rhf"
			}
		],
		"cosmo_sigma_profile": { 
			"-0.025": 0.0,
			"-0.024": 0.0,
			"-0.023": 0.0,
			"-0.022": 0.0,
			"-0.021": 0.0,
			"-0.02": 0.0,
			"-0.019": 0.0,
			"-0.018": 0.0326730499798,
			"-0.017": 0.952088230511,
			"-0.016": 0.90940473661,
			"-0.015": 1.27535270396,
			"-0.014": 1.08331739923,
			"-0.013": 1.05166210906,
			"-0.012": 0.892080670579,
			"-0.011": 0.794328602191,
			"-0.01": 1.04154013141,
			"-0.009": 1.39817991122,
			"-0.008": 0.72011088582,
			"-0.007": 1.19133191019,
			"-0.006": 2.28532570122,
			"-0.005": 6.5715284372,
			"-0.004": 8.47245157739,
			"-0.003": 15.2578339778,
			"-0.002": 27.486976623,
			"-0.001": 29.5202610003,
			"0.0": 35.5086567491,
			"0.001": 31.7046861514,
			"0.002": 17.1966470709,
			"0.003": 8.76970326886,
			"0.004": 10.4312859607,
			"0.005": 9.78111894695,
			"0.006": 10.1889040776,
			"0.007": 3.16151293324,
			"0.008": 1.3865490929,
			"0.009": 1.31929894485,
			"0.01": 1.68391900005,
			"0.011": 1.90509388954,
			"0.012": 1.43409183441,
			"0.013": 0.0281814319073,
			"0.014": 0.0,
			"0.015": 0.0,
			"0.016": 0.0,
			"0.017": 0.0,
			"0.018": 0.0,
			"0.019": 0.0,
			"0.02": 0.0,
			"0.021": 0.0,
			"0.022": 0.0,
			"0.023": 0.0,
			"0.024": 0.0,
			"0.025": 0.0
		}
	}
}
