{
	 "smiles": "ClC(=O)C1=CC(I)=CC=C1", 
	 "Tm": 297.15, 
	 "num_atms": 14, 
	 "gaussian": { 
		 "optdone": 1, 
		 "sigma_profile": "no", 
		 "theory": "DFT", 
		 "functional": "B3LYP", 
		 "basiset": "6-31G**", 
		 "properties": { 
			 "R2extent": 3725.4405, 
			 "electric_dipole_moment_norm": 3.29215420356, 
			 "electric_quadrupole_moment_norm": 10.3352246763, 
			 "total_energy": -815.962422366, 
			 "HOMO_LUMO_gap": 0.17088, 
			 "cosmo_polarized_energy": -96172.33, 
			 "cosmo_cavitation_energy": 23.92, 
			 "cosmo_dispersion_energy": -19.11, 
			 "cosmo_repulsion_energy": 1.52, 
			 "cosmo_total_nonelectrostatic_energy": 6.33, 
			 "SMD_solvation_energy": 3.84 
		},
		"coords": [
			{
				"x": -2.0470992592,
				"y": -1.8405522636,
				"z": 3.943851347,
				"element": "Cl" 
			},
			{
				"x": -1.5062193547,
				"y": -2.484824273,
				"z": 2.3236388438,
				"element": "C" 
			},
			{
				"x": -1.0464020522,
				"y": -3.5852113136,
				"z": 2.2639347586,
				"element": "O" 
			},
			{
				"x": -1.6873603304,
				"y": -1.5599056158,
				"z": 1.1747141321,
				"element": "C" 
			},
			{
				"x": -2.2325966968,
				"y": -0.2739606857,
				"z": 1.2950687391,
				"element": "C" 
			},
			{
				"x": -2.3604812915,
				"y": 0.5170265598,
				"z": 0.154875563,
				"element": "C" 
			},
			{
				"x": -3.1830923829,
				"y": 2.4615180289,
				"z": 0.3261670962,
				"element": "I" 
			},
			{
				"x": -1.9550922279,
				"y": 0.0478149849,
				"z": -1.097255841,
				"element": "C" 
			},
			{
				"x": -1.4128747236,
				"y": -1.2357550702,
				"z": -1.2057724087,
				"element": "C" 
			},
			{
				"x": -1.2769306286,
				"y": -2.0402932838,
				"z": -0.0800941536,
				"element": "C" 
			},
			{
				"x": -2.5475383372,
				"y": 0.0925300795,
				"z": 2.2629744492,
				"element": "H" 
			},
			{
				"x": -2.0595595127,
				"y": 0.6724985708,
				"z": -1.977332929,
				"element": "H" 
			},
			{
				"x": -1.0972779071,
				"y": -1.6024018225,
				"z": -2.177595965,
				"element": "H" 
			},
			{
				"x": -0.8581752951,
				"y": -3.0376838956,
				"z": -0.1493736318,
				"element": "H" 
			}
		],
		 "valence_orbital": [ 
			{
				"type": "occ",
				"energy": -0.31664,
				"method": "rhf"
			},
			{
				"type": "occ",
				"energy": -0.30153,
				"method": "rhf"
			},
			{
				"type": "occ",
				"energy": -0.29116,
				"method": "rhf"
			},
			{
				"type": "occ",
				"energy": -0.28207,
				"method": "rhf"
			},
			{
				"type": "occ",
				"energy": -0.25875,
				"method": "rhf"
			},
			{
				"type": "unocc",
				"energy": -0.08787,
				"method": "rhf"
			},
			{
				"type": "unocc",
				"energy": -0.05348,
				"method": "rhf"
			},
			{
				"type": "unocc",
				"energy": -0.03944,
				"method": "rhf"
			},
			{
				"type": "unocc",
				"energy": 0.01272,
				"method": "rhf"
			},
			{
				"type": "unocc",
				"energy": 0.01306,
				"method": "rhf"
			}
		],
		"cosmo_sigma_profile": { 
			"0.0": 0.0,
			"0.0": 0.0,
			"0.0": 0.0,
			"0.0": 0.0,
			"0.0": 0.0,
			"0.0": 0.0,
			"0.0": 0.0,
			"0.0": 0.0,
			"0.0": 0.0,
			"0.0": 0.0,
			"0.0": 0.0,
			"0.0": 0.0,
			"0.0": 0.0,
			"0.0": 0.0,
			"0.0": 0.0,
			"0.0": 0.0,
			"0.0": 0.0,
			"0.0": 0.0,
			"0.0": 0.0,
			"0.0": 0.0,
			"0.0": 0.0,
			"0.0": 0.0,
			"0.0": 0.0,
			"0.0": 0.0,
			"0.0": 0.0,
			"0.0": 0.0,
			"0.0": 0.0,
			"0.0": 0.0,
			"0.0": 0.0,
			"0.0": 0.0,
			"0.0": 0.0,
			"0.0": 0.0,
			"0.0": 0.0,
			"0.0": 0.0,
			"0.0": 0.0,
			"0.0": 0.0,
			"0.0": 0.0,
			"0.0": 0.0,
			"0.0": 0.0,
			"0.0": 0.0,
			"0.0": 0.0,
			"0.0": 0.0,
			"0.0": 0.0,
			"0.0": 0.0,
			"0.0": 0.0,
			"0.0": 0.0,
			"0.0": 0.0,
			"0.0": 0.0,
			"0.0": 0.0,
			"0.0": 0.0,
			"0.0": 0.0
		}
	}
}
