{
	 "smiles": "CC1(C)CC(CC(C)(C)N1)NC(=O)CCl", 
	 "Tm": 335.15, 
	 "num_atms": 36, 
	 "gaussian": { 
		 "optdone": 1, 
		 "sigma_profile": "yes", 
		 "theory": "DFT", 
		 "functional": "B3LYP", 
		 "basiset": "6-31G**", 
		 "properties": { 
			 "R2extent": 4239.6762, 
			 "electric_dipole_moment_norm": 3.29212339684, 
			 "electric_quadrupole_moment_norm": 16.6198067092, 
			 "total_energy": -1076.76617571, 
			 "HOMO_LUMO_gap": 0.20426, 
			 "cosmo_polarized_energy": -13.39, 
			 "cosmo_cavitation_energy": 35.75, 
			 "cosmo_dispersion_energy": -24.71, 
			 "cosmo_repulsion_energy": 1.92, 
			 "cosmo_total_nonelectrostatic_energy": 12.96, 
			 "SMD_solvation_energy": 4.79 
		},
		"coords": [
			{
				"x": 2.7663487166,
				"y": -0.9562397141,
				"z": -1.5421124394,
				"element": "C" 
			},
			{
				"x": 2.2641102906,
				"y": 0.0673939954,
				"z": -0.5011348767,
				"element": "C" 
			},
			{
				"x": 3.4562245041,
				"y": 0.9592599174,
				"z": -0.1128499684,
				"element": "C" 
			},
			{
				"x": 1.1393015935,
				"y": 0.9568501674,
				"z": -1.0985232794,
				"element": "C" 
			},
			{
				"x": -0.2145231504,
				"y": 0.2282015397,
				"z": -1.1576469415,
				"element": "C" 
			},
			{
				"x": -0.604940544,
				"y": -0.2624271723,
				"z": 0.2401554579,
				"element": "C" 
			},
			{
				"x": 0.4790787233,
				"y": -1.2064685018,
				"z": 0.8363754843,
				"element": "C" 
			},
			{
				"x": 0.1951650059,
				"y": -1.3980702096,
				"z": 2.3367879211,
				"element": "C" 
			},
			{
				"x": 0.4329406665,
				"y": -2.5993112707,
				"z": 0.1737044943,
				"element": "C" 
			},
			{
				"x": 1.83583654,
				"y": -0.6180271544,
				"z": 0.7434805563,
				"element": "N" 
			},
			{
				"x": -1.2443444983,
				"y": 1.0081218288,
				"z": -1.872419678,
				"element": "N" 
			},
			{
				"x": -2.1324631326,
				"y": 2.001499105,
				"z": -1.5564399556,
				"element": "C" 
			},
			{
				"x": -2.7633754183,
				"y": 2.5750282928,
				"z": -2.437721494,
				"element": "O" 
			},
			{
				"x": -2.4233623259,
				"y": 2.366698448,
				"z": -0.1006890463,
				"element": "C" 
			},
			{
				"x": -1.1172292117,
				"y": 3.3820817473,
				"z": 0.6540952458,
				"element": "Cl" 
			},
			{
				"x": 1.9657955468,
				"y": -1.5603902312,
				"z": -1.9747870235,
				"element": "H" 
			},
			{
				"x": 3.4826046425,
				"y": -1.6375564925,
				"z": -1.0751523426,
				"element": "H" 
			},
			{
				"x": 3.2647612236,
				"y": -0.4386500636,
				"z": -2.3687496842,
				"element": "H" 
			},
			{
				"x": 3.8440024705,
				"y": 1.4924367602,
				"z": -0.9861264055,
				"element": "H" 
			},
			{
				"x": 3.1617655737,
				"y": 1.7094375726,
				"z": 0.6307190492,
				"element": "H" 
			},
			{
				"x": 4.2638745707,
				"y": 0.3540894384,
				"z": 0.3106467058,
				"element": "H" 
			},
			{
				"x": 1.0176128567,
				"y": 1.8561639062,
				"z": -0.4842727583,
				"element": "H" 
			},
			{
				"x": 1.4231030689,
				"y": 1.2926202966,
				"z": -2.1037513174,
				"element": "H" 
			},
			{
				"x": -0.0985817594,
				"y": -0.6597646391,
				"z": -1.7897627852,
				"element": "H" 
			},
			{
				"x": -1.5744941552,
				"y": -0.7747823064,
				"z": 0.2065305168,
				"element": "H" 
			},
			{
				"x": -0.6966307773,
				"y": 0.5929228588,
				"z": 0.9173597679,
				"element": "H" 
			},
			{
				"x": 0.213577281,
				"y": -0.4389660366,
				"z": 2.868243246,
				"element": "H" 
			},
			{
				"x": -0.7903157518,
				"y": -1.8472632167,
				"z": 2.4938709778,
				"element": "H" 
			},
			{
				"x": 0.9491263223,
				"y": -2.0519517351,
				"z": 2.7852751322,
				"element": "H" 
			},
			{
				"x": 0.5119373574,
				"y": -2.5653908451,
				"z": -0.9147133823,
				"element": "H" 
			},
			{
				"x": 1.2579008864,
				"y": -3.2113866798,
				"z": 0.5476595823,
				"element": "H" 
			},
			{
				"x": -0.5107351586,
				"y": -3.1001666936,
				"z": 0.4152799593,
				"element": "H" 
			},
			{
				"x": 1.9240722397,
				"y": 0.0535884806,
				"z": 1.5021043858,
				"element": "H" 
			},
			{
				"x": -1.1847684131,
				"y": 0.9335373736,
				"z": -2.8813621961,
				"element": "H" 
			},
			{
				"x": -2.5630100119,
				"y": 1.4985636059,
				"z": 0.5412889788,
				"element": "H" 
			},
			{
				"x": -3.3197657723,
				"y": 2.9819176278,
				"z": -0.1126618873,
				"element": "H" 
			}
		],
		 "valence_orbital": [ 
			{
				"type": "occ",
				"energy": -0.31379,
				"method": "rhf"
			},
			{
				"type": "occ",
				"energy": -0.30427,
				"method": "rhf"
			},
			{
				"type": "occ",
				"energy": -0.25492,
				"method": "rhf"
			},
			{
				"type": "occ",
				"energy": -0.24994,
				"method": "rhf"
			},
			{
				"type": "occ",
				"energy": -0.22363,
				"method": "rhf"
			},
			{
				"type": "unocc",
				"energy": -0.01937,
				"method": "rhf"
			},
			{
				"type": "unocc",
				"energy": 0.05318,
				"method": "rhf"
			},
			{
				"type": "unocc",
				"energy": 0.05994,
				"method": "rhf"
			},
			{
				"type": "unocc",
				"energy": 0.07176,
				"method": "rhf"
			},
			{
				"type": "unocc",
				"energy": 0.09736,
				"method": "rhf"
			}
		],
		"cosmo_sigma_profile": { 
			"-0.025": 0.0,
			"-0.024": 0.0,
			"-0.023": 0.0,
			"-0.022": 0.0,
			"-0.021": 0.0,
			"-0.02": 0.0,
			"-0.019": 0.0,
			"-0.018": 0.0,
			"-0.017": 0.0,
			"-0.016": 0.0,
			"-0.015": 0.0,
			"-0.014": 0.148322485379,
			"-0.013": 1.03465786334,
			"-0.012": 0.788605203943,
			"-0.011": 0.914068061057,
			"-0.01": 1.05187331752,
			"-0.009": 1.56384832587,
			"-0.008": 4.22537909049,
			"-0.007": 7.68706561948,
			"-0.006": 10.0036871999,
			"-0.005": 10.8945405408,
			"-0.004": 11.8801429865,
			"-0.003": 28.2403134997,
			"-0.002": 30.1995986842,
			"-0.001": 29.5957668729,
			"0.0": 29.9582879844,
			"0.001": 35.8288967999,
			"0.002": 18.6377519663,
			"0.003": 10.4200236602,
			"0.004": 7.69824268116,
			"0.005": 8.13660401003,
			"0.006": 5.69307230216,
			"0.007": 1.9204060158,
			"0.008": 1.4310587016,
			"0.009": 2.65437816489,
			"0.01": 2.14564197342,
			"0.011": 2.02817980013,
			"0.012": 2.79835992714,
			"0.013": 5.43630788952,
			"0.014": 3.83392688674,
			"0.015": 0.515047227808,
			"0.016": 0.675853991371,
			"0.017": 0.210367164337,
			"0.018": 0.0,
			"0.019": 0.0,
			"0.02": 0.0,
			"0.021": 0.0,
			"0.022": 0.0,
			"0.023": 0.0,
			"0.024": 0.0,
			"0.025": 0.0
		}
	}
}
