{
	 "smiles": "NC(=O)C(=N/NC1=CC=C(F)C=C1)C1=NC2=C(S1)C=CC=C2", 
	 "Tm": 431.15, 
	 "num_atms": 33, 
	 "gaussian": { 
		 "optdone": 1, 
		 "sigma_profile": "yes", 
		 "theory": "DFT", 
		 "functional": "B3LYP", 
		 "basiset": "6-31G**", 
		 "properties": { 
			 "R2extent": 10679.748, 
			 "electric_dipole_moment_norm": 3.69794824328, 
			 "electric_quadrupole_moment_norm": 24.9291038573, 
			 "total_energy": -1370.46030565, 
			 "HOMO_LUMO_gap": 0.12928, 
			 "cosmo_polarized_energy": -22.11, 
			 "cosmo_cavitation_energy": 40.91, 
			 "cosmo_dispersion_energy": -29.98, 
			 "cosmo_repulsion_energy": 2.21, 
			 "cosmo_total_nonelectrostatic_energy": 13.15, 
			 "SMD_solvation_energy": 5.78 
		},
		"coords": [
			{
				"x": -2.3723340921,
				"y": 2.6247397583,
				"z": -1.9670511639,
				"element": "N" 
			},
			{
				"x": -1.6033822301,
				"y": 2.4495743721,
				"z": -0.8201442396,
				"element": "C" 
			},
			{
				"x": -1.7349583847,
				"y": 3.1786044964,
				"z": 0.1515336523,
				"element": "O" 
			},
			{
				"x": -0.6555095226,
				"y": 1.2857520996,
				"z": -0.8357091681,
				"element": "C" 
			},
			{
				"x": -0.8659993003,
				"y": 0.1359868481,
				"z": -1.4167322228,
				"element": "N" 
			},
			{
				"x": -1.9544293094,
				"y": -0.1477547069,
				"z": -2.1091466857,
				"element": "N" 
			},
			{
				"x": -2.1530960634,
				"y": -1.4452444264,
				"z": -2.6155546824,
				"element": "C" 
			},
			{
				"x": -3.3720712428,
				"y": -1.738449708,
				"z": -3.241217276,
				"element": "C" 
			},
			{
				"x": -3.6013053313,
				"y": -3.0072758579,
				"z": -3.7695827985,
				"element": "C" 
			},
			{
				"x": -2.6040527758,
				"y": -3.9693612879,
				"z": -3.6639557549,
				"element": "C" 
			},
			{
				"x": -2.8212429172,
				"y": -5.2004394824,
				"z": -4.1739877814,
				"element": "F" 
			},
			{
				"x": -1.3878064988,
				"y": -3.6951091924,
				"z": -3.0454754535,
				"element": "C" 
			},
			{
				"x": -1.1572684227,
				"y": -2.4277323368,
				"z": -2.5184003145,
				"element": "C" 
			},
			{
				"x": 0.6130412306,
				"y": 1.4040719598,
				"z": -0.0951085613,
				"element": "C" 
			},
			{
				"x": 1.6211527691,
				"y": 0.6052023288,
				"z": -0.2915810448,
				"element": "N" 
			},
			{
				"x": 2.6828220132,
				"y": 0.9222583382,
				"z": 0.530173683,
				"element": "C" 
			},
			{
				"x": 2.4743843497,
				"y": 2.0272597129,
				"z": 1.3923461597,
				"element": "C" 
			},
			{
				"x": 0.8630494017,
				"y": 2.6636997229,
				"z": 1.1473738245,
				"element": "S" 
			},
			{
				"x": 3.4718032927,
				"y": 2.4606505907,
				"z": 2.271124901,
				"element": "C" 
			},
			{
				"x": 4.6834624055,
				"y": 1.7751940262,
				"z": 2.2802356666,
				"element": "C" 
			},
			{
				"x": 4.9021662785,
				"y": 0.6768103352,
				"z": 1.4278509776,
				"element": "C" 
			},
			{
				"x": 3.9139660771,
				"y": 0.2456115268,
				"z": 0.5531307467,
				"element": "C" 
			},
			{
				"x": -1.9304642506,
				"y": 2.4127848235,
				"z": -2.8546948046,
				"element": "H" 
			},
			{
				"x": -2.8930441449,
				"y": 3.4945834551,
				"z": -1.9581749256,
				"element": "H" 
			},
			{
				"x": -2.7251477566,
				"y": 0.5184505902,
				"z": -2.159050586,
				"element": "H" 
			},
			{
				"x": -4.1451596025,
				"y": -0.9775917448,
				"z": -3.3129409075,
				"element": "H" 
			},
			{
				"x": -4.5387367056,
				"y": -3.2545451959,
				"z": -4.2552476454,
				"element": "H" 
			},
			{
				"x": -0.6340148568,
				"y": -4.4723793638,
				"z": -2.9820744299,
				"element": "H" 
			},
			{
				"x": -0.2206878833,
				"y": -2.1839039409,
				"z": -2.0317447408,
				"element": "H" 
			},
			{
				"x": 3.308724194,
				"y": 3.3073399837,
				"z": 2.9306202051,
				"element": "H" 
			},
			{
				"x": 5.4713882718,
				"y": 2.0944164938,
				"z": 2.9560976309,
				"element": "H" 
			},
			{
				"x": 5.8575643204,
				"y": 0.1612936536,
				"z": 1.4566316644,
				"element": "H" 
			},
			{
				"x": 4.0668866873,
				"y": -0.5987978718,
				"z": -0.1109439248,
				"element": "H" 
			}
		],
		 "valence_orbital": [ 
			{
				"type": "occ",
				"energy": -0.26845,
				"method": "rhf"
			},
			{
				"type": "occ",
				"energy": -0.26551,
				"method": "rhf"
			},
			{
				"type": "occ",
				"energy": -0.23983,
				"method": "rhf"
			},
			{
				"type": "occ",
				"energy": -0.22581,
				"method": "rhf"
			},
			{
				"type": "occ",
				"energy": -0.20415,
				"method": "rhf"
			},
			{
				"type": "unocc",
				"energy": -0.07487,
				"method": "rhf"
			},
			{
				"type": "unocc",
				"energy": -0.01947,
				"method": "rhf"
			},
			{
				"type": "unocc",
				"energy": -0.01775,
				"method": "rhf"
			},
			{
				"type": "unocc",
				"energy": 0.00249,
				"method": "rhf"
			},
			{
				"type": "unocc",
				"energy": 0.01016,
				"method": "rhf"
			}
		],
		"cosmo_sigma_profile": { 
			"-0.025": 0.0,
			"-0.024": 0.0,
			"-0.023": 0.0,
			"-0.022": 0.0,
			"-0.021": 0.0,
			"-0.02": 0.0,
			"-0.019": 0.0,
			"-0.018": 0.0,
			"-0.017": 0.0,
			"-0.016": 0.0318540155991,
			"-0.015": 1.02267182498,
			"-0.014": 2.98178504591,
			"-0.013": 3.54596504391,
			"-0.012": 4.49851717766,
			"-0.011": 4.52979085932,
			"-0.01": 3.86298062248,
			"-0.009": 3.1517878295,
			"-0.008": 4.76606069218,
			"-0.007": 10.0431647606,
			"-0.006": 15.4917877214,
			"-0.005": 19.3647227945,
			"-0.004": 17.0532227656,
			"-0.003": 15.4543131617,
			"-0.002": 14.5302017793,
			"-0.001": 14.4661519157,
			"0.0": 21.141698083,
			"0.001": 29.1616117317,
			"0.002": 29.266232739,
			"0.003": 33.8965680109,
			"0.004": 31.658617817,
			"0.005": 18.3583802064,
			"0.006": 5.35463239982,
			"0.007": 3.53260029104,
			"0.008": 3.71340110647,
			"0.009": 3.44261357829,
			"0.01": 3.05822445104,
			"0.011": 4.76222956607,
			"0.012": 4.56642724048,
			"0.013": 2.28602229184,
			"0.014": 1.24338786931,
			"0.015": 1.12772020981,
			"0.016": 0.0925427825843,
			"0.017": 0.0,
			"0.018": 0.0,
			"0.019": 0.0,
			"0.02": 0.0,
			"0.021": 0.0,
			"0.022": 0.0,
			"0.023": 0.0,
			"0.024": 0.0,
			"0.025": 0.0
		}
	}
}
