{
	 "smiles": "CCCCC(=O)OC(=O)CCCC", 
	 "Tm": 217.05, 
	 "num_atms": 31, 
	 "gaussian": { 
		 "optdone": 1, 
		 "sigma_profile": "yes", 
		 "theory": "DFT", 
		 "functional": "B3LYP", 
		 "basiset": "6-31G**", 
		 "properties": { 
			 "R2extent": 4392.6553, 
			 "electric_dipole_moment_norm": 3.26999934098, 
			 "electric_quadrupole_moment_norm": 9.60543695727, 
			 "total_energy": -617.624359727, 
			 "HOMO_LUMO_gap": 0.24575, 
			 "cosmo_polarized_energy": -9.85, 
			 "cosmo_cavitation_energy": 34.02, 
			 "cosmo_dispersion_energy": -23.13, 
			 "cosmo_repulsion_energy": 1.93, 
			 "cosmo_total_nonelectrostatic_energy": 12.81, 
			 "SMD_solvation_energy": 6.9 
		},
		"coords": [
			{
				"x": -2.6915284428,
				"y": -1.5236067141,
				"z": 4.9141418175,
				"element": "C" 
			},
			{
				"x": -1.4215573133,
				"y": -2.0340381255,
				"z": 4.2231161645,
				"element": "C" 
			},
			{
				"x": -1.6212540476,
				"y": -2.4532053965,
				"z": 2.7560948449,
				"element": "C" 
			},
			{
				"x": -1.9760222726,
				"y": -1.3097053628,
				"z": 1.7977655301,
				"element": "C" 
			},
			{
				"x": -0.8305391062,
				"y": -0.3589054295,
				"z": 1.5344213878,
				"element": "C" 
			},
			{
				"x": 0.2960653001,
				"y": -0.4500439555,
				"z": 1.9434355032,
				"element": "O" 
			},
			{
				"x": -1.2321751667,
				"y": 0.6401708723,
				"z": 0.6526986998,
				"element": "O" 
			},
			{
				"x": -0.5965107473,
				"y": 1.8887942347,
				"z": 0.6645339708,
				"element": "C" 
			},
			{
				"x": -0.2018385574,
				"y": 2.3996892914,
				"z": 1.6751650498,
				"element": "O" 
			},
			{
				"x": -0.5462634543,
				"y": 2.4673638906,
				"z": -0.7286278169,
				"element": "C" 
			},
			{
				"x": 0.3231889165,
				"y": 1.6273462131,
				"z": -1.6873087596,
				"element": "C" 
			},
			{
				"x": 1.7781819108,
				"y": 1.4716425084,
				"z": -1.2241855261,
				"element": "C" 
			},
			{
				"x": 2.6331519197,
				"y": 0.6840400654,
				"z": -2.2215058796,
				"element": "C" 
			},
			{
				"x": -3.4904718818,
				"y": -2.2740883975,
				"z": 4.8842953337,
				"element": "H" 
			},
			{
				"x": -2.4962759007,
				"y": -1.2892013443,
				"z": 5.9654589417,
				"element": "H" 
			},
			{
				"x": -3.0779317712,
				"y": -0.6100679521,
				"z": 4.4489010653,
				"element": "H" 
			},
			{
				"x": -1.0427948856,
				"y": -2.9036202875,
				"z": 4.7743715725,
				"element": "H" 
			},
			{
				"x": -0.6339757027,
				"y": -1.2745227417,
				"z": 4.2753578973,
				"element": "H" 
			},
			{
				"x": -2.4197385965,
				"y": -3.2040112535,
				"z": 2.6995883985,
				"element": "H" 
			},
			{
				"x": -0.7075325243,
				"y": -2.9368217271,
				"z": 2.3938436062,
				"element": "H" 
			},
			{
				"x": -2.8238783602,
				"y": -0.715085278,
				"z": 2.1578941644,
				"element": "H" 
			},
			{
				"x": -2.2943771405,
				"y": -1.6989820025,
				"z": 0.8218693148,
				"element": "H" 
			},
			{
				"x": -0.1598788909,
				"y": 3.4857750393,
				"z": -0.6371022461,
				"element": "H" 
			},
			{
				"x": -1.5711049198,
				"y": 2.5210823721,
				"z": -1.1149442428,
				"element": "H" 
			},
			{
				"x": 0.2973679279,
				"y": 2.1062764998,
				"z": -2.6741265465,
				"element": "H" 
			},
			{
				"x": -0.1341260233,
				"y": 0.6381875365,
				"z": -1.8095717442,
				"element": "H" 
			},
			{
				"x": 2.2161495801,
				"y": 2.4663208044,
				"z": -1.0667253125,
				"element": "H" 
			},
			{
				"x": 1.8004662281,
				"y": 0.9708660545,
				"z": -0.2477976724,
				"element": "H" 
			},
			{
				"x": 2.235678785,
				"y": -0.3259390096,
				"z": -2.3736615263,
				"element": "H" 
			},
			{
				"x": 2.6624333005,
				"y": 1.1788245042,
				"z": -3.1992623186,
				"element": "H" 
			},
			{
				"x": 3.6640918371,
				"y": 0.5842650912,
				"z": -1.8679336713,
				"element": "H" 
			}
		],
		 "valence_orbital": [ 
			{
				"type": "occ",
				"energy": -0.32993,
				"method": "rhf"
			},
			{
				"type": "occ",
				"energy": -0.32566,
				"method": "rhf"
			},
			{
				"type": "occ",
				"energy": -0.31881,
				"method": "rhf"
			},
			{
				"type": "occ",
				"energy": -0.29146,
				"method": "rhf"
			},
			{
				"type": "occ",
				"energy": -0.27058,
				"method": "rhf"
			},
			{
				"type": "unocc",
				"energy": -0.02483,
				"method": "rhf"
			},
			{
				"type": "unocc",
				"energy": 0.01133,
				"method": "rhf"
			},
			{
				"type": "unocc",
				"energy": 0.08112,
				"method": "rhf"
			},
			{
				"type": "unocc",
				"energy": 0.09228,
				"method": "rhf"
			},
			{
				"type": "unocc",
				"energy": 0.11333,
				"method": "rhf"
			}
		],
		"cosmo_sigma_profile": { 
			"-0.025": 0.0,
			"-0.024": 0.0,
			"-0.023": 0.0,
			"-0.022": 0.0,
			"-0.021": 0.0,
			"-0.02": 0.0,
			"-0.019": 0.0,
			"-0.018": 0.0,
			"-0.017": 0.0,
			"-0.016": 0.0,
			"-0.015": 0.0,
			"-0.014": 0.0,
			"-0.013": 0.0,
			"-0.012": 0.0,
			"-0.011": 0.0,
			"-0.01": 0.0,
			"-0.009": 0.0,
			"-0.008": 0.0,
			"-0.007": 1.94889532709,
			"-0.006": 8.70045399299,
			"-0.005": 9.92735838555,
			"-0.004": 12.5793258349,
			"-0.003": 31.7187428957,
			"-0.002": 41.1627435743,
			"-0.001": 36.3423124825,
			"0.0": 36.3690270741,
			"0.001": 31.0277393059,
			"0.002": 11.0079832428,
			"0.003": 5.34251407206,
			"0.004": 3.91518382758,
			"0.005": 3.79328462735,
			"0.006": 3.51589192601,
			"0.007": 3.30978095181,
			"0.008": 3.3554324906,
			"0.009": 3.85970739314,
			"0.01": 8.11722141524,
			"0.011": 7.65057018204,
			"0.012": 0.546725310453,
			"0.013": 0.0,
			"0.014": 0.0,
			"0.015": 0.0,
			"0.016": 0.0,
			"0.017": 0.0,
			"0.018": 0.0,
			"0.019": 0.0,
			"0.02": 0.0,
			"0.021": 0.0,
			"0.022": 0.0,
			"0.023": 0.0,
			"0.024": 0.0,
			"0.025": 0.0
		}
	}
}
