{
	 "smiles": "CC(C)(O)C1=CC=CC=C1", 
	 "Tm": 307.15, 
	 "num_atms": 22, 
	 "gaussian": { 
		 "optdone": 1, 
		 "sigma_profile": "yes", 
		 "theory": "DFT", 
		 "functional": "B3LYP", 
		 "basiset": "6-31G**", 
		 "properties": { 
			 "R2extent": 1551.1463, 
			 "electric_dipole_moment_norm": 1.29907236519, 
			 "electric_quadrupole_moment_norm": 4.22258806184, 
			 "total_energy": -425.418468192, 
			 "HOMO_LUMO_gap": 0.23929, 
			 "cosmo_polarized_energy": -7.04, 
			 "cosmo_cavitation_energy": 24.19, 
			 "cosmo_dispersion_energy": -17.48, 
			 "cosmo_repulsion_energy": 1.41, 
			 "cosmo_total_nonelectrostatic_energy": 8.12, 
			 "SMD_solvation_energy": 4.35 
		},
		"coords": [
			{
				"x": -0.7972717451,
				"y": 2.4533630145,
				"z": 0.6885588298,
				"element": "C" 
			},
			{
				"x": 0.1012630599,
				"y": 1.2874087364,
				"z": 1.1264213193,
				"element": "C" 
			},
			{
				"x": 1.5735203275,
				"y": 1.7304011592,
				"z": 1.1957776644,
				"element": "C" 
			},
			{
				"x": -0.3418405966,
				"y": 0.9669985427,
				"z": 2.4530387846,
				"element": "O" 
			},
			{
				"x": -0.0987692691,
				"y": 0.088467473,
				"z": 0.1853780341,
				"element": "C" 
			},
			{
				"x": -0.9572214662,
				"y": -0.956326284,
				"z": 0.5524867669,
				"element": "C" 
			},
			{
				"x": -1.1718541249,
				"y": -2.0419819515,
				"z": -0.2989061355,
				"element": "C" 
			},
			{
				"x": -0.5349757286,
				"y": -2.1005027831,
				"z": -1.5385112898,
				"element": "C" 
			},
			{
				"x": 0.3147854238,
				"y": -1.0607140911,
				"z": -1.9207284961,
				"element": "C" 
			},
			{
				"x": 0.5296034704,
				"y": 0.0219354379,
				"z": -1.067312109,
				"element": "C" 
			},
			{
				"x": -1.8456173254,
				"y": 2.1441590993,
				"z": 0.7066311959,
				"element": "H" 
			},
			{
				"x": -0.6718437303,
				"y": 3.2991422138,
				"z": 1.3716453814,
				"element": "H" 
			},
			{
				"x": -0.5480541477,
				"y": 2.7758629158,
				"z": -0.3261184802,
				"element": "H" 
			},
			{
				"x": 1.9438656197,
				"y": 2.1023140379,
				"z": 0.2364901836,
				"element": "H" 
			},
			{
				"x": 2.2171755709,
				"y": 0.8969493222,
				"z": 1.4997650772,
				"element": "H" 
			},
			{
				"x": 1.6713418351,
				"y": 2.5319664846,
				"z": 1.9333476579,
				"element": "H" 
			},
			{
				"x": 0.2209787184,
				"y": 0.2522588258,
				"z": 2.7820869887,
				"element": "H" 
			},
			{
				"x": -1.4614429979,
				"y": -0.9053205856,
				"z": 1.5114563821,
				"element": "H" 
			},
			{
				"x": -1.8403657139,
				"y": -2.8416971965,
				"z": 0.0084855586,
				"element": "H" 
			},
			{
				"x": -0.699829952,
				"y": -2.9449518718,
				"z": -2.2016228606,
				"element": "H" 
			},
			{
				"x": 0.8145082495,
				"y": -1.0920448977,
				"z": -2.8851150726,
				"element": "H" 
			},
			{
				"x": 1.1924445224,
				"y": 0.8202123983,
				"z": -1.3879553805,
				"element": "H" 
			}
		],
		 "valence_orbital": [ 
			{
				"type": "occ",
				"energy": -0.33475,
				"method": "rhf"
			},
			{
				"type": "occ",
				"energy": -0.31561,
				"method": "rhf"
			},
			{
				"type": "occ",
				"energy": -0.27111,
				"method": "rhf"
			},
			{
				"type": "occ",
				"energy": -0.24657,
				"method": "rhf"
			},
			{
				"type": "occ",
				"energy": -0.23969,
				"method": "rhf"
			},
			{
				"type": "unocc",
				"energy": -0.0004,
				"method": "rhf"
			},
			{
				"type": "unocc",
				"energy": 0.00261,
				"method": "rhf"
			},
			{
				"type": "unocc",
				"energy": 0.07608,
				"method": "rhf"
			},
			{
				"type": "unocc",
				"energy": 0.10127,
				"method": "rhf"
			},
			{
				"type": "unocc",
				"energy": 0.12037,
				"method": "rhf"
			}
		],
		"cosmo_sigma_profile": { 
			"-0.025": 0.0,
			"-0.024": 0.0,
			"-0.023": 0.0,
			"-0.022": 0.0,
			"-0.021": 0.0,
			"-0.02": 0.0,
			"-0.019": 0.0,
			"-0.018": 0.0,
			"-0.017": 0.0,
			"-0.016": 0.0,
			"-0.015": 0.23094617962,
			"-0.014": 0.862074271432,
			"-0.013": 0.64861981944,
			"-0.012": 1.25682739774,
			"-0.011": 0.53413791674,
			"-0.01": 0.958131492953,
			"-0.009": 0.959200130658,
			"-0.008": 0.974633206089,
			"-0.007": 0.879155552526,
			"-0.006": 4.32949140606,
			"-0.005": 10.9040890427,
			"-0.004": 13.809467759,
			"-0.003": 21.8009239694,
			"-0.002": 17.7836039664,
			"-0.001": 16.5413183807,
			"0.0": 19.7295366962,
			"0.001": 18.9488131781,
			"0.002": 9.49293490948,
			"0.003": 9.70932845717,
			"0.004": 7.92981868165,
			"0.005": 9.02209251567,
			"0.006": 9.57890775929,
			"0.007": 4.21352109296,
			"0.008": 1.5416511894,
			"0.009": 1.08220690656,
			"0.01": 0.604700028485,
			"0.011": 1.06013167152,
			"0.012": 1.43658592038,
			"0.013": 1.35353866783,
			"0.014": 1.54599142622,
			"0.015": 0.174356750656,
			"0.016": 0.0,
			"0.017": 0.0,
			"0.018": 0.0,
			"0.019": 0.0,
			"0.02": 0.0,
			"0.021": 0.0,
			"0.022": 0.0,
			"0.023": 0.0,
			"0.024": 0.0,
			"0.025": 0.0
		}
	}
}
