{
	 "smiles": "OC(=O)C1=CSC(=N1)C1=C(Cl)C(Cl)=CC=C1", 
	 "Tm": 507.15, 
	 "num_atms": 21, 
	 "gaussian": { 
		 "optdone": 1, 
		 "sigma_profile": "yes", 
		 "theory": "DFT", 
		 "functional": "B3LYP", 
		 "basiset": "6-31G**", 
		 "properties": { 
			 "R2extent": 5937.1228, 
			 "electric_dipole_moment_norm": 4.37499294857, 
			 "electric_quadrupole_moment_norm": 28.6530128053, 
			 "total_energy": -1907.84933533, 
			 "HOMO_LUMO_gap": 0.16856, 
			 "cosmo_polarized_energy": -12.35, 
			 "cosmo_cavitation_energy": 31.29, 
			 "cosmo_dispersion_energy": -23.93, 
			 "cosmo_repulsion_energy": 1.79, 
			 "cosmo_total_nonelectrostatic_energy": 9.15, 
			 "SMD_solvation_energy": 5.45 
		},
		"coords": [
			{
				"x": 4.3712194586,
				"y": -1.61779004,
				"z": 1.5652393506,
				"element": "O" 
			},
			{
				"x": 3.5067970199,
				"y": -2.0135513904,
				"z": 2.5216070052,
				"element": "C" 
			},
			{
				"x": 3.8538728392,
				"y": -2.6294824559,
				"z": 3.5019905101,
				"element": "O" 
			},
			{
				"x": 2.0908405828,
				"y": -1.6208681369,
				"z": 2.2564989787,
				"element": "C" 
			},
			{
				"x": 1.0377448428,
				"y": -1.8845288225,
				"z": 3.0887676948,
				"element": "C" 
			},
			{
				"x": -0.4085677927,
				"y": -1.237194238,
				"z": 2.4240287532,
				"element": "S" 
			},
			{
				"x": 0.5034435515,
				"y": -0.6484431537,
				"z": 1.0259057954,
				"element": "C" 
			},
			{
				"x": 1.7820659563,
				"y": -0.9365184212,
				"z": 1.1107376804,
				"element": "N" 
			},
			{
				"x": -0.0476244433,
				"y": 0.0337234485,
				"z": -0.1648745071,
				"element": "C" 
			},
			{
				"x": -1.3333376092,
				"y": 0.6075128557,
				"z": -0.2802261479,
				"element": "C" 
			},
			{
				"x": -2.4718974027,
				"y": 0.5633018744,
				"z": 1.0424165553,
				"element": "Cl" 
			},
			{
				"x": -1.7199939006,
				"y": 1.2401581769,
				"z": -1.4745369579,
				"element": "C" 
			},
			{
				"x": -3.3009890886,
				"y": 1.9628199588,
				"z": -1.6435545475,
				"element": "Cl" 
			},
			{
				"x": -0.8487844923,
				"y": 1.3093691993,
				"z": -2.5591630735,
				"element": "C" 
			},
			{
				"x": 0.4201785442,
				"y": 0.744679146,
				"z": -2.4547759692,
				"element": "C" 
			},
			{
				"x": 0.8101134523,
				"y": 0.1189589598,
				"z": -1.2804849309,
				"element": "C" 
			},
			{
				"x": 3.8604600534,
				"y": -1.1388174978,
				"z": 0.8871213889,
				"element": "H" 
			},
			{
				"x": 1.0641847799,
				"y": -2.399248004,
				"z": 4.0383179474,
				"element": "H" 
			},
			{
				"x": -1.1742792583,
				"y": 1.8001156964,
				"z": -3.4691652487,
				"element": "H" 
			},
			{
				"x": 1.1029969509,
				"y": 0.7906974174,
				"z": -3.2968477533,
				"element": "H" 
			},
			{
				"x": 1.7929559561,
				"y": -0.3257945728,
				"z": -1.1946025239,
				"element": "H" 
			}
		],
		 "valence_orbital": [ 
			{
				"type": "occ",
				"energy": -0.31275,
				"method": "rhf"
			},
			{
				"type": "occ",
				"energy": -0.29963,
				"method": "rhf"
			},
			{
				"type": "occ",
				"energy": -0.27582,
				"method": "rhf"
			},
			{
				"type": "occ",
				"energy": -0.26888,
				"method": "rhf"
			},
			{
				"type": "occ",
				"energy": -0.25332,
				"method": "rhf"
			},
			{
				"type": "unocc",
				"energy": -0.08476,
				"method": "rhf"
			},
			{
				"type": "unocc",
				"energy": -0.04661,
				"method": "rhf"
			},
			{
				"type": "unocc",
				"energy": -0.03967,
				"method": "rhf"
			},
			{
				"type": "unocc",
				"energy": -0.0153,
				"method": "rhf"
			},
			{
				"type": "unocc",
				"energy": 0.00149,
				"method": "rhf"
			}
		],
		"cosmo_sigma_profile": { 
			"-0.025": 0.0,
			"-0.024": 0.0,
			"-0.023": 0.0,
			"-0.022": 0.0,
			"-0.021": 0.0,
			"-0.02": 0.0,
			"-0.019": 0.0,
			"-0.018": 0.0,
			"-0.017": 0.0,
			"-0.016": 0.0,
			"-0.015": 0.0,
			"-0.014": 0.338606056533,
			"-0.013": 0.478658059652,
			"-0.012": 0.644830503077,
			"-0.011": 1.6540624176,
			"-0.01": 2.55262798176,
			"-0.009": 2.61947140998,
			"-0.008": 5.60393859471,
			"-0.007": 7.73720828097,
			"-0.006": 9.62111080245,
			"-0.005": 8.96950819903,
			"-0.004": 11.6563782085,
			"-0.003": 15.1513612882,
			"-0.002": 20.6810480405,
			"-0.001": 28.2035720238,
			"0.0": 34.2731603825,
			"0.001": 28.0919850987,
			"0.002": 21.9523142477,
			"0.003": 16.0656749154,
			"0.004": 12.176423898,
			"0.005": 3.91384632873,
			"0.006": 2.11821474199,
			"0.007": 1.89958739053,
			"0.008": 3.21930612721,
			"0.009": 3.87391329507,
			"0.01": 4.9294275845,
			"0.011": 5.42352706999,
			"0.012": 4.20342867087,
			"0.013": 1.16084276606,
			"0.014": 0.0,
			"0.015": 0.0,
			"0.016": 0.0,
			"0.017": 0.0,
			"0.018": 0.0,
			"0.019": 0.0,
			"0.02": 0.0,
			"0.021": 0.0,
			"0.022": 0.0,
			"0.023": 0.0,
			"0.024": 0.0,
			"0.025": 0.0
		}
	}
}
