{
	 "smiles": "CC1=CC=C(C#N)C(=C1)[N+]([O-])=O", 
	 "Tm": 370.15, 
	 "num_atms": 18, 
	 "gaussian": { 
		 "optdone": 1, 
		 "sigma_profile": "yes", 
		 "theory": "DFT", 
		 "functional": "B3LYP", 
		 "basiset": "6-31G**", 
		 "properties": { 
			 "R2extent": 3585.4995, 
			 "electric_dipole_moment_norm": 7.44767407853, 
			 "electric_quadrupole_moment_norm": 22.9333685234, 
			 "total_energy": -568.297590034, 
			 "HOMO_LUMO_gap": 0.17113, 
			 "cosmo_polarized_energy": -14.31, 
			 "cosmo_cavitation_energy": 24.12, 
			 "cosmo_dispersion_energy": -17.11, 
			 "cosmo_repulsion_energy": 1.36, 
			 "cosmo_total_nonelectrostatic_energy": 8.37, 
			 "SMD_solvation_energy": 7.59 
		},
		"coords": [
			{
				"x": 1.6876664738,
				"y": 0.1756350603,
				"z": 1.3757350128,
				"element": "C" 
			},
			{
				"x": 0.4931480017,
				"y": -0.5077590301,
				"z": 0.7585692415,
				"element": "C" 
			},
			{
				"x": -0.4213398009,
				"y": 0.2060755356,
				"z": -0.0302625123,
				"element": "C" 
			},
			{
				"x": -1.5121356698,
				"y": -0.4231905449,
				"z": -0.6182957665,
				"element": "C" 
			},
			{
				"x": -1.7388776971,
				"y": -1.8003822605,
				"z": -0.4414714752,
				"element": "C" 
			},
			{
				"x": -2.8914424753,
				"y": -2.3600487364,
				"z": -1.0842850985,
				"element": "C" 
			},
			{
				"x": -3.8554997335,
				"y": -2.6574904483,
				"z": -1.6628905272,
				"element": "N" 
			},
			{
				"x": -0.8186674371,
				"y": -2.5074652504,
				"z": 0.353111143,
				"element": "C" 
			},
			{
				"x": 0.272737175,
				"y": -1.875692378,
				"z": 0.9412531962,
				"element": "C" 
			},
			{
				"x": -0.9785068127,
				"y": -3.9543652317,
				"z": 0.5970399728,
				"element": "N" 
			},
			{
				"x": -1.9331378983,
				"y": -4.5178718314,
				"z": 0.0706695756,
				"element": "O" 
			},
			{
				"x": -0.1420832247,
				"y": -4.5029521841,
				"z": 1.3130154773,
				"element": "O" 
			},
			{
				"x": 2.462502231,
				"y": 0.3601562775,
				"z": 0.6220549329,
				"element": "H" 
			},
			{
				"x": 2.1326431382,
				"y": -0.4332284907,
				"z": 2.1662751863,
				"element": "H" 
			},
			{
				"x": 1.4131430855,
				"y": 1.1451690711,
				"z": 1.8025440409,
				"element": "H" 
			},
			{
				"x": -0.2787955555,
				"y": 1.2718527086,
				"z": -0.185671264,
				"element": "H" 
			},
			{
				"x": -2.2112285367,
				"y": 0.1422495578,
				"z": -1.2244178852,
				"element": "H" 
			},
			{
				"x": 0.9428747364,
				"y": -2.4759918244,
				"z": 1.5442267495,
				"element": "H" 
			}
		],
		 "valence_orbital": [ 
			{
				"type": "occ",
				"energy": -0.32136,
				"method": "rhf"
			},
			{
				"type": "occ",
				"energy": -0.31653,
				"method": "rhf"
			},
			{
				"type": "occ",
				"energy": -0.30217,
				"method": "rhf"
			},
			{
				"type": "occ",
				"energy": -0.29883,
				"method": "rhf"
			},
			{
				"type": "occ",
				"energy": -0.28013,
				"method": "rhf"
			},
			{
				"type": "unocc",
				"energy": -0.109,
				"method": "rhf"
			},
			{
				"type": "unocc",
				"energy": -0.06176,
				"method": "rhf"
			},
			{
				"type": "unocc",
				"energy": -0.02044,
				"method": "rhf"
			},
			{
				"type": "unocc",
				"energy": 0.03126,
				"method": "rhf"
			},
			{
				"type": "unocc",
				"energy": 0.05803,
				"method": "rhf"
			}
		],
		"cosmo_sigma_profile": { 
			"-0.025": 0.0,
			"-0.024": 0.0,
			"-0.023": 0.0,
			"-0.022": 0.0,
			"-0.021": 0.0,
			"-0.02": 0.0,
			"-0.019": 0.0,
			"-0.018": 0.0,
			"-0.017": 0.0,
			"-0.016": 0.0,
			"-0.015": 0.0,
			"-0.014": 0.0,
			"-0.013": 0.0,
			"-0.012": 0.0,
			"-0.011": 0.0,
			"-0.01": 0.0,
			"-0.009": 1.59556029074,
			"-0.008": 7.39177166843,
			"-0.007": 9.22819500985,
			"-0.006": 10.7239760214,
			"-0.005": 13.591309359,
			"-0.004": 15.0045503491,
			"-0.003": 17.3094789381,
			"-0.002": 19.6372445801,
			"-0.001": 20.2009251775,
			"0.0": 13.143735139,
			"0.001": 4.93323280373,
			"0.002": 3.71853988123,
			"0.003": 2.95889079919,
			"0.004": 3.67939169916,
			"0.005": 6.02035682308,
			"0.006": 6.47710966487,
			"0.007": 11.8405250416,
			"0.008": 11.1435406561,
			"0.009": 6.73255928184,
			"0.01": 3.57375798917,
			"0.011": 2.5794707239,
			"0.012": 2.35790472311,
			"0.013": 0.765947587809,
			"0.014": 0.0,
			"0.015": 0.0,
			"0.016": 0.0,
			"0.017": 0.0,
			"0.018": 0.0,
			"0.019": 0.0,
			"0.02": 0.0,
			"0.021": 0.0,
			"0.022": 0.0,
			"0.023": 0.0,
			"0.024": 0.0,
			"0.025": 0.0
		}
	}
}
