{
	 "smiles": "CSCC1=C(C)SC(=C1)C(O)=O", 
	 "Tm": 409.15, 
	 "num_atms": 22, 
	 "gaussian": { 
		 "optdone": 1, 
		 "sigma_profile": "yes", 
		 "theory": "DFT", 
		 "functional": "B3LYP", 
		 "basiset": "6-31G**", 
		 "properties": { 
			 "R2extent": 3286.9404, 
			 "electric_dipole_moment_norm": 4.01841152447, 
			 "electric_quadrupole_moment_norm": 18.5921510477, 
			 "total_energy": -1257.70380686, 
			 "HOMO_LUMO_gap": 0.16855, 
			 "cosmo_polarized_energy": -14.95, 
			 "cosmo_cavitation_energy": 28.99, 
			 "cosmo_dispersion_energy": -21.34, 
			 "cosmo_repulsion_energy": 1.63, 
			 "cosmo_total_nonelectrostatic_energy": 9.28, 
			 "SMD_solvation_energy": 5.84 
		},
		"coords": [
			{
				"x": -0.6543784209,
				"y": 0.5237287804,
				"z": 2.9619896503,
				"element": "C" 
			},
			{
				"x": -2.3435676824,
				"y": 0.520668752,
				"z": 2.2706703125,
				"element": "S" 
			},
			{
				"x": -2.0424660347,
				"y": 1.3375344434,
				"z": 0.6388488821,
				"element": "C" 
			},
			{
				"x": -1.1449263688,
				"y": 0.5793925769,
				"z": -0.3002538127,
				"element": "C" 
			},
			{
				"x": -1.5467038356,
				"y": -0.5241522745,
				"z": -1.0303279449,
				"element": "C" 
			},
			{
				"x": -2.8930287362,
				"y": -1.1853177426,
				"z": -1.040244686,
				"element": "C" 
			},
			{
				"x": -0.2377800133,
				"y": -1.1467363834,
				"z": -1.9895995635,
				"element": "S" 
			},
			{
				"x": 0.8596914445,
				"y": 0.0895538725,
				"z": -1.4210904693,
				"element": "C" 
			},
			{
				"x": 0.2200840043,
				"y": 0.9147991909,
				"z": -0.5282064463,
				"element": "C" 
			},
			{
				"x": 2.2729169088,
				"y": 0.2360006238,
				"z": -1.8301205904,
				"element": "C" 
			},
			{
				"x": 2.723925211,
				"y": -0.5577104667,
				"z": -2.8396056285,
				"element": "O" 
			},
			{
				"x": 3.0229931034,
				"y": 1.0237143752,
				"z": -1.3004727174,
				"element": "O" 
			},
			{
				"x": -0.2867772651,
				"y": 1.5438853092,
				"z": 3.1028974981,
				"element": "H" 
			},
			{
				"x": 0.0360780651,
				"y": -0.0365239914,
				"z": 2.32751163,
				"element": "H" 
			},
			{
				"x": -0.7163051764,
				"y": 0.0343996434,
				"z": 3.9363810339,
				"element": "H" 
			},
			{
				"x": -3.0453196484,
				"y": 1.4582201666,
				"z": 0.2183198761,
				"element": "H" 
			},
			{
				"x": -1.643887207,
				"y": 2.3400339513,
				"z": 0.8199725496,
				"element": "H" 
			},
			{
				"x": -2.9182658912,
				"y": -2.0500054884,
				"z": -1.7074822553,
				"element": "H" 
			},
			{
				"x": -3.1612557482,
				"y": -1.5195533544,
				"z": -0.0322893315,
				"element": "H" 
			},
			{
				"x": -3.6689325658,
				"y": -0.4856406592,
				"z": -1.3736200969,
				"element": "H" 
			},
			{
				"x": 0.7334407037,
				"y": 1.7491437503,
				"z": -0.0640132249,
				"element": "H" 
			},
			{
				"x": 2.0054651532,
				"y": -1.0645350754,
				"z": -3.2442646649,
				"element": "H" 
			}
		],
		 "valence_orbital": [ 
			{
				"type": "occ",
				"energy": -0.31604,
				"method": "rhf"
			},
			{
				"type": "occ",
				"energy": -0.27585,
				"method": "rhf"
			},
			{
				"type": "occ",
				"energy": -0.26816,
				"method": "rhf"
			},
			{
				"type": "occ",
				"energy": -0.24541,
				"method": "rhf"
			},
			{
				"type": "occ",
				"energy": -0.22858,
				"method": "rhf"
			},
			{
				"type": "unocc",
				"energy": -0.06003,
				"method": "rhf"
			},
			{
				"type": "unocc",
				"energy": -0.01053,
				"method": "rhf"
			},
			{
				"type": "unocc",
				"energy": 0.00611,
				"method": "rhf"
			},
			{
				"type": "unocc",
				"energy": 0.04153,
				"method": "rhf"
			},
			{
				"type": "unocc",
				"energy": 0.0602,
				"method": "rhf"
			}
		],
		"cosmo_sigma_profile": { 
			"-0.025": 0.0,
			"-0.024": 0.0,
			"-0.023": 0.0,
			"-0.022": 0.0,
			"-0.021": 0.0,
			"-0.02": 0.0,
			"-0.019": 0.0,
			"-0.018": 0.336853228364,
			"-0.017": 0.558543104342,
			"-0.016": 0.844966597827,
			"-0.015": 1.09968279259,
			"-0.014": 0.98189247147,
			"-0.013": 0.869240577705,
			"-0.012": 0.89705040292,
			"-0.011": 1.06363150035,
			"-0.01": 0.876909982571,
			"-0.009": 1.03202512813,
			"-0.008": 1.51893171156,
			"-0.007": 4.74344327922,
			"-0.006": 14.7352583855,
			"-0.005": 16.2589160308,
			"-0.004": 16.5264978938,
			"-0.003": 18.527055223,
			"-0.002": 22.2591048104,
			"-0.001": 22.9827083663,
			"0.0": 13.3849846552,
			"0.001": 14.2658342464,
			"0.002": 16.7454456267,
			"0.003": 11.111914814,
			"0.004": 5.72952161533,
			"0.005": 5.51723509678,
			"0.006": 5.75562654894,
			"0.007": 5.22663344509,
			"0.008": 4.97379247369,
			"0.009": 5.41145444114,
			"0.01": 5.86459444214,
			"0.011": 5.52844520933,
			"0.012": 5.9028914268,
			"0.013": 2.01582156705,
			"0.014": 0.143681927672,
			"0.015": 0.0,
			"0.016": 0.0,
			"0.017": 0.0,
			"0.018": 0.0,
			"0.019": 0.0,
			"0.02": 0.0,
			"0.021": 0.0,
			"0.022": 0.0,
			"0.023": 0.0,
			"0.024": 0.0,
			"0.025": 0.0
		}
	}
}
