{
	 "smiles": "CC1=CC(=CC(Br)=C1O)C1(OS(=O)(=O)C2=CC=CC=C12)C1=CC(C)=C(O)C(Br)=C1", 
	 "Tm": 514.15, 
	 "num_atms": 45, 
	 "gaussian": { 
		 "optdone": 1, 
		 "sigma_profile": "yes", 
		 "theory": "DFT", 
		 "functional": "B3LYP", 
		 "basiset": "6-31G**", 
		 "properties": { 
			 "R2extent": 17151.844, 
			 "electric_dipole_moment_norm": 5.95989041007, 
			 "electric_quadrupole_moment_norm": 17.9264085, 
			 "total_energy": -6726.93072191, 
			 "HOMO_LUMO_gap": 0.18282, 
			 "cosmo_polarized_energy": -20.19, 
			 "cosmo_cavitation_energy": 54.43, 
			 "cosmo_dispersion_energy": -37.16, 
			 "cosmo_repulsion_energy": 2.85, 
			 "cosmo_total_nonelectrostatic_energy": 20.12, 
			 "SMD_solvation_energy": 6.36 
		},
		"coords": [
			{
				"x": -0.3421095236,
				"y": -2.0835788146,
				"z": 4.4216001449,
				"element": "C" 
			},
			{
				"x": 0.1966857527,
				"y": -1.0370185082,
				"z": 3.480949935,
				"element": "C" 
			},
			{
				"x": -0.1125027669,
				"y": -1.0271052585,
				"z": 2.1257048722,
				"element": "C" 
			},
			{
				"x": 0.397430074,
				"y": -0.0586863893,
				"z": 1.2438072203,
				"element": "C" 
			},
			{
				"x": 1.2448733852,
				"y": 0.9258055932,
				"z": 1.7480516025,
				"element": "C" 
			},
			{
				"x": 1.5531270894,
				"y": 0.9322812304,
				"z": 3.1069113766,
				"element": "C" 
			},
			{
				"x": 2.7111358899,
				"y": 2.290681809,
				"z": 3.813114418,
				"element": "Br" 
			},
			{
				"x": 1.0481069048,
				"y": -0.0298492403,
				"z": 3.9854657664,
				"element": "C" 
			},
			{
				"x": 1.3290877339,
				"y": -0.0556456308,
				"z": 5.3100696788,
				"element": "O" 
			},
			{
				"x": 0.0238365412,
				"y": -0.1613861199,
				"z": -0.2362623504,
				"element": "C" 
			},
			{
				"x": 0.4495748415,
				"y": -1.4905178864,
				"z": -0.7045277032,
				"element": "O" 
			},
			{
				"x": 1.8179767215,
				"y": -1.4946898656,
				"z": -1.6397563818,
				"element": "S" 
			},
			{
				"x": 1.5146780851,
				"y": -2.2662451412,
				"z": -2.8398227755,
				"element": "O" 
			},
			{
				"x": 2.9777930198,
				"y": -1.8396850335,
				"z": -0.8259443271,
				"element": "O" 
			},
			{
				"x": 1.7362787513,
				"y": 0.2557635054,
				"z": -1.934147497,
				"element": "C" 
			},
			{
				"x": 2.5148114711,
				"y": 0.9794428245,
				"z": -2.8332408791,
				"element": "C" 
			},
			{
				"x": 2.2874121958,
				"y": 2.3521734078,
				"z": -2.9219758523,
				"element": "C" 
			},
			{
				"x": 1.301243443,
				"y": 2.9575378678,
				"z": -2.1321917681,
				"element": "C" 
			},
			{
				"x": 0.5295726902,
				"y": 2.2080109073,
				"z": -1.2422339071,
				"element": "C" 
			},
			{
				"x": 0.7597426439,
				"y": 0.8346970548,
				"z": -1.1364372823,
				"element": "C" 
			},
			{
				"x": -1.4875972383,
				"y": -0.0845454685,
				"z": -0.4779076366,
				"element": "C" 
			},
			{
				"x": -2.301937262,
				"y": 0.73097201,
				"z": 0.3195716212,
				"element": "C" 
			},
			{
				"x": -3.6663885279,
				"y": 0.8865368238,
				"z": 0.0735049346,
				"element": "C" 
			},
			{
				"x": -4.5422236525,
				"y": 1.7593809543,
				"z": 0.9351019481,
				"element": "C" 
			},
			{
				"x": -4.2385467519,
				"y": 0.1921653222,
				"z": -1.0092694685,
				"element": "C" 
			},
			{
				"x": -5.5670600001,
				"y": 0.3504381029,
				"z": -1.2248923683,
				"element": "O" 
			},
			{
				"x": -3.4202657044,
				"y": -0.6253107449,
				"z": -1.8001077022,
				"element": "C" 
			},
			{
				"x": -4.2306388999,
				"y": -1.5695754543,
				"z": -3.260968284,
				"element": "Br" 
			},
			{
				"x": -2.0605063049,
				"y": -0.7683467577,
				"z": -1.5532629037,
				"element": "C" 
			},
			{
				"x": -0.9215408757,
				"y": -1.6273312745,
				"z": 5.2314954649,
				"element": "H" 
			},
			{
				"x": -0.9835460064,
				"y": -2.7902524254,
				"z": 3.8899668926,
				"element": "H" 
			},
			{
				"x": 0.4719535126,
				"y": -2.6423723671,
				"z": 4.8954658267,
				"element": "H" 
			},
			{
				"x": -0.761543038,
				"y": -1.8040818637,
				"z": 1.7339585797,
				"element": "H" 
			},
			{
				"x": 1.674972433,
				"y": 1.6837617951,
				"z": 1.1063719164,
				"element": "H" 
			},
			{
				"x": 1.9320370569,
				"y": 0.6779869832,
				"z": 5.5142590616,
				"element": "H" 
			},
			{
				"x": 3.2625886126,
				"y": 0.4888317927,
				"z": -3.4475221646,
				"element": "H" 
			},
			{
				"x": 2.8705398135,
				"y": 2.9518158242,
				"z": -3.6136214965,
				"element": "H" 
			},
			{
				"x": 1.1262315112,
				"y": 4.0254909077,
				"z": -2.2200565286,
				"element": "H" 
			},
			{
				"x": -0.2479682686,
				"y": 2.6824276397,
				"z": -0.6523054726,
				"element": "H" 
			},
			{
				"x": -1.8686918702,
				"y": 1.2523798125,
				"z": 1.167399197,
				"element": "H" 
			},
			{
				"x": -5.3529846118,
				"y": 1.179454461,
				"z": 1.3890770909,
				"element": "H" 
			},
			{
				"x": -3.9616030006,
				"y": 2.2264481985,
				"z": 1.7344404693,
				"element": "H" 
			},
			{
				"x": -5.0178986814,
				"y": 2.5492172412,
				"z": 0.3436140267,
				"element": "H" 
			},
			{
				"x": -5.8219816713,
				"y": -0.1893785264,
				"z": -1.9914596629,
				"element": "H" 
			},
			{
				"x": -1.4582555181,
				"y": -1.4128992984,
				"z": -2.1811876318,
				"element": "H" 
			}
		],
		 "valence_orbital": [ 
			{
				"type": "occ",
				"energy": -0.27774,
				"method": "rhf"
			},
			{
				"type": "occ",
				"energy": -0.25538,
				"method": "rhf"
			},
			{
				"type": "occ",
				"energy": -0.25155,
				"method": "rhf"
			},
			{
				"type": "occ",
				"energy": -0.23468,
				"method": "rhf"
			},
			{
				"type": "occ",
				"energy": -0.23095,
				"method": "rhf"
			},
			{
				"type": "unocc",
				"energy": -0.04813,
				"method": "rhf"
			},
			{
				"type": "unocc",
				"energy": -0.0411,
				"method": "rhf"
			},
			{
				"type": "unocc",
				"energy": -0.02627,
				"method": "rhf"
			},
			{
				"type": "unocc",
				"energy": -0.01948,
				"method": "rhf"
			},
			{
				"type": "unocc",
				"energy": -0.01146,
				"method": "rhf"
			}
		],
		"cosmo_sigma_profile": { 
			"-0.025": 0.0,
			"-0.024": 0.0,
			"-0.023": 0.0,
			"-0.022": 0.0,
			"-0.021": 0.0,
			"-0.02": 0.0,
			"-0.019": 0.0,
			"-0.018": 0.0,
			"-0.017": 0.0,
			"-0.016": 0.0,
			"-0.015": 0.122828160895,
			"-0.014": 1.05551152983,
			"-0.013": 1.52368286728,
			"-0.012": 1.20962897297,
			"-0.011": 0.87225103012,
			"-0.01": 2.66852285163,
			"-0.009": 3.80013784055,
			"-0.008": 6.13272445439,
			"-0.007": 12.008693574,
			"-0.006": 18.7023332534,
			"-0.005": 22.2695219877,
			"-0.004": 30.3677321918,
			"-0.003": 27.0164358649,
			"-0.002": 31.0779283757,
			"-0.001": 36.8413765146,
			"0.0": 44.1976070343,
			"0.001": 45.993148287,
			"0.002": 46.2215883736,
			"0.003": 31.6706906131,
			"0.004": 19.3389135702,
			"0.005": 9.05710428432,
			"0.006": 7.71950388502,
			"0.007": 7.42559604762,
			"0.008": 7.29984539591,
			"0.009": 12.8161438433,
			"0.01": 12.9653299232,
			"0.011": 1.68489942865,
			"0.012": 0.0,
			"0.013": 0.0,
			"0.014": 0.0,
			"0.015": 0.0,
			"0.016": 0.0,
			"0.017": 0.0,
			"0.018": 0.0,
			"0.019": 0.0,
			"0.02": 0.0,
			"0.021": 0.0,
			"0.022": 0.0,
			"0.023": 0.0,
			"0.024": 0.0,
			"0.025": 0.0
		}
	}
}
