{
	 "smiles": "CC1(C)CC2=C(C=C(N2C2=CC(Cl)=C(Cl)C=C2)C2=CC=CC=C2)C(=O)C1", 
	 "Tm": 441.15, 
	 "num_atms": 45, 
	 "gaussian": { 
		 "optdone": 1, 
		 "sigma_profile": "yes", 
		 "theory": "DFT", 
		 "functional": "B3LYP", 
		 "basiset": "6-31G**", 
		 "properties": { 
			 "R2extent": 11897.2507, 
			 "electric_dipole_moment_norm": 3.50584078503, 
			 "electric_quadrupole_moment_norm": 35.2452357995, 
			 "total_energy": -1900.16931015, 
			 "HOMO_LUMO_gap": 0.1632, 
			 "cosmo_polarized_energy": -15.29, 
			 "cosmo_cavitation_energy": 50.69, 
			 "cosmo_dispersion_energy": -33.66, 
			 "cosmo_repulsion_energy": 2.58, 
			 "cosmo_total_nonelectrostatic_energy": 19.61, 
			 "SMD_solvation_energy": 7.89 
		},
		"coords": [
			{
				"x": -4.1807706294,
				"y": -1.9638625353,
				"z": 3.3115791466,
				"element": "C" 
			},
			{
				"x": -2.8062522947,
				"y": -1.295629239,
				"z": 3.1364638187,
				"element": "C" 
			},
			{
				"x": -1.7051320963,
				"y": -2.3600947777,
				"z": 3.3187418747,
				"element": "C" 
			},
			{
				"x": -2.7260371974,
				"y": -0.6786612305,
				"z": 1.7093201298,
				"element": "C" 
			},
			{
				"x": -1.5681782909,
				"y": 0.2634676598,
				"z": 1.5996860421,
				"element": "C" 
			},
			{
				"x": -0.9343064712,
				"y": 0.8791652253,
				"z": 2.6668508734,
				"element": "C" 
			},
			{
				"x": 0.1483338629,
				"y": 1.6478604266,
				"z": 2.1493028245,
				"element": "C" 
			},
			{
				"x": 0.1570764023,
				"y": 1.5002877377,
				"z": 0.7814057588,
				"element": "C" 
			},
			{
				"x": -0.9160815008,
				"y": 0.642690664,
				"z": 0.4434040503,
				"element": "N" 
			},
			{
				"x": -1.1808193271,
				"y": 0.0902808773,
				"z": -0.8439809867,
				"element": "C" 
			},
			{
				"x": -0.182351285,
				"y": -0.6198421907,
				"z": -1.5153045664,
				"element": "C" 
			},
			{
				"x": -0.437940439,
				"y": -1.1707671251,
				"z": -2.7709450675,
				"element": "C" 
			},
			{
				"x": 0.839969485,
				"y": -2.0461692912,
				"z": -3.5724074359,
				"element": "Cl" 
			},
			{
				"x": -1.7046081396,
				"y": -1.026147835,
				"z": -3.3565212792,
				"element": "C" 
			},
			{
				"x": -2.0705345772,
				"y": -1.7039349468,
				"z": -4.9211582372,
				"element": "Cl" 
			},
			{
				"x": -2.6999381885,
				"y": -0.3215896743,
				"z": -2.6760099801,
				"element": "C" 
			},
			{
				"x": -2.4415300715,
				"y": 0.2416626173,
				"z": -1.4297312875,
				"element": "C" 
			},
			{
				"x": 1.0439937004,
				"y": 2.1449180618,
				"z": -0.1995902788,
				"element": "C" 
			},
			{
				"x": 2.4124628791,
				"y": 2.2735761424,
				"z": 0.1001352253,
				"element": "C" 
			},
			{
				"x": 3.2765853638,
				"y": 2.9306750272,
				"z": -0.7737162345,
				"element": "C" 
			},
			{
				"x": 2.7953283136,
				"y": 3.4619020687,
				"z": -1.9719156548,
				"element": "C" 
			},
			{
				"x": 1.4396329841,
				"y": 3.3389738772,
				"z": -2.2829133037,
				"element": "C" 
			},
			{
				"x": 0.5704224196,
				"y": 2.6928968462,
				"z": -1.4055737805,
				"element": "C" 
			},
			{
				"x": -1.376736055,
				"y": 0.6797706429,
				"z": 4.0464666068,
				"element": "C" 
			},
			{
				"x": -0.8132421909,
				"y": 1.1714333692,
				"z": 5.0154318161,
				"element": "O" 
			},
			{
				"x": -2.6411007316,
				"y": -0.173030109,
				"z": 4.1933127906,
				"element": "C" 
			},
			{
				"x": -4.3332585774,
				"y": -2.7518339725,
				"z": 2.5649198059,
				"element": "H" 
			},
			{
				"x": -4.9952882269,
				"y": -1.2382376594,
				"z": 3.2068677174,
				"element": "H" 
			},
			{
				"x": -4.2672154696,
				"y": -2.4231710124,
				"z": 4.3019901277,
				"element": "H" 
			},
			{
				"x": -0.7043005896,
				"y": -1.94254271,
				"z": 3.1767048698,
				"element": "H" 
			},
			{
				"x": -1.8340926241,
				"y": -3.1791568737,
				"z": 2.6022544201,
				"element": "H" 
			},
			{
				"x": -1.7484374769,
				"y": -2.7879493668,
				"z": 4.3258924588,
				"element": "H" 
			},
			{
				"x": -2.6610594193,
				"y": -1.4778116607,
				"z": 0.9611039003,
				"element": "H" 
			},
			{
				"x": -3.666263713,
				"y": -0.1447188215,
				"z": 1.5031530049,
				"element": "H" 
			},
			{
				"x": 0.8099603658,
				"y": 2.2800520357,
				"z": 2.7229708802,
				"element": "H" 
			},
			{
				"x": 0.7946130464,
				"y": -0.7438085539,
				"z": -1.0645650397,
				"element": "H" 
			},
			{
				"x": -3.674243282,
				"y": -0.2090301084,
				"z": -3.1379612994,
				"element": "H" 
			},
			{
				"x": -3.2112305421,
				"y": 0.8081055829,
				"z": -0.9173411057,
				"element": "H" 
			},
			{
				"x": 2.7933800892,
				"y": 1.8429962189,
				"z": 1.0212468058,
				"element": "H" 
			},
			{
				"x": 4.3298158533,
				"y": 3.0179310431,
				"z": -0.52258823,
				"element": "H" 
			},
			{
				"x": 3.4697933579,
				"y": 3.9672443325,
				"z": -2.6568118984,
				"element": "H" 
			},
			{
				"x": 1.053370381,
				"y": 3.7572008952,
				"z": -3.2080753184,
				"element": "H" 
			},
			{
				"x": -0.4850382497,
				"y": 2.6294576846,
				"z": -1.6490688053,
				"element": "H" 
			},
			{
				"x": -2.6514704555,
				"y": -0.5843043129,
				"z": 5.2075583638,
				"element": "H" 
			},
			{
				"x": -3.4971803923,
				"y": 0.5153449707,
				"z": 4.1238164777,
				"element": "H" 
			}
		],
		 "valence_orbital": [ 
			{
				"type": "occ",
				"energy": -0.26655,
				"method": "rhf"
			},
			{
				"type": "occ",
				"energy": -0.25558,
				"method": "rhf"
			},
			{
				"type": "occ",
				"energy": -0.24547,
				"method": "rhf"
			},
			{
				"type": "occ",
				"energy": -0.23032,
				"method": "rhf"
			},
			{
				"type": "occ",
				"energy": -0.20956,
				"method": "rhf"
			},
			{
				"type": "unocc",
				"energy": -0.04636,
				"method": "rhf"
			},
			{
				"type": "unocc",
				"energy": -0.04212,
				"method": "rhf"
			},
			{
				"type": "unocc",
				"energy": -0.02534,
				"method": "rhf"
			},
			{
				"type": "unocc",
				"energy": -0.02069,
				"method": "rhf"
			},
			{
				"type": "unocc",
				"energy": -0.00846,
				"method": "rhf"
			}
		],
		"cosmo_sigma_profile": { 
			"-0.025": 0.0,
			"-0.024": 0.0,
			"-0.023": 0.0,
			"-0.022": 0.0,
			"-0.021": 0.0,
			"-0.02": 0.0,
			"-0.019": 0.0,
			"-0.018": 0.0,
			"-0.017": 0.0,
			"-0.016": 0.0,
			"-0.015": 0.0,
			"-0.014": 0.0,
			"-0.013": 0.0,
			"-0.012": 0.0,
			"-0.011": 0.0,
			"-0.01": 0.0,
			"-0.009": 0.472361148888,
			"-0.008": 4.52829979522,
			"-0.007": 6.72490173222,
			"-0.006": 11.1975407748,
			"-0.005": 22.7586616295,
			"-0.004": 31.9394454294,
			"-0.003": 43.5485497264,
			"-0.002": 36.0520436301,
			"-0.001": 40.3923382979,
			"0.0": 44.9718967914,
			"0.001": 38.6696093452,
			"0.002": 25.1492943283,
			"0.003": 28.7077282492,
			"0.004": 29.2941571048,
			"0.005": 16.7660447809,
			"0.006": 5.74214237168,
			"0.007": 1.87839981438,
			"0.008": 1.34095685909,
			"0.009": 1.92923654176,
			"0.01": 1.85618296979,
			"0.011": 1.75986911482,
			"0.012": 2.89812546266,
			"0.013": 4.97805117642,
			"0.014": 3.10877212905,
			"0.015": 0.411483907261,
			"0.016": 0.0,
			"0.017": 0.0,
			"0.018": 0.0,
			"0.019": 0.0,
			"0.02": 0.0,
			"0.021": 0.0,
			"0.022": 0.0,
			"0.023": 0.0,
			"0.024": 0.0,
			"0.025": 0.0
		}
	}
}
