{
	 "smiles": "OC(=O)C1CCN(CC1)S(=O)(=O)C1=C(F)C=CC(F)=C1", 
	 "Tm": 423.15, 
	 "num_atms": 33, 
	 "gaussian": { 
		 "optdone": 1, 
		 "sigma_profile": "yes", 
		 "theory": "DFT", 
		 "functional": "B3LYP", 
		 "basiset": "6-31G**", 
		 "properties": { 
			 "R2extent": 7627.1113, 
			 "electric_dipole_moment_norm": 8.29645563177, 
			 "electric_quadrupole_moment_norm": 24.1003787765, 
			 "total_energy": -1418.5413496, 
			 "HOMO_LUMO_gap": 0.19196, 
			 "cosmo_polarized_energy": -19.42, 
			 "cosmo_cavitation_energy": 36.26, 
			 "cosmo_dispersion_energy": -26.42, 
			 "cosmo_repulsion_energy": 1.89, 
			 "cosmo_total_nonelectrostatic_energy": 11.74, 
			 "SMD_solvation_energy": 6.18 
		},
		"coords": [
			{
				"x": 2.5469703084,
				"y": 2.3555861396,
				"z": -1.9840231411,
				"element": "O" 
			},
			{
				"x": 2.6097963308,
				"y": 1.3273913368,
				"z": -2.8489096897,
				"element": "C" 
			},
			{
				"x": 3.526686379,
				"y": 1.253477658,
				"z": -3.6359320648,
				"element": "O" 
			},
			{
				"x": 1.5134330224,
				"y": 0.2395873558,
				"z": -2.863753682,
				"element": "C" 
			},
			{
				"x": 0.1880031144,
				"y": 0.5186973608,
				"z": -2.1076419413,
				"element": "C" 
			},
			{
				"x": 0.0793197547,
				"y": -0.3003594206,
				"z": -0.8081207446,
				"element": "C" 
			},
			{
				"x": 1.3783997551,
				"y": -0.4448394845,
				"z": -0.1223610099,
				"element": "N" 
			},
			{
				"x": 2.4407128785,
				"y": -1.1373907378,
				"z": -0.901317964,
				"element": "C" 
			},
			{
				"x": 2.1233155924,
				"y": -1.1062022495,
				"z": -2.4086966726,
				"element": "C" 
			},
			{
				"x": 1.8151513931,
				"y": 0.7428189897,
				"z": 0.9666455826,
				"element": "S" 
			},
			{
				"x": 1.2239301079,
				"y": 2.0268968524,
				"z": 0.5404504082,
				"element": "O" 
			},
			{
				"x": 3.255287113,
				"y": 0.6247840918,
				"z": 1.1961163757,
				"element": "O" 
			},
			{
				"x": 1.0163107666,
				"y": 0.2896543938,
				"z": 2.5191562561,
				"element": "C" 
			},
			{
				"x": -0.3357272326,
				"y": 0.5172970875,
				"z": 2.7885174777,
				"element": "C" 
			},
			{
				"x": -1.1408609307,
				"y": 1.0636515871,
				"z": 1.8567587115,
				"element": "F" 
			},
			{
				"x": -0.8911237998,
				"y": 0.1788599269,
				"z": 4.0172614261,
				"element": "C" 
			},
			{
				"x": -0.0889503649,
				"y": -0.3938780548,
				"z": 5.0021757845,
				"element": "C" 
			},
			{
				"x": 1.2577218971,
				"y": -0.6141487922,
				"z": 4.7294799407,
				"element": "C" 
			},
			{
				"x": 2.0362176314,
				"y": -1.1620087386,
				"z": 5.6793201549,
				"element": "F" 
			},
			{
				"x": 1.8251970471,
				"y": -0.2787552695,
				"z": 3.5074539921,
				"element": "C" 
			},
			{
				"x": 1.8797348166,
				"y": 2.2644406966,
				"z": -1.2772541805,
				"element": "H" 
			},
			{
				"x": 1.2980308067,
				"y": 0.144160063,
				"z": -3.9319570107,
				"element": "H" 
			},
			{
				"x": 0.0747810952,
				"y": 1.5835496212,
				"z": -1.8862949523,
				"element": "H" 
			},
			{
				"x": -0.6585972441,
				"y": 0.2543965516,
				"z": -2.7509819073,
				"element": "H" 
			},
			{
				"x": -0.2681346577,
				"y": -1.3171562577,
				"z": -1.0205988988,
				"element": "H" 
			},
			{
				"x": -0.6429133375,
				"y": 0.1424924822,
				"z": -0.1240209096,
				"element": "H" 
			},
			{
				"x": 3.3927441877,
				"y": -0.6449065751,
				"z": -0.6996128297,
				"element": "H" 
			},
			{
				"x": 2.5246954076,
				"y": -2.1736573619,
				"z": -0.552442124,
				"element": "H" 
			},
			{
				"x": 1.4217445773,
				"y": -1.9088748889,
				"z": -2.6623578925,
				"element": "H" 
			},
			{
				"x": 3.0427529003,
				"y": -1.2949784414,
				"z": -2.9688482299,
				"element": "H" 
			},
			{
				"x": -1.9442291763,
				"y": 0.3735790651,
				"z": 4.1867005895,
				"element": "H" 
			},
			{
				"x": -0.4928503319,
				"y": -0.6654137569,
				"z": 5.9709558153,
				"element": "H" 
			},
			{
				"x": 2.8809501919,
				"y": -0.4369512307,
				"z": 3.3232333304,
				"element": "H" 
			}
		],
		 "valence_orbital": [ 
			{
				"type": "occ",
				"energy": -0.30311,
				"method": "rhf"
			},
			{
				"type": "occ",
				"energy": -0.29608,
				"method": "rhf"
			},
			{
				"type": "occ",
				"energy": -0.27319,
				"method": "rhf"
			},
			{
				"type": "occ",
				"energy": -0.25977,
				"method": "rhf"
			},
			{
				"type": "occ",
				"energy": -0.25396,
				"method": "rhf"
			},
			{
				"type": "unocc",
				"energy": -0.062,
				"method": "rhf"
			},
			{
				"type": "unocc",
				"energy": -0.03005,
				"method": "rhf"
			},
			{
				"type": "unocc",
				"energy": 0.01486,
				"method": "rhf"
			},
			{
				"type": "unocc",
				"energy": 0.02729,
				"method": "rhf"
			},
			{
				"type": "unocc",
				"energy": 0.05417,
				"method": "rhf"
			}
		],
		"cosmo_sigma_profile": { 
			"-0.025": 0.0,
			"-0.024": 0.0,
			"-0.023": 0.0,
			"-0.022": 0.0,
			"-0.021": 0.0,
			"-0.02": 0.0,
			"-0.019": 0.0,
			"-0.018": 0.0,
			"-0.017": 0.0,
			"-0.016": 0.0,
			"-0.015": 0.0,
			"-0.014": 0.0,
			"-0.013": 0.0,
			"-0.012": 0.0,
			"-0.011": 0.0,
			"-0.01": 0.113809005151,
			"-0.009": 3.79673483982,
			"-0.008": 5.34162424091,
			"-0.007": 7.59954735979,
			"-0.006": 14.8585137324,
			"-0.005": 28.5587673368,
			"-0.004": 27.1841412112,
			"-0.003": 22.6975257972,
			"-0.002": 23.5612835847,
			"-0.001": 28.6033549215,
			"0.0": 18.5826977645,
			"0.001": 13.5735807249,
			"0.002": 12.4941976056,
			"0.003": 15.910077724,
			"0.004": 12.0956701559,
			"0.005": 5.61095663682,
			"0.006": 5.28245117901,
			"0.007": 5.54596592327,
			"0.008": 6.38944861267,
			"0.009": 7.74497617219,
			"0.01": 7.22370722276,
			"0.011": 5.4089852563,
			"0.012": 5.58808880348,
			"0.013": 3.89371816666,
			"0.014": 0.858492560326,
			"0.015": 0.0,
			"0.016": 0.0,
			"0.017": 0.0,
			"0.018": 0.0,
			"0.019": 0.0,
			"0.02": 0.0,
			"0.021": 0.0,
			"0.022": 0.0,
			"0.023": 0.0,
			"0.024": 0.0,
			"0.025": 0.0
		}
	}
}
