{
	 "smiles": "NC1=CC=CC2=C1C(=O)C1=CC=CC(N)=C1C2=O", 
	 "Tm": 592.15, 
	 "num_atms": 28, 
	 "gaussian": { 
		 "optdone": 1, 
		 "sigma_profile": "yes", 
		 "theory": "DFT", 
		 "functional": "B3LYP", 
		 "basiset": "6-31G**", 
		 "properties": { 
			 "R2extent": 4882.6591, 
			 "electric_dipole_moment_norm": 0.0, 
			 "electric_quadrupole_moment_norm": 28.1065257389, 
			 "total_energy": -799.510612964, 
			 "HOMO_LUMO_gap": 0.1141, 
			 "cosmo_polarized_energy": -13.81, 
			 "cosmo_cavitation_energy": 31.08, 
			 "cosmo_dispersion_energy": -23.98, 
			 "cosmo_repulsion_energy": 1.77, 
			 "cosmo_total_nonelectrostatic_energy": 8.87, 
			 "SMD_solvation_energy": 5.3 
		},
		"coords": [
			{
				"x": 4.1506158751,
				"y": -0.7374704652,
				"z": -1.2445461496,
				"element": "N" 
			},
			{
				"x": 3.6492017456,
				"y": -0.0454459308,
				"z": -0.1909853738,
				"element": "C" 
			},
			{
				"x": 4.4824459079,
				"y": 0.2643271475,
				"z": 0.9131737019,
				"element": "C" 
			},
			{
				"x": 3.9953459393,
				"y": 0.9683632754,
				"z": 1.9983270757,
				"element": "C" 
			},
			{
				"x": 2.6617622588,
				"y": 1.3964514228,
				"z": 2.0375725452,
				"element": "C" 
			},
			{
				"x": 1.8193783633,
				"y": 1.1082839992,
				"z": 0.97030184,
				"element": "C" 
			},
			{
				"x": 2.2863425458,
				"y": 0.3876617784,
				"z": -0.1592731872,
				"element": "C" 
			},
			{
				"x": 1.3791534458,
				"y": 0.096237487,
				"z": -1.2710315866,
				"element": "C" 
			},
			{
				"x": 1.7411827889,
				"y": -0.5315043265,
				"z": -2.2812818406,
				"element": "O" 
			},
			{
				"x": -0.0356664221,
				"y": 0.5745665309,
				"z": -1.181978214,
				"element": "C" 
			},
			{
				"x": -0.8780453229,
				"y": 0.2864036841,
				"z": -2.2492540285,
				"element": "C" 
			},
			{
				"x": -2.2116294974,
				"y": 0.7144890044,
				"z": -2.210012167,
				"element": "C" 
			},
			{
				"x": -2.6987362374,
				"y": 1.4185145756,
				"z": -1.1248553431,
				"element": "C" 
			},
			{
				"x": -1.8654989528,
				"y": 1.7282810798,
				"z": -0.0206892733,
				"element": "C" 
			},
			{
				"x": -2.3669336927,
				"y": 2.4202759352,
				"z": 1.0328810499,
				"element": "N" 
			},
			{
				"x": -0.5026349216,
				"y": 1.2951827308,
				"z": -0.0524000828,
				"element": "C" 
			},
			{
				"x": 0.4045599023,
				"y": 1.5866171567,
				"z": 1.0593543728,
				"element": "C" 
			},
			{
				"x": 0.0425402188,
				"y": 2.2143656199,
				"z": 2.069603793,
				"element": "O" 
			},
			{
				"x": 3.5230600672,
				"y": -0.9404832609,
				"z": -2.0149267066,
				"element": "H" 
			},
			{
				"x": 5.1119533413,
				"y": -1.0332194454,
				"z": -1.2449891061,
				"element": "H" 
			},
			{
				"x": 5.5186548408,
				"y": -0.0639580194,
				"z": 0.8911556948,
				"element": "H" 
			},
			{
				"x": 4.6582004165,
				"y": 1.1908855527,
				"z": 2.8299728374,
				"element": "H" 
			},
			{
				"x": 2.2644910487,
				"y": 1.9489206907,
				"z": 2.8801409359,
				"element": "H" 
			},
			{
				"x": -0.4807693074,
				"y": -0.2660597187,
				"z": -3.0918239084,
				"element": "H" 
			},
			{
				"x": -2.8744799013,
				"y": 0.4919707671,
				"z": -3.0416622332,
				"element": "H" 
			},
			{
				"x": -3.7349474945,
				"y": 1.7467923849,
				"z": -1.1028379091,
				"element": "H" 
			},
			{
				"x": -3.328261704,
				"y": 2.7160562846,
				"z": 1.0332969694,
				"element": "H" 
			},
			{
				"x": -1.7393852515,
				"y": 2.6232940594,
				"z": 1.8032662939,
				"element": "H" 
			}
		],
		 "valence_orbital": [ 
			{
				"type": "occ",
				"energy": -0.25789,
				"method": "rhf"
			},
			{
				"type": "occ",
				"energy": -0.25521,
				"method": "rhf"
			},
			{
				"type": "occ",
				"energy": -0.24627,
				"method": "rhf"
			},
			{
				"type": "occ",
				"energy": -0.2091,
				"method": "rhf"
			},
			{
				"type": "occ",
				"energy": -0.20383,
				"method": "rhf"
			},
			{
				"type": "unocc",
				"energy": -0.08973,
				"method": "rhf"
			},
			{
				"type": "unocc",
				"energy": -0.03022,
				"method": "rhf"
			},
			{
				"type": "unocc",
				"energy": -0.01033,
				"method": "rhf"
			},
			{
				"type": "unocc",
				"energy": 0.01926,
				"method": "rhf"
			},
			{
				"type": "unocc",
				"energy": 0.06814,
				"method": "rhf"
			}
		],
		"cosmo_sigma_profile": { 
			"-0.025": 0.0,
			"-0.024": 0.0,
			"-0.023": 0.0,
			"-0.022": 0.0,
			"-0.021": 0.0,
			"-0.02": 0.0,
			"-0.019": 0.0,
			"-0.018": 0.0,
			"-0.017": 0.0,
			"-0.016": 0.0,
			"-0.015": 0.0,
			"-0.014": 1.6288902817,
			"-0.013": 2.96517780406,
			"-0.012": 3.15250976193,
			"-0.011": 2.45467968603,
			"-0.01": 3.08428380045,
			"-0.009": 2.50552679765,
			"-0.008": 5.9255018855,
			"-0.007": 8.09709312351,
			"-0.006": 10.2982453567,
			"-0.005": 11.5154507092,
			"-0.004": 12.4207876873,
			"-0.003": 10.1527968239,
			"-0.002": 13.2209774773,
			"-0.001": 13.8029928454,
			"0.0": 13.6305464663,
			"0.001": 18.2533091193,
			"0.002": 28.6274729898,
			"0.003": 32.2458437029,
			"0.004": 23.0191846118,
			"0.005": 7.86453235085,
			"0.006": 5.5219483773,
			"0.007": 2.18584641967,
			"0.008": 4.23000977635,
			"0.009": 3.21551835548,
			"0.01": 3.56245721845,
			"0.011": 4.24658104375,
			"0.012": 2.0617677853,
			"0.013": 0.0,
			"0.014": 0.0,
			"0.015": 0.0,
			"0.016": 0.0,
			"0.017": 0.0,
			"0.018": 0.0,
			"0.019": 0.0,
			"0.02": 0.0,
			"0.021": 0.0,
			"0.022": 0.0,
			"0.023": 0.0,
			"0.024": 0.0,
			"0.025": 0.0
		}
	}
}
