{
	 "smiles": "CC1=C(SC(=N1)C(=NNC1=CC=CC=C1[N+]([O-])=O)C#N)N=NC1=CC=CC=C1", 
	 "Tm": 483.15, 
	 "num_atms": 41, 
	 "gaussian": { 
		 "optdone": 1, 
		 "sigma_profile": "yes", 
		 "theory": "DFT", 
		 "functional": "B3LYP", 
		 "basiset": "6-31G**", 
		 "properties": { 
			 "R2extent": 19186.5483, 
			 "electric_dipole_moment_norm": 3.48017102597, 
			 "electric_quadrupole_moment_norm": 49.7340884613, 
			 "total_energy": -1625.42700326, 
			 "HOMO_LUMO_gap": 0.10685, 
			 "cosmo_polarized_energy": -21.79, 
			 "cosmo_cavitation_energy": 51.8, 
			 "cosmo_dispersion_energy": -35.57, 
			 "cosmo_repulsion_energy": 2.64, 
			 "cosmo_total_nonelectrostatic_energy": 18.86, 
			 "SMD_solvation_energy": 9.06 
		},
		"coords": [
			{
				"x": -0.8815398125,
				"y": 0.3047123348,
				"z": -3.065936902,
				"element": "C" 
			},
			{
				"x": 0.1743493067,
				"y": 0.2685672883,
				"z": -2.0049872509,
				"element": "C" 
			},
			{
				"x": 1.4517942706,
				"y": 0.8341874683,
				"z": -2.0866147925,
				"element": "C" 
			},
			{
				"x": 2.3345299123,
				"y": 0.53411703,
				"z": -0.6035203253,
				"element": "S" 
			},
			{
				"x": 0.9319290675,
				"y": -0.317004996,
				"z": -0.000147637,
				"element": "C" 
			},
			{
				"x": -0.0877767531,
				"y": -0.3635687028,
				"z": -0.8293801063,
				"element": "N" 
			},
			{
				"x": 0.9292517306,
				"y": -0.9197504932,
				"z": 1.3288968849,
				"element": "C" 
			},
			{
				"x": -0.1145694705,
				"y": -1.5930687514,
				"z": 1.7365143871,
				"element": "N" 
			},
			{
				"x": -0.1222683909,
				"y": -2.1168475175,
				"z": 2.9493379745,
				"element": "N" 
			},
			{
				"x": -1.2224171399,
				"y": -2.8345252627,
				"z": 3.4276876963,
				"element": "C" 
			},
			{
				"x": -1.487570822,
				"y": -2.777127504,
				"z": 4.80474137,
				"element": "C" 
			},
			{
				"x": -2.5972600382,
				"y": -3.4154424849,
				"z": 5.3481182835,
				"element": "C" 
			},
			{
				"x": -3.4922883818,
				"y": -4.0999267846,
				"z": 4.5217614448,
				"element": "C" 
			},
			{
				"x": -3.2407090112,
				"y": -4.1725907083,
				"z": 3.1554718342,
				"element": "C" 
			},
			{
				"x": -2.0998847626,
				"y": -3.5781355195,
				"z": 2.6158539794,
				"element": "C" 
			},
			{
				"x": -1.8173388978,
				"y": -3.8809858546,
				"z": 1.2022791386,
				"element": "N" 
			},
			{
				"x": -2.7801287549,
				"y": -3.9421466346,
				"z": 0.4407663464,
				"element": "O" 
			},
			{
				"x": -0.6533514383,
				"y": -4.126071424,
				"z": 0.8994816573,
				"element": "O" 
			},
			{
				"x": 2.0719865394,
				"y": -0.7563934551,
				"z": 2.1879702818,
				"element": "C" 
			},
			{
				"x": 2.9235206627,
				"y": -0.6901280184,
				"z": 2.9802577156,
				"element": "N" 
			},
			{
				"x": 2.127245366,
				"y": 1.548257263,
				"z": -3.0518548046,
				"element": "N" 
			},
			{
				"x": 1.4801775538,
				"y": 1.762465365,
				"z": -4.1258569546,
				"element": "N" 
			},
			{
				"x": 2.1945319261,
				"y": 2.4954688096,
				"z": -5.0999479573,
				"element": "C" 
			},
			{
				"x": 3.5105643131,
				"y": 2.9700587353,
				"z": -4.9458897392,
				"element": "C" 
			},
			{
				"x": 4.1093416212,
				"y": 3.6814704433,
				"z": -5.9783654489,
				"element": "C" 
			},
			{
				"x": 3.4126226384,
				"y": 3.9284635755,
				"z": -7.168834314,
				"element": "C" 
			},
			{
				"x": 2.1069728073,
				"y": 3.4584730128,
				"z": -7.3240517647,
				"element": "C" 
			},
			{
				"x": 1.4996230178,
				"y": 2.7443428331,
				"z": -6.2934266859,
				"element": "C" 
			},
			{
				"x": -1.7652912176,
				"y": -0.2255850866,
				"z": -2.7068752433,
				"element": "H" 
			},
			{
				"x": -0.5226647087,
				"y": -0.1567235827,
				"z": -3.9909322178,
				"element": "H" 
			},
			{
				"x": -1.1440492053,
				"y": 1.3352663991,
				"z": -3.3240024422,
				"element": "H" 
			},
			{
				"x": 0.6436129324,
				"y": -1.9292897548,
				"z": 3.5970620378,
				"element": "H" 
			},
			{
				"x": -0.8258816799,
				"y": -2.1955663833,
				"z": 5.4406100336,
				"element": "H" 
			},
			{
				"x": -2.7762228323,
				"y": -3.3540760716,
				"z": 6.4169384967,
				"element": "H" 
			},
			{
				"x": -4.3713818066,
				"y": -4.5804101452,
				"z": 4.9373752884,
				"element": "H" 
			},
			{
				"x": -3.8997299829,
				"y": -4.7111320185,
				"z": 2.4849500241,
				"element": "H" 
			},
			{
				"x": 4.0349037299,
				"y": 2.7697833694,
				"z": -4.018730516,
				"element": "H" 
			},
			{
				"x": 5.1251521774,
				"y": 4.0482656508,
				"z": -5.8610312073,
				"element": "H" 
			},
			{
				"x": 3.8894192876,
				"y": 4.4853988069,
				"z": -7.9702360796,
				"element": "H" 
			},
			{
				"x": 1.5643527867,
				"y": 3.64787966,
				"z": -8.2454274617,
				"element": "H" 
			},
			{
				"x": 0.4863434596,
				"y": 2.366519109,
				"z": -6.3857250239,
				"element": "H" 
			}
		],
		 "valence_orbital": [ 
			{
				"type": "occ",
				"energy": -0.27447,
				"method": "rhf"
			},
			{
				"type": "occ",
				"energy": -0.25818,
				"method": "rhf"
			},
			{
				"type": "occ",
				"energy": -0.25034,
				"method": "rhf"
			},
			{
				"type": "occ",
				"energy": -0.23219,
				"method": "rhf"
			},
			{
				"type": "occ",
				"energy": -0.21293,
				"method": "rhf"
			},
			{
				"type": "unocc",
				"energy": -0.10608,
				"method": "rhf"
			},
			{
				"type": "unocc",
				"energy": -0.08324,
				"method": "rhf"
			},
			{
				"type": "unocc",
				"energy": -0.06731,
				"method": "rhf"
			},
			{
				"type": "unocc",
				"energy": -0.03112,
				"method": "rhf"
			},
			{
				"type": "unocc",
				"energy": -0.01568,
				"method": "rhf"
			}
		],
		"cosmo_sigma_profile": { 
			"-0.025": 0.0,
			"-0.024": 0.0,
			"-0.023": 0.0,
			"-0.022": 0.0,
			"-0.021": 0.0,
			"-0.02": 0.0,
			"-0.019": 0.0,
			"-0.018": 0.0,
			"-0.017": 0.0456407676939,
			"-0.016": 1.259432449,
			"-0.015": 1.19892376553,
			"-0.014": 1.1655126053,
			"-0.013": 1.17387761454,
			"-0.012": 1.18574334487,
			"-0.011": 1.52087710752,
			"-0.01": 2.13119708939,
			"-0.009": 2.17354777242,
			"-0.008": 6.40508456717,
			"-0.007": 12.0764032351,
			"-0.006": 19.8348802732,
			"-0.005": 23.6316789242,
			"-0.004": 26.2712622946,
			"-0.003": 24.5576590297,
			"-0.002": 28.0989547811,
			"-0.001": 37.8820577071,
			"0.0": 43.0661059824,
			"0.001": 36.5870937151,
			"0.002": 33.4324338396,
			"0.003": 23.8326243624,
			"0.004": 23.8571566889,
			"0.005": 14.2686487192,
			"0.006": 9.95101503838,
			"0.007": 14.4184880255,
			"0.008": 11.5233551631,
			"0.009": 7.32700055177,
			"0.01": 6.0322238244,
			"0.011": 3.21048438085,
			"0.012": 1.04134748104,
			"0.013": 0.915018735238,
			"0.014": 0.631020095868,
			"0.015": 0.0,
			"0.016": 0.0,
			"0.017": 0.0,
			"0.018": 0.0,
			"0.019": 0.0,
			"0.02": 0.0,
			"0.021": 0.0,
			"0.022": 0.0,
			"0.023": 0.0,
			"0.024": 0.0,
			"0.025": 0.0
		}
	}
}
