{
	 "smiles": "CCOC(=O)C1=CC2=CC(OCC3=CC=CC=C3)=CC=C2N1", 
	 "Tm": 436.15, 
	 "num_atms": 39, 
	 "gaussian": { 
		 "optdone": 1, 
		 "sigma_profile": "yes", 
		 "theory": "DFT", 
		 "functional": "B3LYP", 
		 "basiset": "6-31G**", 
		 "properties": { 
			 "R2extent": 10111.9225, 
			 "electric_dipole_moment_norm": 1.69248296299, 
			 "electric_quadrupole_moment_norm": 7.93035988654, 
			 "total_energy": -976.602910419, 
			 "HOMO_LUMO_gap": 0.15884, 
			 "cosmo_polarized_energy": -13.1, 
			 "cosmo_cavitation_energy": 43.76, 
			 "cosmo_dispersion_energy": -31.08, 
			 "cosmo_repulsion_energy": 2.41, 
			 "cosmo_total_nonelectrostatic_energy": 15.09, 
			 "SMD_solvation_energy": 8.12 
		},
		"coords": [
			{
				"x": -0.4018168556,
				"y": -6.60847391,
				"z": 0.0727708627,
				"element": "C" 
			},
			{
				"x": -1.6782307225,
				"y": -5.7927070897,
				"z": -0.0036630096,
				"element": "C" 
			},
			{
				"x": -1.3114178028,
				"y": -4.4012203834,
				"z": 0.1309224348,
				"element": "O" 
			},
			{
				"x": -2.3319717771,
				"y": -3.5212286668,
				"z": 0.0857790056,
				"element": "C" 
			},
			{
				"x": -3.5038220335,
				"y": -3.8351556601,
				"z": -0.0569384965,
				"element": "O" 
			},
			{
				"x": -1.8851796428,
				"y": -2.1348609432,
				"z": 0.2271254341,
				"element": "C" 
			},
			{
				"x": -0.6372852993,
				"y": -1.5659525284,
				"z": 0.3948156886,
				"element": "C" 
			},
			{
				"x": -0.8305469137,
				"y": -0.1536773203,
				"z": 0.4732335379,
				"element": "C" 
			},
			{
				"x": 0.0515045091,
				"y": 0.9383624429,
				"z": 0.6350400393,
				"element": "C" 
			},
			{
				"x": -0.4855026434,
				"y": 2.2166779885,
				"z": 0.6696815011,
				"element": "C" 
			},
			{
				"x": 0.2403942292,
				"y": 3.3735949857,
				"z": 0.8342029932,
				"element": "O" 
			},
			{
				"x": 1.6229105533,
				"y": 3.2782873765,
				"z": 1.1557153696,
				"element": "C" 
			},
			{
				"x": 2.52414596,
				"y": 2.9858806379,
				"z": -0.0302644897,
				"element": "C" 
			},
			{
				"x": 3.7490822562,
				"y": 2.3369289383,
				"z": 0.1641863059,
				"element": "C" 
			},
			{
				"x": 4.6158764912,
				"y": 2.1194526526,
				"z": -0.908245429,
				"element": "C" 
			},
			{
				"x": 4.2608044486,
				"y": 2.5424097197,
				"z": -2.1902045496,
				"element": "C" 
			},
			{
				"x": 3.0372108804,
				"y": 3.1851071234,
				"z": -2.3914837228,
				"element": "C" 
			},
			{
				"x": 2.1754167135,
				"y": 3.4094961799,
				"z": -1.3176340812,
				"element": "C" 
			},
			{
				"x": -1.8828131098,
				"y": 2.430602546,
				"z": 0.5363984764,
				"element": "C" 
			},
			{
				"x": -2.7632139613,
				"y": 1.3775153025,
				"z": 0.3720580854,
				"element": "C" 
			},
			{
				"x": -2.2302231474,
				"y": 0.0799684491,
				"z": 0.3439329559,
				"element": "C" 
			},
			{
				"x": -2.8429114328,
				"y": -1.1399007493,
				"z": 0.1969527978,
				"element": "N" 
			},
			{
				"x": -0.6356953156,
				"y": -7.6731176347,
				"z": -0.025491761,
				"element": "H" 
			},
			{
				"x": 0.1041878363,
				"y": -6.454065665,
				"z": 1.0300977587,
				"element": "H" 
			},
			{
				"x": 0.2876524472,
				"y": -6.3318746462,
				"z": -0.7300140215,
				"element": "H" 
			},
			{
				"x": -2.3811530302,
				"y": -6.0522544041,
				"z": 0.7944443901,
				"element": "H" 
			},
			{
				"x": -2.1986666703,
				"y": -5.9309540292,
				"z": -0.9568007134,
				"element": "H" 
			},
			{
				"x": 0.2947958349,
				"y": -2.108211361,
				"z": 0.4523435466,
				"element": "H" 
			},
			{
				"x": 1.1186234226,
				"y": 0.7668824881,
				"z": 0.7031196012,
				"element": "H" 
			},
			{
				"x": 1.8686256063,
				"y": 4.2617403206,
				"z": 1.5726898416,
				"element": "H" 
			},
			{
				"x": 1.7813773611,
				"y": 2.5367813238,
				"z": 1.9508121379,
				"element": "H" 
			},
			{
				"x": 4.0272773619,
				"y": 1.9982833294,
				"z": 1.1601142101,
				"element": "H" 
			},
			{
				"x": 5.5629057856,
				"y": 1.613234376,
				"z": -0.7433658787,
				"element": "H" 
			},
			{
				"x": 4.9308415883,
				"y": 2.3687566706,
				"z": -3.0273138453,
				"element": "H" 
			},
			{
				"x": 2.7529764087,
				"y": 3.5128380938,
				"z": -3.3875663369,
				"element": "H" 
			},
			{
				"x": 1.2220276954,
				"y": 3.9052275215,
				"z": -1.4709368687,
				"element": "H" 
			},
			{
				"x": -2.2401263204,
				"y": 3.4543103921,
				"z": 0.5729781093,
				"element": "H" 
			},
			{
				"x": -3.8298011282,
				"y": 1.5551727062,
				"z": 0.2725323865,
				"element": "H" 
			},
			{
				"x": -3.8252595832,
				"y": -1.3368565741,
				"z": 0.0810757339,
				"element": "H" 
			}
		],
		 "valence_orbital": [ 
			{
				"type": "occ",
				"energy": -0.27464,
				"method": "rhf"
			},
			{
				"type": "occ",
				"energy": -0.25058,
				"method": "rhf"
			},
			{
				"type": "occ",
				"energy": -0.24468,
				"method": "rhf"
			},
			{
				"type": "occ",
				"energy": -0.21176,
				"method": "rhf"
			},
			{
				"type": "occ",
				"energy": -0.20103,
				"method": "rhf"
			},
			{
				"type": "unocc",
				"energy": -0.04219,
				"method": "rhf"
			},
			{
				"type": "unocc",
				"energy": -0.0041,
				"method": "rhf"
			},
			{
				"type": "unocc",
				"energy": -0.00292,
				"method": "rhf"
			},
			{
				"type": "unocc",
				"energy": 0.02362,
				"method": "rhf"
			},
			{
				"type": "unocc",
				"energy": 0.0386,
				"method": "rhf"
			}
		],
		"cosmo_sigma_profile": { 
			"-0.025": 0.0,
			"-0.024": 0.0,
			"-0.023": 0.0,
			"-0.022": 0.0,
			"-0.021": 0.0,
			"-0.02": 0.0,
			"-0.019": 0.0,
			"-0.018": 0.0,
			"-0.017": 0.0,
			"-0.016": 0.0849536572286,
			"-0.015": 0.722517217247,
			"-0.014": 0.697163358255,
			"-0.013": 0.786373614437,
			"-0.012": 0.856252514663,
			"-0.011": 0.91994250597,
			"-0.01": 1.45969297035,
			"-0.009": 0.872211824131,
			"-0.008": 1.17294433786,
			"-0.007": 3.37486854139,
			"-0.006": 14.2860464336,
			"-0.005": 28.0819767157,
			"-0.004": 33.3730091955,
			"-0.003": 33.0307691989,
			"-0.002": 27.2534706467,
			"-0.001": 24.0570104308,
			"0.0": 25.065388814,
			"0.001": 18.7092740216,
			"0.002": 21.0296172208,
			"0.003": 26.1234156358,
			"0.004": 27.2573589364,
			"0.005": 28.4992780913,
			"0.006": 11.7905939488,
			"0.007": 4.36625259013,
			"0.008": 2.33259588441,
			"0.009": 2.72109149993,
			"0.01": 2.35978771231,
			"0.011": 3.06562114611,
			"0.012": 3.92416299061,
			"0.013": 0.440563410928,
			"0.014": 0.0,
			"0.015": 0.0,
			"0.016": 0.0,
			"0.017": 0.0,
			"0.018": 0.0,
			"0.019": 0.0,
			"0.02": 0.0,
			"0.021": 0.0,
			"0.022": 0.0,
			"0.023": 0.0,
			"0.024": 0.0,
			"0.025": 0.0
		}
	}
}
