{
	 "smiles": "O=C(NC1=C(CCC2=CC=CC=C2)C=CC=C1)C1=CC=CC=C1", 
	 "Tm": 439.15, 
	 "num_atms": 42, 
	 "gaussian": { 
		 "optdone": 1, 
		 "sigma_profile": "yes", 
		 "theory": "DFT", 
		 "functional": "B3LYP", 
		 "basiset": "6-31G**", 
		 "properties": { 
			 "R2extent": 7283.6136, 
			 "electric_dipole_moment_norm": 3.44686813934, 
			 "electric_quadrupole_moment_norm": 8.93041658939, 
			 "total_energy": -941.685098012, 
			 "HOMO_LUMO_gap": 0.20149, 
			 "cosmo_polarized_energy": -12.45, 
			 "cosmo_cavitation_energy": 44.41, 
			 "cosmo_dispersion_energy": -29.09, 
			 "cosmo_repulsion_energy": 2.23, 
			 "cosmo_total_nonelectrostatic_energy": 17.55, 
			 "SMD_solvation_energy": 7.3 
		},
		"coords": [
			{
				"x": 2.4370144325,
				"y": 1.2291632868,
				"z": 0.8666996489,
				"element": "O" 
			},
			{
				"x": 1.360614549,
				"y": 0.800877051,
				"z": 1.2785714012,
				"element": "C" 
			},
			{
				"x": 0.1869335902,
				"y": 1.4319962957,
				"z": 0.9098036661,
				"element": "N" 
			},
			{
				"x": -1.1421232833,
				"y": 0.8945138942,
				"z": 0.8291361112,
				"element": "C" 
			},
			{
				"x": -1.4661093037,
				"y": -0.166938357,
				"z": -0.0397246682,
				"element": "C" 
			},
			{
				"x": -0.4614738968,
				"y": -0.8078163185,
				"z": -0.9755692907,
				"element": "C" 
			},
			{
				"x": -0.5651624426,
				"y": -0.2973677672,
				"z": -2.4376573306,
				"element": "C" 
			},
			{
				"x": -0.3063470805,
				"y": 1.1861754994,
				"z": -2.6154566774,
				"element": "C" 
			},
			{
				"x": 0.9564950899,
				"y": 1.7366804121,
				"z": -2.3435543511,
				"element": "C" 
			},
			{
				"x": 1.1908557684,
				"y": 3.103491324,
				"z": -2.5017261967,
				"element": "C" 
			},
			{
				"x": 0.1669031767,
				"y": 3.9465299462,
				"z": -2.9427980065,
				"element": "C" 
			},
			{
				"x": -1.0912789087,
				"y": 3.4116015783,
				"z": -3.2196954116,
				"element": "C" 
			},
			{
				"x": -1.3228538944,
				"y": 2.0439196766,
				"z": -3.0542743892,
				"element": "C" 
			},
			{
				"x": -2.7979356841,
				"y": -0.6085185039,
				"z": -0.0621718328,
				"element": "C" 
			},
			{
				"x": -3.7866774422,
				"y": -0.008213966,
				"z": 0.7143422918,
				"element": "C" 
			},
			{
				"x": -3.4585019018,
				"y": 1.0648206103,
				"z": 1.5446920073,
				"element": "C" 
			},
			{
				"x": -2.1389380325,
				"y": 1.5066040381,
				"z": 1.6000071389,
				"element": "C" 
			},
			{
				"x": 1.3135715795,
				"y": -0.3831807277,
				"z": 2.2031519529,
				"element": "C" 
			},
			{
				"x": 2.4027798595,
				"y": -1.266238575,
				"z": 2.1436490881,
				"element": "C" 
			},
			{
				"x": 2.4671625719,
				"y": -2.369528218,
				"z": 2.9903776062,
				"element": "C" 
			},
			{
				"x": 1.4531475942,
				"y": -2.5919885784,
				"z": 3.9258522956,
				"element": "C" 
			},
			{
				"x": 0.3790829355,
				"y": -1.7046193043,
				"z": 4.0092820099,
				"element": "C" 
			},
			{
				"x": 0.3045987445,
				"y": -0.606964038,
				"z": 3.1507909667,
				"element": "C" 
			},
			{
				"x": 0.3850592731,
				"y": 2.2003919611,
				"z": 0.2761325874,
				"element": "H" 
			},
			{
				"x": 0.5581655279,
				"y": -0.656270601,
				"z": -0.6172745963,
				"element": "H" 
			},
			{
				"x": -0.6255871323,
				"y": -1.8918776996,
				"z": -0.9842254646,
				"element": "H" 
			},
			{
				"x": 0.1524086593,
				"y": -0.8697371145,
				"z": -3.0398823785,
				"element": "H" 
			},
			{
				"x": -1.5602194408,
				"y": -0.5379658821,
				"z": -2.8286436584,
				"element": "H" 
			},
			{
				"x": 1.7617861871,
				"y": 1.1004401369,
				"z": -1.98603103,
				"element": "H" 
			},
			{
				"x": 2.1744703143,
				"y": 3.5072339628,
				"z": -2.2794614426,
				"element": "H" 
			},
			{
				"x": 0.3503060981,
				"y": 5.0097326193,
				"z": -3.0691065936,
				"element": "H" 
			},
			{
				"x": -1.8955245051,
				"y": 4.0570586021,
				"z": -3.5619625079,
				"element": "H" 
			},
			{
				"x": -2.3078915133,
				"y": 1.635968284,
				"z": -3.2671768132,
				"element": "H" 
			},
			{
				"x": -3.060547595,
				"y": -1.4387497931,
				"z": -0.7139150327,
				"element": "H" 
			},
			{
				"x": -4.8082374813,
				"y": -0.3746250815,
				"z": 0.6697085236,
				"element": "H" 
			},
			{
				"x": -4.2201700601,
				"y": 1.5477453367,
				"z": 2.1495759926,
				"element": "H" 
			},
			{
				"x": -1.8551311378,
				"y": 2.3315883036,
				"z": 2.2467488515,
				"element": "H" 
			},
			{
				"x": 3.1932399616,
				"y": -1.0594269625,
				"z": 1.4302690302,
				"element": "H" 
			},
			{
				"x": 3.3104428531,
				"y": -3.0513342743,
				"z": 2.9278019683,
				"element": "H" 
			},
			{
				"x": 1.5041613105,
				"y": -3.4488777482,
				"z": 4.5918002757,
				"element": "H" 
			},
			{
				"x": -0.4030818902,
				"y": -1.8638953656,
				"z": 4.7459547979,
				"element": "H" 
			},
			{
				"x": -0.5307074504,
				"y": 0.0775020569,
				"z": 3.2318594606,
				"element": "H" 
			}
		],
		 "valence_orbital": [ 
			{
				"type": "occ",
				"energy": -0.25214,
				"method": "rhf"
			},
			{
				"type": "occ",
				"energy": -0.24871,
				"method": "rhf"
			},
			{
				"type": "occ",
				"energy": -0.24195,
				"method": "rhf"
			},
			{
				"type": "occ",
				"energy": -0.23936,
				"method": "rhf"
			},
			{
				"type": "occ",
				"energy": -0.23523,
				"method": "rhf"
			},
			{
				"type": "unocc",
				"energy": -0.03374,
				"method": "rhf"
			},
			{
				"type": "unocc",
				"energy": -0.01359,
				"method": "rhf"
			},
			{
				"type": "unocc",
				"energy": -0.01063,
				"method": "rhf"
			},
			{
				"type": "unocc",
				"energy": -0.00103,
				"method": "rhf"
			},
			{
				"type": "unocc",
				"energy": 0.00106,
				"method": "rhf"
			}
		],
		"cosmo_sigma_profile": { 
			"-0.025": 0.0,
			"-0.024": 0.0,
			"-0.023": 0.0,
			"-0.022": 0.0,
			"-0.021": 0.0,
			"-0.02": 0.0,
			"-0.019": 0.0,
			"-0.018": 0.0,
			"-0.017": 0.0,
			"-0.016": 0.0,
			"-0.015": 0.0,
			"-0.014": 0.0,
			"-0.013": 0.0,
			"-0.012": 0.0,
			"-0.011": 0.0,
			"-0.01": 0.0,
			"-0.009": 0.378010714981,
			"-0.008": 0.65245234692,
			"-0.007": 1.23959045975,
			"-0.006": 13.7331826177,
			"-0.005": 28.2410336623,
			"-0.004": 39.6162561566,
			"-0.003": 37.9603625221,
			"-0.002": 31.1135793873,
			"-0.001": 27.1490181992,
			"0.0": 24.7755297821,
			"0.001": 22.623514885,
			"0.002": 23.8466862581,
			"0.003": 26.3734141908,
			"0.004": 30.2259160343,
			"0.005": 21.3418953033,
			"0.006": 7.90513555708,
			"0.007": 2.97544212262,
			"0.008": 1.26396887449,
			"0.009": 1.54083773455,
			"0.01": 1.59221798902,
			"0.011": 1.46513857364,
			"0.012": 1.84733751395,
			"0.013": 3.74942602711,
			"0.014": 2.36602677623,
			"0.015": 0.00902625101312,
			"0.016": 0.0,
			"0.017": 0.0,
			"0.018": 0.0,
			"0.019": 0.0,
			"0.02": 0.0,
			"0.021": 0.0,
			"0.022": 0.0,
			"0.023": 0.0,
			"0.024": 0.0,
			"0.025": 0.0
		}
	}
}
