{
	 "smiles": "NC1=C(O)C=CC(=C1)C(O)=O", 
	 "Tm": 475.15, 
	 "num_atms": 18, 
	 "gaussian": { 
		 "optdone": 1, 
		 "sigma_profile": "yes", 
		 "theory": "DFT", 
		 "functional": "B3LYP", 
		 "basiset": "6-31G**", 
		 "properties": { 
			 "R2extent": 2702.4254, 
			 "electric_dipole_moment_norm": 3.58737587381, 
			 "electric_quadrupole_moment_norm": 16.6958482348, 
			 "total_energy": -551.396126837, 
			 "HOMO_LUMO_gap": 0.19568, 
			 "cosmo_polarized_energy": -17.73, 
			 "cosmo_cavitation_energy": 22.5, 
			 "cosmo_dispersion_energy": -17.03, 
			 "cosmo_repulsion_energy": 1.38, 
			 "cosmo_total_nonelectrostatic_energy": 6.85, 
			 "SMD_solvation_energy": 5.71 
		},
		"coords": [
			{
				"x": -0.3370021213,
				"y": -3.5894590973,
				"z": 1.650381865,
				"element": "N" 
			},
			{
				"x": -0.8295360791,
				"y": -2.551496476,
				"z": 0.7774871065,
				"element": "C" 
			},
			{
				"x": -1.593049158,
				"y": -3.0161795831,
				"z": -0.3171700166,
				"element": "C" 
			},
			{
				"x": -1.7950200661,
				"y": -4.3384752289,
				"z": -0.4617238638,
				"element": "O" 
			},
			{
				"x": -2.137492989,
				"y": -2.1060705523,
				"z": -1.2305888217,
				"element": "C" 
			},
			{
				"x": -1.9095033908,
				"y": -0.7455755025,
				"z": -1.0562123667,
				"element": "C" 
			},
			{
				"x": -1.1421005119,
				"y": -0.2677978388,
				"z": 0.0191964496,
				"element": "C" 
			},
			{
				"x": -0.6191636625,
				"y": -1.1903000937,
				"z": 0.9395596755,
				"element": "C" 
			},
			{
				"x": -0.872102595,
				"y": 1.178362754,
				"z": 0.2708005788,
				"element": "C" 
			},
			{
				"x": -1.0801210054,
				"y": 2.0366638336,
				"z": -0.7666165307,
				"element": "O" 
			},
			{
				"x": -0.4818623696,
				"y": 1.6093491395,
				"z": 1.3327095033,
				"element": "O" 
			},
			{
				"x": -0.6646445317,
				"y": -3.4592234888,
				"z": 2.6040456695,
				"element": "H" 
			},
			{
				"x": 0.6793852243,
				"y": -3.6006566028,
				"z": 1.6795282386,
				"element": "H" 
			},
			{
				"x": -1.3287938033,
				"y": -4.7356945768,
				"z": 0.3059442968,
				"element": "H" 
			},
			{
				"x": -2.738602434,
				"y": -2.4786462669,
				"z": -2.0527063048,
				"element": "H" 
			},
			{
				"x": -2.376536671,
				"y": -0.055138511,
				"z": -1.7549898769,
				"element": "H" 
			},
			{
				"x": -0.0460294497,
				"y": -0.8104296898,
				"z": 1.779967888,
				"element": "H" 
			},
			{
				"x": -1.2219243859,
				"y": 1.5422677816,
				"z": -1.5852134903,
				"element": "H" 
			}
		],
		 "valence_orbital": [ 
			{
				"type": "occ",
				"energy": -0.30869,
				"method": "rhf"
			},
			{
				"type": "occ",
				"energy": -0.29278,
				"method": "rhf"
			},
			{
				"type": "occ",
				"energy": -0.27018,
				"method": "rhf"
			},
			{
				"type": "occ",
				"energy": -0.26691,
				"method": "rhf"
			},
			{
				"type": "occ",
				"energy": -0.23428,
				"method": "rhf"
			},
			{
				"type": "unocc",
				"energy": -0.0386,
				"method": "rhf"
			},
			{
				"type": "unocc",
				"energy": -0.02313,
				"method": "rhf"
			},
			{
				"type": "unocc",
				"energy": 0.05558,
				"method": "rhf"
			},
			{
				"type": "unocc",
				"energy": 0.06166,
				"method": "rhf"
			},
			{
				"type": "unocc",
				"energy": 0.06688,
				"method": "rhf"
			}
		],
		"cosmo_sigma_profile": { 
			"-0.025": 0.0,
			"-0.024": 0.0,
			"-0.023": 0.0,
			"-0.022": 0.0,
			"-0.021": 0.0,
			"-0.02": 0.0,
			"-0.019": 0.0466628995726,
			"-0.018": 0.903205973235,
			"-0.017": 0.782615446346,
			"-0.016": 0.808880503478,
			"-0.015": 1.40663288104,
			"-0.014": 0.751679964215,
			"-0.013": 0.400609334225,
			"-0.012": 4.17613359161,
			"-0.011": 4.50162644124,
			"-0.01": 4.5843133915,
			"-0.009": 4.20920828759,
			"-0.008": 4.90648265786,
			"-0.007": 6.25668278364,
			"-0.006": 8.38882608685,
			"-0.005": 7.69356077225,
			"-0.004": 7.01138397854,
			"-0.003": 8.08768260237,
			"-0.002": 8.82835035562,
			"-0.001": 8.21585525878,
			"0.0": 9.8217454025,
			"0.001": 8.29721574974,
			"0.002": 12.3103284206,
			"0.003": 14.5666369204,
			"0.004": 8.56034965693,
			"0.005": 4.40959029505,
			"0.006": 4.50389009257,
			"0.007": 4.42712299537,
			"0.008": 3.2427471419,
			"0.009": 4.93416879951,
			"0.01": 5.69283853752,
			"0.011": 6.83391584687,
			"0.012": 6.17860926909,
			"0.013": 2.70144149932,
			"0.014": 0.574318537682,
			"0.015": 0.0,
			"0.016": 0.0,
			"0.017": 0.0,
			"0.018": 0.0,
			"0.019": 0.0,
			"0.02": 0.0,
			"0.021": 0.0,
			"0.022": 0.0,
			"0.023": 0.0,
			"0.024": 0.0,
			"0.025": 0.0
		}
	}
}
