{
	 "smiles": "CC(C)C1=CC=C(C=C1)N1C=CN=C1S", 
	 "Tm": 406.15, 
	 "num_atms": 29, 
	 "gaussian": { 
		 "optdone": 1, 
		 "sigma_profile": "yes", 
		 "theory": "DFT", 
		 "functional": "B3LYP", 
		 "basiset": "6-31G**", 
		 "properties": { 
			 "R2extent": 6111.6932, 
			 "electric_dipole_moment_norm": 5.37878223671, 
			 "electric_quadrupole_moment_norm": 27.0177499653, 
			 "total_energy": -973.401592915, 
			 "HOMO_LUMO_gap": 0.18603, 
			 "cosmo_polarized_energy": -11.45, 
			 "cosmo_cavitation_energy": 33.91, 
			 "cosmo_dispersion_energy": -24.12, 
			 "cosmo_repulsion_energy": 1.86, 
			 "cosmo_total_nonelectrostatic_energy": 11.65, 
			 "SMD_solvation_energy": 4.14 
		},
		"coords": [
			{
				"x": -1.4610577185,
				"y": 0.2002756026,
				"z": -2.6228121688,
				"element": "C" 
			},
			{
				"x": -1.0021627918,
				"y": -0.794100403,
				"z": -1.539505463,
				"element": "C" 
			},
			{
				"x": -0.1382963164,
				"y": -1.9159818083,
				"z": -2.1466339754,
				"element": "C" 
			},
			{
				"x": -0.2902671698,
				"y": -0.091812628,
				"z": -0.391129381,
				"element": "C" 
			},
			{
				"x": -0.8111301824,
				"y": -0.1366998579,
				"z": 0.9087893716,
				"element": "C" 
			},
			{
				"x": -0.1783122316,
				"y": 0.5056467978,
				"z": 1.9725546924,
				"element": "C" 
			},
			{
				"x": 1.0136764494,
				"y": 1.1991684759,
				"z": 1.7490660295,
				"element": "C" 
			},
			{
				"x": 1.555299485,
				"y": 1.2525619,
				"z": 0.460141168,
				"element": "C" 
			},
			{
				"x": 0.9026428665,
				"y": 0.6185773514,
				"z": -0.5945383179,
				"element": "C" 
			},
			{
				"x": 1.6709419175,
				"y": 1.8799513084,
				"z": 2.8185876423,
				"element": "N" 
			},
			{
				"x": 1.9756505142,
				"y": 3.2360993572,
				"z": 2.8344654887,
				"element": "C" 
			},
			{
				"x": 2.6075114627,
				"y": 3.4649561918,
				"z": 4.026278961,
				"element": "C" 
			},
			{
				"x": 2.7358956576,
				"y": 2.295996841,
				"z": 4.7420971313,
				"element": "N" 
			},
			{
				"x": 2.1733930226,
				"y": 1.367327196,
				"z": 4.0018828335,
				"element": "C" 
			},
			{
				"x": 2.0329233471,
				"y": -0.318948914,
				"z": 4.5312634691,
				"element": "S" 
			},
			{
				"x": -2.0227780557,
				"y": -0.3178360049,
				"z": -3.4074127012,
				"element": "H" 
			},
			{
				"x": -0.6063602753,
				"y": 0.6938532805,
				"z": -3.0983838884,
				"element": "H" 
			},
			{
				"x": -2.1038294171,
				"y": 0.9789727228,
				"z": -2.2008525294,
				"element": "H" 
			},
			{
				"x": -1.901974259,
				"y": -1.262155733,
				"z": -1.1195376701,
				"element": "H" 
			},
			{
				"x": 0.7747141067,
				"y": -1.5144020516,
				"z": -2.5999239639,
				"element": "H" 
			},
			{
				"x": 0.1592271303,
				"y": -2.6443235189,
				"z": -1.3859639987,
				"element": "H" 
			},
			{
				"x": -0.6910337842,
				"y": -2.4466577954,
				"z": -2.929224306,
				"element": "H" 
			},
			{
				"x": -1.7374720736,
				"y": -0.6747624222,
				"z": 1.0929694299,
				"element": "H" 
			},
			{
				"x": -0.6034811004,
				"y": 0.4753860133,
				"z": 2.9697194644,
				"element": "H" 
			},
			{
				"x": 2.4871982112,
				"y": 1.7843061495,
				"z": 0.2943807548,
				"element": "H" 
			},
			{
				"x": 1.3376575334,
				"y": 0.6732104028,
				"z": -1.5885286459,
				"element": "H" 
			},
			{
				"x": 1.6969788101,
				"y": 3.8783238372,
				"z": 2.0136129195,
				"element": "H" 
			},
			{
				"x": 2.985665534,
				"y": 4.4019465496,
				"z": 4.4107405056,
				"element": "H" 
			},
			{
				"x": 2.2643793273,
				"y": -0.8850788404,
				"z": 3.3286971483,
				"element": "H" 
			}
		],
		 "valence_orbital": [ 
			{
				"type": "occ",
				"energy": -0.2786,
				"method": "rhf"
			},
			{
				"type": "occ",
				"energy": -0.26741,
				"method": "rhf"
			},
			{
				"type": "occ",
				"energy": -0.26469,
				"method": "rhf"
			},
			{
				"type": "occ",
				"energy": -0.24614,
				"method": "rhf"
			},
			{
				"type": "occ",
				"energy": -0.21139,
				"method": "rhf"
			},
			{
				"type": "unocc",
				"energy": -0.02536,
				"method": "rhf"
			},
			{
				"type": "unocc",
				"energy": -0.0186,
				"method": "rhf"
			},
			{
				"type": "unocc",
				"energy": 0.01869,
				"method": "rhf"
			},
			{
				"type": "unocc",
				"energy": 0.03969,
				"method": "rhf"
			},
			{
				"type": "unocc",
				"energy": 0.0679,
				"method": "rhf"
			}
		],
		"cosmo_sigma_profile": { 
			"-0.025": 0.0,
			"-0.024": 0.0,
			"-0.023": 0.0,
			"-0.022": 0.0,
			"-0.021": 0.0,
			"-0.02": 0.0,
			"-0.019": 0.0,
			"-0.018": 0.0,
			"-0.017": 0.0,
			"-0.016": 0.0,
			"-0.015": 0.0,
			"-0.014": 0.0,
			"-0.013": 0.0,
			"-0.012": 0.0,
			"-0.011": 0.831273889387,
			"-0.01": 1.57991180053,
			"-0.009": 1.97196911723,
			"-0.008": 3.46954775535,
			"-0.007": 4.62334585345,
			"-0.006": 10.0427202351,
			"-0.005": 17.0453457632,
			"-0.004": 16.5092667087,
			"-0.003": 23.4894944286,
			"-0.002": 26.1061585357,
			"-0.001": 24.4884423341,
			"0.0": 26.7317527106,
			"0.001": 29.1508983907,
			"0.002": 19.694504069,
			"0.003": 15.6016557977,
			"0.004": 15.404609088,
			"0.005": 11.1465661891,
			"0.006": 4.60972220045,
			"0.007": 3.38721607983,
			"0.008": 3.25065627214,
			"0.009": 2.54765075649,
			"0.01": 1.5491215563,
			"0.011": 1.37564954647,
			"0.012": 1.24235630234,
			"0.013": 1.35732445245,
			"0.014": 1.0661595152,
			"0.015": 0.95362655892,
			"0.016": 1.159171771,
			"0.017": 0.826950526198,
			"0.018": 0.0748523966789,
			"0.019": 0.0,
			"0.02": 0.0,
			"0.021": 0.0,
			"0.022": 0.0,
			"0.023": 0.0,
			"0.024": 0.0,
			"0.025": 0.0
		}
	}
}
