{
	 "smiles": "CN1N=C(C)C(C=O)=C1OC1=CN=CC=C1", 
	 "Tm": 365.15, 
	 "num_atms": 27, 
	 "gaussian": { 
		 "optdone": 1, 
		 "sigma_profile": "yes", 
		 "theory": "DFT", 
		 "functional": "B3LYP", 
		 "basiset": "6-31G**", 
		 "properties": { 
			 "R2extent": 4318.2473, 
			 "electric_dipole_moment_norm": 3.75848125178, 
			 "electric_quadrupole_moment_norm": 13.2178107314, 
			 "total_energy": -740.458140211, 
			 "HOMO_LUMO_gap": 0.20217, 
			 "cosmo_polarized_energy": -14.36, 
			 "cosmo_cavitation_energy": 32.28, 
			 "cosmo_dispersion_energy": -22.32, 
			 "cosmo_repulsion_energy": 1.76, 
			 "cosmo_total_nonelectrostatic_energy": 11.72, 
			 "SMD_solvation_energy": 4.68 
		},
		"coords": [
			{
				"x": -1.8163551766,
				"y": -0.9328541511,
				"z": 3.3231427447,
				"element": "C" 
			},
			{
				"x": -2.0276035455,
				"y": -1.0904903463,
				"z": 1.8964555321,
				"element": "N" 
			},
			{
				"x": -2.5478949823,
				"y": -2.2563484005,
				"z": 1.4069452904,
				"element": "N" 
			},
			{
				"x": -2.6413845342,
				"y": -2.0846683682,
				"z": 0.0935295487,
				"element": "C" 
			},
			{
				"x": -3.1768679138,
				"y": -3.1657030214,
				"z": -0.7882075391,
				"element": "C" 
			},
			{
				"x": -2.1875987006,
				"y": -0.7845500187,
				"z": -0.2948837563,
				"element": "C" 
			},
			{
				"x": -2.1679824614,
				"y": -0.1837959467,
				"z": -1.6190254839,
				"element": "C" 
			},
			{
				"x": -2.5214784158,
				"y": -0.7549148117,
				"z": -2.6400001453,
				"element": "O" 
			},
			{
				"x": -1.8046579676,
				"y": -0.1950191105,
				"z": 0.9118981283,
				"element": "C" 
			},
			{
				"x": -1.3655744861,
				"y": 1.0563158192,
				"z": 1.2074810947,
				"element": "O" 
			},
			{
				"x": -0.0870841774,
				"y": 1.4538249866,
				"z": 0.8301838872,
				"element": "C" 
			},
			{
				"x": 0.2007842445,
				"y": 2.8117838628,
				"z": 0.9988667811,
				"element": "C" 
			},
			{
				"x": 1.390089806,
				"y": 3.33857744,
				"z": 0.7066129896,
				"element": "N" 
			},
			{
				"x": 2.3377089621,
				"y": 2.5193678757,
				"z": 0.2301204383,
				"element": "C" 
			},
			{
				"x": 2.1360431414,
				"y": 1.1538916121,
				"z": 0.0314115954,
				"element": "C" 
			},
			{
				"x": 0.893911668,
				"y": 0.5973825507,
				"z": 0.339033529,
				"element": "C" 
			},
			{
				"x": -2.7613501361,
				"y": -1.0782254719,
				"z": 3.8517744086,
				"element": "H" 
			},
			{
				"x": -1.0926297715,
				"y": -1.6717814157,
				"z": 3.6761397956,
				"element": "H" 
			},
			{
				"x": -1.4412438822,
				"y": 0.0730263401,
				"z": 3.5109906858,
				"element": "H" 
			},
			{
				"x": -2.4319429362,
				"y": -3.4710587817,
				"z": -1.5293046362,
				"element": "H" 
			},
			{
				"x": -4.0459069594,
				"y": -2.8135525132,
				"z": -1.3516258656,
				"element": "H" 
			},
			{
				"x": -3.4600812662,
				"y": -4.0288392605,
				"z": -0.1819915485,
				"element": "H" 
			},
			{
				"x": -1.8052102199,
				"y": 0.8660435697,
				"z": -1.6549580498,
				"element": "H" 
			},
			{
				"x": -0.5695121453,
				"y": 3.4764486043,
				"z": 1.3844173901,
				"element": "H" 
			},
			{
				"x": 3.2967407142,
				"y": 2.9763132163,
				"z": -0.0028167641,
				"element": "H" 
			},
			{
				"x": 2.9351241283,
				"y": 0.5305994442,
				"z": -0.3571828586,
				"element": "H" 
			},
			{
				"x": 0.6965570138,
				"y": -0.4591737036,
				"z": 0.1942928074,
				"element": "H" 
			}
		],
		 "valence_orbital": [ 
			{
				"type": "occ",
				"energy": -0.26924,
				"method": "rhf"
			},
			{
				"type": "occ",
				"energy": -0.26607,
				"method": "rhf"
			},
			{
				"type": "occ",
				"energy": -0.25839,
				"method": "rhf"
			},
			{
				"type": "occ",
				"energy": -0.24961,
				"method": "rhf"
			},
			{
				"type": "occ",
				"energy": -0.24834,
				"method": "rhf"
			},
			{
				"type": "unocc",
				"energy": -0.04617,
				"method": "rhf"
			},
			{
				"type": "unocc",
				"energy": -0.03615,
				"method": "rhf"
			},
			{
				"type": "unocc",
				"energy": -0.0201,
				"method": "rhf"
			},
			{
				"type": "unocc",
				"energy": 0.00962,
				"method": "rhf"
			},
			{
				"type": "unocc",
				"energy": 0.07888,
				"method": "rhf"
			}
		],
		"cosmo_sigma_profile": { 
			"-0.025": 0.0,
			"-0.024": 0.0,
			"-0.023": 0.0,
			"-0.022": 0.0,
			"-0.021": 0.0,
			"-0.02": 0.0,
			"-0.019": 0.0,
			"-0.018": 0.0,
			"-0.017": 0.0,
			"-0.016": 0.0,
			"-0.015": 0.0,
			"-0.014": 0.0,
			"-0.013": 0.0,
			"-0.012": 0.0,
			"-0.011": 0.0,
			"-0.01": 0.0,
			"-0.009": 0.120703599614,
			"-0.008": 2.15776124336,
			"-0.007": 10.5483157389,
			"-0.006": 17.4733900409,
			"-0.005": 22.9726292908,
			"-0.004": 24.671665714,
			"-0.003": 23.5527439954,
			"-0.002": 17.5463535776,
			"-0.001": 20.3084618884,
			"0.0": 24.4759294743,
			"0.001": 17.7479503519,
			"0.002": 15.6463783375,
			"0.003": 8.02368908627,
			"0.004": 6.38114034971,
			"0.005": 6.74342515588,
			"0.006": 5.04142178481,
			"0.007": 4.58288610951,
			"0.008": 4.07511873814,
			"0.009": 3.57373051953,
			"0.01": 4.28184603087,
			"0.011": 5.04278368872,
			"0.012": 5.29627205594,
			"0.013": 3.83992362835,
			"0.014": 2.3116765657,
			"0.015": 1.50402592407,
			"0.016": 0.552375663947,
			"0.017": 0.0193596279508,
			"0.018": 0.0,
			"0.019": 0.0,
			"0.02": 0.0,
			"0.021": 0.0,
			"0.022": 0.0,
			"0.023": 0.0,
			"0.024": 0.0,
			"0.025": 0.0
		}
	}
}
