{
	 "smiles": "CCOC(=O)NN", 
	 "Tm": 319.15, 
	 "num_atms": 15, 
	 "gaussian": { 
		 "optdone": 1, 
		 "sigma_profile": "yes", 
		 "theory": "DFT", 
		 "functional": "B3LYP", 
		 "basiset": "6-31G**", 
		 "properties": { 
			 "R2extent": 963.292, 
			 "electric_dipole_moment_norm": 2.40108450705, 
			 "electric_quadrupole_moment_norm": 2.89573352538, 
			 "total_energy": -379.079364628, 
			 "HOMO_LUMO_gap": 0.31263, 
			 "cosmo_polarized_energy": -10.62, 
			 "cosmo_cavitation_energy": 18.83, 
			 "cosmo_dispersion_energy": -13.92, 
			 "cosmo_repulsion_energy": 1.23, 
			 "cosmo_total_nonelectrostatic_energy": 6.14, 
			 "SMD_solvation_energy": 5.32 
		},
		"coords": [
			{
				"x": -1.6670837407,
				"y": 0.3603156166,
				"z": 0.9158075547,
				"element": "C" 
			},
			{
				"x": -1.0213635789,
				"y": 0.6072551281,
				"z": -0.4389311352,
				"element": "C" 
			},
			{
				"x": 0.4189515665,
				"y": 0.6811875467,
				"z": -0.333003909,
				"element": "O" 
			},
			{
				"x": 1.0656169972,
				"y": -0.5148783201,
				"z": -0.357216369,
				"element": "C" 
			},
			{
				"x": 0.5312196754,
				"y": -1.6027557394,
				"z": -0.4795349927,
				"element": "O" 
			},
			{
				"x": 2.4148592787,
				"y": -0.337595699,
				"z": -0.2217458989,
				"element": "N" 
			},
			{
				"x": 3.090360963,
				"y": 0.8911732839,
				"z": -0.151211051,
				"element": "N" 
			},
			{
				"x": -1.3758080573,
				"y": -0.6195112202,
				"z": 1.3017406297,
				"element": "H" 
			},
			{
				"x": -2.7577587188,
				"y": 0.3813059367,
				"z": 0.8182828925,
				"element": "H" 
			},
			{
				"x": -1.372144544,
				"y": 1.1295997844,
				"z": 1.6359974679,
				"element": "H" 
			},
			{
				"x": -1.2822475744,
				"y": -0.1824233698,
				"z": -1.1472874695,
				"element": "H" 
			},
			{
				"x": -1.3126294408,
				"y": 1.5765163593,
				"z": -0.8517197922,
				"element": "H" 
			},
			{
				"x": 2.9862067841,
				"y": -1.1657977551,
				"z": -0.2849134649,
				"element": "H" 
			},
			{
				"x": 2.7718626529,
				"y": 1.3890957931,
				"z": 0.677510463,
				"element": "H" 
			},
			{
				"x": 2.8258577371,
				"y": 1.4598126549,
				"z": -0.9535749257,
				"element": "H" 
			}
		],
		 "valence_orbital": [ 
			{
				"type": "occ",
				"energy": -0.34127,
				"method": "rhf"
			},
			{
				"type": "occ",
				"energy": -0.29597,
				"method": "rhf"
			},
			{
				"type": "occ",
				"energy": -0.29391,
				"method": "rhf"
			},
			{
				"type": "occ",
				"energy": -0.25848,
				"method": "rhf"
			},
			{
				"type": "occ",
				"energy": -0.25763,
				"method": "rhf"
			},
			{
				"type": "unocc",
				"energy": 0.055,
				"method": "rhf"
			},
			{
				"type": "unocc",
				"energy": 0.0804,
				"method": "rhf"
			},
			{
				"type": "unocc",
				"energy": 0.10072,
				"method": "rhf"
			},
			{
				"type": "unocc",
				"energy": 0.11103,
				"method": "rhf"
			},
			{
				"type": "unocc",
				"energy": 0.13917,
				"method": "rhf"
			}
		],
		"cosmo_sigma_profile": { 
			"-0.025": 0.0,
			"-0.024": 0.0,
			"-0.023": 0.0,
			"-0.022": 0.0,
			"-0.021": 0.0,
			"-0.02": 0.0,
			"-0.019": 0.0,
			"-0.018": 0.0,
			"-0.017": 0.0,
			"-0.016": 0.0,
			"-0.015": 0.0105031168355,
			"-0.014": 0.886146432044,
			"-0.013": 0.955121598403,
			"-0.012": 1.21611166985,
			"-0.011": 3.41894236086,
			"-0.01": 2.95823446398,
			"-0.009": 2.59901984537,
			"-0.008": 2.56291062683,
			"-0.007": 3.27597723439,
			"-0.006": 3.95697335625,
			"-0.005": 5.28197620757,
			"-0.004": 11.9769399119,
			"-0.003": 12.6444113286,
			"-0.002": 13.660137268,
			"-0.001": 12.849688809,
			"0.0": 14.7668554927,
			"0.001": 9.30922523228,
			"0.002": 6.49588958844,
			"0.003": 4.38330663966,
			"0.004": 3.17170518539,
			"0.005": 3.78545960403,
			"0.006": 2.95422791144,
			"0.007": 2.72824166597,
			"0.008": 2.35869099326,
			"0.009": 2.53951800186,
			"0.01": 1.92668856897,
			"0.011": 1.37431355437,
			"0.012": 3.03868126605,
			"0.013": 5.60351218422,
			"0.014": 2.94344904655,
			"0.015": 0.554709720393,
			"0.016": 0.588901896058,
			"0.017": 0.102149335462,
			"0.018": 0.0,
			"0.019": 0.0,
			"0.02": 0.0,
			"0.021": 0.0,
			"0.022": 0.0,
			"0.023": 0.0,
			"0.024": 0.0,
			"0.025": 0.0
		}
	}
}
