{
	 "smiles": "ClCC(=O)N1CCCC2=C1C=CC(=C2)S(=O)(=O)N1CCCC1", 
	 "Tm": 420.15, 
	 "num_atms": 41, 
	 "gaussian": { 
		 "optdone": 1, 
		 "sigma_profile": "yes", 
		 "theory": "DFT", 
		 "functional": "B3LYP", 
		 "basiset": "6-31G**", 
		 "properties": { 
			 "R2extent": 10693.6278, 
			 "electric_dipole_moment_norm": 5.57646725625, 
			 "electric_quadrupole_moment_norm": 37.0620181314, 
			 "total_energy": -1776.5488304, 
			 "HOMO_LUMO_gap": 0.18622, 
			 "cosmo_polarized_energy": -21.22, 
			 "cosmo_cavitation_energy": 44.44, 
			 "cosmo_dispersion_energy": -31.67, 
			 "cosmo_repulsion_energy": 2.41, 
			 "cosmo_total_nonelectrostatic_energy": 15.17, 
			 "SMD_solvation_energy": 4.76 
		},
		"coords": [
			{
				"x": 4.0441735533,
				"y": -4.0428207453,
				"z": -1.4201205723,
				"element": "Cl" 
			},
			{
				"x": 3.6712883796,
				"y": -3.3182498542,
				"z": 0.2003486137,
				"element": "C" 
			},
			{
				"x": 2.2628723557,
				"y": -3.6876399426,
				"z": 0.6644422464,
				"element": "C" 
			},
			{
				"x": 2.0443262943,
				"y": -4.8131708851,
				"z": 1.088371163,
				"element": "O" 
			},
			{
				"x": 1.2791652122,
				"y": -2.7108608906,
				"z": 0.7062453799,
				"element": "N" 
			},
			{
				"x": 0.0692454455,
				"y": -3.107879683,
				"z": 1.4770274758,
				"element": "C" 
			},
			{
				"x": -0.8112657688,
				"y": -1.9112369025,
				"z": 1.8476993395,
				"element": "C" 
			},
			{
				"x": 0.0570962592,
				"y": -0.672545494,
				"z": 2.1242442995,
				"element": "C" 
			},
			{
				"x": 0.780261651,
				"y": -0.3441938211,
				"z": 0.8443845074,
				"element": "C" 
			},
			{
				"x": 1.3464027405,
				"y": -1.4189822956,
				"z": 0.1234290952,
				"element": "C" 
			},
			{
				"x": 1.923173782,
				"y": -1.1921385994,
				"z": -1.1346960958,
				"element": "C" 
			},
			{
				"x": 2.004177856,
				"y": 0.1017235073,
				"z": -1.6464718343,
				"element": "C" 
			},
			{
				"x": 1.4629634802,
				"y": 1.1651035395,
				"z": -0.9216349302,
				"element": "C" 
			},
			{
				"x": 0.8401026023,
				"y": 0.9405722486,
				"z": 0.3100922034,
				"element": "C" 
			},
			{
				"x": 1.5044871894,
				"y": 2.8271019325,
				"z": -1.6048013908,
				"element": "S" 
			},
			{
				"x": 2.5957091544,
				"y": 2.860943203,
				"z": -2.5803581763,
				"element": "O" 
			},
			{
				"x": 1.4225413967,
				"y": 3.7566045782,
				"z": -0.4755037873,
				"element": "O" 
			},
			{
				"x": 0.096938603,
				"y": 3.0219325725,
				"z": -2.471064077,
				"element": "N" 
			},
			{
				"x": -1.1883627742,
				"y": 3.2440507646,
				"z": -1.7852610516,
				"element": "C" 
			},
			{
				"x": -2.1577865417,
				"y": 3.3336440699,
				"z": -2.9681434212,
				"element": "C" 
			},
			{
				"x": -1.6150527832,
				"y": 2.2710397396,
				"z": -3.9414485789,
				"element": "C" 
			},
			{
				"x": -0.0818164033,
				"y": 2.3427485176,
				"z": -3.7768330469,
				"element": "C" 
			},
			{
				"x": 3.8616494565,
				"y": -2.2497036829,
				"z": 0.1297283878,
				"element": "H" 
			},
			{
				"x": 4.3600982933,
				"y": -3.7842324345,
				"z": 0.9039417829,
				"element": "H" 
			},
			{
				"x": -0.4893737515,
				"y": -3.8520716849,
				"z": 0.8998541015,
				"element": "H" 
			},
			{
				"x": 0.4271313307,
				"y": -3.617444508,
				"z": 2.3749784277,
				"element": "H" 
			},
			{
				"x": -1.5092604844,
				"y": -1.6774999323,
				"z": 1.036034285,
				"element": "H" 
			},
			{
				"x": -1.4131405254,
				"y": -2.1824935146,
				"z": 2.7209593187,
				"element": "H" 
			},
			{
				"x": -0.5477866551,
				"y": 0.1765734273,
				"z": 2.4548553793,
				"element": "H" 
			},
			{
				"x": 0.770144354,
				"y": -0.8965926123,
				"z": 2.9301157171,
				"element": "H" 
			},
			{
				"x": 2.306492587,
				"y": -2.0221347637,
				"z": -1.7170032967,
				"element": "H" 
			},
			{
				"x": 2.4931348035,
				"y": 0.2879960079,
				"z": -2.5961026951,
				"element": "H" 
			},
			{
				"x": 0.4330794134,
				"y": 1.7793220163,
				"z": 0.8658068994,
				"element": "H" 
			},
			{
				"x": -1.4541255789,
				"y": 2.4003767492,
				"z": -1.1279481814,
				"element": "H" 
			},
			{
				"x": -1.1377528842,
				"y": 4.1518680785,
				"z": -1.1823841687,
				"element": "H" 
			},
			{
				"x": -3.1945041761,
				"y": 3.1532668037,
				"z": -2.6713840485,
				"element": "H" 
			},
			{
				"x": -2.0990281921,
				"y": 4.3309453726,
				"z": -3.4164019077,
				"element": "H" 
			},
			{
				"x": -1.9752440361,
				"y": 1.2794809779,
				"z": -3.6462388771,
				"element": "H" 
			},
			{
				"x": -1.9246268181,
				"y": 2.4395594648,
				"z": -4.9760481826,
				"element": "H" 
			},
			{
				"x": 0.4010347384,
				"y": 2.9343871428,
				"z": -4.5595398332,
				"element": "H" 
			},
			{
				"x": 0.3703364413,
				"y": 1.3442515321,
				"z": -3.7839704697,
				"element": "H" 
			}
		],
		 "valence_orbital": [ 
			{
				"type": "occ",
				"energy": -0.29522,
				"method": "rhf"
			},
			{
				"type": "occ",
				"energy": -0.27312,
				"method": "rhf"
			},
			{
				"type": "occ",
				"energy": -0.26898,
				"method": "rhf"
			},
			{
				"type": "occ",
				"energy": -0.25817,
				"method": "rhf"
			},
			{
				"type": "occ",
				"energy": -0.23776,
				"method": "rhf"
			},
			{
				"type": "unocc",
				"energy": -0.05154,
				"method": "rhf"
			},
			{
				"type": "unocc",
				"energy": -0.0296,
				"method": "rhf"
			},
			{
				"type": "unocc",
				"energy": -0.02049,
				"method": "rhf"
			},
			{
				"type": "unocc",
				"energy": 0.04435,
				"method": "rhf"
			},
			{
				"type": "unocc",
				"energy": 0.06064,
				"method": "rhf"
			}
		],
		"cosmo_sigma_profile": { 
			"-0.025": 0.0,
			"-0.024": 0.0,
			"-0.023": 0.0,
			"-0.022": 0.0,
			"-0.021": 0.0,
			"-0.02": 0.0,
			"-0.019": 0.0,
			"-0.018": 0.0,
			"-0.017": 0.0,
			"-0.016": 0.0,
			"-0.015": 0.0,
			"-0.014": 0.0,
			"-0.013": 0.0,
			"-0.012": 0.0,
			"-0.011": 0.0,
			"-0.01": 0.0,
			"-0.009": 1.07246799886,
			"-0.008": 3.24252168138,
			"-0.007": 7.18627773986,
			"-0.006": 10.2459238729,
			"-0.005": 24.3719722856,
			"-0.004": 46.9215193667,
			"-0.003": 50.2615747466,
			"-0.002": 41.4566059569,
			"-0.001": 28.7017629256,
			"0.0": 17.6148775022,
			"0.001": 14.6817489115,
			"0.002": 15.8084549723,
			"0.003": 12.0946885369,
			"0.004": 9.64837984105,
			"0.005": 12.2002857638,
			"0.006": 9.11884469412,
			"0.007": 6.17112423345,
			"0.008": 6.18985112871,
			"0.009": 3.96960137962,
			"0.01": 7.39679351606,
			"0.011": 10.5790152401,
			"0.012": 10.1702708745,
			"0.013": 3.16226215024,
			"0.014": 0.225730527993,
			"0.015": 0.0,
			"0.016": 0.0,
			"0.017": 0.0,
			"0.018": 0.0,
			"0.019": 0.0,
			"0.02": 0.0,
			"0.021": 0.0,
			"0.022": 0.0,
			"0.023": 0.0,
			"0.024": 0.0,
			"0.025": 0.0
		}
	}
}
