{
	 "smiles": "OC1=CC=CC=C1[N+]([O-])=O", 
	 "Tm": 318.15, 
	 "num_atms": 15, 
	 "gaussian": { 
		 "optdone": 1, 
		 "sigma_profile": "yes", 
		 "theory": "DFT", 
		 "functional": "B3LYP", 
		 "basiset": "6-31G**", 
		 "properties": { 
			 "R2extent": 1369.7691, 
			 "electric_dipole_moment_norm": 3.58573902146, 
			 "electric_quadrupole_moment_norm": 5.36940671955, 
			 "total_energy": -511.978763353, 
			 "HOMO_LUMO_gap": 0.1497, 
			 "cosmo_polarized_energy": -7.31, 
			 "cosmo_cavitation_energy": 19.59, 
			 "cosmo_dispersion_energy": -15.06, 
			 "cosmo_repulsion_energy": 1.21, 
			 "cosmo_total_nonelectrostatic_energy": 5.73, 
			 "SMD_solvation_energy": 5.89 
		},
		"coords": [
			{
				"x": -0.4266612759,
				"y": -0.6991265496,
				"z": -1.6599802907,
				"element": "O" 
			},
			{
				"x": 0.1077062894,
				"y": -0.3351277658,
				"z": -0.4918686513,
				"element": "C" 
			},
			{
				"x": 1.4624517258,
				"y": -0.6351783913,
				"z": -0.2567330569,
				"element": "C" 
			},
			{
				"x": 2.0682661409,
				"y": -0.2808517265,
				"z": 0.9373474922,
				"element": "C" 
			},
			{
				"x": 1.3506614085,
				"y": 0.3866325581,
				"z": 1.9464435626,
				"element": "C" 
			},
			{
				"x": 0.0183353585,
				"y": 0.6933922639,
				"z": 1.7412597287,
				"element": "C" 
			},
			{
				"x": -0.6039737835,
				"y": 0.3379310719,
				"z": 0.5336199025,
				"element": "C" 
			},
			{
				"x": -1.9985871128,
				"y": 0.6777317827,
				"z": 0.3604292245,
				"element": "N" 
			},
			{
				"x": -2.5915286301,
				"y": 1.2592852809,
				"z": 1.2613819667,
				"element": "O" 
			},
			{
				"x": -2.5557223637,
				"y": 0.3609016335,
				"z": -0.7179048535,
				"element": "O" 
			},
			{
				"x": -1.3696970422,
				"y": -0.4055069556,
				"z": -1.634925786,
				"element": "H" 
			},
			{
				"x": 2.0052384854,
				"y": -1.1498619081,
				"z": -1.0419309661,
				"element": "H" 
			},
			{
				"x": 3.1152218838,
				"y": -0.5244378773,
				"z": 1.0929184773,
				"element": "H" 
			},
			{
				"x": 1.83527198,
				"y": 0.6592356926,
				"z": 2.8774708983,
				"element": "H" 
			},
			{
				"x": -0.573883064,
				"y": 1.2060808904,
				"z": 2.4889723516,
				"element": "H" 
			}
		],
		 "valence_orbital": [ 
			{
				"type": "occ",
				"energy": -0.32314,
				"method": "rhf"
			},
			{
				"type": "occ",
				"energy": -0.31959,
				"method": "rhf"
			},
			{
				"type": "occ",
				"energy": -0.30583,
				"method": "rhf"
			},
			{
				"type": "occ",
				"energy": -0.28681,
				"method": "rhf"
			},
			{
				"type": "occ",
				"energy": -0.24952,
				"method": "rhf"
			},
			{
				"type": "unocc",
				"energy": -0.09982,
				"method": "rhf"
			},
			{
				"type": "unocc",
				"energy": -0.01807,
				"method": "rhf"
			},
			{
				"type": "unocc",
				"energy": -0.00262,
				"method": "rhf"
			},
			{
				"type": "unocc",
				"energy": 0.07402,
				"method": "rhf"
			},
			{
				"type": "unocc",
				"energy": 0.12698,
				"method": "rhf"
			}
		],
		"cosmo_sigma_profile": { 
			"-0.025": 0.0,
			"-0.024": 0.0,
			"-0.023": 0.0,
			"-0.022": 0.0,
			"-0.021": 0.0,
			"-0.02": 0.0,
			"-0.019": 0.0,
			"-0.018": 0.0,
			"-0.017": 0.0,
			"-0.016": 0.0,
			"-0.015": 0.0,
			"-0.014": 0.0,
			"-0.013": 0.0,
			"-0.012": 0.0,
			"-0.011": 0.0,
			"-0.01": 0.402430120182,
			"-0.009": 0.397447906808,
			"-0.008": 2.20782894394,
			"-0.007": 10.3883069674,
			"-0.006": 12.1070660314,
			"-0.005": 11.5527155081,
			"-0.004": 9.55623892866,
			"-0.003": 9.01700438898,
			"-0.002": 8.81913135354,
			"-0.001": 10.1841304042,
			"0.0": 12.2955763361,
			"0.001": 13.1129921797,
			"0.002": 13.263360327,
			"0.003": 8.75718386528,
			"0.004": 3.79139941744,
			"0.005": 4.00994791278,
			"0.006": 4.63197748393,
			"0.007": 8.37439348789,
			"0.008": 6.04650292717,
			"0.009": 5.21388030258,
			"0.01": 3.49242292895,
			"0.011": 0.113376605978,
			"0.012": 0.0,
			"0.013": 0.0,
			"0.014": 0.0,
			"0.015": 0.0,
			"0.016": 0.0,
			"0.017": 0.0,
			"0.018": 0.0,
			"0.019": 0.0,
			"0.02": 0.0,
			"0.021": 0.0,
			"0.022": 0.0,
			"0.023": 0.0,
			"0.024": 0.0,
			"0.025": 0.0
		}
	}
}
