{
	 "smiles": "CC1=C(C=C(C(Cl)=C1)S(Cl)(=O)=O)[N+]([O-])=O", 
	 "Tm": 403.15, 
	 "num_atms": 20, 
	 "gaussian": { 
		 "optdone": 1, 
		 "sigma_profile": "yes", 
		 "theory": "DFT", 
		 "functional": "B3LYP", 
		 "basiset": "6-31G**", 
		 "properties": { 
			 "R2extent": 5738.857, 
			 "electric_dipole_moment_norm": 5.21028199045, 
			 "electric_quadrupole_moment_norm": 14.6427623279, 
			 "total_energy": -1943.79549883, 
			 "HOMO_LUMO_gap": 0.18323, 
			 "cosmo_polarized_energy": -12.21, 
			 "cosmo_cavitation_energy": 30.13, 
			 "cosmo_dispersion_energy": -22.52, 
			 "cosmo_repulsion_energy": 1.71, 
			 "cosmo_total_nonelectrostatic_energy": 9.31, 
			 "SMD_solvation_energy": 5.79 
		},
		"coords": [
			{
				"x": 2.4046082004,
				"y": 1.8112376802,
				"z": -1.550271887,
				"element": "C" 
			},
			{
				"x": 1.6193407449,
				"y": 1.2295032866,
				"z": -0.4029232711,
				"element": "C" 
			},
			{
				"x": 0.882571496,
				"y": 1.9643466789,
				"z": 0.5485831704,
				"element": "C" 
			},
			{
				"x": 0.186822743,
				"y": 1.3455739602,
				"z": 1.5840303447,
				"element": "C" 
			},
			{
				"x": 0.1967132669,
				"y": -0.0392691166,
				"z": 1.7011469891,
				"element": "C" 
			},
			{
				"x": 0.9219522344,
				"y": -0.8097378132,
				"z": 0.7772771409,
				"element": "C" 
			},
			{
				"x": 1.0161243309,
				"y": -2.53983941,
				"z": 0.8603197605,
				"element": "Cl" 
			},
			{
				"x": 1.6140695538,
				"y": -0.1638618172,
				"z": -0.2457843034,
				"element": "C" 
			},
			{
				"x": -0.7977816065,
				"y": -0.7206693791,
				"z": 3.040320651,
				"element": "S" 
			},
			{
				"x": 0.7056642085,
				"y": -1.4413746132,
				"z": 4.3456436414,
				"element": "Cl" 
			},
			{
				"x": -1.5517107941,
				"y": -1.8720085515,
				"z": 2.5707443362,
				"element": "O" 
			},
			{
				"x": -1.4376136632,
				"y": 0.392568701,
				"z": 3.7271050878,
				"element": "O" 
			},
			{
				"x": 0.7976867773,
				"y": 3.4394253106,
				"z": 0.51399249,
				"element": "N" 
			},
			{
				"x": 1.3251750716,
				"y": 4.0267027702,
				"z": -0.4292600722,
				"element": "O" 
			},
			{
				"x": 0.2000398056,
				"y": 3.9936421307,
				"z": 1.4331214057,
				"element": "O" 
			},
			{
				"x": 3.1495354204,
				"y": 2.5292278128,
				"z": -1.1997383157,
				"element": "H" 
			},
			{
				"x": 2.9078311634,
				"y": 1.011151653,
				"z": -2.0975449963,
				"element": "H" 
			},
			{
				"x": 1.7540262285,
				"y": 2.359692529,
				"z": -2.2355774425,
				"element": "H" 
			},
			{
				"x": -0.3612410594,
				"y": 1.9527914334,
				"z": 2.292916068,
				"element": "H" 
			},
			{
				"x": 2.1718858777,
				"y": -0.7725032457,
				"z": -0.9486007975,
				"element": "H" 
			}
		],
		 "valence_orbital": [ 
			{
				"type": "occ",
				"energy": -0.3274,
				"method": "rhf"
			},
			{
				"type": "occ",
				"energy": -0.32636,
				"method": "rhf"
			},
			{
				"type": "occ",
				"energy": -0.31217,
				"method": "rhf"
			},
			{
				"type": "occ",
				"energy": -0.30999,
				"method": "rhf"
			},
			{
				"type": "occ",
				"energy": -0.29996,
				"method": "rhf"
			},
			{
				"type": "unocc",
				"energy": -0.11673,
				"method": "rhf"
			},
			{
				"type": "unocc",
				"energy": -0.10149,
				"method": "rhf"
			},
			{
				"type": "unocc",
				"energy": -0.06862,
				"method": "rhf"
			},
			{
				"type": "unocc",
				"energy": -0.0403,
				"method": "rhf"
			},
			{
				"type": "unocc",
				"energy": -0.00943,
				"method": "rhf"
			}
		],
		"cosmo_sigma_profile": { 
			"-0.025": 0.0,
			"-0.024": 0.0,
			"-0.023": 0.0,
			"-0.022": 0.0,
			"-0.021": 0.0,
			"-0.02": 0.0,
			"-0.019": 0.0,
			"-0.018": 0.0,
			"-0.017": 0.0,
			"-0.016": 0.0,
			"-0.015": 0.0,
			"-0.014": 0.0,
			"-0.013": 0.0,
			"-0.012": 0.0,
			"-0.011": 0.0,
			"-0.01": 0.845100535144,
			"-0.009": 2.70606793291,
			"-0.008": 4.17762769752,
			"-0.007": 5.7663793544,
			"-0.006": 10.1330090592,
			"-0.005": 17.4593257911,
			"-0.004": 20.4693850408,
			"-0.003": 27.2259985997,
			"-0.002": 23.0965208849,
			"-0.001": 14.6461598763,
			"0.0": 11.4884096576,
			"0.001": 14.9723247167,
			"0.002": 23.3446381527,
			"0.003": 14.8006609841,
			"0.004": 6.2212258279,
			"0.005": 7.48650710447,
			"0.006": 8.79108925002,
			"0.007": 15.5280326496,
			"0.008": 13.0035997,
			"0.009": 4.1800657031,
			"0.01": 0.589716609657,
			"0.011": 0.0,
			"0.012": 0.0,
			"0.013": 0.0,
			"0.014": 0.0,
			"0.015": 0.0,
			"0.016": 0.0,
			"0.017": 0.0,
			"0.018": 0.0,
			"0.019": 0.0,
			"0.02": 0.0,
			"0.021": 0.0,
			"0.022": 0.0,
			"0.023": 0.0,
			"0.024": 0.0,
			"0.025": 0.0
		}
	}
}
