{
	 "smiles": "ClC1=CC=CC=C1N1C=CNC1=S", 
	 "Tm": 520.15, 
	 "num_atms": 20, 
	 "gaussian": { 
		 "optdone": 1, 
		 "sigma_profile": "yes", 
		 "theory": "DFT", 
		 "functional": "B3LYP", 
		 "basiset": "6-31G**", 
		 "properties": { 
			 "R2extent": 3128.5558, 
			 "electric_dipole_moment_norm": 4.73443024133, 
			 "electric_quadrupole_moment_norm": 18.1366049863, 
			 "total_energy": -1315.05610768, 
			 "HOMO_LUMO_gap": 0.1591, 
			 "cosmo_polarized_energy": -18.14, 
			 "cosmo_cavitation_energy": 27.78, 
			 "cosmo_dispersion_energy": -20.39, 
			 "cosmo_repulsion_energy": 1.57, 
			 "cosmo_total_nonelectrostatic_energy": 8.97, 
			 "SMD_solvation_energy": 4.3 
		},
		"coords": [
			{
				"x": -1.9662510338,
				"y": -0.7031410273,
				"z": -2.7543703501,
				"element": "Cl" 
			},
			{
				"x": -1.91500382,
				"y": -0.0920179771,
				"z": -1.1104609605,
				"element": "C" 
			},
			{
				"x": -3.0383605231,
				"y": 0.5692768515,
				"z": -0.6115297663,
				"element": "C" 
			},
			{
				"x": -3.0161231128,
				"y": 1.0948340219,
				"z": 0.6785508141,
				"element": "C" 
			},
			{
				"x": -1.8751811932,
				"y": 0.9592496625,
				"z": 1.4714377392,
				"element": "C" 
			},
			{
				"x": -0.7613379795,
				"y": 0.2880310561,
				"z": 0.9761215127,
				"element": "C" 
			},
			{
				"x": -0.7691228455,
				"y": -0.2478386962,
				"z": -0.3162073677,
				"element": "C" 
			},
			{
				"x": 0.3770706244,
				"y": -0.9476643846,
				"z": -0.7892320879,
				"element": "N" 
			},
			{
				"x": 0.3907743027,
				"y": -2.300598757,
				"z": -1.1504152371,
				"element": "C" 
			},
			{
				"x": 1.6554496598,
				"y": -2.6124079522,
				"z": -1.5090877978,
				"element": "C" 
			},
			{
				"x": 2.4066619411,
				"y": -1.4543883008,
				"z": -1.3647729968,
				"element": "N" 
			},
			{
				"x": 1.6497272428,
				"y": -0.4023978015,
				"z": -0.9172972127,
				"element": "C" 
			},
			{
				"x": 2.1847267999,
				"y": 1.1546655698,
				"z": -0.6119075011,
				"element": "S" 
			},
			{
				"x": -3.9136783941,
				"y": 0.6751260605,
				"z": -1.242380938,
				"element": "H" 
			},
			{
				"x": -3.89050345,
				"y": 1.6140056674,
				"z": 1.0587265112,
				"element": "H" 
			},
			{
				"x": -1.8516440056,
				"y": 1.3723556398,
				"z": 2.4746001063,
				"element": "H" 
			},
			{
				"x": 0.1353830388,
				"y": 0.1778704991,
				"z": 1.5744279483,
				"element": "H" 
			},
			{
				"x": -0.5012476263,
				"y": -2.9029139406,
				"z": -1.1141348896,
				"element": "H" 
			},
			{
				"x": 2.0805502181,
				"y": -3.5430767506,
				"z": -1.8476633343,
				"element": "H" 
			},
			{
				"x": 3.3899101563,
				"y": -1.3386694406,
				"z": -1.553104192,
				"element": "H" 
			}
		],
		 "valence_orbital": [ 
			{
				"type": "occ",
				"energy": -0.28621,
				"method": "rhf"
			},
			{
				"type": "occ",
				"energy": -0.26846,
				"method": "rhf"
			},
			{
				"type": "occ",
				"energy": -0.25542,
				"method": "rhf"
			},
			{
				"type": "occ",
				"energy": -0.20042,
				"method": "rhf"
			},
			{
				"type": "occ",
				"energy": -0.18901,
				"method": "rhf"
			},
			{
				"type": "unocc",
				"energy": -0.02991,
				"method": "rhf"
			},
			{
				"type": "unocc",
				"energy": -0.02085,
				"method": "rhf"
			},
			{
				"type": "unocc",
				"energy": 0.01333,
				"method": "rhf"
			},
			{
				"type": "unocc",
				"energy": 0.02016,
				"method": "rhf"
			},
			{
				"type": "unocc",
				"energy": 0.02414,
				"method": "rhf"
			}
		],
		"cosmo_sigma_profile": { 
			"-0.025": 0.0,
			"-0.024": 0.0,
			"-0.023": 0.0,
			"-0.022": 0.0,
			"-0.021": 0.0,
			"-0.02": 0.0,
			"-0.019": 0.0,
			"-0.018": 0.0133002151201,
			"-0.017": 0.760415380747,
			"-0.016": 1.38184049718,
			"-0.015": 1.05345071794,
			"-0.014": 1.2513597674,
			"-0.013": 0.608396079097,
			"-0.012": 1.1844024101,
			"-0.011": 1.20634075726,
			"-0.01": 4.11862917103,
			"-0.009": 4.52975307929,
			"-0.008": 4.3965881782,
			"-0.007": 10.8996621522,
			"-0.006": 13.1423086433,
			"-0.005": 11.766392477,
			"-0.004": 10.4223271824,
			"-0.003": 10.7139091187,
			"-0.002": 10.4384817243,
			"-0.001": 13.1159475755,
			"0.0": 15.6074553603,
			"0.001": 19.3512664752,
			"0.002": 19.537952333,
			"0.003": 19.4400227212,
			"0.004": 13.1792683808,
			"0.005": 4.22478137854,
			"0.006": 3.2094190792,
			"0.007": 3.4979475436,
			"0.008": 3.96601738919,
			"0.009": 4.27653631386,
			"0.01": 5.44237061101,
			"0.011": 6.59351968858,
			"0.012": 6.80460108056,
			"0.013": 2.1992033143,
			"0.014": 0.0,
			"0.015": 0.0,
			"0.016": 0.0,
			"0.017": 0.0,
			"0.018": 0.0,
			"0.019": 0.0,
			"0.02": 0.0,
			"0.021": 0.0,
			"0.022": 0.0,
			"0.023": 0.0,
			"0.024": 0.0,
			"0.025": 0.0
		}
	}
}
