{
	 "smiles": "CC1=CC(Cl)=NC2=C1C=CC=C2", 
	 "Tm": 330.15, 
	 "num_atms": 20, 
	 "gaussian": { 
		 "optdone": 1, 
		 "sigma_profile": "yes", 
		 "theory": "DFT", 
		 "functional": "B3LYP", 
		 "basiset": "6-31G**", 
		 "properties": { 
			 "R2extent": 2696.3976, 
			 "electric_dipole_moment_norm": 4.05255693236, 
			 "electric_quadrupole_moment_norm": 10.5454082315, 
			 "total_energy": -900.848161058, 
			 "HOMO_LUMO_gap": 0.17885, 
			 "cosmo_polarized_energy": -7.68, 
			 "cosmo_cavitation_energy": 25.45, 
			 "cosmo_dispersion_energy": -19.15, 
			 "cosmo_repulsion_energy": 1.51, 
			 "cosmo_total_nonelectrostatic_energy": 7.8, 
			 "SMD_solvation_energy": 2.43 
		},
		"coords": [
			{
				"x": 0.6798503441,
				"y": 1.3931994568,
				"z": -1.9331747377,
				"element": "C" 
			},
			{
				"x": -0.1421131319,
				"y": 0.659268425,
				"z": -0.9056290182,
				"element": "C" 
			},
			{
				"x": -1.0101065266,
				"y": 1.3406951662,
				"z": -0.0815681868,
				"element": "C" 
			},
			{
				"x": -1.7633078965,
				"y": 0.6085381346,
				"z": 0.8707785003,
				"element": "C" 
			},
			{
				"x": -2.8638207449,
				"y": 1.5281684606,
				"z": 1.905552541,
				"element": "Cl" 
			},
			{
				"x": -1.7147903126,
				"y": -0.6755588708,
				"z": 1.0481644384,
				"element": "N" 
			},
			{
				"x": -0.861996028,
				"y": -1.3847292408,
				"z": 0.2456058922,
				"element": "C" 
			},
			{
				"x": -0.0479395328,
				"y": -0.7631564699,
				"z": -0.7533761637,
				"element": "C" 
			},
			{
				"x": 0.8060962727,
				"y": -1.5811389296,
				"z": -1.5380175106,
				"element": "C" 
			},
			{
				"x": 0.8508713269,
				"y": -2.9453817374,
				"z": -1.3423643712,
				"element": "C" 
			},
			{
				"x": 0.0437423931,
				"y": -3.5542381492,
				"z": -0.3531116844,
				"element": "C" 
			},
			{
				"x": -0.7964440655,
				"y": -2.7896588815,
				"z": 0.4259902916,
				"element": "C" 
			},
			{
				"x": 0.4764867602,
				"y": 2.4659346923,
				"z": -1.9039122338,
				"element": "H" 
			},
			{
				"x": 0.4625011403,
				"y": 1.0342463211,
				"z": -2.9454762696,
				"element": "H" 
			},
			{
				"x": 1.7522736673,
				"y": 1.2465050938,
				"z": -1.7621826539,
				"element": "H" 
			},
			{
				"x": -1.1253756292,
				"y": 2.4162939256,
				"z": -0.148777038,
				"element": "H" 
			},
			{
				"x": 1.4301022834,
				"y": -1.1256805971,
				"z": -2.300052151,
				"element": "H" 
			},
			{
				"x": 1.509351002,
				"y": -3.5584900482,
				"z": -1.9504877892,
				"element": "H" 
			},
			{
				"x": 0.0895345802,
				"y": -4.6298841098,
				"z": -0.2102613191,
				"element": "H" 
			},
			{
				"x": -1.4276159022,
				"y": -3.2267326417,
				"z": 1.1924994636,
				"element": "H" 
			}
		],
		 "valence_orbital": [ 
			{
				"type": "occ",
				"energy": -0.30925,
				"method": "rhf"
			},
			{
				"type": "occ",
				"energy": -0.30314,
				"method": "rhf"
			},
			{
				"type": "occ",
				"energy": -0.27102,
				"method": "rhf"
			},
			{
				"type": "occ",
				"energy": -0.25176,
				"method": "rhf"
			},
			{
				"type": "occ",
				"energy": -0.23776,
				"method": "rhf"
			},
			{
				"type": "unocc",
				"energy": -0.05891,
				"method": "rhf"
			},
			{
				"type": "unocc",
				"energy": -0.02403,
				"method": "rhf"
			},
			{
				"type": "unocc",
				"energy": 0.01494,
				"method": "rhf"
			},
			{
				"type": "unocc",
				"energy": 0.03733,
				"method": "rhf"
			},
			{
				"type": "unocc",
				"energy": 0.07953,
				"method": "rhf"
			}
		],
		"cosmo_sigma_profile": { 
			"-0.025": 0.0,
			"-0.024": 0.0,
			"-0.023": 0.0,
			"-0.022": 0.0,
			"-0.021": 0.0,
			"-0.02": 0.0,
			"-0.019": 0.0,
			"-0.018": 0.0,
			"-0.017": 0.0,
			"-0.016": 0.0,
			"-0.015": 0.0,
			"-0.014": 0.0,
			"-0.013": 0.0,
			"-0.012": 0.0,
			"-0.011": 0.0,
			"-0.01": 0.0,
			"-0.009": 0.0,
			"-0.008": 0.420507568292,
			"-0.007": 3.37647062169,
			"-0.006": 11.8732943555,
			"-0.005": 18.36929275,
			"-0.004": 15.1657947007,
			"-0.003": 13.2252487402,
			"-0.002": 14.1716761659,
			"-0.001": 17.019774368,
			"0.0": 19.5783039844,
			"0.001": 19.0313533206,
			"0.002": 16.9045262396,
			"0.003": 17.9623077387,
			"0.004": 18.3560163953,
			"0.005": 8.64106272828,
			"0.006": 2.53733645085,
			"0.007": 1.98495431069,
			"0.008": 2.19533618759,
			"0.009": 1.12468091038,
			"0.01": 1.1503731249,
			"0.011": 0.737749171144,
			"0.012": 0.930799136281,
			"0.013": 1.09919213535,
			"0.014": 0.646522118251,
			"0.015": 0.0169535913539,
			"0.016": 0.0,
			"0.017": 0.0,
			"0.018": 0.0,
			"0.019": 0.0,
			"0.02": 0.0,
			"0.021": 0.0,
			"0.022": 0.0,
			"0.023": 0.0,
			"0.024": 0.0,
			"0.025": 0.0
		}
	}
}
