{
	 "smiles": "CC(OC(C)=O)OC(C)=O", 
	 "Tm": 292.05, 
	 "num_atms": 20, 
	 "gaussian": { 
		 "optdone": 1, 
		 "sigma_profile": "yes", 
		 "theory": "DFT", 
		 "functional": "B3LYP", 
		 "basiset": "6-31G**", 
		 "properties": { 
			 "R2extent": 1715.4897, 
			 "electric_dipole_moment_norm": 0.322961127692, 
			 "electric_quadrupole_moment_norm": 14.0751598822, 
			 "total_energy": -535.591233891, 
			 "HOMO_LUMO_gap": 0.27185, 
			 "cosmo_polarized_energy": -10.65, 
			 "cosmo_cavitation_energy": 24.52, 
			 "cosmo_dispersion_energy": -17.16, 
			 "cosmo_repulsion_energy": 1.46, 
			 "cosmo_total_nonelectrostatic_energy": 8.82, 
			 "SMD_solvation_energy": 6.91 
		},
		"coords": [
			{
				"x": -1.4880548282,
				"y": 1.3981377553,
				"z": 1.0964558793,
				"element": "C" 
			},
			{
				"x": -1.1100453408,
				"y": 0.2514175051,
				"z": 0.1779997748,
				"element": "C" 
			},
			{
				"x": 0.1416562862,
				"y": -0.2797686481,
				"z": 0.607254975,
				"element": "O" 
			},
			{
				"x": 0.3468361976,
				"y": -1.620220651,
				"z": 0.4254463708,
				"element": "C" 
			},
			{
				"x": 1.731641014,
				"y": -1.9981580528,
				"z": 0.8863506047,
				"element": "C" 
			},
			{
				"x": -0.4785327224,
				"y": -2.3736150585,
				"z": -0.0338638649,
				"element": "O" 
			},
			{
				"x": -1.0472274924,
				"y": 0.6033398014,
				"z": -1.2123127701,
				"element": "O" 
			},
			{
				"x": -0.1803951011,
				"y": 1.5641773627,
				"z": -1.645709752,
				"element": "C" 
			},
			{
				"x": -0.2913669459,
				"y": 1.7084277316,
				"z": -3.1455545173,
				"element": "C" 
			},
			{
				"x": 0.5643803325,
				"y": 2.1964899792,
				"z": -0.9348679557,
				"element": "O" 
			},
			{
				"x": -1.6680412333,
				"y": 1.0047362931,
				"z": 2.1008216674,
				"element": "H" 
			},
			{
				"x": -2.409844327,
				"y": 1.8644155203,
				"z": 0.7376922695,
				"element": "H" 
			},
			{
				"x": -0.6943048427,
				"y": 2.1426414196,
				"z": 1.1353630492,
				"element": "H" 
			},
			{
				"x": -1.8508748727,
				"y": -0.5485456746,
				"z": 0.1886933358,
				"element": "H" 
			},
			{
				"x": 1.8736935392,
				"y": -3.0719041897,
				"z": 0.7694150099,
				"element": "H" 
			},
			{
				"x": 1.8707165071,
				"y": -1.7101332853,
				"z": 1.9323356977,
				"element": "H" 
			},
			{
				"x": 2.4777063515,
				"y": -1.454153608,
				"z": 0.2994038757,
				"element": "H" 
			},
			{
				"x": -1.320873706,
				"y": 1.9498528196,
				"z": -3.4255593327,
				"element": "H" 
			},
			{
				"x": -0.0372071584,
				"y": 0.7614183414,
				"z": -3.6308978189,
				"element": "H" 
			},
			{
				"x": 0.3834383428,
				"y": 2.4940446389,
				"z": -3.4838664983,
				"element": "H" 
			}
		],
		 "valence_orbital": [ 
			{
				"type": "occ",
				"energy": -0.34593,
				"method": "rhf"
			},
			{
				"type": "occ",
				"energy": -0.31439,
				"method": "rhf"
			},
			{
				"type": "occ",
				"energy": -0.31098,
				"method": "rhf"
			},
			{
				"type": "occ",
				"energy": -0.27851,
				"method": "rhf"
			},
			{
				"type": "occ",
				"energy": -0.26911,
				"method": "rhf"
			},
			{
				"type": "unocc",
				"energy": 0.00274,
				"method": "rhf"
			},
			{
				"type": "unocc",
				"energy": 0.00659,
				"method": "rhf"
			},
			{
				"type": "unocc",
				"energy": 0.10292,
				"method": "rhf"
			},
			{
				"type": "unocc",
				"energy": 0.11239,
				"method": "rhf"
			},
			{
				"type": "unocc",
				"energy": 0.12113,
				"method": "rhf"
			}
		],
		"cosmo_sigma_profile": { 
			"-0.025": 0.0,
			"-0.024": 0.0,
			"-0.023": 0.0,
			"-0.022": 0.0,
			"-0.021": 0.0,
			"-0.02": 0.0,
			"-0.019": 0.0,
			"-0.018": 0.0,
			"-0.017": 0.0,
			"-0.016": 0.0,
			"-0.015": 0.0,
			"-0.014": 0.0,
			"-0.013": 0.0,
			"-0.012": 0.0,
			"-0.011": 0.0,
			"-0.01": 0.0,
			"-0.009": 0.0,
			"-0.008": 0.0938959033356,
			"-0.007": 5.41849983147,
			"-0.006": 14.4549328584,
			"-0.005": 19.121662636,
			"-0.004": 20.1561266844,
			"-0.003": 21.7792613477,
			"-0.002": 24.0394253989,
			"-0.001": 15.3544687643,
			"0.0": 8.42578920148,
			"0.001": 5.70915022867,
			"0.002": 5.89968978345,
			"0.003": 5.18822166148,
			"0.004": 4.35907804105,
			"0.005": 4.79206118397,
			"0.006": 5.08965240264,
			"0.007": 3.96353667683,
			"0.008": 5.5147590325,
			"0.009": 4.59748352559,
			"0.01": 4.63970240888,
			"0.011": 8.99779211055,
			"0.012": 5.0481706242,
			"0.013": 0.58840740118,
			"0.014": 0.0,
			"0.015": 0.0,
			"0.016": 0.0,
			"0.017": 0.0,
			"0.018": 0.0,
			"0.019": 0.0,
			"0.02": 0.0,
			"0.021": 0.0,
			"0.022": 0.0,
			"0.023": 0.0,
			"0.024": 0.0,
			"0.025": 0.0
		}
	}
}
