{
	 "smiles": "O=CC1=CC=C(OCC2=CSC=N2)C=C1", 
	 "Tm": 352.15, 
	 "num_atms": 24, 
	 "gaussian": { 
		 "optdone": 1, 
		 "sigma_profile": "yes", 
		 "theory": "DFT", 
		 "functional": "B3LYP", 
		 "basiset": "6-31G**", 
		 "properties": { 
			 "R2extent": 4938.4016, 
			 "electric_dipole_moment_norm": 4.39580638791, 
			 "electric_quadrupole_moment_norm": 18.1178543352, 
			 "total_energy": -1027.94922677, 
			 "HOMO_LUMO_gap": 0.18378, 
			 "cosmo_polarized_energy": -12.13, 
			 "cosmo_cavitation_energy": 30.93, 
			 "cosmo_dispersion_energy": -22.57, 
			 "cosmo_repulsion_energy": 1.71, 
			 "cosmo_total_nonelectrostatic_energy": 10.08, 
			 "SMD_solvation_energy": 5.2 
		},
		"coords": [
			{
				"x": -4.4912234305,
				"y": 2.2657183636,
				"z": 0.0961507826,
				"element": "O" 
			},
			{
				"x": -3.7073113395,
				"y": 1.4836086118,
				"z": 0.6040207892,
				"element": "C" 
			},
			{
				"x": -2.3151811007,
				"y": 1.2816683509,
				"z": 0.1653484097,
				"element": "C" 
			},
			{
				"x": -1.7906128257,
				"y": 2.0162293385,
				"z": -0.9143140435,
				"element": "C" 
			},
			{
				"x": -0.4832880247,
				"y": 1.8238152317,
				"z": -1.32237575,
				"element": "C" 
			},
			{
				"x": 0.3318931647,
				"y": 0.8883024589,
				"z": -0.6569063715,
				"element": "C" 
			},
			{
				"x": 1.6046560596,
				"y": 0.7887866455,
				"z": -1.1366123715,
				"element": "O" 
			},
			{
				"x": 2.5414244293,
				"y": -0.0522970511,
				"z": -0.46752305,
				"element": "C" 
			},
			{
				"x": 2.378925032,
				"y": -1.5124180624,
				"z": -0.810044579,
				"element": "C" 
			},
			{
				"x": 1.798741408,
				"y": -2.0157382326,
				"z": -1.9413459495,
				"element": "C" 
			},
			{
				"x": 1.8796101721,
				"y": -3.7446427758,
				"z": -1.9257952328,
				"element": "S" 
			},
			{
				"x": 2.7003411619,
				"y": -3.6530909916,
				"z": -0.3882115207,
				"element": "C" 
			},
			{
				"x": 2.8867353166,
				"y": -2.4485214604,
				"z": 0.0668306337,
				"element": "N" 
			},
			{
				"x": -0.1785309029,
				"y": 0.1440914513,
				"z": 0.4162676348,
				"element": "C" 
			},
			{
				"x": -1.4971437246,
				"y": 0.3522043636,
				"z": 0.8167478675,
				"element": "C" 
			},
			{
				"x": -4.0147464286,
				"y": 0.8498536726,
				"z": 1.466923618,
				"element": "H" 
			},
			{
				"x": -2.4341356598,
				"y": 2.7348016674,
				"z": -1.4120198566,
				"element": "H" 
			},
			{
				"x": -0.0557230745,
				"y": 2.3835192511,
				"z": -2.1478141876,
				"element": "H" 
			},
			{
				"x": 2.4936265436,
				"y": 0.0794069304,
				"z": 0.6194357979,
				"element": "H" 
			},
			{
				"x": 3.5209884953,
				"y": 0.307604379,
				"z": -0.7985119363,
				"element": "H" 
			},
			{
				"x": 1.3379149541,
				"y": -1.4739536648,
				"z": -2.7538275262,
				"element": "H" 
			},
			{
				"x": 3.011527813,
				"y": -4.5533647432,
				"z": 0.1282207705,
				"element": "H" 
			},
			{
				"x": 0.4275846674,
				"y": -0.5962245872,
				"z": 0.9236988346,
				"element": "H" 
			},
			{
				"x": -1.8985727062,
				"y": -0.2231591473,
				"z": 1.6480572365,
				"element": "H" 
			}
		],
		 "valence_orbital": [ 
			{
				"type": "occ",
				"energy": -0.29073,
				"method": "rhf"
			},
			{
				"type": "occ",
				"energy": -0.26803,
				"method": "rhf"
			},
			{
				"type": "occ",
				"energy": -0.25726,
				"method": "rhf"
			},
			{
				"type": "occ",
				"energy": -0.24777,
				"method": "rhf"
			},
			{
				"type": "occ",
				"energy": -0.23649,
				"method": "rhf"
			},
			{
				"type": "unocc",
				"energy": -0.05271,
				"method": "rhf"
			},
			{
				"type": "unocc",
				"energy": -0.03982,
				"method": "rhf"
			},
			{
				"type": "unocc",
				"energy": -0.01501,
				"method": "rhf"
			},
			{
				"type": "unocc",
				"energy": 0.00648,
				"method": "rhf"
			},
			{
				"type": "unocc",
				"energy": 0.02931,
				"method": "rhf"
			}
		],
		"cosmo_sigma_profile": { 
			"-0.025": 0.0,
			"-0.024": 0.0,
			"-0.023": 0.0,
			"-0.022": 0.0,
			"-0.021": 0.0,
			"-0.02": 0.0,
			"-0.019": 0.0,
			"-0.018": 0.0,
			"-0.017": 0.0,
			"-0.016": 0.0,
			"-0.015": 0.0,
			"-0.014": 0.0,
			"-0.013": 0.0,
			"-0.012": 0.0,
			"-0.011": 0.0,
			"-0.01": 1.490924445,
			"-0.009": 3.68862823934,
			"-0.008": 4.4257699447,
			"-0.007": 12.5395444114,
			"-0.006": 17.4101936938,
			"-0.005": 16.9186807376,
			"-0.004": 15.0878624056,
			"-0.003": 13.5289595011,
			"-0.002": 14.7883307976,
			"-0.001": 14.8261000614,
			"0.0": 18.9555029556,
			"0.001": 25.2072866856,
			"0.002": 25.1484791567,
			"0.003": 22.6714451493,
			"0.004": 8.83129484402,
			"0.005": 4.49235607912,
			"0.006": 2.58279356943,
			"0.007": 4.3608865218,
			"0.008": 3.50459987696,
			"0.009": 3.87310620306,
			"0.01": 3.35526043348,
			"0.011": 4.3975359806,
			"0.012": 5.16440954949,
			"0.013": 2.48122255543,
			"0.014": 0.83217291632,
			"0.015": 0.396702862483,
			"0.016": 0.0,
			"0.017": 0.0,
			"0.018": 0.0,
			"0.019": 0.0,
			"0.02": 0.0,
			"0.021": 0.0,
			"0.022": 0.0,
			"0.023": 0.0,
			"0.024": 0.0,
			"0.025": 0.0
		}
	}
}
