{
	 "smiles": "COC(=O)C(O)C1=CC(O)=CC=C1", 
	 "Tm": 398.15, 
	 "num_atms": 23, 
	 "gaussian": { 
		 "optdone": 1, 
		 "sigma_profile": "yes", 
		 "theory": "DFT", 
		 "functional": "B3LYP", 
		 "basiset": "6-31G**", 
		 "properties": { 
			 "R2extent": 3226.7917, 
			 "electric_dipole_moment_norm": 2.94552478686, 
			 "electric_quadrupole_moment_norm": 14.5053651026, 
			 "total_energy": -649.874454671, 
			 "HOMO_LUMO_gap": 0.20394, 
			 "cosmo_polarized_energy": -13.83, 
			 "cosmo_cavitation_energy": 27.44, 
			 "cosmo_dispersion_energy": -19.77, 
			 "cosmo_repulsion_energy": 1.59, 
			 "cosmo_total_nonelectrostatic_energy": 9.26, 
			 "SMD_solvation_energy": 6.55 
		},
		"coords": [
			{
				"x": -0.4037205827,
				"y": -0.8978331962,
				"z": -4.3896662497,
				"element": "C" 
			},
			{
				"x": -0.0573217462,
				"y": -0.0243252327,
				"z": -3.2965903008,
				"element": "O" 
			},
			{
				"x": -0.9498641702,
				"y": 0.9263219933,
				"z": -3.0078670512,
				"element": "C" 
			},
			{
				"x": -1.983910426,
				"y": 1.1131522015,
				"z": -3.6205231254,
				"element": "O" 
			},
			{
				"x": -0.5450940034,
				"y": 1.7921914778,
				"z": -1.8071102789,
				"element": "C" 
			},
			{
				"x": -1.3930724522,
				"y": 2.9130287998,
				"z": -1.7695867205,
				"element": "O" 
			},
			{
				"x": -0.5950944675,
				"y": 0.9698784777,
				"z": -0.5165550116,
				"element": "C" 
			},
			{
				"x": 0.4485928633,
				"y": 0.0966737176,
				"z": -0.2034161944,
				"element": "C" 
			},
			{
				"x": 0.3956702994,
				"y": -0.6643543977,
				"z": 0.9674076361,
				"element": "C" 
			},
			{
				"x": 1.4488185346,
				"y": -1.5003473706,
				"z": 1.2184919567,
				"element": "O" 
			},
			{
				"x": -0.7007199104,
				"y": -0.5517523669,
				"z": 1.8297291854,
				"element": "C" 
			},
			{
				"x": -1.7356032353,
				"y": 0.327361954,
				"z": 1.5111812736,
				"element": "C" 
			},
			{
				"x": -1.691478727,
				"y": 1.0889623539,
				"z": 0.3437230174,
				"element": "C" 
			},
			{
				"x": -0.5361148269,
				"y": -0.3227284202,
				"z": -5.3088350474,
				"element": "H" 
			},
			{
				"x": -1.3279053365,
				"y": -1.4359522047,
				"z": -4.1672116596,
				"element": "H" 
			},
			{
				"x": 0.4310468565,
				"y": -1.5910467878,
				"z": -4.4846990561,
				"element": "H" 
			},
			{
				"x": 0.4910563935,
				"y": 2.1193906529,
				"z": -1.9741339615,
				"element": "H" 
			},
			{
				"x": -2.0982543682,
				"y": 2.7304047805,
				"z": -2.4147111411,
				"element": "H" 
			},
			{
				"x": 1.3088276648,
				"y": -0.0099290988,
				"z": -0.856239917,
				"element": "H" 
			},
			{
				"x": 1.2980886683,
				"y": -1.9526503433,
				"z": 2.0584625992,
				"element": "H" 
			},
			{
				"x": -0.7388610323,
				"y": -1.1411855796,
				"z": 2.743653361,
				"element": "H" 
			},
			{
				"x": -2.5826692017,
				"y": 0.419621966,
				"z": 2.1850806319,
				"element": "H" 
			},
			{
				"x": -2.4796167939,
				"y": 1.7921166236,
				"z": 0.102916054,
				"element": "H" 
			}
		],
		 "valence_orbital": [ 
			{
				"type": "occ",
				"energy": -0.31845,
				"method": "rhf"
			},
			{
				"type": "occ",
				"energy": -0.29786,
				"method": "rhf"
			},
			{
				"type": "occ",
				"energy": -0.27499,
				"method": "rhf"
			},
			{
				"type": "occ",
				"energy": -0.24387,
				"method": "rhf"
			},
			{
				"type": "occ",
				"energy": -0.22002,
				"method": "rhf"
			},
			{
				"type": "unocc",
				"energy": -0.01608,
				"method": "rhf"
			},
			{
				"type": "unocc",
				"energy": 0.01072,
				"method": "rhf"
			},
			{
				"type": "unocc",
				"energy": 0.01828,
				"method": "rhf"
			},
			{
				"type": "unocc",
				"energy": 0.07074,
				"method": "rhf"
			},
			{
				"type": "unocc",
				"energy": 0.09705,
				"method": "rhf"
			}
		],
		"cosmo_sigma_profile": { 
			"-0.025": 0.0,
			"-0.024": 0.0,
			"-0.023": 0.0,
			"-0.022": 0.0,
			"-0.021": 0.0,
			"-0.02": 0.0,
			"-0.019": 0.0,
			"-0.018": 0.271071465396,
			"-0.017": 0.91453743657,
			"-0.016": 1.45080484701,
			"-0.015": 0.933034742095,
			"-0.014": 1.39367352413,
			"-0.013": 0.844899669395,
			"-0.012": 0.572389423073,
			"-0.011": 1.20397759387,
			"-0.01": 1.80783735075,
			"-0.009": 1.94876810973,
			"-0.008": 1.60520851533,
			"-0.007": 6.47537953253,
			"-0.006": 13.6430209963,
			"-0.005": 16.7335691367,
			"-0.004": 19.8545090045,
			"-0.003": 16.7646248055,
			"-0.002": 11.2430506918,
			"-0.001": 11.1644962856,
			"0.0": 9.30278711797,
			"0.001": 10.7922577017,
			"0.002": 8.4266957646,
			"0.003": 11.9609737707,
			"0.004": 16.1864922878,
			"0.005": 14.8883825468,
			"0.006": 8.90641319232,
			"0.007": 4.55027876211,
			"0.008": 2.88625811136,
			"0.009": 5.57614551645,
			"0.01": 5.86747051906,
			"0.011": 4.55447319065,
			"0.012": 2.34583498192,
			"0.013": 1.87459609985,
			"0.014": 0.504055809557,
			"0.015": 0.0,
			"0.016": 0.0,
			"0.017": 0.0,
			"0.018": 0.0,
			"0.019": 0.0,
			"0.02": 0.0,
			"0.021": 0.0,
			"0.022": 0.0,
			"0.023": 0.0,
			"0.024": 0.0,
			"0.025": 0.0
		}
	}
}
