{
	 "smiles": "CC1(C)CC(=O)C2=C(C1)NC1=C(C2C2=C(Cl)C=C(Cl)C=C2)C2=C(C=CC=C2)C=C1", 
	 "Tm": 621.15, 
	 "num_atms": 50, 
	 "gaussian": { 
		 "optdone": 1, 
		 "sigma_profile": "yes", 
		 "theory": "DFT", 
		 "functional": "B3LYP", 
		 "basiset": "6-31G**", 
		 "properties": { 
			 "R2extent": 13018.3868, 
			 "electric_dipole_moment_norm": 5.46520492388, 
			 "electric_quadrupole_moment_norm": 17.3336421747, 
			 "total_energy": -2015.71492356, 
			 "HOMO_LUMO_gap": 0.14676, 
			 "cosmo_polarized_energy": -18.31, 
			 "cosmo_cavitation_energy": 52.93, 
			 "cosmo_dispersion_energy": -36.04, 
			 "cosmo_repulsion_energy": 2.68, 
			 "cosmo_total_nonelectrostatic_energy": 19.56, 
			 "SMD_solvation_energy": 7.82 
		},
		"coords": [
			{
				"x": 0.7378412827,
				"y": -3.5120357521,
				"z": 3.8758790557,
				"element": "C" 
			},
			{
				"x": 0.2649519605,
				"y": -2.7810682284,
				"z": 2.6083192815,
				"element": "C" 
			},
			{
				"x": -0.5720139197,
				"y": -3.7500701737,
				"z": 1.7494321637,
				"element": "C" 
			},
			{
				"x": -0.5748383473,
				"y": -1.5449265678,
				"z": 2.9937388464,
				"element": "C" 
			},
			{
				"x": -0.9121434464,
				"y": -0.6176695546,
				"z": 1.8283625054,
				"element": "C" 
			},
			{
				"x": -1.9710857457,
				"y": 0.0113014968,
				"z": 1.8204482417,
				"element": "O" 
			},
			{
				"x": 0.0658320057,
				"y": -0.4924362274,
				"z": 0.7514104222,
				"element": "C" 
			},
			{
				"x": 1.1426067735,
				"y": -1.3302496153,
				"z": 0.702659299,
				"element": "C" 
			},
			{
				"x": 1.496685487,
				"y": -2.2862612142,
				"z": 1.8145906645,
				"element": "C" 
			},
			{
				"x": 1.9663654823,
				"y": -1.3340868128,
				"z": -0.3872569798,
				"element": "N" 
			},
			{
				"x": 1.6651303975,
				"y": -0.6393448592,
				"z": -1.5639061719,
				"element": "C" 
			},
			{
				"x": 0.6077763347,
				"y": 0.2595320529,
				"z": -1.5979370285,
				"element": "C" 
			},
			{
				"x": -0.2061746447,
				"y": 0.5400385411,
				"z": -0.3335452253,
				"element": "C" 
			},
			{
				"x": -0.079694946,
				"y": 1.9763259662,
				"z": 0.219490436,
				"element": "C" 
			},
			{
				"x": 1.114379051,
				"y": 2.6262507296,
				"z": 0.5644921529,
				"element": "C" 
			},
			{
				"x": 2.6826638461,
				"y": 1.8330577719,
				"z": 0.4257420813,
				"element": "Cl" 
			},
			{
				"x": 1.1412263603,
				"y": 3.9320348305,
				"z": 1.0616372439,
				"element": "C" 
			},
			{
				"x": -0.0589682563,
				"y": 4.6098661899,
				"z": 1.2427105063,
				"element": "C" 
			},
			{
				"x": -0.0322310837,
				"y": 6.2519649652,
				"z": 1.8670070389,
				"element": "Cl" 
			},
			{
				"x": -1.2745399176,
				"y": 3.9980618594,
				"z": 0.9461988641,
				"element": "C" 
			},
			{
				"x": -1.2627684115,
				"y": 2.7000218014,
				"z": 0.4463936409,
				"element": "C" 
			},
			{
				"x": 0.2874435003,
				"y": 0.8843208619,
				"z": -2.8471462692,
				"element": "C" 
			},
			{
				"x": 1.0831044185,
				"y": 0.6053631414,
				"z": -4.0107225292,
				"element": "C" 
			},
			{
				"x": 0.7645970363,
				"y": 1.2233452699,
				"z": -5.2472953855,
				"element": "C" 
			},
			{
				"x": -0.3039038305,
				"y": 2.0841590457,
				"z": -5.3568638437,
				"element": "C" 
			},
			{
				"x": -1.0959505769,
				"y": 2.3590820609,
				"z": -4.2191774683,
				"element": "C" 
			},
			{
				"x": -0.8076147064,
				"y": 1.7811408674,
				"z": -3.0015402219,
				"element": "C" 
			},
			{
				"x": 2.1757794974,
				"y": -0.2950397633,
				"z": -3.9013254728,
				"element": "C" 
			},
			{
				"x": 2.4567067845,
				"y": -0.9091128082,
				"z": -2.7107078463,
				"element": "C" 
			},
			{
				"x": -0.1176233219,
				"y": -3.8639924934,
				"z": 4.4621776089,
				"element": "H" 
			},
			{
				"x": 1.3499756849,
				"y": -4.385813597,
				"z": 3.6234642798,
				"element": "H" 
			},
			{
				"x": 1.335827829,
				"y": -2.8550025124,
				"z": 4.5172557347,
				"element": "H" 
			},
			{
				"x": 0.0140472794,
				"y": -4.6350320764,
				"z": 1.4761377004,
				"element": "H" 
			},
			{
				"x": -1.4515956283,
				"y": -4.0917881335,
				"z": 2.304925984,
				"element": "H" 
			},
			{
				"x": -0.9231165858,
				"y": -3.2786678584,
				"z": 0.8268739155,
				"element": "H" 
			},
			{
				"x": -1.5162213338,
				"y": -1.8334409331,
				"z": 3.4715829813,
				"element": "H" 
			},
			{
				"x": -0.0180080689,
				"y": -0.9438626339,
				"z": 3.7281714839,
				"element": "H" 
			},
			{
				"x": 2.1872039227,
				"y": -1.7742403191,
				"z": 2.5002294099,
				"element": "H" 
			},
			{
				"x": 2.045290907,
				"y": -3.1456105262,
				"z": 1.4054186742,
				"element": "H" 
			},
			{
				"x": 2.7302585983,
				"y": -1.9921153271,
				"z": -0.4132497895,
				"element": "H" 
			},
			{
				"x": -1.2688291295,
				"y": 0.4453775544,
				"z": -0.5875850647,
				"element": "H" 
			},
			{
				"x": 2.086040627,
				"y": 4.4014188383,
				"z": 1.3058735412,
				"element": "H" 
			},
			{
				"x": -2.2089266221,
				"y": 4.5227484529,
				"z": 1.1092398482,
				"element": "H" 
			},
			{
				"x": -2.2074842233,
				"y": 2.2051213028,
				"z": 0.2469898376,
				"element": "H" 
			},
			{
				"x": 1.3830241193,
				"y": 0.9983784434,
				"z": -6.1127288664,
				"element": "H" 
			},
			{
				"x": -0.5391771484,
				"y": 2.5507003617,
				"z": -6.308777652,
				"element": "H" 
			},
			{
				"x": -1.9402308381,
				"y": 3.0374314757,
				"z": -4.3034479247,
				"element": "H" 
			},
			{
				"x": -1.4253712449,
				"y": 2.0236645935,
				"z": -2.1467303298,
				"element": "H" 
			},
			{
				"x": 2.7811673345,
				"y": -0.4997417347,
				"z": -4.7800282539,
				"element": "H" 
			},
			{
				"x": 3.2837854571,
				"y": -1.6107987527,
				"z": -2.6310811211,
				"element": "H" 
			}
		],
		 "valence_orbital": [ 
			{
				"type": "occ",
				"energy": -0.24933,
				"method": "rhf"
			},
			{
				"type": "occ",
				"energy": -0.24045,
				"method": "rhf"
			},
			{
				"type": "occ",
				"energy": -0.22633,
				"method": "rhf"
			},
			{
				"type": "occ",
				"energy": -0.22406,
				"method": "rhf"
			},
			{
				"type": "occ",
				"energy": -0.19664,
				"method": "rhf"
			},
			{
				"type": "unocc",
				"energy": -0.04988,
				"method": "rhf"
			},
			{
				"type": "unocc",
				"energy": -0.02998,
				"method": "rhf"
			},
			{
				"type": "unocc",
				"energy": -0.0134,
				"method": "rhf"
			},
			{
				"type": "unocc",
				"energy": -0.00933,
				"method": "rhf"
			},
			{
				"type": "unocc",
				"energy": 0.00042,
				"method": "rhf"
			}
		],
		"cosmo_sigma_profile": { 
			"-0.025": 0.0,
			"-0.024": 0.0,
			"-0.023": 0.0,
			"-0.022": 0.0,
			"-0.021": 0.0,
			"-0.02": 0.0,
			"-0.019": 0.0,
			"-0.018": 0.0,
			"-0.017": 0.0,
			"-0.016": 0.0737188531979,
			"-0.015": 1.14230962003,
			"-0.014": 1.47739168949,
			"-0.013": 1.73541869124,
			"-0.012": 1.5192390736,
			"-0.011": 1.16974586244,
			"-0.01": 1.87894281905,
			"-0.009": 1.58005549445,
			"-0.008": 3.24363315843,
			"-0.007": 6.93204258951,
			"-0.006": 15.320288328,
			"-0.005": 22.5142915593,
			"-0.004": 27.5988055571,
			"-0.003": 39.0297122676,
			"-0.002": 32.198267598,
			"-0.001": 31.6846455989,
			"0.0": 34.1610100018,
			"0.001": 41.1659815954,
			"0.002": 38.1713312484,
			"0.003": 34.9667136141,
			"0.004": 39.153983175,
			"0.005": 24.3891219895,
			"0.006": 5.6892874386,
			"0.007": 1.89594886281,
			"0.008": 1.6887813622,
			"0.009": 1.95196926181,
			"0.01": 1.5923435566,
			"0.011": 1.65586799553,
			"0.012": 2.25299077816,
			"0.013": 2.21019722311,
			"0.014": 2.07876140118,
			"0.015": 1.71004056721,
			"0.016": 0.145701465269,
			"0.017": 0.0,
			"0.018": 0.0,
			"0.019": 0.0,
			"0.02": 0.0,
			"0.021": 0.0,
			"0.022": 0.0,
			"0.023": 0.0,
			"0.024": 0.0,
			"0.025": 0.0
		}
	}
}
