{
	 "smiles": "CC1CCCC(=O)C1", 
	 "Tm": 200.15, 
	 "num_atms": 20, 
	 "gaussian": { 
		 "optdone": 1, 
		 "sigma_profile": "yes", 
		 "theory": "DFT", 
		 "functional": "B3LYP", 
		 "basiset": "6-31G**", 
		 "properties": { 
			 "R2extent": 2022.1629, 
			 "electric_dipole_moment_norm": 3.07490434811, 
			 "electric_quadrupole_moment_norm": 13.1390647023, 
			 "total_energy": -349.217004956, 
			 "HOMO_LUMO_gap": 0.22283, 
			 "cosmo_polarized_energy": -6.77, 
			 "cosmo_cavitation_energy": 21.28, 
			 "cosmo_dispersion_energy": -15.83, 
			 "cosmo_repulsion_energy": 1.33, 
			 "cosmo_total_nonelectrostatic_energy": 6.78, 
			 "SMD_solvation_energy": 3.77 
		},
		"coords": [
			{
				"x": 0.6952033794,
				"y": 1.5820753858,
				"z": 0.8986231643,
				"element": "C" 
			},
			{
				"x": 1.2519793456,
				"y": 0.3639411512,
				"z": 0.1537751152,
				"element": "C" 
			},
			{
				"x": 2.6522227428,
				"y": -0.032060419,
				"z": 0.6538866419,
				"element": "C" 
			},
			{
				"x": 3.2006542802,
				"y": -1.2601827124,
				"z": -0.0860276285,
				"element": "C" 
			},
			{
				"x": 3.2401533137,
				"y": -1.0359905596,
				"z": -1.6114004865,
				"element": "C" 
			},
			{
				"x": 1.8979469614,
				"y": -0.5509591998,
				"z": -2.1436090855,
				"element": "C" 
			},
			{
				"x": 1.3602114332,
				"y": -1.0507572982,
				"z": -3.1138854391,
				"element": "O" 
			},
			{
				"x": 1.2770756693,
				"y": 0.607486798,
				"z": -1.3736505069,
				"element": "C" 
			},
			{
				"x": 0.6351455535,
				"y": 1.3933051434,
				"z": 1.9759564296,
				"element": "H" 
			},
			{
				"x": 1.3358786948,
				"y": 2.4594926726,
				"z": 0.7482967866,
				"element": "H" 
			},
			{
				"x": -0.3093979092,
				"y": 1.839315779,
				"z": 0.5465021017,
				"element": "H" 
			},
			{
				"x": 0.5795998865,
				"y": -0.4869376935,
				"z": 0.3412044738,
				"element": "H" 
			},
			{
				"x": 2.6166327184,
				"y": -0.2299842065,
				"z": 1.7321187692,
				"element": "H" 
			},
			{
				"x": 3.3370372709,
				"y": 0.8181339722,
				"z": 0.5160106418,
				"element": "H" 
			},
			{
				"x": 4.2040499943,
				"y": -1.5105634706,
				"z": 0.2760704873,
				"element": "H" 
			},
			{
				"x": 2.5652891057,
				"y": -2.1286600827,
				"z": 0.1325988964,
				"element": "H" 
			},
			{
				"x": 3.5246297909,
				"y": -1.9398322247,
				"z": -2.1563430814,
				"element": "H" 
			},
			{
				"x": 3.9856453013,
				"y": -0.259350538,
				"z": -1.8390217564,
				"element": "H" 
			},
			{
				"x": 1.884353713,
				"y": 1.5042606845,
				"z": -1.5736802554,
				"element": "H" 
			},
			{
				"x": 0.2752887544,
				"y": 0.7907668184,
				"z": -1.7727252681,
				"element": "H" 
			}
		],
		 "valence_orbital": [ 
			{
				"type": "occ",
				"energy": -0.34493,
				"method": "rhf"
			},
			{
				"type": "occ",
				"energy": -0.32898,
				"method": "rhf"
			},
			{
				"type": "occ",
				"energy": -0.32255,
				"method": "rhf"
			},
			{
				"type": "occ",
				"energy": -0.31822,
				"method": "rhf"
			},
			{
				"type": "occ",
				"energy": -0.23384,
				"method": "rhf"
			},
			{
				"type": "unocc",
				"energy": -0.01101,
				"method": "rhf"
			},
			{
				"type": "unocc",
				"energy": 0.083,
				"method": "rhf"
			},
			{
				"type": "unocc",
				"energy": 0.10521,
				"method": "rhf"
			},
			{
				"type": "unocc",
				"energy": 0.10913,
				"method": "rhf"
			},
			{
				"type": "unocc",
				"energy": 0.13901,
				"method": "rhf"
			}
		],
		"cosmo_sigma_profile": { 
			"-0.025": 0.0,
			"-0.024": 0.0,
			"-0.023": 0.0,
			"-0.022": 0.0,
			"-0.021": 0.0,
			"-0.02": 0.0,
			"-0.019": 0.0,
			"-0.018": 0.0,
			"-0.017": 0.0,
			"-0.016": 0.0,
			"-0.015": 0.0,
			"-0.014": 0.0,
			"-0.013": 0.0,
			"-0.012": 0.0,
			"-0.011": 0.0,
			"-0.01": 0.0,
			"-0.009": 0.0,
			"-0.008": 0.0,
			"-0.007": 0.00779468376667,
			"-0.006": 1.77982776501,
			"-0.005": 6.01221581126,
			"-0.004": 10.7951725925,
			"-0.003": 25.8689309757,
			"-0.002": 29.6846239495,
			"-0.001": 28.2312065232,
			"0.0": 19.8815433831,
			"0.001": 14.2564953962,
			"0.002": 3.5229189279,
			"0.003": 1.01410355947,
			"0.004": 1.76935916177,
			"0.005": 1.44534147443,
			"0.006": 1.34825120678,
			"0.007": 1.6828535027,
			"0.008": 1.16844157294,
			"0.009": 2.09168002436,
			"0.01": 1.80628527401,
			"0.011": 2.81370818962,
			"0.012": 4.38301064231,
			"0.013": 3.59967061245,
			"0.014": 1.06842411808,
			"0.015": 0.0,
			"0.016": 0.0,
			"0.017": 0.0,
			"0.018": 0.0,
			"0.019": 0.0,
			"0.02": 0.0,
			"0.021": 0.0,
			"0.022": 0.0,
			"0.023": 0.0,
			"0.024": 0.0,
			"0.025": 0.0
		}
	}
}
