{
	 "smiles": "OC(=O)C1(CC1)C(O)=O", 
	 "Tm": 409.15, 
	 "num_atms": 15, 
	 "gaussian": { 
		 "optdone": 1, 
		 "sigma_profile": "yes", 
		 "theory": "DFT", 
		 "functional": "B3LYP", 
		 "basiset": "6-31G**", 
		 "properties": { 
			 "R2extent": 1799.8985, 
			 "electric_dipole_moment_norm": 3.41639259746, 
			 "electric_quadrupole_moment_norm": 17.9923207038, 
			 "total_energy": -495.0408549, 
			 "HOMO_LUMO_gap": 0.25021, 
			 "cosmo_polarized_energy": -14.43, 
			 "cosmo_cavitation_energy": 19.14, 
			 "cosmo_dispersion_energy": -14.38, 
			 "cosmo_repulsion_energy": 1.17, 
			 "cosmo_total_nonelectrostatic_energy": 5.94, 
			 "SMD_solvation_energy": 5.6 
		},
		"coords": [
			{
				"x": 2.1815188175,
				"y": 0.3545368319,
				"z": -1.6452897026,
				"element": "O" 
			},
			{
				"x": 0.8798880797,
				"y": 0.0134387037,
				"z": -1.3957036764,
				"element": "C" 
			},
			{
				"x": -0.0288741249,
				"y": 0.7202888835,
				"z": -1.7702241569,
				"element": "O" 
			},
			{
				"x": 0.721410771,
				"y": -1.2652282026,
				"z": -0.647182938,
				"element": "C" 
			},
			{
				"x": -0.570720244,
				"y": -2.0334986055,
				"z": -1.0041209884,
				"element": "C" 
			},
			{
				"x": -0.5222415918,
				"y": -1.2943953178,
				"z": 0.2689754223,
				"element": "C" 
			},
			{
				"x": 1.8568338319,
				"y": -2.1560256093,
				"z": -0.1731650211,
				"element": "C" 
			},
			{
				"x": 3.1222944258,
				"y": -1.7920438319,
				"z": -0.4326253192,
				"element": "O" 
			},
			{
				"x": 1.6196207152,
				"y": -3.1791975193,
				"z": 0.4301650887,
				"element": "O" 
			},
			{
				"x": 2.1666107036,
				"y": 1.1953535606,
				"z": -2.1325510804,
				"element": "H" 
			},
			{
				"x": -0.464647244,
				"y": -3.1115795,
				"z": -0.9728680023,
				"element": "H" 
			},
			{
				"x": -1.1439945291,
				"y": -1.6140043648,
				"z": -1.8230782769,
				"element": "H" 
			},
			{
				"x": -1.0617219144,
				"y": -0.356926719,
				"z": 0.3425804305,
				"element": "H" 
			},
			{
				"x": -0.3826277045,
				"y": -1.8602135124,
				"z": 1.1826744982,
				"element": "H" 
			},
			{
				"x": 3.143550008,
				"y": -0.9509047969,
				"z": -0.9223862775,
				"element": "H" 
			}
		],
		 "valence_orbital": [ 
			{
				"type": "occ",
				"energy": -0.33757,
				"method": "rhf"
			},
			{
				"type": "occ",
				"energy": -0.32053,
				"method": "rhf"
			},
			{
				"type": "occ",
				"energy": -0.3142,
				"method": "rhf"
			},
			{
				"type": "occ",
				"energy": -0.3031,
				"method": "rhf"
			},
			{
				"type": "occ",
				"energy": -0.27165,
				"method": "rhf"
			},
			{
				"type": "unocc",
				"energy": -0.02144,
				"method": "rhf"
			},
			{
				"type": "unocc",
				"energy": 0.00558,
				"method": "rhf"
			},
			{
				"type": "unocc",
				"energy": 0.04554,
				"method": "rhf"
			},
			{
				"type": "unocc",
				"energy": 0.10106,
				"method": "rhf"
			},
			{
				"type": "unocc",
				"energy": 0.11911,
				"method": "rhf"
			}
		],
		"cosmo_sigma_profile": { 
			"-0.025": 0.0,
			"-0.024": 0.0,
			"-0.023": 0.0,
			"-0.022": 0.0,
			"-0.021": 0.0,
			"-0.02": 0.425494342166,
			"-0.019": 1.05885489635,
			"-0.018": 1.1286589088,
			"-0.017": 0.488003146478,
			"-0.016": 0.556415254683,
			"-0.015": 0.44901960464,
			"-0.014": 0.671738562054,
			"-0.013": 1.16727076792,
			"-0.012": 0.714793622377,
			"-0.011": 0.677158944205,
			"-0.01": 1.02344564052,
			"-0.009": 1.57029882779,
			"-0.008": 2.95714150865,
			"-0.007": 4.67119860228,
			"-0.006": 7.76396732091,
			"-0.005": 10.4713884681,
			"-0.004": 12.6040721773,
			"-0.003": 15.0402810595,
			"-0.002": 12.5194450756,
			"-0.001": 9.49570270201,
			"0.0": 7.55514938244,
			"0.001": 6.03882201014,
			"0.002": 5.06952275916,
			"0.003": 4.18355373672,
			"0.004": 3.30336178691,
			"0.005": 2.41500946342,
			"0.006": 3.01252616064,
			"0.007": 4.07067060624,
			"0.008": 4.39221735749,
			"0.009": 4.05848146807,
			"0.01": 6.87818081724,
			"0.011": 9.03202436446,
			"0.012": 4.40974745623,
			"0.013": 1.97250530996,
			"0.014": 0.182558008581,
			"0.015": 0.0,
			"0.016": 0.0,
			"0.017": 0.0,
			"0.018": 0.0,
			"0.019": 0.0,
			"0.02": 0.0,
			"0.021": 0.0,
			"0.022": 0.0,
			"0.023": 0.0,
			"0.024": 0.0,
			"0.025": 0.0
		}
	}
}
