{
	 "smiles": "NC1=C(N)C=C(C(Cl)=C1)[N+]([O-])=O", 
	 "Tm": 464.15, 
	 "num_atms": 18, 
	 "gaussian": { 
		 "optdone": 1, 
		 "sigma_profile": "yes", 
		 "theory": "DFT", 
		 "functional": "B3LYP", 
		 "basiset": "6-31G**", 
		 "properties": { 
			 "R2extent": 2700.9209, 
			 "electric_dipole_moment_norm": 7.46062062633, 
			 "electric_quadrupole_moment_norm": 9.26542727185, 
			 "total_energy": -1007.04659939, 
			 "HOMO_LUMO_gap": 0.14632, 
			 "cosmo_polarized_energy": -18.36, 
			 "cosmo_cavitation_energy": 24.51, 
			 "cosmo_dispersion_energy": -18.54, 
			 "cosmo_repulsion_energy": 1.48, 
			 "cosmo_total_nonelectrostatic_energy": 7.46, 
			 "SMD_solvation_energy": 6.14 
		},
		"coords": [
			{
				"x": 0.9025060422,
				"y": -0.6277497864,
				"z": 2.8498020817,
				"element": "N" 
			},
			{
				"x": 0.4258515866,
				"y": -0.6499096019,
				"z": 1.5473394061,
				"element": "C" 
			},
			{
				"x": 1.2056738838,
				"y": -0.0280520795,
				"z": 0.5364165089,
				"element": "C" 
			},
			{
				"x": 2.4435849452,
				"y": 0.5258892584,
				"z": 0.9138374544,
				"element": "N" 
			},
			{
				"x": 0.7423988288,
				"y": -0.0441414377,
				"z": -0.7682894678,
				"element": "C" 
			},
			{
				"x": -0.4849044234,
				"y": -0.6336257254,
				"z": -1.1090476049,
				"element": "C" 
			},
			{
				"x": -1.2747180334,
				"y": -1.2197347379,
				"z": -0.1072191684,
				"element": "C" 
			},
			{
				"x": -2.794887507,
				"y": -2.0324162982,
				"z": -0.3833031907,
				"element": "Cl" 
			},
			{
				"x": -0.8001125058,
				"y": -1.2260420631,
				"z": 1.2056015543,
				"element": "C" 
			},
			{
				"x": -0.8635783146,
				"y": -0.5586872155,
				"z": -2.520847933,
				"element": "N" 
			},
			{
				"x": 0.0364370867,
				"y": -0.3056886085,
				"z": -3.329206506,
				"element": "O" 
			},
			{
				"x": -2.0406281729,
				"y": -0.7285312547,
				"z": -2.8294288755,
				"element": "O" 
			},
			{
				"x": 0.4294413417,
				"y": -1.2426136549,
				"z": 3.4979489769,
				"element": "H" 
			},
			{
				"x": 1.9124060934,
				"y": -0.6919397522,
				"z": 2.9149081925,
				"element": "H" 
			},
			{
				"x": 2.3600400503,
				"y": 1.1732982914,
				"z": 1.692774461,
				"element": "H" 
			},
			{
				"x": 2.9301038973,
				"y": 0.9726270819,
				"z": 0.1460019191,
				"element": "H" 
			},
			{
				"x": 1.3163154911,
				"y": 0.410160772,
				"z": -1.5670824867,
				"element": "H" 
			},
			{
				"x": -1.39593029,
				"y": -1.7130431876,
				"z": 1.9702946783,
				"element": "H" 
			}
		],
		 "valence_orbital": [ 
			{
				"type": "occ",
				"energy": -0.29478,
				"method": "rhf"
			},
			{
				"type": "occ",
				"energy": -0.29184,
				"method": "rhf"
			},
			{
				"type": "occ",
				"energy": -0.27179,
				"method": "rhf"
			},
			{
				"type": "occ",
				"energy": -0.25079,
				"method": "rhf"
			},
			{
				"type": "occ",
				"energy": -0.22106,
				"method": "rhf"
			},
			{
				"type": "unocc",
				"energy": -0.07474,
				"method": "rhf"
			},
			{
				"type": "unocc",
				"energy": -0.01829,
				"method": "rhf"
			},
			{
				"type": "unocc",
				"energy": 0.0129,
				"method": "rhf"
			},
			{
				"type": "unocc",
				"energy": 0.02192,
				"method": "rhf"
			},
			{
				"type": "unocc",
				"energy": 0.05211,
				"method": "rhf"
			}
		],
		"cosmo_sigma_profile": { 
			"-0.025": 0.0,
			"-0.024": 0.0,
			"-0.023": 0.0,
			"-0.022": 0.0,
			"-0.021": 0.0,
			"-0.02": 0.0,
			"-0.019": 0.0,
			"-0.018": 0.0,
			"-0.017": 0.0,
			"-0.016": 0.0,
			"-0.015": 0.0,
			"-0.014": 0.83857042991,
			"-0.013": 3.37035724752,
			"-0.012": 5.8005150105,
			"-0.011": 5.26144741686,
			"-0.01": 7.06116563843,
			"-0.009": 5.59136753231,
			"-0.008": 5.21520798349,
			"-0.007": 5.24426898008,
			"-0.006": 4.39665662336,
			"-0.005": 5.44829707164,
			"-0.004": 6.51660717354,
			"-0.003": 7.0253978913,
			"-0.002": 9.13005826727,
			"-0.001": 9.5038524837,
			"0.0": 10.9253319477,
			"0.001": 18.9941036078,
			"0.002": 19.0889726668,
			"0.003": 10.196632174,
			"0.004": 10.8208446944,
			"0.005": 6.05098488549,
			"0.006": 5.54164917142,
			"0.007": 5.29114642929,
			"0.008": 9.63941709723,
			"0.009": 10.7511219692,
			"0.01": 5.77300829766,
			"0.011": 3.06425521984,
			"0.012": 0.486276937604,
			"0.013": 0.34626411166,
			"0.014": 0.0309668480254,
			"0.015": 0.0,
			"0.016": 0.0,
			"0.017": 0.0,
			"0.018": 0.0,
			"0.019": 0.0,
			"0.02": 0.0,
			"0.021": 0.0,
			"0.022": 0.0,
			"0.023": 0.0,
			"0.024": 0.0,
			"0.025": 0.0
		}
	}
}
