{
	 "smiles": "O=CC1=CC=C(CN2C=NC=N2)C=C1", 
	 "Tm": 347.15, 
	 "num_atms": 23, 
	 "gaussian": { 
		 "optdone": 1, 
		 "sigma_profile": "yes", 
		 "theory": "DFT", 
		 "functional": "B3LYP", 
		 "basiset": "6-31G**", 
		 "properties": { 
			 "R2extent": 3872.5253, 
			 "electric_dipole_moment_norm": 2.05276485502, 
			 "electric_quadrupole_moment_norm": 23.9227226665, 
			 "total_energy": -625.939924463, 
			 "HOMO_LUMO_gap": 0.18871, 
			 "cosmo_polarized_energy": -15.58, 
			 "cosmo_cavitation_energy": 28.35, 
			 "cosmo_dispersion_energy": -20.16, 
			 "cosmo_repulsion_energy": 1.56, 
			 "cosmo_total_nonelectrostatic_energy": 9.75, 
			 "SMD_solvation_energy": 4.0 
		},
		"coords": [
			{
				"x": -4.678475315,
				"y": 2.7079130923,
				"z": 0.813913016,
				"element": "O" 
			},
			{
				"x": -3.5304509177,
				"y": 2.8988738908,
				"z": 0.4608099541,
				"element": "C" 
			},
			{
				"x": -2.5093499406,
				"y": 1.8357623125,
				"z": 0.3148157278,
				"element": "C" 
			},
			{
				"x": -2.8362110775,
				"y": 0.5005017906,
				"z": 0.5882532065,
				"element": "C" 
			},
			{
				"x": -1.8729753329,
				"y": -0.4919838562,
				"z": 0.4442428183,
				"element": "C" 
			},
			{
				"x": -0.5715670437,
				"y": -0.168820607,
				"z": 0.0329230772,
				"element": "C" 
			},
			{
				"x": 0.4778026301,
				"y": -1.2612544515,
				"z": -0.0827358259,
				"element": "C" 
			},
			{
				"x": 1.2291787278,
				"y": -1.230468243,
				"z": -1.3320585278,
				"element": "N" 
			},
			{
				"x": 0.9694465642,
				"y": -1.8411027913,
				"z": -2.5114219545,
				"element": "C" 
			},
			{
				"x": 1.8715916192,
				"y": -1.5041147738,
				"z": -3.4174717937,
				"element": "N" 
			},
			{
				"x": 2.6788004144,
				"y": -0.6536555689,
				"z": -2.7249097206,
				"element": "C" 
			},
			{
				"x": 2.3367994826,
				"y": -0.4513606995,
				"z": -1.4592499629,
				"element": "N" 
			},
			{
				"x": -0.2448394889,
				"y": 1.167133725,
				"z": -0.2374492141,
				"element": "C" 
			},
			{
				"x": -1.2104724893,
				"y": 2.1603442169,
				"z": -0.0994319266,
				"element": "C" 
			},
			{
				"x": -3.1698867968,
				"y": 3.9234898259,
				"z": 0.2189043897,
				"element": "H" 
			},
			{
				"x": -3.8480865969,
				"y": 0.2673493299,
				"z": 0.9041734265,
				"element": "H" 
			},
			{
				"x": -2.1298017963,
				"y": -1.527963261,
				"z": 0.651695664,
				"element": "H" 
			},
			{
				"x": 0.010022086,
				"y": -2.2458836471,
				"z": 0.001896061,
				"element": "H" 
			},
			{
				"x": 1.2158257516,
				"y": -1.1740511248,
				"z": 0.7201878922,
				"element": "H" 
			},
			{
				"x": 0.1343319165,
				"y": -2.5131086628,
				"z": -2.6553857678,
				"element": "H" 
			},
			{
				"x": 3.546279305,
				"y": -0.1759494515,
				"z": -3.1591821682,
				"element": "H" 
			},
			{
				"x": 0.7618226674,
				"y": 1.4150533221,
				"z": -0.5593304769,
				"element": "H" 
			},
			{
				"x": -0.9583843693,
				"y": 3.1968956324,
				"z": -0.3113878943,
				"element": "H" 
			}
		],
		 "valence_orbital": [ 
			{
				"type": "occ",
				"energy": -0.2825,
				"method": "rhf"
			},
			{
				"type": "occ",
				"energy": -0.27543,
				"method": "rhf"
			},
			{
				"type": "occ",
				"energy": -0.27372,
				"method": "rhf"
			},
			{
				"type": "occ",
				"energy": -0.26582,
				"method": "rhf"
			},
			{
				"type": "occ",
				"energy": -0.26062,
				"method": "rhf"
			},
			{
				"type": "unocc",
				"energy": -0.07191,
				"method": "rhf"
			},
			{
				"type": "unocc",
				"energy": -0.02439,
				"method": "rhf"
			},
			{
				"type": "unocc",
				"energy": -0.00262,
				"method": "rhf"
			},
			{
				"type": "unocc",
				"energy": 0.0264,
				"method": "rhf"
			},
			{
				"type": "unocc",
				"energy": 0.04685,
				"method": "rhf"
			}
		],
		"cosmo_sigma_profile": { 
			"-0.025": 0.0,
			"-0.024": 0.0,
			"-0.023": 0.0,
			"-0.022": 0.0,
			"-0.021": 0.0,
			"-0.02": 0.0,
			"-0.019": 0.0,
			"-0.018": 0.0,
			"-0.017": 0.0,
			"-0.016": 0.0,
			"-0.015": 0.0,
			"-0.014": 0.0,
			"-0.013": 0.0,
			"-0.012": 0.100945489033,
			"-0.011": 0.966423567265,
			"-0.01": 4.79310433131,
			"-0.009": 4.61984457371,
			"-0.008": 7.26440346543,
			"-0.007": 13.0788613282,
			"-0.006": 14.339991677,
			"-0.005": 15.2079166926,
			"-0.004": 14.0732965279,
			"-0.003": 12.5629334781,
			"-0.002": 11.7442735504,
			"-0.001": 13.2466459149,
			"0.0": 15.5049623857,
			"0.001": 16.8086097351,
			"0.002": 16.3060964136,
			"0.003": 18.355389095,
			"0.004": 5.97171371195,
			"0.005": 4.38813323895,
			"0.006": 4.01843170227,
			"0.007": 4.04951484344,
			"0.008": 3.51871297934,
			"0.009": 5.08356373144,
			"0.01": 4.45257177653,
			"0.011": 5.99249601951,
			"0.012": 4.73976725165,
			"0.013": 2.54311254794,
			"0.014": 1.99757314408,
			"0.015": 0.955165384093,
			"0.016": 1.13053558089,
			"0.017": 0.259715741901,
			"0.018": 0.0,
			"0.019": 0.0,
			"0.02": 0.0,
			"0.021": 0.0,
			"0.022": 0.0,
			"0.023": 0.0,
			"0.024": 0.0,
			"0.025": 0.0
		}
	}
}
