{
	 "smiles": "CCOC(=O)COC1=C(OC)C=C(C=C1)C#N", 
	 "Tm": 343.15, 
	 "num_atms": 30, 
	 "gaussian": { 
		 "optdone": 1, 
		 "sigma_profile": "yes", 
		 "theory": "DFT", 
		 "functional": "B3LYP", 
		 "basiset": "6-31G**", 
		 "properties": { 
			 "R2extent": 4948.215, 
			 "electric_dipole_moment_norm": 4.12210858906, 
			 "electric_quadrupole_moment_norm": 27.8726936353, 
			 "total_energy": -820.720418902, 
			 "HOMO_LUMO_gap": 0.19812, 
			 "cosmo_polarized_energy": -14.59, 
			 "cosmo_cavitation_energy": 35.77, 
			 "cosmo_dispersion_energy": -23.69, 
			 "cosmo_repulsion_energy": 1.89, 
			 "cosmo_total_nonelectrostatic_energy": 13.96, 
			 "SMD_solvation_energy": 9.68 
		},
		"coords": [
			{
				"x": 3.6730530036,
				"y": 0.001510823,
				"z": -0.362061663,
				"element": "C" 
			},
			{
				"x": 3.3065541227,
				"y": 1.0179976501,
				"z": -1.4316875865,
				"element": "C" 
			},
			{
				"x": 1.8968030961,
				"y": 0.9329103851,
				"z": -1.7733969914,
				"element": "O" 
			},
			{
				"x": 1.5635125319,
				"y": 0.0265331447,
				"z": -2.7042189234,
				"element": "C" 
			},
			{
				"x": 2.339628784,
				"y": -0.6969157189,
				"z": -3.2904695865,
				"element": "O" 
			},
			{
				"x": 0.0670417095,
				"y": -0.0176246819,
				"z": -3.0003060209,
				"element": "C" 
			},
			{
				"x": -0.7382405186,
				"y": 0.8777035395,
				"z": -2.2359707542,
				"element": "O" 
			},
			{
				"x": -1.0819100586,
				"y": 0.4901385514,
				"z": -0.9642836599,
				"element": "C" 
			},
			{
				"x": -1.8607429569,
				"y": -0.6603947817,
				"z": -0.7220087336,
				"element": "C" 
			},
			{
				"x": -2.2518123674,
				"y": -1.4860047484,
				"z": -1.750974139,
				"element": "O" 
			},
			{
				"x": -3.3221114262,
				"y": -0.9674039262,
				"z": -2.555028516,
				"element": "C" 
			},
			{
				"x": -2.2138969331,
				"y": -0.9940249278,
				"z": 0.5824533825,
				"element": "C" 
			},
			{
				"x": -1.8208279762,
				"y": -0.1754790112,
				"z": 1.6537407459,
				"element": "C" 
			},
			{
				"x": -1.0758450598,
				"y": 0.9897814651,
				"z": 1.4056585516,
				"element": "C" 
			},
			{
				"x": -0.7083054577,
				"y": 1.3102293395,
				"z": 0.1036533373,
				"element": "C" 
			},
			{
				"x": -2.1900280412,
				"y": -0.5241777863,
				"z": 2.9940241056,
				"element": "C" 
			},
			{
				"x": -2.4888113211,
				"y": -0.8047331088,
				"z": 4.0829808888,
				"element": "N" 
			},
			{
				"x": 3.0419575822,
				"y": 0.121740308,
				"z": 0.5231483116,
				"element": "H" 
			},
			{
				"x": 4.717008971,
				"y": 0.1404831906,
				"z": -0.0624842373,
				"element": "H" 
			},
			{
				"x": 3.5594908439,
				"y": -1.016344442,
				"z": -0.7429625655,
				"element": "H" 
			},
			{
				"x": 3.4343802654,
				"y": 2.0428359828,
				"z": -1.0763096047,
				"element": "H" 
			},
			{
				"x": 3.8950727529,
				"y": 0.8701541339,
				"z": -2.3398370294,
				"element": "H" 
			},
			{
				"x": -0.2673165984,
				"y": -1.0536504275,
				"z": -2.8958272314,
				"element": "H" 
			},
			{
				"x": -0.0613617909,
				"y": 0.2720637793,
				"z": -4.0470778925,
				"element": "H" 
			},
			{
				"x": -3.5093648503,
				"y": -1.7122510267,
				"z": -3.330309836,
				"element": "H" 
			},
			{
				"x": -4.2277750206,
				"y": -0.8332532262,
				"z": -1.9516881364,
				"element": "H" 
			},
			{
				"x": -3.0471002569,
				"y": -0.0132973268,
				"z": -3.0165154304,
				"element": "H" 
			},
			{
				"x": -2.8008412515,
				"y": -1.8900193817,
				"z": 0.7512681428,
				"element": "H" 
			},
			{
				"x": -0.7795052214,
				"y": 1.625649874,
				"z": 2.2326396614,
				"element": "H" 
			},
			{
				"x": -0.1147065564,
				"y": 2.1901423551,
				"z": -0.1147485895,
				"element": "H" 
			}
		],
		 "valence_orbital": [ 
			{
				"type": "occ",
				"energy": -0.30982,
				"method": "rhf"
			},
			{
				"type": "occ",
				"energy": -0.29459,
				"method": "rhf"
			},
			{
				"type": "occ",
				"energy": -0.27951,
				"method": "rhf"
			},
			{
				"type": "occ",
				"energy": -0.26829,
				"method": "rhf"
			},
			{
				"type": "occ",
				"energy": -0.24745,
				"method": "rhf"
			},
			{
				"type": "unocc",
				"energy": -0.04933,
				"method": "rhf"
			},
			{
				"type": "unocc",
				"energy": -0.02387,
				"method": "rhf"
			},
			{
				"type": "unocc",
				"energy": 0.00136,
				"method": "rhf"
			},
			{
				"type": "unocc",
				"energy": 0.03733,
				"method": "rhf"
			},
			{
				"type": "unocc",
				"energy": 0.06304,
				"method": "rhf"
			}
		],
		"cosmo_sigma_profile": { 
			"-0.025": 0.0,
			"-0.024": 0.0,
			"-0.023": 0.0,
			"-0.022": 0.0,
			"-0.021": 0.0,
			"-0.02": 0.0,
			"-0.019": 0.0,
			"-0.018": 0.0,
			"-0.017": 0.0,
			"-0.016": 0.0,
			"-0.015": 0.0,
			"-0.014": 0.0,
			"-0.013": 0.0,
			"-0.012": 0.0,
			"-0.011": 0.0,
			"-0.01": 0.0,
			"-0.009": 1.07504572426,
			"-0.008": 6.24605695631,
			"-0.007": 7.41778831084,
			"-0.006": 14.053173229,
			"-0.005": 19.4994316113,
			"-0.004": 28.4428754241,
			"-0.003": 31.3351958734,
			"-0.002": 25.6112690742,
			"-0.001": 24.0033215825,
			"0.0": 22.6889766688,
			"0.001": 20.45587708,
			"0.002": 13.7326115837,
			"0.003": 8.92106565409,
			"0.004": 7.78017821277,
			"0.005": 6.26087818967,
			"0.006": 5.41557158623,
			"0.007": 6.44251376484,
			"0.008": 6.85699662926,
			"0.009": 7.83377066307,
			"0.01": 6.30830172838,
			"0.011": 6.70078447665,
			"0.012": 6.1347600804,
			"0.013": 1.92668342894,
			"0.014": 0.0591376991273,
			"0.015": 0.0,
			"0.016": 0.0,
			"0.017": 0.0,
			"0.018": 0.0,
			"0.019": 0.0,
			"0.02": 0.0,
			"0.021": 0.0,
			"0.022": 0.0,
			"0.023": 0.0,
			"0.024": 0.0,
			"0.025": 0.0
		}
	}
}
