{
	 "smiles": "N#CC1=NC=CC2=CC=CC=C12", 
	 "Tm": 362.15, 
	 "num_atms": 18, 
	 "gaussian": { 
		 "optdone": 1, 
		 "sigma_profile": "yes", 
		 "theory": "DFT", 
		 "functional": "B3LYP", 
		 "basiset": "6-31G**", 
		 "properties": { 
			 "R2extent": 2253.6249, 
			 "electric_dipole_moment_norm": 5.89521954977, 
			 "electric_quadrupole_moment_norm": 17.4274860975, 
			 "total_energy": -494.166081246, 
			 "HOMO_LUMO_gap": 0.16233, 
			 "cosmo_polarized_energy": -10.42, 
			 "cosmo_cavitation_energy": 23.36, 
			 "cosmo_dispersion_energy": -16.92, 
			 "cosmo_repulsion_energy": 1.31, 
			 "cosmo_total_nonelectrostatic_energy": 7.75, 
			 "SMD_solvation_energy": 3.7 
		},
		"coords": [
			{
				"x": 3.2977023998,
				"y": -3.4930054497,
				"z": 0.2502360149,
				"element": "N" 
			},
			{
				"x": 2.3254559954,
				"y": -2.8572870451,
				"z": 0.2953730194,
				"element": "C" 
			},
			{
				"x": 1.1440229935,
				"y": -2.025277644,
				"z": 0.3349212634,
				"element": "C" 
			},
			{
				"x": 0.0221533539,
				"y": -2.6161614567,
				"z": 0.7145974851,
				"element": "N" 
			},
			{
				"x": -1.1010634503,
				"y": -1.8596139175,
				"z": 0.7606634937,
				"element": "C" 
			},
			{
				"x": -1.1347809256,
				"y": -0.5209770399,
				"z": 0.4359415556,
				"element": "C" 
			},
			{
				"x": 0.0544410009,
				"y": 0.1313225305,
				"z": 0.0270467996,
				"element": "C" 
			},
			{
				"x": 0.1087365045,
				"y": 1.5067304187,
				"z": -0.3250933778,
				"element": "C" 
			},
			{
				"x": 1.2990127604,
				"y": 2.0769008373,
				"z": -0.7138689402,
				"element": "C" 
			},
			{
				"x": 2.4860159039,
				"y": 1.3030652127,
				"z": -0.7688729112,
				"element": "C" 
			},
			{
				"x": 2.4679038268,
				"y": -0.0319970859,
				"z": -0.4342438927,
				"element": "C" 
			},
			{
				"x": 1.2536178354,
				"y": -0.64507193,
				"z": -0.029862821,
				"element": "C" 
			},
			{
				"x": -2.001635848,
				"y": -2.3794224618,
				"z": 1.0767213719,
				"element": "H" 
			},
			{
				"x": -2.0662611737,
				"y": 0.03487802,
				"z": 0.4918420296,
				"element": "H" 
			},
			{
				"x": -0.8023812591,
				"y": 2.09672623,
				"z": -0.2818786104,
				"element": "H" 
			},
			{
				"x": 1.3350546323,
				"y": 3.1286179485,
				"z": -0.9819954632,
				"element": "H" 
			},
			{
				"x": 3.4154241107,
				"y": 1.7712456388,
				"z": -1.0781288624,
				"element": "H" 
			},
			{
				"x": 3.3745813392,
				"y": -0.6273728058,
				"z": -0.4751981542,
				"element": "H" 
			}
		],
		 "valence_orbital": [ 
			{
				"type": "occ",
				"energy": -0.33735,
				"method": "rhf"
			},
			{
				"type": "occ",
				"energy": -0.30638,
				"method": "rhf"
			},
			{
				"type": "occ",
				"energy": -0.28332,
				"method": "rhf"
			},
			{
				"type": "occ",
				"energy": -0.28046,
				"method": "rhf"
			},
			{
				"type": "occ",
				"energy": -0.24687,
				"method": "rhf"
			},
			{
				"type": "unocc",
				"energy": -0.08454,
				"method": "rhf"
			},
			{
				"type": "unocc",
				"energy": -0.04185,
				"method": "rhf"
			},
			{
				"type": "unocc",
				"energy": -0.01411,
				"method": "rhf"
			},
			{
				"type": "unocc",
				"energy": 0.03148,
				"method": "rhf"
			},
			{
				"type": "unocc",
				"energy": 0.0568,
				"method": "rhf"
			}
		],
		"cosmo_sigma_profile": { 
			"-0.025": 0.0,
			"-0.024": 0.0,
			"-0.023": 0.0,
			"-0.022": 0.0,
			"-0.021": 0.0,
			"-0.02": 0.0,
			"-0.019": 0.0,
			"-0.018": 0.0,
			"-0.017": 0.0,
			"-0.016": 0.0,
			"-0.015": 0.0,
			"-0.014": 0.0,
			"-0.013": 0.0,
			"-0.012": 0.0,
			"-0.011": 0.0,
			"-0.01": 0.0,
			"-0.009": 0.0430341676709,
			"-0.008": 3.79903342555,
			"-0.007": 11.6475097233,
			"-0.006": 12.6230582366,
			"-0.005": 12.4570144819,
			"-0.004": 10.58606078,
			"-0.003": 12.1395883441,
			"-0.002": 13.9889490504,
			"-0.001": 13.9254357881,
			"0.0": 17.5137218389,
			"0.001": 19.4684777562,
			"0.002": 14.6121393046,
			"0.003": 11.834634723,
			"0.004": 3.8502032758,
			"0.005": 4.62267880488,
			"0.006": 3.90893714,
			"0.007": 3.55104915043,
			"0.008": 3.77740844976,
			"0.009": 4.82493259658,
			"0.01": 3.0634091127,
			"0.011": 3.43871260777,
			"0.012": 2.93531511455,
			"0.013": 1.04220402815,
			"0.014": 0.493491905171,
			"0.015": 0.0,
			"0.016": 0.0,
			"0.017": 0.0,
			"0.018": 0.0,
			"0.019": 0.0,
			"0.02": 0.0,
			"0.021": 0.0,
			"0.022": 0.0,
			"0.023": 0.0,
			"0.024": 0.0,
			"0.025": 0.0
		}
	}
}
