{
	 "smiles": "OC(=O)C1CCC2CCCCC2C1", 
	 "Tm": 331.15, 
	 "num_atms": 31, 
	 "gaussian": { 
		 "optdone": 1, 
		 "sigma_profile": "yes", 
		 "theory": "DFT", 
		 "functional": "B3LYP", 
		 "basiset": "6-31G**", 
		 "properties": { 
			 "R2extent": 3254.7819, 
			 "electric_dipole_moment_norm": 4.29417556814, 
			 "electric_quadrupole_moment_norm": 22.6460132778, 
			 "total_energy": -580.490242415, 
			 "HOMO_LUMO_gap": 0.27758, 
			 "cosmo_polarized_energy": -12.74, 
			 "cosmo_cavitation_energy": 29.99, 
			 "cosmo_dispersion_energy": -21.98, 
			 "cosmo_repulsion_energy": 1.73, 
			 "cosmo_total_nonelectrostatic_energy": 9.73, 
			 "SMD_solvation_energy": 4.85 
		},
		"coords": [
			{
				"x": -3.9123661885,
				"y": 2.4866291199,
				"z": -1.5887999126,
				"element": "O" 
			},
			{
				"x": -3.2564915333,
				"y": 1.2923064629,
				"z": -1.634127198,
				"element": "C" 
			},
			{
				"x": -3.7686591598,
				"y": 0.3543861759,
				"z": -2.1931947228,
				"element": "O" 
			},
			{
				"x": -1.9124104007,
				"y": 1.2589837382,
				"z": -0.9047676383,
				"element": "C" 
			},
			{
				"x": -2.1435892539,
				"y": 1.2112746509,
				"z": 0.6285733477,
				"element": "C" 
			},
			{
				"x": -0.8071790627,
				"y": 1.2970342715,
				"z": 1.4071940983,
				"element": "C" 
			},
			{
				"x": 0.3752269077,
				"y": 0.7135434434,
				"z": 0.6064047645,
				"element": "C" 
			},
			{
				"x": 1.5697953478,
				"y": 0.294751819,
				"z": 1.4704907365,
				"element": "C" 
			},
			{
				"x": 2.7872612392,
				"y": -0.0981047587,
				"z": 0.5926834522,
				"element": "C" 
			},
			{
				"x": 2.3705719935,
				"y": -0.5653814739,
				"z": -0.8213824133,
				"element": "C" 
			},
			{
				"x": 1.0464174353,
				"y": -1.3416880942,
				"z": -0.7883397116,
				"element": "C" 
			},
			{
				"x": -0.1227916398,
				"y": -0.4707583798,
				"z": -0.2524013749,
				"element": "C" 
			},
			{
				"x": -1.038834103,
				"y": 0.0679976504,
				"z": -1.3707229088,
				"element": "C" 
			},
			{
				"x": -3.3719913601,
				"y": 3.1428058294,
				"z": -1.1265711711,
				"element": "H" 
			},
			{
				"x": -1.3954605661,
				"y": 2.2030912608,
				"z": -1.1330934455,
				"element": "H" 
			},
			{
				"x": -2.8200215074,
				"y": 2.0138533535,
				"z": 0.9445237493,
				"element": "H" 
			},
			{
				"x": -2.6606707431,
				"y": 0.2734173808,
				"z": 0.8602900689,
				"element": "H" 
			},
			{
				"x": -0.9148041132,
				"y": 0.7541344036,
				"z": 2.3550634833,
				"element": "H" 
			},
			{
				"x": -0.5902245068,
				"y": 2.3391843906,
				"z": 1.6726181157,
				"element": "H" 
			},
			{
				"x": 0.728585408,
				"y": 1.496571544,
				"z": -0.0823397093,
				"element": "H" 
			},
			{
				"x": 1.2622487554,
				"y": -0.5562580417,
				"z": 2.0939187576,
				"element": "H" 
			},
			{
				"x": 1.844713813,
				"y": 1.0964364309,
				"z": 2.1666766294,
				"element": "H" 
			},
			{
				"x": 3.3519194976,
				"y": -0.8940390366,
				"z": 1.0924815558,
				"element": "H" 
			},
			{
				"x": 3.4740289047,
				"y": 0.7517812987,
				"z": 0.5023613111,
				"element": "H" 
			},
			{
				"x": 2.2625750041,
				"y": 0.303663376,
				"z": -1.4832175556,
				"element": "H" 
			},
			{
				"x": 3.1631257901,
				"y": -1.1809562607,
				"z": -1.2614191423,
				"element": "H" 
			},
			{
				"x": 1.1731795185,
				"y": -2.222516606,
				"z": -0.1462447925,
				"element": "H" 
			},
			{
				"x": 0.8016332341,
				"y": -1.7272006172,
				"z": -1.7853998759,
				"element": "H" 
			},
			{
				"x": -0.7320609483,
				"y": -1.1069354622,
				"z": 0.405292106,
				"element": "H" 
			},
			{
				"x": -0.4272675484,
				"y": 0.3890956181,
				"z": -2.2238421359,
				"element": "H" 
			},
			{
				"x": -1.6984602142,
				"y": -0.7233034877,
				"z": -1.739108468,
				"element": "H" 
			}
		],
		 "valence_orbital": [ 
			{
				"type": "occ",
				"energy": -0.31141,
				"method": "rhf"
			},
			{
				"type": "occ",
				"energy": -0.29377,
				"method": "rhf"
			},
			{
				"type": "occ",
				"energy": -0.29183,
				"method": "rhf"
			},
			{
				"type": "occ",
				"energy": -0.28806,
				"method": "rhf"
			},
			{
				"type": "occ",
				"energy": -0.26565,
				"method": "rhf"
			},
			{
				"type": "unocc",
				"energy": 0.01193,
				"method": "rhf"
			},
			{
				"type": "unocc",
				"energy": 0.04695,
				"method": "rhf"
			},
			{
				"type": "unocc",
				"energy": 0.07679,
				"method": "rhf"
			},
			{
				"type": "unocc",
				"energy": 0.0842,
				"method": "rhf"
			},
			{
				"type": "unocc",
				"energy": 0.10577,
				"method": "rhf"
			}
		],
		"cosmo_sigma_profile": { 
			"-0.025": 0.0,
			"-0.024": 0.0,
			"-0.023": 0.0,
			"-0.022": 0.0,
			"-0.021": 0.0,
			"-0.02": 0.0,
			"-0.019": 0.0105985082996,
			"-0.018": 1.08611155594,
			"-0.017": 0.854429940419,
			"-0.016": 0.676867146626,
			"-0.015": 1.13623075838,
			"-0.014": 0.946454640022,
			"-0.013": 1.07203264081,
			"-0.012": 1.17767375193,
			"-0.011": 1.33497974998,
			"-0.01": 1.2759217047,
			"-0.009": 0.947144402381,
			"-0.008": 1.57090518845,
			"-0.007": 1.23423789598,
			"-0.006": 1.81314835486,
			"-0.005": 2.98866700609,
			"-0.004": 5.26995202886,
			"-0.003": 11.9731942745,
			"-0.002": 37.3112349213,
			"-0.001": 46.1734974996,
			"0.0": 38.632901301,
			"0.001": 25.4606841185,
			"0.002": 11.5778555432,
			"0.003": 2.37021688702,
			"0.004": 1.85372196768,
			"0.005": 2.24003944691,
			"0.006": 2.7877786554,
			"0.007": 1.90480665964,
			"0.008": 2.95357527277,
			"0.009": 3.14422552526,
			"0.01": 4.22521279746,
			"0.011": 5.74121125056,
			"0.012": 5.81525352307,
			"0.013": 2.18628929121,
			"0.014": 0.310162856212,
			"0.015": 0.0,
			"0.016": 0.0,
			"0.017": 0.0,
			"0.018": 0.0,
			"0.019": 0.0,
			"0.02": 0.0,
			"0.021": 0.0,
			"0.022": 0.0,
			"0.023": 0.0,
			"0.024": 0.0,
			"0.025": 0.0
		}
	}
}
