{
	 "smiles": "FC(F)(F)C1=CC(CC#N)=C(Cl)C=C1", 
	 "Tm": 305.15, 
	 "num_atms": 19, 
	 "gaussian": { 
		 "optdone": 1, 
		 "sigma_profile": "yes", 
		 "theory": "DFT", 
		 "functional": "B3LYP", 
		 "basiset": "6-31G**", 
		 "properties": { 
			 "R2extent": 3808.7152, 
			 "electric_dipole_moment_norm": 3.63317879962, 
			 "electric_quadrupole_moment_norm": 21.5595007171, 
			 "total_energy": -1160.42381454, 
			 "HOMO_LUMO_gap": 0.22282, 
			 "cosmo_polarized_energy": -11.28, 
			 "cosmo_cavitation_energy": 27.95, 
			 "cosmo_dispersion_energy": -19.09, 
			 "cosmo_repulsion_energy": 1.45, 
			 "cosmo_total_nonelectrostatic_energy": 10.31, 
			 "SMD_solvation_energy": 7.06 
		},
		"coords": [
			{
				"x": -3.1102833033,
				"y": 2.1880947085,
				"z": 0.1548436959,
				"element": "F" 
			},
			{
				"x": -2.2394778785,
				"y": 2.0789719403,
				"z": 1.1816464015,
				"element": "C" 
			},
			{
				"x": -1.7472054044,
				"y": 3.310722268,
				"z": 1.4353682503,
				"element": "F" 
			},
			{
				"x": -2.951715936,
				"y": 1.7067590259,
				"z": 2.2679084132,
				"element": "F" 
			},
			{
				"x": -1.1398051248,
				"y": 1.0953505073,
				"z": 0.8786108702,
				"element": "C" 
			},
			{
				"x": -1.3742570586,
				"y": 0.0349017243,
				"z": 0.0038177944,
				"element": "C" 
			},
			{
				"x": -0.3871675758,
				"y": -0.9194380295,
				"z": -0.258829089,
				"element": "C" 
			},
			{
				"x": -0.6727447207,
				"y": -2.0578132941,
				"z": -1.2250521179,
				"element": "C" 
			},
			{
				"x": -1.0053240412,
				"y": -3.3168568905,
				"z": -0.5440655812,
				"element": "C" 
			},
			{
				"x": -1.2803963219,
				"y": -4.3068839188,
				"z": -0.0053137452,
				"element": "N" 
			},
			{
				"x": 0.8490046165,
				"y": -0.7784273213,
				"z": 0.3892989778,
				"element": "C" 
			},
			{
				"x": 2.1332081337,
				"y": -1.9375392824,
				"z": 0.1028257913,
				"element": "Cl" 
			},
			{
				"x": 1.096359686,
				"y": 0.2797153203,
				"z": 1.2646980802,
				"element": "C" 
			},
			{
				"x": 0.0988804258,
				"y": 1.2181501559,
				"z": 1.5108550338,
				"element": "C" 
			},
			{
				"x": -2.3374989107,
				"y": -0.0472916303,
				"z": -0.4889400057,
				"element": "H" 
			},
			{
				"x": -1.5148703164,
				"y": -1.7881166033,
				"z": -1.8706764152,
				"element": "H" 
			},
			{
				"x": 0.1895005174,
				"y": -2.2384932148,
				"z": -1.8755024001,
				"element": "H" 
			},
			{
				"x": 2.0652742572,
				"y": 0.3629797876,
				"z": 1.7434518709,
				"element": "H" 
			},
			{
				"x": 0.2874189557,
				"y": 2.047414747,
				"z": 2.1836541748,
				"element": "H" 
			}
		],
		 "valence_orbital": [ 
			{
				"type": "occ",
				"energy": -0.34056,
				"method": "rhf"
			},
			{
				"type": "occ",
				"energy": -0.3308,
				"method": "rhf"
			},
			{
				"type": "occ",
				"energy": -0.32993,
				"method": "rhf"
			},
			{
				"type": "occ",
				"energy": -0.29034,
				"method": "rhf"
			},
			{
				"type": "occ",
				"energy": -0.27578,
				"method": "rhf"
			},
			{
				"type": "unocc",
				"energy": -0.05296,
				"method": "rhf"
			},
			{
				"type": "unocc",
				"energy": -0.04514,
				"method": "rhf"
			},
			{
				"type": "unocc",
				"energy": 0.00424,
				"method": "rhf"
			},
			{
				"type": "unocc",
				"energy": 0.03171,
				"method": "rhf"
			},
			{
				"type": "unocc",
				"energy": 0.03647,
				"method": "rhf"
			}
		],
		"cosmo_sigma_profile": { 
			"-0.025": 0.0,
			"-0.024": 0.0,
			"-0.023": 0.0,
			"-0.022": 0.0,
			"-0.021": 0.0,
			"-0.02": 0.0,
			"-0.019": 0.0,
			"-0.018": 0.0,
			"-0.017": 0.0,
			"-0.016": 0.0,
			"-0.015": 0.0,
			"-0.014": 0.0,
			"-0.013": 0.0,
			"-0.012": 0.0,
			"-0.011": 0.571984841713,
			"-0.01": 3.2759175712,
			"-0.009": 5.41610975851,
			"-0.008": 8.60219442791,
			"-0.007": 9.61514023131,
			"-0.006": 10.0988304191,
			"-0.005": 7.29571586076,
			"-0.004": 7.89203548174,
			"-0.003": 9.4958428371,
			"-0.002": 10.4350038509,
			"-0.001": 16.8310069089,
			"0.0": 24.2406708484,
			"0.001": 23.2235694075,
			"0.002": 29.5055734087,
			"0.003": 30.6357085842,
			"0.004": 6.16888840529,
			"0.005": 2.42930540461,
			"0.006": 2.65998436841,
			"0.007": 2.72480391491,
			"0.008": 3.60124539876,
			"0.009": 3.35368970383,
			"0.01": 3.19268369063,
			"0.011": 2.77089078503,
			"0.012": 2.37709130585,
			"0.013": 1.42999085946,
			"0.014": 0.0574400562539,
			"0.015": 0.0,
			"0.016": 0.0,
			"0.017": 0.0,
			"0.018": 0.0,
			"0.019": 0.0,
			"0.02": 0.0,
			"0.021": 0.0,
			"0.022": 0.0,
			"0.023": 0.0,
			"0.024": 0.0,
			"0.025": 0.0
		}
	}
}
