{
	 "smiles": "N#CCC1=CC=CC2=CC=CC=C12", 
	 "Tm": 306.35, 
	 "num_atms": 22, 
	 "gaussian": { 
		 "optdone": 1, 
		 "sigma_profile": "yes", 
		 "theory": "DFT", 
		 "functional": "B3LYP", 
		 "basiset": "6-31G**", 
		 "properties": { 
			 "R2extent": 2595.2364, 
			 "electric_dipole_moment_norm": 4.07351909042, 
			 "electric_quadrupole_moment_norm": 15.2716509392, 
			 "total_energy": -517.446546486, 
			 "HOMO_LUMO_gap": 0.17477, 
			 "cosmo_polarized_energy": -10.38, 
			 "cosmo_cavitation_energy": 26.37, 
			 "cosmo_dispersion_energy": -19.03, 
			 "cosmo_repulsion_energy": 1.47, 
			 "cosmo_total_nonelectrostatic_energy": 8.81, 
			 "SMD_solvation_energy": 5.45 
		},
		"coords": [
			{
				"x": 2.5858101299,
				"y": 2.3453011407,
				"z": 3.3993401157,
				"element": "N" 
			},
			{
				"x": 2.0486378472,
				"y": 2.0885880165,
				"z": 2.4032622778,
				"element": "C" 
			},
			{
				"x": 1.3756804681,
				"y": 1.7721278444,
				"z": 1.1419453583,
				"element": "C" 
			},
			{
				"x": 0.4025619495,
				"y": 0.6004875327,
				"z": 1.2158677291,
				"element": "C" 
			},
			{
				"x": 0.1913688134,
				"y": -0.0902103487,
				"z": 2.3899099296,
				"element": "C" 
			},
			{
				"x": -0.7145075923,
				"y": -1.176813035,
				"z": 2.4480311118,
				"element": "C" 
			},
			{
				"x": -1.4043816976,
				"y": -1.5647043109,
				"z": 1.3258667225,
				"element": "C" 
			},
			{
				"x": -1.219063651,
				"y": -0.8823054013,
				"z": 0.0930315734,
				"element": "C" 
			},
			{
				"x": -1.9232749229,
				"y": -1.2684897957,
				"z": -1.0783600661,
				"element": "C" 
			},
			{
				"x": -1.7401410976,
				"y": -0.6042148313,
				"z": -2.2699111671,
				"element": "C" 
			},
			{
				"x": -0.837904984,
				"y": 0.4821462011,
				"z": -2.3388879087,
				"element": "C" 
			},
			{
				"x": -0.1385790674,
				"y": 0.8826501413,
				"z": -1.2206681061,
				"element": "C" 
			},
			{
				"x": -0.3022994179,
				"y": 0.2199297036,
				"z": 0.0273523387,
				"element": "C" 
			},
			{
				"x": 2.1530641979,
				"y": 1.5752581594,
				"z": 0.3918912377,
				"element": "H" 
			},
			{
				"x": 0.8553566418,
				"y": 2.6792865027,
				"z": 0.8073043836,
				"element": "H" 
			},
			{
				"x": 0.7269829462,
				"y": 0.200818794,
				"z": 3.2882004537,
				"element": "H" 
			},
			{
				"x": -0.8568447367,
				"y": -1.6988214137,
				"z": 3.3893781149,
				"element": "H" 
			},
			{
				"x": -2.1012680673,
				"y": -2.3977593178,
				"z": 1.3632045527,
				"element": "H" 
			},
			{
				"x": -2.6146504764,
				"y": -2.1048394348,
				"z": -1.0151338786,
				"element": "H" 
			},
			{
				"x": -2.2855780527,
				"y": -0.9107819599,
				"z": -3.1574717095,
				"element": "H" 
			},
			{
				"x": -0.6953919606,
				"y": 1.0044240101,
				"z": -3.2804497504,
				"element": "H" 
			},
			{
				"x": 0.5471227304,
				"y": 1.7195218025,
				"z": -1.3030033129,
				"element": "H" 
			}
		],
		 "valence_orbital": [ 
			{
				"type": "occ",
				"energy": -0.32812,
				"method": "rhf"
			},
			{
				"type": "occ",
				"energy": -0.32421,
				"method": "rhf"
			},
			{
				"type": "occ",
				"energy": -0.2886,
				"method": "rhf"
			},
			{
				"type": "occ",
				"energy": -0.25277,
				"method": "rhf"
			},
			{
				"type": "occ",
				"energy": -0.22523,
				"method": "rhf"
			},
			{
				"type": "unocc",
				"energy": -0.05046,
				"method": "rhf"
			},
			{
				"type": "unocc",
				"energy": -0.01971,
				"method": "rhf"
			},
			{
				"type": "unocc",
				"energy": 0.02349,
				"method": "rhf"
			},
			{
				"type": "unocc",
				"energy": 0.03192,
				"method": "rhf"
			},
			{
				"type": "unocc",
				"energy": 0.04001,
				"method": "rhf"
			}
		],
		"cosmo_sigma_profile": { 
			"-0.025": 0.0,
			"-0.024": 0.0,
			"-0.023": 0.0,
			"-0.022": 0.0,
			"-0.021": 0.0,
			"-0.02": 0.0,
			"-0.019": 0.0,
			"-0.018": 0.0,
			"-0.017": 0.0,
			"-0.016": 0.0,
			"-0.015": 0.0,
			"-0.014": 0.0,
			"-0.013": 0.0,
			"-0.012": 0.0,
			"-0.011": 0.0,
			"-0.01": 0.0144588305395,
			"-0.009": 3.78171179579,
			"-0.008": 7.67969911741,
			"-0.007": 5.90753790084,
			"-0.006": 14.4943407166,
			"-0.005": 16.5208584177,
			"-0.004": 16.5113835886,
			"-0.003": 14.1017947021,
			"-0.002": 11.9568614569,
			"-0.001": 11.7348962927,
			"0.0": 11.5225468281,
			"0.001": 10.344677679,
			"0.002": 12.34938634,
			"0.003": 17.7510208392,
			"0.004": 22.9599277313,
			"0.005": 13.7158287268,
			"0.006": 2.35494094872,
			"0.007": 2.48610992816,
			"0.008": 3.3473831811,
			"0.009": 2.8966341012,
			"0.01": 3.18088698212,
			"0.011": 2.74938098442,
			"0.012": 2.43076202685,
			"0.013": 1.71933657827,
			"0.014": 0.116093363492,
			"0.015": 0.0,
			"0.016": 0.0,
			"0.017": 0.0,
			"0.018": 0.0,
			"0.019": 0.0,
			"0.02": 0.0,
			"0.021": 0.0,
			"0.022": 0.0,
			"0.023": 0.0,
			"0.024": 0.0,
			"0.025": 0.0
		}
	}
}
