{
	 "smiles": "FC1=CC=C(Br)C=C1", 
	 "Tm": 256.45, 
	 "num_atms": 12, 
	 "gaussian": { 
		 "optdone": 1, 
		 "sigma_profile": "yes", 
		 "theory": "DFT", 
		 "functional": "B3LYP", 
		 "basiset": "6-31G**", 
		 "properties": { 
			 "R2extent": 2316.7188, 
			 "electric_dipole_moment_norm": 0.442069372384, 
			 "electric_quadrupole_moment_norm": 7.33844931644, 
			 "total_energy": -2902.28517559, 
			 "HOMO_LUMO_gap": 0.2164, 
			 "cosmo_polarized_energy": -3.57, 
			 "cosmo_cavitation_energy": 19.02, 
			 "cosmo_dispersion_energy": -14.53, 
			 "cosmo_repulsion_energy": 1.18, 
			 "cosmo_total_nonelectrostatic_energy": 5.67, 
			 "SMD_solvation_energy": 2.72 
		},
		"coords": [
			{
				"x": 2.1534325801,
				"y": -0.1613707645,
				"z": 3.955881061,
				"element": "F" 
			},
			{
				"x": 1.8188374968,
				"y": 0.1291725709,
				"z": 2.6829311702,
				"element": "C" 
			},
			{
				"x": 0.5209945379,
				"y": 0.5434283991,
				"z": 2.4044364398,
				"element": "C" 
			},
			{
				"x": 0.1757412987,
				"y": 0.8438575331,
				"z": 1.0864330553,
				"element": "C" 
			},
			{
				"x": 1.1348924135,
				"y": 0.7229221885,
				"z": 0.0810700762,
				"element": "C" 
			},
			{
				"x": 0.660337815,
				"y": 1.1347016324,
				"z": -1.7241890629,
				"element": "Br" 
			},
			{
				"x": 2.4343067304,
				"y": 0.3066125008,
				"z": 0.3701419233,
				"element": "C" 
			},
			{
				"x": 2.7817944362,
				"y": 0.0056564414,
				"z": 1.6874339277,
				"element": "C" 
			},
			{
				"x": -0.2013190351,
				"y": 0.6272158929,
				"z": 3.2089829574,
				"element": "H" 
			},
			{
				"x": -0.8296720428,
				"y": 1.168706267,
				"z": 0.8449547628,
				"element": "H" 
			},
			{
				"x": 3.1677971153,
				"y": 0.2178158124,
				"z": -0.4228247286,
				"element": "H" 
			},
			{
				"x": 3.783356654,
				"y": -0.320618474,
				"z": 1.945248418,
				"element": "H" 
			}
		],
		 "valence_orbital": [ 
			{
				"type": "occ",
				"energy": -0.36032,
				"method": "rhf"
			},
			{
				"type": "occ",
				"energy": -0.31104,
				"method": "rhf"
			},
			{
				"type": "occ",
				"energy": -0.29108,
				"method": "rhf"
			},
			{
				"type": "occ",
				"energy": -0.27488,
				"method": "rhf"
			},
			{
				"type": "occ",
				"energy": -0.24154,
				"method": "rhf"
			},
			{
				"type": "unocc",
				"energy": -0.02514,
				"method": "rhf"
			},
			{
				"type": "unocc",
				"energy": -0.01302,
				"method": "rhf"
			},
			{
				"type": "unocc",
				"energy": 0.00229,
				"method": "rhf"
			},
			{
				"type": "unocc",
				"energy": 0.09429,
				"method": "rhf"
			},
			{
				"type": "unocc",
				"energy": 0.12936,
				"method": "rhf"
			}
		],
		"cosmo_sigma_profile": { 
			"-0.025": 0.0,
			"-0.024": 0.0,
			"-0.023": 0.0,
			"-0.022": 0.0,
			"-0.021": 0.0,
			"-0.02": 0.0,
			"-0.019": 0.0,
			"-0.018": 0.0,
			"-0.017": 0.0,
			"-0.016": 0.0,
			"-0.015": 0.0,
			"-0.014": 0.0,
			"-0.013": 0.0,
			"-0.012": 0.0,
			"-0.011": 0.0,
			"-0.01": 0.0,
			"-0.009": 0.0,
			"-0.008": 3.36133962886,
			"-0.007": 7.64441162884,
			"-0.006": 8.08108566636,
			"-0.005": 6.73101913913,
			"-0.004": 6.65575334575,
			"-0.003": 8.33750363324,
			"-0.002": 7.07235777603,
			"-0.001": 8.74261869427,
			"0.0": 14.8871762352,
			"0.001": 16.6478592268,
			"0.002": 22.368445706,
			"0.003": 18.1713497016,
			"0.004": 20.5793034537,
			"0.005": 7.39358381335,
			"0.006": 0.0,
			"0.007": 0.0,
			"0.008": 0.0,
			"0.009": 0.0,
			"0.01": 0.0,
			"0.011": 0.0,
			"0.012": 0.0,
			"0.013": 0.0,
			"0.014": 0.0,
			"0.015": 0.0,
			"0.016": 0.0,
			"0.017": 0.0,
			"0.018": 0.0,
			"0.019": 0.0,
			"0.02": 0.0,
			"0.021": 0.0,
			"0.022": 0.0,
			"0.023": 0.0,
			"0.024": 0.0,
			"0.025": 0.0
		}
	}
}
