{
	 "smiles": "SC1=CC=CC=N1", 
	 "Tm": 401.15, 
	 "num_atms": 12, 
	 "gaussian": { 
		 "optdone": 1, 
		 "sigma_profile": "yes", 
		 "theory": "DFT", 
		 "functional": "B3LYP", 
		 "basiset": "6-31G**", 
		 "properties": { 
			 "R2extent": 2368.927, 
			 "electric_dipole_moment_norm": 1.99804835777, 
			 "electric_quadrupole_moment_norm": 6.96998747703, 
			 "total_energy": -646.476347103, 
			 "HOMO_LUMO_gap": 0.20071, 
			 "cosmo_polarized_energy": -6.05, 
			 "cosmo_cavitation_energy": 17.67, 
			 "cosmo_dispersion_energy": -13.94, 
			 "cosmo_repulsion_energy": 1.12, 
			 "cosmo_total_nonelectrostatic_energy": 4.85, 
			 "SMD_solvation_energy": 1.41 
		},
		"coords": [
			{
				"x": 3.2277095477,
				"y": 2.7955467794,
				"z": 1.274540566,
				"element": "S" 
			},
			{
				"x": 1.5374135516,
				"y": 2.2129634521,
				"z": 1.2998585056,
				"element": "C" 
			},
			{
				"x": 1.1191954648,
				"y": 1.3991810491,
				"z": 2.3645804075,
				"element": "C" 
			},
			{
				"x": -0.1979670653,
				"y": 0.9552267763,
				"z": 2.3685312658,
				"element": "C" 
			},
			{
				"x": -1.0479026584,
				"y": 1.330659268,
				"z": 1.3249037384,
				"element": "C" 
			},
			{
				"x": -0.527894113,
				"y": 2.1413806147,
				"z": 0.3189752229,
				"element": "C" 
			},
			{
				"x": 0.7386292332,
				"y": 2.5804660113,
				"z": 0.2958717033,
				"element": "N" 
			},
			{
				"x": 3.0842782784,
				"y": 3.4761795865,
				"z": 0.1219287413,
				"element": "H" 
			},
			{
				"x": 1.8076175339,
				"y": 1.1277770273,
				"z": 3.1582171287,
				"element": "H" 
			},
			{
				"x": -0.5571477613,
				"y": 0.3238255659,
				"z": 3.1762233447,
				"element": "H" 
			},
			{
				"x": -2.0821845068,
				"y": 1.0053515308,
				"z": 1.2911752478,
				"element": "H" 
			},
			{
				"x": -1.1520475049,
				"y": 2.4592423387,
				"z": -0.5141058719,
				"element": "H" 
			}
		],
		 "valence_orbital": [ 
			{
				"type": "occ",
				"energy": -0.35016,
				"method": "rhf"
			},
			{
				"type": "occ",
				"energy": -0.3065,
				"method": "rhf"
			},
			{
				"type": "occ",
				"energy": -0.28864,
				"method": "rhf"
			},
			{
				"type": "occ",
				"energy": -0.26368,
				"method": "rhf"
			},
			{
				"type": "occ",
				"energy": -0.22912,
				"method": "rhf"
			},
			{
				"type": "unocc",
				"energy": -0.02841,
				"method": "rhf"
			},
			{
				"type": "unocc",
				"energy": -0.01496,
				"method": "rhf"
			},
			{
				"type": "unocc",
				"energy": 0.01861,
				"method": "rhf"
			},
			{
				"type": "unocc",
				"energy": 0.07925,
				"method": "rhf"
			},
			{
				"type": "unocc",
				"energy": 0.10297,
				"method": "rhf"
			}
		],
		"cosmo_sigma_profile": { 
			"-0.025": 0.0,
			"-0.024": 0.0,
			"-0.023": 0.0,
			"-0.022": 0.0,
			"-0.021": 0.0,
			"-0.02": 0.0,
			"-0.019": 0.0,
			"-0.018": 0.0,
			"-0.017": 0.0,
			"-0.016": 0.0,
			"-0.015": 0.0,
			"-0.014": 0.0,
			"-0.013": 0.0,
			"-0.012": 0.0,
			"-0.011": 0.167721802876,
			"-0.01": 1.24387509916,
			"-0.009": 1.48343237402,
			"-0.008": 2.12571719953,
			"-0.007": 7.35563483192,
			"-0.006": 11.4439097117,
			"-0.005": 9.85212151963,
			"-0.004": 8.46049756216,
			"-0.003": 7.13582295311,
			"-0.002": 7.12719719189,
			"-0.001": 6.70694338378,
			"0.0": 7.89525757748,
			"0.001": 10.5245582074,
			"0.002": 17.9943058251,
			"0.003": 15.8921215274,
			"0.004": 6.94299965855,
			"0.005": 5.40004210514,
			"0.006": 4.30911738991,
			"0.007": 3.62566446316,
			"0.008": 3.54955553825,
			"0.009": 1.03018287833,
			"0.01": 1.22344540815,
			"0.011": 0.941609824507,
			"0.012": 0.855649178952,
			"0.013": 0.48982400668,
			"0.014": 0.69063704059,
			"0.015": 0.0712933816421,
			"0.016": 0.0,
			"0.017": 0.0,
			"0.018": 0.0,
			"0.019": 0.0,
			"0.02": 0.0,
			"0.021": 0.0,
			"0.022": 0.0,
			"0.023": 0.0,
			"0.024": 0.0,
			"0.025": 0.0
		}
	}
}
