{
	 "smiles": "BrC1=CC(Br)=C(Br)S1", 
	 "Tm": 301.15, 
	 "num_atms": 9, 
	 "gaussian": { 
		 "optdone": 1, 
		 "sigma_profile": "yes", 
		 "theory": "DFT", 
		 "functional": "B3LYP", 
		 "basiset": "6-31G**", 
		 "properties": { 
			 "R2extent": 9046.6909, 
			 "electric_dipole_moment_norm": 0.595386429137, 
			 "electric_quadrupole_moment_norm": 4.01056136594, 
			 "total_energy": -8265.39059622, 
			 "HOMO_LUMO_gap": 0.19097, 
			 "cosmo_polarized_energy": -2.62, 
			 "cosmo_cavitation_energy": 22.28, 
			 "cosmo_dispersion_energy": -18.3, 
			 "cosmo_repulsion_energy": 1.47, 
			 "cosmo_total_nonelectrostatic_energy": 5.46, 
			 "SMD_solvation_energy": 0.22 
		},
		"coords": [
			{
				"x": 1.352215047,
				"y": -1.8203999147,
				"z": -1.7123194484,
				"element": "Br" 
			},
			{
				"x": -0.0609769881,
				"y": -2.3130781594,
				"z": -0.5720142543,
				"element": "C" 
			},
			{
				"x": -0.3503909259,
				"y": -3.5673643996,
				"z": -0.1223315457,
				"element": "C" 
			},
			{
				"x": -1.498542918,
				"y": -3.5726462568,
				"z": 0.7304325322,
				"element": "C" 
			},
			{
				"x": -2.1567849708,
				"y": -5.157851222,
				"z": 1.5161635807,
				"element": "Br" 
			},
			{
				"x": -2.0504578486,
				"y": -2.3326595091,
				"z": 0.9075671479,
				"element": "C" 
			},
			{
				"x": -3.5480902561,
				"y": -1.8606440419,
				"z": 1.9306280307,
				"element": "Br" 
			},
			{
				"x": -1.1706361154,
				"y": -1.1090211467,
				"z": 0.0258040243,
				"element": "S" 
			},
			{
				"x": 0.2146649759,
				"y": -4.4541353499,
				"z": -0.3753300676,
				"element": "H" 
			}
		],
		 "valence_orbital": [ 
			{
				"type": "occ",
				"energy": -0.31119,
				"method": "rhf"
			},
			{
				"type": "occ",
				"energy": -0.30704,
				"method": "rhf"
			},
			{
				"type": "occ",
				"energy": -0.29637,
				"method": "rhf"
			},
			{
				"type": "occ",
				"energy": -0.26808,
				"method": "rhf"
			},
			{
				"type": "occ",
				"energy": -0.23623,
				"method": "rhf"
			},
			{
				"type": "unocc",
				"energy": -0.04526,
				"method": "rhf"
			},
			{
				"type": "unocc",
				"energy": -0.04258,
				"method": "rhf"
			},
			{
				"type": "unocc",
				"energy": -0.01538,
				"method": "rhf"
			},
			{
				"type": "unocc",
				"energy": 0.00754,
				"method": "rhf"
			},
			{
				"type": "unocc",
				"energy": 0.02353,
				"method": "rhf"
			}
		],
		"cosmo_sigma_profile": { 
			"-0.025": 0.0,
			"-0.024": 0.0,
			"-0.023": 0.0,
			"-0.022": 0.0,
			"-0.021": 0.0,
			"-0.02": 0.0,
			"-0.019": 0.0,
			"-0.018": 0.0,
			"-0.017": 0.0,
			"-0.016": 0.0,
			"-0.015": 0.0,
			"-0.014": 0.0,
			"-0.013": 0.0,
			"-0.012": 0.0,
			"-0.011": 0.0,
			"-0.01": 0.125638847148,
			"-0.009": 1.60985348598,
			"-0.008": 1.19345606491,
			"-0.007": 2.58330941937,
			"-0.006": 4.63522039244,
			"-0.005": 5.80109888405,
			"-0.004": 7.10456309962,
			"-0.003": 11.2657067162,
			"-0.002": 14.389343732,
			"-0.001": 18.909208505,
			"0.0": 30.1217921358,
			"0.001": 30.6669123704,
			"0.002": 26.4426997992,
			"0.003": 27.5617542277,
			"0.004": 9.85428801197,
			"0.005": 0.15028883026,
			"0.006": 0.0,
			"0.007": 0.0,
			"0.008": 0.0,
			"0.009": 0.0,
			"0.01": 0.0,
			"0.011": 0.0,
			"0.012": 0.0,
			"0.013": 0.0,
			"0.014": 0.0,
			"0.015": 0.0,
			"0.016": 0.0,
			"0.017": 0.0,
			"0.018": 0.0,
			"0.019": 0.0,
			"0.02": 0.0,
			"0.021": 0.0,
			"0.022": 0.0,
			"0.023": 0.0,
			"0.024": 0.0,
			"0.025": 0.0
		}
	}
}
