{
	 "smiles": "COC(=O)C1=C(N)N=C2CCCC2=C1", 
	 "Tm": 406.15, 
	 "num_atms": 26, 
	 "gaussian": { 
		 "optdone": 1, 
		 "sigma_profile": "yes", 
		 "theory": "DFT", 
		 "functional": "B3LYP", 
		 "basiset": "6-31G**", 
		 "properties": { 
			 "R2extent": 3374.8768, 
			 "electric_dipole_moment_norm": 1.54865134875, 
			 "electric_quadrupole_moment_norm": 6.09773806095, 
			 "total_energy": -648.284779782, 
			 "HOMO_LUMO_gap": 0.1606, 
			 "cosmo_polarized_energy": -8.66, 
			 "cosmo_cavitation_energy": 28.83, 
			 "cosmo_dispersion_energy": -21.97, 
			 "cosmo_repulsion_energy": 1.75, 
			 "cosmo_total_nonelectrostatic_energy": 8.61, 
			 "SMD_solvation_energy": 4.14 
		},
		"coords": [
			{
				"x": -3.9703169184,
				"y": 1.7369426854,
				"z": 1.591930521,
				"element": "C" 
			},
			{
				"x": -2.7323874491,
				"y": 1.0372632522,
				"z": 1.4064934204,
				"element": "O" 
			},
			{
				"x": -1.8061614615,
				"y": 1.6834151973,
				"z": 0.6571801503,
				"element": "C" 
			},
			{
				"x": -2.031414419,
				"y": 2.7915485238,
				"z": 0.1780877102,
				"element": "O" 
			},
			{
				"x": -0.5600322485,
				"y": 0.9214466427,
				"z": 0.5021575731,
				"element": "C" 
			},
			{
				"x": 0.5270113592,
				"y": 1.4545589212,
				"z": -0.2648725525,
				"element": "C" 
			},
			{
				"x": 0.4554540602,
				"y": 2.6650243909,
				"z": -0.8640536736,
				"element": "N" 
			},
			{
				"x": 1.6881408526,
				"y": 0.7786056145,
				"z": -0.4382516206,
				"element": "N" 
			},
			{
				"x": 1.7874411083,
				"y": -0.412337,
				"z": 0.1346332137,
				"element": "C" 
			},
			{
				"x": 3.0164888187,
				"y": -1.2898238853,
				"z": 0.0538647694,
				"element": "C" 
			},
			{
				"x": 2.4920455144,
				"y": -2.6731739093,
				"z": 0.511944796,
				"element": "C" 
			},
			{
				"x": 1.2664786731,
				"y": -2.3725146842,
				"z": 1.4203720785,
				"element": "C" 
			},
			{
				"x": 0.7904932338,
				"y": -1.0313168446,
				"z": 0.9113307839,
				"element": "C" 
			},
			{
				"x": -0.3959448628,
				"y": -0.3448942866,
				"z": 1.0934194996,
				"element": "C" 
			},
			{
				"x": -4.5870543762,
				"y": 1.0819866002,
				"z": 2.207743656,
				"element": "H" 
			},
			{
				"x": -3.8043036423,
				"y": 2.6922238597,
				"z": 2.0965308854,
				"element": "H" 
			},
			{
				"x": -4.4556586047,
				"y": 1.9280853847,
				"z": 0.6314001819,
				"element": "H" 
			},
			{
				"x": 1.2549067922,
				"y": 2.9702889877,
				"z": -1.3940158547,
				"element": "H" 
			},
			{
				"x": -0.3918022834,
				"y": 3.2092809491,
				"z": -0.7752066573,
				"element": "H" 
			},
			{
				"x": 3.7839825598,
				"y": -0.9031862963,
				"z": 0.7391269502,
				"element": "H" 
			},
			{
				"x": 3.458993723,
				"y": -1.2937767504,
				"z": -0.9465159062,
				"element": "H" 
			},
			{
				"x": 3.2545177074,
				"y": -3.2720442531,
				"z": 1.0173459899,
				"element": "H" 
			},
			{
				"x": 2.1590609179,
				"y": -3.2402199571,
				"z": -0.3644213117,
				"element": "H" 
			},
			{
				"x": 1.5710452635,
				"y": -2.3035600259,
				"z": 2.4745834157,
				"element": "H" 
			},
			{
				"x": 0.5036615618,
				"y": -3.1566536466,
				"z": 1.3645248133,
				"element": "H" 
			},
			{
				"x": -1.2119458798,
				"y": -0.7572694701,
				"z": 1.677467168,
				"element": "H" 
			}
		],
		 "valence_orbital": [ 
			{
				"type": "occ",
				"energy": -0.29464,
				"method": "rhf"
			},
			{
				"type": "occ",
				"energy": -0.27458,
				"method": "rhf"
			},
			{
				"type": "occ",
				"energy": -0.27143,
				"method": "rhf"
			},
			{
				"type": "occ",
				"energy": -0.25158,
				"method": "rhf"
			},
			{
				"type": "occ",
				"energy": -0.20216,
				"method": "rhf"
			},
			{
				"type": "unocc",
				"energy": -0.04156,
				"method": "rhf"
			},
			{
				"type": "unocc",
				"energy": 0.00856,
				"method": "rhf"
			},
			{
				"type": "unocc",
				"energy": 0.05895,
				"method": "rhf"
			},
			{
				"type": "unocc",
				"energy": 0.09894,
				"method": "rhf"
			},
			{
				"type": "unocc",
				"energy": 0.1123,
				"method": "rhf"
			}
		],
		"cosmo_sigma_profile": { 
			"-0.025": 0.0,
			"-0.024": 0.0,
			"-0.023": 0.0,
			"-0.022": 0.0,
			"-0.021": 0.0,
			"-0.02": 0.0,
			"-0.019": 0.0,
			"-0.018": 0.0,
			"-0.017": 0.0,
			"-0.016": 0.0,
			"-0.015": 0.0,
			"-0.014": 0.0294620715751,
			"-0.013": 0.876321922688,
			"-0.012": 0.918029615889,
			"-0.011": 0.671716853766,
			"-0.01": 1.12705829866,
			"-0.009": 1.56585843061,
			"-0.008": 1.90195828688,
			"-0.007": 1.29407736805,
			"-0.006": 5.78796776287,
			"-0.005": 9.39648808911,
			"-0.004": 16.9275296535,
			"-0.003": 26.1613279207,
			"-0.002": 27.1750531463,
			"-0.001": 23.8828372008,
			"0.0": 21.2082169279,
			"0.001": 18.0199612798,
			"0.002": 16.9935947447,
			"0.003": 13.9633558339,
			"0.004": 8.80791681766,
			"0.005": 7.48181592396,
			"0.006": 5.10383714021,
			"0.007": 2.85482817915,
			"0.008": 2.69224139139,
			"0.009": 2.10345885031,
			"0.01": 3.38914846109,
			"0.011": 3.11128583957,
			"0.012": 2.06468624337,
			"0.013": 0.656875898774,
			"0.014": 1.07566122526,
			"0.015": 0.572815635692,
			"0.016": 0.199774008784,
			"0.017": 0.0,
			"0.018": 0.0,
			"0.019": 0.0,
			"0.02": 0.0,
			"0.021": 0.0,
			"0.022": 0.0,
			"0.023": 0.0,
			"0.024": 0.0,
			"0.025": 0.0
		}
	}
}
