{
	 "smiles": "CCC(C(=O)NC(=O)NC(C)=O)C1=CC=CC=C1", 
	 "Tm": 373.15, 
	 "num_atms": 34, 
	 "gaussian": { 
		 "optdone": 1, 
		 "sigma_profile": "yes", 
		 "theory": "DFT", 
		 "functional": "B3LYP", 
		 "basiset": "6-31G**", 
		 "properties": { 
			 "R2extent": 6593.1465, 
			 "electric_dipole_moment_norm": 4.44079440191, 
			 "electric_quadrupole_moment_norm": 25.994042005, 
			 "total_energy": -840.247968147, 
			 "HOMO_LUMO_gap": 0.19838, 
			 "cosmo_polarized_energy": -25.45, 
			 "cosmo_cavitation_energy": 37.92, 
			 "cosmo_dispersion_energy": -26.57, 
			 "cosmo_repulsion_energy": 2.09, 
			 "cosmo_total_nonelectrostatic_energy": 13.44, 
			 "SMD_solvation_energy": 8.47 
		},
		"coords": [
			{
				"x": -0.0674629245,
				"y": 2.5461100988,
				"z": -1.8990695859,
				"element": "C" 
			},
			{
				"x": -0.4964947126,
				"y": 2.2215090719,
				"z": -0.4668868695,
				"element": "C" 
			},
			{
				"x": -1.0562572981,
				"y": 0.7797642576,
				"z": -0.2207600103,
				"element": "C" 
			},
			{
				"x": 0.0391285967,
				"y": -0.2341508504,
				"z": -0.5114709701,
				"element": "C" 
			},
			{
				"x": 0.3035377296,
				"y": -0.6829394042,
				"z": -1.6143207113,
				"element": "O" 
			},
			{
				"x": 0.8422770011,
				"y": -0.6930712777,
				"z": 0.555558087,
				"element": "N" 
			},
			{
				"x": 0.9122671082,
				"y": -0.2922205589,
				"z": 1.8980620658,
				"element": "C" 
			},
			{
				"x": 0.3388754721,
				"y": 0.6647175721,
				"z": 2.3673017437,
				"element": "O" 
			},
			{
				"x": 1.7410420583,
				"y": -1.1600669643,
				"z": 2.6302913391,
				"element": "N" 
			},
			{
				"x": 2.2062871717,
				"y": -0.9540800713,
				"z": 3.9458488368,
				"element": "C" 
			},
			{
				"x": 2.9571682143,
				"y": -2.158732331,
				"z": 4.4926585417,
				"element": "C" 
			},
			{
				"x": 2.0337122982,
				"y": 0.0685069543,
				"z": 4.565326398,
				"element": "O" 
			},
			{
				"x": -2.3640785578,
				"y": 0.5127240491,
				"z": -0.9579863399,
				"element": "C" 
			},
			{
				"x": -2.4495494961,
				"y": 0.134514636,
				"z": -2.3068358594,
				"element": "C" 
			},
			{
				"x": -3.6939844159,
				"y": -0.0428370928,
				"z": -2.915539807,
				"element": "C" 
			},
			{
				"x": -4.8727814101,
				"y": 0.1588995099,
				"z": -2.1968031271,
				"element": "C" 
			},
			{
				"x": -4.8003268627,
				"y": 0.5361213498,
				"z": -0.8551663001,
				"element": "C" 
			},
			{
				"x": -3.5575725426,
				"y": 0.7071955313,
				"z": -0.2453875615,
				"element": "C" 
			},
			{
				"x": -0.9062552716,
				"y": 2.464891697,
				"z": -2.5963552566,
				"element": "H" 
			},
			{
				"x": 0.3114417399,
				"y": 3.5720763624,
				"z": -1.9508125523,
				"element": "H" 
			},
			{
				"x": 0.7233227664,
				"y": 1.8768215536,
				"z": -2.2508154894,
				"element": "H" 
			},
			{
				"x": -1.285870053,
				"y": 2.9131552359,
				"z": -0.1516889444,
				"element": "H" 
			},
			{
				"x": 0.3384324319,
				"y": 2.3730930984,
				"z": 0.2264525382,
				"element": "H" 
			},
			{
				"x": -1.2651955212,
				"y": 0.7392604435,
				"z": 0.8484963851,
				"element": "H" 
			},
			{
				"x": 1.5339257571,
				"y": -1.3493893826,
				"z": 0.2110235874,
				"element": "H" 
			},
			{
				"x": 1.9735851557,
				"y": -2.0480930725,
				"z": 2.2073668042,
				"element": "H" 
			},
			{
				"x": 2.2904881258,
				"y": -3.0240905452,
				"z": 4.5786842284,
				"element": "H" 
			},
			{
				"x": 3.7910164354,
				"y": -2.4392326881,
				"z": 3.8395540997,
				"element": "H" 
			},
			{
				"x": 3.3430668858,
				"y": -1.9051805209,
				"z": 5.4792530775,
				"element": "H" 
			},
			{
				"x": -1.541484869,
				"y": -0.0436856551,
				"z": -2.8683520109,
				"element": "H" 
			},
			{
				"x": -3.7387373208,
				"y": -0.3411869297,
				"z": -3.959480879,
				"element": "H" 
			},
			{
				"x": -5.8379404155,
				"y": 0.0207307392,
				"z": -2.6759668154,
				"element": "H" 
			},
			{
				"x": -5.7090022756,
				"y": 0.6917546302,
				"z": -0.2802103681,
				"element": "H" 
			},
			{
				"x": -3.5110810011,
				"y": 0.9969105536,
				"z": 0.8019317255,
				"element": "H" 
			}
		],
		 "valence_orbital": [ 
			{
				"type": "occ",
				"energy": -0.29248,
				"method": "rhf"
			},
			{
				"type": "occ",
				"energy": -0.27412,
				"method": "rhf"
			},
			{
				"type": "occ",
				"energy": -0.2615,
				"method": "rhf"
			},
			{
				"type": "occ",
				"energy": -0.24227,
				"method": "rhf"
			},
			{
				"type": "occ",
				"energy": -0.23715,
				"method": "rhf"
			},
			{
				"type": "unocc",
				"energy": -0.03877,
				"method": "rhf"
			},
			{
				"type": "unocc",
				"energy": -0.0026,
				"method": "rhf"
			},
			{
				"type": "unocc",
				"energy": 0.0053,
				"method": "rhf"
			},
			{
				"type": "unocc",
				"energy": 0.00921,
				"method": "rhf"
			},
			{
				"type": "unocc",
				"energy": 0.03602,
				"method": "rhf"
			}
		],
		"cosmo_sigma_profile": { 
			"-0.025": 0.0,
			"-0.024": 0.0,
			"-0.023": 0.0,
			"-0.022": 0.0,
			"-0.021": 0.0,
			"-0.02": 0.37691187098,
			"-0.019": 1.2256681597,
			"-0.018": 1.51320559607,
			"-0.017": 1.60873639422,
			"-0.016": 1.41417962718,
			"-0.015": 1.40494949098,
			"-0.014": 1.79628907678,
			"-0.013": 1.62927894807,
			"-0.012": 1.61758534325,
			"-0.011": 1.65115761528,
			"-0.01": 1.68689254836,
			"-0.009": 1.73045937748,
			"-0.008": 2.51913454146,
			"-0.007": 5.26396473522,
			"-0.006": 9.2339651216,
			"-0.005": 17.2437166564,
			"-0.004": 20.4383539838,
			"-0.003": 29.7167967221,
			"-0.002": 29.0705661641,
			"-0.001": 28.3113390894,
			"0.0": 21.2808940084,
			"0.001": 17.0659329732,
			"0.002": 14.1751452264,
			"0.003": 9.70052045554,
			"0.004": 12.554743443,
			"0.005": 12.3289204921,
			"0.006": 12.5388864118,
			"0.007": 4.87003201731,
			"0.008": 3.64324361525,
			"0.009": 4.61368857978,
			"0.01": 4.74272121591,
			"0.011": 7.06683046387,
			"0.012": 8.49646727548,
			"0.013": 3.53282067669,
			"0.014": 1.40279418818,
			"0.015": 1.5902679668,
			"0.016": 0.898687387928,
			"0.017": 0.112464198895,
			"0.018": 0.0,
			"0.019": 0.0,
			"0.02": 0.0,
			"0.021": 0.0,
			"0.022": 0.0,
			"0.023": 0.0,
			"0.024": 0.0,
			"0.025": 0.0
		}
	}
}
