{
	 "smiles": "CC1(NC(=O)NC1=O)C1=CC2=C(CCC2)C=C1", 
	 "Tm": 462.15, 
	 "num_atms": 31, 
	 "gaussian": { 
		 "optdone": 1, 
		 "sigma_profile": "yes", 
		 "theory": "DFT", 
		 "functional": "B3LYP", 
		 "basiset": "6-31G**", 
		 "properties": { 
			 "R2extent": 4780.8559, 
			 "electric_dipole_moment_norm": 2.91861590827, 
			 "electric_quadrupole_moment_norm": 13.1248443019, 
			 "total_energy": -763.827829581, 
			 "HOMO_LUMO_gap": 0.21549, 
			 "cosmo_polarized_energy": -15.92, 
			 "cosmo_cavitation_energy": 33.6, 
			 "cosmo_dispersion_energy": -24.23, 
			 "cosmo_repulsion_energy": 1.9, 
			 "cosmo_total_nonelectrostatic_energy": 11.27, 
			 "SMD_solvation_energy": 6.7 
		},
		"coords": [
			{
				"x": 2.7425694389,
				"y": 0.6273159671,
				"z": -1.5852557454,
				"element": "C" 
			},
			{
				"x": 1.9201665319,
				"y": 1.1412593127,
				"z": -0.3850077696,
				"element": "C" 
			},
			{
				"x": 1.436489351,
				"y": 2.5015567661,
				"z": -0.6170741262,
				"element": "N" 
			},
			{
				"x": 2.0075626792,
				"y": 3.4468785289,
				"z": 0.1976640634,
				"element": "C" 
			},
			{
				"x": 1.8694624175,
				"y": 4.6517637658,
				"z": 0.173039196,
				"element": "O" 
			},
			{
				"x": 2.8168741225,
				"y": 2.7222794758,
				"z": 1.0975359669,
				"element": "N" 
			},
			{
				"x": 2.8731404296,
				"y": 1.3747292115,
				"z": 0.8208743754,
				"element": "C" 
			},
			{
				"x": 3.5476843233,
				"y": 0.5400283696,
				"z": 1.3857698474,
				"element": "O" 
			},
			{
				"x": 0.8012767877,
				"y": 0.1604123123,
				"z": -0.0075514742,
				"element": "C" 
			},
			{
				"x": -0.5458910696,
				"y": 0.542387971,
				"z": -0.0582285999,
				"element": "C" 
			},
			{
				"x": -1.5394440917,
				"y": -0.3854766779,
				"z": 0.248961994,
				"element": "C" 
			},
			{
				"x": -1.2054394621,
				"y": -1.6930979357,
				"z": 0.6220450418,
				"element": "C" 
			},
			{
				"x": -2.4536830257,
				"y": -2.4942935359,
				"z": 0.9274202485,
				"element": "C" 
			},
			{
				"x": -3.5799329399,
				"y": -1.6485516528,
				"z": 0.2791952202,
				"element": "C" 
			},
			{
				"x": -3.0423972458,
				"y": -0.1943873171,
				"z": 0.2752235868,
				"element": "C" 
			},
			{
				"x": 0.1332551893,
				"y": -2.074376451,
				"z": 0.6942306265,
				"element": "C" 
			},
			{
				"x": 1.1299982882,
				"y": -1.1504892387,
				"z": 0.3753237549,
				"element": "C" 
			},
			{
				"x": 2.0896201262,
				"y": 0.4880862834,
				"z": -2.4522876008,
				"element": "H" 
			},
			{
				"x": 3.2060484577,
				"y": -0.3313933628,
				"z": -1.345766787,
				"element": "H" 
			},
			{
				"x": 3.5307127294,
				"y": 1.3406051463,
				"z": -1.8453398183,
				"element": "H" 
			},
			{
				"x": 0.9815015958,
				"y": 2.7949792015,
				"z": -1.4678278756,
				"element": "H" 
			},
			{
				"x": 3.3546443652,
				"y": 3.1754671442,
				"z": 1.8224051037,
				"element": "H" 
			},
			{
				"x": -0.8112578511,
				"y": 1.5593948866,
				"z": -0.3289630227,
				"element": "H" 
			},
			{
				"x": -2.4160616339,
				"y": -3.5187142241,
				"z": 0.5417724798,
				"element": "H" 
			},
			{
				"x": -2.5973119942,
				"y": -2.5718181768,
				"z": 2.0146587436,
				"element": "H" 
			},
			{
				"x": -4.5384844625,
				"y": -1.7471257369,
				"z": 0.7961865079,
				"element": "H" 
			},
			{
				"x": -3.7292913389,
				"y": -1.9800316865,
				"z": -0.754562248,
				"element": "H" 
			},
			{
				"x": -3.4197268934,
				"y": 0.3955734322,
				"z": -0.5669371149,
				"element": "H" 
			},
			{
				"x": -3.3404679122,
				"y": 0.3365462419,
				"z": 1.1906045099,
				"element": "H" 
			},
			{
				"x": 0.4092291676,
				"y": -3.0823823219,
				"z": 0.993325444,
				"element": "H" 
			},
			{
				"x": 2.1724539202,
				"y": -1.4387256989,
				"z": 0.4529654719,
				"element": "H" 
			}
		],
		 "valence_orbital": [ 
			{
				"type": "occ",
				"energy": -0.28791,
				"method": "rhf"
			},
			{
				"type": "occ",
				"energy": -0.27083,
				"method": "rhf"
			},
			{
				"type": "occ",
				"energy": -0.26331,
				"method": "rhf"
			},
			{
				"type": "occ",
				"energy": -0.24665,
				"method": "rhf"
			},
			{
				"type": "occ",
				"energy": -0.23273,
				"method": "rhf"
			},
			{
				"type": "unocc",
				"energy": -0.01724,
				"method": "rhf"
			},
			{
				"type": "unocc",
				"energy": -0.0052,
				"method": "rhf"
			},
			{
				"type": "unocc",
				"energy": 0.00681,
				"method": "rhf"
			},
			{
				"type": "unocc",
				"energy": 0.06021,
				"method": "rhf"
			},
			{
				"type": "unocc",
				"energy": 0.07416,
				"method": "rhf"
			}
		],
		"cosmo_sigma_profile": { 
			"-0.025": 0.0,
			"-0.024": 0.0,
			"-0.023": 0.0,
			"-0.022": 0.0,
			"-0.021": 0.0,
			"-0.02": 0.0,
			"-0.019": 0.0,
			"-0.018": 0.0,
			"-0.017": 0.396248933674,
			"-0.016": 1.35243023192,
			"-0.015": 1.95092116653,
			"-0.014": 2.11759104101,
			"-0.013": 1.28685655684,
			"-0.012": 2.37053322331,
			"-0.011": 2.56137485462,
			"-0.01": 1.6328966658,
			"-0.009": 1.79705982061,
			"-0.008": 2.10258069621,
			"-0.007": 3.0207806261,
			"-0.006": 4.92084637417,
			"-0.005": 10.4723716155,
			"-0.004": 16.0232912227,
			"-0.003": 27.3743475196,
			"-0.002": 31.4683566803,
			"-0.001": 34.6260757537,
			"0.0": 23.8793716889,
			"0.001": 17.3171112376,
			"0.002": 9.14353829754,
			"0.003": 9.16749785651,
			"0.004": 8.46196392698,
			"0.005": 9.27536224967,
			"0.006": 9.79193753678,
			"0.007": 3.42655380237,
			"0.008": 1.8277047821,
			"0.009": 2.78250503618,
			"0.01": 3.49545182742,
			"0.011": 5.61413353472,
			"0.012": 8.07301720756,
			"0.013": 6.55906105422,
			"0.014": 0.816651217913,
			"0.015": 0.0,
			"0.016": 0.0,
			"0.017": 0.0,
			"0.018": 0.0,
			"0.019": 0.0,
			"0.02": 0.0,
			"0.021": 0.0,
			"0.022": 0.0,
			"0.023": 0.0,
			"0.024": 0.0,
			"0.025": 0.0
		}
	}
}
