{
	 "smiles": "CNC(=S)NC1=CC(OC)=C(OC)C=C1C(C1=CC=C(C)O1)C1=CC=C(C)O1", 
	 "Tm": 438.15, 
	 "num_atms": 52, 
	 "gaussian": { 
		 "optdone": 1, 
		 "sigma_profile": "yes", 
		 "theory": "DFT", 
		 "functional": "B3LYP", 
		 "basiset": "6-31G**", 
		 "properties": { 
			 "R2extent": 12162.7518, 
			 "electric_dipole_moment_norm": 7.31746186461, 
			 "electric_quadrupole_moment_norm": 31.5852386407, 
			 "total_energy": -1623.23496138, 
			 "HOMO_LUMO_gap": 0.17652, 
			 "cosmo_polarized_energy": -22.08, 
			 "cosmo_cavitation_energy": 57.24, 
			 "cosmo_dispersion_energy": -36.27, 
			 "cosmo_repulsion_energy": 2.83, 
			 "cosmo_total_nonelectrostatic_energy": 23.8, 
			 "SMD_solvation_energy": 10.96 
		},
		"coords": [
			{
				"x": -2.0113557087,
				"y": -2.7078396287,
				"z": 2.9829414211,
				"element": "C" 
			},
			{
				"x": -2.5448695889,
				"y": -1.5382590534,
				"z": 3.674784649,
				"element": "N" 
			},
			{
				"x": -2.8323080161,
				"y": -0.3264193153,
				"z": 3.1281989205,
				"element": "C" 
			},
			{
				"x": -3.9855787835,
				"y": 0.6931596688,
				"z": 3.8169353181,
				"element": "S" 
			},
			{
				"x": -2.1794763562,
				"y": 0.029971357,
				"z": 1.9727215979,
				"element": "N" 
			},
			{
				"x": -0.8321566439,
				"y": -0.2631359411,
				"z": 1.5990224262,
				"element": "C" 
			},
			{
				"x": 0.1809992737,
				"y": -0.3630446608,
				"z": 2.5628130853,
				"element": "C" 
			},
			{
				"x": 1.5028629193,
				"y": -0.5858971381,
				"z": 2.1953875866,
				"element": "C" 
			},
			{
				"x": 2.4589372892,
				"y": -0.6136989991,
				"z": 3.1789847759,
				"element": "O" 
			},
			{
				"x": 3.1452410825,
				"y": -1.8548333008,
				"z": 3.3563263951,
				"element": "C" 
			},
			{
				"x": 1.8357906795,
				"y": -0.6823500236,
				"z": 0.8250594508,
				"element": "C" 
			},
			{
				"x": 3.1583427095,
				"y": -0.8616071267,
				"z": 0.5352574613,
				"element": "O" 
			},
			{
				"x": 3.5428004905,
				"y": -0.9115987477,
				"z": -0.8306794948,
				"element": "C" 
			},
			{
				"x": 0.8231775914,
				"y": -0.5811692701,
				"z": -0.1292729368,
				"element": "C" 
			},
			{
				"x": -0.5134426098,
				"y": -0.3851692096,
				"z": 0.2382126401,
				"element": "C" 
			},
			{
				"x": -1.6162787693,
				"y": -0.2629148594,
				"z": -0.8246369505,
				"element": "C" 
			},
			{
				"x": -1.9520584846,
				"y": 1.1758109121,
				"z": -1.1011937526,
				"element": "C" 
			},
			{
				"x": -3.08356433,
				"y": 1.914820052,
				"z": -0.9143193297,
				"element": "C" 
			},
			{
				"x": -2.7718755066,
				"y": 3.2514823185,
				"z": -1.3341961048,
				"element": "C" 
			},
			{
				"x": -1.4732873558,
				"y": 3.2401315133,
				"z": -1.7467240011,
				"element": "C" 
			},
			{
				"x": -0.5531187713,
				"y": 4.2790611688,
				"z": -2.2838900997,
				"element": "C" 
			},
			{
				"x": -0.9587882774,
				"y": 1.9747470911,
				"z": -1.6063798812,
				"element": "O" 
			},
			{
				"x": -1.3258258343,
				"y": -1.0366166469,
				"z": -2.0797550375,
				"element": "C" 
			},
			{
				"x": -0.9483537659,
				"y": -0.7080221466,
				"z": -3.3475442934,
				"element": "C" 
			},
			{
				"x": -0.8355646292,
				"y": -1.94283125,
				"z": -4.0714744694,
				"element": "C" 
			},
			{
				"x": -1.150035467,
				"y": -2.9411469749,
				"z": -3.1982227312,
				"element": "C" 
			},
			{
				"x": -1.2334160487,
				"y": -4.4228942431,
				"z": -3.3125594793,
				"element": "C" 
			},
			{
				"x": -1.4513099704,
				"y": -2.3994296839,
				"z": -1.9749813793,
				"element": "O" 
			},
			{
				"x": -2.2815514039,
				"y": -2.6888009119,
				"z": 1.9236677306,
				"element": "H" 
			},
			{
				"x": -0.9211915306,
				"y": -2.7746222602,
				"z": 3.0569860009,
				"element": "H" 
			},
			{
				"x": -2.4493937758,
				"y": -3.6009986282,
				"z": 3.4347410225,
				"element": "H" 
			},
			{
				"x": -3.0763525831,
				"y": -1.705122166,
				"z": 4.5166780383,
				"element": "H" 
			},
			{
				"x": -2.5492181858,
				"y": 0.8932186755,
				"z": 1.5885846855,
				"element": "H" 
			},
			{
				"x": -0.0465014971,
				"y": -0.2505153935,
				"z": 3.6171536686,
				"element": "H" 
			},
			{
				"x": 2.4403658031,
				"y": -2.659664467,
				"z": 3.6049519415,
				"element": "H" 
			},
			{
				"x": 3.8272410657,
				"y": -1.7058742118,
				"z": 4.1958958779,
				"element": "H" 
			},
			{
				"x": 3.7156030744,
				"y": -2.1311938835,
				"z": 2.4651763672,
				"element": "H" 
			},
			{
				"x": 3.2796376994,
				"y": 0.0146788112,
				"z": -1.3563699382,
				"element": "H" 
			},
			{
				"x": 4.6271886337,
				"y": -1.0316195928,
				"z": -0.8325162027,
				"element": "H" 
			},
			{
				"x": 3.0831287803,
				"y": -1.76132106,
				"z": -1.3514086865,
				"element": "H" 
			},
			{
				"x": 1.0559861044,
				"y": -0.6581615746,
				"z": -1.1841653684,
				"element": "H" 
			},
			{
				"x": -2.525186764,
				"y": -0.6923985249,
				"z": -0.3856340715,
				"element": "H" 
			},
			{
				"x": -4.0284660446,
				"y": 1.5514721138,
				"z": -0.5343575177,
				"element": "H" 
			},
			{
				"x": -3.4298466589,
				"y": 4.1086265202,
				"z": -1.3240849571,
				"element": "H" 
			},
			{
				"x": -0.1959192962,
				"y": 4.0221604567,
				"z": -3.288084915,
				"element": "H" 
			},
			{
				"x": -1.0727107192,
				"y": 5.2381655117,
				"z": -2.341913287,
				"element": "H" 
			},
			{
				"x": 0.3276447104,
				"y": 4.4043295828,
				"z": -1.6436159292,
				"element": "H" 
			},
			{
				"x": -0.7755835521,
				"y": 0.2913363803,
				"z": -3.7172983455,
				"element": "H" 
			},
			{
				"x": -0.5618641436,
				"y": -2.06835831,
				"z": -5.1096035494,
				"element": "H" 
			},
			{
				"x": -0.9697620905,
				"y": -4.7313944899,
				"z": -4.3268632084,
				"element": "H" 
			},
			{
				"x": -2.244676696,
				"y": -4.7868948177,
				"z": -3.0964664595,
				"element": "H" 
			},
			{
				"x": -0.5502580476,
				"y": -4.9206536221,
				"z": -2.6143686832,
				"element": "H" 
			}
		],
		 "valence_orbital": [ 
			{
				"type": "occ",
				"energy": -0.22141,
				"method": "rhf"
			},
			{
				"type": "occ",
				"energy": -0.21649,
				"method": "rhf"
			},
			{
				"type": "occ",
				"energy": -0.21003,
				"method": "rhf"
			},
			{
				"type": "occ",
				"energy": -0.20366,
				"method": "rhf"
			},
			{
				"type": "occ",
				"energy": -0.19145,
				"method": "rhf"
			},
			{
				"type": "unocc",
				"energy": -0.01493,
				"method": "rhf"
			},
			{
				"type": "unocc",
				"energy": -0.00852,
				"method": "rhf"
			},
			{
				"type": "unocc",
				"energy": 0.00728,
				"method": "rhf"
			},
			{
				"type": "unocc",
				"energy": 0.01956,
				"method": "rhf"
			},
			{
				"type": "unocc",
				"energy": 0.02275,
				"method": "rhf"
			}
		],
		"cosmo_sigma_profile": { 
			"-0.025": 0.0,
			"-0.024": 0.0,
			"-0.023": 0.0,
			"-0.022": 0.0,
			"-0.021": 0.0,
			"-0.02": 0.0,
			"-0.019": 0.0,
			"-0.018": 0.0,
			"-0.017": 0.0,
			"-0.016": 0.0,
			"-0.015": 0.0848161752491,
			"-0.014": 0.789949016797,
			"-0.013": 1.06747616305,
			"-0.012": 1.14358313665,
			"-0.011": 0.542804404314,
			"-0.01": 0.895166633158,
			"-0.009": 1.40951706024,
			"-0.008": 2.01326730171,
			"-0.007": 5.86742990051,
			"-0.006": 18.398937203,
			"-0.005": 38.3563049989,
			"-0.004": 44.8379734444,
			"-0.003": 49.5253751499,
			"-0.002": 43.72967296,
			"-0.001": 40.4770436603,
			"0.0": 29.9633605749,
			"0.001": 23.3828231903,
			"0.002": 24.5873103554,
			"0.003": 28.3888265442,
			"0.004": 19.7534074294,
			"0.005": 19.3430755588,
			"0.006": 14.4976930751,
			"0.007": 9.4568593863,
			"0.008": 6.5291384711,
			"0.009": 5.85975016385,
			"0.01": 7.14524884324,
			"0.011": 10.1956450814,
			"0.012": 6.42210018482,
			"0.013": 2.05816674489,
			"0.014": 0.0,
			"0.015": 0.0,
			"0.016": 0.0,
			"0.017": 0.0,
			"0.018": 0.0,
			"0.019": 0.0,
			"0.02": 0.0,
			"0.021": 0.0,
			"0.022": 0.0,
			"0.023": 0.0,
			"0.024": 0.0,
			"0.025": 0.0
		}
	}
}
