{
	 "smiles": "COC1=CC=CC2=C1C(OC(C)=O)=C(OC)C(OC)=C2OC(C)=O", 
	 "Tm": 342.65, 
	 "num_atms": 42, 
	 "gaussian": { 
		 "optdone": 1, 
		 "sigma_profile": "yes", 
		 "theory": "DFT", 
		 "functional": "B3LYP", 
		 "basiset": "6-31G**", 
		 "properties": { 
			 "R2extent": 8204.4576, 
			 "electric_dipole_moment_norm": 4.18298500834, 
			 "electric_quadrupole_moment_norm": 19.9904369192, 
			 "total_energy": -1185.19323931, 
			 "HOMO_LUMO_gap": 0.16605, 
			 "cosmo_polarized_energy": -17.38, 
			 "cosmo_cavitation_energy": 46.36, 
			 "cosmo_dispersion_energy": -29.94, 
			 "cosmo_repulsion_energy": 2.3, 
			 "cosmo_total_nonelectrostatic_energy": 18.73, 
			 "SMD_solvation_energy": 11.82 
		},
		"coords": [
			{
				"x": -3.1635770231,
				"y": -0.4468630283,
				"z": 1.3930766039,
				"element": "C" 
			},
			{
				"x": -1.9768697037,
				"y": 0.1687218286,
				"z": 1.8939150376,
				"element": "O" 
			},
			{
				"x": -1.4697444258,
				"y": 1.1687746425,
				"z": 1.0890354476,
				"element": "C" 
			},
			{
				"x": -1.9466256706,
				"y": 2.4505548987,
				"z": 1.267475226,
				"element": "C" 
			},
			{
				"x": -1.4507475644,
				"y": 3.5223601522,
				"z": 0.4963827044,
				"element": "C" 
			},
			{
				"x": -0.4763128657,
				"y": 3.3019443391,
				"z": -0.4480577006,
				"element": "C" 
			},
			{
				"x": 0.0506927497,
				"y": 1.999256225,
				"z": -0.6497339307,
				"element": "C" 
			},
			{
				"x": -0.4484930631,
				"y": 0.8931989836,
				"z": 0.1233202193,
				"element": "C" 
			},
			{
				"x": 0.1050433429,
				"y": -0.3938220483,
				"z": -0.1293271422,
				"element": "C" 
			},
			{
				"x": -0.3957817964,
				"y": -1.5258905469,
				"z": 0.5038614381,
				"element": "O" 
			},
			{
				"x": 0.2720029588,
				"y": -1.95995822,
				"z": 1.628847461,
				"element": "C" 
			},
			{
				"x": -0.4293504576,
				"y": -3.159600435,
				"z": 2.2105059574,
				"element": "C" 
			},
			{
				"x": 1.2564338096,
				"y": -1.4249777697,
				"z": 2.0654646753,
				"element": "O" 
			},
			{
				"x": 1.104585009,
				"y": -0.5848980222,
				"z": -1.0630103532,
				"element": "C" 
			},
			{
				"x": 1.6122350491,
				"y": -1.8445859073,
				"z": -1.2569190245,
				"element": "O" 
			},
			{
				"x": 1.153524378,
				"y": -2.4859032906,
				"z": -2.4548204664,
				"element": "C" 
			},
			{
				"x": 1.620741382,
				"y": 0.5140185469,
				"z": -1.8082367173,
				"element": "C" 
			},
			{
				"x": 2.5783652882,
				"y": 0.3308932173,
				"z": -2.7657902532,
				"element": "O" 
			},
			{
				"x": 3.8704014517,
				"y": -0.0971955019,
				"z": -2.2809577689,
				"element": "C" 
			},
			{
				"x": 1.082257227,
				"y": 1.7675073419,
				"z": -1.5996785551,
				"element": "C" 
			},
			{
				"x": 1.4826181162,
				"y": 2.8383735507,
				"z": -2.3945698402,
				"element": "O" 
			},
			{
				"x": 2.7609141382,
				"y": 3.3247985622,
				"z": -2.2721969033,
				"element": "C" 
			},
			{
				"x": 3.001913233,
				"y": 4.3845237909,
				"z": -3.31708052,
				"element": "C" 
			},
			{
				"x": 3.5520067142,
				"y": 2.9483331732,
				"z": -1.444679889,
				"element": "O" 
			},
			{
				"x": -3.512925606,
				"y": -1.1293117014,
				"z": 2.171379308,
				"element": "H" 
			},
			{
				"x": -3.9426915978,
				"y": 0.2995542175,
				"z": 1.1926989416,
				"element": "H" 
			},
			{
				"x": -2.9599259558,
				"y": -1.0156073526,
				"z": 0.4781758907,
				"element": "H" 
			},
			{
				"x": -2.7055102313,
				"y": 2.6137688178,
				"z": 2.0260700972,
				"element": "H" 
			},
			{
				"x": -1.8413496,
				"y": 4.5230292421,
				"z": 0.6551045824,
				"element": "H" 
			},
			{
				"x": -0.0912977585,
				"y": 4.1164424514,
				"z": -1.0494309118,
				"element": "H" 
			},
			{
				"x": -1.3451486849,
				"y": -2.8261413853,
				"z": 2.7089707526,
				"element": "H" 
			},
			{
				"x": 0.2217086434,
				"y": -3.638529912,
				"z": 2.9413083303,
				"element": "H" 
			},
			{
				"x": -0.7110935614,
				"y": -3.8655762684,
				"z": 1.4258433105,
				"element": "H" 
			},
			{
				"x": 0.0663150808,
				"y": -2.6255589511,
				"z": -2.4266426323,
				"element": "H" 
			},
			{
				"x": 1.4289153212,
				"y": -1.9067737316,
				"z": -3.3421810153,
				"element": "H" 
			},
			{
				"x": 1.6438373477,
				"y": -3.4608596951,
				"z": -2.4854242316,
				"element": "H" 
			},
			{
				"x": 4.2745054702,
				"y": 0.6495241573,
				"z": -1.5935282444,
				"element": "H" 
			},
			{
				"x": 4.5048530413,
				"y": -0.1684136797,
				"z": -3.166407562,
				"element": "H" 
			},
			{
				"x": 3.8001031911,
				"y": -1.0708501264,
				"z": -1.791180351,
				"element": "H" 
			},
			{
				"x": 3.971031247,
				"y": 4.8506036061,
				"z": -3.1429907243,
				"element": "H" 
			},
			{
				"x": 2.9850257672,
				"y": 3.924787834,
				"z": -4.3101212119,
				"element": "H" 
			},
			{
				"x": 2.2088156088,
				"y": 5.1366479946,
				"z": -3.2916700346,
				"element": "H" 
			}
		],
		 "valence_orbital": [ 
			{
				"type": "occ",
				"energy": -0.27026,
				"method": "rhf"
			},
			{
				"type": "occ",
				"energy": -0.26802,
				"method": "rhf"
			},
			{
				"type": "occ",
				"energy": -0.26204,
				"method": "rhf"
			},
			{
				"type": "occ",
				"energy": -0.23527,
				"method": "rhf"
			},
			{
				"type": "occ",
				"energy": -0.20622,
				"method": "rhf"
			},
			{
				"type": "unocc",
				"energy": -0.04017,
				"method": "rhf"
			},
			{
				"type": "unocc",
				"energy": -0.01352,
				"method": "rhf"
			},
			{
				"type": "unocc",
				"energy": 0.00542,
				"method": "rhf"
			},
			{
				"type": "unocc",
				"energy": 0.01651,
				"method": "rhf"
			},
			{
				"type": "unocc",
				"energy": 0.03549,
				"method": "rhf"
			}
		],
		"cosmo_sigma_profile": { 
			"-0.025": 0.0,
			"-0.024": 0.0,
			"-0.023": 0.0,
			"-0.022": 0.0,
			"-0.021": 0.0,
			"-0.02": 0.0,
			"-0.019": 0.0,
			"-0.018": 0.0,
			"-0.017": 0.0,
			"-0.016": 0.0,
			"-0.015": 0.0,
			"-0.014": 0.0,
			"-0.013": 0.0,
			"-0.012": 0.0,
			"-0.011": 0.0,
			"-0.01": 0.0,
			"-0.009": 0.0,
			"-0.008": 0.0488164114852,
			"-0.007": 4.07724248601,
			"-0.006": 17.3886793162,
			"-0.005": 26.879325402,
			"-0.004": 38.0161559721,
			"-0.003": 49.0829454767,
			"-0.002": 46.6994200288,
			"-0.001": 24.60838865,
			"0.0": 21.6555440891,
			"0.001": 20.5912340722,
			"0.002": 21.0114008715,
			"0.003": 21.10095755,
			"0.004": 16.5719249204,
			"0.005": 10.4954947111,
			"0.006": 9.07759009007,
			"0.007": 7.59442731493,
			"0.008": 7.30761073217,
			"0.009": 6.52942752248,
			"0.01": 7.45327859208,
			"0.011": 8.82268792376,
			"0.012": 3.47278746659,
			"0.013": 0.0637316292108,
			"0.014": 0.0,
			"0.015": 0.0,
			"0.016": 0.0,
			"0.017": 0.0,
			"0.018": 0.0,
			"0.019": 0.0,
			"0.02": 0.0,
			"0.021": 0.0,
			"0.022": 0.0,
			"0.023": 0.0,
			"0.024": 0.0,
			"0.025": 0.0
		}
	}
}
