{
	 "smiles": "CC1=CC2=NC(=CN2C=C1)C(O)=O", 
	 "Tm": 500.15, 
	 "num_atms": 21, 
	 "gaussian": { 
		 "optdone": 1, 
		 "sigma_profile": "yes", 
		 "theory": "DFT", 
		 "functional": "B3LYP", 
		 "basiset": "6-31G**", 
		 "properties": { 
			 "R2extent": 3318.3369, 
			 "electric_dipole_moment_norm": 8.35023066568, 
			 "electric_quadrupole_moment_norm": 28.7729387437, 
			 "total_energy": -607.730858387, 
			 "HOMO_LUMO_gap": 0.17449, 
			 "cosmo_polarized_energy": -23.77, 
			 "cosmo_cavitation_energy": 25.98, 
			 "cosmo_dispersion_energy": -19.23, 
			 "cosmo_repulsion_energy": 1.5, 
			 "cosmo_total_nonelectrostatic_energy": 8.26, 
			 "SMD_solvation_energy": 4.44 
		},
		"coords": [
			{
				"x": -0.5812953102,
				"y": 1.7382353287,
				"z": 2.6021308473,
				"element": "C" 
			},
			{
				"x": -0.4678266144,
				"y": 0.6786560117,
				"z": 1.5359391712,
				"element": "C" 
			},
			{
				"x": 0.353713778,
				"y": 0.830086839,
				"z": 0.4440863694,
				"element": "C" 
			},
			{
				"x": 0.4349598859,
				"y": -0.1833767956,
				"z": -0.5432866675,
				"element": "C" 
			},
			{
				"x": 1.1423290913,
				"y": -0.2384894995,
				"z": -1.6649229561,
				"element": "N" 
			},
			{
				"x": 0.8396618444,
				"y": -1.4473937221,
				"z": -2.2196730693,
				"element": "C" 
			},
			{
				"x": -0.0694359466,
				"y": -2.1593723912,
				"z": -1.4470354116,
				"element": "C" 
			},
			{
				"x": -0.337625206,
				"y": -1.3487998154,
				"z": -0.3679610534,
				"element": "N" 
			},
			{
				"x": -1.1672646734,
				"y": -1.5125217951,
				"z": 0.7169867292,
				"element": "C" 
			},
			{
				"x": -1.2377211,
				"y": -0.5260807356,
				"z": 1.6548754692,
				"element": "C" 
			},
			{
				"x": 1.4121745846,
				"y": -1.8714618172,
				"z": -3.5286304779,
				"element": "C" 
			},
			{
				"x": 1.4595190775,
				"y": -3.2253317913,
				"z": -3.7169722454,
				"element": "O" 
			},
			{
				"x": 1.7858266417,
				"y": -1.1189489557,
				"z": -4.390023726,
				"element": "O" 
			},
			{
				"x": -0.2919693408,
				"y": 1.3443605142,
				"z": 3.5835585618,
				"element": "H" 
			},
			{
				"x": 0.0581717145,
				"y": 2.5958999593,
				"z": 2.3806063515,
				"element": "H" 
			},
			{
				"x": -1.6125856293,
				"y": 2.099106962,
				"z": 2.6925482941,
				"element": "H" 
			},
			{
				"x": 0.9570911725,
				"y": 1.7190757886,
				"z": 0.2979698069,
				"element": "H" 
			},
			{
				"x": -0.581094432,
				"y": -3.0985160237,
				"z": -1.5939490985,
				"element": "H" 
			},
			{
				"x": -1.7285027518,
				"y": -2.4378772619,
				"z": 0.7655513101,
				"element": "H" 
			},
			{
				"x": -1.893810677,
				"y": -0.6656257961,
				"z": 2.5075491617,
				"element": "H" 
			},
			{
				"x": 1.318683891,
				"y": -3.6726250032,
				"z": -2.8704473666,
				"element": "H" 
			}
		],
		 "valence_orbital": [ 
			{
				"type": "occ",
				"energy": -0.30819,
				"method": "rhf"
			},
			{
				"type": "occ",
				"energy": -0.28427,
				"method": "rhf"
			},
			{
				"type": "occ",
				"energy": -0.26744,
				"method": "rhf"
			},
			{
				"type": "occ",
				"energy": -0.2563,
				"method": "rhf"
			},
			{
				"type": "occ",
				"energy": -0.22617,
				"method": "rhf"
			},
			{
				"type": "unocc",
				"energy": -0.05168,
				"method": "rhf"
			},
			{
				"type": "unocc",
				"energy": -0.02369,
				"method": "rhf"
			},
			{
				"type": "unocc",
				"energy": 0.00497,
				"method": "rhf"
			},
			{
				"type": "unocc",
				"energy": 0.06731,
				"method": "rhf"
			},
			{
				"type": "unocc",
				"energy": 0.07857,
				"method": "rhf"
			}
		],
		"cosmo_sigma_profile": { 
			"-0.025": 0.0,
			"-0.024": 0.0,
			"-0.023": 0.0,
			"-0.022": 0.0,
			"-0.021": 0.0,
			"-0.02": 0.0,
			"-0.019": 0.0,
			"-0.018": 0.682496415761,
			"-0.017": 1.07018168492,
			"-0.016": 1.29484060985,
			"-0.015": 0.81610753023,
			"-0.014": 0.896863198379,
			"-0.013": 1.26256787722,
			"-0.012": 1.27411965266,
			"-0.011": 3.39245375247,
			"-0.01": 4.90822037455,
			"-0.009": 4.07971300015,
			"-0.008": 3.83238397432,
			"-0.007": 7.23708675351,
			"-0.006": 7.51449531264,
			"-0.005": 11.0892799731,
			"-0.004": 12.939704452,
			"-0.003": 13.9486785252,
			"-0.002": 13.9630072027,
			"-0.001": 18.2429686191,
			"0.0": 16.7610901151,
			"0.001": 13.7332544735,
			"0.002": 11.8239188161,
			"0.003": 7.88078598473,
			"0.004": 2.51370623168,
			"0.005": 4.23709532951,
			"0.006": 3.41599534206,
			"0.007": 2.76046919506,
			"0.008": 3.7243339156,
			"0.009": 4.35186039672,
			"0.01": 6.10252126064,
			"0.011": 6.68562575234,
			"0.012": 5.83104186243,
			"0.013": 4.28854303669,
			"0.014": 1.98278873316,
			"0.015": 1.44722616439,
			"0.016": 1.07996608563,
			"0.017": 1.13574866672,
			"0.018": 0.0629693793693,
			"0.019": 0.0,
			"0.02": 0.0,
			"0.021": 0.0,
			"0.022": 0.0,
			"0.023": 0.0,
			"0.024": 0.0,
			"0.025": 0.0
		}
	}
}
