{
	 "smiles": "CC1=CC=C(C=C1)C(=O)NC(=C/C1=CC=CC=C1)C(O)=O", 
	 "Tm": 503.15, 
	 "num_atms": 36, 
	 "gaussian": { 
		 "optdone": 1, 
		 "sigma_profile": "yes", 
		 "theory": "DFT", 
		 "functional": "B3LYP", 
		 "basiset": "6-31G**", 
		 "properties": { 
			 "R2extent": 7943.7048, 
			 "electric_dipole_moment_norm": 5.45354591527, 
			 "electric_quadrupole_moment_norm": 15.0893087038, 
			 "total_energy": -937.298567465, 
			 "HOMO_LUMO_gap": 0.15978, 
			 "cosmo_polarized_energy": -19.94, 
			 "cosmo_cavitation_energy": 41.42, 
			 "cosmo_dispersion_energy": -28.68, 
			 "cosmo_repulsion_energy": 2.22, 
			 "cosmo_total_nonelectrostatic_energy": 14.96, 
			 "SMD_solvation_energy": 8.79 
		},
		"coords": [
			{
				"x": 1.9250728519,
				"y": -3.1410769122,
				"z": -4.9216643192,
				"element": "C" 
			},
			{
				"x": 1.7612932808,
				"y": -2.0749635139,
				"z": -3.8654667612,
				"element": "C" 
			},
			{
				"x": 0.4916391089,
				"y": -1.6907870992,
				"z": -3.4157292323,
				"element": "C" 
			},
			{
				"x": 0.3414076464,
				"y": -0.7261622621,
				"z": -2.420178023,
				"element": "C" 
			},
			{
				"x": 1.4663055101,
				"y": -0.1169905205,
				"z": -1.8475787353,
				"element": "C" 
			},
			{
				"x": 2.7393956892,
				"y": -0.4811377893,
				"z": -2.3092153927,
				"element": "C" 
			},
			{
				"x": 2.8817641525,
				"y": -1.4478885258,
				"z": -3.2978135087,
				"element": "C" 
			},
			{
				"x": 1.3933909655,
				"y": 0.9308182131,
				"z": -0.7807099268,
				"element": "C" 
			},
			{
				"x": 2.313696386,
				"y": 1.7027132084,
				"z": -0.549852552,
				"element": "O" 
			},
			{
				"x": 0.2137082736,
				"y": 0.959726457,
				"z": -0.0488285831,
				"element": "N" 
			},
			{
				"x": -0.0317848887,
				"y": 1.8951067656,
				"z": 0.9713573827,
				"element": "C" 
			},
			{
				"x": -0.555190333,
				"y": 1.5869120872,
				"z": 2.1796163344,
				"element": "C" 
			},
			{
				"x": -0.8791609043,
				"y": 0.2765289543,
				"z": 2.7501288646,
				"element": "C" 
			},
			{
				"x": -0.2379430467,
				"y": -0.9259417208,
				"z": 2.385579901,
				"element": "C" 
			},
			{
				"x": -0.5915913515,
				"y": -2.1323345403,
				"z": 2.9867233527,
				"element": "C" 
			},
			{
				"x": -1.5919119758,
				"y": -2.1725590423,
				"z": 3.9605099703,
				"element": "C" 
			},
			{
				"x": -2.2261486047,
				"y": -0.9889540343,
				"z": 4.3450794163,
				"element": "C" 
			},
			{
				"x": -1.8675090936,
				"y": 0.2190261029,
				"z": 3.7535145823,
				"element": "C" 
			},
			{
				"x": 0.1560794795,
				"y": 3.3468829374,
				"z": 0.658190373,
				"element": "C" 
			},
			{
				"x": 0.1176896354,
				"y": 3.607776968,
				"z": -0.6659851384,
				"element": "O" 
			},
			{
				"x": 0.2682253718,
				"y": 4.2164625031,
				"z": 1.4984085534,
				"element": "O" 
			},
			{
				"x": 2.1879320177,
				"y": -4.1056929311,
				"z": -4.4697221213,
				"element": "H" 
			},
			{
				"x": 2.7242364227,
				"y": -2.886991622,
				"z": -5.6251211854,
				"element": "H" 
			},
			{
				"x": 1.0032851383,
				"y": -3.2864513685,
				"z": -5.491783885,
				"element": "H" 
			},
			{
				"x": -0.3917923374,
				"y": -2.1438598441,
				"z": -3.8581906516,
				"element": "H" 
			},
			{
				"x": -0.6598200841,
				"y": -0.4234274488,
				"z": -2.1265940915,
				"element": "H" 
			},
			{
				"x": 3.6032485929,
				"y": 0.0138780789,
				"z": -1.8783433269,
				"element": "H" 
			},
			{
				"x": 3.8766702678,
				"y": -1.7207222255,
				"z": -3.6410711678,
				"element": "H" 
			},
			{
				"x": -0.379772487,
				"y": 0.1422916112,
				"z": -0.0712498137,
				"element": "H" 
			},
			{
				"x": -0.8093701503,
				"y": 2.4468334794,
				"z": 2.7926497525,
				"element": "H" 
			},
			{
				"x": 0.5690333978,
				"y": -0.9112104756,
				"z": 1.6617710482,
				"element": "H" 
			},
			{
				"x": -0.0761384424,
				"y": -3.0442107261,
				"z": 2.6990443215,
				"element": "H" 
			},
			{
				"x": -1.8664206181,
				"y": -3.1157678695,
				"z": 4.4235565965,
				"element": "H" 
			},
			{
				"x": -2.996354484,
				"y": -1.0066731573,
				"z": 5.1107173236,
				"element": "H" 
			},
			{
				"x": -2.3584595456,
				"y": 1.1382918448,
				"z": 4.0615052332,
				"element": "H" 
			},
			{
				"x": 0.2789941584,
				"y": 4.5616544177,
				"z": -0.7502545902,
				"element": "H" 
			}
		],
		 "valence_orbital": [ 
			{
				"type": "occ",
				"energy": -0.26166,
				"method": "rhf"
			},
			{
				"type": "occ",
				"energy": -0.26103,
				"method": "rhf"
			},
			{
				"type": "occ",
				"energy": -0.25758,
				"method": "rhf"
			},
			{
				"type": "occ",
				"energy": -0.24833,
				"method": "rhf"
			},
			{
				"type": "occ",
				"energy": -0.22252,
				"method": "rhf"
			},
			{
				"type": "unocc",
				"energy": -0.06274,
				"method": "rhf"
			},
			{
				"type": "unocc",
				"energy": -0.03606,
				"method": "rhf"
			},
			{
				"type": "unocc",
				"energy": -0.01376,
				"method": "rhf"
			},
			{
				"type": "unocc",
				"energy": -0.01085,
				"method": "rhf"
			},
			{
				"type": "unocc",
				"energy": 0.01751,
				"method": "rhf"
			}
		],
		"cosmo_sigma_profile": { 
			"-0.025": 0.0,
			"-0.024": 0.0,
			"-0.023": 0.0,
			"-0.022": 0.0,
			"-0.021": 0.0,
			"-0.02": 0.0,
			"-0.019": 0.0322738312206,
			"-0.018": 0.738731874753,
			"-0.017": 1.13381000744,
			"-0.016": 0.556114176935,
			"-0.015": 0.770947525257,
			"-0.014": 1.43151604759,
			"-0.013": 0.979398396805,
			"-0.012": 1.78157669833,
			"-0.011": 1.65270440559,
			"-0.01": 2.50678111097,
			"-0.009": 2.48109438744,
			"-0.008": 2.47776052901,
			"-0.007": 6.38894380613,
			"-0.006": 17.3807933331,
			"-0.005": 24.4241976816,
			"-0.004": 27.9829815624,
			"-0.003": 20.9001204585,
			"-0.002": 23.9832706854,
			"-0.001": 23.1560862703,
			"0.0": 24.7393817634,
			"0.001": 21.9047791262,
			"0.002": 19.1999753583,
			"0.003": 20.264288712,
			"0.004": 27.5541622486,
			"0.005": 15.0031127339,
			"0.006": 4.02950182792,
			"0.007": 6.23952291558,
			"0.008": 4.83971290996,
			"0.009": 4.75555725655,
			"0.01": 4.1044273019,
			"0.011": 5.42513963439,
			"0.012": 8.0895996125,
			"0.013": 3.75587390967,
			"0.014": 0.269891255615,
			"0.015": 0.0,
			"0.016": 0.0,
			"0.017": 0.0,
			"0.018": 0.0,
			"0.019": 0.0,
			"0.02": 0.0,
			"0.021": 0.0,
			"0.022": 0.0,
			"0.023": 0.0,
			"0.024": 0.0,
			"0.025": 0.0
		}
	}
}
