{
	 "smiles": "ClCC(=O)C1=CC=C(C=C1)C(=O)C(Cl)Cl", 
	 "Tm": 420.15, 
	 "num_atms": 22, 
	 "gaussian": { 
		 "optdone": 1, 
		 "sigma_profile": "yes", 
		 "theory": "DFT", 
		 "functional": "B3LYP", 
		 "basiset": "6-31G**", 
		 "properties": { 
			 "R2extent": 6845.6596, 
			 "electric_dipole_moment_norm": 3.01324408736, 
			 "electric_quadrupole_moment_norm": 16.8806591024, 
			 "total_energy": -1916.28944631, 
			 "HOMO_LUMO_gap": 0.16718, 
			 "cosmo_polarized_energy": -14.16, 
			 "cosmo_cavitation_energy": 32.47, 
			 "cosmo_dispersion_energy": -23.54, 
			 "cosmo_repulsion_energy": 1.86, 
			 "cosmo_total_nonelectrostatic_energy": 10.78, 
			 "SMD_solvation_energy": 5.65 
		},
		"coords": [
			{
				"x": -3.1241047615,
				"y": 0.0637737294,
				"z": 3.0380814676,
				"element": "Cl" 
			},
			{
				"x": -2.0705210463,
				"y": 1.5362955661,
				"z": 2.9222555296,
				"element": "C" 
			},
			{
				"x": -1.6653542546,
				"y": 1.8287851648,
				"z": 1.4756171182,
				"element": "C" 
			},
			{
				"x": -2.104187068,
				"y": 2.8309498046,
				"z": 0.9387891581,
				"element": "O" 
			},
			{
				"x": -0.717948476,
				"y": 0.9150873362,
				"z": 0.7614206379,
				"element": "C" 
			},
			{
				"x": -0.1278129517,
				"y": -0.202750106,
				"z": 1.3684366716,
				"element": "C" 
			},
			{
				"x": 0.7684798862,
				"y": -0.9980906163,
				"z": 0.6586575519,
				"element": "C" 
			},
			{
				"x": 1.0899651039,
				"y": -0.6893352276,
				"z": -0.6719177116,
				"element": "C" 
			},
			{
				"x": 0.4988906113,
				"y": 0.4337761324,
				"z": -1.2777399212,
				"element": "C" 
			},
			{
				"x": -0.3926406073,
				"y": 1.2252300356,
				"z": -0.5700688978,
				"element": "C" 
			},
			{
				"x": 2.0228975019,
				"y": -1.5020991239,
				"z": -1.5167571795,
				"element": "C" 
			},
			{
				"x": 2.2999739911,
				"y": -1.183857757,
				"z": -2.6528763871,
				"element": "O" 
			},
			{
				"x": 2.6223840618,
				"y": -2.7920801082,
				"z": -0.8963422343,
				"element": "C" 
			},
			{
				"x": 3.1959462518,
				"y": -3.9190277717,
				"z": -2.1451315741,
				"element": "Cl" 
			},
			{
				"x": 3.9566976621,
				"y": -2.3080320041,
				"z": 0.2304406652,
				"element": "Cl" 
			},
			{
				"x": -1.2061421785,
				"y": 1.3657871105,
				"z": 3.567154909,
				"element": "H" 
			},
			{
				"x": -2.6523935287,
				"y": 2.3814252133,
				"z": 3.2847882466,
				"element": "H" 
			},
			{
				"x": -0.3699361513,
				"y": -0.4697136032,
				"z": 2.3907427952,
				"element": "H" 
			},
			{
				"x": 1.2231432554,
				"y": -1.8437430145,
				"z": 1.1618611137,
				"element": "H" 
			},
			{
				"x": 0.7566242353,
				"y": 0.6608719744,
				"z": -2.3061970403,
				"element": "H" 
			},
			{
				"x": -0.8533510296,
				"y": 2.0955123387,
				"z": -1.0244266013,
				"element": "H" 
			},
			{
				"x": 1.8929894926,
				"y": -3.3294650734,
				"z": -0.2935883176,
				"element": "H" 
			}
		],
		 "valence_orbital": [ 
			{
				"type": "occ",
				"energy": -0.31832,
				"method": "rhf"
			},
			{
				"type": "occ",
				"energy": -0.28842,
				"method": "rhf"
			},
			{
				"type": "occ",
				"energy": -0.28689,
				"method": "rhf"
			},
			{
				"type": "occ",
				"energy": -0.28578,
				"method": "rhf"
			},
			{
				"type": "occ",
				"energy": -0.27841,
				"method": "rhf"
			},
			{
				"type": "unocc",
				"energy": -0.11123,
				"method": "rhf"
			},
			{
				"type": "unocc",
				"energy": -0.06063,
				"method": "rhf"
			},
			{
				"type": "unocc",
				"energy": -0.03626,
				"method": "rhf"
			},
			{
				"type": "unocc",
				"energy": -0.02141,
				"method": "rhf"
			},
			{
				"type": "unocc",
				"energy": -0.0024,
				"method": "rhf"
			}
		],
		"cosmo_sigma_profile": { 
			"-0.025": 0.0,
			"-0.024": 0.0,
			"-0.023": 0.0,
			"-0.022": 0.0,
			"-0.021": 0.0,
			"-0.02": 0.0,
			"-0.019": 0.0,
			"-0.018": 0.0,
			"-0.017": 0.0,
			"-0.016": 0.0,
			"-0.015": 0.0,
			"-0.014": 0.0,
			"-0.013": 0.609978736305,
			"-0.012": 3.08247291802,
			"-0.011": 2.4766456462,
			"-0.01": 4.75276951307,
			"-0.009": 4.96544746171,
			"-0.008": 8.78195328338,
			"-0.007": 8.73483755737,
			"-0.006": 11.7380836693,
			"-0.005": 9.418359742,
			"-0.004": 6.96380797663,
			"-0.003": 12.1430229717,
			"-0.002": 14.7659233441,
			"-0.001": 21.82792018,
			"0.0": 23.5897666373,
			"0.001": 27.4682903562,
			"0.002": 22.2642049877,
			"0.003": 21.077809886,
			"0.004": 22.3993486492,
			"0.005": 11.1001125653,
			"0.006": 5.50130508042,
			"0.007": 3.15473226542,
			"0.008": 4.7344168323,
			"0.009": 5.94008895801,
			"0.01": 6.81421167072,
			"0.011": 2.92715707102,
			"0.012": 0.053820134402,
			"0.013": 0.0,
			"0.014": 0.0,
			"0.015": 0.0,
			"0.016": 0.0,
			"0.017": 0.0,
			"0.018": 0.0,
			"0.019": 0.0,
			"0.02": 0.0,
			"0.021": 0.0,
			"0.022": 0.0,
			"0.023": 0.0,
			"0.024": 0.0,
			"0.025": 0.0
		}
	}
}
