{
	 "smiles": "[O-][N+](=O)C1=CC=CC(NN=C2C(=O)NC(=O)NC2=O)=C1", 
	 "Tm": 543.15, 
	 "num_atms": 27, 
	 "gaussian": { 
		 "optdone": 1, 
		 "sigma_profile": "yes", 
		 "theory": "DFT", 
		 "functional": "B3LYP", 
		 "basiset": "6-31G**", 
		 "properties": { 
			 "R2extent": 8463.0901, 
			 "electric_dipole_moment_norm": 1.63026896554, 
			 "electric_quadrupole_moment_norm": 22.1509587461, 
			 "total_energy": -1035.08454376, 
			 "HOMO_LUMO_gap": 0.1398, 
			 "cosmo_polarized_energy": -22.72, 
			 "cosmo_cavitation_energy": 34.75, 
			 "cosmo_dispersion_energy": -25.45, 
			 "cosmo_repulsion_energy": 1.92, 
			 "cosmo_total_nonelectrostatic_energy": 11.22, 
			 "SMD_solvation_energy": 9.95 
		},
		"coords": [
			{
				"x": 1.1067542452,
				"y": 4.3648054846,
				"z": 3.3841492129,
				"element": "O" 
			},
			{
				"x": 1.5084069284,
				"y": 3.5147861736,
				"z": 2.5924590163,
				"element": "N" 
			},
			{
				"x": 2.6913872392,
				"y": 3.2673895572,
				"z": 2.363510814,
				"element": "O" 
			},
			{
				"x": 0.4945465383,
				"y": 2.731976776,
				"z": 1.8614417193,
				"element": "C" 
			},
			{
				"x": -0.8538353976,
				"y": 2.9853107066,
				"z": 2.0959868733,
				"element": "C" 
			},
			{
				"x": -1.7951899729,
				"y": 2.2316202834,
				"z": 1.3921089933,
				"element": "C" 
			},
			{
				"x": -1.3979936136,
				"y": 1.2554739575,
				"z": 0.4824464446,
				"element": "C" 
			},
			{
				"x": -0.029661259,
				"y": 1.0253977892,
				"z": 0.26963569,
				"element": "C" 
			},
			{
				"x": 0.4192449957,
				"y": 0.0509258405,
				"z": -0.6383934976,
				"element": "N" 
			},
			{
				"x": -0.432507898,
				"y": -0.6691152425,
				"z": -1.3108640441,
				"element": "N" 
			},
			{
				"x": -0.0195444105,
				"y": -1.5830064175,
				"z": -2.1628364742,
				"element": "C" 
			},
			{
				"x": 1.3967961388,
				"y": -1.8663475897,
				"z": -2.4258305909,
				"element": "C" 
			},
			{
				"x": 2.3293200301,
				"y": -1.2728144853,
				"z": -1.8713525089,
				"element": "O" 
			},
			{
				"x": 1.6503388774,
				"y": -2.8602159016,
				"z": -3.3526389423,
				"element": "N" 
			},
			{
				"x": 0.7103285233,
				"y": -3.6158754949,
				"z": -4.0585100083,
				"element": "C" 
			},
			{
				"x": 1.0334011971,
				"y": -4.4715944708,
				"z": -4.8563785287,
				"element": "O" 
			},
			{
				"x": -0.6051695101,
				"y": -3.2978501014,
				"z": -3.7632184863,
				"element": "N" 
			},
			{
				"x": -1.0886543142,
				"y": -2.3346426262,
				"z": -2.8650555085,
				"element": "C" 
			},
			{
				"x": -2.2837620823,
				"y": -2.1722650824,
				"z": -2.7146664393,
				"element": "O" 
			},
			{
				"x": 0.9318979222,
				"y": 1.7658962921,
				"z": 0.961247099,
				"element": "C" 
			},
			{
				"x": -1.1398418956,
				"y": 3.7488786572,
				"z": 2.8075086174,
				"element": "H" 
			},
			{
				"x": -2.8533285667,
				"y": 2.4080898373,
				"z": 1.5553326052,
				"element": "H" 
			},
			{
				"x": -2.1231936769,
				"y": 0.6671312467,
				"z": -0.0670509482,
				"element": "H" 
			},
			{
				"x": 1.4226150401,
				"y": -0.1164935658,
				"z": -0.7935178841,
				"element": "H" 
			},
			{
				"x": 2.6214896288,
				"y": -3.0718104072,
				"z": -3.5489511893,
				"element": "H" 
			},
			{
				"x": -1.305925807,
				"y": -3.832256064,
				"z": -4.2623568373,
				"element": "H" 
			},
			{
				"x": 1.9945810998,
				"y": 1.6100048473,
				"z": 0.8171948028,
				"element": "H" 
			}
		],
		 "valence_orbital": [ 
			{
				"type": "occ",
				"energy": -0.3031,
				"method": "rhf"
			},
			{
				"type": "occ",
				"energy": -0.30219,
				"method": "rhf"
			},
			{
				"type": "occ",
				"energy": -0.29702,
				"method": "rhf"
			},
			{
				"type": "occ",
				"energy": -0.27527,
				"method": "rhf"
			},
			{
				"type": "occ",
				"energy": -0.25168,
				"method": "rhf"
			},
			{
				"type": "unocc",
				"energy": -0.11188,
				"method": "rhf"
			},
			{
				"type": "unocc",
				"energy": -0.09776,
				"method": "rhf"
			},
			{
				"type": "unocc",
				"energy": -0.03244,
				"method": "rhf"
			},
			{
				"type": "unocc",
				"energy": -0.01825,
				"method": "rhf"
			},
			{
				"type": "unocc",
				"energy": -0.00672,
				"method": "rhf"
			}
		],
		"cosmo_sigma_profile": { 
			"-0.025": 0.0,
			"-0.024": 0.0,
			"-0.023": 0.0,
			"-0.022": 0.0,
			"-0.021": 0.0,
			"-0.02": 0.0,
			"-0.019": 0.0,
			"-0.018": 0.00704896682779,
			"-0.017": 0.812082379664,
			"-0.016": 1.29319830087,
			"-0.015": 2.1846602671,
			"-0.014": 2.48723588166,
			"-0.013": 3.00167789997,
			"-0.012": 1.98006072925,
			"-0.011": 2.71735942465,
			"-0.01": 2.66583361063,
			"-0.009": 3.00335312867,
			"-0.008": 7.58622540231,
			"-0.007": 11.7851605003,
			"-0.006": 15.7885853072,
			"-0.005": 16.0778718056,
			"-0.004": 16.1774014042,
			"-0.003": 19.3238093898,
			"-0.002": 22.6059902621,
			"-0.001": 19.5463509611,
			"0.0": 18.1378330328,
			"0.001": 14.8762390744,
			"0.002": 9.13401694326,
			"0.003": 5.04276584839,
			"0.004": 7.73781572594,
			"0.005": 6.78192468171,
			"0.006": 7.17453435641,
			"0.007": 12.0936770504,
			"0.008": 10.630713293,
			"0.009": 8.94928329151,
			"0.01": 7.89109439019,
			"0.011": 10.8036826759,
			"0.012": 9.58102075011,
			"0.013": 2.32077540707,
			"0.014": 0.0956264988567,
			"0.015": 0.0,
			"0.016": 0.0,
			"0.017": 0.0,
			"0.018": 0.0,
			"0.019": 0.0,
			"0.02": 0.0,
			"0.021": 0.0,
			"0.022": 0.0,
			"0.023": 0.0,
			"0.024": 0.0,
			"0.025": 0.0
		}
	}
}
