{
	 "smiles": "CC(C)CCS(=O)(=O)CC(O)=O", 
	 "Tm": 335.15, 
	 "num_atms": 26, 
	 "gaussian": { 
		 "optdone": 1, 
		 "sigma_profile": "yes", 
		 "theory": "DFT", 
		 "functional": "B3LYP", 
		 "basiset": "6-31G**", 
		 "properties": { 
			 "R2extent": 3089.2832, 
			 "electric_dipole_moment_norm": 5.41745121067, 
			 "electric_quadrupole_moment_norm": 9.10978846681, 
			 "total_energy": -974.225106913, 
			 "HOMO_LUMO_gap": 0.25218, 
			 "cosmo_polarized_energy": -19.7, 
			 "cosmo_cavitation_energy": 30.17, 
			 "cosmo_dispersion_energy": -21.31, 
			 "cosmo_repulsion_energy": 1.68, 
			 "cosmo_total_nonelectrostatic_energy": 10.55, 
			 "SMD_solvation_energy": 5.55 
		},
		"coords": [
			{
				"x": 2.5008619113,
				"y": -1.1582292094,
				"z": 2.1297838495,
				"element": "C" 
			},
			{
				"x": 2.2431270316,
				"y": -0.0932977242,
				"z": 1.0526330747,
				"element": "C" 
			},
			{
				"x": 3.4053094663,
				"y": -0.0492314746,
				"z": 0.0489160904,
				"element": "C" 
			},
			{
				"x": 0.9135196173,
				"y": -0.3162389508,
				"z": 0.2990419892,
				"element": "C" 
			},
			{
				"x": -0.3154895028,
				"y": -0.1950955657,
				"z": 1.1989534379,
				"element": "C" 
			},
			{
				"x": -1.9069433899,
				"y": -0.5282179846,
				"z": 0.3499241938,
				"element": "S" 
			},
			{
				"x": -2.8154100413,
				"y": -1.1064734061,
				"z": 1.3519496299,
				"element": "O" 
			},
			{
				"x": -1.647228961,
				"y": -1.2125215677,
				"z": -0.9243700839,
				"element": "O" 
			},
			{
				"x": -2.6442402402,
				"y": 1.1171192413,
				"z": -0.0381827881,
				"element": "C" 
			},
			{
				"x": -1.9742259687,
				"y": 1.8819583089,
				"z": -1.1539040454,
				"element": "C" 
			},
			{
				"x": -0.7747364967,
				"y": 2.3831893377,
				"z": -0.761337226,
				"element": "O" 
			},
			{
				"x": -2.4342255982,
				"y": 2.0538718281,
				"z": -2.2553051147,
				"element": "O" 
			},
			{
				"x": 1.7322494011,
				"y": -1.1611924718,
				"z": 2.9092784182,
				"element": "H" 
			},
			{
				"x": 3.4624525207,
				"y": -0.9843709176,
				"z": 2.623748818,
				"element": "H" 
			},
			{
				"x": 2.5318504655,
				"y": -2.1609369353,
				"z": 1.6866907405,
				"element": "H" 
			},
			{
				"x": 2.1895924165,
				"y": 0.8879475416,
				"z": 1.5481044183,
				"element": "H" 
			},
			{
				"x": 4.3560411272,
				"y": 0.1457572322,
				"z": 0.5559149361,
				"element": "H" 
			},
			{
				"x": 3.5006413468,
				"y": -1.00438475,
				"z": -0.4810308909,
				"element": "H" 
			},
			{
				"x": 3.2579104219,
				"y": 0.7345662954,
				"z": -0.701875182,
				"element": "H" 
			},
			{
				"x": 0.8358392286,
				"y": 0.4158540273,
				"z": -0.5095329264,
				"element": "H" 
			},
			{
				"x": 0.9163553371,
				"y": -1.3056076001,
				"z": -0.1714824782,
				"element": "H" 
			},
			{
				"x": -0.3278449812,
				"y": -0.9419214206,
				"z": 1.9970678639,
				"element": "H" 
			},
			{
				"x": -0.4037609077,
				"y": 0.795152781,
				"z": 1.6565562948,
				"element": "H" 
			},
			{
				"x": -3.6646352395,
				"y": 0.8723882311,
				"z": -0.3349163979,
				"element": "H" 
			},
			{
				"x": -2.6515495444,
				"y": 1.6871451218,
				"z": 0.8936190794,
				"element": "H" 
			},
			{
				"x": -0.4059594204,
				"y": 2.8464700318,
				"z": -1.5328457008,
				"element": "H" 
			}
		],
		 "valence_orbital": [ 
			{
				"type": "occ",
				"energy": -0.32933,
				"method": "rhf"
			},
			{
				"type": "occ",
				"energy": -0.3165,
				"method": "rhf"
			},
			{
				"type": "occ",
				"energy": -0.30809,
				"method": "rhf"
			},
			{
				"type": "occ",
				"energy": -0.29731,
				"method": "rhf"
			},
			{
				"type": "occ",
				"energy": -0.28501,
				"method": "rhf"
			},
			{
				"type": "unocc",
				"energy": -0.03283,
				"method": "rhf"
			},
			{
				"type": "unocc",
				"energy": 0.04416,
				"method": "rhf"
			},
			{
				"type": "unocc",
				"energy": 0.05117,
				"method": "rhf"
			},
			{
				"type": "unocc",
				"energy": 0.06199,
				"method": "rhf"
			},
			{
				"type": "unocc",
				"energy": 0.07826,
				"method": "rhf"
			}
		],
		"cosmo_sigma_profile": { 
			"-0.025": 0.0,
			"-0.024": 0.0,
			"-0.023": 0.0,
			"-0.022": 0.0,
			"-0.021": 0.0,
			"-0.02": 0.0,
			"-0.019": 0.389979431847,
			"-0.018": 1.03707507506,
			"-0.017": 1.18163668348,
			"-0.016": 0.508924358187,
			"-0.015": 0.764771938688,
			"-0.014": 0.891767336502,
			"-0.013": 0.981083269006,
			"-0.012": 1.53414541967,
			"-0.011": 2.31589999048,
			"-0.01": 4.1928877315,
			"-0.009": 4.69350783461,
			"-0.008": 4.76918710652,
			"-0.007": 7.62375572616,
			"-0.006": 8.10453118359,
			"-0.005": 7.66531363564,
			"-0.004": 10.7545481434,
			"-0.003": 21.0332708987,
			"-0.002": 24.7058204099,
			"-0.001": 20.3302578753,
			"0.0": 19.6509119988,
			"0.001": 18.8405209016,
			"0.002": 9.51304093393,
			"0.003": 4.72916678314,
			"0.004": 4.00607968464,
			"0.005": 5.2092639591,
			"0.006": 3.41672811871,
			"0.007": 4.86350889073,
			"0.008": 5.4036849416,
			"0.009": 5.62160799745,
			"0.01": 8.98613398387,
			"0.011": 14.7252076263,
			"0.012": 6.52111018936,
			"0.013": 0.0651875685016,
			"0.014": 0.0,
			"0.015": 0.0,
			"0.016": 0.0,
			"0.017": 0.0,
			"0.018": 0.0,
			"0.019": 0.0,
			"0.02": 0.0,
			"0.021": 0.0,
			"0.022": 0.0,
			"0.023": 0.0,
			"0.024": 0.0,
			"0.025": 0.0
		}
	}
}
