{
	 "smiles": "NC1=NS(=O)(=O)C2=C1C=CC=C2", 
	 "Tm": 553.15, 
	 "num_atms": 18, 
	 "gaussian": { 
		 "optdone": 1, 
		 "sigma_profile": "yes", 
		 "theory": "DFT", 
		 "functional": "B3LYP", 
		 "basiset": "6-31G**", 
		 "properties": { 
			 "R2extent": 2290.0599, 
			 "electric_dipole_moment_norm": 8.42761924745, 
			 "electric_quadrupole_moment_norm": 23.4801383746, 
			 "total_energy": -928.426706928, 
			 "HOMO_LUMO_gap": 0.18534, 
			 "cosmo_polarized_energy": -26.08, 
			 "cosmo_cavitation_energy": 23.83, 
			 "cosmo_dispersion_energy": -18.55, 
			 "cosmo_repulsion_energy": 1.42, 
			 "cosmo_total_nonelectrostatic_energy": 6.7, 
			 "SMD_solvation_energy": 2.17 
		},
		"coords": [
			{
				"x": -2.4243513136,
				"y": -0.310744507,
				"z": -0.9462239917,
				"element": "N" 
			},
			{
				"x": -1.097843063,
				"y": -0.5573739566,
				"z": -1.0372157925,
				"element": "C" 
			},
			{
				"x": -0.5978794162,
				"y": -1.2005715285,
				"z": -2.0525275097,
				"element": "N" 
			},
			{
				"x": 1.085460148,
				"y": -1.3115062259,
				"z": -1.8939098091,
				"element": "S" 
			},
			{
				"x": 1.7392305586,
				"y": -0.5188685189,
				"z": -2.9356463989,
				"element": "O" 
			},
			{
				"x": 1.4686687655,
				"y": -2.7104837897,
				"z": -1.7017287642,
				"element": "O" 
			},
			{
				"x": 1.144785879,
				"y": -0.4292636669,
				"z": -0.320088965,
				"element": "C" 
			},
			{
				"x": -0.1579946625,
				"y": -0.0689107061,
				"z": 0.0147094928,
				"element": "C" 
			},
			{
				"x": -0.4052205213,
				"y": 0.6455769113,
				"z": 1.1860285401,
				"element": "C" 
			},
			{
				"x": 0.6796256538,
				"y": 0.9756795417,
				"z": 2.0045826199,
				"element": "C" 
			},
			{
				"x": 1.9819388895,
				"y": 0.602076424,
				"z": 1.6556088744,
				"element": "C" 
			},
			{
				"x": 2.2323632993,
				"y": -0.1095486649,
				"z": 0.475993932,
				"element": "C" 
			},
			{
				"x": -2.8333293019,
				"y": -0.0098813207,
				"z": -0.0776009494,
				"element": "H" 
			},
			{
				"x": -3.0289237086,
				"y": -0.7425289623,
				"z": -1.6291014873,
				"element": "H" 
			},
			{
				"x": -1.4082877413,
				"y": 0.9534779181,
				"z": 1.4677700407,
				"element": "H" 
			},
			{
				"x": 0.5084992579,
				"y": 1.5315244346,
				"z": 2.9211317776,
				"element": "H" 
			},
			{
				"x": 2.808948554,
				"y": 0.8698453427,
				"z": 2.306046412,
				"element": "H" 
			},
			{
				"x": 3.2399087229,
				"y": -0.3985987249,
				"z": 0.1959719783,
				"element": "H" 
			}
		],
		 "valence_orbital": [ 
			{
				"type": "occ",
				"energy": -0.31178,
				"method": "rhf"
			},
			{
				"type": "occ",
				"energy": -0.29001,
				"method": "rhf"
			},
			{
				"type": "occ",
				"energy": -0.28829,
				"method": "rhf"
			},
			{
				"type": "occ",
				"energy": -0.27492,
				"method": "rhf"
			},
			{
				"type": "occ",
				"energy": -0.25704,
				"method": "rhf"
			},
			{
				"type": "unocc",
				"energy": -0.0717,
				"method": "rhf"
			},
			{
				"type": "unocc",
				"energy": -0.0442,
				"method": "rhf"
			},
			{
				"type": "unocc",
				"energy": 0.02696,
				"method": "rhf"
			},
			{
				"type": "unocc",
				"energy": 0.03787,
				"method": "rhf"
			},
			{
				"type": "unocc",
				"energy": 0.06532,
				"method": "rhf"
			}
		],
		"cosmo_sigma_profile": { 
			"-0.025": 0.0,
			"-0.024": 0.0,
			"-0.023": 0.0,
			"-0.022": 0.0,
			"-0.021": 0.0,
			"-0.02": 0.0,
			"-0.019": 0.0,
			"-0.018": 0.0,
			"-0.017": 0.0762755663261,
			"-0.016": 1.59069341606,
			"-0.015": 2.95989048405,
			"-0.014": 3.10546918214,
			"-0.013": 2.6052260406,
			"-0.012": 2.72171564266,
			"-0.011": 2.06832286213,
			"-0.01": 2.91801231234,
			"-0.009": 3.79717932917,
			"-0.008": 7.19067858341,
			"-0.007": 11.5752637459,
			"-0.006": 8.58362512955,
			"-0.005": 7.97452765009,
			"-0.004": 8.49372738867,
			"-0.003": 8.88182691642,
			"-0.002": 9.83830109633,
			"-0.001": 8.38985795553,
			"0.0": 11.0807486814,
			"0.001": 14.9388297701,
			"0.002": 12.2254527586,
			"0.003": 4.22522838522,
			"0.004": 3.31286871825,
			"0.005": 3.25507143942,
			"0.006": 3.10936315745,
			"0.007": 3.58439939807,
			"0.008": 3.93411908226,
			"0.009": 5.34839291652,
			"0.01": 9.45097416397,
			"0.011": 16.5386587446,
			"0.012": 6.42731337856,
			"0.013": 1.38868337212,
			"0.014": 0.267946925111,
			"0.015": 0.0,
			"0.016": 0.0,
			"0.017": 0.0,
			"0.018": 0.0,
			"0.019": 0.0,
			"0.02": 0.0,
			"0.021": 0.0,
			"0.022": 0.0,
			"0.023": 0.0,
			"0.024": 0.0,
			"0.025": 0.0
		}
	}
}
