{
	 "smiles": "ClC1=CC(C(=O)C2=CC3=C(OCC3)C=C2)=C(Cl)C=C1", 
	 "Tm": 355.15, 
	 "num_atms": 29, 
	 "gaussian": { 
		 "optdone": 1, 
		 "sigma_profile": "yes", 
		 "theory": "DFT", 
		 "functional": "B3LYP", 
		 "basiset": "6-31G**", 
		 "properties": { 
			 "R2extent": 7761.7652, 
			 "electric_dipole_moment_norm": 4.87668325812, 
			 "electric_quadrupole_moment_norm": 8.7739152925, 
			 "total_energy": -1648.4469366, 
			 "HOMO_LUMO_gap": 0.16492, 
			 "cosmo_polarized_energy": -11.75, 
			 "cosmo_cavitation_energy": 37.04, 
			 "cosmo_dispersion_energy": -26.6, 
			 "cosmo_repulsion_energy": 2.07, 
			 "cosmo_total_nonelectrostatic_energy": 12.5, 
			 "SMD_solvation_energy": 6.14 
		},
		"coords": [
			{
				"x": 3.2877120181,
				"y": -4.7958222345,
				"z": 0.5058235265,
				"element": "Cl" 
			},
			{
				"x": 1.7516478934,
				"y": -3.9800109696,
				"z": 0.7405326366,
				"element": "C" 
			},
			{
				"x": 1.159246234,
				"y": -3.3138578102,
				"z": -0.3272548346,
				"element": "C" 
			},
			{
				"x": -0.0571401316,
				"y": -2.6383630074,
				"z": -0.1552920831,
				"element": "C" 
			},
			{
				"x": -0.6545560789,
				"y": -1.9792753085,
				"z": -1.3879497701,
				"element": "C" 
			},
			{
				"x": -0.9167139668,
				"y": -2.6936363216,
				"z": -2.3471887299,
				"element": "O" 
			},
			{
				"x": -0.8280145116,
				"y": -0.5083095879,
				"z": -1.4251029032,
				"element": "C" 
			},
			{
				"x": -0.3121019916,
				"y": 0.340684397,
				"z": -0.4237565693,
				"element": "C" 
			},
			{
				"x": -0.4695204161,
				"y": 1.7094308347,
				"z": -0.550218767,
				"element": "C" 
			},
			{
				"x": -1.143588611,
				"y": 2.2337535919,
				"z": -1.6603976616,
				"element": "C" 
			},
			{
				"x": -1.2300275774,
				"y": 3.5864787159,
				"z": -1.6517222909,
				"element": "O" 
			},
			{
				"x": -0.42259098,
				"y": 4.0814188213,
				"z": -0.5469872307,
				"element": "C" 
			},
			{
				"x": -0.0825801397,
				"y": 2.8634180943,
				"z": 0.3481935123,
				"element": "C" 
			},
			{
				"x": -1.6694426064,
				"y": 1.4215719774,
				"z": -2.6660568057,
				"element": "C" 
			},
			{
				"x": -1.4959010937,
				"y": 0.0483040197,
				"z": -2.5332946158,
				"element": "C" 
			},
			{
				"x": -0.6741719087,
				"y": -2.6916688067,
				"z": 1.1011206232,
				"element": "C" 
			},
			{
				"x": -2.2440125356,
				"y": -1.9461187365,
				"z": 1.3682118479,
				"element": "Cl" 
			},
			{
				"x": -0.0853083373,
				"y": -3.3754689985,
				"z": 2.1665095461,
				"element": "C" 
			},
			{
				"x": 1.1389818078,
				"y": -4.0158815602,
				"z": 1.9932816514,
				"element": "C" 
			},
			{
				"x": 1.6307514994,
				"y": -3.3142763649,
				"z": -1.3034797828,
				"element": "H" 
			},
			{
				"x": 0.2088083881,
				"y": -0.0778856652,
				"z": 0.4316680528,
				"element": "H" 
			},
			{
				"x": -1.0025763753,
				"y": 4.8540927926,
				"z": -0.0382391157,
				"element": "H" 
			},
			{
				"x": 0.4765086417,
				"y": 4.5381110291,
				"z": -0.9749915197,
				"element": "H" 
			},
			{
				"x": 0.9733026453,
				"y": 2.8546010577,
				"z": 0.635352509,
				"element": "H" 
			},
			{
				"x": -0.6735403784,
				"y": 2.8625486001,
				"z": 1.271895262,
				"element": "H" 
			},
			{
				"x": -2.1847750598,
				"y": 1.8555539979,
				"z": -3.515660289,
				"element": "H" 
			},
			{
				"x": -1.8713669814,
				"y": -0.6314119477,
				"z": -3.2907613303,
				"element": "H" 
			},
			{
				"x": -0.5902789293,
				"y": -3.4109672281,
				"z": 3.1254284972,
				"element": "H" 
			},
			{
				"x": 1.6054494828,
				"y": -4.5442133823,
				"z": 2.8170366343,
				"element": "H" 
			}
		],
		 "valence_orbital": [ 
			{
				"type": "occ",
				"energy": -0.28135,
				"method": "rhf"
			},
			{
				"type": "occ",
				"energy": -0.2619,
				"method": "rhf"
			},
			{
				"type": "occ",
				"energy": -0.25321,
				"method": "rhf"
			},
			{
				"type": "occ",
				"energy": -0.24842,
				"method": "rhf"
			},
			{
				"type": "occ",
				"energy": -0.22596,
				"method": "rhf"
			},
			{
				"type": "unocc",
				"energy": -0.06104,
				"method": "rhf"
			},
			{
				"type": "unocc",
				"energy": -0.02961,
				"method": "rhf"
			},
			{
				"type": "unocc",
				"energy": -0.02585,
				"method": "rhf"
			},
			{
				"type": "unocc",
				"energy": -0.01478,
				"method": "rhf"
			},
			{
				"type": "unocc",
				"energy": 0.01411,
				"method": "rhf"
			}
		],
		"cosmo_sigma_profile": { 
			"-0.025": 0.0,
			"-0.024": 0.0,
			"-0.023": 0.0,
			"-0.022": 0.0,
			"-0.021": 0.0,
			"-0.02": 0.0,
			"-0.019": 0.0,
			"-0.018": 0.0,
			"-0.017": 0.0,
			"-0.016": 0.0,
			"-0.015": 0.0,
			"-0.014": 0.0,
			"-0.013": 0.0,
			"-0.012": 0.0,
			"-0.011": 0.0,
			"-0.01": 0.0,
			"-0.009": 0.550740140929,
			"-0.008": 4.88713012004,
			"-0.007": 8.31371181758,
			"-0.006": 15.6435680874,
			"-0.005": 23.6077434499,
			"-0.004": 22.3064716347,
			"-0.003": 21.430913089,
			"-0.002": 19.468795994,
			"-0.001": 17.9667899975,
			"0.0": 25.0982120196,
			"0.001": 32.2059031461,
			"0.002": 26.1105098605,
			"0.003": 27.7662170795,
			"0.004": 26.6255510786,
			"0.005": 6.17803579744,
			"0.006": 2.97379007126,
			"0.007": 3.09583319934,
			"0.008": 2.94734020194,
			"0.009": 2.8069942477,
			"0.01": 3.75762666496,
			"0.011": 4.2508470728,
			"0.012": 3.07247702513,
			"0.013": 0.628307587783,
			"0.014": 0.0,
			"0.015": 0.0,
			"0.016": 0.0,
			"0.017": 0.0,
			"0.018": 0.0,
			"0.019": 0.0,
			"0.02": 0.0,
			"0.021": 0.0,
			"0.022": 0.0,
			"0.023": 0.0,
			"0.024": 0.0,
			"0.025": 0.0
		}
	}
}
