{
	 "smiles": "CC12CCC3C(CCC4CC(CCC34C)OC=O)C1CCC2(O)C#CC1=CC=CC=C1", 
	 "Tm": 478.15, 
	 "num_atms": 67, 
	 "gaussian": { 
		 "optdone": 1, 
		 "sigma_profile": "yes", 
		 "theory": "DFT", 
		 "functional": "B3LYP", 
		 "basiset": "6-31G**", 
		 "properties": { 
			 "R2extent": 12789.6649, 
			 "electric_dipole_moment_norm": 1.30988739974, 
			 "electric_quadrupole_moment_norm": 19.7430103416, 
			 "total_energy": -1314.30190917, 
			 "HOMO_LUMO_gap": 0.19315, 
			 "cosmo_polarized_energy": -12.72, 
			 "cosmo_cavitation_energy": 59.87, 
			 "cosmo_dispersion_energy": -37.92, 
			 "cosmo_repulsion_energy": 2.79, 
			 "cosmo_total_nonelectrostatic_energy": 24.74, 
			 "SMD_solvation_energy": 10.3 
		},
		"coords": [
			{
				"x": -0.0838711839,
				"y": 1.7442248408,
				"z": 4.4701516794,
				"element": "C" 
			},
			{
				"x": -0.1605748377,
				"y": 1.300071246,
				"z": 2.9923977468,
				"element": "C" 
			},
			{
				"x": 0.5954617478,
				"y": 2.3641829462,
				"z": 2.1583255818,
				"element": "C" 
			},
			{
				"x": 1.0952630607,
				"y": 1.9726958412,
				"z": 0.7427411909,
				"element": "C" 
			},
			{
				"x": 1.3386390381,
				"y": 0.4578551954,
				"z": 0.5468260871,
				"element": "C" 
			},
			{
				"x": 1.6816852517,
				"y": -0.1952456116,
				"z": 1.9103332036,
				"element": "C" 
			},
			{
				"x": 2.2954241043,
				"y": -1.6178771937,
				"z": 1.7829735137,
				"element": "C" 
			},
			{
				"x": 1.9889294372,
				"y": -2.3095425252,
				"z": 0.4465025697,
				"element": "C" 
			},
			{
				"x": 2.2269456846,
				"y": -1.4546146439,
				"z": -0.8394600434,
				"element": "C" 
			},
			{
				"x": 1.0764407179,
				"y": -1.8000699005,
				"z": -1.817879932,
				"element": "C" 
			},
			{
				"x": 0.9948227114,
				"y": -0.9560440477,
				"z": -3.0839047563,
				"element": "C" 
			},
			{
				"x": 0.9776656783,
				"y": 0.5249711343,
				"z": -2.7323547852,
				"element": "C" 
			},
			{
				"x": 2.190661927,
				"y": 0.8921767276,
				"z": -1.8734293489,
				"element": "C" 
			},
			{
				"x": 2.3793160206,
				"y": 0.0834844709,
				"z": -0.5562738518,
				"element": "C" 
			},
			{
				"x": 3.8257273926,
				"y": 0.4076189058,
				"z": -0.1055836921,
				"element": "C" 
			},
			{
				"x": 2.1701882854,
				"y": -1.1799260794,
				"z": -3.9310659554,
				"element": "O" 
			},
			{
				"x": 2.1317015749,
				"y": -2.229835702,
				"z": -4.7616387093,
				"element": "C" 
			},
			{
				"x": 1.2275267494,
				"y": -3.0229477233,
				"z": -4.8825232774,
				"element": "O" 
			},
			{
				"x": 0.4569325983,
				"y": -0.145980764,
				"z": 2.8523417485,
				"element": "C" 
			},
			{
				"x": -0.7224973637,
				"y": -1.0917293929,
				"z": 2.4931794689,
				"element": "C" 
			},
			{
				"x": -1.9704227699,
				"y": -0.3518606839,
				"z": 2.9840908032,
				"element": "C" 
			},
			{
				"x": -1.6850508541,
				"y": 1.1222494478,
				"z": 2.603659985,
				"element": "C" 
			},
			{
				"x": -2.4633993545,
				"y": 2.0612038013,
				"z": 3.3543296512,
				"element": "O" 
			},
			{
				"x": -1.9816093692,
				"y": 1.3138547172,
				"z": 1.1715864988,
				"element": "C" 
			},
			{
				"x": -2.3700155948,
				"y": 1.4537288113,
				"z": 0.0288579375,
				"element": "C" 
			},
			{
				"x": -2.7840555017,
				"y": 1.625597633,
				"z": -1.3287604717,
				"element": "C" 
			},
			{
				"x": -3.2260409086,
				"y": 0.5231718549,
				"z": -2.0876146826,
				"element": "C" 
			},
			{
				"x": -3.6220031527,
				"y": 0.6929266061,
				"z": -3.4121861896,
				"element": "C" 
			},
			{
				"x": -3.5892046334,
				"y": 1.9599357306,
				"z": -4.0001258929,
				"element": "C" 
			},
			{
				"x": -3.156304893,
				"y": 3.0599983534,
				"z": -3.2555896773,
				"element": "C" 
			},
			{
				"x": -2.7551675838,
				"y": 2.8989380975,
				"z": -1.9316122828,
				"element": "C" 
			},
			{
				"x": 0.9618804516,
				"y": 1.722103972,
				"z": 4.7963504565,
				"element": "H" 
			},
			{
				"x": -0.4679050939,
				"y": 2.7581974729,
				"z": 4.6027251601,
				"element": "H" 
			},
			{
				"x": -0.6538962045,
				"y": 1.0845090261,
				"z": 5.130463997,
				"element": "H" 
			},
			{
				"x": -0.0304676338,
				"y": 3.262023626,
				"z": 2.0951162529,
				"element": "H" 
			},
			{
				"x": 1.4671348906,
				"y": 2.6592614633,
				"z": 2.7541874075,
				"element": "H" 
			},
			{
				"x": 0.386414792,
				"y": 2.3215244563,
				"z": -0.0121568427,
				"element": "H" 
			},
			{
				"x": 2.0261311588,
				"y": 2.525335879,
				"z": 0.565555584,
				"element": "H" 
			},
			{
				"x": 0.3818244159,
				"y": 0.0337506433,
				"z": 0.2178298791,
				"element": "H" 
			},
			{
				"x": 2.4460536132,
				"y": 0.4366881642,
				"z": 2.3832953698,
				"element": "H" 
			},
			{
				"x": 3.3799086122,
				"y": -1.5640741562,
				"z": 1.9232415991,
				"element": "H" 
			},
			{
				"x": 1.9326245685,
				"y": -2.2549469143,
				"z": 2.5991504158,
				"element": "H" 
			},
			{
				"x": 2.5630310309,
				"y": -3.2411734629,
				"z": 0.3792024783,
				"element": "H" 
			},
			{
				"x": 0.9371901993,
				"y": -2.6197038332,
				"z": 0.4634558679,
				"element": "H" 
			},
			{
				"x": 3.1629619469,
				"y": -1.7789198919,
				"z": -1.3121113084,
				"element": "H" 
			},
			{
				"x": 0.1140856133,
				"y": -1.6671655721,
				"z": -1.3052914641,
				"element": "H" 
			},
			{
				"x": 1.1311623538,
				"y": -2.8615528457,
				"z": -2.0831460354,
				"element": "H" 
			},
			{
				"x": 0.117471406,
				"y": -1.2450304199,
				"z": -3.6684352297,
				"element": "H" 
			},
			{
				"x": 0.037213494,
				"y": 0.7327416093,
				"z": -2.2085363136,
				"element": "H" 
			},
			{
				"x": 0.9688022621,
				"y": 1.1265101966,
				"z": -3.6482309566,
				"element": "H" 
			},
			{
				"x": 3.084215942,
				"y": 0.735762009,
				"z": -2.4892058601,
				"element": "H" 
			},
			{
				"x": 2.1710095278,
				"y": 1.9621255074,
				"z": -1.6418850064,
				"element": "H" 
			},
			{
				"x": 4.5353121915,
				"y": 0.1002026797,
				"z": -0.8815313491,
				"element": "H" 
			},
			{
				"x": 3.9568291617,
				"y": 1.485503872,
				"z": 0.0412379045,
				"element": "H" 
			},
			{
				"x": 4.123097933,
				"y": -0.0864751764,
				"z": 0.8196711478,
				"element": "H" 
			},
			{
				"x": 3.0704360102,
				"y": -2.2617531502,
				"z": -5.3386706484,
				"element": "H" 
			},
			{
				"x": 0.8153947242,
				"y": -0.4446921503,
				"z": 3.8459341421,
				"element": "H" 
			},
			{
				"x": -0.6145650663,
				"y": -2.0819514151,
				"z": 2.9459761612,
				"element": "H" 
			},
			{
				"x": -0.7964903183,
				"y": -1.2410566739,
				"z": 1.4109326531,
				"element": "H" 
			},
			{
				"x": -2.9043499693,
				"y": -0.7218949932,
				"z": 2.5499589751,
				"element": "H" 
			},
			{
				"x": -2.060214071,
				"y": -0.4033813329,
				"z": 4.0745816859,
				"element": "H" 
			},
			{
				"x": -3.3517696665,
				"y": 2.0646400714,
				"z": 2.9740411064,
				"element": "H" 
			},
			{
				"x": -3.2548628545,
				"y": -0.4589766247,
				"z": -1.6264252881,
				"element": "H" 
			},
			{
				"x": -3.9586228094,
				"y": -0.1652550743,
				"z": -3.9864896121,
				"element": "H" 
			},
			{
				"x": -3.8996655069,
				"y": 2.0890985276,
				"z": -5.0327530795,
				"element": "H" 
			},
			{
				"x": -3.1297576697,
				"y": 4.0469089761,
				"z": -3.7083925619,
				"element": "H" 
			},
			{
				"x": -2.4172334144,
				"y": 3.7510034419,
				"z": -1.3505408055,
				"element": "H" 
			}
		],
		 "valence_orbital": [ 
			{
				"type": "occ",
				"energy": -0.26792,
				"method": "rhf"
			},
			{
				"type": "occ",
				"energy": -0.26672,
				"method": "rhf"
			},
			{
				"type": "occ",
				"energy": -0.26135,
				"method": "rhf"
			},
			{
				"type": "occ",
				"energy": -0.26003,
				"method": "rhf"
			},
			{
				"type": "occ",
				"energy": -0.22973,
				"method": "rhf"
			},
			{
				"type": "unocc",
				"energy": -0.03658,
				"method": "rhf"
			},
			{
				"type": "unocc",
				"energy": -0.01093,
				"method": "rhf"
			},
			{
				"type": "unocc",
				"energy": 0.01276,
				"method": "rhf"
			},
			{
				"type": "unocc",
				"energy": 0.04135,
				"method": "rhf"
			},
			{
				"type": "unocc",
				"energy": 0.0628,
				"method": "rhf"
			}
		],
		"cosmo_sigma_profile": { 
			"-0.025": 0.0,
			"-0.024": 0.0,
			"-0.023": 0.0,
			"-0.022": 0.0,
			"-0.021": 0.0,
			"-0.02": 0.0,
			"-0.019": 0.0,
			"-0.018": 0.0,
			"-0.017": 0.0,
			"-0.016": 0.0665660542354,
			"-0.015": 0.683174572219,
			"-0.014": 0.729364940885,
			"-0.013": 0.52581389561,
			"-0.012": 1.13574264887,
			"-0.011": 0.678116700679,
			"-0.01": 0.297617957905,
			"-0.009": 1.61084335703,
			"-0.008": 4.03842024566,
			"-0.007": 3.46878073512,
			"-0.006": 10.845630854,
			"-0.005": 13.2892458383,
			"-0.004": 19.2603766463,
			"-0.003": 33.5975819596,
			"-0.002": 59.204824244,
			"-0.001": 69.9669733488,
			"0.0": 67.1827444387,
			"0.001": 58.108815282,
			"0.002": 36.3826869877,
			"0.003": 20.9666573147,
			"0.004": 18.5750648127,
			"0.005": 11.7173404446,
			"0.006": 5.95030826066,
			"0.007": 5.18838607568,
			"0.008": 2.7135304263,
			"0.009": 2.9298177724,
			"0.01": 3.72246302536,
			"0.011": 5.61712140644,
			"0.012": 5.44616484652,
			"0.013": 1.01325739587,
			"0.014": 0.0,
			"0.015": 0.0,
			"0.016": 0.0,
			"0.017": 0.0,
			"0.018": 0.0,
			"0.019": 0.0,
			"0.02": 0.0,
			"0.021": 0.0,
			"0.022": 0.0,
			"0.023": 0.0,
			"0.024": 0.0,
			"0.025": 0.0
		}
	}
}
