{
	 "smiles": "CC1=NC(=NC(Cl)=C1)C1=CC(=CC=C1)[N+]([O-])=O", 
	 "Tm": 421.15, 
	 "num_atms": 25, 
	 "gaussian": { 
		 "optdone": 1, 
		 "sigma_profile": "yes", 
		 "theory": "DFT", 
		 "functional": "B3LYP", 
		 "basiset": "6-31G**", 
		 "properties": { 
			 "R2extent": 6426.9987, 
			 "electric_dipole_moment_norm": 4.12600845491, 
			 "electric_quadrupole_moment_norm": 20.4936660181, 
			 "total_energy": -1198.80376215, 
			 "HOMO_LUMO_gap": 0.17271, 
			 "cosmo_polarized_energy": -10.58, 
			 "cosmo_cavitation_energy": 32.88, 
			 "cosmo_dispersion_energy": -23.98, 
			 "cosmo_repulsion_energy": 1.87, 
			 "cosmo_total_nonelectrostatic_energy": 10.76, 
			 "SMD_solvation_energy": 5.63 
		},
		"coords": [
			{
				"x": 1.6115067425,
				"y": -0.8801217078,
				"z": -3.0786135561,
				"element": "C" 
			},
			{
				"x": 1.555224435,
				"y": 0.3498589342,
				"z": -2.2126498242,
				"element": "C" 
			},
			{
				"x": 1.0116267713,
				"y": 0.2260112371,
				"z": -0.9941259785,
				"element": "N" 
			},
			{
				"x": 0.9597734181,
				"y": 1.3196006351,
				"z": -0.2201926363,
				"element": "C" 
			},
			{
				"x": 1.4106542575,
				"y": 2.5385742852,
				"z": -0.5666281371,
				"element": "N" 
			},
			{
				"x": 1.9428153436,
				"y": 2.6419234627,
				"z": -1.770076863,
				"element": "C" 
			},
			{
				"x": 2.5376145958,
				"y": 4.2249439099,
				"z": -2.242218539,
				"element": "Cl" 
			},
			{
				"x": 2.0523167922,
				"y": 1.5805790331,
				"z": -2.6619361,
				"element": "C" 
			},
			{
				"x": 0.3567019879,
				"y": 1.1797469316,
				"z": 1.1301266095,
				"element": "C" 
			},
			{
				"x": -0.131623138,
				"y": -0.0627581465,
				"z": 1.552513333,
				"element": "C" 
			},
			{
				"x": -0.6911590831,
				"y": -0.1665006687,
				"z": 2.8205235891,
				"element": "C" 
			},
			{
				"x": -0.7850460963,
				"y": 0.9205263969,
				"z": 3.6892780792,
				"element": "C" 
			},
			{
				"x": -0.2962462709,
				"y": 2.1529427357,
				"z": 3.2598642773,
				"element": "C" 
			},
			{
				"x": 0.2701632051,
				"y": 2.284870188,
				"z": 1.9923501733,
				"element": "C" 
			},
			{
				"x": -1.2047968833,
				"y": -1.4756296744,
				"z": 3.2639546429,
				"element": "N" 
			},
			{
				"x": -1.1122426638,
				"y": -2.4210001849,
				"z": 2.4828758595,
				"element": "O" 
			},
			{
				"x": -1.6956467418,
				"y": -1.5421337887,
				"z": 4.3907126051,
				"element": "O" 
			},
			{
				"x": 1.1760690907,
				"y": -1.7271645395,
				"z": -2.54758246,
				"element": "H" 
			},
			{
				"x": 1.0620028417,
				"y": -0.7232549016,
				"z": -4.0131473853,
				"element": "H" 
			},
			{
				"x": 2.6461361835,
				"y": -1.1198956553,
				"z": -3.3468704255,
				"element": "H" 
			},
			{
				"x": 2.4950731509,
				"y": 1.7011433574,
				"z": -3.6427500494,
				"element": "H" 
			},
			{
				"x": -0.0748449077,
				"y": -0.9267443725,
				"z": 0.9044435178,
				"element": "H" 
			},
			{
				"x": -1.2303208658,
				"y": 0.7847814649,
				"z": 4.6667875651,
				"element": "H" 
			},
			{
				"x": -0.3575722378,
				"y": 3.0143366384,
				"z": 3.917282987,
				"element": "H" 
			},
			{
				"x": 0.6523200726,
				"y": 3.2405644296,
				"z": 1.6520787159,
				"element": "H" 
			}
		],
		 "valence_orbital": [ 
			{
				"type": "occ",
				"energy": -0.30306,
				"method": "rhf"
			},
			{
				"type": "occ",
				"energy": -0.29018,
				"method": "rhf"
			},
			{
				"type": "occ",
				"energy": -0.28219,
				"method": "rhf"
			},
			{
				"type": "occ",
				"energy": -0.27553,
				"method": "rhf"
			},
			{
				"type": "occ",
				"energy": -0.26275,
				"method": "rhf"
			},
			{
				"type": "unocc",
				"energy": -0.09004,
				"method": "rhf"
			},
			{
				"type": "unocc",
				"energy": -0.07435,
				"method": "rhf"
			},
			{
				"type": "unocc",
				"energy": -0.05391,
				"method": "rhf"
			},
			{
				"type": "unocc",
				"energy": -0.00996,
				"method": "rhf"
			},
			{
				"type": "unocc",
				"energy": 0.013,
				"method": "rhf"
			}
		],
		"cosmo_sigma_profile": { 
			"-0.025": 0.0,
			"-0.024": 0.0,
			"-0.023": 0.0,
			"-0.022": 0.0,
			"-0.021": 0.0,
			"-0.02": 0.0,
			"-0.019": 0.0,
			"-0.018": 0.0,
			"-0.017": 0.0,
			"-0.016": 0.0,
			"-0.015": 0.0,
			"-0.014": 0.0,
			"-0.013": 0.0,
			"-0.012": 0.0,
			"-0.011": 0.0,
			"-0.01": 0.0368375858401,
			"-0.009": 1.12565076969,
			"-0.008": 3.24870835308,
			"-0.007": 7.38608103994,
			"-0.006": 14.2753862163,
			"-0.005": 14.2879922788,
			"-0.004": 15.5500298008,
			"-0.003": 17.4534196865,
			"-0.002": 29.4654649792,
			"-0.001": 30.2366737894,
			"0.0": 28.0416840016,
			"0.001": 21.2326004698,
			"0.002": 15.6628982659,
			"0.003": 13.7984025817,
			"0.004": 11.7393234027,
			"0.005": 8.04713068614,
			"0.006": 7.71019573069,
			"0.007": 11.0681000347,
			"0.008": 9.79390276586,
			"0.009": 4.90305299458,
			"0.01": 2.26170014779,
			"0.011": 0.0263447087976,
			"0.012": 0.0,
			"0.013": 0.0,
			"0.014": 0.0,
			"0.015": 0.0,
			"0.016": 0.0,
			"0.017": 0.0,
			"0.018": 0.0,
			"0.019": 0.0,
			"0.02": 0.0,
			"0.021": 0.0,
			"0.022": 0.0,
			"0.023": 0.0,
			"0.024": 0.0,
			"0.025": 0.0
		}
	}
}
