{
	 "smiles": "ClS(=O)(=O)C1=CC2=C(OCC(=O)N2)C=C1", 
	 "Tm": 451.15, 
	 "num_atms": 21, 
	 "gaussian": { 
		 "optdone": 1, 
		 "sigma_profile": "yes", 
		 "theory": "DFT", 
		 "functional": "B3LYP", 
		 "basiset": "6-31G**", 
		 "properties": { 
			 "R2extent": 6850.6548, 
			 "electric_dipole_moment_norm": 4.03784483233, 
			 "electric_quadrupole_moment_norm": 31.7245802205, 
			 "total_energy": -1522.42893361, 
			 "HOMO_LUMO_gap": 0.15877, 
			 "cosmo_polarized_energy": -17.07, 
			 "cosmo_cavitation_energy": 29.37, 
			 "cosmo_dispersion_energy": -22.37, 
			 "cosmo_repulsion_energy": 1.7, 
			 "cosmo_total_nonelectrostatic_energy": 8.71, 
			 "SMD_solvation_energy": 4.59 
		},
		"coords": [
			{
				"x": 2.6239009642,
				"y": -4.8889628589,
				"z": -1.0043739689,
				"element": "Cl" 
			},
			{
				"x": 1.1560776365,
				"y": -4.6500322175,
				"z": 0.5312454059,
				"element": "S" 
			},
			{
				"x": -0.1199096481,
				"y": -5.0032558891,
				"z": -0.0798605273,
				"element": "O" 
			},
			{
				"x": 1.6816033388,
				"y": -5.3431032346,
				"z": 1.7004772847,
				"element": "O" 
			},
			{
				"x": 1.2093210076,
				"y": -2.8937945926,
				"z": 0.8100167585,
				"element": "C" 
			},
			{
				"x": 0.3617686824,
				"y": -2.077557546,
				"z": 0.0574045557,
				"element": "C" 
			},
			{
				"x": 0.3989449928,
				"y": -0.7026116371,
				"z": 0.2694454025,
				"element": "C" 
			},
			{
				"x": 1.2708131371,
				"y": -0.1702126199,
				"z": 1.2422234548,
				"element": "C" 
			},
			{
				"x": 1.347427182,
				"y": 1.1725911778,
				"z": 1.4382357673,
				"element": "O" 
			},
			{
				"x": 0.1717825189,
				"y": 1.9342442097,
				"z": 1.1327652127,
				"element": "C" 
			},
			{
				"x": -0.5422322521,
				"y": 1.5163542483,
				"z": -0.1487856162,
				"element": "C" 
			},
			{
				"x": -1.2349609419,
				"y": 2.2847989798,
				"z": -0.7884760572,
				"element": "O" 
			},
			{
				"x": -0.3810452631,
				"y": 0.1909172419,
				"z": -0.4758216328,
				"element": "N" 
			},
			{
				"x": 2.1055472734,
				"y": -1.0074477327,
				"z": 1.9820313271,
				"element": "C" 
			},
			{
				"x": 2.0878939786,
				"y": -2.3830722013,
				"z": 1.7657600808,
				"element": "C" 
			},
			{
				"x": -0.3105988646,
				"y": -2.5111155501,
				"z": -0.6752319125,
				"element": "H" 
			},
			{
				"x": -0.5435019887,
				"y": 1.8673878924,
				"z": 1.9654631584,
				"element": "H" 
			},
			{
				"x": 0.4884086851,
				"y": 2.9716074678,
				"z": 1.0284717554,
				"element": "H" 
			},
			{
				"x": -0.8940898763,
				"y": -0.1368326611,
				"z": -1.2848517799,
				"element": "H" 
			},
			{
				"x": 2.7637223536,
				"y": -0.5613597177,
				"z": 2.7192595034,
				"element": "H" 
			},
			{
				"x": 2.7250270838,
				"y": -3.0479427592,
				"z": 2.3366018278,
				"element": "H" 
			}
		],
		 "valence_orbital": [ 
			{
				"type": "occ",
				"energy": -0.32909,
				"method": "rhf"
			},
			{
				"type": "occ",
				"energy": -0.31491,
				"method": "rhf"
			},
			{
				"type": "occ",
				"energy": -0.29015,
				"method": "rhf"
			},
			{
				"type": "occ",
				"energy": -0.27833,
				"method": "rhf"
			},
			{
				"type": "occ",
				"energy": -0.25108,
				"method": "rhf"
			},
			{
				"type": "unocc",
				"energy": -0.09231,
				"method": "rhf"
			},
			{
				"type": "unocc",
				"energy": -0.04998,
				"method": "rhf"
			},
			{
				"type": "unocc",
				"energy": -0.04509,
				"method": "rhf"
			},
			{
				"type": "unocc",
				"energy": -0.00241,
				"method": "rhf"
			},
			{
				"type": "unocc",
				"energy": 0.04966,
				"method": "rhf"
			}
		],
		"cosmo_sigma_profile": { 
			"-0.025": 0.0,
			"-0.024": 0.0,
			"-0.023": 0.0,
			"-0.022": 0.0,
			"-0.021": 0.0,
			"-0.02": 0.0,
			"-0.019": 0.0,
			"-0.018": 0.0,
			"-0.017": 0.323216546702,
			"-0.016": 1.73948434961,
			"-0.015": 1.68380779819,
			"-0.014": 1.05855658474,
			"-0.013": 1.2701201208,
			"-0.012": 1.3201052102,
			"-0.011": 1.34080489081,
			"-0.01": 1.5243642067,
			"-0.009": 4.5134189843,
			"-0.008": 10.3438834861,
			"-0.007": 10.0904163665,
			"-0.006": 10.1351250512,
			"-0.005": 11.0469592133,
			"-0.004": 11.164408935,
			"-0.003": 9.30790708983,
			"-0.002": 13.4985779788,
			"-0.001": 19.1631107313,
			"0.0": 19.7520649636,
			"0.001": 17.3154888794,
			"0.002": 12.6486215119,
			"0.003": 15.8044712322,
			"0.004": 13.0801928088,
			"0.005": 5.46008827645,
			"0.006": 6.09850378873,
			"0.007": 7.65413273371,
			"0.008": 11.9325114126,
			"0.009": 7.08770289894,
			"0.01": 1.99772284444,
			"0.011": 2.93820196185,
			"0.012": 5.72775038472,
			"0.013": 1.58667951347,
			"0.014": 0.0,
			"0.015": 0.0,
			"0.016": 0.0,
			"0.017": 0.0,
			"0.018": 0.0,
			"0.019": 0.0,
			"0.02": 0.0,
			"0.021": 0.0,
			"0.022": 0.0,
			"0.023": 0.0,
			"0.024": 0.0,
			"0.025": 0.0
		}
	}
}
