{
	 "smiles": "OCC(NS(=O)(=O)C1=CC=C(Cl)C=C1)C(O)=O", 
	 "Tm": 480.15, 
	 "num_atms": 27, 
	 "gaussian": { 
		 "optdone": 1, 
		 "sigma_profile": "yes", 
		 "theory": "DFT", 
		 "functional": "B3LYP", 
		 "basiset": "6-31G**", 
		 "properties": { 
			 "R2extent": 6005.208, 
			 "electric_dipole_moment_norm": 3.221897891, 
			 "electric_quadrupole_moment_norm": 22.1884159822, 
			 "total_energy": -1638.16352159, 
			 "HOMO_LUMO_gap": 0.20121, 
			 "cosmo_polarized_energy": -22.2, 
			 "cosmo_cavitation_energy": 34.73, 
			 "cosmo_dispersion_energy": -24.69, 
			 "cosmo_repulsion_energy": 1.88, 
			 "cosmo_total_nonelectrostatic_energy": 11.92, 
			 "SMD_solvation_energy": 5.98 
		},
		"coords": [
			{
				"x": 0.9669954614,
				"y": 0.9622643501,
				"z": -3.5417739466,
				"element": "O" 
			},
			{
				"x": 1.3411918458,
				"y": -0.3838301089,
				"z": -3.3512312476,
				"element": "C" 
			},
			{
				"x": 0.8102689368,
				"y": -0.9522830316,
				"z": -2.0114839302,
				"element": "C" 
			},
			{
				"x": -0.5768068926,
				"y": -0.5275690681,
				"z": -1.7322348274,
				"element": "N" 
			},
			{
				"x": -0.783011549,
				"y": 0.8648767594,
				"z": -0.7433558963,
				"element": "S" 
			},
			{
				"x": 0.4747310984,
				"y": 1.6293352074,
				"z": -0.7020726974,
				"element": "O" 
			},
			{
				"x": -2.0366166873,
				"y": 1.4607818407,
				"z": -1.2025816616,
				"element": "O" 
			},
			{
				"x": -1.0230509122,
				"y": 0.1609006967,
				"z": 0.8839866501,
				"element": "C" 
			},
			{
				"x": 0.0153887247,
				"y": 0.2077368675,
				"z": 1.8146707579,
				"element": "C" 
			},
			{
				"x": -0.1802796469,
				"y": -0.3379734677,
				"z": 3.0830040817,
				"element": "C" 
			},
			{
				"x": -1.4123507647,
				"y": -0.9145013795,
				"z": 3.3945329408,
				"element": "C" 
			},
			{
				"x": -1.6598925324,
				"y": -1.5999340103,
				"z": 4.9842016471,
				"element": "Cl" 
			},
			{
				"x": -2.4576380839,
				"y": -0.9493748514,
				"z": 2.4663702201,
				"element": "C" 
			},
			{
				"x": -2.2617329072,
				"y": -0.4041976262,
				"z": 1.2010685076,
				"element": "C" 
			},
			{
				"x": 0.9333702569,
				"y": -2.4847345349,
				"z": -1.9767617302,
				"element": "C" 
			},
			{
				"x": -0.1164477357,
				"y": -3.1343392438,
				"z": -1.4486048502,
				"element": "O" 
			},
			{
				"x": 1.9182141349,
				"y": -3.0501418301,
				"z": -2.3863172499,
				"element": "O" 
			},
			{
				"x": 1.2509818519,
				"y": 1.4816199725,
				"z": -2.7734766095,
				"element": "H" 
			},
			{
				"x": 0.904812994,
				"y": -0.9442070995,
				"z": -4.1851658686,
				"element": "H" 
			},
			{
				"x": 2.4253773,
				"y": -0.5448349052,
				"z": -3.385754868,
				"element": "H" 
			},
			{
				"x": 1.4420794163,
				"y": -0.5724765377,
				"z": -1.200947586,
				"element": "H" 
			},
			{
				"x": -1.0816907824,
				"y": -0.2997589699,
				"z": -2.5910052376,
				"element": "H" 
			},
			{
				"x": 0.9561615386,
				"y": 0.6788580424,
				"z": 1.5534460573,
				"element": "H" 
			},
			{
				"x": 0.6112816723,
				"y": -0.3123747071,
				"z": 3.8230804869,
				"element": "H" 
			},
			{
				"x": -3.4098429203,
				"y": -1.3910171169,
				"z": 2.737014116,
				"element": "H" 
			},
			{
				"x": -3.0665666095,
				"y": -0.4017396997,
				"z": 0.473757439,
				"element": "H" 
			},
			{
				"x": -0.7842272078,
				"y": -2.4560855479,
				"z": -1.2255646973,
				"element": "H" 
			}
		],
		 "valence_orbital": [ 
			{
				"type": "occ",
				"energy": -0.32114,
				"method": "rhf"
			},
			{
				"type": "occ",
				"energy": -0.30094,
				"method": "rhf"
			},
			{
				"type": "occ",
				"energy": -0.29537,
				"method": "rhf"
			},
			{
				"type": "occ",
				"energy": -0.28324,
				"method": "rhf"
			},
			{
				"type": "occ",
				"energy": -0.27015,
				"method": "rhf"
			},
			{
				"type": "unocc",
				"energy": -0.06894,
				"method": "rhf"
			},
			{
				"type": "unocc",
				"energy": -0.05082,
				"method": "rhf"
			},
			{
				"type": "unocc",
				"energy": -0.00486,
				"method": "rhf"
			},
			{
				"type": "unocc",
				"energy": 0.00405,
				"method": "rhf"
			},
			{
				"type": "unocc",
				"energy": 0.03274,
				"method": "rhf"
			}
		],
		"cosmo_sigma_profile": { 
			"-0.025": 0.0,
			"-0.024": 0.0,
			"-0.023": 0.0,
			"-0.022": 0.0,
			"-0.021": 0.0,
			"-0.02": 0.0,
			"-0.019": 0.0,
			"-0.018": 0.0,
			"-0.017": 0.0,
			"-0.016": 0.0,
			"-0.015": 0.651248198848,
			"-0.014": 1.53922570507,
			"-0.013": 1.03932803148,
			"-0.012": 1.31532653245,
			"-0.011": 2.2191021957,
			"-0.01": 4.11424845918,
			"-0.009": 8.30413876089,
			"-0.008": 14.5806888108,
			"-0.007": 14.29815703,
			"-0.006": 13.2839203581,
			"-0.005": 14.654428839,
			"-0.004": 12.8256121559,
			"-0.003": 13.443381248,
			"-0.002": 14.2879808077,
			"-0.001": 16.4928657829,
			"0.0": 23.5296916842,
			"0.001": 21.1983838257,
			"0.002": 11.4144440687,
			"0.003": 12.7508821336,
			"0.004": 13.5020271865,
			"0.005": 5.20389311655,
			"0.006": 7.08761256101,
			"0.007": 5.4791874472,
			"0.008": 7.91019157297,
			"0.009": 10.6083827041,
			"0.01": 11.0759611214,
			"0.011": 7.86112730931,
			"0.012": 5.6130378987,
			"0.013": 2.24281189859,
			"0.014": 0.532345637463,
			"0.015": 0.0,
			"0.016": 0.0,
			"0.017": 0.0,
			"0.018": 0.0,
			"0.019": 0.0,
			"0.02": 0.0,
			"0.021": 0.0,
			"0.022": 0.0,
			"0.023": 0.0,
			"0.024": 0.0,
			"0.025": 0.0
		}
	}
}
