{
	 "smiles": "CC1=C(C=NN1C1=CC(=CC=C1)C(F)(F)F)C(O)=O", 
	 "Tm": 396.15, 
	 "num_atms": 28, 
	 "gaussian": { 
		 "optdone": 1, 
		 "sigma_profile": "yes", 
		 "theory": "DFT", 
		 "functional": "B3LYP", 
		 "basiset": "6-31G**", 
		 "properties": { 
			 "R2extent": 7090.4195, 
			 "electric_dipole_moment_norm": 4.95968460792, 
			 "electric_quadrupole_moment_norm": 9.54035916829, 
			 "total_energy": -1022.18343633, 
			 "HOMO_LUMO_gap": 0.20167, 
			 "cosmo_polarized_energy": -13.93, 
			 "cosmo_cavitation_energy": 34.56, 
			 "cosmo_dispersion_energy": -24.32, 
			 "cosmo_repulsion_energy": 1.8, 
			 "cosmo_total_nonelectrostatic_energy": 12.04, 
			 "SMD_solvation_energy": 7.68 
		},
		"coords": [
			{
				"x": -1.7938587219,
				"y": -1.3337410266,
				"z": -0.5358270255,
				"element": "C" 
			},
			{
				"x": -1.6796237927,
				"y": -0.2570085833,
				"z": 0.4969597742,
				"element": "C" 
			},
			{
				"x": -2.332011727,
				"y": -0.1004522965,
				"z": 1.7213649669,
				"element": "C" 
			},
			{
				"x": -1.7634012474,
				"y": 1.0626451475,
				"z": 2.30127869,
				"element": "C" 
			},
			{
				"x": -0.8423334484,
				"y": 1.6012181097,
				"z": 1.5269368152,
				"element": "N" 
			},
			{
				"x": -0.8047508725,
				"y": 0.7938208701,
				"z": 0.4173097858,
				"element": "N" 
			},
			{
				"x": 0.132572037,
				"y": 1.1132278656,
				"z": -0.6046378076,
				"element": "C" 
			},
			{
				"x": 1.4052015535,
				"y": 1.5536025405,
				"z": -0.227648616,
				"element": "C" 
			},
			{
				"x": 2.3337770921,
				"y": 1.8830162572,
				"z": -1.212243519,
				"element": "C" 
			},
			{
				"x": 2.0084607546,
				"y": 1.770477991,
				"z": -2.5679257379,
				"element": "C" 
			},
			{
				"x": 0.7347607559,
				"y": 1.3413847831,
				"z": -2.9322270553,
				"element": "C" 
			},
			{
				"x": -0.2111118924,
				"y": 1.0229788769,
				"z": -1.9566867206,
				"element": "C" 
			},
			{
				"x": 3.6890876988,
				"y": 2.4092608165,
				"z": -0.8151221847,
				"element": "C" 
			},
			{
				"x": 4.0549167601,
				"y": 1.9876321301,
				"z": 0.4134225654,
				"element": "F" 
			},
			{
				"x": 3.7076756918,
				"y": 3.760786516,
				"z": -0.7944444335,
				"element": "F" 
			},
			{
				"x": 4.6471961881,
				"y": 2.0169732468,
				"z": -1.6845177498,
				"element": "F" 
			},
			{
				"x": -3.37140195,
				"y": -0.9022435073,
				"z": 2.3662616,
				"element": "C" 
			},
			{
				"x": -3.7871930065,
				"y": -1.9662488256,
				"z": 1.6232493944,
				"element": "O" 
			},
			{
				"x": -3.8432768006,
				"y": -0.6644361147,
				"z": 3.4616564536,
				"element": "O" 
			},
			{
				"x": -0.8373966122,
				"y": -1.5094096869,
				"z": -1.0342853929,
				"element": "H" 
			},
			{
				"x": -2.1278507627,
				"y": -2.2554725904,
				"z": -0.0605805123,
				"element": "H" 
			},
			{
				"x": -2.5337713979,
				"y": -1.0816607329,
				"z": -1.3046081761,
				"element": "H" 
			},
			{
				"x": -2.0135674135,
				"y": 1.5054025697,
				"z": 3.2552329201,
				"element": "H" 
			},
			{
				"x": 1.6501133522,
				"y": 1.6364195173,
				"z": 0.8233860198,
				"element": "H" 
			},
			{
				"x": 2.745924018,
				"y": 2.0165042053,
				"z": -3.3238066202,
				"element": "H" 
			},
			{
				"x": 0.467482339,
				"y": 1.2656981186,
				"z": -3.9814193925,
				"element": "H" 
			},
			{
				"x": -1.2130515714,
				"y": 0.728655489,
				"z": -2.2456993717,
				"element": "H" 
			},
			{
				"x": -4.4624670241,
				"y": -2.4083316867,
				"z": 2.1644213302,
				"element": "H" 
			}
		],
		 "valence_orbital": [ 
			{
				"type": "occ",
				"energy": -0.30165,
				"method": "rhf"
			},
			{
				"type": "occ",
				"energy": -0.28222,
				"method": "rhf"
			},
			{
				"type": "occ",
				"energy": -0.27791,
				"method": "rhf"
			},
			{
				"type": "occ",
				"energy": -0.25977,
				"method": "rhf"
			},
			{
				"type": "occ",
				"energy": -0.25086,
				"method": "rhf"
			},
			{
				"type": "unocc",
				"energy": -0.04919,
				"method": "rhf"
			},
			{
				"type": "unocc",
				"energy": -0.03828,
				"method": "rhf"
			},
			{
				"type": "unocc",
				"energy": -0.01714,
				"method": "rhf"
			},
			{
				"type": "unocc",
				"energy": 0.01497,
				"method": "rhf"
			},
			{
				"type": "unocc",
				"energy": 0.0726,
				"method": "rhf"
			}
		],
		"cosmo_sigma_profile": { 
			"-0.025": 0.0,
			"-0.024": 0.0,
			"-0.023": 0.0,
			"-0.022": 0.0,
			"-0.021": 0.0,
			"-0.02": 0.0,
			"-0.019": 0.0,
			"-0.018": 0.585022384877,
			"-0.017": 0.843551994936,
			"-0.016": 1.23544682264,
			"-0.015": 0.49494832434,
			"-0.014": 0.391705547618,
			"-0.013": 0.694655811522,
			"-0.012": 0.534085129677,
			"-0.011": 1.26540368222,
			"-0.01": 0.750332744491,
			"-0.009": 0.791063426225,
			"-0.008": 5.15940535306,
			"-0.007": 9.94299956748,
			"-0.006": 12.1815013646,
			"-0.005": 13.0338787729,
			"-0.004": 14.2527197133,
			"-0.003": 15.4776576179,
			"-0.002": 21.8638804435,
			"-0.001": 19.9508247088,
			"0.0": 21.4133834384,
			"0.001": 28.134820841,
			"0.002": 36.3688998781,
			"0.003": 32.4669279149,
			"0.004": 6.2755122711,
			"0.005": 5.82359206903,
			"0.006": 4.12607795113,
			"0.007": 2.9454375354,
			"0.008": 2.63502066664,
			"0.009": 2.66212897975,
			"0.01": 3.17326503324,
			"0.011": 3.77665239819,
			"0.012": 6.17564523159,
			"0.013": 1.61598547884,
			"0.014": 0.389690320605,
			"0.015": 0.0,
			"0.016": 0.0,
			"0.017": 0.0,
			"0.018": 0.0,
			"0.019": 0.0,
			"0.02": 0.0,
			"0.021": 0.0,
			"0.022": 0.0,
			"0.023": 0.0,
			"0.024": 0.0,
			"0.025": 0.0
		}
	}
}
