{
	 "smiles": "[O-][N+](=O)C1=CC(=C(NC2=C(Cl)C=C(Cl)C=N2)C(=C1)C(F)(F)F)[N+]([O-])=O", 
	 "Tm": 378.15, 
	 "num_atms": 30, 
	 "gaussian": { 
		 "optdone": 1, 
		 "sigma_profile": "yes", 
		 "theory": "DFT", 
		 "functional": "B3LYP", 
		 "basiset": "6-31G**", 
		 "properties": { 
			 "R2extent": 11574.7603, 
			 "electric_dipole_moment_norm": 4.26795396648, 
			 "electric_quadrupole_moment_norm": 10.5886163926, 
			 "total_energy": -2199.88834098, 
			 "HOMO_LUMO_gap": 0.13334, 
			 "cosmo_polarized_energy": -13.98, 
			 "cosmo_cavitation_energy": 42.05, 
			 "cosmo_dispersion_energy": -28.56, 
			 "cosmo_repulsion_energy": 2.09, 
			 "cosmo_total_nonelectrostatic_energy": 15.58, 
			 "SMD_solvation_energy": 11.58 
		},
		"coords": [
			{
				"x": 3.2085254097,
				"y": 1.6800446626,
				"z": 3.3766028131,
				"element": "O" 
			},
			{
				"x": 2.2113802624,
				"y": 2.3937620102,
				"z": 3.2890066719,
				"element": "N" 
			},
			{
				"x": 1.9605367103,
				"y": 3.3570292218,
				"z": 4.0122808821,
				"element": "O" 
			},
			{
				"x": 1.2411353955,
				"y": 2.0720126869,
				"z": 2.2376390501,
				"element": "C" 
			},
			{
				"x": 1.4914023754,
				"y": 1.0096668473,
				"z": 1.3822423808,
				"element": "C" 
			},
			{
				"x": 0.5784775676,
				"y": 0.7246673744,
				"z": 0.3758549137,
				"element": "C" 
			},
			{
				"x": -0.637424919,
				"y": 1.4381169338,
				"z": 0.2372774407,
				"element": "C" 
			},
			{
				"x": -1.6135239778,
				"y": 1.1495950569,
				"z": -0.698323433,
				"element": "N" 
			},
			{
				"x": -2.0430924875,
				"y": -0.1086376716,
				"z": -1.1085607675,
				"element": "C" 
			},
			{
				"x": -2.974610832,
				"y": -0.2314982135,
				"z": -2.1607778616,
				"element": "C" 
			},
			{
				"x": -3.567458884,
				"y": 1.1865631487,
				"z": -3.0004110576,
				"element": "Cl" 
			},
			{
				"x": -3.4278482869,
				"y": -1.4916112464,
				"z": -2.5229190878,
				"element": "C" 
			},
			{
				"x": -2.9319582797,
				"y": -2.5966857738,
				"z": -1.8296376932,
				"element": "C" 
			},
			{
				"x": -3.4575818776,
				"y": -4.2095179072,
				"z": -2.2429930174,
				"element": "Cl" 
			},
			{
				"x": -2.0103466063,
				"y": -2.3946232937,
				"z": -0.8035474287,
				"element": "C" 
			},
			{
				"x": -1.5932767393,
				"y": -1.1777522701,
				"z": -0.4543315823,
				"element": "N" 
			},
			{
				"x": -0.8406755157,
				"y": 2.526095514,
				"z": 1.1326420501,
				"element": "C" 
			},
			{
				"x": 0.0913511956,
				"y": 2.8451415944,
				"z": 2.1095958407,
				"element": "C" 
			},
			{
				"x": -2.1303333427,
				"y": 3.31135189,
				"z": 1.085283289,
				"element": "C" 
			},
			{
				"x": -3.1937958923,
				"y": 2.5439006133,
				"z": 1.3970984606,
				"element": "F" 
			},
			{
				"x": -2.1171776231,
				"y": 4.3575595075,
				"z": 1.9241051807,
				"element": "F" 
			},
			{
				"x": -2.3637499307,
				"y": 3.8048895429,
				"z": -0.1659109202,
				"element": "F" 
			},
			{
				"x": 1.0242224648,
				"y": -0.2782618745,
				"z": -0.6076866984,
				"element": "N" 
			},
			{
				"x": 0.7245732526,
				"y": -0.0849541031,
				"z": -1.7826362986,
				"element": "O" 
			},
			{
				"x": 1.7189151942,
				"y": -1.2002947644,
				"z": -0.1927970155,
				"element": "O" 
			},
			{
				"x": 2.3984449117,
				"y": 0.4266751999,
				"z": 1.4722626148,
				"element": "H" 
			},
			{
				"x": -2.1906991542,
				"y": 1.9250326423,
				"z": -0.9960434659,
				"element": "H" 
			},
			{
				"x": -4.143781253,
				"y": -1.6089505306,
				"z": -3.3276349313,
				"element": "H" 
			},
			{
				"x": -1.6022549789,
				"y": -3.2341833832,
				"z": -0.2482957307,
				"element": "H" 
			},
			{
				"x": -0.0754741589,
				"y": 3.6692665852,
				"z": 2.7900154014,
				"element": "H" 
			}
		],
		 "valence_orbital": [ 
			{
				"type": "occ",
				"energy": -0.30586,
				"method": "rhf"
			},
			{
				"type": "occ",
				"energy": -0.30522,
				"method": "rhf"
			},
			{
				"type": "occ",
				"energy": -0.30295,
				"method": "rhf"
			},
			{
				"type": "occ",
				"energy": -0.29686,
				"method": "rhf"
			},
			{
				"type": "occ",
				"energy": -0.24766,
				"method": "rhf"
			},
			{
				"type": "unocc",
				"energy": -0.11432,
				"method": "rhf"
			},
			{
				"type": "unocc",
				"energy": -0.10035,
				"method": "rhf"
			},
			{
				"type": "unocc",
				"energy": -0.06511,
				"method": "rhf"
			},
			{
				"type": "unocc",
				"energy": -0.05857,
				"method": "rhf"
			},
			{
				"type": "unocc",
				"energy": -0.03799,
				"method": "rhf"
			}
		],
		"cosmo_sigma_profile": { 
			"-0.025": 0.0,
			"-0.024": 0.0,
			"-0.023": 0.0,
			"-0.022": 0.0,
			"-0.021": 0.0,
			"-0.02": 0.0,
			"-0.019": 0.0,
			"-0.018": 0.0,
			"-0.017": 0.0,
			"-0.016": 0.0,
			"-0.015": 0.0,
			"-0.014": 0.0,
			"-0.013": 0.0,
			"-0.012": 0.0,
			"-0.011": 0.0211135749689,
			"-0.01": 1.61250970215,
			"-0.009": 3.75549740413,
			"-0.008": 9.11033701896,
			"-0.007": 11.404590948,
			"-0.006": 12.3699801848,
			"-0.005": 16.0400606271,
			"-0.004": 23.7375226401,
			"-0.003": 27.1097043048,
			"-0.002": 25.1577114611,
			"-0.001": 31.3498365983,
			"0.0": 24.9720385176,
			"0.001": 32.3256432544,
			"0.002": 33.9369309129,
			"0.003": 22.5125441826,
			"0.004": 13.3641708485,
			"0.005": 8.42882693979,
			"0.006": 11.9541243758,
			"0.007": 18.6022543688,
			"0.008": 10.2063856841,
			"0.009": 5.99529282631,
			"0.01": 1.03083521898,
			"0.011": 0.0,
			"0.012": 0.0,
			"0.013": 0.0,
			"0.014": 0.0,
			"0.015": 0.0,
			"0.016": 0.0,
			"0.017": 0.0,
			"0.018": 0.0,
			"0.019": 0.0,
			"0.02": 0.0,
			"0.021": 0.0,
			"0.022": 0.0,
			"0.023": 0.0,
			"0.024": 0.0,
			"0.025": 0.0
		}
	}
}
