{
	 "smiles": "OC(=O)CCC1=CSC=N1", 
	 "Tm": 430.15, 
	 "num_atms": 17, 
	 "gaussian": { 
		 "optdone": 1, 
		 "sigma_profile": "yes", 
		 "theory": "DFT", 
		 "functional": "B3LYP", 
		 "basiset": "6-31G**", 
		 "properties": { 
			 "R2extent": 2449.4626, 
			 "electric_dipole_moment_norm": 6.99569463742, 
			 "electric_quadrupole_moment_norm": 21.6827404495, 
			 "total_energy": -836.250588543, 
			 "HOMO_LUMO_gap": 0.18943, 
			 "cosmo_polarized_energy": -14.69, 
			 "cosmo_cavitation_energy": 22.51, 
			 "cosmo_dispersion_energy": -17.41, 
			 "cosmo_repulsion_energy": 1.37, 
			 "cosmo_total_nonelectrostatic_energy": 6.48, 
			 "SMD_solvation_energy": 4.81 
		},
		"coords": [
			{
				"x": -2.8405496284,
				"y": 1.8177397629,
				"z": -0.0419263827,
				"element": "O" 
			},
			{
				"x": -2.5071534704,
				"y": 1.5312448517,
				"z": -1.3095902385,
				"element": "C" 
			},
			{
				"x": -3.2314803063,
				"y": 1.8316327674,
				"z": -2.2321785423,
				"element": "O" 
			},
			{
				"x": -1.1804656139,
				"y": 0.7945737684,
				"z": -1.5409955131,
				"element": "C" 
			},
			{
				"x": 0.0744366204,
				"y": 1.4076369874,
				"z": -0.8657676465,
				"element": "C" 
			},
			{
				"x": 0.331550998,
				"y": 0.9331390492,
				"z": 0.5402782461,
				"element": "C" 
			},
			{
				"x": 1.5170174604,
				"y": 0.4773439943,
				"z": 1.0478393922,
				"element": "C" 
			},
			{
				"x": 1.3419259355,
				"y": 0.0571471181,
				"z": 2.7205903132,
				"element": "S" 
			},
			{
				"x": -0.3281448316,
				"y": 0.5170971676,
				"z": 2.6278254255,
				"element": "C" 
			},
			{
				"x": -0.7055162714,
				"y": 0.9449094094,
				"z": 1.4560963927,
				"element": "N" 
			},
			{
				"x": -2.16585613,
				"y": 1.4862230942,
				"z": 0.6020241801,
				"element": "H" 
			},
			{
				"x": -1.042695503,
				"y": 0.7845551882,
				"z": -2.6234056262,
				"element": "H" 
			},
			{
				"x": -1.2992066879,
				"y": -0.2484460637,
				"z": -1.2209134726,
				"element": "H" 
			},
			{
				"x": 0.9529332136,
				"y": 1.1676543991,
				"z": -1.4717556256,
				"element": "H" 
			},
			{
				"x": -0.008110955,
				"y": 2.5022968914,
				"z": -0.8688758042,
				"element": "H" 
			},
			{
				"x": 2.4651099894,
				"y": 0.3677634348,
				"z": 0.5415054151,
				"element": "H" 
			},
			{
				"x": -0.9834948193,
				"y": 0.4429881796,
				"z": 3.4867494868,
				"element": "H" 
			}
		],
		 "valence_orbital": [ 
			{
				"type": "occ",
				"energy": -0.31367,
				"method": "rhf"
			},
			{
				"type": "occ",
				"energy": -0.30778,
				"method": "rhf"
			},
			{
				"type": "occ",
				"energy": -0.28565,
				"method": "rhf"
			},
			{
				"type": "occ",
				"energy": -0.27034,
				"method": "rhf"
			},
			{
				"type": "occ",
				"energy": -0.24371,
				"method": "rhf"
			},
			{
				"type": "unocc",
				"energy": -0.05428,
				"method": "rhf"
			},
			{
				"type": "unocc",
				"energy": -0.0058,
				"method": "rhf"
			},
			{
				"type": "unocc",
				"energy": 0.01739,
				"method": "rhf"
			},
			{
				"type": "unocc",
				"energy": 0.03158,
				"method": "rhf"
			},
			{
				"type": "unocc",
				"energy": 0.0678,
				"method": "rhf"
			}
		],
		"cosmo_sigma_profile": { 
			"-0.025": 0.0,
			"-0.024": 0.0,
			"-0.023": 0.0,
			"-0.022": 0.0,
			"-0.021": 0.0,
			"-0.02": 0.0,
			"-0.019": 0.0,
			"-0.018": 0.0,
			"-0.017": 0.0,
			"-0.016": 0.0,
			"-0.015": 0.0,
			"-0.014": 0.0,
			"-0.013": 0.0,
			"-0.012": 0.0,
			"-0.011": 0.650429070952,
			"-0.01": 3.18288390081,
			"-0.009": 4.05258869457,
			"-0.008": 3.81290490976,
			"-0.007": 5.37781902184,
			"-0.006": 11.0024913962,
			"-0.005": 14.241401455,
			"-0.004": 13.5546203531,
			"-0.003": 14.7264145496,
			"-0.002": 13.6444274189,
			"-0.001": 11.8233959011,
			"0.0": 17.0318753487,
			"0.001": 14.4432740822,
			"0.002": 12.3707080965,
			"0.003": 6.3015123224,
			"0.004": 2.55058514708,
			"0.005": 1.5311926796,
			"0.006": 2.77153185186,
			"0.007": 2.13453857565,
			"0.008": 1.53225306158,
			"0.009": 2.6880591236,
			"0.01": 3.70112392006,
			"0.011": 3.17640200233,
			"0.012": 6.6681368148,
			"0.013": 6.37256373663,
			"0.014": 2.36793028032,
			"0.015": 0.270598276772,
			"0.016": 0.0,
			"0.017": 0.0,
			"0.018": 0.0,
			"0.019": 0.0,
			"0.02": 0.0,
			"0.021": 0.0,
			"0.022": 0.0,
			"0.023": 0.0,
			"0.024": 0.0,
			"0.025": 0.0
		}
	}
}
