{
	 "smiles": "ClCCOC=C", 
	 "Tm": 203.15, 
	 "num_atms": 13, 
	 "gaussian": { 
		 "optdone": 1, 
		 "sigma_profile": "yes", 
		 "theory": "DFT", 
		 "functional": "B3LYP", 
		 "basiset": "6-31G**", 
		 "properties": { 
			 "R2extent": 1357.6128, 
			 "electric_dipole_moment_norm": 2.4561975572, 
			 "electric_quadrupole_moment_norm": 8.41592532049, 
			 "total_energy": -692.02526563, 
			 "HOMO_LUMO_gap": 0.2552, 
			 "cosmo_polarized_energy": -7.17, 
			 "cosmo_cavitation_energy": 18.11, 
			 "cosmo_dispersion_energy": -13.36, 
			 "cosmo_repulsion_energy": 1.16, 
			 "cosmo_total_nonelectrostatic_energy": 5.91, 
			 "SMD_solvation_energy": 4.16 
		},
		"coords": [
			{
				"x": -3.5174431788,
				"y": -0.0785133128,
				"z": -0.7845460363,
				"element": "Cl" 
			},
			{
				"x": -2.2148651303,
				"y": -0.5570330459,
				"z": 0.3808026765,
				"element": "C" 
			},
			{
				"x": -1.5467594845,
				"y": 0.6514929284,
				"z": 1.0221483674,
				"element": "C" 
			},
			{
				"x": -0.8255669336,
				"y": 1.4532221732,
				"z": 0.0982579757,
				"element": "O" 
			},
			{
				"x": 0.4104687784,
				"y": 1.0403067236,
				"z": -0.293811929,
				"element": "C" 
			},
			{
				"x": 1.1070878244,
				"y": -0.034053935,
				"z": 0.0899285139,
				"element": "C" 
			},
			{
				"x": -1.5011996663,
				"y": -1.1600533188,
				"z": -0.1800152183,
				"element": "H" 
			},
			{
				"x": -2.6884860795,
				"y": -1.1724647883,
				"z": 1.1484016621,
				"element": "H" 
			},
			{
				"x": -0.8863887841,
				"y": 0.3031350399,
				"z": 1.8292391019,
				"element": "H" 
			},
			{
				"x": -2.3017576005,
				"y": 1.3106337856,
				"z": 1.4569910218,
				"element": "H" 
			},
			{
				"x": 0.8109938513,
				"y": 1.7491987511,
				"z": -1.0130236726,
				"element": "H" 
			},
			{
				"x": 2.0971239336,
				"y": -0.1844616549,
				"z": -0.322722871,
				"element": "H" 
			},
			{
				"x": 0.7516924699,
				"y": -0.7726093459,
				"z": 0.7981504081,
				"element": "H" 
			}
		],
		 "valence_orbital": [ 
			{
				"type": "occ",
				"energy": -0.36086,
				"method": "rhf"
			},
			{
				"type": "occ",
				"energy": -0.33892,
				"method": "rhf"
			},
			{
				"type": "occ",
				"energy": -0.29799,
				"method": "rhf"
			},
			{
				"type": "occ",
				"energy": -0.29547,
				"method": "rhf"
			},
			{
				"type": "occ",
				"energy": -0.2351,
				"method": "rhf"
			},
			{
				"type": "unocc",
				"energy": 0.0201,
				"method": "rhf"
			},
			{
				"type": "unocc",
				"energy": 0.03362,
				"method": "rhf"
			},
			{
				"type": "unocc",
				"energy": 0.09101,
				"method": "rhf"
			},
			{
				"type": "unocc",
				"energy": 0.10723,
				"method": "rhf"
			},
			{
				"type": "unocc",
				"energy": 0.12195,
				"method": "rhf"
			}
		],
		"cosmo_sigma_profile": { 
			"-0.025": 0.0,
			"-0.024": 0.0,
			"-0.023": 0.0,
			"-0.022": 0.0,
			"-0.021": 0.0,
			"-0.02": 0.0,
			"-0.019": 0.0,
			"-0.018": 0.0,
			"-0.017": 0.0,
			"-0.016": 0.0,
			"-0.015": 0.0,
			"-0.014": 0.0,
			"-0.013": 0.0,
			"-0.012": 0.0,
			"-0.011": 0.0,
			"-0.01": 0.0,
			"-0.009": 0.0,
			"-0.008": 3.33097228982,
			"-0.007": 10.0773476791,
			"-0.006": 12.3672581537,
			"-0.005": 12.6796163259,
			"-0.004": 9.61259378416,
			"-0.003": 8.16792074696,
			"-0.002": 6.88023816059,
			"-0.001": 6.61873295312,
			"0.0": 8.15966703701,
			"0.001": 6.72636663094,
			"0.002": 8.07074072271,
			"0.003": 8.33779431955,
			"0.004": 8.70204553222,
			"0.005": 8.65603966323,
			"0.006": 12.6799698619,
			"0.007": 7.6546447124,
			"0.008": 2.81614364837,
			"0.009": 1.65456869281,
			"0.01": 1.56060513844,
			"0.011": 0.670583598132,
			"0.012": 0.0,
			"0.013": 0.0,
			"0.014": 0.0,
			"0.015": 0.0,
			"0.016": 0.0,
			"0.017": 0.0,
			"0.018": 0.0,
			"0.019": 0.0,
			"0.02": 0.0,
			"0.021": 0.0,
			"0.022": 0.0,
			"0.023": 0.0,
			"0.024": 0.0,
			"0.025": 0.0
		}
	}
}
