{
	 "smiles": "CN(C)C1=CC=C(C=C1)N1C=CN=C1S", 
	 "Tm": 523.15, 
	 "num_atms": 28, 
	 "gaussian": { 
		 "optdone": 1, 
		 "sigma_profile": "yes", 
		 "theory": "DFT", 
		 "functional": "B3LYP", 
		 "basiset": "6-31G**", 
		 "properties": { 
			 "R2extent": 5029.9036, 
			 "electric_dipole_moment_norm": 7.67664141471, 
			 "electric_quadrupole_moment_norm": 19.8343375183, 
			 "total_energy": -989.423167833, 
			 "HOMO_LUMO_gap": 0.18475, 
			 "cosmo_polarized_energy": -13.27, 
			 "cosmo_cavitation_energy": 32.85, 
			 "cosmo_dispersion_energy": -23.91, 
			 "cosmo_repulsion_energy": 1.81, 
			 "cosmo_total_nonelectrostatic_energy": 10.74, 
			 "SMD_solvation_energy": 3.62 
		},
		"coords": [
			{
				"x": -0.3419837346,
				"y": -3.4469631636,
				"z": -1.4943934424,
				"element": "C" 
			},
			{
				"x": 0.3729683178,
				"y": -2.7130566066,
				"z": -0.4638058999,
				"element": "N" 
			},
			{
				"x": 1.6229713551,
				"y": -3.2501092005,
				"z": 0.0465720734,
				"element": "C" 
			},
			{
				"x": 0.0230155723,
				"y": -1.4037510268,
				"z": -0.1847065897,
				"element": "C" 
			},
			{
				"x": 0.7838089172,
				"y": -0.6127134618,
				"z": 0.7097655088,
				"element": "C" 
			},
			{
				"x": 0.4179664692,
				"y": 0.6969912136,
				"z": 0.9976954446,
				"element": "C" 
			},
			{
				"x": -0.7164587334,
				"y": 1.2685769762,
				"z": 0.4143366936,
				"element": "C" 
			},
			{
				"x": -1.4790027506,
				"y": 0.5024003469,
				"z": -0.4726289661,
				"element": "C" 
			},
			{
				"x": -1.1141163395,
				"y": -0.8032360501,
				"z": -0.7779631051,
				"element": "C" 
			},
			{
				"x": -1.0976771358,
				"y": 2.6064735471,
				"z": 0.7398102834,
				"element": "N" 
			},
			{
				"x": -1.520455557,
				"y": 3.0463229528,
				"z": 1.9912206521,
				"element": "C" 
			},
			{
				"x": -1.7681483379,
				"y": 4.3844253731,
				"z": 1.8539619186,
				"element": "C" 
			},
			{
				"x": -1.4980255117,
				"y": 4.8027064042,
				"z": 0.5687819663,
				"element": "N" 
			},
			{
				"x": -1.0991506283,
				"y": 3.7258067049,
				"z": -0.0686482181,
				"element": "C" 
			},
			{
				"x": -0.6675581797,
				"y": 3.7470567762,
				"z": -1.7883007078,
				"element": "S" 
			},
			{
				"x": -0.254986108,
				"y": -2.9782413165,
				"z": -2.4861995332,
				"element": "H" 
			},
			{
				"x": 0.0632599936,
				"y": -4.4573418805,
				"z": -1.56062273,
				"element": "H" 
			},
			{
				"x": -1.4086109975,
				"y": -3.5341209384,
				"z": -1.2544401708,
				"element": "H" 
			},
			{
				"x": 1.7157818054,
				"y": -4.2929874835,
				"z": -0.2588486559,
				"element": "H" 
			},
			{
				"x": 2.5028949253,
				"y": -2.7050548599,
				"z": -0.3272248405,
				"element": "H" 
			},
			{
				"x": 1.6498126398,
				"y": -3.2235629118,
				"z": 1.14272171,
				"element": "H" 
			},
			{
				"x": 1.6716230484,
				"y": -1.0163293596,
				"z": 1.1797642767,
				"element": "H" 
			},
			{
				"x": 1.0216939217,
				"y": 1.2891149837,
				"z": 1.6789168787,
				"element": "H" 
			},
			{
				"x": -2.3639482571,
				"y": 0.9362115409,
				"z": -0.9273304712,
				"element": "H" 
			},
			{
				"x": -1.7264874283,
				"y": -1.3598458891,
				"z": -1.4759313191,
				"element": "H" 
			},
			{
				"x": -1.6045721927,
				"y": 2.361026813,
				"z": 2.8200853706,
				"element": "H" 
			},
			{
				"x": -2.1206035576,
				"y": 5.0775862491,
				"z": 2.6051875003,
				"element": "H" 
			},
			{
				"x": 0.0756884839,
				"y": 2.6227142667,
				"z": -1.7637756278,
				"element": "H" 
			}
		],
		 "valence_orbital": [ 
			{
				"type": "occ",
				"energy": -0.2636,
				"method": "rhf"
			},
			{
				"type": "occ",
				"energy": -0.26079,
				"method": "rhf"
			},
			{
				"type": "occ",
				"energy": -0.25938,
				"method": "rhf"
			},
			{
				"type": "occ",
				"energy": -0.20523,
				"method": "rhf"
			},
			{
				"type": "occ",
				"energy": -0.19744,
				"method": "rhf"
			},
			{
				"type": "unocc",
				"energy": -0.01269,
				"method": "rhf"
			},
			{
				"type": "unocc",
				"energy": -0.00602,
				"method": "rhf"
			},
			{
				"type": "unocc",
				"energy": 0.03169,
				"method": "rhf"
			},
			{
				"type": "unocc",
				"energy": 0.04259,
				"method": "rhf"
			},
			{
				"type": "unocc",
				"energy": 0.07276,
				"method": "rhf"
			}
		],
		"cosmo_sigma_profile": { 
			"-0.025": 0.0,
			"-0.024": 0.0,
			"-0.023": 0.0,
			"-0.022": 0.0,
			"-0.021": 0.0,
			"-0.02": 0.0,
			"-0.019": 0.0,
			"-0.018": 0.0,
			"-0.017": 0.0,
			"-0.016": 0.0,
			"-0.015": 0.0,
			"-0.014": 0.0,
			"-0.013": 0.0,
			"-0.012": 0.0,
			"-0.011": 0.305912136325,
			"-0.01": 1.22296086659,
			"-0.009": 1.16931117985,
			"-0.008": 2.21935474801,
			"-0.007": 5.20639667589,
			"-0.006": 13.4715877066,
			"-0.005": 19.4860644831,
			"-0.004": 24.133489192,
			"-0.003": 25.9684436704,
			"-0.002": 27.1108488343,
			"-0.001": 22.424577922,
			"0.0": 13.5106656795,
			"0.001": 15.2352010829,
			"0.002": 13.8613054281,
			"0.003": 16.7698371877,
			"0.004": 14.7199698475,
			"0.005": 18.5428701939,
			"0.006": 8.36077216005,
			"0.007": 4.93193575076,
			"0.008": 4.19293368497,
			"0.009": 1.8555064545,
			"0.01": 1.77315970243,
			"0.011": 1.4095204722,
			"0.012": 0.634560830205,
			"0.013": 1.30832348822,
			"0.014": 1.36242506842,
			"0.015": 0.84312889357,
			"0.016": 1.04369670088,
			"0.017": 1.00409753053,
			"0.018": 0.110629889522,
			"0.019": 0.0,
			"0.02": 0.0,
			"0.021": 0.0,
			"0.022": 0.0,
			"0.023": 0.0,
			"0.024": 0.0,
			"0.025": 0.0
		}
	}
}
