{
	 "smiles": "C[C@H]1CC11[C@@H](OC(C)=O)C(=O)C2=C([C@H](OC(C)=O)[C@@H](O)[C@H]3C(C)=C(C)CC[C@]23C)C1=O", 
	 "Tm": 450.15, 
	 "num_atms": 61, 
	 "gaussian": { 
		 "optdone": 1, 
		 "sigma_profile": "yes", 
		 "theory": "DFT", 
		 "functional": "B3LYP", 
		 "basiset": "6-31G**", 
		 "properties": { 
			 "R2extent": 13179.4038, 
			 "electric_dipole_moment_norm": 2.82559636183, 
			 "electric_quadrupole_moment_norm": 16.3758113564, 
			 "total_energy": -1459.17939677, 
			 "HOMO_LUMO_gap": 0.1277, 
			 "cosmo_polarized_energy": -19.91, 
			 "cosmo_cavitation_energy": 58.74, 
			 "cosmo_dispersion_energy": -37.53, 
			 "cosmo_repulsion_energy": 2.83, 
			 "cosmo_total_nonelectrostatic_energy": 24.04, 
			 "SMD_solvation_energy": 12.58 
		},
		"coords": [
			{
				"x": 3.7754403902,
				"y": -1.8525778192,
				"z": 2.0239792923,
				"element": "C" 
			},
			{
				"x": 3.7310138886,
				"y": -1.1390658019,
				"z": 0.6894140664,
				"element": "C" 
			},
			{
				"x": 4.1351780112,
				"y": -1.7777857388,
				"z": -0.6073303429,
				"element": "C" 
			},
			{
				"x": 2.6852885035,
				"y": -1.4066491046,
				"z": -0.4129453021,
				"element": "C" 
			},
			{
				"x": 1.5875081064,
				"y": -2.4563848,
				"z": -0.3580855452,
				"element": "C" 
			},
			{
				"x": 2.0100489797,
				"y": -3.6332545394,
				"z": 0.320896931,
				"element": "O" 
			},
			{
				"x": 1.3619577999,
				"y": -4.7884526303,
				"z": -0.0209100961,
				"element": "C" 
			},
			{
				"x": 1.7832313896,
				"y": -5.9155565649,
				"z": 0.8851487071,
				"element": "C" 
			},
			{
				"x": 0.5689118525,
				"y": -4.8627663721,
				"z": -0.9289748297,
				"element": "O" 
			},
			{
				"x": 0.3247779774,
				"y": -1.8857336074,
				"z": 0.2963410621,
				"element": "C" 
			},
			{
				"x": -0.255412748,
				"y": -2.512975748,
				"z": 1.1631919479,
				"element": "O" 
			},
			{
				"x": -0.1515315167,
				"y": -0.5719720316,
				"z": -0.2686258838,
				"element": "C" 
			},
			{
				"x": 0.7389820818,
				"y": 0.1757160414,
				"z": -0.975060633,
				"element": "C" 
			},
			{
				"x": 0.3559969114,
				"y": 1.4389540789,
				"z": -1.7030538101,
				"element": "C" 
			},
			{
				"x": 0.8972483567,
				"y": 2.5463402081,
				"z": -0.9335096149,
				"element": "O" 
			},
			{
				"x": 1.3048103644,
				"y": 3.6245732072,
				"z": -1.653068081,
				"element": "C" 
			},
			{
				"x": 1.9969200718,
				"y": 4.6278306551,
				"z": -0.7648500317,
				"element": "C" 
			},
			{
				"x": 1.1356822234,
				"y": 3.7375582172,
				"z": -2.8472544015,
				"element": "O" 
			},
			{
				"x": -1.1564445591,
				"y": 1.6286594901,
				"z": -1.8855386687,
				"element": "C" 
			},
			{
				"x": -1.6380511206,
				"y": 0.825271794,
				"z": -2.9588042004,
				"element": "O" 
			},
			{
				"x": -1.8646683582,
				"y": 1.2752229577,
				"z": -0.5775318476,
				"element": "C" 
			},
			{
				"x": -3.3359891252,
				"y": 1.6974817436,
				"z": -0.4718092863,
				"element": "C" 
			},
			{
				"x": -3.8021011897,
				"y": 2.7410189051,
				"z": -1.4594549903,
				"element": "C" 
			},
			{
				"x": -4.1070903795,
				"y": 1.1869046362,
				"z": 0.5085815891,
				"element": "C" 
			},
			{
				"x": -5.5520335047,
				"y": 1.5456884089,
				"z": 0.7632643988,
				"element": "C" 
			},
			{
				"x": -3.592097102,
				"y": 0.1339309565,
				"z": 1.4702716747,
				"element": "C" 
			},
			{
				"x": -2.1001915146,
				"y": -0.218437894,
				"z": 1.3587483071,
				"element": "C" 
			},
			{
				"x": -1.6291730256,
				"y": -0.198794855,
				"z": -0.1227087051,
				"element": "C" 
			},
			{
				"x": -2.4315278951,
				"y": -1.241838547,
				"z": -0.9515014331,
				"element": "C" 
			},
			{
				"x": 2.1984467543,
				"y": -0.1557524418,
				"z": -1.0751097055,
				"element": "C" 
			},
			{
				"x": 2.9652340832,
				"y": 0.6180384561,
				"z": -1.6362660035,
				"element": "O" 
			},
			{
				"x": 3.0345608741,
				"y": -1.4410877193,
				"z": 2.7182067958,
				"element": "H" 
			},
			{
				"x": 3.5869602019,
				"y": -2.921023684,
				"z": 1.9249637335,
				"element": "H" 
			},
			{
				"x": 4.7641838195,
				"y": -1.7143700498,
				"z": 2.4763875611,
				"element": "H" 
			},
			{
				"x": 3.9756444068,
				"y": -0.0799433505,
				"z": 0.7509831937,
				"element": "H" 
			},
			{
				"x": 4.3546653059,
				"y": -2.8410732187,
				"z": -0.5874740479,
				"element": "H" 
			},
			{
				"x": 4.6934478486,
				"y": -1.1881099218,
				"z": -1.3272134806,
				"element": "H" 
			},
			{
				"x": 1.3072533561,
				"y": -2.7317375725,
				"z": -1.3835072892,
				"element": "H" 
			},
			{
				"x": 1.3768398945,
				"y": -5.7371477504,
				"z": 1.8856729234,
				"element": "H" 
			},
			{
				"x": 1.3962584287,
				"y": -6.85700031,
				"z": 0.496752663,
				"element": "H" 
			},
			{
				"x": 2.8721153305,
				"y": -5.9574581984,
				"z": 0.9720671455,
				"element": "H" 
			},
			{
				"x": 0.8457437544,
				"y": 1.452542577,
				"z": -2.6804465848,
				"element": "H" 
			},
			{
				"x": 2.9855649482,
				"y": 4.2406665223,
				"z": -0.4974372374,
				"element": "H" 
			},
			{
				"x": 1.4382554915,
				"y": 4.776325383,
				"z": 0.1624286788,
				"element": "H" 
			},
			{
				"x": 2.1106910772,
				"y": 5.5706833068,
				"z": -1.2991259969,
				"element": "H" 
			},
			{
				"x": -1.3113249328,
				"y": 2.6900669096,
				"z": -2.11070261,
				"element": "H" 
			},
			{
				"x": -1.2691232586,
				"y": 1.1781945827,
				"z": -3.7797810678,
				"element": "H" 
			},
			{
				"x": -1.3160031173,
				"y": 1.8926418984,
				"z": 0.1518159523,
				"element": "H" 
			},
			{
				"x": -4.8565403053,
				"y": 2.9902515461,
				"z": -1.3438887944,
				"element": "H" 
			},
			{
				"x": -3.6487590919,
				"y": 2.3924995608,
				"z": -2.4866738173,
				"element": "H" 
			},
			{
				"x": -3.2368556401,
				"y": 3.6766686462,
				"z": -1.3498509488,
				"element": "H" 
			},
			{
				"x": -5.6653246599,
				"y": 2.0047884208,
				"z": 1.7547013673,
				"element": "H" 
			},
			{
				"x": -5.9782531337,
				"y": 2.2322557366,
				"z": 0.031566374,
				"element": "H" 
			},
			{
				"x": -6.174739949,
				"y": 0.641211377,
				"z": 0.7717281506,
				"element": "H" 
			},
			{
				"x": -4.196407826,
				"y": -0.775115605,
				"z": 1.3291328914,
				"element": "H" 
			},
			{
				"x": -3.8063796182,
				"y": 0.4521451345,
				"z": 2.5005758789,
				"element": "H" 
			},
			{
				"x": -1.9193435126,
				"y": -1.1930818736,
				"z": 1.808296933,
				"element": "H" 
			},
			{
				"x": -1.502425139,
				"y": 0.5106790073,
				"z": 1.9202172526,
				"element": "H" 
			},
			{
				"x": -2.354070014,
				"y": -2.2290250494,
				"z": -0.4877445196,
				"element": "H" 
			},
			{
				"x": -3.4853315891,
				"y": -0.9619884795,
				"z": -0.9985345827,
				"element": "H" 
			},
			{
				"x": -2.0602686572,
				"y": -1.295149086,
				"z": -1.9749610812,
				"element": "H" 
			}
		],
		 "valence_orbital": [ 
			{
				"type": "occ",
				"energy": -0.27801,
				"method": "rhf"
			},
			{
				"type": "occ",
				"energy": -0.26935,
				"method": "rhf"
			},
			{
				"type": "occ",
				"energy": -0.25768,
				"method": "rhf"
			},
			{
				"type": "occ",
				"energy": -0.2494,
				"method": "rhf"
			},
			{
				"type": "occ",
				"energy": -0.2201,
				"method": "rhf"
			},
			{
				"type": "unocc",
				"energy": -0.0924,
				"method": "rhf"
			},
			{
				"type": "unocc",
				"energy": -0.01702,
				"method": "rhf"
			},
			{
				"type": "unocc",
				"energy": 0.00493,
				"method": "rhf"
			},
			{
				"type": "unocc",
				"energy": 0.00879,
				"method": "rhf"
			},
			{
				"type": "unocc",
				"energy": 0.02886,
				"method": "rhf"
			}
		],
		"cosmo_sigma_profile": { 
			"-0.025": 0.0,
			"-0.024": 0.0,
			"-0.023": 0.0,
			"-0.022": 0.0,
			"-0.021": 0.0,
			"-0.02": 0.0,
			"-0.019": 0.0,
			"-0.018": 0.0,
			"-0.017": 0.0,
			"-0.016": 0.481254511947,
			"-0.015": 1.28143343907,
			"-0.014": 0.534873184062,
			"-0.013": 1.32927175543,
			"-0.012": 0.479671304117,
			"-0.011": 1.1099338427,
			"-0.01": 1.5009755114,
			"-0.009": 2.34430499553,
			"-0.008": 2.59588280214,
			"-0.007": 5.89073077101,
			"-0.006": 13.3179512465,
			"-0.005": 20.5821482284,
			"-0.004": 35.2979992692,
			"-0.003": 48.9369687221,
			"-0.002": 57.8574258655,
			"-0.001": 53.0387222578,
			"0.0": 47.7914845957,
			"0.001": 38.3687587176,
			"0.002": 20.1875072377,
			"0.003": 15.1302950192,
			"0.004": 13.4798597213,
			"0.005": 12.5938478683,
			"0.006": 13.2239310473,
			"0.007": 8.93344665506,
			"0.008": 8.23828488151,
			"0.009": 8.15632178495,
			"0.01": 9.14019004382,
			"0.011": 10.7999118012,
			"0.012": 5.95765395052,
			"0.013": 0.679435852868,
			"0.014": 0.0,
			"0.015": 0.0,
			"0.016": 0.0,
			"0.017": 0.0,
			"0.018": 0.0,
			"0.019": 0.0,
			"0.02": 0.0,
			"0.021": 0.0,
			"0.022": 0.0,
			"0.023": 0.0,
			"0.024": 0.0,
			"0.025": 0.0
		}
	}
}
