{
	 "smiles": "OCCOC(=O)C=C", 
	 "Tm": 213.15, 
	 "num_atms": 16, 
	 "gaussian": { 
		 "optdone": 1, 
		 "sigma_profile": "yes", 
		 "theory": "DFT", 
		 "functional": "B3LYP", 
		 "basiset": "6-31G**", 
		 "properties": { 
			 "R2extent": 2001.7469, 
			 "electric_dipole_moment_norm": 3.33659527213, 
			 "electric_quadrupole_moment_norm": 6.41913548774, 
			 "total_energy": -421.0016056, 
			 "HOMO_LUMO_gap": 0.1955, 
			 "cosmo_polarized_energy": -8.69, 
			 "cosmo_cavitation_energy": 19.95, 
			 "cosmo_dispersion_energy": -14.75, 
			 "cosmo_repulsion_energy": 1.24, 
			 "cosmo_total_nonelectrostatic_energy": 6.44, 
			 "SMD_solvation_energy": 5.18 
		},
		"coords": [
			{
				"x": -0.9739434959,
				"y": -0.2480563559,
				"z": -0.724783588,
				"element": "O" 
			},
			{
				"x": -2.1362884271,
				"y": -0.023306786,
				"z": 0.0349067826,
				"element": "C" 
			},
			{
				"x": -2.2204542145,
				"y": 1.3681759031,
				"z": 0.6687476674,
				"element": "C" 
			},
			{
				"x": -1.658577432,
				"y": 1.4623216577,
				"z": 2.0065138628,
				"element": "O" 
			},
			{
				"x": -0.3263189217,
				"y": 1.3679911996,
				"z": 2.1532148436,
				"element": "C" 
			},
			{
				"x": 0.4517841697,
				"y": 1.1028632864,
				"z": 1.2483772236,
				"element": "O" 
			},
			{
				"x": 0.0712670836,
				"y": 1.6281592137,
				"z": 3.5581570628,
				"element": "C" 
			},
			{
				"x": 1.3540840853,
				"y": 1.576019668,
				"z": 3.9233919631,
				"element": "C" 
			},
			{
				"x": -0.2280767939,
				"y": 0.0754328453,
				"z": -0.1910148906,
				"element": "H" 
			},
			{
				"x": -2.2805513171,
				"y": -0.7728971299,
				"z": 0.8329149143,
				"element": "H" 
			},
			{
				"x": -2.9845082051,
				"y": -0.1249964726,
				"z": -0.6532557631,
				"element": "H" 
			},
			{
				"x": -1.7274779524,
				"y": 2.0991626906,
				"z": 0.0198496113,
				"element": "H" 
			},
			{
				"x": -3.2614790635,
				"y": 1.6602040221,
				"z": 0.822500207,
				"element": "H" 
			},
			{
				"x": -0.72614463,
				"y": 1.8604555764,
				"z": 4.2566948866,
				"element": "H" 
			},
			{
				"x": 1.6628446824,
				"y": 1.7664556487,
				"z": 4.9459968575,
				"element": "H" 
			},
			{
				"x": 2.1227404323,
				"y": 1.3403150328,
				"z": 3.1935883589,
				"element": "H" 
			}
		],
		 "valence_orbital": [ 
			{
				"type": "occ",
				"energy": -0.34024,
				"method": "rhf"
			},
			{
				"type": "occ",
				"energy": -0.30557,
				"method": "rhf"
			},
			{
				"type": "occ",
				"energy": -0.29423,
				"method": "rhf"
			},
			{
				"type": "occ",
				"energy": -0.28521,
				"method": "rhf"
			},
			{
				"type": "occ",
				"energy": -0.25395,
				"method": "rhf"
			},
			{
				"type": "unocc",
				"energy": -0.05845,
				"method": "rhf"
			},
			{
				"type": "unocc",
				"energy": 0.07104,
				"method": "rhf"
			},
			{
				"type": "unocc",
				"energy": 0.10209,
				"method": "rhf"
			},
			{
				"type": "unocc",
				"energy": 0.10589,
				"method": "rhf"
			},
			{
				"type": "unocc",
				"energy": 0.11994,
				"method": "rhf"
			}
		],
		"cosmo_sigma_profile": { 
			"-0.025": 0.0,
			"-0.024": 0.0,
			"-0.023": 0.0,
			"-0.022": 0.0,
			"-0.021": 0.0,
			"-0.02": 0.0,
			"-0.019": 0.0,
			"-0.018": 0.0,
			"-0.017": 0.0,
			"-0.016": 0.0,
			"-0.015": 0.0,
			"-0.014": 0.0,
			"-0.013": 0.0,
			"-0.012": 0.0,
			"-0.011": 0.0,
			"-0.01": 0.0,
			"-0.009": 0.0,
			"-0.008": 0.879905852645,
			"-0.007": 6.59339569779,
			"-0.006": 10.3205212912,
			"-0.005": 13.9436724758,
			"-0.004": 16.2054929785,
			"-0.003": 15.9157874448,
			"-0.002": 13.1164190505,
			"-0.001": 11.9011536185,
			"0.0": 9.46066766771,
			"0.001": 9.46486240761,
			"0.002": 9.07343565512,
			"0.003": 7.73238887548,
			"0.004": 3.68234273555,
			"0.005": 4.30663791368,
			"0.006": 3.30095085848,
			"0.007": 2.96079537061,
			"0.008": 3.44858400106,
			"0.009": 3.36961947485,
			"0.01": 2.77733014608,
			"0.011": 2.28531532692,
			"0.012": 1.19696852072,
			"0.013": 1.56839991232,
			"0.014": 2.12373626612,
			"0.015": 1.9866007056,
			"0.016": 0.0557900463145,
			"0.017": 0.0,
			"0.018": 0.0,
			"0.019": 0.0,
			"0.02": 0.0,
			"0.021": 0.0,
			"0.022": 0.0,
			"0.023": 0.0,
			"0.024": 0.0,
			"0.025": 0.0
		}
	}
}
