{
	 "smiles": "COC1=C(O)C=CC=N1", 
	 "Tm": 338.15, 
	 "num_atms": 16, 
	 "gaussian": { 
		 "optdone": 1, 
		 "sigma_profile": "yes", 
		 "theory": "DFT", 
		 "functional": "B3LYP", 
		 "basiset": "6-31G**", 
		 "properties": { 
			 "R2extent": 1549.74, 
			 "electric_dipole_moment_norm": 0.883928011775, 
			 "electric_quadrupole_moment_norm": 6.96174335565, 
			 "total_energy": -438.044180185, 
			 "HOMO_LUMO_gap": 0.20319, 
			 "cosmo_polarized_energy": -6.82, 
			 "cosmo_cavitation_energy": 19.92, 
			 "cosmo_dispersion_energy": -15.22, 
			 "cosmo_repulsion_energy": 1.26, 
			 "cosmo_total_nonelectrostatic_energy": 5.96, 
			 "SMD_solvation_energy": 3.81 
		},
		"coords": [
			{
				"x": -0.9018575785,
				"y": 1.6721743564,
				"z": 1.4295330766,
				"element": "C" 
			},
			{
				"x": -0.8223167978,
				"y": 0.9332509132,
				"z": 0.2077040295,
				"element": "O" 
			},
			{
				"x": 0.3617702515,
				"y": 0.9828617103,
				"z": -0.4669146855,
				"element": "C" 
			},
			{
				"x": 0.3835433921,
				"y": 0.2343253723,
				"z": -1.667143499,
				"element": "C" 
			},
			{
				"x": -0.7099616816,
				"y": -0.4622817069,
				"z": -2.0755732613,
				"element": "O" 
			},
			{
				"x": 1.5570418351,
				"y": 0.2405070074,
				"z": -2.4038619557,
				"element": "C" 
			},
			{
				"x": 2.6488783105,
				"y": 0.9802115755,
				"z": -1.9260988365,
				"element": "C" 
			},
			{
				"x": 2.5171785039,
				"y": 1.6791669005,
				"z": -0.7345126458,
				"element": "C" 
			},
			{
				"x": 1.3804733657,
				"y": 1.6805985525,
				"z": -0.0091026392,
				"element": "N" 
			},
			{
				"x": -0.1600181082,
				"y": 1.3158544885,
				"z": 2.1499616656,
				"element": "H" 
			},
			{
				"x": -1.9111571524,
				"y": 1.5061596151,
				"z": 1.808127196,
				"element": "H" 
			},
			{
				"x": -0.73041891,
				"y": 2.7378632719,
				"z": 1.2528416947,
				"element": "H" 
			},
			{
				"x": -1.4012771508,
				"y": -0.3202137122,
				"z": -1.4105500178,
				"element": "H" 
			},
			{
				"x": 1.6054390606,
				"y": -0.3240273335,
				"z": -3.3293736959,
				"element": "H" 
			},
			{
				"x": 3.5823680229,
				"y": 1.0063989288,
				"z": -2.4784350122,
				"element": "H" 
			},
			{
				"x": 3.3407146368,
				"y": 2.2635500602,
				"z": -0.3322014135,
				"element": "H" 
			}
		],
		 "valence_orbital": [ 
			{
				"type": "occ",
				"energy": -0.35133,
				"method": "rhf"
			},
			{
				"type": "occ",
				"energy": -0.32847,
				"method": "rhf"
			},
			{
				"type": "occ",
				"energy": -0.26714,
				"method": "rhf"
			},
			{
				"type": "occ",
				"energy": -0.26517,
				"method": "rhf"
			},
			{
				"type": "occ",
				"energy": -0.21375,
				"method": "rhf"
			},
			{
				"type": "unocc",
				"energy": -0.01056,
				"method": "rhf"
			},
			{
				"type": "unocc",
				"energy": 0.01063,
				"method": "rhf"
			},
			{
				"type": "unocc",
				"energy": 0.08188,
				"method": "rhf"
			},
			{
				"type": "unocc",
				"energy": 0.11061,
				"method": "rhf"
			},
			{
				"type": "unocc",
				"energy": 0.12197,
				"method": "rhf"
			}
		],
		"cosmo_sigma_profile": { 
			"-0.025": 0.0,
			"-0.024": 0.0,
			"-0.023": 0.0,
			"-0.022": 0.0,
			"-0.021": 0.0,
			"-0.02": 0.0,
			"-0.019": 0.0,
			"-0.018": 0.0,
			"-0.017": 0.0,
			"-0.016": 0.0108525255876,
			"-0.015": 0.312900674515,
			"-0.014": 0.543154489613,
			"-0.013": 0.847963654726,
			"-0.012": 0.490405314947,
			"-0.011": 0.617262557509,
			"-0.01": 0.656972580624,
			"-0.009": 0.545691673623,
			"-0.008": 0.360732806736,
			"-0.007": 2.96472641797,
			"-0.006": 9.18916972301,
			"-0.005": 11.9208678701,
			"-0.004": 13.3213101344,
			"-0.003": 14.3053249476,
			"-0.002": 10.2080908057,
			"-0.001": 9.41795091894,
			"0.0": 11.0482317646,
			"0.001": 11.3328967763,
			"0.002": 12.4368671382,
			"0.003": 13.7581295097,
			"0.004": 10.572238504,
			"0.005": 5.16783111344,
			"0.006": 2.86002977685,
			"0.007": 3.19076078211,
			"0.008": 2.77981438453,
			"0.009": 2.65216128318,
			"0.01": 2.83185973035,
			"0.011": 2.84113980358,
			"0.012": 0.915363212437,
			"0.013": 0.515596996433,
			"0.014": 0.229175013565,
			"0.015": 0.0,
			"0.016": 0.0,
			"0.017": 0.0,
			"0.018": 0.0,
			"0.019": 0.0,
			"0.02": 0.0,
			"0.021": 0.0,
			"0.022": 0.0,
			"0.023": 0.0,
			"0.024": 0.0,
			"0.025": 0.0
		}
	}
}
