{
	 "smiles": "COC1=CC=CC(OC)=C1C=NN1C(S)=NN=C1C(F)(F)F", 
	 "Tm": 451.15, 
	 "num_atms": 33, 
	 "gaussian": { 
		 "optdone": 1, 
		 "sigma_profile": "yes", 
		 "theory": "DFT", 
		 "functional": "B3LYP", 
		 "basiset": "6-31G**", 
		 "properties": { 
			 "R2extent": 9100.3884, 
			 "electric_dipole_moment_norm": 8.60498012665, 
			 "electric_quadrupole_moment_norm": 14.0227576532, 
			 "total_energy": -1530.95613779, 
			 "HOMO_LUMO_gap": 0.16474, 
			 "cosmo_polarized_energy": -17.11, 
			 "cosmo_cavitation_energy": 40.89, 
			 "cosmo_dispersion_energy": -28.03, 
			 "cosmo_repulsion_energy": 2.02, 
			 "cosmo_total_nonelectrostatic_energy": 14.88, 
			 "SMD_solvation_energy": 7.15 
		},
		"coords": [
			{
				"x": 0.9539656747,
				"y": -3.7297883767,
				"z": -2.4396850474,
				"element": "C" 
			},
			{
				"x": -0.0587784778,
				"y": -3.4504486252,
				"z": -1.4660759769,
				"element": "O" 
			},
			{
				"x": -1.0069684963,
				"y": -2.5386687875,
				"z": -1.829586754,
				"element": "C" 
			},
			{
				"x": -2.1563230276,
				"y": -2.9931119627,
				"z": -2.4809153096,
				"element": "C" 
			},
			{
				"x": -3.1820271506,
				"y": -2.1030614798,
				"z": -2.7829143947,
				"element": "C" 
			},
			{
				"x": -3.0900509438,
				"y": -0.7538770251,
				"z": -2.4366682716,
				"element": "C" 
			},
			{
				"x": -1.9479150091,
				"y": -0.2934255243,
				"z": -1.7781221926,
				"element": "C" 
			},
			{
				"x": -1.7665201726,
				"y": 1.0026173182,
				"z": -1.4019926782,
				"element": "O" 
			},
			{
				"x": -2.8122983598,
				"y": 1.9397631324,
				"z": -1.6300010633,
				"element": "C" 
			},
			{
				"x": -0.8754216651,
				"y": -1.175835423,
				"z": -1.4687277593,
				"element": "C" 
			},
			{
				"x": 0.2601188139,
				"y": -0.6243424477,
				"z": -0.737474723,
				"element": "C" 
			},
			{
				"x": 1.4013802629,
				"y": -1.2180626281,
				"z": -0.6669009199,
				"element": "N" 
			},
			{
				"x": 2.391402015,
				"y": -0.5712335705,
				"z": 0.0608202755,
				"element": "N" 
			},
			{
				"x": 2.7584049093,
				"y": 0.7519901473,
				"z": 0.2105992119,
				"element": "C" 
			},
			{
				"x": 1.9289146456,
				"y": 2.1298094131,
				"z": -0.5157490785,
				"element": "S" 
			},
			{
				"x": 3.874309051,
				"y": 0.8375084934,
				"z": 0.905010064,
				"element": "N" 
			},
			{
				"x": 4.2707225447,
				"y": -0.4419425836,
				"z": 1.2229870667,
				"element": "N" 
			},
			{
				"x": 3.3941846967,
				"y": -1.2620609416,
				"z": 0.7051224826,
				"element": "C" 
			},
			{
				"x": 3.4344239225,
				"y": -2.7582642474,
				"z": 0.8064274112,
				"element": "C" 
			},
			{
				"x": 4.4730930959,
				"y": -3.143800187,
				"z": 1.5565392408,
				"element": "F" 
			},
			{
				"x": 2.3058543557,
				"y": -3.2451508275,
				"z": 1.3583718374,
				"element": "F" 
			},
			{
				"x": 3.5649635011,
				"y": -3.3311254234,
				"z": -0.4123115334,
				"element": "F" 
			},
			{
				"x": 0.5130778612,
				"y": -4.1606028437,
				"z": -3.3475724967,
				"element": "H" 
			},
			{
				"x": 1.6268944365,
				"y": -4.4503058087,
				"z": -1.9749694661,
				"element": "H" 
			},
			{
				"x": 1.5187658406,
				"y": -2.8266424194,
				"z": -2.6880577904,
				"element": "H" 
			},
			{
				"x": -2.2323073714,
				"y": -4.0481149358,
				"z": -2.7200745965,
				"element": "H" 
			},
			{
				"x": -4.0734581486,
				"y": -2.4599074012,
				"z": -3.2903688696,
				"element": "H" 
			},
			{
				"x": -3.9011159126,
				"y": -0.0793100342,
				"z": -2.6786538455,
				"element": "H" 
			},
			{
				"x": -3.0156384925,
				"y": 2.0580158735,
				"z": -2.7008846178,
				"element": "H" 
			},
			{
				"x": -3.7338212974,
				"y": 1.6454808855,
				"z": -1.1139117864,
				"element": "H" 
			},
			{
				"x": -2.4555664348,
				"y": 2.8865985385,
				"z": -1.2236741482,
				"element": "H" 
			},
			{
				"x": 0.0747568973,
				"y": 0.3302593363,
				"z": -0.2446083653,
				"element": "H" 
			},
			{
				"x": 2.9768784355,
				"y": 2.9434403657,
				"z": -0.278675905,
				"element": "H" 
			}
		],
		 "valence_orbital": [ 
			{
				"type": "occ",
				"energy": -0.27516,
				"method": "rhf"
			},
			{
				"type": "occ",
				"energy": -0.26347,
				"method": "rhf"
			},
			{
				"type": "occ",
				"energy": -0.25174,
				"method": "rhf"
			},
			{
				"type": "occ",
				"energy": -0.24521,
				"method": "rhf"
			},
			{
				"type": "occ",
				"energy": -0.23937,
				"method": "rhf"
			},
			{
				"type": "unocc",
				"energy": -0.07463,
				"method": "rhf"
			},
			{
				"type": "unocc",
				"energy": -0.00815,
				"method": "rhf"
			},
			{
				"type": "unocc",
				"energy": -0.00382,
				"method": "rhf"
			},
			{
				"type": "unocc",
				"energy": 0.00019,
				"method": "rhf"
			},
			{
				"type": "unocc",
				"energy": 0.02044,
				"method": "rhf"
			}
		],
		"cosmo_sigma_profile": { 
			"-0.025": 0.0,
			"-0.024": 0.0,
			"-0.023": 0.0,
			"-0.022": 0.0,
			"-0.021": 0.0,
			"-0.02": 0.0,
			"-0.019": 0.0,
			"-0.018": 0.0,
			"-0.017": 0.0,
			"-0.016": 0.0,
			"-0.015": 0.0,
			"-0.014": 0.0,
			"-0.013": 0.731820328184,
			"-0.012": 1.64801627218,
			"-0.011": 1.69085468037,
			"-0.01": 1.00089526431,
			"-0.009": 1.80464457582,
			"-0.008": 2.68120549281,
			"-0.007": 8.52729268879,
			"-0.006": 16.2706640276,
			"-0.005": 19.7785225177,
			"-0.004": 27.1306995991,
			"-0.003": 27.7351399388,
			"-0.002": 24.5231869389,
			"-0.001": 21.5640695341,
			"0.0": 23.5939320874,
			"0.001": 28.4132845627,
			"0.002": 43.4316422547,
			"0.003": 23.9140947039,
			"0.004": 12.5544190131,
			"0.005": 8.53676538067,
			"0.006": 4.91422127978,
			"0.007": 3.36090219291,
			"0.008": 5.16361467946,
			"0.009": 4.62602131524,
			"0.01": 4.57407897056,
			"0.011": 4.04672241318,
			"0.012": 2.91818470131,
			"0.013": 2.63682211568,
			"0.014": 2.01685806547,
			"0.015": 0.701937658324,
			"0.016": 0.0,
			"0.017": 0.0,
			"0.018": 0.0,
			"0.019": 0.0,
			"0.02": 0.0,
			"0.021": 0.0,
			"0.022": 0.0,
			"0.023": 0.0,
			"0.024": 0.0,
			"0.025": 0.0
		}
	}
}
