{
	 "smiles": "COCCCN1C=NN=C1S", 
	 "Tm": 435.15, 
	 "num_atms": 22, 
	 "gaussian": { 
		 "optdone": 1, 
		 "sigma_profile": "yes", 
		 "theory": "DFT", 
		 "functional": "B3LYP", 
		 "basiset": "6-31G**", 
		 "properties": { 
			 "R2extent": 3529.5854, 
			 "electric_dipole_moment_norm": 4.96805824644, 
			 "electric_quadrupole_moment_norm": 26.8754706949, 
			 "total_energy": -872.884789923, 
			 "HOMO_LUMO_gap": 0.23428, 
			 "cosmo_polarized_energy": -17.59, 
			 "cosmo_cavitation_energy": 27.37, 
			 "cosmo_dispersion_energy": -19.61, 
			 "cosmo_repulsion_energy": 1.54, 
			 "cosmo_total_nonelectrostatic_energy": 9.3, 
			 "SMD_solvation_energy": 3.11 
		},
		"coords": [
			{
				"x": 1.9737851959,
				"y": 1.0440457707,
				"z": -0.2808060387,
				"element": "C" 
			},
			{
				"x": 0.6887869416,
				"y": 1.0035717948,
				"z": -0.8763104416,
				"element": "O" 
			},
			{
				"x": 0.3814004558,
				"y": -0.2249805602,
				"z": -1.5149178232,
				"element": "C" 
			},
			{
				"x": -0.0306450655,
				"y": -1.3329204416,
				"z": -0.5375812441,
				"element": "C" 
			},
			{
				"x": -1.231729498,
				"y": -0.9099308288,
				"z": 0.3180588313,
				"element": "C" 
			},
			{
				"x": -1.6163076109,
				"y": -1.9179703145,
				"z": 1.3036797277,
				"element": "N" 
			},
			{
				"x": -2.5301897408,
				"y": -2.934623142,
				"z": 1.1577479518,
				"element": "C" 
			},
			{
				"x": -2.5820269252,
				"y": -3.6831677015,
				"z": 2.2286864082,
				"element": "N" 
			},
			{
				"x": -1.6691864955,
				"y": -3.1691624129,
				"z": 3.1336826487,
				"element": "N" 
			},
			{
				"x": -1.1106497644,
				"y": -2.1265954605,
				"z": 2.5611680792,
				"element": "C" 
			},
			{
				"x": 0.125104381,
				"y": -1.0858284116,
				"z": 3.2811750425,
				"element": "S" 
			},
			{
				"x": 2.076101052,
				"y": 0.3434671733,
				"z": 0.5603222557,
				"element": "H" 
			},
			{
				"x": 2.7634099098,
				"y": 0.822764434,
				"z": -1.0152197848,
				"element": "H" 
			},
			{
				"x": 2.116674351,
				"y": 2.0594807232,
				"z": 0.0956934337,
				"element": "H" 
			},
			{
				"x": -0.4486273346,
				"y": -0.0030959106,
				"z": -2.1963677934,
				"element": "H" 
			},
			{
				"x": 1.2297664135,
				"y": -0.5676938942,
				"z": -2.1280188444,
				"element": "H" 
			},
			{
				"x": -0.2792686571,
				"y": -2.2362326745,
				"z": -1.1078719644,
				"element": "H" 
			},
			{
				"x": 0.806685588,
				"y": -1.5973619671,
				"z": 0.1178796449,
				"element": "H" 
			},
			{
				"x": -1.0076542391,
				"y": 0.0235585694,
				"z": 0.8408886266,
				"element": "H" 
			},
			{
				"x": -2.1053559545,
				"y": -0.7178097781,
				"z": -0.3130722548,
				"element": "H" 
			},
			{
				"x": -3.122505288,
				"y": -3.0636317289,
				"z": 0.2626346975,
				"element": "H" 
			},
			{
				"x": 0.1045322852,
				"y": -1.7599832383,
				"z": 4.4461488415,
				"element": "H" 
			}
		],
		 "valence_orbital": [ 
			{
				"type": "occ",
				"energy": -0.30539,
				"method": "rhf"
			},
			{
				"type": "occ",
				"energy": -0.29033,
				"method": "rhf"
			},
			{
				"type": "occ",
				"energy": -0.26778,
				"method": "rhf"
			},
			{
				"type": "occ",
				"energy": -0.25375,
				"method": "rhf"
			},
			{
				"type": "occ",
				"energy": -0.23233,
				"method": "rhf"
			},
			{
				"type": "unocc",
				"energy": 0.00195,
				"method": "rhf"
			},
			{
				"type": "unocc",
				"energy": 0.01816,
				"method": "rhf"
			},
			{
				"type": "unocc",
				"energy": 0.04367,
				"method": "rhf"
			},
			{
				"type": "unocc",
				"energy": 0.05184,
				"method": "rhf"
			},
			{
				"type": "unocc",
				"energy": 0.07613,
				"method": "rhf"
			}
		],
		"cosmo_sigma_profile": { 
			"-0.025": 0.0,
			"-0.024": 0.0,
			"-0.023": 0.0,
			"-0.022": 0.0,
			"-0.021": 0.0,
			"-0.02": 0.0,
			"-0.019": 0.0,
			"-0.018": 0.0,
			"-0.017": 0.0,
			"-0.016": 0.0,
			"-0.015": 0.0,
			"-0.014": 0.0,
			"-0.013": 0.0835949563122,
			"-0.012": 1.24851577349,
			"-0.011": 1.62380063721,
			"-0.01": 3.7643502869,
			"-0.009": 4.3371326888,
			"-0.008": 4.08043457668,
			"-0.007": 5.81026889566,
			"-0.006": 6.28252518748,
			"-0.005": 14.0666605737,
			"-0.004": 24.5394084013,
			"-0.003": 25.8888840222,
			"-0.002": 23.6821493198,
			"-0.001": 17.2135301038,
			"0.0": 9.839172367,
			"0.001": 9.07392325998,
			"0.002": 7.86174819426,
			"0.003": 8.35165555404,
			"0.004": 5.88732622707,
			"0.005": 5.29655580284,
			"0.006": 4.90020163643,
			"0.007": 3.95157630191,
			"0.008": 2.95939264698,
			"0.009": 2.96002268832,
			"0.01": 3.14111455353,
			"0.011": 3.14513769241,
			"0.012": 3.97672066425,
			"0.013": 4.28471371505,
			"0.014": 4.51824999562,
			"0.015": 2.38518390813,
			"0.016": 2.35012354859,
			"0.017": 0.909369843255,
			"0.018": 0.0,
			"0.019": 0.0,
			"0.02": 0.0,
			"0.021": 0.0,
			"0.022": 0.0,
			"0.023": 0.0,
			"0.024": 0.0,
			"0.025": 0.0
		}
	}
}
