{
	 "smiles": "CN(CC(O)=O)C(=O)OC(C)(C)C", 
	 "Tm": 364.15, 
	 "num_atms": 28, 
	 "gaussian": { 
		 "optdone": 1, 
		 "sigma_profile": "yes", 
		 "theory": "DFT", 
		 "functional": "B3LYP", 
		 "basiset": "6-31G**", 
		 "properties": { 
			 "R2extent": 4078.0071, 
			 "electric_dipole_moment_norm": 3.17961384291, 
			 "electric_quadrupole_moment_norm": 13.6739682071, 
			 "total_energy": -669.584721203, 
			 "HOMO_LUMO_gap": 0.24682, 
			 "cosmo_polarized_energy": -13.09, 
			 "cosmo_cavitation_energy": 30.77, 
			 "cosmo_dispersion_energy": -21.11, 
			 "cosmo_repulsion_energy": 1.71, 
			 "cosmo_total_nonelectrostatic_energy": 11.37, 
			 "SMD_solvation_energy": 7.54 
		},
		"coords": [
			{
				"x": -0.3430416805,
				"y": 2.8001844255,
				"z": -1.9784002728,
				"element": "C" 
			},
			{
				"x": 0.8208079008,
				"y": 2.068117631,
				"z": -1.4927283537,
				"element": "N" 
			},
			{
				"x": 2.1301877459,
				"y": 2.6020554572,
				"z": -1.7923470088,
				"element": "C" 
			},
			{
				"x": 2.5236773005,
				"y": 3.8805900678,
				"z": -1.0578655518,
				"element": "C" 
			},
			{
				"x": 1.7492693234,
				"y": 4.1349112594,
				"z": 0.0205708275,
				"element": "O" 
			},
			{
				"x": 3.4487450213,
				"y": 4.585635902,
				"z": -1.3917208262,
				"element": "O" 
			},
			{
				"x": 0.7484827185,
				"y": 1.0737283099,
				"z": -0.5406222143,
				"element": "C" 
			},
			{
				"x": 1.7343917336,
				"y": 0.5338718529,
				"z": -0.0585246629,
				"element": "O" 
			},
			{
				"x": -0.5365215263,
				"y": 0.7763672709,
				"z": -0.2475489129,
				"element": "O" 
			},
			{
				"x": -0.8645670439,
				"y": -0.2942587701,
				"z": 0.7095129769,
				"element": "C" 
			},
			{
				"x": -0.3148827063,
				"y": 0.0569692562,
				"z": 2.0960088434,
				"element": "C" 
			},
			{
				"x": -0.3379119749,
				"y": -1.638723934,
				"z": 0.1969427776,
				"element": "C" 
			},
			{
				"x": -2.3954908513,
				"y": -0.2761084713,
				"z": 0.7121782734,
				"element": "C" 
			},
			{
				"x": -0.1598891244,
				"y": 3.1112621919,
				"z": -3.0121044278,
				"element": "H" 
			},
			{
				"x": -1.2188955738,
				"y": 2.1554626331,
				"z": -1.956362752,
				"element": "H" 
			},
			{
				"x": -0.5438060878,
				"y": 3.6938462785,
				"z": -1.3741958402,
				"element": "H" 
			},
			{
				"x": 2.2252856612,
				"y": 2.8107027232,
				"z": -2.8629534196,
				"element": "H" 
			},
			{
				"x": 2.8744664993,
				"y": 1.8460412341,
				"z": -1.5287386991,
				"element": "H" 
			},
			{
				"x": 2.1101661715,
				"y": 4.9423731075,
				"z": 0.42437838,
				"element": "H" 
			},
			{
				"x": -0.6788097763,
				"y": 1.0403123392,
				"z": 2.4102152433,
				"element": "H" 
			},
			{
				"x": 0.7750174604,
				"y": 0.0675030286,
				"z": 2.0927657607,
				"element": "H" 
			},
			{
				"x": -0.6609698945,
				"y": -0.6827157172,
				"z": 2.8253167884,
				"element": "H" 
			},
			{
				"x": -0.6871002867,
				"y": -2.4428349641,
				"z": 0.8528609373,
				"element": "H" 
			},
			{
				"x": -0.7161154739,
				"y": -1.8355907068,
				"z": -0.8113516636,
				"element": "H" 
			},
			{
				"x": 0.751837607,
				"y": -1.6487755106,
				"z": 0.1752034861,
				"element": "H" 
			},
			{
				"x": -2.7870770536,
				"y": -0.4865208847,
				"z": -0.2874800813,
				"element": "H" 
			},
			{
				"x": -2.7697595426,
				"y": 0.7008662528,
				"z": 1.031653883,
				"element": "H" 
			},
			{
				"x": -2.7783965464,
				"y": -1.0355722629,
				"z": 1.4002365096,
				"element": "H" 
			}
		],
		 "valence_orbital": [ 
			{
				"type": "occ",
				"energy": -0.32112,
				"method": "rhf"
			},
			{
				"type": "occ",
				"energy": -0.2931,
				"method": "rhf"
			},
			{
				"type": "occ",
				"energy": -0.28538,
				"method": "rhf"
			},
			{
				"type": "occ",
				"energy": -0.2637,
				"method": "rhf"
			},
			{
				"type": "occ",
				"energy": -0.24041,
				"method": "rhf"
			},
			{
				"type": "unocc",
				"energy": 0.00641,
				"method": "rhf"
			},
			{
				"type": "unocc",
				"energy": 0.05069,
				"method": "rhf"
			},
			{
				"type": "unocc",
				"energy": 0.06897,
				"method": "rhf"
			},
			{
				"type": "unocc",
				"energy": 0.08494,
				"method": "rhf"
			},
			{
				"type": "unocc",
				"energy": 0.10039,
				"method": "rhf"
			}
		],
		"cosmo_sigma_profile": { 
			"-0.025": 0.0,
			"-0.024": 0.0,
			"-0.023": 0.0,
			"-0.022": 0.0,
			"-0.021": 0.0,
			"-0.02": 0.0,
			"-0.019": 0.220193445741,
			"-0.018": 0.824284007646,
			"-0.017": 0.785364416834,
			"-0.016": 1.23248925886,
			"-0.015": 0.782432503056,
			"-0.014": 0.235548673577,
			"-0.013": 0.967859256835,
			"-0.012": 0.584670936937,
			"-0.011": 0.943837928024,
			"-0.01": 0.407369721234,
			"-0.009": 0.336921756549,
			"-0.008": 1.56640492714,
			"-0.007": 6.10100607338,
			"-0.006": 6.5366119435,
			"-0.005": 6.84003309725,
			"-0.004": 19.7095645254,
			"-0.003": 25.1169577877,
			"-0.002": 26.202133066,
			"-0.001": 22.5904754665,
			"0.0": 25.9735447173,
			"0.001": 23.5773033888,
			"0.002": 10.9280247231,
			"0.003": 8.17868341432,
			"0.004": 7.7375352359,
			"0.005": 7.00340001648,
			"0.006": 5.46452471175,
			"0.007": 4.60906068484,
			"0.008": 2.95375387896,
			"0.009": 2.96737065752,
			"0.01": 3.81636998973,
			"0.011": 5.8296398424,
			"0.012": 6.05816303802,
			"0.013": 2.80448166932,
			"0.014": 0.0965506893437,
			"0.015": 0.0,
			"0.016": 0.0,
			"0.017": 0.0,
			"0.018": 0.0,
			"0.019": 0.0,
			"0.02": 0.0,
			"0.021": 0.0,
			"0.022": 0.0,
			"0.023": 0.0,
			"0.024": 0.0,
			"0.025": 0.0
		}
	}
}
