{
	 "smiles": "CC1=CC=C(CNC(=O)CC#N)C=C1", 
	 "Tm": 401.15, 
	 "num_atms": 26, 
	 "gaussian": { 
		 "optdone": 1, 
		 "sigma_profile": "yes", 
		 "theory": "DFT", 
		 "functional": "B3LYP", 
		 "basiset": "6-31G**", 
		 "properties": { 
			 "R2extent": 5068.5367, 
			 "electric_dipole_moment_norm": 1.51154402185, 
			 "electric_quadrupole_moment_norm": 20.372638565, 
			 "total_energy": -611.136946108, 
			 "HOMO_LUMO_gap": 0.22976, 
			 "cosmo_polarized_energy": -14.46, 
			 "cosmo_cavitation_energy": 31.2, 
			 "cosmo_dispersion_energy": -21.56, 
			 "cosmo_repulsion_energy": 1.73, 
			 "cosmo_total_nonelectrostatic_energy": 11.37, 
			 "SMD_solvation_energy": 6.66 
		},
		"coords": [
			{
				"x": 3.7533826837,
				"y": 0.9132499344,
				"z": 2.9084126555,
				"element": "C" 
			},
			{
				"x": 2.5083725484,
				"y": 0.858200732,
				"z": 2.0546115521,
				"element": "C" 
			},
			{
				"x": 1.3682117695,
				"y": 0.1654754071,
				"z": 2.4929607105,
				"element": "C" 
			},
			{
				"x": 0.2111068598,
				"y": 0.1198530503,
				"z": 1.721249067,
				"element": "C" 
			},
			{
				"x": 0.156679093,
				"y": 0.7708466005,
				"z": 0.4792982648,
				"element": "C" 
			},
			{
				"x": -1.1105467482,
				"y": 0.730149682,
				"z": -0.3517849757,
				"element": "C" 
			},
			{
				"x": -2.1891106068,
				"y": 1.5636369374,
				"z": 0.1869800314,
				"element": "N" 
			},
			{
				"x": -3.1825636541,
				"y": 1.0454476429,
				"z": 0.9483039355,
				"element": "C" 
			},
			{
				"x": -3.3144127864,
				"y": -0.1408574622,
				"z": 1.2162845727,
				"element": "O" 
			},
			{
				"x": -4.2310885796,
				"y": 2.0470281164,
				"z": 1.492480596,
				"element": "C" 
			},
			{
				"x": -4.0223001491,
				"y": 3.449702355,
				"z": 1.1441150245,
				"element": "C" 
			},
			{
				"x": -3.8051428513,
				"y": 4.5490702363,
				"z": 0.8387234323,
				"element": "N" 
			},
			{
				"x": 1.2889495107,
				"y": 1.4585440761,
				"z": 0.0365081288,
				"element": "C" 
			},
			{
				"x": 2.4492394643,
				"y": 1.500091287,
				"z": 0.8135286235,
				"element": "C" 
			},
			{
				"x": 4.025485453,
				"y": -0.0792964127,
				"z": 3.2832327178,
				"element": "H" 
			},
			{
				"x": 3.6066362321,
				"y": 1.5578424776,
				"z": 3.7837213969,
				"element": "H" 
			},
			{
				"x": 4.6059444291,
				"y": 1.3072722586,
				"z": 2.3483129243,
				"element": "H" 
			},
			{
				"x": 1.3929515961,
				"y": -0.3506176815,
				"z": 3.4500191653,
				"element": "H" 
			},
			{
				"x": -0.6602381,
				"y": -0.4259670311,
				"z": 2.0732443472,
				"element": "H" 
			},
			{
				"x": -1.50991116,
				"y": -0.2856229549,
				"z": -0.3979217049,
				"element": "H" 
			},
			{
				"x": -0.9044996009,
				"y": 1.0622249493,
				"z": -1.3743130845,
				"element": "H" 
			},
			{
				"x": -2.1092410332,
				"y": 2.5679480585,
				"z": 0.1020683991,
				"element": "H" 
			},
			{
				"x": -5.2088555628,
				"y": 1.7161776974,
				"z": 1.1273584231,
				"element": "H" 
			},
			{
				"x": -4.2471763888,
				"y": 1.9349444823,
				"z": 2.5814717095,
				"element": "H" 
			},
			{
				"x": 1.2709800662,
				"y": 1.9628685212,
				"z": -0.9272789905,
				"element": "H" 
			},
			{
				"x": 3.3201475154,
				"y": 2.0380870402,
				"z": 0.4473130777,
				"element": "H" 
			}
		],
		 "valence_orbital": [ 
			{
				"type": "occ",
				"energy": -0.33676,
				"method": "rhf"
			},
			{
				"type": "occ",
				"energy": -0.27409,
				"method": "rhf"
			},
			{
				"type": "occ",
				"energy": -0.26591,
				"method": "rhf"
			},
			{
				"type": "occ",
				"energy": -0.25211,
				"method": "rhf"
			},
			{
				"type": "occ",
				"energy": -0.23925,
				"method": "rhf"
			},
			{
				"type": "unocc",
				"energy": -0.00949,
				"method": "rhf"
			},
			{
				"type": "unocc",
				"energy": -0.00454,
				"method": "rhf"
			},
			{
				"type": "unocc",
				"energy": 0.01228,
				"method": "rhf"
			},
			{
				"type": "unocc",
				"energy": 0.01483,
				"method": "rhf"
			},
			{
				"type": "unocc",
				"energy": 0.02723,
				"method": "rhf"
			}
		],
		"cosmo_sigma_profile": { 
			"-0.025": 0.0,
			"-0.024": 0.0,
			"-0.023": 0.0,
			"-0.022": 0.0,
			"-0.021": 0.0,
			"-0.02": 0.0,
			"-0.019": 0.0,
			"-0.018": 0.0,
			"-0.017": 0.0,
			"-0.016": 0.0,
			"-0.015": 0.0,
			"-0.014": 0.0289293064036,
			"-0.013": 0.58210530144,
			"-0.012": 0.545677388759,
			"-0.011": 1.25598212763,
			"-0.01": 5.68766027414,
			"-0.009": 5.56148021294,
			"-0.008": 6.1602582062,
			"-0.007": 6.54932696943,
			"-0.006": 10.8892262194,
			"-0.005": 13.7535825563,
			"-0.004": 19.6214085003,
			"-0.003": 21.3428536866,
			"-0.002": 18.1221301627,
			"-0.001": 17.6799748055,
			"0.0": 19.2655306149,
			"0.001": 15.2455136954,
			"0.002": 10.2708927026,
			"0.003": 11.1227514332,
			"0.004": 11.0180294917,
			"0.005": 11.2173873085,
			"0.006": 10.5217494903,
			"0.007": 5.07463523263,
			"0.008": 4.11778421873,
			"0.009": 4.21295044875,
			"0.01": 3.8425688832,
			"0.011": 3.98370293635,
			"0.012": 4.80970858588,
			"0.013": 5.04581586733,
			"0.014": 1.04560786281,
			"0.015": 0.0,
			"0.016": 0.0,
			"0.017": 0.0,
			"0.018": 0.0,
			"0.019": 0.0,
			"0.02": 0.0,
			"0.021": 0.0,
			"0.022": 0.0,
			"0.023": 0.0,
			"0.024": 0.0,
			"0.025": 0.0
		}
	}
}
