{
	 "smiles": "ClCC1=COC(=N1)C1=CC=C(C=C1)C#N", 
	 "Tm": 406.15, 
	 "num_atms": 22, 
	 "gaussian": { 
		 "optdone": 1, 
		 "sigma_profile": "yes", 
		 "theory": "DFT", 
		 "functional": "B3LYP", 
		 "basiset": "6-31G**", 
		 "properties": { 
			 "R2extent": 5721.7059, 
			 "electric_dipole_moment_norm": 4.94650263722, 
			 "electric_quadrupole_moment_norm": 28.0692502771, 
			 "total_energy": -1068.28631914, 
			 "HOMO_LUMO_gap": 0.1645, 
			 "cosmo_polarized_energy": -14.12, 
			 "cosmo_cavitation_energy": 30.68, 
			 "cosmo_dispersion_energy": -21.89, 
			 "cosmo_repulsion_energy": 1.72, 
			 "cosmo_total_nonelectrostatic_energy": 10.51, 
			 "SMD_solvation_energy": 5.57 
		},
		"coords": [
			{
				"x": -0.2982539093,
				"y": 4.8362059294,
				"z": -1.4866119298,
				"element": "Cl" 
			},
			{
				"x": 1.0540726893,
				"y": 3.661553239,
				"z": -1.106820571,
				"element": "C" 
			},
			{
				"x": 0.6452779311,
				"y": 2.6237242256,
				"z": -0.127917104,
				"element": "C" 
			},
			{
				"x": 0.8713743948,
				"y": 2.5750480789,
				"z": 1.214799698,
				"element": "C" 
			},
			{
				"x": 0.3108189515,
				"y": 1.4288667629,
				"z": 1.6970202676,
				"element": "O" 
			},
			{
				"x": -0.2420849301,
				"y": 0.8241124766,
				"z": 0.6018803355,
				"element": "C" 
			},
			{
				"x": -0.0675000471,
				"y": 1.4947184117,
				"z": -0.50092058,
				"element": "N" 
			},
			{
				"x": -0.9293188931,
				"y": -0.4495733644,
				"z": 0.7828941933,
				"element": "C" 
			},
			{
				"x": -1.511564739,
				"y": -1.0746641014,
				"z": -0.3331716078,
				"element": "C" 
			},
			{
				"x": -2.1709149811,
				"y": -2.2871108054,
				"z": -0.1900737077,
				"element": "C" 
			},
			{
				"x": -2.258910703,
				"y": -2.8948738984,
				"z": 1.0757756523,
				"element": "C" 
			},
			{
				"x": -1.6783528331,
				"y": -2.2704923942,
				"z": 2.1930940606,
				"element": "C" 
			},
			{
				"x": -1.0187428517,
				"y": -1.0567242228,
				"z": 2.0460757817,
				"element": "C" 
			},
			{
				"x": -2.9386522316,
				"y": -4.1477842195,
				"z": 1.226379961,
				"element": "C" 
			},
			{
				"x": -3.4896231268,
				"y": -5.1650988769,
				"z": 1.3491039816,
				"element": "N" 
			},
			{
				"x": 1.8808135589,
				"y": 4.2647567059,
				"z": -0.7326130341,
				"element": "H" 
			},
			{
				"x": 1.3266167127,
				"y": 3.2076427458,
				"z": -2.0590476572,
				"element": "H" 
			},
			{
				"x": 1.3668073055,
				"y": 3.2150510871,
				"z": 1.9270293012,
				"element": "H" 
			},
			{
				"x": -1.4376507308,
				"y": -0.5942888433,
				"z": -1.3024255865,
				"element": "H" 
			},
			{
				"x": -2.621438326,
				"y": -2.7716146558,
				"z": -1.0495315035,
				"element": "H" 
			},
			{
				"x": -1.7489385411,
				"y": -2.7417587806,
				"z": 3.1674025863,
				"element": "H" 
			},
			{
				"x": -0.5709346999,
				"y": -0.5747955003,
				"z": 2.9078774624,
				"element": "H" 
			}
		],
		 "valence_orbital": [ 
			{
				"type": "occ",
				"energy": -0.30619,
				"method": "rhf"
			},
			{
				"type": "occ",
				"energy": -0.30104,
				"method": "rhf"
			},
			{
				"type": "occ",
				"energy": -0.29485,
				"method": "rhf"
			},
			{
				"type": "occ",
				"energy": -0.28508,
				"method": "rhf"
			},
			{
				"type": "occ",
				"energy": -0.24595,
				"method": "rhf"
			},
			{
				"type": "unocc",
				"energy": -0.08145,
				"method": "rhf"
			},
			{
				"type": "unocc",
				"energy": -0.03355,
				"method": "rhf"
			},
			{
				"type": "unocc",
				"energy": -0.02406,
				"method": "rhf"
			},
			{
				"type": "unocc",
				"energy": 0.00947,
				"method": "rhf"
			},
			{
				"type": "unocc",
				"energy": 0.03143,
				"method": "rhf"
			}
		],
		"cosmo_sigma_profile": { 
			"-0.025": 0.0,
			"-0.024": 0.0,
			"-0.023": 0.0,
			"-0.022": 0.0,
			"-0.021": 0.0,
			"-0.02": 0.0,
			"-0.019": 0.0,
			"-0.018": 0.0,
			"-0.017": 0.0,
			"-0.016": 0.0,
			"-0.015": 0.0,
			"-0.014": 0.0,
			"-0.013": 0.0,
			"-0.012": 0.0,
			"-0.011": 1.33802129135,
			"-0.01": 2.29626766647,
			"-0.009": 4.90952693755,
			"-0.008": 10.8725850383,
			"-0.007": 12.8442087047,
			"-0.006": 12.3315449386,
			"-0.005": 11.6753772062,
			"-0.004": 10.3682348617,
			"-0.003": 13.0810988148,
			"-0.002": 18.0687454542,
			"-0.001": 19.7703393536,
			"0.0": 23.0198752103,
			"0.001": 24.0542206418,
			"0.002": 13.4839503945,
			"0.003": 9.42694282111,
			"0.004": 9.28496934708,
			"0.005": 10.2984756465,
			"0.006": 14.7072320899,
			"0.007": 8.12290543145,
			"0.008": 4.48111780618,
			"0.009": 4.14440034341,
			"0.01": 4.15085051057,
			"0.011": 3.7338222847,
			"0.012": 3.2468416443,
			"0.013": 1.3105365243,
			"0.014": 0.0045752613663,
			"0.015": 0.0,
			"0.016": 0.0,
			"0.017": 0.0,
			"0.018": 0.0,
			"0.019": 0.0,
			"0.02": 0.0,
			"0.021": 0.0,
			"0.022": 0.0,
			"0.023": 0.0,
			"0.024": 0.0,
			"0.025": 0.0
		}
	}
}
