{
	 "smiles": "CCC(C)N1C(S)=NN=C1C1=CC=CC=C1", 
	 "Tm": 440.15, 
	 "num_atms": 31, 
	 "gaussian": { 
		 "optdone": 1, 
		 "sigma_profile": "yes", 
		 "theory": "DFT", 
		 "functional": "B3LYP", 
		 "basiset": "6-31G**", 
		 "properties": { 
			 "R2extent": 4919.7491, 
			 "electric_dipole_moment_norm": 5.05129370459, 
			 "electric_quadrupole_moment_norm": 14.9121454644, 
			 "total_energy": -1028.74347161, 
			 "HOMO_LUMO_gap": 0.19514, 
			 "cosmo_polarized_energy": -15.54, 
			 "cosmo_cavitation_energy": 34.87, 
			 "cosmo_dispersion_energy": -24.61, 
			 "cosmo_repulsion_energy": 1.88, 
			 "cosmo_total_nonelectrostatic_energy": 12.15, 
			 "SMD_solvation_energy": 3.53 
		},
		"coords": [
			{
				"x": -0.7472063557,
				"y": 1.5972895195,
				"z": -3.8740838799,
				"element": "C" 
			},
			{
				"x": -1.1422227975,
				"y": 1.5254037392,
				"z": -2.3945114333,
				"element": "C" 
			},
			{
				"x": -1.2401837622,
				"y": 0.0828035006,
				"z": -1.8594144737,
				"element": "C" 
			},
			{
				"x": 0.0963468642,
				"y": -0.6651809269,
				"z": -1.8093112927,
				"element": "C" 
			},
			{
				"x": -1.9600048146,
				"y": 0.029391082,
				"z": -0.5623900403,
				"element": "N" 
			},
			{
				"x": -3.2939450151,
				"y": -0.2805908833,
				"z": -0.4367281402,
				"element": "C" 
			},
			{
				"x": -4.3819624853,
				"y": -0.4722455859,
				"z": -1.8214015827,
				"element": "S" 
			},
			{
				"x": -3.6503888452,
				"y": -0.4139525011,
				"z": 0.8179987578,
				"element": "N" 
			},
			{
				"x": -2.5215068908,
				"y": -0.190920167,
				"z": 1.5729408744,
				"element": "N" 
			},
			{
				"x": -1.5230015831,
				"y": 0.0813827935,
				"z": 0.7585528472,
				"element": "C" 
			},
			{
				"x": -0.1676551188,
				"y": 0.3876271107,
				"z": 1.2583881517,
				"element": "C" 
			},
			{
				"x": 0.4116649334,
				"y": -0.4887841126,
				"z": 2.1896281697,
				"element": "C" 
			},
			{
				"x": 1.6652376228,
				"y": -0.2142864397,
				"z": 2.7338941111,
				"element": "C" 
			},
			{
				"x": 2.3564892556,
				"y": 0.9400371115,
				"z": 2.3601225502,
				"element": "C" 
			},
			{
				"x": 1.7789496871,
				"y": 1.8281859085,
				"z": 1.4506335306,
				"element": "C" 
			},
			{
				"x": 0.5221125854,
				"y": 1.5589004641,
				"z": 0.9089630015,
				"element": "C" 
			},
			{
				"x": -0.7621547191,
				"y": 2.6339244425,
				"z": -4.223273178,
				"element": "H" 
			},
			{
				"x": -1.44368092,
				"y": 1.0279157455,
				"z": -4.5000431832,
				"element": "H" 
			},
			{
				"x": 0.2595421404,
				"y": 1.2066166201,
				"z": -4.0508573873,
				"element": "H" 
			},
			{
				"x": -2.1160724622,
				"y": 2.0083433673,
				"z": -2.2546285656,
				"element": "H" 
			},
			{
				"x": -0.4209393425,
				"y": 2.0892457258,
				"z": -1.7936207091,
				"element": "H" 
			},
			{
				"x": -1.8896259667,
				"y": -0.4739966304,
				"z": -2.5452281273,
				"element": "H" 
			},
			{
				"x": 0.846173812,
				"y": -0.1316148815,
				"z": -1.2226728498,
				"element": "H" 
			},
			{
				"x": 0.4803598442,
				"y": -0.7858082916,
				"z": -2.8255890338,
				"element": "H" 
			},
			{
				"x": -0.034562592,
				"y": -1.6620793722,
				"z": -1.3797980887,
				"element": "H" 
			},
			{
				"x": -5.3939648463,
				"y": -0.8943734663,
				"z": -1.0402537709,
				"element": "H" 
			},
			{
				"x": -0.1354640435,
				"y": -1.3789576292,
				"z": 2.4811503957,
				"element": "H" 
			},
			{
				"x": 2.1026683815,
				"y": -0.9032966057,
				"z": 3.4505352464,
				"element": "H" 
			},
			{
				"x": 3.3344922099,
				"y": 1.1517825137,
				"z": 2.7823951132,
				"element": "H" 
			},
			{
				"x": 2.2996550689,
				"y": 2.7402390604,
				"z": 1.1734501128,
				"element": "H" 
			},
			{
				"x": 0.060850155,
				"y": 2.2760987888,
				"z": 0.2385528743,
				"element": "H" 
			}
		],
		 "valence_orbital": [ 
			{
				"type": "occ",
				"energy": -0.28352,
				"method": "rhf"
			},
			{
				"type": "occ",
				"energy": -0.26325,
				"method": "rhf"
			},
			{
				"type": "occ",
				"energy": -0.25858,
				"method": "rhf"
			},
			{
				"type": "occ",
				"energy": -0.24778,
				"method": "rhf"
			},
			{
				"type": "occ",
				"energy": -0.22058,
				"method": "rhf"
			},
			{
				"type": "unocc",
				"energy": -0.02544,
				"method": "rhf"
			},
			{
				"type": "unocc",
				"energy": -0.01007,
				"method": "rhf"
			},
			{
				"type": "unocc",
				"energy": 0.00644,
				"method": "rhf"
			},
			{
				"type": "unocc",
				"energy": 0.03062,
				"method": "rhf"
			},
			{
				"type": "unocc",
				"energy": 0.05297,
				"method": "rhf"
			}
		],
		"cosmo_sigma_profile": { 
			"-0.025": 0.0,
			"-0.024": 0.0,
			"-0.023": 0.0,
			"-0.022": 0.0,
			"-0.021": 0.0,
			"-0.02": 0.0,
			"-0.019": 0.0,
			"-0.018": 0.0,
			"-0.017": 0.0,
			"-0.016": 0.0,
			"-0.015": 0.0,
			"-0.014": 0.0,
			"-0.013": 0.150660670933,
			"-0.012": 1.00405612677,
			"-0.011": 1.37986386576,
			"-0.01": 1.15901136916,
			"-0.009": 1.21437916697,
			"-0.008": 1.44541638293,
			"-0.007": 2.18809180206,
			"-0.006": 11.820619572,
			"-0.005": 17.667868745,
			"-0.004": 28.0846150371,
			"-0.003": 29.4184027691,
			"-0.002": 29.3523409512,
			"-0.001": 28.5365920578,
			"0.0": 24.4792303071,
			"0.001": 19.1079408271,
			"0.002": 14.6488631388,
			"0.003": 12.6884296454,
			"0.004": 14.7975417696,
			"0.005": 9.86850590393,
			"0.006": 4.62706358177,
			"0.007": 2.93215420767,
			"0.008": 2.52741683527,
			"0.009": 1.49764893946,
			"0.01": 1.50134174191,
			"0.011": 2.32111392228,
			"0.012": 2.92956335655,
			"0.013": 2.99494943754,
			"0.014": 3.66679184504,
			"0.015": 2.23899708388,
			"0.016": 2.17350340847,
			"0.017": 0.679857748547,
			"0.018": 0.0,
			"0.019": 0.0,
			"0.02": 0.0,
			"0.021": 0.0,
			"0.022": 0.0,
			"0.023": 0.0,
			"0.024": 0.0,
			"0.025": 0.0
		}
	}
}
