{
	 "smiles": "CCC(=O)C1=CC=CO1", 
	 "Tm": 301.15, 
	 "num_atms": 17, 
	 "gaussian": { 
		 "optdone": 1, 
		 "sigma_profile": "yes", 
		 "theory": "DFT", 
		 "functional": "B3LYP", 
		 "basiset": "6-31G**", 
		 "properties": { 
			 "R2extent": 1711.5424, 
			 "electric_dipole_moment_norm": 3.7010877239, 
			 "electric_quadrupole_moment_norm": 11.1632113556, 
			 "total_energy": -421.989016366, 
			 "HOMO_LUMO_gap": 0.19145, 
			 "cosmo_polarized_energy": -10.24, 
			 "cosmo_cavitation_energy": 21.31, 
			 "cosmo_dispersion_energy": -15.58, 
			 "cosmo_repulsion_energy": 1.28, 
			 "cosmo_total_nonelectrostatic_energy": 7.01, 
			 "SMD_solvation_energy": 5.39 
		},
		"coords": [
			{
				"x": -0.1082438353,
				"y": 2.2731092882,
				"z": 1.4688133273,
				"element": "C" 
			},
			{
				"x": -0.0881056024,
				"y": 1.0868877751,
				"z": 0.5069961686,
				"element": "C" 
			},
			{
				"x": 1.1026005007,
				"y": 0.1593604278,
				"z": 0.7378766304,
				"element": "C" 
			},
			{
				"x": 1.9336872469,
				"y": 0.3689339457,
				"z": 1.6078430554,
				"element": "O" 
			},
			{
				"x": 1.1972962866,
				"y": -1.0128919214,
				"z": -0.1487011971,
				"element": "C" 
			},
			{
				"x": 0.4214300812,
				"y": -1.4795670227,
				"z": -1.1833356715,
				"element": "C" 
			},
			{
				"x": 1.0380611425,
				"y": -2.6754392044,
				"z": -1.6518402475,
				"element": "C" 
			},
			{
				"x": 2.1451369263,
				"y": -2.851158228,
				"z": -0.8693579874,
				"element": "C" 
			},
			{
				"x": 2.2571674854,
				"y": -1.8598701531,
				"z": 0.0414582083,
				"element": "O" 
			},
			{
				"x": 0.7986260173,
				"y": 2.874333186,
				"z": 1.3659631347,
				"element": "H" 
			},
			{
				"x": -0.1552438014,
				"y": 1.9333564763,
				"z": 2.5065113038,
				"element": "H" 
			},
			{
				"x": -0.9739141594,
				"y": 2.9122446628,
				"z": 1.2721251331,
				"element": "H" 
			},
			{
				"x": -0.0598553238,
				"y": 1.4288816273,
				"z": -0.5365882354,
				"element": "H" 
			},
			{
				"x": -1.0082780804,
				"y": 0.493584917,
				"z": 0.5970841015,
				"element": "H" 
			},
			{
				"x": -0.48095124,
				"y": -1.0215935527,
				"z": -1.5620826087,
				"element": "H" 
			},
			{
				"x": 0.7079674774,
				"y": -3.3163304849,
				"z": -2.4563792437,
				"element": "H" 
			},
			{
				"x": 2.9175188785,
				"y": -3.605041739,
				"z": -0.8434858717,
				"element": "H" 
			}
		],
		 "valence_orbital": [ 
			{
				"type": "occ",
				"energy": -0.36142,
				"method": "rhf"
			},
			{
				"type": "occ",
				"energy": -0.3424,
				"method": "rhf"
			},
			{
				"type": "occ",
				"energy": -0.29263,
				"method": "rhf"
			},
			{
				"type": "occ",
				"energy": -0.24753,
				"method": "rhf"
			},
			{
				"type": "occ",
				"energy": -0.2418,
				"method": "rhf"
			},
			{
				"type": "unocc",
				"energy": -0.05035,
				"method": "rhf"
			},
			{
				"type": "unocc",
				"energy": 0.03437,
				"method": "rhf"
			},
			{
				"type": "unocc",
				"energy": 0.09195,
				"method": "rhf"
			},
			{
				"type": "unocc",
				"energy": 0.09251,
				"method": "rhf"
			},
			{
				"type": "unocc",
				"energy": 0.11455,
				"method": "rhf"
			}
		],
		"cosmo_sigma_profile": { 
			"-0.025": 0.0,
			"-0.024": 0.0,
			"-0.023": 0.0,
			"-0.022": 0.0,
			"-0.021": 0.0,
			"-0.02": 0.0,
			"-0.019": 0.0,
			"-0.018": 0.0,
			"-0.017": 0.0,
			"-0.016": 0.0,
			"-0.015": 0.0,
			"-0.014": 0.0,
			"-0.013": 0.0,
			"-0.012": 0.0,
			"-0.011": 0.0,
			"-0.01": 0.832182268572,
			"-0.009": 2.17131087768,
			"-0.008": 4.46443624344,
			"-0.007": 4.71968850481,
			"-0.006": 7.93350150435,
			"-0.005": 12.9466992829,
			"-0.004": 10.5283451177,
			"-0.003": 14.8551264963,
			"-0.002": 15.1277855916,
			"-0.001": 15.3794377758,
			"0.0": 13.098747196,
			"0.001": 16.1947864683,
			"0.002": 10.262846554,
			"0.003": 8.86689508388,
			"0.004": 5.13450039193,
			"0.005": 2.40633952271,
			"0.006": 2.85097050167,
			"0.007": 2.19437229312,
			"0.008": 2.02345061879,
			"0.009": 2.37980335803,
			"0.01": 2.62012828604,
			"0.011": 3.2423576687,
			"0.012": 5.01928154679,
			"0.013": 3.52075841815,
			"0.014": 0.626143567722,
			"0.015": 0.0,
			"0.016": 0.0,
			"0.017": 0.0,
			"0.018": 0.0,
			"0.019": 0.0,
			"0.02": 0.0,
			"0.021": 0.0,
			"0.022": 0.0,
			"0.023": 0.0,
			"0.024": 0.0,
			"0.025": 0.0
		}
	}
}
