{
	 "smiles": "CC(O)(C(O)=O)C1=CC=C(Cl)C=C1", 
	 "Tm": 403.15, 
	 "num_atms": 22, 
	 "gaussian": { 
		 "optdone": 1, 
		 "sigma_profile": "yes", 
		 "theory": "DFT", 
		 "functional": "B3LYP", 
		 "basiset": "6-31G**", 
		 "properties": { 
			 "R2extent": 3382.0469, 
			 "electric_dipole_moment_norm": 2.40370827265, 
			 "electric_quadrupole_moment_norm": 12.4259502643, 
			 "total_energy": -1034.25337745, 
			 "HOMO_LUMO_gap": 0.21595, 
			 "cosmo_polarized_energy": -13.04, 
			 "cosmo_cavitation_energy": 27.4, 
			 "cosmo_dispersion_energy": -20.0, 
			 "cosmo_repulsion_energy": 1.58, 
			 "cosmo_total_nonelectrostatic_energy": 8.98, 
			 "SMD_solvation_energy": 5.56 
		},
		"coords": [
			{
				"x": -0.4306782747,
				"y": -0.2436030274,
				"z": -2.3459539316,
				"element": "C" 
			},
			{
				"x": -1.1076228806,
				"y": -0.3029573322,
				"z": -0.9581427995,
				"element": "C" 
			},
			{
				"x": -2.2373930015,
				"y": 0.5439670603,
				"z": -0.9546120872,
				"element": "O" 
			},
			{
				"x": -1.6319913997,
				"y": -1.7544953992,
				"z": -0.7602346537,
				"element": "C" 
			},
			{
				"x": -0.7514774546,
				"y": -2.6969041949,
				"z": -0.3906784288,
				"element": "O" 
			},
			{
				"x": -2.7888364145,
				"y": -2.0262359696,
				"z": -0.9930972613,
				"element": "O" 
			},
			{
				"x": -0.1793800888,
				"y": 0.0923214197,
				"z": 0.1926481993,
				"element": "C" 
			},
			{
				"x": -0.7298234999,
				"y": 0.6610778969,
				"z": 1.3503569962,
				"element": "C" 
			},
			{
				"x": 0.0703085728,
				"y": 0.9838599116,
				"z": 2.4428574267,
				"element": "C" 
			},
			{
				"x": 1.4425533207,
				"y": 0.7330485825,
				"z": 2.3852195032,
				"element": "C" 
			},
			{
				"x": 2.456102748,
				"y": 1.1356633089,
				"z": 3.760540507,
				"element": "Cl" 
			},
			{
				"x": 2.0184045055,
				"y": 0.1752464687,
				"z": 1.2471978004,
				"element": "C" 
			},
			{
				"x": 1.2040036259,
				"y": -0.1386324725,
				"z": 0.1554304176,
				"element": "C" 
			},
			{
				"x": -1.1780994536,
				"y": -0.4774570789,
				"z": -3.1081253247,
				"element": "H" 
			},
			{
				"x": -0.0570008661,
				"y": 0.768018847,
				"z": -2.5213734569,
				"element": "H" 
			},
			{
				"x": 0.3942156811,
				"y": -0.9538606004,
				"z": -2.4527862792,
				"element": "H" 
			},
			{
				"x": -2.9939155868,
				"y": -0.0431983011,
				"z": -1.1355137456,
				"element": "H" 
			},
			{
				"x": 0.0768835534,
				"y": -2.2760545119,
				"z": -0.1060515191,
				"element": "H" 
			},
			{
				"x": -1.7938902243,
				"y": 0.8648122417,
				"z": 1.3743389809,
				"element": "H" 
			},
			{
				"x": -0.3627207382,
				"y": 1.4276707027,
				"z": 3.3325837806,
				"element": "H" 
			},
			{
				"x": 3.0875722841,
				"y": -0.0007522298,
				"z": 1.2068564846,
				"element": "H" 
			},
			{
				"x": 1.6755855917,
				"y": -0.5383353221,
				"z": -0.737460609,
				"element": "H" 
			}
		],
		 "valence_orbital": [ 
			{
				"type": "occ",
				"energy": -0.3228,
				"method": "rhf"
			},
			{
				"type": "occ",
				"energy": -0.30026,
				"method": "rhf"
			},
			{
				"type": "occ",
				"energy": -0.28821,
				"method": "rhf"
			},
			{
				"type": "occ",
				"energy": -0.27987,
				"method": "rhf"
			},
			{
				"type": "occ",
				"energy": -0.2539,
				"method": "rhf"
			},
			{
				"type": "unocc",
				"energy": -0.03795,
				"method": "rhf"
			},
			{
				"type": "unocc",
				"energy": -0.03232,
				"method": "rhf"
			},
			{
				"type": "unocc",
				"energy": -0.0035,
				"method": "rhf"
			},
			{
				"type": "unocc",
				"energy": 0.01954,
				"method": "rhf"
			},
			{
				"type": "unocc",
				"energy": 0.06569,
				"method": "rhf"
			}
		],
		"cosmo_sigma_profile": { 
			"-0.025": 0.0,
			"-0.024": 0.0,
			"-0.023": 0.0,
			"-0.022": 0.0,
			"-0.021": 0.0,
			"-0.02": 0.0,
			"-0.019": 0.0,
			"-0.018": 0.0,
			"-0.017": 0.000926608387861,
			"-0.016": 0.103230237212,
			"-0.015": 0.906989539032,
			"-0.014": 1.30764703781,
			"-0.013": 0.924955407338,
			"-0.012": 1.43166627509,
			"-0.011": 2.03288397848,
			"-0.01": 1.3549902996,
			"-0.009": 2.22306544727,
			"-0.008": 4.52773687797,
			"-0.007": 7.22450960887,
			"-0.006": 8.77819514718,
			"-0.005": 14.2366976823,
			"-0.004": 14.0002644827,
			"-0.003": 15.6809390362,
			"-0.002": 14.8294708166,
			"-0.001": 14.4959825697,
			"0.0": 13.1232429969,
			"0.001": 16.0745621032,
			"0.002": 17.5897597617,
			"0.003": 15.8955933576,
			"0.004": 15.0939036851,
			"0.005": 7.08875116035,
			"0.006": 3.96527191481,
			"0.007": 4.60797914809,
			"0.008": 4.26875837707,
			"0.009": 6.19032352834,
			"0.01": 5.10577352159,
			"0.011": 3.62679751071,
			"0.012": 2.22511393416,
			"0.013": 1.13948762969,
			"0.014": 0.0778490091317,
			"0.015": 0.0,
			"0.016": 0.0,
			"0.017": 0.0,
			"0.018": 0.0,
			"0.019": 0.0,
			"0.02": 0.0,
			"0.021": 0.0,
			"0.022": 0.0,
			"0.023": 0.0,
			"0.024": 0.0,
			"0.025": 0.0
		}
	}
}
