{
	 "smiles": "[O-][N+](=O)C1=CC2=C(CCCC2)N=C1", 
	 "Tm": 345.15, 
	 "num_atms": 23, 
	 "gaussian": { 
		 "optdone": 1, 
		 "sigma_profile": "yes", 
		 "theory": "DFT", 
		 "functional": "B3LYP", 
		 "basiset": "6-31G**", 
		 "properties": { 
			 "R2extent": 2859.0405, 
			 "electric_dipole_moment_norm": 5.13763103872, 
			 "electric_quadrupole_moment_norm": 12.2119056985, 
			 "total_energy": -608.848459622, 
			 "HOMO_LUMO_gap": 0.17729, 
			 "cosmo_polarized_energy": -8.95, 
			 "cosmo_cavitation_energy": 26.21, 
			 "cosmo_dispersion_energy": -19.73, 
			 "cosmo_repulsion_energy": 1.56, 
			 "cosmo_total_nonelectrostatic_energy": 8.04, 
			 "SMD_solvation_energy": 4.59 
		},
		"coords": [
			{
				"x": 3.396719758,
				"y": 2.7330614377,
				"z": 0.8758459678,
				"element": "O" 
			},
			{
				"x": 3.1440934501,
				"y": 1.5657097539,
				"z": 0.5792033713,
				"element": "N" 
			},
			{
				"x": 3.9876991834,
				"y": 0.7027798281,
				"z": 0.3347970644,
				"element": "O" 
			},
			{
				"x": 1.7337797649,
				"y": 1.1739869346,
				"z": 0.5121755997,
				"element": "C" 
			},
			{
				"x": 1.3930581033,
				"y": -0.1326735659,
				"z": 0.184892355,
				"element": "C" 
			},
			{
				"x": 0.0432686834,
				"y": -0.4789254441,
				"z": 0.126473584,
				"element": "C" 
			},
			{
				"x": -0.9024295129,
				"y": 0.5316321364,
				"z": 0.4037449611,
				"element": "C" 
			},
			{
				"x": -2.3901740726,
				"y": 0.2619106265,
				"z": 0.3333063194,
				"element": "C" 
			},
			{
				"x": -2.7461133799,
				"y": -1.2300625258,
				"z": 0.3371774276,
				"element": "C" 
			},
			{
				"x": -1.8474560112,
				"y": -2.0012647612,
				"z": -0.6366859604,
				"element": "C" 
			},
			{
				"x": -0.3790535047,
				"y": -1.8986667494,
				"z": -0.2034861532,
				"element": "C" 
			},
			{
				"x": -0.5550821314,
				"y": 1.7938482534,
				"z": 0.7183816933,
				"element": "N" 
			},
			{
				"x": 0.7358727332,
				"y": 2.113417449,
				"z": 0.7737670855,
				"element": "C" 
			},
			{
				"x": 2.1770087232,
				"y": -0.8538365677,
				"z": -0.0195259256,
				"element": "H" 
			},
			{
				"x": -2.8744226172,
				"y": 0.7980989451,
				"z": 1.1557523975,
				"element": "H" 
			},
			{
				"x": -2.7662316053,
				"y": 0.7309931203,
				"z": -0.5874230306,
				"element": "H" 
			},
			{
				"x": -3.8021978767,
				"y": -1.3590132515,
				"z": 0.0777893531,
				"element": "H" 
			},
			{
				"x": -2.6192504962,
				"y": -1.6394322778,
				"z": 1.3484245011,
				"element": "H" 
			},
			{
				"x": -2.1426141534,
				"y": -3.0545360692,
				"z": -0.690160257,
				"element": "H" 
			},
			{
				"x": -1.9651486831,
				"y": -1.5877377355,
				"z": -1.6471504372,
				"element": "H" 
			},
			{
				"x": -0.2229462985,
				"y": -2.5236121001,
				"z": 0.6876341393,
				"element": "H" 
			},
			{
				"x": 0.2835240573,
				"y": -2.3060315267,
				"z": -0.9759627609,
				"element": "H" 
			},
			{
				"x": 0.9991958862,
				"y": 3.1346540897,
				"z": 1.0298287047,
				"element": "H" 
			}
		],
		 "valence_orbital": [ 
			{
				"type": "occ",
				"energy": -0.31196,
				"method": "rhf"
			},
			{
				"type": "occ",
				"energy": -0.30124,
				"method": "rhf"
			},
			{
				"type": "occ",
				"energy": -0.29344,
				"method": "rhf"
			},
			{
				"type": "occ",
				"energy": -0.27032,
				"method": "rhf"
			},
			{
				"type": "occ",
				"energy": -0.2689,
				"method": "rhf"
			},
			{
				"type": "unocc",
				"energy": -0.09161,
				"method": "rhf"
			},
			{
				"type": "unocc",
				"energy": -0.04265,
				"method": "rhf"
			},
			{
				"type": "unocc",
				"energy": -0.00386,
				"method": "rhf"
			},
			{
				"type": "unocc",
				"energy": 0.07783,
				"method": "rhf"
			},
			{
				"type": "unocc",
				"energy": 0.09769,
				"method": "rhf"
			}
		],
		"cosmo_sigma_profile": { 
			"-0.025": 0.0,
			"-0.024": 0.0,
			"-0.023": 0.0,
			"-0.022": 0.0,
			"-0.021": 0.0,
			"-0.02": 0.0,
			"-0.019": 0.0,
			"-0.018": 0.0,
			"-0.017": 0.0,
			"-0.016": 0.0,
			"-0.015": 0.0,
			"-0.014": 0.0,
			"-0.013": 0.0,
			"-0.012": 0.0,
			"-0.011": 0.0,
			"-0.01": 0.0,
			"-0.009": 0.0,
			"-0.008": 1.23169350227,
			"-0.007": 3.63677312313,
			"-0.006": 4.67068460614,
			"-0.005": 8.35146838682,
			"-0.004": 17.6838194356,
			"-0.003": 29.6097097477,
			"-0.002": 32.5224523327,
			"-0.001": 30.1023817865,
			"0.0": 19.651094464,
			"0.001": 7.42673048923,
			"0.002": 4.5989155119,
			"0.003": 4.1123827938,
			"0.004": 4.33282715831,
			"0.005": 3.98834500462,
			"0.006": 4.99226479261,
			"0.007": 9.57652091876,
			"0.008": 8.56778597507,
			"0.009": 5.47051659195,
			"0.01": 3.36611327213,
			"0.011": 0.564909816659,
			"0.012": 0.620056821352,
			"0.013": 0.676792155805,
			"0.014": 1.04865700833,
			"0.015": 0.443630868584,
			"0.016": 0.105341722123,
			"0.017": 0.0,
			"0.018": 0.0,
			"0.019": 0.0,
			"0.02": 0.0,
			"0.021": 0.0,
			"0.022": 0.0,
			"0.023": 0.0,
			"0.024": 0.0,
			"0.025": 0.0
		}
	}
}
