{
	 "smiles": "NC1=C(C(=NO1)C1CCC1)C1=CC2=C(OCO2)C=C1", 
	 "Tm": 370.15, 
	 "num_atms": 33, 
	 "gaussian": { 
		 "optdone": 1, 
		 "sigma_profile": "yes", 
		 "theory": "DFT", 
		 "functional": "B3LYP", 
		 "basiset": "6-31G**", 
		 "properties": { 
			 "R2extent": 5489.9466, 
			 "electric_dipole_moment_norm": 4.25748386022, 
			 "electric_quadrupole_moment_norm": 12.9741215279, 
			 "total_energy": -877.00535466, 
			 "HOMO_LUMO_gap": 0.19488, 
			 "cosmo_polarized_energy": -15.01, 
			 "cosmo_cavitation_energy": 36.32, 
			 "cosmo_dispersion_energy": -25.66, 
			 "cosmo_repulsion_energy": 2.02, 
			 "cosmo_total_nonelectrostatic_energy": 12.68, 
			 "SMD_solvation_energy": 6.23 
		},
		"coords": [
			{
				"x": -1.1675982411,
				"y": 0.3390228296,
				"z": 3.8819928708,
				"element": "N" 
			},
			{
				"x": -1.1758589314,
				"y": 1.0370596195,
				"z": 2.6988010795,
				"element": "C" 
			},
			{
				"x": -0.7712740657,
				"y": 0.698768473,
				"z": 1.4280222249,
				"element": "C" 
			},
			{
				"x": -0.9810137159,
				"y": 1.917703919,
				"z": 0.6958544119,
				"element": "C" 
			},
			{
				"x": -1.4684791977,
				"y": 2.8776357507,
				"z": 1.4545567737,
				"element": "N" 
			},
			{
				"x": -1.5982725287,
				"y": 2.3067715415,
				"z": 2.7496959389,
				"element": "O" 
			},
			{
				"x": -0.6975929757,
				"y": 2.2534312821,
				"z": -0.7355994204,
				"element": "C" 
			},
			{
				"x": 0.7051942717,
				"y": 1.9585385899,
				"z": -1.3501815819,
				"element": "C" 
			},
			{
				"x": 0.0006477928,
				"y": 1.6439604287,
				"z": -2.6962283877,
				"element": "C" 
			},
			{
				"x": -1.3200635834,
				"y": 1.4345287617,
				"z": -1.9088832723,
				"element": "C" 
			},
			{
				"x": -0.2532442954,
				"y": -0.6290519385,
				"z": 1.0153189992,
				"element": "C" 
			},
			{
				"x": -1.0831997219,
				"y": -1.5311728124,
				"z": 0.3026368702,
				"element": "C" 
			},
			{
				"x": -0.5531821116,
				"y": -2.7603658944,
				"z": -0.0317096571,
				"element": "C" 
			},
			{
				"x": 0.7419640246,
				"y": -3.1311598891,
				"z": 0.3257052624,
				"element": "C" 
			},
			{
				"x": 0.9933240667,
				"y": -4.4106669024,
				"z": -0.106133673,
				"element": "O" 
			},
			{
				"x": -0.1448774756,
				"y": -4.7860812496,
				"z": -0.8913638542,
				"element": "C" 
			},
			{
				"x": -1.1631108865,
				"y": -3.7978273449,
				"z": -0.6961296498,
				"element": "O" 
			},
			{
				"x": 1.5681343222,
				"y": -2.283948755,
				"z": 1.0363971112,
				"element": "C" 
			},
			{
				"x": 1.0457277544,
				"y": -1.0215481222,
				"z": 1.3735928138,
				"element": "C" 
			},
			{
				"x": -1.8381469289,
				"y": 0.6582405641,
				"z": 4.5682079079,
				"element": "H" 
			},
			{
				"x": -1.1398565058,
				"y": -0.665282825,
				"z": 3.7721883322,
				"element": "H" 
			},
			{
				"x": -0.9400908672,
				"y": 3.3126080401,
				"z": -0.8664855564,
				"element": "H" 
			},
			{
				"x": 1.4395682145,
				"y": 2.768677465,
				"z": -1.3236123591,
				"element": "H" 
			},
			{
				"x": 1.1520092887,
				"y": 1.0617838152,
				"z": -0.9121467367,
				"element": "H" 
			},
			{
				"x": -0.0488427955,
				"y": 2.5254078541,
				"z": -3.343393375,
				"element": "H" 
			},
			{
				"x": 0.3794882037,
				"y": 0.8021919587,
				"z": -3.2822599923,
				"element": "H" 
			},
			{
				"x": -2.2500082726,
				"y": 1.8154471256,
				"z": -2.3408191759,
				"element": "H" 
			},
			{
				"x": -1.4582127158,
				"y": 0.3845435841,
				"z": -1.6407334317,
				"element": "H" 
			},
			{
				"x": -2.1007734254,
				"y": -1.2663785878,
				"z": 0.0392343031,
				"element": "H" 
			},
			{
				"x": -0.5134223646,
				"y": -5.7606243983,
				"z": -0.5564875668,
				"element": "H" 
			},
			{
				"x": 0.137001397,
				"y": -4.8188732053,
				"z": -1.9534651883,
				"element": "H" 
			},
			{
				"x": 2.5725995973,
				"y": -2.579334092,
				"z": 1.3178029564,
				"element": "H" 
			},
			{
				"x": 1.6677626727,
				"y": -0.321705586,
				"z": 1.9222250222,
				"element": "H" 
			}
		],
		 "valence_orbital": [ 
			{
				"type": "occ",
				"energy": -0.28837,
				"method": "rhf"
			},
			{
				"type": "occ",
				"energy": -0.26527,
				"method": "rhf"
			},
			{
				"type": "occ",
				"energy": -0.25253,
				"method": "rhf"
			},
			{
				"type": "occ",
				"energy": -0.2166,
				"method": "rhf"
			},
			{
				"type": "occ",
				"energy": -0.20615,
				"method": "rhf"
			},
			{
				"type": "unocc",
				"energy": -0.01127,
				"method": "rhf"
			},
			{
				"type": "unocc",
				"energy": -0.00063,
				"method": "rhf"
			},
			{
				"type": "unocc",
				"energy": 0.01777,
				"method": "rhf"
			},
			{
				"type": "unocc",
				"energy": 0.06747,
				"method": "rhf"
			},
			{
				"type": "unocc",
				"energy": 0.0787,
				"method": "rhf"
			}
		],
		"cosmo_sigma_profile": { 
			"-0.025": 0.0,
			"-0.024": 0.0,
			"-0.023": 0.0,
			"-0.022": 0.0,
			"-0.021": 0.0,
			"-0.02": 0.0,
			"-0.019": 0.0,
			"-0.018": 0.0,
			"-0.017": 0.0,
			"-0.016": 0.0,
			"-0.015": 0.187329591938,
			"-0.014": 1.67236974166,
			"-0.013": 1.85996863862,
			"-0.012": 2.1040487254,
			"-0.011": 2.83869973015,
			"-0.01": 1.89958067324,
			"-0.009": 2.38134127744,
			"-0.008": 4.14564504977,
			"-0.007": 10.7659470197,
			"-0.006": 12.2000067347,
			"-0.005": 11.3528180305,
			"-0.004": 12.1274248989,
			"-0.003": 19.5529880117,
			"-0.002": 22.577966339,
			"-0.001": 26.5507954197,
			"0.0": 31.2314391588,
			"0.001": 27.6979210255,
			"0.002": 25.3856846065,
			"0.003": 16.1293849469,
			"0.004": 8.78999694808,
			"0.005": 7.3052360072,
			"0.006": 5.92675109863,
			"0.007": 4.78521354907,
			"0.008": 6.8682659688,
			"0.009": 8.88625187412,
			"0.01": 4.10787584795,
			"0.011": 2.3531559183,
			"0.012": 2.05193966879,
			"0.013": 1.5245514552,
			"0.014": 1.18371977916,
			"0.015": 1.49013979748,
			"0.016": 0.450664065207,
			"0.017": 0.0,
			"0.018": 0.0,
			"0.019": 0.0,
			"0.02": 0.0,
			"0.021": 0.0,
			"0.022": 0.0,
			"0.023": 0.0,
			"0.024": 0.0,
			"0.025": 0.0
		}
	}
}
