{
	 "smiles": "C=C1CC(=O)O1", 
	 "Tm": 266.65, 
	 "num_atms": 10, 
	 "gaussian": { 
		 "optdone": 1, 
		 "sigma_profile": "yes", 
		 "theory": "DFT", 
		 "functional": "B3LYP", 
		 "basiset": "6-31G**", 
		 "properties": { 
			 "R2extent": 726.5603, 
			 "electric_dipole_moment_norm": 3.46825852554, 
			 "electric_quadrupole_moment_norm": 5.75517511897, 
			 "total_energy": -305.238201084, 
			 "HOMO_LUMO_gap": 0.25129, 
			 "cosmo_polarized_energy": -7.74, 
			 "cosmo_cavitation_energy": 14.72, 
			 "cosmo_dispersion_energy": -10.88, 
			 "cosmo_repulsion_energy": 0.96, 
			 "cosmo_total_nonelectrostatic_energy": 4.81, 
			 "SMD_solvation_energy": 4.41 
		},
		"coords": [
			{
				"x": 1.0972423076,
				"y": -1.041384208,
				"z": 1.9439516936,
				"element": "C" 
			},
			{
				"x": 0.0496237841,
				"y": -0.7817270499,
				"z": 1.1800999018,
				"element": "C" 
			},
			{
				"x": -1.0206655004,
				"y": 0.2669710669,
				"z": 0.997627989,
				"element": "C" 
			},
			{
				"x": -1.4715975194,
				"y": -0.6672993996,
				"z": -0.1291795798,
				"element": "C" 
			},
			{
				"x": -2.3199841861,
				"y": -0.7368958073,
				"z": -0.9617764303,
				"element": "O" 
			},
			{
				"x": -0.4423951547,
				"y": -1.5777202242,
				"z": 0.1205524175,
				"element": "O" 
			},
			{
				"x": 1.6854862486,
				"y": -1.939788047,
				"z": 1.7983937849,
				"element": "H" 
			},
			{
				"x": 1.3827975061,
				"y": -0.3541352349,
				"z": 2.7307785679,
				"element": "H" 
			},
			{
				"x": -0.6888336997,
				"y": 1.2529656634,
				"z": 0.6616536355,
				"element": "H" 
			},
			{
				"x": -1.743573786,
				"y": 0.3764132405,
				"z": 1.8103980198,
				"element": "H" 
			}
		],
		 "valence_orbital": [ 
			{
				"type": "occ",
				"energy": -0.4121,
				"method": "rhf"
			},
			{
				"type": "occ",
				"energy": -0.36678,
				"method": "rhf"
			},
			{
				"type": "occ",
				"energy": -0.36581,
				"method": "rhf"
			},
			{
				"type": "occ",
				"energy": -0.29254,
				"method": "rhf"
			},
			{
				"type": "occ",
				"energy": -0.25911,
				"method": "rhf"
			},
			{
				"type": "unocc",
				"energy": -0.00782,
				"method": "rhf"
			},
			{
				"type": "unocc",
				"energy": 0.00857,
				"method": "rhf"
			},
			{
				"type": "unocc",
				"energy": 0.09522,
				"method": "rhf"
			},
			{
				"type": "unocc",
				"energy": 0.10878,
				"method": "rhf"
			},
			{
				"type": "unocc",
				"energy": 0.11076,
				"method": "rhf"
			}
		],
		"cosmo_sigma_profile": { 
			"-0.025": 0.0,
			"-0.024": 0.0,
			"-0.023": 0.0,
			"-0.022": 0.0,
			"-0.021": 0.0,
			"-0.02": 0.0,
			"-0.019": 0.0,
			"-0.018": 0.0,
			"-0.017": 0.0,
			"-0.016": 0.0,
			"-0.015": 0.0,
			"-0.014": 0.0,
			"-0.013": 0.0,
			"-0.012": 0.0,
			"-0.011": 0.0,
			"-0.01": 0.0,
			"-0.009": 3.51779499125,
			"-0.008": 6.62509542429,
			"-0.007": 7.27763986609,
			"-0.006": 7.70042451057,
			"-0.005": 8.33691470971,
			"-0.004": 9.40678106618,
			"-0.003": 5.84127286162,
			"-0.002": 5.18663580157,
			"-0.001": 5.96937771206,
			"0.0": 4.66238427696,
			"0.001": 6.41404747212,
			"0.002": 4.59035208965,
			"0.003": 6.67646429541,
			"0.004": 6.64740057006,
			"0.005": 4.97956593483,
			"0.006": 3.18781487157,
			"0.007": 4.38330855671,
			"0.008": 4.1061137066,
			"0.009": 4.97117551886,
			"0.01": 6.27381245547,
			"0.011": 1.48258591742,
			"0.012": 0.0,
			"0.013": 0.0,
			"0.014": 0.0,
			"0.015": 0.0,
			"0.016": 0.0,
			"0.017": 0.0,
			"0.018": 0.0,
			"0.019": 0.0,
			"0.02": 0.0,
			"0.021": 0.0,
			"0.022": 0.0,
			"0.023": 0.0,
			"0.024": 0.0,
			"0.025": 0.0
		}
	}
}
