{
	 "smiles": "CCN(CC)S(=O)(=O)C1=CC(=CC=C1)C(=O)NC(C(C)C)C(O)=O", 
	 "Tm": 384.15, 
	 "num_atms": 48, 
	 "gaussian": { 
		 "optdone": 1, 
		 "sigma_profile": "yes", 
		 "theory": "DFT", 
		 "functional": "B3LYP", 
		 "basiset": "6-31G**", 
		 "properties": { 
			 "R2extent": 10019.0081, 
			 "electric_dipole_moment_norm": 4.66653924017, 
			 "electric_quadrupole_moment_norm": 25.2077515866, 
			 "total_energy": -1507.94059127, 
			 "HOMO_LUMO_gap": 0.19756, 
			 "cosmo_polarized_energy": -26.32, 
			 "cosmo_cavitation_energy": 50.92, 
			 "cosmo_dispersion_energy": -32.61, 
			 "cosmo_repulsion_energy": 2.47, 
			 "cosmo_total_nonelectrostatic_energy": 20.78, 
			 "SMD_solvation_energy": 8.76 
		},
		"coords": [
			{
				"x": 1.8808373211,
				"y": -3.8320851421,
				"z": -0.1179658761,
				"element": "C" 
			},
			{
				"x": 2.7401490716,
				"y": -2.5785017529,
				"z": -0.2770252817,
				"element": "C" 
			},
			{
				"x": 2.0329808123,
				"y": -1.5158008898,
				"z": -1.0253443161,
				"element": "N" 
			},
			{
				"x": 1.6733056418,
				"y": -1.801199551,
				"z": -2.4338883113,
				"element": "C" 
			},
			{
				"x": 2.8454916941,
				"y": -2.0796772033,
				"z": -3.3801624659,
				"element": "C" 
			},
			{
				"x": 2.6465886322,
				"y": 0.0392695026,
				"z": -0.7464206738,
				"element": "S" 
			},
			{
				"x": 1.9346984147,
				"y": 0.9352275934,
				"z": -1.6703760172,
				"element": "O" 
			},
			{
				"x": 4.1159212558,
				"y": 0.0500199432,
				"z": -0.6970229696,
				"element": "O" 
			},
			{
				"x": 2.0533282602,
				"y": 0.3770755156,
				"z": 0.9162950549,
				"element": "C" 
			},
			{
				"x": 0.6787530373,
				"y": 0.5221785173,
				"z": 1.1136807116,
				"element": "C" 
			},
			{
				"x": 0.1980099373,
				"y": 0.8932583585,
				"z": 2.3712100437,
				"element": "C" 
			},
			{
				"x": 1.1088166299,
				"y": 1.0636996927,
				"z": 3.4274440083,
				"element": "C" 
			},
			{
				"x": 2.4771396886,
				"y": 0.9179382166,
				"z": 3.2174787282,
				"element": "C" 
			},
			{
				"x": 2.9645667907,
				"y": 0.5847392296,
				"z": 1.9494969833,
				"element": "C" 
			},
			{
				"x": -1.2642194888,
				"y": 1.0725920829,
				"z": 2.6888602386,
				"element": "C" 
			},
			{
				"x": -1.6953816523,
				"y": 0.7629188441,
				"z": 3.79315458,
				"element": "O" 
			},
			{
				"x": -2.106020472,
				"y": 1.5698774978,
				"z": 1.7151327015,
				"element": "N" 
			},
			{
				"x": -1.7657254651,
				"y": 2.4209415371,
				"z": 0.5805919712,
				"element": "C" 
			},
			{
				"x": -2.2049592536,
				"y": 1.7862681879,
				"z": -0.7806266717,
				"element": "C" 
			},
			{
				"x": -1.5738441207,
				"y": 2.4951014191,
				"z": -1.9884366407,
				"element": "C" 
			},
			{
				"x": -3.7302702085,
				"y": 1.6752222645,
				"z": -0.9119555536,
				"element": "C" 
			},
			{
				"x": -2.4324004285,
				"y": 3.7913790061,
				"z": 0.7967881027,
				"element": "C" 
			},
			{
				"x": -1.8742743872,
				"y": 4.8414668114,
				"z": 0.1496148923,
				"element": "O" 
			},
			{
				"x": -3.4225340242,
				"y": 3.9413359467,
				"z": 1.4695498893,
				"element": "O" 
			},
			{
				"x": 0.9147363228,
				"y": -3.5867303231,
				"z": 0.332551297,
				"element": "H" 
			},
			{
				"x": 2.3951078881,
				"y": -4.5443411942,
				"z": 0.5345147612,
				"element": "H" 
			},
			{
				"x": 1.6996838068,
				"y": -4.335744322,
				"z": -1.071830899,
				"element": "H" 
			},
			{
				"x": 3.702635066,
				"y": -2.8217369417,
				"z": -0.744872441,
				"element": "H" 
			},
			{
				"x": 2.9666526573,
				"y": -2.1794881735,
				"z": 0.7158953926,
				"element": "H" 
			},
			{
				"x": 0.9914843788,
				"y": -2.6565257341,
				"z": -2.4058026702,
				"element": "H" 
			},
			{
				"x": 1.0975296556,
				"y": -0.9459518206,
				"z": -2.7904906725,
				"element": "H" 
			},
			{
				"x": 2.4639923985,
				"y": -2.2774639053,
				"z": -4.3873534109,
				"element": "H" 
			},
			{
				"x": 3.5212440479,
				"y": -1.2216785885,
				"z": -3.435962143,
				"element": "H" 
			},
			{
				"x": 3.4279584258,
				"y": -2.9528895565,
				"z": -3.0706074251,
				"element": "H" 
			},
			{
				"x": 0.0026460807,
				"y": 0.3281292009,
				"z": 0.2903074929,
				"element": "H" 
			},
			{
				"x": 0.7161443847,
				"y": 1.3123384362,
				"z": 4.4075251218,
				"element": "H" 
			},
			{
				"x": 3.1710438398,
				"y": 1.0689349843,
				"z": 4.0385586036,
				"element": "H" 
			},
			{
				"x": 4.0269028863,
				"y": 0.4886020509,
				"z": 1.7535275962,
				"element": "H" 
			},
			{
				"x": -3.0301534408,
				"y": 1.7593194819,
				"z": 2.0935726656,
				"element": "H" 
			},
			{
				"x": -0.6806821041,
				"y": 2.5575223181,
				"z": 0.5583847744,
				"element": "H" 
			},
			{
				"x": -1.8022567325,
				"y": 0.766199435,
				"z": -0.7477765944,
				"element": "H" 
			},
			{
				"x": -1.8248925682,
				"y": 1.9605671327,
				"z": -2.9095790454,
				"element": "H" 
			},
			{
				"x": -1.9493231641,
				"y": 3.5179905433,
				"z": -2.1043312059,
				"element": "H" 
			},
			{
				"x": -0.4798367695,
				"y": 2.5154711986,
				"z": -1.9178045853,
				"element": "H" 
			},
			{
				"x": -4.1682260139,
				"y": 1.1370632888,
				"z": -0.0662782526,
				"element": "H" 
			},
			{
				"x": -4.2063198774,
				"y": 2.6597245509,
				"z": -0.9680189316,
				"element": "H" 
			},
			{
				"x": -3.9883770557,
				"y": 1.1273617587,
				"z": -1.8234672521,
				"element": "H" 
			},
			{
				"x": -1.0768517996,
				"y": 4.5662805512,
				"z": -0.3253353044,
				"element": "H" 
			}
		],
		 "valence_orbital": [ 
			{
				"type": "occ",
				"energy": -0.28759,
				"method": "rhf"
			},
			{
				"type": "occ",
				"energy": -0.28139,
				"method": "rhf"
			},
			{
				"type": "occ",
				"energy": -0.26804,
				"method": "rhf"
			},
			{
				"type": "occ",
				"energy": -0.25581,
				"method": "rhf"
			},
			{
				"type": "occ",
				"energy": -0.25339,
				"method": "rhf"
			},
			{
				"type": "unocc",
				"energy": -0.05583,
				"method": "rhf"
			},
			{
				"type": "unocc",
				"energy": -0.04718,
				"method": "rhf"
			},
			{
				"type": "unocc",
				"energy": -0.00767,
				"method": "rhf"
			},
			{
				"type": "unocc",
				"energy": 0.03069,
				"method": "rhf"
			},
			{
				"type": "unocc",
				"energy": 0.04329,
				"method": "rhf"
			}
		],
		"cosmo_sigma_profile": { 
			"-0.025": 0.0,
			"-0.024": 0.0,
			"-0.023": 0.0,
			"-0.022": 0.0,
			"-0.021": 0.0,
			"-0.02": 0.0,
			"-0.019": 0.190641876676,
			"-0.018": 1.22518739168,
			"-0.017": 1.03027251607,
			"-0.016": 1.35834930332,
			"-0.015": 1.18254202995,
			"-0.014": 0.995473857001,
			"-0.013": 0.752178412891,
			"-0.012": 1.25970464825,
			"-0.011": 1.13013906075,
			"-0.01": 1.64491373225,
			"-0.009": 1.65868203484,
			"-0.008": 4.67961269438,
			"-0.007": 9.7246056288,
			"-0.006": 11.6055010213,
			"-0.005": 18.5990369456,
			"-0.004": 34.6344188974,
			"-0.003": 44.0385863218,
			"-0.002": 39.7089009685,
			"-0.001": 36.4046735318,
			"0.0": 42.0130181802,
			"0.001": 32.358496256,
			"0.002": 18.3389172209,
			"0.003": 11.1935888976,
			"0.004": 9.79011159526,
			"0.005": 7.19598163225,
			"0.006": 8.12905907804,
			"0.007": 6.1424960165,
			"0.008": 7.30199317516,
			"0.009": 9.42359326594,
			"0.01": 10.273401379,
			"0.011": 12.2003940739,
			"0.012": 7.62687829281,
			"0.013": 5.25152933328,
			"0.014": 1.0234681789,
			"0.015": 0.0,
			"0.016": 0.0,
			"0.017": 0.0,
			"0.018": 0.0,
			"0.019": 0.0,
			"0.02": 0.0,
			"0.021": 0.0,
			"0.022": 0.0,
			"0.023": 0.0,
			"0.024": 0.0,
			"0.025": 0.0
		}
	}
}
