{
	 "smiles": "CC(C)C1=CCC(C)=CC1", 
	 "Tm": 263.15, 
	 "num_atms": 26, 
	 "gaussian": { 
		 "optdone": 1, 
		 "sigma_profile": "yes", 
		 "theory": "DFT", 
		 "functional": "B3LYP", 
		 "basiset": "6-31G**", 
		 "properties": { 
			 "R2extent": 2227.6751, 
			 "electric_dipole_moment_norm": 0.0291551024694, 
			 "electric_quadrupole_moment_norm": 3.0083026244, 
			 "total_energy": -390.697815709, 
			 "HOMO_LUMO_gap": 0.24843, 
			 "cosmo_polarized_energy": -2.29, 
			 "cosmo_cavitation_energy": 26.74, 
			 "cosmo_dispersion_energy": -19.51, 
			 "cosmo_repulsion_energy": 1.6, 
			 "cosmo_total_nonelectrostatic_energy": 8.83, 
			 "SMD_solvation_energy": 4.42 
		},
		"coords": [
			{
				"x": 1.2954758141,
				"y": -1.9990009417,
				"z": -2.1201189125,
				"element": "C" 
			},
			{
				"x": 0.1835895567,
				"y": -1.2319376014,
				"z": -1.3912034654,
				"element": "C" 
			},
			{
				"x": -0.3322280325,
				"y": -0.0770320723,
				"z": -2.2779216626,
				"element": "C" 
			},
			{
				"x": 0.5673687629,
				"y": -0.7320791835,
				"z": -0.0034132389,
				"element": "C" 
			},
			{
				"x": 1.8320030683,
				"y": -0.580876939,
				"z": 0.407184179,
				"element": "C" 
			},
			{
				"x": 2.2370313412,
				"y": -0.0705773291,
				"z": 1.7642819993,
				"element": "C" 
			},
			{
				"x": 1.0803986393,
				"y": 0.2619732638,
				"z": 2.6758596292,
				"element": "C" 
			},
			{
				"x": 1.4378467377,
				"y": 0.7746943447,
				"z": 4.0457396819,
				"element": "C" 
			},
			{
				"x": -0.1846569393,
				"y": 0.1037233325,
				"z": 2.2730415193,
				"element": "C" 
			},
			{
				"x": -0.5898913772,
				"y": -0.4042166412,
				"z": 0.9167904807,
				"element": "C" 
			},
			{
				"x": 2.135714849,
				"y": -1.3440943131,
				"z": -2.3764330766,
				"element": "H" 
			},
			{
				"x": 0.9144973672,
				"y": -2.4182539573,
				"z": -3.0572091427,
				"element": "H" 
			},
			{
				"x": 1.6823381367,
				"y": -2.8217548837,
				"z": -1.5110439762,
				"element": "H" 
			},
			{
				"x": -0.6567487987,
				"y": -1.9300857372,
				"z": -1.2514714995,
				"element": "H" 
			},
			{
				"x": 0.4690745886,
				"y": 0.6458231798,
				"z": -2.4668469761,
				"element": "H" 
			},
			{
				"x": -0.681978635,
				"y": -0.4565687561,
				"z": -3.2443178595,
				"element": "H" 
			},
			{
				"x": -1.1641646526,
				"y": 0.4603952544,
				"z": -1.812910999,
				"element": "H" 
			},
			{
				"x": 2.6515136505,
				"y": -0.8354059349,
				"z": -0.2607486455,
				"element": "H" 
			},
			{
				"x": 2.8911441686,
				"y": -0.8090528825,
				"z": 2.2587501392,
				"element": "H" 
			},
			{
				"x": 2.8798814302,
				"y": 0.8191156637,
				"z": 1.6498213091,
				"element": "H" 
			},
			{
				"x": 2.0368122551,
				"y": 1.6931872517,
				"z": 3.9820450014,
				"element": "H" 
			},
			{
				"x": 0.5472804305,
				"y": 0.9916444731,
				"z": 4.6424938584,
				"element": "H" 
			},
			{
				"x": 2.0469653825,
				"y": 0.0451468339,
				"z": 4.5963328229,
				"element": "H" 
			},
			{
				"x": -0.9958171622,
				"y": 0.3523077359,
				"z": 2.9568249647,
				"element": "H" 
			},
			{
				"x": -1.2559391619,
				"y": 0.3309202503,
				"z": 0.4368015676,
				"element": "H" 
			},
			{
				"x": -1.2219114196,
				"y": -1.301594411,
				"z": 1.0313723016,
				"element": "H" 
			}
		],
		 "valence_orbital": [ 
			{
				"type": "occ",
				"energy": -0.33436,
				"method": "rhf"
			},
			{
				"type": "occ",
				"energy": -0.31691,
				"method": "rhf"
			},
			{
				"type": "occ",
				"energy": -0.2956,
				"method": "rhf"
			},
			{
				"type": "occ",
				"energy": -0.23779,
				"method": "rhf"
			},
			{
				"type": "occ",
				"energy": -0.21754,
				"method": "rhf"
			},
			{
				"type": "unocc",
				"energy": 0.03089,
				"method": "rhf"
			},
			{
				"type": "unocc",
				"energy": 0.04114,
				"method": "rhf"
			},
			{
				"type": "unocc",
				"energy": 0.08982,
				"method": "rhf"
			},
			{
				"type": "unocc",
				"energy": 0.1047,
				"method": "rhf"
			},
			{
				"type": "unocc",
				"energy": 0.11983,
				"method": "rhf"
			}
		],
		"cosmo_sigma_profile": { 
			"-0.025": 0.0,
			"-0.024": 0.0,
			"-0.023": 0.0,
			"-0.022": 0.0,
			"-0.021": 0.0,
			"-0.02": 0.0,
			"-0.019": 0.0,
			"-0.018": 0.0,
			"-0.017": 0.0,
			"-0.016": 0.0,
			"-0.015": 0.0,
			"-0.014": 0.0,
			"-0.013": 0.0,
			"-0.012": 0.0,
			"-0.011": 0.0,
			"-0.01": 0.0,
			"-0.009": 0.0,
			"-0.008": 0.0,
			"-0.007": 0.0,
			"-0.006": 0.0,
			"-0.005": 0.0,
			"-0.004": 3.47213081262,
			"-0.003": 26.0452623882,
			"-0.002": 35.2819843701,
			"-0.001": 36.3217689582,
			"0.0": 33.3683402647,
			"0.001": 27.7803848604,
			"0.002": 16.6422190837,
			"0.003": 6.18928205881,
			"0.004": 6.33058708751,
			"0.005": 6.42704014543,
			"0.006": 5.82369865352,
			"0.007": 3.43363104723,
			"0.008": 0.247899648597,
			"0.009": 0.0,
			"0.01": 0.0,
			"0.011": 0.0,
			"0.012": 0.0,
			"0.013": 0.0,
			"0.014": 0.0,
			"0.015": 0.0,
			"0.016": 0.0,
			"0.017": 0.0,
			"0.018": 0.0,
			"0.019": 0.0,
			"0.02": 0.0,
			"0.021": 0.0,
			"0.022": 0.0,
			"0.023": 0.0,
			"0.024": 0.0,
			"0.025": 0.0
		}
	}
}
