{
	 "smiles": "CCN(CC)CC1=C2C=CC=NC2=C(O)C=C1", 
	 "Tm": 334.15, 
	 "num_atms": 35, 
	 "gaussian": { 
		 "optdone": 1, 
		 "sigma_profile": "yes", 
		 "theory": "DFT", 
		 "functional": "B3LYP", 
		 "basiset": "6-31G**", 
		 "properties": { 
			 "R2extent": 5422.4103, 
			 "electric_dipole_moment_norm": 2.87642399865, 
			 "electric_quadrupole_moment_norm": 14.5382917002, 
			 "total_energy": -729.07529636, 
			 "HOMO_LUMO_gap": 0.1556, 
			 "cosmo_polarized_energy": -7.18, 
			 "cosmo_cavitation_energy": 36.21, 
			 "cosmo_dispersion_energy": -25.34, 
			 "cosmo_repulsion_energy": 1.97, 
			 "cosmo_total_nonelectrostatic_energy": 12.84, 
			 "SMD_solvation_energy": 5.06 
		},
		"coords": [
			{
				"x": 1.9650638373,
				"y": -1.5241048242,
				"z": 1.762574851,
				"element": "C" 
			},
			{
				"x": 0.5583597514,
				"y": -1.2836455439,
				"z": 2.3152712758,
				"element": "C" 
			},
			{
				"x": -0.2622428016,
				"y": -0.3917409052,
				"z": 1.4837349935,
				"element": "N" 
			},
			{
				"x": -1.7000199122,
				"y": -0.5973307485,
				"z": 1.7155501685,
				"element": "C" 
			},
			{
				"x": -2.2432369053,
				"y": -1.8524174933,
				"z": 1.0307503164,
				"element": "C" 
			},
			{
				"x": 0.1294854973,
				"y": 1.0139358183,
				"z": 1.6786884719,
				"element": "C" 
			},
			{
				"x": -0.505638408,
				"y": 1.997100563,
				"z": 0.7155417082,
				"element": "C" 
			},
			{
				"x": -0.3179067923,
				"y": 1.9010628574,
				"z": -0.7012745092,
				"element": "C" 
			},
			{
				"x": 0.3975601103,
				"y": 0.8634046055,
				"z": -1.3567939048,
				"element": "C" 
			},
			{
				"x": 0.5306788892,
				"y": 0.8835020811,
				"z": -2.7287219785,
				"element": "C" 
			},
			{
				"x": -0.0570655802,
				"y": 1.9359884301,
				"z": -3.4671483224,
				"element": "C" 
			},
			{
				"x": -0.7390057979,
				"y": 2.9152397989,
				"z": -2.9032344273,
				"element": "N" 
			},
			{
				"x": -0.8706123048,
				"y": 2.9062203721,
				"z": -1.5493015232,
				"element": "C" 
			},
			{
				"x": -1.6164652366,
				"y": 3.9953394481,
				"z": -0.9948446703,
				"element": "C" 
			},
			{
				"x": -2.1210585032,
				"y": 4.9199455992,
				"z": -1.837378112,
				"element": "O" 
			},
			{
				"x": -1.7956943982,
				"y": 4.0669430299,
				"z": 0.3697526501,
				"element": "C" 
			},
			{
				"x": -1.2362844306,
				"y": 3.0683961639,
				"z": 1.1996601176,
				"element": "C" 
			},
			{
				"x": 1.9143603306,
				"y": -1.9618778567,
				"z": 0.7607845471,
				"element": "H" 
			},
			{
				"x": 2.5102679521,
				"y": -2.217502319,
				"z": 2.4116676435,
				"element": "H" 
			},
			{
				"x": 2.5559658613,
				"y": -0.6049256968,
				"z": 1.7022105797,
				"element": "H" 
			},
			{
				"x": 0.0475208449,
				"y": -2.2488168877,
				"z": 2.374430344,
				"element": "H" 
			},
			{
				"x": 0.6225410512,
				"y": -0.9064221948,
				"z": 3.3549273861,
				"element": "H" 
			},
			{
				"x": -2.2251960553,
				"y": 0.2722978623,
				"z": 1.3109885031,
				"element": "H" 
			},
			{
				"x": -1.9300245392,
				"y": -0.6237284405,
				"z": 2.7985429895,
				"element": "H" 
			},
			{
				"x": -2.0594961204,
				"y": -1.8061130938,
				"z": -0.046614061,
				"element": "H" 
			},
			{
				"x": -3.3228711973,
				"y": -1.9335815727,
				"z": 1.1953944366,
				"element": "H" 
			},
			{
				"x": -1.7858795549,
				"y": -2.7712699492,
				"z": 1.4116107425,
				"element": "H" 
			},
			{
				"x": -0.0891095073,
				"y": 1.3501697418,
				"z": 2.7108879653,
				"element": "H" 
			},
			{
				"x": 1.2192600122,
				"y": 1.0650223436,
				"z": 1.5697305577,
				"element": "H" 
			},
			{
				"x": 0.8010997115,
				"y": 0.0490346866,
				"z": -0.7667445004,
				"element": "H" 
			},
			{
				"x": 1.0722583419,
				"y": 0.0995939035,
				"z": -3.2488603676,
				"element": "H" 
			},
			{
				"x": 0.0361747128,
				"y": 1.9647056715,
				"z": -4.5515372049,
				"element": "H" 
			},
			{
				"x": -1.8440192141,
				"y": 4.6220765116,
				"z": -2.7279373794,
				"element": "H" 
			},
			{
				"x": -2.3617664248,
				"y": 4.8891411094,
				"z": 0.7939485875,
				"element": "H" 
			},
			{
				"x": -1.3847032199,
				"y": 3.154256929,
				"z": 2.2734421251,
				"element": "H" 
			}
		],
		 "valence_orbital": [ 
			{
				"type": "occ",
				"energy": -0.28789,
				"method": "rhf"
			},
			{
				"type": "occ",
				"energy": -0.27058,
				"method": "rhf"
			},
			{
				"type": "occ",
				"energy": -0.25185,
				"method": "rhf"
			},
			{
				"type": "occ",
				"energy": -0.21541,
				"method": "rhf"
			},
			{
				"type": "occ",
				"energy": -0.20505,
				"method": "rhf"
			},
			{
				"type": "unocc",
				"energy": -0.04945,
				"method": "rhf"
			},
			{
				"type": "unocc",
				"energy": -0.01596,
				"method": "rhf"
			},
			{
				"type": "unocc",
				"energy": 0.02943,
				"method": "rhf"
			},
			{
				"type": "unocc",
				"energy": 0.08461,
				"method": "rhf"
			},
			{
				"type": "unocc",
				"energy": 0.09214,
				"method": "rhf"
			}
		],
		"cosmo_sigma_profile": { 
			"-0.025": 0.0,
			"-0.024": 0.0,
			"-0.023": 0.0,
			"-0.022": 0.0,
			"-0.021": 0.0,
			"-0.02": 0.0,
			"-0.019": 0.0,
			"-0.018": 0.0,
			"-0.017": 0.0,
			"-0.016": 0.0,
			"-0.015": 0.0,
			"-0.014": 0.0,
			"-0.013": 0.0,
			"-0.012": 0.158771233246,
			"-0.011": 0.33775435113,
			"-0.01": 0.693221184831,
			"-0.009": 0.638552388288,
			"-0.008": 0.530719133783,
			"-0.007": 2.98154136367,
			"-0.006": 7.6562655228,
			"-0.005": 11.3874463116,
			"-0.004": 15.3646934167,
			"-0.003": 23.4226729281,
			"-0.002": 29.4159526827,
			"-0.001": 41.302417636,
			"0.0": 34.812122884,
			"0.001": 33.8639228405,
			"0.002": 27.8127792983,
			"0.003": 18.1411689353,
			"0.004": 11.9777446238,
			"0.005": 6.07491586982,
			"0.006": 4.1573933427,
			"0.007": 4.1235133611,
			"0.008": 3.84395862592,
			"0.009": 2.2867353381,
			"0.01": 1.19556704434,
			"0.011": 2.45166449877,
			"0.012": 0.818869053449,
			"0.013": 0.0,
			"0.014": 0.0,
			"0.015": 0.0,
			"0.016": 0.0,
			"0.017": 0.0,
			"0.018": 0.0,
			"0.019": 0.0,
			"0.02": 0.0,
			"0.021": 0.0,
			"0.022": 0.0,
			"0.023": 0.0,
			"0.024": 0.0,
			"0.025": 0.0
		}
	}
}
