{
	 "smiles": "COC1=C(C=C(C=C1)C(O)=O)S(=O)(=O)NC(C)C", 
	 "Tm": 469.15, 
	 "num_atms": 33, 
	 "gaussian": { 
		 "optdone": 1, 
		 "sigma_profile": "yes", 
		 "theory": "DFT", 
		 "functional": "B3LYP", 
		 "basiset": "6-31G**", 
		 "properties": { 
			 "R2extent": 6000.9907, 
			 "electric_dipole_moment_norm": 5.30853523771, 
			 "electric_quadrupole_moment_norm": 27.3714126727, 
			 "total_energy": -1257.20097978, 
			 "HOMO_LUMO_gap": 0.19876, 
			 "cosmo_polarized_energy": -21.45, 
			 "cosmo_cavitation_energy": 37.71, 
			 "cosmo_dispersion_energy": -26.33, 
			 "cosmo_repulsion_energy": 2.0, 
			 "cosmo_total_nonelectrostatic_energy": 13.38, 
			 "SMD_solvation_energy": 7.52 
		},
		"coords": [
			{
				"x": 1.9259918357,
				"y": 0.8416948202,
				"z": -1.4839977201,
				"element": "C" 
			},
			{
				"x": 0.651281539,
				"y": 1.1136850563,
				"z": -0.877750366,
				"element": "O" 
			},
			{
				"x": 0.6126596344,
				"y": 1.0431430858,
				"z": 0.4855014137,
				"element": "C" 
			},
			{
				"x": -0.1191382123,
				"y": 0.0207794011,
				"z": 1.108357911,
				"element": "C" 
			},
			{
				"x": -0.2268353254,
				"y": -0.0286487601,
				"z": 2.4969359812,
				"element": "C" 
			},
			{
				"x": 0.4059016699,
				"y": 0.9360673382,
				"z": 3.2881706661,
				"element": "C" 
			},
			{
				"x": 1.1243798951,
				"y": 1.9658487768,
				"z": 2.6629222047,
				"element": "C" 
			},
			{
				"x": 1.2324586938,
				"y": 2.0167215926,
				"z": 1.2787978463,
				"element": "C" 
			},
			{
				"x": 0.3265099974,
				"y": 0.9543091453,
				"z": 4.7859484277,
				"element": "C" 
			},
			{
				"x": -0.069723639,
				"y": -0.1890276536,
				"z": 5.4003529219,
				"element": "O" 
			},
			{
				"x": 0.5987388226,
				"y": 1.9315983216,
				"z": 5.4435128506,
				"element": "O" 
			},
			{
				"x": -0.8886970994,
				"y": -1.2961968113,
				"z": 0.1506723443,
				"element": "S" 
			},
			{
				"x": 0.1292868382,
				"y": -1.8305158555,
				"z": -0.7602929541,
				"element": "O" 
			},
			{
				"x": -1.5659687516,
				"y": -2.1600230574,
				"z": 1.1275579667,
				"element": "O" 
			},
			{
				"x": -2.0972054288,
				"y": -0.5343577813,
				"z": -0.7215605691,
				"element": "N" 
			},
			{
				"x": -2.0079800427,
				"y": -0.3788800026,
				"z": -2.1938160242,
				"element": "C" 
			},
			{
				"x": -2.4114704337,
				"y": -1.6562749432,
				"z": -2.9390068201,
				"element": "C" 
			},
			{
				"x": -2.8602234596,
				"y": 0.8292403965,
				"z": -2.5931841171,
				"element": "C" 
			},
			{
				"x": 2.1853784339,
				"y": -0.2126224028,
				"z": -1.3500341823,
				"element": "H" 
			},
			{
				"x": 1.8084524259,
				"y": 1.0620309545,
				"z": -2.5457689596,
				"element": "H" 
			},
			{
				"x": 2.7104385744,
				"y": 1.4817359507,
				"z": -1.0654629441,
				"element": "H" 
			},
			{
				"x": -0.8313281754,
				"y": -0.8261149547,
				"z": 2.9186009828,
				"element": "H" 
			},
			{
				"x": 1.5838880693,
				"y": 2.7240930502,
				"z": 3.2875842198,
				"element": "H" 
			},
			{
				"x": 1.7757893773,
				"y": 2.821652349,
				"z": 0.7942939714,
				"element": "H" 
			},
			{
				"x": -0.1093732511,
				"y": -0.9234728629,
				"z": 4.7723338263,
				"element": "H" 
			},
			{
				"x": -2.9931472793,
				"y": -0.8774520651,
				"z": -0.3837278633,
				"element": "H" 
			},
			{
				"x": -0.9601282296,
				"y": -0.1548981516,
				"z": -2.4017711062,
				"element": "H" 
			},
			{
				"x": -1.7638499507,
				"y": -2.4895790555,
				"z": -2.6560675194,
				"element": "H" 
			},
			{
				"x": -3.4504879846,
				"y": -1.9283033769,
				"z": -2.716005289,
				"element": "H" 
			},
			{
				"x": -2.3317412434,
				"y": -1.5101798668,
				"z": -4.0214989746,
				"element": "H" 
			},
			{
				"x": -2.5217641019,
				"y": 1.7289143564,
				"z": -2.0734853645,
				"element": "H" 
			},
			{
				"x": -2.7932203897,
				"y": 0.9999745036,
				"z": -3.6723215343,
				"element": "H" 
			},
			{
				"x": -3.9166728085,
				"y": 0.6663585026,
				"z": -2.3485912263,
				"element": "H" 
			}
		],
		 "valence_orbital": [ 
			{
				"type": "occ",
				"energy": -0.30486,
				"method": "rhf"
			},
			{
				"type": "occ",
				"energy": -0.2923,
				"method": "rhf"
			},
			{
				"type": "occ",
				"energy": -0.2788,
				"method": "rhf"
			},
			{
				"type": "occ",
				"energy": -0.27413,
				"method": "rhf"
			},
			{
				"type": "occ",
				"energy": -0.26047,
				"method": "rhf"
			},
			{
				"type": "unocc",
				"energy": -0.06171,
				"method": "rhf"
			},
			{
				"type": "unocc",
				"energy": -0.04594,
				"method": "rhf"
			},
			{
				"type": "unocc",
				"energy": 0.03088,
				"method": "rhf"
			},
			{
				"type": "unocc",
				"energy": 0.04365,
				"method": "rhf"
			},
			{
				"type": "unocc",
				"energy": 0.05697,
				"method": "rhf"
			}
		],
		"cosmo_sigma_profile": { 
			"-0.025": 0.0,
			"-0.024": 0.0,
			"-0.023": 0.0,
			"-0.022": 0.0,
			"-0.021": 0.0,
			"-0.02": 0.237447094116,
			"-0.019": 0.642489210853,
			"-0.018": 1.1469346069,
			"-0.017": 1.00431722036,
			"-0.016": 0.67841319142,
			"-0.015": 0.460886106079,
			"-0.014": 1.49212793382,
			"-0.013": 2.08792591573,
			"-0.012": 2.16289413362,
			"-0.011": 2.14360446865,
			"-0.01": 2.30715922336,
			"-0.009": 2.38802565999,
			"-0.008": 4.55785897191,
			"-0.007": 7.7836359056,
			"-0.006": 10.6026548673,
			"-0.005": 12.0894828625,
			"-0.004": 22.1776370951,
			"-0.003": 28.9480868886,
			"-0.002": 25.0985439869,
			"-0.001": 22.4900243766,
			"0.0": 31.7212408215,
			"0.001": 24.0250251206,
			"0.002": 10.5929420569,
			"0.003": 7.95762277706,
			"0.004": 7.09114601157,
			"0.005": 8.64153010666,
			"0.006": 7.03609614226,
			"0.007": 6.60758027424,
			"0.008": 7.68043310242,
			"0.009": 7.21224134139,
			"0.01": 10.8460422856,
			"0.011": 11.4184300553,
			"0.012": 5.96423464586,
			"0.013": 1.03150071931,
			"0.014": 0.0,
			"0.015": 0.0,
			"0.016": 0.0,
			"0.017": 0.0,
			"0.018": 0.0,
			"0.019": 0.0,
			"0.02": 0.0,
			"0.021": 0.0,
			"0.022": 0.0,
			"0.023": 0.0,
			"0.024": 0.0,
			"0.025": 0.0
		}
	}
}
