{
	 "smiles": "OC1CCCCC1O", 
	 "Tm": 374.15, 
	 "num_atms": 20, 
	 "gaussian": { 
		 "optdone": 1, 
		 "sigma_profile": "yes", 
		 "theory": "DFT", 
		 "functional": "B3LYP", 
		 "basiset": "6-31G**", 
		 "properties": { 
			 "R2extent": 1038.3378, 
			 "electric_dipole_moment_norm": 2.56399059476, 
			 "electric_quadrupole_moment_norm": 6.21915426646, 
			 "total_energy": -386.310791015, 
			 "HOMO_LUMO_gap": 0.31598, 
			 "cosmo_polarized_energy": -8.41, 
			 "cosmo_cavitation_energy": 20.68, 
			 "cosmo_dispersion_energy": -15.92, 
			 "cosmo_repulsion_energy": 1.34, 
			 "cosmo_total_nonelectrostatic_energy": 6.09, 
			 "SMD_solvation_energy": 2.84 
		},
		"coords": [
			{
				"x": -1.5698067057,
				"y": 1.5912383291,
				"z": 0.9599309014,
				"element": "O" 
			},
			{
				"x": -0.4699943889,
				"y": 0.7608615182,
				"z": 0.6253498004,
				"element": "C" 
			},
			{
				"x": 0.0553477119,
				"y": 0.0988523488,
				"z": 1.9123441453,
				"element": "C" 
			},
			{
				"x": 0.7224624021,
				"y": -1.2723544005,
				"z": 1.6526070145,
				"element": "C" 
			},
			{
				"x": 1.380008033,
				"y": -1.3233532522,
				"z": 0.2648279493,
				"element": "C" 
			},
			{
				"x": 0.3337408529,
				"y": -1.1272592893,
				"z": -0.8614309136,
				"element": "C" 
			},
			{
				"x": -0.8801315212,
				"y": -0.2951537261,
				"z": -0.4012531577,
				"element": "C" 
			},
			{
				"x": -1.4855093939,
				"y": 0.4235348928,
				"z": -1.4839476573,
				"element": "O" 
			},
			{
				"x": -1.9859865233,
				"y": 1.8141500211,
				"z": 0.1134748348,
				"element": "H" 
			},
			{
				"x": 0.3301696433,
				"y": 1.3650323257,
				"z": 0.1620081356,
				"element": "H" 
			},
			{
				"x": 0.7589655583,
				"y": 0.7807676815,
				"z": 2.4016745973,
				"element": "H" 
			},
			{
				"x": -0.7971515615,
				"y": -0.0129329268,
				"z": 2.5905159247,
				"element": "H" 
			},
			{
				"x": -0.0276184454,
				"y": -2.0712222692,
				"z": 1.7196981415,
				"element": "H" 
			},
			{
				"x": 1.4606668102,
				"y": -1.48436087,
				"z": 2.4335841902,
				"element": "H" 
			},
			{
				"x": 1.9115531962,
				"y": -2.2707307935,
				"z": 0.1243902629,
				"element": "H" 
			},
			{
				"x": 2.1401786519,
				"y": -0.534479622,
				"z": 0.2041964604,
				"element": "H" 
			},
			{
				"x": 0.7860241875,
				"y": -0.6064440268,
				"z": -1.7125254585,
				"element": "H" 
			},
			{
				"x": -0.0130327296,
				"y": -2.0997366235,
				"z": -1.2327543295,
				"element": "H" 
			},
			{
				"x": -1.6347593712,
				"y": -0.9426960233,
				"z": 0.0719515193,
				"element": "H" 
			},
			{
				"x": -1.9599264068,
				"y": -0.2042132938,
				"z": -2.0423423611,
				"element": "H" 
			}
		],
		 "valence_orbital": [ 
			{
				"type": "occ",
				"energy": -0.32753,
				"method": "rhf"
			},
			{
				"type": "occ",
				"energy": -0.31192,
				"method": "rhf"
			},
			{
				"type": "occ",
				"energy": -0.29784,
				"method": "rhf"
			},
			{
				"type": "occ",
				"energy": -0.27257,
				"method": "rhf"
			},
			{
				"type": "occ",
				"energy": -0.24971,
				"method": "rhf"
			},
			{
				"type": "unocc",
				"energy": 0.06627,
				"method": "rhf"
			},
			{
				"type": "unocc",
				"energy": 0.07842,
				"method": "rhf"
			},
			{
				"type": "unocc",
				"energy": 0.10251,
				"method": "rhf"
			},
			{
				"type": "unocc",
				"energy": 0.12624,
				"method": "rhf"
			},
			{
				"type": "unocc",
				"energy": 0.14233,
				"method": "rhf"
			}
		],
		"cosmo_sigma_profile": { 
			"-0.025": 0.0,
			"-0.024": 0.0,
			"-0.023": 0.0,
			"-0.022": 0.0,
			"-0.021": 0.0,
			"-0.02": 0.0,
			"-0.019": 0.0,
			"-0.018": 0.0,
			"-0.017": 0.0,
			"-0.016": 0.377843915773,
			"-0.015": 1.14302560355,
			"-0.014": 0.866553050106,
			"-0.013": 1.07515805734,
			"-0.012": 1.12073479968,
			"-0.011": 1.08862285104,
			"-0.01": 0.891212250497,
			"-0.009": 1.55108581156,
			"-0.008": 1.19033830054,
			"-0.007": 2.00760226586,
			"-0.006": 1.78830324632,
			"-0.005": 1.45967051586,
			"-0.004": 2.85006192275,
			"-0.003": 17.5662674752,
			"-0.002": 27.8572324041,
			"-0.001": 24.0502734615,
			"0.0": 19.0536884746,
			"0.001": 17.0439146055,
			"0.002": 4.49928399284,
			"0.003": 3.49685868629,
			"0.004": 2.30903587737,
			"0.005": 3.23447033947,
			"0.006": 2.88831793799,
			"0.007": 2.47791236041,
			"0.008": 2.05758240001,
			"0.009": 2.07631194091,
			"0.01": 2.33467552117,
			"0.011": 1.44806934883,
			"0.012": 2.21189505187,
			"0.013": 2.84415055346,
			"0.014": 1.97066072296,
			"0.015": 1.41008639008,
			"0.016": 0.0145934585764,
			"0.017": 0.0,
			"0.018": 0.0,
			"0.019": 0.0,
			"0.02": 0.0,
			"0.021": 0.0,
			"0.022": 0.0,
			"0.023": 0.0,
			"0.024": 0.0,
			"0.025": 0.0
		}
	}
}
