{
	 "smiles": "CON=C(C(=O)SC1=NC2=C(S1)C=CC=C2)C1=CSC(N)=N1", 
	 "Tm": 401.15, 
	 "num_atms": 32, 
	 "gaussian": { 
		 "optdone": 1, 
		 "sigma_profile": "yes", 
		 "theory": "DFT", 
		 "functional": "B3LYP", 
		 "basiset": "6-31G**", 
		 "properties": { 
			 "R2extent": 10867.0196, 
			 "electric_dipole_moment_norm": 5.68391954992, 
			 "electric_quadrupole_moment_norm": 19.7501152764, 
			 "total_energy": -2065.33965498, 
			 "HOMO_LUMO_gap": 0.14393, 
			 "cosmo_polarized_energy": -18.2, 
			 "cosmo_cavitation_energy": 43.56, 
			 "cosmo_dispersion_energy": -30.53, 
			 "cosmo_repulsion_energy": 2.26, 
			 "cosmo_total_nonelectrostatic_energy": 15.28, 
			 "SMD_solvation_energy": 4.92 
		},
		"coords": [
			{
				"x": -2.2043822348,
				"y": 2.1307880154,
				"z": 0.0361983868,
				"element": "C" 
			},
			{
				"x": -1.8746821707,
				"y": 1.2841619885,
				"z": 1.1429873904,
				"element": "O" 
			},
			{
				"x": -0.8151038198,
				"y": 1.8136026103,
				"z": 1.8166283258,
				"element": "N" 
			},
			{
				"x": -0.4179017802,
				"y": 1.1262193668,
				"z": 2.8373180985,
				"element": "C" 
			},
			{
				"x": 0.6299800557,
				"y": 1.833711732,
				"z": 3.6473314041,
				"element": "C" 
			},
			{
				"x": 0.7091883065,
				"y": 1.7487035545,
				"z": 4.8511404469,
				"element": "O" 
			},
			{
				"x": 1.8331497238,
				"y": 2.977288288,
				"z": 2.8686101719,
				"element": "S" 
			},
			{
				"x": 1.9389211281,
				"y": 2.5297524359,
				"z": 1.1574959297,
				"element": "C" 
			},
			{
				"x": 2.2242871075,
				"y": 1.3492074113,
				"z": 0.7177648546,
				"element": "N" 
			},
			{
				"x": 2.2860647855,
				"y": 1.3383152304,
				"z": -0.6661139867,
				"element": "C" 
			},
			{
				"x": 2.0674056943,
				"y": 2.5899997788,
				"z": -1.2967739729,
				"element": "C" 
			},
			{
				"x": 1.7346987527,
				"y": 3.7989697463,
				"z": -0.0740382295,
				"element": "S" 
			},
			{
				"x": 2.133400925,
				"y": 2.7242420942,
				"z": -2.6867276682,
				"element": "C" 
			},
			{
				"x": 2.4093838743,
				"y": 1.5879906559,
				"z": -3.4426062466,
				"element": "C" 
			},
			{
				"x": 2.6222252899,
				"y": 0.340525878,
				"z": -2.8285223828,
				"element": "C" 
			},
			{
				"x": 2.5641855915,
				"y": 0.2061696347,
				"z": -1.4473932383,
				"element": "C" 
			},
			{
				"x": -0.9111530027,
				"y": -0.1835248193,
				"z": 3.3085134319,
				"element": "C" 
			},
			{
				"x": -0.9424354246,
				"y": -0.5747115486,
				"z": 4.6215743179,
				"element": "C" 
			},
			{
				"x": -1.560117904,
				"y": -2.1946736393,
				"z": 4.7494259459,
				"element": "S" 
			},
			{
				"x": -1.7340357783,
				"y": -2.2100509638,
				"z": 2.9834918153,
				"element": "C" 
			},
			{
				"x": -2.1546543227,
				"y": -3.3433993536,
				"z": 2.3245612174,
				"element": "N" 
			},
			{
				"x": -1.3651617753,
				"y": -1.1179026485,
				"z": 2.388659022,
				"element": "N" 
			},
			{
				"x": -1.3810195878,
				"y": 2.1661972491,
				"z": -0.6834298457,
				"element": "H" 
			},
			{
				"x": -3.0830131134,
				"y": 1.6725464194,
				"z": -0.4205976833,
				"element": "H" 
			},
			{
				"x": -2.4407203519,
				"y": 3.1431108049,
				"z": 0.3779584626,
				"element": "H" 
			},
			{
				"x": 1.9720418607,
				"y": 3.6842576711,
				"z": -3.1664928514,
				"element": "H" 
			},
			{
				"x": 2.4615445021,
				"y": 1.6687294938,
				"z": -4.5242861947,
				"element": "H" 
			},
			{
				"x": 2.8369021328,
				"y": -0.5275278259,
				"z": -3.4443778132,
				"element": "H" 
			},
			{
				"x": 2.7296123733,
				"y": -0.7470178508,
				"z": -0.9566536436,
				"element": "H" 
			},
			{
				"x": -0.642398365,
				"y": -0.0134283211,
				"z": 5.4911757917,
				"element": "H" 
			},
			{
				"x": -2.8220031544,
				"y": -3.9296205533,
				"z": 2.8052897579,
				"element": "H" 
			},
			{
				"x": -2.3873093183,
				"y": -3.167732535,
				"z": 1.3555889857,
				"element": "H" 
			}
		],
		 "valence_orbital": [ 
			{
				"type": "occ",
				"energy": -0.263,
				"method": "rhf"
			},
			{
				"type": "occ",
				"energy": -0.25557,
				"method": "rhf"
			},
			{
				"type": "occ",
				"energy": -0.23898,
				"method": "rhf"
			},
			{
				"type": "occ",
				"energy": -0.23441,
				"method": "rhf"
			},
			{
				"type": "occ",
				"energy": -0.21352,
				"method": "rhf"
			},
			{
				"type": "unocc",
				"energy": -0.06959,
				"method": "rhf"
			},
			{
				"type": "unocc",
				"energy": -0.04946,
				"method": "rhf"
			},
			{
				"type": "unocc",
				"energy": -0.01611,
				"method": "rhf"
			},
			{
				"type": "unocc",
				"energy": -0.01023,
				"method": "rhf"
			},
			{
				"type": "unocc",
				"energy": 0.00308,
				"method": "rhf"
			}
		],
		"cosmo_sigma_profile": { 
			"-0.025": 0.0,
			"-0.024": 0.0,
			"-0.023": 0.0,
			"-0.022": 0.0,
			"-0.021": 0.0,
			"-0.02": 0.0,
			"-0.019": 0.0,
			"-0.018": 0.0,
			"-0.017": 0.0,
			"-0.016": 0.0,
			"-0.015": 0.552189574289,
			"-0.014": 2.30236190681,
			"-0.013": 2.78783805561,
			"-0.012": 2.89345463607,
			"-0.011": 3.0223894853,
			"-0.01": 2.13127266354,
			"-0.009": 1.29952334362,
			"-0.008": 4.26826279725,
			"-0.007": 9.57612559526,
			"-0.006": 14.7354099712,
			"-0.005": 18.685384513,
			"-0.004": 21.5745744904,
			"-0.003": 22.436855701,
			"-0.002": 23.5835205958,
			"-0.001": 24.2866452873,
			"0.0": 28.9780136547,
			"0.001": 33.718246794,
			"0.002": 35.5690175828,
			"0.003": 32.7588342516,
			"0.004": 23.6250997912,
			"0.005": 11.2338329617,
			"0.006": 7.35359020535,
			"0.007": 6.20261406475,
			"0.008": 5.88101265812,
			"0.009": 5.68115171005,
			"0.01": 3.58014638817,
			"0.011": 2.13458133942,
			"0.012": 1.98862767146,
			"0.013": 1.6397437952,
			"0.014": 1.26709352623,
			"0.015": 0.875602937495,
			"0.016": 0.342115451294,
			"0.017": 0.0,
			"0.018": 0.0,
			"0.019": 0.0,
			"0.02": 0.0,
			"0.021": 0.0,
			"0.022": 0.0,
			"0.023": 0.0,
			"0.024": 0.0,
			"0.025": 0.0
		}
	}
}
