{
	 "smiles": "Cl[C@H]1[C@H](Cl)[C@@H](Cl)[C@H](Cl)[C@H](Cl)[C@H]1Cl", 
	 "Tm": 432.15, 
	 "num_atms": 18, 
	 "gaussian": { 
		 "optdone": 1, 
		 "sigma_profile": "yes", 
		 "theory": "DFT", 
		 "functional": "B3LYP", 
		 "basiset": "6-31G**", 
		 "properties": { 
			 "R2extent": 5598.3526, 
			 "electric_dipole_moment_norm": 1.54554201819, 
			 "electric_quadrupole_moment_norm": 6.44824068254, 
			 "total_energy": -2993.40489212, 
			 "HOMO_LUMO_gap": 0.26196, 
			 "cosmo_polarized_energy": -10.71, 
			 "cosmo_cavitation_energy": 29.78, 
			 "cosmo_dispersion_energy": -21.73, 
			 "cosmo_repulsion_energy": 1.72, 
			 "cosmo_total_nonelectrostatic_energy": 9.77, 
			 "SMD_solvation_energy": 2.61 
		},
		"coords": [
			{
				"x": 2.6272836581,
				"y": -2.3677075266,
				"z": 1.5824394484,
				"element": "Cl" 
			},
			{
				"x": 0.9556038934,
				"y": -1.9250336252,
				"z": 1.0012398664,
				"element": "C" 
			},
			{
				"x": 0.0062658269,
				"y": -1.7252100491,
				"z": 2.2083472263,
				"element": "C" 
			},
			{
				"x": -1.6602972685,
				"y": -2.2806309159,
				"z": 1.7302771918,
				"element": "Cl" 
			},
			{
				"x": -0.069474515,
				"y": -0.2644586932,
				"z": 2.7290545746,
				"element": "C" 
			},
			{
				"x": -0.4172752909,
				"y": -0.3045258405,
				"z": 4.5010600659,
				"element": "Cl" 
			},
			{
				"x": 1.2307267551,
				"y": 0.4826074605,
				"z": 2.3899303152,
				"element": "C" 
			},
			{
				"x": 1.3696606977,
				"y": 2.0815817678,
				"z": 3.201270024,
				"element": "Cl" 
			},
			{
				"x": 1.4018385413,
				"y": 0.6059593777,
				"z": 0.8506273813,
				"element": "C" 
			},
			{
				"x": 0.4836942856,
				"y": 1.9982739516,
				"z": 0.1364261472,
				"element": "Cl" 
			},
			{
				"x": 0.9423311019,
				"y": -0.6793413182,
				"z": 0.1223287073,
				"element": "C" 
			},
			{
				"x": 1.8578044068,
				"y": -0.9214081178,
				"z": -1.4129197517,
				"element": "Cl" 
			},
			{
				"x": 0.6293170732,
				"y": -2.7870418426,
				"z": 0.4226711585,
				"element": "H" 
			},
			{
				"x": 0.3145971524,
				"y": -2.3891903221,
				"z": 3.013481852,
				"element": "H" 
			},
			{
				"x": -0.9123299018,
				"y": 0.2588197987,
				"z": 2.2750847176,
				"element": "H" 
			},
			{
				"x": 2.0817510312,
				"y": -0.0890719368,
				"z": 2.7602446638,
				"element": "H" 
			},
			{
				"x": 2.4511246803,
				"y": 0.8076804119,
				"z": 0.6395637151,
				"element": "H" 
			},
			{
				"x": -0.0990221277,
				"y": -0.5531025801,
				"z": -0.1843273039,
				"element": "H" 
			}
		],
		 "valence_orbital": [ 
			{
				"type": "occ",
				"energy": -0.32362,
				"method": "rhf"
			},
			{
				"type": "occ",
				"energy": -0.31956,
				"method": "rhf"
			},
			{
				"type": "occ",
				"energy": -0.31664,
				"method": "rhf"
			},
			{
				"type": "occ",
				"energy": -0.3104,
				"method": "rhf"
			},
			{
				"type": "occ",
				"energy": -0.30726,
				"method": "rhf"
			},
			{
				"type": "unocc",
				"energy": -0.0453,
				"method": "rhf"
			},
			{
				"type": "unocc",
				"energy": -0.04122,
				"method": "rhf"
			},
			{
				"type": "unocc",
				"energy": -0.01471,
				"method": "rhf"
			},
			{
				"type": "unocc",
				"energy": -0.00142,
				"method": "rhf"
			},
			{
				"type": "unocc",
				"energy": 0.01046,
				"method": "rhf"
			}
		],
		"cosmo_sigma_profile": { 
			"-0.025": 0.0,
			"-0.024": 0.0,
			"-0.023": 0.0,
			"-0.022": 0.0,
			"-0.021": 0.0,
			"-0.02": 0.0,
			"-0.019": 0.0,
			"-0.018": 0.0,
			"-0.017": 0.0,
			"-0.016": 0.0,
			"-0.015": 0.0,
			"-0.014": 0.00937516565571,
			"-0.013": 0.188625020844,
			"-0.012": 0.507757853646,
			"-0.011": 0.839146897585,
			"-0.01": 4.68249846424,
			"-0.009": 8.67713070274,
			"-0.008": 11.2134184993,
			"-0.007": 8.39176038648,
			"-0.006": 7.43488666781,
			"-0.005": 7.47762220071,
			"-0.004": 7.12697798872,
			"-0.003": 7.31892617103,
			"-0.002": 14.0158160289,
			"-0.001": 13.5282118429,
			"0.0": 17.9668513586,
			"0.001": 19.1355502224,
			"0.002": 21.6720115903,
			"0.003": 29.1655752801,
			"0.004": 37.5028573996,
			"0.005": 24.3156598334,
			"0.006": 6.58872818156,
			"0.007": 0.693796140607,
			"0.008": 0.0,
			"0.009": 0.0,
			"0.01": 0.0,
			"0.011": 0.0,
			"0.012": 0.0,
			"0.013": 0.0,
			"0.014": 0.0,
			"0.015": 0.0,
			"0.016": 0.0,
			"0.017": 0.0,
			"0.018": 0.0,
			"0.019": 0.0,
			"0.02": 0.0,
			"0.021": 0.0,
			"0.022": 0.0,
			"0.023": 0.0,
			"0.024": 0.0,
			"0.025": 0.0
		}
	}
}
