{
	 "smiles": "CC1=NN(C(C)=C1CO)C1=CC=CC=C1", 
	 "Tm": 381.15, 
	 "num_atms": 29, 
	 "gaussian": { 
		 "optdone": 1, 
		 "sigma_profile": "yes", 
		 "theory": "DFT", 
		 "functional": "B3LYP", 
		 "basiset": "6-31G**", 
		 "properties": { 
			 "R2extent": 3931.3532, 
			 "electric_dipole_moment_norm": 1.10551783794, 
			 "electric_quadrupole_moment_norm": 11.6018669498, 
			 "total_energy": -650.426308895, 
			 "HOMO_LUMO_gap": 0.20157, 
			 "cosmo_polarized_energy": -11.03, 
			 "cosmo_cavitation_energy": 31.94, 
			 "cosmo_dispersion_energy": -22.92, 
			 "cosmo_repulsion_energy": 1.81, 
			 "cosmo_total_nonelectrostatic_energy": 10.83, 
			 "SMD_solvation_energy": 4.79 
		},
		"coords": [
			{
				"x": 2.859976248,
				"y": -1.0051330635,
				"z": -2.6081838913,
				"element": "C" 
			},
			{
				"x": 1.9272182841,
				"y": -0.5378744043,
				"z": -1.5310676658,
				"element": "C" 
			},
			{
				"x": 1.2416236816,
				"y": -1.4239241257,
				"z": -0.8171910186,
				"element": "N" 
			},
			{
				"x": 0.4844305467,
				"y": -0.6841164282,
				"z": 0.0463365893,
				"element": "N" 
			},
			{
				"x": 0.6975361625,
				"y": 0.6641849421,
				"z": -0.1060294939,
				"element": "C" 
			},
			{
				"x": 0.0822635931,
				"y": 1.7394849957,
				"z": 0.7350487329,
				"element": "C" 
			},
			{
				"x": 1.6260190043,
				"y": 0.7937054866,
				"z": -1.1308694752,
				"element": "C" 
			},
			{
				"x": 2.2060253938,
				"y": 2.0728910819,
				"z": -1.6596388586,
				"element": "C" 
			},
			{
				"x": 2.8220920189,
				"y": 2.8840048622,
				"z": -0.6519938469,
				"element": "O" 
			},
			{
				"x": -0.3284841312,
				"y": -1.3697680798,
				"z": 0.9896600466,
				"element": "C" 
			},
			{
				"x": -1.5956063968,
				"y": -0.8884176973,
				"z": 1.3370378675,
				"element": "C" 
			},
			{
				"x": -2.3672564611,
				"y": -1.5822709017,
				"z": 2.2704191932,
				"element": "C" 
			},
			{
				"x": -1.893565207,
				"y": -2.7633509084,
				"z": 2.8416523185,
				"element": "C" 
			},
			{
				"x": -0.6377510069,
				"y": -3.2521221214,
				"z": 2.4715362273,
				"element": "C" 
			},
			{
				"x": 0.1479563374,
				"y": -2.5603381638,
				"z": 1.553217725,
				"element": "C" 
			},
			{
				"x": 3.874658494,
				"y": -0.617155042,
				"z": -2.4626057173,
				"element": "H" 
			},
			{
				"x": 2.5280337434,
				"y": -0.6812785488,
				"z": -3.6012278169,
				"element": "H" 
			},
			{
				"x": 2.9052526669,
				"y": -2.0962793612,
				"z": -2.6035820135,
				"element": "H" 
			},
			{
				"x": -0.0383591878,
				"y": 1.4232069765,
				"z": 1.775142868,
				"element": "H" 
			},
			{
				"x": -0.9050690352,
				"y": 2.0439680744,
				"z": 0.3665241922,
				"element": "H" 
			},
			{
				"x": 0.7356589531,
				"y": 2.6138057867,
				"z": 0.7061569014,
				"element": "H" 
			},
			{
				"x": 2.9175595626,
				"y": 1.8443020584,
				"z": -2.4672474414,
				"element": "H" 
			},
			{
				"x": 1.4308865319,
				"y": 2.7135613399,
				"z": -2.0950463301,
				"element": "H" 
			},
			{
				"x": 3.4203643474,
				"y": 2.3085847594,
				"z": -0.156645797,
				"element": "H" 
			},
			{
				"x": -1.9874665896,
				"y": 0.0044830387,
				"z": 0.864784596,
				"element": "H" 
			},
			{
				"x": -3.3495696041,
				"y": -1.2027572892,
				"z": 2.536103841,
				"element": "H" 
			},
			{
				"x": -2.4998918221,
				"y": -3.3031149416,
				"z": 3.562797305,
				"element": "H" 
			},
			{
				"x": -0.2633978081,
				"y": -4.1749161495,
				"z": 2.9051201172,
				"element": "H" 
			},
			{
				"x": 1.1219616803,
				"y": -2.9273661762,
				"z": 1.2528908454,
				"element": "H" 
			}
		],
		 "valence_orbital": [ 
			{
				"type": "occ",
				"energy": -0.27805,
				"method": "rhf"
			},
			{
				"type": "occ",
				"energy": -0.26777,
				"method": "rhf"
			},
			{
				"type": "occ",
				"energy": -0.2556,
				"method": "rhf"
			},
			{
				"type": "occ",
				"energy": -0.23109,
				"method": "rhf"
			},
			{
				"type": "occ",
				"energy": -0.22012,
				"method": "rhf"
			},
			{
				"type": "unocc",
				"energy": -0.01855,
				"method": "rhf"
			},
			{
				"type": "unocc",
				"energy": -0.00669,
				"method": "rhf"
			},
			{
				"type": "unocc",
				"energy": 0.03408,
				"method": "rhf"
			},
			{
				"type": "unocc",
				"energy": 0.05062,
				"method": "rhf"
			},
			{
				"type": "unocc",
				"energy": 0.08531,
				"method": "rhf"
			}
		],
		"cosmo_sigma_profile": { 
			"-0.025": 0.0,
			"-0.024": 0.0,
			"-0.023": 0.0,
			"-0.022": 0.0,
			"-0.021": 0.0,
			"-0.02": 0.0,
			"-0.019": 0.0,
			"-0.018": 0.0,
			"-0.017": 0.0,
			"-0.016": 0.0,
			"-0.015": 0.447499355447,
			"-0.014": 0.83535484156,
			"-0.013": 0.915127119012,
			"-0.012": 0.980361678376,
			"-0.011": 0.752146542702,
			"-0.01": 0.557160154895,
			"-0.009": 0.42121741807,
			"-0.008": 0.771065220042,
			"-0.007": 2.98584414048,
			"-0.006": 9.70279085778,
			"-0.005": 15.5714339883,
			"-0.004": 25.701122611,
			"-0.003": 23.3489711538,
			"-0.002": 25.6000664568,
			"-0.001": 24.3016565541,
			"0.0": 20.7895147222,
			"0.001": 15.8387176705,
			"0.002": 13.2901327642,
			"0.003": 14.7100432166,
			"0.004": 16.388595015,
			"0.005": 13.410405226,
			"0.006": 4.34260209867,
			"0.007": 3.28666338897,
			"0.008": 2.58148599078,
			"0.009": 2.76255264617,
			"0.01": 2.33069112268,
			"0.011": 2.38507705527,
			"0.012": 1.83181550217,
			"0.013": 2.3560899019,
			"0.014": 2.56601683331,
			"0.015": 1.09589754892,
			"0.016": 0.17062423722,
			"0.017": 0.0,
			"0.018": 0.0,
			"0.019": 0.0,
			"0.02": 0.0,
			"0.021": 0.0,
			"0.022": 0.0,
			"0.023": 0.0,
			"0.024": 0.0,
			"0.025": 0.0
		}
	}
}
