{
	 "smiles": "COC1=CC=C(CCNC(=O)CC(=O)NCCC2=CC=C(OC)C=C2)C=C1", 
	 "Tm": 435.15, 
	 "num_atms": 53, 
	 "gaussian": { 
		 "optdone": 1, 
		 "sigma_profile": "yes", 
		 "theory": "DFT", 
		 "functional": "B3LYP", 
		 "basiset": "6-31G**", 
		 "properties": { 
			 "R2extent": 12165.762, 
			 "electric_dipole_moment_norm": 3.2935946229, 
			 "electric_quadrupole_moment_norm": 10.3019799878, 
			 "total_energy": -1226.3299466, 
			 "HOMO_LUMO_gap": 0.20831, 
			 "cosmo_polarized_energy": -20.97, 
			 "cosmo_cavitation_energy": 55.74, 
			 "cosmo_dispersion_energy": -34.93, 
			 "cosmo_repulsion_energy": 2.62, 
			 "cosmo_total_nonelectrostatic_energy": 23.42, 
			 "SMD_solvation_energy": 9.97 
		},
		"coords": [
			{
				"x": -2.9625357668,
				"y": 3.6804592902,
				"z": -0.657844408,
				"element": "C" 
			},
			{
				"x": -1.6759215799,
				"y": 3.197626545,
				"z": -0.3042498794,
				"element": "O" 
			},
			{
				"x": -0.8434160642,
				"y": 2.7786994037,
				"z": -1.3104611963,
				"element": "C" 
			},
			{
				"x": 0.4184101265,
				"y": 2.3235066087,
				"z": -0.9060246484,
				"element": "C" 
			},
			{
				"x": 1.3313077672,
				"y": 1.8656146324,
				"z": -1.8484303403,
				"element": "C" 
			},
			{
				"x": 1.0184538957,
				"y": 1.8486581111,
				"z": -3.2171602784,
				"element": "C" 
			},
			{
				"x": 2.0014923937,
				"y": 1.3199512254,
				"z": -4.2390331385,
				"element": "C" 
			},
			{
				"x": 1.8335259106,
				"y": -0.1761074086,
				"z": -4.5776568119,
				"element": "C" 
			},
			{
				"x": 2.0662733071,
				"y": -1.0429331171,
				"z": -3.4331648348,
				"element": "N" 
			},
			{
				"x": 1.1537325261,
				"y": -1.9562648084,
				"z": -2.9988427364,
				"element": "C" 
			},
			{
				"x": 0.1069729943,
				"y": -2.226314636,
				"z": -3.5772318571,
				"element": "O" 
			},
			{
				"x": 1.5535500775,
				"y": -2.6361656155,
				"z": -1.6788651211,
				"element": "C" 
			},
			{
				"x": 1.664264521,
				"y": -1.5885458784,
				"z": -0.5732675027,
				"element": "C" 
			},
			{
				"x": 2.6995002518,
				"y": -0.9281044299,
				"z": -0.4505631979,
				"element": "O" 
			},
			{
				"x": 0.5761139712,
				"y": -1.3823354831,
				"z": 0.2106884858,
				"element": "N" 
			},
			{
				"x": -0.7392383278,
				"y": -2.0107296144,
				"z": 0.1175020775,
				"element": "C" 
			},
			{
				"x": -1.8416165495,
				"y": -1.0630400295,
				"z": 0.6248468689,
				"element": "C" 
			},
			{
				"x": -1.6734324786,
				"y": -0.6243367898,
				"z": 2.0667004437,
				"element": "C" 
			},
			{
				"x": -1.4625402955,
				"y": 0.718257984,
				"z": 2.3941111501,
				"element": "C" 
			},
			{
				"x": -1.2987736585,
				"y": 1.1338233156,
				"z": 3.7212834362,
				"element": "C" 
			},
			{
				"x": -1.34608715,
				"y": 0.1911759608,
				"z": 4.7522558721,
				"element": "C" 
			},
			{
				"x": -1.199002527,
				"y": 0.4766184203,
				"z": 6.0790675066,
				"element": "O" 
			},
			{
				"x": -0.9723372665,
				"y": 1.8261233799,
				"z": 6.4522818727,
				"element": "C" 
			},
			{
				"x": -1.564146315,
				"y": -1.1608779911,
				"z": 4.4413647533,
				"element": "C" 
			},
			{
				"x": -1.7246127478,
				"y": -1.5548360519,
				"z": 3.1207432911,
				"element": "C" 
			},
			{
				"x": -0.2419318844,
				"y": 2.3143954261,
				"z": -3.6022176753,
				"element": "C" 
			},
			{
				"x": -1.1749881596,
				"y": 2.7769135221,
				"z": -2.6693835534,
				"element": "C" 
			},
			{
				"x": -2.8977150325,
				"y": 4.5632657098,
				"z": -1.3067036921,
				"element": "H" 
			},
			{
				"x": -3.5615624472,
				"y": 2.9104859122,
				"z": -1.1610394525,
				"element": "H" 
			},
			{
				"x": -3.4495795528,
				"y": 3.9580991911,
				"z": 0.2782243444,
				"element": "H" 
			},
			{
				"x": 0.6673754725,
				"y": 2.3408644181,
				"z": 0.1501030024,
				"element": "H" 
			},
			{
				"x": 2.2939835406,
				"y": 1.498546978,
				"z": -1.5050716331,
				"element": "H" 
			},
			{
				"x": 3.0275574228,
				"y": 1.4897280772,
				"z": -3.8872974091,
				"element": "H" 
			},
			{
				"x": 1.9047105781,
				"y": 1.8790907504,
				"z": -5.1776829673,
				"element": "H" 
			},
			{
				"x": 2.524822426,
				"y": -0.4358236713,
				"z": -5.3911277364,
				"element": "H" 
			},
			{
				"x": 0.8193234216,
				"y": -0.3876965514,
				"z": -4.9251626561,
				"element": "H" 
			},
			{
				"x": 2.8215124826,
				"y": -0.8235518421,
				"z": -2.7931747741,
				"element": "H" 
			},
			{
				"x": 0.8276788694,
				"y": -3.4223314619,
				"z": -1.4770015835,
				"element": "H" 
			},
			{
				"x": 2.5463228267,
				"y": -3.082822126,
				"z": -1.778334645,
				"element": "H" 
			},
			{
				"x": 0.7065072686,
				"y": -0.6839233556,
				"z": 0.9331780235,
				"element": "H" 
			},
			{
				"x": -0.9456837465,
				"y": -2.2586465402,
				"z": -0.9264980294,
				"element": "H" 
			},
			{
				"x": -0.7626567138,
				"y": -2.9457967118,
				"z": 0.6960476869,
				"element": "H" 
			},
			{
				"x": -1.8721148622,
				"y": -0.1830264602,
				"z": -0.0258132957,
				"element": "H" 
			},
			{
				"x": -2.7979242828,
				"y": -1.5865539804,
				"z": 0.4983363503,
				"element": "H" 
			},
			{
				"x": -1.4446391098,
				"y": 1.4670254199,
				"z": 1.6057469174,
				"element": "H" 
			},
			{
				"x": -1.1394913216,
				"y": 2.1850920075,
				"z": 3.9305293104,
				"element": "H" 
			},
			{
				"x": -0.0468429448,
				"y": 2.2188823096,
				"z": 6.0115970379,
				"element": "H" 
			},
			{
				"x": -0.8802092646,
				"y": 1.8274002833,
				"z": 7.5395144358,
				"element": "H" 
			},
			{
				"x": -1.8094421448,
				"y": 2.4738896792,
				"z": 6.1609376821,
				"element": "H" 
			},
			{
				"x": -1.6058755008,
				"y": -1.8784238225,
				"z": 5.2544614435,
				"element": "H" 
			},
			{
				"x": -1.8983855053,
				"y": -2.6063354045,
				"z": 2.9035968147,
				"element": "H" 
			},
			{
				"x": -0.5120483425,
				"y": 2.3193226584,
				"z": -4.6558447088,
				"element": "H" 
			},
			{
				"x": -2.1409405085,
				"y": 3.1288065618,
				"z": -3.0119690444,
				"element": "H" 
			}
		],
		 "valence_orbital": [ 
			{
				"type": "occ",
				"energy": -0.24853,
				"method": "rhf"
			},
			{
				"type": "occ",
				"energy": -0.24308,
				"method": "rhf"
			},
			{
				"type": "occ",
				"energy": -0.23798,
				"method": "rhf"
			},
			{
				"type": "occ",
				"energy": -0.21706,
				"method": "rhf"
			},
			{
				"type": "occ",
				"energy": -0.21394,
				"method": "rhf"
			},
			{
				"type": "unocc",
				"energy": -0.00563,
				"method": "rhf"
			},
			{
				"type": "unocc",
				"energy": 0.00041,
				"method": "rhf"
			},
			{
				"type": "unocc",
				"energy": 0.0065,
				"method": "rhf"
			},
			{
				"type": "unocc",
				"energy": 0.01157,
				"method": "rhf"
			},
			{
				"type": "unocc",
				"energy": 0.01474,
				"method": "rhf"
			}
		],
		"cosmo_sigma_profile": { 
			"-0.025": 0.0,
			"-0.024": 0.0,
			"-0.023": 0.0,
			"-0.022": 0.0,
			"-0.021": 0.0,
			"-0.02": 0.0,
			"-0.019": 0.0,
			"-0.018": 0.0,
			"-0.017": 0.0,
			"-0.016": 0.0,
			"-0.015": 0.0,
			"-0.014": 0.0,
			"-0.013": 0.0,
			"-0.012": 0.0,
			"-0.011": 0.105203548528,
			"-0.01": 0.834854469643,
			"-0.009": 1.80754108818,
			"-0.008": 1.72005254859,
			"-0.007": 3.91217000053,
			"-0.006": 18.4300210849,
			"-0.005": 41.7194266183,
			"-0.004": 52.7682602647,
			"-0.003": 51.8176623887,
			"-0.002": 37.7242565555,
			"-0.001": 32.9173351516,
			"0.0": 26.2912026772,
			"0.001": 23.4121921389,
			"0.002": 23.7034352744,
			"0.003": 21.3092078438,
			"0.004": 24.1647656328,
			"0.005": 22.6374680192,
			"0.006": 15.7426016798,
			"0.007": 5.00023346848,
			"0.008": 4.7738530864,
			"0.009": 3.75640649051,
			"0.01": 4.24686339592,
			"0.011": 3.8267543223,
			"0.012": 3.28521285959,
			"0.013": 6.76042329118,
			"0.014": 6.38289413126,
			"0.015": 0.562068780116,
			"0.016": 0.0,
			"0.017": 0.0,
			"0.018": 0.0,
			"0.019": 0.0,
			"0.02": 0.0,
			"0.021": 0.0,
			"0.022": 0.0,
			"0.023": 0.0,
			"0.024": 0.0,
			"0.0": 0.0
		}
	}
}
