{
	 "smiles": "CCCC1=CC(=O)N2N=C(Br)SC2=N1", 
	 "Tm": 349.15, 
	 "num_atms": 22, 
	 "gaussian": { 
		 "optdone": 1, 
		 "sigma_profile": "yes", 
		 "theory": "DFT", 
		 "functional": "B3LYP", 
		 "basiset": "6-31G**", 
		 "properties": { 
			 "R2extent": 6879.6721, 
			 "electric_dipole_moment_norm": 3.50282584637, 
			 "electric_quadrupole_moment_norm": 17.3250855037, 
			 "total_energy": -3518.71304221, 
			 "HOMO_LUMO_gap": 0.17114, 
			 "cosmo_polarized_energy": -11.89, 
			 "cosmo_cavitation_energy": 30.58, 
			 "cosmo_dispersion_energy": -23.04, 
			 "cosmo_repulsion_energy": 1.79, 
			 "cosmo_total_nonelectrostatic_energy": 9.34, 
			 "SMD_solvation_energy": 2.48 
		},
		"coords": [
			{
				"x": 2.9368947904,
				"y": -1.6561520519,
				"z": 1.2103389192,
				"element": "C" 
			},
			{
				"x": 3.01690443,
				"y": -1.9636755735,
				"z": -0.287874704,
				"element": "C" 
			},
			{
				"x": 1.8038863471,
				"y": -2.7394501162,
				"z": -0.8554981049,
				"element": "C" 
			},
			{
				"x": 0.5147408429,
				"y": -1.9560515349,
				"z": -0.8405826229,
				"element": "C" 
			},
			{
				"x": 0.1156576329,
				"y": -1.2046794721,
				"z": -1.9175978936,
				"element": "C" 
			},
			{
				"x": -1.0968008554,
				"y": -0.4193184627,
				"z": -1.9340354501,
				"element": "C" 
			},
			{
				"x": -1.5454390876,
				"y": 0.2787787857,
				"z": -2.818805813,
				"element": "O" 
			},
			{
				"x": -1.8012212959,
				"y": -0.5583341903,
				"z": -0.6682800579,
				"element": "N" 
			},
			{
				"x": -2.9862721206,
				"y": 0.0931179434,
				"z": -0.4523331789,
				"element": "N" 
			},
			{
				"x": -3.4203315209,
				"y": -0.1785567426,
				"z": 0.7237101684,
				"element": "C" 
			},
			{
				"x": -5.0248311835,
				"y": 0.5311875267,
				"z": 1.3895299659,
				"element": "Br" 
			},
			{
				"x": -2.4416512445,
				"y": -1.2612440547,
				"z": 1.7138774735,
				"element": "S" 
			},
			{
				"x": -1.3116637851,
				"y": -1.3444720726,
				"z": 0.3530875569,
				"element": "C" 
			},
			{
				"x": -0.2169726863,
				"y": -2.0316851961,
				"z": 0.3296653486,
				"element": "N" 
			},
			{
				"x": 2.0750255311,
				"y": -1.0276840889,
				"z": 1.4509253735,
				"element": "H" 
			},
			{
				"x": 3.8393757643,
				"y": -1.1344231753,
				"z": 1.5451847372,
				"element": "H" 
			},
			{
				"x": 2.843275791,
				"y": -2.5763198182,
				"z": 1.7973185498,
				"element": "H" 
			},
			{
				"x": 3.1365671157,
				"y": -1.0318729038,
				"z": -0.8549006001,
				"element": "H" 
			},
			{
				"x": 3.9138603597,
				"y": -2.5626602606,
				"z": -0.4880498521,
				"element": "H" 
			},
			{
				"x": 1.6543139798,
				"y": -3.6557097837,
				"z": -0.273680889,
				"element": "H" 
			},
			{
				"x": 2.0259953034,
				"y": -3.032731547,
				"z": -1.8869337776,
				"element": "H" 
			},
			{
				"x": 0.7077858914,
				"y": -1.1711632106,
				"z": -2.8245651488,
				"element": "H" 
			}
		],
		 "valence_orbital": [ 
			{
				"type": "occ",
				"energy": -0.31726,
				"method": "rhf"
			},
			{
				"type": "occ",
				"energy": -0.29386,
				"method": "rhf"
			},
			{
				"type": "occ",
				"energy": -0.28634,
				"method": "rhf"
			},
			{
				"type": "occ",
				"energy": -0.26962,
				"method": "rhf"
			},
			{
				"type": "occ",
				"energy": -0.23945,
				"method": "rhf"
			},
			{
				"type": "unocc",
				"energy": -0.06831,
				"method": "rhf"
			},
			{
				"type": "unocc",
				"energy": -0.04504,
				"method": "rhf"
			},
			{
				"type": "unocc",
				"energy": -0.0306,
				"method": "rhf"
			},
			{
				"type": "unocc",
				"energy": -0.02147,
				"method": "rhf"
			},
			{
				"type": "unocc",
				"energy": -0.0109,
				"method": "rhf"
			}
		],
		"cosmo_sigma_profile": { 
			"-0.025": 0.0,
			"-0.024": 0.0,
			"-0.023": 0.0,
			"-0.022": 0.0,
			"-0.021": 0.0,
			"-0.02": 0.0,
			"-0.019": 0.0,
			"-0.018": 0.0,
			"-0.017": 0.0,
			"-0.016": 0.0,
			"-0.015": 0.0,
			"-0.014": 0.0,
			"-0.013": 0.0,
			"-0.012": 0.0,
			"-0.011": 0.0,
			"-0.01": 0.0,
			"-0.009": 0.191377822937,
			"-0.008": 2.60366569529,
			"-0.007": 5.04395430298,
			"-0.006": 8.14198215787,
			"-0.005": 14.3091782226,
			"-0.004": 17.209713393,
			"-0.003": 24.6562551241,
			"-0.002": 33.2465825414,
			"-0.001": 33.05024172,
			"0.0": 29.1789265844,
			"0.001": 26.4476686974,
			"0.002": 13.5115301124,
			"0.003": 3.9358337229,
			"0.004": 4.4539285723,
			"0.005": 2.3027917845,
			"0.006": 3.0847585932,
			"0.007": 3.94258691671,
			"0.008": 2.18228577646,
			"0.009": 2.51968218673,
			"0.01": 3.13351934847,
			"0.011": 3.56018609269,
			"0.012": 6.33970298768,
			"0.013": 4.87298531004,
			"0.014": 1.79054125486,
			"0.015": 0.282887016018,
			"0.016": 0.0,
			"0.017": 0.0,
			"0.018": 0.0,
			"0.019": 0.0,
			"0.02": 0.0,
			"0.021": 0.0,
			"0.022": 0.0,
			"0.023": 0.0,
			"0.024": 0.0,
			"0.025": 0.0
		}
	}
}
