{
	 "smiles": "COC1=C(NC(=O)C2=CC=C(N)C=C2)C=CC=C1", 
	 "Tm": 436.15, 
	 "num_atms": 32, 
	 "gaussian": { 
		 "optdone": 1, 
		 "sigma_profile": "yes", 
		 "theory": "DFT", 
		 "functional": "B3LYP", 
		 "basiset": "6-31G**", 
		 "properties": { 
			 "R2extent": 6482.2498, 
			 "electric_dipole_moment_norm": 5.76126652135, 
			 "electric_quadrupole_moment_norm": 20.326848051, 
			 "total_energy": -801.894609424, 
			 "HOMO_LUMO_gap": 0.17118, 
			 "cosmo_polarized_energy": -18.19, 
			 "cosmo_cavitation_energy": 35.98, 
			 "cosmo_dispersion_energy": -26.32, 
			 "cosmo_repulsion_energy": 2.01, 
			 "cosmo_total_nonelectrostatic_energy": 11.66, 
			 "SMD_solvation_energy": 7.09 
		},
		"coords": [
			{
				"x": -3.9982172187,
				"y": -0.7138647747,
				"z": -1.3480954014,
				"element": "C" 
			},
			{
				"x": -2.6192825011,
				"y": -0.3907040285,
				"z": -1.2755896082,
				"element": "O" 
			},
			{
				"x": -2.1350007051,
				"y": 0.594252592,
				"z": -2.1058271061,
				"element": "C" 
			},
			{
				"x": -0.7526666256,
				"y": 0.8672336687,
				"z": -1.9558868325,
				"element": "C" 
			},
			{
				"x": -0.0722435942,
				"y": 0.0982334142,
				"z": -0.9981292833,
				"element": "N" 
			},
			{
				"x": 1.2522793426,
				"y": 0.1689880066,
				"z": -0.6220644413,
				"element": "C" 
			},
			{
				"x": 2.0397848626,
				"y": 0.9973931814,
				"z": -1.0752687316,
				"element": "O" 
			},
			{
				"x": 1.677431048,
				"y": -0.8342516479,
				"z": 0.4040889643,
				"element": "C" 
			},
			{
				"x": 2.8738217686,
				"y": -0.5825653165,
				"z": 1.0936895639,
				"element": "C" 
			},
			{
				"x": 3.3448719705,
				"y": -1.4552031134,
				"z": 2.0627009517,
				"element": "C" 
			},
			{
				"x": 2.6364317248,
				"y": -2.6328010783,
				"z": 2.3710014012,
				"element": "C" 
			},
			{
				"x": 3.1306914896,
				"y": -3.5365090133,
				"z": 3.3021901615,
				"element": "N" 
			},
			{
				"x": 1.4477103702,
				"y": -2.9014942155,
				"z": 1.6674645938,
				"element": "C" 
			},
			{
				"x": 0.9814511306,
				"y": -2.0162102388,
				"z": 0.7029062304,
				"element": "C" 
			},
			{
				"x": -0.1650806262,
				"y": 1.8523903287,
				"z": -2.7556012519,
				"element": "C" 
			},
			{
				"x": -0.9397868259,
				"y": 2.5507943651,
				"z": -3.6867778561,
				"element": "C" 
			},
			{
				"x": -2.2962752618,
				"y": 2.2785881859,
				"z": -3.8284453551,
				"element": "C" 
			},
			{
				"x": -2.898859492,
				"y": 1.2958031579,
				"z": -3.0338817348,
				"element": "C" 
			},
			{
				"x": -4.6270114829,
				"y": 0.1514470587,
				"z": -1.1035394141,
				"element": "H" 
			},
			{
				"x": -4.2717452664,
				"y": -1.0868580162,
				"z": -2.343115338,
				"element": "H" 
			},
			{
				"x": -4.1655528451,
				"y": -1.5004857291,
				"z": -0.6105309356,
				"element": "H" 
			},
			{
				"x": -0.6726586744,
				"y": -0.5305270647,
				"z": -0.4858418489,
				"element": "H" 
			},
			{
				"x": 3.422560705,
				"y": 0.3202353566,
				"z": 0.8475978815,
				"element": "H" 
			},
			{
				"x": 4.2714150087,
				"y": -1.2361490243,
				"z": 2.587845965,
				"element": "H" 
			},
			{
				"x": 3.7862654595,
				"y": -3.1672577227,
				"z": 3.9756844304,
				"element": "H" 
			},
			{
				"x": 2.4582324163,
				"y": -4.1679224959,
				"z": 3.7129661836,
				"element": "H" 
			},
			{
				"x": 0.9003070032,
				"y": -3.8182775749,
				"z": 1.8716563113,
				"element": "H" 
			},
			{
				"x": 0.0786804151,
				"y": -2.2826303216,
				"z": 0.1594405306,
				"element": "H" 
			},
			{
				"x": 0.8883299257,
				"y": 2.0575150276,
				"z": -2.6298361663,
				"element": "H" 
			},
			{
				"x": -0.4686559724,
				"y": 3.3129175189,
				"z": -4.3000636061,
				"element": "H" 
			},
			{
				"x": -2.8970199646,
				"y": 2.8226856114,
				"z": -4.5509043812,
				"element": "H" 
			},
			{
				"x": -3.9559075845,
				"y": 1.0851339024,
				"z": -3.1461338765,
				"element": "H" 
			}
		],
		 "valence_orbital": [ 
			{
				"type": "occ",
				"energy": -0.25326,
				"method": "rhf"
			},
			{
				"type": "occ",
				"energy": -0.24132,
				"method": "rhf"
			},
			{
				"type": "occ",
				"energy": -0.22998,
				"method": "rhf"
			},
			{
				"type": "occ",
				"energy": -0.21118,
				"method": "rhf"
			},
			{
				"type": "occ",
				"energy": -0.19648,
				"method": "rhf"
			},
			{
				"type": "unocc",
				"energy": -0.0253,
				"method": "rhf"
			},
			{
				"type": "unocc",
				"energy": -0.00274,
				"method": "rhf"
			},
			{
				"type": "unocc",
				"energy": 0.01594,
				"method": "rhf"
			},
			{
				"type": "unocc",
				"energy": 0.02245,
				"method": "rhf"
			},
			{
				"type": "unocc",
				"energy": 0.07085,
				"method": "rhf"
			}
		],
		"cosmo_sigma_profile": { 
			"-0.025": 0.0,
			"-0.024": 0.0,
			"-0.023": 0.0,
			"-0.022": 0.0,
			"-0.021": 0.0,
			"-0.02": 0.0,
			"-0.019": 0.0,
			"-0.018": 0.0,
			"-0.017": 0.0,
			"-0.016": 0.0,
			"-0.015": 0.0,
			"-0.014": 0.0172838188684,
			"-0.013": 1.5802836154,
			"-0.012": 3.10415426723,
			"-0.011": 2.80536150569,
			"-0.01": 3.58623352166,
			"-0.009": 4.07408055511,
			"-0.008": 4.33283672964,
			"-0.007": 6.40035633793,
			"-0.006": 14.5828942488,
			"-0.005": 22.2419284022,
			"-0.004": 21.8279027386,
			"-0.003": 22.0094755844,
			"-0.002": 14.6351599932,
			"-0.001": 12.8932568774,
			"0.0": 14.9704052158,
			"0.001": 16.6215224764,
			"0.002": 19.1902415428,
			"0.003": 20.4354017744,
			"0.004": 22.0886292477,
			"0.005": 25.4444346757,
			"0.006": 12.3368493155,
			"0.007": 4.09240650328,
			"0.008": 3.15958911703,
			"0.009": 1.91042724101,
			"0.01": 2.30427208015,
			"0.011": 2.76115360707,
			"0.012": 2.78766510326,
			"0.013": 3.48033710519,
			"0.014": 1.51978510539,
			"0.015": 0.00805537028891,
			"0.016": 0.0,
			"0.017": 0.0,
			"0.018": 0.0,
			"0.019": 0.0,
			"0.02": 0.0,
			"0.021": 0.0,
			"0.022": 0.0,
			"0.023": 0.0,
			"0.024": 0.0,
			"0.025": 0.0
		}
	}
}
