{
	 "smiles": "[O-][N+](=O)C1=CC=CC(=C1)N=C=O", 
	 "Tm": 324.65, 
	 "num_atms": 16, 
	 "gaussian": { 
		 "optdone": 1, 
		 "sigma_profile": "yes", 
		 "theory": "DFT", 
		 "functional": "B3LYP", 
		 "basiset": "6-31G**", 
		 "properties": { 
			 "R2extent": 2643.5118, 
			 "electric_dipole_moment_norm": 3.63033790851, 
			 "electric_quadrupole_moment_norm": 13.550173317, 
			 "total_energy": -604.225887882, 
			 "HOMO_LUMO_gap": 0.16495, 
			 "cosmo_polarized_energy": -9.25, 
			 "cosmo_cavitation_energy": 23.13, 
			 "cosmo_dispersion_energy": -16.63, 
			 "cosmo_repulsion_energy": 1.32, 
			 "cosmo_total_nonelectrostatic_energy": 7.82, 
			 "SMD_solvation_energy": 8.66 
		},
		"coords": [
			{
				"x": -1.049109071,
				"y": 3.0653320274,
				"z": -1.2692806621,
				"element": "O" 
			},
			{
				"x": -0.5256227903,
				"y": 2.1291256349,
				"z": -1.8700391092,
				"element": "N" 
			},
			{
				"x": -0.0418197713,
				"y": 2.198564537,
				"z": -2.9983460303,
				"element": "O" 
			},
			{
				"x": -0.4730573618,
				"y": 0.8222278191,
				"z": -1.1865885042,
				"element": "C" 
			},
			{
				"x": 0.113194798,
				"y": -0.2565332747,
				"z": -1.8436841731,
				"element": "C" 
			},
			{
				"x": 0.1535784662,
				"y": -1.4833848969,
				"z": -1.1820198327,
				"element": "C" 
			},
			{
				"x": -0.378634437,
				"y": -1.6190988196,
				"z": 0.098595319,
				"element": "C" 
			},
			{
				"x": -0.9648858051,
				"y": -0.5144176583,
				"z": 0.7399541881,
				"element": "C" 
			},
			{
				"x": -1.0137809731,
				"y": 0.7227449193,
				"z": 0.09083103,
				"element": "C" 
			},
			{
				"x": -1.5094090697,
				"y": -0.6031381521,
				"z": 2.0200625005,
				"element": "N" 
			},
			{
				"x": -1.6743105853,
				"y": -1.4234707652,
				"z": 2.8962347347,
				"element": "C" 
			},
			{
				"x": -1.8952715735,
				"y": -2.1168074737,
				"z": 3.8203329625,
				"element": "O" 
			},
			{
				"x": 0.5188193755,
				"y": -0.1228638928,
				"z": -2.8379920557,
				"element": "H" 
			},
			{
				"x": 0.6039334653,
				"y": -2.3427158142,
				"z": -1.6682021336,
				"element": "H" 
			},
			{
				"x": -0.3440757409,
				"y": -2.5769774184,
				"z": 0.6085697885,
				"element": "H" 
			},
			{
				"x": -1.460448926,
				"y": 1.5857132284,
				"z": 0.5662719775,
				"element": "H" 
			}
		],
		 "valence_orbital": [ 
			{
				"type": "occ",
				"energy": -0.3174,
				"method": "rhf"
			},
			{
				"type": "occ",
				"energy": -0.31452,
				"method": "rhf"
			},
			{
				"type": "occ",
				"energy": -0.29897,
				"method": "rhf"
			},
			{
				"type": "occ",
				"energy": -0.2951,
				"method": "rhf"
			},
			{
				"type": "occ",
				"energy": -0.26326,
				"method": "rhf"
			},
			{
				"type": "unocc",
				"energy": -0.09831,
				"method": "rhf"
			},
			{
				"type": "unocc",
				"energy": -0.04638,
				"method": "rhf"
			},
			{
				"type": "unocc",
				"energy": -0.01655,
				"method": "rhf"
			},
			{
				"type": "unocc",
				"energy": -0.00732,
				"method": "rhf"
			},
			{
				"type": "unocc",
				"energy": 0.06301,
				"method": "rhf"
			}
		],
		"cosmo_sigma_profile": { 
			"-0.025": 0.0,
			"-0.024": 0.0,
			"-0.023": 0.0,
			"-0.022": 0.0,
			"-0.021": 0.0,
			"-0.02": 0.0,
			"-0.019": 0.0,
			"-0.018": 0.0,
			"-0.017": 0.0,
			"-0.016": 0.0,
			"-0.015": 0.0,
			"-0.014": 0.0,
			"-0.013": 0.0,
			"-0.012": 0.0,
			"-0.011": 0.0,
			"-0.01": 0.586027628087,
			"-0.009": 2.73457573473,
			"-0.008": 6.02961114221,
			"-0.007": 8.94196548363,
			"-0.006": 9.83810765294,
			"-0.005": 9.14442566957,
			"-0.004": 10.5785778125,
			"-0.003": 12.2777725176,
			"-0.002": 12.9636015772,
			"-0.001": 17.2489473583,
			"0.0": 20.83689466,
			"0.001": 15.1635128725,
			"0.002": 8.50449494906,
			"0.003": 5.21159835398,
			"0.004": 5.85661086837,
			"0.005": 5.5289007518,
			"0.006": 8.2967767931,
			"0.007": 16.1439875501,
			"0.008": 6.24204659022,
			"0.009": 4.19237617432,
			"0.01": 1.72542872686,
			"0.011": 0.0,
			"0.012": 0.0,
			"0.013": 0.0,
			"0.014": 0.0,
			"0.015": 0.0,
			"0.016": 0.0,
			"0.017": 0.0,
			"0.018": 0.0,
			"0.019": 0.0,
			"0.02": 0.0,
			"0.021": 0.0,
			"0.022": 0.0,
			"0.023": 0.0,
			"0.024": 0.0,
			"0.025": 0.0
		}
	}
}
