{
	 "smiles": "NC1=NC(=O)N(C=C1)C1OC(COP(O)(O)=O)C(O)C1O", 
	 "Tm": 506.15, 
	 "num_atms": 35, 
	 "gaussian": { 
		 "optdone": 1, 
		 "sigma_profile": "yes", 
		 "theory": "DFT", 
		 "functional": "B3LYP", 
		 "basiset": "6-31G**", 
		 "properties": { 
			 "R2extent": 7969.7814, 
			 "electric_dipole_moment_norm": 7.98404028422, 
			 "electric_quadrupole_moment_norm": 32.3230849812, 
			 "total_energy": -1458.87930353, 
			 "HOMO_LUMO_gap": 0.199, 
			 "cosmo_polarized_energy": -38.35, 
			 "cosmo_cavitation_energy": 39.82, 
			 "cosmo_dispersion_energy": -28.85, 
			 "cosmo_repulsion_energy": 2.2, 
			 "cosmo_total_nonelectrostatic_energy": 13.18, 
			 "SMD_solvation_energy": 8.04 
		},
		"coords": [
			{
				"x": 4.3295102736,
				"y": 4.5119430779,
				"z": -0.6718056226,
				"element": "N" 
			},
			{
				"x": 3.5284335046,
				"y": 3.4697343909,
				"z": -0.336733793,
				"element": "C" 
			},
			{
				"x": 3.5664912573,
				"y": 3.0660095521,
				"z": 0.9245549238,
				"element": "N" 
			},
			{
				"x": 2.8143128239,
				"y": 2.0121607219,
				"z": 1.3302522851,
				"element": "C" 
			},
			{
				"x": 2.8120667981,
				"y": 1.567231385,
				"z": 2.4829931188,
				"element": "O" 
			},
			{
				"x": 1.9690048901,
				"y": 1.3796661953,
				"z": 0.3667032207,
				"element": "N" 
			},
			{
				"x": 1.9304629783,
				"y": 1.8104532113,
				"z": -0.9220626928,
				"element": "C" 
			},
			{
				"x": 2.7053945481,
				"y": 2.85034255,
				"z": -1.3337349593,
				"element": "C" 
			},
			{
				"x": 1.0984313164,
				"y": 0.2940641352,
				"z": 0.875975724,
				"element": "C" 
			},
			{
				"x": 0.2556365503,
				"y": -0.1640635615,
				"z": -0.1819899391,
				"element": "O" 
			},
			{
				"x": 0.4705975121,
				"y": -1.5819189019,
				"z": -0.4298638559,
				"element": "C" 
			},
			{
				"x": -0.8155570378,
				"y": -2.2198383458,
				"z": -0.9299275209,
				"element": "C" 
			},
			{
				"x": -1.8544147025,
				"y": -2.1061585987,
				"z": 0.0498513654,
				"element": "O" 
			},
			{
				"x": -3.080132158,
				"y": -1.0516968014,
				"z": -0.120405229,
				"element": "P" 
			},
			{
				"x": -2.3903363233,
				"y": 0.2465705739,
				"z": -0.7552467321,
				"element": "O" 
			},
			{
				"x": -3.920775917,
				"y": -1.5566269382,
				"z": -1.4063469968,
				"element": "O" 
			},
			{
				"x": -3.8620829013,
				"y": -0.9408368283,
				"z": 1.1242488475,
				"element": "O" 
			},
			{
				"x": 1.0027893163,
				"y": -2.1074044711,
				"z": 0.898933,
				"element": "C" 
			},
			{
				"x": 1.6954738778,
				"y": -3.3163164232,
				"z": 0.6747918984,
				"element": "O" 
			},
			{
				"x": 1.872411911,
				"y": -0.9480565616,
				"z": 1.3924221621,
				"element": "C" 
			},
			{
				"x": 2.0129596224,
				"y": -1.006308213,
				"z": 2.7806113568,
				"element": "O" 
			},
			{
				"x": 4.8241650875,
				"y": 4.9772910824,
				"z": 0.0737628629,
				"element": "H" 
			},
			{
				"x": 4.2562402746,
				"y": 4.9636602756,
				"z": -1.5675006187,
				"element": "H" 
			},
			{
				"x": 1.251034119,
				"y": 1.2814714803,
				"z": -1.5774595587,
				"element": "H" 
			},
			{
				"x": 2.6823160488,
				"y": 3.1909715269,
				"z": -2.361087207,
				"element": "H" 
			},
			{
				"x": 0.4840314553,
				"y": 0.7106401517,
				"z": 1.6800325282,
				"element": "H" 
			},
			{
				"x": 1.2428340395,
				"y": -1.7088353703,
				"z": -1.202466939,
				"element": "H" 
			},
			{
				"x": -1.1205240432,
				"y": -1.7797003975,
				"z": -1.884619107,
				"element": "H" 
			},
			{
				"x": -0.6199387353,
				"y": -3.2852714824,
				"z": -1.0840506655,
				"element": "H" 
			},
			{
				"x": -1.4648292329,
				"y": 0.3412190061,
				"z": -0.4446012919,
				"element": "H" 
			},
			{
				"x": -4.7567825292,
				"y": -1.9418049942,
				"z": -1.1082018591,
				"element": "H" 
			},
			{
				"x": 0.1692693881,
				"y": -2.2346597117,
				"z": 1.6033431831,
				"element": "H" 
			},
			{
				"x": 1.9827976656,
				"y": -3.6469373702,
				"z": 1.5362650916,
				"element": "H" 
			},
			{
				"x": 2.8410912642,
				"y": -0.9978682162,
				"z": 0.8667709165,
				"element": "H" 
			},
			{
				"x": 2.4217170575,
				"y": -0.1528261294,
				"z": 3.0280921035,
				"element": "H" 
			}
		],
		 "valence_orbital": [ 
			{
				"type": "occ",
				"energy": -0.28191,
				"method": "rhf"
			},
			{
				"type": "occ",
				"energy": -0.27626,
				"method": "rhf"
			},
			{
				"type": "occ",
				"energy": -0.27268,
				"method": "rhf"
			},
			{
				"type": "occ",
				"energy": -0.26283,
				"method": "rhf"
			},
			{
				"type": "occ",
				"energy": -0.24449,
				"method": "rhf"
			},
			{
				"type": "unocc",
				"energy": -0.04549,
				"method": "rhf"
			},
			{
				"type": "unocc",
				"energy": 0.00059,
				"method": "rhf"
			},
			{
				"type": "unocc",
				"energy": 0.0352,
				"method": "rhf"
			},
			{
				"type": "unocc",
				"energy": 0.05399,
				"method": "rhf"
			},
			{
				"type": "unocc",
				"energy": 0.06003,
				"method": "rhf"
			}
		],
		"cosmo_sigma_profile": { 
			"-0.025": 0.0,
			"-0.024": 0.0,
			"-0.023": 0.0,
			"-0.022": 0.0,
			"-0.021": 0.0,
			"-0.02": 0.159944548128,
			"-0.019": 0.800223295791,
			"-0.018": 0.986958345345,
			"-0.017": 1.03554497826,
			"-0.016": 2.22020015701,
			"-0.015": 2.17747729776,
			"-0.014": 3.56191757737,
			"-0.013": 3.74225842257,
			"-0.012": 4.22634157932,
			"-0.011": 4.88503882957,
			"-0.01": 5.21425018816,
			"-0.009": 5.7256346373,
			"-0.008": 12.7447129813,
			"-0.007": 20.1386882001,
			"-0.006": 17.9978323942,
			"-0.005": 16.1136176809,
			"-0.004": 15.5489575498,
			"-0.003": 15.372567223,
			"-0.002": 13.233204927,
			"-0.001": 13.8733218875,
			"0.0": 13.9644223216,
			"0.001": 14.9131904773,
			"0.002": 14.0733032399,
			"0.003": 10.2401237363,
			"0.004": 8.28821592289,
			"0.005": 7.78671480392,
			"0.006": 8.72556208743,
			"0.007": 8.06794940043,
			"0.008": 8.31399944922,
			"0.009": 10.0667688055,
			"0.01": 9.16447431503,
			"0.011": 7.90465027756,
			"0.012": 5.79456142729,
			"0.013": 7.18121924063,
			"0.014": 10.5586424657,
			"0.015": 3.53373866032,
			"0.016": 2.43945850076,
			"0.017": 0.499501996747,
			"0.018": 0.0,
			"0.019": 0.0,
			"0.02": 0.0,
			"0.021": 0.0,
			"0.022": 0.0,
			"0.023": 0.0,
			"0.024": 0.0,
			"0.025": 0.0
		}
	}
}
