{
	 "smiles": "COC1=CC=CC=C1OCC(N)=O", 
	 "Tm": 415.15, 
	 "num_atms": 24, 
	 "gaussian": { 
		 "optdone": 1, 
		 "sigma_profile": "yes", 
		 "theory": "DFT", 
		 "functional": "B3LYP", 
		 "basiset": "6-31G**", 
		 "properties": { 
			 "R2extent": 3001.5055, 
			 "electric_dipole_moment_norm": 3.98160314949, 
			 "electric_quadrupole_moment_norm": 9.65786925828, 
			 "total_energy": -629.996675546, 
			 "HOMO_LUMO_gap": 0.21233, 
			 "cosmo_polarized_energy": -15.08, 
			 "cosmo_cavitation_energy": 27.94, 
			 "cosmo_dispersion_energy": -20.29, 
			 "cosmo_repulsion_energy": 1.64, 
			 "cosmo_total_nonelectrostatic_energy": 9.29, 
			 "SMD_solvation_energy": 6.61 
		},
		"coords": [
			{
				"x": 2.3705842589,
				"y": -2.8484623728,
				"z": -0.391765214,
				"element": "C" 
			},
			{
				"x": 1.9175465678,
				"y": -1.555760138,
				"z": -0.756505274,
				"element": "O" 
			},
			{
				"x": 0.9016713359,
				"y": -1.0072964404,
				"z": -0.029613215,
				"element": "C" 
			},
			{
				"x": 0.2458696648,
				"y": -1.6312474152,
				"z": 1.0309611044,
				"element": "C" 
			},
			{
				"x": -0.793889251,
				"y": -0.9772512933,
				"z": 1.7054513956,
				"element": "C" 
			},
			{
				"x": -1.1821300459,
				"y": 0.297728348,
				"z": 1.3176556831,
				"element": "C" 
			},
			{
				"x": -0.5314509455,
				"y": 0.9365092878,
				"z": 0.2529541574,
				"element": "C" 
			},
			{
				"x": 0.5097613712,
				"y": 0.2982265792,
				"z": -0.4162899544,
				"element": "C" 
			},
			{
				"x": 1.2186748858,
				"y": 0.8329181863,
				"z": -1.4663538837,
				"element": "O" 
			},
			{
				"x": 0.9855770745,
				"y": 2.1922762124,
				"z": -1.8092657532,
				"element": "C" 
			},
			{
				"x": -0.2638617073,
				"y": 2.4199354547,
				"z": -2.6717116126,
				"element": "C" 
			},
			{
				"x": -0.6499353761,
				"y": 1.3341486435,
				"z": -3.3918873605,
				"element": "N" 
			},
			{
				"x": -0.8007691477,
				"y": 3.5166578007,
				"z": -2.7237432648,
				"element": "O" 
			},
			{
				"x": 2.752397472,
				"y": -2.8693987596,
				"z": 0.6373405195,
				"element": "H" 
			},
			{
				"x": 3.1824054908,
				"y": -3.0876855286,
				"z": -1.080474831,
				"element": "H" 
			},
			{
				"x": 1.5778829612,
				"y": -3.6015585713,
				"z": -0.4932712852,
				"element": "H" 
			},
			{
				"x": 0.5397453552,
				"y": -2.627263851,
				"z": 1.3402021526,
				"element": "H" 
			},
			{
				"x": -1.2925646809,
				"y": -1.4785513047,
				"z": 2.5292414193,
				"element": "H" 
			},
			{
				"x": -1.9913529377,
				"y": 0.8087154341,
				"z": 1.8296330133,
				"element": "H" 
			},
			{
				"x": -0.8534887623,
				"y": 1.9259496456,
				"z": -0.0508872847,
				"element": "H" 
			},
			{
				"x": 1.8592069711,
				"y": 2.4995941385,
				"z": -2.3929472684,
				"element": "H" 
			},
			{
				"x": 0.920156334,
				"y": 2.838771711,
				"z": -0.929122957,
				"element": "H" 
			},
			{
				"x": -1.4847480703,
				"y": 1.3983490609,
				"z": -3.9534342995,
				"element": "H" 
			},
			{
				"x": -0.2101888186,
				"y": 0.439695172,
				"z": -3.2393659874,
				"element": "H" 
			}
		],
		 "valence_orbital": [ 
			{
				"type": "occ",
				"energy": -0.31978,
				"method": "rhf"
			},
			{
				"type": "occ",
				"energy": -0.26851,
				"method": "rhf"
			},
			{
				"type": "occ",
				"energy": -0.25228,
				"method": "rhf"
			},
			{
				"type": "occ",
				"energy": -0.23865,
				"method": "rhf"
			},
			{
				"type": "occ",
				"energy": -0.20818,
				"method": "rhf"
			},
			{
				"type": "unocc",
				"energy": 0.00415,
				"method": "rhf"
			},
			{
				"type": "unocc",
				"energy": 0.01071,
				"method": "rhf"
			},
			{
				"type": "unocc",
				"energy": 0.0271,
				"method": "rhf"
			},
			{
				"type": "unocc",
				"energy": 0.07845,
				"method": "rhf"
			},
			{
				"type": "unocc",
				"energy": 0.08817,
				"method": "rhf"
			}
		],
		"cosmo_sigma_profile": { 
			"-0.025": 0.0,
			"-0.024": 0.0,
			"-0.023": 0.0,
			"-0.022": 0.0,
			"-0.021": 0.0,
			"-0.02": 0.0,
			"-0.019": 0.0,
			"-0.018": 0.0,
			"-0.017": 0.0,
			"-0.016": 0.0,
			"-0.015": 0.124820542833,
			"-0.014": 1.2235064528,
			"-0.013": 1.59270037591,
			"-0.012": 2.22823902659,
			"-0.011": 1.76831156615,
			"-0.01": 2.09390264908,
			"-0.009": 1.97950174337,
			"-0.008": 3.78157811223,
			"-0.007": 4.6784276917,
			"-0.006": 12.8974130609,
			"-0.005": 22.2333548102,
			"-0.004": 21.0007788893,
			"-0.003": 20.0687306527,
			"-0.002": 12.6183064629,
			"-0.001": 9.67248418692,
			"0.0": 9.03028536487,
			"0.001": 9.82014760639,
			"0.002": 11.754372226,
			"0.003": 12.693910722,
			"0.004": 10.9137292814,
			"0.005": 11.166809631,
			"0.006": 8.71193274619,
			"0.007": 3.62961515612,
			"0.008": 2.41547276856,
			"0.009": 2.3806265225,
			"0.01": 2.36878835818,
			"0.011": 3.0431320753,
			"0.012": 3.18056530716,
			"0.013": 5.77219697132,
			"0.014": 5.70403279263,
			"0.015": 0.881569431837,
			"0.016": 0.0,
			"0.017": 0.0,
			"0.018": 0.0,
			"0.019": 0.0,
			"0.02": 0.0,
			"0.021": 0.0,
			"0.022": 0.0,
			"0.023": 0.0,
			"0.024": 0.0,
			"0.025": 0.0
		}
	}
}
