{
	 "smiles": "BrC1=CC=C2NN=CC2=C1", 
	 "Tm": 397.15, 
	 "num_atms": 15, 
	 "gaussian": { 
		 "optdone": 1, 
		 "sigma_profile": "yes", 
		 "theory": "DFT", 
		 "functional": "B3LYP", 
		 "basiset": "6-31G**", 
		 "properties": { 
			 "R2extent": 4122.9719, 
			 "electric_dipole_moment_norm": 2.10933898177, 
			 "electric_quadrupole_moment_norm": 9.8374411739, 
			 "total_energy": -2950.64758645, 
			 "HOMO_LUMO_gap": 0.1856, 
			 "cosmo_polarized_energy": -9.4, 
			 "cosmo_cavitation_energy": 21.63, 
			 "cosmo_dispersion_energy": -16.89, 
			 "cosmo_repulsion_energy": 1.36, 
			 "cosmo_total_nonelectrostatic_energy": 6.1, 
			 "SMD_solvation_energy": 1.62 
		},
		"coords": [
			{
				"x": -1.1658694751,
				"y": 0.9449789107,
				"z": 4.0738132556,
				"element": "Br" 
			},
			{
				"x": -0.0940641785,
				"y": 1.0244478783,
				"z": 2.4885014045,
				"element": "C" 
			},
			{
				"x": 0.6947226422,
				"y": -0.1016058096,
				"z": 2.1596474264,
				"element": "C" 
			},
			{
				"x": 1.4901144567,
				"y": -0.1019866344,
				"z": 1.0252627417,
				"element": "C" 
			},
			{
				"x": 1.4762794346,
				"y": 1.053382703,
				"z": 0.2278792093,
				"element": "C" 
			},
			{
				"x": 2.1249410818,
				"y": 1.3821941276,
				"z": -0.9299926967,
				"element": "N" 
			},
			{
				"x": 1.8140220815,
				"y": 2.6299734612,
				"z": -1.3690146289,
				"element": "N" 
			},
			{
				"x": 0.9563241879,
				"y": 3.1195114118,
				"z": -0.4916960415,
				"element": "C" 
			},
			{
				"x": 0.6857399732,
				"y": 2.1845404626,
				"z": 0.5555819987,
				"element": "C" 
			},
			{
				"x": -0.116411715,
				"y": 2.1681194619,
				"z": 1.7115123969,
				"element": "C" 
			},
			{
				"x": 0.6710010934,
				"y": -0.9700049867,
				"z": 2.8076842937,
				"element": "H" 
			},
			{
				"x": 2.0958653772,
				"y": -0.9665294746,
				"z": 0.7725713024,
				"element": "H" 
			},
			{
				"x": 2.7742232198,
				"y": 0.8269893645,
				"z": -1.4635273018,
				"element": "H" 
			},
			{
				"x": 0.5571095888,
				"y": 4.1156750872,
				"z": -0.6267657494,
				"element": "H" 
			},
			{
				"x": -0.7308977684,
				"y": 3.0174140366,
				"z": 1.987442389,
				"element": "H" 
			}
		],
		 "valence_orbital": [ 
			{
				"type": "occ",
				"energy": -0.30149,
				"method": "rhf"
			},
			{
				"type": "occ",
				"energy": -0.29507,
				"method": "rhf"
			},
			{
				"type": "occ",
				"energy": -0.28525,
				"method": "rhf"
			},
			{
				"type": "occ",
				"energy": -0.24615,
				"method": "rhf"
			},
			{
				"type": "occ",
				"energy": -0.2263,
				"method": "rhf"
			},
			{
				"type": "unocc",
				"energy": -0.0407,
				"method": "rhf"
			},
			{
				"type": "unocc",
				"energy": 0.00405,
				"method": "rhf"
			},
			{
				"type": "unocc",
				"energy": 0.00719,
				"method": "rhf"
			},
			{
				"type": "unocc",
				"energy": 0.04839,
				"method": "rhf"
			},
			{
				"type": "unocc",
				"energy": 0.07729,
				"method": "rhf"
			}
		],
		"cosmo_sigma_profile": { 
			"-0.025": 0.0,
			"-0.024": 0.0,
			"-0.023": 0.0,
			"-0.022": 0.0,
			"-0.021": 0.0,
			"-0.02": 0.0,
			"-0.019": 0.0,
			"-0.018": 0.0,
			"-0.017": 0.342659623728,
			"-0.016": 1.63753979823,
			"-0.015": 1.64477719133,
			"-0.014": 1.22047628479,
			"-0.013": 0.913495543892,
			"-0.012": 0.922383838071,
			"-0.011": 1.19400175104,
			"-0.01": 1.10533382285,
			"-0.009": 1.45572436881,
			"-0.008": 2.99797836414,
			"-0.007": 8.27885332076,
			"-0.006": 8.21068761208,
			"-0.005": 8.61038074012,
			"-0.004": 6.40552623709,
			"-0.003": 7.68898979431,
			"-0.002": 7.1194765844,
			"-0.001": 8.58027623736,
			"0.0": 9.14353009942,
			"0.001": 14.0527095023,
			"0.002": 20.9789516098,
			"0.003": 26.305512215,
			"0.004": 14.7797763784,
			"0.005": 11.098560837,
			"0.006": 2.41832144094,
			"0.007": 1.50317809821,
			"0.008": 0.986686285019,
			"0.009": 1.65679663775,
			"0.01": 1.16145893676,
			"0.011": 1.04499421303,
			"0.012": 1.29317856586,
			"0.013": 1.15762376341,
			"0.014": 0.918030256114,
			"0.015": 0.848136516874,
			"0.016": 0.0406594660491,
			"0.017": 0.0,
			"0.018": 0.0,
			"0.019": 0.0,
			"0.02": 0.0,
			"0.021": 0.0,
			"0.022": 0.0,
			"0.023": 0.0,
			"0.024": 0.0,
			"0.025": 0.0
		}
	}
}
