{
	 "smiles": "CC1=CC2=NC(Cl)=CC(=O)N2O1", 
	 "Tm": 477.15, 
	 "num_atms": 17, 
	 "gaussian": { 
		 "optdone": 1, 
		 "sigma_profile": "yes", 
		 "theory": "DFT", 
		 "functional": "B3LYP", 
		 "basiset": "6-31G**", 
		 "properties": { 
			 "R2extent": 3971.0724, 
			 "electric_dipole_moment_norm": 5.57714720354, 
			 "electric_quadrupole_moment_norm": 12.1427338092, 
			 "total_energy": -989.843189868, 
			 "HOMO_LUMO_gap": 0.17594, 
			 "cosmo_polarized_energy": -13.52, 
			 "cosmo_cavitation_energy": 24.14, 
			 "cosmo_dispersion_energy": -18.28, 
			 "cosmo_repulsion_energy": 1.46, 
			 "cosmo_total_nonelectrostatic_energy": 7.32, 
			 "SMD_solvation_energy": 4.1 
		},
		"coords": [
			{
				"x": 0.2196641127,
				"y": -2.7192645821,
				"z": -0.0589737446,
				"element": "C" 
			},
			{
				"x": 0.9071340126,
				"y": -1.4034259414,
				"z": 0.0002902209,
				"element": "C" 
			},
			{
				"x": 2.0391603704,
				"y": -0.9666278131,
				"z": 0.6070312775,
				"element": "C" 
			},
			{
				"x": 2.1640279044,
				"y": 0.424860347,
				"z": 0.2785512905,
				"element": "C" 
			},
			{
				"x": 3.0693702314,
				"y": 1.3269069782,
				"z": 0.6010409979,
				"element": "N" 
			},
			{
				"x": 2.8312395026,
				"y": 2.5501729815,
				"z": 0.0862677969,
				"element": "C" 
			},
			{
				"x": 4.0277670667,
				"y": 3.7657139836,
				"z": 0.5058003429,
				"element": "Cl" 
			},
			{
				"x": 1.7733519118,
				"y": 2.9264102259,
				"z": -0.7116620259,
				"element": "C" 
			},
			{
				"x": 0.7521943207,
				"y": 1.9792230795,
				"z": -1.0961725859,
				"element": "C" 
			},
			{
				"x": -0.2398701458,
				"y": 2.1254073918,
				"z": -1.7835260925,
				"element": "O" 
			},
			{
				"x": 1.0834484605,
				"y": 0.7150422103,
				"z": -0.508701794,
				"element": "N" 
			},
			{
				"x": 0.2890504035,
				"y": -0.3979467925,
				"z": -0.6970894365,
				"element": "O" 
			},
			{
				"x": 0.140675019,
				"y": -3.0670448633,
				"z": -1.0940025176,
				"element": "H" 
			},
			{
				"x": 0.7773197586,
				"y": -3.4565427327,
				"z": 0.5204934037,
				"element": "H" 
			},
			{
				"x": -0.794750163,
				"y": -2.6431468976,
				"z": 0.3455498894,
				"element": "H" 
			},
			{
				"x": 2.7224265318,
				"y": -1.534409916,
				"z": 1.2179464211,
				"element": "H" 
			},
			{
				"x": 1.6680907019,
				"y": 3.9383723409,
				"z": -1.0779434439,
				"element": "H" 
			}
		],
		 "valence_orbital": [ 
			{
				"type": "occ",
				"energy": -0.30548,
				"method": "rhf"
			},
			{
				"type": "occ",
				"energy": -0.30113,
				"method": "rhf"
			},
			{
				"type": "occ",
				"energy": -0.28761,
				"method": "rhf"
			},
			{
				"type": "occ",
				"energy": -0.27247,
				"method": "rhf"
			},
			{
				"type": "occ",
				"energy": -0.2369,
				"method": "rhf"
			},
			{
				"type": "unocc",
				"energy": -0.06096,
				"method": "rhf"
			},
			{
				"type": "unocc",
				"energy": -0.02694,
				"method": "rhf"
			},
			{
				"type": "unocc",
				"energy": 0.02844,
				"method": "rhf"
			},
			{
				"type": "unocc",
				"energy": 0.03005,
				"method": "rhf"
			},
			{
				"type": "unocc",
				"energy": 0.04568,
				"method": "rhf"
			}
		],
		"cosmo_sigma_profile": { 
			"-0.025": 0.0,
			"-0.024": 0.0,
			"-0.023": 0.0,
			"-0.022": 0.0,
			"-0.021": 0.0,
			"-0.02": 0.0,
			"-0.019": 0.0,
			"-0.018": 0.0,
			"-0.017": 0.0,
			"-0.016": 0.0,
			"-0.015": 0.0,
			"-0.014": 0.0,
			"-0.013": 0.0,
			"-0.012": 0.0,
			"-0.011": 0.0,
			"-0.01": 1.25239936394,
			"-0.009": 2.37682667655,
			"-0.008": 5.41968439631,
			"-0.007": 10.5998598466,
			"-0.006": 13.5289894239,
			"-0.005": 12.8988013889,
			"-0.004": 15.2101954091,
			"-0.003": 16.8654625069,
			"-0.002": 12.121140346,
			"-0.001": 13.0698405561,
			"0.0": 15.2923760283,
			"0.001": 11.2373916559,
			"0.002": 8.85838276245,
			"0.003": 10.6997529429,
			"0.004": 10.7111265167,
			"0.005": 4.68500496001,
			"0.006": 4.63375157273,
			"0.007": 3.55270259409,
			"0.008": 2.99951583106,
			"0.009": 2.57472073812,
			"0.01": 3.29350875012,
			"0.011": 3.69741684236,
			"0.012": 7.22563760437,
			"0.013": 3.68026486947,
			"0.014": 0.560465200164,
			"0.015": 0.0,
			"0.016": 0.0,
			"0.017": 0.0,
			"0.018": 0.0,
			"0.019": 0.0,
			"0.02": 0.0,
			"0.021": 0.0,
			"0.022": 0.0,
			"0.023": 0.0,
			"0.024": 0.0,
			"0.025": 0.0
		}
	}
}
