{
	 "smiles": "COC1=CC(=CC(OC)=C1)C(N)C1=NC=CN1C", 
	 "Tm": 373.15, 
	 "num_atms": 35, 
	 "gaussian": { 
		 "optdone": 1, 
		 "sigma_profile": "yes", 
		 "theory": "DFT", 
		 "functional": "B3LYP", 
		 "basiset": "6-31G**", 
		 "properties": { 
			 "R2extent": 5609.6046, 
			 "electric_dipole_moment_norm": 3.33263879081, 
			 "electric_quadrupole_moment_norm": 13.0961639834, 
			 "total_energy": -820.299136545, 
			 "HOMO_LUMO_gap": 0.21027, 
			 "cosmo_polarized_energy": -16.14, 
			 "cosmo_cavitation_energy": 37.96, 
			 "cosmo_dispersion_energy": -26.17, 
			 "cosmo_repulsion_energy": 2.05, 
			 "cosmo_total_nonelectrostatic_energy": 13.83, 
			 "SMD_solvation_energy": 6.03 
		},
		"coords": [
			{
				"x": -2.7551540142,
				"y": 3.9276072138,
				"z": -3.369969219,
				"element": "C" 
			},
			{
				"x": -2.9779645182,
				"y": 2.8033386055,
				"z": -2.5341914364,
				"element": "O" 
			},
			{
				"x": -1.9870909138,
				"y": 2.4373180879,
				"z": -1.6691553496,
				"element": "C" 
			},
			{
				"x": -2.2728208898,
				"y": 1.3208154188,
				"z": -0.8605355802,
				"element": "C" 
			},
			{
				"x": -1.3308728286,
				"y": 0.8665044156,
				"z": 0.0551020642,
				"element": "C" 
			},
			{
				"x": -0.0886590216,
				"y": 1.5158946075,
				"z": 0.1782401391,
				"element": "C" 
			},
			{
				"x": 0.1840643045,
				"y": 2.6194257701,
				"z": -0.6275800274,
				"element": "C" 
			},
			{
				"x": 1.353299334,
				"y": 3.3241274528,
				"z": -0.6021682093,
				"element": "O" 
			},
			{
				"x": 2.3634251118,
				"y": 2.9092616707,
				"z": 0.3052245527,
				"element": "C" 
			},
			{
				"x": -0.7632468467,
				"y": 3.0894855258,
				"z": -1.5566800126,
				"element": "C" 
			},
			{
				"x": -1.6689473184,
				"y": -0.3185695806,
				"z": 0.9721972904,
				"element": "C" 
			},
			{
				"x": -1.876606323,
				"y": 0.0481403847,
				"z": 2.3782607937,
				"element": "N" 
			},
			{
				"x": -0.5890683664,
				"y": -1.3703371214,
				"z": 0.9172627078,
				"element": "C" 
			},
			{
				"x": 0.4146780643,
				"y": -1.4526177802,
				"z": 1.7722781223,
				"element": "N" 
			},
			{
				"x": 1.1939791177,
				"y": -2.4973068961,
				"z": 1.3311813876,
				"element": "C" 
			},
			{
				"x": 0.6567396612,
				"y": -3.0451111241,
				"z": 0.1954505052,
				"element": "C" 
			},
			{
				"x": -0.4881906505,
				"y": -2.3146362324,
				"z": -0.0697008682,
				"element": "N" 
			},
			{
				"x": -1.4062497617,
				"y": -2.5274187802,
				"z": -1.1786837136,
				"element": "C" 
			},
			{
				"x": -2.5881154144,
				"y": 4.840666166,
				"z": -2.7841937349,
				"element": "H" 
			},
			{
				"x": -1.8988958768,
				"y": 3.7718693845,
				"z": -4.0389339478,
				"element": "H" 
			},
			{
				"x": -3.6609812016,
				"y": 4.0444611072,
				"z": -3.9671471303,
				"element": "H" 
			},
			{
				"x": -3.2411301979,
				"y": 0.8401421291,
				"z": -0.9624634489,
				"element": "H" 
			},
			{
				"x": 0.6359410364,
				"y": 1.1326412958,
				"z": 0.8862887424,
				"element": "H" 
			},
			{
				"x": 2.697196148,
				"y": 1.884732851,
				"z": 0.0986958292,
				"element": "H" 
			},
			{
				"x": 3.1982499633,
				"y": 3.5970441456,
				"z": 0.160779211,
				"element": "H" 
			},
			{
				"x": 2.0214312769,
				"y": 2.9686073824,
				"z": 1.3461742986,
				"element": "H" 
			},
			{
				"x": -0.5010897487,
				"y": 3.9497496754,
				"z": -2.1588474919,
				"element": "H" 
			},
			{
				"x": -2.6024223602,
				"y": -0.7572227881,
				"z": 0.5915744195,
				"element": "H" 
			},
			{
				"x": -2.2542971445,
				"y": 0.9897310147,
				"z": 2.4322452783,
				"element": "H" 
			},
			{
				"x": -0.9743988351,
				"y": 0.0418990756,
				"z": 2.8490907048,
				"element": "H" 
			},
			{
				"x": 2.0910763081,
				"y": -2.7961899046,
				"z": 1.8554531064,
				"element": "H" 
			},
			{
				"x": 0.9619456853,
				"y": -3.8666317453,
				"z": -0.4348624817,
				"element": "H" 
			},
			{
				"x": -2.3576894235,
				"y": -2.9436064029,
				"z": -0.8314055506,
				"element": "H" 
			},
			{
				"x": -0.9541101756,
				"y": -3.2296061857,
				"z": -1.8807449716,
				"element": "H" 
			},
			{
				"x": -1.5984241803,
				"y": -1.5863088389,
				"z": -1.700035979,
				"element": "H" 
			}
		],
		 "valence_orbital": [ 
			{
				"type": "occ",
				"energy": -0.26309,
				"method": "rhf"
			},
			{
				"type": "occ",
				"energy": -0.23871,
				"method": "rhf"
			},
			{
				"type": "occ",
				"energy": -0.21678,
				"method": "rhf"
			},
			{
				"type": "occ",
				"energy": -0.21418,
				"method": "rhf"
			},
			{
				"type": "occ",
				"energy": -0.20845,
				"method": "rhf"
			},
			{
				"type": "unocc",
				"energy": 0.00182,
				"method": "rhf"
			},
			{
				"type": "unocc",
				"energy": 0.0204,
				"method": "rhf"
			},
			{
				"type": "unocc",
				"energy": 0.03592,
				"method": "rhf"
			},
			{
				"type": "unocc",
				"energy": 0.07398,
				"method": "rhf"
			},
			{
				"type": "unocc",
				"energy": 0.08781,
				"method": "rhf"
			}
		],
		"cosmo_sigma_profile": { 
			"-0.025": 0.0,
			"-0.024": 0.0,
			"-0.023": 0.0,
			"-0.022": 0.0,
			"-0.021": 0.0,
			"-0.02": 0.0,
			"-0.019": 0.0,
			"-0.018": 0.0,
			"-0.017": 0.0,
			"-0.016": 0.0,
			"-0.015": 0.0,
			"-0.014": 0.0,
			"-0.013": 0.0,
			"-0.012": 0.0,
			"-0.011": 0.0173567953649,
			"-0.01": 0.568855297536,
			"-0.009": 1.36064883409,
			"-0.008": 4.47310521617,
			"-0.007": 5.48313768639,
			"-0.006": 17.3630880048,
			"-0.005": 34.5644312506,
			"-0.004": 32.4769376524,
			"-0.003": 35.0089618153,
			"-0.002": 20.7149819052,
			"-0.001": 14.7152687638,
			"0.0": 14.0897615747,
			"0.001": 10.8430535754,
			"0.002": 11.3439330216,
			"0.003": 15.1070124162,
			"0.004": 19.988110692,
			"0.005": 18.1627610201,
			"0.006": 10.0649314994,
			"0.007": 6.07668400175,
			"0.008": 4.8074474893,
			"0.009": 5.52164206602,
			"0.01": 5.86807214424,
			"0.011": 3.13944253634,
			"0.012": 1.58228930078,
			"0.013": 1.11656343868,
			"0.014": 1.64818271885,
			"0.015": 1.45134658064,
			"0.016": 0.746451419056,
			"0.017": 0.707486710727,
			"0.018": 0.492371316372,
			"0.019": 0.551483605545,
			"0.02": 0.0521909436552,
			"0.021": 0.0,
			"0.022": 0.0,
			"0.023": 0.0,
			"0.024": 0.0,
			"0.025": 0.0
		}
	}
}
