{
	 "smiles": "NC(=O)NC1=CC=C(C=C1)C1=NNC(=O)CC1", 
	 "Tm": 489.15, 
	 "num_atms": 29, 
	 "gaussian": { 
		 "optdone": 1, 
		 "sigma_profile": "yes", 
		 "theory": "DFT", 
		 "functional": "B3LYP", 
		 "basiset": "6-31G**", 
		 "properties": { 
			 "R2extent": 6876.298, 
			 "electric_dipole_moment_norm": 1.88484820078, 
			 "electric_quadrupole_moment_norm": 34.9720074558, 
			 "total_energy": -795.873109908, 
			 "HOMO_LUMO_gap": 0.15774, 
			 "cosmo_polarized_energy": -22.93, 
			 "cosmo_cavitation_energy": 33.26, 
			 "cosmo_dispersion_energy": -24.81, 
			 "cosmo_repulsion_energy": 1.94, 
			 "cosmo_total_nonelectrostatic_energy": 10.39, 
			 "SMD_solvation_energy": 6.44 
		},
		"coords": [
			{
				"x": 0.5076060294,
				"y": 4.4382286395,
				"z": 2.946680198,
				"element": "N" 
			},
			{
				"x": 1.5575123761,
				"y": 3.7762212327,
				"z": 3.5540212857,
				"element": "C" 
			},
			{
				"x": 2.1858408992,
				"y": 4.2427769766,
				"z": 4.4926783281,
				"element": "O" 
			},
			{
				"x": 1.892986272,
				"y": 2.5272720238,
				"z": 3.0341729186,
				"element": "N" 
			},
			{
				"x": 1.4277995895,
				"y": 1.817428464,
				"z": 1.9158294981,
				"element": "C" 
			},
			{
				"x": 0.9627419994,
				"y": 2.4380262053,
				"z": 0.7465028216,
				"element": "C" 
			},
			{
				"x": 0.5391436794,
				"y": 1.6678423252,
				"z": -0.3359158424,
				"element": "C" 
			},
			{
				"x": 0.5775122,
				"y": 0.2657324322,
				"z": -0.3062065893,
				"element": "C" 
			},
			{
				"x": 1.0682999744,
				"y": -0.3449025043,
				"z": 0.8657269558,
				"element": "C" 
			},
			{
				"x": 1.4791591781,
				"y": 0.4101380447,
				"z": 1.950964421,
				"element": "C" 
			},
			{
				"x": 0.1117211195,
				"y": -0.5565912071,
				"z": -1.4425286963,
				"element": "C" 
			},
			{
				"x": -0.0245342942,
				"y": -1.8264320953,
				"z": -1.2381180941,
				"element": "N" 
			},
			{
				"x": -0.4777456616,
				"y": -2.6001838846,
				"z": -2.2825947136,
				"element": "N" 
			},
			{
				"x": -0.4248632874,
				"y": -2.3072588655,
				"z": -3.6325087012,
				"element": "C" 
			},
			{
				"x": -0.731984372,
				"y": -3.1329705994,
				"z": -4.4764761957,
				"element": "O" 
			},
			{
				"x": 0.086958223,
				"y": -0.9104871015,
				"z": -3.9224016961,
				"element": "C" 
			},
			{
				"x": -0.2375192887,
				"y": 0.0620747237,
				"z": -2.781287036,
				"element": "C" 
			},
			{
				"x": 0.1894760192,
				"y": 5.2279408956,
				"z": 3.4900735641,
				"element": "H" 
			},
			{
				"x": -0.2195497824,
				"y": 3.8911795174,
				"z": 2.506908615,
				"element": "H" 
			},
			{
				"x": 2.5696768684,
				"y": 2.0631013154,
				"z": 3.6240021249,
				"element": "H" 
			},
			{
				"x": 0.9620042448,
				"y": 3.5187153985,
				"z": 0.668667308,
				"element": "H" 
			},
			{
				"x": 0.1784953783,
				"y": 2.1883585619,
				"z": -1.2168902865,
				"element": "H" 
			},
			{
				"x": 1.1115476546,
				"y": -1.4271642936,
				"z": 0.9092212472,
				"element": "H" 
			},
			{
				"x": 1.842623658,
				"y": -0.0854086814,
				"z": 2.8475808148,
				"element": "H" 
			},
			{
				"x": -0.6524085378,
				"y": -3.5656117988,
				"z": -2.0370567631,
				"element": "H" 
			},
			{
				"x": -0.3291184908,
				"y": -0.5823872408,
				"z": -4.8770040935,
				"element": "H" 
			},
			{
				"x": 1.1746430766,
				"y": -0.989747146,
				"z": -4.0536102693,
				"element": "H" 
			},
			{
				"x": -1.3124405917,
				"y": 0.2956187753,
				"z": -2.7851410243,
				"element": "H" 
			},
			{
				"x": 0.2897158667,
				"y": 1.0055898866,
				"z": -2.9353900994,
				"element": "H" 
			}
		],
		 "valence_orbital": [ 
			{
				"type": "occ",
				"energy": -0.26813,
				"method": "rhf"
			},
			{
				"type": "occ",
				"energy": -0.26362,
				"method": "rhf"
			},
			{
				"type": "occ",
				"energy": -0.2573,
				"method": "rhf"
			},
			{
				"type": "occ",
				"energy": -0.25104,
				"method": "rhf"
			},
			{
				"type": "occ",
				"energy": -0.21282,
				"method": "rhf"
			},
			{
				"type": "unocc",
				"energy": -0.05508,
				"method": "rhf"
			},
			{
				"type": "unocc",
				"energy": -0.01897,
				"method": "rhf"
			},
			{
				"type": "unocc",
				"energy": 0.00757,
				"method": "rhf"
			},
			{
				"type": "unocc",
				"energy": 0.03851,
				"method": "rhf"
			},
			{
				"type": "unocc",
				"energy": 0.06212,
				"method": "rhf"
			}
		],
		"cosmo_sigma_profile": { 
			"-0.025": 0.0,
			"-0.024": 0.0,
			"-0.023": 0.0,
			"-0.022": 0.0,
			"-0.021": 0.0,
			"-0.02": 0.0,
			"-0.019": 0.0,
			"-0.018": 0.0,
			"-0.017": 0.0,
			"-0.016": 0.0,
			"-0.015": 0.585902551118,
			"-0.014": 2.41237892615,
			"-0.013": 4.26211161404,
			"-0.012": 3.50053550135,
			"-0.011": 4.25894147952,
			"-0.01": 4.0623845427,
			"-0.009": 4.43298615113,
			"-0.008": 4.69565278436,
			"-0.007": 7.9617719182,
			"-0.006": 15.9484732211,
			"-0.005": 20.2195589341,
			"-0.004": 19.996713066,
			"-0.003": 16.202919327,
			"-0.002": 14.1344387953,
			"-0.001": 11.0856113423,
			"0.0": 12.7806597366,
			"0.001": 13.5786261467,
			"0.002": 13.7461581357,
			"0.003": 15.4579790434,
			"0.004": 17.726725082,
			"0.005": 8.78849995639,
			"0.006": 4.66658680267,
			"0.007": 3.97953300244,
			"0.008": 4.55902565,
			"0.009": 4.11420932584,
			"0.01": 3.4152790235,
			"0.011": 3.98598253148,
			"0.012": 4.75597604004,
			"0.013": 8.95682514867,
			"0.014": 8.80165712743,
			"0.015": 1.02484390676,
			"0.016": 0.0,
			"0.017": 0.0,
			"0.018": 0.0,
			"0.019": 0.0,
			"0.02": 0.0,
			"0.021": 0.0,
			"0.022": 0.0,
			"0.023": 0.0,
			"0.024": 0.0,
			"0.025": 0.0
		}
	}
}
