{
	 "smiles": "ClS(=O)(=O)C1=CN2CCCCC2=N1", 
	 "Tm": 348.15, 
	 "num_atms": 22, 
	 "gaussian": { 
		 "optdone": 1, 
		 "sigma_profile": "yes", 
		 "theory": "DFT", 
		 "functional": "B3LYP", 
		 "basiset": "6-31G**", 
		 "properties": { 
			 "R2extent": 5024.6105, 
			 "electric_dipole_moment_norm": 9.47809508868, 
			 "electric_quadrupole_moment_norm": 19.054521746, 
			 "total_energy": -1390.43814137, 
			 "HOMO_LUMO_gap": 0.18657, 
			 "cosmo_polarized_energy": -17.26, 
			 "cosmo_cavitation_energy": 28.53, 
			 "cosmo_dispersion_energy": -21.8, 
			 "cosmo_repulsion_energy": 1.7, 
			 "cosmo_total_nonelectrostatic_energy": 8.43, 
			 "SMD_solvation_energy": 0.99 
		},
		"coords": [
			{
				"x": 0.5411915234,
				"y": 3.2372866444,
				"z": 3.4867206914,
				"element": "Cl" 
			},
			{
				"x": -1.3847133818,
				"y": 2.6387324364,
				"z": 2.788455218,
				"element": "S" 
			},
			{
				"x": -2.0734864048,
				"y": 3.8623249519,
				"z": 2.388138149,
				"element": "O" 
			},
			{
				"x": -1.9191439406,
				"y": 1.7424090011,
				"z": 3.8018972636,
				"element": "O" 
			},
			{
				"x": -0.9758374516,
				"y": 1.7609883687,
				"z": 1.3197970766,
				"element": "C" 
			},
			{
				"x": -1.22695456,
				"y": 2.2180018222,
				"z": 0.0460735961,
				"element": "C" 
			},
			{
				"x": -0.7800165072,
				"y": 1.2083625608,
				"z": -0.7656120044,
				"element": "N" 
			},
			{
				"x": -0.7465971039,
				"y": 1.2057032281,
				"z": -2.2341589562,
				"element": "C" 
			},
			{
				"x": -0.5289891818,
				"y": -0.2175693793,
				"z": -2.7559084214,
				"element": "C" 
			},
			{
				"x": 0.6175841822,
				"y": -0.9106709507,
				"z": -2.0051018788,
				"element": "C" 
			},
			{
				"x": 0.2730343374,
				"y": -1.0608516018,
				"z": -0.5135438115,
				"element": "C" 
			},
			{
				"x": -0.2748056364,
				"y": 0.2153595859,
				"z": 0.0509680335,
				"element": "C" 
			},
			{
				"x": -0.3859406534,
				"y": 0.5316977982,
				"z": 1.324963109,
				"element": "N" 
			},
			{
				"x": -1.6682754817,
				"y": 3.13110757,
				"z": -0.3198433261,
				"element": "H" 
			},
			{
				"x": 0.0679246468,
				"y": 1.8617914735,
				"z": -2.5642951358,
				"element": "H" 
			},
			{
				"x": -1.6865488761,
				"y": 1.6265256805,
				"z": -2.6028257854,
				"element": "H" 
			},
			{
				"x": -0.3196555143,
				"y": -0.1632234535,
				"z": -3.8289172238,
				"element": "H" 
			},
			{
				"x": -1.4525261199,
				"y": -0.7977229552,
				"z": -2.6369394737,
				"element": "H" 
			},
			{
				"x": 0.8161119758,
				"y": -1.8947245688,
				"z": -2.4400771658,
				"element": "H" 
			},
			{
				"x": 1.5370557934,
				"y": -0.3219699502,
				"z": -2.118371411,
				"element": "H" 
			},
			{
				"x": -0.4766603718,
				"y": -1.853280145,
				"z": -0.3848606078,
				"element": "H" 
			},
			{
				"x": 1.1438487265,
				"y": -1.3613781173,
				"z": 0.0759420645,
				"element": "H" 
			}
		],
		 "valence_orbital": [ 
			{
				"type": "occ",
				"energy": -0.32099,
				"method": "rhf"
			},
			{
				"type": "occ",
				"energy": -0.29931,
				"method": "rhf"
			},
			{
				"type": "occ",
				"energy": -0.29881,
				"method": "rhf"
			},
			{
				"type": "occ",
				"energy": -0.2976,
				"method": "rhf"
			},
			{
				"type": "occ",
				"energy": -0.2569,
				"method": "rhf"
			},
			{
				"type": "unocc",
				"energy": -0.07033,
				"method": "rhf"
			},
			{
				"type": "unocc",
				"energy": -0.00894,
				"method": "rhf"
			},
			{
				"type": "unocc",
				"energy": 0.01039,
				"method": "rhf"
			},
			{
				"type": "unocc",
				"energy": 0.05813,
				"method": "rhf"
			},
			{
				"type": "unocc",
				"energy": 0.07995,
				"method": "rhf"
			}
		],
		"cosmo_sigma_profile": { 
			"-0.025": 0.0,
			"-0.024": 0.0,
			"-0.023": 0.0,
			"-0.022": 0.0,
			"-0.021": 0.0,
			"-0.02": 0.0,
			"-0.019": 0.0,
			"-0.018": 0.0,
			"-0.017": 0.0,
			"-0.016": 0.0,
			"-0.015": 0.0,
			"-0.014": 0.0,
			"-0.013": 0.0,
			"-0.012": 0.0274821346289,
			"-0.011": 1.2307957614,
			"-0.01": 1.99307698329,
			"-0.009": 1.78833134254,
			"-0.008": 2.3773638242,
			"-0.007": 5.0337821496,
			"-0.006": 10.6320962161,
			"-0.005": 21.1696637924,
			"-0.004": 25.8011860945,
			"-0.003": 21.0048139902,
			"-0.002": 18.7441285897,
			"-0.001": 16.7213380546,
			"0.0": 10.8379455065,
			"0.001": 7.880192307,
			"0.002": 8.82128123062,
			"0.003": 14.267234742,
			"0.004": 15.6976076996,
			"0.005": 5.28529768524,
			"0.006": 5.32708881324,
			"0.007": 6.03864111813,
			"0.008": 12.3822444385,
			"0.009": 10.327050593,
			"0.01": 0.751963447753,
			"0.011": 1.22320466918,
			"0.012": 1.06837925982,
			"0.013": 1.06298738088,
			"0.014": 0.678195170976,
			"0.015": 0.588782597836,
			"0.016": 0.122132974533,
			"0.017": 0.0,
			"0.018": 0.0,
			"0.019": 0.0,
			"0.02": 0.0,
			"0.021": 0.0,
			"0.022": 0.0,
			"0.023": 0.0,
			"0.024": 0.0,
			"0.025": 0.0
		}
	}
}
