{
	 "smiles": "CN(C)C1=CC=C(C=C1)C(C=C1C=CC2=CC=CC=C2N1N=O)C1=CC=CC=C1", 
	 "Tm": 469.15, 
	 "num_atms": 52, 
	 "gaussian": { 
		 "optdone": 1, 
		 "sigma_profile": "yes", 
		 "theory": "DFT", 
		 "functional": "B3LYP", 
		 "basiset": "6-31G**", 
		 "properties": { 
			 "R2extent": 14409.6889, 
			 "electric_dipole_moment_norm": 4.41147124891, 
			 "electric_quadrupole_moment_norm": 17.2337072222, 
			 "total_energy": -1205.89454062, 
			 "HOMO_LUMO_gap": 0.11943, 
			 "cosmo_polarized_energy": -13.61, 
			 "cosmo_cavitation_energy": 54.77, 
			 "cosmo_dispersion_energy": -37.54, 
			 "cosmo_repulsion_energy": 2.81, 
			 "cosmo_total_nonelectrostatic_energy": 20.04, 
			 "SMD_solvation_energy": 8.89 
		},
		"coords": [
			{
				"x": 1.3396691297,
				"y": -4.274182444,
				"z": -4.3092581197,
				"element": "C" 
			},
			{
				"x": 0.9239520842,
				"y": -2.8982222699,
				"z": -4.5194335507,
				"element": "N" 
			},
			{
				"x": 0.0670795922,
				"y": -2.6133318966,
				"z": -5.6578806899,
				"element": "C" 
			},
			{
				"x": 0.9404805531,
				"y": -2.013947064,
				"z": -3.4447159323,
				"element": "C" 
			},
			{
				"x": 0.3421102659,
				"y": -0.7355195313,
				"z": -3.5321017834,
				"element": "C" 
			},
			{
				"x": 0.3943676645,
				"y": 0.1568366445,
				"z": -2.4670770327,
				"element": "C" 
			},
			{
				"x": 1.0294354981,
				"y": -0.1703312466,
				"z": -1.2623058643,
				"element": "C" 
			},
			{
				"x": 1.6062565309,
				"y": -1.4406153609,
				"z": -1.1679709857,
				"element": "C" 
			},
			{
				"x": 1.5683041034,
				"y": -2.347202395,
				"z": -2.2238990058,
				"element": "C" 
			},
			{
				"x": 1.0371459182,
				"y": 0.787943275,
				"z": -0.0668031383,
				"element": "C" 
			},
			{
				"x": -0.3070188774,
				"y": 0.6916233162,
				"z": 0.6163585054,
				"element": "C" 
			},
			{
				"x": -0.5287811787,
				"y": 0.3240332097,
				"z": 1.9014057435,
				"element": "C" 
			},
			{
				"x": 0.5026416328,
				"y": -0.0596948114,
				"z": 2.8598842817,
				"element": "C" 
			},
			{
				"x": 0.2099106731,
				"y": -0.7035924919,
				"z": 4.0081170134,
				"element": "C" 
			},
			{
				"x": -1.1577732541,
				"y": -1.0665063681,
				"z": 4.330853417,
				"element": "C" 
			},
			{
				"x": -1.4894171024,
				"y": -1.8922911405,
				"z": 5.4161786201,
				"element": "C" 
			},
			{
				"x": -2.8139541921,
				"y": -2.222392666,
				"z": 5.685274918,
				"element": "C" 
			},
			{
				"x": -3.8308224071,
				"y": -1.7317281672,
				"z": 4.8607622054,
				"element": "C" 
			},
			{
				"x": -3.5279378833,
				"y": -0.9152280346,
				"z": 3.7721456895,
				"element": "C" 
			},
			{
				"x": -2.1973983951,
				"y": -0.5742078332,
				"z": 3.5142963605,
				"element": "C" 
			},
			{
				"x": -1.8636705944,
				"y": 0.2978166826,
				"z": 2.4402249942,
				"element": "N" 
			},
			{
				"x": -2.8293633256,
				"y": 1.2547350087,
				"z": 2.1998021686,
				"element": "N" 
			},
			{
				"x": -2.5976108378,
				"y": 2.0510702933,
				"z": 1.3081885875,
				"element": "O" 
			},
			{
				"x": 1.4172909154,
				"y": 2.2245959958,
				"z": -0.4565197682,
				"element": "C" 
			},
			{
				"x": 2.6123729084,
				"y": 2.4441432497,
				"z": -1.1597072649,
				"element": "C" 
			},
			{
				"x": 3.0156766266,
				"y": 3.7332396687,
				"z": -1.5001480614,
				"element": "C" 
			},
			{
				"x": 2.2255718178,
				"y": 4.8317881129,
				"z": -1.1488121924,
				"element": "C" 
			},
			{
				"x": 1.0360735348,
				"y": 4.6245968833,
				"z": -0.452980668,
				"element": "C" 
			},
			{
				"x": 0.6353198814,
				"y": 3.3304464222,
				"z": -0.1054633768,
				"element": "C" 
			},
			{
				"x": 1.2817334181,
				"y": -4.8137062032,
				"z": -5.2561296518,
				"element": "H" 
			},
			{
				"x": 2.3801647437,
				"y": -4.3224775206,
				"z": -3.9687429652,
				"element": "H" 
			},
			{
				"x": 0.7174382081,
				"y": -4.8059658846,
				"z": -3.5715735361,
				"element": "H" 
			},
			{
				"x": 0.1945140128,
				"y": -3.3978373814,
				"z": -6.4057639112,
				"element": "H" 
			},
			{
				"x": -1.0009355717,
				"y": -2.5611316875,
				"z": -5.3925261859,
				"element": "H" 
			},
			{
				"x": 0.3433696742,
				"y": -1.6638793023,
				"z": -6.1299253751,
				"element": "H" 
			},
			{
				"x": -0.1654300498,
				"y": -0.4287914794,
				"z": -4.4383475406,
				"element": "H" 
			},
			{
				"x": -0.0642225489,
				"y": 1.1354426836,
				"z": -2.5824877751,
				"element": "H" 
			},
			{
				"x": 2.0957082462,
				"y": -1.7390997254,
				"z": -0.2432656602,
				"element": "H" 
			},
			{
				"x": 2.0316465869,
				"y": -3.3170153432,
				"z": -2.090789647,
				"element": "H" 
			},
			{
				"x": 1.8188841958,
				"y": 0.429249372,
				"z": 0.6112361627,
				"element": "H" 
			},
			{
				"x": -1.1575281871,
				"y": 0.9129162664,
				"z": -0.0130885673,
				"element": "H" 
			},
			{
				"x": 1.5327144173,
				"y": 0.1630766762,
				"z": 2.6086672328,
				"element": "H" 
			},
			{
				"x": 0.9982050022,
				"y": -0.9931240465,
				"z": 4.6968678795,
				"element": "H" 
			},
			{
				"x": -0.6899467444,
				"y": -2.2719254787,
				"z": 6.0468905773,
				"element": "H" 
			},
			{
				"x": -3.0548273935,
				"y": -2.86299737,
				"z": 6.5280365597,
				"element": "H" 
			},
			{
				"x": -4.8661495344,
				"y": -1.9931027123,
				"z": 5.0573462551,
				"element": "H" 
			},
			{
				"x": -4.3107397154,
				"y": -0.5353204738,
				"z": 3.1278235428,
				"element": "H" 
			},
			{
				"x": 3.2248126552,
				"y": 1.5934514331,
				"z": -1.4471406631,
				"element": "H" 
			},
			{
				"x": 3.9459155841,
				"y": 3.8815883354,
				"z": -2.0419729637,
				"element": "H" 
			},
			{
				"x": 2.5368869493,
				"y": 5.8376457797,
				"z": -1.4164049722,
				"element": "H" 
			},
			{
				"x": 0.4126738157,
				"y": 5.4698322578,
				"z": -0.1744036051,
				"element": "H" 
			},
			{
				"x": -0.2893990469,
				"y": 3.1841967636,
				"z": 0.4442797398,
				"element": "H" 
			}
		],
		 "valence_orbital": [ 
			{
				"type": "occ",
				"energy": -0.23892,
				"method": "rhf"
			},
			{
				"type": "occ",
				"energy": -0.23321,
				"method": "rhf"
			},
			{
				"type": "occ",
				"energy": -0.22934,
				"method": "rhf"
			},
			{
				"type": "occ",
				"energy": -0.2032,
				"method": "rhf"
			},
			{
				"type": "occ",
				"energy": -0.18465,
				"method": "rhf"
			},
			{
				"type": "unocc",
				"energy": -0.06522,
				"method": "rhf"
			},
			{
				"type": "unocc",
				"energy": -0.03821,
				"method": "rhf"
			},
			{
				"type": "unocc",
				"energy": 0.00025,
				"method": "rhf"
			},
			{
				"type": "unocc",
				"energy": 0.00174,
				"method": "rhf"
			},
			{
				"type": "unocc",
				"energy": 0.00562,
				"method": "rhf"
			}
		],
		"cosmo_sigma_profile": { 
			"-0.025": 0.0,
			"-0.024": 0.0,
			"-0.023": 0.0,
			"-0.022": 0.0,
			"-0.021": 0.0,
			"-0.02": 0.0,
			"-0.019": 0.0,
			"-0.018": 0.0,
			"-0.017": 0.0,
			"-0.016": 0.0,
			"-0.015": 0.0,
			"-0.014": 0.0,
			"-0.013": 0.0,
			"-0.012": 0.0,
			"-0.011": 0.0,
			"-0.01": 0.0,
			"-0.009": 0.0897972789416,
			"-0.008": 1.59124266188,
			"-0.007": 6.01394252023,
			"-0.006": 18.5130193439,
			"-0.005": 32.1379574766,
			"-0.004": 37.6448817194,
			"-0.003": 43.354637596,
			"-0.002": 40.2927829248,
			"-0.001": 39.5700706045,
			"0.0": 29.8421113914,
			"0.001": 28.5106937512,
			"0.002": 31.2997441227,
			"0.003": 33.2503476457,
			"0.004": 31.1660037577,
			"0.005": 21.7841372794,
			"0.006": 19.2473351338,
			"0.007": 12.2834130447,
			"0.008": 4.94272459122,
			"0.009": 2.44315554454,
			"0.01": 1.95457365436,
			"0.011": 1.35858885181,
			"0.012": 0.125635576256,
			"0.013": 0.0,
			"0.014": 0.0,
			"0.015": 0.0,
			"0.016": 0.0,
			"0.017": 0.0,
			"0.018": 0.0,
			"0.019": 0.0,
			"0.02": 0.0,
			"0.021": 0.0,
			"0.022": 0.0,
			"0.023": 0.0,
			"0.024": 0.0,
			"0.025": 0.0
		}
	}
}
