{
	 "smiles": "OC(C(=O)C1=CC=CC=C1)C1=CC=CC=C1", 
	 "Tm": 409.15, 
	 "num_atms": 28, 
	 "gaussian": { 
		 "optdone": 1, 
		 "sigma_profile": "yes", 
		 "theory": "DFT", 
		 "functional": "B3LYP", 
		 "basiset": "6-31G**", 
		 "properties": { 
			 "R2extent": 4751.2797, 
			 "electric_dipole_moment_norm": 1.12542526629, 
			 "electric_quadrupole_moment_norm": 12.5975946518, 
			 "total_energy": -691.154901563, 
			 "HOMO_LUMO_gap": 0.17981, 
			 "cosmo_polarized_energy": -12.0, 
			 "cosmo_cavitation_energy": 32.07, 
			 "cosmo_dispersion_energy": -23.18, 
			 "cosmo_repulsion_energy": 1.79, 
			 "cosmo_total_nonelectrostatic_energy": 10.69, 
			 "SMD_solvation_energy": 5.77 
		},
		"coords": [
			{
				"x": -0.3471075058,
				"y": 1.4323298273,
				"z": 1.1911888408,
				"element": "O" 
			},
			{
				"x": -0.0860459789,
				"y": 1.1172396122,
				"z": -0.1867687549,
				"element": "C" 
			},
			{
				"x": 0.9298641663,
				"y": -0.0544196091,
				"z": -0.2280465824,
				"element": "C" 
			},
			{
				"x": 2.0632440489,
				"y": 0.103320398,
				"z": -0.6556228807,
				"element": "O" 
			},
			{
				"x": 0.4829450594,
				"y": -1.3895240108,
				"z": 0.2854125617,
				"element": "C" 
			},
			{
				"x": 1.3292767983,
				"y": -2.4875146134,
				"z": 0.0569925625,
				"element": "C" 
			},
			{
				"x": 0.9642397938,
				"y": -3.7613903723,
				"z": 0.4808323845,
				"element": "C" 
			},
			{
				"x": -0.2499232244,
				"y": -3.9535616122,
				"z": 1.1470392502,
				"element": "C" 
			},
			{
				"x": -1.0927425009,
				"y": -2.8668771641,
				"z": 1.3892417495,
				"element": "C" 
			},
			{
				"x": -0.7326242569,
				"y": -1.589581897,
				"z": 0.960505905,
				"element": "C" 
			},
			{
				"x": 0.3189008172,
				"y": 2.3308500053,
				"z": -0.9936372542,
				"element": "C" 
			},
			{
				"x": 1.5279207,
				"y": 3.0004680596,
				"z": -0.7505735689,
				"element": "C" 
			},
			{
				"x": 1.8533824811,
				"y": 4.1539551452,
				"z": -1.462433461,
				"element": "C" 
			},
			{
				"x": 0.9805372469,
				"y": 4.6518466736,
				"z": -2.4330055115,
				"element": "C" 
			},
			{
				"x": -0.2208347106,
				"y": 3.9899966865,
				"z": -2.687018696,
				"element": "C" 
			},
			{
				"x": -0.5473701661,
				"y": 2.8386342504,
				"z": -1.9683648322,
				"element": "C" 
			},
			{
				"x": 0.4192697073,
				"y": 1.9152072227,
				"z": 1.5295833645,
				"element": "H" 
			},
			{
				"x": -1.0419101512,
				"y": 0.7451110491,
				"z": -0.5695860716,
				"element": "H" 
			},
			{
				"x": 2.2668810212,
				"y": -2.3132220424,
				"z": -0.4602201209,
				"element": "H" 
			},
			{
				"x": 1.6221889062,
				"y": -4.605053483,
				"z": 0.2934214662,
				"element": "H" 
			},
			{
				"x": -0.536425658,
				"y": -4.9475202874,
				"z": 1.4792185364,
				"element": "H" 
			},
			{
				"x": -2.0303808776,
				"y": -3.0129653353,
				"z": 1.9175402218,
				"element": "H" 
			},
			{
				"x": -1.3759697944,
				"y": -0.746632406,
				"z": 1.1842761391,
				"element": "H" 
			},
			{
				"x": 2.2293851285,
				"y": 2.6053021974,
				"z": -0.0227292218,
				"element": "H" 
			},
			{
				"x": 2.7943589851,
				"y": 4.6599729986,
				"z": -1.2662525146,
				"element": "H" 
			},
			{
				"x": 1.2378247215,
				"y": 5.5490229975,
				"z": -2.9887653887,
				"element": "H" 
			},
			{
				"x": -0.9057422639,
				"y": 4.3699693094,
				"z": -3.4396535388,
				"element": "H" 
			},
			{
				"x": -1.4884424929,
				"y": 2.3303364004,
				"z": -2.164074584,
				"element": "H" 
			}
		],
		 "valence_orbital": [ 
			{
				"type": "occ",
				"energy": -0.25817,
				"method": "rhf"
			},
			{
				"type": "occ",
				"energy": -0.25641,
				"method": "rhf"
			},
			{
				"type": "occ",
				"energy": -0.2527,
				"method": "rhf"
			},
			{
				"type": "occ",
				"energy": -0.24746,
				"method": "rhf"
			},
			{
				"type": "occ",
				"energy": -0.23895,
				"method": "rhf"
			},
			{
				"type": "unocc",
				"energy": -0.05914,
				"method": "rhf"
			},
			{
				"type": "unocc",
				"energy": -0.00912,
				"method": "rhf"
			},
			{
				"type": "unocc",
				"energy": -0.00634,
				"method": "rhf"
			},
			{
				"type": "unocc",
				"energy": -0.00196,
				"method": "rhf"
			},
			{
				"type": "unocc",
				"energy": 0.03424,
				"method": "rhf"
			}
		],
		"cosmo_sigma_profile": { 
			"-0.025": 0.0,
			"-0.024": 0.0,
			"-0.023": 0.0,
			"-0.022": 0.0,
			"-0.021": 0.0,
			"-0.02": 0.0,
			"-0.019": 0.0,
			"-0.018": 0.0,
			"-0.017": 0.0,
			"-0.016": 0.146428419539,
			"-0.015": 0.818457773352,
			"-0.014": 1.09031883818,
			"-0.013": 1.13870171717,
			"-0.012": 1.34897840424,
			"-0.011": 0.92538390812,
			"-0.01": 1.22663540611,
			"-0.009": 0.988903551758,
			"-0.008": 0.502871255224,
			"-0.007": 5.27276654787,
			"-0.006": 16.7326525998,
			"-0.005": 23.3252173653,
			"-0.004": 22.7891577049,
			"-0.003": 17.4040644421,
			"-0.002": 14.7160911004,
			"-0.001": 14.9145178555,
			"0.0": 13.3250258796,
			"0.001": 14.9871516618,
			"0.002": 17.6568376865,
			"0.003": 17.9300305957,
			"0.004": 23.8262659376,
			"0.005": 14.8142306388,
			"0.006": 8.00959678608,
			"0.007": 3.60334259555,
			"0.008": 3.79966482687,
			"0.009": 3.26526158184,
			"0.01": 3.70459367913,
			"0.011": 4.38978697475,
			"0.012": 3.08345970306,
			"0.013": 0.676876407178,
			"0.014": 0.0225439750339,
			"0.015": 0.0,
			"0.016": 0.0,
			"0.017": 0.0,
			"0.018": 0.0,
			"0.019": 0.0,
			"0.02": 0.0,
			"0.021": 0.0,
			"0.022": 0.0,
			"0.023": 0.0,
			"0.024": 0.0,
			"0.025": 0.0
		}
	}
}
