{
	 "smiles": "CC(=O)NC1=C(C=C(C=C1)C#N)C(F)(F)F", 
	 "Tm": 443.15, 
	 "num_atms": 23, 
	 "gaussian": { 
		 "optdone": 1, 
		 "sigma_profile": "yes", 
		 "theory": "DFT", 
		 "functional": "B3LYP", 
		 "basiset": "6-31G**", 
		 "properties": { 
			 "R2extent": 4028.6036, 
			 "electric_dipole_moment_norm": 1.85810011302, 
			 "electric_quadrupole_moment_norm": 29.8772425752, 
			 "total_energy": -869.527381822, 
			 "HOMO_LUMO_gap": 0.18304, 
			 "cosmo_polarized_energy": -16.44, 
			 "cosmo_cavitation_energy": 29.72, 
			 "cosmo_dispersion_energy": -20.24, 
			 "cosmo_repulsion_energy": 1.52, 
			 "cosmo_total_nonelectrostatic_energy": 11.0, 
			 "SMD_solvation_energy": 8.54 
		},
		"coords": [
			{
				"x": 1.2462857886,
				"y": 2.6283017343,
				"z": 0.1099533798,
				"element": "C" 
			},
			{
				"x": 0.649844245,
				"y": 2.6268675866,
				"z": -1.281338497,
				"element": "C" 
			},
			{
				"x": 0.8745913804,
				"y": 3.5074222508,
				"z": -2.0925840903,
				"element": "O" 
			},
			{
				"x": -0.1578888085,
				"y": 1.5538785652,
				"z": -1.6616152441,
				"element": "N" 
			},
			{
				"x": -0.5263556691,
				"y": 0.3758667355,
				"z": -0.9788617266,
				"element": "C" 
			},
			{
				"x": -1.2900780076,
				"y": 0.3449260722,
				"z": 0.2095555109,
				"element": "C" 
			},
			{
				"x": -1.6031437086,
				"y": -0.884059616,
				"z": 0.7974160923,
				"element": "C" 
			},
			{
				"x": -1.2111268616,
				"y": -2.0909767447,
				"z": 0.2093735453,
				"element": "C" 
			},
			{
				"x": -0.4966412348,
				"y": -2.0655536418,
				"z": -1.0003217173,
				"element": "C" 
			},
			{
				"x": -0.1627759608,
				"y": -0.8484388698,
				"z": -1.5711398101,
				"element": "C" 
			},
			{
				"x": -1.5502525051,
				"y": -3.3388424974,
				"z": 0.8273708062,
				"element": "C" 
			},
			{
				"x": -1.8216448744,
				"y": -4.3543589435,
				"z": 1.3250697273,
				"element": "N" 
			},
			{
				"x": -1.8391178912,
				"y": 1.5656087562,
				"z": 0.9200991848,
				"element": "C" 
			},
			{
				"x": -1.0678101381,
				"y": 1.9063347125,
				"z": 1.9820069794,
				"element": "F" 
			},
			{
				"x": -3.0718208978,
				"y": 1.3095669658,
				"z": 1.4099699234,
				"element": "F" 
			},
			{
				"x": -1.9407686168,
				"y": 2.6492178882,
				"z": 0.1323311822,
				"element": "F" 
			},
			{
				"x": 0.6530701202,
				"y": 3.2725974096,
				"z": 0.7628389491,
				"element": "H" 
			},
			{
				"x": 1.3035846634,
				"y": 1.6378523093,
				"z": 0.5648493024,
				"element": "H" 
			},
			{
				"x": 2.2459724314,
				"y": 3.0582771618,
				"z": 0.0316054371,
				"element": "H" 
			},
			{
				"x": -0.3465465737,
				"y": 1.5730994647,
				"z": -2.657135217,
				"element": "H" 
			},
			{
				"x": -2.1900292734,
				"y": -0.9021420021,
				"z": 1.7081218694,
				"element": "H" 
			},
			{
				"x": -0.1970380669,
				"y": -2.9950887244,
				"z": -1.4720516983,
				"element": "H" 
			},
			{
				"x": 0.4131904593,
				"y": -0.821356573,
				"z": -2.490813889,
				"element": "H" 
			}
		],
		 "valence_orbital": [ 
			{
				"type": "occ",
				"energy": -0.34651,
				"method": "rhf"
			},
			{
				"type": "occ",
				"energy": -0.30926,
				"method": "rhf"
			},
			{
				"type": "occ",
				"energy": -0.30412,
				"method": "rhf"
			},
			{
				"type": "occ",
				"energy": -0.27008,
				"method": "rhf"
			},
			{
				"type": "occ",
				"energy": -0.26102,
				"method": "rhf"
			},
			{
				"type": "unocc",
				"energy": -0.07798,
				"method": "rhf"
			},
			{
				"type": "unocc",
				"energy": -0.05984,
				"method": "rhf"
			},
			{
				"type": "unocc",
				"energy": 0.00681,
				"method": "rhf"
			},
			{
				"type": "unocc",
				"energy": 0.01991,
				"method": "rhf"
			},
			{
				"type": "unocc",
				"energy": 0.04393,
				"method": "rhf"
			}
		],
		"cosmo_sigma_profile": { 
			"-0.025": 0.0,
			"-0.024": 0.0,
			"-0.023": 0.0,
			"-0.022": 0.0,
			"-0.021": 0.0,
			"-0.02": 0.0,
			"-0.019": 0.0,
			"-0.018": 0.0,
			"-0.017": 0.0,
			"-0.016": 0.00306025879845,
			"-0.015": 0.854820602793,
			"-0.014": 0.982910995902,
			"-0.013": 1.04480525087,
			"-0.012": 1.0754597633,
			"-0.011": 1.62629411674,
			"-0.01": 1.44505389662,
			"-0.009": 5.78889011188,
			"-0.008": 7.25225334297,
			"-0.007": 7.29356768995,
			"-0.006": 8.57804101215,
			"-0.005": 11.0775157575,
			"-0.004": 14.7210626048,
			"-0.003": 17.8852297207,
			"-0.002": 21.0799691031,
			"-0.001": 23.3578742633,
			"0.0": 16.6650753107,
			"0.001": 15.4614914869,
			"0.002": 23.8427741361,
			"0.003": 12.3809525599,
			"0.004": 3.23799616987,
			"0.005": 4.39663197542,
			"0.006": 3.24690903906,
			"0.007": 4.83110298908,
			"0.008": 4.19180197692,
			"0.009": 4.4311795246,
			"0.01": 4.48010642242,
			"0.011": 4.73281395755,
			"0.012": 5.63740996624,
			"0.013": 6.14885336918,
			"0.014": 1.45110780152,
			"0.015": 0.0407064070833,
			"0.016": 0.0,
			"0.017": 0.0,
			"0.018": 0.0,
			"0.019": 0.0,
			"0.02": 0.0,
			"0.021": 0.0,
			"0.022": 0.0,
			"0.023": 0.0,
			"0.024": 0.0,
			"0.025": 0.0
		}
	}
}
