{
	 "smiles": "CCOC(=O)C1=CC=C(OCC#N)C=C1", 
	 "Tm": 347.15, 
	 "num_atms": 26, 
	 "gaussian": { 
		 "optdone": 1, 
		 "sigma_profile": "yes", 
		 "theory": "DFT", 
		 "functional": "B3LYP", 
		 "basiset": "6-31G**", 
		 "properties": { 
			 "R2extent": 5908.5339, 
			 "electric_dipole_moment_norm": 3.89437144736, 
			 "electric_quadrupole_moment_norm": 21.9511482784, 
			 "total_energy": -706.204224316, 
			 "HOMO_LUMO_gap": 0.20091, 
			 "cosmo_polarized_energy": -14.39, 
			 "cosmo_cavitation_energy": 31.76, 
			 "cosmo_dispersion_energy": -22.43, 
			 "cosmo_repulsion_energy": 1.78, 
			 "cosmo_total_nonelectrostatic_energy": 11.11, 
			 "SMD_solvation_energy": 8.28 
		},
		"coords": [
			{
				"x": -0.8937378219,
				"y": -2.4950140993,
				"z": -3.837079468,
				"element": "C" 
			},
			{
				"x": -2.2132217508,
				"y": -2.1517914316,
				"z": -3.1618673515,
				"element": "C" 
			},
			{
				"x": -2.0313323428,
				"y": -1.891321267,
				"z": -1.7502093294,
				"element": "O" 
			},
			{
				"x": -1.6744192623,
				"y": -0.6302980369,
				"z": -1.4106437719,
				"element": "C" 
			},
			{
				"x": -1.5106909256,
				"y": 0.2642295544,
				"z": -2.2198609928,
				"element": "O" 
			},
			{
				"x": -1.5111670991,
				"y": -0.4673247824,
				"z": 0.058811701,
				"element": "C" 
			},
			{
				"x": -1.697522629,
				"y": -1.5229894289,
				"z": 0.9666144892,
				"element": "C" 
			},
			{
				"x": -1.5290489004,
				"y": -1.315023143,
				"z": 2.3276558596,
				"element": "C" 
			},
			{
				"x": -1.1715935602,
				"y": -0.0448711265,
				"z": 2.8010960771,
				"element": "C" 
			},
			{
				"x": -1.020566783,
				"y": 0.0414984244,
				"z": 4.1645605512,
				"element": "O" 
			},
			{
				"x": -0.5328357027,
				"y": 1.243048041,
				"z": 4.7289307818,
				"element": "C" 
			},
			{
				"x": -1.5448366847,
				"y": 2.3163559859,
				"z": 4.786034171,
				"element": "C" 
			},
			{
				"x": -2.3338612201,
				"y": 3.1648708136,
				"z": 4.841482708,
				"element": "N" 
			},
			{
				"x": -0.9909397049,
				"y": 1.019063153,
				"z": 1.9102313246,
				"element": "C" 
			},
			{
				"x": -1.1606573724,
				"y": 0.7960167432,
				"z": 0.5451678851,
				"element": "C" 
			},
			{
				"x": -0.4119025627,
				"y": -3.3441695531,
				"z": -3.343375749,
				"element": "H" 
			},
			{
				"x": -0.2161882074,
				"y": -1.6382599421,
				"z": -3.8115010319,
				"element": "H" 
			},
			{
				"x": -1.0710862128,
				"y": -2.7616650962,
				"z": -4.8843692128,
				"element": "H" 
			},
			{
				"x": -2.9107654882,
				"y": -2.9922802076,
				"z": -3.19452802,
				"element": "H" 
			},
			{
				"x": -2.6758870464,
				"y": -1.2766926036,
				"z": -3.6240261477,
				"element": "H" 
			},
			{
				"x": -1.9716249192,
				"y": -2.5040097428,
				"z": 0.5967186557,
				"element": "H" 
			},
			{
				"x": -1.6647344567,
				"y": -2.1178758791,
				"z": 3.0443383839,
				"element": "H" 
			},
			{
				"x": -0.2354543698,
				"y": 0.9918038715,
				"z": 5.7506621842,
				"element": "H" 
			},
			{
				"x": 0.3526260031,
				"y": 1.6125755993,
				"z": 4.195630433,
				"element": "H" 
			},
			{
				"x": -0.7435290788,
				"y": 2.0152603228,
				"z": 2.2571538933,
				"element": "H" 
			},
			{
				"x": -1.0284219011,
				"y": 1.6057638311,
				"z": -0.1642280234,
				"element": "H" 
			}
		],
		 "valence_orbital": [ 
			{
				"type": "occ",
				"energy": -0.33671,
				"method": "rhf"
			},
			{
				"type": "occ",
				"energy": -0.29781,
				"method": "rhf"
			},
			{
				"type": "occ",
				"energy": -0.27277,
				"method": "rhf"
			},
			{
				"type": "occ",
				"energy": -0.26837,
				"method": "rhf"
			},
			{
				"type": "occ",
				"energy": -0.24408,
				"method": "rhf"
			},
			{
				"type": "unocc",
				"energy": -0.04317,
				"method": "rhf"
			},
			{
				"type": "unocc",
				"energy": -0.01829,
				"method": "rhf"
			},
			{
				"type": "unocc",
				"energy": -0.00339,
				"method": "rhf"
			},
			{
				"type": "unocc",
				"energy": 0.02174,
				"method": "rhf"
			},
			{
				"type": "unocc",
				"energy": 0.05935,
				"method": "rhf"
			}
		],
		"cosmo_sigma_profile": { 
			"-0.025": 0.0,
			"-0.024": 0.0,
			"-0.023": 0.0,
			"-0.022": 0.0,
			"-0.021": 0.0,
			"-0.02": 0.0,
			"-0.019": 0.0,
			"-0.018": 0.0,
			"-0.017": 0.0,
			"-0.016": 0.0,
			"-0.015": 0.0,
			"-0.014": 0.0,
			"-0.013": 0.0,
			"-0.012": 0.10760001671,
			"-0.011": 3.8232532257,
			"-0.01": 5.89566150698,
			"-0.009": 5.26796384341,
			"-0.008": 6.01240360098,
			"-0.007": 5.67461187504,
			"-0.006": 8.72702818556,
			"-0.005": 12.3709694713,
			"-0.004": 16.8126271231,
			"-0.003": 16.9846279122,
			"-0.002": 19.3582922667,
			"-0.001": 18.6288187345,
			"0.0": 21.3861563192,
			"0.001": 21.8308249826,
			"0.002": 18.7012168414,
			"0.003": 18.7948311533,
			"0.004": 8.88660927356,
			"0.005": 6.750176115,
			"0.006": 7.20690960733,
			"0.007": 5.54785672469,
			"0.008": 5.13568615463,
			"0.009": 4.61984213127,
			"0.01": 4.25976468409,
			"0.011": 5.00864017361,
			"0.012": 5.65007317012,
			"0.013": 0.787311599932,
			"0.014": 0.0,
			"0.015": 0.0,
			"0.016": 0.0,
			"0.017": 0.0,
			"0.018": 0.0,
			"0.019": 0.0,
			"0.02": 0.0,
			"0.021": 0.0,
			"0.022": 0.0,
			"0.023": 0.0,
			"0.024": 0.0,
			"0.025": 0.0
		}
	}
}
