{
	 "smiles": "C[Si](C)(C)O[Si](C)(C)C", 
	 "Tm": 214.15, 
	 "num_atms": 27, 
	 "gaussian": { 
		 "optdone": 1, 
		 "sigma_profile": "yes", 
		 "theory": "DFT", 
		 "functional": "B3LYP", 
		 "basiset": "6-31G**", 
		 "properties": { 
			 "R2extent": 2330.2676, 
			 "electric_dipole_moment_norm": 0.330251585916, 
			 "electric_quadrupole_moment_norm": 2.28642721948, 
			 "total_energy": -893.880657811, 
			 "HOMO_LUMO_gap": 0.32517, 
			 "cosmo_polarized_energy": -2.38, 
			 "cosmo_cavitation_energy": 32.35, 
			 "cosmo_dispersion_energy": -17.38, 
			 "cosmo_repulsion_energy": 1.68, 
			 "cosmo_total_nonelectrostatic_energy": 16.65, 
			 "SMD_solvation_energy": 8.51 
		},
		"coords": [
			{
				"x": -0.0125883031,
				"y": 2.4503894795,
				"z": 1.9678184624,
				"element": "C" 
			},
			{
				"x": -0.7513684061,
				"y": 1.6904079707,
				"z": 0.4098605624,
				"element": "Si" 
			},
			{
				"x": -0.0810833318,
				"y": 2.5629497486,
				"z": -1.1221025545,
				"element": "C" 
			},
			{
				"x": -2.6340520524,
				"y": 1.8210967914,
				"z": 0.4517747772,
				"element": "C" 
			},
			{
				"x": -0.3018056289,
				"y": 0.0953378652,
				"z": 0.3599583957,
				"element": "O" 
			},
			{
				"x": -0.3255309913,
				"y": -1.5310213283,
				"z": 0.0387509473,
				"element": "Si" 
			},
			{
				"x": -1.1735010795,
				"y": -1.8406900017,
				"z": -1.6190711845,
				"element": "C" 
			},
			{
				"x": 1.4586685251,
				"y": -2.1338720138,
				"z": -0.0220729754,
				"element": "C" 
			},
			{
				"x": -1.2652975473,
				"y": -2.4134827395,
				"z": 1.4156292079,
				"element": "C" 
			},
			{
				"x": -0.2629424928,
				"y": 3.5143074401,
				"z": 2.0508976818,
				"element": "H" 
			},
			{
				"x": -0.385784913,
				"y": 1.9488573989,
				"z": 2.8672722083,
				"element": "H" 
			},
			{
				"x": 1.0792566707,
				"y": 2.3634271156,
				"z": 1.9684572199,
				"element": "H" 
			},
			{
				"x": -0.3350632664,
				"y": 3.629313196,
				"z": -1.116869946,
				"element": "H" 
			},
			{
				"x": 1.0098226371,
				"y": 2.4809065584,
				"z": -1.1776463443,
				"element": "H" 
			},
			{
				"x": -0.4939549478,
				"y": 2.1284930664,
				"z": -2.03921104,
				"element": "H" 
			},
			{
				"x": -3.0845046714,
				"y": 1.3766853689,
				"z": -0.4427688905,
				"element": "H" 
			},
			{
				"x": -3.0493033003,
				"y": 1.3057258397,
				"z": 1.3248267453,
				"element": "H" 
			},
			{
				"x": -2.9584432345,
				"y": 2.8671480435,
				"z": 0.4994119345,
				"element": "H" 
			},
			{
				"x": -1.1902729882,
				"y": -2.9093328989,
				"z": -1.8628839225,
				"element": "H" 
			},
			{
				"x": -0.6548170949,
				"y": -1.3234102104,
				"z": -2.4337198883,
				"element": "H" 
			},
			{
				"x": -2.2110735483,
				"y": -1.4886614224,
				"z": -1.6082499868,
				"element": "H" 
			},
			{
				"x": 1.5098178873,
				"y": -3.2111168953,
				"z": -0.2181217356,
				"element": "H" 
			},
			{
				"x": 2.0211969233,
				"y": -1.6242151338,
				"z": -0.8117747483,
				"element": "H" 
			},
			{
				"x": 1.9714760849,
				"y": -1.9426202126,
				"z": 0.9266795061,
				"element": "H" 
			},
			{
				"x": -1.2841938827,
				"y": -3.4975825493,
				"z": 1.2542817457,
				"element": "H" 
			},
			{
				"x": -2.3037143885,
				"y": -2.068744322,
				"z": 1.4718702575,
				"element": "H" 
			},
			{
				"x": -0.8012426593,
				"y": -2.2301961551,
				"z": 2.3908035648,
				"element": "H" 
			}
		],
		 "valence_orbital": [ 
			{
				"type": "occ",
				"energy": -0.34232,
				"method": "rhf"
			},
			{
				"type": "occ",
				"energy": -0.29477,
				"method": "rhf"
			},
			{
				"type": "occ",
				"energy": -0.29448,
				"method": "rhf"
			},
			{
				"type": "occ",
				"energy": -0.26652,
				"method": "rhf"
			},
			{
				"type": "occ",
				"energy": -0.26493,
				"method": "rhf"
			},
			{
				"type": "unocc",
				"energy": 0.06024,
				"method": "rhf"
			},
			{
				"type": "unocc",
				"energy": 0.08061,
				"method": "rhf"
			},
			{
				"type": "unocc",
				"energy": 0.08743,
				"method": "rhf"
			},
			{
				"type": "unocc",
				"energy": 0.10653,
				"method": "rhf"
			},
			{
				"type": "unocc",
				"energy": 0.10755,
				"method": "rhf"
			}
		],
		"cosmo_sigma_profile": { 
			"-0.025": 0.0,
			"-0.024": 0.0,
			"-0.023": 0.0,
			"-0.022": 0.0,
			"-0.021": 0.0,
			"-0.02": 0.0,
			"-0.019": 0.0,
			"-0.018": 0.0,
			"-0.017": 0.0,
			"-0.016": 0.0,
			"-0.015": 0.0,
			"-0.014": 0.0,
			"-0.013": 0.0,
			"-0.012": 0.0,
			"-0.011": 0.0,
			"-0.01": 0.0,
			"-0.009": 0.0,
			"-0.008": 0.0,
			"-0.007": 0.0,
			"-0.006": 0.0,
			"-0.005": 0.0,
			"-0.004": 5.23254316378,
			"-0.003": 28.7656464017,
			"-0.002": 35.9603226202,
			"-0.001": 36.2761989119,
			"0.0": 35.4405638267,
			"0.001": 42.4171297925,
			"0.002": 32.8691427846,
			"0.003": 14.4059401013,
			"0.004": 4.04837483208,
			"0.005": 2.5400659046,
			"0.006": 1.90280626976,
			"0.007": 1.04936749895,
			"0.008": 1.39927530368,
			"0.009": 0.82613930268,
			"0.01": 0.00740472059975,
			"0.011": 0.0,
			"0.012": 0.0,
			"0.013": 0.0,
			"0.014": 0.0,
			"0.015": 0.0,
			"0.016": 0.0,
			"0.017": 0.0,
			"0.018": 0.0,
			"0.019": 0.0,
			"0.02": 0.0,
			"0.021": 0.0,
			"0.022": 0.0,
			"0.023": 0.0,
			"0.024": 0.0,
			"0.025": 0.0
		}
	}
}
