{
	 "smiles": "OC(=O)C=CC1=CC(=C(F)C=C1)C(F)(F)F", 
	 "Tm": 416.15, 
	 "num_atms": 22, 
	 "gaussian": { 
		 "optdone": 1, 
		 "sigma_profile": "yes", 
		 "theory": "DFT", 
		 "functional": "B3LYP", 
		 "basiset": "6-31G**", 
		 "properties": { 
			 "R2extent": 5605.8794, 
			 "electric_dipole_moment_norm": 1.93656124354, 
			 "electric_quadrupole_moment_norm": 29.2099654384, 
			 "total_energy": -934.480717727, 
			 "HOMO_LUMO_gap": 0.17006, 
			 "cosmo_polarized_energy": -16.73, 
			 "cosmo_cavitation_energy": 29.81, 
			 "cosmo_dispersion_energy": -20.85, 
			 "cosmo_repulsion_energy": 1.54, 
			 "cosmo_total_nonelectrostatic_energy": 10.5, 
			 "SMD_solvation_energy": 8.02 
		},
		"coords": [
			{
				"x": -4.1999613474,
				"y": -2.8926403803,
				"z": -1.2908215805,
				"element": "O" 
			},
			{
				"x": -3.6628288734,
				"y": -1.7679796991,
				"z": -1.8384090738,
				"element": "C" 
			},
			{
				"x": -3.9424321638,
				"y": -1.4592103347,
				"z": -2.9746986602,
				"element": "O" 
			},
			{
				"x": -2.748074511,
				"y": -0.9930508407,
				"z": -0.9584941455,
				"element": "C" 
			},
			{
				"x": -2.1759208399,
				"y": 0.1305110606,
				"z": -1.4264098879,
				"element": "C" 
			},
			{
				"x": -1.2554671561,
				"y": 1.0316439441,
				"z": -0.734933464,
				"element": "C" 
			},
			{
				"x": -0.8255220496,
				"y": 0.824886597,
				"z": 0.5889757748,
				"element": "C" 
			},
			{
				"x": 0.0513420409,
				"y": 1.7071274352,
				"z": 1.2096462542,
				"element": "C" 
			},
			{
				"x": 0.5076977026,
				"y": 2.8191792512,
				"z": 0.4919678559,
				"element": "C" 
			},
			{
				"x": 1.3537992048,
				"y": 3.6754653378,
				"z": 1.0839907346,
				"element": "F" 
			},
			{
				"x": 0.1061399795,
				"y": 3.0562893463,
				"z": -0.8147477521,
				"element": "C" 
			},
			{
				"x": -0.7724400488,
				"y": 2.1614754897,
				"z": -1.4195353994,
				"element": "C" 
			},
			{
				"x": 0.5138810832,
				"y": 1.4891571448,
				"z": 2.6276261483,
				"element": "C" 
			},
			{
				"x": -0.0279664383,
				"y": 0.3688656398,
				"z": 3.1554741659,
				"element": "F" 
			},
			{
				"x": 0.1674810858,
				"y": 2.5190178668,
				"z": 3.4257050011,
				"element": "F" 
			},
			{
				"x": 1.8539993848,
				"y": 1.3601821838,
				"z": 2.6975764061,
				"element": "F" 
			},
			{
				"x": -3.8881131098,
				"y": -3.011697344,
				"z": -0.3831055106,
				"element": "H" 
			},
			{
				"x": -2.5605284337,
				"y": -1.3540681206,
				"z": 0.0507421078,
				"element": "H" 
			},
			{
				"x": -2.4332541165,
				"y": 0.3994412738,
				"z": -2.4498079037,
				"element": "H" 
			},
			{
				"x": -1.1728849902,
				"y": -0.0324764122,
				"z": 1.1526354493,
				"element": "H" 
			},
			{
				"x": 0.4828881593,
				"y": 3.9293437311,
				"z": -1.3355353796,
				"element": "H" 
			},
			{
				"x": -1.0924345624,
				"y": 2.3387368296,
				"z": -2.4421411405,
				"element": "H" 
			}
		],
		 "valence_orbital": [ 
			{
				"type": "occ",
				"energy": -0.33078,
				"method": "rhf"
			},
			{
				"type": "occ",
				"energy": -0.31207,
				"method": "rhf"
			},
			{
				"type": "occ",
				"energy": -0.29579,
				"method": "rhf"
			},
			{
				"type": "occ",
				"energy": -0.27713,
				"method": "rhf"
			},
			{
				"type": "occ",
				"energy": -0.25403,
				"method": "rhf"
			},
			{
				"type": "unocc",
				"energy": -0.08397,
				"method": "rhf"
			},
			{
				"type": "unocc",
				"energy": -0.04905,
				"method": "rhf"
			},
			{
				"type": "unocc",
				"energy": 0.00066,
				"method": "rhf"
			},
			{
				"type": "unocc",
				"energy": 0.05049,
				"method": "rhf"
			},
			{
				"type": "unocc",
				"energy": 0.06716,
				"method": "rhf"
			}
		],
		"cosmo_sigma_profile": { 
			"-0.025": 0.0,
			"-0.024": 0.0,
			"-0.023": 0.0,
			"-0.022": 0.0,
			"-0.021": 0.0,
			"-0.02": 0.0430830237341,
			"-0.019": 1.15067288356,
			"-0.018": 1.09289663955,
			"-0.017": 1.35932888884,
			"-0.016": 0.810241711356,
			"-0.015": 1.28695784583,
			"-0.014": 0.68729471526,
			"-0.013": 1.00492519519,
			"-0.012": 1.52784104502,
			"-0.011": 1.03038150316,
			"-0.01": 2.62220588018,
			"-0.009": 3.09529905268,
			"-0.008": 8.06433769043,
			"-0.007": 7.56722740182,
			"-0.006": 6.56549438611,
			"-0.005": 6.49156251286,
			"-0.004": 7.89846504395,
			"-0.003": 9.65769115214,
			"-0.002": 13.1455017599,
			"-0.001": 19.367721056,
			"0.0": 21.0567989169,
			"0.001": 25.7014963065,
			"0.002": 33.4059475748,
			"0.003": 31.8977225502,
			"0.004": 3.04842051123,
			"0.005": 2.04668512426,
			"0.006": 2.80472398074,
			"0.007": 2.61122420773,
			"0.008": 1.45124270346,
			"0.009": 3.47370263775,
			"0.01": 4.1859440904,
			"0.011": 4.97823488851,
			"0.012": 5.80439623349,
			"0.013": 2.67293971108,
			"0.014": 0.4007939004,
			"0.015": 0.0,
			"0.016": 0.0,
			"0.017": 0.0,
			"0.018": 0.0,
			"0.019": 0.0,
			"0.02": 0.0,
			"0.021": 0.0,
			"0.022": 0.0,
			"0.023": 0.0,
			"0.024": 0.0,
			"0.025": 0.0
		}
	}
}
