{
	 "smiles": "ON=CC1=CC2=C(C=CC=C2)C=C1", 
	 "Tm": 442.15, 
	 "num_atms": 22, 
	 "gaussian": { 
		 "optdone": 1, 
		 "sigma_profile": "yes", 
		 "theory": "DFT", 
		 "functional": "B3LYP", 
		 "basiset": "6-31G**", 
		 "properties": { 
			 "R2extent": 3604.7655, 
			 "electric_dipole_moment_norm": 0.63727468175, 
			 "electric_quadrupole_moment_norm": 10.796703991, 
			 "total_energy": -554.523079982, 
			 "HOMO_LUMO_gap": 0.16261, 
			 "cosmo_polarized_energy": -9.09, 
			 "cosmo_cavitation_energy": 26.57, 
			 "cosmo_dispersion_energy": -19.72, 
			 "cosmo_repulsion_energy": 1.54, 
			 "cosmo_total_nonelectrostatic_energy": 8.39, 
			 "SMD_solvation_energy": 4.73 
		},
		"coords": [
			{
				"x": 5.1185753186,
				"y": 2.2951414439,
				"z": 1.8519543403,
				"element": "O" 
			},
			{
				"x": 4.2823803099,
				"y": 1.9753197522,
				"z": 0.7759183049,
				"element": "N" 
			},
			{
				"x": 3.1123727891,
				"y": 1.6485904443,
				"z": 1.1875527309,
				"element": "C" 
			},
			{
				"x": 2.0526690594,
				"y": 1.270271026,
				"z": 0.251750806,
				"element": "C" 
			},
			{
				"x": 0.8056328972,
				"y": 0.9258335137,
				"z": 0.7446032501,
				"element": "C" 
			},
			{
				"x": -0.2563067327,
				"y": 0.5515714092,
				"z": -0.1183205113,
				"element": "C" 
			},
			{
				"x": -0.0241389859,
				"y": 0.532196501,
				"z": -1.532509497,
				"element": "C" 
			},
			{
				"x": -1.0847977031,
				"y": 0.1582464829,
				"z": -2.3969668833,
				"element": "C" 
			},
			{
				"x": -2.3211044589,
				"y": -0.1820628995,
				"z": -1.8913594933,
				"element": "C" 
			},
			{
				"x": -2.5513399613,
				"y": -0.1631919313,
				"z": -0.4943785556,
				"element": "C" 
			},
			{
				"x": -1.5417932688,
				"y": 0.1954282813,
				"z": 0.3713259799,
				"element": "C" 
			},
			{
				"x": 1.2669772548,
				"y": 0.8904679771,
				"z": -2.0159918036,
				"element": "C" 
			},
			{
				"x": 2.2749407452,
				"y": 1.2481897986,
				"z": -1.1582637959,
				"element": "C" 
			},
			{
				"x": 5.9497620106,
				"y": 2.5180637324,
				"z": 1.4119401212,
				"element": "H" 
			},
			{
				"x": 2.8848878784,
				"y": 1.6473981122,
				"z": 2.2566897514,
				"element": "H" 
			},
			{
				"x": 0.6263649216,
				"y": 0.9395932245,
				"z": 1.8175655216,
				"element": "H" 
			},
			{
				"x": -0.9058206171,
				"y": 0.1444483902,
				"z": -3.4691577728,
				"element": "H" 
			},
			{
				"x": -3.1247133426,
				"y": -0.4665204648,
				"z": -2.5644144,
				"element": "H" 
			},
			{
				"x": -3.5295710176,
				"y": -0.4333159782,
				"z": -0.1073604777,
				"element": "H" 
			},
			{
				"x": -1.7157841141,
				"y": 0.2107690877,
				"z": 1.4443199201,
				"element": "H" 
			},
			{
				"x": 1.4435600723,
				"y": 0.8759311264,
				"z": -3.088647255,
				"element": "H" 
			},
			{
				"x": 3.2558469451,
				"y": 1.5200309703,
				"z": -1.5322502809,
				"element": "H" 
			}
		],
		 "valence_orbital": [ 
			{
				"type": "occ",
				"energy": -0.29109,
				"method": "rhf"
			},
			{
				"type": "occ",
				"energy": -0.27873,
				"method": "rhf"
			},
			{
				"type": "occ",
				"energy": -0.27305,
				"method": "rhf"
			},
			{
				"type": "occ",
				"energy": -0.23191,
				"method": "rhf"
			},
			{
				"type": "occ",
				"energy": -0.21305,
				"method": "rhf"
			},
			{
				"type": "unocc",
				"energy": -0.05044,
				"method": "rhf"
			},
			{
				"type": "unocc",
				"energy": -0.02838,
				"method": "rhf"
			},
			{
				"type": "unocc",
				"energy": 0.02427,
				"method": "rhf"
			},
			{
				"type": "unocc",
				"energy": 0.03792,
				"method": "rhf"
			},
			{
				"type": "unocc",
				"energy": 0.07538,
				"method": "rhf"
			}
		],
		"cosmo_sigma_profile": { 
			"-0.025": 0.0,
			"-0.024": 0.0,
			"-0.023": 0.0,
			"-0.022": 0.0,
			"-0.021": 0.0,
			"-0.02": 0.0,
			"-0.019": 0.0,
			"-0.018": 0.0962896111769,
			"-0.017": 1.16358706997,
			"-0.016": 0.739394438567,
			"-0.015": 0.79739592567,
			"-0.014": 0.88227524897,
			"-0.013": 1.16490884834,
			"-0.012": 0.568977923589,
			"-0.011": 0.628256851722,
			"-0.01": 0.135958014156,
			"-0.009": 0.607358863308,
			"-0.008": 1.69353979029,
			"-0.007": 5.06544223886,
			"-0.006": 14.7036357049,
			"-0.005": 14.5081477931,
			"-0.004": 15.3908360791,
			"-0.003": 12.9130014643,
			"-0.002": 11.55710268,
			"-0.001": 10.4869548945,
			"0.0": 9.83394862145,
			"0.001": 12.9788598647,
			"0.002": 15.2569701922,
			"0.003": 23.7888640855,
			"0.004": 26.099821775,
			"0.005": 14.1504501885,
			"0.006": 4.03585483263,
			"0.007": 3.20428617995,
			"0.008": 2.38914629615,
			"0.009": 3.13822796971,
			"0.01": 3.12993765747,
			"0.011": 1.72492041734,
			"0.012": 0.0,
			"0.013": 0.0,
			"0.014": 0.0,
			"0.015": 0.0,
			"0.016": 0.0,
			"0.017": 0.0,
			"0.018": 0.0,
			"0.019": 0.0,
			"0.02": 0.0,
			"0.021": 0.0,
			"0.022": 0.0,
			"0.023": 0.0,
			"0.024": 0.0,
			"0.025": 0.0
		}
	}
}
