{
	 "smiles": "OC(=O)C1=CC(=CC=C1)C1=NN=CO1", 
	 "Tm": 513.15, 
	 "num_atms": 20, 
	 "gaussian": { 
		 "optdone": 1, 
		 "sigma_profile": "yes", 
		 "theory": "DFT", 
		 "functional": "B3LYP", 
		 "basiset": "6-31G**", 
		 "properties": { 
			 "R2extent": 3604.8156, 
			 "electric_dipole_moment_norm": 2.23399931513, 
			 "electric_quadrupole_moment_norm": 33.0007304003, 
			 "total_energy": -681.720547065, 
			 "HOMO_LUMO_gap": 0.1883, 
			 "cosmo_polarized_energy": -19.84, 
			 "cosmo_cavitation_energy": 26.05, 
			 "cosmo_dispersion_energy": -19.24, 
			 "cosmo_repulsion_energy": 1.48, 
			 "cosmo_total_nonelectrostatic_energy": 8.29, 
			 "SMD_solvation_energy": 4.93 
		},
		"coords": [
			{
				"x": 0.0412936014,
				"y": -0.5926241305,
				"z": 3.3455549736,
				"element": "O" 
			},
			{
				"x": 0.2304952973,
				"y": 0.5337041809,
				"z": 2.6088387474,
				"element": "C" 
			},
			{
				"x": 0.3591363269,
				"y": 1.6021493122,
				"z": 3.1569872096,
				"element": "O" 
			},
			{
				"x": 0.2695391255,
				"y": 0.3699896235,
				"z": 1.1163986649,
				"element": "C" 
			},
			{
				"x": 0.5657562499,
				"y": -0.8480440296,
				"z": 0.4954286153,
				"element": "C" 
			},
			{
				"x": 0.6059397494,
				"y": -0.9353710648,
				"z": -0.9026114107,
				"element": "C" 
			},
			{
				"x": 0.3443935103,
				"y": 0.2043013106,
				"z": -1.6796315995,
				"element": "C" 
			},
			{
				"x": 0.0623270198,
				"y": 1.4184701496,
				"z": -1.0581985193,
				"element": "C" 
			},
			{
				"x": 0.034040364,
				"y": 1.507618365,
				"z": 0.3324859337,
				"element": "C" 
			},
			{
				"x": 0.9219121097,
				"y": -2.1940227924,
				"z": -1.5694277915,
				"element": "C" 
			},
			{
				"x": 0.998596829,
				"y": -2.4368922754,
				"z": -2.8448831887,
				"element": "N" 
			},
			{
				"x": 1.3282056949,
				"y": -3.7864612929,
				"z": -2.9752662358,
				"element": "N" 
			},
			{
				"x": 1.4227498609,
				"y": -4.2464378943,
				"z": -1.7725487421,
				"element": "C" 
			},
			{
				"x": 1.1805690319,
				"y": -3.3082462394,
				"z": -0.8184233667,
				"element": "O" 
			},
			{
				"x": -0.2141252997,
				"y": -1.3308783082,
				"z": 2.7754853869,
				"element": "H" 
			},
			{
				"x": 0.8078942311,
				"y": -1.7314333488,
				"z": 1.0788473928,
				"element": "H" 
			},
			{
				"x": 0.3743596429,
				"y": 0.1209528553,
				"z": -2.7606567297,
				"element": "H" 
			},
			{
				"x": -0.1317315647,
				"y": 2.2994567541,
				"z": -1.6617461469,
				"element": "H" 
			},
			{
				"x": -0.1688369692,
				"y": 2.447002313,
				"z": 0.8350245495,
				"element": "H" 
			},
			{
				"x": 1.6622851887,
				"y": -5.2478334879,
				"z": -1.4498577426,
				"element": "H" 
			}
		],
		 "valence_orbital": [ 
			{
				"type": "occ",
				"energy": -0.32133,
				"method": "rhf"
			},
			{
				"type": "occ",
				"energy": -0.29407,
				"method": "rhf"
			},
			{
				"type": "occ",
				"energy": -0.2898,
				"method": "rhf"
			},
			{
				"type": "occ",
				"energy": -0.28205,
				"method": "rhf"
			},
			{
				"type": "occ",
				"energy": -0.26228,
				"method": "rhf"
			},
			{
				"type": "unocc",
				"energy": -0.07398,
				"method": "rhf"
			},
			{
				"type": "unocc",
				"energy": -0.06035,
				"method": "rhf"
			},
			{
				"type": "unocc",
				"energy": -0.00557,
				"method": "rhf"
			},
			{
				"type": "unocc",
				"energy": 0.01734,
				"method": "rhf"
			},
			{
				"type": "unocc",
				"energy": 0.04822,
				"method": "rhf"
			}
		],
		"cosmo_sigma_profile": { 
			"-0.025": 0.0,
			"-0.024": 0.0,
			"-0.023": 0.0,
			"-0.022": 0.0,
			"-0.021": 0.0,
			"-0.02": 0.0,
			"-0.019": 0.643644947976,
			"-0.018": 1.05082281036,
			"-0.017": 0.98410420317,
			"-0.016": 1.27426303933,
			"-0.015": 1.03459188189,
			"-0.014": 0.562710092169,
			"-0.013": 1.5976926621,
			"-0.012": 3.35819928313,
			"-0.011": 2.82443170557,
			"-0.01": 3.18245374457,
			"-0.009": 2.37247417536,
			"-0.008": 3.73670157195,
			"-0.007": 7.14395969281,
			"-0.006": 10.1711784896,
			"-0.005": 10.8424832766,
			"-0.004": 12.8473054855,
			"-0.003": 15.3092265722,
			"-0.002": 11.710726314,
			"-0.001": 14.7428331846,
			"0.0": 14.7953640422,
			"0.001": 16.9320125417,
			"0.002": 11.6686756247,
			"0.003": 6.01123118643,
			"0.004": 3.69312847623,
			"0.005": 5.77128309218,
			"0.006": 3.66589274234,
			"0.007": 3.73755467733,
			"0.008": 5.12522971243,
			"0.009": 5.93351312006,
			"0.01": 8.55800140471,
			"0.011": 8.68020974918,
			"0.012": 5.91698116031,
			"0.013": 3.41512659767,
			"0.014": 1.45717275362,
			"0.015": 0.209028171957,
			"0.016": 0.0,
			"0.017": 0.0,
			"0.018": 0.0,
			"0.019": 0.0,
			"0.02": 0.0,
			"0.021": 0.0,
			"0.022": 0.0,
			"0.023": 0.0,
			"0.024": 0.0,
			"0.025": 0.0
		}
	}
}
