{
	 "smiles": "OC1=CN=CC=C1", 
	 "Tm": 400.15, 
	 "num_atms": 12, 
	 "gaussian": { 
		 "optdone": 1, 
		 "sigma_profile": "yes", 
		 "theory": "DFT", 
		 "functional": "B3LYP", 
		 "basiset": "6-31G**", 
		 "properties": { 
			 "R2extent": 1255.6131, 
			 "electric_dipole_moment_norm": 3.47608256663, 
			 "electric_quadrupole_moment_norm": 7.94629220391, 
			 "total_energy": -323.504928363, 
			 "HOMO_LUMO_gap": 0.21155, 
			 "cosmo_polarized_energy": -10.78, 
			 "cosmo_cavitation_energy": 16.07, 
			 "cosmo_dispersion_energy": -12.28, 
			 "cosmo_repulsion_energy": 1.03, 
			 "cosmo_total_nonelectrostatic_energy": 4.82, 
			 "SMD_solvation_energy": 1.95 
		},
		"coords": [
			{
				"x": -0.0951175461,
				"y": 1.1271233605,
				"z": -3.3471614604,
				"element": "O" 
			},
			{
				"x": -0.4348241931,
				"y": 1.205265218,
				"z": -2.0289625764,
				"element": "C" 
			},
			{
				"x": -1.8004530491,
				"y": 1.2480957686,
				"z": -1.7099209823,
				"element": "C" 
			},
			{
				"x": -2.2554515925,
				"y": 1.3247036999,
				"z": -0.4591897723,
				"element": "N" 
			},
			{
				"x": -1.3598447763,
				"y": 1.3622621788,
				"z": 0.5369855092,
				"element": "C" 
			},
			{
				"x": 0.0174941968,
				"y": 1.3248182236,
				"z": 0.3212285641,
				"element": "C" 
			},
			{
				"x": 0.4934009563,
				"y": 1.2447140242,
				"z": -0.9868132816,
				"element": "C" 
			},
			{
				"x": 0.867148363,
				"y": 1.1045206136,
				"z": -3.4306086639,
				"element": "H" 
			},
			{
				"x": -2.5321474322,
				"y": 1.2179110005,
				"z": -2.5146733677,
				"element": "H" 
			},
			{
				"x": -1.7606075226,
				"y": 1.4246890645,
				"z": 1.5463193604,
				"element": "H" 
			},
			{
				"x": 0.7073142435,
				"y": 1.3575808488,
				"z": 1.1589957259,
				"element": "H" 
			},
			{
				"x": 1.5612883522,
				"y": 1.2135159991,
				"z": -1.1940990551,
				"element": "H" 
			}
		],
		 "valence_orbital": [ 
			{
				"type": "occ",
				"energy": -0.36361,
				"method": "rhf"
			},
			{
				"type": "occ",
				"energy": -0.3623,
				"method": "rhf"
			},
			{
				"type": "occ",
				"energy": -0.28262,
				"method": "rhf"
			},
			{
				"type": "occ",
				"energy": -0.25182,
				"method": "rhf"
			},
			{
				"type": "occ",
				"energy": -0.23418,
				"method": "rhf"
			},
			{
				"type": "unocc",
				"energy": -0.02263,
				"method": "rhf"
			},
			{
				"type": "unocc",
				"energy": 0.00174,
				"method": "rhf"
			},
			{
				"type": "unocc",
				"energy": 0.0607,
				"method": "rhf"
			},
			{
				"type": "unocc",
				"energy": 0.09616,
				"method": "rhf"
			},
			{
				"type": "unocc",
				"energy": 0.1508,
				"method": "rhf"
			}
		],
		"cosmo_sigma_profile": { 
			"-0.025": 0.0,
			"-0.024": 0.0,
			"-0.023": 0.0,
			"-0.022": 0.0,
			"-0.021": 0.0,
			"-0.02": 0.0,
			"-0.019": 0.0644812807602,
			"-0.018": 1.14424786429,
			"-0.017": 0.91947720995,
			"-0.016": 1.21124600693,
			"-0.015": 1.35933482256,
			"-0.014": 1.02671621597,
			"-0.013": 1.00024237116,
			"-0.012": 0.438541882642,
			"-0.011": 0.6284127577,
			"-0.01": 1.5264025659,
			"-0.009": 1.90013148822,
			"-0.008": 1.53412960039,
			"-0.007": 3.04306071793,
			"-0.006": 7.50166354409,
			"-0.005": 9.13561807089,
			"-0.004": 6.5396903395,
			"-0.003": 5.41869706701,
			"-0.002": 6.3261984645,
			"-0.001": 5.31393018679,
			"0.0": 5.80949880548,
			"0.001": 8.84514555516,
			"0.002": 13.0089282558,
			"0.003": 13.0286726415,
			"0.004": 6.49474217173,
			"0.005": 3.76073870957,
			"0.006": 3.22538501692,
			"0.007": 2.27375278197,
			"0.008": 2.80717064723,
			"0.009": 2.94974389199,
			"0.01": 2.84930867104,
			"0.011": 2.51949104435,
			"0.012": 0.631991037707,
			"0.013": 1.12265291145,
			"0.014": 1.18271741205,
			"0.015": 0.773049829686,
			"0.016": 0.874539390912,
			"0.017": 0.459765529256,
			"0.018": 0.0,
			"0.019": 0.0,
			"0.02": 0.0,
			"0.021": 0.0,
			"0.022": 0.0,
			"0.023": 0.0,
			"0.024": 0.0,
			"0.025": 0.0
		}
	}
}
