{
	 "smiles": "CC(C)OP(=O)(CCP(=O)(OC(C)C)OC(C)C)OC(C)C", 
	 "Tm": 308.65, 
	 "num_atms": 54, 
	 "gaussian": { 
		 "optdone": 1, 
		 "sigma_profile": "yes", 
		 "theory": "DFT", 
		 "functional": "B3LYP", 
		 "basiset": "6-31G**", 
		 "properties": { 
			 "R2extent": 10893.2084, 
			 "electric_dipole_moment_norm": 4.38601642838, 
			 "electric_quadrupole_moment_norm": 20.3354219314, 
			 "total_energy": -1687.00786417, 
			 "HOMO_LUMO_gap": 0.32215, 
			 "cosmo_polarized_energy": -22.04, 
			 "cosmo_cavitation_energy": 58.45, 
			 "cosmo_dispersion_energy": -35.25, 
			 "cosmo_repulsion_energy": 2.77, 
			 "cosmo_total_nonelectrostatic_energy": 25.97, 
			 "SMD_solvation_energy": 12.57 
		},
		"coords": [
			{
				"x": 1.3591581853,
				"y": 0.7729971447,
				"z": 3.7278496947,
				"element": "C" 
			},
			{
				"x": 2.1546499527,
				"y": -0.2981339969,
				"z": 2.9913686021,
				"element": "C" 
			},
			{
				"x": 3.5891660033,
				"y": 0.1089376274,
				"z": 2.6845780366,
				"element": "C" 
			},
			{
				"x": 1.5031502328,
				"y": -0.5584035382,
				"z": 1.7081217804,
				"element": "O" 
			},
			{
				"x": 0.6383837182,
				"y": -1.902965267,
				"z": 1.4855868082,
				"element": "P" 
			},
			{
				"x": 1.2517347791,
				"y": -3.1846257204,
				"z": 1.9266455955,
				"element": "O" 
			},
			{
				"x": 0.2692141878,
				"y": -1.7867692649,
				"z": -0.292202098,
				"element": "C" 
			},
			{
				"x": -0.3235314452,
				"y": -0.4396232436,
				"z": -0.7323393974,
				"element": "C" 
			},
			{
				"x": -0.8374057347,
				"y": -0.4609578031,
				"z": -2.4788808879,
				"element": "P" 
			},
			{
				"x": -1.8325566292,
				"y": -1.4996391174,
				"z": -2.8438513753,
				"element": "O" 
			},
			{
				"x": 0.6074092701,
				"y": -0.5636663618,
				"z": -3.2153196802,
				"element": "O" 
			},
			{
				"x": 0.705124601,
				"y": -1.0433763437,
				"z": -4.5951551228,
				"element": "C" 
			},
			{
				"x": 0.7876207105,
				"y": -2.565160634,
				"z": -4.5974815586,
				"element": "C" 
			},
			{
				"x": 1.9319256458,
				"y": -0.3703969747,
				"z": -5.1950916385,
				"element": "C" 
			},
			{
				"x": -1.3954843698,
				"y": 1.0251313182,
				"z": -2.8058771081,
				"element": "O" 
			},
			{
				"x": -0.5735277339,
				"y": 2.2263198271,
				"z": -2.7995931114,
				"element": "C" 
			},
			{
				"x": -0.7005567127,
				"y": 2.8721219886,
				"z": -4.1745597631,
				"element": "C" 
			},
			{
				"x": -1.0598140623,
				"y": 3.1313390479,
				"z": -1.6725854077,
				"element": "C" 
			},
			{
				"x": -0.755111541,
				"y": -1.5311584623,
				"z": 2.2429476203,
				"element": "O" 
			},
			{
				"x": -1.6574432317,
				"y": -2.5929996643,
				"z": 2.688118793,
				"element": "C" 
			},
			{
				"x": -3.0704128588,
				"y": -2.0417192335,
				"z": 2.5542853274,
				"element": "C" 
			},
			{
				"x": -1.2933649607,
				"y": -2.9985751274,
				"z": 4.1112528695,
				"element": "C" 
			},
			{
				"x": 1.3402042878,
				"y": 1.7011035809,
				"z": 3.1472518952,
				"element": "H" 
			},
			{
				"x": 1.8160959591,
				"y": 0.9840205326,
				"z": 4.7004402182,
				"element": "H" 
			},
			{
				"x": 0.3299895751,
				"y": 0.4432478615,
				"z": 3.8872846801,
				"element": "H" 
			},
			{
				"x": 2.1576610916,
				"y": -1.2309446392,
				"z": 3.5662634908,
				"element": "H" 
			},
			{
				"x": 4.1126848045,
				"y": -0.6930131165,
				"z": 2.1577388412,
				"element": "H" 
			},
			{
				"x": 4.1285742828,
				"y": 0.3251612297,
				"z": 3.6124376994,
				"element": "H" 
			},
			{
				"x": 3.6064416356,
				"y": 1.0067889946,
				"z": 2.0581626221,
				"element": "H" 
			},
			{
				"x": 1.1974401396,
				"y": -1.9988346925,
				"z": -0.8310861999,
				"element": "H" 
			},
			{
				"x": -0.4256689545,
				"y": -2.6024171715,
				"z": -0.520800817,
				"element": "H" 
			},
			{
				"x": 0.3961177332,
				"y": 0.3673039737,
				"z": -0.5659525201,
				"element": "H" 
			},
			{
				"x": -1.2197620549,
				"y": -0.206952097,
				"z": -0.1483547645,
				"element": "H" 
			},
			{
				"x": -0.1946688682,
				"y": -0.7255261226,
				"z": -5.1351439858,
				"element": "H" 
			},
			{
				"x": 0.8798193865,
				"y": -2.9356437225,
				"z": -5.6239736653,
				"element": "H" 
			},
			{
				"x": -0.1125882872,
				"y": -2.9921470267,
				"z": -4.1510532294,
				"element": "H" 
			},
			{
				"x": 1.6632504734,
				"y": -2.899625434,
				"z": -4.0311715347,
				"element": "H" 
			},
			{
				"x": 1.8350046067,
				"y": 0.7188513565,
				"z": -5.1722616601,
				"element": "H" 
			},
			{
				"x": 2.0634929748,
				"y": -0.6837360122,
				"z": -6.235553077,
				"element": "H" 
			},
			{
				"x": 2.8308452765,
				"y": -0.6478745015,
				"z": -4.6354312064,
				"element": "H" 
			},
			{
				"x": 0.4712419711,
				"y": 1.9406933627,
				"z": -2.6290980164,
				"element": "H" 
			},
			{
				"x": -0.3493930412,
				"y": 2.1931292633,
				"z": -4.956332036,
				"element": "H" 
			},
			{
				"x": -0.1081032845,
				"y": 3.7916721227,
				"z": -4.2222602318,
				"element": "H" 
			},
			{
				"x": -1.7461165011,
				"y": 3.1204068688,
				"z": -4.3810443563,
				"element": "H" 
			},
			{
				"x": -2.1136787308,
				"y": 3.3861378319,
				"z": -1.8204842213,
				"element": "H" 
			},
			{
				"x": -0.4784695813,
				"y": 4.0589414223,
				"z": -1.6507274925,
				"element": "H" 
			},
			{
				"x": -0.9592584716,
				"y": 2.6416191601,
				"z": -0.699930517,
				"element": "H" 
			},
			{
				"x": -1.5320018118,
				"y": -3.4579898142,
				"z": 2.0257577123,
				"element": "H" 
			},
			{
				"x": -3.8005485994,
				"y": -2.7925036772,
				"z": 2.8725788641,
				"element": "H" 
			},
			{
				"x": -3.1943313805,
				"y": -1.1528441061,
				"z": 3.1811654551,
				"element": "H" 
			},
			{
				"x": -3.2880549163,
				"y": -1.7677495203,
				"z": 1.5181868444,
				"element": "H" 
			},
			{
				"x": -1.9739334562,
				"y": -3.7789239048,
				"z": 4.4682025291,
				"element": "H" 
			},
			{
				"x": -0.272776107,
				"y": -3.3860991712,
				"z": 4.1421586534,
				"element": "H" 
			},
			{
				"x": -1.3728381588,
				"y": -2.1384290318,
				"z": 4.7846120474,
				"element": "H" 
			}
		],
		 "valence_orbital": [ 
			{
				"type": "occ",
				"energy": -0.29201,
				"method": "rhf"
			},
			{
				"type": "occ",
				"energy": -0.28095,
				"method": "rhf"
			},
			{
				"type": "occ",
				"energy": -0.27649,
				"method": "rhf"
			},
			{
				"type": "occ",
				"energy": -0.27443,
				"method": "rhf"
			},
			{
				"type": "occ",
				"energy": -0.2677,
				"method": "rhf"
			},
			{
				"type": "unocc",
				"energy": 0.05445,
				"method": "rhf"
			},
			{
				"type": "unocc",
				"energy": 0.06229,
				"method": "rhf"
			},
			{
				"type": "unocc",
				"energy": 0.07736,
				"method": "rhf"
			},
			{
				"type": "unocc",
				"energy": 0.08318,
				"method": "rhf"
			},
			{
				"type": "unocc",
				"energy": 0.08685,
				"method": "rhf"
			}
		],
		"cosmo_sigma_profile": { 
			"-0.025": 0.0,
			"-0.024": 0.0,
			"-0.023": 0.0,
			"-0.022": 0.0,
			"-0.021": 0.0,
			"-0.02": 0.0,
			"-0.019": 0.0,
			"-0.018": 0.0,
			"-0.017": 0.0,
			"-0.016": 0.0,
			"-0.015": 0.0,
			"-0.014": 0.0,
			"-0.013": 0.0,
			"-0.012": 0.0,
			"-0.011": 0.0,
			"-0.01": 0.0,
			"-0.009": 0.296841924051,
			"-0.008": 1.62315479659,
			"-0.007": 4.03390756024,
			"-0.006": 6.75462068596,
			"-0.005": 16.6409224432,
			"-0.004": 53.3064567849,
			"-0.003": 63.4811129176,
			"-0.002": 55.2426107902,
			"-0.001": 53.7686534697,
			"0.0": 65.3687774617,
			"0.001": 36.048904285,
			"0.002": 12.0664644115,
			"0.003": 10.0037402414,
			"0.004": 8.03945179976,
			"0.005": 9.07457390599,
			"0.006": 7.59686361713,
			"0.007": 6.12927363554,
			"0.008": 4.3529111907,
			"0.009": 3.88233675231,
			"0.01": 3.33290557057,
			"0.011": 3.55807970411,
			"0.012": 3.88997333682,
			"0.013": 2.1787583373,
			"0.014": 5.46495367022,
			"0.015": 9.95218907829,
			"0.016": 2.4459649333,
			"0.017": 0.0,
			"0.018": 0.0,
			"0.019": 0.0,
			"0.02": 0.0,
			"0.021": 0.0,
			"0.022": 0.0,
			"0.023": 0.0,
			"0.024": 0.0,
			"0.025": 0.0
		}
	}
}
