{
	 "smiles": "CC1=CC=C(C=C1)N1N=C(NCC1=O)C(O)=O", 
	 "Tm": 372.15, 
	 "num_atms": 28, 
	 "gaussian": { 
		 "optdone": 1, 
		 "sigma_profile": "yes", 
		 "theory": "DFT", 
		 "functional": "B3LYP", 
		 "basiset": "6-31G**", 
		 "properties": { 
			 "R2extent": 6392.3198, 
			 "electric_dipole_moment_norm": 3.53036909968, 
			 "electric_quadrupole_moment_norm": 28.8862810225, 
			 "total_energy": -815.715228602, 
			 "HOMO_LUMO_gap": 0.14703, 
			 "cosmo_polarized_energy": -19.35, 
			 "cosmo_cavitation_energy": 32.71, 
			 "cosmo_dispersion_energy": -24.07, 
			 "cosmo_repulsion_energy": 1.87, 
			 "cosmo_total_nonelectrostatic_energy": 10.51, 
			 "SMD_solvation_energy": 6.16 
		},
		"coords": [
			{
				"x": 2.8881360531,
				"y": -2.9691819515,
				"z": 1.6993844719,
				"element": "C" 
			},
			{
				"x": 1.8361724732,
				"y": -1.8898767839,
				"z": 1.6042879042,
				"element": "C" 
			},
			{
				"x": 0.5661416378,
				"y": -2.1587564729,
				"z": 1.0786900602,
				"element": "C" 
			},
			{
				"x": -0.3967060429,
				"y": -1.1609129014,
				"z": 0.9559338824,
				"element": "C" 
			},
			{
				"x": -0.1072966796,
				"y": 0.1451168517,
				"z": 1.3684676221,
				"element": "C" 
			},
			{
				"x": 1.1512361215,
				"y": 0.4345428844,
				"z": 1.9089901898,
				"element": "C" 
			},
			{
				"x": 2.1019660991,
				"y": -0.5790566328,
				"z": 2.017153932,
				"element": "C" 
			},
			{
				"x": -1.1349163015,
				"y": 1.146214359,
				"z": 1.2506856996,
				"element": "N" 
			},
			{
				"x": -2.420856507,
				"y": 0.6307313917,
				"z": 1.3241331103,
				"element": "N" 
			},
			{
				"x": -3.3969230579,
				"y": 1.4090574076,
				"z": 0.9989325197,
				"element": "C" 
			},
			{
				"x": -3.2637658548,
				"y": 2.7180276558,
				"z": 0.614255036,
				"element": "N" 
			},
			{
				"x": -2.0743425242,
				"y": 3.4207478201,
				"z": 1.0582127643,
				"element": "C" 
			},
			{
				"x": -0.8610838109,
				"y": 2.4945312492,
				"z": 1.0616459587,
				"element": "C" 
			},
			{
				"x": 0.2611303779,
				"y": 2.9616836631,
				"z": 0.9592487659,
				"element": "O" 
			},
			{
				"x": -4.7645654542,
				"y": 0.7947543867,
				"z": 1.005119421,
				"element": "C" 
			},
			{
				"x": -5.7090993859,
				"y": 1.7328459165,
				"z": 0.714831623,
				"element": "O" 
			},
			{
				"x": -5.0267777224,
				"y": -0.3613946175,
				"z": 1.2262953111,
				"element": "O" 
			},
			{
				"x": 3.5840417126,
				"y": -2.7786384042,
				"z": 2.5221124343,
				"element": "H" 
			},
			{
				"x": 2.4383420511,
				"y": -3.9542144512,
				"z": 1.8575568599,
				"element": "H" 
			},
			{
				"x": 3.4824043274,
				"y": -3.0278702599,
				"z": 0.7785412876,
				"element": "H" 
			},
			{
				"x": 0.3209968902,
				"y": -3.168057019,
				"z": 0.7573516805,
				"element": "H" 
			},
			{
				"x": -1.3800974572,
				"y": -1.3892058257,
				"z": 0.5644626936,
				"element": "H" 
			},
			{
				"x": 1.3910455536,
				"y": 1.437540213,
				"z": 2.2305446112,
				"element": "H" 
			},
			{
				"x": 3.0740165467,
				"y": -0.3389415581,
				"z": 2.4409279784,
				"element": "H" 
			},
			{
				"x": -4.1183353022,
				"y": 3.2427513621,
				"z": 0.4944081992,
				"element": "H" 
			},
			{
				"x": -1.8374730149,
				"y": 4.241741067,
				"z": 0.3782621639,
				"element": "H" 
			},
			{
				"x": -2.1791752464,
				"y": 3.8453083055,
				"z": 2.071513683,
				"element": "H" 
			},
			{
				"x": -6.5626154823,
				"y": 1.2694123444,
				"z": 0.7161501364,
				"element": "H" 
			}
		],
		 "valence_orbital": [ 
			{
				"type": "occ",
				"energy": -0.29521,
				"method": "rhf"
			},
			{
				"type": "occ",
				"energy": -0.26364,
				"method": "rhf"
			},
			{
				"type": "occ",
				"energy": -0.24773,
				"method": "rhf"
			},
			{
				"type": "occ",
				"energy": -0.24233,
				"method": "rhf"
			},
			{
				"type": "occ",
				"energy": -0.20725,
				"method": "rhf"
			},
			{
				"type": "unocc",
				"energy": -0.06022,
				"method": "rhf"
			},
			{
				"type": "unocc",
				"energy": -0.0134,
				"method": "rhf"
			},
			{
				"type": "unocc",
				"energy": 0.00646,
				"method": "rhf"
			},
			{
				"type": "unocc",
				"energy": 0.03336,
				"method": "rhf"
			},
			{
				"type": "unocc",
				"energy": 0.05568,
				"method": "rhf"
			}
		],
		"cosmo_sigma_profile": { 
			"-0.025": 0.0,
			"-0.024": 0.0,
			"-0.023": 0.0,
			"-0.022": 0.0,
			"-0.021": 0.0,
			"-0.02": 0.0937501471699,
			"-0.019": 0.821882068626,
			"-0.018": 0.783833017732,
			"-0.017": 1.17092348056,
			"-0.016": 0.604626056423,
			"-0.015": 0.963043197752,
			"-0.014": 1.04615216859,
			"-0.013": 1.8805158572,
			"-0.012": 2.45439506532,
			"-0.011": 1.06257492429,
			"-0.01": 1.07639786772,
			"-0.009": 1.8904982153,
			"-0.008": 3.72840211398,
			"-0.007": 9.57119714793,
			"-0.006": 8.74520560711,
			"-0.005": 15.3916055739,
			"-0.004": 22.8049205863,
			"-0.003": 20.1372576921,
			"-0.002": 16.3635625829,
			"-0.001": 18.5670906538,
			"0.0": 21.8603078186,
			"0.001": 13.4700195796,
			"0.002": 11.8857310843,
			"0.003": 12.6457145301,
			"0.004": 12.787468883,
			"0.005": 15.778387837,
			"0.006": 7.12909169783,
			"0.007": 4.01309979125,
			"0.008": 5.00920473364,
			"0.009": 3.46569091495,
			"0.01": 6.89767208868,
			"0.011": 7.56642581297,
			"0.012": 5.82538586892,
			"0.013": 2.32838005215,
			"0.014": 0.929039708071,
			"0.015": 0.00967555819137,
			"0.016": 0.0,
			"0.017": 0.0,
			"0.018": 0.0,
			"0.019": 0.0,
			"0.02": 0.0,
			"0.021": 0.0,
			"0.022": 0.0,
			"0.023": 0.0,
			"0.024": 0.0,
			"0.025": 0.0
		}
	}
}
