{
	 "smiles": "CCC1NC2=CC(Cl)=C(C=C2S(=O)(=O)N1)S(N)(=O)=O", 
	 "Tm": 543.15, 
	 "num_atms": 31, 
	 "gaussian": { 
		 "optdone": 1, 
		 "sigma_profile": "yes", 
		 "theory": "DFT", 
		 "functional": "B3LYP", 
		 "basiset": "6-31G**", 
		 "properties": { 
			 "R2extent": 10066.3456, 
			 "electric_dipole_moment_norm": 10.8228522493, 
			 "electric_quadrupole_moment_norm": 34.9271914892, 
			 "total_energy": -2071.76530931, 
			 "HOMO_LUMO_gap": 0.18751, 
			 "cosmo_polarized_energy": -34.24, 
			 "cosmo_cavitation_energy": 38.16, 
			 "cosmo_dispersion_energy": -28.75, 
			 "cosmo_repulsion_energy": 2.12, 
			 "cosmo_total_nonelectrostatic_energy": 11.53, 
			 "SMD_solvation_energy": 3.48 
		},
		"coords": [
			{
				"x": 1.250194386,
				"y": 4.0643694396,
				"z": 0.1556209864,
				"element": "C" 
			},
			{
				"x": 2.3557748319,
				"y": 3.4697812531,
				"z": 1.0348271417,
				"element": "C" 
			},
			{
				"x": 2.695830619,
				"y": 2.0005368083,
				"z": 0.7567730227,
				"element": "C" 
			},
			{
				"x": 1.5430220315,
				"y": 1.1380694183,
				"z": 1.0596551253,
				"element": "N" 
			},
			{
				"x": 1.4864400141,
				"y": -0.1840398099,
				"z": 0.6823081339,
				"element": "C" 
			},
			{
				"x": 0.4672010408,
				"y": -1.0172433668,
				"z": 1.1891131532,
				"element": "C" 
			},
			{
				"x": 0.3581842372,
				"y": -2.337338032,
				"z": 0.7813000621,
				"element": "C" 
			},
			{
				"x": -0.9540939375,
				"y": -3.2764883144,
				"z": 1.4688383633,
				"element": "Cl" 
			},
			{
				"x": 1.2409556547,
				"y": -2.8874553172,
				"z": -0.165639212,
				"element": "C" 
			},
			{
				"x": 2.2452479978,
				"y": -2.0675433249,
				"z": -0.6783177366,
				"element": "C" 
			},
			{
				"x": 2.3769382916,
				"y": -0.7462260243,
				"z": -0.2639087323,
				"element": "C" 
			},
			{
				"x": 3.7133159474,
				"y": 0.2429085334,
				"z": -0.922141497,
				"element": "S" 
			},
			{
				"x": 3.7701809219,
				"y": 0.0737889472,
				"z": -2.3714966257,
				"element": "O" 
			},
			{
				"x": 4.894216312,
				"y": 0.0721201771,
				"z": -0.0795085656,
				"element": "O" 
			},
			{
				"x": 3.1199643625,
				"y": 1.8031988082,
				"z": -0.626184395,
				"element": "N" 
			},
			{
				"x": 1.2177693775,
				"y": -4.6080673733,
				"z": -0.720653932,
				"element": "S" 
			},
			{
				"x": -0.2599821004,
				"y": -4.8697923598,
				"z": -1.4571325217,
				"element": "N" 
			},
			{
				"x": 1.2531049891,
				"y": -5.4647773482,
				"z": 0.4585312828,
				"element": "O" 
			},
			{
				"x": 2.2143560695,
				"y": -4.6915860728,
				"z": -1.785686642,
				"element": "O" 
			},
			{
				"x": 0.3235736818,
				"y": 3.4856099415,
				"z": 0.2185599654,
				"element": "H" 
			},
			{
				"x": 1.0282076635,
				"y": 5.0881656675,
				"z": 0.4692042692,
				"element": "H" 
			},
			{
				"x": 1.5522654989,
				"y": 4.1111417797,
				"z": -0.8958422885,
				"element": "H" 
			},
			{
				"x": 3.2824657811,
				"y": 4.0389907762,
				"z": 0.91474816,
				"element": "H" 
			},
			{
				"x": 2.0777698023,
				"y": 3.5501291977,
				"z": 2.0940754722,
				"element": "H" 
			},
			{
				"x": 3.558123738,
				"y": 1.7155443181,
				"z": 1.3730435207,
				"element": "H" 
			},
			{
				"x": 0.9912754024,
				"y": 1.3946529103,
				"z": 1.8662523204,
				"element": "H" 
			},
			{
				"x": -0.2436587064,
				"y": -0.6220398543,
				"z": 1.9072077216,
				"element": "H" 
			},
			{
				"x": 2.9268998728,
				"y": -2.4781939762,
				"z": -1.4160691871,
				"element": "H" 
			},
			{
				"x": 2.3959668488,
				"y": 2.0191269345,
				"z": -1.3098302067,
				"element": "H" 
			},
			{
				"x": -1.045882297,
				"y": -4.8089202857,
				"z": -0.8179473605,
				"element": "H" 
			},
			{
				"x": -0.3779283327,
				"y": -4.3385234509,
				"z": -2.3134997982,
				"element": "H" 
			}
		],
		 "valence_orbital": [ 
			{
				"type": "occ",
				"energy": -0.31178,
				"method": "rhf"
			},
			{
				"type": "occ",
				"energy": -0.30645,
				"method": "rhf"
			},
			{
				"type": "occ",
				"energy": -0.30018,
				"method": "rhf"
			},
			{
				"type": "occ",
				"energy": -0.28068,
				"method": "rhf"
			},
			{
				"type": "occ",
				"energy": -0.24683,
				"method": "rhf"
			},
			{
				"type": "unocc",
				"energy": -0.05932,
				"method": "rhf"
			},
			{
				"type": "unocc",
				"energy": -0.0464,
				"method": "rhf"
			},
			{
				"type": "unocc",
				"energy": -0.00721,
				"method": "rhf"
			},
			{
				"type": "unocc",
				"energy": 0.0381,
				"method": "rhf"
			},
			{
				"type": "unocc",
				"energy": 0.04581,
				"method": "rhf"
			}
		],
		"cosmo_sigma_profile": { 
			"-0.025": 0.0,
			"-0.024": 0.0,
			"-0.023": 0.0,
			"-0.022": 0.0,
			"-0.021": 0.0,
			"-0.02": 0.0,
			"-0.019": 0.0,
			"-0.018": 0.0,
			"-0.017": 0.0,
			"-0.016": 0.888863006643,
			"-0.015": 3.59375502924,
			"-0.014": 3.63676342885,
			"-0.013": 5.01494926356,
			"-0.012": 5.41101084947,
			"-0.011": 5.64191675062,
			"-0.01": 4.32306724444,
			"-0.009": 5.52241720841,
			"-0.008": 6.43776951225,
			"-0.007": 8.87881704442,
			"-0.006": 10.1371294511,
			"-0.005": 12.0940965754,
			"-0.004": 15.2331548271,
			"-0.003": 19.3392030605,
			"-0.002": 20.9526266471,
			"-0.001": 26.4674712504,
			"0.0": 25.7026443771,
			"0.001": 14.3944064361,
			"0.002": 11.0378483622,
			"0.003": 9.94654193476,
			"0.004": 7.84148251019,
			"0.005": 7.0361001917,
			"0.006": 7.09244097306,
			"0.007": 8.95189645072,
			"0.008": 8.79812877587,
			"0.009": 10.4991828529,
			"0.01": 21.2962514259,
			"0.011": 17.1195351139,
			"0.012": 1.52472136302,
			"0.013": 0.0,
			"0.014": 0.0,
			"0.015": 0.0,
			"0.016": 0.0,
			"0.017": 0.0,
			"0.018": 0.0,
			"0.019": 0.0,
			"0.02": 0.0,
			"0.021": 0.0,
			"0.022": 0.0,
			"0.023": 0.0,
			"0.024": 0.0,
			"0.025": 0.0
		}
	}
}
