{
	 "smiles": "CC1=C(C)C=C(C=C1)C1=NN=C(S)O1", 
	 "Tm": 469.15, 
	 "num_atms": 24, 
	 "gaussian": { 
		 "optdone": 1, 
		 "sigma_profile": "yes", 
		 "theory": "DFT", 
		 "functional": "B3LYP", 
		 "basiset": "6-31G**", 
		 "properties": { 
			 "R2extent": 6232.917, 
			 "electric_dipole_moment_norm": 2.86297477111, 
			 "electric_quadrupole_moment_norm": 10.6411770862, 
			 "total_energy": -969.98508021, 
			 "HOMO_LUMO_gap": 0.17875, 
			 "cosmo_polarized_energy": -10.55, 
			 "cosmo_cavitation_energy": 30.31, 
			 "cosmo_dispersion_energy": -22.75, 
			 "cosmo_repulsion_energy": 1.73, 
			 "cosmo_total_nonelectrostatic_energy": 9.29, 
			 "SMD_solvation_energy": 3.27 
		},
		"coords": [
			{
				"x": 1.7669343178,
				"y": 0.2832025323,
				"z": 2.719545799,
				"element": "C" 
			},
			{
				"x": 0.857717785,
				"y": -0.3364947349,
				"z": 1.6874024836,
				"element": "C" 
			},
			{
				"x": 0.4456717036,
				"y": 0.397822361,
				"z": 0.5503171157,
				"element": "C" 
			},
			{
				"x": 0.9053939922,
				"y": 1.8207922838,
				"z": 0.3405944283,
				"element": "C" 
			},
			{
				"x": -0.3946560721,
				"y": -0.207613362,
				"z": -0.3823309209,
				"element": "C" 
			},
			{
				"x": -0.8394707498,
				"y": -1.529302485,
				"z": -0.2160812107,
				"element": "C" 
			},
			{
				"x": -0.4311864892,
				"y": -2.2547872484,
				"z": 0.9092532525,
				"element": "C" 
			},
			{
				"x": 0.4082945806,
				"y": -1.6526512084,
				"z": 1.8427800129,
				"element": "C" 
			},
			{
				"x": -1.7163935678,
				"y": -2.113939075,
				"z": -1.2206353624,
				"element": "C" 
			},
			{
				"x": -2.1835253557,
				"y": -1.5832665691,
				"z": -2.3110202958,
				"element": "N" 
			},
			{
				"x": -2.9773654789,
				"y": -2.5500269563,
				"z": -2.9325580164,
				"element": "N" 
			},
			{
				"x": -2.9248720026,
				"y": -3.5910808984,
				"z": -2.1617603184,
				"element": "C" 
			},
			{
				"x": -3.6920298368,
				"y": -5.1589851995,
				"z": -2.3438786067,
				"element": "S" 
			},
			{
				"x": -2.1537824102,
				"y": -3.4105726232,
				"z": -1.0588028376,
				"element": "O" 
			},
			{
				"x": 1.9851307115,
				"y": -0.419736663,
				"z": 3.5274269958,
				"element": "H" 
			},
			{
				"x": 2.7218982207,
				"y": 0.5963305902,
				"z": 2.2802398654,
				"element": "H" 
			},
			{
				"x": 1.3189320907,
				"y": 1.1791305732,
				"z": 3.1663206429,
				"element": "H" 
			},
			{
				"x": 0.5940685177,
				"y": 2.4715275838,
				"z": 1.166621192,
				"element": "H" 
			},
			{
				"x": 1.9984581441,
				"y": 1.8872891356,
				"z": 0.2815688998,
				"element": "H" 
			},
			{
				"x": 0.4951031689,
				"y": 2.2346787434,
				"z": -0.5836268636,
				"element": "H" 
			},
			{
				"x": -0.7191806931,
				"y": 0.3431503289,
				"z": -1.2597173506,
				"element": "H" 
			},
			{
				"x": -0.7665186256,
				"y": -3.2764866007,
				"z": 1.0512495784,
				"element": "H" 
			},
			{
				"x": 0.7236588091,
				"y": -2.218439166,
				"z": 2.715499786,
				"element": "H" 
			},
			{
				"x": -4.2806807601,
				"y": -4.8140413426,
				"z": -3.5050082695,
				"element": "H" 
			}
		],
		 "valence_orbital": [ 
			{
				"type": "occ",
				"energy": -0.32064,
				"method": "rhf"
			},
			{
				"type": "occ",
				"energy": -0.27954,
				"method": "rhf"
			},
			{
				"type": "occ",
				"energy": -0.27122,
				"method": "rhf"
			},
			{
				"type": "occ",
				"energy": -0.25234,
				"method": "rhf"
			},
			{
				"type": "occ",
				"energy": -0.22546,
				"method": "rhf"
			},
			{
				"type": "unocc",
				"energy": -0.04671,
				"method": "rhf"
			},
			{
				"type": "unocc",
				"energy": -0.00669,
				"method": "rhf"
			},
			{
				"type": "unocc",
				"energy": -0.00167,
				"method": "rhf"
			},
			{
				"type": "unocc",
				"energy": 0.0143,
				"method": "rhf"
			},
			{
				"type": "unocc",
				"energy": 0.05418,
				"method": "rhf"
			}
		],
		"cosmo_sigma_profile": { 
			"-0.025": 0.0,
			"-0.024": 0.0,
			"-0.023": 0.0,
			"-0.022": 0.0,
			"-0.021": 0.0,
			"-0.02": 0.0,
			"-0.019": 0.0,
			"-0.018": 0.0,
			"-0.017": 0.0,
			"-0.016": 0.0,
			"-0.015": 0.0,
			"-0.014": 0.048446275205,
			"-0.013": 1.45303550585,
			"-0.012": 1.59449426521,
			"-0.011": 1.55146205048,
			"-0.01": 1.33740455953,
			"-0.009": 1.17959758882,
			"-0.008": 1.11224779442,
			"-0.007": 1.67357218295,
			"-0.006": 4.3496280843,
			"-0.005": 13.2042296627,
			"-0.004": 23.0654790351,
			"-0.003": 19.956425146,
			"-0.002": 23.7054511175,
			"-0.001": 26.874756007,
			"0.0": 29.3790187665,
			"0.001": 19.3789547692,
			"0.002": 16.7290561547,
			"0.003": 14.1465567659,
			"0.004": 14.9853882244,
			"0.005": 6.91553450382,
			"0.006": 2.41577656315,
			"0.007": 2.16723077707,
			"0.008": 1.83217758771,
			"0.009": 1.99041700832,
			"0.01": 2.93281992314,
			"0.011": 3.14396660309,
			"0.012": 2.94417585024,
			"0.013": 2.45212602961,
			"0.014": 1.89941369721,
			"0.015": 0.345981454912,
			"0.016": 0.0,
			"0.017": 0.0,
			"0.018": 0.0,
			"0.019": 0.0,
			"0.02": 0.0,
			"0.021": 0.0,
			"0.022": 0.0,
			"0.023": 0.0,
			"0.024": 0.0,
			"0.025": 0.0
		}
	}
}
