{
	 "smiles": "SCCC1NC(=O)NC1=O", 
	 "Tm": 407.15, 
	 "num_atms": 18, 
	 "gaussian": { 
		 "optdone": 1, 
		 "sigma_profile": "yes", 
		 "theory": "DFT", 
		 "functional": "B3LYP", 
		 "basiset": "6-31G**", 
		 "properties": { 
			 "R2extent": 3153.0045, 
			 "electric_dipole_moment_norm": 2.84682929766, 
			 "electric_quadrupole_moment_norm": 16.9605711051, 
			 "total_energy": -853.529004398, 
			 "HOMO_LUMO_gap": 0.22937, 
			 "cosmo_polarized_energy": -19.59, 
			 "cosmo_cavitation_energy": 24.01, 
			 "cosmo_dispersion_energy": -18.13, 
			 "cosmo_repulsion_energy": 1.47, 
			 "cosmo_total_nonelectrostatic_energy": 7.34, 
			 "SMD_solvation_energy": 4.48 
		},
		"coords": [
			{
				"x": 1.3929059251,
				"y": 2.8264464754,
				"z": -4.1115870704,
				"element": "S" 
			},
			{
				"x": 1.3464570745,
				"y": 1.9383988851,
				"z": -2.494410469,
				"element": "C" 
			},
			{
				"x": -0.1031087669,
				"y": 1.5877020242,
				"z": -2.1543582673,
				"element": "C" 
			},
			{
				"x": -0.2331384636,
				"y": 0.8790884979,
				"z": -0.7986097558,
				"element": "C" 
			},
			{
				"x": 0.3194135642,
				"y": -0.468507851,
				"z": -0.7502362061,
				"element": "N" 
			},
			{
				"x": -0.5749040131,
				"y": -1.4032079003,
				"z": -0.2773377149,
				"element": "C" 
			},
			{
				"x": -0.3808899577,
				"y": -2.5728835353,
				"z": -0.0272647774,
				"element": "O" 
			},
			{
				"x": -1.7998014253,
				"y": -0.7152549038,
				"z": -0.1435040539,
				"element": "N" 
			},
			{
				"x": -1.7111297657,
				"y": 0.6281526976,
				"z": -0.4399694174,
				"element": "C" 
			},
			{
				"x": -2.6034721442,
				"y": 1.4479042328,
				"z": -0.4329530616,
				"element": "O" 
			},
			{
				"x": 2.7330120339,
				"y": 2.9544829704,
				"z": -4.181354975,
				"element": "H" 
			},
			{
				"x": 1.7753545853,
				"y": 2.580717711,
				"z": -1.7188008037,
				"element": "H" 
			},
			{
				"x": 1.9519647382,
				"y": 1.0306475076,
				"z": -2.5737496324,
				"element": "H" 
			},
			{
				"x": -0.5255740676,
				"y": 0.9442148504,
				"z": -2.9338710426,
				"element": "H" 
			},
			{
				"x": -0.7149424492,
				"y": 2.4949211834,
				"z": -2.107716069,
				"element": "H" 
			},
			{
				"x": 0.195898516,
				"y": 1.5163393939,
				"z": -0.0104258757,
				"element": "H" 
			},
			{
				"x": 1.3048221597,
				"y": -0.6734662342,
				"z": -0.6920228273,
				"element": "H" 
			},
			{
				"x": -2.6535675436,
				"y": -1.183796005,
				"z": 0.1239720194,
				"element": "H" 
			}
		],
		 "valence_orbital": [ 
			{
				"type": "occ",
				"energy": -0.2983,
				"method": "rhf"
			},
			{
				"type": "occ",
				"energy": -0.29638,
				"method": "rhf"
			},
			{
				"type": "occ",
				"energy": -0.27884,
				"method": "rhf"
			},
			{
				"type": "occ",
				"energy": -0.26921,
				"method": "rhf"
			},
			{
				"type": "occ",
				"energy": -0.24749,
				"method": "rhf"
			},
			{
				"type": "unocc",
				"energy": -0.01812,
				"method": "rhf"
			},
			{
				"type": "unocc",
				"energy": 0.01226,
				"method": "rhf"
			},
			{
				"type": "unocc",
				"energy": 0.0498,
				"method": "rhf"
			},
			{
				"type": "unocc",
				"energy": 0.05385,
				"method": "rhf"
			},
			{
				"type": "unocc",
				"energy": 0.07359,
				"method": "rhf"
			}
		],
		"cosmo_sigma_profile": { 
			"-0.025": 0.0,
			"-0.024": 0.0,
			"-0.023": 0.0,
			"-0.022": 0.0,
			"-0.021": 0.0,
			"-0.02": 0.0,
			"-0.019": 0.0,
			"-0.018": 0.0,
			"-0.017": 0.387366668663,
			"-0.016": 1.384207921,
			"-0.015": 2.15595894871,
			"-0.014": 1.66952037017,
			"-0.013": 2.06267681894,
			"-0.012": 2.24087538699,
			"-0.011": 2.36231862907,
			"-0.01": 2.35957494576,
			"-0.009": 4.16470147212,
			"-0.008": 7.42737840396,
			"-0.007": 9.87987696946,
			"-0.006": 10.4781651586,
			"-0.005": 12.467582047,
			"-0.004": 12.7177853645,
			"-0.003": 10.3897368211,
			"-0.002": 12.9472605379,
			"-0.001": 9.12384753804,
			"0.0": 6.73568664083,
			"0.001": 5.78857662597,
			"0.002": 5.39519556866,
			"0.003": 6.51250264585,
			"0.004": 6.05552508683,
			"0.005": 6.08288255005,
			"0.006": 5.79150201305,
			"0.007": 5.33436188723,
			"0.008": 4.1618817831,
			"0.009": 5.34873571429,
			"0.01": 5.68211535895,
			"0.011": 6.77590811912,
			"0.012": 10.3775245081,
			"0.013": 6.47362449033,
			"0.014": 0.606543199735,
			"0.015": 0.0,
			"0.016": 0.0,
			"0.017": 0.0,
			"0.018": 0.0,
			"0.019": 0.0,
			"0.02": 0.0,
			"0.021": 0.0,
			"0.022": 0.0,
			"0.023": 0.0,
			"0.024": 0.0,
			"0.025": 0.0
		}
	}
}
