{
	 "smiles": "CN(C)S(=O)(=O)C1=CC(CO)=CC=C1", 
	 "Tm": 339.15, 
	 "num_atms": 27, 
	 "gaussian": { 
		 "optdone": 1, 
		 "sigma_profile": "yes", 
		 "theory": "DFT", 
		 "functional": "B3LYP", 
		 "basiset": "6-31G**", 
		 "properties": { 
			 "R2extent": 3570.8023, 
			 "electric_dipole_moment_norm": 4.19506375875, 
			 "electric_quadrupole_moment_norm": 20.3196910075, 
			 "total_energy": -1029.31921111, 
			 "HOMO_LUMO_gap": 0.21386, 
			 "cosmo_polarized_energy": -17.08, 
			 "cosmo_cavitation_energy": 31.15, 
			 "cosmo_dispersion_energy": -22.53, 
			 "cosmo_repulsion_energy": 1.74, 
			 "cosmo_total_nonelectrostatic_energy": 10.35, 
			 "SMD_solvation_energy": 3.85 
		},
		"coords": [
			{
				"x": -3.0837470188,
				"y": -0.2535418355,
				"z": -2.0171864552,
				"element": "C" 
			},
			{
				"x": -1.7078380645,
				"y": 0.0771169939,
				"z": -2.3935910202,
				"element": "N" 
			},
			{
				"x": -0.8794547674,
				"y": -1.0658581664,
				"z": -2.7820146124,
				"element": "C" 
			},
			{
				"x": -0.946723368,
				"y": 1.2734233827,
				"z": -1.4718642755,
				"element": "S" 
			},
			{
				"x": 0.357095314,
				"y": 1.5030363011,
				"z": -2.0982032489,
				"element": "O" 
			},
			{
				"x": -1.9299990546,
				"y": 2.3448102565,
				"z": -1.3012812283,
				"element": "O" 
			},
			{
				"x": -0.6432179496,
				"y": 0.5579674109,
				"z": 0.1519593608,
				"element": "C" 
			},
			{
				"x": 0.5608048865,
				"y": -0.1089670982,
				"z": 0.3897249581,
				"element": "C" 
			},
			{
				"x": 0.7942491089,
				"y": -0.6984481199,
				"z": 1.6363158908,
				"element": "C" 
			},
			{
				"x": 2.0876232975,
				"y": -1.4486909895,
				"z": 1.9038976879,
				"element": "C" 
			},
			{
				"x": 2.4741189406,
				"y": -1.4501162007,
				"z": 3.2685380824,
				"element": "O" 
			},
			{
				"x": -0.1881197052,
				"y": -0.5997826191,
				"z": 2.6297522832,
				"element": "C" 
			},
			{
				"x": -1.3824493037,
				"y": 0.0805819236,
				"z": 2.3878222844,
				"element": "C" 
			},
			{
				"x": -1.621746406,
				"y": 0.6654634668,
				"z": 1.1439457337,
				"element": "C" 
			},
			{
				"x": -3.6352418691,
				"y": 0.6655764703,
				"z": -1.821435831,
				"element": "H" 
			},
			{
				"x": -3.1387458918,
				"y": -0.9126145742,
				"z": -1.1367773018,
				"element": "H" 
			},
			{
				"x": -3.551577633,
				"y": -0.7658182158,
				"z": -2.8629903009,
				"element": "H" 
			},
			{
				"x": 0.0944535434,
				"y": -0.708976321,
				"z": -3.1157654948,
				"element": "H" 
			},
			{
				"x": -0.7471611124,
				"y": -1.7939493742,
				"z": -1.9664593793,
				"element": "H" 
			},
			{
				"x": -1.3702725486,
				"y": -1.5700663367,
				"z": -3.6195944191,
				"element": "H" 
			},
			{
				"x": 1.3187183018,
				"y": -0.1335578712,
				"z": -0.3874719677,
				"element": "H" 
			},
			{
				"x": 1.9626796583,
				"y": -2.5059936731,
				"z": 1.6405187451,
				"element": "H" 
			},
			{
				"x": 2.8830668044,
				"y": -1.0529027131,
				"z": 1.2538560703,
				"element": "H" 
			},
			{
				"x": 2.6403402421,
				"y": -0.5337810634,
				"z": 3.5278451763,
				"element": "H" 
			},
			{
				"x": 0.005087032,
				"y": -1.0490378556,
				"z": 3.5987795651,
				"element": "H" 
			},
			{
				"x": -2.1273595455,
				"y": 0.163402641,
				"z": 3.1738089399,
				"element": "H" 
			},
			{
				"x": -2.5299828914,
				"y": 1.2245241806,
				"z": 0.9487707572,
				"element": "H" 
			}
		],
		 "valence_orbital": [ 
			{
				"type": "occ",
				"energy": -0.29952,
				"method": "rhf"
			},
			{
				"type": "occ",
				"energy": -0.29337,
				"method": "rhf"
			},
			{
				"type": "occ",
				"energy": -0.27681,
				"method": "rhf"
			},
			{
				"type": "occ",
				"energy": -0.26488,
				"method": "rhf"
			},
			{
				"type": "occ",
				"energy": -0.2535,
				"method": "rhf"
			},
			{
				"type": "unocc",
				"energy": -0.03964,
				"method": "rhf"
			},
			{
				"type": "unocc",
				"energy": -0.02591,
				"method": "rhf"
			},
			{
				"type": "unocc",
				"energy": 0.06187,
				"method": "rhf"
			},
			{
				"type": "unocc",
				"energy": 0.07126,
				"method": "rhf"
			},
			{
				"type": "unocc",
				"energy": 0.0818,
				"method": "rhf"
			}
		],
		"cosmo_sigma_profile": { 
			"-0.025": 0.0,
			"-0.024": 0.0,
			"-0.023": 0.0,
			"-0.022": 0.0,
			"-0.021": 0.0,
			"-0.02": 0.0,
			"-0.019": 0.0,
			"-0.018": 0.0,
			"-0.017": 0.0,
			"-0.016": 0.52815236711,
			"-0.015": 0.865876171042,
			"-0.014": 1.05505805471,
			"-0.013": 0.881777710797,
			"-0.012": 0.962894990645,
			"-0.011": 0.953669009448,
			"-0.01": 0.720427527229,
			"-0.009": 0.981698416846,
			"-0.008": 0.626764525228,
			"-0.007": 4.99434896286,
			"-0.006": 14.5623051963,
			"-0.005": 21.0727350216,
			"-0.004": 25.5061161529,
			"-0.003": 27.470455944,
			"-0.002": 27.9983982506,
			"-0.001": 10.7309578131,
			"0.0": 10.8694366104,
			"0.001": 10.505509243,
			"0.002": 12.9250691792,
			"0.003": 14.1744451848,
			"0.004": 6.02162516993,
			"0.005": 4.94061464954,
			"0.006": 5.79785422042,
			"0.007": 5.26844022678,
			"0.008": 4.69144691421,
			"0.009": 5.49841540066,
			"0.01": 7.47845938623,
			"0.011": 8.71480645717,
			"0.012": 6.12709556563,
			"0.013": 1.5773048177,
			"0.014": 1.37959088404,
			"0.015": 0.0,
			"0.016": 0.0,
			"0.017": 0.0,
			"0.018": 0.0,
			"0.019": 0.0,
			"0.02": 0.0,
			"0.021": 0.0,
			"0.022": 0.0,
			"0.023": 0.0,
			"0.024": 0.0,
			"0.025": 0.0
		}
	}
}
