{
	 "smiles": "OC(=O)C1=CC2=NSN=C2C(=C1)[N+]([O-])=O", 
	 "Tm": 473.15, 
	 "num_atms": 18, 
	 "gaussian": { 
		 "optdone": 1, 
		 "sigma_profile": "yes", 
		 "theory": "DFT", 
		 "functional": "B3LYP", 
		 "basiset": "6-31G**", 
		 "properties": { 
			 "R2extent": 4153.6545, 
			 "electric_dipole_moment_norm": 5.65171738589, 
			 "electric_quadrupole_moment_norm": 13.0503192842, 
			 "total_energy": -1131.75467805, 
			 "HOMO_LUMO_gap": 0.15244, 
			 "cosmo_polarized_energy": -21.36, 
			 "cosmo_cavitation_energy": 26.39, 
			 "cosmo_dispersion_energy": -20.2, 
			 "cosmo_repulsion_energy": 1.5, 
			 "cosmo_total_nonelectrostatic_energy": 7.69, 
			 "SMD_solvation_energy": 4.87 
		},
		"coords": [
			{
				"x": 1.5088599124,
				"y": -0.4044257073,
				"z": -3.7876185216,
				"element": "O" 
			},
			{
				"x": 1.5508032888,
				"y": -0.391867254,
				"z": -2.4333790362,
				"element": "C" 
			},
			{
				"x": 2.5254012437,
				"y": -0.7895212758,
				"z": -1.8435373063,
				"element": "O" 
			},
			{
				"x": 0.3429859356,
				"y": 0.1497297577,
				"z": -1.7174672353,
				"element": "C" 
			},
			{
				"x": -0.547376046,
				"y": 1.0197789909,
				"z": -2.3046920888,
				"element": "C" 
			},
			{
				"x": -1.6350926301,
				"y": 1.5086709813,
				"z": -1.5317327066,
				"element": "C" 
			},
			{
				"x": -2.5823528729,
				"y": 2.3416213118,
				"z": -1.9812849776,
				"element": "N" 
			},
			{
				"x": -3.6059194769,
				"y": 2.5844396439,
				"z": -0.7264490473,
				"element": "S" 
			},
			{
				"x": -2.8946922542,
				"y": 1.6573597833,
				"z": 0.4247316376,
				"element": "N" 
			},
			{
				"x": -1.8121481373,
				"y": 1.1179350479,
				"z": -0.1420179416,
				"element": "C" 
			},
			{
				"x": -0.8435462856,
				"y": 0.2231496619,
				"z": 0.4203350065,
				"element": "C" 
			},
			{
				"x": 0.1942324549,
				"y": -0.2311502773,
				"z": -0.3466174717,
				"element": "C" 
			},
			{
				"x": -0.9128150883,
				"y": -0.2163197899,
				"z": 1.8258961791,
				"element": "N" 
			},
			{
				"x": -1.6865574392,
				"y": 0.37941347,
				"z": 2.566212218,
				"element": "O" 
			},
			{
				"x": -0.1799228807,
				"y": -1.1473699002,
				"z": 2.1578760027,
				"element": "O" 
			},
			{
				"x": 0.6124359565,
				"y": -0.2333206226,
				"z": -4.1080119508,
				"element": "H" 
			},
			{
				"x": -0.4418555767,
				"y": 1.3753895471,
				"z": -3.3248847095,
				"element": "H" 
			},
			{
				"x": 0.9291598961,
				"y": -0.8954133686,
				"z": 0.0911419493,
				"element": "H" 
			}
		],
		 "valence_orbital": [ 
			{
				"type": "occ",
				"energy": -0.31567,
				"method": "rhf"
			},
			{
				"type": "occ",
				"energy": -0.30821,
				"method": "rhf"
			},
			{
				"type": "occ",
				"energy": -0.29934,
				"method": "rhf"
			},
			{
				"type": "occ",
				"energy": -0.29662,
				"method": "rhf"
			},
			{
				"type": "occ",
				"energy": -0.28895,
				"method": "rhf"
			},
			{
				"type": "unocc",
				"energy": -0.13651,
				"method": "rhf"
			},
			{
				"type": "unocc",
				"energy": -0.08545,
				"method": "rhf"
			},
			{
				"type": "unocc",
				"energy": -0.06331,
				"method": "rhf"
			},
			{
				"type": "unocc",
				"energy": -0.01912,
				"method": "rhf"
			},
			{
				"type": "unocc",
				"energy": -0.01582,
				"method": "rhf"
			}
		],
		"cosmo_sigma_profile": { 
			"-0.025": 0.0,
			"-0.024": 0.0,
			"-0.023": 0.0,
			"-0.022": 0.0,
			"-0.021": 0.0,
			"-0.02": 0.699883542572,
			"-0.019": 1.0562760253,
			"-0.018": 1.31509647275,
			"-0.017": 1.3988054565,
			"-0.016": 0.913367408876,
			"-0.015": 1.0975560063,
			"-0.014": 1.15882257461,
			"-0.013": 1.33096653553,
			"-0.012": 1.47548023264,
			"-0.011": 1.25372467293,
			"-0.01": 1.5745437619,
			"-0.009": 1.48322748235,
			"-0.008": 3.16311212085,
			"-0.007": 6.54504145418,
			"-0.006": 10.8389039337,
			"-0.005": 17.1571710904,
			"-0.004": 21.6461759277,
			"-0.003": 23.9254921661,
			"-0.002": 13.2482208123,
			"-0.001": 6.86882994191,
			"0.0": 5.62411777796,
			"0.001": 7.46107933764,
			"0.002": 6.53359393864,
			"0.003": 5.4976425747,
			"0.004": 4.80657447675,
			"0.005": 7.15963151437,
			"0.006": 8.19299059894,
			"0.007": 11.9149548441,
			"0.008": 12.5551232416,
			"0.009": 10.4976115951,
			"0.01": 8.08233490103,
			"0.011": 5.93196100078,
			"0.012": 2.95134320956,
			"0.013": 1.05709374822,
			"0.014": 0.165637310097,
			"0.015": 0.0,
			"0.016": 0.0,
			"0.017": 0.0,
			"0.018": 0.0,
			"0.019": 0.0,
			"0.02": 0.0,
			"0.021": 0.0,
			"0.022": 0.0,
			"0.023": 0.0,
			"0.024": 0.0,
			"0.025": 0.0
		}
	}
}
