{
	 "smiles": "CCN(CC)S(=O)(=O)C1=CC=C(C=C1)C(O)=O", 
	 "Tm": 466.15, 
	 "num_atms": 32, 
	 "gaussian": { 
		 "optdone": 1, 
		 "sigma_profile": "yes", 
		 "theory": "DFT", 
		 "functional": "B3LYP", 
		 "basiset": "6-31G**", 
		 "properties": { 
			 "R2extent": 5921.6603, 
			 "electric_dipole_moment_norm": 4.55864494121, 
			 "electric_quadrupole_moment_norm": 19.3725701367, 
			 "total_energy": -1181.99772346, 
			 "HOMO_LUMO_gap": 0.18039, 
			 "cosmo_polarized_energy": -17.44, 
			 "cosmo_cavitation_energy": 36.44, 
			 "cosmo_dispersion_energy": -25.82, 
			 "cosmo_repulsion_energy": 1.96, 
			 "cosmo_total_nonelectrostatic_energy": 12.59, 
			 "SMD_solvation_energy": 6.42 
		},
		"coords": [
			{
				"x": 3.0257179156,
				"y": 2.0991684743,
				"z": -0.2690371303,
				"element": "C" 
			},
			{
				"x": 1.7317586091,
				"y": 1.3622561463,
				"z": 0.0792070578,
				"element": "C" 
			},
			{
				"x": 1.219863896,
				"y": 0.5805856886,
				"z": -1.0599273197,
				"element": "N" 
			},
			{
				"x": 1.9886243798,
				"y": -0.6092444056,
				"z": -1.4863656404,
				"element": "C" 
			},
			{
				"x": 2.6038169295,
				"y": -0.4566010987,
				"z": -2.8768781879,
				"element": "C" 
			},
			{
				"x": -0.4316083722,
				"y": 0.5654823274,
				"z": -1.3425380042,
				"element": "S" 
			},
			{
				"x": -0.9324515777,
				"y": 1.905399855,
				"z": -1.0291649926,
				"element": "O" 
			},
			{
				"x": -0.6204964068,
				"y": -0.0529809019,
				"z": -2.6568014199,
				"element": "O" 
			},
			{
				"x": -1.1517959742,
				"y": -0.5635191216,
				"z": -0.1325397736,
				"element": "C" 
			},
			{
				"x": -1.4441263641,
				"y": -0.0971395714,
				"z": 1.1539147119,
				"element": "C" 
			},
			{
				"x": -1.9576031548,
				"y": -0.9824799618,
				"z": 2.0956633786,
				"element": "C" 
			},
			{
				"x": -2.182863714,
				"y": -2.3234142329,
				"z": 1.7539757664,
				"element": "C" 
			},
			{
				"x": -1.9028932589,
				"y": -2.7751122357,
				"z": 0.4576786816,
				"element": "C" 
			},
			{
				"x": -1.3866734793,
				"y": -1.8937872385,
				"z": -0.4908495886,
				"element": "C" 
			},
			{
				"x": -2.7335103976,
				"y": -3.2240035149,
				"z": 2.8055277852,
				"element": "C" 
			},
			{
				"x": -2.92391807,
				"y": -4.4923716417,
				"z": 2.3691077278,
				"element": "O" 
			},
			{
				"x": -2.990742618,
				"y": -2.8813842877,
				"z": 3.9418279109,
				"element": "O" 
			},
			{
				"x": 3.3630672042,
				"y": 2.680534901,
				"z": 0.5953217267,
				"element": "H" 
			},
			{
				"x": 2.8632050203,
				"y": 2.7821112452,
				"z": -1.1071125042,
				"element": "H" 
			},
			{
				"x": 3.8312692989,
				"y": 1.4086748019,
				"z": -0.5377260441,
				"element": "H" 
			},
			{
				"x": 1.889853045,
				"y": 0.7052555956,
				"z": 0.9485344105,
				"element": "H" 
			},
			{
				"x": 0.9652543735,
				"y": 2.0922172497,
				"z": 0.3430819833,
				"element": "H" 
			},
			{
				"x": 1.3489803527,
				"y": -1.4984556565,
				"z": -1.4565374135,
				"element": "H" 
			},
			{
				"x": 2.7683686643,
				"y": -0.7697831089,
				"z": -0.7337883761,
				"element": "H" 
			},
			{
				"x": 3.1792392008,
				"y": -1.3527245092,
				"z": -3.1348734523,
				"element": "H" 
			},
			{
				"x": 1.8173769995,
				"y": -0.3184232711,
				"z": -3.6214641714,
				"element": "H" 
			},
			{
				"x": 3.2742191725,
				"y": 0.4067302829,
				"z": -2.9168322383,
				"element": "H" 
			},
			{
				"x": -1.2959668517,
				"y": 0.9488723877,
				"z": 1.3978164225,
				"element": "H" 
			},
			{
				"x": -2.1997617888,
				"y": -0.6540685697,
				"z": 3.1005675326,
				"element": "H" 
			},
			{
				"x": -2.096344442,
				"y": -3.808674203,
				"z": 0.1949855813,
				"element": "H" 
			},
			{
				"x": -1.1921937576,
				"y": -2.2167242669,
				"z": -1.5072987566,
				"element": "H" 
			},
			{
				"x": -3.2828648343,
				"y": -4.9842971578,
				"z": 3.1259243367,
				"element": "H" 
			}
		],
		 "valence_orbital": [ 
			{
				"type": "occ",
				"energy": -0.30311,
				"method": "rhf"
			},
			{
				"type": "occ",
				"energy": -0.29004,
				"method": "rhf"
			},
			{
				"type": "occ",
				"energy": -0.28524,
				"method": "rhf"
			},
			{
				"type": "occ",
				"energy": -0.27961,
				"method": "rhf"
			},
			{
				"type": "occ",
				"energy": -0.25326,
				"method": "rhf"
			},
			{
				"type": "unocc",
				"energy": -0.07287,
				"method": "rhf"
			},
			{
				"type": "unocc",
				"energy": -0.03031,
				"method": "rhf"
			},
			{
				"type": "unocc",
				"energy": 0.02638,
				"method": "rhf"
			},
			{
				"type": "unocc",
				"energy": 0.05346,
				"method": "rhf"
			},
			{
				"type": "unocc",
				"energy": 0.07099,
				"method": "rhf"
			}
		],
		"cosmo_sigma_profile": { 
			"-0.025": 0.0,
			"-0.024": 0.0,
			"-0.023": 0.0,
			"-0.022": 0.0,
			"-0.021": 0.0,
			"-0.02": 0.0,
			"-0.019": 0.247408667894,
			"-0.018": 0.722122215871,
			"-0.017": 1.26871775212,
			"-0.016": 0.778694694129,
			"-0.015": 0.461638945178,
			"-0.014": 0.619334530569,
			"-0.013": 1.06676519338,
			"-0.012": 0.600717106813,
			"-0.011": 0.66129620014,
			"-0.01": 0.642897654147,
			"-0.009": 0.48158587904,
			"-0.008": 2.04136472615,
			"-0.007": 6.89236672315,
			"-0.006": 10.7653822043,
			"-0.005": 15.1010045251,
			"-0.004": 22.1896591249,
			"-0.003": 33.1603061267,
			"-0.002": 27.5755873917,
			"-0.001": 25.1126163507,
			"0.0": 28.730176056,
			"0.001": 27.9635140834,
			"0.002": 11.3546867572,
			"0.003": 6.68508212044,
			"0.004": 6.04635285949,
			"0.005": 8.21712795796,
			"0.006": 7.26379590957,
			"0.007": 6.77867707525,
			"0.008": 4.28162400567,
			"0.009": 5.73956404606,
			"0.01": 8.31352218679,
			"0.011": 11.9979627794,
			"0.012": 4.42741404865,
			"0.013": 0.0,
			"0.014": 0.0,
			"0.015": 0.0,
			"0.016": 0.0,
			"0.017": 0.0,
			"0.018": 0.0,
			"0.019": 0.0,
			"0.02": 0.0,
			"0.021": 0.0,
			"0.022": 0.0,
			"0.023": 0.0,
			"0.024": 0.0,
			"0.025": 0.0
		}
	}
}
