{
	 "smiles": "CCOC1=CC2=C(OC(C(O)=O)=C2C)C=C1", 
	 "Tm": 433.15, 
	 "num_atms": 28, 
	 "gaussian": { 
		 "optdone": 1, 
		 "sigma_profile": "yes", 
		 "theory": "DFT", 
		 "functional": "B3LYP", 
		 "basiset": "6-31G**", 
		 "properties": { 
			 "R2extent": 5358.6283, 
			 "electric_dipole_moment_norm": 6.14463354888, 
			 "electric_quadrupole_moment_norm": 18.6442621997, 
			 "total_energy": -765.409132662, 
			 "HOMO_LUMO_gap": 0.16381, 
			 "cosmo_polarized_energy": -13.28, 
			 "cosmo_cavitation_energy": 32.41, 
			 "cosmo_dispersion_energy": -23.85, 
			 "cosmo_repulsion_energy": 1.87, 
			 "cosmo_total_nonelectrostatic_energy": 10.43, 
			 "SMD_solvation_energy": 7.27 
		},
		"coords": [
			{
				"x": 3.1249725597,
				"y": 4.1840982288,
				"z": -1.0619545917,
				"element": "C" 
			},
			{
				"x": 1.8765785642,
				"y": 3.3983473316,
				"z": -1.4235892546,
				"element": "C" 
			},
			{
				"x": 1.9426885945,
				"y": 2.1496196167,
				"z": -0.7368245976,
				"element": "O" 
			},
			{
				"x": 0.9297511043,
				"y": 1.2465859545,
				"z": -0.8930694683,
				"element": "C" 
			},
			{
				"x": 1.0756399663,
				"y": 0.0511184769,
				"z": -0.184673243,
				"element": "C" 
			},
			{
				"x": 0.0743545557,
				"y": -0.9198487133,
				"z": -0.298627943,
				"element": "C" 
			},
			{
				"x": -1.0429937862,
				"y": -0.6672162768,
				"z": -1.1172012389,
				"element": "C" 
			},
			{
				"x": -1.9008907735,
				"y": -1.7355036149,
				"z": -1.0924852769,
				"element": "O" 
			},
			{
				"x": -1.3162574122,
				"y": -2.6699711671,
				"z": -0.2491373744,
				"element": "C" 
			},
			{
				"x": -2.0455751523,
				"y": -3.9296691698,
				"z": -0.0464887815,
				"element": "C" 
			},
			{
				"x": -3.2205529133,
				"y": -4.0371723726,
				"z": -0.7123641959,
				"element": "O" 
			},
			{
				"x": -1.6350603991,
				"y": -4.8187390473,
				"z": 0.6679219152,
				"element": "O" 
			},
			{
				"x": -0.1233262265,
				"y": -2.2381056137,
				"z": 0.2618475435,
				"element": "C" 
			},
			{
				"x": 0.7826573923,
				"y": -2.9741963801,
				"z": 1.2002996867,
				"element": "C" 
			},
			{
				"x": -1.2081598293,
				"y": 0.5110025499,
				"z": -1.8285592114,
				"element": "C" 
			},
			{
				"x": -0.2039383145,
				"y": 1.4723338692,
				"z": -1.7077787445,
				"element": "C" 
			},
			{
				"x": 3.1183914002,
				"y": 5.1543095855,
				"z": -1.5679784979,
				"element": "H" 
			},
			{
				"x": 4.0236643821,
				"y": 3.6400077201,
				"z": -1.3652459573,
				"element": "H" 
			},
			{
				"x": 3.1731650423,
				"y": 4.3551478427,
				"z": 0.01697388,
				"element": "H" 
			},
			{
				"x": 0.9709924993,
				"y": 3.9450554225,
				"z": -1.1236774581,
				"element": "H" 
			},
			{
				"x": 1.8231884425,
				"y": 3.2285258154,
				"z": -2.5085914637,
				"element": "H" 
			},
			{
				"x": 1.9562943555,
				"y": -0.0926770975,
				"z": 0.431834769,
				"element": "H" 
			},
			{
				"x": -3.3737319093,
				"y": -3.2277410858,
				"z": -1.2257309591,
				"element": "H" 
			},
			{
				"x": 1.1069686594,
				"y": -3.9250739371,
				"z": 0.7677299646,
				"element": "H" 
			},
			{
				"x": 0.2663077842,
				"y": -3.2193849952,
				"z": 2.132884145,
				"element": "H" 
			},
			{
				"x": 1.6669281567,
				"y": -2.3774247765,
				"z": 1.4363156253,
				"element": "H" 
			},
			{
				"x": -2.0786928208,
				"y": 0.6811016319,
				"z": -2.452460378,
				"element": "H" 
			},
			{
				"x": -0.3066639221,
				"y": 2.4024702021,
				"z": -2.2522688936,
				"element": "H" 
			}
		],
		 "valence_orbital": [ 
			{
				"type": "occ",
				"energy": -0.31256,
				"method": "rhf"
			},
			{
				"type": "occ",
				"energy": -0.29646,
				"method": "rhf"
			},
			{
				"type": "occ",
				"energy": -0.27314,
				"method": "rhf"
			},
			{
				"type": "occ",
				"energy": -0.23348,
				"method": "rhf"
			},
			{
				"type": "occ",
				"energy": -0.22274,
				"method": "rhf"
			},
			{
				"type": "unocc",
				"energy": -0.05893,
				"method": "rhf"
			},
			{
				"type": "unocc",
				"energy": 0.00279,
				"method": "rhf"
			},
			{
				"type": "unocc",
				"energy": 0.02296,
				"method": "rhf"
			},
			{
				"type": "unocc",
				"energy": 0.0816,
				"method": "rhf"
			},
			{
				"type": "unocc",
				"energy": 0.09104,
				"method": "rhf"
			}
		],
		"cosmo_sigma_profile": { 
			"-0.025": 0.0,
			"-0.024": 0.0,
			"-0.023": 0.0,
			"-0.022": 0.0,
			"-0.021": 0.0,
			"-0.02": 0.0,
			"-0.019": 0.0,
			"-0.018": 0.0,
			"-0.017": 0.0219929405179,
			"-0.016": 0.52481603925,
			"-0.015": 0.793994593586,
			"-0.014": 0.257547789647,
			"-0.013": 0.911023706292,
			"-0.012": 0.623937978507,
			"-0.011": 0.626049233052,
			"-0.01": 1.31897617006,
			"-0.009": 0.593011143068,
			"-0.008": 1.82220986154,
			"-0.007": 5.9255838869,
			"-0.006": 10.4308618143,
			"-0.005": 15.766630974,
			"-0.004": 21.6728700816,
			"-0.003": 22.497174375,
			"-0.002": 22.0120286737,
			"-0.001": 25.4017078741,
			"0.0": 25.2638640354,
			"0.001": 17.4623232839,
			"0.002": 15.8993934052,
			"0.003": 17.7587911114,
			"0.004": 11.0182154904,
			"0.005": 4.85566146789,
			"0.006": 4.14761987127,
			"0.007": 4.18443885353,
			"0.008": 4.43441901698,
			"0.009": 5.1403385287,
			"0.01": 6.38284168172,
			"0.011": 4.14101986338,
			"0.012": 4.17709754191,
			"0.013": 1.5994191879,
			"0.014": 0.0872883033234,
			"0.015": 0.0,
			"0.016": 0.0,
			"0.017": 0.0,
			"0.018": 0.0,
			"0.019": 0.0,
			"0.02": 0.0,
			"0.021": 0.0,
			"0.022": 0.0,
			"0.023": 0.0,
			"0.024": 0.0,
			"0.025": 0.0
		}
	}
}
