{
	 "smiles": "NNC1=NC=CC=N1", 
	 "Tm": 364.15, 
	 "num_atms": 14, 
	 "gaussian": { 
		 "optdone": 1, 
		 "sigma_profile": "yes", 
		 "theory": "DFT", 
		 "functional": "B3LYP", 
		 "basiset": "6-31G**", 
		 "properties": { 
			 "R2extent": 1536.796, 
			 "electric_dipole_moment_norm": 1.54669653132, 
			 "electric_quadrupole_moment_norm": 3.26214133661, 
			 "total_energy": -375.015859495, 
			 "HOMO_LUMO_gap": 0.19015, 
			 "cosmo_polarized_energy": -8.93, 
			 "cosmo_cavitation_energy": 18.19, 
			 "cosmo_dispersion_energy": -13.93, 
			 "cosmo_repulsion_energy": 1.17, 
			 "cosmo_total_nonelectrostatic_energy": 5.44, 
			 "SMD_solvation_energy": 1.27 
		},
		"coords": [
			{
				"x": 1.0979109744,
				"y": -2.6784867354,
				"z": 2.0904270428,
				"element": "N" 
			},
			{
				"x": 0.9359435171,
				"y": -1.82270371,
				"z": 0.990443041,
				"element": "N" 
			},
			{
				"x": 1.133635648,
				"y": -0.472089779,
				"z": 1.048208329,
				"element": "C" 
			},
			{
				"x": 1.6938613973,
				"y": 0.0264230327,
				"z": 2.1671156678,
				"element": "N" 
			},
			{
				"x": 1.8915997045,
				"y": 1.3485354341,
				"z": 2.1698418023,
				"element": "C" 
			},
			{
				"x": 1.5486220331,
				"y": 2.1726214715,
				"z": 1.1017430343,
				"element": "C" 
			},
			{
				"x": 0.9631794737,
				"y": 1.5346643956,
				"z": 0.0038733695,
				"element": "C" 
			},
			{
				"x": 0.7445883084,
				"y": 0.223490012,
				"z": -0.0437039074,
				"element": "N" 
			},
			{
				"x": 0.702417257,
				"y": -2.2212578829,
				"z": 2.9125842757,
				"element": "H" 
			},
			{
				"x": 2.0962307322,
				"y": -2.7575373452,
				"z": 2.2794110121,
				"element": "H" 
			},
			{
				"x": 0.3632167165,
				"y": -2.1693061747,
				"z": 0.2356364951,
				"element": "H" 
			},
			{
				"x": 2.3434925466,
				"y": 1.7606011244,
				"z": 3.0714467347,
				"element": "H" 
			},
			{
				"x": 1.717495089,
				"y": 3.2425090095,
				"z": 1.1220974677,
				"element": "H" 
			},
			{
				"x": 0.6536066019,
				"y": 2.1035371475,
				"z": -0.8723243646,
				"element": "H" 
			}
		],
		 "valence_orbital": [ 
			{
				"type": "occ",
				"energy": -0.31175,
				"method": "rhf"
			},
			{
				"type": "occ",
				"energy": -0.31124,
				"method": "rhf"
			},
			{
				"type": "occ",
				"energy": -0.27416,
				"method": "rhf"
			},
			{
				"type": "occ",
				"energy": -0.24594,
				"method": "rhf"
			},
			{
				"type": "occ",
				"energy": -0.22294,
				"method": "rhf"
			},
			{
				"type": "unocc",
				"energy": -0.03279,
				"method": "rhf"
			},
			{
				"type": "unocc",
				"energy": 0.00118,
				"method": "rhf"
			},
			{
				"type": "unocc",
				"energy": 0.09386,
				"method": "rhf"
			},
			{
				"type": "unocc",
				"energy": 0.10855,
				"method": "rhf"
			},
			{
				"type": "unocc",
				"energy": 0.1159,
				"method": "rhf"
			}
		],
		"cosmo_sigma_profile": { 
			"-0.025": 0.0,
			"-0.024": 0.0,
			"-0.023": 0.0,
			"-0.022": 0.0,
			"-0.021": 0.0,
			"-0.02": 0.0,
			"-0.019": 0.0,
			"-0.018": 0.0,
			"-0.017": 0.0,
			"-0.016": 0.0,
			"-0.015": 0.0,
			"-0.014": 0.128506968545,
			"-0.013": 0.968019556357,
			"-0.012": 0.74275328152,
			"-0.011": 1.71968301611,
			"-0.01": 3.09638807863,
			"-0.009": 2.95087037076,
			"-0.008": 3.40068968135,
			"-0.007": 7.1587502757,
			"-0.006": 8.78617969743,
			"-0.005": 9.17736912638,
			"-0.004": 7.97402222322,
			"-0.003": 6.1056986813,
			"-0.002": 7.5895432182,
			"-0.001": 7.98466830621,
			"0.0": 10.8083534752,
			"0.001": 11.1690172341,
			"0.002": 12.4385796458,
			"0.003": 8.21277256111,
			"0.004": 5.67018154069,
			"0.005": 3.97605062261,
			"0.006": 3.55793578615,
			"0.007": 3.60701095537,
			"0.008": 2.72876921946,
			"0.009": 2.47668851392,
			"0.01": 2.01391128426,
			"0.011": 2.7525178247,
			"0.012": 2.20882335882,
			"0.013": 1.61024258643,
			"0.014": 1.81404487243,
			"0.015": 1.15867971853,
			"0.016": 0.622225955535,
			"0.017": 0.200321723127,
			"0.018": 0.0,
			"0.019": 0.0,
			"0.02": 0.0,
			"0.021": 0.0,
			"0.022": 0.0,
			"0.023": 0.0,
			"0.024": 0.0,
			"0.025": 0.0
		}
	}
}
