{
	 "smiles": "ClCC(=O)NC1=CC2=C(CCC2)C=C1", 
	 "Tm": 386.15, 
	 "num_atms": 26, 
	 "gaussian": { 
		 "optdone": 1, 
		 "sigma_profile": "yes", 
		 "theory": "DFT", 
		 "functional": "B3LYP", 
		 "basiset": "6-31G**", 
		 "properties": { 
			 "R2extent": 4448.8613, 
			 "electric_dipole_moment_norm": 5.98189249485, 
			 "electric_quadrupole_moment_norm": 20.0528565364, 
			 "total_energy": -1016.59039479, 
			 "HOMO_LUMO_gap": 0.20883, 
			 "cosmo_polarized_energy": -13.97, 
			 "cosmo_cavitation_energy": 30.8, 
			 "cosmo_dispersion_energy": -22.6, 
			 "cosmo_repulsion_energy": 1.82, 
			 "cosmo_total_nonelectrostatic_energy": 10.02, 
			 "SMD_solvation_energy": 4.92 
		},
		"coords": [
			{
				"x": -4.593664543,
				"y": 0.5094509217,
				"z": 0.400123929,
				"element": "Cl" 
			},
			{
				"x": -2.8455245845,
				"y": 0.911702491,
				"z": 0.4459380134,
				"element": "C" 
			},
			{
				"x": -2.4387279733,
				"y": 1.5218171847,
				"z": 1.793116832,
				"element": "C" 
			},
			{
				"x": -3.2184848745,
				"y": 2.1099450193,
				"z": 2.5194750144,
				"element": "O" 
			},
			{
				"x": -1.1123517475,
				"y": 1.3769598567,
				"z": 2.1489169364,
				"element": "N" 
			},
			{
				"x": -0.0399876653,
				"y": 0.707491238,
				"z": 1.4985418445,
				"element": "C" 
			},
			{
				"x": 0.2855328702,
				"y": 0.9742657136,
				"z": 0.1600418515,
				"element": "C" 
			},
			{
				"x": 1.3482358565,
				"y": 0.2948627361,
				"z": -0.4304070501,
				"element": "C" 
			},
			{
				"x": 2.1172355185,
				"y": -0.61518903,
				"z": 0.3080688547,
				"element": "C" 
			},
			{
				"x": 3.2313608554,
				"y": -1.184362045,
				"z": -0.5452287111,
				"element": "C" 
			},
			{
				"x": 2.7799485014,
				"y": -0.8379382717,
				"z": -1.9872464278,
				"element": "C" 
			},
			{
				"x": 1.8873774056,
				"y": 0.4210176011,
				"z": -1.8404243513,
				"element": "C" 
			},
			{
				"x": 1.8173745961,
				"y": -0.8540920117,
				"z": 1.64834501,
				"element": "C" 
			},
			{
				"x": 0.732889258,
				"y": -0.2021347163,
				"z": 2.2368652998,
				"element": "C" 
			},
			{
				"x": -2.2862366945,
				"y": 0.0024804703,
				"z": 0.2269233043,
				"element": "H" 
			},
			{
				"x": -2.6645625929,
				"y": 1.6327429193,
				"z": -0.3541259104,
				"element": "H" 
			},
			{
				"x": -0.9401931154,
				"y": 1.7255715757,
				"z": 3.0844856349,
				"element": "H" 
			},
			{
				"x": -0.2761633042,
				"y": 1.7179190013,
				"z": -0.3972093668,
				"element": "H" 
			},
			{
				"x": 3.3851640171,
				"y": -2.2581984239,
				"z": -0.3951233043,
				"element": "H" 
			},
			{
				"x": 4.184052921,
				"y": -0.6921157953,
				"z": -0.3030150258,
				"element": "H" 
			},
			{
				"x": 3.6190165759,
				"y": -0.6866387865,
				"z": -2.6716506243,
				"element": "H" 
			},
			{
				"x": 2.1771100193,
				"y": -1.6622660948,
				"z": -2.384052044,
				"element": "H" 
			},
			{
				"x": 2.4845871249,
				"y": 1.3390395852,
				"z": -1.9347173082,
				"element": "H" 
			},
			{
				"x": 1.1017243084,
				"y": 0.4767234999,
				"z": -2.6012221351,
				"element": "H" 
			},
			{
				"x": 2.4064766439,
				"y": -1.5550331378,
				"z": 2.2338787257,
				"element": "H" 
			},
			{
				"x": 0.4666106228,
				"y": -0.4047215008,
				"z": 3.2704010086,
				"element": "H" 
			}
		],
		 "valence_orbital": [ 
			{
				"type": "occ",
				"energy": -0.29359,
				"method": "rhf"
			},
			{
				"type": "occ",
				"energy": -0.28845,
				"method": "rhf"
			},
			{
				"type": "occ",
				"energy": -0.26268,
				"method": "rhf"
			},
			{
				"type": "occ",
				"energy": -0.25925,
				"method": "rhf"
			},
			{
				"type": "occ",
				"energy": -0.23057,
				"method": "rhf"
			},
			{
				"type": "unocc",
				"energy": -0.02174,
				"method": "rhf"
			},
			{
				"type": "unocc",
				"energy": -0.02081,
				"method": "rhf"
			},
			{
				"type": "unocc",
				"energy": 0.01435,
				"method": "rhf"
			},
			{
				"type": "unocc",
				"energy": 0.04067,
				"method": "rhf"
			},
			{
				"type": "unocc",
				"energy": 0.0871,
				"method": "rhf"
			}
		],
		"cosmo_sigma_profile": { 
			"-0.025": 0.0,
			"-0.024": 0.0,
			"-0.023": 0.0,
			"-0.022": 0.0,
			"-0.021": 0.0,
			"-0.02": 0.0,
			"-0.019": 0.0,
			"-0.018": 0.0,
			"-0.017": 0.0,
			"-0.016": 0.0,
			"-0.015": 0.21224650218,
			"-0.014": 1.24391622496,
			"-0.013": 0.57700071878,
			"-0.012": 0.825072295243,
			"-0.011": 0.809753245394,
			"-0.01": 2.91144047231,
			"-0.009": 4.08183687913,
			"-0.008": 4.67365093899,
			"-0.007": 5.3695890444,
			"-0.006": 7.95686872196,
			"-0.005": 9.26164985949,
			"-0.004": 14.7488039617,
			"-0.003": 22.843264823,
			"-0.002": 25.1779697983,
			"-0.001": 26.7444524548,
			"0.0": 22.8583190176,
			"0.001": 15.9411760432,
			"0.002": 10.3901963635,
			"0.003": 12.0420249041,
			"0.004": 12.6592139046,
			"0.005": 12.8930341086,
			"0.006": 9.82120483508,
			"0.007": 2.72852863936,
			"0.008": 1.49342616807,
			"0.009": 1.86091495655,
			"0.01": 1.95600087112,
			"0.011": 2.28324079921,
			"0.012": 3.67893147848,
			"0.013": 5.74932530955,
			"0.014": 1.82977501971,
			"0.015": 0.115726278532,
			"0.016": 0.0,
			"0.017": 0.0,
			"0.018": 0.0,
			"0.019": 0.0,
			"0.02": 0.0,
			"0.021": 0.0,
			"0.022": 0.0,
			"0.023": 0.0,
			"0.024": 0.0,
			"0.025": 0.0
		}
	}
}
