{
	 "smiles": "COC(=O)C1=CC=C(N1C)S(Cl)(=O)=O", 
	 "Tm": 353.15, 
	 "num_atms": 22, 
	 "gaussian": { 
		 "optdone": 1, 
		 "sigma_profile": "yes", 
		 "theory": "DFT", 
		 "functional": "B3LYP", 
		 "basiset": "6-31G**", 
		 "properties": { 
			 "R2extent": 5010.0109, 
			 "electric_dipole_moment_norm": 4.62829422682, 
			 "electric_quadrupole_moment_norm": 19.9584859503, 
			 "total_energy": -1485.51465941, 
			 "HOMO_LUMO_gap": 0.16653, 
			 "cosmo_polarized_energy": -11.07, 
			 "cosmo_cavitation_energy": 29.87, 
			 "cosmo_dispersion_energy": -21.89, 
			 "cosmo_repulsion_energy": 1.67, 
			 "cosmo_total_nonelectrostatic_energy": 9.65, 
			 "SMD_solvation_energy": 5.55 
		},
		"coords": [
			{
				"x": 1.1041340044,
				"y": -3.5262817884,
				"z": 0.6586778971,
				"element": "C" 
			},
			{
				"x": 0.2678841163,
				"y": -2.4085919243,
				"z": 0.3029688843,
				"element": "O" 
			},
			{
				"x": 0.6799305976,
				"y": -1.7088192182,
				"z": -0.7773552899,
				"element": "C" 
			},
			{
				"x": 1.6767645047,
				"y": -1.98199297,
				"z": -1.4150599978,
				"element": "O" 
			},
			{
				"x": -0.1863365293,
				"y": -0.5637721161,
				"z": -1.1187922695,
				"element": "C" 
			},
			{
				"x": 0.0783297864,
				"y": 0.3045675415,
				"z": -2.1756136351,
				"element": "C" 
			},
			{
				"x": -0.9341439915,
				"y": 1.2709069812,
				"z": -2.2016368522,
				"element": "C" 
			},
			{
				"x": -1.8009443152,
				"y": 0.9478255588,
				"z": -1.1630693231,
				"element": "C" 
			},
			{
				"x": -1.350072902,
				"y": -0.1659318315,
				"z": -0.4893225868,
				"element": "N" 
			},
			{
				"x": -1.9780051216,
				"y": -0.7864571852,
				"z": 0.6845923179,
				"element": "C" 
			},
			{
				"x": -3.232030439,
				"y": 1.8820002592,
				"z": -0.7706214543,
				"element": "S" 
			},
			{
				"x": -2.6464239833,
				"y": 2.8822696207,
				"z": 1.0287133769,
				"element": "Cl" 
			},
			{
				"x": -4.3387546625,
				"y": 1.0127552836,
				"z": -0.3826319034,
				"element": "O" 
			},
			{
				"x": -3.3764449586,
				"y": 2.9138773851,
				"z": -1.7863153708,
				"element": "O" 
			},
			{
				"x": 0.6358523355,
				"y": -3.9729656392,
				"z": 1.5351622466,
				"element": "H" 
			},
			{
				"x": 2.1156599278,
				"y": -3.1864029516,
				"z": 0.8916690537,
				"element": "H" 
			},
			{
				"x": 1.1514631456,
				"y": -4.2444015156,
				"z": -0.1629542551,
				"element": "H" 
			},
			{
				"x": 0.9263171663,
				"y": 0.2114489104,
				"z": -2.8371445196,
				"element": "H" 
			},
			{
				"x": -1.0565853469,
				"y": 2.1022265781,
				"z": -2.8785959444,
				"element": "H" 
			},
			{
				"x": -2.1143406542,
				"y": -1.8514531767,
				"z": 0.5033501681,
				"element": "H" 
			},
			{
				"x": -1.3408804468,
				"y": -0.6556894603,
				"z": 1.5608391488,
				"element": "H" 
			},
			{
				"x": -2.9458722336,
				"y": -0.3229183417,
				"z": 0.8532403087,
				"element": "H" 
			}
		],
		 "valence_orbital": [ 
			{
				"type": "occ",
				"energy": -0.32248,
				"method": "rhf"
			},
			{
				"type": "occ",
				"energy": -0.31832,
				"method": "rhf"
			},
			{
				"type": "occ",
				"energy": -0.29688,
				"method": "rhf"
			},
			{
				"type": "occ",
				"energy": -0.28065,
				"method": "rhf"
			},
			{
				"type": "occ",
				"energy": -0.26222,
				"method": "rhf"
			},
			{
				"type": "unocc",
				"energy": -0.09569,
				"method": "rhf"
			},
			{
				"type": "unocc",
				"energy": -0.05358,
				"method": "rhf"
			},
			{
				"type": "unocc",
				"energy": 0.00614,
				"method": "rhf"
			},
			{
				"type": "unocc",
				"energy": 0.04929,
				"method": "rhf"
			},
			{
				"type": "unocc",
				"energy": 0.07261,
				"method": "rhf"
			}
		],
		"cosmo_sigma_profile": { 
			"-0.025": 0.0,
			"-0.024": 0.0,
			"-0.023": 0.0,
			"-0.022": 0.0,
			"-0.021": 0.0,
			"-0.02": 0.0,
			"-0.019": 0.0,
			"-0.018": 0.0,
			"-0.017": 0.0,
			"-0.016": 0.0,
			"-0.015": 0.0,
			"-0.014": 0.0,
			"-0.013": 0.0,
			"-0.012": 0.0,
			"-0.011": 0.0,
			"-0.01": 0.0,
			"-0.009": 0.608395354329,
			"-0.008": 2.13134001628,
			"-0.007": 6.25193838367,
			"-0.006": 13.7366116246,
			"-0.005": 18.6376106987,
			"-0.004": 23.9058950175,
			"-0.003": 22.8149284973,
			"-0.002": 17.4808966559,
			"-0.001": 16.8096648525,
			"0.0": 16.6425815142,
			"0.001": 17.9458138906,
			"0.002": 18.2600136225,
			"0.003": 16.5755321178,
			"0.004": 9.02796863817,
			"0.005": 4.99359679945,
			"0.006": 5.24317780082,
			"0.007": 8.62215422485,
			"0.008": 9.90736888028,
			"0.009": 3.54927807218,
			"0.01": 2.43480986402,
			"0.011": 4.23001098514,
			"0.012": 1.77775669314,
			"0.013": 0.0,
			"0.014": 0.0,
			"0.015": 0.0,
			"0.016": 0.0,
			"0.017": 0.0,
			"0.018": 0.0,
			"0.019": 0.0,
			"0.02": 0.0,
			"0.021": 0.0,
			"0.022": 0.0,
			"0.023": 0.0,
			"0.024": 0.0,
			"0.025": 0.0
		}
	}
}
