{
	 "smiles": "BrC1=CC=C2C=CC=CC2=C1", 
	 "Tm": 329.65, 
	 "num_atms": 18, 
	 "gaussian": { 
		 "optdone": 1, 
		 "sigma_profile": "yes", 
		 "theory": "DFT", 
		 "functional": "B3LYP", 
		 "basiset": "6-31G**", 
		 "properties": { 
			 "R2extent": 3613.9789, 
			 "electric_dipole_moment_norm": 2.02451322051, 
			 "electric_quadrupole_moment_norm": 6.70486583236, 
			 "total_energy": -2956.69900197, 
			 "HOMO_LUMO_gap": 0.17381, 
			 "cosmo_polarized_energy": -4.74, 
			 "cosmo_cavitation_energy": 24.09, 
			 "cosmo_dispersion_energy": -18.48, 
			 "cosmo_repulsion_energy": 1.45, 
			 "cosmo_total_nonelectrostatic_energy": 7.06, 
			 "SMD_solvation_energy": 2.68 
		},
		"coords": [
			{
				"x": -2.656632923,
				"y": 2.8391250522,
				"z": 1.3416866493,
				"element": "Br" 
			},
			{
				"x": -1.1147648754,
				"y": 1.9192377053,
				"z": 0.6818694101,
				"element": "C" 
			},
			{
				"x": -0.4588760477,
				"y": 2.4348986138,
				"z": -0.4608490061,
				"element": "C" 
			},
			{
				"x": 0.6516281185,
				"y": 1.7854895163,
				"z": -0.9485760078,
				"element": "C" 
			},
			{
				"x": 1.1509849461,
				"y": 0.6091639493,
				"z": -0.3274022553,
				"element": "C" 
			},
			{
				"x": 2.2952214153,
				"y": -0.0791302818,
				"z": -0.8117522981,
				"element": "C" 
			},
			{
				"x": 2.7509922442,
				"y": -1.2166435455,
				"z": -0.1841389688,
				"element": "C" 
			},
			{
				"x": 2.0814478015,
				"y": -1.7187185347,
				"z": 0.9592428806,
				"element": "C" 
			},
			{
				"x": 0.9695593567,
				"y": -1.0753866143,
				"z": 1.4541579905,
				"element": "C" 
			},
			{
				"x": 0.4740770205,
				"y": 0.1010185021,
				"z": 0.8290742316,
				"element": "C" 
			},
			{
				"x": -0.6714477165,
				"y": 0.7854120821,
				"z": 1.3184050597,
				"element": "C" 
			},
			{
				"x": -0.8364007038,
				"y": 3.3319446422,
				"z": -0.9378420052,
				"element": "H" 
			},
			{
				"x": 1.1621463729,
				"y": 2.1740583814,
				"z": -1.8258764202,
				"element": "H" 
			},
			{
				"x": 2.8063707915,
				"y": 0.3088165917,
				"z": -1.6890823202,
				"element": "H" 
			},
			{
				"x": 3.6269534171,
				"y": -1.7344610804,
				"z": -0.5635784753,
				"element": "H" 
			},
			{
				"x": 2.4506804775,
				"y": -2.6169222456,
				"z": 1.4455563047,
				"element": "H" 
			},
			{
				"x": 0.4546246023,
				"y": -1.4588765123,
				"z": 2.331019734,
				"element": "H" 
			},
			{
				"x": -1.1883642977,
				"y": 0.4059737784,
				"z": 2.1933854965,
				"element": "H" 
			}
		],
		 "valence_orbital": [ 
			{
				"type": "occ",
				"energy": -0.30256,
				"method": "rhf"
			},
			{
				"type": "occ",
				"energy": -0.28596,
				"method": "rhf"
			},
			{
				"type": "occ",
				"energy": -0.28593,
				"method": "rhf"
			},
			{
				"type": "occ",
				"energy": -0.24387,
				"method": "rhf"
			},
			{
				"type": "occ",
				"energy": -0.22148,
				"method": "rhf"
			},
			{
				"type": "unocc",
				"energy": -0.04767,
				"method": "rhf"
			},
			{
				"type": "unocc",
				"energy": -0.01828,
				"method": "rhf"
			},
			{
				"type": "unocc",
				"energy": 0.00834,
				"method": "rhf"
			},
			{
				"type": "unocc",
				"energy": 0.02303,
				"method": "rhf"
			},
			{
				"type": "unocc",
				"energy": 0.08799,
				"method": "rhf"
			}
		],
		"cosmo_sigma_profile": { 
			"-0.025": 0.0,
			"-0.024": 0.0,
			"-0.023": 0.0,
			"-0.022": 0.0,
			"-0.021": 0.0,
			"-0.02": 0.0,
			"-0.019": 0.0,
			"-0.018": 0.0,
			"-0.017": 0.0,
			"-0.016": 0.0,
			"-0.015": 0.0,
			"-0.014": 0.0,
			"-0.013": 0.0,
			"-0.012": 0.0,
			"-0.011": 0.0,
			"-0.01": 0.0,
			"-0.009": 0.0,
			"-0.008": 0.0492647946734,
			"-0.007": 5.12319774814,
			"-0.006": 14.3493809041,
			"-0.005": 13.0818389872,
			"-0.004": 15.3420937379,
			"-0.003": 11.984229978,
			"-0.002": 11.3484823614,
			"-0.001": 10.8031997723,
			"0.0": 10.6169167436,
			"0.001": 14.3147373582,
			"0.002": 19.9228725317,
			"0.003": 31.9841165606,
			"0.004": 24.7962349103,
			"0.005": 13.4514370167,
			"0.006": 0.00826119618243,
			"0.007": 0.0,
			"0.008": 0.0,
			"0.009": 0.0,
			"0.01": 0.0,
			"0.011": 0.0,
			"0.012": 0.0,
			"0.013": 0.0,
			"0.014": 0.0,
			"0.015": 0.0,
			"0.016": 0.0,
			"0.017": 0.0,
			"0.018": 0.0,
			"0.019": 0.0,
			"0.02": 0.0,
			"0.021": 0.0,
			"0.022": 0.0,
			"0.023": 0.0,
			"0.024": 0.0,
			"0.025": 0.0
		}
	}
}
