{
	 "smiles": "ClC1=CC(N2CC(=O)NC(=O)C2)=C(Cl)C=C1", 
	 "Tm": 413.15, 
	 "num_atms": 24, 
	 "gaussian": { 
		 "optdone": 1, 
		 "sigma_profile": "yes", 
		 "theory": "DFT", 
		 "functional": "B3LYP", 
		 "basiset": "6-31G**", 
		 "properties": { 
			 "R2extent": 4563.1166, 
			 "electric_dipole_moment_norm": 1.9452918984, 
			 "electric_quadrupole_moment_norm": 12.7753761099, 
			 "total_energy": -1566.23033674, 
			 "HOMO_LUMO_gap": 0.18888, 
			 "cosmo_polarized_energy": -15.04, 
			 "cosmo_cavitation_energy": 31.58, 
			 "cosmo_dispersion_energy": -22.84, 
			 "cosmo_repulsion_energy": 1.8, 
			 "cosmo_total_nonelectrostatic_energy": 10.54, 
			 "SMD_solvation_energy": 4.98 
		},
		"coords": [
			{
				"x": -3.5174035674,
				"y": 1.0833428151,
				"z": -2.4523175472,
				"element": "Cl" 
			},
			{
				"x": -2.8336093829,
				"y": 0.5028512518,
				"z": -0.94381835,
				"element": "C" 
			},
			{
				"x": -1.5042493384,
				"y": 0.087411308,
				"z": -0.9214293507,
				"element": "C" 
			},
			{
				"x": -0.9194947276,
				"y": -0.3896517748,
				"z": 0.2652420232,
				"element": "C" 
			},
			{
				"x": 0.4149446538,
				"y": -0.8630715507,
				"z": 0.3082867884,
				"element": "N" 
			},
			{
				"x": 1.0160533793,
				"y": -1.3243580308,
				"z": -0.9347743964,
				"element": "C" 
			},
			{
				"x": 1.6545244548,
				"y": -0.2169886317,
				"z": -1.7748875666,
				"element": "C" 
			},
			{
				"x": 1.7879777979,
				"y": -0.2709008111,
				"z": -2.9807642272,
				"element": "O" 
			},
			{
				"x": 2.1065534001,
				"y": 0.8733572935,
				"z": -1.0334714418,
				"element": "N" 
			},
			{
				"x": 2.0614533026,
				"y": 1.0291737091,
				"z": 0.3540166106,
				"element": "C" 
			},
			{
				"x": 2.5583395829,
				"y": 1.9930233381,
				"z": 0.8984932104,
				"element": "O" 
			},
			{
				"x": 1.3786315127,
				"y": -0.1096532842,
				"z": 1.1133148781,
				"element": "C" 
			},
			{
				"x": -1.7358964833,
				"y": -0.4332300216,
				"z": 1.4171645053,
				"element": "C" 
			},
			{
				"x": -1.1323419055,
				"y": -1.1111256313,
				"z": 2.9208385017,
				"element": "Cl" 
			},
			{
				"x": -3.0547915903,
				"y": 0.0120543918,
				"z": 1.3871695096,
				"element": "C" 
			},
			{
				"x": -3.6203498548,
				"y": 0.4836700638,
				"z": 0.2040433556,
				"element": "C" 
			},
			{
				"x": -0.9252689764,
				"y": 0.1449609946,
				"z": -1.8350742797,
				"element": "H" 
			},
			{
				"x": 0.2868257863,
				"y": -1.8475224091,
				"z": -1.5538239765,
				"element": "H" 
			},
			{
				"x": 1.8097040226,
				"y": -2.0449538485,
				"z": -0.6894179844,
				"element": "H" 
			},
			{
				"x": 2.552353456,
				"y": 1.6223361013,
				"z": -1.555332371,
				"element": "H" 
			},
			{
				"x": 2.1637304258,
				"y": -0.7901376214,
				"z": 1.4718453699,
				"element": "H" 
			},
			{
				"x": 0.9067043866,
				"y": 0.32282695,
				"z": 1.9932410815,
				"element": "H" 
			},
			{
				"x": -3.6488427246,
				"y": -0.0371123532,
				"z": 2.2928943259,
				"element": "H" 
			},
			{
				"x": -4.65134761,
				"y": 0.8154977512,
				"z": 0.1751613312,
				"element": "H" 
			}
		],
		 "valence_orbital": [ 
			{
				"type": "occ",
				"energy": -0.30226,
				"method": "rhf"
			},
			{
				"type": "occ",
				"energy": -0.29103,
				"method": "rhf"
			},
			{
				"type": "occ",
				"energy": -0.27679,
				"method": "rhf"
			},
			{
				"type": "occ",
				"energy": -0.25827,
				"method": "rhf"
			},
			{
				"type": "occ",
				"energy": -0.23199,
				"method": "rhf"
			},
			{
				"type": "unocc",
				"energy": -0.04311,
				"method": "rhf"
			},
			{
				"type": "unocc",
				"energy": -0.03369,
				"method": "rhf"
			},
			{
				"type": "unocc",
				"energy": -0.02918,
				"method": "rhf"
			},
			{
				"type": "unocc",
				"energy": 0.00838,
				"method": "rhf"
			},
			{
				"type": "unocc",
				"energy": 0.0155,
				"method": "rhf"
			}
		],
		"cosmo_sigma_profile": { 
			"-0.025": 0.0,
			"-0.024": 0.0,
			"-0.023": 0.0,
			"-0.022": 0.0,
			"-0.021": 0.0,
			"-0.02": 0.0,
			"-0.019": 0.0,
			"-0.018": 0.0,
			"-0.017": 0.0,
			"-0.016": 0.371151731924,
			"-0.015": 1.09264011683,
			"-0.014": 0.891201404945,
			"-0.013": 0.607796210568,
			"-0.012": 1.087129484,
			"-0.011": 1.98504337492,
			"-0.01": 2.43662003801,
			"-0.009": 4.35887218467,
			"-0.008": 9.71635186304,
			"-0.007": 11.1717819289,
			"-0.006": 13.9504463509,
			"-0.005": 14.3497450045,
			"-0.004": 12.7778020934,
			"-0.003": 13.2003443229,
			"-0.002": 13.0132725904,
			"-0.001": 13.9745130987,
			"0.0": 16.7031955364,
			"0.001": 23.9988502994,
			"0.002": 22.4686075855,
			"0.003": 15.5726173574,
			"0.004": 19.4944727584,
			"0.005": 8.77963023373,
			"0.006": 3.58840067408,
			"0.007": 2.73064049431,
			"0.008": 2.88324896632,
			"0.009": 4.49409550677,
			"0.01": 4.15060137626,
			"0.011": 9.02219218748,
			"0.012": 7.45799686912,
			"0.013": 0.613641156147,
			"0.014": 0.0,
			"0.015": 0.0,
			"0.016": 0.0,
			"0.017": 0.0,
			"0.018": 0.0,
			"0.019": 0.0,
			"0.02": 0.0,
			"0.021": 0.0,
			"0.022": 0.0,
			"0.023": 0.0,
			"0.024": 0.0,
			"0.025": 0.0
		}
	}
}
