{
	 "smiles": "COC1=CC=C(C=C2N(C)C(=N)NC2=O)C=C1OC", 
	 "Tm": 517.15, 
	 "num_atms": 34, 
	 "gaussian": { 
		 "optdone": 1, 
		 "sigma_profile": "yes", 
		 "theory": "DFT", 
		 "functional": "B3LYP", 
		 "basiset": "6-31G**", 
		 "properties": { 
			 "R2extent": 7508.6073, 
			 "electric_dipole_moment_norm": 3.84874514355, 
			 "electric_quadrupole_moment_norm": 9.773850912, 
			 "total_energy": -894.32234661, 
			 "HOMO_LUMO_gap": 0.13653, 
			 "cosmo_polarized_energy": -17.68, 
			 "cosmo_cavitation_energy": 37.75, 
			 "cosmo_dispersion_energy": -27.21, 
			 "cosmo_repulsion_energy": 2.08, 
			 "cosmo_total_nonelectrostatic_energy": 12.62, 
			 "SMD_solvation_energy": 7.46 
		},
		"coords": [
			{
				"x": 4.827543972,
				"y": -1.1625068388,
				"z": -1.7057002995,
				"element": "C" 
			},
			{
				"x": 3.4952281947,
				"y": -1.5277949911,
				"z": -2.0885619721,
				"element": "O" 
			},
			{
				"x": 2.4981349977,
				"y": -1.020154431,
				"z": -1.2894976403,
				"element": "C" 
			},
			{
				"x": 1.7173166604,
				"y": -1.899729801,
				"z": -0.5358936861,
				"element": "C" 
			},
			{
				"x": 0.6812830682,
				"y": -1.4428891675,
				"z": 0.2725788618,
				"element": "C" 
			},
			{
				"x": 0.3992635328,
				"y": -0.0633091728,
				"z": 0.3557060749,
				"element": "C" 
			},
			{
				"x": -0.6410612306,
				"y": 0.5575785646,
				"z": 1.1710907225,
				"element": "C" 
			},
			{
				"x": -1.5806315514,
				"y": 0.0842623305,
				"z": 2.031965789,
				"element": "C" 
			},
			{
				"x": -2.4890381036,
				"y": 0.926950132,
				"z": 2.7091177083,
				"element": "N" 
			},
			{
				"x": -2.5189390204,
				"y": 2.3629850059,
				"z": 2.5620979718,
				"element": "C" 
			},
			{
				"x": -3.3533403672,
				"y": 0.2036594276,
				"z": 3.5327255021,
				"element": "C" 
			},
			{
				"x": -4.3086369871,
				"y": 0.5422208018,
				"z": 4.3081782428,
				"element": "N" 
			},
			{
				"x": -2.9717907177,
				"y": -1.1262312956,
				"z": 3.3649290335,
				"element": "N" 
			},
			{
				"x": -1.9208716721,
				"y": -1.3016584296,
				"z": 2.4885314673,
				"element": "C" 
			},
			{
				"x": -1.4281304312,
				"y": -2.3799146935,
				"z": 2.1969525318,
				"element": "O" 
			},
			{
				"x": 1.1820595013,
				"y": 0.8144342016,
				"z": -0.4270247134,
				"element": "C" 
			},
			{
				"x": 2.2093819549,
				"y": 0.3574456063,
				"z": -1.2438232544,
				"element": "C" 
			},
			{
				"x": 2.9457172936,
				"y": 1.2762501563,
				"z": -1.9624205139,
				"element": "O" 
			},
			{
				"x": 2.7567408706,
				"y": 1.2119224475,
				"z": -3.3809658225,
				"element": "C" 
			},
			{
				"x": 5.4927065343,
				"y": -1.6316549179,
				"z": -2.4334200046,
				"element": "H" 
			},
			{
				"x": 4.9650669165,
				"y": -0.0772232558,
				"z": -1.7216048775,
				"element": "H" 
			},
			{
				"x": 5.0593738277,
				"y": -1.5452936153,
				"z": -0.7040431926,
				"element": "H" 
			},
			{
				"x": 1.94587444,
				"y": -2.9594524602,
				"z": -0.5944283316,
				"element": "H" 
			},
			{
				"x": 0.0951320339,
				"y": -2.1437332528,
				"z": 0.851987534,
				"element": "H" 
			},
			{
				"x": -0.6562318497,
				"y": 1.6390971841,
				"z": 1.0557820479,
				"element": "H" 
			},
			{
				"x": -3.3080366627,
				"y": 2.7745845969,
				"z": 3.1918919427,
				"element": "H" 
			},
			{
				"x": -2.7238890355,
				"y": 2.649157408,
				"z": 1.5237063288,
				"element": "H" 
			},
			{
				"x": -1.5663366121,
				"y": 2.8105193168,
				"z": 2.8691423987,
				"element": "H" 
			},
			{
				"x": -4.463957208,
				"y": 1.547831862,
				"z": 4.3213790765,
				"element": "H" 
			},
			{
				"x": -3.4338561056,
				"y": -1.8804276345,
				"z": 3.8498584817,
				"element": "H" 
			},
			{
				"x": 0.996531425,
				"y": 1.8848087089,
				"z": -0.410531858,
				"element": "H" 
			},
			{
				"x": 1.7118537293,
				"y": 1.4211161738,
				"z": -3.6430671288,
				"element": "H" 
			},
			{
				"x": 3.3976118631,
				"y": 1.9846632467,
				"z": -3.8107211556,
				"element": "H" 
			},
			{
				"x": 3.040926739,
				"y": 0.2323867861,
				"z": -3.7781172654,
				"element": "H" 
			}
		],
		 "valence_orbital": [ 
			{
				"type": "occ",
				"energy": -0.26804,
				"method": "rhf"
			},
			{
				"type": "occ",
				"energy": -0.26303,
				"method": "rhf"
			},
			{
				"type": "occ",
				"energy": -0.25391,
				"method": "rhf"
			},
			{
				"type": "occ",
				"energy": -0.23805,
				"method": "rhf"
			},
			{
				"type": "occ",
				"energy": -0.19951,
				"method": "rhf"
			},
			{
				"type": "unocc",
				"energy": -0.06298,
				"method": "rhf"
			},
			{
				"type": "unocc",
				"energy": 0.00327,
				"method": "rhf"
			},
			{
				"type": "unocc",
				"energy": 0.018,
				"method": "rhf"
			},
			{
				"type": "unocc",
				"energy": 0.06369,
				"method": "rhf"
			},
			{
				"type": "unocc",
				"energy": 0.06607,
				"method": "rhf"
			}
		],
		"cosmo_sigma_profile": { 
			"-0.025": 0.0,
			"-0.024": 0.0,
			"-0.023": 0.0,
			"-0.022": 0.0,
			"-0.021": 0.0,
			"-0.02": 0.0,
			"-0.019": 0.0,
			"-0.018": 0.0,
			"-0.017": 0.0,
			"-0.016": 1.35678513757,
			"-0.015": 0.64430713738,
			"-0.014": 1.0125254051,
			"-0.013": 0.581643255034,
			"-0.012": 1.24534243093,
			"-0.011": 2.5300934727,
			"-0.01": 2.22280629977,
			"-0.009": 2.49425268307,
			"-0.008": 3.18841796998,
			"-0.007": 5.94877819935,
			"-0.006": 14.2344142366,
			"-0.005": 17.6880023418,
			"-0.004": 24.2774558752,
			"-0.003": 33.7352376004,
			"-0.002": 25.5608513256,
			"-0.001": 22.9182846402,
			"0.0": 19.5835538608,
			"0.001": 14.5285409397,
			"0.002": 15.5722331217,
			"0.003": 21.6758859133,
			"0.004": 18.253146904,
			"0.005": 9.74236460103,
			"0.006": 4.73152583528,
			"0.007": 4.9667161544,
			"0.008": 4.54077366605,
			"0.009": 4.5286362753,
			"0.01": 5.75622344396,
			"0.011": 5.45941744178,
			"0.012": 4.56591563608,
			"0.013": 1.92876476588,
			"0.014": 1.54122946312,
			"0.015": 1.24311187909,
			"0.016": 1.19963715974,
			"0.017": 0.850133500784,
			"0.018": 0.338141886387,
			"0.019": 0.0,
			"0.02": 0.0,
			"0.021": 0.0,
			"0.022": 0.0,
			"0.023": 0.0,
			"0.024": 0.0,
			"0.025": 0.0
		}
	}
}
