{
	 "smiles": "CC(C)CCNS(=O)(=O)CC1=CC=C(N)C=C1", 
	 "Tm": 385.15, 
	 "num_atms": 37, 
	 "gaussian": { 
		 "optdone": 1, 
		 "sigma_profile": "yes", 
		 "theory": "DFT", 
		 "functional": "B3LYP", 
		 "basiset": "6-31G**", 
		 "properties": { 
			 "R2extent": 6677.2305, 
			 "electric_dipole_moment_norm": 4.95689705864, 
			 "electric_quadrupole_moment_norm": 18.643306741, 
			 "total_energy": -1127.42587649, 
			 "HOMO_LUMO_gap": 0.20362, 
			 "cosmo_polarized_energy": -19.53, 
			 "cosmo_cavitation_energy": 40.69, 
			 "cosmo_dispersion_energy": -28.05, 
			 "cosmo_repulsion_energy": 2.18, 
			 "cosmo_total_nonelectrostatic_energy": 14.82, 
			 "SMD_solvation_energy": 5.39 
		},
		"coords": [
			{
				"x": 0.8605150294,
				"y": -0.7904026915,
				"z": -5.0992962678,
				"element": "C" 
			},
			{
				"x": 0.4908954542,
				"y": 0.5090346016,
				"z": -4.3658277136,
				"element": "C" 
			},
			{
				"x": 1.6147502211,
				"y": 1.5463779201,
				"z": -4.5093961409,
				"element": "C" 
			},
			{
				"x": 0.1678560905,
				"y": 0.2782883937,
				"z": -2.8760495858,
				"element": "C" 
			},
			{
				"x": -1.06321551,
				"y": -0.5968015831,
				"z": -2.6266328823,
				"element": "C" 
			},
			{
				"x": -1.4326703479,
				"y": -0.6443226591,
				"z": -1.1943244578,
				"element": "N" 
			},
			{
				"x": -0.6249148001,
				"y": -1.7449404121,
				"z": -0.1879339501,
				"element": "S" 
			},
			{
				"x": 0.3355863329,
				"y": -2.5149756914,
				"z": -0.9911830786,
				"element": "O" 
			},
			{
				"x": -1.6569006717,
				"y": -2.4158292867,
				"z": 0.6139878666,
				"element": "O" 
			},
			{
				"x": 0.3583652512,
				"y": -0.670474086,
				"z": 0.9239364179,
				"element": "C" 
			},
			{
				"x": -0.454904843,
				"y": 0.2403700151,
				"z": 1.7933257937,
				"element": "C" 
			},
			{
				"x": -1.050897562,
				"y": -0.2298219953,
				"z": 2.972541748,
				"element": "C" 
			},
			{
				"x": -1.809898776,
				"y": 0.608646087,
				"z": 3.7797918439,
				"element": "C" 
			},
			{
				"x": -2.0018536957,
				"y": 1.9579446564,
				"z": 3.4313941506,
				"element": "C" 
			},
			{
				"x": -2.7110156238,
				"y": 2.8161526391,
				"z": 4.269059201,
				"element": "N" 
			},
			{
				"x": -1.4097238867,
				"y": 2.4325060684,
				"z": 2.2477381307,
				"element": "C" 
			},
			{
				"x": -0.6542830286,
				"y": 1.5831258501,
				"z": 1.4465736964,
				"element": "C" 
			},
			{
				"x": 1.7325659519,
				"y": -1.2652194156,
				"z": -4.6341227393,
				"element": "H" 
			},
			{
				"x": 0.0446477003,
				"y": -1.5194856195,
				"z": -5.0922067302,
				"element": "H" 
			},
			{
				"x": 1.1101048989,
				"y": -0.5875810037,
				"z": -6.1464136167,
				"element": "H" 
			},
			{
				"x": -0.4102425643,
				"y": 0.9244907102,
				"z": -4.8432642642,
				"element": "H" 
			},
			{
				"x": 1.349418254,
				"y": 2.4949138966,
				"z": -4.0296605955,
				"element": "H" 
			},
			{
				"x": 2.5407005477,
				"y": 1.1854611258,
				"z": -4.0453386276,
				"element": "H" 
			},
			{
				"x": 1.8312967036,
				"y": 1.7519088374,
				"z": -5.5631581498,
				"element": "H" 
			},
			{
				"x": 1.0378245537,
				"y": -0.1823290135,
				"z": -2.3899768369,
				"element": "H" 
			},
			{
				"x": 0.0001167066,
				"y": 1.2467905682,
				"z": -2.3878674341,
				"element": "H" 
			},
			{
				"x": -0.9100356499,
				"y": -1.6046946797,
				"z": -3.0255229485,
				"element": "H" 
			},
			{
				"x": -1.9301135481,
				"y": -0.1634107762,
				"z": -3.1381971968,
				"element": "H" 
			},
			{
				"x": -2.4262562257,
				"y": -0.7800651401,
				"z": -1.0332148735,
				"element": "H" 
			},
			{
				"x": 0.9431053856,
				"y": -1.3937838066,
				"z": 1.5009201453,
				"element": "H" 
			},
			{
				"x": 1.0393194949,
				"y": -0.1281843468,
				"z": 0.2637889953,
				"element": "H" 
			},
			{
				"x": -0.9286783184,
				"y": -1.2714586791,
				"z": 3.2544729424,
				"element": "H" 
			},
			{
				"x": -2.2571222281,
				"y": 0.2223462838,
				"z": 4.6923089603,
				"element": "H" 
			},
			{
				"x": -3.0966948039,
				"y": 3.6379066922,
				"z": 3.825342832,
				"element": "H" 
			},
			{
				"x": -3.3731280548,
				"y": 2.3702234462,
				"z": 4.8885315606,
				"element": "H" 
			},
			{
				"x": -1.540597886,
				"y": 3.4735204031,
				"z": 1.9626271403,
				"element": "H" 
			},
			{
				"x": -0.2113205517,
				"y": 1.9712726911,
				"z": 0.5333466649,
				"element": "H" 
			}
		],
		 "valence_orbital": [ 
			{
				"type": "occ",
				"energy": -0.29141,
				"method": "rhf"
			},
			{
				"type": "occ",
				"energy": -0.28851,
				"method": "rhf"
			},
			{
				"type": "occ",
				"energy": -0.26376,
				"method": "rhf"
			},
			{
				"type": "occ",
				"energy": -0.24911,
				"method": "rhf"
			},
			{
				"type": "occ",
				"energy": -0.20469,
				"method": "rhf"
			},
			{
				"type": "unocc",
				"energy": -0.00107,
				"method": "rhf"
			},
			{
				"type": "unocc",
				"energy": 0.00103,
				"method": "rhf"
			},
			{
				"type": "unocc",
				"energy": 0.06936,
				"method": "rhf"
			},
			{
				"type": "unocc",
				"energy": 0.07223,
				"method": "rhf"
			},
			{
				"type": "unocc",
				"energy": 0.07682,
				"method": "rhf"
			}
		],
		"cosmo_sigma_profile": { 
			"-0.025": 0.0,
			"-0.024": 0.0,
			"-0.023": 0.0,
			"-0.022": 0.0,
			"-0.021": 0.0,
			"-0.02": 0.0,
			"-0.019": 0.0,
			"-0.018": 0.0,
			"-0.017": 0.0,
			"-0.016": 0.0,
			"-0.015": 0.0305543086546,
			"-0.014": 0.637428747573,
			"-0.013": 1.51666515996,
			"-0.012": 3.72720466587,
			"-0.011": 3.74033923234,
			"-0.01": 3.66797910624,
			"-0.009": 4.80128249194,
			"-0.008": 5.07656674155,
			"-0.007": 8.00611749342,
			"-0.006": 12.6643429541,
			"-0.005": 16.2415213737,
			"-0.004": 17.6556085165,
			"-0.003": 22.9416404879,
			"-0.002": 34.1620041965,
			"-0.001": 29.4680354687,
			"0.0": 24.3656667357,
			"0.001": 25.7663533385,
			"0.002": 17.5378594396,
			"0.003": 8.20805699348,
			"0.004": 10.5970165025,
			"0.005": 10.5576413215,
			"0.006": 13.6641629029,
			"0.007": 6.1894157722,
			"0.008": 6.54936710917,
			"0.009": 5.28877814237,
			"0.01": 4.25746315886,
			"0.011": 9.68366057097,
			"0.012": 8.14246834485,
			"0.013": 1.75263778849,
			"0.014": 0.616666675,
			"0.015": 0.0,
			"0.016": 0.0,
			"0.017": 0.0,
			"0.018": 0.0,
			"0.019": 0.0,
			"0.02": 0.0,
			"0.021": 0.0,
			"0.022": 0.0,
			"0.023": 0.0,
			"0.024": 0.0,
			"0.025": 0.0
		}
	}
}
