{
	 "smiles": "CC1=CC(C)=C(C=C1)C1CNCCO1", 
	 "Tm": 323.15, 
	 "num_atms": 31, 
	 "gaussian": { 
		 "optdone": 1, 
		 "sigma_profile": "yes", 
		 "theory": "DFT", 
		 "functional": "B3LYP", 
		 "basiset": "6-31G**", 
		 "properties": { 
			 "R2extent": 3822.4072, 
			 "electric_dipole_moment_norm": 0.906401152912, 
			 "electric_quadrupole_moment_norm": 11.5804105938, 
			 "total_energy": -597.492273732, 
			 "HOMO_LUMO_gap": 0.2076, 
			 "cosmo_polarized_energy": -8.72, 
			 "cosmo_cavitation_energy": 31.64, 
			 "cosmo_dispersion_energy": -23.03, 
			 "cosmo_repulsion_energy": 1.8, 
			 "cosmo_total_nonelectrostatic_energy": 10.42, 
			 "SMD_solvation_energy": 2.4 
		},
		"coords": [
			{
				"x": -0.0863237009,
				"y": -3.4611414769,
				"z": -4.2599063237,
				"element": "C" 
			},
			{
				"x": -0.1035014485,
				"y": -2.2760336232,
				"z": -3.3233003266,
				"element": "C" 
			},
			{
				"x": 0.2488579593,
				"y": -2.4201987834,
				"z": -1.9759889251,
				"element": "C" 
			},
			{
				"x": 0.2258509592,
				"y": -1.3621823386,
				"z": -1.0587578437,
				"element": "C" 
			},
			{
				"x": 0.6142037776,
				"y": -1.6478341802,
				"z": 0.3767363474,
				"element": "C" 
			},
			{
				"x": -0.1799480098,
				"y": -0.0873161207,
				"z": -1.5183961423,
				"element": "C" 
			},
			{
				"x": -0.5358299185,
				"y": 0.058315445,
				"z": -2.8646900352,
				"element": "C" 
			},
			{
				"x": -0.4954803606,
				"y": -1.0085944913,
				"z": -3.7599215865,
				"element": "C" 
			},
			{
				"x": -0.1897413161,
				"y": 1.1635803239,
				"z": -0.6617766281,
				"element": "C" 
			},
			{
				"x": 1.210968461,
				"y": 1.7957804059,
				"z": -0.4940317568,
				"element": "C" 
			},
			{
				"x": 1.2157089723,
				"y": 2.9668526709,
				"z": 0.388405806,
				"element": "N" 
			},
			{
				"x": 0.5303480015,
				"y": 2.6756609419,
				"z": 1.6522980052,
				"element": "C" 
			},
			{
				"x": -0.8482626182,
				"y": 2.0474231186,
				"z": 1.439514307,
				"element": "C" 
			},
			{
				"x": -0.7621858783,
				"y": 0.8868463922,
				"z": 0.6201701489,
				"element": "O" 
			},
			{
				"x": 0.7389600509,
				"y": -4.1424684723,
				"z": -4.0296763387,
				"element": "H" 
			},
			{
				"x": 0.0159412784,
				"y": -3.1454870196,
				"z": -5.3024833172,
				"element": "H" 
			},
			{
				"x": -1.014710307,
				"y": -4.0413595053,
				"z": -4.1841386905,
				"element": "H" 
			},
			{
				"x": 0.5591609688,
				"y": -3.4010095432,
				"z": -1.6204628825,
				"element": "H" 
			},
			{
				"x": -0.2361008229,
				"y": -1.5135001434,
				"z": 1.0495168876,
				"element": "H" 
			},
			{
				"x": 0.9791236836,
				"y": -2.6744197796,
				"z": 0.4728456747,
				"element": "H" 
			},
			{
				"x": 1.4011273017,
				"y": -0.9785292573,
				"z": 0.7364879777,
				"element": "H" 
			},
			{
				"x": -0.8538431984,
				"y": 1.0355796496,
				"z": -3.221358601,
				"element": "H" 
			},
			{
				"x": -0.777192347,
				"y": -0.8539016132,
				"z": -4.7985331694,
				"element": "H" 
			},
			{
				"x": -0.8252479116,
				"y": 1.9157828815,
				"z": -1.1645141616,
				"element": "H" 
			},
			{
				"x": 1.8962368596,
				"y": 1.0489447992,
				"z": -0.075999776,
				"element": "H" 
			},
			{
				"x": 1.6036054497,
				"y": 2.0831100089,
				"z": -1.4751770069,
				"element": "H" 
			},
			{
				"x": 0.7360470443,
				"y": 3.7356167337,
				"z": -0.078136723,
				"element": "H" 
			},
			{
				"x": 1.1558587173,
				"y": 1.9779799979,
				"z": 2.2242066084,
				"element": "H" 
			},
			{
				"x": 0.4463616707,
				"y": 3.598580879,
				"z": 2.237916773,
				"element": "H" 
			},
			{
				"x": -1.5260838604,
				"y": 2.7861607031,
				"z": 0.9741687703,
				"element": "H" 
			},
			{
				"x": -1.2964094578,
				"y": 1.7231613969,
				"z": 2.3848829287,
				"element": "H" 
			}
		],
		 "valence_orbital": [ 
			{
				"type": "occ",
				"energy": -0.31202,
				"method": "rhf"
			},
			{
				"type": "occ",
				"energy": -0.26994,
				"method": "rhf"
			},
			{
				"type": "occ",
				"energy": -0.23776,
				"method": "rhf"
			},
			{
				"type": "occ",
				"energy": -0.23159,
				"method": "rhf"
			},
			{
				"type": "occ",
				"energy": -0.2053,
				"method": "rhf"
			},
			{
				"type": "unocc",
				"energy": 0.0023,
				"method": "rhf"
			},
			{
				"type": "unocc",
				"energy": 0.00788,
				"method": "rhf"
			},
			{
				"type": "unocc",
				"energy": 0.08084,
				"method": "rhf"
			},
			{
				"type": "unocc",
				"energy": 0.09852,
				"method": "rhf"
			},
			{
				"type": "unocc",
				"energy": 0.10422,
				"method": "rhf"
			}
		],
		"cosmo_sigma_profile": { 
			"-0.025": 0.0,
			"-0.024": 0.0,
			"-0.023": 0.0,
			"-0.022": 0.0,
			"-0.021": 0.0,
			"-0.02": 0.0,
			"-0.019": 0.0,
			"-0.018": 0.0,
			"-0.017": 0.0,
			"-0.016": 0.0,
			"-0.015": 0.0,
			"-0.014": 0.0,
			"-0.013": 0.0,
			"-0.012": 0.0,
			"-0.011": 0.0,
			"-0.01": 0.723110536418,
			"-0.009": 1.69533179005,
			"-0.008": 1.64954011278,
			"-0.007": 2.34263300367,
			"-0.006": 2.21613688203,
			"-0.005": 10.9009086282,
			"-0.004": 28.7747971956,
			"-0.003": 33.1869625599,
			"-0.002": 27.9219379438,
			"-0.001": 23.6794515259,
			"0.0": 24.261461989,
			"0.001": 19.5394946642,
			"0.002": 11.8349961158,
			"0.003": 9.50184315873,
			"0.004": 8.9342374147,
			"0.005": 8.87397294564,
			"0.006": 11.8444300317,
			"0.007": 7.13340573893,
			"0.008": 1.50609397377,
			"0.009": 2.25543491873,
			"0.01": 1.52758266499,
			"0.011": 1.27426899943,
			"0.012": 1.43781296395,
			"0.013": 0.840311571181,
			"0.014": 0.584834757656,
			"0.015": 0.870264342159,
			"0.016": 0.594708424634,
			"0.017": 0.592835815379,
			"0.018": 0.435876206047,
			"0.019": 0.0654815558918,
			"0.02": 0.0,
			"0.021": 0.0,
			"0.022": 0.0,
			"0.023": 0.0,
			"0.024": 0.0,
			"0.025": 0.0
		}
	}
}
