{
	 "smiles": "NC(=S)C1=CC(Cl)=C(F)C=C1", 
	 "Tm": 403.15, 
	 "num_atms": 16, 
	 "gaussian": { 
		 "optdone": 1, 
		 "sigma_profile": "yes", 
		 "theory": "DFT", 
		 "functional": "B3LYP", 
		 "basiset": "6-31G**", 
		 "properties": { 
			 "R2extent": 3611.8374, 
			 "electric_dipole_moment_norm": 2.98846629728, 
			 "electric_quadrupole_moment_norm": 17.3462554066, 
			 "total_energy": -1282.72896589, 
			 "HOMO_LUMO_gap": 0.14611, 
			 "cosmo_polarized_energy": -14.19, 
			 "cosmo_cavitation_energy": 24.59, 
			 "cosmo_dispersion_energy": -18.61, 
			 "cosmo_repulsion_energy": 1.44, 
			 "cosmo_total_nonelectrostatic_energy": 7.42, 
			 "SMD_solvation_energy": 3.58 
		},
		"coords": [
			{
				"x": 1.7095150023,
				"y": 0.0667065162,
				"z": 2.1840229687,
				"element": "N" 
			},
			{
				"x": 1.2921713724,
				"y": -0.7667857524,
				"z": 1.2024385471,
				"element": "C" 
			},
			{
				"x": 2.3709203312,
				"y": -1.5399653292,
				"z": 0.1934419199,
				"element": "S" 
			},
			{
				"x": -0.1864351172,
				"y": -0.9073252011,
				"z": 1.0789510206,
				"element": "C" 
			},
			{
				"x": -1.0412676338,
				"y": 0.1475551624,
				"z": 1.4404333653,
				"element": "C" 
			},
			{
				"x": -2.42231352,
				"y": 0.0114913738,
				"z": 1.3222167068,
				"element": "C" 
			},
			{
				"x": -3.4871464712,
				"y": 1.3263284581,
				"z": 1.7489154535,
				"element": "Cl" 
			},
			{
				"x": -2.9566632591,
				"y": -1.1876386672,
				"z": 0.846888441,
				"element": "C" 
			},
			{
				"x": -4.2830452922,
				"y": -1.3271234366,
				"z": 0.736655101,
				"element": "F" 
			},
			{
				"x": -2.1239803089,
				"y": -2.2403657839,
				"z": 0.4791920068,
				"element": "C" 
			},
			{
				"x": -0.7458955201,
				"y": -2.0974699772,
				"z": 0.5873510689,
				"element": "C" 
			},
			{
				"x": 1.0922010413,
				"y": 0.3493417936,
				"z": 2.9311085494,
				"element": "H" 
			},
			{
				"x": 2.7042795213,
				"y": 0.1748142715,
				"z": 2.3197026199,
				"element": "H" 
			},
			{
				"x": -0.6427770809,
				"y": 1.0998620814,
				"z": 1.7723329507,
				"element": "H" 
			},
			{
				"x": -2.573502704,
				"y": -3.1565352473,
				"z": 0.1120376996,
				"element": "H" 
			},
			{
				"x": -0.0829603611,
				"y": -2.9031902621,
				"z": 0.2941115808,
				"element": "H" 
			}
		],
		 "valence_orbital": [ 
			{
				"type": "occ",
				"energy": -0.32936,
				"method": "rhf"
			},
			{
				"type": "occ",
				"energy": -0.27884,
				"method": "rhf"
			},
			{
				"type": "occ",
				"energy": -0.26548,
				"method": "rhf"
			},
			{
				"type": "occ",
				"energy": -0.23879,
				"method": "rhf"
			},
			{
				"type": "occ",
				"energy": -0.21691,
				"method": "rhf"
			},
			{
				"type": "unocc",
				"energy": -0.0708,
				"method": "rhf"
			},
			{
				"type": "unocc",
				"energy": -0.03593,
				"method": "rhf"
			},
			{
				"type": "unocc",
				"energy": 0.0076,
				"method": "rhf"
			},
			{
				"type": "unocc",
				"energy": 0.01262,
				"method": "rhf"
			},
			{
				"type": "unocc",
				"energy": 0.06654,
				"method": "rhf"
			}
		],
		"cosmo_sigma_profile": { 
			"-0.025": 0.0,
			"-0.024": 0.0,
			"-0.023": 0.0,
			"-0.022": 0.0,
			"-0.021": 0.0,
			"-0.02": 0.0,
			"-0.019": 0.0,
			"-0.018": 0.0,
			"-0.017": 0.0,
			"-0.016": 0.581200358476,
			"-0.015": 2.44434348792,
			"-0.014": 2.39819045464,
			"-0.013": 2.88083798568,
			"-0.012": 2.67073917835,
			"-0.011": 2.18940275838,
			"-0.01": 2.33519245689,
			"-0.009": 3.19587618728,
			"-0.008": 4.20276462531,
			"-0.007": 5.55839989313,
			"-0.006": 5.18996037762,
			"-0.005": 5.31207115393,
			"-0.004": 5.81407708866,
			"-0.003": 7.04260329611,
			"-0.002": 14.135882169,
			"-0.001": 16.5480177616,
			"0.0": 18.8467560659,
			"0.001": 14.7838982219,
			"0.002": 15.1388982577,
			"0.003": 21.1290076606,
			"0.004": 15.8781992813,
			"0.005": 5.5551926257,
			"0.006": 3.93793230531,
			"0.007": 5.63692825956,
			"0.008": 6.21279303174,
			"0.009": 5.58187394592,
			"0.01": 4.24504492806,
			"0.011": 2.65209545508,
			"0.012": 0.608550086255,
			"0.013": 0.0,
			"0.014": 0.0,
			"0.015": 0.0,
			"0.016": 0.0,
			"0.017": 0.0,
			"0.018": 0.0,
			"0.019": 0.0,
			"0.02": 0.0,
			"0.021": 0.0,
			"0.022": 0.0,
			"0.023": 0.0,
			"0.024": 0.0,
			"0.025": 0.0
		}
	}
}
