{
	 "smiles": "OC(=O)CN1N=NC2=C1C=CC=C2", 
	 "Tm": 484.15, 
	 "num_atms": 20, 
	 "gaussian": { 
		 "optdone": 1, 
		 "sigma_profile": "yes", 
		 "theory": "DFT", 
		 "functional": "B3LYP", 
		 "basiset": "6-31G**", 
		 "properties": { 
			 "R2extent": 3076.3762, 
			 "electric_dipole_moment_norm": 4.32767328827, 
			 "electric_quadrupole_moment_norm": 12.5896999742, 
			 "total_energy": -623.74570513, 
			 "HOMO_LUMO_gap": 0.19443, 
			 "cosmo_polarized_energy": -17.18, 
			 "cosmo_cavitation_energy": 25.33, 
			 "cosmo_dispersion_energy": -18.4, 
			 "cosmo_repulsion_energy": 1.45, 
			 "cosmo_total_nonelectrostatic_energy": 8.38, 
			 "SMD_solvation_energy": 3.65 
		},
		"coords": [
			{
				"x": 2.267546437,
				"y": -2.9518496437,
				"z": 0.114452226,
				"element": "O" 
			},
			{
				"x": 1.5710752542,
				"y": -1.8148030791,
				"z": -0.1033008052,
				"element": "C" 
			},
			{
				"x": 1.6155656707,
				"y": -0.8455484328,
				"z": 0.6131642621,
				"element": "O" 
			},
			{
				"x": 0.7622231391,
				"y": -1.9469154551,
				"z": -1.3895822554,
				"element": "C" 
			},
			{
				"x": -0.1169219953,
				"y": -0.8332635232,
				"z": -1.6247470854,
				"element": "N" 
			},
			{
				"x": -1.4747258481,
				"y": -1.0285736895,
				"z": -1.5643625476,
				"element": "N" 
			},
			{
				"x": -2.0747802782,
				"y": 0.0797393894,
				"z": -1.8314819654,
				"element": "N" 
			},
			{
				"x": -1.1218508041,
				"y": 1.0482000666,
				"z": -2.0786997799,
				"element": "C" 
			},
			{
				"x": 0.1560548132,
				"y": 0.4686010288,
				"z": -1.9441184834,
				"element": "C" 
			},
			{
				"x": 1.334093116,
				"y": 1.2042711943,
				"z": -2.1390252741,
				"element": "C" 
			},
			{
				"x": 1.1755469596,
				"y": 2.539312966,
				"z": -2.4807985374,
				"element": "C" 
			},
			{
				"x": -0.1029587144,
				"y": 3.1329345627,
				"z": -2.621215387,
				"element": "C" 
			},
			{
				"x": -1.2632454578,
				"y": 2.4025623549,
				"z": -2.4210956047,
				"element": "C" 
			},
			{
				"x": 2.7742027935,
				"y": -2.816714263,
				"z": 0.9330679681,
				"element": "H" 
			},
			{
				"x": 1.4608056724,
				"y": -2.0788036601,
				"z": -2.2250224761,
				"element": "H" 
			},
			{
				"x": 0.1414834193,
				"y": -2.8445289894,
				"z": -1.3370844238,
				"element": "H" 
			},
			{
				"x": 2.317256482,
				"y": 0.7644804629,
				"z": -2.013000682,
				"element": "H" 
			},
			{
				"x": 2.0583302529,
				"y": 3.1515756013,
				"z": -2.6396685386,
				"element": "H" 
			},
			{
				"x": -0.1671357247,
				"y": 4.1835011184,
				"z": -2.8871189995,
				"element": "H" 
			},
			{
				"x": -2.2483651873,
				"y": 2.8452219907,
				"z": -2.5220616109,
				"element": "H" 
			}
		],
		 "valence_orbital": [ 
			{
				"type": "occ",
				"energy": -0.31563,
				"method": "rhf"
			},
			{
				"type": "occ",
				"energy": -0.29994,
				"method": "rhf"
			},
			{
				"type": "occ",
				"energy": -0.26829,
				"method": "rhf"
			},
			{
				"type": "occ",
				"energy": -0.25134,
				"method": "rhf"
			},
			{
				"type": "occ",
				"energy": -0.2372,
				"method": "rhf"
			},
			{
				"type": "unocc",
				"energy": -0.04277,
				"method": "rhf"
			},
			{
				"type": "unocc",
				"energy": -0.01207,
				"method": "rhf"
			},
			{
				"type": "unocc",
				"energy": 0.00833,
				"method": "rhf"
			},
			{
				"type": "unocc",
				"energy": 0.03564,
				"method": "rhf"
			},
			{
				"type": "unocc",
				"energy": 0.05941,
				"method": "rhf"
			}
		],
		"cosmo_sigma_profile": { 
			"-0.025": 0.0,
			"-0.024": 0.0,
			"-0.023": 0.0,
			"-0.022": 0.0,
			"-0.021": 0.0,
			"-0.02": 0.0,
			"-0.019": 0.584864079619,
			"-0.018": 1.09838655186,
			"-0.017": 0.783552215451,
			"-0.016": 0.864125584586,
			"-0.015": 0.852482115291,
			"-0.014": 0.500066531933,
			"-0.013": 0.598799512663,
			"-0.012": 1.28599075414,
			"-0.011": 0.716345393218,
			"-0.01": 2.93145239045,
			"-0.009": 6.12534490498,
			"-0.008": 6.40224558861,
			"-0.007": 9.37696026208,
			"-0.006": 11.5997295563,
			"-0.005": 12.4510254358,
			"-0.004": 11.2514798024,
			"-0.003": 9.63125122227,
			"-0.002": 10.0869851513,
			"-0.001": 8.79514526133,
			"0.0": 8.27997313124,
			"0.001": 12.3119523623,
			"0.002": 13.9301421688,
			"0.003": 13.7409423005,
			"0.004": 11.8955734918,
			"0.005": 6.25536381707,
			"0.006": 4.27842465695,
			"0.007": 5.30157654674,
			"0.008": 5.79005723882,
			"0.009": 6.10665392917,
			"0.01": 6.56509512879,
			"0.011": 6.56797535426,
			"0.012": 2.75911342341,
			"0.013": 1.24008197433,
			"0.014": 1.27519030565,
			"0.015": 0.845387143343,
			"0.016": 0.0487648595857,
			"0.017": 0.0,
			"0.018": 0.0,
			"0.019": 0.0,
			"0.02": 0.0,
			"0.021": 0.0,
			"0.022": 0.0,
			"0.023": 0.0,
			"0.024": 0.0,
			"0.0": 0.0
		}
	}
}
