{
	 "smiles": "CC1=CC=CC(C)=C1NC(=O)CN1CCN(CCCC(C2=CC=C(F)C=C2)C2=CC=C(F)C=C2)CC1", 
	 "Tm": 432.15, 
	 "num_atms": 71, 
	 "gaussian": { 
		 "optdone": 1, 
		 "sigma_profile": "yes", 
		 "theory": "DFT", 
		 "functional": "B3LYP", 
		 "basiset": "6-31G**", 
		 "properties": { 
			 "R2extent": 20233.8632, 
			 "electric_dipole_moment_norm": 4.96069997279, 
			 "electric_quadrupole_moment_norm": 23.0847312367, 
			 "total_energy": -1603.43612119, 
			 "HOMO_LUMO_gap": 0.16471, 
			 "cosmo_polarized_energy": -17.44, 
			 "cosmo_cavitation_energy": 69.91, 
			 "cosmo_dispersion_energy": -43.22, 
			 "cosmo_repulsion_energy": 3.17, 
			 "cosmo_total_nonelectrostatic_energy": 29.86, 
			 "SMD_solvation_energy": 9.58 
		},
		"coords": [
			{
				"x": -0.0231806362,
				"y": -4.2947026857,
				"z": 2.5207269385,
				"element": "C" 
			},
			{
				"x": -0.9939757717,
				"y": -3.5323272625,
				"z": 3.3900775626,
				"element": "C" 
			},
			{
				"x": -1.2308017541,
				"y": -3.9276748549,
				"z": 4.7117761694,
				"element": "C" 
			},
			{
				"x": -2.1385022066,
				"y": -3.237593755,
				"z": 5.5128432509,
				"element": "C" 
			},
			{
				"x": -2.831739076,
				"y": -2.1430600646,
				"z": 4.9999975615,
				"element": "C" 
			},
			{
				"x": -2.6233262313,
				"y": -1.714174571,
				"z": 3.683896996,
				"element": "C" 
			},
			{
				"x": -3.3980426545,
				"y": -0.5438892661,
				"z": 3.125298693,
				"element": "C" 
			},
			{
				"x": -1.6883377158,
				"y": -2.411502023,
				"z": 2.8941060881,
				"element": "C" 
			},
			{
				"x": -1.4728096512,
				"y": -1.999609822,
				"z": 1.5358715266,
				"element": "N" 
			},
			{
				"x": -0.5668267733,
				"y": -1.0818846024,
				"z": 1.0622718967,
				"element": "C" 
			},
			{
				"x": -0.5333930059,
				"y": -0.7949848559,
				"z": -0.1287880765,
				"element": "O" 
			},
			{
				"x": 0.3604434395,
				"y": -0.45736435,
				"z": 2.1146454253,
				"element": "C" 
			},
			{
				"x": 1.3942313832,
				"y": 0.3659299782,
				"z": 1.532367885,
				"element": "N" 
			},
			{
				"x": 2.4114946803,
				"y": -0.4155604585,
				"z": 0.8143547357,
				"element": "C" 
			},
			{
				"x": 3.6915482323,
				"y": 0.4353109153,
				"z": 0.5893958908,
				"element": "C" 
			},
			{
				"x": 3.4714250297,
				"y": 1.8692496625,
				"z": 0.5122580597,
				"element": "N" 
			},
			{
				"x": 3.1087117976,
				"y": 2.4254587958,
				"z": -0.7883654774,
				"element": "C" 
			},
			{
				"x": 1.7407264027,
				"y": 2.0339882593,
				"z": -1.386458451,
				"element": "C" 
			},
			{
				"x": 1.4369312844,
				"y": 2.8303534878,
				"z": -2.6599246556,
				"element": "C" 
			},
			{
				"x": 0.2165168051,
				"y": 2.387116387,
				"z": -3.5277399818,
				"element": "C" 
			},
			{
				"x": 0.4212024509,
				"y": 0.9961180385,
				"z": -4.1378833291,
				"element": "C" 
			},
			{
				"x": 1.0356077187,
				"y": 0.9117954295,
				"z": -5.3975178556,
				"element": "C" 
			},
			{
				"x": 1.295229239,
				"y": -0.3127505966,
				"z": -6.0127241325,
				"element": "C" 
			},
			{
				"x": 0.9279102628,
				"y": -1.476389412,
				"z": -5.3494861313,
				"element": "C" 
			},
			{
				"x": 1.1692037027,
				"y": -2.6724635893,
				"z": -5.9333894975,
				"element": "F" 
			},
			{
				"x": 0.3159959659,
				"y": -1.4400573277,
				"z": -4.1037395115,
				"element": "C" 
			},
			{
				"x": 0.0648290148,
				"y": -0.2043657928,
				"z": -3.5035714631,
				"element": "C" 
			},
			{
				"x": -1.1434140503,
				"y": 2.6257733741,
				"z": -2.8732668221,
				"element": "C" 
			},
			{
				"x": -2.0325226042,
				"y": 3.5197509069,
				"z": -3.4911133933,
				"element": "C" 
			},
			{
				"x": -3.2902590718,
				"y": 3.8025556292,
				"z": -2.9577318749,
				"element": "C" 
			},
			{
				"x": -3.6646468673,
				"y": 3.1727178471,
				"z": -1.7786261081,
				"element": "C" 
			},
			{
				"x": -4.8809156682,
				"y": 3.4338046208,
				"z": -1.2469134805,
				"element": "F" 
			},
			{
				"x": -2.8191604436,
				"y": 2.280539466,
				"z": -1.1328639484,
				"element": "C" 
			},
			{
				"x": -1.5632505093,
				"y": 2.0120698531,
				"z": -1.6799270069,
				"element": "C" 
			},
			{
				"x": 2.7501838834,
				"y": 2.399260783,
				"z": 1.6740153846,
				"element": "C" 
			},
			{
				"x": 2.0065236072,
				"y": 1.3041053516,
				"z": 2.4671334119,
				"element": "C" 
			},
			{
				"x": 0.8359810181,
				"y": -3.6783061934,
				"z": 2.2325700532,
				"element": "H" 
			},
			{
				"x": 0.357733311,
				"y": -5.1742407493,
				"z": 3.045668242,
				"element": "H" 
			},
			{
				"x": -0.4930286394,
				"y": -4.6300306615,
				"z": 1.5902656819,
				"element": "H" 
			},
			{
				"x": -0.7008295761,
				"y": -4.7885610802,
				"z": 5.1100417186,
				"element": "H" 
			},
			{
				"x": -2.3116417697,
				"y": -3.558102207,
				"z": 6.5361665261,
				"element": "H" 
			},
			{
				"x": -3.5482864423,
				"y": -1.6141711941,
				"z": 5.6224653593,
				"element": "H" 
			},
			{
				"x": -4.0834424298,
				"y": -0.1405841772,
				"z": 3.8747090811,
				"element": "H" 
			},
			{
				"x": -3.989754397,
				"y": -0.8336155284,
				"z": 2.2498284653,
				"element": "H" 
			},
			{
				"x": -2.739351638,
				"y": 0.269495318,
				"z": 2.801875362,
				"element": "H" 
			},
			{
				"x": -2.0886877058,
				"y": -2.3556300754,
				"z": 0.8130557392,
				"element": "H" 
			},
			{
				"x": -0.2643922193,
				"y": 0.1624200378,
				"z": 2.7704069264,
				"element": "H" 
			},
			{
				"x": 0.7583239085,
				"y": -1.2658970194,
				"z": 2.7590484019,
				"element": "H" 
			},
			{
				"x": 1.9771961832,
				"y": -0.7515834678,
				"z": -0.1299676086,
				"element": "H" 
			},
			{
				"x": 2.6935356637,
				"y": -1.3224475149,
				"z": 1.3889516363,
				"element": "H" 
			},
			{
				"x": 4.1981637785,
				"y": 0.1028318841,
				"z": -0.3222584856,
				"element": "H" 
			},
			{
				"x": 4.3902803142,
				"y": 0.2425942627,
				"z": 1.4154019513,
				"element": "H" 
			},
			{
				"x": 3.9009771007,
				"y": 2.147988278,
				"z": -1.4978072158,
				"element": "H" 
			},
			{
				"x": 3.1605547743,
				"y": 3.519251998,
				"z": -0.697760597,
				"element": "H" 
			},
			{
				"x": 0.9648856614,
				"y": 2.1946079918,
				"z": -0.6336203518,
				"element": "H" 
			},
			{
				"x": 1.7369691756,
				"y": 0.9623096526,
				"z": -1.60921035,
				"element": "H" 
			},
			{
				"x": 2.3161600177,
				"y": 2.7915164801,
				"z": -3.3186864776,
				"element": "H" 
			},
			{
				"x": 1.2943440194,
				"y": 3.8884977572,
				"z": -2.4014868417,
				"element": "H" 
			},
			{
				"x": 0.2399357371,
				"y": 3.0735633997,
				"z": -4.3828422262,
				"element": "H" 
			},
			{
				"x": 1.316670396,
				"y": 1.8265048262,
				"z": -5.9143616628,
				"element": "H" 
			},
			{
				"x": 1.7650105908,
				"y": -0.3729676119,
				"z": -6.9887382175,
				"element": "H" 
			},
			{
				"x": 0.0405647346,
				"y": -2.3675593894,
				"z": -3.6130784656,
				"element": "H" 
			},
			{
				"x": -0.4141958535,
				"y": -0.2022606126,
				"z": -2.5323974808,
				"element": "H" 
			},
			{
				"x": -1.7367617532,
				"y": 4.0088406864,
				"z": -4.4159144284,
				"element": "H" 
			},
			{
				"x": -3.9720489295,
				"y": 4.4944676852,
				"z": -3.4407144993,
				"element": "H" 
			},
			{
				"x": -3.1441461373,
				"y": 1.8014291429,
				"z": -0.2152931134,
				"element": "H" 
			},
			{
				"x": -0.9266140251,
				"y": 1.3093567988,
				"z": -1.1561997665,
				"element": "H" 
			},
			{
				"x": 2.0157758193,
				"y": 3.1366049743,
				"z": 1.3322451072,
				"element": "H" 
			},
			{
				"x": 3.4381342263,
				"y": 2.9232240703,
				"z": 2.358129336,
				"element": "H" 
			},
			{
				"x": 1.2231022479,
				"y": 1.7708965298,
				"z": 3.0744072085,
				"element": "H" 
			},
			{
				"x": 2.6947726288,
				"y": 0.8041122131,
				"z": 3.1766947125,
				"element": "H" 
			}
		],
		 "valence_orbital": [ 
			{
				"type": "occ",
				"energy": -0.2445,
				"method": "rhf"
			},
			{
				"type": "occ",
				"energy": -0.22893,
				"method": "rhf"
			},
			{
				"type": "occ",
				"energy": -0.22194,
				"method": "rhf"
			},
			{
				"type": "occ",
				"energy": -0.21229,
				"method": "rhf"
			},
			{
				"type": "occ",
				"energy": -0.18739,
				"method": "rhf"
			},
			{
				"type": "unocc",
				"energy": -0.02268,
				"method": "rhf"
			},
			{
				"type": "unocc",
				"energy": -0.01144,
				"method": "rhf"
			},
			{
				"type": "unocc",
				"energy": -0.00187,
				"method": "rhf"
			},
			{
				"type": "unocc",
				"energy": 0.00354,
				"method": "rhf"
			},
			{
				"type": "unocc",
				"energy": 0.00941,
				"method": "rhf"
			}
		],
		"cosmo_sigma_profile": { 
			"-0.025": 0.0,
			"-0.024": 0.0,
			"-0.023": 0.0,
			"-0.022": 0.0,
			"-0.021": 0.0,
			"-0.02": 0.0,
			"-0.019": 0.0,
			"-0.018": 0.0,
			"-0.017": 0.0,
			"-0.016": 0.0,
			"-0.015": 0.0,
			"-0.014": 0.260555357475,
			"-0.013": 1.02129180862,
			"-0.012": 0.999438415551,
			"-0.011": 0.897517966523,
			"-0.01": 1.03922773936,
			"-0.009": 0.778709829454,
			"-0.008": 0.737013242164,
			"-0.007": 3.78497178805,
			"-0.006": 17.6528695162,
			"-0.005": 30.4621166385,
			"-0.004": 39.3366659673,
			"-0.003": 48.1038332813,
			"-0.002": 67.1942952034,
			"-0.001": 59.5008558509,
			"0.0": 51.3289100622,
			"0.001": 42.976561844,
			"0.002": 35.2754998214,
			"0.003": 32.7734626083,
			"0.004": 46.7687766627,
			"0.005": 41.8004682687,
			"0.006": 7.93877841692,
			"0.007": 4.75070142721,
			"0.008": 3.22451549954,
			"0.009": 3.42510347386,
			"0.01": 2.89544247618,
			"0.011": 1.71612946704,
			"0.012": 1.23237987868,
			"0.013": 1.03168532046,
			"0.014": 0.971504503252,
			"0.015": 0.409778803967,
			"0.016": 0.101790046725,
			"0.017": 0.0,
			"0.018": 0.0,
			"0.019": 0.0,
			"0.02": 0.0,
			"0.021": 0.0,
			"0.022": 0.0,
			"0.023": 0.0,
			"0.024": 0.0,
			"0.025": 0.0
		}
	}
}
