{
	 "smiles": "OC(=O)C(OC1=C(Br)C=C(F)C=C1)C1=CC=CC=C1", 
	 "Tm": 407.15, 
	 "num_atms": 29, 
	 "gaussian": { 
		 "optdone": 1, 
		 "sigma_profile": "yes", 
		 "theory": "DFT", 
		 "functional": "B3LYP", 
		 "basiset": "6-31G**", 
		 "properties": { 
			 "R2extent": 7037.3226, 
			 "electric_dipole_moment_norm": 1.64039813155, 
			 "electric_quadrupole_moment_norm": 8.49390165943, 
			 "total_energy": -3436.41913936, 
			 "HOMO_LUMO_gap": 0.21335, 
			 "cosmo_polarized_energy": -12.0, 
			 "cosmo_cavitation_energy": 36.95, 
			 "cosmo_dispersion_energy": -25.62, 
			 "cosmo_repulsion_energy": 1.97, 
			 "cosmo_total_nonelectrostatic_energy": 13.3, 
			 "SMD_solvation_energy": 6.92 
		},
		"coords": [
			{
				"x": -0.5902416265,
				"y": 1.6606571521,
				"z": 1.5333138021,
				"element": "O" 
			},
			{
				"x": -0.7025246174,
				"y": 0.3185101861,
				"z": 1.612364028,
				"element": "C" 
			},
			{
				"x": -1.0241574163,
				"y": -0.2643516393,
				"z": 2.6236030983,
				"element": "O" 
			},
			{
				"x": -0.4443260194,
				"y": -0.3965961338,
				"z": 0.2793921947,
				"element": "C" 
			},
			{
				"x": 0.4853074879,
				"y": 0.2971566818,
				"z": -0.5502235059,
				"element": "O" 
			},
			{
				"x": 1.8159362863,
				"y": 0.1915475593,
				"z": -0.2119542284,
				"element": "C" 
			},
			{
				"x": 2.5865560841,
				"y": -0.9219269415,
				"z": -0.5812567438,
				"element": "C" 
			},
			{
				"x": 1.7885878058,
				"y": -2.3726250939,
				"z": -1.522707596,
				"element": "Br" 
			},
			{
				"x": 3.9481622048,
				"y": -0.9777169975,
				"z": -0.289125038,
				"element": "C" 
			},
			{
				"x": 4.5317393284,
				"y": 0.0993544899,
				"z": 0.3678999162,
				"element": "C" 
			},
			{
				"x": 5.8485696722,
				"y": 0.0470926494,
				"z": 0.647394227,
				"element": "F" 
			},
			{
				"x": 3.8021130086,
				"y": 1.2239267764,
				"z": 0.7346711366,
				"element": "C" 
			},
			{
				"x": 2.4408747842,
				"y": 1.2594363938,
				"z": 0.4398759979,
				"element": "C" 
			},
			{
				"x": -1.7662097502,
				"y": -0.54609516,
				"z": -0.4646018983,
				"element": "C" 
			},
			{
				"x": -1.9938644928,
				"y": 0.1150537053,
				"z": -1.6744149646,
				"element": "C" 
			},
			{
				"x": -3.2158664326,
				"y": -0.0389536151,
				"z": -2.3328007307,
				"element": "C" 
			},
			{
				"x": -4.2150280539,
				"y": -0.8454597095,
				"z": -1.7873652221,
				"element": "C" 
			},
			{
				"x": -3.9888802324,
				"y": -1.5027059064,
				"z": -0.5756529631,
				"element": "C" 
			},
			{
				"x": -2.7700289106,
				"y": -1.3543727675,
				"z": 0.0844054314,
				"element": "C" 
			},
			{
				"x": -0.8237136873,
				"y": 1.9989682012,
				"z": 2.4149005567,
				"element": "H" 
			},
			{
				"x": -0.0582161788,
				"y": -1.3873042994,
				"z": 0.542365674,
				"element": "H" 
			},
			{
				"x": 4.5492705012,
				"y": -1.8328555841,
				"z": -0.5720381264,
				"element": "H" 
			},
			{
				"x": 4.2966417238,
				"y": 2.0470363145,
				"z": 1.2379157566,
				"element": "H" 
			},
			{
				"x": 1.8317609781,
				"y": 2.1150359972,
				"z": 0.7066797674,
				"element": "H" 
			},
			{
				"x": -1.2133780765,
				"y": 0.7355643141,
				"z": -2.0980482721,
				"element": "H" 
			},
			{
				"x": -3.3843643129,
				"y": 0.4742710865,
				"z": -3.2752998016,
				"element": "H" 
			},
			{
				"x": -5.1637609376,
				"y": -0.9634600002,
				"z": -2.3029621394,
				"element": "H" 
			},
			{
				"x": -4.7604203907,
				"y": -2.1340110838,
				"z": -0.1444312543,
				"element": "H" 
			},
			{
				"x": -2.5963387297,
				"y": -1.8585765757,
				"z": 1.0307008979,
				"element": "H" 
			}
		],
		 "valence_orbital": [ 
			{
				"type": "occ",
				"energy": -0.28007,
				"method": "rhf"
			},
			{
				"type": "occ",
				"energy": -0.26339,
				"method": "rhf"
			},
			{
				"type": "occ",
				"energy": -0.25171,
				"method": "rhf"
			},
			{
				"type": "occ",
				"energy": -0.24822,
				"method": "rhf"
			},
			{
				"type": "occ",
				"energy": -0.24369,
				"method": "rhf"
			},
			{
				"type": "unocc",
				"energy": -0.03034,
				"method": "rhf"
			},
			{
				"type": "unocc",
				"energy": -0.02035,
				"method": "rhf"
			},
			{
				"type": "unocc",
				"energy": -0.01191,
				"method": "rhf"
			},
			{
				"type": "unocc",
				"energy": -0.0042,
				"method": "rhf"
			},
			{
				"type": "unocc",
				"energy": -0.00287,
				"method": "rhf"
			}
		],
		"cosmo_sigma_profile": { 
			"-0.025": 0.0,
			"-0.024": 0.0,
			"-0.023": 0.0,
			"-0.022": 0.0,
			"-0.021": 0.0,
			"-0.02": 0.0,
			"-0.019": 0.446747134885,
			"-0.018": 1.00169899954,
			"-0.017": 0.979521416666,
			"-0.016": 0.963217156709,
			"-0.015": 0.61904115936,
			"-0.014": 0.619683219141,
			"-0.013": 0.427242490828,
			"-0.012": 0.905979958088,
			"-0.011": 1.32270048883,
			"-0.01": 0.106100049687,
			"-0.009": 1.05134394816,
			"-0.008": 4.42694657785,
			"-0.007": 5.33556109054,
			"-0.006": 12.814610016,
			"-0.005": 17.9805864292,
			"-0.004": 19.5379763762,
			"-0.003": 18.2498491034,
			"-0.002": 17.1981772,
			"-0.001": 20.7599095008,
			"0.0": 24.7527285444,
			"0.001": 30.7229956417,
			"0.002": 25.6924472208,
			"0.003": 26.3164647248,
			"0.004": 29.2576803019,
			"0.005": 16.2388004988,
			"0.006": 5.7763353225,
			"0.007": 2.29046589229,
			"0.008": 2.6872608246,
			"0.009": 3.05948890867,
			"0.01": 2.49018332095,
			"0.011": 4.68280305418,
			"0.012": 0.901671433475,
			"0.013": 0.0,
			"0.014": 0.0,
			"0.015": 0.0,
			"0.016": 0.0,
			"0.017": 0.0,
			"0.018": 0.0,
			"0.019": 0.0,
			"0.02": 0.0,
			"0.021": 0.0,
			"0.022": 0.0,
			"0.023": 0.0,
			"0.024": 0.0,
			"0.025": 0.0
		}
	}
}
