{
	 "smiles": "CC1=CC(C(=O)CCl)=C(C)N1C1=CC(=CC=C1)C(F)(F)F", 
	 "Tm": 370.15, 
	 "num_atms": 34, 
	 "gaussian": { 
		 "optdone": 1, 
		 "sigma_profile": "yes", 
		 "theory": "DFT", 
		 "functional": "B3LYP", 
		 "basiset": "6-31G**", 
		 "properties": { 
			 "R2extent": 10796.4681, 
			 "electric_dipole_moment_norm": 6.06875469928, 
			 "electric_quadrupole_moment_norm": 39.4140242442, 
			 "total_energy": -1469.13308361, 
			 "HOMO_LUMO_gap": 0.16705, 
			 "cosmo_polarized_energy": -14.93, 
			 "cosmo_cavitation_energy": 41.53, 
			 "cosmo_dispersion_energy": -27.97, 
			 "cosmo_repulsion_energy": 2.11, 
			 "cosmo_total_nonelectrostatic_energy": 15.67, 
			 "SMD_solvation_energy": 8.51 
		},
		"coords": [
			{
				"x": 1.9298016467,
				"y": -1.6351937546,
				"z": -0.2432008502,
				"element": "C" 
			},
			{
				"x": 0.5407061806,
				"y": -2.1052408382,
				"z": 0.0460522174,
				"element": "C" 
			},
			{
				"x": 0.0963267753,
				"y": -3.15672233,
				"z": 0.8014661677,
				"element": "C" 
			},
			{
				"x": -1.3391896048,
				"y": -3.1919439868,
				"z": 0.7311471777,
				"element": "C" 
			},
			{
				"x": -2.2415022571,
				"y": -4.1424268899,
				"z": 1.3945410046,
				"element": "C" 
			},
			{
				"x": -3.4582548621,
				"y": -4.1263326313,
				"z": 1.2885713533,
				"element": "O" 
			},
			{
				"x": -1.5290234994,
				"y": -5.1943595941,
				"z": 2.2629402393,
				"element": "C" 
			},
			{
				"x": -2.6513291927,
				"y": -6.3444226966,
				"z": 3.0544201728,
				"element": "Cl" 
			},
			{
				"x": -1.7374150158,
				"y": -2.1351478976,
				"z": -0.0892465369,
				"element": "C" 
			},
			{
				"x": -3.1005693415,
				"y": -1.6752881085,
				"z": -0.4941904343,
				"element": "C" 
			},
			{
				"x": -0.5912438621,
				"y": -1.4843482835,
				"z": -0.497821085,
				"element": "N" 
			},
			{
				"x": -0.5588856615,
				"y": -0.34039307,
				"z": -1.3561654607,
				"element": "C" 
			},
			{
				"x": -0.3074999884,
				"y": 0.9233016304,
				"z": -0.818010172,
				"element": "C" 
			},
			{
				"x": -0.2705166569,
				"y": 2.0362366162,
				"z": -1.6603050396,
				"element": "C" 
			},
			{
				"x": -0.4937331399,
				"y": 1.8936392808,
				"z": -3.0320238735,
				"element": "C" 
			},
			{
				"x": -0.749614086,
				"y": 0.6294641949,
				"z": -3.5620801154,
				"element": "C" 
			},
			{
				"x": -0.777282699,
				"y": -0.4893129809,
				"z": -2.7294682914,
				"element": "C" 
			},
			{
				"x": 0.0624503876,
				"y": 3.3905630151,
				"z": -1.0891606391,
				"element": "C" 
			},
			{
				"x": -0.5146695739,
				"y": 4.3862694799,
				"z": -1.7945089475,
				"element": "F" 
			},
			{
				"x": -0.3429734326,
				"y": 3.5066566665,
				"z": 0.1934568632,
				"element": "F" 
			},
			{
				"x": 1.3960900392,
				"y": 3.6162992781,
				"z": -1.1040397081,
				"element": "F" 
			},
			{
				"x": 2.1484507957,
				"y": -1.6293722129,
				"z": -1.3176777748,
				"element": "H" 
			},
			{
				"x": 2.1190074258,
				"y": -0.6217698384,
				"z": 0.1295546645,
				"element": "H" 
			},
			{
				"x": 2.6442915024,
				"y": -2.3054827258,
				"z": 0.2399893216,
				"element": "H" 
			},
			{
				"x": 0.7397015054,
				"y": -3.8349893262,
				"z": 1.3442214874,
				"element": "H" 
			},
			{
				"x": -0.9527762868,
				"y": -4.698486282,
				"z": 3.0480865636,
				"element": "H" 
			},
			{
				"x": -0.8364023542,
				"y": -5.7756931737,
				"z": 1.6492087609,
				"element": "H" 
			},
			{
				"x": -3.2510782613,
				"y": -0.6155197512,
				"z": -0.2578539902,
				"element": "H" 
			},
			{
				"x": -3.8418116535,
				"y": -2.2723584251,
				"z": 0.0343771242,
				"element": "H" 
			},
			{
				"x": -3.2671411632,
				"y": -1.7924629662,
				"z": -1.5717491405,
				"element": "H" 
			},
			{
				"x": -0.1574205668,
				"y": 1.035186375,
				"z": 0.2498990855,
				"element": "H" 
			},
			{
				"x": -0.474879551,
				"y": 2.7669446934,
				"z": -3.6745483957,
				"element": "H" 
			},
			{
				"x": -0.9253110413,
				"y": 0.5144961904,
				"z": -4.6269127073,
				"element": "H" 
			},
			{
				"x": -0.9648025068,
				"y": -1.4789896572,
				"z": -3.1333690415,
				"element": "H" 
			}
		],
		 "valence_orbital": [ 
			{
				"type": "occ",
				"energy": -0.28869,
				"method": "rhf"
			},
			{
				"type": "occ",
				"energy": -0.28749,
				"method": "rhf"
			},
			{
				"type": "occ",
				"energy": -0.25598,
				"method": "rhf"
			},
			{
				"type": "occ",
				"energy": -0.24685,
				"method": "rhf"
			},
			{
				"type": "occ",
				"energy": -0.21797,
				"method": "rhf"
			},
			{
				"type": "unocc",
				"energy": -0.05092,
				"method": "rhf"
			},
			{
				"type": "unocc",
				"energy": -0.04443,
				"method": "rhf"
			},
			{
				"type": "unocc",
				"energy": -0.03169,
				"method": "rhf"
			},
			{
				"type": "unocc",
				"energy": 0.02442,
				"method": "rhf"
			},
			{
				"type": "unocc",
				"energy": 0.03719,
				"method": "rhf"
			}
		],
		"cosmo_sigma_profile": { 
			"-0.025": 0.0,
			"-0.024": 0.0,
			"-0.023": 0.0,
			"-0.022": 0.0,
			"-0.021": 0.0,
			"-0.02": 0.0,
			"-0.019": 0.0,
			"-0.018": 0.0,
			"-0.017": 0.0,
			"-0.016": 0.0,
			"-0.015": 0.0,
			"-0.014": 0.0,
			"-0.013": 0.0,
			"-0.012": 0.0,
			"-0.011": 0.0,
			"-0.01": 0.0,
			"-0.009": 0.714708520482,
			"-0.008": 7.12639181328,
			"-0.007": 14.2797953395,
			"-0.006": 14.9096584395,
			"-0.005": 20.3778675825,
			"-0.004": 22.8073691813,
			"-0.003": 21.4229645521,
			"-0.002": 21.9171149594,
			"-0.001": 30.061284367,
			"0.0": 29.0400570955,
			"0.001": 25.5371956843,
			"0.002": 34.066433568,
			"0.003": 36.6702701825,
			"0.004": 10.4444635382,
			"0.005": 11.0091187892,
			"0.006": 12.20522726,
			"0.007": 4.31676896646,
			"0.008": 2.9661687286,
			"0.009": 2.12991971313,
			"0.01": 2.20880062548,
			"0.011": 2.64912418574,
			"0.012": 3.26275070798,
			"0.013": 2.25286981748,
			"0.014": 1.18413921276,
			"0.015": 0.00575687241808,
			"0.016": 0.0,
			"0.017": 0.0,
			"0.018": 0.0,
			"0.019": 0.0,
			"0.02": 0.0,
			"0.021": 0.0,
			"0.022": 0.0,
			"0.023": 0.0,
			"0.024": 0.0,
			"0.025": 0.0
		}
	}
}
