{
	 "smiles": "C=CCNC1=NC2=C(CCCC2)S1", 
	 "Tm": 351.15, 
	 "num_atms": 27, 
	 "gaussian": { 
		 "optdone": 1, 
		 "sigma_profile": "yes", 
		 "theory": "DFT", 
		 "functional": "B3LYP", 
		 "basiset": "6-31G**", 
		 "properties": { 
			 "R2extent": 4110.5835, 
			 "electric_dipole_moment_norm": 0.997249707947, 
			 "electric_quadrupole_moment_norm": 7.89539016705, 
			 "total_energy": -897.176903034, 
			 "HOMO_LUMO_gap": 0.19551, 
			 "cosmo_polarized_energy": -9.18, 
			 "cosmo_cavitation_energy": 30.81, 
			 "cosmo_dispersion_energy": -22.64, 
			 "cosmo_repulsion_energy": 1.79, 
			 "cosmo_total_nonelectrostatic_energy": 9.96, 
			 "SMD_solvation_energy": 2.57 
		},
		"coords": [
			{
				"x": -1.8534577441,
				"y": 3.8540284782,
				"z": 3.0705283149,
				"element": "C" 
			},
			{
				"x": -0.5440897823,
				"y": 3.6160686098,
				"z": 3.1349351858,
				"element": "C" 
			},
			{
				"x": 0.0641058506,
				"y": 2.2360428971,
				"z": 3.2006599474,
				"element": "C" 
			},
			{
				"x": 0.8389070584,
				"y": 1.871534294,
				"z": 2.0072271485,
				"element": "N" 
			},
			{
				"x": 0.1824570314,
				"y": 1.4571086553,
				"z": 0.8733370147,
				"element": "C" 
			},
			{
				"x": -1.0533485887,
				"y": 1.0516572568,
				"z": 0.8372014251,
				"element": "N" 
			},
			{
				"x": -1.3922252589,
				"y": 0.6254081297,
				"z": -0.437557499,
				"element": "C" 
			},
			{
				"x": -0.4271596453,
				"y": 0.7121233467,
				"z": -1.3954388677,
				"element": "C" 
			},
			{
				"x": -0.5769519354,
				"y": 0.3216704743,
				"z": -2.8377838469,
				"element": "C" 
			},
			{
				"x": -2.0732889085,
				"y": 0.1598563805,
				"z": -3.1741376012,
				"element": "C" 
			},
			{
				"x": -2.8184752517,
				"y": -0.6236501271,
				"z": -2.0819133932,
				"element": "C" 
			},
			{
				"x": -2.7755591456,
				"y": 0.1089601141,
				"z": -0.7293044547,
				"element": "C" 
			},
			{
				"x": 1.047466517,
				"y": 1.3585600705,
				"z": -0.6774117449,
				"element": "S" 
			},
			{
				"x": -2.2493621098,
				"y": 4.8643473211,
				"z": 3.0185879879,
				"element": "H" 
			},
			{
				"x": -2.5747902747,
				"y": 3.0413824145,
				"z": 3.0596649981,
				"element": "H" 
			},
			{
				"x": 0.1585568108,
				"y": 4.4507334416,
				"z": 3.1270386348,
				"element": "H" 
			},
			{
				"x": 0.7436635973,
				"y": 2.1567335307,
				"z": 4.0578196234,
				"element": "H" 
			},
			{
				"x": -0.7165619153,
				"y": 1.4823494349,
				"z": 3.3181677292,
				"element": "H" 
			},
			{
				"x": 1.6845260656,
				"y": 2.4022367445,
				"z": 1.8515784859,
				"element": "H" 
			},
			{
				"x": -0.1249977716,
				"y": 1.0717748892,
				"z": -3.4989465283,
				"element": "H" 
			},
			{
				"x": -0.0455449602,
				"y": -0.6207744502,
				"z": -3.0377305211,
				"element": "H" 
			},
			{
				"x": -2.5271992637,
				"y": 1.1539893505,
				"z": -3.2776225595,
				"element": "H" 
			},
			{
				"x": -2.1785167561,
				"y": -0.3402706251,
				"z": -4.1435589529,
				"element": "H" 
			},
			{
				"x": -2.3553605368,
				"y": -1.6133299098,
				"z": -1.972338284,
				"element": "H" 
			},
			{
				"x": -3.8586610299,
				"y": -0.7946447901,
				"z": -2.3811307232,
				"element": "H" 
			},
			{
				"x": -3.4849590372,
				"y": 0.9493652909,
				"z": -0.7290750072,
				"element": "H" 
			},
			{
				"x": -3.0942730152,
				"y": -0.5543612225,
				"z": 0.0833034884,
				"element": "H" 
			}
		],
		 "valence_orbital": [ 
			{
				"type": "occ",
				"energy": -0.28474,
				"method": "rhf"
			},
			{
				"type": "occ",
				"energy": -0.26477,
				"method": "rhf"
			},
			{
				"type": "occ",
				"energy": -0.25673,
				"method": "rhf"
			},
			{
				"type": "occ",
				"energy": -0.25379,
				"method": "rhf"
			},
			{
				"type": "occ",
				"energy": -0.18783,
				"method": "rhf"
			},
			{
				"type": "unocc",
				"energy": 0.00768,
				"method": "rhf"
			},
			{
				"type": "unocc",
				"energy": 0.01603,
				"method": "rhf"
			},
			{
				"type": "unocc",
				"energy": 0.01786,
				"method": "rhf"
			},
			{
				"type": "unocc",
				"energy": 0.07252,
				"method": "rhf"
			},
			{
				"type": "unocc",
				"energy": 0.09561,
				"method": "rhf"
			}
		],
		"cosmo_sigma_profile": { 
			"-0.025": 0.0,
			"-0.024": 0.0,
			"-0.023": 0.0,
			"-0.022": 0.0,
			"-0.021": 0.0,
			"-0.02": 0.0,
			"-0.019": 0.0,
			"-0.018": 0.0,
			"-0.017": 0.0,
			"-0.016": 0.0,
			"-0.015": 0.120082348448,
			"-0.014": 1.12121057697,
			"-0.013": 1.64801546387,
			"-0.012": 1.17527293355,
			"-0.011": 1.2599928467,
			"-0.01": 0.960508597607,
			"-0.009": 1.42872280574,
			"-0.008": 1.73110477546,
			"-0.007": 1.15965731911,
			"-0.006": 3.70242310146,
			"-0.005": 7.95901225248,
			"-0.004": 13.5859115571,
			"-0.003": 23.6093756523,
			"-0.002": 32.2455371324,
			"-0.001": 33.3344959609,
			"0.0": 26.3407672372,
			"0.001": 15.2456589319,
			"0.002": 12.2300761657,
			"0.003": 14.2952991142,
			"0.004": 12.1659775596,
			"0.005": 14.986094856,
			"0.006": 7.94426128644,
			"0.007": 4.23996325362,
			"0.008": 3.51808071458,
			"0.009": 2.96184608652,
			"0.01": 2.17870522671,
			"0.011": 1.17118205159,
			"0.012": 1.00755458103,
			"0.013": 0.762575681375,
			"0.014": 0.112917652511,
			"0.015": 0.0,
			"0.016": 0.0,
			"0.017": 0.0,
			"0.018": 0.0,
			"0.019": 0.0,
			"0.02": 0.0,
			"0.021": 0.0,
			"0.022": 0.0,
			"0.023": 0.0,
			"0.024": 0.0,
			"0.025": 0.0
		}
	}
}
