{
	 "smiles": "OC(=O)C1=CC(=CN=C1)C1=CC=C(C=O)C=C1", 
	 "Tm": 505.15, 
	 "num_atms": 26, 
	 "gaussian": { 
		 "optdone": 1, 
		 "sigma_profile": "yes", 
		 "theory": "DFT", 
		 "functional": "B3LYP", 
		 "basiset": "6-31G**", 
		 "properties": { 
			 "R2extent": 6398.8991, 
			 "electric_dipole_moment_norm": 1.68049026477, 
			 "electric_quadrupole_moment_norm": 24.5590926734, 
			 "total_energy": -781.228485599, 
			 "HOMO_LUMO_gap": 0.17438, 
			 "cosmo_polarized_energy": -20.01, 
			 "cosmo_cavitation_energy": 32.09, 
			 "cosmo_dispersion_energy": -23.09, 
			 "cosmo_repulsion_energy": 1.75, 
			 "cosmo_total_nonelectrostatic_energy": 10.75, 
			 "SMD_solvation_energy": 6.06 
		},
		"coords": [
			{
				"x": 4.6821026199,
				"y": 0.0888344607,
				"z": 1.576367954,
				"element": "O" 
			},
			{
				"x": 3.4314184831,
				"y": 0.5177464926,
				"z": 1.8804131951,
				"element": "C" 
			},
			{
				"x": 3.271381378,
				"y": 1.5671224051,
				"z": 2.4572270352,
				"element": "O" 
			},
			{
				"x": 2.2887687623,
				"y": -0.365291501,
				"z": 1.4731703035,
				"element": "C" 
			},
			{
				"x": 1.0089284678,
				"y": 0.1946989879,
				"z": 1.4296524234,
				"element": "C" 
			},
			{
				"x": -0.0836817862,
				"y": -0.5949703449,
				"z": 1.0598268667,
				"element": "C" 
			},
			{
				"x": 0.1831204422,
				"y": -1.9466383922,
				"z": 0.7655592673,
				"element": "C" 
			},
			{
				"x": 1.3937361764,
				"y": -2.5061668849,
				"z": 0.8200426476,
				"element": "N" 
			},
			{
				"x": 2.4209538357,
				"y": -1.7251345409,
				"z": 1.1671821432,
				"element": "C" 
			},
			{
				"x": -1.4597154802,
				"y": -0.0488384211,
				"z": 0.9888772367,
				"element": "C" 
			},
			{
				"x": -2.3510488043,
				"y": -0.4730527586,
				"z": -0.0167465307,
				"element": "C" 
			},
			{
				"x": -3.6408933894,
				"y": 0.0356527972,
				"z": -0.0822713088,
				"element": "C" 
			},
			{
				"x": -4.0726695225,
				"y": 0.9844237586,
				"z": 0.8565762166,
				"element": "C" 
			},
			{
				"x": -5.4476438395,
				"y": 1.5307960217,
				"z": 0.7894068177,
				"element": "C" 
			},
			{
				"x": -6.2730554042,
				"y": 1.2151985216,
				"z": -0.0460058126,
				"element": "O" 
			},
			{
				"x": -3.1928731837,
				"y": 1.413130688,
				"z": 1.8581546977,
				"element": "C" 
			},
			{
				"x": -1.9003702616,
				"y": 0.9021870516,
				"z": 1.9254110425,
				"element": "C" 
			},
			{
				"x": 4.6504496298,
				"y": -0.6811572055,
				"z": 0.9918519289,
				"element": "H" 
			},
			{
				"x": 0.8957989396,
				"y": 1.2470441268,
				"z": 1.6681695135,
				"element": "H" 
			},
			{
				"x": -0.6345550174,
				"y": -2.6124764609,
				"z": 0.4971879162,
				"element": "H" 
			},
			{
				"x": 3.3860332909,
				"y": -2.2285845843,
				"z": 1.2312541484,
				"element": "H" 
			},
			{
				"x": -2.0161543829,
				"y": -1.1858953979,
				"z": -0.7640774345,
				"element": "H" 
			},
			{
				"x": -4.3326429311,
				"y": -0.2784804818,
				"z": -0.8574033437,
				"element": "H" 
			},
			{
				"x": -5.6891968734,
				"y": 2.2760145579,
				"z": 1.5796078395,
				"element": "H" 
			},
			{
				"x": -3.5270278145,
				"y": 2.1439302431,
				"z": 2.5909134762,
				"element": "H" 
			},
			{
				"x": -1.2345633348,
				"y": 1.2227068612,
				"z": 2.7207517604,
				"element": "H" 
			}
		],
		 "valence_orbital": [ 
			{
				"type": "occ",
				"energy": -0.29323,
				"method": "rhf"
			},
			{
				"type": "occ",
				"energy": -0.27932,
				"method": "rhf"
			},
			{
				"type": "occ",
				"energy": -0.27638,
				"method": "rhf"
			},
			{
				"type": "occ",
				"energy": -0.26356,
				"method": "rhf"
			},
			{
				"type": "occ",
				"energy": -0.25995,
				"method": "rhf"
			},
			{
				"type": "unocc",
				"energy": -0.08557,
				"method": "rhf"
			},
			{
				"type": "unocc",
				"energy": -0.07061,
				"method": "rhf"
			},
			{
				"type": "unocc",
				"energy": -0.04253,
				"method": "rhf"
			},
			{
				"type": "unocc",
				"energy": -0.02868,
				"method": "rhf"
			},
			{
				"type": "unocc",
				"energy": 0.01617,
				"method": "rhf"
			}
		],
		"cosmo_sigma_profile": { 
			"-0.025": 0.0,
			"-0.024": 0.0,
			"-0.023": 0.0,
			"-0.022": 0.0,
			"-0.021": 0.0,
			"-0.02": 0.160653172366,
			"-0.019": 0.905193649542,
			"-0.018": 1.1605076645,
			"-0.017": 0.850676053216,
			"-0.016": 0.949259464624,
			"-0.015": 1.10972146235,
			"-0.014": 0.591617911531,
			"-0.013": 1.20127398111,
			"-0.012": 1.8341133533,
			"-0.011": 0.878551774699,
			"-0.01": 1.43799536029,
			"-0.009": 2.29519613074,
			"-0.008": 6.1268631653,
			"-0.007": 13.3408735357,
			"-0.006": 16.1410914467,
			"-0.005": 16.0461128881,
			"-0.004": 14.3062139106,
			"-0.003": 13.8976356602,
			"-0.002": 14.4343637279,
			"-0.001": 22.880044482,
			"0.0": 19.6870257515,
			"0.001": 15.2046030607,
			"0.002": 17.3998461088,
			"0.003": 13.8468672212,
			"0.004": 4.69207194321,
			"0.005": 5.26523292062,
			"0.006": 5.29844265897,
			"0.007": 5.22118131919,
			"0.008": 4.7477942532,
			"0.009": 7.26519682022,
			"0.01": 8.63544417665,
			"0.011": 10.4605632512,
			"0.012": 6.79267481213,
			"0.013": 2.04913827436,
			"0.014": 0.85398649921,
			"0.015": 0.637964229661,
			"0.016": 0.098748276582,
			"0.017": 0.0,
			"0.018": 0.0,
			"0.019": 0.0,
			"0.02": 0.0,
			"0.021": 0.0,
			"0.022": 0.0,
			"0.023": 0.0,
			"0.024": 0.0,
			"0.025": 0.0
		}
	}
}
