{
	 "smiles": "CC(CO)CO", 
	 "Tm": 182.15, 
	 "num_atms": 16, 
	 "gaussian": { 
		 "optdone": 1, 
		 "sigma_profile": "yes", 
		 "theory": "DFT", 
		 "functional": "B3LYP", 
		 "basiset": "6-31G**", 
		 "properties": { 
			 "R2extent": 831.9221, 
			 "electric_dipole_moment_norm": 3.47875914803, 
			 "electric_quadrupole_moment_norm": 9.11522111196, 
			 "total_energy": -308.887842915, 
			 "HOMO_LUMO_gap": 0.30302, 
			 "cosmo_polarized_energy": -9.34, 
			 "cosmo_cavitation_energy": 17.84, 
			 "cosmo_dispersion_energy": -13.57, 
			 "cosmo_repulsion_energy": 1.19, 
			 "cosmo_total_nonelectrostatic_energy": 5.47, 
			 "SMD_solvation_energy": 3.22 
		},
		"coords": [
			{
				"x": -1.3226960362,
				"y": -1.1481791714,
				"z": 0.2551132083,
				"element": "C" 
			},
			{
				"x": -0.1641221272,
				"y": -0.3392997906,
				"z": 0.8543825484,
				"element": "C" 
			},
			{
				"x": 0.3806329366,
				"y": 0.6832958767,
				"z": -0.1601719142,
				"element": "C" 
			},
			{
				"x": 1.2500950766,
				"y": 1.6426133552,
				"z": 0.4072006565,
				"element": "O" 
			},
			{
				"x": 0.9312401887,
				"y": -1.289953653,
				"z": 1.3426364032,
				"element": "C" 
			},
			{
				"x": 1.9856671225,
				"y": -0.5282590147,
				"z": 1.9448430753,
				"element": "O" 
			},
			{
				"x": -1.0064226503,
				"y": -1.6915399182,
				"z": -0.6436625532,
				"element": "H" 
			},
			{
				"x": -1.7119286601,
				"y": -1.8831266779,
				"z": 0.9676829666,
				"element": "H" 
			},
			{
				"x": -2.1498435727,
				"y": -0.4910897568,
				"z": -0.0299520667,
				"element": "H" 
			},
			{
				"x": -0.528130446,
				"y": 0.2270017687,
				"z": 1.7220278739,
				"element": "H" 
			},
			{
				"x": 0.8639060816,
				"y": 0.1330004321,
				"z": -0.9904674642,
				"element": "H" 
			},
			{
				"x": -0.4566255045,
				"y": 1.2398400508,
				"z": -0.5982461363,
				"element": "H" 
			},
			{
				"x": 1.8636073399,
				"y": 1.1448442251,
				"z": 0.9704860105,
				"element": "H" 
			},
			{
				"x": 1.3146581298,
				"y": -1.8704309243,
				"z": 0.4877193389,
				"element": "H" 
			},
			{
				"x": 0.513862254,
				"y": -2.00340516,
				"z": 2.0694284121,
				"element": "H" 
			},
			{
				"x": 2.7336998673,
				"y": -1.1135116416,
				"z": 2.1139796409,
				"element": "H" 
			}
		],
		 "valence_orbital": [ 
			{
				"type": "occ",
				"energy": -0.34742,
				"method": "rhf"
			},
			{
				"type": "occ",
				"energy": -0.33411,
				"method": "rhf"
			},
			{
				"type": "occ",
				"energy": -0.30522,
				"method": "rhf"
			},
			{
				"type": "occ",
				"energy": -0.2769,
				"method": "rhf"
			},
			{
				"type": "occ",
				"energy": -0.24292,
				"method": "rhf"
			},
			{
				"type": "unocc",
				"energy": 0.0601,
				"method": "rhf"
			},
			{
				"type": "unocc",
				"energy": 0.08563,
				"method": "rhf"
			},
			{
				"type": "unocc",
				"energy": 0.12544,
				"method": "rhf"
			},
			{
				"type": "unocc",
				"energy": 0.13523,
				"method": "rhf"
			},
			{
				"type": "unocc",
				"energy": 0.15055,
				"method": "rhf"
			}
		],
		"cosmo_sigma_profile": { 
			"-0.025": 0.0,
			"-0.024": 0.0,
			"-0.023": 0.0,
			"-0.022": 0.0,
			"-0.021": 0.0,
			"-0.02": 0.0,
			"-0.019": 0.0,
			"-0.018": 0.0,
			"-0.017": 0.0889874699867,
			"-0.016": 1.2123392978,
			"-0.015": 0.857594577698,
			"-0.014": 1.22653974972,
			"-0.013": 0.580240629415,
			"-0.012": 1.10638922525,
			"-0.011": 0.710204137634,
			"-0.01": 0.469757684963,
			"-0.009": 0.853918158143,
			"-0.008": 1.27140399754,
			"-0.007": 1.02882339719,
			"-0.006": 0.849631092109,
			"-0.005": 1.56200046216,
			"-0.004": 7.89497347408,
			"-0.003": 23.8191805022,
			"-0.002": 18.3701962299,
			"-0.001": 18.0338486477,
			"0.0": 14.0101273536,
			"0.001": 10.2905465026,
			"0.002": 4.33130271623,
			"0.003": 2.35003730999,
			"0.004": 2.13883302517,
			"0.005": 2.3315573694,
			"0.006": 2.70754414912,
			"0.007": 2.16303640306,
			"0.008": 1.91623302143,
			"0.009": 1.69369083176,
			"0.01": 1.49675146297,
			"0.011": 2.31723131516,
			"0.012": 2.30548662973,
			"0.013": 1.7588080144,
			"0.014": 1.60142948685,
			"0.015": 2.75892272321,
			"0.016": 0.952101971871,
			"0.017": 0.0,
			"0.018": 0.0,
			"0.019": 0.0,
			"0.02": 0.0,
			"0.021": 0.0,
			"0.022": 0.0,
			"0.023": 0.0,
			"0.024": 0.0,
			"0.025": 0.0
		}
	}
}
