{
	 "smiles": "CC(NC(=O)CCCCNC(=O)C12CC3CC(CC(C3)C1)C2)[P+]([O-])(OC1=CC=CC=C1)OC1=CC=CC=C1", 
	 "Tm": 423.15, 
	 "num_atms": 77, 
	 "gaussian": { 
		 "optdone": 1, 
		 "sigma_profile": "yes", 
		 "theory": "DFT", 
		 "functional": "B3LYP", 
		 "basiset": "6-31G**", 
		 "properties": { 
			 "R2extent": 33829.5464, 
			 "electric_dipole_moment_norm": 2.10263680173, 
			 "electric_quadrupole_moment_norm": 39.3033450707, 
			 "total_energy": -1993.81552717, 
			 "HOMO_LUMO_gap": 0.22264, 
			 "cosmo_polarized_energy": -27.73, 
			 "cosmo_cavitation_energy": 77.34, 
			 "cosmo_dispersion_energy": -49.75, 
			 "cosmo_repulsion_energy": 3.75, 
			 "cosmo_total_nonelectrostatic_energy": 31.34, 
			 "SMD_solvation_energy": 12.52 
		},
		"coords": [
			{
				"x": 0.1813938223,
				"y": -4.2955372825,
				"z": -4.0057398693,
				"element": "C" 
			},
			{
				"x": 0.7371808037,
				"y": -3.4765847191,
				"z": -2.8328818778,
				"element": "C" 
			},
			{
				"x": 0.3913018105,
				"y": -2.0687377076,
				"z": -2.921389772,
				"element": "N" 
			},
			{
				"x": -0.1872489897,
				"y": -1.382691255,
				"z": -1.886825779,
				"element": "C" 
			},
			{
				"x": -0.5019286966,
				"y": -1.9256333597,
				"z": -0.8306517093,
				"element": "O" 
			},
			{
				"x": -0.4558847714,
				"y": 0.0944033492,
				"z": -2.1537413451,
				"element": "C" 
			},
			{
				"x": -0.2185405503,
				"y": 0.955227937,
				"z": -0.9069598974,
				"element": "C" 
			},
			{
				"x": -0.6232947961,
				"y": 2.4191770547,
				"z": -1.1038239915,
				"element": "C" 
			},
			{
				"x": -0.4210814856,
				"y": 3.2872130797,
				"z": 0.1481082895,
				"element": "C" 
			},
			{
				"x": -1.2477670255,
				"y": 2.8900690042,
				"z": 1.2815387858,
				"element": "N" 
			},
			{
				"x": -2.5328098936,
				"y": 3.3412290991,
				"z": 1.4292774166,
				"element": "C" 
			},
			{
				"x": -3.0308303697,
				"y": 4.1220644031,
				"z": 0.6227091811,
				"element": "O" 
			},
			{
				"x": -3.2973091413,
				"y": 2.8181304353,
				"z": 2.6610848787,
				"element": "C" 
			},
			{
				"x": -4.7003748182,
				"y": 3.4676764817,
				"z": 2.6969614196,
				"element": "C" 
			},
			{
				"x": -5.4978944269,
				"y": 2.9609802188,
				"z": 3.9144626041,
				"element": "C" 
			},
			{
				"x": -5.658635943,
				"y": 1.4295902205,
				"z": 3.8249252229,
				"element": "C" 
			},
			{
				"x": -4.2658267149,
				"y": 0.7678838118,
				"z": 3.8090646655,
				"element": "C" 
			},
			{
				"x": -3.5088497995,
				"y": 1.132440085,
				"z": 5.1032056314,
				"element": "C" 
			},
			{
				"x": -3.3519137147,
				"y": 2.6646067819,
				"z": 5.1968549106,
				"element": "C" 
			},
			{
				"x": -4.7458326743,
				"y": 3.323871032,
				"z": 5.2112481221,
				"element": "C" 
			},
			{
				"x": -2.5527155231,
				"y": 3.173232439,
				"z": 3.9786506711,
				"element": "C" 
			},
			{
				"x": -3.4678198705,
				"y": 1.2739937239,
				"z": 2.5891601537,
				"element": "C" 
			},
			{
				"x": 2.5586468708,
				"y": -3.7055688138,
				"z": -2.672894073,
				"element": "P" 
			},
			{
				"x": 3.0315257587,
				"y": -5.1111679099,
				"z": -2.6639819928,
				"element": "O" 
			},
			{
				"x": 3.0463745522,
				"y": -2.7551858057,
				"z": -3.9090942417,
				"element": "O" 
			},
			{
				"x": 4.3913605145,
				"y": -2.538558688,
				"z": -4.2303029635,
				"element": "C" 
			},
			{
				"x": 4.7929539839,
				"y": -1.2179215334,
				"z": -4.4218963144,
				"element": "C" 
			},
			{
				"x": 6.1092328145,
				"y": -0.9555554593,
				"z": -4.8021199746,
				"element": "C" 
			},
			{
				"x": 7.0131526587,
				"y": -2.0050151547,
				"z": -4.9810951804,
				"element": "C" 
			},
			{
				"x": 6.5932277654,
				"y": -3.3215230959,
				"z": -4.7823137376,
				"element": "C" 
			},
			{
				"x": 5.2767656321,
				"y": -3.6023575457,
				"z": -4.4104807149,
				"element": "C" 
			},
			{
				"x": 3.0242686771,
				"y": -2.7854160701,
				"z": -1.4113344383,
				"element": "O" 
			},
			{
				"x": 3.2169023509,
				"y": -3.3236164991,
				"z": -0.1286271616,
				"element": "C" 
			},
			{
				"x": 2.2171812449,
				"y": -3.147930943,
				"z": 0.8261252175,
				"element": "C" 
			},
			{
				"x": 2.4387854013,
				"y": -3.6240105581,
				"z": 2.1204290415,
				"element": "C" 
			},
			{
				"x": 3.6375754339,
				"y": -4.2614141218,
				"z": 2.4463390237,
				"element": "C" 
			},
			{
				"x": 4.6242772354,
				"y": -4.4277319085,
				"z": 1.4715661121,
				"element": "C" 
			},
			{
				"x": 4.4197184769,
				"y": -3.9579111829,
				"z": 0.173878112,
				"element": "C" 
			},
			{
				"x": -0.9091511732,
				"y": -4.2183331421,
				"z": -4.0237058071,
				"element": "H" 
			},
			{
				"x": 0.5720608286,
				"y": -3.931394099,
				"z": -4.9612948804,
				"element": "H" 
			},
			{
				"x": 0.4634072308,
				"y": -5.3460009582,
				"z": -3.9021457339,
				"element": "H" 
			},
			{
				"x": 0.3121779859,
				"y": -3.831619776,
				"z": -1.8884438088,
				"element": "H" 
			},
			{
				"x": 0.7313366282,
				"y": -1.5560598846,
				"z": -3.7223305994,
				"element": "H" 
			},
			{
				"x": -1.5073032599,
				"y": 0.1800191615,
				"z": -2.4607081628,
				"element": "H" 
			},
			{
				"x": 0.1451122562,
				"y": 0.4542779354,
				"z": -2.9982809168,
				"element": "H" 
			},
			{
				"x": -0.7847138869,
				"y": 0.5113529578,
				"z": -0.0820615427,
				"element": "H" 
			},
			{
				"x": 0.8419174581,
				"y": 0.8967409722,
				"z": -0.6250458313,
				"element": "H" 
			},
			{
				"x": -1.6779049924,
				"y": 2.485434408,
				"z": -1.3969971073,
				"element": "H" 
			},
			{
				"x": -0.0404919158,
				"y": 2.8627801892,
				"z": -1.9230605265,
				"element": "H" 
			},
			{
				"x": -0.6743360452,
				"y": 4.3240800163,
				"z": -0.0862179174,
				"element": "H" 
			},
			{
				"x": 0.6273850501,
				"y": 3.256423141,
				"z": 0.4674075915,
				"element": "H" 
			},
			{
				"x": -0.8868838568,
				"y": 2.2105790694,
				"z": 1.9321972615,
				"element": "H" 
			},
			{
				"x": -4.5951710046,
				"y": 4.5574924009,
				"z": 2.7293555674,
				"element": "H" 
			},
			{
				"x": -5.2290828093,
				"y": 3.2406227418,
				"z": 1.7652311646,
				"element": "H" 
			},
			{
				"x": -6.4874144906,
				"y": 3.4352108157,
				"z": 3.9181036216,
				"element": "H" 
			},
			{
				"x": -6.2415246561,
				"y": 1.0576051411,
				"z": 4.6777539057,
				"element": "H" 
			},
			{
				"x": -6.2140240391,
				"y": 1.1609917367,
				"z": 2.9168986086,
				"element": "H" 
			},
			{
				"x": -4.3733022461,
				"y": -0.3219249159,
				"z": 3.7386136195,
				"element": "H" 
			},
			{
				"x": -2.5224455643,
				"y": 0.649272484,
				"z": 5.1135374897,
				"element": "H" 
			},
			{
				"x": -4.055640255,
				"y": 0.7562822905,
				"z": 5.9775027849,
				"element": "H" 
			},
			{
				"x": -2.8092838216,
				"y": 2.924631961,
				"z": 6.1147628562,
				"element": "H" 
			},
			{
				"x": -5.3128827535,
				"y": 2.9841762185,
				"z": 6.0878918434,
				"element": "H" 
			},
			{
				"x": -4.6467569175,
				"y": 4.4138067169,
				"z": 5.2975521803,
				"element": "H" 
			},
			{
				"x": -2.4148903117,
				"y": 4.2601960716,
				"z": 4.0406999064,
				"element": "H" 
			},
			{
				"x": -1.5489543819,
				"y": 2.7281741763,
				"z": 3.9894990253,
				"element": "H" 
			},
			{
				"x": -3.98399373,
				"y": 1.0046971039,
				"z": 1.6589760814,
				"element": "H" 
			},
			{
				"x": -2.4894207616,
				"y": 0.7761989152,
				"z": 2.5611844717,
				"element": "H" 
			},
			{
				"x": 4.0764098449,
				"y": -0.4173137391,
				"z": -4.2717326503,
				"element": "H" 
			},
			{
				"x": 6.4273199729,
				"y": 0.0716558927,
				"z": -4.9541817109,
				"element": "H" 
			},
			{
				"x": 8.03760015,
				"y": -1.7976703247,
				"z": -5.2748297116,
				"element": "H" 
			},
			{
				"x": 7.2905397347,
				"y": -4.1423425876,
				"z": -4.9222608859,
				"element": "H" 
			},
			{
				"x": 4.9356006124,
				"y": -4.619370145,
				"z": -4.2559659552,
				"element": "H" 
			},
			{
				"x": 1.2904027514,
				"y": -2.6545106755,
				"z": 0.549343557,
				"element": "H" 
			},
			{
				"x": 1.6672069958,
				"y": -3.4956260065,
				"z": 2.8740453009,
				"element": "H" 
			},
			{
				"x": 3.8025395194,
				"y": -4.6287589697,
				"z": 3.4548648611,
				"element": "H" 
			},
			{
				"x": 5.5572742612,
				"y": -4.9256002385,
				"z": 1.7187792776,
				"element": "H" 
			},
			{
				"x": 5.1711149897,
				"y": -4.0783965986,
				"z": -0.598371653,
				"element": "H" 
			}
		],
		 "valence_orbital": [ 
			{
				"type": "occ",
				"energy": -0.2512,
				"method": "rhf"
			},
			{
				"type": "occ",
				"energy": -0.24704,
				"method": "rhf"
			},
			{
				"type": "occ",
				"energy": -0.24467,
				"method": "rhf"
			},
			{
				"type": "occ",
				"energy": -0.24003,
				"method": "rhf"
			},
			{
				"type": "occ",
				"energy": -0.23408,
				"method": "rhf"
			},
			{
				"type": "unocc",
				"energy": -0.01144,
				"method": "rhf"
			},
			{
				"type": "unocc",
				"energy": -0.00626,
				"method": "rhf"
			},
			{
				"type": "unocc",
				"energy": -0.00286,
				"method": "rhf"
			},
			{
				"type": "unocc",
				"energy": 0.00266,
				"method": "rhf"
			},
			{
				"type": "unocc",
				"energy": 0.01268,
				"method": "rhf"
			}
		],
		"cosmo_sigma_profile": { 
			"-0.025": 0.0,
			"-0.024": 0.0,
			"-0.023": 0.0,
			"-0.022": 0.0,
			"-0.021": 0.0,
			"-0.02": 0.0,
			"-0.019": 0.0,
			"-0.018": 0.0,
			"-0.017": 0.0,
			"-0.016": 0.0,
			"-0.015": 0.0,
			"-0.014": 0.305597452881,
			"-0.013": 1.38115454649,
			"-0.012": 1.82550277023,
			"-0.011": 2.29827344467,
			"-0.01": 3.22945787973,
			"-0.009": 2.78371122377,
			"-0.008": 3.83753891389,
			"-0.007": 5.94834580934,
			"-0.006": 21.2946074476,
			"-0.005": 30.2847470272,
			"-0.004": 39.0257645893,
			"-0.003": 48.9562345542,
			"-0.002": 74.8061388605,
			"-0.001": 76.9480132113,
			"0.0": 66.5619891861,
			"0.001": 50.8733084621,
			"0.002": 34.8846010232,
			"0.003": 30.0730204707,
			"0.004": 31.0471164244,
			"0.005": 21.751309396,
			"0.006": 7.24448205606,
			"0.007": 5.93334448507,
			"0.008": 5.03809685339,
			"0.009": 4.74542559518,
			"0.01": 4.27594956034,
			"0.011": 3.90568751266,
			"0.012": 5.63742076707,
			"0.013": 8.11129909444,
			"0.014": 7.16113199722,
			"0.015": 2.82055054187,
			"0.016": 0.0658006890356,
			"0.017": 0.0,
			"0.018": 0.0,
			"0.019": 0.0,
			"0.02": 0.0,
			"0.021": 0.0,
			"0.022": 0.0,
			"0.023": 0.0,
			"0.024": 0.0,
			"0.025": 0.0
		}
	}
}
