{
	 "smiles": "CC(C)C1=NN(C)C(=O)C1", 
	 "Tm": 384.15, 
	 "num_atms": 22, 
	 "gaussian": { 
		 "optdone": 1, 
		 "sigma_profile": "yes", 
		 "theory": "DFT", 
		 "functional": "B3LYP", 
		 "basiset": "6-31G**", 
		 "properties": { 
			 "R2extent": 2030.3371, 
			 "electric_dipole_moment_norm": 2.79632043049, 
			 "electric_quadrupole_moment_norm": 10.8235110528, 
			 "total_energy": -458.697145132, 
			 "HOMO_LUMO_gap": 0.20336, 
			 "cosmo_polarized_energy": -10.31, 
			 "cosmo_cavitation_energy": 24.98, 
			 "cosmo_dispersion_energy": -17.9, 
			 "cosmo_repulsion_energy": 1.49, 
			 "cosmo_total_nonelectrostatic_energy": 8.57, 
			 "SMD_solvation_energy": 4.31 
		},
		"coords": [
			{
				"x": -0.7511769115,
				"y": 3.042267918,
				"z": -0.4404330807,
				"element": "C" 
			},
			{
				"x": 0.2440311705,
				"y": 2.2939407476,
				"z": -1.3491068037,
				"element": "C" 
			},
			{
				"x": 1.4856752037,
				"y": 3.1597310817,
				"z": -1.64050287,
				"element": "C" 
			},
			{
				"x": 0.6265966858,
				"y": 0.9605126259,
				"z": -0.766712033,
				"element": "C" 
			},
			{
				"x": 0.3558659754,
				"y": -0.1416911239,
				"z": -1.381883681,
				"element": "N" 
			},
			{
				"x": 0.8267344341,
				"y": -1.2001848218,
				"z": -0.6071293257,
				"element": "N" 
			},
			{
				"x": 0.6575007281,
				"y": -2.5615232887,
				"z": -1.0582308026,
				"element": "C" 
			},
			{
				"x": 1.4346834344,
				"y": -0.8078670498,
				"z": 0.567267615,
				"element": "C" 
			},
			{
				"x": 1.9246048955,
				"y": -1.5397424232,
				"z": 1.4103842867,
				"element": "O" 
			},
			{
				"x": 1.3390591092,
				"y": 0.7203888977,
				"z": 0.5408721668,
				"element": "C" 
			},
			{
				"x": -1.0623459895,
				"y": 3.9811296306,
				"z": -0.9097474244,
				"element": "H" 
			},
			{
				"x": -0.2999135271,
				"y": 3.291179261,
				"z": 0.52679729,
				"element": "H" 
			},
			{
				"x": -1.6475916851,
				"y": 2.4430820623,
				"z": -0.2535987716,
				"element": "H" 
			},
			{
				"x": -0.2541498305,
				"y": 2.069995681,
				"z": -2.2996959918,
				"element": "H" 
			},
			{
				"x": 1.1900727048,
				"y": 4.0997022115,
				"z": -2.1175951403,
				"element": "H" 
			},
			{
				"x": 2.1821960237,
				"y": 2.6444497167,
				"z": -2.3089568196,
				"element": "H" 
			},
			{
				"x": 2.02189827,
				"y": 3.4125088641,
				"z": -0.7187151198,
				"element": "H" 
			},
			{
				"x": 1.0996781654,
				"y": -3.2052900383,
				"z": -0.2961071916,
				"element": "H" 
			},
			{
				"x": 1.1653292627,
				"y": -2.7216116116,
				"z": -2.0147278799,
				"element": "H" 
			},
			{
				"x": -0.4034199532,
				"y": -2.8049033506,
				"z": -1.1749349386,
				"element": "H" 
			},
			{
				"x": 0.7867122457,
				"y": 1.0858596668,
				"z": 1.4134666578,
				"element": "H" 
			},
			{
				"x": 2.3377595881,
				"y": 1.1685653431,
				"z": 0.583689858,
				"element": "H" 
			}
		],
		 "valence_orbital": [ 
			{
				"type": "occ",
				"energy": -0.34398,
				"method": "rhf"
			},
			{
				"type": "occ",
				"energy": -0.33797,
				"method": "rhf"
			},
			{
				"type": "occ",
				"energy": -0.30666,
				"method": "rhf"
			},
			{
				"type": "occ",
				"energy": -0.24648,
				"method": "rhf"
			},
			{
				"type": "occ",
				"energy": -0.22325,
				"method": "rhf"
			},
			{
				"type": "unocc",
				"energy": -0.01989,
				"method": "rhf"
			},
			{
				"type": "unocc",
				"energy": 0.04421,
				"method": "rhf"
			},
			{
				"type": "unocc",
				"energy": 0.07525,
				"method": "rhf"
			},
			{
				"type": "unocc",
				"energy": 0.11459,
				"method": "rhf"
			},
			{
				"type": "unocc",
				"energy": 0.11998,
				"method": "rhf"
			}
		],
		"cosmo_sigma_profile": { 
			"-0.025": 0.0,
			"-0.024": 0.0,
			"-0.023": 0.0,
			"-0.022": 0.0,
			"-0.021": 0.0,
			"-0.02": 0.0,
			"-0.019": 0.0,
			"-0.018": 0.0,
			"-0.017": 0.0,
			"-0.016": 0.0,
			"-0.015": 0.0,
			"-0.014": 0.0,
			"-0.013": 0.0,
			"-0.012": 0.0,
			"-0.011": 0.0,
			"-0.01": 0.0,
			"-0.009": 0.0,
			"-0.008": 1.77347149191,
			"-0.007": 4.02844885851,
			"-0.006": 6.45002078929,
			"-0.005": 12.8463355059,
			"-0.004": 18.3567827419,
			"-0.003": 26.4198179768,
			"-0.002": 26.9619815798,
			"-0.001": 20.8118319789,
			"0.0": 21.081338388,
			"0.001": 13.4852568246,
			"0.002": 4.00659072473,
			"0.003": 3.8587914685,
			"0.004": 3.35279610074,
			"0.005": 3.37182221083,
			"0.006": 2.01628356144,
			"0.007": 3.38560696419,
			"0.008": 1.99862121627,
			"0.009": 1.73597478499,
			"0.01": 2.97003458007,
			"0.011": 2.86132238084,
			"0.012": 3.36368036801,
			"0.013": 6.31509702227,
			"0.014": 3.61535564218,
			"0.015": 0.493935823193,
			"0.016": 0.0,
			"0.017": 0.0,
			"0.018": 0.0,
			"0.019": 0.0,
			"0.02": 0.0,
			"0.021": 0.0,
			"0.022": 0.0,
			"0.023": 0.0,
			"0.024": 0.0,
			"0.025": 0.0
		}
	}
}
