{
	 "smiles": "CCOC(=O)C1=CC2=C(N1)C=C(N)C(OC)=C2", 
	 "Tm": 438.15, 
	 "num_atms": 31, 
	 "gaussian": { 
		 "optdone": 1, 
		 "sigma_profile": "yes", 
		 "theory": "DFT", 
		 "functional": "B3LYP", 
		 "basiset": "6-31G**", 
		 "properties": { 
			 "R2extent": 6431.4388, 
			 "electric_dipole_moment_norm": 1.32313186796, 
			 "electric_quadrupole_moment_norm": 19.1529348978, 
			 "total_energy": -800.904379601, 
			 "HOMO_LUMO_gap": 0.15128, 
			 "cosmo_polarized_energy": -14.24, 
			 "cosmo_cavitation_energy": 35.45, 
			 "cosmo_dispersion_energy": -25.77, 
			 "cosmo_repulsion_energy": 2.03, 
			 "cosmo_total_nonelectrostatic_energy": 11.71, 
			 "SMD_solvation_energy": 7.35 
		},
		"coords": [
			{
				"x": -1.2389748239,
				"y": -0.9791840832,
				"z": 5.3747242009,
				"element": "C" 
			},
			{
				"x": 0.0025719272,
				"y": -1.1215870882,
				"z": 4.5147179781,
				"element": "C" 
			},
			{
				"x": -0.3032568687,
				"y": -0.5647715396,
				"z": 3.2180227068,
				"element": "O" 
			},
			{
				"x": 0.6988445087,
				"y": -0.6069585522,
				"z": 2.313264498,
				"element": "C" 
			},
			{
				"x": 1.8047354579,
				"y": -1.0771237817,
				"z": 2.5386764879,
				"element": "O" 
			},
			{
				"x": 0.3203414309,
				"y": -0.0281860577,
				"z": 1.028426279,
				"element": "C" 
			},
			{
				"x": -0.8458182085,
				"y": 0.5465594128,
				"z": 0.5648041498,
				"element": "C" 
			},
			{
				"x": -0.6121110321,
				"y": 0.9299869939,
				"z": -0.7893751448,
				"element": "C" 
			},
			{
				"x": 0.7308020161,
				"y": 0.5621551906,
				"z": -1.1052718551,
				"element": "C" 
			},
			{
				"x": 1.2683741087,
				"y": -0.0148875696,
				"z": 0.014913487,
				"element": "N" 
			},
			{
				"x": 1.3036398097,
				"y": 0.8045411122,
				"z": -2.3611295901,
				"element": "C" 
			},
			{
				"x": 0.5155709449,
				"y": 1.4172425276,
				"z": -3.3332238452,
				"element": "C" 
			},
			{
				"x": 0.9738605802,
				"y": 1.6636454763,
				"z": -4.6259975703,
				"element": "N" 
			},
			{
				"x": -0.8345564917,
				"y": 1.7823904324,
				"z": -3.0272060644,
				"element": "C" 
			},
			{
				"x": -1.5565782897,
				"y": 2.4260828929,
				"z": -4.0233365117,
				"element": "O" 
			},
			{
				"x": -2.3318718385,
				"y": 1.5422206133,
				"z": -4.8386346973,
				"element": "C" 
			},
			{
				"x": -1.3912192291,
				"y": 1.5528965935,
				"z": -1.7867419567,
				"element": "C" 
			},
			{
				"x": -1.5202575763,
				"y": 0.0721860904,
				"z": 5.4840064999,
				"element": "H" 
			},
			{
				"x": -2.0833049002,
				"y": -1.5174190683,
				"z": 4.9344216985,
				"element": "H" 
			},
			{
				"x": -1.0499150615,
				"y": -1.3906654845,
				"z": 6.3711535351,
				"element": "H" 
			},
			{
				"x": 0.8591237755,
				"y": -0.5870262411,
				"z": 4.938138074,
				"element": "H" 
			},
			{
				"x": 0.2989729474,
				"y": -2.1683088507,
				"z": 4.3912262258,
				"element": "H" 
			},
			{
				"x": -1.7525410758,
				"y": 0.6712102064,
				"z": 1.1381293949,
				"element": "H" 
			},
			{
				"x": 2.1965326602,
				"y": -0.388750144,
				"z": 0.13990891,
				"element": "H" 
			},
			{
				"x": 2.3304201923,
				"y": 0.5240037416,
				"z": -2.5793060408,
				"element": "H" 
			},
			{
				"x": 1.9772838735,
				"y": 1.740542294,
				"z": -4.7181856734,
				"element": "H" 
			},
			{
				"x": 0.477279607,
				"y": 2.4202111677,
				"z": -5.0794312696,
				"element": "H" 
			},
			{
				"x": -1.6950313023,
				"y": 0.8114411677,
				"z": -5.3523906064,
				"element": "H" 
			},
			{
				"x": -3.0782287311,
				"y": 1.0064681779,
				"z": -4.2391273864,
				"element": "H" 
			},
			{
				"x": -2.8419824133,
				"y": 2.1647167895,
				"z": -5.5776465395,
				"element": "H" 
			},
			{
				"x": -2.4133059972,
				"y": 1.8665675802,
				"z": -1.5975293739,
				"element": "H" 
			}
		],
		 "valence_orbital": [ 
			{
				"type": "occ",
				"energy": -0.2728,
				"method": "rhf"
			},
			{
				"type": "occ",
				"energy": -0.26831,
				"method": "rhf"
			},
			{
				"type": "occ",
				"energy": -0.2608,
				"method": "rhf"
			},
			{
				"type": "occ",
				"energy": -0.21002,
				"method": "rhf"
			},
			{
				"type": "occ",
				"energy": -0.18664,
				"method": "rhf"
			},
			{
				"type": "unocc",
				"energy": -0.03536,
				"method": "rhf"
			},
			{
				"type": "unocc",
				"energy": 0.02202,
				"method": "rhf"
			},
			{
				"type": "unocc",
				"energy": 0.04473,
				"method": "rhf"
			},
			{
				"type": "unocc",
				"energy": 0.08301,
				"method": "rhf"
			},
			{
				"type": "unocc",
				"energy": 0.10094,
				"method": "rhf"
			}
		],
		"cosmo_sigma_profile": { 
			"-0.025": 0.0,
			"-0.024": 0.0,
			"-0.023": 0.0,
			"-0.022": 0.0,
			"-0.021": 0.0,
			"-0.02": 0.0,
			"-0.019": 0.0,
			"-0.018": 0.0,
			"-0.017": 0.0,
			"-0.016": 0.0,
			"-0.015": 0.313487195987,
			"-0.014": 0.939779323839,
			"-0.013": 1.29193005428,
			"-0.012": 2.14054403591,
			"-0.011": 2.04442157925,
			"-0.01": 3.48973006027,
			"-0.009": 3.39581107938,
			"-0.008": 4.52642640845,
			"-0.007": 4.37027139681,
			"-0.006": 7.99026526517,
			"-0.005": 13.8848278838,
			"-0.004": 24.3016317908,
			"-0.003": 27.7577024915,
			"-0.002": 25.7993812712,
			"-0.001": 20.9286705018,
			"0.0": 19.6448184324,
			"0.001": 13.599105279,
			"0.002": 12.9077419812,
			"0.003": 15.5774129951,
			"0.004": 19.5198018849,
			"0.005": 20.7600723216,
			"0.006": 8.8484374922,
			"0.007": 5.05542893561,
			"0.008": 3.07552974499,
			"0.009": 3.54561535774,
			"0.01": 2.85190879782,
			"0.011": 3.93254428002,
			"0.012": 5.71324582443,
			"0.013": 2.22078775858,
			"0.014": 0.167491545106,
			"0.015": 0.0,
			"0.016": 0.0,
			"0.017": 0.0,
			"0.018": 0.0,
			"0.019": 0.0,
			"0.02": 0.0,
			"0.021": 0.0,
			"0.022": 0.0,
			"0.023": 0.0,
			"0.024": 0.0,
			"0.025": 0.0
		}
	}
}
