{
	 "smiles": "FC1=C(CCNC2=NCCS2)C=CC=C1", 
	 "Tm": 369.15, 
	 "num_atms": 28, 
	 "gaussian": { 
		 "optdone": 1, 
		 "sigma_profile": "yes", 
		 "theory": "DFT", 
		 "functional": "B3LYP", 
		 "basiset": "6-31G**", 
		 "properties": { 
			 "R2extent": 4698.5137, 
			 "electric_dipole_moment_norm": 1.7015963358, 
			 "electric_quadrupole_moment_norm": 8.77245360888, 
			 "total_energy": -1034.53690544, 
			 "HOMO_LUMO_gap": 0.20717, 
			 "cosmo_polarized_energy": -9.34, 
			 "cosmo_cavitation_energy": 33.07, 
			 "cosmo_dispersion_energy": -23.59, 
			 "cosmo_repulsion_energy": 1.81, 
			 "cosmo_total_nonelectrostatic_energy": 11.28, 
			 "SMD_solvation_energy": 2.04 
		},
		"coords": [
			{
				"x": 1.7121075494,
				"y": -1.1269840686,
				"z": 3.5700871273,
				"element": "F" 
			},
			{
				"x": 0.7280806394,
				"y": -0.3125639654,
				"z": 3.1109499859,
				"element": "C" 
			},
			{
				"x": -0.0145788704,
				"y": -0.7359027433,
				"z": 2.0045815226,
				"element": "C" 
			},
			{
				"x": 0.2864680083,
				"y": -2.0535239046,
				"z": 1.3307032589,
				"element": "C" 
			},
			{
				"x": 1.5578250456,
				"y": -2.013624629,
				"z": 0.4533324807,
				"element": "C" 
			},
			{
				"x": 1.4930470558,
				"y": -1.0707613642,
				"z": -0.6586939516,
				"element": "N" 
			},
			{
				"x": 0.7639504031,
				"y": -1.3667684803,
				"z": -1.7758787082,
				"element": "C" 
			},
			{
				"x": 0.1749854992,
				"y": -2.4791994572,
				"z": -2.0032461943,
				"element": "N" 
			},
			{
				"x": -0.3472276862,
				"y": -2.5467045385,
				"z": -3.3603169639,
				"element": "C" 
			},
			{
				"x": -0.5833097738,
				"y": -1.1152858692,
				"z": -3.9046266598,
				"element": "C" 
			},
			{
				"x": 0.7008743193,
				"y": -0.0969604795,
				"z": -3.0758044823,
				"element": "S" 
			},
			{
				"x": -1.014047508,
				"y": 0.1351151717,
				"z": 1.5507861716,
				"element": "C" 
			},
			{
				"x": -1.2560963827,
				"y": 1.3595467788,
				"z": 2.1786050469,
				"element": "C" 
			},
			{
				"x": -0.4939790602,
				"y": 1.7392992219,
				"z": 3.2843263601,
				"element": "C" 
			},
			{
				"x": 0.5116751582,
				"y": 0.8951575262,
				"z": 3.7601366643,
				"element": "C" 
			},
			{
				"x": 0.4287359442,
				"y": -2.8339070417,
				"z": 2.0870322797,
				"element": "H" 
			},
			{
				"x": -0.5559912358,
				"y": -2.3534866726,
				"z": 0.7016721671,
				"element": "H" 
			},
			{
				"x": 2.4236490137,
				"y": -1.7476654255,
				"z": 1.0669315441,
				"element": "H" 
			},
			{
				"x": 1.7305486568,
				"y": -3.0047355248,
				"z": 0.0279215592,
				"element": "H" 
			},
			{
				"x": 1.5605303907,
				"y": -0.0905638913,
				"z": -0.4236548485,
				"element": "H" 
			},
			{
				"x": 0.3702900958,
				"y": -3.0781066867,
				"z": -4.0030346443,
				"element": "H" 
			},
			{
				"x": -1.2820547769,
				"y": -3.1178020528,
				"z": -3.3788438996,
				"element": "H" 
			},
			{
				"x": -0.4604850114,
				"y": -1.0502776541,
				"z": -4.9872200169,
				"element": "H" 
			},
			{
				"x": -1.5716679155,
				"y": -0.7348765868,
				"z": -3.6320834193,
				"element": "H" 
			},
			{
				"x": -1.6130540053,
				"y": -0.1624481644,
				"z": 0.6942226137,
				"element": "H" 
			},
			{
				"x": -2.0391468753,
				"y": 2.0125883006,
				"z": 1.8057290067,
				"element": "H" 
			},
			{
				"x": -0.6778158826,
				"y": 2.6882094249,
				"z": 3.7790093812,
				"element": "H" 
			},
			{
				"x": 1.1239872044,
				"y": 1.1552327766,
				"z": 4.6169766186,
				"element": "H" 
			}
		],
		 "valence_orbital": [ 
			{
				"type": "occ",
				"energy": -0.25699,
				"method": "rhf"
			},
			{
				"type": "occ",
				"energy": -0.25525,
				"method": "rhf"
			},
			{
				"type": "occ",
				"energy": -0.24669,
				"method": "rhf"
			},
			{
				"type": "occ",
				"energy": -0.23679,
				"method": "rhf"
			},
			{
				"type": "occ",
				"energy": -0.21786,
				"method": "rhf"
			},
			{
				"type": "unocc",
				"energy": -0.01069,
				"method": "rhf"
			},
			{
				"type": "unocc",
				"energy": -0.00103,
				"method": "rhf"
			},
			{
				"type": "unocc",
				"energy": 0.01154,
				"method": "rhf"
			},
			{
				"type": "unocc",
				"energy": 0.03541,
				"method": "rhf"
			},
			{
				"type": "unocc",
				"energy": 0.08445,
				"method": "rhf"
			}
		],
		"cosmo_sigma_profile": { 
			"-0.025": 0.0,
			"-0.024": 0.0,
			"-0.023": 0.0,
			"-0.022": 0.0,
			"-0.021": 0.0,
			"-0.02": 0.0,
			"-0.019": 0.0,
			"-0.018": 0.0,
			"-0.017": 0.0,
			"-0.016": 0.0,
			"-0.015": 0.0,
			"-0.014": 0.191427954339,
			"-0.013": 0.527666054804,
			"-0.012": 0.988446335162,
			"-0.011": 0.393399392105,
			"-0.01": 1.03047546159,
			"-0.009": 0.995209382364,
			"-0.008": 1.11991754417,
			"-0.007": 3.41417992064,
			"-0.006": 9.23496464319,
			"-0.005": 15.8442716641,
			"-0.004": 27.7962462559,
			"-0.003": 28.1971392198,
			"-0.002": 24.1316016812,
			"-0.001": 18.7790663659,
			"0.0": 18.2491611954,
			"0.001": 17.178993957,
			"0.002": 15.1385204056,
			"0.003": 17.2192437261,
			"0.004": 22.5762796331,
			"0.005": 17.4981220078,
			"0.006": 6.02397020681,
			"0.007": 4.76477106992,
			"0.008": 4.50363777548,
			"0.009": 3.05537764055,
			"0.01": 1.35920129485,
			"0.011": 1.07969842405,
			"0.012": 0.867205831477,
			"0.013": 0.697116251955,
			"0.014": 0.706318117163,
			"0.015": 0.475621483285,
			"0.016": 0.0743169081777,
			"0.017": 0.0,
			"0.018": 0.0,
			"0.019": 0.0,
			"0.02": 0.0,
			"0.021": 0.0,
			"0.022": 0.0,
			"0.023": 0.0,
			"0.024": 0.0,
			"0.025": 0.0
		}
	}
}
