{
	 "smiles": "COC1=CC(=CC(OC)=C1Br)C(O)=O", 
	 "Tm": 529.15, 
	 "num_atms": 23, 
	 "gaussian": { 
		 "optdone": 1, 
		 "sigma_profile": "yes", 
		 "theory": "DFT", 
		 "functional": "B3LYP", 
		 "basiset": "6-31G**", 
		 "properties": { 
			 "R2extent": 4203.6301, 
			 "electric_dipole_moment_norm": 3.19381744312, 
			 "electric_quadrupole_moment_norm": 26.6111091343, 
			 "total_energy": -3220.65507171, 
			 "HOMO_LUMO_gap": 0.18333, 
			 "cosmo_polarized_energy": -16.59, 
			 "cosmo_cavitation_energy": 29.79, 
			 "cosmo_dispersion_energy": -21.83, 
			 "cosmo_repulsion_energy": 1.73, 
			 "cosmo_total_nonelectrostatic_energy": 9.69, 
			 "SMD_solvation_energy": 6.91 
		},
		"coords": [
			{
				"x": 1.2474789558,
				"y": 0.2046583138,
				"z": -3.8800334405,
				"element": "C" 
			},
			{
				"x": 0.9703295474,
				"y": 0.9339101723,
				"z": -2.6886769703,
				"element": "O" 
			},
			{
				"x": 0.6103623075,
				"y": 0.2463288756,
				"z": -1.5809917332,
				"element": "C" 
			},
			{
				"x": 0.4673728381,
				"y": -1.1418617532,
				"z": -1.5293950018,
				"element": "C" 
			},
			{
				"x": 0.0876154502,
				"y": -1.7731795579,
				"z": -0.3394206366,
				"element": "C" 
			},
			{
				"x": -0.1347729767,
				"y": -1.0185231994,
				"z": 0.8142972978,
				"element": "C" 
			},
			{
				"x": 0.0071659996,
				"y": 0.3726908913,
				"z": 0.7797687468,
				"element": "C" 
			},
			{
				"x": -0.1540304037,
				"y": 1.0824830654,
				"z": 1.939482446,
				"element": "O" 
			},
			{
				"x": -1.466111416,
				"y": 1.6164174816,
				"z": 2.1487988443,
				"element": "C" 
			},
			{
				"x": 0.3718001231,
				"y": 1.004605231,
				"z": -0.4141027105,
				"element": "C" 
			},
			{
				"x": 0.5877857477,
				"y": 2.8877071797,
				"z": -0.4613737118,
				"element": "Br" 
			},
			{
				"x": -0.0292953259,
				"y": -3.2690253648,
				"z": -0.3752484649,
				"element": "C" 
			},
			{
				"x": -0.7248969473,
				"y": -3.8543582731,
				"z": 0.6338963341,
				"element": "O" 
			},
			{
				"x": 0.4556682555,
				"y": -3.9494307887,
				"z": -1.2490640206,
				"element": "O" 
			},
			{
				"x": 1.5212849812,
				"y": 0.9524508551,
				"z": -4.6246450798,
				"element": "H" 
			},
			{
				"x": 2.0815007429,
				"y": -0.4924273588,
				"z": -3.7379699838,
				"element": "H" 
			},
			{
				"x": 0.3660826185,
				"y": -0.3485653122,
				"z": -4.2253979001,
				"element": "H" 
			},
			{
				"x": 0.6532006923,
				"y": -1.7650028324,
				"z": -2.3942090822,
				"element": "H" 
			},
			{
				"x": -0.3577361399,
				"y": -1.4682346002,
				"z": 1.7773405572,
				"element": "H" 
			},
			{
				"x": -1.4353063189,
				"y": 2.1294123435,
				"z": 3.1113164626,
				"element": "H" 
			},
			{
				"x": -2.2156212516,
				"y": 0.8155378965,
				"z": 2.1856253975,
				"element": "H" 
			},
			{
				"x": -1.734533577,
				"y": 2.3317393576,
				"z": 1.3640170304,
				"element": "H" 
			},
			{
				"x": -1.1738439028,
				"y": -3.1823326231,
				"z": 1.1649856194,
				"element": "H" 
			}
		],
		 "valence_orbital": [ 
			{
				"type": "occ",
				"energy": -0.29421,
				"method": "rhf"
			},
			{
				"type": "occ",
				"energy": -0.28774,
				"method": "rhf"
			},
			{
				"type": "occ",
				"energy": -0.27651,
				"method": "rhf"
			},
			{
				"type": "occ",
				"energy": -0.25369,
				"method": "rhf"
			},
			{
				"type": "occ",
				"energy": -0.24114,
				"method": "rhf"
			},
			{
				"type": "unocc",
				"energy": -0.05781,
				"method": "rhf"
			},
			{
				"type": "unocc",
				"energy": -0.01589,
				"method": "rhf"
			},
			{
				"type": "unocc",
				"energy": 0.00036,
				"method": "rhf"
			},
			{
				"type": "unocc",
				"energy": 0.04507,
				"method": "rhf"
			},
			{
				"type": "unocc",
				"energy": 0.06237,
				"method": "rhf"
			}
		],
		"cosmo_sigma_profile": { 
			"-0.025": 0.0,
			"-0.024": 0.0,
			"-0.023": 0.0,
			"-0.022": 0.0,
			"-0.021": 0.0,
			"-0.02": 0.0,
			"-0.019": 0.324374699232,
			"-0.018": 0.954797398422,
			"-0.017": 1.23553326938,
			"-0.016": 0.855510837962,
			"-0.015": 1.13584804314,
			"-0.014": 1.03811762423,
			"-0.013": 0.601672425664,
			"-0.012": 1.30311282933,
			"-0.011": 0.98943724357,
			"-0.01": 1.3585042503,
			"-0.009": 1.45596065055,
			"-0.008": 1.39455041352,
			"-0.007": 5.18208110561,
			"-0.006": 13.2984254788,
			"-0.005": 16.6985613161,
			"-0.004": 22.4453722961,
			"-0.003": 21.2543305832,
			"-0.002": 13.9531277831,
			"-0.001": 12.3015731121,
			"0.0": 17.4089024292,
			"0.001": 18.6798532551,
			"0.002": 13.5852107488,
			"0.003": 11.01860701,
			"0.004": 10.7345428919,
			"0.005": 7.79656669513,
			"0.006": 6.31602621091,
			"0.007": 5.25378992241,
			"0.008": 6.9624433785,
			"0.009": 6.30454204939,
			"0.01": 7.35551291015,
			"0.011": 6.45612744419,
			"0.012": 3.92439278616,
			"0.013": 1.04285648489,
			"0.014": 0.0,
			"0.015": 0.0,
			"0.016": 0.0,
			"0.017": 0.0,
			"0.018": 0.0,
			"0.019": 0.0,
			"0.02": 0.0,
			"0.021": 0.0,
			"0.022": 0.0,
			"0.023": 0.0,
			"0.024": 0.0,
			"0.025": 0.0
		}
	}
}
