{
	 "smiles": "FC1=CC=C(C=N/N2C(=S)NN=C2C(F)(F)F)C=C1", 
	 "Tm": 549.15, 
	 "num_atms": 25, 
	 "gaussian": { 
		 "optdone": 1, 
		 "sigma_profile": "yes", 
		 "theory": "DFT", 
		 "functional": "B3LYP", 
		 "basiset": "6-31G**", 
		 "properties": { 
			 "R2extent": 6189.32, 
			 "electric_dipole_moment_norm": 3.25686922212, 
			 "electric_quadrupole_moment_norm": 17.1132261392, 
			 "total_energy": -1401.15975737, 
			 "HOMO_LUMO_gap": 0.14033, 
			 "cosmo_polarized_energy": -16.39, 
			 "cosmo_cavitation_energy": 34.24, 
			 "cosmo_dispersion_energy": -23.45, 
			 "cosmo_repulsion_energy": 1.7, 
			 "cosmo_total_nonelectrostatic_energy": 12.49, 
			 "SMD_solvation_energy": 5.35 
		},
		"coords": [
			{
				"x": -1.0125587071,
				"y": 2.4208029317,
				"z": 4.0302156307,
				"element": "F" 
			},
			{
				"x": -0.5613718575,
				"y": 1.6687996219,
				"z": 3.0131353518,
				"element": "C" 
			},
			{
				"x": -1.2583954374,
				"y": 1.6774427053,
				"z": 1.8078660992,
				"element": "C" 
			},
			{
				"x": -0.7981106916,
				"y": 0.8931390734,
				"z": 0.7554873982,
				"element": "C" 
			},
			{
				"x": 0.3605011821,
				"y": 0.1081149597,
				"z": 0.9078412476,
				"element": "C" 
			},
			{
				"x": 0.9285600591,
				"y": -0.7537505758,
				"z": -0.1364862506,
				"element": "C" 
			},
			{
				"x": 0.4242590073,
				"y": -1.4482917968,
				"z": -1.0953639275,
				"element": "N" 
			},
			{
				"x": -0.9860751573,
				"y": -1.4330642443,
				"z": -1.218115096,
				"element": "N" 
			},
			{
				"x": -1.6892210582,
				"y": -0.6803711383,
				"z": -2.1530190899,
				"element": "C" 
			},
			{
				"x": -1.2094630014,
				"y": 0.6600940425,
				"z": -3.0118110438,
				"element": "S" 
			},
			{
				"x": -2.9035255782,
				"y": -1.3151885946,
				"z": -2.152725709,
				"element": "N" 
			},
			{
				"x": -2.9829389041,
				"y": -2.4033874965,
				"z": -1.3404674383,
				"element": "N" 
			},
			{
				"x": -1.7989711588,
				"y": -2.46699229,
				"z": -0.8032992287,
				"element": "C" 
			},
			{
				"x": -1.3727598998,
				"y": -3.5284489689,
				"z": 0.1701817887,
				"element": "C" 
			},
			{
				"x": -0.9015732424,
				"y": -2.9680164983,
				"z": 1.3055928464,
				"element": "F" 
			},
			{
				"x": -2.4038008164,
				"y": -4.3189525267,
				"z": 0.481759021,
				"element": "F" 
			},
			{
				"x": -0.388406622,
				"y": -4.2878674973,
				"z": -0.3423162829,
				"element": "F" 
			},
			{
				"x": 1.0627071913,
				"y": 0.158273173,
				"z": 2.1275185587,
				"element": "C" 
			},
			{
				"x": 0.5996615842,
				"y": 0.922374073,
				"z": 3.1923440288,
				"element": "C" 
			},
			{
				"x": -2.138215986,
				"y": 2.3025834945,
				"z": 1.7036553584,
				"element": "H" 
			},
			{
				"x": -1.302500797,
				"y": 0.9429384724,
				"z": -0.2016851401,
				"element": "H" 
			},
			{
				"x": 2.0113110592,
				"y": -0.8856923619,
				"z": -0.0837913181,
				"element": "H" 
			},
			{
				"x": -3.6936746263,
				"y": -1.0361946755,
				"z": -2.7146587206,
				"element": "H" 
			},
			{
				"x": 1.9729882345,
				"y": -0.4229677478,
				"z": 2.2457320909,
				"element": "H" 
			},
			{
				"x": 1.1217752237,
				"y": 0.9578238654,
				"z": 4.1418098252,
				"element": "H" 
			}
		],
		 "valence_orbital": [ 
			{
				"type": "occ",
				"energy": -0.29397,
				"method": "rhf"
			},
			{
				"type": "occ",
				"energy": -0.28648,
				"method": "rhf"
			},
			{
				"type": "occ",
				"energy": -0.26887,
				"method": "rhf"
			},
			{
				"type": "occ",
				"energy": -0.2233,
				"method": "rhf"
			},
			{
				"type": "occ",
				"energy": -0.21909,
				"method": "rhf"
			},
			{
				"type": "unocc",
				"energy": -0.07876,
				"method": "rhf"
			},
			{
				"type": "unocc",
				"energy": -0.03595,
				"method": "rhf"
			},
			{
				"type": "unocc",
				"energy": -0.0298,
				"method": "rhf"
			},
			{
				"type": "unocc",
				"energy": -0.01607,
				"method": "rhf"
			},
			{
				"type": "unocc",
				"energy": 0.01131,
				"method": "rhf"
			}
		],
		"cosmo_sigma_profile": { 
			"-0.025": 0.0,
			"-0.024": 0.0,
			"-0.023": 0.0,
			"-0.022": 0.0,
			"-0.021": 0.0,
			"-0.02": 0.0,
			"-0.019": 0.366058472777,
			"-0.018": 1.34081464754,
			"-0.017": 1.30768625158,
			"-0.016": 0.602889413129,
			"-0.015": 0.977640095071,
			"-0.014": 1.21929435479,
			"-0.013": 0.898359777332,
			"-0.012": 0.180081498775,
			"-0.011": 0.681570658012,
			"-0.01": 4.695669357,
			"-0.009": 4.1143685255,
			"-0.008": 7.60554094926,
			"-0.007": 8.52525035948,
			"-0.006": 10.6845071048,
			"-0.005": 11.2450081373,
			"-0.004": 12.7672622903,
			"-0.003": 12.3102419736,
			"-0.002": 14.1395784221,
			"-0.001": 19.783740121,
			"0.0": 20.9727743422,
			"0.001": 36.6494851445,
			"0.002": 34.868915922,
			"0.003": 14.713241121,
			"0.004": 11.6490592842,
			"0.005": 6.70128267067,
			"0.006": 5.72268343987,
			"0.007": 6.39255176602,
			"0.008": 7.32051042482,
			"0.009": 8.37349054891,
			"0.01": 8.1617232162,
			"0.011": 3.95708315107,
			"0.012": 0.632372101567,
			"0.013": 0.0419988615623,
			"0.014": 0.0,
			"0.015": 0.0,
			"0.016": 0.0,
			"0.017": 0.0,
			"0.018": 0.0,
			"0.019": 0.0,
			"0.02": 0.0,
			"0.021": 0.0,
			"0.022": 0.0,
			"0.023": 0.0,
			"0.024": 0.0,
			"0.025": 0.0
		}
	}
}
