{
	 "smiles": "NN1C(=O)C(C#N)=C(C=C1C1=CC=CS1)C(F)(F)F", 
	 "Tm": 507.15, 
	 "num_atms": 25, 
	 "gaussian": { 
		 "optdone": 1, 
		 "sigma_profile": "yes", 
		 "theory": "DFT", 
		 "functional": "B3LYP", 
		 "basiset": "6-31G**", 
		 "properties": { 
			 "R2extent": 7037.4788, 
			 "electric_dipole_moment_norm": 9.58007874759, 
			 "electric_quadrupole_moment_norm": 21.2994384651, 
			 "total_energy": -1359.91293522, 
			 "HOMO_LUMO_gap": 0.13209, 
			 "cosmo_polarized_energy": -18.98, 
			 "cosmo_cavitation_energy": 33.64, 
			 "cosmo_dispersion_energy": -23.99, 
			 "cosmo_repulsion_energy": 1.72, 
			 "cosmo_total_nonelectrostatic_energy": 11.37, 
			 "SMD_solvation_energy": 8.91 
		},
		"coords": [
			{
				"x": 1.6332999495,
				"y": -0.4641117886,
				"z": 0.2997134631,
				"element": "N" 
			},
			{
				"x": 0.3328979771,
				"y": -0.4956204012,
				"z": 0.8513748115,
				"element": "N" 
			},
			{
				"x": 0.2089698319,
				"y": -1.3408568109,
				"z": 1.9982058714,
				"element": "C" 
			},
			{
				"x": 1.1988114617,
				"y": -1.9610197753,
				"z": 2.3782661512,
				"element": "O" 
			},
			{
				"x": -1.1102094135,
				"y": -1.3688737488,
				"z": 2.5954169227,
				"element": "C" 
			},
			{
				"x": -1.2723907596,
				"y": -2.2135267618,
				"z": 3.7326215538,
				"element": "C" 
			},
			{
				"x": -1.3939790549,
				"y": -2.90648355,
				"z": 4.6589859604,
				"element": "N" 
			},
			{
				"x": -2.1399558928,
				"y": -0.6104129108,
				"z": 2.0523558742,
				"element": "C" 
			},
			{
				"x": -1.9235886989,
				"y": 0.2036255034,
				"z": 0.9359172389,
				"element": "C" 
			},
			{
				"x": -0.6718495176,
				"y": 0.272754329,
				"z": 0.3304552939,
				"element": "C" 
			},
			{
				"x": -0.4443520284,
				"y": 1.1168439466,
				"z": -0.8425072951,
				"element": "C" 
			},
			{
				"x": 0.6940441955,
				"y": 1.7692266971,
				"z": -1.2789223488,
				"element": "C" 
			},
			{
				"x": 0.4719119821,
				"y": 2.5805321076,
				"z": -2.4230586969,
				"element": "C" 
			},
			{
				"x": -0.8243094356,
				"y": 2.5347352658,
				"z": -2.8655723074,
				"element": "C" 
			},
			{
				"x": -1.8035012075,
				"y": 1.5049139376,
				"z": -1.8878994213,
				"element": "S" 
			},
			{
				"x": -3.5224130846,
				"y": -0.6434455233,
				"z": 2.6798366667,
				"element": "C" 
			},
			{
				"x": -3.4845679509,
				"y": -0.2353173837,
				"z": 3.960485144,
				"element": "F" 
			},
			{
				"x": -4.3822703454,
				"y": 0.1622687272,
				"z": 2.0208698949,
				"element": "F" 
			},
			{
				"x": -4.0335642776,
				"y": -1.8872805775,
				"z": 2.656655147,
				"element": "F" 
			},
			{
				"x": 2.1697068607,
				"y": -1.044272495,
				"z": 0.9538148649,
				"element": "H" 
			},
			{
				"x": 1.6004182767,
				"y": -0.9573081399,
				"z": -0.5941469676,
				"element": "H" 
			},
			{
				"x": -2.7283506606,
				"y": 0.8150716834,
				"z": 0.5562735835,
				"element": "H" 
			},
			{
				"x": 1.6456146922,
				"y": 1.6698780371,
				"z": -0.7759413199,
				"element": "H" 
			},
			{
				"x": 1.2452447455,
				"y": 3.1714553631,
				"z": -2.8994899505,
				"element": "H" 
			},
			{
				"x": -1.258817645,
				"y": 3.0349242689,
				"z": -3.7203101344,
				"element": "H" 
			}
		],
		 "valence_orbital": [ 
			{
				"type": "occ",
				"energy": -0.30162,
				"method": "rhf"
			},
			{
				"type": "occ",
				"energy": -0.29276,
				"method": "rhf"
			},
			{
				"type": "occ",
				"energy": -0.28407,
				"method": "rhf"
			},
			{
				"type": "occ",
				"energy": -0.26464,
				"method": "rhf"
			},
			{
				"type": "occ",
				"energy": -0.23538,
				"method": "rhf"
			},
			{
				"type": "unocc",
				"energy": -0.10329,
				"method": "rhf"
			},
			{
				"type": "unocc",
				"energy": -0.04792,
				"method": "rhf"
			},
			{
				"type": "unocc",
				"energy": -0.0171,
				"method": "rhf"
			},
			{
				"type": "unocc",
				"energy": 0.0025,
				"method": "rhf"
			},
			{
				"type": "unocc",
				"energy": 0.02892,
				"method": "rhf"
			}
		],
		"cosmo_sigma_profile": { 
			"-0.025": 0.0,
			"-0.024": 0.0,
			"-0.023": 0.0,
			"-0.022": 0.0,
			"-0.021": 0.0,
			"-0.02": 0.0,
			"-0.019": 0.0,
			"-0.018": 0.0,
			"-0.017": 0.0,
			"-0.016": 0.0,
			"-0.015": 0.0,
			"-0.014": 1.23521322723,
			"-0.013": 2.14186918926,
			"-0.012": 1.91736842042,
			"-0.011": 2.2481788382,
			"-0.01": 3.16257815517,
			"-0.009": 4.28108443744,
			"-0.008": 4.26110589653,
			"-0.007": 7.14164259089,
			"-0.006": 10.9146769355,
			"-0.005": 13.9287665207,
			"-0.004": 15.5132425173,
			"-0.003": 18.0457984798,
			"-0.002": 20.8102915738,
			"-0.001": 19.1097476046,
			"0.0": 17.8159800907,
			"0.001": 27.0325296086,
			"0.002": 39.4917878167,
			"0.003": 16.897437969,
			"0.004": 5.22417705323,
			"0.005": 5.06014577208,
			"0.006": 5.03392494197,
			"0.007": 5.15353732994,
			"0.008": 5.8290709757,
			"0.009": 4.84395060742,
			"0.01": 5.11207691326,
			"0.011": 5.30282061059,
			"0.012": 5.56249689099,
			"0.013": 1.52983450598,
			"0.014": 0.0,
			"0.015": 0.0,
			"0.016": 0.0,
			"0.017": 0.0,
			"0.018": 0.0,
			"0.019": 0.0,
			"0.02": 0.0,
			"0.021": 0.0,
			"0.022": 0.0,
			"0.023": 0.0,
			"0.024": 0.0,
			"0.025": 0.0
		}
	}
}
