{
	 "smiles": "CC(=O)C1=CC2=C(C=C1)C(O)=C(O)C=C2", 
	 "Tm": 443.15, 
	 "num_atms": 25, 
	 "gaussian": { 
		 "optdone": 1, 
		 "sigma_profile": "yes", 
		 "theory": "DFT", 
		 "functional": "B3LYP", 
		 "basiset": "6-31G**", 
		 "properties": { 
			 "R2extent": 4059.8729, 
			 "electric_dipole_moment_norm": 2.10438259117, 
			 "electric_quadrupole_moment_norm": 22.5490330276, 
			 "total_energy": -688.983264386, 
			 "HOMO_LUMO_gap": 0.14839, 
			 "cosmo_polarized_energy": -14.78, 
			 "cosmo_cavitation_energy": 29.1, 
			 "cosmo_dispersion_energy": -21.61, 
			 "cosmo_repulsion_energy": 1.65, 
			 "cosmo_total_nonelectrostatic_energy": 9.14, 
			 "SMD_solvation_energy": 5.9 
		},
		"coords": [
			{
				"x": 2.1718334897,
				"y": 1.5710265115,
				"z": -2.4319737305,
				"element": "C" 
			},
			{
				"x": 2.6245434005,
				"y": 0.7435276354,
				"z": -1.2391667216,
				"element": "C" 
			},
			{
				"x": 3.8125850872,
				"y": 0.5123359149,
				"z": -1.0615985482,
				"element": "O" 
			},
			{
				"x": 1.5979808262,
				"y": 0.2174623521,
				"z": -0.2883448807,
				"element": "C" 
			},
			{
				"x": 0.2409622873,
				"y": 0.4482601166,
				"z": -0.4407105314,
				"element": "C" 
			},
			{
				"x": -0.7088613075,
				"y": -0.0660619039,
				"z": 0.4754651449,
				"element": "C" 
			},
			{
				"x": -0.2427599569,
				"y": -0.853636625,
				"z": 1.5823591231,
				"element": "C" 
			},
			{
				"x": 1.1588761781,
				"y": -1.0609936918,
				"z": 1.7336540668,
				"element": "C" 
			},
			{
				"x": 2.048775379,
				"y": -0.5457946946,
				"z": 0.8259345976,
				"element": "C" 
			},
			{
				"x": -1.2012327894,
				"y": -1.3871142611,
				"z": 2.4755840424,
				"element": "C" 
			},
			{
				"x": -0.8660660871,
				"y": -2.161449826,
				"z": 3.5734178752,
				"element": "O" 
			},
			{
				"x": -2.5558445083,
				"y": -1.1332852537,
				"z": 2.3123317056,
				"element": "C" 
			},
			{
				"x": -3.4685391887,
				"y": -1.6494767327,
				"z": 3.1738005257,
				"element": "O" 
			},
			{
				"x": -3.005408121,
				"y": -0.3349299352,
				"z": 1.2354967128,
				"element": "C" 
			},
			{
				"x": -2.1020285134,
				"y": 0.1776014156,
				"z": 0.3343570901,
				"element": "C" 
			},
			{
				"x": 3.0518140993,
				"y": 1.8600306382,
				"z": -3.0071587998,
				"element": "H" 
			},
			{
				"x": 1.6391521745,
				"y": 2.4716930695,
				"z": -2.1075087935,
				"element": "H" 
			},
			{
				"x": 1.4907276506,
				"y": 1.0006416513,
				"z": -3.0729688113,
				"element": "H" 
			},
			{
				"x": -0.1282714784,
				"y": 1.0374587887,
				"z": -1.2751475463,
				"element": "H" 
			},
			{
				"x": 1.5305696763,
				"y": -1.609411479,
				"z": 2.5950398069,
				"element": "H" 
			},
			{
				"x": 3.117338514,
				"y": -0.6955760991,
				"z": 0.9348267308,
				"element": "H" 
			},
			{
				"x": -0.1442696646,
				"y": -2.759130584,
				"z": 3.3389105177,
				"element": "H" 
			},
			{
				"x": -2.975708742,
				"y": -2.1806629009,
				"z": 3.8199648079,
				"element": "H" 
			},
			{
				"x": -4.0716800159,
				"y": -0.1599621187,
				"z": 1.1388319012,
				"element": "H" 
			},
			{
				"x": -2.4478883896,
				"y": 0.7803480117,
				"z": -0.5004962854,
				"element": "H" 
			}
		],
		 "valence_orbital": [ 
			{
				"type": "occ",
				"energy": -0.31103,
				"method": "rhf"
			},
			{
				"type": "occ",
				"energy": -0.27971,
				"method": "rhf"
			},
			{
				"type": "occ",
				"energy": -0.24579,
				"method": "rhf"
			},
			{
				"type": "occ",
				"energy": -0.24123,
				"method": "rhf"
			},
			{
				"type": "occ",
				"energy": -0.20837,
				"method": "rhf"
			},
			{
				"type": "unocc",
				"energy": -0.05998,
				"method": "rhf"
			},
			{
				"type": "unocc",
				"energy": -0.03494,
				"method": "rhf"
			},
			{
				"type": "unocc",
				"energy": 0.02314,
				"method": "rhf"
			},
			{
				"type": "unocc",
				"energy": 0.03345,
				"method": "rhf"
			},
			{
				"type": "unocc",
				"energy": 0.04621,
				"method": "rhf"
			}
		],
		"cosmo_sigma_profile": { 
			"-0.025": 0.0,
			"-0.024": 0.0,
			"-0.023": 0.0,
			"-0.022": 0.0,
			"-0.021": 0.0,
			"-0.02": 0.0,
			"-0.019": 0.0,
			"-0.018": 0.367992566377,
			"-0.017": 1.12644840111,
			"-0.016": 1.07293391529,
			"-0.015": 0.890405332486,
			"-0.014": 1.44191544599,
			"-0.013": 1.82453254531,
			"-0.012": 1.16478871119,
			"-0.011": 1.55694769215,
			"-0.01": 1.74222021303,
			"-0.009": 1.89412270219,
			"-0.008": 1.50236722487,
			"-0.007": 6.33403289091,
			"-0.006": 14.433064895,
			"-0.005": 14.750887728,
			"-0.004": 15.1902078374,
			"-0.003": 13.6064602178,
			"-0.002": 12.9478736053,
			"-0.001": 14.600174644,
			"0.0": 12.2859517978,
			"0.001": 13.345456549,
			"0.002": 21.3290246565,
			"0.003": 26.2067847624,
			"0.004": 15.5430176844,
			"0.005": 5.92130446947,
			"0.006": 4.40024588525,
			"0.007": 2.74456018504,
			"0.008": 3.94905400198,
			"0.009": 4.67273066523,
			"0.01": 4.00670302911,
			"0.011": 4.95227383333,
			"0.012": 4.18422504015,
			"0.013": 1.97975662926,
			"0.014": 0.337228808702,
			"0.015": 0.0,
			"0.016": 0.0,
			"0.017": 0.0,
			"0.018": 0.0,
			"0.019": 0.0,
			"0.02": 0.0,
			"0.021": 0.0,
			"0.022": 0.0,
			"0.023": 0.0,
			"0.024": 0.0,
			"0.025": 0.0
		}
	}
}
