{
	 "smiles": "COCCN(CCOC)S(=O)(=O)C1=CC=C(C=C1)C(O)=O", 
	 "Tm": 421.15, 
	 "num_atms": 40, 
	 "gaussian": { 
		 "optdone": 1, 
		 "sigma_profile": "yes", 
		 "theory": "DFT", 
		 "functional": "B3LYP", 
		 "basiset": "6-31G**", 
		 "properties": { 
			 "R2extent": 9639.2752, 
			 "electric_dipole_moment_norm": 3.90609534702, 
			 "electric_quadrupole_moment_norm": 32.3344769446, 
			 "total_energy": -1411.00642912, 
			 "HOMO_LUMO_gap": 0.16669, 
			 "cosmo_polarized_energy": -26.61, 
			 "cosmo_cavitation_energy": 44.65, 
			 "cosmo_dispersion_energy": -29.5, 
			 "cosmo_repulsion_energy": 2.23, 
			 "cosmo_total_nonelectrostatic_energy": 17.38, 
			 "SMD_solvation_energy": 8.65 
		},
		"coords": [
			{
				"x": -1.4273686174,
				"y": -2.6628670639,
				"z": 4.0367914537,
				"element": "C" 
			},
			{
				"x": -1.9215748607,
				"y": -2.0642542611,
				"z": 2.8523434557,
				"element": "O" 
			},
			{
				"x": -0.922663306,
				"y": -1.5124936765,
				"z": 2.0149672041,
				"element": "C" 
			},
			{
				"x": -0.4653750833,
				"y": -0.1277803813,
				"z": 2.4996491773,
				"element": "C" 
			},
			{
				"x": 0.4345200395,
				"y": 0.5077116921,
				"z": 1.5121667195,
				"element": "N" 
			},
			{
				"x": -0.1083152816,
				"y": 1.6232401494,
				"z": 0.7197577581,
				"element": "C" 
			},
			{
				"x": -1.3295791121,
				"y": 1.2238327488,
				"z": -0.1191460093,
				"element": "C" 
			},
			{
				"x": -1.1238288436,
				"y": 0.1414130772,
				"z": -1.0020737394,
				"element": "O" 
			},
			{
				"x": -0.3334970872,
				"y": 0.4462847667,
				"z": -2.1354162376,
				"element": "C" 
			},
			{
				"x": 2.0520476543,
				"y": 0.6897479737,
				"z": 1.9740663483,
				"element": "S" 
			},
			{
				"x": 2.3248618779,
				"y": -0.3703000274,
				"z": 2.9496436104,
				"element": "O" 
			},
			{
				"x": 2.3629217807,
				"y": 2.0923447148,
				"z": 2.2791717728,
				"element": "O" 
			},
			{
				"x": 2.9231550102,
				"y": 0.2842775601,
				"z": 0.4492784611,
				"element": "C" 
			},
			{
				"x": 3.6261967524,
				"y": 1.2835235238,
				"z": -0.2256395975,
				"element": "C" 
			},
			{
				"x": 4.3226880894,
				"y": 0.956236531,
				"z": -1.3875203628,
				"element": "C" 
			},
			{
				"x": 4.310377292,
				"y": -0.3563844871,
				"z": -1.8747866795,
				"element": "C" 
			},
			{
				"x": 3.6196235003,
				"y": -1.352716352,
				"z": -1.1662025208,
				"element": "C" 
			},
			{
				"x": 2.9251132286,
				"y": -1.0373453844,
				"z": -0.0020539673,
				"element": "C" 
			},
			{
				"x": 5.0865554025,
				"y": -0.6330834341,
				"z": -3.1325026421,
				"element": "C" 
			},
			{
				"x": 4.7706210655,
				"y": -1.7641890755,
				"z": -3.8142517568,
				"element": "O" 
			},
			{
				"x": 5.9536730479,
				"y": 0.1004399672,
				"z": -3.5425607647,
				"element": "O" 
			},
			{
				"x": -2.2822220999,
				"y": -3.116451862,
				"z": 4.5443846984,
				"element": "H" 
			},
			{
				"x": -0.6889733036,
				"y": -3.4482244063,
				"z": 3.8139826652,
				"element": "H" 
			},
			{
				"x": -0.9616127785,
				"y": -1.9386669953,
				"z": 4.7205231574,
				"element": "H" 
			},
			{
				"x": -1.3532090861,
				"y": -1.429187907,
				"z": 1.0133443482,
				"element": "H" 
			},
			{
				"x": -0.0470310357,
				"y": -2.1776012077,
				"z": 1.950212868,
				"element": "H" 
			},
			{
				"x": -1.3390647278,
				"y": 0.5160852619,
				"z": 2.6503656418,
				"element": "H" 
			},
			{
				"x": 0.0438388626,
				"y": -0.2126431051,
				"z": 3.460803303,
				"element": "H" 
			},
			{
				"x": 0.6844078567,
				"y": 1.9875314369,
				"z": 0.0605926005,
				"element": "H" 
			},
			{
				"x": -0.3951372368,
				"y": 2.4679072191,
				"z": 1.3640187444,
				"element": "H" 
			},
			{
				"x": -2.1546123031,
				"y": 0.9210964481,
				"z": 0.5326447695,
				"element": "H" 
			},
			{
				"x": -1.6593061521,
				"y": 2.1227559001,
				"z": -0.6666967024,
				"element": "H" 
			},
			{
				"x": -0.36530887,
				"y": -0.4294583726,
				"z": -2.7879179127,
				"element": "H" 
			},
			{
				"x": -0.7351519091,
				"y": 1.3109497423,
				"z": -2.686163676,
				"element": "H" 
			},
			{
				"x": 0.7152700174,
				"y": 0.6522409928,
				"z": -1.8796354285,
				"element": "H" 
			},
			{
				"x": 3.6315127561,
				"y": 2.2930219256,
				"z": 0.1703054029,
				"element": "H" 
			},
			{
				"x": 4.8887900683,
				"y": 1.7047036891,
				"z": -1.9310095696,
				"element": "H" 
			},
			{
				"x": 3.6496181516,
				"y": -2.3904758671,
				"z": -1.4885988757,
				"element": "H" 
			},
			{
				"x": 2.4028507544,
				"y": -1.8052179217,
				"z": 0.5574005843,
				"element": "H" 
			},
			{
				"x": 3.9655884865,
				"y": -2.1643035329,
				"z": -3.458038302,
				"element": "H" 
			}
		],
		 "valence_orbital": [ 
			{
				"type": "occ",
				"energy": -0.29303,
				"method": "rhf"
			},
			{
				"type": "occ",
				"energy": -0.28574,
				"method": "rhf"
			},
			{
				"type": "occ",
				"energy": -0.27455,
				"method": "rhf"
			},
			{
				"type": "occ",
				"energy": -0.27034,
				"method": "rhf"
			},
			{
				"type": "occ",
				"energy": -0.2466,
				"method": "rhf"
			},
			{
				"type": "unocc",
				"energy": -0.07991,
				"method": "rhf"
			},
			{
				"type": "unocc",
				"energy": -0.04368,
				"method": "rhf"
			},
			{
				"type": "unocc",
				"energy": 0.01678,
				"method": "rhf"
			},
			{
				"type": "unocc",
				"energy": 0.03743,
				"method": "rhf"
			},
			{
				"type": "unocc",
				"energy": 0.05289,
				"method": "rhf"
			}
		],
		"cosmo_sigma_profile": { 
			"-0.025": 0.0,
			"-0.024": 0.0,
			"-0.023": 0.0,
			"-0.022": 0.0,
			"-0.021": 0.0,
			"-0.02": 0.0616553942208,
			"-0.019": 0.702934330095,
			"-0.018": 0.981744898922,
			"-0.017": 1.1674342403,
			"-0.016": 0.967870772187,
			"-0.015": 0.836275981066,
			"-0.014": 1.04872437258,
			"-0.013": 1.46520886979,
			"-0.012": 1.37598551126,
			"-0.011": 0.923990407248,
			"-0.01": 1.11897351559,
			"-0.009": 2.02511740718,
			"-0.008": 4.68918412831,
			"-0.007": 8.5638953934,
			"-0.006": 14.4342154422,
			"-0.005": 32.1695358738,
			"-0.004": 33.4046070019,
			"-0.003": 34.6257515897,
			"-0.002": 34.9986817766,
			"-0.001": 23.9698715828,
			"0.0": 23.2414748272,
			"0.001": 18.9109305267,
			"0.002": 10.1366243857,
			"0.003": 9.80288578663,
			"0.004": 6.75517895538,
			"0.005": 8.26195941053,
			"0.006": 9.10897005039,
			"0.007": 7.79971296112,
			"0.008": 9.88674104591,
			"0.009": 9.72408016662,
			"0.01": 15.1467449229,
			"0.011": 14.1776099196,
			"0.012": 7.38211410766,
			"0.013": 2.14300480717,
			"0.014": 0.392404194293,
			"0.015": 0.0,
			"0.016": 0.0,
			"0.017": 0.0,
			"0.018": 0.0,
			"0.019": 0.0,
			"0.02": 0.0,
			"0.021": 0.0,
			"0.022": 0.0,
			"0.023": 0.0,
			"0.024": 0.0,
			"0.0": 0.0
		}
	}
}
