{
	 "smiles": "COC1=CC(OC)=CC(CCl)=C1", 
	 "Tm": 320.15, 
	 "num_atms": 23, 
	 "gaussian": { 
		 "optdone": 1, 
		 "sigma_profile": "yes", 
		 "theory": "DFT", 
		 "functional": "B3LYP", 
		 "basiset": "6-31G**", 
		 "properties": { 
			 "R2extent": 3218.1976, 
			 "electric_dipole_moment_norm": 2.91592152672, 
			 "electric_quadrupole_moment_norm": 11.7555439683, 
			 "total_energy": -960.209077835, 
			 "HOMO_LUMO_gap": 0.1945, 
			 "cosmo_polarized_energy": -9.56, 
			 "cosmo_cavitation_energy": 28.43, 
			 "cosmo_dispersion_energy": -20.75, 
			 "cosmo_repulsion_energy": 1.68, 
			 "cosmo_total_nonelectrostatic_energy": 9.36, 
			 "SMD_solvation_energy": 6.05 
		},
		"coords": [
			{
				"x": -0.5502984814,
				"y": 3.1103581144,
				"z": -0.3401678245,
				"element": "C" 
			},
			{
				"x": -1.2222697205,
				"y": 1.862373715,
				"z": -0.2653268552,
				"element": "O" 
			},
			{
				"x": -0.4898430656,
				"y": 0.7240830553,
				"z": -0.436484599,
				"element": "C" 
			},
			{
				"x": -1.2246077256,
				"y": -0.4697518711,
				"z": -0.3253415319,
				"element": "C" 
			},
			{
				"x": -0.575670012,
				"y": -1.6915793187,
				"z": -0.4831401393,
				"element": "C" 
			},
			{
				"x": -1.1902513888,
				"y": -2.905267382,
				"z": -0.3974072818,
				"element": "O" 
			},
			{
				"x": -2.5815225385,
				"y": -2.9354865966,
				"z": -0.1189488436,
				"element": "C" 
			},
			{
				"x": 0.8039867759,
				"y": -1.7308713343,
				"z": -0.7516682533,
				"element": "C" 
			},
			{
				"x": 1.5199813445,
				"y": -0.5450829877,
				"z": -0.862623759,
				"element": "C" 
			},
			{
				"x": 2.9897144526,
				"y": -0.5876865777,
				"z": -1.1617456936,
				"element": "C" 
			},
			{
				"x": 4.0237016932,
				"y": -0.3289304738,
				"z": 0.3368368072,
				"element": "Cl" 
			},
			{
				"x": 0.8772705044,
				"y": 0.6964849819,
				"z": -0.7081717174,
				"element": "C" 
			},
			{
				"x": -0.1027078185,
				"y": 3.2702637126,
				"z": -1.3295313628,
				"element": "H" 
			},
			{
				"x": 0.2317307737,
				"y": 3.1948789815,
				"z": 0.4248977264,
				"element": "H" 
			},
			{
				"x": -1.3107211856,
				"y": 3.8725603358,
				"z": -0.1634507087,
				"element": "H" 
			},
			{
				"x": -2.2841749666,
				"y": -0.3946171906,
				"z": -0.1179018339,
				"element": "H" 
			},
			{
				"x": -2.8096524699,
				"y": -2.4749253036,
				"z": 0.8507128454,
				"element": "H" 
			},
			{
				"x": -2.8600940657,
				"y": -3.9899524362,
				"z": -0.0906239221,
				"element": "H" 
			},
			{
				"x": -3.1616601741,
				"y": -2.4291315122,
				"z": -0.9010663533,
				"element": "H" 
			},
			{
				"x": 1.2853911517,
				"y": -2.696522906,
				"z": -0.8641416505,
				"element": "H" 
			},
			{
				"x": 3.2945630159,
				"y": -1.5540725587,
				"z": -1.5619138,
				"element": "H" 
			},
			{
				"x": 3.2911999434,
				"y": 0.2020233467,
				"z": -1.8506028692,
				"element": "H" 
			},
			{
				"x": 1.4551339574,
				"y": 1.6088522062,
				"z": -0.7898883798,
				"element": "H" 
			}
		],
		 "valence_orbital": [ 
			{
				"type": "occ",
				"energy": -0.3016,
				"method": "rhf"
			},
			{
				"type": "occ",
				"energy": -0.28818,
				"method": "rhf"
			},
			{
				"type": "occ",
				"energy": -0.28676,
				"method": "rhf"
			},
			{
				"type": "occ",
				"energy": -0.23308,
				"method": "rhf"
			},
			{
				"type": "occ",
				"energy": -0.21599,
				"method": "rhf"
			},
			{
				"type": "unocc",
				"energy": -0.02149,
				"method": "rhf"
			},
			{
				"type": "unocc",
				"energy": 0.01511,
				"method": "rhf"
			},
			{
				"type": "unocc",
				"energy": 0.05016,
				"method": "rhf"
			},
			{
				"type": "unocc",
				"energy": 0.08864,
				"method": "rhf"
			},
			{
				"type": "unocc",
				"energy": 0.1028,
				"method": "rhf"
			}
		],
		"cosmo_sigma_profile": { 
			"-0.025": 0.0,
			"-0.024": 0.0,
			"-0.023": 0.0,
			"-0.022": 0.0,
			"-0.021": 0.0,
			"-0.02": 0.0,
			"-0.019": 0.0,
			"-0.018": 0.0,
			"-0.017": 0.0,
			"-0.016": 0.0,
			"-0.015": 0.0,
			"-0.014": 0.0,
			"-0.013": 0.0,
			"-0.012": 0.0,
			"-0.011": 0.0,
			"-0.01": 0.0,
			"-0.009": 0.0,
			"-0.008": 1.24810095728,
			"-0.007": 6.94095810226,
			"-0.006": 16.4825996237,
			"-0.005": 24.7699563678,
			"-0.004": 22.6504592872,
			"-0.003": 22.1694361578,
			"-0.002": 12.6154391682,
			"-0.001": 8.87685699891,
			"0.0": 9.75166938664,
			"0.001": 9.48800016302,
			"0.002": 9.20168965726,
			"0.003": 14.4911018312,
			"0.004": 20.055932106,
			"0.005": 14.5076850691,
			"0.006": 13.699131561,
			"0.007": 11.8425835581,
			"0.008": 2.16614713489,
			"0.009": 2.92971660954,
			"0.01": 3.03574445252,
			"0.011": 0.491793486626,
			"0.012": 0.0,
			"0.013": 0.0,
			"0.014": 0.0,
			"0.015": 0.0,
			"0.016": 0.0,
			"0.017": 0.0,
			"0.018": 0.0,
			"0.019": 0.0,
			"0.02": 0.0,
			"0.021": 0.0,
			"0.022": 0.0,
			"0.023": 0.0,
			"0.024": 0.0,
			"0.025": 0.0
		}
	}
}
