{
	 "smiles": "CCCCCC=CC(O)=O", 
	 "Tm": 278.65, 
	 "num_atms": 24, 
	 "gaussian": { 
		 "optdone": 1, 
		 "sigma_profile": "yes", 
		 "theory": "DFT", 
		 "functional": "B3LYP", 
		 "basiset": "6-31G**", 
		 "properties": { 
			 "R2extent": 3215.7818, 
			 "electric_dipole_moment_norm": 5.31989160228, 
			 "electric_quadrupole_moment_norm": 20.9354012718, 
			 "total_energy": -463.73835039, 
			 "HOMO_LUMO_gap": 0.21888, 
			 "cosmo_polarized_energy": -13.63, 
			 "cosmo_cavitation_energy": 27.25, 
			 "cosmo_dispersion_energy": -19.3, 
			 "cosmo_repulsion_energy": 1.63, 
			 "cosmo_total_nonelectrostatic_energy": 9.59, 
			 "SMD_solvation_energy": 5.69 
		},
		"coords": [
			{
				"x": -1.5033868593,
				"y": -0.1621604551,
				"z": -2.3217488853,
				"element": "C" 
			},
			{
				"x": -1.6011335773,
				"y": -1.5530775613,
				"z": -1.6836182215,
				"element": "C" 
			},
			{
				"x": -1.0055760754,
				"y": -1.6480408681,
				"z": -0.2686305425,
				"element": "C" 
			},
			{
				"x": 0.5147507224,
				"y": -1.4385280471,
				"z": -0.2120843443,
				"element": "C" 
			},
			{
				"x": 1.143484065,
				"y": -1.6829537042,
				"z": 1.179342996,
				"element": "C" 
			},
			{
				"x": 0.6875788025,
				"y": -0.7166383613,
				"z": 2.2351510696,
				"element": "C" 
			},
			{
				"x": 1.4774404956,
				"y": 0.1758165048,
				"z": 2.8478342757,
				"element": "C" 
			},
			{
				"x": 1.0295313081,
				"y": 1.191454499,
				"z": 3.8400333706,
				"element": "C" 
			},
			{
				"x": -0.1312558068,
				"y": 0.943545018,
				"z": 4.5105528487,
				"element": "O" 
			},
			{
				"x": 1.6463472077,
				"y": 2.2091588514,
				"z": 4.0519899372,
				"element": "O" 
			},
			{
				"x": -1.9913630598,
				"y": -0.1454836825,
				"z": -3.3015908393,
				"element": "H" 
			},
			{
				"x": -0.4644595671,
				"y": 0.1499337696,
				"z": -2.469188418,
				"element": "H" 
			},
			{
				"x": -1.9906934232,
				"y": 0.5944077947,
				"z": -1.6957379631,
				"element": "H" 
			},
			{
				"x": -1.1069328056,
				"y": -2.2898693498,
				"z": -2.3317013651,
				"element": "H" 
			},
			{
				"x": -2.656286324,
				"y": -1.8505365358,
				"z": -1.6374141316,
				"element": "H" 
			},
			{
				"x": -1.5097517807,
				"y": -0.9149799705,
				"z": 0.3760784932,
				"element": "H" 
			},
			{
				"x": -1.2412596851,
				"y": -2.6373357882,
				"z": 0.1481630198,
				"element": "H" 
			},
			{
				"x": 0.9942982783,
				"y": -2.1252652188,
				"z": -0.9221505697,
				"element": "H" 
			},
			{
				"x": 0.7715863194,
				"y": -0.4243809266,
				"z": -0.5392487376,
				"element": "H" 
			},
			{
				"x": 2.2350830567,
				"y": -1.637105708,
				"z": 1.0974276574,
				"element": "H" 
			},
			{
				"x": 0.8914328764,
				"y": -2.7041153611,
				"z": 1.5016482093,
				"element": "H" 
			},
			{
				"x": -0.3771385683,
				"y": -0.7422755532,
				"z": 2.474446271,
				"element": "H" 
			},
			{
				"x": 2.527447471,
				"y": 0.2628151248,
				"z": 2.5811025616,
				"element": "H" 
			},
			{
				"x": -0.4089430705,
				"y": 0.0299155293,
				"z": 4.3570433079,
				"element": "H" 
			}
		],
		 "valence_orbital": [ 
			{
				"type": "occ",
				"energy": -0.33197,
				"method": "rhf"
			},
			{
				"type": "occ",
				"energy": -0.32485,
				"method": "rhf"
			},
			{
				"type": "occ",
				"energy": -0.31306,
				"method": "rhf"
			},
			{
				"type": "occ",
				"energy": -0.28184,
				"method": "rhf"
			},
			{
				"type": "occ",
				"energy": -0.26507,
				"method": "rhf"
			},
			{
				"type": "unocc",
				"energy": -0.04619,
				"method": "rhf"
			},
			{
				"type": "unocc",
				"energy": 0.05831,
				"method": "rhf"
			},
			{
				"type": "unocc",
				"energy": 0.07111,
				"method": "rhf"
			},
			{
				"type": "unocc",
				"energy": 0.08852,
				"method": "rhf"
			},
			{
				"type": "unocc",
				"energy": 0.09972,
				"method": "rhf"
			}
		],
		"cosmo_sigma_profile": { 
			"-0.025": 0.0,
			"-0.024": 0.0,
			"-0.023": 0.0,
			"-0.022": 0.0,
			"-0.021": 0.0,
			"-0.02": 0.0,
			"-0.019": 0.0503850101113,
			"-0.018": 0.647246706814,
			"-0.017": 0.824836932496,
			"-0.016": 1.28352144441,
			"-0.015": 0.702192899905,
			"-0.014": 0.769897497736,
			"-0.013": 0.633360115267,
			"-0.012": 0.97308690676,
			"-0.011": 1.78459210862,
			"-0.01": 1.11628053673,
			"-0.009": 0.75325053906,
			"-0.008": 1.32003023309,
			"-0.007": 2.35273648338,
			"-0.006": 3.27637125986,
			"-0.005": 5.47590283681,
			"-0.004": 9.80908081369,
			"-0.003": 16.5443119069,
			"-0.002": 30.3962577782,
			"-0.001": 32.6954367224,
			"0.0": 30.5793190963,
			"0.001": 21.6479247116,
			"0.002": 10.7683538793,
			"0.003": 3.48669652142,
			"0.004": 2.53763785138,
			"0.005": 1.50508252103,
			"0.006": 2.66824964368,
			"0.007": 2.32431743128,
			"0.008": 2.2643152129,
			"0.009": 3.14582701311,
			"0.01": 3.89436789859,
			"0.011": 5.34091680519,
			"0.012": 6.01971548875,
			"0.013": 4.04156177496,
			"0.014": 0.513526569431,
			"0.015": 0.0,
			"0.016": 0.0,
			"0.017": 0.0,
			"0.018": 0.0,
			"0.019": 0.0,
			"0.02": 0.0,
			"0.021": 0.0,
			"0.022": 0.0,
			"0.023": 0.0,
			"0.024": 0.0,
			"0.025": 0.0
		}
	}
}
