{
	 "smiles": "C=CCNC(=O)C1=CC(=CC=C1)C#N", 
	 "Tm": 353.15, 
	 "num_atms": 24, 
	 "gaussian": { 
		 "optdone": 1, 
		 "sigma_profile": "yes", 
		 "theory": "DFT", 
		 "functional": "B3LYP", 
		 "basiset": "6-31G**", 
		 "properties": { 
			 "R2extent": 3569.9917, 
			 "electric_dipole_moment_norm": 6.49201558917, 
			 "electric_quadrupole_moment_norm": 20.3131378302, 
			 "total_energy": -609.891116871, 
			 "HOMO_LUMO_gap": 0.19266, 
			 "cosmo_polarized_energy": -16.64, 
			 "cosmo_cavitation_energy": 30.34, 
			 "cosmo_dispersion_energy": -20.01, 
			 "cosmo_repulsion_energy": 1.61, 
			 "cosmo_total_nonelectrostatic_energy": 11.94, 
			 "SMD_solvation_energy": 7.21 
		},
		"coords": [
			{
				"x": 0.1197662069,
				"y": -2.4334641081,
				"z": 0.2744846858,
				"element": "C" 
			},
			{
				"x": -0.48896695,
				"y": -2.0163954205,
				"z": -0.8350053622,
				"element": "C" 
			},
			{
				"x": -0.0010779489,
				"y": -0.8737719422,
				"z": -1.6919514152,
				"element": "C" 
			},
			{
				"x": -1.002026008,
				"y": 0.1906606574,
				"z": -1.8715465233,
				"element": "N" 
			},
			{
				"x": -1.3926877126,
				"y": 1.0990951087,
				"z": -0.9075611271,
				"element": "C" 
			},
			{
				"x": -2.5432723864,
				"y": 1.5153668258,
				"z": -0.8510381023,
				"element": "O" 
			},
			{
				"x": -0.3433421435,
				"y": 1.6316279198,
				"z": 0.0315117134,
				"element": "C" 
			},
			{
				"x": -0.7228368786,
				"y": 1.8779735715,
				"z": 1.3535886129,
				"element": "C" 
			},
			{
				"x": 0.195606285,
				"y": 2.4326827198,
				"z": 2.255456925,
				"element": "C" 
			},
			{
				"x": 1.4904559806,
				"y": 2.773469532,
				"z": 1.8247782368,
				"element": "C" 
			},
			{
				"x": 1.8525483026,
				"y": 2.5574240438,
				"z": 0.4984365428,
				"element": "C" 
			},
			{
				"x": 0.9444083737,
				"y": 1.9846015012,
				"z": -0.394482962,
				"element": "C" 
			},
			{
				"x": -0.1855541853,
				"y": 2.6605706349,
				"z": 3.6202467591,
				"element": "C" 
			},
			{
				"x": -0.4857068515,
				"y": 2.8434215189,
				"z": 4.7289287026,
				"element": "N" 
			},
			{
				"x": -0.2649108785,
				"y": -3.263180995,
				"z": 0.8596655751,
				"element": "H" 
			},
			{
				"x": 1.0292075612,
				"y": -1.961027398,
				"z": 0.6385487833,
				"element": "H" 
			},
			{
				"x": -1.403019992,
				"y": -2.5074319658,
				"z": -1.169795197,
				"element": "H" 
			},
			{
				"x": 0.2587845446,
				"y": -1.2332027813,
				"z": -2.6951685596,
				"element": "H" 
			},
			{
				"x": 0.9070942693,
				"y": -0.448949104,
				"z": -1.2617350249,
				"element": "H" 
			},
			{
				"x": -1.8025046748,
				"y": -0.0734084933,
				"z": -2.4368957897,
				"element": "H" 
			},
			{
				"x": -1.7328005061,
				"y": 1.6427486383,
				"z": 1.6696281954,
				"element": "H" 
			},
			{
				"x": 2.1917577128,
				"y": 3.2100175019,
				"z": 2.5278787668,
				"element": "H" 
			},
			{
				"x": 2.8433605196,
				"y": 2.8403389437,
				"z": 0.1569824404,
				"element": "H" 
			},
			{
				"x": 1.2250173598,
				"y": 1.8388330905,
				"z": -1.4329558762,
				"element": "H" 
			}
		],
		 "valence_orbital": [ 
			{
				"type": "occ",
				"energy": -0.29144,
				"method": "rhf"
			},
			{
				"type": "occ",
				"energy": -0.28091,
				"method": "rhf"
			},
			{
				"type": "occ",
				"energy": -0.27265,
				"method": "rhf"
			},
			{
				"type": "occ",
				"energy": -0.26788,
				"method": "rhf"
			},
			{
				"type": "occ",
				"energy": -0.25477,
				"method": "rhf"
			},
			{
				"type": "unocc",
				"energy": -0.06211,
				"method": "rhf"
			},
			{
				"type": "unocc",
				"energy": -0.04471,
				"method": "rhf"
			},
			{
				"type": "unocc",
				"energy": -0.00274,
				"method": "rhf"
			},
			{
				"type": "unocc",
				"energy": 0.0212,
				"method": "rhf"
			},
			{
				"type": "unocc",
				"energy": 0.0351,
				"method": "rhf"
			}
		],
		"cosmo_sigma_profile": { 
			"-0.025": 0.0,
			"-0.024": 0.0,
			"-0.023": 0.0,
			"-0.022": 0.0,
			"-0.021": 0.0,
			"-0.02": 0.0,
			"-0.019": 0.0,
			"-0.018": 0.0,
			"-0.017": 0.0,
			"-0.016": 0.0,
			"-0.015": 0.0,
			"-0.014": 0.158551256154,
			"-0.013": 1.12914987196,
			"-0.012": 1.25281890368,
			"-0.011": 1.30952235618,
			"-0.01": 1.26997975648,
			"-0.009": 0.910319397551,
			"-0.008": 6.41760125536,
			"-0.007": 10.8052604659,
			"-0.006": 16.4656069818,
			"-0.005": 17.1496511659,
			"-0.004": 15.233483081,
			"-0.003": 17.3324388029,
			"-0.002": 19.6041605739,
			"-0.001": 16.8704083655,
			"0.0": 17.9982073952,
			"0.001": 20.5061533759,
			"0.002": 14.8573864234,
			"0.003": 8.65134568246,
			"0.004": 6.82715797442,
			"0.005": 6.83926888769,
			"0.006": 5.59651360522,
			"0.007": 5.21087155103,
			"0.008": 4.53284187657,
			"0.009": 4.43739523224,
			"0.01": 4.31311199075,
			"0.011": 4.64932746194,
			"0.012": 5.38209931733,
			"0.013": 6.47235460137,
			"0.014": 1.39187658429,
			"0.015": 0.0,
			"0.016": 0.0,
			"0.017": 0.0,
			"0.018": 0.0,
			"0.019": 0.0,
			"0.02": 0.0,
			"0.021": 0.0,
			"0.022": 0.0,
			"0.023": 0.0,
			"0.024": 0.0,
			"0.025": 0.0
		}
	}
}
