{
	 "smiles": "CC1=NC2=C(C=CC=C2)N=C1C1=CC(C2=NC3=C(C=CC=C3)N=C2C)=C(C=C1[N+]([O-])=O)[N+]([O-])=O", 
	 "Tm": 512.15, 
	 "num_atms": 50, 
	 "gaussian": { 
		 "optdone": 1, 
		 "sigma_profile": "yes", 
		 "theory": "DFT", 
		 "functional": "B3LYP", 
		 "basiset": "6-31G**", 
		 "properties": { 
			 "R2extent": 18188.3346, 
			 "electric_dipole_moment_norm": 4.87466247755, 
			 "electric_quadrupole_moment_norm": 18.1887465747, 
			 "total_energy": -1553.40916165, 
			 "HOMO_LUMO_gap": 0.13415, 
			 "cosmo_polarized_energy": -19.58, 
			 "cosmo_cavitation_energy": 56.77, 
			 "cosmo_dispersion_energy": -38.29, 
			 "cosmo_repulsion_energy": 2.85, 
			 "cosmo_total_nonelectrostatic_energy": 21.32, 
			 "SMD_solvation_energy": 6.94 
		},
		"coords": [
			{
				"x": 4.1208530845,
				"y": 1.4035504081,
				"z": 0.3939037409,
				"element": "C" 
			},
			{
				"x": 3.3632547307,
				"y": 1.5890272668,
				"z": -0.8922765845,
				"element": "C" 
			},
			{
				"x": 4.0258291666,
				"y": 1.4857948646,
				"z": -2.0240038126,
				"element": "N" 
			},
			{
				"x": 3.3408385027,
				"y": 1.6696679998,
				"z": -3.1912704085,
				"element": "C" 
			},
			{
				"x": 1.9421767499,
				"y": 1.9435081432,
				"z": -3.1849020127,
				"element": "C" 
			},
			{
				"x": 1.2548758811,
				"y": 2.1204018806,
				"z": -4.4106932431,
				"element": "C" 
			},
			{
				"x": 1.9449972248,
				"y": 2.0299486336,
				"z": -5.600284583,
				"element": "C" 
			},
			{
				"x": 3.336322685,
				"y": 1.7582652432,
				"z": -5.6083949488,
				"element": "C" 
			},
			{
				"x": 4.0256345525,
				"y": 1.5789642316,
				"z": -4.4281998936,
				"element": "C" 
			},
			{
				"x": 1.2583655287,
				"y": 2.0276452075,
				"z": -2.0053348066,
				"element": "N" 
			},
			{
				"x": 1.9502705854,
				"y": 1.8768919808,
				"z": -0.8992105893,
				"element": "C" 
			},
			{
				"x": 1.1459946748,
				"y": 1.9004033492,
				"z": 0.3701537425,
				"element": "C" 
			},
			{
				"x": 0.4490723808,
				"y": 0.7345061689,
				"z": 0.7102028843,
				"element": "C" 
			},
			{
				"x": -0.3760879797,
				"y": 0.6267486809,
				"z": 1.8364114038,
				"element": "C" 
			},
			{
				"x": -1.014742667,
				"y": -0.7086339681,
				"z": 2.0963428557,
				"element": "C" 
			},
			{
				"x": -0.2290602616,
				"y": -1.6102850251,
				"z": 2.6392349699,
				"element": "N" 
			},
			{
				"x": -0.7501147612,
				"y": -2.8587655109,
				"z": 2.8285264918,
				"element": "C" 
			},
			{
				"x": -2.0813213937,
				"y": -3.1563114165,
				"z": 2.4154910511,
				"element": "C" 
			},
			{
				"x": -2.5956720919,
				"y": -4.4612059879,
				"z": 2.6151139804,
				"element": "C" 
			},
			{
				"x": -1.8081887229,
				"y": -5.4256083416,
				"z": 3.2066977273,
				"element": "C" 
			},
			{
				"x": -0.4840491761,
				"y": -5.1281347355,
				"z": 3.6163570794,
				"element": "C" 
			},
			{
				"x": 0.041085461,
				"y": -3.8674106264,
				"z": 3.4309082465,
				"element": "C" 
			},
			{
				"x": -2.8622282893,
				"y": -2.2048026762,
				"z": 1.8235833736,
				"element": "N" 
			},
			{
				"x": -2.3593711844,
				"y": -0.9997403006,
				"z": 1.6641774912,
				"element": "C" 
			},
			{
				"x": -3.2251923446,
				"y": 0.0525552861,
				"z": 1.0272465048,
				"element": "C" 
			},
			{
				"x": -0.4828473283,
				"y": 1.7635598262,
				"z": 2.6534713618,
				"element": "C" 
			},
			{
				"x": 0.1805844836,
				"y": 2.9462797409,
				"z": 2.3527535109,
				"element": "C" 
			},
			{
				"x": 0.9805149578,
				"y": 3.0065354105,
				"z": 1.2188596431,
				"element": "C" 
			},
			{
				"x": 1.6397830763,
				"y": 4.2988837316,
				"z": 0.9464988734,
				"element": "N" 
			},
			{
				"x": 1.2121910673,
				"y": 5.2860218538,
				"z": 1.5383328737,
				"element": "O" 
			},
			{
				"x": 2.5784339929,
				"y": 4.3063963516,
				"z": 0.1519842168,
				"element": "O" 
			},
			{
				"x": -1.2972425839,
				"y": 1.7606533613,
				"z": 3.8846974368,
				"element": "N" 
			},
			{
				"x": -2.1227504119,
				"y": 0.8596624412,
				"z": 4.0229825731,
				"element": "O" 
			},
			{
				"x": -1.1026694111,
				"y": 2.6651448477,
				"z": 4.691912769,
				"element": "O" 
			},
			{
				"x": 5.1440540918,
				"y": 1.1022033282,
				"z": 0.1662638767,
				"element": "H" 
			},
			{
				"x": 4.146811403,
				"y": 2.3427268372,
				"z": 0.9570809826,
				"element": "H" 
			},
			{
				"x": 3.6572698464,
				"y": 0.6456677768,
				"z": 1.0346941068,
				"element": "H" 
			},
			{
				"x": 0.1902535913,
				"y": 2.3279147659,
				"z": -4.3759546104,
				"element": "H" 
			},
			{
				"x": 1.4227588495,
				"y": 2.1677633712,
				"z": -6.5423396228,
				"element": "H" 
			},
			{
				"x": 3.8603138338,
				"y": 1.6916035223,
				"z": -6.5572712336,
				"element": "H" 
			},
			{
				"x": 5.0902127284,
				"y": 1.3697418954,
				"z": -4.408193767,
				"element": "H" 
			},
			{
				"x": 0.5541328638,
				"y": -0.1322276313,
				"z": 0.0665014964,
				"element": "H" 
			},
			{
				"x": -3.6116857361,
				"y": -4.6643253061,
				"z": 2.2926850994,
				"element": "H" 
			},
			{
				"x": -2.2018727485,
				"y": -6.4256280708,
				"z": 3.3627426957,
				"element": "H" 
			},
			{
				"x": 0.1178607831,
				"y": -5.9037259095,
				"z": 4.0804243926,
				"element": "H" 
			},
			{
				"x": 1.0510297527,
				"y": -3.6128138465,
				"z": 3.7356766814,
				"element": "H" 
			},
			{
				"x": -4.1566835076,
				"y": -0.4052543003,
				"z": 0.6921209545,
				"element": "H" 
			},
			{
				"x": -2.7297719416,
				"y": 0.525972704,
				"z": 0.1726512688,
				"element": "H" 
			},
			{
				"x": -3.4599900611,
				"y": 0.8396850739,
				"z": 1.7519501106,
				"element": "H" 
			},
			{
				"x": 0.0756660723,
				"y": 3.8102774689,
				"z": 2.9943936494,
				"element": "H" 
			}
		],
		 "valence_orbital": [ 
			{
				"type": "occ",
				"energy": -0.25824,
				"method": "rhf"
			},
			{
				"type": "occ",
				"energy": -0.25607,
				"method": "rhf"
			},
			{
				"type": "occ",
				"energy": -0.25476,
				"method": "rhf"
			},
			{
				"type": "occ",
				"energy": -0.25054,
				"method": "rhf"
			},
			{
				"type": "occ",
				"energy": -0.25029,
				"method": "rhf"
			},
			{
				"type": "unocc",
				"energy": -0.11614,
				"method": "rhf"
			},
			{
				"type": "unocc",
				"energy": -0.10461,
				"method": "rhf"
			},
			{
				"type": "unocc",
				"energy": -0.07511,
				"method": "rhf"
			},
			{
				"type": "unocc",
				"energy": -0.07339,
				"method": "rhf"
			},
			{
				"type": "unocc",
				"energy": -0.04303,
				"method": "rhf"
			}
		],
		"cosmo_sigma_profile": { 
			"-0.025": 0.0,
			"-0.024": 0.0,
			"-0.023": 0.0,
			"-0.022": 0.0,
			"-0.021": 0.0,
			"-0.02": 0.0,
			"-0.019": 0.0,
			"-0.018": 0.0,
			"-0.017": 0.0,
			"-0.016": 0.0,
			"-0.015": 0.0,
			"-0.014": 0.0,
			"-0.013": 0.0,
			"-0.012": 0.0,
			"-0.011": 0.0,
			"-0.01": 0.169532162037,
			"-0.009": 3.10355069168,
			"-0.008": 5.92605119433,
			"-0.007": 14.8448887651,
			"-0.006": 27.9051124792,
			"-0.005": 35.9584695568,
			"-0.004": 39.8928132639,
			"-0.003": 33.368727526,
			"-0.002": 29.9156337417,
			"-0.001": 32.4051107068,
			"0.0": 29.3425529432,
			"0.001": 32.0363650061,
			"0.002": 39.0901454458,
			"0.003": 36.4546817164,
			"0.004": 19.3878477168,
			"0.005": 12.7901117722,
			"0.006": 17.7533974614,
			"0.007": 15.3300056128,
			"0.008": 11.6732463455,
			"0.009": 7.26367944792,
			"0.01": 3.26931076213,
			"0.011": 3.50852763414,
			"0.012": 2.59591888405,
			"0.013": 2.56833567885,
			"0.014": 0.778114384299,
			"0.015": 0.0,
			"0.016": 0.0,
			"0.017": 0.0,
			"0.018": 0.0,
			"0.019": 0.0,
			"0.02": 0.0,
			"0.021": 0.0,
			"0.022": 0.0,
			"0.023": 0.0,
			"0.024": 0.0,
			"0.025": 0.0
		}
	}
}
