{
	 "smiles": "CCOC(=O)C1=NN(C)C(=C1)C1=CC=CS1", 
	 "Tm": 312.65, 
	 "num_atms": 28, 
	 "gaussian": { 
		 "optdone": 1, 
		 "sigma_profile": "yes", 
		 "theory": "DFT", 
		 "functional": "B3LYP", 
		 "basiset": "6-31G**", 
		 "properties": { 
			 "R2extent": 6441.2386, 
			 "electric_dipole_moment_norm": 3.81165630533, 
			 "electric_quadrupole_moment_norm": 18.6446585099, 
			 "total_energy": -1084.52474939, 
			 "HOMO_LUMO_gap": 0.18208, 
			 "cosmo_polarized_energy": -13.67, 
			 "cosmo_cavitation_energy": 34.49, 
			 "cosmo_dispersion_energy": -25.32, 
			 "cosmo_repulsion_energy": 1.96, 
			 "cosmo_total_nonelectrostatic_energy": 11.13, 
			 "SMD_solvation_energy": 6.03 
		},
		"coords": [
			{
				"x": -1.1614587381,
				"y": 4.6648864104,
				"z": 2.6252921014,
				"element": "C" 
			},
			{
				"x": -1.5574546038,
				"y": 3.2418920617,
				"z": 2.9711911008,
				"element": "C" 
			},
			{
				"x": -0.7631876853,
				"y": 2.3608468269,
				"z": 2.1475673487,
				"element": "O" 
			},
			{
				"x": -0.9869585469,
				"y": 1.0447087086,
				"z": 2.3230157722,
				"element": "C" 
			},
			{
				"x": -1.7939152116,
				"y": 0.5890770474,
				"z": 3.1121743423,
				"element": "O" 
			},
			{
				"x": -0.1458945687,
				"y": 0.1951603027,
				"z": 1.4527879314,
				"element": "C" 
			},
			{
				"x": 0.7420453157,
				"y": 0.6877888368,
				"z": 0.5793664768,
				"element": "N" 
			},
			{
				"x": 1.2867212027,
				"y": -0.3897785479,
				"z": -0.0044221819,
				"element": "N" 
			},
			{
				"x": 2.2887099399,
				"y": -0.1879863552,
				"z": -1.0378969749,
				"element": "C" 
			},
			{
				"x": 0.7749694507,
				"y": -1.5751606724,
				"z": 0.4820581923,
				"element": "C" 
			},
			{
				"x": -0.16849879,
				"y": -1.2134623076,
				"z": 1.432847353,
				"element": "C" 
			},
			{
				"x": 1.1831325824,
				"y": -2.8945137754,
				"z": 0.0217579006,
				"element": "C" 
			},
			{
				"x": 2.4250589557,
				"y": -3.3642900712,
				"z": -0.347452796,
				"element": "C" 
			},
			{
				"x": 2.4241570741,
				"y": -4.7425032763,
				"z": -0.7100118107,
				"element": "C" 
			},
			{
				"x": 1.1860696266,
				"y": -5.3160765361,
				"z": -0.6116946113,
				"element": "C" 
			},
			{
				"x": -0.006852878,
				"y": -4.1758906371,
				"z": -0.0866885827,
				"element": "S" 
			},
			{
				"x": -1.3514304646,
				"y": 4.8769045516,
				"z": 1.5692854339,
				"element": "H" 
			},
			{
				"x": -1.7417016531,
				"y": 5.3695879417,
				"z": 3.2293628742,
				"element": "H" 
			},
			{
				"x": -0.0990585959,
				"y": 4.8332235151,
				"z": 2.8231894728,
				"element": "H" 
			},
			{
				"x": -2.6178186217,
				"y": 3.0506151633,
				"z": 2.7765357568,
				"element": "H" 
			},
			{
				"x": -1.3717962213,
				"y": 3.0072051132,
				"z": 4.0244372133,
				"element": "H" 
			},
			{
				"x": 2.1185550506,
				"y": 0.7985132929,
				"z": -1.4679208313,
				"element": "H" 
			},
			{
				"x": 3.3015867075,
				"y": -0.2270455651,
				"z": -0.6232236121,
				"element": "H" 
			},
			{
				"x": 2.185199047,
				"y": -0.9557560378,
				"z": -1.8064591555,
				"element": "H" 
			},
			{
				"x": -0.7747623888,
				"y": -1.8641888678,
				"z": 2.0433089314,
				"element": "H" 
			},
			{
				"x": 3.3201757454,
				"y": -2.7543921596,
				"z": -0.3253828447,
				"element": "H" 
			},
			{
				"x": 3.3109378029,
				"y": -5.2837586692,
				"z": -1.019223091,
				"element": "H" 
			},
			{
				"x": 0.9023704669,
				"y": -6.3390062934,
				"z": -0.8168017098,
				"element": "H" 
			}
		],
		 "valence_orbital": [ 
			{
				"type": "occ",
				"energy": -0.27986,
				"method": "rhf"
			},
			{
				"type": "occ",
				"energy": -0.26416,
				"method": "rhf"
			},
			{
				"type": "occ",
				"energy": -0.26173,
				"method": "rhf"
			},
			{
				"type": "occ",
				"energy": -0.25504,
				"method": "rhf"
			},
			{
				"type": "occ",
				"energy": -0.22196,
				"method": "rhf"
			},
			{
				"type": "unocc",
				"energy": -0.03988,
				"method": "rhf"
			},
			{
				"type": "unocc",
				"energy": -0.01979,
				"method": "rhf"
			},
			{
				"type": "unocc",
				"energy": 0.01792,
				"method": "rhf"
			},
			{
				"type": "unocc",
				"energy": 0.03511,
				"method": "rhf"
			},
			{
				"type": "unocc",
				"energy": 0.06423,
				"method": "rhf"
			}
		],
		"cosmo_sigma_profile": { 
			"-0.025": 0.0,
			"-0.024": 0.0,
			"-0.023": 0.0,
			"-0.022": 0.0,
			"-0.021": 0.0,
			"-0.02": 0.0,
			"-0.019": 0.0,
			"-0.018": 0.0,
			"-0.017": 0.0,
			"-0.016": 0.0,
			"-0.015": 0.0,
			"-0.014": 0.0,
			"-0.013": 0.0,
			"-0.012": 0.0,
			"-0.011": 0.0,
			"-0.01": 0.0,
			"-0.009": 1.24395463456,
			"-0.008": 3.39694517782,
			"-0.007": 10.2203370513,
			"-0.006": 13.5541666309,
			"-0.005": 18.8403943591,
			"-0.004": 27.1006046401,
			"-0.003": 27.3466190135,
			"-0.002": 19.8444211007,
			"-0.001": 19.3702302678,
			"0.0": 22.1837546323,
			"0.001": 19.3673210105,
			"0.002": 19.7583681417,
			"0.003": 21.0454686356,
			"0.004": 14.1036828476,
			"0.005": 7.94715844448,
			"0.006": 4.25515165012,
			"0.007": 3.02717633392,
			"0.008": 3.21518705025,
			"0.009": 2.92339302511,
			"0.01": 3.61133113469,
			"0.011": 3.76858223976,
			"0.012": 6.71821102141,
			"0.013": 1.82159056806,
			"0.014": 1.36984767121,
			"0.015": 1.02097823253,
			"0.016": 0.0460265709183,
			"0.017": 0.0,
			"0.018": 0.0,
			"0.019": 0.0,
			"0.02": 0.0,
			"0.021": 0.0,
			"0.022": 0.0,
			"0.023": 0.0,
			"0.024": 0.0,
			"0.025": 0.0
		}
	}
}
