{
	 "smiles": "OC(=O)C1=CC(=CN=C1)C1=CC=CO1", 
	 "Tm": 535.15, 
	 "num_atms": 21, 
	 "gaussian": { 
		 "optdone": 1, 
		 "sigma_profile": "yes", 
		 "theory": "DFT", 
		 "functional": "B3LYP", 
		 "basiset": "6-31G**", 
		 "properties": { 
			 "R2extent": 3417.196, 
			 "electric_dipole_moment_norm": 4.26339290706, 
			 "electric_quadrupole_moment_norm": 9.91183087981, 
			 "total_energy": -665.694227928, 
			 "HOMO_LUMO_gap": 0.16008, 
			 "cosmo_polarized_energy": -12.47, 
			 "cosmo_cavitation_energy": 26.84, 
			 "cosmo_dispersion_energy": -19.72, 
			 "cosmo_repulsion_energy": 1.52, 
			 "cosmo_total_nonelectrostatic_energy": 8.64, 
			 "SMD_solvation_energy": 5.33 
		},
		"coords": [
			{
				"x": 2.7685445566,
				"y": 0.2789352937,
				"z": 2.4441731524,
				"element": "O" 
			},
			{
				"x": 1.6548905562,
				"y": 0.8759939446,
				"z": 2.9386084649,
				"element": "C" 
			},
			{
				"x": 1.5864683887,
				"y": 1.2749109995,
				"z": 4.0831607141,
				"element": "O" 
			},
			{
				"x": 0.5618631832,
				"y": 0.9784479634,
				"z": 1.9372334897,
				"element": "C" 
			},
			{
				"x": 0.6873662305,
				"y": 0.5043788349,
				"z": 0.6314926905,
				"element": "C" 
			},
			{
				"x": -0.3929261008,
				"y": 0.6404607417,
				"z": -0.2510504311,
				"element": "C" 
			},
			{
				"x": -1.5559270144,
				"y": 1.259113824,
				"z": 0.2494434696,
				"element": "C" 
			},
			{
				"x": -1.686553863,
				"y": 1.7167036421,
				"z": 1.4982649812,
				"element": "N" 
			},
			{
				"x": -0.6461526672,
				"y": 1.5775013283,
				"z": 2.3234737265,
				"element": "C" 
			},
			{
				"x": -0.31710874,
				"y": 0.1637533795,
				"z": -1.6242189848,
				"element": "C" 
			},
			{
				"x": 0.6612150788,
				"y": -0.4589355817,
				"z": -2.3574328972,
				"element": "C" 
			},
			{
				"x": 0.1232432905,
				"y": -0.6729714974,
				"z": -3.6638231952,
				"element": "C" 
			},
			{
				"x": -1.1419901643,
				"y": -0.1684494785,
				"z": -3.6393498171,
				"element": "C" 
			},
			{
				"x": -1.4261611741,
				"y": 0.3430407639,
				"z": -2.4106223083,
				"element": "O" 
			},
			{
				"x": 3.4088820879,
				"y": 0.2656132927,
				"z": 3.1747689841,
				"element": "H" 
			},
			{
				"x": 1.6136377971,
				"y": 0.0384538995,
				"z": 0.3148892554,
				"element": "H" 
			},
			{
				"x": -2.4169594611,
				"y": 1.3846778775,
				"z": -0.4015514287,
				"element": "H" 
			},
			{
				"x": -0.7564148713,
				"y": 1.950796335,
				"z": 3.3379207786,
				"element": "H" 
			},
			{
				"x": 1.6471296494,
				"y": -0.7333282115,
				"z": -2.0114102493,
				"element": "H" 
			},
			{
				"x": 0.6143633583,
				"y": -1.1396103696,
				"z": -4.5052516961,
				"element": "H" 
			},
			{
				"x": -1.9307101209,
				"y": -0.0973869815,
				"z": -4.3720186994,
				"element": "H" 
			}
		],
		 "valence_orbital": [ 
			{
				"type": "occ",
				"energy": -0.28941,
				"method": "rhf"
			},
			{
				"type": "occ",
				"energy": -0.2882,
				"method": "rhf"
			},
			{
				"type": "occ",
				"energy": -0.28612,
				"method": "rhf"
			},
			{
				"type": "occ",
				"energy": -0.26041,
				"method": "rhf"
			},
			{
				"type": "occ",
				"energy": -0.22125,
				"method": "rhf"
			},
			{
				"type": "unocc",
				"energy": -0.06117,
				"method": "rhf"
			},
			{
				"type": "unocc",
				"energy": -0.04901,
				"method": "rhf"
			},
			{
				"type": "unocc",
				"energy": 0.01117,
				"method": "rhf"
			},
			{
				"type": "unocc",
				"energy": 0.04706,
				"method": "rhf"
			},
			{
				"type": "unocc",
				"energy": 0.07099,
				"method": "rhf"
			}
		],
		"cosmo_sigma_profile": { 
			"-0.025": 0.0,
			"-0.024": 0.0,
			"-0.023": 0.0,
			"-0.022": 0.0,
			"-0.021": 0.0,
			"-0.02": 0.0,
			"-0.019": 0.166831866472,
			"-0.018": 0.756449598987,
			"-0.017": 0.904378158839,
			"-0.016": 1.35150005675,
			"-0.015": 0.812055874951,
			"-0.014": 0.262921188205,
			"-0.013": 0.381710228025,
			"-0.012": 0.527105229462,
			"-0.011": 1.56484210794,
			"-0.01": 0.57584236302,
			"-0.009": 3.31157233983,
			"-0.008": 5.8758653324,
			"-0.007": 8.10147463071,
			"-0.006": 8.46013082919,
			"-0.005": 8.62403888276,
			"-0.004": 9.7784788905,
			"-0.003": 11.8929126279,
			"-0.002": 13.2100414124,
			"-0.001": 19.807977445,
			"0.0": 25.7973204411,
			"0.001": 16.6312106852,
			"0.002": 16.0853653149,
			"0.003": 12.0887701603,
			"0.004": 12.255267662,
			"0.005": 8.89192357602,
			"0.006": 4.75310012921,
			"0.007": 4.23263949747,
			"0.008": 1.78801116241,
			"0.009": 2.88859180804,
			"0.01": 3.49285144609,
			"0.011": 5.67699253155,
			"0.012": 2.8397079836,
			"0.013": 0.962625680641,
			"0.014": 0.510596104201,
			"0.015": 1.07988771906,
			"0.016": 0.315141607766,
			"0.017": 0.0,
			"0.018": 0.0,
			"0.019": 0.0,
			"0.02": 0.0,
			"0.021": 0.0,
			"0.022": 0.0,
			"0.023": 0.0,
			"0.024": 0.0,
			"0.025": 0.0
		}
	}
}
