{
	 "smiles": "CCCCC(O)CCCC", 
	 "Tm": 278.15, 
	 "num_atms": 30, 
	 "gaussian": { 
		 "optdone": 1, 
		 "sigma_profile": "yes", 
		 "theory": "DFT", 
		 "functional": "B3LYP", 
		 "basiset": "6-31G**", 
		 "properties": { 
			 "R2extent": 2274.9733, 
			 "electric_dipole_moment_norm": 1.49916219603, 
			 "electric_quadrupole_moment_norm": 6.52582056986, 
			 "total_energy": -430.248998112, 
			 "HOMO_LUMO_gap": 0.32966, 
			 "cosmo_polarized_energy": -5.68, 
			 "cosmo_cavitation_energy": 29.8, 
			 "cosmo_dispersion_energy": -20.54, 
			 "cosmo_repulsion_energy": 1.7, 
			 "cosmo_total_nonelectrostatic_energy": 10.96, 
			 "SMD_solvation_energy": 4.46 
		},
		"coords": [
			{
				"x": -2.5515130161,
				"y": 0.8719846037,
				"z": -1.4620589906,
				"element": "C" 
			},
			{
				"x": -2.6884428754,
				"y": -0.0615622772,
				"z": -0.2533652425,
				"element": "C" 
			},
			{
				"x": -1.6486557352,
				"y": -1.1922689101,
				"z": -0.1588976137,
				"element": "C" 
			},
			{
				"x": -0.1831975436,
				"y": -0.7445380566,
				"z": 0.0269027616,
				"element": "C" 
			},
			{
				"x": 0.6251157972,
				"y": -0.6059828486,
				"z": -1.2762326755,
				"element": "C" 
			},
			{
				"x": 0.6207910329,
				"y": -1.8526349136,
				"z": -1.9858573651,
				"element": "O" 
			},
			{
				"x": 2.0742264405,
				"y": -0.1171538363,
				"z": -1.0688064353,
				"element": "C" 
			},
			{
				"x": 2.3006219538,
				"y": 1.4077065926,
				"z": -1.0283042903,
				"element": "C" 
			},
			{
				"x": 1.7750031776,
				"y": 2.1897652159,
				"z": 0.188504907,
				"element": "C" 
			},
			{
				"x": 2.3850058657,
				"y": 1.7638300848,
				"z": 1.5286922714,
				"element": "C" 
			},
			{
				"x": -2.5565004859,
				"y": 0.308881588,
				"z": -2.4022500213,
				"element": "H" 
			},
			{
				"x": -3.3800634313,
				"y": 1.5875398358,
				"z": -1.4981518758,
				"element": "H" 
			},
			{
				"x": -1.6242868879,
				"y": 1.4535849926,
				"z": -1.4281770198,
				"element": "H" 
			},
			{
				"x": -3.6862872241,
				"y": -0.5188797305,
				"z": -0.2746781767,
				"element": "H" 
			},
			{
				"x": -2.6523281611,
				"y": 0.53531421,
				"z": 0.6689621398,
				"element": "H" 
			},
			{
				"x": -1.7052277825,
				"y": -1.8313116734,
				"z": -1.0483337105,
				"element": "H" 
			},
			{
				"x": -1.9305695385,
				"y": -1.8274795812,
				"z": 0.6901622692,
				"element": "H" 
			},
			{
				"x": -0.1461139547,
				"y": 0.1924916328,
				"z": 0.5947915719,
				"element": "H" 
			},
			{
				"x": 0.3464774279,
				"y": -1.4837931886,
				"z": 0.6475715857,
				"element": "H" 
			},
			{
				"x": 0.1187940078,
				"y": 0.0841043014,
				"z": -1.9606004907,
				"element": "H" 
			},
			{
				"x": 1.0405726654,
				"y": -2.5098704215,
				"z": -1.4131289452,
				"element": "H" 
			},
			{
				"x": 2.6432348777,
				"y": -0.5075720788,
				"z": -1.9204119118,
				"element": "H" 
			},
			{
				"x": 2.498365171,
				"y": -0.5923955624,
				"z": -0.1722841277,
				"element": "H" 
			},
			{
				"x": 3.3829050831,
				"y": 1.582402185,
				"z": -1.0993143929,
				"element": "H" 
			},
			{
				"x": 1.8689235949,
				"y": 1.8435437431,
				"z": -1.9396702284,
				"element": "H" 
			},
			{
				"x": 0.6814498347,
				"y": 2.1213005024,
				"z": 0.2419773579,
				"element": "H" 
			},
			{
				"x": 1.9937253887,
				"y": 3.2525693657,
				"z": 0.0222506987,
				"element": "H" 
			},
			{
				"x": 2.0299412378,
				"y": 2.4026315263,
				"z": 2.3440860993,
				"element": "H" 
			},
			{
				"x": 2.1285773716,
				"y": 0.7311041963,
				"z": 1.7865387249,
				"element": "H" 
			},
			{
				"x": 3.4787557081,
				"y": 1.8352885024,
				"z": 1.5032831262,
				"element": "H" 
			}
		],
		 "valence_orbital": [ 
			{
				"type": "occ",
				"energy": -0.32005,
				"method": "rhf"
			},
			{
				"type": "occ",
				"energy": -0.31171,
				"method": "rhf"
			},
			{
				"type": "occ",
				"energy": -0.30667,
				"method": "rhf"
			},
			{
				"type": "occ",
				"energy": -0.29914,
				"method": "rhf"
			},
			{
				"type": "occ",
				"energy": -0.25801,
				"method": "rhf"
			},
			{
				"type": "unocc",
				"energy": 0.07165,
				"method": "rhf"
			},
			{
				"type": "unocc",
				"energy": 0.08221,
				"method": "rhf"
			},
			{
				"type": "unocc",
				"energy": 0.0939,
				"method": "rhf"
			},
			{
				"type": "unocc",
				"energy": 0.11245,
				"method": "rhf"
			},
			{
				"type": "unocc",
				"energy": 0.12052,
				"method": "rhf"
			}
		],
		"cosmo_sigma_profile": { 
			"-0.025": 0.0,
			"-0.024": 0.0,
			"-0.023": 0.0,
			"-0.022": 0.0,
			"-0.021": 0.0,
			"-0.02": 0.0,
			"-0.019": 0.0,
			"-0.018": 0.0,
			"-0.017": 0.0,
			"-0.016": 0.0,
			"-0.015": 0.0858845224068,
			"-0.014": 0.919601976174,
			"-0.013": 0.7608370161,
			"-0.012": 0.898317122921,
			"-0.011": 0.926705189253,
			"-0.01": 0.872278709886,
			"-0.009": 0.706978208607,
			"-0.008": 0.775284609039,
			"-0.007": 0.931935113773,
			"-0.006": 1.46529864466,
			"-0.005": 1.60502057457,
			"-0.004": 1.56018445606,
			"-0.003": 8.19375773501,
			"-0.002": 38.3168978872,
			"-0.001": 42.2567281069,
			"0.0": 48.3768869625,
			"0.001": 42.5546472825,
			"0.002": 18.3773509008,
			"0.003": 1.93878616616,
			"0.004": 1.57085738275,
			"0.005": 1.8210062177,
			"0.006": 1.18836255354,
			"0.007": 1.36425960661,
			"0.008": 1.1050082302,
			"0.009": 1.17360529177,
			"0.01": 1.23176914944,
			"0.011": 1.16670902613,
			"0.012": 1.36483280838,
			"0.013": 0.901706068943,
			"0.014": 1.70536623732,
			"0.015": 1.68116017841,
			"0.016": 0.0814365622404,
			"0.017": 0.0,
			"0.018": 0.0,
			"0.019": 0.0,
			"0.02": 0.0,
			"0.021": 0.0,
			"0.022": 0.0,
			"0.023": 0.0,
			"0.024": 0.0,
			"0.025": 0.0
		}
	}
}
