{
	 "smiles": "OC(=O)C1CC1C1=CC=CC=C1", 
	 "Tm": 362.15, 
	 "num_atms": 22, 
	 "gaussian": { 
		 "optdone": 1, 
		 "sigma_profile": "yes", 
		 "theory": "DFT", 
		 "functional": "B3LYP", 
		 "basiset": "6-31G**", 
		 "properties": { 
			 "R2extent": 2982.2478, 
			 "electric_dipole_moment_norm": 4.18827246965, 
			 "electric_quadrupole_moment_norm": 16.1409986856, 
			 "total_energy": -537.522979274, 
			 "HOMO_LUMO_gap": 0.22137, 
			 "cosmo_polarized_energy": -15.12, 
			 "cosmo_cavitation_energy": 26.06, 
			 "cosmo_dispersion_energy": -18.91, 
			 "cosmo_repulsion_energy": 1.51, 
			 "cosmo_total_nonelectrostatic_energy": 8.66, 
			 "SMD_solvation_energy": 5.2 
		},
		"coords": [
			{
				"x": -3.9434993126,
				"y": 0.2607689094,
				"z": -1.2051599232,
				"element": "O" 
			},
			{
				"x": -2.905042956,
				"y": 0.4108230628,
				"z": -0.3403086515,
				"element": "C" 
			},
			{
				"x": -3.1022211414,
				"y": 0.3922991549,
				"z": 0.8524951814,
				"element": "O" 
			},
			{
				"x": -1.553555292,
				"y": 0.5812900621,
				"z": -0.9537436349,
				"element": "C" 
			},
			{
				"x": -0.5301614999,
				"y": 1.3692144263,
				"z": -0.1673991244,
				"element": "C" 
			},
			{
				"x": -0.3851823687,
				"y": -0.1195062577,
				"z": -0.2399297263,
				"element": "C" 
			},
			{
				"x": 0.6869332638,
				"y": -0.798674748,
				"z": -1.0237845234,
				"element": "C" 
			},
			{
				"x": 1.1332463439,
				"y": -2.0632710993,
				"z": -0.6132472105,
				"element": "C" 
			},
			{
				"x": 2.1310436935,
				"y": -2.7370537419,
				"z": -1.3181106662,
				"element": "C" 
			},
			{
				"x": 2.7010705263,
				"y": -2.1587060807,
				"z": -2.4527259027,
				"element": "C" 
			},
			{
				"x": 2.2652819328,
				"y": -0.9002520346,
				"z": -2.873245744,
				"element": "C" 
			},
			{
				"x": 1.2702195997,
				"y": -0.2271266822,
				"z": -2.1655809459,
				"element": "C" 
			},
			{
				"x": -3.6253304501,
				"y": 0.2871001197,
				"z": -2.118130175,
				"element": "H" 
			},
			{
				"x": -1.4883204297,
				"y": 0.6216892571,
				"z": -2.0386308304,
				"element": "H" 
			},
			{
				"x": -0.8785217327,
				"y": 1.7873124157,
				"z": 0.7711992593,
				"element": "H" 
			},
			{
				"x": 0.1650762398,
				"y": 1.985593297,
				"z": -0.7285175697,
				"element": "H" 
			},
			{
				"x": -0.6986665011,
				"y": -0.6492101188,
				"z": 0.6552305036,
				"element": "H" 
			},
			{
				"x": 0.693509237,
				"y": -2.5208777379,
				"z": 0.2691723399,
				"element": "H" 
			},
			{
				"x": 2.4615950823,
				"y": -3.7148368117,
				"z": -0.979327327,
				"element": "H" 
			},
			{
				"x": 3.4776073735,
				"y": -2.6812011407,
				"z": -3.0034983826,
				"element": "H" 
			},
			{
				"x": 2.7034313616,
				"y": -0.4388470714,
				"z": -3.7538469475,
				"element": "H" 
			},
			{
				"x": 0.9511870297,
				"y": 0.7537728198,
				"z": -2.5090099989,
				"element": "H" 
			}
		],
		 "valence_orbital": [ 
			{
				"type": "occ",
				"energy": -0.32006,
				"method": "rhf"
			},
			{
				"type": "occ",
				"energy": -0.30315,
				"method": "rhf"
			},
			{
				"type": "occ",
				"energy": -0.27394,
				"method": "rhf"
			},
			{
				"type": "occ",
				"energy": -0.25615,
				"method": "rhf"
			},
			{
				"type": "occ",
				"energy": -0.23984,
				"method": "rhf"
			},
			{
				"type": "unocc",
				"energy": -0.01847,
				"method": "rhf"
			},
			{
				"type": "unocc",
				"energy": -0.00715,
				"method": "rhf"
			},
			{
				"type": "unocc",
				"energy": 0.01859,
				"method": "rhf"
			},
			{
				"type": "unocc",
				"energy": 0.05328,
				"method": "rhf"
			},
			{
				"type": "unocc",
				"energy": 0.08564,
				"method": "rhf"
			}
		],
		"cosmo_sigma_profile": { 
			"-0.025": 0.0,
			"-0.024": 0.0,
			"-0.023": 0.0,
			"-0.022": 0.0,
			"-0.021": 0.0,
			"-0.02": 0.0460372212202,
			"-0.019": 0.979430738558,
			"-0.018": 0.857430767446,
			"-0.017": 1.69988165791,
			"-0.016": 0.655082519742,
			"-0.015": 0.861807662847,
			"-0.014": 0.874778603574,
			"-0.013": 0.932175067361,
			"-0.012": 1.67332473708,
			"-0.011": 0.856297077391,
			"-0.01": 0.883697714424,
			"-0.009": 1.08627071772,
			"-0.008": 1.27355556227,
			"-0.007": 4.87465137464,
			"-0.006": 10.2052856273,
			"-0.005": 15.4377657557,
			"-0.004": 15.2643703651,
			"-0.003": 16.7049177957,
			"-0.002": 13.7100224681,
			"-0.001": 14.4439936707,
			"0.0": 10.7091944517,
			"0.001": 12.1308330229,
			"0.002": 11.9630960114,
			"0.003": 10.8845471627,
			"0.004": 11.4415779008,
			"0.005": 11.8718584382,
			"0.006": 9.63143866783,
			"0.007": 3.04994735585,
			"0.008": 2.37108353522,
			"0.009": 2.64432497393,
			"0.01": 4.46413923364,
			"0.011": 3.9861887677,
			"0.012": 5.5513751769,
			"0.013": 2.82259109143,
			"0.014": 0.369132052131,
			"0.015": 0.0,
			"0.016": 0.0,
			"0.017": 0.0,
			"0.018": 0.0,
			"0.019": 0.0,
			"0.02": 0.0,
			"0.021": 0.0,
			"0.022": 0.0,
			"0.023": 0.0,
			"0.024": 0.0,
			"0.025": 0.0
		}
	}
}
