{
	 "smiles": "COC1=C(F)C=C(C=CC(O)=O)C=C1", 
	 "Tm": 496.15, 
	 "num_atms": 23, 
	 "gaussian": { 
		 "optdone": 1, 
		 "sigma_profile": "yes", 
		 "theory": "DFT", 
		 "functional": "B3LYP", 
		 "basiset": "6-31G**", 
		 "properties": { 
			 "R2extent": 5488.6198, 
			 "electric_dipole_moment_norm": 3.63249422574, 
			 "electric_quadrupole_moment_norm": 14.4242926704, 
			 "total_energy": -711.97829098, 
			 "HOMO_LUMO_gap": 0.15529, 
			 "cosmo_polarized_energy": -11.63, 
			 "cosmo_cavitation_energy": 28.77, 
			 "cosmo_dispersion_energy": -20.96, 
			 "cosmo_repulsion_energy": 1.63, 
			 "cosmo_total_nonelectrostatic_energy": 9.43, 
			 "SMD_solvation_energy": 7.55 
		},
		"coords": [
			{
				"x": -3.1305670179,
				"y": -0.3421198322,
				"z": 1.416546548,
				"element": "C" 
			},
			{
				"x": -2.6361288344,
				"y": -0.1108471857,
				"z": 0.0941036115,
				"element": "O" 
			},
			{
				"x": -1.3973277455,
				"y": 0.3916889367,
				"z": -0.1236317173,
				"element": "C" 
			},
			{
				"x": -0.4449730304,
				"y": 0.7641695038,
				"z": 0.8380836167,
				"element": "C" 
			},
			{
				"x": -0.7142242663,
				"y": 0.6393833355,
				"z": 2.1629906402,
				"element": "F" 
			},
			{
				"x": 0.7942158715,
				"y": 1.2687612061,
				"z": 0.4767194879,
				"element": "C" 
			},
			{
				"x": 1.1504655591,
				"y": 1.4298962843,
				"z": -0.8719886882,
				"element": "C" 
			},
			{
				"x": 2.4701450806,
				"y": 1.9664282082,
				"z": -1.191036407,
				"element": "C" 
			},
			{
				"x": 2.9855198068,
				"y": 2.1904596326,
				"z": -2.4163938739,
				"element": "C" 
			},
			{
				"x": 4.32998112,
				"y": 2.7358881324,
				"z": -2.6512548808,
				"element": "C" 
			},
			{
				"x": 5.0269198764,
				"y": 3.0019300715,
				"z": -1.5111823408,
				"element": "O" 
			},
			{
				"x": 4.8022002303,
				"y": 2.9409793246,
				"z": -3.7542693419,
				"element": "O" 
			},
			{
				"x": 0.1983845808,
				"y": 1.0583697635,
				"z": -1.843552601,
				"element": "C" 
			},
			{
				"x": -1.0370659485,
				"y": 0.5547386385,
				"z": -1.4745188633,
				"element": "C" 
			},
			{
				"x": -2.5129357779,
				"y": -1.0654578452,
				"z": 1.9557011712,
				"element": "H" 
			},
			{
				"x": -3.187964966,
				"y": 0.5854381769,
				"z": 1.9923525875,
				"element": "H" 
			},
			{
				"x": -4.1328572675,
				"y": -0.7488695008,
				"z": 1.2750929414,
				"element": "H" 
			},
			{
				"x": 1.4831017902,
				"y": 1.5367752731,
				"z": 1.2718274498,
				"element": "H" 
			},
			{
				"x": 3.0961981313,
				"y": 2.2077021663,
				"z": -0.3348419969,
				"element": "H" 
			},
			{
				"x": 2.4394334129,
				"y": 1.9822214053,
				"z": -3.330103824,
				"element": "H" 
			},
			{
				"x": 5.8822230142,
				"y": 3.3509051652,
				"z": -1.8094708883,
				"element": "H" 
			},
			{
				"x": 0.4269802786,
				"y": 1.1642323223,
				"z": -2.898597891,
				"element": "H" 
			},
			{
				"x": -1.7712238983,
				"y": 0.2678268173,
				"z": -2.2200747396,
				"element": "H" 
			}
		],
		 "valence_orbital": [ 
			{
				"type": "occ",
				"energy": -0.31104,
				"method": "rhf"
			},
			{
				"type": "occ",
				"energy": -0.28674,
				"method": "rhf"
			},
			{
				"type": "occ",
				"energy": -0.26749,
				"method": "rhf"
			},
			{
				"type": "occ",
				"energy": -0.26246,
				"method": "rhf"
			},
			{
				"type": "occ",
				"energy": -0.22068,
				"method": "rhf"
			},
			{
				"type": "unocc",
				"energy": -0.06539,
				"method": "rhf"
			},
			{
				"type": "unocc",
				"energy": -0.01319,
				"method": "rhf"
			},
			{
				"type": "unocc",
				"energy": 0.02405,
				"method": "rhf"
			},
			{
				"type": "unocc",
				"energy": 0.06647,
				"method": "rhf"
			},
			{
				"type": "unocc",
				"energy": 0.08394,
				"method": "rhf"
			}
		],
		"cosmo_sigma_profile": { 
			"-0.025": 0.0,
			"-0.024": 0.0,
			"-0.023": 0.0,
			"-0.022": 0.0,
			"-0.021": 0.0,
			"-0.02": 0.0,
			"-0.019": 0.0,
			"-0.018": 0.335077707153,
			"-0.017": 0.750740975622,
			"-0.016": 0.982772663357,
			"-0.015": 0.945355226408,
			"-0.014": 0.698348714189,
			"-0.013": 0.461272273886,
			"-0.012": 0.54964246864,
			"-0.011": 0.391669482857,
			"-0.01": 1.49911682248,
			"-0.009": 1.43183573577,
			"-0.008": 5.07832264229,
			"-0.007": 6.87184487809,
			"-0.006": 9.53016817366,
			"-0.005": 15.8851762117,
			"-0.004": 16.0968682686,
			"-0.003": 13.5115874768,
			"-0.002": 12.4282561138,
			"-0.001": 14.7013094912,
			"0.0": 18.2143021123,
			"0.001": 19.3375891534,
			"0.002": 23.4454446993,
			"0.003": 21.6912017595,
			"0.004": 12.7134755832,
			"0.005": 3.95303049914,
			"0.006": 3.86499303584,
			"0.007": 4.48446768248,
			"0.008": 4.58896210468,
			"0.009": 2.88172920121,
			"0.01": 1.6227568723,
			"0.011": 2.5378607165,
			"0.012": 5.02395741673,
			"0.013": 3.2420472249,
			"0.014": 0.254583450133,
			"0.015": 0.0,
			"0.016": 0.0,
			"0.017": 0.0,
			"0.018": 0.0,
			"0.019": 0.0,
			"0.02": 0.0,
			"0.021": 0.0,
			"0.022": 0.0,
			"0.023": 0.0,
			"0.024": 0.0,
			"0.025": 0.0
		}
	}
}
