{
	 "smiles": "CC1=CC(C=O)=C(C)N1C1=CC=CC=C1", 
	 "Tm": 361.95, 
	 "num_atms": 28, 
	 "gaussian": { 
		 "optdone": 1, 
		 "sigma_profile": "yes", 
		 "theory": "DFT", 
		 "functional": "B3LYP", 
		 "basiset": "6-31G**", 
		 "properties": { 
			 "R2extent": 4470.882, 
			 "electric_dipole_moment_norm": 5.61749716511, 
			 "electric_quadrupole_moment_norm": 23.7627816002, 
			 "total_energy": -633.193090592, 
			 "HOMO_LUMO_gap": 0.17773, 
			 "cosmo_polarized_energy": -10.32, 
			 "cosmo_cavitation_energy": 31.86, 
			 "cosmo_dispersion_energy": -21.84, 
			 "cosmo_repulsion_energy": 1.72, 
			 "cosmo_total_nonelectrostatic_energy": 11.73, 
			 "SMD_solvation_energy": 6.69 
		},
		"coords": [
			{
				"x": -0.2414823436,
				"y": 0.4557858499,
				"z": -1.4335582411,
				"element": "C" 
			},
			{
				"x": -1.1789499561,
				"y": -0.2601781111,
				"z": -0.5156939594,
				"element": "C" 
			},
			{
				"x": -2.1944292065,
				"y": -1.1398241192,
				"z": -0.7803421992,
				"element": "C" 
			},
			{
				"x": -2.796155305,
				"y": -1.5191568943,
				"z": 0.4650759984,
				"element": "C" 
			},
			{
				"x": -3.9068964046,
				"y": -2.4467470286,
				"z": 0.6113571391,
				"element": "C" 
			},
			{
				"x": -4.4401032881,
				"y": -2.7907145032,
				"z": 1.659185668,
				"element": "O" 
			},
			{
				"x": -2.1173418982,
				"y": -0.8432169206,
				"z": 1.4798501014,
				"element": "C" 
			},
			{
				"x": -2.3173697673,
				"y": -0.8806891805,
				"z": 2.9596950948,
				"element": "C" 
			},
			{
				"x": -1.1400847758,
				"y": -0.083990245,
				"z": 0.875804754,
				"element": "N" 
			},
			{
				"x": -0.213506239,
				"y": 0.7634618799,
				"z": 1.5666152105,
				"element": "C" 
			},
			{
				"x": -0.6077733751,
				"y": 2.0420485645,
				"z": 1.9721279098,
				"element": "C" 
			},
			{
				"x": 0.2967938031,
				"y": 2.864473447,
				"z": 2.6449496915,
				"element": "C" 
			},
			{
				"x": 1.5924877003,
				"y": 2.4147004297,
				"z": 2.907382997,
				"element": "C" 
			},
			{
				"x": 1.9839836529,
				"y": 1.1381392486,
				"z": 2.4985810401,
				"element": "C" 
			},
			{
				"x": 1.0822601621,
				"y": 0.3091108216,
				"z": 1.8300545927,
				"element": "C" 
			},
			{
				"x": -0.3214591912,
				"y": 1.5454476244,
				"z": -1.3394136149,
				"element": "H" 
			},
			{
				"x": 0.8073794515,
				"y": 0.1941871564,
				"z": -1.2500356767,
				"element": "H" 
			},
			{
				"x": -0.4761632805,
				"y": 0.1904248711,
				"z": -2.4670172491,
				"element": "H" 
			},
			{
				"x": -2.4899691989,
				"y": -1.4831833809,
				"z": -1.7630214574,
				"element": "H" 
			},
			{
				"x": -4.272881382,
				"y": -2.858400125,
				"z": -0.3571257051,
				"element": "H" 
			},
			{
				"x": -1.4067171909,
				"y": -1.1977605231,
				"z": 3.4818061051,
				"element": "H" 
			},
			{
				"x": -3.1195000512,
				"y": -1.5848420634,
				"z": 3.179934414,
				"element": "H" 
			},
			{
				"x": -2.5911765828,
				"y": 0.102733299,
				"z": 3.3599226283,
				"element": "H" 
			},
			{
				"x": -1.6158424621,
				"y": 2.3813202463,
				"z": 1.7551597998,
				"element": "H" 
			},
			{
				"x": -0.0105035097,
				"y": 3.856916837,
				"z": 2.9608167457,
				"element": "H" 
			},
			{
				"x": 2.2951579801,
				"y": 3.0571444619,
				"z": 3.4296221095,
				"element": "H" 
			},
			{
				"x": 2.9900710708,
				"y": 0.784493327,
				"z": 2.7032424237,
				"element": "H" 
			},
			{
				"x": 1.3700715878,
				"y": -0.6888849689,
				"z": 1.5144236793,
				"element": "H" 
			}
		],
		 "valence_orbital": [ 
			{
				"type": "occ",
				"energy": -0.27069,
				"method": "rhf"
			},
			{
				"type": "occ",
				"energy": -0.27042,
				"method": "rhf"
			},
			{
				"type": "occ",
				"energy": -0.24355,
				"method": "rhf"
			},
			{
				"type": "occ",
				"energy": -0.22994,
				"method": "rhf"
			},
			{
				"type": "occ",
				"energy": -0.20519,
				"method": "rhf"
			},
			{
				"type": "unocc",
				"energy": -0.02746,
				"method": "rhf"
			},
			{
				"type": "unocc",
				"energy": -0.02275,
				"method": "rhf"
			},
			{
				"type": "unocc",
				"energy": -0.02012,
				"method": "rhf"
			},
			{
				"type": "unocc",
				"energy": 0.0406,
				"method": "rhf"
			},
			{
				"type": "unocc",
				"energy": 0.07534,
				"method": "rhf"
			}
		],
		"cosmo_sigma_profile": { 
			"-0.025": 0.0,
			"-0.024": 0.0,
			"-0.023": 0.0,
			"-0.022": 0.0,
			"-0.021": 0.0,
			"-0.02": 0.0,
			"-0.019": 0.0,
			"-0.018": 0.0,
			"-0.017": 0.0,
			"-0.016": 0.0,
			"-0.015": 0.0,
			"-0.014": 0.0,
			"-0.013": 0.0,
			"-0.012": 0.0,
			"-0.011": 0.0,
			"-0.01": 0.0,
			"-0.009": 0.0,
			"-0.008": 0.0,
			"-0.007": 2.74641359361,
			"-0.006": 11.6703382521,
			"-0.005": 19.0625111253,
			"-0.004": 27.4642051194,
			"-0.003": 22.8698507824,
			"-0.002": 23.9627105276,
			"-0.001": 25.6204840052,
			"0.0": 23.0350778992,
			"0.001": 17.4558137801,
			"0.002": 14.9363444426,
			"0.003": 14.7702399483,
			"0.004": 15.7227231033,
			"0.005": 9.93678708034,
			"0.006": 5.43166525889,
			"0.007": 3.54380930752,
			"0.008": 1.45424196996,
			"0.009": 1.83781063479,
			"0.01": 1.83442134867,
			"0.011": 2.47496832496,
			"0.012": 3.11253327245,
			"0.013": 3.16683966384,
			"0.014": 1.49257803374,
			"0.015": 0.184106241791,
			"0.016": 0.0,
			"0.017": 0.0,
			"0.018": 0.0,
			"0.019": 0.0,
			"0.02": 0.0,
			"0.021": 0.0,
			"0.022": 0.0,
			"0.023": 0.0,
			"0.024": 0.0,
			"0.025": 0.0
		}
	}
}
