{
	 "smiles": "COC1=C(OCCC(C)C)C=CC(=C1)C(O)=O", 
	 "Tm": 366.15, 
	 "num_atms": 35, 
	 "gaussian": { 
		 "optdone": 1, 
		 "sigma_profile": "yes", 
		 "theory": "DFT", 
		 "functional": "B3LYP", 
		 "basiset": "6-31G**", 
		 "properties": { 
			 "R2extent": 7466.0433, 
			 "electric_dipole_moment_norm": 4.09060201437, 
			 "electric_quadrupole_moment_norm": 31.6772354635, 
			 "total_energy": -807.124056425, 
			 "HOMO_LUMO_gap": 0.18619, 
			 "cosmo_polarized_energy": -15.68, 
			 "cosmo_cavitation_energy": 38.01, 
			 "cosmo_dispersion_energy": -26.46, 
			 "cosmo_repulsion_energy": 2.09, 
			 "cosmo_total_nonelectrostatic_energy": 13.64, 
			 "SMD_solvation_energy": 8.45 
		},
		"coords": [
			{
				"x": -3.5054849644,
				"y": -0.1862705098,
				"z": 1.7689670888,
				"element": "C" 
			},
			{
				"x": -2.298030641,
				"y": 0.3573625445,
				"z": 1.2490559784,
				"element": "O" 
			},
			{
				"x": -2.3509302706,
				"y": 1.0129037917,
				"z": 0.0559129577,
				"element": "C" 
			},
			{
				"x": -1.1280704849,
				"y": 1.5591767164,
				"z": -0.4128048521,
				"element": "C" 
			},
			{
				"x": 0.0303484123,
				"y": 1.4721129236,
				"z": 0.3037247965,
				"element": "O" 
			},
			{
				"x": 0.5873876033,
				"y": 0.1555150831,
				"z": 0.511648506,
				"element": "C" 
			},
			{
				"x": 1.8940653508,
				"y": 0.3512328689,
				"z": 1.2710794476,
				"element": "C" 
			},
			{
				"x": 2.6763026411,
				"y": -0.9416133269,
				"z": 1.5920588817,
				"element": "C" 
			},
			{
				"x": 3.1576612692,
				"y": -1.6737848717,
				"z": 0.3285824444,
				"element": "C" 
			},
			{
				"x": 1.9006985388,
				"y": -1.8896495879,
				"z": 2.5214070321,
				"element": "C" 
			},
			{
				"x": -1.113166856,
				"y": 2.2695569072,
				"z": -1.6114915872,
				"element": "C" 
			},
			{
				"x": -2.279810025,
				"y": 2.4567471287,
				"z": -2.3532052172,
				"element": "C" 
			},
			{
				"x": -3.4851910675,
				"y": 1.914987317,
				"z": -1.8968936755,
				"element": "C" 
			},
			{
				"x": -3.5086690605,
				"y": 1.1836405625,
				"z": -0.6986229389,
				"element": "C" 
			},
			{
				"x": -4.7806638131,
				"y": 2.0460259285,
				"z": -2.6342446578,
				"element": "C" 
			},
			{
				"x": -4.8580070174,
				"y": 3.0340616265,
				"z": -3.5668147208,
				"element": "O" 
			},
			{
				"x": -5.7363908009,
				"y": 1.3304610482,
				"z": -2.4369958529,
				"element": "O" 
			},
			{
				"x": -4.2552783436,
				"y": 0.5955857979,
				"z": 1.9396812265,
				"element": "H" 
			},
			{
				"x": -3.9255863941,
				"y": -0.9480568848,
				"z": 1.1010148681,
				"element": "H" 
			},
			{
				"x": -3.2393274207,
				"y": -0.6462692936,
				"z": 2.7213733959,
				"element": "H" 
			},
			{
				"x": 0.7553523692,
				"y": -0.3123867598,
				"z": -0.4673504052,
				"element": "H" 
			},
			{
				"x": -0.1203938453,
				"y": -0.4589778468,
				"z": 1.0736955625,
				"element": "H" 
			},
			{
				"x": 2.5309952557,
				"y": 1.0249257337,
				"z": 0.6846754242,
				"element": "H" 
			},
			{
				"x": 1.6621607163,
				"y": 0.8761387642,
				"z": 2.2059384321,
				"element": "H" 
			},
			{
				"x": 3.5729980023,
				"y": -0.616205393,
				"z": 2.1378848703,
				"element": "H" 
			},
			{
				"x": 3.7162046334,
				"y": -1.0032086447,
				"z": -0.3338330689,
				"element": "H" 
			},
			{
				"x": 3.8164948294,
				"y": -2.5085861132,
				"z": 0.5906261325,
				"element": "H" 
			},
			{
				"x": 2.3213849118,
				"y": -2.0893358501,
				"z": -0.2450893093,
				"element": "H" 
			},
			{
				"x": 1.560403647,
				"y": -1.3728989666,
				"z": 3.4255531834,
				"element": "H" 
			},
			{
				"x": 1.0188583336,
				"y": -2.3127957656,
				"z": 2.0270457496,
				"element": "H" 
			},
			{
				"x": 2.531066468,
				"y": -2.7291748387,
				"z": 2.8336606047,
				"element": "H" 
			},
			{
				"x": -0.1625300103,
				"y": 2.6703528007,
				"z": -1.947267923,
				"element": "H" 
			},
			{
				"x": -2.2173772603,
				"y": 2.9790130144,
				"z": -3.3043756938,
				"element": "H" 
			},
			{
				"x": -4.4585874578,
				"y": 0.7706316581,
				"z": -0.3840742782,
				"element": "H" 
			},
			{
				"x": -4.0905872484,
				"y": 3.6179824371,
				"z": -3.4935224019,
				"element": "H" 
			}
		],
		 "valence_orbital": [ 
			{
				"type": "occ",
				"energy": -0.30953,
				"method": "rhf"
			},
			{
				"type": "occ",
				"energy": -0.28393,
				"method": "rhf"
			},
			{
				"type": "occ",
				"energy": -0.27007,
				"method": "rhf"
			},
			{
				"type": "occ",
				"energy": -0.25235,
				"method": "rhf"
			},
			{
				"type": "occ",
				"energy": -0.22919,
				"method": "rhf"
			},
			{
				"type": "unocc",
				"energy": -0.043,
				"method": "rhf"
			},
			{
				"type": "unocc",
				"energy": -0.00791,
				"method": "rhf"
			},
			{
				"type": "unocc",
				"energy": 0.05651,
				"method": "rhf"
			},
			{
				"type": "unocc",
				"energy": 0.06316,
				"method": "rhf"
			},
			{
				"type": "unocc",
				"energy": 0.07475,
				"method": "rhf"
			}
		],
		"cosmo_sigma_profile": { 
			"-0.025": 0.0,
			"-0.024": 0.0,
			"-0.023": 0.0,
			"-0.022": 0.0,
			"-0.021": 0.0,
			"-0.02": 0.0,
			"-0.019": 0.179877635288,
			"-0.018": 0.622451772926,
			"-0.017": 0.853875078984,
			"-0.016": 1.25176655853,
			"-0.015": 0.617467908585,
			"-0.014": 1.02874749087,
			"-0.013": 0.691409792824,
			"-0.012": 1.51998616185,
			"-0.011": 1.3672499408,
			"-0.01": 0.945077056234,
			"-0.009": 0.936633699677,
			"-0.008": 1.38406895098,
			"-0.007": 3.93508023136,
			"-0.006": 11.6595437087,
			"-0.005": 13.3584706102,
			"-0.004": 14.456609402,
			"-0.003": 27.8604676569,
			"-0.002": 34.6680671303,
			"-0.001": 34.1257744038,
			"0.0": 29.9624790926,
			"0.001": 27.1801087361,
			"0.002": 21.7302086467,
			"0.003": 15.6244804562,
			"0.004": 7.47991313266,
			"0.005": 4.56084830182,
			"0.006": 5.33374074361,
			"0.007": 3.9249260553,
			"0.008": 4.96067296115,
			"0.009": 5.72172096233,
			"0.01": 6.5081529798,
			"0.011": 6.09810300764,
			"0.012": 5.66832284663,
			"0.013": 1.94811084404,
			"0.014": 0.255004867568,
			"0.015": 0.0,
			"0.016": 0.0,
			"0.017": 0.0,
			"0.018": 0.0,
			"0.019": 0.0,
			"0.02": 0.0,
			"0.021": 0.0,
			"0.022": 0.0,
			"0.023": 0.0,
			"0.024": 0.0,
			"0.025": 0.0
		}
	}
}
