{
	 "smiles": "CN1N=C(C)C(C(O)=O)=C1OC1=C(C)C(C)=CC(C)=C1", 
	 "Tm": 489.15, 
	 "num_atms": 38, 
	 "gaussian": { 
		 "optdone": 1, 
		 "sigma_profile": "yes", 
		 "theory": "DFT", 
		 "functional": "B3LYP", 
		 "basiset": "6-31G**", 
		 "properties": { 
			 "R2extent": 6504.7812, 
			 "electric_dipole_moment_norm": 4.81878932202, 
			 "electric_quadrupole_moment_norm": 9.73709751415, 
			 "total_energy": -917.630407844, 
			 "HOMO_LUMO_gap": 0.21383, 
			 "cosmo_polarized_energy": -14.24, 
			 "cosmo_cavitation_energy": 40.78, 
			 "cosmo_dispersion_energy": -27.72, 
			 "cosmo_repulsion_energy": 2.14, 
			 "cosmo_total_nonelectrostatic_energy": 15.2, 
			 "SMD_solvation_energy": 7.39 
		},
		"coords": [
			{
				"x": -1.2568945766,
				"y": 0.1733223619,
				"z": 1.4014359075,
				"element": "C" 
			},
			{
				"x": -1.6394312609,
				"y": 0.0328655638,
				"z": 0.006092939,
				"element": "N" 
			},
			{
				"x": -2.9543969286,
				"y": -0.2257614826,
				"z": -0.2937631912,
				"element": "N" 
			},
			{
				"x": -3.0275599486,
				"y": -0.2344193474,
				"z": -1.6168734513,
				"element": "C" 
			},
			{
				"x": -4.3326645105,
				"y": -0.4832041759,
				"z": -2.3030575324,
				"element": "C" 
			},
			{
				"x": -1.7492856782,
				"y": 0.0056198894,
				"z": -2.2064099298,
				"element": "C" 
			},
			{
				"x": -1.4597352427,
				"y": 0.0312867251,
				"z": -3.6330156887,
				"element": "C" 
			},
			{
				"x": -0.1358046496,
				"y": 0.1763873453,
				"z": -3.919944094,
				"element": "O" 
			},
			{
				"x": -2.2927145939,
				"y": -0.0801417127,
				"z": -4.5169533544,
				"element": "O" 
			},
			{
				"x": -0.8917245468,
				"y": 0.1684072117,
				"z": -1.1149371396,
				"element": "C" 
			},
			{
				"x": 0.4144629475,
				"y": 0.5142801177,
				"z": -1.1260272381,
				"element": "O" 
			},
			{
				"x": 1.3454175201,
				"y": -0.1274496166,
				"z": -0.293552952,
				"element": "C" 
			},
			{
				"x": 1.5858768672,
				"y": -1.5044580497,
				"z": -0.3943449384,
				"element": "C" 
			},
			{
				"x": 0.8584485961,
				"y": -2.3527541087,
				"z": -1.4107390908,
				"element": "C" 
			},
			{
				"x": 2.5578880123,
				"y": -2.0483107736,
				"z": 0.4757835084,
				"element": "C" 
			},
			{
				"x": 2.8625625201,
				"y": -3.5296834843,
				"z": 0.4642000169,
				"element": "C" 
			},
			{
				"x": 3.2597413366,
				"y": -1.2116185176,
				"z": 1.3501018734,
				"element": "C" 
			},
			{
				"x": 3.045145623,
				"y": 0.1705863596,
				"z": 1.3969075274,
				"element": "C" 
			},
			{
				"x": 3.8600056493,
				"y": 1.0573306638,
				"z": 2.3084843184,
				"element": "C" 
			},
			{
				"x": 2.0635851805,
				"y": 0.7052683383,
				"z": 0.5614172575,
				"element": "C" 
			},
			{
				"x": -2.1831493405,
				"y": 0.1549590033,
				"z": 1.9744024187,
				"element": "H" 
			},
			{
				"x": -0.7405713296,
				"y": 1.1219633923,
				"z": 1.5659744078,
				"element": "H" 
			},
			{
				"x": -0.606839415,
				"y": -0.6443707342,
				"z": 1.723248579,
				"element": "H" 
			},
			{
				"x": -4.2735920696,
				"y": -1.3580615711,
				"z": -2.9572224625,
				"element": "H" 
			},
			{
				"x": -5.1122566997,
				"y": -0.6413417441,
				"z": -1.5544869717,
				"element": "H" 
			},
			{
				"x": -4.6066396323,
				"y": 0.3615975303,
				"z": -2.9415738141,
				"element": "H" 
			},
			{
				"x": -0.088007145,
				"y": 0.1718443596,
				"z": -4.8904573157,
				"element": "H" 
			},
			{
				"x": -0.0987139393,
				"y": -2.7301021882,
				"z": -1.0292031441,
				"element": "H" 
			},
			{
				"x": 1.4567718044,
				"y": -3.2207315455,
				"z": -1.6956184087,
				"element": "H" 
			},
			{
				"x": 0.6480394517,
				"y": -1.7780198773,
				"z": -2.3150163866,
				"element": "H" 
			},
			{
				"x": 1.9609355396,
				"y": -4.1336251288,
				"z": 0.6143746246,
				"element": "H" 
			},
			{
				"x": 3.3029557568,
				"y": -3.8463778332,
				"z": -0.4890317429,
				"element": "H" 
			},
			{
				"x": 3.5724023175,
				"y": -3.785842617,
				"z": 1.2547105791,
				"element": "H" 
			},
			{
				"x": 4.0055628339,
				"y": -1.6520764424,
				"z": 2.0078017454,
				"element": "H" 
			},
			{
				"x": 3.3060210838,
				"y": 1.955842867,
				"z": 2.5959763618,
				"element": "H" 
			},
			{
				"x": 4.1512087358,
				"y": 0.530729973,
				"z": 3.2223624862,
				"element": "H" 
			},
			{
				"x": 4.7828254339,
				"y": 1.3878588533,
				"z": 1.815686004,
				"element": "H" 
			},
			{
				"x": 1.840824297,
				"y": 1.7680003954,
				"z": 0.5602682922,
				"element": "H" 
			}
		],
		 "valence_orbital": [ 
			{
				"type": "occ",
				"energy": -0.2641,
				"method": "rhf"
			},
			{
				"type": "occ",
				"energy": -0.24678,
				"method": "rhf"
			},
			{
				"type": "occ",
				"energy": -0.24448,
				"method": "rhf"
			},
			{
				"type": "occ",
				"energy": -0.24048,
				"method": "rhf"
			},
			{
				"type": "occ",
				"energy": -0.22934,
				"method": "rhf"
			},
			{
				"type": "unocc",
				"energy": -0.01551,
				"method": "rhf"
			},
			{
				"type": "unocc",
				"energy": -0.00884,
				"method": "rhf"
			},
			{
				"type": "unocc",
				"energy": -0.00109,
				"method": "rhf"
			},
			{
				"type": "unocc",
				"energy": 0.03045,
				"method": "rhf"
			},
			{
				"type": "unocc",
				"energy": 0.08276,
				"method": "rhf"
			}
		],
		"cosmo_sigma_profile": { 
			"-0.025": 0.0,
			"-0.024": 0.0,
			"-0.023": 0.0,
			"-0.022": 0.0,
			"-0.021": 0.0,
			"-0.02": 0.0,
			"-0.019": 0.0,
			"-0.018": 0.358362270774,
			"-0.017": 0.625818538228,
			"-0.016": 1.26308287775,
			"-0.015": 0.726920567463,
			"-0.014": 0.653016773323,
			"-0.013": 0.49834357012,
			"-0.012": 0.648446382701,
			"-0.011": 0.727325513882,
			"-0.01": 0.881163384056,
			"-0.009": 0.461776448106,
			"-0.008": 0.231444987768,
			"-0.007": 1.88804883203,
			"-0.006": 6.73202623532,
			"-0.005": 15.4102972982,
			"-0.004": 32.2017161134,
			"-0.003": 32.0967844004,
			"-0.002": 33.8403236311,
			"-0.001": 36.0240912484,
			"0.0": 40.6697844346,
			"0.001": 24.3230786659,
			"0.002": 16.0035405898,
			"0.003": 15.5194838276,
			"0.004": 11.9885326825,
			"0.005": 10.7816851823,
			"0.006": 5.81662439912,
			"0.007": 4.76804933849,
			"0.008": 3.88966117605,
			"0.009": 4.42318159564,
			"0.01": 4.31197947974,
			"0.011": 4.57042232884,
			"0.012": 5.37522521701,
			"0.013": 2.66516434359,
			"0.014": 1.02090684748,
			"0.015": 0.363426663417,
			"0.016": 0.0,
			"0.017": 0.0,
			"0.018": 0.0,
			"0.019": 0.0,
			"0.02": 0.0,
			"0.021": 0.0,
			"0.022": 0.0,
			"0.023": 0.0,
			"0.024": 0.0,
			"0.025": 0.0
		}
	}
}
