{
	 "smiles": "NNC(=O)C1=CC(Cl)=C(O)C=C1", 
	 "Tm": 554.15, 
	 "num_atms": 19, 
	 "gaussian": { 
		 "optdone": 1, 
		 "sigma_profile": "yes", 
		 "theory": "DFT", 
		 "functional": "B3LYP", 
		 "basiset": "6-31G**", 
		 "properties": { 
			 "R2extent": 2748.1073, 
			 "electric_dipole_moment_norm": 3.11459000352, 
			 "electric_quadrupole_moment_norm": 6.626482659, 
			 "total_energy": -991.079368414, 
			 "HOMO_LUMO_gap": 0.19756, 
			 "cosmo_polarized_energy": -15.56, 
			 "cosmo_cavitation_energy": 25.35, 
			 "cosmo_dispersion_energy": -18.81, 
			 "cosmo_repulsion_energy": 1.51, 
			 "cosmo_total_nonelectrostatic_energy": 8.06, 
			 "SMD_solvation_energy": 5.54 
		},
		"coords": [
			{
				"x": -0.122558023,
				"y": -1.7731816603,
				"z": 3.3140092591,
				"element": "N" 
			},
			{
				"x": 1.1335881917,
				"y": -1.218704873,
				"z": 2.9793207847,
				"element": "N" 
			},
			{
				"x": 1.616966196,
				"y": -1.0091651906,
				"z": 1.6995116009,
				"element": "C" 
			},
			{
				"x": 2.8243610391,
				"y": -1.0354904726,
				"z": 1.4890896366,
				"element": "O" 
			},
			{
				"x": 0.6424552703,
				"y": -0.735830102,
				"z": 0.5927897906,
				"element": "C" 
			},
			{
				"x": -0.5474139842,
				"y": -0.0177391864,
				"z": 0.7647615977,
				"element": "C" 
			},
			{
				"x": -1.3542451632,
				"y": 0.2592221241,
				"z": -0.3327511727,
				"element": "C" 
			},
			{
				"x": -2.8451119719,
				"y": 1.1794837057,
				"z": -0.1252087427,
				"element": "Cl" 
			},
			{
				"x": -1.0110204765,
				"y": -0.1717202184,
				"z": -1.6249231483,
				"element": "C" 
			},
			{
				"x": -1.7729727956,
				"y": 0.0664471072,
				"z": -2.714677043,
				"element": "O" 
			},
			{
				"x": 0.1881319293,
				"y": -0.8787975018,
				"z": -1.7908733974,
				"element": "C" 
			},
			{
				"x": 1.0052949324,
				"y": -1.1419887412,
				"z": -0.7015906145,
				"element": "C" 
			},
			{
				"x": -0.8089680141,
				"y": -1.0334378975,
				"z": 3.4274817489,
				"element": "H" 
			},
			{
				"x": -0.4444428427,
				"y": -2.3955530379,
				"z": 2.576866929,
				"element": "H" 
			},
			{
				"x": 1.871180504,
				"y": -1.4975667742,
				"z": 3.6164257509,
				"element": "H" 
			},
			{
				"x": -0.8383520998,
				"y": 0.3642880459,
				"z": 1.7358321959,
				"element": "H" 
			},
			{
				"x": -2.5558215106,
				"y": 0.5744037643,
				"z": -2.4504232048,
				"element": "H" 
			},
			{
				"x": 0.4562892184,
				"y": -1.1999606845,
				"z": -2.7917142699,
				"element": "H" 
			},
			{
				"x": 1.9478396003,
				"y": -1.661908407,
				"z": -0.833127701,
				"element": "H" 
			}
		],
		 "valence_orbital": [ 
			{
				"type": "occ",
				"energy": -0.30207,
				"method": "rhf"
			},
			{
				"type": "occ",
				"energy": -0.26944,
				"method": "rhf"
			},
			{
				"type": "occ",
				"energy": -0.25843,
				"method": "rhf"
			},
			{
				"type": "occ",
				"energy": -0.25535,
				"method": "rhf"
			},
			{
				"type": "occ",
				"energy": -0.23892,
				"method": "rhf"
			},
			{
				"type": "unocc",
				"energy": -0.04136,
				"method": "rhf"
			},
			{
				"type": "unocc",
				"energy": -0.02625,
				"method": "rhf"
			},
			{
				"type": "unocc",
				"energy": 0.00645,
				"method": "rhf"
			},
			{
				"type": "unocc",
				"energy": 0.04411,
				"method": "rhf"
			},
			{
				"type": "unocc",
				"energy": 0.06726,
				"method": "rhf"
			}
		],
		"cosmo_sigma_profile": { 
			"-0.025": 0.0,
			"-0.024": 0.0,
			"-0.023": 0.0,
			"-0.022": 0.0,
			"-0.021": 0.0,
			"-0.02": 0.0,
			"-0.019": 0.0,
			"-0.018": 0.0,
			"-0.017": 0.0,
			"-0.016": 0.0338251339348,
			"-0.015": 0.945131104961,
			"-0.014": 0.716782915991,
			"-0.013": 1.53128283688,
			"-0.012": 4.63455373589,
			"-0.011": 4.32187367274,
			"-0.01": 4.84719769936,
			"-0.009": 5.49658845297,
			"-0.008": 3.53927443448,
			"-0.007": 7.64378507047,
			"-0.006": 8.10582550637,
			"-0.005": 8.63290458916,
			"-0.004": 7.69064644529,
			"-0.003": 9.51317582173,
			"-0.002": 10.3888716123,
			"-0.001": 11.9886909601,
			"0.0": 13.3832426391,
			"0.001": 18.3975156245,
			"0.002": 17.7451598802,
			"0.003": 15.8636831715,
			"0.004": 10.9298057178,
			"0.005": 4.93282746853,
			"0.006": 3.41038049735,
			"0.007": 3.7897777575,
			"0.008": 3.35366126641,
			"0.009": 3.54764496501,
			"0.01": 3.57911248193,
			"0.011": 2.40389523892,
			"0.012": 2.82878914186,
			"0.013": 5.97685233277,
			"0.014": 2.92335147781,
			"0.015": 0.85716297624,
			"0.016": 0.223433240844,
			"0.017": 0.0,
			"0.018": 0.0,
			"0.019": 0.0,
			"0.02": 0.0,
			"0.021": 0.0,
			"0.022": 0.0,
			"0.023": 0.0,
			"0.024": 0.0,
			"0.025": 0.0
		}
	}
}
