{
	 "smiles": "ClC1=CC(C=O)=C(OCC2=CN=CC=C2)C=C1", 
	 "Tm": 353.15, 
	 "num_atms": 27, 
	 "gaussian": { 
		 "optdone": 1, 
		 "sigma_profile": "yes", 
		 "theory": "DFT", 
		 "functional": "B3LYP", 
		 "basiset": "6-31G**", 
		 "properties": { 
			 "R2extent": 6016.6166, 
			 "electric_dipole_moment_norm": 6.47931469293, 
			 "electric_quadrupole_moment_norm": 10.9890164178, 
			 "total_energy": -1166.77321739, 
			 "HOMO_LUMO_gap": 0.16839, 
			 "cosmo_polarized_energy": -14.52, 
			 "cosmo_cavitation_energy": 34.07, 
			 "cosmo_dispersion_energy": -24.09, 
			 "cosmo_repulsion_energy": 1.87, 
			 "cosmo_total_nonelectrostatic_energy": 11.85, 
			 "SMD_solvation_energy": 5.3 
		},
		"coords": [
			{
				"x": -0.2403692135,
				"y": -1.3778663152,
				"z": -4.4862711722,
				"element": "Cl" 
			},
			{
				"x": 0.0094153042,
				"y": -1.543559712,
				"z": -2.7552691558,
				"element": "C" 
			},
			{
				"x": 1.0018989565,
				"y": -2.384205521,
				"z": -2.2725109243,
				"element": "C" 
			},
			{
				"x": 1.2000840879,
				"y": -2.5187721059,
				"z": -0.8924939832,
				"element": "C" 
			},
			{
				"x": 2.2637058207,
				"y": -3.4378933784,
				"z": -0.416954156,
				"element": "C" 
			},
			{
				"x": 2.9797422635,
				"y": -4.0765454483,
				"z": -1.1679683835,
				"element": "O" 
			},
			{
				"x": 0.3863553406,
				"y": -1.7923755557,
				"z": 0.0056263763,
				"element": "C" 
			},
			{
				"x": 0.6364420159,
				"y": -1.9820551808,
				"z": 1.3337803466,
				"element": "O" 
			},
			{
				"x": -0.2416165322,
				"y": -1.4206613897,
				"z": 2.3113798629,
				"element": "C" 
			},
			{
				"x": -0.0147880501,
				"y": 0.0542609587,
				"z": 2.569778007,
				"element": "C" 
			},
			{
				"x": 1.2626420344,
				"y": 0.6225140969,
				"z": 2.4778900635,
				"element": "C" 
			},
			{
				"x": 1.5300557433,
				"y": 1.9057060519,
				"z": 2.7419105122,
				"element": "N" 
			},
			{
				"x": 0.5094439884,
				"y": 2.6843280609,
				"z": 3.1222232142,
				"element": "C" 
			},
			{
				"x": -0.8023343894,
				"y": 2.2249749137,
				"z": 3.2481398572,
				"element": "C" 
			},
			{
				"x": -1.0660858084,
				"y": 0.8866517121,
				"z": 2.9634820262,
				"element": "C" 
			},
			{
				"x": -0.6077509422,
				"y": -0.9420841495,
				"z": -0.4952065528,
				"element": "C" 
			},
			{
				"x": -0.7948677399,
				"y": -0.8214185304,
				"z": -1.8715001307,
				"element": "C" 
			},
			{
				"x": 1.6406217015,
				"y": -2.9558268194,
				"z": -2.9368508196,
				"element": "H" 
			},
			{
				"x": 2.3732632123,
				"y": -3.5157883836,
				"z": 0.6798682749,
				"element": "H" 
			},
			{
				"x": -1.2877182489,
				"y": -1.6116778833,
				"z": 2.039328988,
				"element": "H" 
			},
			{
				"x": -0.0276299655,
				"y": -1.9990171461,
				"z": 3.2161620789,
				"element": "H" 
			},
			{
				"x": 2.1049032846,
				"y": 0.0082219732,
				"z": 2.1668735449,
				"element": "H" 
			},
			{
				"x": 0.7518800405,
				"y": 3.723963097,
				"z": 3.3344020171,
				"element": "H" 
			},
			{
				"x": -1.5949430761,
				"y": 2.900123837,
				"z": 3.5548167958,
				"element": "H" 
			},
			{
				"x": -2.0774824321,
				"y": 0.4940852584,
				"z": 3.0458753708,
				"element": "H" 
			},
			{
				"x": -1.2243238922,
				"y": -0.352958391,
				"z": 0.1714053178,
				"element": "H" 
			},
			{
				"x": -1.5628435038,
				"y": -0.1594240496,
				"z": -2.256617376,
				"element": "H" 
			}
		],
		 "valence_orbital": [ 
			{
				"type": "occ",
				"energy": -0.27717,
				"method": "rhf"
			},
			{
				"type": "occ",
				"energy": -0.27112,
				"method": "rhf"
			},
			{
				"type": "occ",
				"energy": -0.26474,
				"method": "rhf"
			},
			{
				"type": "occ",
				"energy": -0.25482,
				"method": "rhf"
			},
			{
				"type": "occ",
				"energy": -0.23837,
				"method": "rhf"
			},
			{
				"type": "unocc",
				"energy": -0.06998,
				"method": "rhf"
			},
			{
				"type": "unocc",
				"energy": -0.04037,
				"method": "rhf"
			},
			{
				"type": "unocc",
				"energy": -0.02996,
				"method": "rhf"
			},
			{
				"type": "unocc",
				"energy": -0.01468,
				"method": "rhf"
			},
			{
				"type": "unocc",
				"energy": 0.02589,
				"method": "rhf"
			}
		],
		"cosmo_sigma_profile": { 
			"-0.025": 0.0,
			"-0.024": 0.0,
			"-0.023": 0.0,
			"-0.022": 0.0,
			"-0.021": 0.0,
			"-0.02": 0.0,
			"-0.019": 0.0,
			"-0.018": 0.0,
			"-0.017": 0.0,
			"-0.016": 0.0,
			"-0.015": 0.0,
			"-0.014": 0.0,
			"-0.013": 0.0,
			"-0.012": 0.0,
			"-0.011": 0.0,
			"-0.01": 0.0,
			"-0.009": 1.19236346526,
			"-0.008": 6.40343534603,
			"-0.007": 14.1118040063,
			"-0.006": 18.1819220183,
			"-0.005": 17.393573621,
			"-0.004": 17.1327289885,
			"-0.003": 15.4668223174,
			"-0.002": 17.6194359412,
			"-0.001": 18.4070945601,
			"0.0": 23.8909404718,
			"0.001": 30.3382545611,
			"0.002": 28.8401182901,
			"0.003": 14.9649610399,
			"0.004": 14.7962904613,
			"0.005": 9.7234740659,
			"0.006": 2.02589502049,
			"0.007": 2.22436058286,
			"0.008": 4.17011084674,
			"0.009": 3.0277692144,
			"0.01": 3.50527207145,
			"0.011": 4.84737279142,
			"0.012": 3.43110532817,
			"0.013": 1.76561568346,
			"0.014": 0.862771523367,
			"0.015": 0.734626057598,
			"0.016": 1.00179590217,
			"0.017": 0.259113982558,
			"0.018": 0.0,
			"0.019": 0.0,
			"0.02": 0.0,
			"0.021": 0.0,
			"0.022": 0.0,
			"0.023": 0.0,
			"0.024": 0.0,
			"0.025": 0.0
		}
	}
}
