{
	 "smiles": "COC1=CC=C(CCNC(N)=S)C=C1", 
	 "Tm": 440.15, 
	 "num_atms": 28, 
	 "gaussian": { 
		 "optdone": 1, 
		 "sigma_profile": "yes", 
		 "theory": "DFT", 
		 "functional": "B3LYP", 
		 "basiset": "6-31G**", 
		 "properties": { 
			 "R2extent": 4781.4996, 
			 "electric_dipole_moment_norm": 5.43512132247, 
			 "electric_quadrupole_moment_norm": 23.5238933466, 
			 "total_energy": -972.4276921, 
			 "HOMO_LUMO_gap": 0.19134, 
			 "cosmo_polarized_energy": -20.32, 
			 "cosmo_cavitation_energy": 33.25, 
			 "cosmo_dispersion_energy": -23.75, 
			 "cosmo_repulsion_energy": 1.86, 
			 "cosmo_total_nonelectrostatic_energy": 11.36, 
			 "SMD_solvation_energy": 4.8 
		},
		"coords": [
			{
				"x": -3.3191891707,
				"y": 4.1051015354,
				"z": 1.4583532602,
				"element": "C" 
			},
			{
				"x": -3.6432110186,
				"y": 3.0414839585,
				"z": 0.5779811236,
				"element": "O" 
			},
			{
				"x": -2.6422221192,
				"y": 2.1971073974,
				"z": 0.1905757879,
				"element": "C" 
			},
			{
				"x": -3.0145009662,
				"y": 1.1788305559,
				"z": -0.7007960702,
				"element": "C" 
			},
			{
				"x": -2.0679241749,
				"y": 0.2706206488,
				"z": -1.156010272,
				"element": "C" 
			},
			{
				"x": -0.7247060284,
				"y": 0.3409341063,
				"z": -0.7457612226,
				"element": "C" 
			},
			{
				"x": 0.2898320385,
				"y": -0.6802571068,
				"z": -1.2132143095,
				"element": "C" 
			},
			{
				"x": 0.2745033393,
				"y": -1.9809870048,
				"z": -0.3815035482,
				"element": "C" 
			},
			{
				"x": 0.5692809349,
				"y": -1.7630974363,
				"z": 1.028857808,
				"element": "N" 
			},
			{
				"x": 1.8157896445,
				"y": -1.8107940846,
				"z": 1.5705106918,
				"element": "C" 
			},
			{
				"x": 1.86854927,
				"y": -1.4116346428,
				"z": 2.8831460059,
				"element": "N" 
			},
			{
				"x": 3.206782017,
				"y": -2.2854835635,
				"z": 0.7517822107,
				"element": "S" 
			},
			{
				"x": -0.373029065,
				"y": 1.3628466277,
				"z": 0.1419234728,
				"element": "C" 
			},
			{
				"x": -1.3119527375,
				"y": 2.2877180706,
				"z": 0.6130777851,
				"element": "C" 
			},
			{
				"x": -4.2485309205,
				"y": 4.6512745564,
				"z": 1.6273186887,
				"element": "H" 
			},
			{
				"x": -2.5768801605,
				"y": 4.7838935087,
				"z": 1.0187724104,
				"element": "H" 
			},
			{
				"x": -2.9393053324,
				"y": 3.7355352473,
				"z": 2.4199663687,
				"element": "H" 
			},
			{
				"x": -4.0488901507,
				"y": 1.1277366894,
				"z": -1.0251916832,
				"element": "H" 
			},
			{
				"x": -2.37427006,
				"y": -0.5065860645,
				"z": -1.8527363109,
				"element": "H" 
			},
			{
				"x": 0.0971026607,
				"y": -0.9520812795,
				"z": -2.258333877,
				"element": "H" 
			},
			{
				"x": 1.3012430728,
				"y": -0.2632010463,
				"z": -1.1717603319,
				"element": "H" 
			},
			{
				"x": -0.7106459233,
				"y": -2.4570182595,
				"z": -0.4454299364,
				"element": "H" 
			},
			{
				"x": 1.0235920431,
				"y": -2.6773248776,
				"z": -0.762557738,
				"element": "H" 
			},
			{
				"x": -0.12706512,
				"y": -1.2314117794,
				"z": 1.5368894039,
				"element": "H" 
			},
			{
				"x": 1.0404628839,
				"y": -1.5020412575,
				"z": 3.4579881997,
				"element": "H" 
			},
			{
				"x": 2.7454163378,
				"y": -1.6013881473,
				"z": 3.3446973138,
				"element": "H" 
			},
			{
				"x": 0.6602153685,
				"y": 1.4526884371,
				"z": 0.4684250927,
				"element": "H" 
			},
			{
				"x": -0.992846663,
				"y": 3.0687352112,
				"z": 1.2932296761,
				"element": "H" 
			}
		],
		 "valence_orbital": [ 
			{
				"type": "occ",
				"energy": -0.26658,
				"method": "rhf"
			},
			{
				"type": "occ",
				"energy": -0.25526,
				"method": "rhf"
			},
			{
				"type": "occ",
				"energy": -0.21985,
				"method": "rhf"
			},
			{
				"type": "occ",
				"energy": -0.21235,
				"method": "rhf"
			},
			{
				"type": "occ",
				"energy": -0.19963,
				"method": "rhf"
			},
			{
				"type": "unocc",
				"energy": -0.00829,
				"method": "rhf"
			},
			{
				"type": "unocc",
				"energy": 0.00214,
				"method": "rhf"
			},
			{
				"type": "unocc",
				"energy": 0.00702,
				"method": "rhf"
			},
			{
				"type": "unocc",
				"energy": 0.06176,
				"method": "rhf"
			},
			{
				"type": "unocc",
				"energy": 0.08709,
				"method": "rhf"
			}
		],
		"cosmo_sigma_profile": { 
			"-0.025": 0.0,
			"-0.024": 0.0,
			"-0.023": 0.0,
			"-0.022": 0.0,
			"-0.021": 0.0,
			"-0.02": 0.0,
			"-0.019": 0.0,
			"-0.018": 0.0,
			"-0.017": 0.141322351128,
			"-0.016": 0.937780140641,
			"-0.015": 1.99992780203,
			"-0.014": 2.22813147214,
			"-0.013": 3.12103674347,
			"-0.012": 2.62130820318,
			"-0.011": 2.18651841015,
			"-0.01": 3.35448085605,
			"-0.009": 2.71320221635,
			"-0.008": 2.09848212615,
			"-0.007": 2.06922376722,
			"-0.006": 7.5638524679,
			"-0.005": 20.6027484238,
			"-0.004": 25.4624097995,
			"-0.003": 27.6224156974,
			"-0.002": 18.7013378996,
			"-0.001": 14.7031393156,
			"0.0": 13.0158904883,
			"0.001": 10.3410178912,
			"0.002": 10.9089219211,
			"0.003": 11.4508628209,
			"0.004": 16.7487522342,
			"0.005": 14.3417789602,
			"0.006": 11.2143369091,
			"0.007": 6.83998416407,
			"0.008": 4.98398212842,
			"0.009": 5.23432697794,
			"0.01": 8.17913150981,
			"0.011": 8.21965240198,
			"0.012": 4.22676368469,
			"0.013": 1.01045834979,
			"0.014": 0.0,
			"0.015": 0.0,
			"0.016": 0.0,
			"0.017": 0.0,
			"0.018": 0.0,
			"0.019": 0.0,
			"0.02": 0.0,
			"0.021": 0.0,
			"0.022": 0.0,
			"0.023": 0.0,
			"0.024": 0.0,
			"0.025": 0.0
		}
	}
}
