{
	 "smiles": "CC(=O)NCC1=CC=C(S1)C(=O)CCl", 
	 "Tm": 417.15, 
	 "num_atms": 24, 
	 "gaussian": { 
		 "optdone": 1, 
		 "sigma_profile": "yes", 
		 "theory": "DFT", 
		 "functional": "B3LYP", 
		 "basiset": "6-31G**", 
		 "properties": { 
			 "R2extent": 6127.4974, 
			 "electric_dipole_moment_norm": 3.2814643469, 
			 "electric_quadrupole_moment_norm": 18.6968460437, 
			 "total_energy": -1412.56004402, 
			 "HOMO_LUMO_gap": 0.17062, 
			 "cosmo_polarized_energy": -18.24, 
			 "cosmo_cavitation_energy": 32.77, 
			 "cosmo_dispersion_energy": -23.04, 
			 "cosmo_repulsion_energy": 1.8, 
			 "cosmo_total_nonelectrostatic_energy": 11.54, 
			 "SMD_solvation_energy": 5.93 
		},
		"coords": [
			{
				"x": 1.7034495885,
				"y": -2.3240621414,
				"z": 1.7285088321,
				"element": "C" 
			},
			{
				"x": 0.3145619803,
				"y": -2.141143291,
				"z": 2.3182030246,
				"element": "C" 
			},
			{
				"x": -0.4573485702,
				"y": -3.072744938,
				"z": 2.4888389499,
				"element": "O" 
			},
			{
				"x": -0.0459091885,
				"y": -0.8601635566,
				"z": 2.6869787341,
				"element": "N" 
			},
			{
				"x": 0.6576248212,
				"y": 0.3724698488,
				"z": 2.4031438115,
				"element": "C" 
			},
			{
				"x": 0.2832093463,
				"y": 1.001890665,
				"z": 1.0754594073,
				"element": "C" 
			},
			{
				"x": -0.5530847616,
				"y": 0.5034832977,
				"z": 0.103315498,
				"element": "C" 
			},
			{
				"x": -0.6687098941,
				"y": 1.3584553199,
				"z": -1.0212625201,
				"element": "C" 
			},
			{
				"x": 0.0791776704,
				"y": 2.5110614396,
				"z": -0.915129954,
				"element": "C" 
			},
			{
				"x": 0.9506370333,
				"y": 2.5381577592,
				"z": 0.6071116312,
				"element": "S" 
			},
			{
				"x": 0.1002231033,
				"y": 3.5849665607,
				"z": -1.9214272869,
				"element": "C" 
			},
			{
				"x": -0.5720143758,
				"y": 3.5075514164,
				"z": -2.9387430972,
				"element": "O" 
			},
			{
				"x": 0.9395086378,
				"y": 4.8412462807,
				"z": -1.6776316721,
				"element": "C" 
			},
			{
				"x": 2.7174470802,
				"y": 4.493814888,
				"z": -1.7874086747,
				"element": "Cl" 
			},
			{
				"x": 2.4803984719,
				"y": -2.0497553565,
				"z": 2.450484268,
				"element": "H" 
			},
			{
				"x": 1.8464618116,
				"y": -1.7124183011,
				"z": 0.8318861337,
				"element": "H" 
			},
			{
				"x": 1.8174897739,
				"y": -3.375933653,
				"z": 1.4692837492,
				"element": "H" 
			},
			{
				"x": -0.9983040776,
				"y": -0.7966951308,
				"z": 3.0235233255,
				"element": "H" 
			},
			{
				"x": 1.7358435988,
				"y": 0.1843223461,
				"z": 2.4321817948,
				"element": "H" 
			},
			{
				"x": 0.4575924536,
				"y": 1.0814254431,
				"z": 3.2158715898,
				"element": "H" 
			},
			{
				"x": -1.0676158067,
				"y": -0.4448684318,
				"z": 0.2019245895,
				"element": "H" 
			},
			{
				"x": -1.2814764038,
				"y": 1.1606585875,
				"z": -1.8924650772,
				"element": "H" 
			},
			{
				"x": 0.7604497514,
				"y": 5.2692991451,
				"z": -0.6886750578,
				"element": "H" 
			},
			{
				"x": 0.6998879559,
				"y": 5.5632818023,
				"z": -2.4559719991,
				"element": "H" 
			}
		],
		 "valence_orbital": [ 
			{
				"type": "occ",
				"energy": -0.27463,
				"method": "rhf"
			},
			{
				"type": "occ",
				"energy": -0.27132,
				"method": "rhf"
			},
			{
				"type": "occ",
				"energy": -0.26388,
				"method": "rhf"
			},
			{
				"type": "occ",
				"energy": -0.25606,
				"method": "rhf"
			},
			{
				"type": "occ",
				"energy": -0.25323,
				"method": "rhf"
			},
			{
				"type": "unocc",
				"energy": -0.08261,
				"method": "rhf"
			},
			{
				"type": "unocc",
				"energy": -0.01195,
				"method": "rhf"
			},
			{
				"type": "unocc",
				"energy": 0.00229,
				"method": "rhf"
			},
			{
				"type": "unocc",
				"energy": 0.01827,
				"method": "rhf"
			},
			{
				"type": "unocc",
				"energy": 0.03088,
				"method": "rhf"
			}
		],
		"cosmo_sigma_profile": { 
			"-0.025": 0.0,
			"-0.024": 0.0,
			"-0.023": 0.0,
			"-0.022": 0.0,
			"-0.021": 0.0,
			"-0.02": 0.0,
			"-0.019": 0.0,
			"-0.018": 0.0,
			"-0.017": 0.0,
			"-0.016": 0.0,
			"-0.015": 0.0,
			"-0.014": 0.35317297969,
			"-0.013": 1.48142758049,
			"-0.012": 0.788418921964,
			"-0.011": 1.38420524861,
			"-0.01": 0.759053902104,
			"-0.009": 3.60773043324,
			"-0.008": 8.83201645546,
			"-0.007": 15.951347533,
			"-0.006": 15.8290589144,
			"-0.005": 15.8723698834,
			"-0.004": 15.4300336589,
			"-0.003": 17.2293810342,
			"-0.002": 18.981544253,
			"-0.001": 17.3725290984,
			"0.0": 14.6318717448,
			"0.001": 17.247076668,
			"0.002": 20.3605940364,
			"0.003": 16.953061757,
			"0.004": 10.5415393236,
			"0.005": 13.9849790454,
			"0.006": 4.20330364399,
			"0.007": 3.45749149043,
			"0.008": 2.96645798466,
			"0.009": 2.63692450464,
			"0.01": 3.88620093272,
			"0.011": 5.90222956079,
			"0.012": 3.34362202334,
			"0.013": 4.33819841968,
			"0.014": 5.21217698764,
			"0.015": 1.22291766903,
			"0.016": 0.0,
			"0.017": 0.0,
			"0.018": 0.0,
			"0.019": 0.0,
			"0.02": 0.0,
			"0.021": 0.0,
			"0.022": 0.0,
			"0.023": 0.0,
			"0.024": 0.0,
			"0.025": 0.0
		}
	}
}
