{
	 "smiles": "CC1=C(OCCO)C=CC(=C1)[N+]([O-])=O", 
	 "Tm": 367.15, 
	 "num_atms": 25, 
	 "gaussian": { 
		 "optdone": 1, 
		 "sigma_profile": "yes", 
		 "theory": "DFT", 
		 "functional": "B3LYP", 
		 "basiset": "6-31G**", 
		 "properties": { 
			 "R2extent": 3703.9409, 
			 "electric_dipole_moment_norm": 7.55287934764, 
			 "electric_quadrupole_moment_norm": 15.3896145868, 
			 "total_energy": -705.119872024, 
			 "HOMO_LUMO_gap": 0.16493, 
			 "cosmo_polarized_energy": -15.43, 
			 "cosmo_cavitation_energy": 29.31, 
			 "cosmo_dispersion_energy": -21.22, 
			 "cosmo_repulsion_energy": 1.69, 
			 "cosmo_total_nonelectrostatic_energy": 9.78, 
			 "SMD_solvation_energy": 7.76 
		},
		"coords": [
			{
				"x": -0.3168543005,
				"y": -0.7379841512,
				"z": 2.5371481441,
				"element": "C" 
			},
			{
				"x": -0.1321864522,
				"y": -0.3134275809,
				"z": 1.1032397816,
				"element": "C" 
			},
			{
				"x": 1.1694133929,
				"y": -0.1223450578,
				"z": 0.580690846,
				"element": "C" 
			},
			{
				"x": 2.1816119964,
				"y": -0.3511788454,
				"z": 1.4638986866,
				"element": "O" 
			},
			{
				"x": 3.4749963004,
				"y": 0.2366636254,
				"z": 1.2909529132,
				"element": "C" 
			},
			{
				"x": 4.4940522936,
				"y": -0.6854600239,
				"z": 0.6198419152,
				"element": "C" 
			},
			{
				"x": 4.4052108034,
				"y": -0.7493975896,
				"z": -0.797210108,
				"element": "O" 
			},
			{
				"x": 1.3662561132,
				"y": 0.2578460044,
				"z": -0.752969057,
				"element": "C" 
			},
			{
				"x": 0.2700309392,
				"y": 0.4801937063,
				"z": -1.5801096314,
				"element": "C" 
			},
			{
				"x": -1.0101623921,
				"y": 0.3092979945,
				"z": -1.0621518548,
				"element": "C" 
			},
			{
				"x": -1.215387208,
				"y": -0.09212746,
				"z": 0.2603996595,
				"element": "C" 
			},
			{
				"x": -2.1677646307,
				"y": 0.5442641794,
				"z": -1.9238227464,
				"element": "N" 
			},
			{
				"x": -3.2893638647,
				"y": 0.3700426169,
				"z": -1.4420759048,
				"element": "O" 
			},
			{
				"x": -1.9577569819,
				"y": 0.9052604,
				"z": -3.0840397272,
				"element": "O" 
			},
			{
				"x": -1.3779079622,
				"y": -0.8084048978,
				"z": 2.787651264,
				"element": "H" 
			},
			{
				"x": 0.1478231532,
				"y": -1.7117654293,
				"z": 2.7258060688,
				"element": "H" 
			},
			{
				"x": 0.1567830906,
				"y": -0.0278782762,
				"z": 3.2232902676,
				"element": "H" 
			},
			{
				"x": 3.3948158917,
				"y": 1.1918114814,
				"z": 0.7559074528,
				"element": "H" 
			},
			{
				"x": 3.8185715399,
				"y": 0.446211369,
				"z": 2.3102719755,
				"element": "H" 
			},
			{
				"x": 5.4990764353,
				"y": -0.370237115,
				"z": 0.9391920994,
				"element": "H" 
			},
			{
				"x": 4.3357140108,
				"y": -1.7031944069,
				"z": 0.9898697994,
				"element": "H" 
			},
			{
				"x": 4.847329336,
				"y": 0.0272141891,
				"z": -1.1629041144,
				"element": "H" 
			},
			{
				"x": 2.3710785325,
				"y": 0.3107774856,
				"z": -1.1509868437,
				"element": "H" 
			},
			{
				"x": 0.3930223476,
				"y": 0.767513043,
				"z": -2.6166627792,
				"element": "H" 
			},
			{
				"x": -2.2303023844,
				"y": -0.2170952609,
				"z": 0.6182718932,
				"element": "H" 
			}
		],
		 "valence_orbital": [ 
			{
				"type": "occ",
				"energy": -0.29518,
				"method": "rhf"
			},
			{
				"type": "occ",
				"energy": -0.29243,
				"method": "rhf"
			},
			{
				"type": "occ",
				"energy": -0.27578,
				"method": "rhf"
			},
			{
				"type": "occ",
				"energy": -0.26281,
				"method": "rhf"
			},
			{
				"type": "occ",
				"energy": -0.23813,
				"method": "rhf"
			},
			{
				"type": "unocc",
				"energy": -0.0732,
				"method": "rhf"
			},
			{
				"type": "unocc",
				"energy": -0.01509,
				"method": "rhf"
			},
			{
				"type": "unocc",
				"energy": 0.01876,
				"method": "rhf"
			},
			{
				"type": "unocc",
				"energy": 0.04902,
				"method": "rhf"
			},
			{
				"type": "unocc",
				"energy": 0.08876,
				"method": "rhf"
			}
		],
		"cosmo_sigma_profile": { 
			"-0.025": 0.0,
			"-0.024": 0.0,
			"-0.023": 0.0,
			"-0.022": 0.0,
			"-0.021": 0.0,
			"-0.02": 0.0,
			"-0.019": 0.0,
			"-0.018": 0.0,
			"-0.017": 0.0262614901679,
			"-0.016": 0.862787801984,
			"-0.015": 1.32798750088,
			"-0.014": 1.02536109623,
			"-0.013": 1.20765717386,
			"-0.012": 1.054561588,
			"-0.011": 0.917627790783,
			"-0.01": 1.18815222658,
			"-0.009": 2.10362239352,
			"-0.008": 1.70601870243,
			"-0.007": 5.43517292355,
			"-0.006": 13.6573413549,
			"-0.005": 16.1245525217,
			"-0.004": 18.195998541,
			"-0.003": 16.2467755901,
			"-0.002": 14.2419172543,
			"-0.001": 17.7011475603,
			"0.0": 20.7387040146,
			"0.001": 16.1807351067,
			"0.002": 17.8126678139,
			"0.003": 10.3034418387,
			"0.004": 5.79151937521,
			"0.005": 4.92262660007,
			"0.006": 5.96506084028,
			"0.007": 6.6715836273,
			"0.008": 12.0120421223,
			"0.009": 6.84006932555,
			"0.01": 5.57834384937,
			"0.011": 2.78521249566,
			"0.012": 1.03409308507,
			"0.013": 1.50028963275,
			"0.014": 0.81780638938,
			"0.015": 0.0,
			"0.016": 0.0,
			"0.017": 0.0,
			"0.018": 0.0,
			"0.019": 0.0,
			"0.02": 0.0,
			"0.021": 0.0,
			"0.022": 0.0,
			"0.023": 0.0,
			"0.024": 0.0,
			"0.025": 0.0
		}
	}
}
