{
	 "smiles": "OC(=O)C=CC1=CC=C(SC2=CC=CC=N2)C(=C1)[N+]([O-])=O", 
	 "Tm": 451.15, 
	 "num_atms": 31, 
	 "gaussian": { 
		 "optdone": 1, 
		 "sigma_profile": "yes", 
		 "theory": "DFT", 
		 "functional": "B3LYP", 
		 "basiset": "6-31G**", 
		 "properties": { 
			 "R2extent": 10025.042, 
			 "electric_dipole_moment_norm": 2.73487275938, 
			 "electric_quadrupole_moment_norm": 21.9827791824, 
			 "total_energy": -1347.98702306, 
			 "HOMO_LUMO_gap": 0.13505, 
			 "cosmo_polarized_energy": -18.55, 
			 "cosmo_cavitation_energy": 39.45, 
			 "cosmo_dispersion_energy": -27.96, 
			 "cosmo_repulsion_energy": 2.08, 
			 "cosmo_total_nonelectrostatic_energy": 13.57, 
			 "SMD_solvation_energy": 9.44 
		},
		"coords": [
			{
				"x": -1.0917871592,
				"y": 3.2254009132,
				"z": -5.8985185757,
				"element": "O" 
			},
			{
				"x": -0.4959967557,
				"y": 3.4096864938,
				"z": -4.6935468536,
				"element": "C" 
			},
			{
				"x": 0.179081296,
				"y": 4.389553043,
				"z": -4.4405517644,
				"element": "O" 
			},
			{
				"x": -0.7797271917,
				"y": 2.2880764687,
				"z": -3.7754256615,
				"element": "C" 
			},
			{
				"x": -0.2691275715,
				"y": 2.2999334403,
				"z": -2.5312635536,
				"element": "C" 
			},
			{
				"x": -0.4392000305,
				"y": 1.2894005659,
				"z": -1.4884871043,
				"element": "C" 
			},
			{
				"x": 0.1871904954,
				"y": 1.4715068486,
				"z": -0.2446065066,
				"element": "C" 
			},
			{
				"x": 0.0726533091,
				"y": 0.5211913964,
				"z": 0.7639595297,
				"element": "C" 
			},
			{
				"x": -0.7045053679,
				"y": -0.6353324975,
				"z": 0.6027342847,
				"element": "C" 
			},
			{
				"x": -0.7928853465,
				"y": -1.6986803288,
				"z": 2.0266072681,
				"element": "S" 
			},
			{
				"x": -0.419234985,
				"y": -3.3393633338,
				"z": 1.4004225238,
				"element": "C" 
			},
			{
				"x": -0.4989166466,
				"y": -4.3979741295,
				"z": 2.3177157614,
				"element": "C" 
			},
			{
				"x": -0.1748510159,
				"y": -5.6715929805,
				"z": 1.8651945844,
				"element": "C" 
			},
			{
				"x": 0.2036167541,
				"y": -5.847461529,
				"z": 0.5311120571,
				"element": "C" 
			},
			{
				"x": 0.2374898745,
				"y": -4.7262930931,
				"z": -0.293103263,
				"element": "C" 
			},
			{
				"x": -0.0618624257,
				"y": -3.4895318886,
				"z": 0.1301866374,
				"element": "N" 
			},
			{
				"x": -1.3531063372,
				"y": -0.7967060437,
				"z": -0.6392812658,
				"element": "C" 
			},
			{
				"x": -1.2047491376,
				"y": 0.1260258359,
				"z": -1.665746551,
				"element": "C" 
			},
			{
				"x": -2.2687578748,
				"y": -1.9189829492,
				"z": -0.9288229009,
				"element": "N" 
			},
			{
				"x": -2.3495688865,
				"y": -2.2881444917,
				"z": -2.098825519,
				"element": "O" 
			},
			{
				"x": -2.9268993852,
				"y": -2.3780824958,
				"z": -0.0011443367,
				"element": "O" 
			},
			{
				"x": -0.8562880866,
				"y": 4.000202525,
				"z": -6.4353761754,
				"element": "H" 
			},
			{
				"x": -1.40204913,
				"y": 1.4864098371,
				"z": -4.1588114222,
				"element": "H" 
			},
			{
				"x": 0.3424218425,
				"y": 3.1613929642,
				"z": -2.2677733805,
				"element": "H" 
			},
			{
				"x": 0.7924699924,
				"y": 2.3576489091,
				"z": -0.0762131732,
				"element": "H" 
			},
			{
				"x": 0.6063903626,
				"y": 0.6598911665,
				"z": 1.6981022365,
				"element": "H" 
			},
			{
				"x": -0.8079984104,
				"y": -4.224463687,
				"z": 3.3434421891,
				"element": "H" 
			},
			{
				"x": -0.2236529238,
				"y": -6.5184412338,
				"z": 2.5435055989,
				"element": "H" 
			},
			{
				"x": 0.457996408,
				"y": -6.8264470985,
				"z": 0.139539201,
				"element": "H" 
			},
			{
				"x": 0.5137421493,
				"y": -4.8126396253,
				"z": -1.341663633,
				"element": "H" 
			},
			{
				"x": -1.7081878153,
				"y": -0.0799830019,
				"z": -2.6017602318,
				"element": "H" 
			}
		],
		 "valence_orbital": [ 
			{
				"type": "occ",
				"energy": -0.27976,
				"method": "rhf"
			},
			{
				"type": "occ",
				"energy": -0.27925,
				"method": "rhf"
			},
			{
				"type": "occ",
				"energy": -0.26975,
				"method": "rhf"
			},
			{
				"type": "occ",
				"energy": -0.26022,
				"method": "rhf"
			},
			{
				"type": "occ",
				"energy": -0.22613,
				"method": "rhf"
			},
			{
				"type": "unocc",
				"energy": -0.09108,
				"method": "rhf"
			},
			{
				"type": "unocc",
				"energy": -0.07819,
				"method": "rhf"
			},
			{
				"type": "unocc",
				"energy": -0.03385,
				"method": "rhf"
			},
			{
				"type": "unocc",
				"energy": -0.02192,
				"method": "rhf"
			},
			{
				"type": "unocc",
				"energy": -0.01628,
				"method": "rhf"
			}
		],
		"cosmo_sigma_profile": { 
			"-0.025": 0.0,
			"-0.024": 0.0,
			"-0.023": 0.0,
			"-0.022": 0.0,
			"-0.021": 0.0,
			"-0.02": 0.0,
			"-0.019": 0.0,
			"-0.018": 0.666281335011,
			"-0.017": 1.02610981389,
			"-0.016": 0.718154398293,
			"-0.015": 0.777245081998,
			"-0.014": 1.01216361936,
			"-0.013": 0.705987738299,
			"-0.012": 0.187939149374,
			"-0.011": 1.12966174143,
			"-0.01": 1.93326278021,
			"-0.009": 3.9897226441,
			"-0.008": 10.4560150754,
			"-0.007": 16.6058812168,
			"-0.006": 19.5689057689,
			"-0.005": 15.1402584268,
			"-0.004": 13.8532608685,
			"-0.003": 13.8212413808,
			"-0.002": 18.7883455065,
			"-0.001": 22.5715800613,
			"0.0": 28.5356957397,
			"0.001": 28.7881503267,
			"0.002": 25.9215209065,
			"0.003": 16.0330195433,
			"0.004": 11.2714816599,
			"0.005": 9.46974911861,
			"0.006": 9.19603494476,
			"0.007": 12.340637002,
			"0.008": 12.5726350062,
			"0.009": 8.82345419717,
			"0.01": 4.5553984355,
			"0.011": 3.40469477223,
			"0.012": 5.09398698831,
			"0.013": 0.354506793087,
			"0.014": 0.0,
			"0.015": 0.0,
			"0.016": 0.0,
			"0.017": 0.0,
			"0.018": 0.0,
			"0.019": 0.0,
			"0.02": 0.0,
			"0.021": 0.0,
			"0.022": 0.0,
			"0.023": 0.0,
			"0.024": 0.0,
			"0.025": 0.0
		}
	}
}
