{
	 "smiles": "ClCC(=O)N1N=C(CC1C1=CC=CO1)C1=CC2=C(O1)C=CC=C2", 
	 "Tm": 439.15, 
	 "num_atms": 36, 
	 "gaussian": { 
		 "optdone": 1, 
		 "sigma_profile": "yes", 
		 "theory": "DFT", 
		 "functional": "B3LYP", 
		 "basiset": "6-31G**", 
		 "properties": { 
			 "R2extent": 11125.7705, 
			 "electric_dipole_moment_norm": 5.93249645343, 
			 "electric_quadrupole_moment_norm": 27.0248841972, 
			 "total_energy": -1450.9558469, 
			 "HOMO_LUMO_gap": 0.14282, 
			 "cosmo_polarized_energy": -17.29, 
			 "cosmo_cavitation_energy": 43.76, 
			 "cosmo_dispersion_energy": -30.66, 
			 "cosmo_repulsion_energy": 2.36, 
			 "cosmo_total_nonelectrostatic_energy": 15.46, 
			 "SMD_solvation_energy": 7.63 
		},
		"coords": [
			{
				"x": -0.8650172541,
				"y": -3.1594058942,
				"z": 5.2115273773,
				"element": "Cl" 
			},
			{
				"x": -0.7628250958,
				"y": -2.0830251794,
				"z": 3.7845799204,
				"element": "C" 
			},
			{
				"x": 0.66704298,
				"y": -1.9846714574,
				"z": 3.2425362329,
				"element": "C" 
			},
			{
				"x": 1.6431087464,
				"y": -2.5269472355,
				"z": 3.7258167095,
				"element": "O" 
			},
			{
				"x": 0.7765186945,
				"y": -1.1994178246,
				"z": 2.1142602714,
				"element": "N" 
			},
			{
				"x": -0.2823139741,
				"y": -0.4821426844,
				"z": 1.6110214888,
				"element": "N" 
			},
			{
				"x": 0.1598002043,
				"y": 0.3076660814,
				"z": 0.6856432194,
				"element": "C" 
			},
			{
				"x": 1.6572606756,
				"y": 0.2242726268,
				"z": 0.468522362,
				"element": "C" 
			},
			{
				"x": 2.0694182161,
				"y": -0.9259236791,
				"z": 1.4329590367,
				"element": "C" 
			},
			{
				"x": 2.6193598413,
				"y": -2.1449693804,
				"z": 0.7589857292,
				"element": "C" 
			},
			{
				"x": 2.0884907529,
				"y": -3.0936566974,
				"z": -0.0664399786,
				"element": "C" 
			},
			{
				"x": 3.1606596299,
				"y": -3.9851221267,
				"z": -0.3979415346,
				"element": "C" 
			},
			{
				"x": 4.2616151266,
				"y": -3.5080403794,
				"z": 0.2446187626,
				"element": "C" 
			},
			{
				"x": 3.9489810357,
				"y": -2.3860048712,
				"z": 0.9529638868,
				"element": "O" 
			},
			{
				"x": -0.7152286362,
				"y": 1.1860082098,
				"z": -0.0501735203,
				"element": "C" 
			},
			{
				"x": -2.0639270391,
				"y": 1.412187624,
				"z": -0.0120541622,
				"element": "C" 
			},
			{
				"x": -2.3344810051,
				"y": 2.4198923454,
				"z": -0.9970244318,
				"element": "C" 
			},
			{
				"x": -1.0851924557,
				"y": 2.7325906399,
				"z": -1.5721190984,
				"element": "C" 
			},
			{
				"x": -0.0971828927,
				"y": 1.9819271318,
				"z": -0.9968850125,
				"element": "O" 
			},
			{
				"x": -0.9124775946,
				"y": 3.6742511807,
				"z": -2.5793108844,
				"element": "C" 
			},
			{
				"x": -2.0631232441,
				"y": 4.3260533705,
				"z": -3.0199865414,
				"element": "C" 
			},
			{
				"x": -3.3273691487,
				"y": 4.0379316788,
				"z": -2.4672823471,
				"element": "C" 
			},
			{
				"x": -3.4794133761,
				"y": 3.091945525,
				"z": -1.4599597435,
				"element": "C" 
			},
			{
				"x": -1.433014513,
				"y": -2.4683177424,
				"z": 3.0148883175,
				"element": "H" 
			},
			{
				"x": -1.1244728396,
				"y": -1.0955562841,
				"z": 4.0751093846,
				"element": "H" 
			},
			{
				"x": 1.9072661883,
				"y": -0.0030941479,
				"z": -0.5707166245,
				"element": "H" 
			},
			{
				"x": 2.1396707605,
				"y": 1.1743802264,
				"z": 0.7194503585,
				"element": "H" 
			},
			{
				"x": 2.8017657038,
				"y": -0.6002740205,
				"z": 2.1758850102,
				"element": "H" 
			},
			{
				"x": 1.0590833076,
				"y": -3.1606207577,
				"z": -0.3886707672,
				"element": "H" 
			},
			{
				"x": 3.1110371678,
				"y": -4.8635519067,
				"z": -1.0249975008,
				"element": "H" 
			},
			{
				"x": 5.2890208279,
				"y": -3.8309671417,
				"z": 0.3056171516,
				"element": "H" 
			},
			{
				"x": -2.7639675981,
				"y": 0.9138293832,
				"z": 0.6421343136,
				"element": "H" 
			},
			{
				"x": 0.066906224,
				"y": 3.8848609009,
				"z": -2.9945587851,
				"element": "H" 
			},
			{
				"x": -1.9831948036,
				"y": 5.0712286779,
				"z": -3.8054554277,
				"element": "H" 
			},
			{
				"x": -4.1988623006,
				"y": 4.5683676516,
				"z": -2.838903289,
				"element": "H" 
			},
			{
				"x": -4.4573423122,
				"y": 2.8769161563,
				"z": -1.0403398839,
				"element": "H" 
			}
		],
		 "valence_orbital": [ 
			{
				"type": "occ",
				"energy": -0.26856,
				"method": "rhf"
			},
			{
				"type": "occ",
				"energy": -0.26564,
				"method": "rhf"
			},
			{
				"type": "occ",
				"energy": -0.24869,
				"method": "rhf"
			},
			{
				"type": "occ",
				"energy": -0.22692,
				"method": "rhf"
			},
			{
				"type": "occ",
				"energy": -0.21296,
				"method": "rhf"
			},
			{
				"type": "unocc",
				"energy": -0.07014,
				"method": "rhf"
			},
			{
				"type": "unocc",
				"energy": -0.00566,
				"method": "rhf"
			},
			{
				"type": "unocc",
				"energy": 0.00547,
				"method": "rhf"
			},
			{
				"type": "unocc",
				"energy": 0.00638,
				"method": "rhf"
			},
			{
				"type": "unocc",
				"energy": 0.02328,
				"method": "rhf"
			}
		],
		"cosmo_sigma_profile": { 
			"-0.025": 0.0,
			"-0.024": 0.0,
			"-0.023": 0.0,
			"-0.022": 0.0,
			"-0.021": 0.0,
			"-0.02": 0.0,
			"-0.019": 0.0,
			"-0.018": 0.0,
			"-0.017": 0.0,
			"-0.016": 0.0,
			"-0.015": 0.0,
			"-0.014": 0.0,
			"-0.013": 0.0,
			"-0.012": 0.0,
			"-0.011": 0.0,
			"-0.01": 0.0,
			"-0.009": 2.53184256968,
			"-0.008": 8.34951928292,
			"-0.007": 17.4937627895,
			"-0.006": 24.1888307443,
			"-0.005": 24.6663875072,
			"-0.004": 27.981036008,
			"-0.003": 20.7812325213,
			"-0.002": 20.5594139918,
			"-0.001": 18.5580165339,
			"0.0": 21.7208698918,
			"0.001": 24.3400005411,
			"0.002": 26.9386474654,
			"0.003": 26.3741297795,
			"0.004": 24.4933091896,
			"0.005": 22.9457322512,
			"0.006": 16.2440323118,
			"0.007": 6.30940167491,
			"0.008": 3.66185486375,
			"0.009": 1.98654908144,
			"0.01": 2.19216662042,
			"0.011": 3.23763076556,
			"0.012": 4.63854978787,
			"0.013": 2.54533179965,
			"0.014": 0.850276430425,
			"0.015": 0.0,
			"0.016": 0.0,
			"0.017": 0.0,
			"0.018": 0.0,
			"0.019": 0.0,
			"0.02": 0.0,
			"0.021": 0.0,
			"0.022": 0.0,
			"0.023": 0.0,
			"0.024": 0.0,
			"0.025": 0.0
		}
	}
}
