{
	 "smiles": "CC1=CC2=C(SC(=C2)C(O)=O)C=C1", 
	 "Tm": 495.15, 
	 "num_atms": 21, 
	 "gaussian": { 
		 "optdone": 1, 
		 "sigma_profile": "yes", 
		 "theory": "DFT", 
		 "functional": "B3LYP", 
		 "basiset": "6-31G**", 
		 "properties": { 
			 "R2extent": 3983.7623, 
			 "electric_dipole_moment_norm": 5.92950419597, 
			 "electric_quadrupole_moment_norm": 21.9961803023, 
			 "total_energy": -934.536029233, 
			 "HOMO_LUMO_gap": 0.16482, 
			 "cosmo_polarized_energy": -15.54, 
			 "cosmo_cavitation_energy": 27.04, 
			 "cosmo_dispersion_energy": -20.53, 
			 "cosmo_repulsion_energy": 1.56, 
			 "cosmo_total_nonelectrostatic_energy": 8.06, 
			 "SMD_solvation_energy": 5.31 
		},
		"coords": [
			{
				"x": 0.3187097072,
				"y": 0.5569863372,
				"z": 3.78398705,
				"element": "C" 
			},
			{
				"x": -0.4325825579,
				"y": 0.6987442848,
				"z": 2.4811653412,
				"element": "C" 
			},
			{
				"x": -0.1954534449,
				"y": -0.158110157,
				"z": 1.4145111288,
				"element": "C" 
			},
			{
				"x": -0.9087312969,
				"y": -0.009640421,
				"z": 0.2073849887,
				"element": "C" 
			},
			{
				"x": -1.8687399848,
				"y": 1.0265013327,
				"z": 0.0900158897,
				"element": "C" 
			},
			{
				"x": -2.6246444604,
				"y": 1.038026622,
				"z": -1.4890471996,
				"element": "S" 
			},
			{
				"x": -1.6710309539,
				"y": -0.352537263,
				"z": -1.9789365757,
				"element": "C" 
			},
			{
				"x": -0.8175718531,
				"y": -0.7802181862,
				"z": -0.9976655557,
				"element": "C" 
			},
			{
				"x": -1.8623280533,
				"y": -0.8582731853,
				"z": -3.3577339947,
				"element": "C" 
			},
			{
				"x": -1.2819143914,
				"y": -2.0516000363,
				"z": -3.6528663006,
				"element": "O" 
			},
			{
				"x": -2.494421105,
				"y": -0.2603985263,
				"z": -4.1977840126,
				"element": "O" 
			},
			{
				"x": -2.1171185665,
				"y": 1.8965592301,
				"z": 1.159439557,
				"element": "C" 
			},
			{
				"x": -1.4004975973,
				"y": 1.7224731686,
				"z": 2.3339320683,
				"element": "C" 
			},
			{
				"x": 1.0307638427,
				"y": -0.2716912465,
				"z": 3.7466397804,
				"element": "H" 
			},
			{
				"x": 0.8784495923,
				"y": 1.4688669249,
				"z": 4.0218739169,
				"element": "H" 
			},
			{
				"x": -0.3655529488,
				"y": 0.3730758702,
				"z": 4.6203230365,
				"element": "H" 
			},
			{
				"x": 0.543242021,
				"y": -0.9504202114,
				"z": 1.5067797265,
				"element": "H" 
			},
			{
				"x": -0.1137430735,
				"y": -1.5996128998,
				"z": -1.1123155722,
				"element": "H" 
			},
			{
				"x": -0.9329957433,
				"y": -2.466835183,
				"z": -2.8522278961,
				"element": "H" 
			},
			{
				"x": -2.8520973942,
				"y": 2.6908053634,
				"z": 1.0732772911,
				"element": "H" 
			},
			{
				"x": -1.5856417381,
				"y": 2.3930981821,
				"z": 3.1692473322,
				"element": "H" 
			}
		],
		 "valence_orbital": [ 
			{
				"type": "occ",
				"energy": -0.31632,
				"method": "rhf"
			},
			{
				"type": "occ",
				"energy": -0.29747,
				"method": "rhf"
			},
			{
				"type": "occ",
				"energy": -0.27942,
				"method": "rhf"
			},
			{
				"type": "occ",
				"energy": -0.24457,
				"method": "rhf"
			},
			{
				"type": "occ",
				"energy": -0.23278,
				"method": "rhf"
			},
			{
				"type": "unocc",
				"energy": -0.06796,
				"method": "rhf"
			},
			{
				"type": "unocc",
				"energy": -0.01238,
				"method": "rhf"
			},
			{
				"type": "unocc",
				"energy": 0.00721,
				"method": "rhf"
			},
			{
				"type": "unocc",
				"energy": 0.01515,
				"method": "rhf"
			},
			{
				"type": "unocc",
				"energy": 0.0516,
				"method": "rhf"
			}
		],
		"cosmo_sigma_profile": { 
			"-0.025": 0.0,
			"-0.024": 0.0,
			"-0.023": 0.0,
			"-0.022": 0.0,
			"-0.021": 0.0,
			"-0.02": 0.0,
			"-0.019": 0.570293232319,
			"-0.018": 1.16740753688,
			"-0.017": 1.30765271548,
			"-0.016": 0.565913104129,
			"-0.015": 1.25373739912,
			"-0.014": 1.11821853113,
			"-0.013": 0.981788045325,
			"-0.012": 1.54885119208,
			"-0.011": 0.866849533685,
			"-0.01": 1.02331666926,
			"-0.009": 2.27797730091,
			"-0.008": 2.49391495455,
			"-0.007": 5.13362354476,
			"-0.006": 9.52182515048,
			"-0.005": 9.20292070242,
			"-0.004": 14.5930825997,
			"-0.003": 14.764883387,
			"-0.002": 14.8543895978,
			"-0.001": 13.5303422166,
			"0.0": 17.5574349556,
			"0.001": 17.30584257,
			"0.002": 19.1846996209,
			"0.003": 17.3335426761,
			"0.004": 17.7636810302,
			"0.005": 4.91634593561,
			"0.006": 1.98931908462,
			"0.007": 3.5981791713,
			"0.008": 3.07822906484,
			"0.009": 3.26222466859,
			"0.01": 5.52176847857,
			"0.011": 5.37184074745,
			"0.012": 3.9890651664,
			"0.013": 0.987993013052,
			"0.014": 0.0,
			"0.015": 0.0,
			"0.016": 0.0,
			"0.017": 0.0,
			"0.018": 0.0,
			"0.019": 0.0,
			"0.02": 0.0,
			"0.021": 0.0,
			"0.022": 0.0,
			"0.023": 0.0,
			"0.024": 0.0,
			"0.025": 0.0
		}
	}
}
