{
	 "smiles": "O=C(NCC(C1=CC=CC=C1)C1=CC=CC=C1)C1=CC=CC=C1", 
	 "Tm": 396.15, 
	 "num_atms": 42, 
	 "gaussian": { 
		 "optdone": 1, 
		 "sigma_profile": "yes", 
		 "theory": "DFT", 
		 "functional": "B3LYP", 
		 "basiset": "6-31G**", 
		 "properties": { 
			 "R2extent": 9252.3565, 
			 "electric_dipole_moment_norm": 3.61137263378, 
			 "electric_quadrupole_moment_norm": 18.8581110844, 
			 "total_energy": -941.679392004, 
			 "HOMO_LUMO_gap": 0.20544, 
			 "cosmo_polarized_energy": -14.92, 
			 "cosmo_cavitation_energy": 45.59, 
			 "cosmo_dispersion_energy": -30.57, 
			 "cosmo_repulsion_energy": 2.37, 
			 "cosmo_total_nonelectrostatic_energy": 17.39, 
			 "SMD_solvation_energy": 7.27 
		},
		"coords": [
			{
				"x": -2.1203676812,
				"y": 1.8972216116,
				"z": -2.7026340384,
				"element": "O" 
			},
			{
				"x": -1.2729768581,
				"y": 1.2338190549,
				"z": -2.1119725573,
				"element": "C" 
			},
			{
				"x": -0.7845454917,
				"y": 1.6429153663,
				"z": -0.8889832485,
				"element": "N" 
			},
			{
				"x": -0.2545558986,
				"y": 0.8142857035,
				"z": 0.1878769887,
				"element": "C" 
			},
			{
				"x": -1.2445974456,
				"y": 0.6470503351,
				"z": 1.3712592497,
				"element": "C" 
			},
			{
				"x": -1.688981088,
				"y": 1.9670538993,
				"z": 1.9961486318,
				"element": "C" 
			},
			{
				"x": -2.9829692518,
				"y": 2.0662672465,
				"z": 2.529270165,
				"element": "C" 
			},
			{
				"x": -3.4266072617,
				"y": 3.2408985025,
				"z": 3.1339979993,
				"element": "C" 
			},
			{
				"x": -2.5817404315,
				"y": 4.3504016346,
				"z": 3.2148612521,
				"element": "C" 
			},
			{
				"x": -1.2945335907,
				"y": 4.2709297474,
				"z": 2.6855018094,
				"element": "C" 
			},
			{
				"x": -0.8526972864,
				"y": 3.0901279938,
				"z": 2.0816564411,
				"element": "C" 
			},
			{
				"x": -0.6559294944,
				"y": -0.3360275966,
				"z": 2.3843192425,
				"element": "C" 
			},
			{
				"x": 0.223642979,
				"y": 0.0731233443,
				"z": 3.3955869916,
				"element": "C" 
			},
			{
				"x": 0.7895345256,
				"y": -0.8575633212,
				"z": 4.2684788887,
				"element": "C" 
			},
			{
				"x": 0.483962643,
				"y": -2.214097518,
				"z": 4.147185555,
				"element": "C" 
			},
			{
				"x": -0.3929206733,
				"y": -2.6339002446,
				"z": 3.1455450651,
				"element": "C" 
			},
			{
				"x": -0.9552720542,
				"y": -1.7013281551,
				"z": 2.2733548095,
				"element": "C" 
			},
			{
				"x": -0.7040511194,
				"y": -0.010310257,
				"z": -2.7370113552,
				"element": "C" 
			},
			{
				"x": 0.6541295068,
				"y": -0.3509122686,
				"z": -2.6639097133,
				"element": "C" 
			},
			{
				"x": 1.135210656,
				"y": -1.4757316034,
				"z": -3.335931137,
				"element": "C" 
			},
			{
				"x": 0.2631279931,
				"y": -2.2731371769,
				"z": -4.0789507164,
				"element": "C" 
			},
			{
				"x": -1.0893017205,
				"y": -1.9312965833,
				"z": -4.1665615002,
				"element": "C" 
			},
			{
				"x": -1.5667123482,
				"y": -0.7985305726,
				"z": -3.5113936077,
				"element": "C" 
			},
			{
				"x": -1.2307043655,
				"y": 2.5045406188,
				"z": -0.5928051915,
				"element": "H" 
			},
			{
				"x": -0.0292112651,
				"y": -0.1757569721,
				"z": -0.2077925891,
				"element": "H" 
			},
			{
				"x": 0.6943037962,
				"y": 1.227266144,
				"z": 0.5537525059,
				"element": "H" 
			},
			{
				"x": -2.142050206,
				"y": 0.1767262774,
				"z": 0.9507047997,
				"element": "H" 
			},
			{
				"x": -3.6478530652,
				"y": 1.2081868877,
				"z": 2.4686204888,
				"element": "H" 
			},
			{
				"x": -4.4341173003,
				"y": 3.292518108,
				"z": 3.536904677,
				"element": "H" 
			},
			{
				"x": -2.9266082682,
				"y": 5.2688166301,
				"z": 3.6807319166,
				"element": "H" 
			},
			{
				"x": -0.6296289259,
				"y": 5.1285117199,
				"z": 2.7368090674,
				"element": "H" 
			},
			{
				"x": 0.1533463662,
				"y": 3.0551577228,
				"z": 1.6731397766,
				"element": "H" 
			},
			{
				"x": 0.4543251129,
				"y": 1.1274843671,
				"z": 3.5138223768,
				"element": "H" 
			},
			{
				"x": 1.4661522934,
				"y": -0.5198586583,
				"z": 5.0486197341,
				"element": "H" 
			},
			{
				"x": 0.9210293929,
				"y": -2.9368229193,
				"z": 4.830147293,
				"element": "H" 
			},
			{
				"x": -0.6435192953,
				"y": -3.6862248915,
				"z": 3.0448439837,
				"element": "H" 
			},
			{
				"x": -1.6386462556,
				"y": -2.0361916382,
				"z": 1.496108339,
				"element": "H" 
			},
			{
				"x": 1.3404553765,
				"y": 0.2787822879,
				"z": -2.1060239357,
				"element": "H" 
			},
			{
				"x": 2.1911434887,
				"y": -1.7249668312,
				"z": -3.2835105716,
				"element": "H" 
			},
			{
				"x": 0.6373111005,
				"y": -3.1519828278,
				"z": -4.5963736677,
				"element": "H" 
			},
			{
				"x": -1.7680924798,
				"y": -2.5428614626,
				"z": -4.7540354721,
				"element": "H" 
			},
			{
				"x": -2.6065841088,
				"y": -0.5001837051,
				"z": -3.594658746,
				"element": "H" 
			}
		],
		 "valence_orbital": [ 
			{
				"type": "occ",
				"energy": -0.25474,
				"method": "rhf"
			},
			{
				"type": "occ",
				"energy": -0.25329,
				"method": "rhf"
			},
			{
				"type": "occ",
				"energy": -0.24672,
				"method": "rhf"
			},
			{
				"type": "occ",
				"energy": -0.23893,
				"method": "rhf"
			},
			{
				"type": "occ",
				"energy": -0.23406,
				"method": "rhf"
			},
			{
				"type": "unocc",
				"energy": -0.02862,
				"method": "rhf"
			},
			{
				"type": "unocc",
				"energy": -0.01522,
				"method": "rhf"
			},
			{
				"type": "unocc",
				"energy": -0.00925,
				"method": "rhf"
			},
			{
				"type": "unocc",
				"energy": -0.00537,
				"method": "rhf"
			},
			{
				"type": "unocc",
				"energy": -0.00434,
				"method": "rhf"
			}
		],
		"cosmo_sigma_profile": { 
			"-0.025": 0.0,
			"-0.024": 0.0,
			"-0.023": 0.0,
			"-0.022": 0.0,
			"-0.021": 0.0,
			"-0.02": 0.0,
			"-0.019": 0.0,
			"-0.018": 0.0,
			"-0.017": 0.0,
			"-0.016": 0.0,
			"-0.015": 0.0,
			"-0.014": 0.0,
			"-0.013": 0.0,
			"-0.012": 0.0,
			"-0.011": 0.0,
			"-0.01": 0.228010695718,
			"-0.009": 0.446728320738,
			"-0.008": 0.631610210436,
			"-0.007": 2.2275092437,
			"-0.006": 18.523549103,
			"-0.005": 38.6194367337,
			"-0.004": 40.8024347878,
			"-0.003": 36.9942631575,
			"-0.002": 27.1924424294,
			"-0.001": 25.2169752199,
			"0.0": 19.2760977904,
			"0.001": 21.0346504061,
			"0.002": 23.6168424996,
			"0.003": 23.0784940427,
			"0.004": 27.6310839456,
			"0.005": 24.3332236316,
			"0.006": 14.4523734681,
			"0.007": 2.63156905365,
			"0.008": 0.767326113202,
			"0.009": 1.36955738799,
			"0.01": 2.05146240133,
			"0.011": 1.15577608887,
			"0.012": 2.12314309802,
			"0.013": 3.93013450368,
			"0.014": 4.88484682251,
			"0.015": 0.691483930669,
			"0.016": 0.0,
			"0.017": 0.0,
			"0.018": 0.0,
			"0.019": 0.0,
			"0.02": 0.0,
			"0.021": 0.0,
			"0.022": 0.0,
			"0.023": 0.0,
			"0.024": 0.0,
			"0.025": 0.0
		}
	}
}
