{
	 "smiles": "OC1=CC=C(C=C1)C(=O)C=CC1=CC2=C(OCO2)C=C1", 
	 "Tm": 483.15, 
	 "num_atms": 32, 
	 "gaussian": { 
		 "optdone": 1, 
		 "sigma_profile": "yes", 
		 "theory": "DFT", 
		 "functional": "B3LYP", 
		 "basiset": "6-31G**", 
		 "properties": { 
			 "R2extent": 9316.7933, 
			 "electric_dipole_moment_norm": 3.21525182373, 
			 "electric_quadrupole_moment_norm": 29.9745740887, 
			 "total_energy": -917.786828575, 
			 "HOMO_LUMO_gap": 0.14497, 
			 "cosmo_polarized_energy": -18.21, 
			 "cosmo_cavitation_energy": 37.47, 
			 "cosmo_dispersion_energy": -27.47, 
			 "cosmo_repulsion_energy": 2.08, 
			 "cosmo_total_nonelectrostatic_energy": 12.08, 
			 "SMD_solvation_energy": 7.84 
		},
		"coords": [
			{
				"x": -0.5503548858,
				"y": -5.6210857611,
				"z": 1.6888414701,
				"element": "O" 
			},
			{
				"x": -0.8332443169,
				"y": -4.2922489084,
				"z": 1.5901906707,
				"element": "C" 
			},
			{
				"x": -0.6547218632,
				"y": -3.68520215,
				"z": 0.3416216243,
				"element": "C" 
			},
			{
				"x": -0.9174247664,
				"y": -2.3277307562,
				"z": 0.1908554485,
				"element": "C" 
			},
			{
				"x": -1.36775984,
				"y": -1.5509955456,
				"z": 1.2724385457,
				"element": "C" 
			},
			{
				"x": -1.5701096228,
				"y": -2.1843939222,
				"z": 2.5090659882,
				"element": "C" 
			},
			{
				"x": -1.2950431602,
				"y": -3.5352878927,
				"z": 2.6765534496,
				"element": "C" 
			},
			{
				"x": -1.72965561,
				"y": -0.1025395084,
				"z": 1.165174996,
				"element": "C" 
			},
			{
				"x": -2.5678126605,
				"y": 0.380527168,
				"z": 1.9262948545,
				"element": "O" 
			},
			{
				"x": -1.084471335,
				"y": 0.7834416553,
				"z": 0.167060684,
				"element": "C" 
			},
			{
				"x": 0.1579346936,
				"y": 0.6307017511,
				"z": -0.3381525077,
				"element": "C" 
			},
			{
				"x": 0.8722288739,
				"y": 1.5460726892,
				"z": -1.2281159981,
				"element": "C" 
			},
			{
				"x": 0.2760684832,
				"y": 2.7310008532,
				"z": -1.7373090155,
				"element": "C" 
			},
			{
				"x": 1.039389148,
				"y": 3.5186661457,
				"z": -2.5653314742,
				"element": "C" 
			},
			{
				"x": 2.3525945886,
				"y": 3.1889208386,
				"z": -2.9108581494,
				"element": "C" 
			},
			{
				"x": 2.8634594877,
				"y": 4.1394569099,
				"z": -3.7526474612,
				"element": "O" 
			},
			{
				"x": 1.8511059492,
				"y": 5.1492571468,
				"z": -3.8742011781,
				"element": "C" 
			},
			{
				"x": 0.6833215325,
				"y": 4.6913044453,
				"z": -3.1852401954,
				"element": "O" 
			},
			{
				"x": 2.9605423155,
				"y": 2.0437488458,
				"z": -2.43638881,
				"element": "C" 
			},
			{
				"x": 2.1936984197,
				"y": 1.2293708836,
				"z": -1.5882877905,
				"element": "C" 
			},
			{
				"x": -0.73024373,
				"y": -5.9191662607,
				"z": 2.5902407783,
				"element": "H" 
			},
			{
				"x": -0.3211761804,
				"y": -4.2922450668,
				"z": -0.493383623,
				"element": "H" 
			},
			{
				"x": -0.80204308,
				"y": -1.8742007618,
				"z": -0.7875805859,
				"element": "H" 
			},
			{
				"x": -1.9497679016,
				"y": -1.5907227892,
				"z": 3.3339378416,
				"element": "H" 
			},
			{
				"x": -1.4425690006,
				"y": -4.0093018121,
				"z": 3.6450321685,
				"element": "H" 
			},
			{
				"x": -1.663496531,
				"y": 1.68252313,
				"z": -0.028693841,
				"element": "H" 
			},
			{
				"x": 0.7247177127,
				"y": -0.2511675688,
				"z": -0.0477545892,
				"element": "H" 
			},
			{
				"x": -0.7408502822,
				"y": 3.0113686549,
				"z": -1.4910164033,
				"element": "H" 
			},
			{
				"x": 2.2090583371,
				"y": 6.0803459496,
				"z": -3.4154616826,
				"element": "H" 
			},
			{
				"x": 1.6161903287,
				"y": 5.3020232303,
				"z": -4.9330323341,
				"element": "H" 
			},
			{
				"x": 3.9785514349,
				"y": 1.7894571995,
				"z": -2.7079004634,
				"element": "H" 
			},
			{
				"x": 2.6389834615,
				"y": 0.3214012073,
				"z": -1.1924524176,
				"element": "H" 
			}
		],
		 "valence_orbital": [ 
			{
				"type": "occ",
				"energy": -0.25891,
				"method": "rhf"
			},
			{
				"type": "occ",
				"energy": -0.24808,
				"method": "rhf"
			},
			{
				"type": "occ",
				"energy": -0.23954,
				"method": "rhf"
			},
			{
				"type": "occ",
				"energy": -0.22577,
				"method": "rhf"
			},
			{
				"type": "occ",
				"energy": -0.20919,
				"method": "rhf"
			},
			{
				"type": "unocc",
				"energy": -0.06422,
				"method": "rhf"
			},
			{
				"type": "unocc",
				"energy": -0.01732,
				"method": "rhf"
			},
			{
				"type": "unocc",
				"energy": -0.00777,
				"method": "rhf"
			},
			{
				"type": "unocc",
				"energy": -0.00412,
				"method": "rhf"
			},
			{
				"type": "unocc",
				"energy": 0.03907,
				"method": "rhf"
			}
		],
		"cosmo_sigma_profile": { 
			"-0.025": 0.0,
			"-0.024": 0.0,
			"-0.023": 0.0,
			"-0.022": 0.0,
			"-0.021": 0.0,
			"-0.02": 0.0,
			"-0.019": 0.14213808253,
			"-0.018": 0.845563704999,
			"-0.017": 1.43232184661,
			"-0.016": 0.904510798534,
			"-0.015": 0.906141812867,
			"-0.014": 0.955958637274,
			"-0.013": 0.830892138794,
			"-0.012": 0.674305551185,
			"-0.011": 1.4522943661,
			"-0.01": 1.0952652946,
			"-0.009": 1.35502163861,
			"-0.008": 9.07111380905,
			"-0.007": 15.6230888117,
			"-0.006": 18.0452190887,
			"-0.005": 17.6937167722,
			"-0.004": 16.4052654989,
			"-0.003": 15.4236114838,
			"-0.002": 14.2632001755,
			"-0.001": 16.2799426601,
			"0.0": 18.6696974365,
			"0.001": 21.2749504961,
			"0.002": 26.24102241,
			"0.003": 29.5888312359,
			"0.004": 24.0268994456,
			"0.005": 7.80341894148,
			"0.006": 5.35575493231,
			"0.007": 5.18957393269,
			"0.008": 6.38449890652,
			"0.009": 6.12643501628,
			"0.01": 3.57235241729,
			"0.011": 3.73433611062,
			"0.012": 3.01402487064,
			"0.013": 4.63624862972,
			"0.014": 1.74440078881,
			"0.015": 0.107254235471,
			"0.016": 0.0,
			"0.017": 0.0,
			"0.018": 0.0,
			"0.019": 0.0,
			"0.02": 0.0,
			"0.021": 0.0,
			"0.022": 0.0,
			"0.023": 0.0,
			"0.024": 0.0,
			"0.025": 0.0
		}
	}
}
