{
	 "smiles": "CC1=CC(Cl)=CC(Cl)=C1CN", 
	 "Tm": 327.15, 
	 "num_atms": 20, 
	 "gaussian": { 
		 "optdone": 1, 
		 "sigma_profile": "yes", 
		 "theory": "DFT", 
		 "functional": "B3LYP", 
		 "basiset": "6-31G**", 
		 "properties": { 
			 "R2extent": 2882.2856, 
			 "electric_dipole_moment_norm": 2.44278806694, 
			 "electric_quadrupole_moment_norm": 3.6608893496, 
			 "total_energy": -1285.41496002, 
			 "HOMO_LUMO_gap": 0.22089, 
			 "cosmo_polarized_energy": -6.8, 
			 "cosmo_cavitation_energy": 26.49, 
			 "cosmo_dispersion_energy": -19.64, 
			 "cosmo_repulsion_energy": 1.59, 
			 "cosmo_total_nonelectrostatic_energy": 8.44, 
			 "SMD_solvation_energy": 3.18 
		},
		"coords": [
			{
				"x": 0.3813167396,
				"y": -1.6771759741,
				"z": 1.6679148916,
				"element": "C" 
			},
			{
				"x": -0.1720169398,
				"y": -1.0563520343,
				"z": 0.4063186415,
				"element": "C" 
			},
			{
				"x": -0.6983355913,
				"y": -1.8822213673,
				"z": -0.5902493073,
				"element": "C" 
			},
			{
				"x": -1.2075266725,
				"y": -1.3296249969,
				"z": -1.7631551536,
				"element": "C" 
			},
			{
				"x": -1.8675993774,
				"y": -2.3846048445,
				"z": -3.0030045275,
				"element": "Cl" 
			},
			{
				"x": -1.1979989564,
				"y": 0.0429116532,
				"z": -1.9754044439,
				"element": "C" 
			},
			{
				"x": -0.6668625033,
				"y": 0.854719959,
				"z": -0.9719070817,
				"element": "C" 
			},
			{
				"x": -0.6495276484,
				"y": 2.5921119067,
				"z": -1.3019612542,
				"element": "Cl" 
			},
			{
				"x": -0.159081874,
				"y": 0.3480901524,
				"z": 0.2315647852,
				"element": "C" 
			},
			{
				"x": 0.4237293978,
				"y": 1.2445716824,
				"z": 1.3052921089,
				"element": "C" 
			},
			{
				"x": 1.8961472413,
				"y": 1.1827190927,
				"z": 1.2829757037,
				"element": "N" 
			},
			{
				"x": -0.2521877459,
				"y": -1.4495034027,
				"z": 2.534446299,
				"element": "H" 
			},
			{
				"x": 1.3804850867,
				"y": -1.2862787075,
				"z": 1.8783178295,
				"element": "H" 
			},
			{
				"x": 0.4348547209,
				"y": -2.7646655102,
				"z": 1.5760256674,
				"element": "H" 
			},
			{
				"x": -0.7094720368,
				"y": -2.9581574459,
				"z": -0.4542801082,
				"element": "H" 
			},
			{
				"x": -1.5843094947,
				"y": 0.4731837016,
				"z": -2.8904544531,
				"element": "H" 
			},
			{
				"x": 0.0963122154,
				"y": 0.882214945,
				"z": 2.2860196869,
				"element": "H" 
			},
			{
				"x": 0.0173943556,
				"y": 2.2576069629,
				"z": 1.1932090351,
				"element": "H" 
			},
			{
				"x": 2.2352755662,
				"y": 1.5732556425,
				"z": 0.4065228549,
				"element": "H" 
			},
			{
				"x": 2.2701035172,
				"y": 1.7719985848,
				"z": 2.0237088258,
				"element": "H" 
			}
		],
		 "valence_orbital": [ 
			{
				"type": "occ",
				"energy": -0.31344,
				"method": "rhf"
			},
			{
				"type": "occ",
				"energy": -0.3133,
				"method": "rhf"
			},
			{
				"type": "occ",
				"energy": -0.25259,
				"method": "rhf"
			},
			{
				"type": "occ",
				"energy": -0.24668,
				"method": "rhf"
			},
			{
				"type": "occ",
				"energy": -0.24397,
				"method": "rhf"
			},
			{
				"type": "unocc",
				"energy": -0.02308,
				"method": "rhf"
			},
			{
				"type": "unocc",
				"energy": -0.01694,
				"method": "rhf"
			},
			{
				"type": "unocc",
				"energy": 0.00873,
				"method": "rhf"
			},
			{
				"type": "unocc",
				"energy": 0.05007,
				"method": "rhf"
			},
			{
				"type": "unocc",
				"energy": 0.08157,
				"method": "rhf"
			}
		],
		"cosmo_sigma_profile": { 
			"-0.025": 0.0,
			"-0.024": 0.0,
			"-0.023": 0.0,
			"-0.022": 0.0,
			"-0.021": 0.0,
			"-0.02": 0.0,
			"-0.019": 0.0,
			"-0.018": 0.0,
			"-0.017": 0.0,
			"-0.016": 0.0,
			"-0.015": 0.0,
			"-0.014": 0.0,
			"-0.013": 0.0,
			"-0.012": 0.0,
			"-0.011": 0.104382514804,
			"-0.01": 1.40787738512,
			"-0.009": 2.79904770157,
			"-0.008": 3.29065207421,
			"-0.007": 5.50066470146,
			"-0.006": 6.77184347121,
			"-0.005": 10.8952748963,
			"-0.004": 11.6830763045,
			"-0.003": 12.6970283723,
			"-0.002": 17.7610085197,
			"-0.001": 18.2796117766,
			"0.0": 21.0436678211,
			"0.001": 21.2420186521,
			"0.002": 24.4000829005,
			"0.003": 20.7622160773,
			"0.004": 18.729661,
			"0.005": 9.22325116314,
			"0.006": 0.500958605479,
			"0.007": 0.755615406717,
			"0.008": 1.26058651976,
			"0.009": 0.704923598966,
			"0.01": 0.437167932078,
			"0.011": 0.795042151895,
			"0.012": 1.02174264055,
			"0.013": 0.763375122296,
			"0.014": 0.50266638454,
			"0.015": 0.598882221538,
			"0.016": 0.316847453386,
			"0.017": 0.0,
			"0.018": 0.0,
			"0.019": 0.0,
			"0.02": 0.0,
			"0.021": 0.0,
			"0.022": 0.0,
			"0.023": 0.0,
			"0.024": 0.0,
			"0.025": 0.0
		}
	}
}
