{
	 "smiles": "FC(F)(F)C1=CC=C(CS(Cl)(=O)=O)C=C1", 
	 "Tm": 378.15, 
	 "num_atms": 21, 
	 "gaussian": { 
		 "optdone": 1, 
		 "sigma_profile": "yes", 
		 "theory": "DFT", 
		 "functional": "B3LYP", 
		 "basiset": "6-31G**", 
		 "properties": { 
			 "R2extent": 5878.6808, 
			 "electric_dipole_moment_norm": 3.77969862687, 
			 "electric_quadrupole_moment_norm": 18.1239874023, 
			 "total_energy": -1616.76059491, 
			 "HOMO_LUMO_gap": 0.18899, 
			 "cosmo_polarized_energy": -12.13, 
			 "cosmo_cavitation_energy": 30.83, 
			 "cosmo_dispersion_energy": -21.97, 
			 "cosmo_repulsion_energy": 1.62, 
			 "cosmo_total_nonelectrostatic_energy": 10.48, 
			 "SMD_solvation_energy": 4.91 
		},
		"coords": [
			{
				"x": -0.7248736666,
				"y": -1.599918183,
				"z": -3.4751517077,
				"element": "F" 
			},
			{
				"x": -0.7153371759,
				"y": -0.2729685316,
				"z": -3.2203948857,
				"element": "C" 
			},
			{
				"x": -1.8687546555,
				"y": 0.2325579823,
				"z": -3.7080649857,
				"element": "F" 
			},
			{
				"x": 0.2998636982,
				"y": 0.2603161825,
				"z": -3.9336199241,
				"element": "F" 
			},
			{
				"x": -0.565588593,
				"y": 0.0026885007,
				"z": -1.7460732272,
				"element": "C" 
			},
			{
				"x": -1.7006747369,
				"y": 0.0885981507,
				"z": -0.9358470849,
				"element": "C" 
			},
			{
				"x": -1.5596120156,
				"y": 0.2970849522,
				"z": 0.4332488057,
				"element": "C" 
			},
			{
				"x": -0.2854687255,
				"y": 0.4291418248,
				"z": 1.0017382531,
				"element": "C" 
			},
			{
				"x": -0.1346957135,
				"y": 0.6504583084,
				"z": 2.4789276464,
				"element": "C" 
			},
			{
				"x": -0.0173426945,
				"y": -0.9623498948,
				"z": 3.3616595471,
				"element": "S" 
			},
			{
				"x": 0.1807295753,
				"y": -0.224178215,
				"z": 5.3592748768,
				"element": "Cl" 
			},
			{
				"x": 1.2390747863,
				"y": -1.6171311391,
				"z": 3.0207117788,
				"element": "O" 
			},
			{
				"x": -1.2965501707,
				"y": -1.6562718953,
				"z": 3.2865750386,
				"element": "O" 
			},
			{
				"x": 0.8474456986,
				"y": 0.3302261343,
				"z": 0.1827150027,
				"element": "C" 
			},
			{
				"x": 0.7092351167,
				"y": 0.121716591,
				"z": -1.1866617569,
				"element": "C" 
			},
			{
				"x": -2.6874480789,
				"y": 0.0005326837,
				"z": -1.376515863,
				"element": "H" 
			},
			{
				"x": -2.4416831593,
				"y": 0.3595704199,
				"z": 1.0632696448,
				"element": "H" 
			},
			{
				"x": -0.9934245618,
				"y": 1.1509219104,
				"z": 2.9302830022,
				"element": "H" 
			},
			{
				"x": 0.782946254,
				"y": 1.1785092927,
				"z": 2.7448416997,
				"element": "H" 
			},
			{
				"x": 1.8382794513,
				"y": 0.4183705265,
				"z": 0.6178566165,
				"element": "H" 
			},
			{
				"x": 1.5861793673,
				"y": 0.0592243988,
				"z": -1.8212724774,
				"element": "H" 
			}
		],
		 "valence_orbital": [ 
			{
				"type": "occ",
				"energy": -0.3445,
				"method": "rhf"
			},
			{
				"type": "occ",
				"energy": -0.3378,
				"method": "rhf"
			},
			{
				"type": "occ",
				"energy": -0.3212,
				"method": "rhf"
			},
			{
				"type": "occ",
				"energy": -0.28758,
				"method": "rhf"
			},
			{
				"type": "occ",
				"energy": -0.28622,
				"method": "rhf"
			},
			{
				"type": "unocc",
				"energy": -0.09723,
				"method": "rhf"
			},
			{
				"type": "unocc",
				"energy": -0.04532,
				"method": "rhf"
			},
			{
				"type": "unocc",
				"energy": -0.03859,
				"method": "rhf"
			},
			{
				"type": "unocc",
				"energy": 0.02832,
				"method": "rhf"
			},
			{
				"type": "unocc",
				"energy": 0.05331,
				"method": "rhf"
			}
		],
		"cosmo_sigma_profile": { 
			"-0.025": 0.0,
			"-0.024": 0.0,
			"-0.023": 0.0,
			"-0.022": 0.0,
			"-0.021": 0.0,
			"-0.02": 0.0,
			"-0.019": 0.0,
			"-0.018": 0.0,
			"-0.017": 0.0,
			"-0.016": 0.0,
			"-0.015": 0.0,
			"-0.014": 0.0,
			"-0.013": 0.0,
			"-0.012": 0.0,
			"-0.011": 2.17231499473,
			"-0.01": 5.84708864382,
			"-0.009": 5.0491302329,
			"-0.008": 7.15257104366,
			"-0.007": 11.6646364811,
			"-0.006": 9.82702867085,
			"-0.005": 8.85863660519,
			"-0.004": 8.20063180591,
			"-0.003": 9.13783562982,
			"-0.002": 11.1757559345,
			"-0.001": 13.809349992,
			"0.0": 18.5678399904,
			"0.001": 23.4842270034,
			"0.002": 39.3057907003,
			"0.003": 37.976510545,
			"0.004": 9.24199869054,
			"0.005": 3.42659060393,
			"0.006": 3.14913228435,
			"0.007": 5.57513053727,
			"0.008": 10.0863324646,
			"0.009": 5.94781585534,
			"0.01": 0.11138176043,
			"0.011": 0.0,
			"0.012": 0.0,
			"0.013": 0.0,
			"0.014": 0.0,
			"0.015": 0.0,
			"0.016": 0.0,
			"0.017": 0.0,
			"0.018": 0.0,
			"0.019": 0.0,
			"0.02": 0.0,
			"0.021": 0.0,
			"0.022": 0.0,
			"0.023": 0.0,
			"0.024": 0.0,
			"0.025": 0.0
		}
	}
}
