{
	 "smiles": "ClS(=O)(=O)C1=CC2=C(NC(=O)C(=O)N2)C=C1", 
	 "Tm": 578.15, 
	 "num_atms": 21, 
	 "gaussian": { 
		 "optdone": 1, 
		 "sigma_profile": "yes", 
		 "theory": "DFT", 
		 "functional": "B3LYP", 
		 "basiset": "6-31G**", 
		 "properties": { 
			 "R2extent": 5465.1916, 
			 "electric_dipole_moment_norm": 2.79808455019, 
			 "electric_quadrupole_moment_norm": 41.6068148531, 
			 "total_energy": -1576.60067575, 
			 "HOMO_LUMO_gap": 0.15569, 
			 "cosmo_polarized_energy": -26.88, 
			 "cosmo_cavitation_energy": 30.31, 
			 "cosmo_dispersion_energy": -22.83, 
			 "cosmo_repulsion_energy": 1.72, 
			 "cosmo_total_nonelectrostatic_energy": 9.2, 
			 "SMD_solvation_energy": 5.25 
		},
		"coords": [
			{
				"x": -2.3445773568,
				"y": -2.1890445909,
				"z": -0.9367176953,
				"element": "Cl" 
			},
			{
				"x": -2.4269097748,
				"y": -0.6832802347,
				"z": 0.5725528501,
				"element": "S" 
			},
			{
				"x": -2.1344597732,
				"y": -1.3583337159,
				"z": 1.8309739597,
				"element": "O" 
			},
			{
				"x": -3.6648317152,
				"y": 0.0503665826,
				"z": 0.3445483947,
				"element": "O" 
			},
			{
				"x": -1.0434975529,
				"y": 0.3453006317,
				"z": 0.1247118214,
				"element": "C" 
			},
			{
				"x": 0.2012183672,
				"y": 0.0625655069,
				"z": 0.6848024027,
				"element": "C" 
			},
			{
				"x": 1.2877572998,
				"y": 0.8664332027,
				"z": 0.3444641452,
				"element": "C" 
			},
			{
				"x": 1.1097487933,
				"y": 1.9417683436,
				"z": -0.5534780387,
				"element": "C" 
			},
			{
				"x": 2.2145250032,
				"y": 2.7206727938,
				"z": -0.866267603,
				"element": "N" 
			},
			{
				"x": 3.5041494539,
				"y": 2.5552445296,
				"z": -0.3804207893,
				"element": "C" 
			},
			{
				"x": 4.4167959116,
				"y": 3.2828595927,
				"z": -0.7051879479,
				"element": "O" 
			},
			{
				"x": 3.696982224,
				"y": 1.3885249393,
				"z": 0.5967458284,
				"element": "C" 
			},
			{
				"x": 4.7744793069,
				"y": 1.1376967311,
				"z": 1.0919272692,
				"element": "O" 
			},
			{
				"x": 2.5587073706,
				"y": 0.6486013331,
				"z": 0.8694626137,
				"element": "N" 
			},
			{
				"x": -0.1540253702,
				"y": 2.2012472677,
				"z": -1.0977685897,
				"element": "C" 
			},
			{
				"x": -1.2418891355,
				"y": 1.403381566,
				"z": -0.7645449284,
				"element": "C" 
			},
			{
				"x": 0.3154103175,
				"y": -0.7612524331,
				"z": 1.3811771509,
				"element": "H" 
			},
			{
				"x": 2.1065751138,
				"y": 3.4967835924,
				"z": -1.5096823665,
				"element": "H" 
			},
			{
				"x": 2.7012977521,
				"y": -0.1194715084,
				"z": 1.5155986364,
				"element": "H" 
			},
			{
				"x": -0.2787702071,
				"y": 3.035635239,
				"z": -1.7812186709,
				"element": "H" 
			},
			{
				"x": -2.2255860284,
				"y": 1.6000006307,
				"z": -1.1735784427,
				"element": "H" 
			}
		],
		 "valence_orbital": [ 
			{
				"type": "occ",
				"energy": -0.32216,
				"method": "rhf"
			},
			{
				"type": "occ",
				"energy": -0.31504,
				"method": "rhf"
			},
			{
				"type": "occ",
				"energy": -0.28829,
				"method": "rhf"
			},
			{
				"type": "occ",
				"energy": -0.2847,
				"method": "rhf"
			},
			{
				"type": "occ",
				"energy": -0.25685,
				"method": "rhf"
			},
			{
				"type": "unocc",
				"energy": -0.10116,
				"method": "rhf"
			},
			{
				"type": "unocc",
				"energy": -0.07678,
				"method": "rhf"
			},
			{
				"type": "unocc",
				"energy": -0.05315,
				"method": "rhf"
			},
			{
				"type": "unocc",
				"energy": -0.04478,
				"method": "rhf"
			},
			{
				"type": "unocc",
				"energy": 0.03376,
				"method": "rhf"
			}
		],
		"cosmo_sigma_profile": { 
			"-0.025": 0.0,
			"-0.024": 0.0,
			"-0.023": 0.0,
			"-0.022": 0.0,
			"-0.021": 0.0,
			"-0.02": 0.0,
			"-0.019": 0.0,
			"-0.018": 0.0785299077014,
			"-0.017": 2.69712468889,
			"-0.016": 3.503425082,
			"-0.015": 2.4147982833,
			"-0.014": 2.25517182272,
			"-0.013": 2.30774555663,
			"-0.012": 2.83696042879,
			"-0.011": 2.75346646398,
			"-0.01": 2.7705731214,
			"-0.009": 6.56870880582,
			"-0.008": 6.51748925506,
			"-0.007": 7.96557153449,
			"-0.006": 9.05084019992,
			"-0.005": 8.96008171535,
			"-0.004": 9.92709174061,
			"-0.003": 14.5377212414,
			"-0.002": 16.1333821746,
			"-0.001": 17.6600563631,
			"0.0": 16.0252455278,
			"0.001": 12.7658268628,
			"0.002": 9.47421611067,
			"0.003": 15.8448852625,
			"0.004": 10.4711019402,
			"0.005": 5.64191063531,
			"0.006": 4.82792690417,
			"0.007": 8.59327622647,
			"0.008": 11.9018274478,
			"0.009": 6.87932645557,
			"0.01": 5.20333330891,
			"0.011": 9.12806017621,
			"0.012": 7.00134190257,
			"0.013": 2.59703578445,
			"0.014": 1.57261523212,
			"0.015": 0.0225116586399,
			"0.016": 0.0,
			"0.017": 0.0,
			"0.018": 0.0,
			"0.019": 0.0,
			"0.02": 0.0,
			"0.021": 0.0,
			"0.022": 0.0,
			"0.023": 0.0,
			"0.024": 0.0,
			"0.025": 0.0
		}
	}
}
