{
	 "smiles": "CC1OC1P(O)(O)=O", 
	 "Tm": 367.15, 
	 "num_atms": 15, 
	 "gaussian": { 
		 "optdone": 1, 
		 "sigma_profile": "yes", 
		 "theory": "DFT", 
		 "functional": "B3LYP", 
		 "basiset": "6-31G**", 
		 "properties": { 
			 "R2extent": 1161.1445, 
			 "electric_dipole_moment_norm": 2.48554610498, 
			 "electric_quadrupole_moment_norm": 11.525700724, 
			 "total_energy": -760.80985378, 
			 "HOMO_LUMO_gap": 0.31589, 
			 "cosmo_polarized_energy": -15.99, 
			 "cosmo_cavitation_energy": 20.11, 
			 "cosmo_dispersion_energy": -15.42, 
			 "cosmo_repulsion_energy": 1.28, 
			 "cosmo_total_nonelectrostatic_energy": 5.97, 
			 "SMD_solvation_energy": 5.87 
		},
		"coords": [
			{
				"x": 0.7551471014,
				"y": -0.0034564786,
				"z": 2.0984418503,
				"element": "C" 
			},
			{
				"x": -0.6198614047,
				"y": 0.5675072607,
				"z": 1.8656832445,
				"element": "C" 
			},
			{
				"x": -0.7289864366,
				"y": 1.8487305986,
				"z": 1.2064893809,
				"element": "O" 
			},
			{
				"x": -1.2848907249,
				"y": 0.6832021056,
				"z": 0.5522820438,
				"element": "C" 
			},
			{
				"x": -0.4607808746,
				"y": 0.239681537,
				"z": -1.0193977603,
				"element": "P" 
			},
			{
				"x": 0.8431872769,
				"y": 1.1923830232,
				"z": -0.9768247942,
				"element": "O" 
			},
			{
				"x": -1.4927224208,
				"y": 0.9252992579,
				"z": -2.0707969807,
				"element": "O" 
			},
			{
				"x": -0.1749826936,
				"y": -1.1872858169,
				"z": -1.2964519517,
				"element": "O" 
			},
			{
				"x": 1.3950706235,
				"y": 0.0991602687,
				"z": 1.2209417778,
				"element": "H" 
			},
			{
				"x": 0.6755885671,
				"y": -1.0670853853,
				"z": 2.3443560791,
				"element": "H" 
			},
			{
				"x": 1.2301511698,
				"y": 0.5059184522,
				"z": 2.9430592677,
				"element": "H" 
			},
			{
				"x": -1.2971186891,
				"y": 0.4878093384,
				"z": 2.7179997967,
				"element": "H" 
			},
			{
				"x": -2.3738508093,
				"y": 0.6519333722,
				"z": 0.5151438661,
				"element": "H" 
			},
			{
				"x": 0.69197827,
				"y": 1.90680674,
				"z": -0.3294181559,
				"element": "H" 
			},
			{
				"x": -1.487028955,
				"y": 0.4446957264,
				"z": -2.9116076641,
				"element": "H" 
			}
		],
		 "valence_orbital": [ 
			{
				"type": "occ",
				"energy": -0.34544,
				"method": "rhf"
			},
			{
				"type": "occ",
				"energy": -0.32943,
				"method": "rhf"
			},
			{
				"type": "occ",
				"energy": -0.31588,
				"method": "rhf"
			},
			{
				"type": "occ",
				"energy": -0.29247,
				"method": "rhf"
			},
			{
				"type": "occ",
				"energy": -0.28367,
				"method": "rhf"
			},
			{
				"type": "unocc",
				"energy": 0.03222,
				"method": "rhf"
			},
			{
				"type": "unocc",
				"energy": 0.05109,
				"method": "rhf"
			},
			{
				"type": "unocc",
				"energy": 0.06317,
				"method": "rhf"
			},
			{
				"type": "unocc",
				"energy": 0.0837,
				"method": "rhf"
			},
			{
				"type": "unocc",
				"energy": 0.10396,
				"method": "rhf"
			}
		],
		"cosmo_sigma_profile": { 
			"-0.025": 0.0,
			"-0.024": 0.0,
			"-0.023": 0.0,
			"-0.022": 0.0,
			"-0.021": 0.0,
			"-0.02": 0.0801678056796,
			"-0.019": 0.638433824009,
			"-0.018": 1.08256287455,
			"-0.017": 0.98703766245,
			"-0.016": 0.689851908913,
			"-0.015": 1.06520285886,
			"-0.014": 1.51456676336,
			"-0.013": 0.995619566156,
			"-0.012": 0.736410357869,
			"-0.011": 1.76793380097,
			"-0.01": 2.1039565868,
			"-0.009": 3.57235937948,
			"-0.008": 4.24168756012,
			"-0.007": 7.40259887976,
			"-0.006": 6.99816006388,
			"-0.005": 10.7365218075,
			"-0.004": 10.3185223263,
			"-0.003": 10.5319755335,
			"-0.002": 11.1703558656,
			"-0.001": 10.6111378095,
			"0.0": 5.8435241523,
			"0.001": 5.00220125833,
			"0.002": 3.83734170525,
			"0.003": 4.259857368,
			"0.004": 3.91326706167,
			"0.005": 4.12273069017,
			"0.006": 4.55820404265,
			"0.007": 4.31253679386,
			"0.008": 4.79565603393,
			"0.009": 5.94307206598,
			"0.01": 5.22554688151,
			"0.011": 2.99957186833,
			"0.012": 1.72783827138,
			"0.013": 2.04252736366,
			"0.014": 7.50141001428,
			"0.015": 1.83469086749,
			"0.016": 0.0,
			"0.017": 0.0,
			"0.018": 0.0,
			"0.019": 0.0,
			"0.02": 0.0,
			"0.021": 0.0,
			"0.022": 0.0,
			"0.023": 0.0,
			"0.024": 0.0,
			"0.025": 0.0
		}
	}
}
