{
	 "smiles": "NC(=O)C(N=[N+]=[N-])C1=CC=C(F)C=C1", 
	 "Tm": 401.15, 
	 "num_atms": 21, 
	 "gaussian": { 
		 "optdone": 1, 
		 "sigma_profile": "yes", 
		 "theory": "DFT", 
		 "functional": "B3LYP", 
		 "basiset": "6-31G**", 
		 "properties": { 
			 "R2extent": 3383.5038, 
			 "electric_dipole_moment_norm": 2.42852015433, 
			 "electric_quadrupole_moment_norm": 10.1753050072, 
			 "total_energy": -703.076190007, 
			 "HOMO_LUMO_gap": 0.19567, 
			 "cosmo_polarized_energy": -13.05, 
			 "cosmo_cavitation_energy": 27.7, 
			 "cosmo_dispersion_energy": -19.16, 
			 "cosmo_repulsion_energy": 1.53, 
			 "cosmo_total_nonelectrostatic_energy": 10.07, 
			 "SMD_solvation_energy": 3.8 
		},
		"coords": [
			{
				"x": -2.6993776753,
				"y": 0.6948905502,
				"z": -1.4467509679,
				"element": "N" 
			},
			{
				"x": -1.800909414,
				"y": 1.2847775981,
				"z": -0.6217599992,
				"element": "C" 
			},
			{
				"x": -1.0714498902,
				"y": 2.2116648918,
				"z": -0.939995783,
				"element": "O" 
			},
			{
				"x": -1.7014751669,
				"y": 0.6927291462,
				"z": 0.8044522048,
				"element": "C" 
			},
			{
				"x": -2.861642507,
				"y": -0.2011593648,
				"z": 1.0490475453,
				"element": "N" 
			},
			{
				"x": -3.201226524,
				"y": -0.3322574537,
				"z": 2.2311363373,
				"element": "N" 
			},
			{
				"x": -3.6101248624,
				"y": -0.5212142973,
				"z": 3.2789351116,
				"element": "N" 
			},
			{
				"x": -0.3571663192,
				"y": -0.0063321274,
				"z": 0.9949554226,
				"element": "C" 
			},
			{
				"x": -0.2509258262,
				"y": -1.4001726422,
				"z": 1.0310417881,
				"element": "C" 
			},
			{
				"x": 0.9917296657,
				"y": -2.0162124876,
				"z": 1.186956646,
				"element": "C" 
			},
			{
				"x": 2.1234040205,
				"y": -1.2188024497,
				"z": 1.2990838042,
				"element": "C" 
			},
			{
				"x": 3.3273441017,
				"y": -1.8070399292,
				"z": 1.4544795046,
				"element": "F" 
			},
			{
				"x": 2.0506245817,
				"y": 0.1698155569,
				"z": 1.2584243139,
				"element": "C" 
			},
			{
				"x": 0.8037706636,
				"y": 0.7718303193,
				"z": 1.1059110163,
				"element": "C" 
			},
			{
				"x": -3.339080192,
				"y": -0.0024797311,
				"z": -1.0991999344,
				"element": "H" 
			},
			{
				"x": -2.8075650596,
				"y": 1.0696001501,
				"z": -2.3766967689,
				"element": "H" 
			},
			{
				"x": -1.7524764224,
				"y": 1.5601815036,
				"z": 1.4733957059,
				"element": "H" 
			},
			{
				"x": -1.1426086426,
				"y": -2.0111510919,
				"z": 0.9393980852,
				"element": "H" 
			},
			{
				"x": 1.0896687122,
				"y": -3.0957743807,
				"z": 1.221666966,
				"element": "H" 
			},
			{
				"x": 2.9576680682,
				"y": 0.7577410349,
				"z": 1.3468783566,
				"element": "H" 
			},
			{
				"x": 0.7298186883,
				"y": 1.8525652045,
				"z": 1.049340645,
				"element": "H" 
			}
		],
		 "valence_orbital": [ 
			{
				"type": "occ",
				"energy": -0.28835,
				"method": "rhf"
			},
			{
				"type": "occ",
				"energy": -0.27565,
				"method": "rhf"
			},
			{
				"type": "occ",
				"energy": -0.26388,
				"method": "rhf"
			},
			{
				"type": "occ",
				"energy": -0.25939,
				"method": "rhf"
			},
			{
				"type": "occ",
				"energy": -0.24301,
				"method": "rhf"
			},
			{
				"type": "unocc",
				"energy": -0.04734,
				"method": "rhf"
			},
			{
				"type": "unocc",
				"energy": -0.01828,
				"method": "rhf"
			},
			{
				"type": "unocc",
				"energy": -0.01117,
				"method": "rhf"
			},
			{
				"type": "unocc",
				"energy": -0.00409,
				"method": "rhf"
			},
			{
				"type": "unocc",
				"energy": 0.02871,
				"method": "rhf"
			}
		],
		"cosmo_sigma_profile": { 
			"-0.025": 0.0,
			"-0.024": 0.0,
			"-0.023": 0.0,
			"-0.022": 0.0,
			"-0.021": 0.0,
			"-0.02": 0.0,
			"-0.019": 0.0,
			"-0.018": 0.0,
			"-0.017": 0.0,
			"-0.016": 0.0,
			"-0.015": 0.37995666117,
			"-0.014": 1.10948186803,
			"-0.013": 1.68084759238,
			"-0.012": 1.87548138862,
			"-0.011": 1.85566914392,
			"-0.01": 3.29712550224,
			"-0.009": 3.696526814,
			"-0.008": 4.68146291272,
			"-0.007": 7.62672668612,
			"-0.006": 9.18007655315,
			"-0.005": 12.4207719167,
			"-0.004": 14.2141010258,
			"-0.003": 12.1059323926,
			"-0.002": 11.4902164384,
			"-0.001": 12.7915909267,
			"0.0": 13.6873174494,
			"0.001": 19.3495129753,
			"0.002": 16.0040360988,
			"0.003": 17.6693948839,
			"0.004": 21.958364381,
			"0.005": 9.58835297093,
			"0.006": 4.91483795783,
			"0.007": 5.51795837516,
			"0.008": 1.54073661236,
			"0.009": 1.55600280843,
			"0.01": 1.23593026501,
			"0.011": 1.78178069367,
			"0.012": 2.23134595902,
			"0.013": 4.99718684589,
			"0.014": 2.02294247337,
			"0.015": 0.0402261293341,
			"0.016": 0.0,
			"0.017": 0.0,
			"0.018": 0.0,
			"0.019": 0.0,
			"0.02": 0.0,
			"0.021": 0.0,
			"0.022": 0.0,
			"0.023": 0.0,
			"0.024": 0.0,
			"0.025": 0.0
		}
	}
}
