{
	 "smiles": "CSC1=C(C#N)C(N)=NC2=C(N=NC3=CC(=CC=C3)C(F)(F)F)C(N)=NN12", 
	 "Tm": 566.15, 
	 "num_atms": 38, 
	 "gaussian": { 
		 "optdone": 1, 
		 "sigma_profile": "yes", 
		 "theory": "DFT", 
		 "functional": "B3LYP", 
		 "basiset": "6-31G**", 
		 "properties": { 
			 "R2extent": 17726.8036, 
			 "electric_dipole_moment_norm": 1.31633123871, 
			 "electric_quadrupole_moment_norm": 39.5759557977, 
			 "total_energy": -1713.89424486, 
			 "HOMO_LUMO_gap": 0.13068, 
			 "cosmo_polarized_energy": -20.08, 
			 "cosmo_cavitation_energy": 48.09, 
			 "cosmo_dispersion_energy": -34.01, 
			 "cosmo_repulsion_energy": 2.47, 
			 "cosmo_total_nonelectrostatic_energy": 16.54, 
			 "SMD_solvation_energy": 7.31 
		},
		"coords": [
			{
				"x": 0.048734602,
				"y": 1.294546705,
				"z": -4.99077169,
				"element": "C" 
			},
			{
				"x": 0.2727625497,
				"y": 2.9970063444,
				"z": -4.3439043381,
				"element": "S" 
			},
			{
				"x": 0.9591462324,
				"y": 2.7518470184,
				"z": -2.7383190776,
				"element": "C" 
			},
			{
				"x": 2.0562323714,
				"y": 3.5062486535,
				"z": -2.3084156226,
				"element": "C" 
			},
			{
				"x": 2.7428889893,
				"y": 4.4059318762,
				"z": -3.1681107125,
				"element": "C" 
			},
			{
				"x": 3.3854587868,
				"y": 5.170292545,
				"z": -3.76982243,
				"element": "N" 
			},
			{
				"x": 2.5252293135,
				"y": 3.3513597317,
				"z": -0.950579039,
				"element": "C" 
			},
			{
				"x": 3.5763722095,
				"y": 4.0788868302,
				"z": -0.5108241885,
				"element": "N" 
			},
			{
				"x": 1.9652539206,
				"y": 2.497465032,
				"z": -0.0979213187,
				"element": "N" 
			},
			{
				"x": 0.9266653386,
				"y": 1.7862995825,
				"z": -0.5325536504,
				"element": "C" 
			},
			{
				"x": 0.0973595888,
				"y": 0.8465815496,
				"z": 0.1059794476,
				"element": "C" 
			},
			{
				"x": 0.2446453479,
				"y": 0.4518128798,
				"z": 1.4025404902,
				"element": "N" 
			},
			{
				"x": -0.616468049,
				"y": -0.393018533,
				"z": 1.823780862,
				"element": "N" 
			},
			{
				"x": -0.4377108397,
				"y": -0.7782099121,
				"z": 3.1733719073,
				"element": "C" 
			},
			{
				"x": -1.3586655053,
				"y": -1.7076287242,
				"z": 3.6724749114,
				"element": "C" 
			},
			{
				"x": -1.2683460289,
				"y": -2.1454148957,
				"z": 4.9934311778,
				"element": "C" 
			},
			{
				"x": -0.2595586749,
				"y": -1.6610668173,
				"z": 5.8299334186,
				"element": "C" 
			},
			{
				"x": 0.6592923553,
				"y": -0.733307803,
				"z": 5.3307005634,
				"element": "C" 
			},
			{
				"x": 0.578737041,
				"y": -0.2912205873,
				"z": 4.0149559171,
				"element": "C" 
			},
			{
				"x": -2.2267747213,
				"y": -3.188526285,
				"z": 5.5008862797,
				"element": "C" 
			},
			{
				"x": -3.4236581807,
				"y": -3.1231933067,
				"z": 4.8754123835,
				"element": "F" 
			},
			{
				"x": -2.4542379617,
				"y": -3.0609723821,
				"z": 6.8273397244,
				"element": "F" 
			},
			{
				"x": -1.7516948638,
				"y": -4.4414074457,
				"z": 5.3049771053,
				"element": "F" 
			},
			{
				"x": -0.8818066102,
				"y": 0.4805864036,
				"z": -0.8914525273,
				"element": "C" 
			},
			{
				"x": -1.8704301569,
				"y": -0.4137227211,
				"z": -0.6989632959,
				"element": "N" 
			},
			{
				"x": -0.7056995728,
				"y": 1.1176009281,
				"z": -2.0511207613,
				"element": "N" 
			},
			{
				"x": 0.4085344684,
				"y": 1.905879851,
				"z": -1.8362483733,
				"element": "N" 
			},
			{
				"x": -0.6094648151,
				"y": 0.7279450314,
				"z": -4.3355185603,
				"element": "H" 
			},
			{
				"x": -0.4046286757,
				"y": 1.4349658455,
				"z": -5.9743407258,
				"element": "H" 
			},
			{
				"x": 1.0157834711,
				"y": 0.8029011753,
				"z": -5.1054751225,
				"element": "H" 
			},
			{
				"x": 4.0550102111,
				"y": 4.7310986802,
				"z": -1.1109129939,
				"element": "H" 
			},
			{
				"x": 3.8976202526,
				"y": 3.9261027709,
				"z": 0.4316001216,
				"element": "H" 
			},
			{
				"x": -2.143493184,
				"y": -2.0729857375,
				"z": 3.0196331748,
				"element": "H" 
			},
			{
				"x": -0.2005546106,
				"y": -1.9988729674,
				"z": 6.8587352957,
				"element": "H" 
			},
			{
				"x": 1.4420521319,
				"y": -0.3519525451,
				"z": 5.9798733527,
				"element": "H" 
			},
			{
				"x": 1.2832458195,
				"y": 0.4291521646,
				"z": 3.6158425384,
				"element": "H" 
			},
			{
				"x": -2.5870911832,
				"y": -0.5266983532,
				"z": -1.3976459922,
				"element": "H" 
			},
			{
				"x": -1.9679413676,
				"y": -0.7739125825,
				"z": 0.2424317485,
				"element": "H" 
			}
		],
		 "valence_orbital": [ 
			{
				"type": "occ",
				"energy": -0.26631,
				"method": "rhf"
			},
			{
				"type": "occ",
				"energy": -0.25729,
				"method": "rhf"
			},
			{
				"type": "occ",
				"energy": -0.23485,
				"method": "rhf"
			},
			{
				"type": "occ",
				"energy": -0.22662,
				"method": "rhf"
			},
			{
				"type": "occ",
				"energy": -0.2133,
				"method": "rhf"
			},
			{
				"type": "unocc",
				"energy": -0.08262,
				"method": "rhf"
			},
			{
				"type": "unocc",
				"energy": -0.0706,
				"method": "rhf"
			},
			{
				"type": "unocc",
				"energy": -0.0262,
				"method": "rhf"
			},
			{
				"type": "unocc",
				"energy": -0.01874,
				"method": "rhf"
			},
			{
				"type": "unocc",
				"energy": 0.00448,
				"method": "rhf"
			}
		],
		"cosmo_sigma_profile": { 
			"-0.025": 0.0,
			"-0.024": 0.0,
			"-0.023": 0.0,
			"-0.022": 0.0,
			"-0.021": 0.0,
			"-0.02": 0.0,
			"-0.019": 0.0,
			"-0.018": 0.0,
			"-0.017": 0.0,
			"-0.016": 0.115186171876,
			"-0.015": 1.04929178762,
			"-0.014": 3.57571520472,
			"-0.013": 3.12296376963,
			"-0.012": 2.89915397201,
			"-0.011": 3.22580384017,
			"-0.01": 3.28830642585,
			"-0.009": 3.70031185662,
			"-0.008": 5.65103683209,
			"-0.007": 9.87174926446,
			"-0.006": 16.2088520329,
			"-0.005": 19.5467371822,
			"-0.004": 20.7168339033,
			"-0.003": 26.1614250398,
			"-0.002": 22.6470773968,
			"-0.001": 20.2118694605,
			"0.0": 24.3501619208,
			"0.001": 30.6798102546,
			"0.002": 51.6859294191,
			"0.003": 52.5949210901,
			"0.004": 16.2845842398,
			"0.005": 9.72978648816,
			"0.006": 9.17878779818,
			"0.007": 5.80652488768,
			"0.008": 6.45395924303,
			"0.009": 5.31402623657,
			"0.01": 5.52454440865,
			"0.011": 3.61434893865,
			"0.012": 4.34586178504,
			"0.013": 1.92225578097,
			"0.014": 0.410656100235,
			"0.015": 0.0,
			"0.016": 0.0,
			"0.017": 0.0,
			"0.018": 0.0,
			"0.019": 0.0,
			"0.02": 0.0,
			"0.021": 0.0,
			"0.022": 0.0,
			"0.023": 0.0,
			"0.024": 0.0,
			"0.025": 0.0
		}
	}
}
