{
	 "smiles": "OC(=O)CN1C(=O)NC2=C1C=CC=C2", 
	 "Tm": 521.15, 
	 "num_atms": 22, 
	 "gaussian": { 
		 "optdone": 1, 
		 "sigma_profile": "yes", 
		 "theory": "DFT", 
		 "functional": "B3LYP", 
		 "basiset": "6-31G**", 
		 "properties": { 
			 "R2extent": 3297.7864, 
			 "electric_dipole_moment_norm": 5.58725558481, 
			 "electric_quadrupole_moment_norm": 9.2376518223, 
			 "total_energy": -682.993055203, 
			 "HOMO_LUMO_gap": 0.20398, 
			 "cosmo_polarized_energy": -19.7, 
			 "cosmo_cavitation_energy": 26.83, 
			 "cosmo_dispersion_energy": -19.39, 
			 "cosmo_repulsion_energy": 1.52, 
			 "cosmo_total_nonelectrostatic_energy": 8.96, 
			 "SMD_solvation_energy": 6.63 
		},
		"coords": [
			{
				"x": 1.3985738279,
				"y": -2.2350417709,
				"z": -1.055633198,
				"element": "O" 
			},
			{
				"x": 0.4629281144,
				"y": -3.1652469213,
				"z": -0.7773093599,
				"element": "C" 
			},
			{
				"x": 0.2371004695,
				"y": -4.087726364,
				"z": -1.5183855768,
				"element": "O" 
			},
			{
				"x": -0.2688203888,
				"y": -3.0021945937,
				"z": 0.5619695178,
				"element": "C" 
			},
			{
				"x": -0.2899737391,
				"y": -1.6492265918,
				"z": 1.0782768377,
				"element": "N" 
			},
			{
				"x": 0.2739521558,
				"y": -1.3224819382,
				"z": 2.3292779007,
				"element": "C" 
			},
			{
				"x": 0.982366225,
				"y": -2.0369332196,
				"z": 3.0151305797,
				"element": "O" 
			},
			{
				"x": -0.1479327525,
				"y": -0.0245048978,
				"z": 2.5829824298,
				"element": "N" 
			},
			{
				"x": -1.0006019395,
				"y": 0.4371256482,
				"z": 1.5820134436,
				"element": "C" 
			},
			{
				"x": -1.1049709551,
				"y": -0.5982004321,
				"z": 0.6322841005,
				"element": "C" 
			},
			{
				"x": -1.8959380716,
				"y": -0.4640870532,
				"z": -0.5011003158,
				"element": "C" 
			},
			{
				"x": -2.5879372463,
				"y": 0.7435982768,
				"z": -0.6649967391,
				"element": "C" 
			},
			{
				"x": -2.4807250922,
				"y": 1.773300802,
				"z": 0.2745914299,
				"element": "C" 
			},
			{
				"x": -1.6810280285,
				"y": 1.6358703451,
				"z": 1.4170189912,
				"element": "C" 
			},
			{
				"x": 1.4111892631,
				"y": -1.574792163,
				"z": -0.3437934788,
				"element": "H" 
			},
			{
				"x": 0.2511424757,
				"y": -3.6120311288,
				"z": 1.3090241008,
				"element": "H" 
			},
			{
				"x": -1.2806046214,
				"y": -3.3980552804,
				"z": 0.437260749,
				"element": "H" 
			},
			{
				"x": 0.1094620207,
				"y": 0.4553551196,
				"z": 3.4306681594,
				"element": "H" 
			},
			{
				"x": -1.9750736399,
				"y": -1.2597353877,
				"z": -1.2347274154,
				"element": "H" 
			},
			{
				"x": -3.2151564355,
				"y": 0.8787264125,
				"z": -1.5401840032,
				"element": "H" 
			},
			{
				"x": -3.0263556818,
				"y": 2.6986905262,
				"z": 0.1199276486,
				"element": "H" 
			},
			{
				"x": -1.6014959599,
				"y": 2.4349906122,
				"z": 2.1471041983,
				"element": "H" 
			}
		],
		 "valence_orbital": [ 
			{
				"type": "occ",
				"energy": -0.32007,
				"method": "rhf"
			},
			{
				"type": "occ",
				"energy": -0.29113,
				"method": "rhf"
			},
			{
				"type": "occ",
				"energy": -0.27891,
				"method": "rhf"
			},
			{
				"type": "occ",
				"energy": -0.25393,
				"method": "rhf"
			},
			{
				"type": "occ",
				"energy": -0.22635,
				"method": "rhf"
			},
			{
				"type": "unocc",
				"energy": -0.02237,
				"method": "rhf"
			},
			{
				"type": "unocc",
				"energy": -0.00625,
				"method": "rhf"
			},
			{
				"type": "unocc",
				"energy": 0.00363,
				"method": "rhf"
			},
			{
				"type": "unocc",
				"energy": 0.04202,
				"method": "rhf"
			},
			{
				"type": "unocc",
				"energy": 0.06809,
				"method": "rhf"
			}
		],
		"cosmo_sigma_profile": { 
			"-0.025": 0.0,
			"-0.024": 0.0,
			"-0.023": 0.0,
			"-0.022": 0.0,
			"-0.021": 0.0,
			"-0.02": 0.0,
			"-0.019": 0.0,
			"-0.018": 0.0,
			"-0.017": 0.524208029605,
			"-0.016": 2.60583512133,
			"-0.015": 1.62348131442,
			"-0.014": 1.66382340019,
			"-0.013": 2.24919328243,
			"-0.012": 2.78091522213,
			"-0.011": 2.17405001229,
			"-0.01": 1.73086052491,
			"-0.009": 2.68288819161,
			"-0.008": 7.2667858398,
			"-0.007": 11.1710531667,
			"-0.006": 12.0427477795,
			"-0.005": 13.444635507,
			"-0.004": 13.168044845,
			"-0.003": 11.107285853,
			"-0.002": 11.1963545449,
			"-0.001": 10.1949752525,
			"0.0": 10.467816947,
			"0.001": 9.52640071569,
			"0.002": 10.0315339272,
			"0.003": 9.6677301712,
			"0.004": 10.0117441451,
			"0.005": 10.9767238326,
			"0.006": 5.41998911626,
			"0.007": 3.39241331651,
			"0.008": 4.43351065846,
			"0.009": 5.57164559258,
			"0.01": 5.60371380957,
			"0.011": 6.91572842969,
			"0.012": 7.71800847596,
			"0.013": 6.59664770057,
			"0.014": 0.670761348301,
			"0.015": 0.0,
			"0.016": 0.0,
			"0.017": 0.0,
			"0.018": 0.0,
			"0.019": 0.0,
			"0.02": 0.0,
			"0.021": 0.0,
			"0.022": 0.0,
			"0.023": 0.0,
			"0.024": 0.0,
			"0.025": 0.0
		}
	}
}
