{
	 "smiles": "ClC1=CC=CC=C1Br", 
	 "Tm": 260.45, 
	 "num_atms": 12, 
	 "gaussian": { 
		 "optdone": 1, 
		 "sigma_profile": "yes", 
		 "theory": "DFT", 
		 "functional": "B3LYP", 
		 "basiset": "6-31G**", 
		 "properties": { 
			 "R2extent": 3677.4978, 
			 "electric_dipole_moment_norm": 2.61386976914, 
			 "electric_quadrupole_moment_norm": 6.63339980628, 
			 "total_energy": -3262.64112467, 
			 "HOMO_LUMO_gap": 0.22341, 
			 "cosmo_polarized_energy": -4.22, 
			 "cosmo_cavitation_energy": 20.02, 
			 "cosmo_dispersion_energy": -15.6, 
			 "cosmo_repulsion_energy": 1.28, 
			 "cosmo_total_nonelectrostatic_energy": 5.7, 
			 "SMD_solvation_energy": 2.15 
		},
		"coords": [
			{
				"x": -4.2232320743,
				"y": -0.6805903705,
				"z": 0.3405885139,
				"element": "Cl" 
			},
			{
				"x": -2.5089529527,
				"y": -0.3502778064,
				"z": 0.263395799,
				"element": "C" 
			},
			{
				"x": -1.6616093184,
				"y": -1.0192131167,
				"z": 1.1512283698,
				"element": "C" 
			},
			{
				"x": -0.2889562741,
				"y": -0.7841278205,
				"z": 1.1222118742,
				"element": "C" 
			},
			{
				"x": 0.2447010084,
				"y": 0.1218074507,
				"z": 0.2046574455,
				"element": "C" 
			},
			{
				"x": -0.5963006645,
				"y": 0.7907988118,
				"z": -0.6821733403,
				"element": "C" 
			},
			{
				"x": -1.9736175607,
				"y": 0.5590251881,
				"z": -0.657646171,
				"element": "C" 
			},
			{
				"x": -3.0734256531,
				"y": 1.500616234,
				"z": -1.8915164585,
				"element": "Br" 
			},
			{
				"x": -2.0914020617,
				"y": -1.7201597594,
				"z": 1.8582954358,
				"element": "H" 
			},
			{
				"x": 0.3587033342,
				"y": -1.3097835082,
				"z": 1.8167816481,
				"element": "H" 
			},
			{
				"x": 1.313114312,
				"y": 0.3110340567,
				"z": 0.1751556412,
				"element": "H" 
			},
			{
				"x": -0.1951220951,
				"y": 1.4970706403,
				"z": -1.3999787576,
				"element": "H" 
			}
		],
		 "valence_orbital": [ 
			{
				"type": "occ",
				"energy": -0.32331,
				"method": "rhf"
			},
			{
				"type": "occ",
				"energy": -0.32156,
				"method": "rhf"
			},
			{
				"type": "occ",
				"energy": -0.28718,
				"method": "rhf"
			},
			{
				"type": "occ",
				"energy": -0.26203,
				"method": "rhf"
			},
			{
				"type": "occ",
				"energy": -0.24843,
				"method": "rhf"
			},
			{
				"type": "unocc",
				"energy": -0.02502,
				"method": "rhf"
			},
			{
				"type": "unocc",
				"energy": -0.02425,
				"method": "rhf"
			},
			{
				"type": "unocc",
				"energy": -0.01229,
				"method": "rhf"
			},
			{
				"type": "unocc",
				"energy": 0.05179,
				"method": "rhf"
			},
			{
				"type": "unocc",
				"energy": 0.10259,
				"method": "rhf"
			}
		],
		"cosmo_sigma_profile": { 
			"-0.025": 0.0,
			"-0.024": 0.0,
			"-0.023": 0.0,
			"-0.022": 0.0,
			"-0.021": 0.0,
			"-0.02": 0.0,
			"-0.019": 0.0,
			"-0.018": 0.0,
			"-0.017": 0.0,
			"-0.016": 0.0,
			"-0.015": 0.0,
			"-0.014": 0.0,
			"-0.013": 0.0,
			"-0.012": 0.0,
			"-0.011": 0.0,
			"-0.01": 0.0,
			"-0.009": 0.0,
			"-0.008": 1.26839246519,
			"-0.007": 7.67736072523,
			"-0.006": 9.0933196596,
			"-0.005": 9.14534860518,
			"-0.004": 7.66392047073,
			"-0.003": 8.97184301774,
			"-0.002": 7.8516764039,
			"-0.001": 9.52978056725,
			"0.0": 14.0477891728,
			"0.001": 21.1326694587,
			"0.002": 21.1333330106,
			"0.003": 22.3236095403,
			"0.004": 18.6446379579,
			"0.005": 7.04083244701,
			"0.006": 1.10814257289,
			"0.007": 0.0,
			"0.008": 0.0,
			"0.009": 0.0,
			"0.01": 0.0,
			"0.011": 0.0,
			"0.012": 0.0,
			"0.013": 0.0,
			"0.014": 0.0,
			"0.015": 0.0,
			"0.016": 0.0,
			"0.017": 0.0,
			"0.018": 0.0,
			"0.019": 0.0,
			"0.02": 0.0,
			"0.021": 0.0,
			"0.022": 0.0,
			"0.023": 0.0,
			"0.024": 0.0,
			"0.025": 0.0
		}
	}
}
