{
	 "smiles": "CC(=O)OC(C1=CC=CC=C1)C(Cl)(Cl)Cl", 
	 "Tm": 360.65, 
	 "num_atms": 24, 
	 "gaussian": { 
		 "optdone": 1, 
		 "sigma_profile": "yes", 
		 "theory": "DFT", 
		 "functional": "B3LYP", 
		 "basiset": "6-31G**", 
		 "properties": { 
			 "R2extent": 5425.1738, 
			 "electric_dipole_moment_norm": 2.48809126842, 
			 "electric_quadrupole_moment_norm": 14.4960164314, 
			 "total_energy": -1917.50970233, 
			 "HOMO_LUMO_gap": 0.21361, 
			 "cosmo_polarized_energy": -8.29, 
			 "cosmo_cavitation_energy": 33.3, 
			 "cosmo_dispersion_energy": -22.76, 
			 "cosmo_repulsion_energy": 1.81, 
			 "cosmo_total_nonelectrostatic_energy": 12.36, 
			 "SMD_solvation_energy": 5.82 
		},
		"coords": [
			{
				"x": -3.2342704403,
				"y": 0.01626262,
				"z": 0.4201172905,
				"element": "C" 
			},
			{
				"x": -2.1280877131,
				"y": 0.0406077547,
				"z": -0.6017107605,
				"element": "C" 
			},
			{
				"x": -2.0320708883,
				"y": 0.8022557703,
				"z": -1.5331178262,
				"element": "O" 
			},
			{
				"x": -1.2154638336,
				"y": -0.9447074762,
				"z": -0.3284183567,
				"element": "O" 
			},
			{
				"x": -0.1000334273,
				"y": -1.0616797334,
				"z": -1.2178174223,
				"element": "C" 
			},
			{
				"x": 1.1651315383,
				"y": -0.5700955973,
				"z": -0.5420278069,
				"element": "C" 
			},
			{
				"x": 1.3777267825,
				"y": -0.7648949555,
				"z": 0.8289113072,
				"element": "C" 
			},
			{
				"x": 2.5381977678,
				"y": -0.2837624169,
				"z": 1.4341787051,
				"element": "C" 
			},
			{
				"x": 3.4946672089,
				"y": 0.3982307327,
				"z": 0.6792309896,
				"element": "C" 
			},
			{
				"x": 3.2820499676,
				"y": 0.6063082643,
				"z": -0.6842814176,
				"element": "C" 
			},
			{
				"x": 2.1202301789,
				"y": 0.1284281998,
				"z": -1.290279298,
				"element": "C" 
			},
			{
				"x": -0.0777921025,
				"y": -2.5469919718,
				"z": -1.6963066775,
				"element": "C" 
			},
			{
				"x": -1.6379898124,
				"y": -2.9167729271,
				"z": -2.5277103315,
				"element": "Cl" 
			},
			{
				"x": 0.1357899587,
				"y": -3.6975483252,
				"z": -0.3336623489,
				"element": "Cl" 
			},
			{
				"x": 1.2618593487,
				"y": -2.7700063961,
				"z": -2.8762161322,
				"element": "Cl" 
			},
			{
				"x": -3.9418674111,
				"y": 0.81622264,
				"z": 0.2058395717,
				"element": "H" 
			},
			{
				"x": -3.7422278369,
				"y": -0.9521617663,
				"z": 0.3914681659,
				"element": "H" 
			},
			{
				"x": -2.8196101674,
				"y": 0.1393008853,
				"z": 1.4246739898,
				"element": "H" 
			},
			{
				"x": -0.2983663245,
				"y": -0.4646961806,
				"z": -2.1117342305,
				"element": "H" 
			},
			{
				"x": 0.6293098326,
				"y": -1.2809173195,
				"z": 1.4193635444,
				"element": "H" 
			},
			{
				"x": 2.6935889837,
				"y": -0.439374704,
				"z": 2.4977697362,
				"element": "H" 
			},
			{
				"x": 4.3969707429,
				"y": 0.7733677727,
				"z": 1.1534392875,
				"element": "H" 
			},
			{
				"x": 4.0145359837,
				"y": 1.1475888134,
				"z": -1.2756326141,
				"element": "H" 
			},
			{
				"x": 1.9528216631,
				"y": 0.3021363169,
				"z": -2.3491773651,
				"element": "H" 
			}
		],
		 "valence_orbital": [ 
			{
				"type": "occ",
				"energy": -0.31239,
				"method": "rhf"
			},
			{
				"type": "occ",
				"energy": -0.30591,
				"method": "rhf"
			},
			{
				"type": "occ",
				"energy": -0.28784,
				"method": "rhf"
			},
			{
				"type": "occ",
				"energy": -0.25909,
				"method": "rhf"
			},
			{
				"type": "occ",
				"energy": -0.25854,
				"method": "rhf"
			},
			{
				"type": "unocc",
				"energy": -0.04493,
				"method": "rhf"
			},
			{
				"type": "unocc",
				"energy": -0.02103,
				"method": "rhf"
			},
			{
				"type": "unocc",
				"energy": -0.01049,
				"method": "rhf"
			},
			{
				"type": "unocc",
				"energy": -0.00566,
				"method": "rhf"
			},
			{
				"type": "unocc",
				"energy": 0.00456,
				"method": "rhf"
			}
		],
		"cosmo_sigma_profile": { 
			"-0.025": 0.0,
			"-0.024": 0.0,
			"-0.023": 0.0,
			"-0.022": 0.0,
			"-0.021": 0.0,
			"-0.02": 0.0,
			"-0.019": 0.0,
			"-0.018": 0.0,
			"-0.017": 0.0,
			"-0.016": 0.0,
			"-0.015": 0.0,
			"-0.014": 0.0,
			"-0.013": 0.0,
			"-0.012": 0.0,
			"-0.011": 0.0,
			"-0.01": 0.0,
			"-0.009": 0.345594177791,
			"-0.008": 1.75945053096,
			"-0.007": 5.51119742336,
			"-0.006": 15.347092926,
			"-0.005": 16.898058398,
			"-0.004": 21.5456886456,
			"-0.003": 20.1365218964,
			"-0.002": 21.1042032542,
			"-0.001": 19.059703907,
			"0.0": 19.6668184993,
			"0.001": 24.8617356223,
			"0.002": 26.1915804203,
			"0.003": 37.4212052518,
			"0.004": 17.5204834591,
			"0.005": 9.63018934888,
			"0.006": 2.5560645431,
			"0.007": 0.972330771363,
			"0.008": 1.60363322205,
			"0.009": 2.02133475516,
			"0.01": 2.85227797614,
			"0.011": 3.74881738468,
			"0.012": 1.04817149335,
			"0.013": 0.0,
			"0.014": 0.0,
			"0.015": 0.0,
			"0.016": 0.0,
			"0.017": 0.0,
			"0.018": 0.0,
			"0.019": 0.0,
			"0.02": 0.0,
			"0.021": 0.0,
			"0.022": 0.0,
			"0.023": 0.0,
			"0.024": 0.0,
			"0.025": 0.0
		}
	}
}
