{
	 "smiles": "COC(=O)C1=C(N)SC2=C1CCCC2", 
	 "Tm": 400.65, 
	 "num_atms": 27, 
	 "gaussian": { 
		 "optdone": 1, 
		 "sigma_profile": "yes", 
		 "theory": "DFT", 
		 "functional": "B3LYP", 
		 "basiset": "6-31G**", 
		 "properties": { 
			 "R2extent": 3519.1309, 
			 "electric_dipole_moment_norm": 2.48704421754, 
			 "electric_quadrupole_moment_norm": 12.2509660256, 
			 "total_energy": -992.305206446, 
			 "HOMO_LUMO_gap": 0.17315, 
			 "cosmo_polarized_energy": -10.46, 
			 "cosmo_cavitation_energy": 30.22, 
			 "cosmo_dispersion_energy": -23.17, 
			 "cosmo_repulsion_energy": 1.79, 
			 "cosmo_total_nonelectrostatic_energy": 8.84, 
			 "SMD_solvation_energy": 5.25 
		},
		"coords": [
			{
				"x": -3.2319767685,
				"y": -0.2620055734,
				"z": -2.8880086865,
				"element": "C" 
			},
			{
				"x": -2.3498868281,
				"y": 0.5328729643,
				"z": -2.0822765062,
				"element": "O" 
			},
			{
				"x": -1.3806478987,
				"y": -0.1778772461,
				"z": -1.4099836948,
				"element": "C" 
			},
			{
				"x": -1.3094786866,
				"y": -1.3898176599,
				"z": -1.5182151455,
				"element": "O" 
			},
			{
				"x": -0.5020318367,
				"y": 0.6704784323,
				"z": -0.6081045851,
				"element": "C" 
			},
			{
				"x": -0.5799849134,
				"y": 2.0598485225,
				"z": -0.5320965075,
				"element": "C" 
			},
			{
				"x": -1.5070720192,
				"y": 2.9105352243,
				"z": -1.0714256306,
				"element": "N" 
			},
			{
				"x": 0.6841180326,
				"y": 2.7109548932,
				"z": 0.4874081258,
				"element": "S" 
			},
			{
				"x": 1.3306699511,
				"y": 1.1005132401,
				"z": 0.8064304455,
				"element": "C" 
			},
			{
				"x": 0.6005874749,
				"y": 0.1373365353,
				"z": 0.1812325439,
				"element": "C" 
			},
			{
				"x": 0.9594593415,
				"y": -1.3250968768,
				"z": 0.3195138345,
				"element": "C" 
			},
			{
				"x": 1.9564432629,
				"y": -1.5612218436,
				"z": 1.4667817836,
				"element": "C" 
			},
			{
				"x": 3.0923289055,
				"y": -0.5295868034,
				"z": 1.4606152728,
				"element": "C" 
			},
			{
				"x": 2.5422275535,
				"y": 0.8926346307,
				"z": 1.671534733,
				"element": "C" 
			},
			{
				"x": -3.7611275615,
				"y": -0.9943851065,
				"z": -2.2737538677,
				"element": "H" 
			},
			{
				"x": -2.675695562,
				"y": -0.7934317653,
				"z": -3.6642429571,
				"element": "H" 
			},
			{
				"x": -3.9363076924,
				"y": 0.4400485003,
				"z": -3.3358110726,
				"element": "H" 
			},
			{
				"x": -1.2287304366,
				"y": 3.8674167833,
				"z": -1.2281968863,
				"element": "H" 
			},
			{
				"x": -2.101915486,
				"y": 2.4923509027,
				"z": -1.7741338185,
				"element": "H" 
			},
			{
				"x": 1.3797266956,
				"y": -1.6844615818,
				"z": -0.6297200622,
				"element": "H" 
			},
			{
				"x": 0.0529257339,
				"y": -1.9175130208,
				"z": 0.4675397029,
				"element": "H" 
			},
			{
				"x": 1.4266610983,
				"y": -1.502076414,
				"z": 2.4272183167,
				"element": "H" 
			},
			{
				"x": 2.3627305538,
				"y": -2.5764122925,
				"z": 1.3951992243,
				"element": "H" 
			},
			{
				"x": 3.8293001072,
				"y": -0.7585886582,
				"z": 2.2386776954,
				"element": "H" 
			},
			{
				"x": 3.6187118544,
				"y": -0.5743899399,
				"z": 0.4983327121,
				"element": "H" 
			},
			{
				"x": 2.2852361175,
				"y": 1.0381375884,
				"z": 2.7314548605,
				"element": "H" 
			},
			{
				"x": 3.316729007,
				"y": 1.6355365648,
				"z": 1.4416301696,
				"element": "H" 
			}
		],
		 "valence_orbital": [ 
			{
				"type": "occ",
				"energy": -0.29898,
				"method": "rhf"
			},
			{
				"type": "occ",
				"energy": -0.29263,
				"method": "rhf"
			},
			{
				"type": "occ",
				"energy": -0.26203,
				"method": "rhf"
			},
			{
				"type": "occ",
				"energy": -0.24082,
				"method": "rhf"
			},
			{
				"type": "occ",
				"energy": -0.18976,
				"method": "rhf"
			},
			{
				"type": "unocc",
				"energy": -0.01661,
				"method": "rhf"
			},
			{
				"type": "unocc",
				"energy": 0.01499,
				"method": "rhf"
			},
			{
				"type": "unocc",
				"energy": 0.02685,
				"method": "rhf"
			},
			{
				"type": "unocc",
				"energy": 0.086,
				"method": "rhf"
			},
			{
				"type": "unocc",
				"energy": 0.09555,
				"method": "rhf"
			}
		],
		"cosmo_sigma_profile": { 
			"-0.025": 0.0,
			"-0.024": 0.0,
			"-0.023": 0.0,
			"-0.022": 0.0,
			"-0.021": 0.0,
			"-0.02": 0.0,
			"-0.019": 0.0,
			"-0.018": 0.0,
			"-0.017": 0.0,
			"-0.016": 0.0,
			"-0.015": 0.224114466861,
			"-0.014": 1.13024810266,
			"-0.013": 1.39102496452,
			"-0.012": 1.33966033127,
			"-0.011": 1.87599248766,
			"-0.01": 1.90524008742,
			"-0.009": 1.94780693616,
			"-0.008": 2.01984473943,
			"-0.007": 2.29487485503,
			"-0.006": 4.32035323534,
			"-0.005": 7.29408174784,
			"-0.004": 12.7152197935,
			"-0.003": 21.8111785554,
			"-0.002": 27.4197752482,
			"-0.001": 31.7744135046,
			"0.0": 24.6723377837,
			"0.001": 19.8185197611,
			"0.002": 13.3593197304,
			"0.003": 14.1561348795,
			"0.004": 15.6361199077,
			"0.005": 11.013886889,
			"0.006": 4.17302753696,
			"0.007": 2.16410129132,
			"0.008": 2.95216952875,
			"0.009": 2.16096401752,
			"0.01": 2.19214736495,
			"0.011": 2.41986487063,
			"0.012": 2.54702267319,
			"0.013": 2.85815884836,
			"0.014": 0.0624367539237,
			"0.015": 0.0,
			"0.016": 0.0,
			"0.017": 0.0,
			"0.018": 0.0,
			"0.019": 0.0,
			"0.02": 0.0,
			"0.021": 0.0,
			"0.022": 0.0,
			"0.023": 0.0,
			"0.024": 0.0,
			"0.025": 0.0
		}
	}
}
