{
	 "smiles": "ClCC(=O)NC(=O)NC12CC3CC(CC(C3)C1)C2", 
	 "Tm": 443.15, 
	 "num_atms": 37, 
	 "gaussian": { 
		 "optdone": 1, 
		 "sigma_profile": "yes", 
		 "theory": "DFT", 
		 "functional": "B3LYP", 
		 "basiset": "6-31G**", 
		 "properties": { 
			 "R2extent": 6873.9325, 
			 "electric_dipole_moment_norm": 7.53140397204, 
			 "electric_quadrupole_moment_norm": 19.7091866369, 
			 "total_energy": -1227.04043981, 
			 "HOMO_LUMO_gap": 0.24948, 
			 "cosmo_polarized_energy": -15.67, 
			 "cosmo_cavitation_energy": 37.08, 
			 "cosmo_dispersion_energy": -27.36, 
			 "cosmo_repulsion_energy": 2.1, 
			 "cosmo_total_nonelectrostatic_energy": 11.81, 
			 "SMD_solvation_energy": 5.65 
		},
		"coords": [
			{
				"x": 0.1186516953,
				"y": -1.7954709602,
				"z": 5.9780675573,
				"element": "Cl" 
			},
			{
				"x": 0.4049811446,
				"y": -0.7507106138,
				"z": 4.5477521984,
				"element": "C" 
			},
			{
				"x": -0.280905136,
				"y": -1.3044638995,
				"z": 3.3028144195,
				"element": "C" 
			},
			{
				"x": -0.9435204466,
				"y": -2.3205227753,
				"z": 3.2766752842,
				"element": "O" 
			},
			{
				"x": -0.1227965559,
				"y": -0.5761630936,
				"z": 2.1164104773,
				"element": "N" 
			},
			{
				"x": 0.5821456818,
				"y": 0.6139935081,
				"z": 1.90008747,
				"element": "C" 
			},
			{
				"x": 1.1778563585,
				"y": 1.1929126132,
				"z": 2.8033258779,
				"element": "O" 
			},
			{
				"x": 0.5719369211,
				"y": 1.1062768844,
				"z": 0.6215259766,
				"element": "N" 
			},
			{
				"x": -0.0097990098,
				"y": 0.6387202581,
				"z": -0.6522355456,
				"element": "C" 
			},
			{
				"x": -1.5592317046,
				"y": 0.5865327313,
				"z": -0.6144450918,
				"element": "C" 
			},
			{
				"x": -2.1113970354,
				"y": 0.1919126415,
				"z": -2.0015536452,
				"element": "C" 
			},
			{
				"x": -1.6867697576,
				"y": 1.247479394,
				"z": -3.0418271862,
				"element": "C" 
			},
			{
				"x": -0.1474493252,
				"y": 1.3128797373,
				"z": -3.102901002,
				"element": "C" 
			},
			{
				"x": 0.4109617076,
				"y": -0.0625713302,
				"z": -3.51992131,
				"element": "C" 
			},
			{
				"x": -0.0100832286,
				"y": -1.12032917,
				"z": -2.4803845324,
				"element": "C" 
			},
			{
				"x": -1.5499250998,
				"y": -1.1875879057,
				"z": -2.4053277488,
				"element": "C" 
			},
			{
				"x": 0.556864216,
				"y": -0.7346281976,
				"z": -1.0966855177,
				"element": "C" 
			},
			{
				"x": 0.403515307,
				"y": 1.6888133595,
				"z": -1.7135776911,
				"element": "C" 
			},
			{
				"x": 0.0400080387,
				"y": 0.2517501976,
				"z": 4.7684351792,
				"element": "H" 
			},
			{
				"x": 1.4790021006,
				"y": -0.6674081596,
				"z": 4.3852835309,
				"element": "H" 
			},
			{
				"x": -0.610597726,
				"y": -1.0158896003,
				"z": 1.348487361,
				"element": "H" 
			},
			{
				"x": 1.1094657095,
				"y": 1.9615594267,
				"z": 0.5801406107,
				"element": "H" 
			},
			{
				"x": -1.9400594804,
				"y": 1.5685324957,
				"z": -0.3090865147,
				"element": "H" 
			},
			{
				"x": -1.9161465617,
				"y": -0.1309125323,
				"z": 0.1341285912,
				"element": "H" 
			},
			{
				"x": -3.2056318196,
				"y": 0.1446003312,
				"z": -1.9475208674,
				"element": "H" 
			},
			{
				"x": -2.0914546382,
				"y": 0.9895635761,
				"z": -4.0284615735,
				"element": "H" 
			},
			{
				"x": -2.0984432928,
				"y": 2.2292379721,
				"z": -2.774542845,
				"element": "H" 
			},
			{
				"x": 0.1643049854,
				"y": 2.0760573043,
				"z": -3.8261007599,
				"element": "H" 
			},
			{
				"x": 0.0321861711,
				"y": -0.3365628835,
				"z": -4.5124921961,
				"element": "H" 
			},
			{
				"x": 1.5051574713,
				"y": -0.0212226312,
				"z": -3.5958799621,
				"element": "H" 
			},
			{
				"x": 0.3894364653,
				"y": -2.1005415587,
				"z": -2.7668537325,
				"element": "H" 
			},
			{
				"x": -1.8609793987,
				"y": -1.950499789,
				"z": -1.6796052488,
				"element": "H" 
			},
			{
				"x": -1.959978632,
				"y": -1.4895007616,
				"z": -3.3770972426,
				"element": "H" 
			},
			{
				"x": 0.3110853187,
				"y": -1.5199004912,
				"z": -0.3721782639,
				"element": "H" 
			},
			{
				"x": 1.6513600991,
				"y": -0.6732328464,
				"z": -1.1288294557,
				"element": "H" 
			},
			{
				"x": 1.4993170258,
				"y": 1.7539592558,
				"z": -1.7453370022,
				"element": "H" 
			},
			{
				"x": 0.0254324314,
				"y": 2.6739375129,
				"z": -1.4093895992,
				"element": "H" 
			}
		],
		 "valence_orbital": [ 
			{
				"type": "occ",
				"energy": -0.2883,
				"method": "rhf"
			},
			{
				"type": "occ",
				"energy": -0.28441,
				"method": "rhf"
			},
			{
				"type": "occ",
				"energy": -0.27968,
				"method": "rhf"
			},
			{
				"type": "occ",
				"energy": -0.26909,
				"method": "rhf"
			},
			{
				"type": "occ",
				"energy": -0.26146,
				"method": "rhf"
			},
			{
				"type": "unocc",
				"energy": -0.01198,
				"method": "rhf"
			},
			{
				"type": "unocc",
				"energy": 0.03402,
				"method": "rhf"
			},
			{
				"type": "unocc",
				"energy": 0.04449,
				"method": "rhf"
			},
			{
				"type": "unocc",
				"energy": 0.05659,
				"method": "rhf"
			},
			{
				"type": "unocc",
				"energy": 0.07883,
				"method": "rhf"
			}
		],
		"cosmo_sigma_profile": { 
			"-0.025": 0.0,
			"-0.024": 0.0,
			"-0.023": 0.0,
			"-0.022": 0.0,
			"-0.021": 0.0,
			"-0.02": 0.0,
			"-0.019": 0.0,
			"-0.018": 0.0,
			"-0.017": 0.0,
			"-0.016": 0.0,
			"-0.015": 0.0,
			"-0.014": 0.0,
			"-0.013": 0.753208797799,
			"-0.012": 1.55300475434,
			"-0.011": 1.82579605075,
			"-0.01": 1.88164485021,
			"-0.009": 3.02084441958,
			"-0.008": 5.84142957525,
			"-0.007": 5.9201510702,
			"-0.006": 6.18880104703,
			"-0.005": 7.21825092899,
			"-0.004": 9.84346139726,
			"-0.003": 26.4156824039,
			"-0.002": 46.9616522325,
			"-0.001": 46.4208275332,
			"0.0": 36.2777417359,
			"0.001": 19.0704886134,
			"0.002": 9.5055169557,
			"0.003": 5.44038506709,
			"0.004": 6.01489777659,
			"0.005": 8.42879692592,
			"0.006": 9.12690151091,
			"0.007": 3.86149026215,
			"0.008": 3.36952188515,
			"0.009": 3.26398607234,
			"0.01": 3.52467388042,
			"0.011": 6.08129611568,
			"0.012": 6.29324958595,
			"0.013": 4.62472698243,
			"0.014": 1.35113607527,
			"0.015": 0.0,
			"0.016": 0.0,
			"0.017": 0.0,
			"0.018": 0.0,
			"0.019": 0.0,
			"0.02": 0.0,
			"0.021": 0.0,
			"0.022": 0.0,
			"0.023": 0.0,
			"0.024": 0.0,
			"0.025": 0.0
		}
	}
}
