{
	 "smiles": "CC(N)C1=CC=C(OCC(N)=O)C=C1", 
	 "Tm": 401.15, 
	 "num_atms": 28, 
	 "gaussian": { 
		 "optdone": 1, 
		 "sigma_profile": "yes", 
		 "theory": "DFT", 
		 "functional": "B3LYP", 
		 "basiset": "6-31G**", 
		 "properties": { 
			 "R2extent": 4997.8403, 
			 "electric_dipole_moment_norm": 2.74676016245, 
			 "electric_quadrupole_moment_norm": 22.6963434586, 
			 "total_energy": -649.459449332, 
			 "HOMO_LUMO_gap": 0.20863, 
			 "cosmo_polarized_energy": -16.51, 
			 "cosmo_cavitation_energy": 31.44, 
			 "cosmo_dispersion_energy": -22.37, 
			 "cosmo_repulsion_energy": 1.81, 
			 "cosmo_total_nonelectrostatic_energy": 10.88, 
			 "SMD_solvation_energy": 5.21 
		},
		"coords": [
			{
				"x": 1.0426394963,
				"y": 1.1926371922,
				"z": -2.6409357916,
				"element": "C" 
			},
			{
				"x": -0.4431886373,
				"y": 0.9954922956,
				"z": -2.3091178462,
				"element": "C" 
			},
			{
				"x": -1.1615904923,
				"y": 0.6651371723,
				"z": -3.5503436583,
				"element": "N" 
			},
			{
				"x": -0.6396510331,
				"y": 0.005349715,
				"z": -1.1613107638,
				"element": "C" 
			},
			{
				"x": -1.063716201,
				"y": 0.4390661702,
				"z": 0.0965749171,
				"element": "C" 
			},
			{
				"x": -1.241862028,
				"y": -0.4452729963,
				"z": 1.1662126885,
				"element": "C" 
			},
			{
				"x": -0.9852111536,
				"y": -1.8051716241,
				"z": 0.9756716355,
				"element": "C" 
			},
			{
				"x": -1.1295351563,
				"y": -2.774799262,
				"z": 1.9443628409,
				"element": "O" 
			},
			{
				"x": -1.3552060359,
				"y": -2.3582572232,
				"z": 3.2859422994,
				"element": "C" 
			},
			{
				"x": -2.8129729839,
				"y": -1.9982487721,
				"z": 3.6041973596,
				"element": "C" 
			},
			{
				"x": -3.7276041464,
				"y": -2.574765195,
				"z": 2.7807426837,
				"element": "N" 
			},
			{
				"x": -3.0883717146,
				"y": -1.2941531222,
				"z": 4.5642100963,
				"element": "O" 
			},
			{
				"x": -0.5630062726,
				"y": -2.2649614919,
				"z": -0.2791654079,
				"element": "C" 
			},
			{
				"x": -0.3969280841,
				"y": -1.368272015,
				"z": -1.3271150462,
				"element": "C" 
			},
			{
				"x": 1.4948983827,
				"y": 0.2519798629,
				"z": -2.9779208433,
				"element": "H" 
			},
			{
				"x": 1.1534845339,
				"y": 1.9304173316,
				"z": -3.4406191287,
				"element": "H" 
			},
			{
				"x": 1.5993270453,
				"y": 1.5302114597,
				"z": -1.7622071089,
				"element": "H" 
			},
			{
				"x": -0.8398495401,
				"y": 1.9619522264,
				"z": -1.9709612113,
				"element": "H" 
			},
			{
				"x": -0.7725176784,
				"y": -0.1819452272,
				"z": -3.9603030607,
				"element": "H" 
			},
			{
				"x": -2.1347082258,
				"y": 0.455245823,
				"z": -3.3384381129,
				"element": "H" 
			},
			{
				"x": -1.2680315915,
				"y": 1.4956003085,
				"z": 0.2549142142,
				"element": "H" 
			},
			{
				"x": -1.5904676046,
				"y": -0.0641650637,
				"z": 2.1193990268,
				"element": "H" 
			},
			{
				"x": -0.7232889976,
				"y": -1.5105623296,
				"z": 3.5668165565,
				"element": "H" 
			},
			{
				"x": -1.0755574955,
				"y": -3.2126725704,
				"z": 3.9104769641,
				"element": "H" 
			},
			{
				"x": -3.4305695008,
				"y": -3.0792406914,
				"z": 1.9602765542,
				"element": "H" 
			},
			{
				"x": -4.7026593204,
				"y": -2.3548418219,
				"z": 2.9127440487,
				"element": "H" 
			},
			{
				"x": -0.3664091267,
				"y": -3.3249370644,
				"z": -0.4058917024,
				"element": "H" 
			},
			{
				"x": -0.0704464376,
				"y": -1.7473230872,
				"z": -2.2928122033,
				"element": "H" 
			}
		],
		 "valence_orbital": [ 
			{
				"type": "occ",
				"energy": -0.27295,
				"method": "rhf"
			},
			{
				"type": "occ",
				"energy": -0.25744,
				"method": "rhf"
			},
			{
				"type": "occ",
				"energy": -0.2562,
				"method": "rhf"
			},
			{
				"type": "occ",
				"energy": -0.24175,
				"method": "rhf"
			},
			{
				"type": "occ",
				"energy": -0.21799,
				"method": "rhf"
			},
			{
				"type": "unocc",
				"energy": -0.00936,
				"method": "rhf"
			},
			{
				"type": "unocc",
				"energy": 0.00442,
				"method": "rhf"
			},
			{
				"type": "unocc",
				"energy": 0.02211,
				"method": "rhf"
			},
			{
				"type": "unocc",
				"energy": 0.07555,
				"method": "rhf"
			},
			{
				"type": "unocc",
				"energy": 0.08164,
				"method": "rhf"
			}
		],
		"cosmo_sigma_profile": { 
			"-0.025": 0.0,
			"-0.024": 0.0,
			"-0.023": 0.0,
			"-0.022": 0.0,
			"-0.021": 0.0,
			"-0.02": 0.0,
			"-0.019": 0.0,
			"-0.018": 0.0,
			"-0.017": 0.0,
			"-0.016": 0.0,
			"-0.015": 0.106858360048,
			"-0.014": 1.32910723504,
			"-0.013": 1.360836593,
			"-0.012": 2.03920766618,
			"-0.011": 2.14998733924,
			"-0.01": 2.51147776907,
			"-0.009": 4.06059432166,
			"-0.008": 6.70451666759,
			"-0.007": 8.82082639742,
			"-0.006": 12.3819042446,
			"-0.005": 14.7633281636,
			"-0.004": 17.9140963757,
			"-0.003": 19.1722440332,
			"-0.002": 16.5735760581,
			"-0.001": 16.9387781269,
			"0.0": 15.2796734599,
			"0.001": 18.0428601312,
			"0.002": 13.1375801095,
			"0.003": 12.6324419174,
			"0.004": 10.888827631,
			"0.005": 12.2072421337,
			"0.006": 8.26630937814,
			"0.007": 3.04103879603,
			"0.008": 2.37042320932,
			"0.009": 2.49757942083,
			"0.01": 1.92029492128,
			"0.011": 2.04168953461,
			"0.012": 3.36294901958,
			"0.013": 5.0415381688,
			"0.014": 5.51727023595,
			"0.015": 1.53016421517,
			"0.016": 0.0916906861838,
			"0.017": 0.438527487654,
			"0.018": 1.08639316523,
			"0.019": 0.345454572045,
			"0.02": 0.251261931073,
			"0.021": 0.0,
			"0.022": 0.0,
			"0.023": 0.0,
			"0.024": 0.0,
			"0.025": 0.0
		}
	}
}
