{
	 "smiles": "CC(C)(C)C(=O)C=CC1=CC=C(Br)S1", 
	 "Tm": 318.15, 
	 "num_atms": 27, 
	 "gaussian": { 
		 "optdone": 1, 
		 "sigma_profile": "yes", 
		 "theory": "DFT", 
		 "functional": "B3LYP", 
		 "basiset": "6-31G**", 
		 "properties": { 
			 "R2extent": 8750.9783, 
			 "electric_dipole_moment_norm": 1.93802318614, 
			 "electric_quadrupole_moment_norm": 5.24467022414, 
			 "total_energy": -3471.79450614, 
			 "HOMO_LUMO_gap": 0.14262, 
			 "cosmo_polarized_energy": -6.71, 
			 "cosmo_cavitation_energy": 33.8, 
			 "cosmo_dispersion_energy": -25.1, 
			 "cosmo_repulsion_energy": 1.93, 
			 "cosmo_total_nonelectrostatic_energy": 10.63, 
			 "SMD_solvation_energy": 4.97 
		},
		"coords": [
			{
				"x": 2.5271190711,
				"y": 1.880602276,
				"z": 2.6371689087,
				"element": "C" 
			},
			{
				"x": 1.0695817437,
				"y": 1.9265818016,
				"z": 2.1518308097,
				"element": "C" 
			},
			{
				"x": 0.866155418,
				"y": 3.1714240334,
				"z": 1.2569276788,
				"element": "C" 
			},
			{
				"x": 0.1242067566,
				"y": 1.9969792425,
				"z": 3.3737758578,
				"element": "C" 
			},
			{
				"x": 0.7667771147,
				"y": 0.6454993247,
				"z": 1.3344292617,
				"element": "C" 
			},
			{
				"x": 1.6448304938,
				"y": -0.1990366724,
				"z": 1.1719162609,
				"element": "O" 
			},
			{
				"x": -0.5938461654,
				"y": 0.5097599954,
				"z": 0.7835038902,
				"element": "C" 
			},
			{
				"x": -1.1388423835,
				"y": -0.4897615253,
				"z": 0.0350629989,
				"element": "C" 
			},
			{
				"x": -0.6364233107,
				"y": -1.7383880983,
				"z": -0.4867129574,
				"element": "C" 
			},
			{
				"x": 0.5870612081,
				"y": -2.3844830582,
				"z": -0.4195249572,
				"element": "C" 
			},
			{
				"x": 0.6173195346,
				"y": -3.6256706524,
				"z": -1.1028334138,
				"element": "C" 
			},
			{
				"x": -0.5842566955,
				"y": -3.9286939387,
				"z": -1.6928835813,
				"element": "C" 
			},
			{
				"x": -0.9854424594,
				"y": -5.4712746651,
				"z": -2.6955193847,
				"element": "Br" 
			},
			{
				"x": -1.7792628095,
				"y": -2.7073540526,
				"z": -1.4283267603,
				"element": "S" 
			},
			{
				"x": 2.7558674444,
				"y": 2.7811682455,
				"z": 3.2168418528,
				"element": "H" 
			},
			{
				"x": 3.2225910255,
				"y": 1.8228340032,
				"z": 1.7959525437,
				"element": "H" 
			},
			{
				"x": 2.7066545255,
				"y": 1.0063199038,
				"z": 3.2680966006,
				"element": "H" 
			},
			{
				"x": -0.1663419023,
				"y": 3.2747625556,
				"z": 0.9099438522,
				"element": "H" 
			},
			{
				"x": 1.5159529068,
				"y": 3.1352428619,
				"z": 0.3762563482,
				"element": "H" 
			},
			{
				"x": 1.1166229772,
				"y": 4.0768151554,
				"z": 1.8207460672,
				"element": "H" 
			},
			{
				"x": -0.9290436775,
				"y": 2.0680020177,
				"z": 3.0861468348,
				"element": "H" 
			},
			{
				"x": 0.3622546647,
				"y": 2.881677703,
				"z": 3.9745850948,
				"element": "H" 
			},
			{
				"x": 0.240396337,
				"y": 1.1164093182,
				"z": 4.0142557636,
				"element": "H" 
			},
			{
				"x": -1.2695681985,
				"y": 1.3297077088,
				"z": 1.0048356873,
				"element": "H" 
			},
			{
				"x": -2.1815651238,
				"y": -0.314133419,
				"z": -0.2312515877,
				"element": "H" 
			},
			{
				"x": 1.4198310646,
				"y": -1.9500372496,
				"z": 0.1149532742,
				"element": "H" 
			},
			{
				"x": 1.4846704395,
				"y": -4.2713528149,
				"z": -1.1601769438,
				"element": "H" 
			}
		],
		 "valence_orbital": [ 
			{
				"type": "occ",
				"energy": -0.30152,
				"method": "rhf"
			},
			{
				"type": "occ",
				"energy": -0.29058,
				"method": "rhf"
			},
			{
				"type": "occ",
				"energy": -0.26614,
				"method": "rhf"
			},
			{
				"type": "occ",
				"energy": -0.24153,
				"method": "rhf"
			},
			{
				"type": "occ",
				"energy": -0.22245,
				"method": "rhf"
			},
			{
				"type": "unocc",
				"energy": -0.07983,
				"method": "rhf"
			},
			{
				"type": "unocc",
				"energy": -0.00889,
				"method": "rhf"
			},
			{
				"type": "unocc",
				"energy": -0.0072,
				"method": "rhf"
			},
			{
				"type": "unocc",
				"energy": 0.00629,
				"method": "rhf"
			},
			{
				"type": "unocc",
				"energy": 0.0442,
				"method": "rhf"
			}
		],
		"cosmo_sigma_profile": { 
			"-0.025": 0.0,
			"-0.024": 0.0,
			"-0.023": 0.0,
			"-0.022": 0.0,
			"-0.021": 0.0,
			"-0.02": 0.0,
			"-0.019": 0.0,
			"-0.018": 0.0,
			"-0.017": 0.0,
			"-0.016": 0.0,
			"-0.015": 0.0,
			"-0.014": 0.0,
			"-0.013": 0.0,
			"-0.012": 0.0,
			"-0.011": 0.0,
			"-0.01": 0.0,
			"-0.009": 0.206664235633,
			"-0.008": 3.36695002751,
			"-0.007": 6.37703351421,
			"-0.006": 7.50489082864,
			"-0.005": 8.0397228016,
			"-0.004": 11.1051775396,
			"-0.003": 23.8450530703,
			"-0.002": 27.0693343917,
			"-0.001": 27.5351675833,
			"0.0": 34.2808800235,
			"0.001": 38.143120481,
			"0.002": 31.8315339825,
			"0.003": 30.1569534715,
			"0.004": 8.224318783,
			"0.005": 2.73682078924,
			"0.006": 2.2224121726,
			"0.007": 2.22782891783,
			"0.008": 1.50388197451,
			"0.009": 1.71963461279,
			"0.01": 1.67041875466,
			"0.011": 1.39457542269,
			"0.012": 1.35308309952,
			"0.013": 0.733041366169,
			"0.014": 0.0,
			"0.015": 0.0,
			"0.016": 0.0,
			"0.017": 0.0,
			"0.018": 0.0,
			"0.019": 0.0,
			"0.02": 0.0,
			"0.021": 0.0,
			"0.022": 0.0,
			"0.023": 0.0,
			"0.024": 0.0,
			"0.025": 0.0
		}
	}
}
