{
	 "smiles": "CC1=CC(F)=C(C=C1)S(Cl)(=O)=O", 
	 "Tm": 313.15, 
	 "num_atms": 18, 
	 "gaussian": { 
		 "optdone": 1, 
		 "sigma_profile": "yes", 
		 "theory": "DFT", 
		 "functional": "B3LYP", 
		 "basiset": "6-31G**", 
		 "properties": { 
			 "R2extent": 3719.9448, 
			 "electric_dipole_moment_norm": 6.58870308407, 
			 "electric_quadrupole_moment_norm": 9.88168157805, 
			 "total_energy": -1378.95506325, 
			 "HOMO_LUMO_gap": 0.18997, 
			 "cosmo_polarized_energy": -9.5, 
			 "cosmo_cavitation_energy": 26.07, 
			 "cosmo_dispersion_energy": -19.52, 
			 "cosmo_repulsion_energy": 1.49, 
			 "cosmo_total_nonelectrostatic_energy": 8.05, 
			 "SMD_solvation_energy": 3.73 
		},
		"coords": [
			{
				"x": -1.8278437016,
				"y": -2.2365107676,
				"z": -1.5926359512,
				"element": "C" 
			},
			{
				"x": -0.9999415624,
				"y": -1.4603964946,
				"z": -0.5989604509,
				"element": "C" 
			},
			{
				"x": -1.0518033909,
				"y": -1.7753133543,
				"z": 0.7650600441,
				"element": "C" 
			},
			{
				"x": -0.2676836815,
				"y": -1.0780344859,
				"z": 1.6727050272,
				"element": "C" 
			},
			{
				"x": -0.3219021341,
				"y": -1.4059070883,
				"z": 2.9678326112,
				"element": "F" 
			},
			{
				"x": 0.5805000075,
				"y": -0.0532787116,
				"z": 1.2436711134,
				"element": "C" 
			},
			{
				"x": 0.6443290482,
				"y": 0.2668846453,
				"z": -0.1155354414,
				"element": "C" 
			},
			{
				"x": -0.1448305949,
				"y": -0.431221895,
				"z": -1.0236807303,
				"element": "C" 
			},
			{
				"x": 1.549133613,
				"y": 0.8993756879,
				"z": 2.3961463362,
				"element": "S" 
			},
			{
				"x": 2.9937771101,
				"y": -0.5348792122,
				"z": 3.0156970709,
				"element": "Cl" 
			},
			{
				"x": 2.2777031942,
				"y": 1.9160128623,
				"z": 1.6468781515,
				"element": "O" 
			},
			{
				"x": 0.7607922805,
				"y": 1.2280121318,
				"z": 3.5742322868,
				"element": "O" 
			},
			{
				"x": -1.2699882152,
				"y": -3.1047531604,
				"z": -1.9641830364,
				"element": "H" 
			},
			{
				"x": -2.7512356611,
				"y": -2.6093340919,
				"z": -1.1414491775,
				"element": "H" 
			},
			{
				"x": -2.0904675178,
				"y": -1.6218900927,
				"z": -2.4578348277,
				"element": "H" 
			},
			{
				"x": -1.6982336806,
				"y": -2.5621948985,
				"z": 1.1399452111,
				"element": "H" 
			},
			{
				"x": 1.3053962777,
				"y": 1.0630738972,
				"z": -0.4379931293,
				"element": "H" 
			},
			{
				"x": -0.0982013909,
				"y": -0.1727449715,
				"z": -2.0770951076,
				"element": "H" 
			}
		],
		 "valence_orbital": [ 
			{
				"type": "occ",
				"energy": -0.33507,
				"method": "rhf"
			},
			{
				"type": "occ",
				"energy": -0.33175,
				"method": "rhf"
			},
			{
				"type": "occ",
				"energy": -0.31141,
				"method": "rhf"
			},
			{
				"type": "occ",
				"energy": -0.28838,
				"method": "rhf"
			},
			{
				"type": "occ",
				"energy": -0.27704,
				"method": "rhf"
			},
			{
				"type": "unocc",
				"energy": -0.08707,
				"method": "rhf"
			},
			{
				"type": "unocc",
				"energy": -0.04782,
				"method": "rhf"
			},
			{
				"type": "unocc",
				"energy": -0.03395,
				"method": "rhf"
			},
			{
				"type": "unocc",
				"energy": 0.04064,
				"method": "rhf"
			},
			{
				"type": "unocc",
				"energy": 0.06774,
				"method": "rhf"
			}
		],
		"cosmo_sigma_profile": { 
			"-0.025": 0.0,
			"-0.024": 0.0,
			"-0.023": 0.0,
			"-0.022": 0.0,
			"-0.021": 0.0,
			"-0.02": 0.0,
			"-0.019": 0.0,
			"-0.018": 0.0,
			"-0.017": 0.0,
			"-0.016": 0.0,
			"-0.015": 0.0,
			"-0.014": 0.0,
			"-0.013": 0.0,
			"-0.012": 0.0,
			"-0.011": 0.0,
			"-0.01": 0.0,
			"-0.009": 0.531354846366,
			"-0.008": 3.79579005381,
			"-0.007": 6.12152024218,
			"-0.006": 10.3178150145,
			"-0.005": 11.812941313,
			"-0.004": 10.9521830605,
			"-0.003": 16.2002627931,
			"-0.002": 20.3406259131,
			"-0.001": 22.9949229915,
			"0.0": 17.3444415823,
			"0.001": 16.3593116421,
			"0.002": 17.2012680676,
			"0.003": 20.9675248771,
			"0.004": 8.24632874864,
			"0.005": 3.09869638011,
			"0.006": 4.2234026345,
			"0.007": 7.14923653127,
			"0.008": 10.3060080918,
			"0.009": 3.73419735157,
			"0.01": 0.0,
			"0.011": 0.0,
			"0.012": 0.0,
			"0.013": 0.0,
			"0.014": 0.0,
			"0.015": 0.0,
			"0.016": 0.0,
			"0.017": 0.0,
			"0.018": 0.0,
			"0.019": 0.0,
			"0.02": 0.0,
			"0.021": 0.0,
			"0.022": 0.0,
			"0.023": 0.0,
			"0.024": 0.0,
			"0.025": 0.0
		}
	}
}
