{
	 "smiles": "FC1=CC(NC(=O)C=C)=CC(F)=C1", 
	 "Tm": 429.15, 
	 "num_atms": 20, 
	 "gaussian": { 
		 "optdone": 1, 
		 "sigma_profile": "yes", 
		 "theory": "DFT", 
		 "functional": "B3LYP", 
		 "basiset": "6-31G**", 
		 "properties": { 
			 "R2extent": 3906.3269, 
			 "electric_dipole_moment_norm": 4.00912927953, 
			 "electric_quadrupole_moment_norm": 13.2538856857, 
			 "total_energy": -676.812977035, 
			 "HOMO_LUMO_gap": 0.178, 
			 "cosmo_polarized_energy": -12.31, 
			 "cosmo_cavitation_energy": 26.31, 
			 "cosmo_dispersion_energy": -18.82, 
			 "cosmo_repulsion_energy": 1.42, 
			 "cosmo_total_nonelectrostatic_energy": 8.91, 
			 "SMD_solvation_energy": 6.85 
		},
		"coords": [
			{
				"x": 4.4134275793,
				"y": -1.4860605596,
				"z": 0.0297300445,
				"element": "F" 
			},
			{
				"x": 3.2210564881,
				"y": -1.2192702657,
				"z": 0.598063086,
				"element": "C" 
			},
			{
				"x": 2.6062112166,
				"y": -0.0111021353,
				"z": 0.3065290502,
				"element": "C" 
			},
			{
				"x": 1.3617569092,
				"y": 0.2778785934,
				"z": 0.8938963061,
				"element": "C" 
			},
			{
				"x": 0.774414467,
				"y": 1.5121337121,
				"z": 0.5716288729,
				"element": "N" 
			},
			{
				"x": -0.43008994,
				"y": 2.039975868,
				"z": 1.004681577,
				"element": "C" 
			},
			{
				"x": -1.1893362758,
				"y": 1.4650013741,
				"z": 1.7743966466,
				"element": "O" 
			},
			{
				"x": -0.7179907193,
				"y": 3.3925507542,
				"z": 0.4397293504,
				"element": "C" 
			},
			{
				"x": -1.8418689039,
				"y": 4.0344341254,
				"z": 0.7632567167,
				"element": "C" 
			},
			{
				"x": 0.7593637557,
				"y": -0.6474865088,
				"z": 1.7598486035,
				"element": "C" 
			},
			{
				"x": 1.4305052939,
				"y": -1.838481683,
				"z": 2.0083668495,
				"element": "C" 
			},
			{
				"x": 0.8552566902,
				"y": -2.7287123414,
				"z": 2.8389513576,
				"element": "F" 
			},
			{
				"x": 2.6610877746,
				"y": -2.1642874319,
				"z": 1.4494279287,
				"element": "C" 
			},
			{
				"x": 3.0956407653,
				"y": 0.6850290264,
				"z": -0.3666263517,
				"element": "H" 
			},
			{
				"x": 1.3101835764,
				"y": 2.0866200757,
				"z": -0.0629152215,
				"element": "H" 
			},
			{
				"x": 0.0061338417,
				"y": 3.8406610426,
				"z": -0.2386308588,
				"element": "H" 
			},
			{
				"x": -2.0747675455,
				"y": 5.0171033766,
				"z": 0.3668943547,
				"element": "H" 
			},
			{
				"x": -2.5515559006,
				"y": 3.5705062655,
				"z": 1.4415510385,
				"element": "H" 
			},
			{
				"x": -0.1955454109,
				"y": -0.4409049016,
				"z": 2.2187160041,
				"element": "H" 
			},
			{
				"x": 3.1560163379,
				"y": -3.1022883867,
				"z": 1.665304645,
				"element": "H" 
			}
		],
		 "valence_orbital": [ 
			{
				"type": "occ",
				"energy": -0.31138,
				"method": "rhf"
			},
			{
				"type": "occ",
				"energy": -0.2873,
				"method": "rhf"
			},
			{
				"type": "occ",
				"energy": -0.26728,
				"method": "rhf"
			},
			{
				"type": "occ",
				"energy": -0.24915,
				"method": "rhf"
			},
			{
				"type": "occ",
				"energy": -0.23405,
				"method": "rhf"
			},
			{
				"type": "unocc",
				"energy": -0.05605,
				"method": "rhf"
			},
			{
				"type": "unocc",
				"energy": -0.00226,
				"method": "rhf"
			},
			{
				"type": "unocc",
				"energy": 0.00289,
				"method": "rhf"
			},
			{
				"type": "unocc",
				"energy": 0.05442,
				"method": "rhf"
			},
			{
				"type": "unocc",
				"energy": 0.08468,
				"method": "rhf"
			}
		],
		"cosmo_sigma_profile": { 
			"-0.025": 0.0,
			"-0.024": 0.0,
			"-0.023": 0.0,
			"-0.022": 0.0,
			"-0.021": 0.0,
			"-0.02": 0.0,
			"-0.019": 0.0,
			"-0.018": 0.0,
			"-0.017": 0.00246883223496,
			"-0.016": 1.17744870116,
			"-0.015": 1.74380054219,
			"-0.014": 1.79351973643,
			"-0.013": 1.45675170977,
			"-0.012": 1.46323901852,
			"-0.011": 1.46257083874,
			"-0.01": 1.35912286153,
			"-0.009": 2.25090480935,
			"-0.008": 5.0328483237,
			"-0.007": 6.12117973836,
			"-0.006": 5.69761408321,
			"-0.005": 8.34232978683,
			"-0.004": 7.50023248251,
			"-0.003": 9.71689982558,
			"-0.002": 10.4945172129,
			"-0.001": 11.6796601198,
			"0.0": 18.5618411179,
			"0.001": 26.3349099336,
			"0.002": 26.9111321624,
			"0.003": 19.0756927445,
			"0.004": 24.0500770794,
			"0.005": 4.57274785339,
			"0.006": 1.76581447901,
			"0.007": 1.60915596402,
			"0.008": 1.48592958322,
			"0.009": 1.93854011156,
			"0.01": 1.81178345773,
			"0.011": 2.02668846042,
			"0.012": 2.90215975617,
			"0.013": 1.63723323482,
			"0.014": 0.0,
			"0.015": 0.0,
			"0.016": 0.0,
			"0.017": 0.0,
			"0.018": 0.0,
			"0.019": 0.0,
			"0.02": 0.0,
			"0.021": 0.0,
			"0.022": 0.0,
			"0.023": 0.0,
			"0.024": 0.0,
			"0.025": 0.0
		}
	}
}
