{
	 "smiles": "CC(=NO)C1=CC=C(S1)C1=CC(Br)=CC=C1", 
	 "Tm": 442.15, 
	 "num_atms": 26, 
	 "gaussian": { 
		 "optdone": 1, 
		 "sigma_profile": "yes", 
		 "theory": "DFT", 
		 "functional": "B3LYP", 
		 "basiset": "6-31G**", 
		 "properties": { 
			 "R2extent": 10333.305, 
			 "electric_dipole_moment_norm": 1.22948786493, 
			 "electric_quadrupole_moment_norm": 16.0292674178, 
			 "total_energy": -3562.8116201, 
			 "HOMO_LUMO_gap": 0.14889, 
			 "cosmo_polarized_energy": -9.43, 
			 "cosmo_cavitation_energy": 34.24, 
			 "cosmo_dispersion_energy": -25.98, 
			 "cosmo_repulsion_energy": 1.98, 
			 "cosmo_total_nonelectrostatic_energy": 10.23, 
			 "SMD_solvation_energy": 4.39 
		},
		"coords": [
			{
				"x": -4.0579076792,
				"y": -0.0899022292,
				"z": -0.8892748422,
				"element": "C" 
			},
			{
				"x": -3.0465295978,
				"y": 0.8832130956,
				"z": -0.3264235945,
				"element": "C" 
			},
			{
				"x": -3.5846257451,
				"y": 1.8864293482,
				"z": 0.2888222125,
				"element": "N" 
			},
			{
				"x": -2.6572802517,
				"y": 2.7950846205,
				"z": 0.8142316992,
				"element": "O" 
			},
			{
				"x": -1.6219252145,
				"y": 0.6174081787,
				"z": -0.518764148,
				"element": "C" 
			},
			{
				"x": -0.4970719797,
				"y": 1.3175144323,
				"z": -0.1171548398,
				"element": "C" 
			},
			{
				"x": 0.7193624983,
				"y": 0.7107149725,
				"z": -0.5112778659,
				"element": "C" 
			},
			{
				"x": 0.5592291129,
				"y": -0.4626015014,
				"z": -1.2188158683,
				"element": "C" 
			},
			{
				"x": -1.1376021586,
				"y": -0.8208320061,
				"z": -1.4106428592,
				"element": "S" 
			},
			{
				"x": 1.5967520026,
				"y": -1.3406337418,
				"z": -1.7720207159,
				"element": "C" 
			},
			{
				"x": 2.8582843217,
				"y": -0.8086910635,
				"z": -2.0999047248,
				"element": "C" 
			},
			{
				"x": 3.8501693194,
				"y": -1.6401714338,
				"z": -2.6069335534,
				"element": "C" 
			},
			{
				"x": 5.5560355216,
				"y": -0.8919328849,
				"z": -3.0432121015,
				"element": "Br" 
			},
			{
				"x": 3.6294179625,
				"y": -3.0005008408,
				"z": -2.8183913387,
				"element": "C" 
			},
			{
				"x": 2.3753346224,
				"y": -3.5258517903,
				"z": -2.5033119239,
				"element": "C" 
			},
			{
				"x": 1.3715245551,
				"y": -2.7129199098,
				"z": -1.9829835574,
				"element": "C" 
			},
			{
				"x": -3.9612267642,
				"y": -0.1773992685,
				"z": -1.9773320727,
				"element": "H" 
			},
			{
				"x": -5.0636893797,
				"y": 0.2603718361,
				"z": -0.6544614182,
				"element": "H" 
			},
			{
				"x": -3.9251513583,
				"y": -1.0905978785,
				"z": -0.4628887011,
				"element": "H" 
			},
			{
				"x": -3.2342362671,
				"y": 3.4539093124,
				"z": 1.2219243206,
				"element": "H" 
			},
			{
				"x": -0.5584293656,
				"y": 2.2325548423,
				"z": 0.4506657915,
				"element": "H" 
			},
			{
				"x": 1.6923411301,
				"y": 1.1131454572,
				"z": -0.25316984,
				"element": "H" 
			},
			{
				"x": 3.0526623784,
				"y": 0.2500322631,
				"z": -1.9787302016,
				"element": "H" 
			},
			{
				"x": 4.4156051139,
				"y": -3.6289694888,
				"z": -3.2198824814,
				"element": "H" 
			},
			{
				"x": 2.1859534268,
				"y": -4.5839703902,
				"z": -2.6574508043,
				"element": "H" 
			},
			{
				"x": 0.4121037958,
				"y": -3.1468039314,
				"z": -1.7190165709,
				"element": "H" 
			}
		],
		 "valence_orbital": [ 
			{
				"type": "occ",
				"energy": -0.27428,
				"method": "rhf"
			},
			{
				"type": "occ",
				"energy": -0.26313,
				"method": "rhf"
			},
			{
				"type": "occ",
				"energy": -0.25877,
				"method": "rhf"
			},
			{
				"type": "occ",
				"energy": -0.24801,
				"method": "rhf"
			},
			{
				"type": "occ",
				"energy": -0.21251,
				"method": "rhf"
			},
			{
				"type": "unocc",
				"energy": -0.06362,
				"method": "rhf"
			},
			{
				"type": "unocc",
				"energy": -0.02,
				"method": "rhf"
			},
			{
				"type": "unocc",
				"energy": -0.01145,
				"method": "rhf"
			},
			{
				"type": "unocc",
				"energy": 0.0037,
				"method": "rhf"
			},
			{
				"type": "unocc",
				"energy": 0.02498,
				"method": "rhf"
			}
		],
		"cosmo_sigma_profile": { 
			"-0.025": 0.0,
			"-0.024": 0.0,
			"-0.023": 0.0,
			"-0.022": 0.0,
			"-0.021": 0.0,
			"-0.02": 0.0,
			"-0.019": 0.0,
			"-0.018": 0.118389947125,
			"-0.017": 1.02616480967,
			"-0.016": 0.899756284271,
			"-0.015": 1.1351913703,
			"-0.014": 0.775678947278,
			"-0.013": 0.216444722591,
			"-0.012": 0.40885917849,
			"-0.011": 1.14076535878,
			"-0.01": 0.649866226333,
			"-0.009": 0.74252262998,
			"-0.008": 2.22240570038,
			"-0.007": 7.95605387939,
			"-0.006": 10.13426206,
			"-0.005": 14.7154381732,
			"-0.004": 16.7513770411,
			"-0.003": 18.6962344596,
			"-0.002": 19.1556508178,
			"-0.001": 19.6324397052,
			"0.0": 19.7561797146,
			"0.001": 23.8554733334,
			"0.002": 30.7860623937,
			"0.003": 35.7872143721,
			"0.004": 26.6499670241,
			"0.005": 10.4379158617,
			"0.006": 4.5950661098,
			"0.007": 3.00932971377,
			"0.008": 3.08662828688,
			"0.009": 1.65710862097,
			"0.01": 0.996450181567,
			"0.011": 0.95915092454,
			"0.012": 0.923979054709,
			"0.013": 0.564979514907,
			"0.014": 0.0392032376301,
			"0.015": 0.0,
			"0.016": 0.0,
			"0.017": 0.0,
			"0.018": 0.0,
			"0.019": 0.0,
			"0.02": 0.0,
			"0.021": 0.0,
			"0.022": 0.0,
			"0.023": 0.0,
			"0.024": 0.0,
			"0.025": 0.0
		}
	}
}
