{
	 "smiles": "C[Si]1(C)N[Si](C)(C)N[Si](C)(C)N[Si](C)(C)N1", 
	 "Tm": 369.95, 
	 "num_atms": 44, 
	 "gaussian": { 
		 "optdone": 1, 
		 "sigma_profile": "yes", 
		 "theory": "DFT", 
		 "functional": "B3LYP", 
		 "basiset": "6-31G**", 
		 "properties": { 
			 "R2extent": 6061.4768, 
			 "electric_dipole_moment_norm": 0.743547772507, 
			 "electric_quadrupole_moment_norm": 5.12953136651, 
			 "total_energy": -1699.07174845, 
			 "HOMO_LUMO_gap": 0.27337, 
			 "cosmo_polarized_energy": -7.4, 
			 "cosmo_cavitation_energy": 48.09, 
			 "cosmo_dispersion_energy": -24.56, 
			 "cosmo_repulsion_energy": 2.24, 
			 "cosmo_total_nonelectrostatic_energy": 25.77, 
			 "SMD_solvation_energy": 11.87 
		},
		"coords": [
			{
				"x": -1.9619285958,
				"y": 2.7615095854,
				"z": 1.4929019895,
				"element": "C" 
			},
			{
				"x": -2.1447004114,
				"y": 0.8857008685,
				"z": 1.5572340811,
				"element": "Si" 
			},
			{
				"x": -3.8009457804,
				"y": 0.4104830054,
				"z": 2.3329762289,
				"element": "C" 
			},
			{
				"x": -2.1522061697,
				"y": 0.1939063342,
				"z": -0.0537117699,
				"element": "N" 
			},
			{
				"x": -0.9412610125,
				"y": 0.1311414172,
				"z": -1.3197873475,
				"element": "Si" 
			},
			{
				"x": -1.6764404231,
				"y": -0.9425464819,
				"z": -2.6899245099,
				"element": "C" 
			},
			{
				"x": -0.5512305141,
				"y": 1.8555368918,
				"z": -1.9761318302,
				"element": "C" 
			},
			{
				"x": 0.5601583894,
				"y": -0.5926040499,
				"z": -0.7908211181,
				"element": "N" 
			},
			{
				"x": 2.0063220789,
				"y": 0.0529106021,
				"z": -0.0541596448,
				"element": "Si" 
			},
			{
				"x": 2.9989123915,
				"y": 1.1411604556,
				"z": -1.2360395732,
				"element": "C" 
			},
			{
				"x": 3.0489517261,
				"y": -1.4581576633,
				"z": 0.4025283041,
				"element": "C" 
			},
			{
				"x": 1.6411454647,
				"y": 1.0666485697,
				"z": 1.3307362648,
				"element": "N" 
			},
			{
				"x": 0.792222908,
				"y": 0.7631903203,
				"z": 2.8359104308,
				"element": "Si" 
			},
			{
				"x": 0.9075062381,
				"y": 2.3716357947,
				"z": 3.8190396985,
				"element": "C" 
			},
			{
				"x": 1.5756555465,
				"y": -0.6282546327,
				"z": 3.8503679241,
				"element": "C" 
			},
			{
				"x": -0.8579525679,
				"y": 0.260385415,
				"z": 2.5628353867,
				"element": "N" 
			},
			{
				"x": -0.9944842386,
				"y": 3.0591023172,
				"z": 1.075546465,
				"element": "H" 
			},
			{
				"x": -2.7394696035,
				"y": 3.1985967811,
				"z": 0.8572797774,
				"element": "H" 
			},
			{
				"x": -2.0483315539,
				"y": 3.2063914424,
				"z": 2.4899351278,
				"element": "H" 
			},
			{
				"x": -3.9019869896,
				"y": 0.85357841,
				"z": 3.3291113797,
				"element": "H" 
			},
			{
				"x": -3.9003408803,
				"y": -0.675846098,
				"z": 2.442708091,
				"element": "H" 
			},
			{
				"x": -4.6459527555,
				"y": 0.7591498639,
				"z": 1.7280612243,
				"element": "H" 
			},
			{
				"x": -3.0443188732,
				"y": -0.2083352415,
				"z": -0.3212992441,
				"element": "H" 
			},
			{
				"x": -1.0020691978,
				"y": -0.9845461005,
				"z": -3.5514969994,
				"element": "H" 
			},
			{
				"x": -1.8454220596,
				"y": -1.9715521084,
				"z": -2.3514586209,
				"element": "H" 
			},
			{
				"x": -2.6375959148,
				"y": -0.5492130896,
				"z": -3.0407033504,
				"element": "H" 
			},
			{
				"x": -1.468292446,
				"y": 2.3482952333,
				"z": -2.3167399861,
				"element": "H" 
			},
			{
				"x": -0.1079309239,
				"y": 2.4929805336,
				"z": -1.2042341487,
				"element": "H" 
			},
			{
				"x": 0.1460030594,
				"y": 1.8151574353,
				"z": -2.819702714,
				"element": "H" 
			},
			{
				"x": 0.4970695451,
				"y": -1.6022485485,
				"z": -0.6976332196,
				"element": "H" 
			},
			{
				"x": 3.2734017273,
				"y": 0.5766428742,
				"z": -2.1334420977,
				"element": "H" 
			},
			{
				"x": 3.9276590507,
				"y": 1.4912977963,
				"z": -0.7697087313,
				"element": "H" 
			},
			{
				"x": 2.4351482148,
				"y": 2.0216618698,
				"z": -1.5594302794,
				"element": "H" 
			},
			{
				"x": 2.5236543446,
				"y": -2.1286050204,
				"z": 1.0917654286,
				"element": "H" 
			},
			{
				"x": 3.9794255961,
				"y": -1.153093647,
				"z": 0.8932426799,
				"element": "H" 
			},
			{
				"x": 3.3180485549,
				"y": -2.0392109433,
				"z": -0.4872709465,
				"element": "H" 
			},
			{
				"x": 2.1806300856,
				"y": 1.9269271606,
				"z": 1.3462524244,
				"element": "H" 
			},
			{
				"x": 0.4417457274,
				"y": 3.2107282282,
				"z": 3.2928033261,
				"element": "H" 
			},
			{
				"x": 0.400531923,
				"y": 2.2649465184,
				"z": 4.783921291,
				"element": "H" 
			},
			{
				"x": 1.9507552919,
				"y": 2.6415634183,
				"z": 4.0224270323,
				"element": "H" 
			},
			{
				"x": 1.0639663263,
				"y": -0.7565326159,
				"z": 4.8114256797,
				"element": "H" 
			},
			{
				"x": 1.5431972747,
				"y": -1.5893044848,
				"z": 3.3252295119,
				"element": "H" 
			},
			{
				"x": 2.6277279924,
				"y": -0.4092787613,
				"z": 4.0619645189,
				"element": "H" 
			},
			{
				"x": -1.0343785458,
				"y": -0.6860996554,
				"z": 2.8866918655,
				"element": "H" 
			}
		],
		 "valence_orbital": [ 
			{
				"type": "occ",
				"energy": -0.28597,
				"method": "rhf"
			},
			{
				"type": "occ",
				"energy": -0.26373,
				"method": "rhf"
			},
			{
				"type": "occ",
				"energy": -0.23253,
				"method": "rhf"
			},
			{
				"type": "occ",
				"energy": -0.23072,
				"method": "rhf"
			},
			{
				"type": "occ",
				"energy": -0.22213,
				"method": "rhf"
			},
			{
				"type": "unocc",
				"energy": 0.05124,
				"method": "rhf"
			},
			{
				"type": "unocc",
				"energy": 0.07332,
				"method": "rhf"
			},
			{
				"type": "unocc",
				"energy": 0.07762,
				"method": "rhf"
			},
			{
				"type": "unocc",
				"energy": 0.08347,
				"method": "rhf"
			},
			{
				"type": "unocc",
				"energy": 0.09606,
				"method": "rhf"
			}
		],
		"cosmo_sigma_profile": { 
			"-0.025": 0.0,
			"-0.024": 0.0,
			"-0.023": 0.0,
			"-0.022": 0.0,
			"-0.021": 0.0,
			"-0.02": 0.0,
			"-0.019": 0.0,
			"-0.018": 0.0,
			"-0.017": 0.0,
			"-0.016": 0.0,
			"-0.015": 0.0,
			"-0.014": 0.0,
			"-0.013": 0.0,
			"-0.012": 0.0,
			"-0.011": 0.0331111626738,
			"-0.01": 1.54357391888,
			"-0.009": 2.89828601689,
			"-0.008": 3.37456915559,
			"-0.007": 3.09083918385,
			"-0.006": 4.76585781686,
			"-0.005": 5.18298357691,
			"-0.004": 8.46649612358,
			"-0.003": 35.3464663677,
			"-0.002": 44.8203015104,
			"-0.001": 48.7936220713,
			"0.0": 48.2673873617,
			"0.001": 42.4704686484,
			"0.002": 45.5816982548,
			"0.003": 25.486844159,
			"0.004": 10.1830724566,
			"0.005": 5.13369901447,
			"0.006": 3.95951757191,
			"0.007": 3.58238014708,
			"0.008": 2.31360511687,
			"0.009": 1.98168008276,
			"0.01": 1.91316724755,
			"0.011": 1.39632351884,
			"0.012": 1.2589719687,
			"0.013": 0.309009650238,
			"0.014": 0.121835146719,
			"0.015": 0.0955632259361,
			"0.016": 0.000701862739203,
			"0.017": 0.0,
			"0.018": 0.0,
			"0.019": 0.0,
			"0.02": 0.0,
			"0.021": 0.0,
			"0.022": 0.0,
			"0.023": 0.0,
			"0.024": 0.0,
			"0.025": 0.0
		}
	}
}
