{
	 "smiles": "O=C1NCCCN1", 
	 "Tm": 538.15, 
	 "num_atms": 15, 
	 "gaussian": { 
		 "optdone": 1, 
		 "sigma_profile": "yes", 
		 "theory": "DFT", 
		 "functional": "B3LYP", 
		 "basiset": "6-31G**", 
		 "properties": { 
			 "R2extent": 753.1137, 
			 "electric_dipole_moment_norm": 4.32641683845, 
			 "electric_quadrupole_moment_norm": 8.46120066244, 
			 "total_energy": -341.999495832, 
			 "HOMO_LUMO_gap": 0.29538, 
			 "cosmo_polarized_energy": -12.95, 
			 "cosmo_cavitation_energy": 17.37, 
			 "cosmo_dispersion_energy": -13.69, 
			 "cosmo_repulsion_energy": 1.18, 
			 "cosmo_total_nonelectrostatic_energy": 4.86, 
			 "SMD_solvation_energy": 2.12 
		},
		"coords": [
			{
				"x": 1.3054093909,
				"y": 1.7946244366,
				"z": 1.1417414121,
				"element": "O" 
			},
			{
				"x": 0.4713511393,
				"y": 1.0135820948,
				"z": 0.6958464062,
				"element": "C" 
			},
			{
				"x": -0.8222936777,
				"y": 1.4038939557,
				"z": 0.4049451896,
				"element": "N" 
			},
			{
				"x": -1.9193288547,
				"y": 0.4845578498,
				"z": 0.133914754,
				"element": "C" 
			},
			{
				"x": -1.3846783739,
				"y": -0.7208597676,
				"z": -0.6402061811,
				"element": "C" 
			},
			{
				"x": -0.204837796,
				"y": -1.3348718344,
				"z": 0.1140331212,
				"element": "C" 
			},
			{
				"x": 0.7809403804,
				"y": -0.2974908878,
				"z": 0.3863606316,
				"element": "N" 
			},
			{
				"x": -1.0309170423,
				"y": 2.3303684563,
				"z": 0.7466580892,
				"element": "H" 
			},
			{
				"x": -2.6818432166,
				"y": 1.0078920115,
				"z": -0.4532575487,
				"element": "H" 
			},
			{
				"x": -2.4043257259,
				"y": 0.142210765,
				"z": 1.0630257157,
				"element": "H" 
			},
			{
				"x": -2.176426754,
				"y": -1.4654852614,
				"z": -0.7685928964,
				"element": "H" 
			},
			{
				"x": -1.0543145028,
				"y": -0.3986538079,
				"z": -1.6334253244,
				"element": "H" 
			},
			{
				"x": 0.2657826438,
				"y": -2.1202013716,
				"z": -0.4875141349,
				"element": "H" 
			},
			{
				"x": -0.5652387191,
				"y": -1.8095335589,
				"z": 1.0416503154,
				"element": "H" 
			},
			{
				"x": 1.6971211086,
				"y": -0.56463308,
				"z": 0.7148204503,
				"element": "H" 
			}
		],
		 "valence_orbital": [ 
			{
				"type": "occ",
				"energy": -0.35317,
				"method": "rhf"
			},
			{
				"type": "occ",
				"energy": -0.35298,
				"method": "rhf"
			},
			{
				"type": "occ",
				"energy": -0.24797,
				"method": "rhf"
			},
			{
				"type": "occ",
				"energy": -0.23742,
				"method": "rhf"
			},
			{
				"type": "occ",
				"energy": -0.23532,
				"method": "rhf"
			},
			{
				"type": "unocc",
				"energy": 0.06006,
				"method": "rhf"
			},
			{
				"type": "unocc",
				"energy": 0.0766,
				"method": "rhf"
			},
			{
				"type": "unocc",
				"energy": 0.11603,
				"method": "rhf"
			},
			{
				"type": "unocc",
				"energy": 0.11667,
				"method": "rhf"
			},
			{
				"type": "unocc",
				"energy": 0.13043,
				"method": "rhf"
			}
		],
		"cosmo_sigma_profile": { 
			"-0.025": 0.0,
			"-0.024": 0.0,
			"-0.023": 0.0,
			"-0.022": 0.0,
			"-0.021": 0.0,
			"-0.02": 0.0,
			"-0.019": 0.0,
			"-0.018": 0.0,
			"-0.017": 0.0,
			"-0.016": 0.0,
			"-0.015": 0.0,
			"-0.014": 0.0,
			"-0.013": 1.12338026689,
			"-0.012": 2.38372851236,
			"-0.011": 2.10483734253,
			"-0.01": 1.43742381934,
			"-0.009": 1.39017035238,
			"-0.008": 2.53494277606,
			"-0.007": 2.44652069352,
			"-0.006": 1.56509107721,
			"-0.005": 7.55994606402,
			"-0.004": 17.0622817846,
			"-0.003": 21.3759396818,
			"-0.002": 18.1291106394,
			"-0.001": 10.2955514628,
			"0.0": 4.77357208882,
			"0.001": 2.8815618454,
			"0.002": 2.11936699254,
			"0.003": 2.60274730973,
			"0.004": 4.10666447658,
			"0.005": 2.82753470809,
			"0.006": 2.64131946569,
			"0.007": 2.67944424137,
			"0.008": 2.19345411185,
			"0.009": 1.29406278425,
			"0.01": 1.27806940978,
			"0.011": 1.41671610307,
			"0.012": 1.1102126359,
			"0.013": 1.41856679917,
			"0.014": 2.53240956744,
			"0.015": 6.97128901616,
			"0.016": 2.88816598922,
			"0.017": 0.0,
			"0.018": 0.0,
			"0.019": 0.0,
			"0.02": 0.0,
			"0.021": 0.0,
			"0.022": 0.0,
			"0.023": 0.0,
			"0.024": 0.0,
			"0.025": 0.0
		}
	}
}
