{
	 "smiles": "CC1=NC2=C(CCCC2)C(Cl)=N1", 
	 "Tm": 304.15, 
	 "num_atms": 23, 
	 "gaussian": { 
		 "optdone": 1, 
		 "sigma_profile": "yes", 
		 "theory": "DFT", 
		 "functional": "B3LYP", 
		 "basiset": "6-31G**", 
		 "properties": { 
			 "R2extent": 2800.2096, 
			 "electric_dipole_moment_norm": 2.7558161332, 
			 "electric_quadrupole_moment_norm": 7.4761303647, 
			 "total_energy": -919.305911099, 
			 "HOMO_LUMO_gap": 0.21556, 
			 "cosmo_polarized_energy": -6.76, 
			 "cosmo_cavitation_energy": 26.82, 
			 "cosmo_dispersion_energy": -20.33, 
			 "cosmo_repulsion_energy": 1.65, 
			 "cosmo_total_nonelectrostatic_energy": 8.13, 
			 "SMD_solvation_energy": 0.87 
		},
		"coords": [
			{
				"x": 0.7890805048,
				"y": -0.8019848029,
				"z": 3.7955011447,
				"element": "C" 
			},
			{
				"x": 0.1636266197,
				"y": -0.6011101126,
				"z": 2.4425527793,
				"element": "C" 
			},
			{
				"x": 0.6216403046,
				"y": 0.3980234832,
				"z": 1.6775126922,
				"element": "N" 
			},
			{
				"x": 0.0463350673,
				"y": 0.5488644276,
				"z": 0.4766077338,
				"element": "C" 
			},
			{
				"x": -0.9922592282,
				"y": -0.2755317839,
				"z": 0.0121145316,
				"element": "C" 
			},
			{
				"x": -1.5641385767,
				"y": 0.0139753946,
				"z": -1.3490603633,
				"element": "C" 
			},
			{
				"x": -1.8471488407,
				"y": 1.5261816552,
				"z": -1.5098708912,
				"element": "C" 
			},
			{
				"x": -0.6722612088,
				"y": 2.4336361322,
				"z": -1.0415603292,
				"element": "C" 
			},
			{
				"x": 0.5163344451,
				"y": 1.6454806534,
				"z": -0.4403672324,
				"element": "C" 
			},
			{
				"x": -1.3720774685,
				"y": -1.2730964009,
				"z": 0.9119394799,
				"element": "C" 
			},
			{
				"x": -2.6631001334,
				"y": -2.403277623,
				"z": 0.4861731104,
				"element": "Cl" 
			},
			{
				"x": -0.8218560177,
				"y": -1.449242691,
				"z": 2.0979043379,
				"element": "N" 
			},
			{
				"x": 1.2207737955,
				"y": -1.8054401722,
				"z": 3.868311551,
				"element": "H" 
			},
			{
				"x": 0.0296078021,
				"y": -0.7239206526,
				"z": 4.5800662001,
				"element": "H" 
			},
			{
				"x": 1.567188524,
				"y": -0.0572819438,
				"z": 3.9650475055,
				"element": "H" 
			},
			{
				"x": -0.8410431071,
				"y": -0.3049053118,
				"z": -2.1135222447,
				"element": "H" 
			},
			{
				"x": -2.4734419094,
				"y": -0.5653001382,
				"z": -1.5217423449,
				"element": "H" 
			},
			{
				"x": -2.7441674617,
				"y": 1.7659070118,
				"z": -0.929652416,
				"element": "H" 
			},
			{
				"x": -2.0944270257,
				"y": 1.7285593945,
				"z": -2.5568978666,
				"element": "H" 
			},
			{
				"x": -1.0369214662,
				"y": 3.1366961207,
				"z": -0.2857750931,
				"element": "H" 
			},
			{
				"x": -0.3023400018,
				"y": 3.0421690702,
				"z": -1.8727760001,
				"element": "H" 
			},
			{
				"x": 1.2003426259,
				"y": 2.3028838063,
				"z": 0.1012118281,
				"element": "H" 
			},
			{
				"x": 1.0918527569,
				"y": 1.1847144834,
				"z": -1.2563181129,
				"element": "H" 
			}
		],
		 "valence_orbital": [ 
			{
				"type": "occ",
				"energy": -0.31465,
				"method": "rhf"
			},
			{
				"type": "occ",
				"energy": -0.30243,
				"method": "rhf"
			},
			{
				"type": "occ",
				"energy": -0.29308,
				"method": "rhf"
			},
			{
				"type": "occ",
				"energy": -0.26019,
				"method": "rhf"
			},
			{
				"type": "occ",
				"energy": -0.25232,
				"method": "rhf"
			},
			{
				"type": "unocc",
				"energy": -0.03676,
				"method": "rhf"
			},
			{
				"type": "unocc",
				"energy": -0.02603,
				"method": "rhf"
			},
			{
				"type": "unocc",
				"energy": 0.03444,
				"method": "rhf"
			},
			{
				"type": "unocc",
				"energy": 0.07803,
				"method": "rhf"
			},
			{
				"type": "unocc",
				"energy": 0.10553,
				"method": "rhf"
			}
		],
		"cosmo_sigma_profile": { 
			"-0.025": 0.0,
			"-0.024": 0.0,
			"-0.023": 0.0,
			"-0.022": 0.0,
			"-0.021": 0.0,
			"-0.02": 0.0,
			"-0.019": 0.0,
			"-0.018": 0.0,
			"-0.017": 0.0,
			"-0.016": 0.0,
			"-0.015": 0.0,
			"-0.014": 0.0,
			"-0.013": 0.0,
			"-0.012": 0.0,
			"-0.011": 0.0,
			"-0.01": 0.0,
			"-0.009": 0.0,
			"-0.008": 0.0,
			"-0.007": 0.0,
			"-0.006": 1.21602752428,
			"-0.005": 9.59708205709,
			"-0.004": 14.4844514886,
			"-0.003": 27.3756078991,
			"-0.002": 39.0307919201,
			"-0.001": 36.0839370597,
			"0.0": 21.3912845021,
			"0.001": 10.6530205683,
			"0.002": 9.181318511,
			"0.003": 8.60091379497,
			"0.004": 10.4183077644,
			"0.005": 5.65025438449,
			"0.006": 4.03612288813,
			"0.007": 2.82621645026,
			"0.008": 3.16901670092,
			"0.009": 1.27398619397,
			"0.01": 2.35834268091,
			"0.011": 1.72316416796,
			"0.012": 1.39179827296,
			"0.013": 1.87061046494,
			"0.014": 1.12194680813,
			"0.015": 0.299660325616,
			"0.016": 0.0,
			"0.017": 0.0,
			"0.018": 0.0,
			"0.019": 0.0,
			"0.02": 0.0,
			"0.021": 0.0,
			"0.022": 0.0,
			"0.023": 0.0,
			"0.024": 0.0,
			"0.025": 0.0
		}
	}
}
