{
	 "smiles": "CC(C)CC(C)=O", 
	 "Tm": 191.15, 
	 "num_atms": 19, 
	 "gaussian": { 
		 "optdone": 1, 
		 "sigma_profile": "yes", 
		 "theory": "DFT", 
		 "functional": "B3LYP", 
		 "basiset": "6-31G**", 
		 "properties": { 
			 "R2extent": 1073.973, 
			 "electric_dipole_moment_norm": 2.52973774332, 
			 "electric_quadrupole_moment_norm": 6.4405029299, 
			 "total_energy": -311.10935962, 
			 "HOMO_LUMO_gap": 0.23227, 
			 "cosmo_polarized_energy": -6.87, 
			 "cosmo_cavitation_energy": 21.26, 
			 "cosmo_dispersion_energy": -15.19, 
			 "cosmo_repulsion_energy": 1.3, 
			 "cosmo_total_nonelectrostatic_energy": 7.37, 
			 "SMD_solvation_energy": 4.54 
		},
		"coords": [
			{
				"x": 1.8017384704,
				"y": 0.8626339227,
				"z": -0.4047797737,
				"element": "C" 
			},
			{
				"x": 0.7494815987,
				"y": 0.1683200832,
				"z": -1.281969903,
				"element": "C" 
			},
			{
				"x": 0.3041338856,
				"y": 1.0773312493,
				"z": -2.4360789542,
				"element": "C" 
			},
			{
				"x": -0.4609706282,
				"y": -0.2875279457,
				"z": -0.4532212083,
				"element": "C" 
			},
			{
				"x": -0.1889697245,
				"y": -1.4406290953,
				"z": 0.5081102339,
				"element": "C" 
			},
			{
				"x": -1.2742111332,
				"y": -1.7358701557,
				"z": 1.5306289907,
				"element": "C" 
			},
			{
				"x": 0.8317233296,
				"y": -2.101975977,
				"z": 0.4577107512,
				"element": "O" 
			},
			{
				"x": 1.3908099477,
				"y": 1.769404283,
				"z": 0.0575642911,
				"element": "H" 
			},
			{
				"x": 2.1533368275,
				"y": 0.1989351952,
				"z": 0.3892174899,
				"element": "H" 
			},
			{
				"x": 2.670426677,
				"y": 1.1615641199,
				"z": -1.0010909051,
				"element": "H" 
			},
			{
				"x": 1.2078306647,
				"y": -0.7349531556,
				"z": -1.7030453567,
				"element": "H" 
			},
			{
				"x": 1.1605724186,
				"y": 1.3845559012,
				"z": -3.0456818634,
				"element": "H" 
			},
			{
				"x": -0.4110225655,
				"y": 0.5721822216,
				"z": -3.0951854624,
				"element": "H" 
			},
			{
				"x": -0.1765253801,
				"y": 1.9891767924,
				"z": -2.0601135583,
				"element": "H" 
			},
			{
				"x": -1.2709032388,
				"y": -0.6282923365,
				"z": -1.1172244651,
				"element": "H" 
			},
			{
				"x": -0.8915875837,
				"y": 0.5531907548,
				"z": 0.1104408606,
				"element": "H" 
			},
			{
				"x": -2.2625042398,
				"y": -1.7793838116,
				"z": 1.0597394981,
				"element": "H" 
			},
			{
				"x": -1.0593623321,
				"y": -2.6774112011,
				"z": 2.0381231586,
				"element": "H" 
			},
			{
				"x": -1.3101969936,
				"y": -0.9282508449,
				"z": 2.2720561762,
				"element": "H" 
			}
		],
		 "valence_orbital": [ 
			{
				"type": "occ",
				"energy": -0.34794,
				"method": "rhf"
			},
			{
				"type": "occ",
				"energy": -0.33116,
				"method": "rhf"
			},
			{
				"type": "occ",
				"energy": -0.32587,
				"method": "rhf"
			},
			{
				"type": "occ",
				"energy": -0.32159,
				"method": "rhf"
			},
			{
				"type": "occ",
				"energy": -0.24284,
				"method": "rhf"
			},
			{
				"type": "unocc",
				"energy": -0.01057,
				"method": "rhf"
			},
			{
				"type": "unocc",
				"energy": 0.08011,
				"method": "rhf"
			},
			{
				"type": "unocc",
				"energy": 0.1088,
				"method": "rhf"
			},
			{
				"type": "unocc",
				"energy": 0.13339,
				"method": "rhf"
			},
			{
				"type": "unocc",
				"energy": 0.14272,
				"method": "rhf"
			}
		],
		"cosmo_sigma_profile": { 
			"-0.025": 0.0,
			"-0.024": 0.0,
			"-0.023": 0.0,
			"-0.022": 0.0,
			"-0.021": 0.0,
			"-0.02": 0.0,
			"-0.019": 0.0,
			"-0.018": 0.0,
			"-0.017": 0.0,
			"-0.016": 0.0,
			"-0.015": 0.0,
			"-0.014": 0.0,
			"-0.013": 0.0,
			"-0.012": 0.0,
			"-0.011": 0.0,
			"-0.01": 0.0,
			"-0.009": 0.0,
			"-0.008": 0.0,
			"-0.007": 0.0299301220225,
			"-0.006": 5.63255292414,
			"-0.005": 10.113367532,
			"-0.004": 10.3808223376,
			"-0.003": 15.8659139199,
			"-0.002": 25.8479998689,
			"-0.001": 22.9710798394,
			"0.0": 20.6329365178,
			"0.001": 16.459860226,
			"0.002": 12.3358381102,
			"0.003": 2.77602410289,
			"0.004": 1.67667580007,
			"0.005": 1.64855554918,
			"0.006": 1.8027433049,
			"0.007": 1.20928002944,
			"0.008": 1.76606999163,
			"0.009": 1.39090924928,
			"0.01": 1.5870106544,
			"0.011": 3.0842661724,
			"0.012": 4.61119105825,
			"0.013": 2.44415484981,
			"0.014": 0.249803258957,
			"0.015": 0.0,
			"0.016": 0.0,
			"0.017": 0.0,
			"0.018": 0.0,
			"0.019": 0.0,
			"0.02": 0.0,
			"0.021": 0.0,
			"0.022": 0.0,
			"0.023": 0.0,
			"0.024": 0.0,
			"0.025": 0.0
		}
	}
}
