{
	 "smiles": "CNC(=O)C1=C(Cl)N=CC=C1", 
	 "Tm": 380.15, 
	 "num_atms": 18, 
	 "gaussian": { 
		 "optdone": 1, 
		 "sigma_profile": "yes", 
		 "theory": "DFT", 
		 "functional": "B3LYP", 
		 "basiset": "6-31G**", 
		 "properties": { 
			 "R2extent": 2863.9094, 
			 "electric_dipole_moment_norm": 5.64159652315, 
			 "electric_quadrupole_moment_norm": 14.1435954308, 
			 "total_energy": -915.885993231, 
			 "HOMO_LUMO_gap": 0.20668, 
			 "cosmo_polarized_energy": -16.41, 
			 "cosmo_cavitation_energy": 24.46, 
			 "cosmo_dispersion_energy": -17.94, 
			 "cosmo_repulsion_energy": 1.47, 
			 "cosmo_total_nonelectrostatic_energy": 8.0, 
			 "SMD_solvation_energy": 3.2 
		},
		"coords": [
			{
				"x": -1.3057187101,
				"y": -1.121572521,
				"z": -3.009457189,
				"element": "C" 
			},
			{
				"x": -0.6212504727,
				"y": -0.5699547071,
				"z": -1.8517158111,
				"element": "N" 
			},
			{
				"x": 0.7402028145,
				"y": -0.6227863057,
				"z": -1.7212078744,
				"element": "C" 
			},
			{
				"x": 1.4799670522,
				"y": -1.1840044811,
				"z": -2.5157907885,
				"element": "O" 
			},
			{
				"x": 1.2567296412,
				"y": 0.0211433683,
				"z": -0.4552444866,
				"element": "C" 
			},
			{
				"x": 2.2297676838,
				"y": 1.0380587626,
				"z": -0.4429885305,
				"element": "C" 
			},
			{
				"x": 2.7922191132,
				"y": 1.7300168492,
				"z": -1.9567356919,
				"element": "Cl" 
			},
			{
				"x": 2.7478014733,
				"y": 1.562600705,
				"z": 0.6527393219,
				"element": "N" 
			},
			{
				"x": 2.3289565904,
				"y": 1.093317401,
				"z": 1.8362131188,
				"element": "C" 
			},
			{
				"x": 1.3638338704,
				"y": 0.0985579528,
				"z": 1.9608915969,
				"element": "C" 
			},
			{
				"x": 0.8222934453,
				"y": -0.4365742178,
				"z": 0.792503899,
				"element": "C" 
			},
			{
				"x": -2.1553848509,
				"y": -1.7380921161,
				"z": -2.699345901,
				"element": "H" 
			},
			{
				"x": -0.5876618281,
				"y": -1.7390954391,
				"z": -3.5494555588,
				"element": "H" 
			},
			{
				"x": -1.6655890584,
				"y": -0.3325334195,
				"z": -3.6800237596,
				"element": "H" 
			},
			{
				"x": -1.1349083147,
				"y": 0.0281036196,
				"z": -1.2218496708,
				"element": "H" 
			},
			{
				"x": 2.7891453535,
				"y": 1.5415877744,
				"z": 2.7138953403,
				"element": "H" 
			},
			{
				"x": 1.0491880035,
				"y": -0.249463849,
				"z": 2.9389415209,
				"element": "H" 
			},
			{
				"x": 0.0746081934,
				"y": -1.2233093765,
				"z": 0.8379304645,
				"element": "H" 
			}
		],
		 "valence_orbital": [ 
			{
				"type": "occ",
				"energy": -0.30467,
				"method": "rhf"
			},
			{
				"type": "occ",
				"energy": -0.28074,
				"method": "rhf"
			},
			{
				"type": "occ",
				"energy": -0.26664,
				"method": "rhf"
			},
			{
				"type": "occ",
				"energy": -0.26218,
				"method": "rhf"
			},
			{
				"type": "occ",
				"energy": -0.25295,
				"method": "rhf"
			},
			{
				"type": "unocc",
				"energy": -0.04627,
				"method": "rhf"
			},
			{
				"type": "unocc",
				"energy": -0.03656,
				"method": "rhf"
			},
			{
				"type": "unocc",
				"energy": 0.02411,
				"method": "rhf"
			},
			{
				"type": "unocc",
				"energy": 0.04106,
				"method": "rhf"
			},
			{
				"type": "unocc",
				"energy": 0.07885,
				"method": "rhf"
			}
		],
		"cosmo_sigma_profile": { 
			"-0.025": 0.0,
			"-0.024": 0.0,
			"-0.023": 0.0,
			"-0.022": 0.0,
			"-0.021": 0.0,
			"-0.02": 0.0,
			"-0.019": 0.0,
			"-0.018": 0.0,
			"-0.017": 0.0,
			"-0.016": 0.0,
			"-0.015": 0.255147713135,
			"-0.014": 1.29721299705,
			"-0.013": 1.06864366064,
			"-0.012": 1.3981303779,
			"-0.011": 0.851178674481,
			"-0.01": 1.25424859132,
			"-0.009": 1.74484790371,
			"-0.008": 6.60158793399,
			"-0.007": 9.043397995,
			"-0.006": 9.5583636853,
			"-0.005": 11.7901821827,
			"-0.004": 12.4477637143,
			"-0.003": 11.8416552549,
			"-0.002": 17.3042666293,
			"-0.001": 14.152017439,
			"0.0": 16.5651091666,
			"0.001": 14.7818827755,
			"0.002": 8.84988421206,
			"0.003": 7.94744706041,
			"0.004": 9.57208563394,
			"0.005": 6.50699858039,
			"0.006": 4.83539509472,
			"0.007": 3.5811920444,
			"0.008": 3.30918015459,
			"0.009": 3.1739062766,
			"0.01": 2.85823471307,
			"0.011": 3.53508506911,
			"0.012": 2.74279705821,
			"0.013": 6.60103530496,
			"0.014": 2.34060369865,
			"0.015": 0.0867600681955,
			"0.016": 0.0,
			"0.017": 0.0,
			"0.018": 0.0,
			"0.019": 0.0,
			"0.02": 0.0,
			"0.021": 0.0,
			"0.022": 0.0,
			"0.023": 0.0,
			"0.024": 0.0,
			"0.025": 0.0
		}
	}
}
