{
	 "smiles": "OC(C(=O)C1=CC=C2C=CC=CC2=C1)C1=CC=CC=C1", 
	 "Tm": 425.15, 
	 "num_atms": 34, 
	 "gaussian": { 
		 "optdone": 1, 
		 "sigma_profile": "yes", 
		 "theory": "DFT", 
		 "functional": "B3LYP", 
		 "basiset": "6-31G**", 
		 "properties": { 
			 "R2extent": 7846.4282, 
			 "electric_dipole_moment_norm": 4.29924178548, 
			 "electric_quadrupole_moment_norm": 18.3751511673, 
			 "total_energy": -844.807652852, 
			 "HOMO_LUMO_gap": 0.15398, 
			 "cosmo_polarized_energy": -12.17, 
			 "cosmo_cavitation_energy": 37.8, 
			 "cosmo_dispersion_energy": -26.88, 
			 "cosmo_repulsion_energy": 2.03, 
			 "cosmo_total_nonelectrostatic_energy": 12.95, 
			 "SMD_solvation_energy": 6.22 
		},
		"coords": [
			{
				"x": -0.4120758567,
				"y": 2.5211608662,
				"z": -4.7774010956,
				"element": "O" 
			},
			{
				"x": -0.3902662185,
				"y": 1.4595299514,
				"z": -3.8537201658,
				"element": "C" 
			},
			{
				"x": -0.9498176391,
				"y": 1.9685276725,
				"z": -2.5057984756,
				"element": "C" 
			},
			{
				"x": -1.0667976315,
				"y": 3.1846221224,
				"z": -2.377736432,
				"element": "O" 
			},
			{
				"x": -1.3275478138,
				"y": 1.034206508,
				"z": -1.4129451441,
				"element": "C" 
			},
			{
				"x": -1.2389687025,
				"y": -0.3818433328,
				"z": -1.5400990658,
				"element": "C" 
			},
			{
				"x": -1.6249420261,
				"y": -1.199685947,
				"z": -0.5058598292,
				"element": "C" 
			},
			{
				"x": -2.1206501172,
				"y": -0.6608140717,
				"z": 0.7127939282,
				"element": "C" 
			},
			{
				"x": -2.5273210295,
				"y": -1.4797713031,
				"z": 1.7988409155,
				"element": "C" 
			},
			{
				"x": -3.0021951324,
				"y": -0.9175256466,
				"z": 2.9631152271,
				"element": "C" 
			},
			{
				"x": -3.0937597563,
				"y": 0.4907311272,
				"z": 3.0981131445,
				"element": "C" 
			},
			{
				"x": -2.7078262122,
				"y": 1.3123351425,
				"z": 2.0642396986,
				"element": "C" 
			},
			{
				"x": -2.2124972859,
				"y": 0.7641149974,
				"z": 0.8483990555,
				"element": "C" 
			},
			{
				"x": -1.8087498779,
				"y": 1.5809390465,
				"z": -0.2330666069,
				"element": "C" 
			},
			{
				"x": 1.0234853626,
				"y": 0.9090799157,
				"z": -3.6758873373,
				"element": "C" 
			},
			{
				"x": 1.3589418369,
				"y": -0.372633647,
				"z": -4.1228009517,
				"element": "C" 
			},
			{
				"x": 2.6639123737,
				"y": -0.8531992072,
				"z": -3.9926017803,
				"element": "C" 
			},
			{
				"x": 3.648031021,
				"y": -0.0504019124,
				"z": -3.4153650281,
				"element": "C" 
			},
			{
				"x": 3.3230937727,
				"y": 1.2357332346,
				"z": -2.9749898632,
				"element": "C" 
			},
			{
				"x": 2.0204432002,
				"y": 1.7129996275,
				"z": -3.1069270733,
				"element": "C" 
			},
			{
				"x": -0.6124162089,
				"y": 3.3109110663,
				"z": -4.2405942143,
				"element": "H" 
			},
			{
				"x": -1.038578229,
				"y": 0.6497330226,
				"z": -4.2192794746,
				"element": "H" 
			},
			{
				"x": -0.852803038,
				"y": -0.8221519035,
				"z": -2.4513341211,
				"element": "H" 
			},
			{
				"x": -1.5526161689,
				"y": -2.2790853128,
				"z": -0.6087983764,
				"element": "H" 
			},
			{
				"x": -2.457637592,
				"y": -2.5595193079,
				"z": 1.6968709791,
				"element": "H" 
			},
			{
				"x": -3.3101689975,
				"y": -1.5547170721,
				"z": 3.7870678533,
				"element": "H" 
			},
			{
				"x": -3.4705597476,
				"y": 0.9174158163,
				"z": 4.0228459224,
				"element": "H" 
			},
			{
				"x": -2.7754617687,
				"y": 2.3926034266,
				"z": 2.1606321924,
				"element": "H" 
			},
			{
				"x": -1.8753842597,
				"y": 2.6615106223,
				"z": -0.1513460053,
				"element": "H" 
			},
			{
				"x": 0.5978977701,
				"y": -0.9944996461,
				"z": -4.5892093976,
				"element": "H" 
			},
			{
				"x": 2.9113942754,
				"y": -1.849227202,
				"z": -4.3487797848,
				"element": "H" 
			},
			{
				"x": 4.6638516343,
				"y": -0.4212049139,
				"z": -3.313086908,
				"element": "H" 
			},
			{
				"x": 4.0865995311,
				"y": 1.8670138892,
				"z": -2.529228336,
				"element": "H" 
			},
			{
				"x": 1.772390532,
				"y": 2.7167123712,
				"z": -2.7728634496,
				"element": "H" 
			}
		],
		 "valence_orbital": [ 
			{
				"type": "occ",
				"energy": -0.26558,
				"method": "rhf"
			},
			{
				"type": "occ",
				"energy": -0.25612,
				"method": "rhf"
			},
			{
				"type": "occ",
				"energy": -0.25108,
				"method": "rhf"
			},
			{
				"type": "occ",
				"energy": -0.24087,
				"method": "rhf"
			},
			{
				"type": "occ",
				"energy": -0.22887,
				"method": "rhf"
			},
			{
				"type": "unocc",
				"energy": -0.07489,
				"method": "rhf"
			},
			{
				"type": "unocc",
				"energy": -0.0398,
				"method": "rhf"
			},
			{
				"type": "unocc",
				"energy": -0.00795,
				"method": "rhf"
			},
			{
				"type": "unocc",
				"energy": -0.00397,
				"method": "rhf"
			},
			{
				"type": "unocc",
				"energy": 0.01024,
				"method": "rhf"
			}
		],
		"cosmo_sigma_profile": { 
			"-0.025": 0.0,
			"-0.024": 0.0,
			"-0.023": 0.0,
			"-0.022": 0.0,
			"-0.021": 0.0,
			"-0.02": 0.0,
			"-0.019": 0.0,
			"-0.018": 0.0,
			"-0.017": 0.0,
			"-0.016": 0.0,
			"-0.015": 0.0,
			"-0.014": 0.0,
			"-0.013": 0.0,
			"-0.012": 0.0,
			"-0.011": 0.0,
			"-0.01": 0.253768647105,
			"-0.009": 1.22554418637,
			"-0.008": 2.32559497816,
			"-0.007": 7.89060330135,
			"-0.006": 24.1782294452,
			"-0.005": 24.2504265997,
			"-0.004": 26.4103682779,
			"-0.003": 20.0602655597,
			"-0.002": 19.4218095839,
			"-0.001": 16.2568094554,
			"0.0": 17.6393100433,
			"0.001": 21.3187456856,
			"0.002": 29.1096067891,
			"0.003": 30.1724879959,
			"0.004": 22.5323317628,
			"0.005": 13.0794955287,
			"0.006": 5.32320066794,
			"0.007": 2.98456932071,
			"0.008": 3.89493577986,
			"0.009": 2.27944303169,
			"0.01": 3.76497627468,
			"0.011": 3.27926572325,
			"0.012": 1.34120177235,
			"0.013": 1.86148117261,
			"0.014": 2.09295589039,
			"0.015": 0.0107418912129,
			"0.016": 0.0,
			"0.017": 0.0,
			"0.018": 0.0,
			"0.019": 0.0,
			"0.02": 0.0,
			"0.021": 0.0,
			"0.022": 0.0,
			"0.023": 0.0,
			"0.024": 0.0,
			"0.025": 0.0
		}
	}
}
