{
	 "smiles": "CN1N=C(C)C(C#N)=C1Br", 
	 "Tm": 383.15, 
	 "num_atms": 16, 
	 "gaussian": { 
		 "optdone": 1, 
		 "sigma_profile": "yes", 
		 "theory": "DFT", 
		 "functional": "B3LYP", 
		 "basiset": "6-31G**", 
		 "properties": { 
			 "R2extent": 2348.4976, 
			 "electric_dipole_moment_norm": 4.75130457138, 
			 "electric_quadrupole_moment_norm": 11.1003769472, 
			 "total_energy": -2967.87799621, 
			 "HOMO_LUMO_gap": 0.22782, 
			 "cosmo_polarized_energy": -10.11, 
			 "cosmo_cavitation_energy": 23.81, 
			 "cosmo_dispersion_energy": -17.02, 
			 "cosmo_repulsion_energy": 1.4, 
			 "cosmo_total_nonelectrostatic_energy": 8.19, 
			 "SMD_solvation_energy": 3.73 
		},
		"coords": [
			{
				"x": 0.8233233755,
				"y": -2.9556913887,
				"z": 0.5266489505,
				"element": "C" 
			},
			{
				"x": 0.2232373455,
				"y": -1.7573188009,
				"z": -0.0367127172,
				"element": "N" 
			},
			{
				"x": -1.1102689291,
				"y": -1.7294557289,
				"z": -0.3101112135,
				"element": "N" 
			},
			{
				"x": -1.3594591768,
				"y": -0.5229323148,
				"z": -0.8073194781,
				"element": "C" 
			},
			{
				"x": -2.737402847,
				"y": -0.1233626097,
				"z": -1.2275377995,
				"element": "C" 
			},
			{
				"x": -0.1659578559,
				"y": 0.2575067144,
				"z": -0.8615717176,
				"element": "C" 
			},
			{
				"x": -0.0168085816,
				"y": 1.5862062293,
				"z": -1.3255357785,
				"element": "C" 
			},
			{
				"x": 0.0777242211,
				"y": 2.6798781845,
				"z": -1.7135406171,
				"element": "N" 
			},
			{
				"x": 0.8181101105,
				"y": -0.5874066551,
				"z": -0.3537960379,
				"element": "C" 
			},
			{
				"x": 2.6459141695,
				"y": -0.2781095729,
				"z": -0.108041016,
				"element": "Br" 
			},
			{
				"x": 1.2685521004,
				"y": -2.7415704984,
				"z": 1.5017588732,
				"element": "H" 
			},
			{
				"x": 0.0211530908,
				"y": -3.6831752889,
				"z": 0.6378278397,
				"element": "H" 
			},
			{
				"x": 1.5935432911,
				"y": -3.3508935825,
				"z": -0.1407906089,
				"element": "H" 
			},
			{
				"x": -3.4271780715,
				"y": -0.9518461599,
				"z": -1.0557601152,
				"element": "H" 
			},
			{
				"x": -3.0854080628,
				"y": 0.7480636566,
				"z": -0.6632081747,
				"element": "H" 
			},
			{
				"x": -2.7647741797,
				"y": 0.144007816,
				"z": -2.2890103893,
				"element": "H" 
			}
		],
		 "valence_orbital": [ 
			{
				"type": "occ",
				"energy": -0.3402,
				"method": "rhf"
			},
			{
				"type": "occ",
				"energy": -0.32702,
				"method": "rhf"
			},
			{
				"type": "occ",
				"energy": -0.30319,
				"method": "rhf"
			},
			{
				"type": "occ",
				"energy": -0.26484,
				"method": "rhf"
			},
			{
				"type": "occ",
				"energy": -0.25633,
				"method": "rhf"
			},
			{
				"type": "unocc",
				"energy": -0.02851,
				"method": "rhf"
			},
			{
				"type": "unocc",
				"energy": -0.01355,
				"method": "rhf"
			},
			{
				"type": "unocc",
				"energy": 0.00738,
				"method": "rhf"
			},
			{
				"type": "unocc",
				"energy": 0.02774,
				"method": "rhf"
			},
			{
				"type": "unocc",
				"energy": 0.09651,
				"method": "rhf"
			}
		],
		"cosmo_sigma_profile": { 
			"-0.025": 0.0,
			"-0.024": 0.0,
			"-0.023": 0.0,
			"-0.022": 0.0,
			"-0.021": 0.0,
			"-0.02": 0.0,
			"-0.019": 0.0,
			"-0.018": 0.0,
			"-0.017": 0.0,
			"-0.016": 0.0,
			"-0.015": 0.0,
			"-0.014": 0.0,
			"-0.013": 0.0,
			"-0.012": 0.0,
			"-0.011": 0.0,
			"-0.01": 0.0,
			"-0.009": 0.0,
			"-0.008": 0.818148331986,
			"-0.007": 6.75367492814,
			"-0.006": 11.4730872851,
			"-0.005": 15.3118064713,
			"-0.004": 18.1384739756,
			"-0.003": 14.9722817139,
			"-0.002": 20.1331387929,
			"-0.001": 19.9155872501,
			"0.0": 17.9461764081,
			"0.001": 13.2051732365,
			"0.002": 12.8484354751,
			"0.003": 4.72561114403,
			"0.004": 3.77689330443,
			"0.005": 4.19722828678,
			"0.006": 3.68150510015,
			"0.007": 3.7704225098,
			"0.008": 4.2021688716,
			"0.009": 4.47450454562,
			"0.01": 4.31077833239,
			"0.011": 3.81730382568,
			"0.012": 3.34050950407,
			"0.013": 2.68380182062,
			"0.014": 0.161585204998,
			"0.015": 0.0,
			"0.016": 0.0,
			"0.017": 0.0,
			"0.018": 0.0,
			"0.019": 0.0,
			"0.02": 0.0,
			"0.021": 0.0,
			"0.022": 0.0,
			"0.023": 0.0,
			"0.024": 0.0,
			"0.025": 0.0
		}
	}
}
