{
	 "smiles": "NNC(=O)NCC1=CC=CO1", 
	 "Tm": 362.15, 
	 "num_atms": 20, 
	 "gaussian": { 
		 "optdone": 1, 
		 "sigma_profile": "yes", 
		 "theory": "DFT", 
		 "functional": "B3LYP", 
		 "basiset": "6-31G**", 
		 "properties": { 
			 "R2extent": 2535.848, 
			 "electric_dipole_moment_norm": 3.15613820515, 
			 "electric_quadrupole_moment_norm": 5.78718190746, 
			 "total_energy": -548.721842503, 
			 "HOMO_LUMO_gap": 0.23149, 
			 "cosmo_polarized_energy": -16.92, 
			 "cosmo_cavitation_energy": 25.0, 
			 "cosmo_dispersion_energy": -17.87, 
			 "cosmo_repulsion_energy": 1.47, 
			 "cosmo_total_nonelectrostatic_energy": 8.61, 
			 "SMD_solvation_energy": 5.66 
		},
		"coords": [
			{
				"x": -1.565608523,
				"y": -0.5233536773,
				"z": -1.7325762617,
				"element": "N" 
			},
			{
				"x": -1.6563419422,
				"y": 0.3529749706,
				"z": -0.6368980223,
				"element": "N" 
			},
			{
				"x": -0.569851626,
				"y": 0.9576602101,
				"z": -0.0175997669,
				"element": "C" 
			},
			{
				"x": -0.7096548724,
				"y": 1.9551310843,
				"z": 0.6806018344,
				"element": "O" 
			},
			{
				"x": 0.6548445935,
				"y": 0.3620719899,
				"z": -0.2682134534,
				"element": "N" 
			},
			{
				"x": 1.7949851419,
				"y": 0.7603582257,
				"z": 0.564369163,
				"element": "C" 
			},
			{
				"x": 1.8737515817,
				"y": 0.0569647333,
				"z": 1.8800688668,
				"element": "C" 
			},
			{
				"x": 1.4140100691,
				"y": 0.3485440873,
				"z": 3.1304757643,
				"element": "C" 
			},
			{
				"x": 1.7583720471,
				"y": -0.7665515049,
				"z": 3.9635887597,
				"element": "C" 
			},
			{
				"x": 2.3984719283,
				"y": -1.6574178444,
				"z": 3.1579239653,
				"element": "C" 
			},
			{
				"x": 2.4784132801,
				"y": -1.1760568128,
				"z": 1.8834069096,
				"element": "O" 
			},
			{
				"x": -1.3875978515,
				"y": -1.4713528966,
				"z": -1.4118704527,
				"element": "H" 
			},
			{
				"x": -0.8270418653,
				"y": -0.2366839354,
				"z": -2.3722491425,
				"element": "H" 
			},
			{
				"x": -2.4798469597,
				"y": 0.9400908136,
				"z": -0.6409960658,
				"element": "H" 
			},
			{
				"x": 0.6360423154,
				"y": -0.6073782555,
				"z": -0.5542185352,
				"element": "H" 
			},
			{
				"x": 2.7119330171,
				"y": 0.5843016317,
				"z": -0.0067532436,
				"element": "H" 
			},
			{
				"x": 1.6921500505,
				"y": 1.8320090194,
				"z": 0.7373752197,
				"element": "H" 
			},
			{
				"x": 0.882000654,
				"y": 1.2460138793,
				"z": 3.4105189394,
				"element": "H" 
			},
			{
				"x": 1.5575817617,
				"y": -0.8836368999,
				"z": 5.0189085592,
				"element": "H" 
			},
			{
				"x": 2.8453871998,
				"y": -2.6253888185,
				"z": 3.3244369629,
				"element": "H" 
			}
		],
		 "valence_orbital": [ 
			{
				"type": "occ",
				"energy": -0.27503,
				"method": "rhf"
			},
			{
				"type": "occ",
				"energy": -0.26757,
				"method": "rhf"
			},
			{
				"type": "occ",
				"energy": -0.25396,
				"method": "rhf"
			},
			{
				"type": "occ",
				"energy": -0.24667,
				"method": "rhf"
			},
			{
				"type": "occ",
				"energy": -0.22128,
				"method": "rhf"
			},
			{
				"type": "unocc",
				"energy": 0.01021,
				"method": "rhf"
			},
			{
				"type": "unocc",
				"energy": 0.04673,
				"method": "rhf"
			},
			{
				"type": "unocc",
				"energy": 0.06494,
				"method": "rhf"
			},
			{
				"type": "unocc",
				"energy": 0.07458,
				"method": "rhf"
			},
			{
				"type": "unocc",
				"energy": 0.1125,
				"method": "rhf"
			}
		],
		"cosmo_sigma_profile": { 
			"-0.025": 0.0,
			"-0.024": 0.0,
			"-0.023": 0.0,
			"-0.022": 0.0,
			"-0.021": 0.0,
			"-0.02": 0.0,
			"-0.019": 0.0,
			"-0.018": 0.0,
			"-0.017": 0.0,
			"-0.016": 0.0,
			"-0.015": 0.0144369952247,
			"-0.014": 1.35768960207,
			"-0.013": 2.77913945843,
			"-0.012": 3.99534385894,
			"-0.011": 5.02565325097,
			"-0.01": 4.54972320542,
			"-0.009": 4.34424642063,
			"-0.008": 4.53500862047,
			"-0.007": 6.00338998625,
			"-0.006": 9.64251584967,
			"-0.005": 10.9509783224,
			"-0.004": 10.5809871383,
			"-0.003": 10.3213779167,
			"-0.002": 11.3027555474,
			"-0.001": 10.9465419395,
			"0.0": 7.36496462434,
			"0.001": 8.91670592169,
			"0.002": 9.00012683173,
			"0.003": 13.6340722935,
			"0.004": 12.8079644768,
			"0.005": 13.215459477,
			"0.006": 9.55538729485,
			"0.007": 4.25912617157,
			"0.008": 3.38751720904,
			"0.009": 2.09799538637,
			"0.01": 2.33900039638,
			"0.011": 2.71107606209,
			"0.012": 1.88462288323,
			"0.013": 2.65136997384,
			"0.014": 4.93800545196,
			"0.015": 2.27048045541,
			"0.016": 0.440770120632,
			"0.017": 0.0,
			"0.018": 0.0,
			"0.019": 0.0,
			"0.02": 0.0,
			"0.021": 0.0,
			"0.022": 0.0,
			"0.023": 0.0,
			"0.024": 0.0,
			"0.025": 0.0
		}
	}
}
