{
	 "smiles": "CC1=CCC(=O)NC2=C1C=NN2C1=CC=C(Cl)C=C1", 
	 "Tm": 451.15, 
	 "num_atms": 31, 
	 "gaussian": { 
		 "optdone": 1, 
		 "sigma_profile": "yes", 
		 "theory": "DFT", 
		 "functional": "B3LYP", 
		 "basiset": "6-31G**", 
		 "properties": { 
			 "R2extent": 7458.5267, 
			 "electric_dipole_moment_norm": 1.95255658305, 
			 "electric_quadrupole_moment_norm": 15.8982814181, 
			 "total_energy": -1240.37830585, 
			 "HOMO_LUMO_gap": 0.17539, 
			 "cosmo_polarized_energy": -14.28, 
			 "cosmo_cavitation_energy": 36.8, 
			 "cosmo_dispersion_energy": -26.53, 
			 "cosmo_repulsion_energy": 2.04, 
			 "cosmo_total_nonelectrostatic_energy": 12.3, 
			 "SMD_solvation_energy": 5.62 
		},
		"coords": [
			{
				"x": 4.2185331341,
				"y": 0.5995363233,
				"z": -1.6307800448,
				"element": "C" 
			},
			{
				"x": 3.274788414,
				"y": 0.8746827765,
				"z": -0.4846488493,
				"element": "C" 
			},
			{
				"x": 3.6763925902,
				"y": 0.8105536386,
				"z": 0.8002030285,
				"element": "C" 
			},
			{
				"x": 2.8092180283,
				"y": 1.2120088285,
				"z": 1.9720584466,
				"element": "C" 
			},
			{
				"x": 1.6262594947,
				"y": 0.2810592769,
				"z": 2.2056405877,
				"element": "C" 
			},
			{
				"x": 1.4558217631,
				"y": -0.3847810708,
				"z": 3.2103752546,
				"element": "O" 
			},
			{
				"x": 0.6836543624,
				"y": 0.2406531384,
				"z": 1.1767415116,
				"element": "N" 
			},
			{
				"x": 0.7640639179,
				"y": 0.8729619615,
				"z": -0.0530515192,
				"element": "C" 
			},
			{
				"x": 1.8885261486,
				"y": 1.1959927203,
				"z": -0.8146780093,
				"element": "C" 
			},
			{
				"x": 1.3376605388,
				"y": 1.8123815367,
				"z": -1.9721371123,
				"element": "C" 
			},
			{
				"x": 0.0169231021,
				"y": 1.8761317724,
				"z": -1.9457242176,
				"element": "N" 
			},
			{
				"x": -0.3387033154,
				"y": 1.2893023633,
				"z": -0.7590221185,
				"element": "N" 
			},
			{
				"x": -1.7129791582,
				"y": 1.1877379002,
				"z": -0.4158491335,
				"element": "C" 
			},
			{
				"x": -2.5253109764,
				"y": 2.3211925238,
				"z": -0.5247047164,
				"element": "C" 
			},
			{
				"x": -3.8761678511,
				"y": 2.2435082117,
				"z": -0.1988506021,
				"element": "C" 
			},
			{
				"x": -4.4068993362,
				"y": 1.0314405824,
				"z": 0.247625452,
				"element": "C" 
			},
			{
				"x": -6.1056396258,
				"y": 0.9379547238,
				"z": 0.6758027321,
				"element": "Cl" 
			},
			{
				"x": -3.6104526184,
				"y": -0.1079046427,
				"z": 0.3474117406,
				"element": "C" 
			},
			{
				"x": -2.2619018995,
				"y": -0.0299319043,
				"z": -0.0010236476,
				"element": "C" 
			},
			{
				"x": 5.2175631358,
				"y": 0.3458538935,
				"z": -1.2674230243,
				"element": "H" 
			},
			{
				"x": 3.8569752674,
				"y": -0.2226137686,
				"z": -2.259044453,
				"element": "H" 
			},
			{
				"x": 4.3144732635,
				"y": 1.4781239481,
				"z": -2.2809515187,
				"element": "H" 
			},
			{
				"x": 4.6874405394,
				"y": 0.4816096344,
				"z": 1.0257900724,
				"element": "H" 
			},
			{
				"x": 2.4110750211,
				"y": 2.2243142555,
				"z": 1.809781788,
				"element": "H" 
			},
			{
				"x": 3.380756577,
				"y": 1.2159816606,
				"z": 2.9006498657,
				"element": "H" 
			},
			{
				"x": -0.1502418555,
				"y": -0.278650716,
				"z": 1.4162222262,
				"element": "H" 
			},
			{
				"x": 1.8696699004,
				"y": 2.2105232956,
				"z": -2.8261730003,
				"element": "H" 
			},
			{
				"x": -2.0901592422,
				"y": 3.2510130423,
				"z": -0.8720488993,
				"element": "H" 
			},
			{
				"x": -4.5126907287,
				"y": 3.1173288885,
				"z": -0.2805073859,
				"element": "H" 
			},
			{
				"x": -4.0415633527,
				"y": -1.0484215345,
				"z": 0.6709380109,
				"element": "H" 
			},
			{
				"x": -1.6551852386,
				"y": -0.9305432598,
				"z": 0.0072775353,
				"element": "H" 
			}
		],
		 "valence_orbital": [ 
			{
				"type": "occ",
				"energy": -0.28206,
				"method": "rhf"
			},
			{
				"type": "occ",
				"energy": -0.27538,
				"method": "rhf"
			},
			{
				"type": "occ",
				"energy": -0.25779,
				"method": "rhf"
			},
			{
				"type": "occ",
				"energy": -0.23727,
				"method": "rhf"
			},
			{
				"type": "occ",
				"energy": -0.21599,
				"method": "rhf"
			},
			{
				"type": "unocc",
				"energy": -0.0406,
				"method": "rhf"
			},
			{
				"type": "unocc",
				"energy": -0.03363,
				"method": "rhf"
			},
			{
				"type": "unocc",
				"energy": -0.00635,
				"method": "rhf"
			},
			{
				"type": "unocc",
				"energy": -0.00124,
				"method": "rhf"
			},
			{
				"type": "unocc",
				"energy": 0.0176,
				"method": "rhf"
			}
		],
		"cosmo_sigma_profile": { 
			"-0.025": 0.0,
			"-0.024": 0.0,
			"-0.023": 0.0,
			"-0.022": 0.0,
			"-0.021": 0.0,
			"-0.02": 0.0,
			"-0.019": 0.0,
			"-0.018": 0.0,
			"-0.017": 0.0,
			"-0.016": 0.0,
			"-0.015": 0.0187616312813,
			"-0.014": 0.839120535138,
			"-0.013": 0.850296600929,
			"-0.012": 1.26632422802,
			"-0.011": 1.46779135456,
			"-0.01": 1.58893119156,
			"-0.009": 1.90998665829,
			"-0.008": 5.69436473143,
			"-0.007": 10.2919777758,
			"-0.006": 12.2939525316,
			"-0.005": 16.8218941118,
			"-0.004": 20.4766747449,
			"-0.003": 19.0964208039,
			"-0.002": 23.5368306969,
			"-0.001": 23.0807438696,
			"0.0": 25.9757889115,
			"0.001": 27.0720583882,
			"0.002": 29.6666272585,
			"0.003": 18.2324823393,
			"0.004": 17.9783104482,
			"0.005": 7.62478117935,
			"0.006": 3.81727435744,
			"0.007": 2.56428634194,
			"0.008": 2.4979055638,
			"0.009": 2.76440392956,
			"0.01": 3.4735250233,
			"0.011": 2.57677689294,
			"0.012": 5.73973299549,
			"0.013": 5.48416128869,
			"0.014": 1.57595232573,
			"0.015": 0.355895468509,
			"0.016": 0.0,
			"0.017": 0.0,
			"0.018": 0.0,
			"0.019": 0.0,
			"0.02": 0.0,
			"0.021": 0.0,
			"0.022": 0.0,
			"0.023": 0.0,
			"0.024": 0.0,
			"0.025": 0.0
		}
	}
}
