{
	 "smiles": "ClN1C(=O)C2=C(C=CC=C2)S1(=O)=O", 
	 "Tm": 423.15, 
	 "num_atms": 17, 
	 "gaussian": { 
		 "optdone": 1, 
		 "sigma_profile": "yes", 
		 "theory": "DFT", 
		 "functional": "B3LYP", 
		 "basiset": "6-31G**", 
		 "properties": { 
			 "R2extent": 3851.8662, 
			 "electric_dipole_moment_norm": 5.40884521964, 
			 "electric_quadrupole_moment_norm": 2.96839651496, 
			 "total_energy": -1407.83767056, 
			 "HOMO_LUMO_gap": 0.19107, 
			 "cosmo_polarized_energy": -13.47, 
			 "cosmo_cavitation_energy": 25.48, 
			 "cosmo_dispersion_energy": -19.26, 
			 "cosmo_repulsion_energy": 1.46, 
			 "cosmo_total_nonelectrostatic_energy": 7.68, 
			 "SMD_solvation_energy": 3.68 
		},
		"coords": [
			{
				"x": -0.0516118908,
				"y": -4.1931778042,
				"z": 2.347221672,
				"element": "Cl" 
			},
			{
				"x": -0.1416726444,
				"y": -2.8249518486,
				"z": 1.3277086162,
				"element": "N" 
			},
			{
				"x": 0.6205772027,
				"y": -2.7419910453,
				"z": 0.150352918,
				"element": "C" 
			},
			{
				"x": 1.2057649336,
				"y": -3.6620762372,
				"z": -0.3739758701,
				"element": "O" 
			},
			{
				"x": 0.5439628929,
				"y": -1.3317691464,
				"z": -0.3288270004,
				"element": "C" 
			},
			{
				"x": -0.0994466968,
				"y": -0.4488998448,
				"z": 0.5386822295,
				"element": "C" 
			},
			{
				"x": -0.2687621206,
				"y": 0.8971824623,
				"z": 0.2446990002,
				"element": "C" 
			},
			{
				"x": 0.2511408056,
				"y": 1.3560012295,
				"z": -0.9705200823,
				"element": "C" 
			},
			{
				"x": 0.906263246,
				"y": 0.4845651815,
				"z": -1.8490924904,
				"element": "C" 
			},
			{
				"x": 1.0566609332,
				"y": -0.8687404134,
				"z": -1.5376404792,
				"element": "C" 
			},
			{
				"x": -0.6521475481,
				"y": -1.2819814814,
				"z": 2.0180933892,
				"element": "S" 
			},
			{
				"x": 0.1848869218,
				"y": -0.9702209254,
				"z": 3.1715294691,
				"element": "O" 
			},
			{
				"x": -2.1046505579,
				"y": -1.2650063364,
				"z": 2.1346886134,
				"element": "O" 
			},
			{
				"x": -0.7792112261,
				"y": 1.5671578527,
				"z": 0.928063985,
				"element": "H" 
			},
			{
				"x": 0.143734913,
				"y": 2.4037961055,
				"z": -1.2326746301,
				"element": "H" 
			},
			{
				"x": 1.3002543797,
				"y": 0.8666737481,
				"z": -2.7855171737,
				"element": "H" 
			},
			{
				"x": 1.5563564563,
				"y": -1.5608614967,
				"z": -2.2068921663,
				"element": "H" 
			}
		],
		 "valence_orbital": [ 
			{
				"type": "occ",
				"energy": -0.33741,
				"method": "rhf"
			},
			{
				"type": "occ",
				"energy": -0.30165,
				"method": "rhf"
			},
			{
				"type": "occ",
				"energy": -0.29885,
				"method": "rhf"
			},
			{
				"type": "occ",
				"energy": -0.29645,
				"method": "rhf"
			},
			{
				"type": "occ",
				"energy": -0.27837,
				"method": "rhf"
			},
			{
				"type": "unocc",
				"energy": -0.0873,
				"method": "rhf"
			},
			{
				"type": "unocc",
				"energy": -0.0665,
				"method": "rhf"
			},
			{
				"type": "unocc",
				"energy": -0.05484,
				"method": "rhf"
			},
			{
				"type": "unocc",
				"energy": 0.01345,
				"method": "rhf"
			},
			{
				"type": "unocc",
				"energy": 0.02073,
				"method": "rhf"
			}
		],
		"cosmo_sigma_profile": { 
			"-0.025": 0.0,
			"-0.024": 0.0,
			"-0.023": 0.0,
			"-0.022": 0.0,
			"-0.021": 0.0,
			"-0.02": 0.0,
			"-0.019": 0.0,
			"-0.018": 0.0,
			"-0.017": 0.0,
			"-0.016": 0.0,
			"-0.015": 0.0,
			"-0.014": 0.0,
			"-0.013": 0.0,
			"-0.012": 0.0260494234024,
			"-0.011": 0.6807889516,
			"-0.01": 1.87706567945,
			"-0.009": 4.23349368263,
			"-0.008": 10.6735444963,
			"-0.007": 12.2726379207,
			"-0.006": 10.0457569304,
			"-0.005": 9.94680830643,
			"-0.004": 8.71347974956,
			"-0.003": 10.9803601286,
			"-0.002": 14.7453359941,
			"-0.001": 18.4163301725,
			"0.0": 21.842202304,
			"0.001": 15.2595436456,
			"0.002": 9.71801099615,
			"0.003": 5.73991733088,
			"0.004": 4.8426345073,
			"0.005": 4.87990936668,
			"0.006": 5.00434321356,
			"0.007": 5.70206848622,
			"0.008": 12.9806227923,
			"0.009": 12.9814340578,
			"0.01": 5.88202532812,
			"0.011": 1.34041382275,
			"0.012": 0.0,
			"0.013": 0.0,
			"0.014": 0.0,
			"0.015": 0.0,
			"0.016": 0.0,
			"0.017": 0.0,
			"0.018": 0.0,
			"0.019": 0.0,
			"0.02": 0.0,
			"0.021": 0.0,
			"0.022": 0.0,
			"0.023": 0.0,
			"0.024": 0.0,
			"0.025": 0.0
		}
	}
}
