{
	 "smiles": "OC(=O)C1CC1C(=O)N1CCN(CC1)C1=CC=CC=C1", 
	 "Tm": 429.15, 
	 "num_atms": 38, 
	 "gaussian": { 
		 "optdone": 1, 
		 "sigma_profile": "yes", 
		 "theory": "DFT", 
		 "functional": "B3LYP", 
		 "basiset": "6-31G**", 
		 "properties": { 
			 "R2extent": 9816.9658, 
			 "electric_dipole_moment_norm": 6.90048777189, 
			 "electric_quadrupole_moment_norm": 38.5701072512, 
			 "total_energy": -917.609782116, 
			 "HOMO_LUMO_gap": 0.18313, 
			 "cosmo_polarized_energy": -21.37, 
			 "cosmo_cavitation_energy": 39.43, 
			 "cosmo_dispersion_energy": -28.87, 
			 "cosmo_repulsion_energy": 2.2, 
			 "cosmo_total_nonelectrostatic_energy": 12.75, 
			 "SMD_solvation_energy": 5.89 
		},
		"coords": [
			{
				"x": -3.9737412903,
				"y": 2.3996740694,
				"z": -3.2379403208,
				"element": "O" 
			},
			{
				"x": -3.0713017238,
				"y": 2.0038281181,
				"z": -4.139544145,
				"element": "C" 
			},
			{
				"x": -2.9472323978,
				"y": 2.5641926159,
				"z": -5.2074769799,
				"element": "O" 
			},
			{
				"x": -2.2249038187,
				"y": 0.7804583639,
				"z": -3.8517949831,
				"element": "C" 
			},
			{
				"x": -2.7752233849,
				"y": -0.4636791875,
				"z": -3.2159128778,
				"element": "C" 
			},
			{
				"x": -1.6870587035,
				"y": 0.2909940622,
				"z": -2.4886123398,
				"element": "C" 
			},
			{
				"x": -2.0442147422,
				"y": 0.9609015835,
				"z": -1.2013579816,
				"element": "C" 
			},
			{
				"x": -3.2136369051,
				"y": 1.3254893017,
				"z": -0.9701896702,
				"element": "O" 
			},
			{
				"x": -1.0683790114,
				"y": 1.1340947917,
				"z": -0.2710774597,
				"element": "N" 
			},
			{
				"x": -1.4288742311,
				"y": 1.6966397388,
				"z": 1.0364404671,
				"element": "C" 
			},
			{
				"x": -0.6510127361,
				"y": 1.0064688359,
				"z": 2.1548992403,
				"element": "C" 
			},
			{
				"x": 0.790321589,
				"y": 1.0994540846,
				"z": 1.9292250046,
				"element": "N" 
			},
			{
				"x": 1.2234836872,
				"y": 1.4603779205,
				"z": 0.591739825,
				"element": "C" 
			},
			{
				"x": 0.3475990207,
				"y": 0.7906291739,
				"z": -0.4703185811,
				"element": "C" 
			},
			{
				"x": 1.6767612123,
				"y": 1.1106962048,
				"z": 3.0066929522,
				"element": "C" 
			},
			{
				"x": 2.977777325,
				"y": 1.6453126052,
				"z": 2.8921398393,
				"element": "C" 
			},
			{
				"x": 3.8519321466,
				"y": 1.6275538744,
				"z": 3.9775037293,
				"element": "C" 
			},
			{
				"x": 3.4637819966,
				"y": 1.0946568568,
				"z": 5.2069046064,
				"element": "C" 
			},
			{
				"x": 2.1757064782,
				"y": 0.5718886142,
				"z": 5.3315742559,
				"element": "C" 
			},
			{
				"x": 1.2928608535,
				"y": 0.5727265648,
				"z": 4.2543934835,
				"element": "C" 
			},
			{
				"x": -3.8496717339,
				"y": 1.9451919226,
				"z": -2.3645900466,
				"element": "H" 
			},
			{
				"x": -1.5205296937,
				"y": 0.6334548625,
				"z": -4.6633062172,
				"element": "H" 
			},
			{
				"x": -2.5241393615,
				"y": -1.4240597098,
				"z": -3.6540149061,
				"element": "H" 
			},
			{
				"x": -3.7652424297,
				"y": -0.3968416847,
				"z": -2.7765485992,
				"element": "H" 
			},
			{
				"x": -0.6931442714,
				"y": -0.1339567621,
				"z": -2.55295749,
				"element": "H" 
			},
			{
				"x": -2.5009917806,
				"y": 1.5575215766,
				"z": 1.1737698669,
				"element": "H" 
			},
			{
				"x": -1.2328376856,
				"y": 2.7763987997,
				"z": 1.048049011,
				"element": "H" 
			},
			{
				"x": -0.908872617,
				"y": 1.4997751607,
				"z": 3.0995061341,
				"element": "H" 
			},
			{
				"x": -0.9813727745,
				"y": -0.0409613485,
				"z": 2.2358394724,
				"element": "H" 
			},
			{
				"x": 2.2445065577,
				"y": 1.1006682773,
				"z": 0.436602162,
				"element": "H" 
			},
			{
				"x": 1.239319227,
				"y": 2.550998537,
				"z": 0.4251794698,
				"element": "H" 
			},
			{
				"x": 0.4905809044,
				"y": -0.2966564981,
				"z": -0.4171199484,
				"element": "H" 
			},
			{
				"x": 0.682117106,
				"y": 1.1330760569,
				"z": -1.4538654929,
				"element": "H" 
			},
			{
				"x": 3.3054383924,
				"y": 2.1021929606,
				"z": 1.9653262382,
				"element": "H" 
			},
			{
				"x": 4.8455507344,
				"y": 2.0509379147,
				"z": 3.8574915948,
				"element": "H" 
			},
			{
				"x": 4.1482663881,
				"y": 1.0885378429,
				"z": 6.0490560974,
				"element": "H" 
			},
			{
				"x": 1.8504305564,
				"y": 0.1459519961,
				"z": 6.2769114679,
				"element": "H" 
			},
			{
				"x": 0.3112471175,
				"y": 0.1290119027,
				"z": 4.3772831214,
				"element": "H" 
			}
		],
		 "valence_orbital": [ 
			{
				"type": "occ",
				"energy": -0.28249,
				"method": "rhf"
			},
			{
				"type": "occ",
				"energy": -0.26862,
				"method": "rhf"
			},
			{
				"type": "occ",
				"energy": -0.25214,
				"method": "rhf"
			},
			{
				"type": "occ",
				"energy": -0.24869,
				"method": "rhf"
			},
			{
				"type": "occ",
				"energy": -0.20208,
				"method": "rhf"
			},
			{
				"type": "unocc",
				"energy": -0.01895,
				"method": "rhf"
			},
			{
				"type": "unocc",
				"energy": -0.00419,
				"method": "rhf"
			},
			{
				"type": "unocc",
				"energy": 0.01038,
				"method": "rhf"
			},
			{
				"type": "unocc",
				"energy": 0.0263,
				"method": "rhf"
			},
			{
				"type": "unocc",
				"energy": 0.05659,
				"method": "rhf"
			}
		],
		"cosmo_sigma_profile": { 
			"-0.025": 0.0,
			"-0.024": 0.0,
			"-0.023": 0.0,
			"-0.022": 0.0,
			"-0.021": 0.0,
			"-0.02": 0.0,
			"-0.019": 0.0,
			"-0.018": 0.0,
			"-0.017": 0.0,
			"-0.016": 0.0,
			"-0.015": 0.0,
			"-0.014": 0.0,
			"-0.013": 0.0,
			"-0.012": 0.0,
			"-0.011": 0.0,
			"-0.01": 0.0,
			"-0.009": 0.12241237039,
			"-0.008": 3.4788371137,
			"-0.007": 10.1869063549,
			"-0.006": 19.8695472111,
			"-0.005": 36.1358357249,
			"-0.004": 37.4302976249,
			"-0.003": 30.5803243154,
			"-0.002": 23.2524665126,
			"-0.001": 18.5845984997,
			"0.0": 16.6694077284,
			"0.001": 12.0427897847,
			"0.002": 11.651807514,
			"0.003": 9.62713783708,
			"0.004": 11.9179540192,
			"0.005": 11.6342917396,
			"0.006": 11.5992695799,
			"0.007": 11.8926134,
			"0.008": 5.43400043473,
			"0.009": 4.37202254983,
			"0.01": 4.60745329347,
			"0.011": 6.18600194622,
			"0.012": 7.18073346315,
			"0.013": 5.32709818096,
			"0.014": 1.90151539507,
			"0.015": 0.100706344183,
			"0.016": 0.0,
			"0.017": 0.0,
			"0.018": 0.0,
			"0.019": 0.0,
			"0.02": 0.0,
			"0.021": 0.0,
			"0.022": 0.0,
			"0.023": 0.0,
			"0.024": 0.0,
			"0.025": 0.0
		}
	}
}
