{
	 "smiles": "FC1=C(C=C(Cl)C=C1)S(Cl)(=O)=O", 
	 "Tm": 316.15, 
	 "num_atms": 15, 
	 "gaussian": { 
		 "optdone": 1, 
		 "sigma_profile": "yes", 
		 "theory": "DFT", 
		 "functional": "B3LYP", 
		 "basiset": "6-31G**", 
		 "properties": { 
			 "R2extent": 4754.7226, 
			 "electric_dipole_moment_norm": 4.76303523921, 
			 "electric_quadrupole_moment_norm": 14.2190595515, 
			 "total_energy": -1799.21998168, 
			 "HOMO_LUMO_gap": 0.17927, 
			 "cosmo_polarized_energy": -8.74, 
			 "cosmo_cavitation_energy": 25.54, 
			 "cosmo_dispersion_energy": -19.32, 
			 "cosmo_repulsion_energy": 1.48, 
			 "cosmo_total_nonelectrostatic_energy": 7.7, 
			 "SMD_solvation_energy": 3.29 
		},
		"coords": [
			{
				"x": 3.8250534865,
				"y": -0.0403483904,
				"z": 0.0784009982,
				"element": "F" 
			},
			{
				"x": 2.4934788262,
				"y": -0.0127650225,
				"z": 0.1725095047,
				"element": "C" 
			},
			{
				"x": 1.7917024637,
				"y": 1.1621863838,
				"z": -0.1096146018,
				"element": "C" 
			},
			{
				"x": 0.3975393463,
				"y": 1.1937195289,
				"z": -0.0348273493,
				"element": "C" 
			},
			{
				"x": -0.2780444284,
				"y": 0.0326447804,
				"z": 0.3332327417,
				"element": "C" 
			},
			{
				"x": -2.0240611164,
				"y": 0.0511128132,
				"z": 0.438370419,
				"element": "Cl" 
			},
			{
				"x": 0.4191144195,
				"y": -1.1441170108,
				"z": 0.61955116,
				"element": "C" 
			},
			{
				"x": 1.8099963781,
				"y": -1.1665819864,
				"z": 0.5364555565,
				"element": "C" 
			},
			{
				"x": 2.6470048993,
				"y": 2.6803278758,
				"z": -0.5199907129,
				"element": "S" 
			},
			{
				"x": 3.4070968483,
				"y": 2.212040559,
				"z": -2.4421718326,
				"element": "Cl" 
			},
			{
				"x": 1.6471801444,
				"y": 3.7228478851,
				"z": -0.7107690478,
				"element": "O" 
			},
			{
				"x": 3.7939727418,
				"y": 2.857570669,
				"z": 0.3563165139,
				"element": "O" 
			},
			{
				"x": -0.1333451985,
				"y": 2.1110598975,
				"z": -0.2584232557,
				"element": "H" 
			},
			{
				"x": -0.1243841383,
				"y": -2.038126731,
				"z": 0.9035292559,
				"element": "H" 
			},
			{
				"x": 2.3748953275,
				"y": -2.0672712517,
				"z": 0.7492306502,
				"element": "H" 
			}
		],
		 "valence_orbital": [ 
			{
				"type": "occ",
				"energy": -0.34296,
				"method": "rhf"
			},
			{
				"type": "occ",
				"energy": -0.33759,
				"method": "rhf"
			},
			{
				"type": "occ",
				"energy": -0.32162,
				"method": "rhf"
			},
			{
				"type": "occ",
				"energy": -0.31004,
				"method": "rhf"
			},
			{
				"type": "occ",
				"energy": -0.27708,
				"method": "rhf"
			},
			{
				"type": "unocc",
				"energy": -0.09781,
				"method": "rhf"
			},
			{
				"type": "unocc",
				"energy": -0.0636,
				"method": "rhf"
			},
			{
				"type": "unocc",
				"energy": -0.04847,
				"method": "rhf"
			},
			{
				"type": "unocc",
				"energy": 0.0003,
				"method": "rhf"
			},
			{
				"type": "unocc",
				"energy": 0.03657,
				"method": "rhf"
			}
		],
		"cosmo_sigma_profile": { 
			"-0.025": 0.0,
			"-0.024": 0.0,
			"-0.023": 0.0,
			"-0.022": 0.0,
			"-0.021": 0.0,
			"-0.02": 0.0,
			"-0.019": 0.0,
			"-0.018": 0.0,
			"-0.017": 0.0,
			"-0.016": 0.0,
			"-0.015": 0.0,
			"-0.014": 0.0,
			"-0.013": 0.0,
			"-0.012": 0.0,
			"-0.011": 0.0,
			"-0.01": 1.41490281442,
			"-0.009": 5.34906556172,
			"-0.008": 5.18156558221,
			"-0.007": 6.27131180925,
			"-0.006": 5.22944373389,
			"-0.005": 7.42728331387,
			"-0.004": 8.45385540591,
			"-0.003": 17.6402309808,
			"-0.002": 19.0227013525,
			"-0.001": 21.3258658767,
			"0.0": 15.2509267492,
			"0.001": 13.5852549426,
			"0.002": 25.5312023582,
			"0.003": 23.9576346731,
			"0.004": 8.66113652431,
			"0.005": 3.95961461346,
			"0.006": 4.3164164181,
			"0.007": 9.00081181361,
			"0.008": 8.58656236476,
			"0.009": 1.24395698042,
			"0.01": 0.0,
			"0.011": 0.0,
			"0.012": 0.0,
			"0.013": 0.0,
			"0.014": 0.0,
			"0.015": 0.0,
			"0.016": 0.0,
			"0.017": 0.0,
			"0.018": 0.0,
			"0.019": 0.0,
			"0.02": 0.0,
			"0.021": 0.0,
			"0.022": 0.0,
			"0.023": 0.0,
			"0.024": 0.0,
			"0.025": 0.0
		}
	}
}
