{
	 "smiles": "O=C1NC(=O)C(N1)(C1CCC1)C1=CC=CC=C1", 
	 "Tm": 508.15, 
	 "num_atms": 31, 
	 "gaussian": { 
		 "optdone": 1, 
		 "sigma_profile": "yes", 
		 "theory": "DFT", 
		 "functional": "B3LYP", 
		 "basiset": "6-31G**", 
		 "properties": { 
			 "R2extent": 4183.6602, 
			 "electric_dipole_moment_norm": 2.69698325171, 
			 "electric_quadrupole_moment_norm": 11.8755264136, 
			 "total_energy": -763.788749303, 
			 "HOMO_LUMO_gap": 0.2273, 
			 "cosmo_polarized_energy": -15.95, 
			 "cosmo_cavitation_energy": 33.5, 
			 "cosmo_dispersion_energy": -23.38, 
			 "cosmo_repulsion_energy": 1.83, 
			 "cosmo_total_nonelectrostatic_energy": 11.95, 
			 "SMD_solvation_energy": 6.83 
		},
		"coords": [
			{
				"x": -2.053295527,
				"y": 3.6342740871,
				"z": -1.8411066859,
				"element": "O" 
			},
			{
				"x": -1.6175909263,
				"y": 2.5251121353,
				"z": -1.6145463723,
				"element": "C" 
			},
			{
				"x": -2.1682105731,
				"y": 1.307571372,
				"z": -2.0667564226,
				"element": "N" 
			},
			{
				"x": -1.5108083221,
				"y": 0.1981230162,
				"z": -1.5862332588,
				"element": "C" 
			},
			{
				"x": -1.8117623414,
				"y": -0.9638938651,
				"z": -1.7636403193,
				"element": "O" 
			},
			{
				"x": -0.3222237596,
				"y": 0.731245291,
				"z": -0.7390228772,
				"element": "C" 
			},
			{
				"x": -0.5139061841,
				"y": 2.1709480418,
				"z": -0.8813251568,
				"element": "N" 
			},
			{
				"x": -0.5020931405,
				"y": 0.2450449623,
				"z": 0.7192752183,
				"element": "C" 
			},
			{
				"x": -1.7225837749,
				"y": 0.7075873037,
				"z": 1.5622167455,
				"element": "C" 
			},
			{
				"x": -0.7835608311,
				"y": 0.7526988785,
				"z": 2.7981716446,
				"element": "C" 
			},
			{
				"x": 0.431920922,
				"y": 0.7930872199,
				"z": 1.8322850904,
				"element": "C" 
			},
			{
				"x": 1.017263497,
				"y": 0.2438674648,
				"z": -1.3100932114,
				"element": "C" 
			},
			{
				"x": 2.0150645644,
				"y": 1.1450515805,
				"z": -1.6976104234,
				"element": "C" 
			},
			{
				"x": 3.2436547009,
				"y": 0.6841321773,
				"z": -2.1761297708,
				"element": "C" 
			},
			{
				"x": 3.4877835502,
				"y": -0.684364965,
				"z": -2.2822643094,
				"element": "C" 
			},
			{
				"x": 2.4912804643,
				"y": -1.5901084412,
				"z": -1.9121630929,
				"element": "C" 
			},
			{
				"x": 1.2669348862,
				"y": -1.1323985126,
				"z": -1.427360258,
				"element": "C" 
			},
			{
				"x": -3.0009917096,
				"y": 1.2716736148,
				"z": -2.6370477883,
				"element": "H" 
			},
			{
				"x": -0.0360965987,
				"y": 2.8682611876,
				"z": -0.3330810117,
				"element": "H" 
			},
			{
				"x": -0.4605537189,
				"y": -0.8473986952,
				"z": 0.701699887,
				"element": "H" 
			},
			{
				"x": -2.590889578,
				"y": 0.0443605831,
				"z": 1.5958282573,
				"element": "H" 
			},
			{
				"x": -2.0547369371,
				"y": 1.7111721307,
				"z": 1.2781647971,
				"element": "H" 
			},
			{
				"x": -0.903714869,
				"y": 1.5879860364,
				"z": 3.4929995333,
				"element": "H" 
			},
			{
				"x": -0.8156157679,
				"y": -0.1814811012,
				"z": 3.366688336,
				"element": "H" 
			},
			{
				"x": 0.7485372931,
				"y": 1.8242006049,
				"z": 1.636552183,
				"element": "H" 
			},
			{
				"x": 1.3183530688,
				"y": 0.2050976395,
				"z": 2.0826697618,
				"element": "H" 
			},
			{
				"x": 1.8306911151,
				"y": 2.2124301445,
				"z": -1.6432709209,
				"element": "H" 
			},
			{
				"x": 4.0061842176,
				"y": 1.3997033612,
				"z": -2.4703624181,
				"element": "H" 
			},
			{
				"x": 4.4422038403,
				"y": -1.0430872944,
				"z": -2.6565349846,
				"element": "H" 
			},
			{
				"x": 2.664279694,
				"y": -2.6585345476,
				"z": -2.0045260581,
				"element": "H" 
			},
			{
				"x": 0.4881827454,
				"y": -1.8424614111,
				"z": -1.1719761135,
				"element": "H" 
			}
		],
		 "valence_orbital": [ 
			{
				"type": "occ",
				"energy": -0.28886,
				"method": "rhf"
			},
			{
				"type": "occ",
				"energy": -0.2706,
				"method": "rhf"
			},
			{
				"type": "occ",
				"energy": -0.2657,
				"method": "rhf"
			},
			{
				"type": "occ",
				"energy": -0.25419,
				"method": "rhf"
			},
			{
				"type": "occ",
				"energy": -0.24739,
				"method": "rhf"
			},
			{
				"type": "unocc",
				"energy": -0.02009,
				"method": "rhf"
			},
			{
				"type": "unocc",
				"energy": -0.00664,
				"method": "rhf"
			},
			{
				"type": "unocc",
				"energy": 0.001,
				"method": "rhf"
			},
			{
				"type": "unocc",
				"energy": 0.05389,
				"method": "rhf"
			},
			{
				"type": "unocc",
				"energy": 0.0641,
				"method": "rhf"
			}
		],
		"cosmo_sigma_profile": { 
			"-0.025": 0.0,
			"-0.024": 0.0,
			"-0.023": 0.0,
			"-0.022": 0.0,
			"-0.021": 0.0,
			"-0.02": 0.0,
			"-0.019": 0.0,
			"-0.018": 0.0,
			"-0.017": 0.454666503468,
			"-0.016": 1.23838559611,
			"-0.015": 1.58047570751,
			"-0.014": 2.11779191863,
			"-0.013": 1.56314660719,
			"-0.012": 2.06699329122,
			"-0.011": 1.97762476132,
			"-0.01": 2.50063928929,
			"-0.009": 2.31256246644,
			"-0.008": 2.74226741365,
			"-0.007": 3.52513659235,
			"-0.006": 6.54329665294,
			"-0.005": 10.2732624646,
			"-0.004": 18.2169018962,
			"-0.003": 28.3013121332,
			"-0.002": 27.5040702458,
			"-0.001": 24.643654044,
			"0.0": 21.4595863894,
			"0.001": 19.2217811682,
			"0.002": 14.7614962706,
			"0.003": 10.6318463079,
			"0.004": 10.9593054096,
			"0.005": 11.866356356,
			"0.006": 7.60091030347,
			"0.007": 2.28525187737,
			"0.008": 1.59236660088,
			"0.009": 2.5114327178,
			"0.01": 4.14474701583,
			"0.011": 5.19489063232,
			"0.012": 8.08035280057,
			"0.013": 6.20679301155,
			"0.014": 0.784097164508,
			"0.015": 0.0,
			"0.016": 0.0,
			"0.017": 0.0,
			"0.018": 0.0,
			"0.019": 0.0,
			"0.02": 0.0,
			"0.021": 0.0,
			"0.022": 0.0,
			"0.023": 0.0,
			"0.024": 0.0,
			"0.025": 0.0
		}
	}
}
