{
	 "smiles": "CC1=CC(C)=C(C)C=C1O", 
	 "Tm": 345.15, 
	 "num_atms": 22, 
	 "gaussian": { 
		 "optdone": 1, 
		 "sigma_profile": "yes", 
		 "theory": "DFT", 
		 "functional": "B3LYP", 
		 "basiset": "6-31G**", 
		 "properties": { 
			 "R2extent": 2027.8793, 
			 "electric_dipole_moment_norm": 1.35908452644, 
			 "electric_quadrupole_moment_norm": 8.0999445208, 
			 "total_energy": -425.430654599, 
			 "HOMO_LUMO_gap": 0.21439, 
			 "cosmo_polarized_energy": -7.29, 
			 "cosmo_cavitation_energy": 24.38, 
			 "cosmo_dispersion_energy": -17.98, 
			 "cosmo_repulsion_energy": 1.45, 
			 "cosmo_total_nonelectrostatic_energy": 7.85, 
			 "SMD_solvation_energy": 4.44 
		},
		"coords": [
			{
				"x": -0.6108995373,
				"y": -2.1041414256,
				"z": -0.5992482276,
				"element": "C" 
			},
			{
				"x": 0.0798156564,
				"y": -0.7685830669,
				"z": -0.7450430283,
				"element": "C" 
			},
			{
				"x": 0.7870477159,
				"y": -0.1864681311,
				"z": 0.3126628744,
				"element": "C" 
			},
			{
				"x": 1.4360429366,
				"y": 1.04652208,
				"z": 0.2090047996,
				"element": "C" 
			},
			{
				"x": 2.1830222935,
				"y": 1.6189049243,
				"z": 1.3908363848,
				"element": "C" 
			},
			{
				"x": 1.3753206261,
				"y": 1.7373414078,
				"z": -1.0204301025,
				"element": "C" 
			},
			{
				"x": 2.056870134,
				"y": 3.0741479437,
				"z": -1.1934091638,
				"element": "C" 
			},
			{
				"x": 0.6737895756,
				"y": 1.170157124,
				"z": -2.0854113879,
				"element": "C" 
			},
			{
				"x": 0.0330641729,
				"y": -0.0639956023,
				"z": -1.9572243643,
				"element": "C" 
			},
			{
				"x": -0.6302515019,
				"y": -0.5378504491,
				"z": -3.0600944618,
				"element": "O" 
			},
			{
				"x": -0.219273936,
				"y": -2.8532409963,
				"z": -1.30170257,
				"element": "H" 
			},
			{
				"x": -1.6946839538,
				"y": -2.031889791,
				"z": -0.7670652654,
				"element": "H" 
			},
			{
				"x": -0.4702872643,
				"y": -2.5064995472,
				"z": 0.4069234639,
				"element": "H" 
			},
			{
				"x": 0.831007414,
				"y": -0.7229057308,
				"z": 1.2586991696,
				"element": "H" 
			},
			{
				"x": 2.1233267972,
				"y": 0.9503789319,
				"z": 2.2541904623,
				"element": "H" 
			},
			{
				"x": 3.2456081401,
				"y": 1.7761581642,
				"z": 1.1667596223,
				"element": "H" 
			},
			{
				"x": 1.7804006029,
				"y": 2.5924817918,
				"z": 1.6975283502,
				"element": "H" 
			},
			{
				"x": 1.9094848943,
				"y": 3.4654110951,
				"z": -2.2033376046,
				"element": "H" 
			},
			{
				"x": 1.6715542622,
				"y": 3.818985554,
				"z": -0.4862608493,
				"element": "H" 
			},
			{
				"x": 3.1370731649,
				"y": 3.0032746547,
				"z": -1.016100546,
				"element": "H" 
			},
			{
				"x": 0.6122676239,
				"y": 1.6816140896,
				"z": -3.0414959962,
				"element": "H" 
			},
			{
				"x": -1.0289998173,
				"y": -1.3910030206,
				"z": -2.8492815596,
				"element": "H" 
			}
		],
		 "valence_orbital": [ 
			{
				"type": "occ",
				"energy": -0.33671,
				"method": "rhf"
			},
			{
				"type": "occ",
				"energy": -0.32314,
				"method": "rhf"
			},
			{
				"type": "occ",
				"energy": -0.30852,
				"method": "rhf"
			},
			{
				"type": "occ",
				"energy": -0.23139,
				"method": "rhf"
			},
			{
				"type": "occ",
				"energy": -0.20325,
				"method": "rhf"
			},
			{
				"type": "unocc",
				"energy": 0.01114,
				"method": "rhf"
			},
			{
				"type": "unocc",
				"energy": 0.0219,
				"method": "rhf"
			},
			{
				"type": "unocc",
				"energy": 0.06926,
				"method": "rhf"
			},
			{
				"type": "unocc",
				"energy": 0.09902,
				"method": "rhf"
			},
			{
				"type": "unocc",
				"energy": 0.11638,
				"method": "rhf"
			}
		],
		"cosmo_sigma_profile": { 
			"-0.025": 0.0,
			"-0.024": 0.0,
			"-0.023": 0.0,
			"-0.022": 0.0,
			"-0.021": 0.0,
			"-0.02": 0.0,
			"-0.019": 0.0,
			"-0.018": 0.0,
			"-0.017": 0.0,
			"-0.016": 0.0805877255275,
			"-0.015": 0.537118601799,
			"-0.014": 1.24391713258,
			"-0.013": 0.883312950841,
			"-0.012": 0.862688195498,
			"-0.011": 1.21911844378,
			"-0.01": 0.78337616635,
			"-0.009": 1.11582071967,
			"-0.008": 1.60956723468,
			"-0.007": 1.44768815486,
			"-0.006": 1.42305884272,
			"-0.005": 5.5265065592,
			"-0.004": 17.040539312,
			"-0.003": 21.9153919265,
			"-0.002": 18.5328595751,
			"-0.001": 19.5767339963,
			"0.0": 21.7602801157,
			"0.001": 17.4848924509,
			"0.002": 8.46721225495,
			"0.003": 7.75249590216,
			"0.004": 7.38524331314,
			"0.005": 10.5273858799,
			"0.006": 8.85263073,
			"0.007": 7.00721947423,
			"0.008": 1.22674613615,
			"0.009": 1.48321954602,
			"0.01": 1.86021953382,
			"0.011": 1.78239474371,
			"0.012": 1.77715072131,
			"0.013": 0.0617824135516,
			"0.014": 0.0,
			"0.015": 0.0,
			"0.016": 0.0,
			"0.017": 0.0,
			"0.018": 0.0,
			"0.019": 0.0,
			"0.02": 0.0,
			"0.021": 0.0,
			"0.022": 0.0,
			"0.023": 0.0,
			"0.024": 0.0,
			"0.025": 0.0
		}
	}
}
