{
	 "smiles": "COC1=CC(CC2=CN=C(N)N=C2N)=CC(OC)=C1OC", 
	 "Tm": 474.15, 
	 "num_atms": 39, 
	 "gaussian": { 
		 "optdone": 1, 
		 "sigma_profile": "yes", 
		 "theory": "DFT", 
		 "functional": "B3LYP", 
		 "basiset": "6-31G**", 
		 "properties": { 
			 "R2extent": 8168.3066, 
			 "electric_dipole_moment_norm": 1.60158193359, 
			 "electric_quadrupole_moment_norm": 13.7940486058, 
			 "total_energy": -988.99506708, 
			 "HOMO_LUMO_gap": 0.19709, 
			 "cosmo_polarized_energy": -21.13, 
			 "cosmo_cavitation_energy": 42.64, 
			 "cosmo_dispersion_energy": -29.81, 
			 "cosmo_repulsion_energy": 2.35, 
			 "cosmo_total_nonelectrostatic_energy": 15.18, 
			 "SMD_solvation_energy": 6.46 
		},
		"coords": [
			{
				"x": 0.7297672493,
				"y": -1.6801329337,
				"z": 4.9091681935,
				"element": "C" 
			},
			{
				"x": -0.0919202511,
				"y": -0.6039630378,
				"z": 4.4880110647,
				"element": "O" 
			},
			{
				"x": 0.1566146123,
				"y": -0.0431075826,
				"z": 3.2673966617,
				"element": "C" 
			},
			{
				"x": 1.1595754942,
				"y": -0.4642002966,
				"z": 2.38722218,
				"element": "C" 
			},
			{
				"x": 1.3281746301,
				"y": 0.1613230834,
				"z": 1.144160856,
				"element": "C" 
			},
			{
				"x": 2.4382097382,
				"y": -0.3149890938,
				"z": 0.2117447745,
				"element": "C" 
			},
			{
				"x": 1.9939842839,
				"y": -0.7200553514,
				"z": -1.1793910385,
				"element": "C" 
			},
			{
				"x": 1.5829876625,
				"y": -2.0197161635,
				"z": -1.4555132025,
				"element": "C" 
			},
			{
				"x": 1.1641616839,
				"y": -2.4606613112,
				"z": -2.645794921,
				"element": "N" 
			},
			{
				"x": 1.1703596232,
				"y": -1.5331301563,
				"z": -3.6200741363,
				"element": "C" 
			},
			{
				"x": 0.7895302322,
				"y": -1.9513570109,
				"z": -4.8686794963,
				"element": "N" 
			},
			{
				"x": 1.5468108861,
				"y": -0.2503966715,
				"z": -3.505101933,
				"element": "N" 
			},
			{
				"x": 1.9486228409,
				"y": 0.1547239769,
				"z": -2.2935473017,
				"element": "C" 
			},
			{
				"x": 2.2803266336,
				"y": 1.4870071985,
				"z": -2.1978093836,
				"element": "N" 
			},
			{
				"x": 0.488308,
				"y": 1.2202614885,
				"z": 0.7922432708,
				"element": "C" 
			},
			{
				"x": -0.5174221885,
				"y": 1.6447417219,
				"z": 1.665397792,
				"element": "C" 
			},
			{
				"x": -1.3622339718,
				"y": 2.6462191819,
				"z": 1.2499794412,
				"element": "O" 
			},
			{
				"x": -1.2936572983,
				"y": 3.8668113059,
				"z": 1.9923774301,
				"element": "C" 
			},
			{
				"x": -0.6927741859,
				"y": 1.0216030664,
				"z": 2.9088614221,
				"element": "C" 
			},
			{
				"x": -1.6653812278,
				"y": 1.4628504527,
				"z": 3.7766882298,
				"element": "O" 
			},
			{
				"x": -2.8618903896,
				"y": 0.6791867989,
				"z": 3.7671493486,
				"element": "C" 
			},
			{
				"x": 0.3667838158,
				"y": -1.9663602,
				"z": 5.8976315345,
				"element": "H" 
			},
			{
				"x": 0.6518672941,
				"y": -2.5413461864,
				"z": 4.2327630417,
				"element": "H" 
			},
			{
				"x": 1.7827869675,
				"y": -1.3799210979,
				"z": 4.9855107856,
				"element": "H" 
			},
			{
				"x": 1.8133738167,
				"y": -1.2851377663,
				"z": 2.658679265,
				"element": "H" 
			},
			{
				"x": 2.9344721086,
				"y": -1.1734784118,
				"z": 0.6780913875,
				"element": "H" 
			},
			{
				"x": 3.2166810987,
				"y": 0.4595949788,
				"z": 0.1504654145,
				"element": "H" 
			},
			{
				"x": 1.5931883431,
				"y": -2.7597711374,
				"z": -0.6539481417,
				"element": "H" 
			},
			{
				"x": 0.5387391111,
				"y": -1.2320248853,
				"z": -5.5282760396,
				"element": "H" 
			},
			{
				"x": 0.284234556,
				"y": -2.8225348793,
				"z": -4.9075884498,
				"element": "H" 
			},
			{
				"x": 2.8745504698,
				"y": 1.786569317,
				"z": -1.4412225921,
				"element": "H" 
			},
			{
				"x": 2.4201550554,
				"y": 1.9500145876,
				"z": -3.0843041169,
				"element": "H" 
			},
			{
				"x": 0.5796249904,
				"y": 1.7213064342,
				"z": -0.1656194845,
				"element": "H" 
			},
			{
				"x": -0.288070469,
				"y": 4.303878195,
				"z": 1.9312620547,
				"element": "H" 
			},
			{
				"x": -1.5629823081,
				"y": 3.7133368052,
				"z": 3.0408294252,
				"element": "H" 
			},
			{
				"x": -2.0074188447,
				"y": 4.5474990158,
				"z": 1.5230012278,
				"element": "H" 
			},
			{
				"x": -3.5446590795,
				"y": 1.1507808695,
				"z": 4.4775340668,
				"element": "H" 
			},
			{
				"x": -3.319603371,
				"y": 0.6744183592,
				"z": 2.7705957187,
				"element": "H" 
			},
			{
				"x": -2.6607776125,
				"y": -0.3492426637,
				"z": 4.0863056505,
				"element": "H" 
			}
		],
		 "valence_orbital": [ 
			{
				"type": "occ",
				"energy": -0.24501,
				"method": "rhf"
			},
			{
				"type": "occ",
				"energy": -0.23546,
				"method": "rhf"
			},
			{
				"type": "occ",
				"energy": -0.22127,
				"method": "rhf"
			},
			{
				"type": "occ",
				"energy": -0.21347,
				"method": "rhf"
			},
			{
				"type": "occ",
				"energy": -0.20189,
				"method": "rhf"
			},
			{
				"type": "unocc",
				"energy": -0.0048,
				"method": "rhf"
			},
			{
				"type": "unocc",
				"energy": 0.00522,
				"method": "rhf"
			},
			{
				"type": "unocc",
				"energy": 0.01649,
				"method": "rhf"
			},
			{
				"type": "unocc",
				"energy": 0.02428,
				"method": "rhf"
			},
			{
				"type": "unocc",
				"energy": 0.07327,
				"method": "rhf"
			}
		],
		"cosmo_sigma_profile": { 
			"-0.025": 0.0,
			"-0.024": 0.0,
			"-0.023": 0.0,
			"-0.022": 0.0,
			"-0.021": 0.0,
			"-0.02": 0.0,
			"-0.019": 0.0,
			"-0.018": 0.0,
			"-0.017": 0.0,
			"-0.016": 0.0,
			"-0.015": 0.0,
			"-0.014": 0.358993637312,
			"-0.013": 3.08454678544,
			"-0.012": 4.90229130014,
			"-0.011": 4.14035044104,
			"-0.01": 3.31292011824,
			"-0.009": 5.47859644309,
			"-0.008": 3.73253984469,
			"-0.007": 4.34926265847,
			"-0.006": 12.6911832642,
			"-0.005": 24.821533493,
			"-0.004": 26.4844130078,
			"-0.003": 30.4561839139,
			"-0.002": 28.1111413896,
			"-0.001": 18.3293042244,
			"0.0": 17.6875802763,
			"0.001": 20.3789965835,
			"0.002": 20.0689533535,
			"0.003": 20.6885875551,
			"0.004": 18.958551034,
			"0.005": 16.0244229777,
			"0.006": 10.1779557156,
			"0.007": 8.16667587806,
			"0.008": 7.28684395225,
			"0.009": 5.96275972511,
			"0.01": 5.45241807453,
			"0.011": 5.17833985672,
			"0.012": 5.10766632148,
			"0.013": 2.72204108097,
			"0.014": 0.970760430739,
			"0.015": 0.89533615711,
			"0.016": 0.975956985224,
			"0.017": 0.126060878593,
			"0.018": 0.0,
			"0.019": 0.0,
			"0.02": 0.0,
			"0.021": 0.0,
			"0.022": 0.0,
			"0.023": 0.0,
			"0.024": 0.0,
			"0.025": 0.0
		}
	}
}
