{
	 "smiles": "NCC(=O)NC1=CC(Br)=CC=C1", 
	 "Tm": 353.15, 
	 "num_atms": 21, 
	 "gaussian": { 
		 "optdone": 1, 
		 "sigma_profile": "yes", 
		 "theory": "DFT", 
		 "functional": "B3LYP", 
		 "basiset": "6-31G**", 
		 "properties": { 
			 "R2extent": 4501.784, 
			 "electric_dipole_moment_norm": 2.64326236496, 
			 "electric_quadrupole_moment_norm": 10.0019211075, 
			 "total_energy": -3066.41272596, 
			 "HOMO_LUMO_gap": 0.20421, 
			 "cosmo_polarized_energy": -13.54, 
			 "cosmo_cavitation_energy": 27.44, 
			 "cosmo_dispersion_energy": -20.49, 
			 "cosmo_repulsion_energy": 1.64, 
			 "cosmo_total_nonelectrostatic_energy": 8.59, 
			 "SMD_solvation_energy": 2.71 
		},
		"coords": [
			{
				"x": -3.1785248826,
				"y": 1.1405020937,
				"z": 0.1237991185,
				"element": "N" 
			},
			{
				"x": -1.8317454081,
				"y": 0.6883574662,
				"z": -0.1750801057,
				"element": "C" 
			},
			{
				"x": -0.7743729628,
				"y": 1.7994641532,
				"z": -0.1207445656,
				"element": "C" 
			},
			{
				"x": -1.0869488103,
				"y": 2.950105564,
				"z": 0.1543237408,
				"element": "O" 
			},
			{
				"x": 0.5607456137,
				"y": 1.5260687931,
				"z": -0.3824201685,
				"element": "N" 
			},
			{
				"x": 1.3152092144,
				"y": 0.3903757385,
				"z": -0.7234607042,
				"element": "C" 
			},
			{
				"x": 0.7945943554,
				"y": -0.9021285117,
				"z": -0.8966458035,
				"element": "C" 
			},
			{
				"x": 1.6573311551,
				"y": -1.9436928725,
				"z": -1.2360567671,
				"element": "C" 
			},
			{
				"x": 0.9178120819,
				"y": -3.6925574379,
				"z": -1.4647669982,
				"element": "Br" 
			},
			{
				"x": 3.0240404141,
				"y": -1.7575971321,
				"z": -1.4124210994,
				"element": "C" 
			},
			{
				"x": 3.5326546388,
				"y": -0.46868199,
				"z": -1.2380052786,
				"element": "C" 
			},
			{
				"x": 2.6985194166,
				"y": 0.5892645037,
				"z": -0.8998546899,
				"element": "C" 
			},
			{
				"x": -3.1744549408,
				"y": 1.5860754445,
				"z": 1.0392224725,
				"element": "H" 
			},
			{
				"x": -3.4169323185,
				"y": 1.8935235934,
				"z": -0.5185963425,
				"element": "H" 
			},
			{
				"x": -1.8186896891,
				"y": 0.2322059824,
				"z": -1.1727443539,
				"element": "H" 
			},
			{
				"x": -1.5533395611,
				"y": -0.1036841195,
				"z": 0.5311200966,
				"element": "H" 
			},
			{
				"x": 1.1016774655,
				"y": 2.3793620246,
				"z": -0.2986142728,
				"element": "H" 
			},
			{
				"x": -0.2544672087,
				"y": -1.1181213787,
				"z": -0.7755840202,
				"element": "H" 
			},
			{
				"x": 3.6676165274,
				"y": -2.5876907368,
				"z": -1.6760796356,
				"element": "H" 
			},
			{
				"x": 4.5957504412,
				"y": -0.2897984813,
				"z": -1.3684436387,
				"element": "H" 
			},
			{
				"x": 3.1137244581,
				"y": 1.5848473032,
				"z": -0.7686469839,
				"element": "H" 
			}
		],
		 "valence_orbital": [ 
			{
				"type": "occ",
				"energy": -0.29298,
				"method": "rhf"
			},
			{
				"type": "occ",
				"energy": -0.27213,
				"method": "rhf"
			},
			{
				"type": "occ",
				"energy": -0.25702,
				"method": "rhf"
			},
			{
				"type": "occ",
				"energy": -0.24902,
				"method": "rhf"
			},
			{
				"type": "occ",
				"energy": -0.23255,
				"method": "rhf"
			},
			{
				"type": "unocc",
				"energy": -0.02834,
				"method": "rhf"
			},
			{
				"type": "unocc",
				"energy": -0.02533,
				"method": "rhf"
			},
			{
				"type": "unocc",
				"energy": -0.00021,
				"method": "rhf"
			},
			{
				"type": "unocc",
				"energy": 0.02812,
				"method": "rhf"
			},
			{
				"type": "unocc",
				"energy": 0.07184,
				"method": "rhf"
			}
		],
		"cosmo_sigma_profile": { 
			"-0.025": 0.0,
			"-0.024": 0.0,
			"-0.023": 0.0,
			"-0.022": 0.0,
			"-0.021": 0.0,
			"-0.02": 0.0,
			"-0.019": 0.0,
			"-0.018": 0.0,
			"-0.017": 0.0,
			"-0.016": 0.0,
			"-0.015": 0.139343330516,
			"-0.014": 1.18309220812,
			"-0.013": 1.05210472488,
			"-0.012": 1.43927911463,
			"-0.011": 0.896767930114,
			"-0.01": 1.88048390001,
			"-0.009": 3.90335046113,
			"-0.008": 4.90570064115,
			"-0.007": 14.3147623748,
			"-0.006": 16.2724975019,
			"-0.005": 11.6426374249,
			"-0.004": 11.9150213388,
			"-0.003": 10.8650860295,
			"-0.002": 10.1357617289,
			"-0.001": 11.5001895357,
			"0.0": 11.7096381286,
			"0.001": 15.6116040137,
			"0.002": 19.2296626922,
			"0.003": 20.2380760924,
			"0.004": 19.5709854264,
			"0.005": 7.72611729053,
			"0.006": 2.16485781737,
			"0.007": 2.00549151776,
			"0.008": 1.88735351993,
			"0.009": 1.39421685962,
			"0.01": 1.99016071547,
			"0.011": 2.85439737692,
			"0.012": 3.76061917083,
			"0.013": 5.22165901432,
			"0.014": 1.17822602468,
			"0.015": 0.621765316889,
			"0.016": 0.23859531012,
			"0.017": 0.998802391886,
			"0.018": 0.694537572214,
			"0.019": 0.348051398088,
			"0.02": 0.00852540492469,
			"0.021": 0.0,
			"0.022": 0.0,
			"0.023": 0.0,
			"0.024": 0.0,
			"0.025": 0.0
		}
	}
}
