{
	 "smiles": "CCC1=CC=C(S1)C(=O)NC1=C(Cl)C=C(N)C=C1", 
	 "Tm": 394.15, 
	 "num_atms": 31, 
	 "gaussian": { 
		 "optdone": 1, 
		 "sigma_profile": "yes", 
		 "theory": "DFT", 
		 "functional": "B3LYP", 
		 "basiset": "6-31G**", 
		 "properties": { 
			 "R2extent": 7319.1229, 
			 "electric_dipole_moment_norm": 6.60822891931, 
			 "electric_quadrupole_moment_norm": 10.6651174039, 
			 "total_energy": -1546.33616696, 
			 "HOMO_LUMO_gap": 0.16314, 
			 "cosmo_polarized_energy": -17.54, 
			 "cosmo_cavitation_energy": 38.56, 
			 "cosmo_dispersion_energy": -27.5, 
			 "cosmo_repulsion_energy": 2.13, 
			 "cosmo_total_nonelectrostatic_energy": 13.2, 
			 "SMD_solvation_energy": 6.49 
		},
		"coords": [
			{
				"x": -3.0644050493,
				"y": 1.6243277298,
				"z": 4.5688492838,
				"element": "C" 
			},
			{
				"x": -3.2395360962,
				"y": 0.9153125672,
				"z": 3.213581785,
				"element": "C" 
			},
			{
				"x": -1.9553506514,
				"y": 0.7260439288,
				"z": 2.4531476397,
				"element": "C" 
			},
			{
				"x": -1.2872869587,
				"y": -0.451860921,
				"z": 2.2113298271,
				"element": "C" 
			},
			{
				"x": -0.0901739205,
				"y": -0.2824463647,
				"z": 1.4649398001,
				"element": "C" 
			},
			{
				"x": 0.1556281794,
				"y": 1.0310733315,
				"z": 1.1334242098,
				"element": "C" 
			},
			{
				"x": -1.0917784466,
				"y": 2.0759271992,
				"z": 1.7734584609,
				"element": "S" 
			},
			{
				"x": 1.2969160836,
				"y": 1.7019913332,
				"z": 0.4726742583,
				"element": "C" 
			},
			{
				"x": 1.4959399235,
				"y": 2.9043424773,
				"z": 0.6309983118,
				"element": "O" 
			},
			{
				"x": 2.1806077268,
				"y": 0.9566630802,
				"z": -0.2891153196,
				"element": "N" 
			},
			{
				"x": 2.0136694338,
				"y": -0.2892611379,
				"z": -0.9350004246,
				"element": "C" 
			},
			{
				"x": 3.0372562192,
				"y": -1.2504507573,
				"z": -0.9253752332,
				"element": "C" 
			},
			{
				"x": 4.5320783932,
				"y": -0.9174163932,
				"z": -0.0627718993,
				"element": "Cl" 
			},
			{
				"x": 2.916624371,
				"y": -2.4660803309,
				"z": -1.5927629863,
				"element": "C" 
			},
			{
				"x": 1.7389842085,
				"y": -2.7739343102,
				"z": -2.2915995507,
				"element": "C" 
			},
			{
				"x": 1.6243539593,
				"y": -3.9678883426,
				"z": -2.9985782975,
				"element": "N" 
			},
			{
				"x": 0.7070613667,
				"y": -1.8177107812,
				"z": -2.314244861,
				"element": "C" 
			},
			{
				"x": 0.8566842015,
				"y": -0.5995404042,
				"z": -1.6665304906,
				"element": "C" 
			},
			{
				"x": -2.3804053335,
				"y": 1.0664364913,
				"z": 5.2154274712,
				"element": "H" 
			},
			{
				"x": -2.6550072274,
				"y": 2.6308179161,
				"z": 4.4392019044,
				"element": "H" 
			},
			{
				"x": -4.0268466907,
				"y": 1.7144220861,
				"z": 5.0827159858,
				"element": "H" 
			},
			{
				"x": -3.9556944057,
				"y": 1.4780960032,
				"z": 2.6013923472,
				"element": "H" 
			},
			{
				"x": -3.6814737004,
				"y": -0.0751228417,
				"z": 3.3718316442,
				"element": "H" 
			},
			{
				"x": -1.6479892246,
				"y": -1.4139875479,
				"z": 2.5602309962,
				"element": "H" 
			},
			{
				"x": 0.5671819165,
				"y": -1.0982998698,
				"z": 1.193215832,
				"element": "H" 
			},
			{
				"x": 3.0032299013,
				"y": 1.4967989649,
				"z": -0.5312550801,
				"element": "H" 
			},
			{
				"x": 3.7404741707,
				"y": -3.1716316815,
				"z": -1.565923775,
				"element": "H" 
			},
			{
				"x": 2.22305364,
				"y": -4.7208303856,
				"z": -2.6901125174,
				"element": "H" 
			},
			{
				"x": 0.6803935147,
				"y": -4.2779859171,
				"z": -3.1806383404,
				"element": "H" 
			},
			{
				"x": -0.2049181023,
				"y": -2.0237352959,
				"z": -2.8677232938,
				"element": "H" 
			},
			{
				"x": 0.0613285972,
				"y": 0.1363301739,
				"z": -1.714387688,
				"element": "H" 
			}
		],
		 "valence_orbital": [ 
			{
				"type": "occ",
				"energy": -0.2567,
				"method": "rhf"
			},
			{
				"type": "occ",
				"energy": -0.25467,
				"method": "rhf"
			},
			{
				"type": "occ",
				"energy": -0.24604,
				"method": "rhf"
			},
			{
				"type": "occ",
				"energy": -0.22932,
				"method": "rhf"
			},
			{
				"type": "occ",
				"energy": -0.20644,
				"method": "rhf"
			},
			{
				"type": "unocc",
				"energy": -0.0433,
				"method": "rhf"
			},
			{
				"type": "unocc",
				"energy": -0.0176,
				"method": "rhf"
			},
			{
				"type": "unocc",
				"energy": -0.00057,
				"method": "rhf"
			},
			{
				"type": "unocc",
				"energy": 0.0258,
				"method": "rhf"
			},
			{
				"type": "unocc",
				"energy": 0.03457,
				"method": "rhf"
			}
		],
		"cosmo_sigma_profile": { 
			"-0.025": 0.0,
			"-0.024": 0.0,
			"-0.023": 0.0,
			"-0.022": 0.0,
			"-0.021": 0.0,
			"-0.02": 0.0,
			"-0.019": 0.0,
			"-0.018": 0.0,
			"-0.017": 0.0,
			"-0.016": 0.0,
			"-0.015": 0.0,
			"-0.014": 0.0316996866779,
			"-0.013": 2.28422605925,
			"-0.012": 3.97279326488,
			"-0.011": 3.32123637544,
			"-0.01": 4.38036526923,
			"-0.009": 4.33980306161,
			"-0.008": 4.74542214299,
			"-0.007": 6.50679303575,
			"-0.006": 9.87354719514,
			"-0.005": 14.3473290002,
			"-0.004": 19.2133156571,
			"-0.003": 20.9254267391,
			"-0.002": 23.7016293832,
			"-0.001": 22.3259073664,
			"0.0": 25.1051320325,
			"0.001": 23.7534336183,
			"0.002": 24.7840821721,
			"0.003": 29.3236936691,
			"0.004": 27.360344677,
			"0.005": 13.4584070441,
			"0.006": 3.40641350784,
			"0.007": 2.13038531612,
			"0.008": 2.13579993946,
			"0.009": 2.64563559662,
			"0.01": 1.75911405528,
			"0.011": 3.18607342044,
			"0.012": 2.86575237237,
			"0.013": 5.9856476964,
			"0.014": 2.63986528538,
			"0.015": 0.0,
			"0.016": 0.0,
			"0.017": 0.0,
			"0.018": 0.0,
			"0.019": 0.0,
			"0.02": 0.0,
			"0.021": 0.0,
			"0.022": 0.0,
			"0.023": 0.0,
			"0.024": 0.0,
			"0.025": 0.0
		}
	}
}
