{
	 "smiles": "O=C(C=CNC1=CC=CC=C1)C1=CC=C2CCCCC2=C1", 
	 "Tm": 448.15, 
	 "num_atms": 40, 
	 "gaussian": { 
		 "optdone": 1, 
		 "sigma_profile": "yes", 
		 "theory": "DFT", 
		 "functional": "B3LYP", 
		 "basiset": "6-31G**", 
		 "properties": { 
			 "R2extent": 11818.5006, 
			 "electric_dipole_moment_norm": 2.23816796733, 
			 "electric_quadrupole_moment_norm": 18.7489441012, 
			 "total_energy": -865.471490043, 
			 "HOMO_LUMO_gap": 0.1426, 
			 "cosmo_polarized_energy": -11.07, 
			 "cosmo_cavitation_energy": 42.3, 
			 "cosmo_dispersion_energy": -31.18, 
			 "cosmo_repulsion_energy": 2.34, 
			 "cosmo_total_nonelectrostatic_energy": 13.47, 
			 "SMD_solvation_energy": 6.61 
		},
		"coords": [
			{
				"x": -1.0726215194,
				"y": -1.466720204,
				"z": 0.952661175,
				"element": "O" 
			},
			{
				"x": -0.3625355425,
				"y": -0.7755436707,
				"z": 0.1878596981,
				"element": "C" 
			},
			{
				"x": 0.6000326382,
				"y": -1.3864811375,
				"z": -0.7064819212,
				"element": "C" 
			},
			{
				"x": 0.8072891878,
				"y": -2.7420077029,
				"z": -0.7440509554,
				"element": "C" 
			},
			{
				"x": 0.1535867132,
				"y": -3.6324311947,
				"z": 0.0352236766,
				"element": "N" 
			},
			{
				"x": 0.3173292698,
				"y": -5.0223525244,
				"z": 0.0820790325,
				"element": "C" 
			},
			{
				"x": -0.5935271759,
				"y": -5.7624359797,
				"z": 0.855316921,
				"element": "C" 
			},
			{
				"x": -0.4830725325,
				"y": -7.1470266097,
				"z": 0.9417192473,
				"element": "C" 
			},
			{
				"x": 0.5318646065,
				"y": -7.8220258917,
				"z": 0.2596887528,
				"element": "C" 
			},
			{
				"x": 1.4397888969,
				"y": -7.087768559,
				"z": -0.5052752288,
				"element": "C" 
			},
			{
				"x": 1.3442092705,
				"y": -5.7001102484,
				"z": -0.5952691291,
				"element": "C" 
			},
			{
				"x": -0.5351939923,
				"y": 0.7136773025,
				"z": 0.1974470389,
				"element": "C" 
			},
			{
				"x": -1.6366711417,
				"y": 1.2402392926,
				"z": 0.8893468978,
				"element": "C" 
			},
			{
				"x": -1.8555888889,
				"y": 2.6138873053,
				"z": 0.931903603,
				"element": "C" 
			},
			{
				"x": -0.9718109,
				"y": 3.4954326642,
				"z": 0.3019562769,
				"element": "C" 
			},
			{
				"x": -1.1413452873,
				"y": 4.9938717087,
				"z": 0.3030466638,
				"element": "C" 
			},
			{
				"x": -0.9787152565,
				"y": 5.5756108033,
				"z": -1.1212161349,
				"element": "C" 
			},
			{
				"x": 0.2620572537,
				"y": 5.0121147818,
				"z": -1.8743844106,
				"element": "C" 
			},
			{
				"x": 1.0622348444,
				"y": 3.9831318999,
				"z": -1.0414878322,
				"element": "C" 
			},
			{
				"x": 0.1440950902,
				"y": 2.9806627879,
				"z": -0.3849881077,
				"element": "C" 
			},
			{
				"x": 0.3482734274,
				"y": 1.6022856864,
				"z": -0.4372561343,
				"element": "C" 
			},
			{
				"x": 1.1649052767,
				"y": -0.7805044179,
				"z": -1.4011490528,
				"element": "H" 
			},
			{
				"x": 1.5296487392,
				"y": -3.1517800885,
				"z": -1.4435861499,
				"element": "H" 
			},
			{
				"x": -0.5412928978,
				"y": -3.1796462251,
				"z": 0.6405235407,
				"element": "H" 
			},
			{
				"x": -1.3888348707,
				"y": -5.2416547081,
				"z": 1.3817014743,
				"element": "H" 
			},
			{
				"x": -1.197503626,
				"y": -7.7004271055,
				"z": 1.5443706631,
				"element": "H" 
			},
			{
				"x": 0.6164152005,
				"y": -8.9020711484,
				"z": 0.3263872655,
				"element": "H" 
			},
			{
				"x": 2.2400397327,
				"y": -7.5966947777,
				"z": -1.0351898049,
				"element": "H" 
			},
			{
				"x": 2.0772141488,
				"y": -5.1555939909,
				"z": -1.1805489647,
				"element": "H" 
			},
			{
				"x": -2.3095827492,
				"y": 0.5470718591,
				"z": 1.3819393753,
				"element": "H" 
			},
			{
				"x": -2.7204373747,
				"y": 3.0085267664,
				"z": 1.4602046737,
				"element": "H" 
			},
			{
				"x": -0.3795301381,
				"y": 5.4412464716,
				"z": 0.9587950428,
				"element": "H" 
			},
			{
				"x": -2.1126058473,
				"y": 5.2772201236,
				"z": 0.7218849103,
				"element": "H" 
			},
			{
				"x": -1.8850176139,
				"y": 5.344536444,
				"z": -1.6908133921,
				"element": "H" 
			},
			{
				"x": -0.9251351138,
				"y": 6.6676281326,
				"z": -1.0564908755,
				"element": "H" 
			},
			{
				"x": -0.0656313461,
				"y": 4.5253314562,
				"z": -2.799053994,
				"element": "H" 
			},
			{
				"x": 0.9307982948,
				"y": 5.8260453312,
				"z": -2.1743817453,
				"element": "H" 
			},
			{
				"x": 1.8046269536,
				"y": 3.4805373596,
				"z": -1.6705561801,
				"element": "H" 
			},
			{
				"x": 1.6280108726,
				"y": 4.5181800671,
				"z": -0.2645033401,
				"element": "H" 
			},
			{
				"x": 1.2209333968,
				"y": 1.2281379409,
				"z": -0.9641725758,
				"element": "H" 
			}
		],
		 "valence_orbital": [ 
			{
				"type": "occ",
				"energy": -0.25414,
				"method": "rhf"
			},
			{
				"type": "occ",
				"energy": -0.24388,
				"method": "rhf"
			},
			{
				"type": "occ",
				"energy": -0.24018,
				"method": "rhf"
			},
			{
				"type": "occ",
				"energy": -0.23228,
				"method": "rhf"
			},
			{
				"type": "occ",
				"energy": -0.19819,
				"method": "rhf"
			},
			{
				"type": "unocc",
				"energy": -0.05559,
				"method": "rhf"
			},
			{
				"type": "unocc",
				"energy": -0.00534,
				"method": "rhf"
			},
			{
				"type": "unocc",
				"energy": -0.00079,
				"method": "rhf"
			},
			{
				"type": "unocc",
				"energy": 0.00589,
				"method": "rhf"
			},
			{
				"type": "unocc",
				"energy": 0.03319,
				"method": "rhf"
			}
		],
		"cosmo_sigma_profile": { 
			"-0.025": 0.0,
			"-0.024": 0.0,
			"-0.023": 0.0,
			"-0.022": 0.0,
			"-0.021": 0.0,
			"-0.02": 0.0,
			"-0.019": 0.0,
			"-0.018": 0.0,
			"-0.017": 0.0,
			"-0.016": 0.0,
			"-0.015": 0.0,
			"-0.014": 0.0,
			"-0.013": 0.0,
			"-0.012": 0.0,
			"-0.011": 0.0,
			"-0.01": 0.763977534812,
			"-0.009": 2.96018194031,
			"-0.008": 3.45606628246,
			"-0.007": 5.83452094376,
			"-0.006": 10.9649152208,
			"-0.005": 17.2662857734,
			"-0.004": 23.5245818323,
			"-0.003": 30.9446922623,
			"-0.002": 32.9390333167,
			"-0.001": 35.0738405459,
			"0.0": 31.7313329384,
			"0.001": 25.9886943259,
			"0.002": 23.7637530631,
			"0.003": 23.0934054195,
			"0.004": 21.7891083721,
			"0.005": 23.0252398946,
			"0.006": 10.4732971565,
			"0.007": 1.84220707083,
			"0.008": 1.8279744988,
			"0.009": 1.20456047939,
			"0.01": 1.58848361028,
			"0.011": 1.83405257984,
			"0.012": 1.84745596635,
			"0.013": 1.91990140352,
			"0.014": 0.530166864092,
			"0.015": 0.0,
			"0.016": 0.0,
			"0.017": 0.0,
			"0.018": 0.0,
			"0.019": 0.0,
			"0.02": 0.0,
			"0.021": 0.0,
			"0.022": 0.0,
			"0.023": 0.0,
			"0.024": 0.0,
			"0.025": 0.0
		}
	}
}
