{
	 "smiles": "CC1NCCNC1=O", 
	 "Tm": 339.15, 
	 "num_atms": 18, 
	 "gaussian": { 
		 "optdone": 1, 
		 "sigma_profile": "yes", 
		 "theory": "DFT", 
		 "functional": "B3LYP", 
		 "basiset": "6-31G**", 
		 "properties": { 
			 "R2extent": 1003.9448, 
			 "electric_dipole_moment_norm": 3.59560250028, 
			 "electric_quadrupole_moment_norm": 11.6393098176, 
			 "total_energy": -381.295251693, 
			 "HOMO_LUMO_gap": 0.24153, 
			 "cosmo_polarized_energy": -12.84, 
			 "cosmo_cavitation_energy": 19.96, 
			 "cosmo_dispersion_energy": -15.26, 
			 "cosmo_repulsion_energy": 1.28, 
			 "cosmo_total_nonelectrostatic_energy": 5.98, 
			 "SMD_solvation_energy": 1.03 
		},
		"coords": [
			{
				"x": 2.0556290247,
				"y": 0.8626244268,
				"z": 0.0288052135,
				"element": "C" 
			},
			{
				"x": 0.5607972731,
				"y": 0.5509772899,
				"z": 0.0879238869,
				"element": "C" 
			},
			{
				"x": 0.1638284609,
				"y": -0.307835056,
				"z": -1.035672849,
				"element": "N" 
			},
			{
				"x": -1.1884777393,
				"y": -0.8311590629,
				"z": -0.8748149594,
				"element": "C" 
			},
			{
				"x": -1.3480463213,
				"y": -1.6705461941,
				"z": 0.3960920399,
				"element": "C" 
			},
			{
				"x": -0.7839185014,
				"y": -0.9494831433,
				"z": 1.5322039053,
				"element": "N" 
			},
			{
				"x": 0.173706196,
				"y": 0.0285024893,
				"z": 1.4868976869,
				"element": "C" 
			},
			{
				"x": 0.6543256761,
				"y": 0.5020661192,
				"z": 2.5105142138,
				"element": "O" 
			},
			{
				"x": 2.3327724638,
				"y": 1.5101899552,
				"z": 0.861304207,
				"element": "H" 
			},
			{
				"x": 2.3007071344,
				"y": 1.3498894531,
				"z": -0.918348891,
				"element": "H" 
			},
			{
				"x": 2.6487374469,
				"y": -0.0563548572,
				"z": 0.1093197134,
				"element": "H" 
			},
			{
				"x": 0.0084408287,
				"y": 1.4975542762,
				"z": -0.0198573076,
				"element": "H" 
			},
			{
				"x": 0.8223901798,
				"y": -1.0815703799,
				"z": -1.1136075516,
				"element": "H" 
			},
			{
				"x": -1.8789049239,
				"y": 0.0211134061,
				"z": -0.840806213,
				"element": "H" 
			},
			{
				"x": -1.4558123479,
				"y": -1.4323859685,
				"z": -1.7502458761,
				"element": "H" 
			},
			{
				"x": -0.8447149222,
				"y": -2.6418255593,
				"z": 0.263958943,
				"element": "H" 
			},
			{
				"x": -2.4072504444,
				"y": -1.8805768527,
				"z": 0.5909410113,
				"element": "H" 
			},
			{
				"x": -0.9837094839,
				"y": -1.2769803421,
				"z": 2.4689928269,
				"element": "H" 
			}
		],
		 "valence_orbital": [ 
			{
				"type": "occ",
				"energy": -0.35308,
				"method": "rhf"
			},
			{
				"type": "occ",
				"energy": -0.34009,
				"method": "rhf"
			},
			{
				"type": "occ",
				"energy": -0.26827,
				"method": "rhf"
			},
			{
				"type": "occ",
				"energy": -0.24693,
				"method": "rhf"
			},
			{
				"type": "occ",
				"energy": -0.21407,
				"method": "rhf"
			},
			{
				"type": "unocc",
				"energy": 0.02746,
				"method": "rhf"
			},
			{
				"type": "unocc",
				"energy": 0.07459,
				"method": "rhf"
			},
			{
				"type": "unocc",
				"energy": 0.10537,
				"method": "rhf"
			},
			{
				"type": "unocc",
				"energy": 0.11393,
				"method": "rhf"
			},
			{
				"type": "unocc",
				"energy": 0.11888,
				"method": "rhf"
			}
		],
		"cosmo_sigma_profile": { 
			"-0.025": 0.0,
			"-0.024": 0.0,
			"-0.023": 0.0,
			"-0.022": 0.0,
			"-0.021": 0.0,
			"-0.02": 0.0,
			"-0.019": 0.0,
			"-0.018": 0.0,
			"-0.017": 0.0,
			"-0.016": 0.0,
			"-0.015": 0.0,
			"-0.014": 0.013737163926,
			"-0.013": 1.23013099503,
			"-0.012": 0.96379045886,
			"-0.011": 0.716481147745,
			"-0.01": 2.12971319364,
			"-0.009": 2.73879236788,
			"-0.008": 3.26620074769,
			"-0.007": 3.24663583227,
			"-0.006": 3.81681089958,
			"-0.005": 12.1344416715,
			"-0.004": 19.4168004033,
			"-0.003": 18.0566524418,
			"-0.002": 13.6834762208,
			"-0.001": 11.1498798163,
			"0.0": 10.3695172063,
			"0.001": 9.5277185331,
			"0.002": 4.71542183892,
			"0.003": 3.50546116386,
			"0.004": 3.71893381906,
			"0.005": 2.22003533086,
			"0.006": 2.00148191961,
			"0.007": 1.84688108216,
			"0.008": 2.42184514367,
			"0.009": 2.4706760714,
			"0.01": 1.28833538752,
			"0.011": 2.18845878005,
			"0.012": 2.45581735595,
			"0.013": 2.51038559614,
			"0.014": 6.11210238366,
			"0.015": 3.45670771077,
			"0.016": 0.837987910567,
			"0.017": 0.491714726781,
			"0.018": 0.149721722356,
			"0.019": 0.0,
			"0.02": 0.0,
			"0.021": 0.0,
			"0.022": 0.0,
			"0.023": 0.0,
			"0.024": 0.0,
			"0.025": 0.0
		}
	}
}
