{
	 "smiles": "ClC1=CC2=C(C=C1)N(C1CCN(CCCN3C(=O)NC4=CC=CC=C34)CC1)C(=O)N2", 
	 "Tm": 513.15, 
	 "num_atms": 54, 
	 "gaussian": { 
		 "optdone": 1, 
		 "sigma_profile": "yes", 
		 "theory": "DFT", 
		 "functional": "B3LYP", 
		 "basiset": "6-31G**", 
		 "properties": { 
			 "R2extent": 16894.7402, 
			 "electric_dipole_moment_norm": 5.06588377383, 
			 "electric_quadrupole_moment_norm": 10.9853942232, 
			 "total_energy": -1737.27234696, 
			 "HOMO_LUMO_gap": 0.18684, 
			 "cosmo_polarized_energy": -22.54, 
			 "cosmo_cavitation_energy": 55.49, 
			 "cosmo_dispersion_energy": -38.4, 
			 "cosmo_repulsion_energy": 2.82, 
			 "cosmo_total_nonelectrostatic_energy": 19.91, 
			 "SMD_solvation_energy": 6.64 
		},
		"coords": [
			{
				"x": 1.2129429482,
				"y": -3.0140110146,
				"z": 4.8520273091,
				"element": "Cl" 
			},
			{
				"x": 0.8724960986,
				"y": -1.4419105282,
				"z": 4.1306912127,
				"element": "C" 
			},
			{
				"x": 1.0535721033,
				"y": -0.2965425327,
				"z": 4.9112775634,
				"element": "C" 
			},
			{
				"x": 0.7760884916,
				"y": 0.9217342947,
				"z": 4.3082685337,
				"element": "C" 
			},
			{
				"x": 0.3286385801,
				"y": 1.0283053858,
				"z": 2.9694113382,
				"element": "C" 
			},
			{
				"x": 0.1593001805,
				"y": -0.1334140028,
				"z": 2.2207066001,
				"element": "C" 
			},
			{
				"x": 0.4353532509,
				"y": -1.3742936135,
				"z": 2.8100341834,
				"element": "C" 
			},
			{
				"x": 0.1530801991,
				"y": 2.3972436192,
				"z": 2.7031099689,
				"element": "N" 
			},
			{
				"x": -0.2942712209,
				"y": 3.1590486676,
				"z": 1.5201138098,
				"element": "C" 
			},
			{
				"x": -1.7628207958,
				"y": 2.9186407657,
				"z": 1.1009296151,
				"element": "C" 
			},
			{
				"x": -1.9712980381,
				"y": 1.8443299637,
				"z": 0.0254901635,
				"element": "C" 
			},
			{
				"x": -1.0711210186,
				"y": 2.0715051522,
				"z": -1.1030373581,
				"element": "N" 
			},
			{
				"x": -1.4577242132,
				"y": 1.4088930535,
				"z": -2.3443979928,
				"element": "C" 
			},
			{
				"x": -1.5626065424,
				"y": -0.1358603453,
				"z": -2.3698486961,
				"element": "C" 
			},
			{
				"x": -0.2194604194,
				"y": -0.875083292,
				"z": -2.4593963011,
				"element": "C" 
			},
			{
				"x": -0.3707992104,
				"y": -2.3227431763,
				"z": -2.426697764,
				"element": "N" 
			},
			{
				"x": -0.3907819353,
				"y": -3.0243484523,
				"z": -1.222790199,
				"element": "C" 
			},
			{
				"x": -0.2624274499,
				"y": -2.5554895706,
				"z": -0.0988190085,
				"element": "O" 
			},
			{
				"x": -0.586689395,
				"y": -4.3542251547,
				"z": -1.5749841558,
				"element": "N" 
			},
			{
				"x": -0.7062862821,
				"y": -4.4912116753,
				"z": -2.9544618643,
				"element": "C" 
			},
			{
				"x": -0.9099469644,
				"y": -5.59707582,
				"z": -3.768519657,
				"element": "C" 
			},
			{
				"x": -0.9845476669,
				"y": -5.3801272989,
				"z": -5.1507459214,
				"element": "C" 
			},
			{
				"x": -0.8583957701,
				"y": -4.0956835386,
				"z": -5.6889893463,
				"element": "C" 
			},
			{
				"x": -0.6528064527,
				"y": -2.9797827109,
				"z": -4.8671668902,
				"element": "C" 
			},
			{
				"x": -0.5772054921,
				"y": -3.1934368377,
				"z": -3.4955029959,
				"element": "C" 
			},
			{
				"x": 0.3373907058,
				"y": 2.0058718972,
				"z": -0.7200925859,
				"element": "C" 
			},
			{
				"x": 0.6579723804,
				"y": 3.1024548813,
				"z": 0.3035897219,
				"element": "C" 
			},
			{
				"x": 0.482673404,
				"y": 3.1404757204,
				"z": 3.8515911059,
				"element": "C" 
			},
			{
				"x": 0.4472458863,
				"y": 4.3545852106,
				"z": 3.9843518906,
				"element": "O" 
			},
			{
				"x": 0.8578813785,
				"y": 2.2106158806,
				"z": 4.8089660438,
				"element": "N" 
			},
			{
				"x": 1.3952080044,
				"y": -0.3625655393,
				"z": 5.9377885804,
				"element": "H" 
			},
			{
				"x": -0.1763993749,
				"y": -0.126587833,
				"z": 1.1945371976,
				"element": "H" 
			},
			{
				"x": 0.3042743092,
				"y": -2.2706552366,
				"z": 2.2167643716,
				"element": "H" 
			},
			{
				"x": -0.2426602991,
				"y": 4.1779359496,
				"z": 1.9104111288,
				"element": "H" 
			},
			{
				"x": -2.1277744496,
				"y": 3.866463523,
				"z": 0.6889129392,
				"element": "H" 
			},
			{
				"x": -2.3687431488,
				"y": 2.69615309,
				"z": 1.985352374,
				"element": "H" 
			},
			{
				"x": -1.8642528011,
				"y": 0.837404052,
				"z": 0.4638770115,
				"element": "H" 
			},
			{
				"x": -3.0027697565,
				"y": 1.911133447,
				"z": -0.3411495221,
				"element": "H" 
			},
			{
				"x": -0.7632050953,
				"y": 1.740202939,
				"z": -3.128729193,
				"element": "H" 
			},
			{
				"x": -2.4428407454,
				"y": 1.8060694261,
				"z": -2.6220154247,
				"element": "H" 
			},
			{
				"x": -2.1766518044,
				"y": -0.4242978556,
				"z": -3.232855539,
				"element": "H" 
			},
			{
				"x": -2.0960371094,
				"y": -0.4883973815,
				"z": -1.4802580362,
				"element": "H" 
			},
			{
				"x": 0.3136741719,
				"y": -0.6078866359,
				"z": -3.3785583375,
				"element": "H" 
			},
			{
				"x": 0.4242360651,
				"y": -0.6178108196,
				"z": -1.617019958,
				"element": "H" 
			},
			{
				"x": -0.6366353715,
				"y": -5.0839552406,
				"z": -0.8825473901,
				"element": "H" 
			},
			{
				"x": -1.007753641,
				"y": -6.5939278486,
				"z": -3.3501252111,
				"element": "H" 
			},
			{
				"x": -1.1438887939,
				"y": -6.2261054142,
				"z": -5.8118424665,
				"element": "H" 
			},
			{
				"x": -0.9218352664,
				"y": -3.9563300636,
				"z": -6.7636454794,
				"element": "H" 
			},
			{
				"x": -0.5586529857,
				"y": -1.9848863141,
				"z": -5.289904094,
				"element": "H" 
			},
			{
				"x": 0.9459315384,
				"y": 2.1699771694,
				"z": -1.6173814929,
				"element": "H" 
			},
			{
				"x": 0.6339855622,
				"y": 1.0233878324,
				"z": -0.315635801,
				"element": "H" 
			},
			{
				"x": 1.6936102932,
				"y": 3.0134546142,
				"z": 0.6477970455,
				"element": "H" 
			},
			{
				"x": 0.5676326198,
				"y": 4.0662134242,
				"z": -0.2105733354,
				"element": "H" 
			},
			{
				"x": 1.1435013392,
				"y": 2.4907457875,
				"z": 5.7329923089,
				"element": "H" 
			}
		],
		 "valence_orbital": [ 
			{
				"type": "occ",
				"energy": -0.2424,
				"method": "rhf"
			},
			{
				"type": "occ",
				"energy": -0.23183,
				"method": "rhf"
			},
			{
				"type": "occ",
				"energy": -0.21384,
				"method": "rhf"
			},
			{
				"type": "occ",
				"energy": -0.20814,
				"method": "rhf"
			},
			{
				"type": "occ",
				"energy": -0.19916,
				"method": "rhf"
			},
			{
				"type": "unocc",
				"energy": -0.01232,
				"method": "rhf"
			},
			{
				"type": "unocc",
				"energy": -0.00547,
				"method": "rhf"
			},
			{
				"type": "unocc",
				"energy": 0.00738,
				"method": "rhf"
			},
			{
				"type": "unocc",
				"energy": 0.01453,
				"method": "rhf"
			},
			{
				"type": "unocc",
				"energy": 0.04019,
				"method": "rhf"
			}
		],
		"cosmo_sigma_profile": { 
			"-0.025": 0.0,
			"-0.024": 0.0,
			"-0.023": 0.0,
			"-0.022": 0.0,
			"-0.021": 0.0,
			"-0.02": 0.0,
			"-0.019": 0.0,
			"-0.018": 0.0,
			"-0.017": 0.345011204085,
			"-0.016": 2.3460333527,
			"-0.015": 2.4652349501,
			"-0.014": 2.69160870384,
			"-0.013": 2.37480225135,
			"-0.012": 1.20161362557,
			"-0.011": 2.40386791459,
			"-0.01": 2.64996888179,
			"-0.009": 1.85540467142,
			"-0.008": 3.68289180466,
			"-0.007": 5.72046296183,
			"-0.006": 10.2339379162,
			"-0.005": 14.4447746667,
			"-0.004": 31.4722858624,
			"-0.003": 42.6135752946,
			"-0.002": 48.6307451119,
			"-0.001": 48.4667861358,
			"0.0": 35.7867657741,
			"0.001": 27.446365156,
			"0.002": 25.59008739,
			"0.003": 29.2610382058,
			"0.004": 28.8759586057,
			"0.005": 25.0225283321,
			"0.006": 12.1772269712,
			"0.007": 5.53765548234,
			"0.008": 3.97020199015,
			"0.009": 4.21213349471,
			"0.01": 4.58683891096,
			"0.011": 3.03012052144,
			"0.012": 2.84776178387,
			"0.013": 5.74959816854,
			"0.014": 3.75005466808,
			"0.015": 0.218716415611,
			"0.016": 0.0,
			"0.017": 0.0,
			"0.018": 0.0,
			"0.019": 0.0,
			"0.02": 0.0,
			"0.021": 0.0,
			"0.022": 0.0,
			"0.023": 0.0,
			"0.024": 0.0,
			"0.025": 0.0
		}
	}
}
