{
	 "smiles": "CC1=CC(COC2=CC=C(C=C2)S(N)(=O)=O)=CC=C1", 
	 "Tm": 433.15, 
	 "num_atms": 34, 
	 "gaussian": { 
		 "optdone": 1, 
		 "sigma_profile": "yes", 
		 "theory": "DFT", 
		 "functional": "B3LYP", 
		 "basiset": "6-31G**", 
		 "properties": { 
			 "R2extent": 9031.1176, 
			 "electric_dipole_moment_norm": 7.51764992335, 
			 "electric_quadrupole_moment_norm": 39.9371450973, 
			 "total_energy": -1221.07116455, 
			 "HOMO_LUMO_gap": 0.2116, 
			 "cosmo_polarized_energy": -21.22, 
			 "cosmo_cavitation_energy": 39.53, 
			 "cosmo_dispersion_energy": -28.44, 
			 "cosmo_repulsion_energy": 2.17, 
			 "cosmo_total_nonelectrostatic_energy": 13.26, 
			 "SMD_solvation_energy": 6.51 
		},
		"coords": [
			{
				"x": -0.5610536292,
				"y": 4.2909659104,
				"z": -0.8274323798,
				"element": "C" 
			},
			{
				"x": -0.444674339,
				"y": 2.8875530752,
				"z": -1.3747334814,
				"element": "C" 
			},
			{
				"x": 0.7033684203,
				"y": 2.1188428018,
				"z": -1.1441508327,
				"element": "C" 
			},
			{
				"x": 0.8388837391,
				"y": 0.8288677948,
				"z": -1.6685803731,
				"element": "C" 
			},
			{
				"x": 2.1248113146,
				"y": 0.0566843484,
				"z": -1.4495734474,
				"element": "C" 
			},
			{
				"x": 1.949591423,
				"y": -1.36114259,
				"z": -1.3664419651,
				"element": "O" 
			},
			{
				"x": 1.4788039914,
				"y": -1.9146272663,
				"z": -0.214988075,
				"element": "C" 
			},
			{
				"x": 1.0287653187,
				"y": -1.1890625022,
				"z": 0.8974345155,
				"element": "C" 
			},
			{
				"x": 0.5829592112,
				"y": -1.8712721101,
				"z": 2.0293168663,
				"element": "C" 
			},
			{
				"x": 0.5781844539,
				"y": -3.2657689808,
				"z": 2.0499176092,
				"element": "C" 
			},
			{
				"x": 1.0326668221,
				"y": -3.9942552961,
				"z": 0.9433003941,
				"element": "C" 
			},
			{
				"x": 1.4786210312,
				"y": -3.3198109033,
				"z": -0.183828881,
				"element": "C" 
			},
			{
				"x": -0.0310723267,
				"y": -4.130842291,
				"z": 3.4954396641,
				"element": "S" 
			},
			{
				"x": -1.6789182536,
				"y": -4.3978596459,
				"z": 3.2561816336,
				"element": "N" 
			},
			{
				"x": 0.5782798906,
				"y": -5.4602710907,
				"z": 3.5028470186,
				"element": "O" 
			},
			{
				"x": 0.0510817604,
				"y": -3.2092636914,
				"z": 4.6280939278,
				"element": "O" 
			},
			{
				"x": -0.198981865,
				"y": 0.2886470142,
				"z": -2.4349966112,
				"element": "C" 
			},
			{
				"x": -1.3533714595,
				"y": 1.0371904892,
				"z": -2.6625050819,
				"element": "C" 
			},
			{
				"x": -1.4752048801,
				"y": 2.3247918558,
				"z": -2.1390655221,
				"element": "C" 
			},
			{
				"x": -1.5918444731,
				"y": 4.5264561547,
				"z": -0.5455330163,
				"element": "H" 
			},
			{
				"x": 0.0719189161,
				"y": 4.432489607,
				"z": 0.0534785446,
				"element": "H" 
			},
			{
				"x": -0.2518854755,
				"y": 5.0331071472,
				"z": -1.5740620078,
				"element": "H" 
			},
			{
				"x": 1.507696039,
				"y": 2.5372370617,
				"z": -0.5409472562,
				"element": "H" 
			},
			{
				"x": 2.7927121928,
				"y": 0.1834768574,
				"z": -2.3080154321,
				"element": "H" 
			},
			{
				"x": 2.655817124,
				"y": 0.4261434806,
				"z": -0.5630258189,
				"element": "H" 
			},
			{
				"x": 1.0085720563,
				"y": -0.1068243499,
				"z": 0.8866118969,
				"element": "H" 
			},
			{
				"x": 0.253535741,
				"y": -1.3204756305,
				"z": 2.904061741,
				"element": "H" 
			},
			{
				"x": 1.0586436669,
				"y": -5.0780570217,
				"z": 0.9848551406,
				"element": "H" 
			},
			{
				"x": 1.8492939454,
				"y": -3.8563689535,
				"z": -1.0507561197,
				"element": "H" 
			},
			{
				"x": -1.8604633666,
				"y": -5.0147177444,
				"z": 2.4703018751,
				"element": "H" 
			},
			{
				"x": -2.2072803693,
				"y": -3.5323038793,
				"z": 3.2035608334,
				"element": "H" 
			},
			{
				"x": -0.1027257071,
				"y": -0.714992326,
				"z": -2.837045533,
				"element": "H" 
			},
			{
				"x": -2.1638419805,
				"y": 0.6145008863,
				"z": -3.2497306756,
				"element": "H" 
			},
			{
				"x": -2.3808889329,
				"y": 2.8981617885,
				"z": -2.3206891503,
				"element": "H" 
			}
		],
		 "valence_orbital": [ 
			{
				"type": "occ",
				"energy": -0.29675,
				"method": "rhf"
			},
			{
				"type": "occ",
				"energy": -0.27194,
				"method": "rhf"
			},
			{
				"type": "occ",
				"energy": -0.25823,
				"method": "rhf"
			},
			{
				"type": "occ",
				"energy": -0.24972,
				"method": "rhf"
			},
			{
				"type": "occ",
				"energy": -0.23894,
				"method": "rhf"
			},
			{
				"type": "unocc",
				"energy": -0.02734,
				"method": "rhf"
			},
			{
				"type": "unocc",
				"energy": -0.02277,
				"method": "rhf"
			},
			{
				"type": "unocc",
				"energy": -0.01455,
				"method": "rhf"
			},
			{
				"type": "unocc",
				"energy": -0.01183,
				"method": "rhf"
			},
			{
				"type": "unocc",
				"energy": 0.05638,
				"method": "rhf"
			}
		],
		"cosmo_sigma_profile": { 
			"-0.025": 0.0,
			"-0.024": 0.0,
			"-0.023": 0.0,
			"-0.022": 0.0,
			"-0.021": 0.0,
			"-0.02": 0.0,
			"-0.019": 0.0,
			"-0.018": 0.0,
			"-0.017": 0.0,
			"-0.016": 0.019641910985,
			"-0.015": 1.61123847718,
			"-0.014": 2.73267377491,
			"-0.013": 2.68831749035,
			"-0.012": 3.03397042164,
			"-0.011": 2.64665607561,
			"-0.01": 2.3318005235,
			"-0.009": 2.13008887458,
			"-0.008": 1.7389934283,
			"-0.007": 8.20979717427,
			"-0.006": 17.4332954486,
			"-0.005": 20.4608687285,
			"-0.004": 25.9389126795,
			"-0.003": 21.1162082324,
			"-0.002": 18.8860375021,
			"-0.001": 21.4394705444,
			"0.0": 20.6689285532,
			"0.001": 20.4464659405,
			"0.002": 23.5452927518,
			"0.003": 21.9832333328,
			"0.004": 12.5040646119,
			"0.005": 11.6810359714,
			"0.006": 10.0377158364,
			"0.007": 4.66489438584,
			"0.008": 6.42523364928,
			"0.009": 5.4610804618,
			"0.01": 5.8968602315,
			"0.011": 10.7705271526,
			"0.012": 7.4010900206,
			"0.013": 0.472727388604,
			"0.014": 0.0,
			"0.015": 0.0,
			"0.016": 0.0,
			"0.017": 0.0,
			"0.018": 0.0,
			"0.019": 0.0,
			"0.02": 0.0,
			"0.021": 0.0,
			"0.022": 0.0,
			"0.023": 0.0,
			"0.024": 0.0,
			"0.025": 0.0
		}
	}
}
