{
	 "smiles": "OC(=O)C1=C(Br)N=CC=C1", 
	 "Tm": 527.15, 
	 "num_atms": 14, 
	 "gaussian": { 
		 "optdone": 1, 
		 "sigma_profile": "yes", 
		 "theory": "DFT", 
		 "functional": "B3LYP", 
		 "basiset": "6-31G**", 
		 "properties": { 
			 "R2extent": 3193.791, 
			 "electric_dipole_moment_norm": 5.57917322011, 
			 "electric_quadrupole_moment_norm": 8.07022902153, 
			 "total_energy": -3007.64092157, 
			 "HOMO_LUMO_gap": 0.20041, 
			 "cosmo_polarized_energy": -17.66, 
			 "cosmo_cavitation_energy": 21.46, 
			 "cosmo_dispersion_energy": -16.26, 
			 "cosmo_repulsion_energy": 1.33, 
			 "cosmo_total_nonelectrostatic_energy": 6.52, 
			 "SMD_solvation_energy": 2.49 
		},
		"coords": [
			{
				"x": 0.801309297,
				"y": -2.707651492,
				"z": -1.2972055478,
				"element": "O" 
			},
			{
				"x": -0.353529125,
				"y": -2.114884467,
				"z": -0.8872667644,
				"element": "C" 
			},
			{
				"x": -1.2603775346,
				"y": -2.7722322044,
				"z": -0.4497633818,
				"element": "O" 
			},
			{
				"x": -0.3495813661,
				"y": -0.6109871682,
				"z": -0.9626233806,
				"element": "C" 
			},
			{
				"x": -1.4090447436,
				"y": 0.1576928283,
				"z": -1.4839471084,
				"element": "C" 
			},
			{
				"x": -2.9098203905,
				"y": -0.6892509417,
				"z": -2.3129152657,
				"element": "Br" 
			},
			{
				"x": -1.431228847,
				"y": 1.4779533653,
				"z": -1.4846585545,
				"element": "N" 
			},
			{
				"x": -0.3946110809,
				"y": 2.1344475709,
				"z": -0.9464862528,
				"element": "C" 
			},
			{
				"x": 0.7156671711,
				"y": 1.4905095093,
				"z": -0.4068319812,
				"element": "C" 
			},
			{
				"x": 0.7326567389,
				"y": 0.0977651563,
				"z": -0.4255910737,
				"element": "C" 
			},
			{
				"x": 1.363775433,
				"y": -2.062676409,
				"z": -1.7495017542,
				"element": "H" 
			},
			{
				"x": -0.4643114227,
				"y": 3.2197127892,
				"z": -0.9548668436,
				"element": "H" 
			},
			{
				"x": 1.5365352791,
				"y": 2.058529194,
				"z": 0.0171376101,
				"element": "H" 
			},
			{
				"x": 1.5706605914,
				"y": -0.4476277309,
				"z": 0.0005202984,
				"element": "H" 
			}
		],
		 "valence_orbital": [ 
			{
				"type": "occ",
				"energy": -0.31701,
				"method": "rhf"
			},
			{
				"type": "occ",
				"energy": -0.29909,
				"method": "rhf"
			},
			{
				"type": "occ",
				"energy": -0.28173,
				"method": "rhf"
			},
			{
				"type": "occ",
				"energy": -0.27932,
				"method": "rhf"
			},
			{
				"type": "occ",
				"energy": -0.26698,
				"method": "rhf"
			},
			{
				"type": "unocc",
				"energy": -0.06657,
				"method": "rhf"
			},
			{
				"type": "unocc",
				"energy": -0.05297,
				"method": "rhf"
			},
			{
				"type": "unocc",
				"energy": -0.00066,
				"method": "rhf"
			},
			{
				"type": "unocc",
				"energy": 0.01533,
				"method": "rhf"
			},
			{
				"type": "unocc",
				"energy": 0.06003,
				"method": "rhf"
			}
		],
		"cosmo_sigma_profile": { 
			"-0.025": 0.0,
			"-0.024": 0.0,
			"-0.023": 0.0,
			"-0.022": 0.0,
			"-0.021": 0.0,
			"-0.02": 0.0,
			"-0.019": 0.686217147271,
			"-0.018": 1.17556934183,
			"-0.017": 0.94936945624,
			"-0.016": 0.931243239864,
			"-0.015": 1.04116658317,
			"-0.014": 0.779701677867,
			"-0.013": 1.54195783259,
			"-0.012": 1.21473981111,
			"-0.011": 1.73391587806,
			"-0.01": 1.1300581384,
			"-0.009": 4.51567532663,
			"-0.008": 7.97971559047,
			"-0.007": 7.55291657813,
			"-0.006": 6.42759927499,
			"-0.005": 6.42363069566,
			"-0.004": 7.36504570531,
			"-0.003": 8.10161912701,
			"-0.002": 10.6075518853,
			"-0.001": 13.6483289785,
			"0.0": 12.5060685322,
			"0.001": 8.56208591929,
			"0.002": 6.92378318368,
			"0.003": 9.38133636794,
			"0.004": 10.4131498568,
			"0.005": 6.65336752202,
			"0.006": 4.47786220771,
			"0.007": 4.78580480615,
			"0.008": 4.84514839037,
			"0.009": 6.14988445375,
			"0.01": 6.63025375435,
			"0.011": 6.91221282747,
			"0.012": 3.03935058366,
			"0.013": 0.693601746979,
			"0.014": 0.277343848255,
			"0.015": 0.0,
			"0.016": 0.0,
			"0.017": 0.0,
			"0.018": 0.0,
			"0.019": 0.0,
			"0.02": 0.0,
			"0.021": 0.0,
			"0.022": 0.0,
			"0.023": 0.0,
			"0.024": 0.0,
			"0.025": 0.0
		}
	}
}
