{
	 "smiles": "OC1=C(C=CC=C1)C1=CC=NN1", 
	 "Tm": 369.15, 
	 "num_atms": 20, 
	 "gaussian": { 
		 "optdone": 1, 
		 "sigma_profile": "yes", 
		 "theory": "DFT", 
		 "functional": "B3LYP", 
		 "basiset": "6-31G**", 
		 "properties": { 
			 "R2extent": 2446.1153, 
			 "electric_dipole_moment_norm": 4.02079764475, 
			 "electric_quadrupole_moment_norm": 21.6690958888, 
			 "total_energy": -532.486368264, 
			 "HOMO_LUMO_gap": 0.1788, 
			 "cosmo_polarized_energy": -13.25, 
			 "cosmo_cavitation_energy": 23.84, 
			 "cosmo_dispersion_energy": -18.23, 
			 "cosmo_repulsion_energy": 1.42, 
			 "cosmo_total_nonelectrostatic_energy": 7.03, 
			 "SMD_solvation_energy": 3.39 
		},
		"coords": [
			{
				"x": 2.5790341111,
				"y": 0.0939842598,
				"z": 1.5015222513,
				"element": "O" 
			},
			{
				"x": 1.7310492249,
				"y": 0.3976289348,
				"z": 0.4617498202,
				"element": "C" 
			},
			{
				"x": 0.3609730611,
				"y": 0.0840833867,
				"z": 0.6039067397,
				"element": "C" 
			},
			{
				"x": -0.4805232171,
				"y": 0.4068688794,
				"z": -0.4767191317,
				"element": "C" 
			},
			{
				"x": -0.0019662316,
				"y": 1.0065454525,
				"z": -1.6370926201,
				"element": "C" 
			},
			{
				"x": 1.3564708955,
				"y": 1.305737215,
				"z": -1.7514764927,
				"element": "C" 
			},
			{
				"x": 2.217237676,
				"y": 0.9994451616,
				"z": -0.7002924714,
				"element": "C" 
			},
			{
				"x": -0.2025868224,
				"y": -0.5473180211,
				"z": 1.8007953113,
				"element": "C" 
			},
			{
				"x": -1.5136575261,
				"y": -0.9193172698,
				"z": 2.101123597,
				"element": "C" 
			},
			{
				"x": -1.4510183214,
				"y": -1.4774455183,
				"z": 3.3906222848,
				"element": "C" 
			},
			{
				"x": -0.2084826453,
				"y": -1.4665216918,
				"z": 3.879421421,
				"element": "N" 
			},
			{
				"x": 0.5232904157,
				"y": -0.9017264111,
				"z": 2.9032426512,
				"element": "N" 
			},
			{
				"x": 3.4776306224,
				"y": 0.3607122338,
				"z": 1.2696720415,
				"element": "H" 
			},
			{
				"x": -1.5376472862,
				"y": 0.1774741579,
				"z": -0.3956944545,
				"element": "H" 
			},
			{
				"x": -0.6860778124,
				"y": 1.2386663515,
				"z": -2.4470061755,
				"element": "H" 
			},
			{
				"x": 1.7478098187,
				"y": 1.7736528333,
				"z": -2.6494614174,
				"element": "H" 
			},
			{
				"x": 3.2789348789,
				"y": 1.2270903971,
				"z": -0.7756926854,
				"element": "H" 
			},
			{
				"x": -2.387675039,
				"y": -0.8039750456,
				"z": 1.4787516961,
				"element": "H" 
			},
			{
				"x": -2.2572056638,
				"y": -1.8869789029,
				"z": 3.9846064145,
				"element": "H" 
			},
			{
				"x": 1.5167098608,
				"y": -0.7701064026,
				"z": 3.0156212201,
				"element": "H" 
			}
		],
		 "valence_orbital": [ 
			{
				"type": "occ",
				"energy": -0.28706,
				"method": "rhf"
			},
			{
				"type": "occ",
				"energy": -0.27506,
				"method": "rhf"
			},
			{
				"type": "occ",
				"energy": -0.2459,
				"method": "rhf"
			},
			{
				"type": "occ",
				"energy": -0.24279,
				"method": "rhf"
			},
			{
				"type": "occ",
				"energy": -0.20855,
				"method": "rhf"
			},
			{
				"type": "unocc",
				"energy": -0.02975,
				"method": "rhf"
			},
			{
				"type": "unocc",
				"energy": 1e-05,
				"method": "rhf"
			},
			{
				"type": "unocc",
				"energy": 0.05272,
				"method": "rhf"
			},
			{
				"type": "unocc",
				"energy": 0.054,
				"method": "rhf"
			},
			{
				"type": "unocc",
				"energy": 0.08605,
				"method": "rhf"
			}
		],
		"cosmo_sigma_profile": { 
			"-0.025": 0.0,
			"-0.024": 0.0,
			"-0.023": 0.0,
			"-0.022": 0.0,
			"-0.021": 0.0,
			"-0.02": 0.0,
			"-0.019": 0.166545502078,
			"-0.018": 1.02552048719,
			"-0.017": 0.83816301151,
			"-0.016": 1.26356381057,
			"-0.015": 0.97138881901,
			"-0.014": 1.37866399086,
			"-0.013": 0.489459558298,
			"-0.012": 0.963763483934,
			"-0.011": 1.91244835434,
			"-0.01": 2.37965806916,
			"-0.009": 1.33798778615,
			"-0.008": 2.80069743769,
			"-0.007": 5.71186107545,
			"-0.006": 9.21314315263,
			"-0.005": 11.9841617378,
			"-0.004": 12.6793852777,
			"-0.003": 9.30946629728,
			"-0.002": 10.4290906191,
			"-0.001": 8.26029650524,
			"0.0": 8.64516701021,
			"0.001": 13.4900085976,
			"0.002": 14.3551822333,
			"0.003": 16.5709729764,
			"0.004": 16.4604345382,
			"0.005": 16.4393330876,
			"0.006": 8.36917274023,
			"0.007": 1.8678565197,
			"0.008": 1.63071154499,
			"0.009": 1.56142627625,
			"0.01": 1.09845649815,
			"0.011": 1.4355641307,
			"0.012": 1.61408784359,
			"0.013": 1.38820827852,
			"0.014": 0.676188298055,
			"0.015": 1.3080319494,
			"0.016": 1.16877391582,
			"0.017": 0.22671363833,
			"0.018": 0.0,
			"0.019": 0.0,
			"0.02": 0.0,
			"0.021": 0.0,
			"0.022": 0.0,
			"0.023": 0.0,
			"0.024": 0.0,
			"0.025": 0.0
		}
	}
}
