{
	 "smiles": "CN1C(S)=NN=C1CNC(=O)OC(C)(C)C", 
	 "Tm": 441.15, 
	 "num_atms": 32, 
	 "gaussian": { 
		 "optdone": 1, 
		 "sigma_profile": "yes", 
		 "theory": "DFT", 
		 "functional": "B3LYP", 
		 "basiset": "6-31G**", 
		 "properties": { 
			 "R2extent": 7354.4835, 
			 "electric_dipole_moment_norm": 4.01315816534, 
			 "electric_quadrupole_moment_norm": 19.6362139485, 
			 "total_energy": -1120.25753353, 
			 "HOMO_LUMO_gap": 0.23515, 
			 "cosmo_polarized_energy": -17.6, 
			 "cosmo_cavitation_energy": 36.49, 
			 "cosmo_dispersion_energy": -25.93, 
			 "cosmo_repulsion_energy": 2.0, 
			 "cosmo_total_nonelectrostatic_energy": 12.56, 
			 "SMD_solvation_energy": 4.26 
		},
		"coords": [
			{
				"x": -2.7130288548,
				"y": -1.2403155345,
				"z": -0.8429746285,
				"element": "C" 
			},
			{
				"x": -3.0900240006,
				"y": -2.0925090477,
				"z": 0.2801435145,
				"element": "N" 
			},
			{
				"x": -3.819792465,
				"y": -3.2504464497,
				"z": 0.2251613707,
				"element": "C" 
			},
			{
				"x": -4.4100524175,
				"y": -3.9219750109,
				"z": -1.2996292259,
				"element": "S" 
			},
			{
				"x": -4.0082746166,
				"y": -3.759682466,
				"z": 1.4217706252,
				"element": "N" 
			},
			{
				"x": -3.3836960001,
				"y": -2.9101216212,
				"z": 2.3125772885,
				"element": "N" 
			},
			{
				"x": -2.846192858,
				"y": -1.9265653749,
				"z": 1.6287426259,
				"element": "C" 
			},
			{
				"x": -2.0618261118,
				"y": -0.8100311982,
				"z": 2.2516875101,
				"element": "C" 
			},
			{
				"x": -0.6173131493,
				"y": -0.9539549158,
				"z": 2.1346681849,
				"element": "N" 
			},
			{
				"x": 0.1292108614,
				"y": -0.1962916035,
				"z": 1.2800549006,
				"element": "C" 
			},
			{
				"x": -0.3399096941,
				"y": 0.6504559352,
				"z": 0.5264038341,
				"element": "O" 
			},
			{
				"x": 1.4323766254,
				"y": -0.5268392532,
				"z": 1.4025336756,
				"element": "O" 
			},
			{
				"x": 2.4701213398,
				"y": 0.1425869441,
				"z": 0.5972875456,
				"element": "C" 
			},
			{
				"x": 2.227571745,
				"y": -0.1183346167,
				"z": -0.8928301922,
				"element": "C" 
			},
			{
				"x": 3.7508214839,
				"y": -0.5500042171,
				"z": 1.0695210139,
				"element": "C" 
			},
			{
				"x": 2.503790426,
				"y": 1.6378264176,
				"z": 0.9289799019,
				"element": "C" 
			},
			{
				"x": -2.0413975819,
				"y": -0.4533293447,
				"z": -0.496703065,
				"element": "H" 
			},
			{
				"x": -3.6028745047,
				"y": -0.7895942933,
				"z": -1.2932375166,
				"element": "H" 
			},
			{
				"x": -2.1942068019,
				"y": -1.8346438724,
				"z": -1.6007903765,
				"element": "H" 
			},
			{
				"x": -4.9752119798,
				"y": -4.9804706195,
				"z": -0.6891654815,
				"element": "H" 
			},
			{
				"x": -2.3192749493,
				"y": 0.1570191164,
				"z": 1.8136679451,
				"element": "H" 
			},
			{
				"x": -2.3402655946,
				"y": -0.7933265408,
				"z": 3.308824654,
				"element": "H" 
			},
			{
				"x": -0.145637258,
				"y": -1.667163288,
				"z": 2.6705250939,
				"element": "H" 
			},
			{
				"x": 2.1596472356,
				"y": -1.1939567853,
				"z": -1.0844631098,
				"element": "H" 
			},
			{
				"x": 1.3088469108,
				"y": 0.3621316692,
				"z": -1.230081137,
				"element": "H" 
			},
			{
				"x": 3.0660562809,
				"y": 0.2769716152,
				"z": -1.4751528753,
				"element": "H" 
			},
			{
				"x": 4.6160067266,
				"y": -0.137833134,
				"z": 0.542040087,
				"element": "H" 
			},
			{
				"x": 3.7046117786,
				"y": -1.6249751614,
				"z": 0.872571165,
				"element": "H" 
			},
			{
				"x": 3.8967123083,
				"y": -0.4018534363,
				"z": 2.143340621,
				"element": "H" 
			},
			{
				"x": 1.5823888846,
				"y": 2.1294476461,
				"z": 0.6157127538,
				"element": "H" 
			},
			{
				"x": 3.3478272666,
				"y": 2.1085892673,
				"z": 0.4146664142,
				"element": "H" 
			},
			{
				"x": 2.6374889647,
				"y": 1.7853891742,
				"z": 2.0052468828,
				"element": "H" 
			}
		],
		 "valence_orbital": [ 
			{
				"type": "occ",
				"energy": -0.28793,
				"method": "rhf"
			},
			{
				"type": "occ",
				"energy": -0.27856,
				"method": "rhf"
			},
			{
				"type": "occ",
				"energy": -0.26753,
				"method": "rhf"
			},
			{
				"type": "occ",
				"energy": -0.25318,
				"method": "rhf"
			},
			{
				"type": "occ",
				"energy": -0.22866,
				"method": "rhf"
			},
			{
				"type": "unocc",
				"energy": 0.00649,
				"method": "rhf"
			},
			{
				"type": "unocc",
				"energy": 0.01221,
				"method": "rhf"
			},
			{
				"type": "unocc",
				"energy": 0.03908,
				"method": "rhf"
			},
			{
				"type": "unocc",
				"energy": 0.04794,
				"method": "rhf"
			},
			{
				"type": "unocc",
				"energy": 0.06328,
				"method": "rhf"
			}
		],
		"cosmo_sigma_profile": { 
			"-0.025": 0.0,
			"-0.024": 0.0,
			"-0.023": 0.0,
			"-0.022": 0.0,
			"-0.021": 0.0,
			"-0.02": 0.0,
			"-0.019": 0.0,
			"-0.018": 0.0,
			"-0.017": 0.0,
			"-0.016": 0.0,
			"-0.015": 0.196854095187,
			"-0.014": 1.23056801618,
			"-0.013": 1.07470582658,
			"-0.012": 2.24387084093,
			"-0.011": 2.19806373412,
			"-0.01": 1.97093963392,
			"-0.009": 2.6134541548,
			"-0.008": 1.87748109794,
			"-0.007": 8.31857702159,
			"-0.006": 11.6338365438,
			"-0.005": 12.3327302336,
			"-0.004": 25.274103242,
			"-0.003": 27.7867924898,
			"-0.002": 24.0976325029,
			"-0.001": 26.8250209102,
			"0.0": 34.0916817003,
			"0.001": 24.4387736487,
			"0.002": 13.2910974698,
			"0.003": 9.7686076962,
			"0.004": 9.06354359062,
			"0.005": 6.4263918432,
			"0.006": 7.23776780444,
			"0.007": 5.10919729857,
			"0.008": 3.61989630627,
			"0.009": 3.11669804546,
			"0.01": 3.6951952744,
			"0.011": 3.13533496896,
			"0.012": 3.13775185817,
			"0.013": 4.5764657725,
			"0.014": 3.72670942579,
			"0.015": 2.52524381847,
			"0.016": 2.26327971735,
			"0.017": 0.651095207282,
			"0.018": 0.0,
			"0.019": 0.0,
			"0.02": 0.0,
			"0.021": 0.0,
			"0.022": 0.0,
			"0.023": 0.0,
			"0.024": 0.0,
			"0.025": 0.0
		}
	}
}
