{
	 "smiles": "CC(C)CC(N)C(O)C1=CC=CS1", 
	 "Tm": 337.15, 
	 "num_atms": 30, 
	 "gaussian": { 
		 "optdone": 1, 
		 "sigma_profile": "yes", 
		 "theory": "DFT", 
		 "functional": "B3LYP", 
		 "basiset": "6-31G**", 
		 "properties": { 
			 "R2extent": 4519.9995, 
			 "electric_dipole_moment_norm": 3.53309695027, 
			 "electric_quadrupole_moment_norm": 11.9383693003, 
			 "total_energy": -919.461807248, 
			 "HOMO_LUMO_gap": 0.21522, 
			 "cosmo_polarized_energy": -10.32, 
			 "cosmo_cavitation_energy": 32.24, 
			 "cosmo_dispersion_energy": -23.13, 
			 "cosmo_repulsion_energy": 1.8, 
			 "cosmo_total_nonelectrostatic_energy": 10.91, 
			 "SMD_solvation_energy": 4.62 
		},
		"coords": [
			{
				"x": -0.3202337806,
				"y": -1.3981587743,
				"z": -1.9766335134,
				"element": "C" 
			},
			{
				"x": 0.6665003008,
				"y": -1.8788646995,
				"z": -0.9002401477,
				"element": "C" 
			},
			{
				"x": 0.6388424823,
				"y": -3.4130957502,
				"z": -0.8078118385,
				"element": "C" 
			},
			{
				"x": 0.42709975,
				"y": -1.2680894097,
				"z": 0.4977399045,
				"element": "C" 
			},
			{
				"x": 0.5694756095,
				"y": 0.2593858084,
				"z": 0.6217464512,
				"element": "C" 
			},
			{
				"x": -0.5951116389,
				"y": 1.0690915415,
				"z": 0.224226268,
				"element": "N" 
			},
			{
				"x": 0.9602073065,
				"y": 0.7281977109,
				"z": 2.061599031,
				"element": "C" 
			},
			{
				"x": 1.0334463202,
				"y": 2.1401343813,
				"z": 2.0578274212,
				"element": "O" 
			},
			{
				"x": 0.0377404257,
				"y": 0.2175011903,
				"z": 3.1502464031,
				"element": "C" 
			},
			{
				"x": 0.1402676173,
				"y": -0.9258790733,
				"z": 3.9009749946,
				"element": "C" 
			},
			{
				"x": -0.9348838865,
				"y": -1.1017038864,
				"z": 4.8257277431,
				"element": "C" 
			},
			{
				"x": -1.8431591477,
				"y": -0.0814866869,
				"z": 4.7749396579,
				"element": "C" 
			},
			{
				"x": -1.3917618412,
				"y": 1.1167862527,
				"z": 3.6038969232,
				"element": "S" 
			},
			{
				"x": -0.1616712333,
				"y": -1.9417371585,
				"z": -2.9143720159,
				"element": "H" 
			},
			{
				"x": -1.3587917052,
				"y": -1.5688878293,
				"z": -1.6679941551,
				"element": "H" 
			},
			{
				"x": -0.2052181549,
				"y": -0.3338479356,
				"z": -2.2040284903,
				"element": "H" 
			},
			{
				"x": 1.677431981,
				"y": -1.5827367833,
				"z": -1.2191557532,
				"element": "H" 
			},
			{
				"x": 1.3659193166,
				"y": -3.7840311967,
				"z": -0.0773768909,
				"element": "H" 
			},
			{
				"x": -0.3519606748,
				"y": -3.7689234678,
				"z": -0.4998330237,
				"element": "H" 
			},
			{
				"x": 0.8701342865,
				"y": -3.8726527589,
				"z": -1.7747082758,
				"element": "H" 
			},
			{
				"x": -0.5626992594,
				"y": -1.5687399607,
				"z": 0.8686848761,
				"element": "H" 
			},
			{
				"x": 1.1494938715,
				"y": -1.7338104584,
				"z": 1.1816893333,
				"element": "H" 
			},
			{
				"x": 1.4013229277,
				"y": 0.5935881639,
				"z": -0.0125568919,
				"element": "H" 
			},
			{
				"x": -0.6998786468,
				"y": 1.1109899057,
				"z": -0.7826340096,
				"element": "H" 
			},
			{
				"x": -1.4529986461,
				"y": 0.6790033302,
				"z": 0.6072406344,
				"element": "H" 
			},
			{
				"x": 1.962723619,
				"y": 0.3357663871,
				"z": 2.2771403125,
				"element": "H" 
			},
			{
				"x": 0.3574803885,
				"y": 2.3995655572,
				"z": 1.399976524,
				"element": "H" 
			},
			{
				"x": 0.9683125358,
				"y": -1.6202794724,
				"z": 3.8040928504,
				"element": "H" 
			},
			{
				"x": -1.0163398275,
				"y": -1.9431450637,
				"z": 5.5049684248,
				"element": "H" 
			},
			{
				"x": -2.7347902959,
				"y": 0.0541601363,
				"z": 5.3714272525,
				"element": "H" 
			}
		],
		 "valence_orbital": [ 
			{
				"type": "occ",
				"energy": -0.30748,
				"method": "rhf"
			},
			{
				"type": "occ",
				"energy": -0.26643,
				"method": "rhf"
			},
			{
				"type": "occ",
				"energy": -0.25264,
				"method": "rhf"
			},
			{
				"type": "occ",
				"energy": -0.24163,
				"method": "rhf"
			},
			{
				"type": "occ",
				"energy": -0.22055,
				"method": "rhf"
			},
			{
				"type": "unocc",
				"energy": -0.00533,
				"method": "rhf"
			},
			{
				"type": "unocc",
				"energy": 0.04342,
				"method": "rhf"
			},
			{
				"type": "unocc",
				"energy": 0.05745,
				"method": "rhf"
			},
			{
				"type": "unocc",
				"energy": 0.07387,
				"method": "rhf"
			},
			{
				"type": "unocc",
				"energy": 0.09486,
				"method": "rhf"
			}
		],
		"cosmo_sigma_profile": { 
			"-0.025": 0.0,
			"-0.024": 0.0,
			"-0.023": 0.0,
			"-0.022": 0.0,
			"-0.021": 0.0,
			"-0.02": 0.0,
			"-0.019": 0.0,
			"-0.018": 0.0,
			"-0.017": 0.0,
			"-0.016": 0.0,
			"-0.015": 0.0,
			"-0.014": 0.0,
			"-0.013": 0.0,
			"-0.012": 0.0,
			"-0.011": 0.00362538004037,
			"-0.01": 0.931336213422,
			"-0.009": 1.77246555185,
			"-0.008": 3.80049614802,
			"-0.007": 5.43945174182,
			"-0.006": 8.66659903217,
			"-0.005": 14.3486084015,
			"-0.004": 14.2949317671,
			"-0.003": 20.4332223985,
			"-0.002": 30.5053621755,
			"-0.001": 27.5319780094,
			"0.0": 23.3337520931,
			"0.001": 24.0067785672,
			"0.002": 18.14266381,
			"0.003": 12.6335422036,
			"0.004": 10.573790679,
			"0.005": 9.88742233435,
			"0.006": 9.86494634439,
			"0.007": 3.30563692463,
			"0.008": 1.41638334693,
			"0.009": 2.36877642336,
			"0.01": 1.71052816379,
			"0.011": 0.893913583153,
			"0.012": 1.56739274628,
			"0.013": 1.70168609471,
			"0.014": 2.04999249638,
			"0.015": 1.47684388963,
			"0.016": 0.0,
			"0.017": 0.0,
			"0.018": 0.0,
			"0.019": 0.0,
			"0.02": 0.0,
			"0.021": 0.0,
			"0.022": 0.0,
			"0.023": 0.0,
			"0.024": 0.0,
			"0.025": 0.0
		}
	}
}
