{
	 "smiles": "OC(=O)CC1=NN(CC2=NC3=C(S2)C=CC(=C3)C(F)(F)F)C(=O)C2=C1C=CC=C2", 
	 "Tm": 470.15, 
	 "num_atms": 41, 
	 "gaussian": { 
		 "optdone": 1, 
		 "sigma_profile": "yes", 
		 "theory": "DFT", 
		 "functional": "B3LYP", 
		 "basiset": "6-31G**", 
		 "properties": { 
			 "R2extent": 17002.0838, 
			 "electric_dipole_moment_norm": 5.90789137426, 
			 "electric_quadrupole_moment_norm": 18.8007144319, 
			 "total_energy": -1818.92068546, 
			 "HOMO_LUMO_gap": 0.17643, 
			 "cosmo_polarized_energy": -20.52, 
			 "cosmo_cavitation_energy": 49.99, 
			 "cosmo_dispersion_energy": -35.07, 
			 "cosmo_repulsion_energy": 2.52, 
			 "cosmo_total_nonelectrostatic_energy": 17.45, 
			 "SMD_solvation_energy": 7.51 
		},
		"coords": [
			{
				"x": 1.8004361302,
				"y": 0.4328360822,
				"z": -5.2520526524,
				"element": "O" 
			},
			{
				"x": 1.8058154271,
				"y": 0.7944736424,
				"z": -3.9476886286,
				"element": "C" 
			},
			{
				"x": 2.7364717901,
				"y": 0.5778255868,
				"z": -3.2064337344,
				"element": "O" 
			},
			{
				"x": 0.5064067639,
				"y": 1.4942893051,
				"z": -3.582830617,
				"element": "C" 
			},
			{
				"x": 0.3809655429,
				"y": 1.8249333252,
				"z": -2.1166304284,
				"element": "C" 
			},
			{
				"x": -0.5002102289,
				"y": 1.1157737362,
				"z": -1.4741927163,
				"element": "N" 
			},
			{
				"x": -0.6993616412,
				"y": 1.3483556512,
				"z": -0.1530414438,
				"element": "N" 
			},
			{
				"x": -1.7215580981,
				"y": 0.5085885458,
				"z": 0.4836599807,
				"element": "C" 
			},
			{
				"x": -1.1685543409,
				"y": -0.7344156982,
				"z": 1.1326008675,
				"element": "C" 
			},
			{
				"x": -1.4401137816,
				"y": -1.9237237638,
				"z": 0.6992740617,
				"element": "N" 
			},
			{
				"x": -0.8274783178,
				"y": -2.8906717824,
				"z": 1.4799332978,
				"element": "C" 
			},
			{
				"x": -0.0525789183,
				"y": -2.3959527381,
				"z": 2.5563576732,
				"element": "C" 
			},
			{
				"x": -0.1213166643,
				"y": -0.6489727549,
				"z": 2.5690868374,
				"element": "S" 
			},
			{
				"x": 0.6269905506,
				"y": -3.2645272274,
				"z": 3.4179362216,
				"element": "C" 
			},
			{
				"x": 0.5201435512,
				"y": -4.6304568399,
				"z": 3.1939489033,
				"element": "C" 
			},
			{
				"x": -0.2515888861,
				"y": -5.1294959585,
				"z": 2.1252679596,
				"element": "C" 
			},
			{
				"x": -0.9266903455,
				"y": -4.2721422503,
				"z": 1.2660079211,
				"element": "C" 
			},
			{
				"x": -0.3607621125,
				"y": -6.6201866473,
				"z": 1.9564780254,
				"element": "C" 
			},
			{
				"x": -0.89912575,
				"y": -6.9643992843,
				"z": 0.7675281501,
				"element": "F" 
			},
			{
				"x": -1.1339732236,
				"y": -7.175161178,
				"z": 2.9200131976,
				"element": "F" 
			},
			{
				"x": 0.8495333133,
				"y": -7.2202089539,
				"z": 2.0435691232,
				"element": "F" 
			},
			{
				"x": -0.0318690442,
				"y": 2.2881513828,
				"z": 0.6301342671,
				"element": "C" 
			},
			{
				"x": -0.2712415894,
				"y": 2.3826707287,
				"z": 1.8346873013,
				"element": "O" 
			},
			{
				"x": 0.9347626746,
				"y": 3.1102463623,
				"z": -0.1066276393,
				"element": "C" 
			},
			{
				"x": 1.1550930793,
				"y": 2.8761129108,
				"z": -1.4819844673,
				"element": "C" 
			},
			{
				"x": 2.0968097169,
				"y": 3.6762388479,
				"z": -2.1600461623,
				"element": "C" 
			},
			{
				"x": 2.7821121424,
				"y": 4.6734914768,
				"z": -1.4826620555,
				"element": "C" 
			},
			{
				"x": 2.5539475379,
				"y": 4.8981440866,
				"z": -0.1141518604,
				"element": "C" 
			},
			{
				"x": 1.6365669293,
				"y": 4.1176615575,
				"z": 0.5721445619,
				"element": "C" 
			},
			{
				"x": 2.6484103375,
				"y": -0.013909343,
				"z": -5.4149064411,
				"element": "H" 
			},
			{
				"x": -0.3219226987,
				"y": 0.8379381472,
				"z": -3.8628350092,
				"element": "H" 
			},
			{
				"x": 0.4196313531,
				"y": 2.3904773875,
				"z": -4.2099546073,
				"element": "H" 
			},
			{
				"x": -2.2356136324,
				"y": 1.1267676679,
				"z": 1.2231088816,
				"element": "H" 
			},
			{
				"x": -2.4109301791,
				"y": 0.190859827,
				"z": -0.2975515195,
				"element": "H" 
			},
			{
				"x": 1.2251621156,
				"y": -2.8864505362,
				"z": 4.2403492374,
				"element": "H" 
			},
			{
				"x": 1.0416278864,
				"y": -5.3257641964,
				"z": 3.843311899,
				"element": "H" 
			},
			{
				"x": -1.5174957919,
				"y": -4.6487253043,
				"z": 0.4397966678,
				"element": "H" 
			},
			{
				"x": 2.2968763364,
				"y": 3.5083200804,
				"z": -3.2120922503,
				"element": "H" 
			},
			{
				"x": 3.5061039049,
				"y": 5.2830105459,
				"z": -2.0152140119,
				"element": "H" 
			},
			{
				"x": 3.0997273641,
				"y": 5.6808076022,
				"z": 0.4038327458,
				"element": "H" 
			},
			{
				"x": 1.4384907967,
				"y": 4.2583899706,
				"z": 1.6290684631,
				"element": "H" 
			}
		],
		 "valence_orbital": [ 
			{
				"type": "occ",
				"energy": -0.27369,
				"method": "rhf"
			},
			{
				"type": "occ",
				"energy": -0.2643,
				"method": "rhf"
			},
			{
				"type": "occ",
				"energy": -0.24884,
				"method": "rhf"
			},
			{
				"type": "occ",
				"energy": -0.24476,
				"method": "rhf"
			},
			{
				"type": "occ",
				"energy": -0.23777,
				"method": "rhf"
			},
			{
				"type": "unocc",
				"energy": -0.06134,
				"method": "rhf"
			},
			{
				"type": "unocc",
				"energy": -0.05424,
				"method": "rhf"
			},
			{
				"type": "unocc",
				"energy": -0.04401,
				"method": "rhf"
			},
			{
				"type": "unocc",
				"energy": -0.02422,
				"method": "rhf"
			},
			{
				"type": "unocc",
				"energy": -0.00329,
				"method": "rhf"
			}
		],
		"cosmo_sigma_profile": { 
			"-0.025": 0.0,
			"-0.024": 0.0,
			"-0.023": 0.0,
			"-0.022": 0.0,
			"-0.021": 0.0,
			"-0.02": 0.0,
			"-0.019": 0.105491430979,
			"-0.018": 1.31635653608,
			"-0.017": 0.615916541372,
			"-0.016": 0.556170783108,
			"-0.015": 1.27701975894,
			"-0.014": 0.320827134433,
			"-0.013": 0.553677285839,
			"-0.012": 0.968771154387,
			"-0.011": 1.30233079526,
			"-0.01": 1.39313049955,
			"-0.009": 1.87060336606,
			"-0.008": 9.08794049436,
			"-0.007": 18.830686051,
			"-0.006": 23.0638115049,
			"-0.005": 21.9718991166,
			"-0.004": 20.3653055969,
			"-0.003": 21.0580344343,
			"-0.002": 23.5240475585,
			"-0.001": 24.2162032236,
			"0.0": 28.5154683626,
			"0.001": 41.4006241647,
			"0.002": 47.3988302582,
			"0.003": 47.2288855491,
			"0.004": 11.7068102921,
			"0.005": 7.73094164958,
			"0.006": 6.95080392293,
			"0.007": 5.81408085117,
			"0.008": 6.29969283146,
			"0.009": 8.86707946468,
			"0.01": 4.7628392569,
			"0.011": 7.44095315812,
			"0.012": 4.61234514038,
			"0.013": 2.6942468869,
			"0.014": 0.236152746841,
			"0.015": 0.0,
			"0.016": 0.0,
			"0.017": 0.0,
			"0.018": 0.0,
			"0.019": 0.0,
			"0.02": 0.0,
			"0.021": 0.0,
			"0.022": 0.0,
			"0.023": 0.0,
			"0.024": 0.0,
			"0.025": 0.0
		}
	}
}
