{
	 "smiles": "O=C1C=CC=C2C3CNCC(C3)CN12", 
	 "Tm": 425.15, 
	 "num_atms": 28, 
	 "gaussian": { 
		 "optdone": 1, 
		 "sigma_profile": "yes", 
		 "theory": "DFT", 
		 "functional": "B3LYP", 
		 "basiset": "6-31G**", 
		 "properties": { 
			 "R2extent": 2503.4205, 
			 "electric_dipole_moment_norm": 4.26488661162, 
			 "electric_quadrupole_moment_norm": 13.7442066486, 
			 "total_energy": -612.333556746, 
			 "HOMO_LUMO_gap": 0.17414, 
			 "cosmo_polarized_energy": -12.9, 
			 "cosmo_cavitation_energy": 27.95, 
			 "cosmo_dispersion_energy": -21.17, 
			 "cosmo_repulsion_energy": 1.64, 
			 "cosmo_total_nonelectrostatic_energy": 8.41, 
			 "SMD_solvation_energy": 2.61 
		},
		"coords": [
			{
				"x": 1.5195709361,
				"y": 1.2306570687,
				"z": 2.8311115391,
				"element": "O" 
			},
			{
				"x": 1.1838241041,
				"y": 0.1570732304,
				"z": 2.3292613775,
				"element": "C" 
			},
			{
				"x": 1.1088212394,
				"y": -1.1087630444,
				"z": 3.0192991923,
				"element": "C" 
			},
			{
				"x": 0.7734513758,
				"y": -2.2582003401,
				"z": 2.3632558077,
				"element": "C" 
			},
			{
				"x": 0.4689681269,
				"y": -2.2373008585,
				"z": 0.9791044026,
				"element": "C" 
			},
			{
				"x": 0.4971559179,
				"y": -1.050166685,
				"z": 0.287474404,
				"element": "C" 
			},
			{
				"x": 0.1111870073,
				"y": -1.0061939326,
				"z": -1.1832080405,
				"element": "C" 
			},
			{
				"x": -1.4456735966,
				"y": -0.9158501973,
				"z": -1.3729212728,
				"element": "C" 
			},
			{
				"x": -1.8107367683,
				"y": 0.4169548665,
				"z": -1.8480837024,
				"element": "N" 
			},
			{
				"x": -1.2380103277,
				"y": 1.4723287117,
				"z": -1.0169351971,
				"element": "C" 
			},
			{
				"x": 0.3211406227,
				"y": 1.4335994392,
				"z": -1.1207798428,
				"element": "C" 
			},
			{
				"x": 0.7679661758,
				"y": 0.1827201844,
				"z": -1.8923949472,
				"element": "C" 
			},
			{
				"x": 0.9768861722,
				"y": 1.4153324726,
				"z": 0.2558057469,
				"element": "C" 
			},
			{
				"x": 0.8367502835,
				"y": 0.1115656306,
				"z": 0.9420326465,
				"element": "N" 
			},
			{
				"x": 1.3543779008,
				"y": -1.088465339,
				"z": 4.0745566861,
				"element": "H" 
			},
			{
				"x": 0.7421580773,
				"y": -3.2022815403,
				"z": 2.9014961891,
				"element": "H" 
			},
			{
				"x": 0.2051232968,
				"y": -3.1468956342,
				"z": 0.4520911467,
				"element": "H" 
			},
			{
				"x": 0.4513207721,
				"y": -1.9512901158,
				"z": -1.6161743122,
				"element": "H" 
			},
			{
				"x": -1.9356953847,
				"y": -1.1931511431,
				"z": -0.4233844282,
				"element": "H" 
			},
			{
				"x": -1.7626257584,
				"y": -1.6447128034,
				"z": -2.1273988863,
				"element": "H" 
			},
			{
				"x": -2.8204413314,
				"y": 0.5075665228,
				"z": -1.901776256,
				"element": "H" 
			},
			{
				"x": -1.61571683,
				"y": 2.4351834527,
				"z": -1.3746387842,
				"element": "H" 
			},
			{
				"x": -1.5359584793,
				"y": 1.388348285,
				"z": 0.0456256285,
				"element": "H" 
			},
			{
				"x": 0.6751873324,
				"y": 2.334457307,
				"z": -1.6331171072,
				"element": "H" 
			},
			{
				"x": 0.4448884257,
				"y": 0.2247350541,
				"z": -2.9341349278,
				"element": "H" 
			},
			{
				"x": 1.8603646518,
				"y": 0.0942402231,
				"z": -1.8750567321,
				"element": "H" 
			},
			{
				"x": 0.5571139827,
				"y": 2.1698704105,
				"z": 0.924878675,
				"element": "H" 
			},
			{
				"x": 2.047802075,
				"y": 1.6388387745,
				"z": 0.1805109949,
				"element": "H" 
			}
		],
		 "valence_orbital": [ 
			{
				"type": "occ",
				"energy": -0.31551,
				"method": "rhf"
			},
			{
				"type": "occ",
				"energy": -0.28372,
				"method": "rhf"
			},
			{
				"type": "occ",
				"energy": -0.23758,
				"method": "rhf"
			},
			{
				"type": "occ",
				"energy": -0.22657,
				"method": "rhf"
			},
			{
				"type": "occ",
				"energy": -0.20243,
				"method": "rhf"
			},
			{
				"type": "unocc",
				"energy": -0.02829,
				"method": "rhf"
			},
			{
				"type": "unocc",
				"energy": 0.0211,
				"method": "rhf"
			},
			{
				"type": "unocc",
				"energy": 0.06655,
				"method": "rhf"
			},
			{
				"type": "unocc",
				"energy": 0.09277,
				"method": "rhf"
			},
			{
				"type": "unocc",
				"energy": 0.10321,
				"method": "rhf"
			}
		],
		"cosmo_sigma_profile": { 
			"-0.025": 0.0,
			"-0.024": 0.0,
			"-0.023": 0.0,
			"-0.022": 0.0,
			"-0.021": 0.0,
			"-0.02": 0.0,
			"-0.019": 0.0,
			"-0.018": 0.0,
			"-0.017": 0.0,
			"-0.016": 0.0,
			"-0.015": 0.0,
			"-0.014": 0.0,
			"-0.013": 0.0,
			"-0.012": 0.0,
			"-0.011": 0.237087378216,
			"-0.01": 1.49271367885,
			"-0.009": 0.7412372233,
			"-0.008": 1.27201573524,
			"-0.007": 2.84747288962,
			"-0.006": 7.1998161459,
			"-0.005": 12.8228570187,
			"-0.004": 26.1855925238,
			"-0.003": 28.9873272907,
			"-0.002": 27.6418491088,
			"-0.001": 23.7310395911,
			"0.0": 15.4341144527,
			"0.001": 10.5167602218,
			"0.002": 8.44965717523,
			"0.003": 9.64593807551,
			"0.004": 9.15722595769,
			"0.005": 4.64945719839,
			"0.006": 2.50600089445,
			"0.007": 1.75155738955,
			"0.008": 2.1810269865,
			"0.009": 2.17664163958,
			"0.01": 1.79765386649,
			"0.011": 2.04602239713,
			"0.012": 1.5533900473,
			"0.013": 3.01279627468,
			"0.014": 3.45292290671,
			"0.015": 5.52918274709,
			"0.016": 1.43782307292,
			"0.017": 0.0306292230779,
			"0.018": 0.0,
			"0.019": 0.0,
			"0.02": 0.0,
			"0.021": 0.0,
			"0.022": 0.0,
			"0.023": 0.0,
			"0.024": 0.0,
			"0.025": 0.0
		}
	}
}
