{
	 "smiles": "CC1(C)COC2(CCNCC2)OC1", 
	 "Tm": 336.15, 
	 "num_atms": 32, 
	 "gaussian": { 
		 "optdone": 1, 
		 "sigma_profile": "yes", 
		 "theory": "DFT", 
		 "functional": "B3LYP", 
		 "basiset": "6-31G**", 
		 "properties": { 
			 "R2extent": 2754.6513, 
			 "electric_dipole_moment_norm": 2.30097464132, 
			 "electric_quadrupole_moment_norm": 6.61422987883, 
			 "total_energy": -597.703639929, 
			 "HOMO_LUMO_gap": 0.27669, 
			 "cosmo_polarized_energy": -8.12, 
			 "cosmo_cavitation_energy": 30.06, 
			 "cosmo_dispersion_energy": -22.04, 
			 "cosmo_repulsion_energy": 1.71, 
			 "cosmo_total_nonelectrostatic_energy": 9.73, 
			 "SMD_solvation_energy": 1.7 
		},
		"coords": [
			{
				"x": -2.1490303961,
				"y": 0.2741189093,
				"z": 1.9274307415,
				"element": "C" 
			},
			{
				"x": -1.009184599,
				"y": -0.5088822668,
				"z": 1.2622264236,
				"element": "C" 
			},
			{
				"x": -0.8087204851,
				"y": -1.8675230403,
				"z": 1.9539274004,
				"element": "C" 
			},
			{
				"x": -1.3163424661,
				"y": -0.7120642617,
				"z": -0.2337629396,
				"element": "C" 
			},
			{
				"x": -0.2063306457,
				"y": -1.2724678963,
				"z": -0.9320214447,
				"element": "O" 
			},
			{
				"x": 1.0088269024,
				"y": -0.5428880716,
				"z": -0.8200684692,
				"element": "C" 
			},
			{
				"x": 0.9848941289,
				"y": 0.7720023447,
				"z": -1.6194671365,
				"element": "C" 
			},
			{
				"x": 2.3458014005,
				"y": 1.5146138795,
				"z": -1.5032612833,
				"element": "C" 
			},
			{
				"x": 3.5003945116,
				"y": 0.6433126891,
				"z": -1.241296201,
				"element": "N" 
			},
			{
				"x": 3.3330924911,
				"y": -0.6586097444,
				"z": -1.8896085357,
				"element": "C" 
			},
			{
				"x": 2.11433538,
				"y": -1.4611059723,
				"z": -1.3621818115,
				"element": "C" 
			},
			{
				"x": 1.3310255153,
				"y": -0.3026166221,
				"z": 0.5563250972,
				"element": "O" 
			},
			{
				"x": 0.2916404926,
				"y": 0.3138796991,
				"z": 1.3140232932,
				"element": "C" 
			},
			{
				"x": -3.0911516124,
				"y": -0.2825879798,
				"z": 1.8708227115,
				"element": "H" 
			},
			{
				"x": -2.306558591,
				"y": 1.2480096279,
				"z": 1.4494610196,
				"element": "H" 
			},
			{
				"x": -1.9357520755,
				"y": 0.4520052188,
				"z": 2.9874705601,
				"element": "H" 
			},
			{
				"x": -0.0046187153,
				"y": -2.4303103509,
				"z": 1.475783306,
				"element": "H" 
			},
			{
				"x": -0.5534203133,
				"y": -1.7328854422,
				"z": 3.0111402173,
				"element": "H" 
			},
			{
				"x": -1.7243650877,
				"y": -2.4674980622,
				"z": 1.9040071949,
				"element": "H" 
			},
			{
				"x": -1.6197678249,
				"y": 0.2454033131,
				"z": -0.6856070575,
				"element": "H" 
			},
			{
				"x": -2.1402453282,
				"y": -1.4193932988,
				"z": -0.3744432727,
				"element": "H" 
			},
			{
				"x": 0.7755190574,
				"y": 0.5024932201,
				"z": -2.6606204166,
				"element": "H" 
			},
			{
				"x": 0.1702318411,
				"y": 1.4303041568,
				"z": -1.3043329665,
				"element": "H" 
			},
			{
				"x": 2.3033314081,
				"y": 2.2576687836,
				"z": -0.7010009939,
				"element": "H" 
			},
			{
				"x": 2.5237646128,
				"y": 2.0683770584,
				"z": -2.4346221418,
				"element": "H" 
			},
			{
				"x": 3.5451942583,
				"y": 0.4840860786,
				"z": -0.2374522563,
				"element": "H" 
			},
			{
				"x": 3.2286901925,
				"y": -0.4789003013,
				"z": -2.9672596444,
				"element": "H" 
			},
			{
				"x": 4.2508928669,
				"y": -1.2420735871,
				"z": -1.7625835352,
				"element": "H" 
			},
			{
				"x": 2.4053112759,
				"y": -2.1289344008,
				"z": -0.5456480564,
				"element": "H" 
			},
			{
				"x": 1.6780353996,
				"y": -2.0781169087,
				"z": -2.1539270006,
				"element": "H" 
			},
			{
				"x": 0.1004145743,
				"y": 1.3386262887,
				"z": 0.9572786101,
				"element": "H" 
			},
			{
				"x": 0.673691831,
				"y": 0.3859569395,
				"z": 2.337768588,
				"element": "H" 
			}
		],
		 "valence_orbital": [ 
			{
				"type": "occ",
				"energy": -0.312,
				"method": "rhf"
			},
			{
				"type": "occ",
				"energy": -0.30374,
				"method": "rhf"
			},
			{
				"type": "occ",
				"energy": -0.25673,
				"method": "rhf"
			},
			{
				"type": "occ",
				"energy": -0.25363,
				"method": "rhf"
			},
			{
				"type": "occ",
				"energy": -0.21106,
				"method": "rhf"
			},
			{
				"type": "unocc",
				"energy": 0.06563,
				"method": "rhf"
			},
			{
				"type": "unocc",
				"energy": 0.08752,
				"method": "rhf"
			},
			{
				"type": "unocc",
				"energy": 0.10714,
				"method": "rhf"
			},
			{
				"type": "unocc",
				"energy": 0.11122,
				"method": "rhf"
			},
			{
				"type": "unocc",
				"energy": 0.11942,
				"method": "rhf"
			}
		],
		"cosmo_sigma_profile": { 
			"-0.025": 0.0,
			"-0.024": 0.0,
			"-0.023": 0.0,
			"-0.022": 0.0,
			"-0.021": 0.0,
			"-0.02": 0.0,
			"-0.019": 0.0,
			"-0.018": 0.0,
			"-0.017": 0.0,
			"-0.016": 0.0,
			"-0.015": 0.0,
			"-0.014": 0.0,
			"-0.013": 0.0,
			"-0.012": 0.0,
			"-0.011": 0.0,
			"-0.01": 0.0,
			"-0.009": 0.0,
			"-0.008": 0.0700334696215,
			"-0.007": 0.6692745818,
			"-0.006": 1.65828711713,
			"-0.005": 5.31749446323,
			"-0.004": 17.5505917867,
			"-0.003": 42.7952066853,
			"-0.002": 37.0212411301,
			"-0.001": 31.0146306879,
			"0.0": 24.7624303161,
			"0.001": 19.8241078515,
			"0.002": 10.7306018176,
			"0.003": 4.44794514904,
			"0.004": 4.75598514471,
			"0.005": 4.48070049811,
			"0.006": 4.26207918159,
			"0.007": 3.98099928922,
			"0.008": 3.01730744394,
			"0.009": 2.07187139788,
			"0.01": 3.01819731298,
			"0.011": 2.2720188474,
			"0.012": 2.4046792239,
			"0.013": 1.33054375999,
			"0.014": 0.396643284728,
			"0.015": 0.708546123937,
			"0.016": 0.439136755203,
			"0.017": 0.731772627738,
			"0.018": 0.415322712893,
			"0.019": 0.51614290076,
			"0.02": 0.0093827390335,
			"0.021": 0.0,
			"0.022": 0.0,
			"0.023": 0.0,
			"0.024": 0.0,
			"0.025": 0.0
		}
	}
}
