{
	 "smiles": "CC1(O)CCC2C3CCC4CC(=O)C(CC4(C)C3CCC12C)=CO", 
	 "Tm": 460.65, 
	 "num_atms": 56, 
	 "gaussian": { 
		 "optdone": 1, 
		 "sigma_profile": "yes", 
		 "theory": "DFT", 
		 "functional": "B3LYP", 
		 "basiset": "6-31G**", 
		 "properties": { 
			 "R2extent": 10246.3794, 
			 "electric_dipole_moment_norm": 5.18579207643, 
			 "electric_quadrupole_moment_norm": 20.4367941038, 
			 "total_energy": -1045.18186079, 
			 "HOMO_LUMO_gap": 0.19372, 
			 "cosmo_polarized_energy": -16.74, 
			 "cosmo_cavitation_energy": 47.79, 
			 "cosmo_dispersion_energy": -33.44, 
			 "cosmo_repulsion_energy": 2.43, 
			 "cosmo_total_nonelectrostatic_energy": 16.78, 
			 "SMD_solvation_energy": 7.97 
		},
		"coords": [
			{
				"x": 2.4189468339,
				"y": 1.7464034808,
				"z": -3.8640725176,
				"element": "C" 
			},
			{
				"x": 2.8167847856,
				"y": 1.3769732199,
				"z": -2.4249756864,
				"element": "C" 
			},
			{
				"x": 4.0141317942,
				"y": 2.0881811247,
				"z": -2.0956703368,
				"element": "O" 
			},
			{
				"x": 2.9658219224,
				"y": -0.1534986337,
				"z": -2.2764936961,
				"element": "C" 
			},
			{
				"x": 1.5382725339,
				"y": -0.6798426416,
				"z": -2.0053841183,
				"element": "C" 
			},
			{
				"x": 0.6900329541,
				"y": 0.5644574329,
				"z": -1.5751545263,
				"element": "C" 
			},
			{
				"x": -0.3153687225,
				"y": 0.3638880586,
				"z": -0.4127710065,
				"element": "C" 
			},
			{
				"x": -1.2050367718,
				"y": -0.8636219131,
				"z": -0.6610973531,
				"element": "C" 
			},
			{
				"x": -2.2539194058,
				"y": -1.0823487649,
				"z": 0.4428205898,
				"element": "C" 
			},
			{
				"x": -1.782878322,
				"y": -0.6858626937,
				"z": 1.8684572371,
				"element": "C" 
			},
			{
				"x": -2.4848285466,
				"y": -1.5678452829,
				"z": 2.9143465183,
				"element": "C" 
			},
			{
				"x": -2.0261359814,
				"y": -1.4249029646,
				"z": 4.3609731076,
				"element": "C" 
			},
			{
				"x": -2.7328726626,
				"y": -1.8489212941,
				"z": 5.2701434797,
				"element": "O" 
			},
			{
				"x": -0.6890482072,
				"y": -0.8313679814,
				"z": 4.5898351601,
				"element": "C" 
			},
			{
				"x": 0.0459082984,
				"y": -0.1147813335,
				"z": 3.4755448227,
				"element": "C" 
			},
			{
				"x": -0.2366195656,
				"y": -0.653123881,
				"z": 2.0415450719,
				"element": "C" 
			},
			{
				"x": 0.4004523291,
				"y": -2.0545640526,
				"z": 1.9197413146,
				"element": "C" 
			},
			{
				"x": 0.3376440366,
				"y": 0.3927717906,
				"z": 1.0189524433,
				"element": "C" 
			},
			{
				"x": 1.8730726531,
				"y": 0.4491219877,
				"z": 0.9326072851,
				"element": "C" 
			},
			{
				"x": 2.3298229487,
				"y": 1.6482859414,
				"z": 0.0877974149,
				"element": "C" 
			},
			{
				"x": 1.7185461987,
				"y": 1.715354943,
				"z": -1.3560800565,
				"element": "C" 
			},
			{
				"x": 1.0957411945,
				"y": 3.1041133939,
				"z": -1.5678905787,
				"element": "C" 
			},
			{
				"x": -0.1994778985,
				"y": -0.9350043207,
				"z": 5.8459973666,
				"element": "C" 
			},
			{
				"x": 0.9784614885,
				"y": -0.4678443611,
				"z": 6.3028974516,
				"element": "O" 
			},
			{
				"x": 2.3300927301,
				"y": 2.8288352481,
				"z": -3.9820299035,
				"element": "H" 
			},
			{
				"x": 3.193721484,
				"y": 1.3955026328,
				"z": -4.5576185996,
				"element": "H" 
			},
			{
				"x": 1.4777391556,
				"y": 1.2833889298,
				"z": -4.1750472722,
				"element": "H" 
			},
			{
				"x": 4.6685094216,
				"y": 1.893522766,
				"z": -2.779027993,
				"element": "H" 
			},
			{
				"x": 3.6251260354,
				"y": -0.3497176646,
				"z": -1.4247745311,
				"element": "H" 
			},
			{
				"x": 3.4303381387,
				"y": -0.6144179675,
				"z": -3.1558541406,
				"element": "H" 
			},
			{
				"x": 1.5504473878,
				"y": -1.4628733505,
				"z": -1.2425391545,
				"element": "H" 
			},
			{
				"x": 1.1073461765,
				"y": -1.1382086049,
				"z": -2.9013853983,
				"element": "H" 
			},
			{
				"x": 0.0746015944,
				"y": 0.8419879815,
				"z": -2.4405608077,
				"element": "H" 
			},
			{
				"x": -0.9872525107,
				"y": 1.2324512077,
				"z": -0.455133641,
				"element": "H" 
			},
			{
				"x": -1.7085913318,
				"y": -0.7527156405,
				"z": -1.6298339868,
				"element": "H" 
			},
			{
				"x": -0.581420851,
				"y": -1.7573880381,
				"z": -0.7570375592,
				"element": "H" 
			},
			{
				"x": -3.1612903744,
				"y": -0.5111898313,
				"z": 0.2116600762,
				"element": "H" 
			},
			{
				"x": -2.5584255681,
				"y": -2.136167598,
				"z": 0.4358021476,
				"element": "H" 
			},
			{
				"x": -2.1078332972,
				"y": 0.3510654682,
				"z": 2.043696243,
				"element": "H" 
			},
			{
				"x": -3.569253509,
				"y": -1.4144059039,
				"z": 2.8938201229,
				"element": "H" 
			},
			{
				"x": -2.3357391194,
				"y": -2.6275731561,
				"z": 2.6615462676,
				"element": "H" 
			},
			{
				"x": 1.1313185952,
				"y": -0.1562410892,
				"z": 3.6516119188,
				"element": "H" 
			},
			{
				"x": -0.2214684299,
				"y": 0.9520985175,
				"z": 3.4972619441,
				"element": "H" 
			},
			{
				"x": 0.1910059286,
				"y": -2.5360713396,
				"z": 0.9622770024,
				"element": "H" 
			},
			{
				"x": 0.0379866518,
				"y": -2.7203640813,
				"z": 2.708583216,
				"element": "H" 
			},
			{
				"x": 1.48764945,
				"y": -1.9986218154,
				"z": 2.0300307196,
				"element": "H" 
			},
			{
				"x": 0.0454025673,
				"y": 1.3643055298,
				"z": 1.4431611025,
				"element": "H" 
			},
			{
				"x": 2.3038830948,
				"y": 0.5529137567,
				"z": 1.935942067,
				"element": "H" 
			},
			{
				"x": 2.2804465341,
				"y": -0.4833545504,
				"z": 0.5299526871,
				"element": "H" 
			},
			{
				"x": 3.419781086,
				"y": 1.6736581753,
				"z": 0.0254987038,
				"element": "H" 
			},
			{
				"x": 2.0411817169,
				"y": 2.5599267516,
				"z": 0.6259333208,
				"element": "H" 
			},
			{
				"x": 0.3541674096,
				"y": 3.3193249703,
				"z": -0.7909602867,
				"element": "H" 
			},
			{
				"x": 0.5911938865,
				"y": 3.1923018219,
				"z": -2.5349822602,
				"element": "H" 
			},
			{
				"x": 1.8669211355,
				"y": 3.8800888731,
				"z": -1.5131573227,
				"element": "H" 
			},
			{
				"x": -0.7692769028,
				"y": -1.4418063464,
				"z": 6.617810525,
				"element": "H" 
			},
			{
				"x": 1.4416378264,
				"y": 0.0004230929,
				"z": 5.5925854058,
				"element": "H" 
			}
		],
		 "valence_orbital": [ 
			{
				"type": "occ",
				"energy": -0.27863,
				"method": "rhf"
			},
			{
				"type": "occ",
				"energy": -0.27657,
				"method": "rhf"
			},
			{
				"type": "occ",
				"energy": -0.25863,
				"method": "rhf"
			},
			{
				"type": "occ",
				"energy": -0.22997,
				"method": "rhf"
			},
			{
				"type": "occ",
				"energy": -0.22688,
				"method": "rhf"
			},
			{
				"type": "unocc",
				"energy": -0.03316,
				"method": "rhf"
			},
			{
				"type": "unocc",
				"energy": 0.04942,
				"method": "rhf"
			},
			{
				"type": "unocc",
				"energy": 0.05347,
				"method": "rhf"
			},
			{
				"type": "unocc",
				"energy": 0.06299,
				"method": "rhf"
			},
			{
				"type": "unocc",
				"energy": 0.07723,
				"method": "rhf"
			}
		],
		"cosmo_sigma_profile": { 
			"-0.025": 0.0,
			"-0.024": 0.0,
			"-0.023": 0.0,
			"-0.022": 0.0,
			"-0.021": 0.0,
			"-0.02": 0.0,
			"-0.019": 0.0,
			"-0.018": 0.0,
			"-0.017": 0.398779582514,
			"-0.016": 0.964159261646,
			"-0.015": 1.20076800664,
			"-0.014": 2.01231268636,
			"-0.013": 1.85535514958,
			"-0.012": 2.07070472541,
			"-0.011": 1.42016051167,
			"-0.01": 1.98000676984,
			"-0.009": 2.38028002385,
			"-0.008": 1.7143255879,
			"-0.007": 3.04824392326,
			"-0.006": 4.00977704587,
			"-0.005": 4.38234018532,
			"-0.004": 10.199641492,
			"-0.003": 28.8560408127,
			"-0.002": 58.636825079,
			"-0.001": 65.1764293706,
			"0.0": 48.5314435941,
			"0.001": 43.1253865949,
			"0.002": 25.7832580565,
			"0.003": 8.50691051937,
			"0.004": 4.88258729202,
			"0.005": 5.3131060727,
			"0.006": 3.8823237894,
			"0.007": 5.13313731044,
			"0.008": 4.79258489165,
			"0.009": 4.37122183487,
			"0.01": 4.59248636101,
			"0.011": 3.7344965819,
			"0.012": 3.72731684971,
			"0.013": 5.60134631728,
			"0.014": 3.44828532304,
			"0.015": 0.685985433937,
			"0.016": 0.0,
			"0.017": 0.0,
			"0.018": 0.0,
			"0.019": 0.0,
			"0.02": 0.0,
			"0.021": 0.0,
			"0.022": 0.0,
			"0.023": 0.0,
			"0.024": 0.0,
			"0.025": 0.0
		}
	}
}
