{
	 "smiles": "ClC(Cl)(Cl)S(=O)(=O)C(Cl)(Cl)Cl", 
	 "Tm": 310.15, 
	 "num_atms": 11, 
	 "gaussian": { 
		 "optdone": 1, 
		 "sigma_profile": "yes", 
		 "theory": "DFT", 
		 "functional": "B3LYP", 
		 "basiset": "6-31G**", 
		 "properties": { 
			 "R2extent": 7067.6349, 
			 "electric_dipole_moment_norm": 2.34492110102, 
			 "electric_quadrupole_moment_norm": 10.8355970385, 
			 "total_energy": -3385.84634063, 
			 "HOMO_LUMO_gap": 0.21596, 
			 "cosmo_polarized_energy": -5.56, 
			 "cosmo_cavitation_energy": 26.87, 
			 "cosmo_dispersion_energy": -20.1, 
			 "cosmo_repulsion_energy": 1.54, 
			 "cosmo_total_nonelectrostatic_energy": 8.31, 
			 "SMD_solvation_energy": 1.99 
		},
		"coords": [
			{
				"x": -0.3094969452,
				"y": -1.9426632329,
				"z": 2.9486518473,
				"element": "Cl" 
			},
			{
				"x": 1.3688214983,
				"y": -1.362703288,
				"z": 2.9098954624,
				"element": "C" 
			},
			{
				"x": 2.2704928553,
				"y": -1.9673571818,
				"z": 4.322191683,
				"element": "Cl" 
			},
			{
				"x": 2.1877604028,
				"y": -1.8289284424,
				"z": 1.4111758815,
				"element": "Cl" 
			},
			{
				"x": 1.4291275033,
				"y": 0.5986713345,
				"z": 3.1266927134,
				"element": "S" 
			},
			{
				"x": 1.0393256364,
				"y": 0.8684691175,
				"z": 4.5052729009,
				"element": "O" 
			},
			{
				"x": 2.7074912388,
				"y": 1.012367736,
				"z": 2.5611300855,
				"element": "O" 
			},
			{
				"x": 0.0340697707,
				"y": 1.4405658392,
				"z": 2.0118939831,
				"element": "C" 
			},
			{
				"x": -1.5350559746,
				"y": 1.3292423128,
				"z": 2.8240146772,
				"element": "Cl" 
			},
			{
				"x": -0.0074882657,
				"y": 0.697759933,
				"z": 0.3990638332,
				"element": "Cl" 
			},
			{
				"x": 0.5555522798,
				"y": 3.1403758721,
				"z": 1.9025169326,
				"element": "Cl" 
			}
		],
		 "valence_orbital": [ 
			{
				"type": "occ",
				"energy": -0.33916,
				"method": "rhf"
			},
			{
				"type": "occ",
				"energy": -0.33779,
				"method": "rhf"
			},
			{
				"type": "occ",
				"energy": -0.33221,
				"method": "rhf"
			},
			{
				"type": "occ",
				"energy": -0.33206,
				"method": "rhf"
			},
			{
				"type": "occ",
				"energy": -0.31188,
				"method": "rhf"
			},
			{
				"type": "unocc",
				"energy": -0.09592,
				"method": "rhf"
			},
			{
				"type": "unocc",
				"energy": -0.06329,
				"method": "rhf"
			},
			{
				"type": "unocc",
				"energy": -0.05191,
				"method": "rhf"
			},
			{
				"type": "unocc",
				"energy": -0.03384,
				"method": "rhf"
			},
			{
				"type": "unocc",
				"energy": -0.03002,
				"method": "rhf"
			}
		],
		"cosmo_sigma_profile": { 
			"-0.025": 0.0,
			"-0.024": 0.0,
			"-0.023": 0.0,
			"-0.022": 0.0,
			"-0.021": 0.0,
			"-0.02": 0.0,
			"-0.019": 0.0,
			"-0.018": 0.0,
			"-0.017": 0.0,
			"-0.016": 0.0,
			"-0.015": 0.0,
			"-0.014": 0.0,
			"-0.013": 0.0,
			"-0.012": 0.0,
			"-0.011": 0.0,
			"-0.01": 0.0,
			"-0.009": 0.0,
			"-0.008": 0.0,
			"-0.007": 1.0293433215,
			"-0.006": 7.40776450517,
			"-0.005": 10.0624801142,
			"-0.004": 10.9268022766,
			"-0.003": 13.9523352273,
			"-0.002": 21.1625029593,
			"-0.001": 30.8004205315,
			"0.0": 50.3578021677,
			"0.001": 39.891111052,
			"0.002": 7.07105675211,
			"0.003": 5.24783916425,
			"0.004": 4.14168309202,
			"0.005": 4.02379511838,
			"0.006": 4.72454323749,
			"0.007": 9.40799769829,
			"0.008": 8.02196178304,
			"0.009": 0.170418195159,
			"0.01": 0.0,
			"0.011": 0.0,
			"0.012": 0.0,
			"0.013": 0.0,
			"0.014": 0.0,
			"0.015": 0.0,
			"0.016": 0.0,
			"0.017": 0.0,
			"0.018": 0.0,
			"0.019": 0.0,
			"0.02": 0.0,
			"0.021": 0.0,
			"0.022": 0.0,
			"0.023": 0.0,
			"0.024": 0.0,
			"0.025": 0.0
		}
	}
}
