{
	 "smiles": "CC1=C(O)C=CC(=C1)C1(OS(=O)(=O)C2=C1C=CC=C2)C1=CC(C)=C(O)C=C1", 
	 "Tm": 563.15, 
	 "num_atms": 45, 
	 "gaussian": { 
		 "optdone": 1, 
		 "sigma_profile": "yes", 
		 "theory": "DFT", 
		 "functional": "B3LYP", 
		 "basiset": "6-31G**", 
		 "properties": { 
			 "R2extent": 10786.2004, 
			 "electric_dipole_moment_norm": 8.30600858957, 
			 "electric_quadrupole_moment_norm": 22.5698510784, 
			 "total_energy": -1585.32070041, 
			 "HOMO_LUMO_gap": 0.18071, 
			 "cosmo_polarized_energy": -26.01, 
			 "cosmo_cavitation_energy": 49.53, 
			 "cosmo_dispersion_energy": -33.51, 
			 "cosmo_repulsion_energy": 2.53, 
			 "cosmo_total_nonelectrostatic_energy": 18.55, 
			 "SMD_solvation_energy": 7.65 
		},
		"coords": [
			{
				"x": 4.2383763083,
				"y": 1.2646281432,
				"z": 0.103208718,
				"element": "C" 
			},
			{
				"x": 2.8692439583,
				"y": 1.8879903957,
				"z": 0.016475827,
				"element": "C" 
			},
			{
				"x": 2.7351294042,
				"y": 3.2481306439,
				"z": -0.3299180108,
				"element": "C" 
			},
			{
				"x": 3.8895914682,
				"y": 3.9343528462,
				"z": -0.5838549304,
				"element": "O" 
			},
			{
				"x": 1.476769481,
				"y": 3.8427252132,
				"z": -0.4035223901,
				"element": "C" 
			},
			{
				"x": 0.3282657864,
				"y": 3.0960612941,
				"z": -0.1307092146,
				"element": "C" 
			},
			{
				"x": 0.4279458289,
				"y": 1.7459569648,
				"z": 0.2050486947,
				"element": "C" 
			},
			{
				"x": 1.707626824,
				"y": 1.1670664368,
				"z": 0.2739453063,
				"element": "C" 
			},
			{
				"x": -0.7759970498,
				"y": 0.8727049336,
				"z": 0.5556903568,
				"element": "C" 
			},
			{
				"x": -0.5921479027,
				"y": 0.4149292966,
				"z": 1.9504933616,
				"element": "O" 
			},
			{
				"x": -1.5604784944,
				"y": 1.156412477,
				"z": 3.0637082792,
				"element": "S" 
			},
			{
				"x": -2.2165432015,
				"y": 0.1077290129,
				"z": 3.8385183962,
				"element": "O" 
			},
			{
				"x": -0.8210880017,
				"y": 2.2088445703,
				"z": 3.7527319497,
				"element": "O" 
			},
			{
				"x": -2.6371486233,
				"y": 1.8355351693,
				"z": 1.824052959,
				"element": "C" 
			},
			{
				"x": -2.1097447848,
				"y": 1.6234438533,
				"z": 0.5588709967,
				"element": "C" 
			},
			{
				"x": -2.8272499908,
				"y": 2.0693906998,
				"z": -0.5533910767,
				"element": "C" 
			},
			{
				"x": -4.0413190959,
				"y": 2.7293931674,
				"z": -0.3570158193,
				"element": "C" 
			},
			{
				"x": -4.5510102759,
				"y": 2.9386190669,
				"z": 0.931510292,
				"element": "C" 
			},
			{
				"x": -3.8484291692,
				"y": 2.4853524454,
				"z": 2.0469297125,
				"element": "C" 
			},
			{
				"x": -0.8849197095,
				"y": -0.3934459549,
				"z": -0.2990589375,
				"element": "C" 
			},
			{
				"x": -0.4638691671,
				"y": -0.3945874813,
				"z": -1.6330780413,
				"element": "C" 
			},
			{
				"x": -0.6271552912,
				"y": -1.5090388466,
				"z": -2.4628146017,
				"element": "C" 
			},
			{
				"x": -0.1601473789,
				"y": -1.4959013707,
				"z": -3.8994720811,
				"element": "C" 
			},
			{
				"x": -1.2305101559,
				"y": -2.6564214013,
				"z": -1.9188871045,
				"element": "C" 
			},
			{
				"x": -1.4265820744,
				"y": -3.7962097796,
				"z": -2.6467689802,
				"element": "O" 
			},
			{
				"x": -1.6543403241,
				"y": -2.6723034483,
				"z": -0.5866224296,
				"element": "C" 
			},
			{
				"x": -1.4884484237,
				"y": -1.5493117077,
				"z": 0.214979241,
				"element": "C" 
			},
			{
				"x": 4.8601783615,
				"y": 1.7796969131,
				"z": 0.8435360822,
				"element": "H" 
			},
			{
				"x": 4.1700257558,
				"y": 0.210842816,
				"z": 0.3842020093,
				"element": "H" 
			},
			{
				"x": 4.7690629817,
				"y": 1.3351903175,
				"z": -0.8528307316,
				"element": "H" 
			},
			{
				"x": 3.6747725455,
				"y": 4.855969278,
				"z": -0.7780133448,
				"element": "H" 
			},
			{
				"x": 1.3889913862,
				"y": 4.8952372805,
				"z": -0.6653765144,
				"element": "H" 
			},
			{
				"x": -0.6377790441,
				"y": 3.5853141684,
				"z": -0.1784270248,
				"element": "H" 
			},
			{
				"x": 1.7958140382,
				"y": 0.1203893763,
				"z": 0.5498691004,
				"element": "H" 
			},
			{
				"x": -2.4512497551,
				"y": 1.8907300549,
				"z": -1.5555750805,
				"element": "H" 
			},
			{
				"x": -4.6047257674,
				"y": 3.0767640712,
				"z": -1.2178977098,
				"element": "H" 
			},
			{
				"x": -5.5015228528,
				"y": 3.4462746095,
				"z": 1.0619510371,
				"element": "H" 
			},
			{
				"x": -4.2327429548,
				"y": 2.6229921573,
				"z": 3.052259615,
				"element": "H" 
			},
			{
				"x": 0.0181928144,
				"y": 0.4881524562,
				"z": -2.0425107634,
				"element": "H" 
			},
			{
				"x": -0.9856155181,
				"y": -1.6662305687,
				"z": -4.6044845161,
				"element": "H" 
			},
			{
				"x": 0.602238475,
				"y": -2.2631642465,
				"z": -4.0930274601,
				"element": "H" 
			},
			{
				"x": 0.286186204,
				"y": -0.5321932928,
				"z": -4.1554183028,
				"element": "H" 
			},
			{
				"x": -1.0851503573,
				"y": -3.6724555631,
				"z": -3.5410940834,
				"element": "H" 
			},
			{
				"x": -2.1093115876,
				"y": -3.5769251884,
				"z": -0.1969019533,
				"element": "H" 
			},
			{
				"x": -1.8138846699,
				"y": -1.5737312792,
				"z": 1.248989168,
				"element": "H" 
			}
		],
		 "valence_orbital": [ 
			{
				"type": "occ",
				"energy": -0.27001,
				"method": "rhf"
			},
			{
				"type": "occ",
				"energy": -0.25365,
				"method": "rhf"
			},
			{
				"type": "occ",
				"energy": -0.2472,
				"method": "rhf"
			},
			{
				"type": "occ",
				"energy": -0.22453,
				"method": "rhf"
			},
			{
				"type": "occ",
				"energy": -0.22151,
				"method": "rhf"
			},
			{
				"type": "unocc",
				"energy": -0.0408,
				"method": "rhf"
			},
			{
				"type": "unocc",
				"energy": -0.03302,
				"method": "rhf"
			},
			{
				"type": "unocc",
				"energy": -0.01258,
				"method": "rhf"
			},
			{
				"type": "unocc",
				"energy": -0.00615,
				"method": "rhf"
			},
			{
				"type": "unocc",
				"energy": 0.00335,
				"method": "rhf"
			}
		],
		"cosmo_sigma_profile": { 
			"-0.025": 0.0,
			"-0.024": 0.0,
			"-0.023": 0.0,
			"-0.022": 0.0,
			"-0.021": 0.0,
			"-0.02": 0.0,
			"-0.019": 0.0,
			"-0.018": 0.504162541423,
			"-0.017": 1.07388583972,
			"-0.016": 1.74398831273,
			"-0.015": 1.92170824883,
			"-0.014": 2.14527600044,
			"-0.013": 1.52716144041,
			"-0.012": 1.17048348226,
			"-0.011": 2.46553027224,
			"-0.01": 3.60775798815,
			"-0.009": 4.12750278639,
			"-0.008": 5.41907566946,
			"-0.007": 11.55529957,
			"-0.006": 16.8590357631,
			"-0.005": 24.4912315291,
			"-0.004": 25.016283008,
			"-0.003": 25.8486599166,
			"-0.002": 25.0352117421,
			"-0.001": 28.0333691153,
			"0.0": 31.1391713893,
			"0.001": 28.1439735276,
			"0.002": 29.1797450073,
			"0.003": 23.3002445057,
			"0.004": 22.2964053344,
			"0.005": 19.2496514016,
			"0.006": 10.6568548495,
			"0.007": 7.39737440114,
			"0.008": 6.94591639166,
			"0.009": 11.6892424207,
			"0.01": 16.3171519131,
			"0.011": 5.68085014387,
			"0.012": 0.348872604927,
			"0.013": 0.0,
			"0.014": 0.0,
			"0.015": 0.0,
			"0.016": 0.0,
			"0.017": 0.0,
			"0.018": 0.0,
			"0.019": 0.0,
			"0.02": 0.0,
			"0.021": 0.0,
			"0.022": 0.0,
			"0.023": 0.0,
			"0.024": 0.0,
			"0.025": 0.0
		}
	}
}
