{
	 "smiles": "FC1=C(F)C(F)=C(C(=O)C2=C(F)C(F)=C(F)C(F)=C2F)C(F)=C1F", 
	 "Tm": 366.15, 
	 "num_atms": 24, 
	 "gaussian": { 
		 "optdone": 1, 
		 "sigma_profile": "yes", 
		 "theory": "DFT", 
		 "functional": "B3LYP", 
		 "basiset": "6-31G**", 
		 "properties": { 
			 "R2extent": 8099.0939, 
			 "electric_dipole_moment_norm": 1.56093425871, 
			 "electric_quadrupole_moment_norm": 7.13571453885, 
			 "total_energy": -1568.86082345, 
			 "HOMO_LUMO_gap": 0.17249, 
			 "cosmo_polarized_energy": -7.24, 
			 "cosmo_cavitation_energy": 35.99, 
			 "cosmo_dispersion_energy": -23.82, 
			 "cosmo_repulsion_energy": 1.59, 
			 "cosmo_total_nonelectrostatic_energy": 13.75, 
			 "SMD_solvation_energy": 11.27 
		},
		"coords": [
			{
				"x": -4.7227751011,
				"y": -0.9782015034,
				"z": -2.1299084201,
				"element": "F" 
			},
			{
				"x": -3.4572859314,
				"y": -0.6442476299,
				"z": -1.8861751974,
				"element": "C" 
			},
			{
				"x": -3.0612398168,
				"y": -0.3135753606,
				"z": -0.5916837335,
				"element": "C" 
			},
			{
				"x": -3.9531588728,
				"y": -0.3212646309,
				"z": 0.4026703015,
				"element": "F" 
			},
			{
				"x": -1.7356382532,
				"y": 0.0282260512,
				"z": -0.3498069164,
				"element": "C" 
			},
			{
				"x": -1.3992040285,
				"y": 0.3496983195,
				"z": 0.9082493023,
				"element": "F" 
			},
			{
				"x": -0.7779579925,
				"y": 0.0645512927,
				"z": -1.3712809106,
				"element": "C" 
			},
			{
				"x": 0.6404305946,
				"y": 0.5104936033,
				"z": -1.1470851891,
				"element": "C" 
			},
			{
				"x": 1.2143599851,
				"y": 1.1724518705,
				"z": -1.990917444,
				"element": "O" 
			},
			{
				"x": 1.3449701361,
				"y": 0.1335020526,
				"z": 0.1266777901,
				"element": "C" 
			},
			{
				"x": 2.2609341191,
				"y": 1.0254352416,
				"z": 0.7069655489,
				"element": "C" 
			},
			{
				"x": 2.4465798385,
				"y": 2.2441609473,
				"z": 0.2016256879,
				"element": "F" 
			},
			{
				"x": 2.9771096336,
				"y": 0.6899321769,
				"z": 1.8530528437,
				"element": "C" 
			},
			{
				"x": 3.827164085,
				"y": 1.5634121962,
				"z": 2.3983541079,
				"element": "F" 
			},
			{
				"x": 2.8043881194,
				"y": -0.5641374418,
				"z": 2.4352524619,
				"element": "C" 
			},
			{
				"x": 3.4944185873,
				"y": -0.893628302,
				"z": 3.5250700687,
				"element": "F" 
			},
			{
				"x": 1.9072495271,
				"y": -1.4731575689,
				"z": 1.8778122597,
				"element": "C" 
			},
			{
				"x": 1.7474083055,
				"y": -2.6787645588,
				"z": 2.4303363568,
				"element": "F" 
			},
			{
				"x": 1.189022291,
				"y": -1.1146636581,
				"z": 0.7428256655,
				"element": "C" 
			},
			{
				"x": 0.344042192,
				"y": -2.0229711381,
				"z": 0.2326759337,
				"element": "F" 
			},
			{
				"x": -1.2081992965,
				"y": -0.2667396756,
				"z": -2.6660508995,
				"element": "C" 
			},
			{
				"x": -0.3547488146,
				"y": -0.2867798816,
				"z": -3.6889507241,
				"element": "F" 
			},
			{
				"x": -2.5281293559,
				"y": -0.6273498375,
				"z": -2.9243663569,
				"element": "C" 
			},
			{
				"x": -2.9083399513,
				"y": -0.9585825645,
				"z": -4.1607425371,
				"element": "F" 
			}
		],
		 "valence_orbital": [ 
			{
				"type": "occ",
				"energy": -0.29154,
				"method": "rhf"
			},
			{
				"type": "occ",
				"energy": -0.28627,
				"method": "rhf"
			},
			{
				"type": "occ",
				"energy": -0.28131,
				"method": "rhf"
			},
			{
				"type": "occ",
				"energy": -0.27265,
				"method": "rhf"
			},
			{
				"type": "occ",
				"energy": -0.27053,
				"method": "rhf"
			},
			{
				"type": "unocc",
				"energy": -0.09804,
				"method": "rhf"
			},
			{
				"type": "unocc",
				"energy": -0.04851,
				"method": "rhf"
			},
			{
				"type": "unocc",
				"energy": -0.03231,
				"method": "rhf"
			},
			{
				"type": "unocc",
				"energy": -0.03139,
				"method": "rhf"
			},
			{
				"type": "unocc",
				"energy": -0.00616,
				"method": "rhf"
			}
		],
		"cosmo_sigma_profile": { 
			"-0.025": 0.0,
			"-0.024": 0.0,
			"-0.023": 0.0,
			"-0.022": 0.0,
			"-0.021": 0.0,
			"-0.02": 0.0,
			"-0.019": 0.0,
			"-0.018": 0.0,
			"-0.017": 0.0,
			"-0.016": 0.0,
			"-0.015": 0.0,
			"-0.014": 0.0,
			"-0.013": 0.0,
			"-0.012": 0.0,
			"-0.011": 0.0,
			"-0.01": 0.0,
			"-0.009": 0.0,
			"-0.008": 0.0,
			"-0.007": 1.86480165264,
			"-0.006": 6.81805112833,
			"-0.005": 24.6303990624,
			"-0.004": 30.5827218107,
			"-0.003": 18.5684135842,
			"-0.002": 18.5348285868,
			"-0.001": 16.3544203012,
			"0.0": 19.3520363453,
			"0.001": 32.8521757875,
			"0.002": 85.6981038495,
			"0.003": 18.4474006696,
			"0.004": 2.65937099194,
			"0.005": 2.7351122336,
			"0.006": 2.21002402006,
			"0.007": 2.32401943512,
			"0.008": 3.22819442898,
			"0.009": 3.88802808467,
			"0.01": 3.41910794801,
			"0.011": 0.199594146385,
			"0.012": 0.0,
			"0.013": 0.0,
			"0.014": 0.0,
			"0.015": 0.0,
			"0.016": 0.0,
			"0.017": 0.0,
			"0.018": 0.0,
			"0.019": 0.0,
			"0.02": 0.0,
			"0.021": 0.0,
			"0.022": 0.0,
			"0.023": 0.0,
			"0.024": 0.0,
			"0.025": 0.0
		}
	}
}
