{
	 "smiles": "NC(C#N)C1=C(Cl)C=C(Cl)C=C1", 
	 "Tm": 354.15, 
	 "num_atms": 18, 
	 "gaussian": { 
		 "optdone": 1, 
		 "sigma_profile": "yes", 
		 "theory": "DFT", 
		 "functional": "B3LYP", 
		 "basiset": "6-31G**", 
		 "properties": { 
			 "R2extent": 3091.2134, 
			 "electric_dipole_moment_norm": 4.56929945178, 
			 "electric_quadrupole_moment_norm": 20.8006700411, 
			 "total_energy": -1338.32249273, 
			 "HOMO_LUMO_gap": 0.21227, 
			 "cosmo_polarized_energy": -14.13, 
			 "cosmo_cavitation_energy": 26.63, 
			 "cosmo_dispersion_energy": -19.0, 
			 "cosmo_repulsion_energy": 1.53, 
			 "cosmo_total_nonelectrostatic_energy": 9.16, 
			 "SMD_solvation_energy": 4.11 
		},
		"coords": [
			{
				"x": -2.5443112587,
				"y": -0.9844140416,
				"z": 1.3798514194,
				"element": "N" 
			},
			{
				"x": -1.9776343926,
				"y": 0.3645423308,
				"z": 1.3235341462,
				"element": "C" 
			},
			{
				"x": -1.7860801104,
				"y": 0.879948474,
				"z": 2.6958143177,
				"element": "C" 
			},
			{
				"x": -1.6399753958,
				"y": 1.3146503157,
				"z": 3.7613254748,
				"element": "N" 
			},
			{
				"x": -0.7149739135,
				"y": 0.5592000327,
				"z": 0.4722769803,
				"element": "C" 
			},
			{
				"x": 0.5113202309,
				"y": -0.0781453216,
				"z": 0.7181245117,
				"element": "C" 
			},
			{
				"x": 0.7140715826,
				"y": -1.1496504952,
				"z": 2.0980897536,
				"element": "Cl" 
			},
			{
				"x": 1.6177778221,
				"y": 0.105317416,
				"z": -0.109385611,
				"element": "C" 
			},
			{
				"x": 1.5014118748,
				"y": 0.9486547843,
				"z": -1.2131934619,
				"element": "C" 
			},
			{
				"x": 2.8876271267,
				"y": 1.1813616121,
				"z": -2.2584827724,
				"element": "Cl" 
			},
			{
				"x": 0.3042548589,
				"y": 1.6030094832,
				"z": -1.4937470869,
				"element": "C" 
			},
			{
				"x": -0.7831915208,
				"y": 1.3985425693,
				"z": -0.647425382,
				"element": "C" 
			},
			{
				"x": -2.7202538508,
				"y": -1.3115505559,
				"z": 0.4334823636,
				"element": "H" 
			},
			{
				"x": -1.8847402466,
				"y": -1.6270358114,
				"z": 1.8090455428,
				"element": "H" 
			},
			{
				"x": -2.7470840455,
				"y": 1.0078282869,
				"z": 0.8782766972,
				"element": "H" 
			},
			{
				"x": 2.5515622758,
				"y": -0.3988592203,
				"z": 0.1067765658,
				"element": "H" 
			},
			{
				"x": 0.2255437304,
				"y": 2.2583320694,
				"z": -2.3533605688,
				"element": "H" 
			},
			{
				"x": -1.7178247674,
				"y": 1.9104680715,
				"z": -0.86110289,
				"element": "H" 
			}
		],
		 "valence_orbital": [ 
			{
				"type": "occ",
				"energy": -0.33193,
				"method": "rhf"
			},
			{
				"type": "occ",
				"energy": -0.32417,
				"method": "rhf"
			},
			{
				"type": "occ",
				"energy": -0.28281,
				"method": "rhf"
			},
			{
				"type": "occ",
				"energy": -0.27591,
				"method": "rhf"
			},
			{
				"type": "occ",
				"energy": -0.25957,
				"method": "rhf"
			},
			{
				"type": "unocc",
				"energy": -0.0473,
				"method": "rhf"
			},
			{
				"type": "unocc",
				"energy": -0.04223,
				"method": "rhf"
			},
			{
				"type": "unocc",
				"energy": -0.00955,
				"method": "rhf"
			},
			{
				"type": "unocc",
				"energy": 0.02284,
				"method": "rhf"
			},
			{
				"type": "unocc",
				"energy": 0.03262,
				"method": "rhf"
			}
		],
		"cosmo_sigma_profile": { 
			"-0.025": 0.0,
			"-0.024": 0.0,
			"-0.023": 0.0,
			"-0.022": 0.0,
			"-0.021": 0.0,
			"-0.02": 0.0,
			"-0.019": 0.0,
			"-0.018": 0.0,
			"-0.017": 0.0,
			"-0.016": 0.0,
			"-0.015": 0.0,
			"-0.014": 0.0,
			"-0.013": 0.00492097417453,
			"-0.012": 1.10111094565,
			"-0.011": 2.0237851667,
			"-0.01": 5.60115321159,
			"-0.009": 6.91054443584,
			"-0.008": 9.35719839589,
			"-0.007": 7.51306717072,
			"-0.006": 9.47329608215,
			"-0.005": 7.91980319276,
			"-0.004": 7.1127676615,
			"-0.003": 9.03371189313,
			"-0.002": 11.7990078868,
			"-0.001": 14.9147091303,
			"0.0": 20.2947114627,
			"0.001": 23.9280240265,
			"0.002": 15.0185930801,
			"0.003": 15.8454242162,
			"0.004": 15.8966435519,
			"0.005": 5.81018503164,
			"0.006": 3.21022154899,
			"0.007": 4.46711221168,
			"0.008": 3.8002628189,
			"0.009": 4.31322989689,
			"0.01": 3.05586430061,
			"0.011": 3.5497612864,
			"0.012": 2.71619289006,
			"0.013": 1.60565275527,
			"0.014": 0.952557444079,
			"0.015": 0.375466338181,
			"0.016": 0.506442968943,
			"0.017": 0.221434920628,
			"0.018": 0.0,
			"0.019": 0.0,
			"0.02": 0.0,
			"0.021": 0.0,
			"0.022": 0.0,
			"0.023": 0.0,
			"0.024": 0.0,
			"0.025": 0.0
		}
	}
}
