{
	 "smiles": "CCCC(C)NC(=O)C(C)Cl", 
	 "Tm": 325.15, 
	 "num_atms": 27, 
	 "gaussian": { 
		 "optdone": 1, 
		 "sigma_profile": "yes", 
		 "theory": "DFT", 
		 "functional": "B3LYP", 
		 "basiset": "6-31G**", 
		 "properties": { 
			 "R2extent": 2878.5616, 
			 "electric_dipole_moment_norm": 3.3478384504, 
			 "electric_quadrupole_moment_norm": 10.0256985871, 
			 "total_energy": -904.694415278, 
			 "HOMO_LUMO_gap": 0.24132, 
			 "cosmo_polarized_energy": -10.2, 
			 "cosmo_cavitation_energy": 30.23, 
			 "cosmo_dispersion_energy": -20.9, 
			 "cosmo_repulsion_energy": 1.72, 
			 "cosmo_total_nonelectrostatic_energy": 11.05, 
			 "SMD_solvation_energy": 5.4 
		},
		"coords": [
			{
				"x": -2.7464831492,
				"y": -1.1710175851,
				"z": 2.6204293829,
				"element": "C" 
			},
			{
				"x": -1.940645325,
				"y": -1.187760055,
				"z": 1.3165264559,
				"element": "C" 
			},
			{
				"x": -0.6637178483,
				"y": -0.3406723557,
				"z": 1.4106021605,
				"element": "C" 
			},
			{
				"x": 0.2034587264,
				"y": -0.2740391395,
				"z": 0.1338496651,
				"element": "C" 
			},
			{
				"x": 0.7712679769,
				"y": -1.6379472191,
				"z": -0.2872828422,
				"element": "C" 
			},
			{
				"x": -0.5358239664,
				"y": 0.3198722695,
				"z": -0.9867616266,
				"element": "N" 
			},
			{
				"x": -0.3929565932,
				"y": 1.4929841431,
				"z": -1.6656673948,
				"element": "C" 
			},
			{
				"x": -1.1177465261,
				"y": 1.7703826674,
				"z": -2.6162670339,
				"element": "O" 
			},
			{
				"x": 0.7343683683,
				"y": 2.4844903247,
				"z": -1.3291266859,
				"element": "C" 
			},
			{
				"x": 2.1192087274,
				"y": 2.009208975,
				"z": -1.7598224079,
				"element": "C" 
			},
			{
				"x": 0.74652035,
				"y": 3.0141498206,
				"z": 0.4315360668,
				"element": "Cl" 
			},
			{
				"x": -3.6553179032,
				"y": -1.7751626775,
				"z": 2.5350654349,
				"element": "H" 
			},
			{
				"x": -2.1581024484,
				"y": -1.5698604516,
				"z": 3.4545469541,
				"element": "H" 
			},
			{
				"x": -3.0468636531,
				"y": -0.1514092798,
				"z": 2.8858735855,
				"element": "H" 
			},
			{
				"x": -2.5749494943,
				"y": -0.8120267957,
				"z": 0.5028280971,
				"element": "H" 
			},
			{
				"x": -1.689930953,
				"y": -2.225509782,
				"z": 1.0625199554,
				"element": "H" 
			},
			{
				"x": -0.9313724959,
				"y": 0.6859616715,
				"z": 1.6861925894,
				"element": "H" 
			},
			{
				"x": -0.0336149357,
				"y": -0.7279090293,
				"z": 2.2229872373,
				"element": "H" 
			},
			{
				"x": 1.0382968883,
				"y": 0.3911177251,
				"z": 0.3556664744,
				"element": "H" 
			},
			{
				"x": 1.3165500764,
				"y": -2.1002026484,
				"z": 0.5418748082,
				"element": "H" 
			},
			{
				"x": -0.022249662,
				"y": -2.3289458196,
				"z": -0.5909714906,
				"element": "H" 
			},
			{
				"x": 1.4566298971,
				"y": -1.5273854904,
				"z": -1.1327635148,
				"element": "H" 
			},
			{
				"x": -1.3015710796,
				"y": -0.2267582355,
				"z": -1.3631777308,
				"element": "H" 
			},
			{
				"x": 0.4608215973,
				"y": 3.3865408459,
				"z": -1.8729946438,
				"element": "H" 
			},
			{
				"x": 2.8550023358,
				"y": 2.8040955672,
				"z": -1.6167972937,
				"element": "H" 
			},
			{
				"x": 2.4485583649,
				"y": 1.1287390519,
				"z": -1.2034274305,
				"element": "H" 
			},
			{
				"x": 2.0854627246,
				"y": 1.7542635023,
				"z": -2.8246387718,
				"element": "H" 
			}
		],
		 "valence_orbital": [ 
			{
				"type": "occ",
				"energy": -0.32877,
				"method": "rhf"
			},
			{
				"type": "occ",
				"energy": -0.30812,
				"method": "rhf"
			},
			{
				"type": "occ",
				"energy": -0.2973,
				"method": "rhf"
			},
			{
				"type": "occ",
				"energy": -0.25259,
				"method": "rhf"
			},
			{
				"type": "occ",
				"energy": -0.24972,
				"method": "rhf"
			},
			{
				"type": "unocc",
				"energy": -0.0084,
				"method": "rhf"
			},
			{
				"type": "unocc",
				"energy": 0.0506,
				"method": "rhf"
			},
			{
				"type": "unocc",
				"energy": 0.06608,
				"method": "rhf"
			},
			{
				"type": "unocc",
				"energy": 0.09106,
				"method": "rhf"
			},
			{
				"type": "unocc",
				"energy": 0.10006,
				"method": "rhf"
			}
		],
		"cosmo_sigma_profile": { 
			"-0.025": 0.0,
			"-0.024": 0.0,
			"-0.023": 0.0,
			"-0.022": 0.0,
			"-0.021": 0.0,
			"-0.02": 0.0,
			"-0.019": 0.0,
			"-0.018": 0.0,
			"-0.017": 0.0,
			"-0.016": 0.0,
			"-0.015": 0.0,
			"-0.014": 0.0,
			"-0.013": 0.0791458551768,
			"-0.012": 0.681861698414,
			"-0.011": 0.90950319008,
			"-0.01": 0.931633910059,
			"-0.009": 1.57214436206,
			"-0.008": 1.55659686574,
			"-0.007": 2.62116551739,
			"-0.006": 5.06166523123,
			"-0.005": 9.61469142321,
			"-0.004": 15.6586293567,
			"-0.003": 25.5499443542,
			"-0.002": 29.5409827636,
			"-0.001": 30.5105892152,
			"0.0": 28.1828890224,
			"0.001": 25.6236593083,
			"0.002": 15.1400813048,
			"0.003": 7.18082498598,
			"0.004": 5.62416358738,
			"0.005": 6.34013090499,
			"0.006": 6.25066751242,
			"0.007": 1.47211783186,
			"0.008": 1.49455995561,
			"0.009": 1.0850300645,
			"0.01": 1.09356802884,
			"0.011": 1.59481109961,
			"0.012": 1.78276471763,
			"0.013": 4.93246809741,
			"0.014": 4.33293996671,
			"0.015": 0.217715373484,
			"0.016": 0.0,
			"0.017": 0.0,
			"0.018": 0.0,
			"0.019": 0.0,
			"0.02": 0.0,
			"0.021": 0.0,
			"0.022": 0.0,
			"0.023": 0.0,
			"0.024": 0.0,
			"0.025": 0.0
		}
	}
}
