{
	 "smiles": "[O-][N+](=O)C1=CC=C(C=C1)C1=C(C(=NO1)C(=O)C1=CC=CC2=C1C=CC=C2)S(=O)(=O)C1=CC=CC=C1", 
	 "Tm": 433.15, 
	 "num_atms": 51, 
	 "gaussian": { 
		 "optdone": 1, 
		 "sigma_profile": "yes", 
		 "theory": "DFT", 
		 "functional": "B3LYP", 
		 "basiset": "6-31G**", 
		 "properties": { 
			 "R2extent": 20540.8909, 
			 "electric_dipole_moment_norm": 9.51796036344, 
			 "electric_quadrupole_moment_norm": 25.5465328158, 
			 "total_energy": -1959.21596211, 
			 "HOMO_LUMO_gap": 0.13239, 
			 "cosmo_polarized_energy": -23.14, 
			 "cosmo_cavitation_energy": 58.54, 
			 "cosmo_dispersion_energy": -39.58, 
			 "cosmo_repulsion_energy": 2.89, 
			 "cosmo_total_nonelectrostatic_energy": 21.85, 
			 "SMD_solvation_energy": 11.15 
		},
		"coords": [
			{
				"x": -0.1846591209,
				"y": -2.1705465365,
				"z": -8.0607761798,
				"element": "O" 
			},
			{
				"x": 0.3858688762,
				"y": -1.1299470369,
				"z": -7.7393232887,
				"element": "N" 
			},
			{
				"x": 1.0180612349,
				"y": -0.4066051512,
				"z": -8.5079060491,
				"element": "O" 
			},
			{
				"x": 0.3061532911,
				"y": -0.7167556858,
				"z": -6.3266588823,
				"element": "C" 
			},
			{
				"x": 0.9330040795,
				"y": 0.4646658127,
				"z": -5.936287556,
				"element": "C" 
			},
			{
				"x": 0.8534351313,
				"y": 0.8505739222,
				"z": -4.6038443473,
				"element": "C" 
			},
			{
				"x": 0.1614057531,
				"y": 0.0552718837,
				"z": -3.672507658,
				"element": "C" 
			},
			{
				"x": -0.4719689003,
				"y": -1.1249492285,
				"z": -4.0968603752,
				"element": "C" 
			},
			{
				"x": -0.39848722,
				"y": -1.515651711,
				"z": -5.4290541428,
				"element": "C" 
			},
			{
				"x": 0.065688366,
				"y": 0.5104322411,
				"z": -2.2818173518,
				"element": "C" 
			},
			{
				"x": -0.0063310436,
				"y": -0.0819497101,
				"z": -1.0400696612,
				"element": "C" 
			},
			{
				"x": -0.1364606832,
				"y": 1.0233560582,
				"z": -0.1334184746,
				"element": "C" 
			},
			{
				"x": -0.1136481396,
				"y": 2.1713948028,
				"z": -0.7760793808,
				"element": "N" 
			},
			{
				"x": 0.0058997288,
				"y": 1.8540517507,
				"z": -2.1205540176,
				"element": "O" 
			},
			{
				"x": -0.4649741448,
				"y": 0.9950110267,
				"z": 1.3411790742,
				"element": "C" 
			},
			{
				"x": -1.2077153333,
				"y": 0.0917525389,
				"z": 1.7059875627,
				"element": "O" 
			},
			{
				"x": 0.0841958031,
				"y": 2.0463011218,
				"z": 2.2325404421,
				"element": "C" 
			},
			{
				"x": 1.2610281573,
				"y": 2.685797153,
				"z": 1.8585369413,
				"element": "C" 
			},
			{
				"x": 1.8814472885,
				"y": 3.6409149377,
				"z": 2.6867282257,
				"element": "C" 
			},
			{
				"x": 1.3086953743,
				"y": 3.9724199121,
				"z": 3.8920725142,
				"element": "C" 
			},
			{
				"x": 0.1004177253,
				"y": 3.3627523511,
				"z": 4.3218220133,
				"element": "C" 
			},
			{
				"x": -0.5334604796,
				"y": 2.3709493777,
				"z": 3.4976927197,
				"element": "C" 
			},
			{
				"x": -1.7463739097,
				"y": 1.7960079783,
				"z": 3.9671619145,
				"element": "C" 
			},
			{
				"x": -2.2907070732,
				"y": 2.1791902456,
				"z": 5.1754333654,
				"element": "C" 
			},
			{
				"x": -1.6596206338,
				"y": 3.1488284152,
				"z": 5.9862333795,
				"element": "C" 
			},
			{
				"x": -0.4862102675,
				"y": 3.7278618303,
				"z": 5.5628779067,
				"element": "C" 
			},
			{
				"x": 0.124699271,
				"y": -1.8512376922,
				"z": -0.7362682972,
				"element": "S" 
			},
			{
				"x": 1.0239415959,
				"y": -2.3566748862,
				"z": -1.7862008815,
				"element": "O" 
			},
			{
				"x": -1.2266129303,
				"y": -2.4065876077,
				"z": -0.5946469126,
				"element": "O" 
			},
			{
				"x": 0.9949959123,
				"y": -2.0112392647,
				"z": 0.823461216,
				"element": "C" 
			},
			{
				"x": 0.2946094038,
				"y": -2.4350093615,
				"z": 1.9531079609,
				"element": "C" 
			},
			{
				"x": 0.9995074526,
				"y": -2.6358344678,
				"z": 3.1402850301,
				"element": "C" 
			},
			{
				"x": 2.3768860462,
				"y": -2.4101257849,
				"z": 3.1859061896,
				"element": "C" 
			},
			{
				"x": 3.0652388619,
				"y": -1.9933408072,
				"z": 2.0428164047,
				"element": "C" 
			},
			{
				"x": 2.3765400864,
				"y": -1.7995094782,
				"z": 0.8463714212,
				"element": "C" 
			},
			{
				"x": 1.4668181824,
				"y": 1.0546069174,
				"z": -6.6702572482,
				"element": "H" 
			},
			{
				"x": 1.3318568006,
				"y": 1.7669221505,
				"z": -4.27720022,
				"element": "H" 
			},
			{
				"x": -1.032686304,
				"y": -1.7289132907,
				"z": -3.3943062325,
				"element": "H" 
			},
			{
				"x": -0.8793251619,
				"y": -2.4193539627,
				"z": -5.7807903308,
				"element": "H" 
			},
			{
				"x": 1.7242731351,
				"y": 2.440256798,
				"z": 0.9114385805,
				"element": "H" 
			},
			{
				"x": 2.8059269748,
				"y": 4.1100708524,
				"z": 2.3656565395,
				"element": "H" 
			},
			{
				"x": 1.7749974402,
				"y": 4.7120401091,
				"z": 4.5380153034,
				"element": "H" 
			},
			{
				"x": -2.2367344849,
				"y": 1.041603245,
				"z": 3.3691066983,
				"element": "H" 
			},
			{
				"x": -3.2201041072,
				"y": 1.7257557771,
				"z": 5.5078193476,
				"element": "H" 
			},
			{
				"x": -2.1025393409,
				"y": 3.435277136,
				"z": 6.9354410013,
				"element": "H" 
			},
			{
				"x": 0.0108216721,
				"y": 4.4800699917,
				"z": 6.1697716335,
				"element": "H" 
			},
			{
				"x": -0.7747530259,
				"y": -2.5954737705,
				"z": 1.8912843557,
				"element": "H" 
			},
			{
				"x": 0.4710439355,
				"y": -2.9661368839,
				"z": 4.0290404608,
				"element": "H" 
			},
			{
				"x": 2.9187230603,
				"y": -2.5657352678,
				"z": 4.1142116469,
				"element": "H" 
			},
			{
				"x": 4.1383002922,
				"y": -1.832630705,
				"z": 2.0796408338,
				"element": "H" 
			},
			{
				"x": 2.8995913719,
				"y": -1.5119280463,
				"z": -0.059513195,
				"element": "H" 
			}
		],
		 "valence_orbital": [ 
			{
				"type": "occ",
				"energy": -0.27435,
				"method": "rhf"
			},
			{
				"type": "occ",
				"energy": -0.2736,
				"method": "rhf"
			},
			{
				"type": "occ",
				"energy": -0.26632,
				"method": "rhf"
			},
			{
				"type": "occ",
				"energy": -0.26107,
				"method": "rhf"
			},
			{
				"type": "occ",
				"energy": -0.23552,
				"method": "rhf"
			},
			{
				"type": "unocc",
				"energy": -0.10313,
				"method": "rhf"
			},
			{
				"type": "unocc",
				"energy": -0.09155,
				"method": "rhf"
			},
			{
				"type": "unocc",
				"energy": -0.05604,
				"method": "rhf"
			},
			{
				"type": "unocc",
				"energy": -0.04705,
				"method": "rhf"
			},
			{
				"type": "unocc",
				"energy": -0.03872,
				"method": "rhf"
			}
		],
		"cosmo_sigma_profile": { 
			"-0.025": 0.0,
			"-0.024": 0.0,
			"-0.023": 0.0,
			"-0.022": 0.0,
			"-0.021": 0.0,
			"-0.02": 0.0,
			"-0.019": 0.0,
			"-0.018": 0.0,
			"-0.017": 0.0,
			"-0.016": 0.0,
			"-0.015": 0.0,
			"-0.014": 0.0,
			"-0.013": 0.0,
			"-0.012": 0.0,
			"-0.011": 0.0,
			"-0.01": 0.0,
			"-0.009": 0.897818077046,
			"-0.008": 6.72855923286,
			"-0.007": 25.5640571225,
			"-0.006": 34.5474534951,
			"-0.005": 37.0892546889,
			"-0.004": 31.5354718093,
			"-0.003": 29.8246971232,
			"-0.002": 28.5786874886,
			"-0.001": 33.0958260223,
			"0.0": 35.6595659153,
			"0.001": 30.7081622232,
			"0.002": 40.1766651704,
			"0.003": 31.8750365858,
			"0.004": 22.0661250839,
			"0.005": 15.1373673221,
			"0.006": 11.821878401,
			"0.007": 15.9983255994,
			"0.008": 12.9382965257,
			"0.009": 10.4655902807,
			"0.01": 12.7748846252,
			"0.011": 5.46781332623,
			"0.012": 0.370563573261,
			"0.013": 0.0,
			"0.014": 0.0,
			"0.015": 0.0,
			"0.016": 0.0,
			"0.017": 0.0,
			"0.018": 0.0,
			"0.019": 0.0,
			"0.02": 0.0,
			"0.021": 0.0,
			"0.022": 0.0,
			"0.023": 0.0,
			"0.024": 0.0,
			"0.025": 0.0
		}
	}
}
