{
	 "smiles": "NC(CSCC1=C2C=CC=CC2=CC=C1)C(O)=O", 
	 "Tm": 473.15, 
	 "num_atms": 33, 
	 "gaussian": { 
		 "optdone": 1, 
		 "sigma_profile": "yes", 
		 "theory": "DFT", 
		 "functional": "B3LYP", 
		 "basiset": "6-31G**", 
		 "properties": { 
			 "R2extent": 6331.3472, 
			 "electric_dipole_moment_norm": 2.55602395529, 
			 "electric_quadrupole_moment_norm": 10.7417742101, 
			 "total_energy": -1145.94024613, 
			 "HOMO_LUMO_gap": 0.17102, 
			 "cosmo_polarized_energy": -16.28, 
			 "cosmo_cavitation_energy": 37.63, 
			 "cosmo_dispersion_energy": -26.59, 
			 "cosmo_repulsion_energy": 2.01, 
			 "cosmo_total_nonelectrostatic_energy": 13.05, 
			 "SMD_solvation_energy": 5.18 
		},
		"coords": [
			{
				"x": 1.1323504462,
				"y": -3.6032589585,
				"z": 2.3004552537,
				"element": "N" 
			},
			{
				"x": -0.2315422426,
				"y": -3.177394658,
				"z": 2.0584750185,
				"element": "C" 
			},
			{
				"x": -0.497504696,
				"y": -3.0205973018,
				"z": 0.5455194188,
				"element": "C" 
			},
			{
				"x": 0.6116366506,
				"y": -1.8706772145,
				"z": -0.3627592138,
				"element": "S" 
			},
			{
				"x": -0.09630451,
				"y": -0.2080525088,
				"z": 0.0718417696,
				"element": "C" 
			},
			{
				"x": 0.4741560345,
				"y": 0.8591818971,
				"z": -0.8283176961,
				"element": "C" 
			},
			{
				"x": -0.0305332226,
				"y": 1.0787254649,
				"z": -2.1535252897,
				"element": "C" 
			},
			{
				"x": -1.0818687934,
				"y": 0.307155309,
				"z": -2.7214905357,
				"element": "C" 
			},
			{
				"x": -1.5492905773,
				"y": 0.5638245219,
				"z": -3.9916682744,
				"element": "C" 
			},
			{
				"x": -0.9887339215,
				"y": 1.6057601898,
				"z": -4.7673219608,
				"element": "C" 
			},
			{
				"x": 0.0346702711,
				"y": 2.3680107688,
				"z": -4.2531990037,
				"element": "C" 
			},
			{
				"x": 0.5408339979,
				"y": 2.1300725598,
				"z": -2.9466889768,
				"element": "C" 
			},
			{
				"x": 1.599986431,
				"y": 2.912587553,
				"z": -2.4135836179,
				"element": "C" 
			},
			{
				"x": 2.0762938745,
				"y": 2.6747522497,
				"z": -1.1464241881,
				"element": "C" 
			},
			{
				"x": 1.5074251383,
				"y": 1.6485217401,
				"z": -0.3580901437,
				"element": "C" 
			},
			{
				"x": -0.640569631,
				"y": -1.9280119658,
				"z": 2.8471099608,
				"element": "C" 
			},
			{
				"x": -1.9497974605,
				"y": -1.6206133308,
				"z": 2.6676693509,
				"element": "O" 
			},
			{
				"x": 0.0856530176,
				"y": -1.2874020163,
				"z": 3.5752872818,
				"element": "O" 
			},
			{
				"x": 1.3298099454,
				"y": -3.5623341747,
				"z": 3.2971135273,
				"element": "H" 
			},
			{
				"x": 1.7622473506,
				"y": -2.9336801456,
				"z": 1.860726143,
				"element": "H" 
			},
			{
				"x": -0.9176358226,
				"y": -3.967554999,
				"z": 2.3997964688,
				"element": "H" 
			},
			{
				"x": -1.5388363735,
				"y": -2.7411452296,
				"z": 0.3679892652,
				"element": "H" 
			},
			{
				"x": -0.3156270884,
				"y": -3.9904025464,
				"z": 0.0753041249,
				"element": "H" 
			},
			{
				"x": -1.1848576508,
				"y": -0.2740139908,
				"z": -0.0131766184,
				"element": "H" 
			},
			{
				"x": 0.154279593,
				"y": 0.0201691542,
				"z": 1.1089920991,
				"element": "H" 
			},
			{
				"x": -1.5102206559,
				"y": -0.5104661603,
				"z": -2.1528018135,
				"element": "H" 
			},
			{
				"x": -2.3513382656,
				"y": -0.0415281518,
				"z": -4.4041709838,
				"element": "H" 
			},
			{
				"x": -1.3658288135,
				"y": 1.7980520715,
				"z": -5.7675630978,
				"element": "H" 
			},
			{
				"x": 0.4751835516,
				"y": 3.1686028297,
				"z": -4.8420637053,
				"element": "H" 
			},
			{
				"x": 2.0256390397,
				"y": 3.7030718787,
				"z": -3.0263211727,
				"element": "H" 
			},
			{
				"x": 2.8862186043,
				"y": 3.2741889903,
				"z": -0.7414361049,
				"element": "H" 
			},
			{
				"x": 1.8888398921,
				"y": 1.4778063598,
				"z": 0.645346513,
				"element": "H" 
			},
			{
				"x": -2.1273341132,
				"y": -0.8405501856,
				"z": 3.2203762016,
				"element": "H" 
			}
		],
		 "valence_orbital": [ 
			{
				"type": "occ",
				"energy": -0.27797,
				"method": "rhf"
			},
			{
				"type": "occ",
				"energy": -0.24909,
				"method": "rhf"
			},
			{
				"type": "occ",
				"energy": -0.24417,
				"method": "rhf"
			},
			{
				"type": "occ",
				"energy": -0.22659,
				"method": "rhf"
			},
			{
				"type": "occ",
				"energy": -0.21402,
				"method": "rhf"
			},
			{
				"type": "unocc",
				"energy": -0.043,
				"method": "rhf"
			},
			{
				"type": "unocc",
				"energy": -0.00931,
				"method": "rhf"
			},
			{
				"type": "unocc",
				"energy": -0.00338,
				"method": "rhf"
			},
			{
				"type": "unocc",
				"energy": 0.02329,
				"method": "rhf"
			},
			{
				"type": "unocc",
				"energy": 0.04082,
				"method": "rhf"
			}
		],
		"cosmo_sigma_profile": { 
			"-0.025": 0.0,
			"-0.024": 0.0,
			"-0.023": 0.0,
			"-0.022": 0.0,
			"-0.021": 0.0,
			"-0.02": 0.0,
			"-0.019": 0.0,
			"-0.018": 0.799912722411,
			"-0.017": 0.927447645058,
			"-0.016": 0.93769807511,
			"-0.015": 0.492601344901,
			"-0.014": 0.913738369407,
			"-0.013": 0.646930146916,
			"-0.012": 0.787380020853,
			"-0.011": 0.692800172643,
			"-0.01": 1.29895219415,
			"-0.009": 1.71295149055,
			"-0.008": 2.00953987335,
			"-0.007": 8.20177186481,
			"-0.006": 22.133300236,
			"-0.005": 24.9514631424,
			"-0.004": 24.7132240737,
			"-0.003": 22.4117823496,
			"-0.002": 18.0245435651,
			"-0.001": 15.3539135012,
			"0.0": 15.0802173025,
			"0.001": 15.0930124143,
			"0.002": 15.3380237218,
			"0.003": 18.6686330401,
			"0.004": 29.4649323442,
			"0.005": 21.3087797999,
			"0.006": 9.59029931739,
			"0.007": 5.41066858486,
			"0.008": 4.82911487101,
			"0.009": 3.42055604354,
			"0.01": 2.42633577484,
			"0.011": 4.99924299364,
			"0.012": 3.46351277925,
			"0.013": 0.219880320859,
			"0.014": 1.06013366396,
			"0.015": 0.495456861369,
			"0.016": 0.359084092116,
			"0.017": 0.773989155924,
			"0.018": 0.515629431473,
			"0.019": 0.101517593927,
			"0.02": 0.0,
			"0.021": 0.0,
			"0.022": 0.0,
			"0.023": 0.0,
			"0.024": 0.0,
			"0.025": 0.0
		}
	}
}
