{
	 "smiles": "ClC1=NC=C(C=C1)C#N", 
	 "Tm": 390.65, 
	 "num_atms": 12, 
	 "gaussian": { 
		 "optdone": 1, 
		 "sigma_profile": "yes", 
		 "theory": "DFT", 
		 "functional": "B3LYP", 
		 "basiset": "6-31G**", 
		 "properties": { 
			 "R2extent": 1746.317, 
			 "electric_dipole_moment_norm": 2.60809013648, 
			 "electric_quadrupole_moment_norm": 15.5314374055, 
			 "total_energy": -800.115459202, 
			 "HOMO_LUMO_gap": 0.2025, 
			 "cosmo_polarized_energy": -10.04, 
			 "cosmo_cavitation_energy": 19.9, 
			 "cosmo_dispersion_energy": -14.41, 
			 "cosmo_repulsion_energy": 1.19, 
			 "cosmo_total_nonelectrostatic_energy": 6.68, 
			 "SMD_solvation_energy": 3.32 
		},
		"coords": [
			{
				"x": -0.3080617685,
				"y": -2.0784315365,
				"z": -1.4838646255,
				"element": "Cl" 
			},
			{
				"x": -0.4551762744,
				"y": -0.5502838214,
				"z": -0.6374520971,
				"element": "C" 
			},
			{
				"x": -1.1670066503,
				"y": 0.3926749714,
				"z": -1.2323620056,
				"element": "N" 
			},
			{
				"x": -1.2918625034,
				"y": 1.5641102749,
				"z": -0.6051377307,
				"element": "C" 
			},
			{
				"x": -0.7056473601,
				"y": 1.8299808773,
				"z": 0.642799051,
				"element": "C" 
			},
			{
				"x": 0.0457309114,
				"y": 0.8107212488,
				"z": 1.2533547427,
				"element": "C" 
			},
			{
				"x": 0.1772196545,
				"y": -0.4080522264,
				"z": 0.6036648152,
				"element": "C" 
			},
			{
				"x": -0.8746307413,
				"y": 3.1064596184,
				"z": 1.2670388389,
				"element": "C" 
			},
			{
				"x": -1.0131811159,
				"y": 4.1445812506,
				"z": 1.7727165129,
				"element": "N" 
			},
			{
				"x": -1.88004232,
				"y": 2.3269080684,
				"z": -1.1085732165,
				"element": "H" 
			},
			{
				"x": 0.5134769551,
				"y": 0.9795330618,
				"z": 2.2175674705,
				"element": "H" 
			},
			{
				"x": 0.745681213,
				"y": -1.2237017874,
				"z": 1.0332482443,
				"element": "H" 
			}
		],
		 "valence_orbital": [ 
			{
				"type": "occ",
				"energy": -0.3468,
				"method": "rhf"
			},
			{
				"type": "occ",
				"energy": -0.33421,
				"method": "rhf"
			},
			{
				"type": "occ",
				"energy": -0.32519,
				"method": "rhf"
			},
			{
				"type": "occ",
				"energy": -0.30012,
				"method": "rhf"
			},
			{
				"type": "occ",
				"energy": -0.28007,
				"method": "rhf"
			},
			{
				"type": "unocc",
				"energy": -0.07757,
				"method": "rhf"
			},
			{
				"type": "unocc",
				"energy": -0.06168,
				"method": "rhf"
			},
			{
				"type": "unocc",
				"energy": 0.01205,
				"method": "rhf"
			},
			{
				"type": "unocc",
				"energy": 0.01901,
				"method": "rhf"
			},
			{
				"type": "unocc",
				"energy": 0.04919,
				"method": "rhf"
			}
		],
		"cosmo_sigma_profile": { 
			"-0.025": 0.0,
			"-0.024": 0.0,
			"-0.023": 0.0,
			"-0.022": 0.0,
			"-0.021": 0.0,
			"-0.02": 0.0,
			"-0.019": 0.0,
			"-0.018": 0.0,
			"-0.017": 0.0,
			"-0.016": 0.0,
			"-0.015": 0.0,
			"-0.014": 0.0,
			"-0.013": 0.0,
			"-0.012": 0.0,
			"-0.011": 0.0265417976772,
			"-0.01": 2.55745911936,
			"-0.009": 7.45549481101,
			"-0.008": 7.75309334121,
			"-0.007": 5.00514630705,
			"-0.006": 5.60538062806,
			"-0.005": 4.96641586444,
			"-0.004": 8.18080170518,
			"-0.003": 16.4644217173,
			"-0.002": 16.9421689482,
			"-0.001": 12.2719600679,
			"0.0": 7.31260453562,
			"0.001": 7.55766769424,
			"0.002": 9.40770815356,
			"0.003": 10.647427797,
			"0.004": 8.7530039877,
			"0.005": 5.43641006758,
			"0.006": 3.66935027396,
			"0.007": 4.94477222656,
			"0.008": 4.40721295101,
			"0.009": 4.20613985301,
			"0.01": 3.91150582405,
			"0.011": 3.31515855354,
			"0.012": 2.91538317801,
			"0.013": 0.912480718311,
			"0.014": 0.0688610874802,
			"0.015": 0.0,
			"0.016": 0.0,
			"0.017": 0.0,
			"0.018": 0.0,
			"0.019": 0.0,
			"0.02": 0.0,
			"0.021": 0.0,
			"0.022": 0.0,
			"0.023": 0.0,
			"0.024": 0.0,
			"0.025": 0.0
		}
	}
}
