{
	 "smiles": "COC1=CC=C(C=C1)N1C=CN=C1", 
	 "Tm": 339.15, 
	 "num_atms": 23, 
	 "gaussian": { 
		 "optdone": 1, 
		 "sigma_profile": "yes", 
		 "theory": "DFT", 
		 "functional": "B3LYP", 
		 "basiset": "6-31G**", 
		 "properties": { 
			 "R2extent": 3871.7721, 
			 "electric_dipole_moment_norm": 5.0610706397, 
			 "electric_quadrupole_moment_norm": 20.6962107459, 
			 "total_energy": -571.793358607, 
			 "HOMO_LUMO_gap": 0.1977, 
			 "cosmo_polarized_energy": -11.85, 
			 "cosmo_cavitation_energy": 27.2, 
			 "cosmo_dispersion_energy": -20.0, 
			 "cosmo_repulsion_energy": 1.55, 
			 "cosmo_total_nonelectrostatic_energy": 8.75, 
			 "SMD_solvation_energy": 4.58 
		},
		"coords": [
			{
				"x": -1.5971598255,
				"y": -3.1423250332,
				"z": 2.236721107,
				"element": "C" 
			},
			{
				"x": -0.3565495767,
				"y": -2.4682483912,
				"z": 2.0906998445,
				"element": "O" 
			},
			{
				"x": -0.3719166062,
				"y": -1.165996052,
				"z": 1.6886810913,
				"element": "C" 
			},
			{
				"x": 0.8843352963,
				"y": -0.5547583002,
				"z": 1.5547238537,
				"element": "C" 
			},
			{
				"x": 0.9826640743,
				"y": 0.7657890403,
				"z": 1.1395616535,
				"element": "C" 
			},
			{
				"x": -0.1755002326,
				"y": 1.5095282295,
				"z": 0.8714954033,
				"element": "C" 
			},
			{
				"x": -1.4252294208,
				"y": 0.9053461965,
				"z": 1.0130998223,
				"element": "C" 
			},
			{
				"x": -1.5295956682,
				"y": -0.4296504772,
				"z": 1.4091856559,
				"element": "C" 
			},
			{
				"x": -0.0732658461,
				"y": 2.8675394493,
				"z": 0.4636085424,
				"element": "N" 
			},
			{
				"x": -0.8130716055,
				"y": 3.5033125723,
				"z": -0.5217505677,
				"element": "C" 
			},
			{
				"x": -0.3676505532,
				"y": 4.8003166118,
				"z": -0.5399300137,
				"element": "C" 
			},
			{
				"x": 0.6156847974,
				"y": 4.9930543453,
				"z": 0.4055031869,
				"element": "N" 
			},
			{
				"x": 0.7675591619,
				"y": 3.8234266545,
				"z": 0.9846527107,
				"element": "C" 
			},
			{
				"x": -2.2284424792,
				"y": -2.6676870147,
				"z": 2.9988837633,
				"element": "H" 
			},
			{
				"x": -2.1486505299,
				"y": -3.1848013146,
				"z": 1.2886721978,
				"element": "H" 
			},
			{
				"x": -1.3530001687,
				"y": -4.156736387,
				"z": 2.5550275526,
				"element": "H" 
			},
			{
				"x": 1.7715287278,
				"y": -1.1425394372,
				"z": 1.7648629331,
				"element": "H" 
			},
			{
				"x": 1.9580538905,
				"y": 1.221609041,
				"z": 1.003639896,
				"element": "H" 
			},
			{
				"x": -2.3248985794,
				"y": 1.4839616623,
				"z": 0.829685542,
				"element": "H" 
			},
			{
				"x": -2.5125254381,
				"y": -0.8735793821,
				"z": 1.5099361723,
				"element": "H" 
			},
			{
				"x": -1.5338398508,
				"y": 2.968393993,
				"z": -1.1199920848,
				"element": "H" 
			},
			{
				"x": -0.696485581,
				"y": 5.6045299508,
				"z": -1.1837512693,
				"element": "H" 
			},
			{
				"x": 1.4393560138,
				"y": 3.5999140431,
				"z": 1.8018830067,
				"element": "H" 
			}
		],
		 "valence_orbital": [ 
			{
				"type": "occ",
				"energy": -0.27974,
				"method": "rhf"
			},
			{
				"type": "occ",
				"energy": -0.26704,
				"method": "rhf"
			},
			{
				"type": "occ",
				"energy": -0.26017,
				"method": "rhf"
			},
			{
				"type": "occ",
				"energy": -0.22877,
				"method": "rhf"
			},
			{
				"type": "occ",
				"energy": -0.21595,
				"method": "rhf"
			},
			{
				"type": "unocc",
				"energy": -0.01825,
				"method": "rhf"
			},
			{
				"type": "unocc",
				"energy": -0.01043,
				"method": "rhf"
			},
			{
				"type": "unocc",
				"energy": 0.04307,
				"method": "rhf"
			},
			{
				"type": "unocc",
				"energy": 0.06962,
				"method": "rhf"
			},
			{
				"type": "unocc",
				"energy": 0.08509,
				"method": "rhf"
			}
		],
		"cosmo_sigma_profile": { 
			"-0.025": 0.0,
			"-0.024": 0.0,
			"-0.023": 0.0,
			"-0.022": 0.0,
			"-0.021": 0.0,
			"-0.02": 0.0,
			"-0.019": 0.0,
			"-0.018": 0.0,
			"-0.017": 0.0,
			"-0.016": 0.0,
			"-0.015": 0.0,
			"-0.014": 0.0,
			"-0.013": 0.0,
			"-0.012": 0.0,
			"-0.011": 0.0,
			"-0.01": 0.0,
			"-0.009": 0.723005307088,
			"-0.008": 3.32358930447,
			"-0.007": 8.95293177022,
			"-0.006": 18.9275897113,
			"-0.005": 19.9256158196,
			"-0.004": 18.5785613337,
			"-0.003": 17.9703971106,
			"-0.002": 11.8083718524,
			"-0.001": 10.9477942455,
			"0.0": 10.9711390287,
			"0.001": 13.4270267198,
			"0.002": 13.10993506,
			"0.003": 16.4322471934,
			"0.004": 16.8449695672,
			"0.005": 9.35801102635,
			"0.006": 6.00768153747,
			"0.007": 2.29593128337,
			"0.008": 2.75670995631,
			"0.009": 3.66856254307,
			"0.01": 2.92296524844,
			"0.011": 1.24734996337,
			"0.012": 1.08175574864,
			"0.013": 1.06223186549,
			"0.014": 1.48979001429,
			"0.015": 1.23904579239,
			"0.016": 0.893778873181,
			"0.017": 1.24415757376,
			"0.018": 0.710280892271,
			"0.019": 0.0472639506078,
			"0.02": 0.0,
			"0.021": 0.0,
			"0.022": 0.0,
			"0.023": 0.0,
			"0.024": 0.0,
			"0.025": 0.0
		}
	}
}
