{
	 "smiles": "CCC1=C(SC(N)=N1)C(=O)OC", 
	 "Tm": 455.15, 
	 "num_atms": 22, 
	 "gaussian": { 
		 "optdone": 1, 
		 "sigma_profile": "yes", 
		 "theory": "DFT", 
		 "functional": "B3LYP", 
		 "basiset": "6-31G**", 
		 "properties": { 
			 "R2extent": 3575.2021, 
			 "electric_dipole_moment_norm": 2.32639549733, 
			 "electric_quadrupole_moment_norm": 21.2287885926, 
			 "total_energy": -930.924952821, 
			 "HOMO_LUMO_gap": 0.17418, 
			 "cosmo_polarized_energy": -13.8, 
			 "cosmo_cavitation_energy": 27.67, 
			 "cosmo_dispersion_energy": -20.66, 
			 "cosmo_repulsion_energy": 1.65, 
			 "cosmo_total_nonelectrostatic_energy": 8.65, 
			 "SMD_solvation_energy": 4.94 
		},
		"coords": [
			{
				"x": -1.7089247363,
				"y": -1.8589791965,
				"z": 0.5353006472,
				"element": "C" 
			},
			{
				"x": -1.3639493481,
				"y": -1.1386368365,
				"z": -0.7704127351,
				"element": "C" 
			},
			{
				"x": 0.0617868657,
				"y": -0.6402428679,
				"z": -0.8468519465,
				"element": "C" 
			},
			{
				"x": 0.6319096258,
				"y": 0.0249860212,
				"z": -1.9176579577,
				"element": "C" 
			},
			{
				"x": 2.3123328226,
				"y": 0.4169999877,
				"z": -1.557847373,
				"element": "S" 
			},
			{
				"x": 2.0925980915,
				"y": -0.3617628899,
				"z": -0.0035739073,
				"element": "C" 
			},
			{
				"x": 3.0892084666,
				"y": -0.3991771796,
				"z": 0.9309651815,
				"element": "N" 
			},
			{
				"x": 0.896021817,
				"y": -0.8539015486,
				"z": 0.2206447934,
				"element": "N" 
			},
			{
				"x": 0.1216185688,
				"y": 0.4343359431,
				"z": -3.2196149579,
				"element": "C" 
			},
			{
				"x": 0.783221078,
				"y": 1.0186829312,
				"z": -4.0622037939,
				"element": "O" 
			},
			{
				"x": -1.1814754643,
				"y": 0.096696981,
				"z": -3.4042055438,
				"element": "O" 
			},
			{
				"x": -1.7285667043,
				"y": 0.4817110627,
				"z": -4.6743489492,
				"element": "C" 
			},
			{
				"x": -1.5689332999,
				"y": -1.2056865263,
				"z": 1.4004138071,
				"element": "H" 
			},
			{
				"x": -2.7532495752,
				"y": -2.1863413726,
				"z": 0.5151702112,
				"element": "H" 
			},
			{
				"x": -1.075739557,
				"y": -2.7373658465,
				"z": 0.6858249298,
				"element": "H" 
			},
			{
				"x": -1.5490063175,
				"y": -1.7951767919,
				"z": -1.6282627045,
				"element": "H" 
			},
			{
				"x": -2.0367694001,
				"y": -0.2867952553,
				"z": -0.9235556103,
				"element": "H" 
			},
			{
				"x": 4.0465833189,
				"y": -0.334563438,
				"z": 0.6208683362,
				"element": "H" 
			},
			{
				"x": 2.9176324668,
				"y": -1.0316068259,
				"z": 1.7002401935,
				"element": "H" 
			},
			{
				"x": -1.1808282735,
				"y": 0.0065437446,
				"z": -5.4921179796,
				"element": "H" 
			},
			{
				"x": -2.7650414534,
				"y": 0.1438449528,
				"z": -4.660989847,
				"element": "H" 
			},
			{
				"x": -1.6802289922,
				"y": 1.5658349513,
				"z": -4.8040847941,
				"element": "H" 
			}
		],
		 "valence_orbital": [ 
			{
				"type": "occ",
				"energy": -0.29389,
				"method": "rhf"
			},
			{
				"type": "occ",
				"energy": -0.28852,
				"method": "rhf"
			},
			{
				"type": "occ",
				"energy": -0.27546,
				"method": "rhf"
			},
			{
				"type": "occ",
				"energy": -0.25866,
				"method": "rhf"
			},
			{
				"type": "occ",
				"energy": -0.21339,
				"method": "rhf"
			},
			{
				"type": "unocc",
				"energy": -0.03921,
				"method": "rhf"
			},
			{
				"type": "unocc",
				"energy": 0.01049,
				"method": "rhf"
			},
			{
				"type": "unocc",
				"energy": 0.03576,
				"method": "rhf"
			},
			{
				"type": "unocc",
				"energy": 0.07004,
				"method": "rhf"
			},
			{
				"type": "unocc",
				"energy": 0.09871,
				"method": "rhf"
			}
		],
		"cosmo_sigma_profile": { 
			"-0.025": 0.0,
			"-0.024": 0.0,
			"-0.023": 0.0,
			"-0.022": 0.0,
			"-0.021": 0.0,
			"-0.02": 0.0,
			"-0.019": 0.0,
			"-0.018": 0.0,
			"-0.017": 0.0,
			"-0.016": 0.273439438701,
			"-0.015": 1.58600459722,
			"-0.014": 2.83667750133,
			"-0.013": 2.51754589038,
			"-0.012": 2.38325148077,
			"-0.011": 2.80942156461,
			"-0.01": 1.93948936113,
			"-0.009": 1.7928578648,
			"-0.008": 1.94598941618,
			"-0.007": 1.65324964626,
			"-0.006": 4.89439966089,
			"-0.005": 8.81785551004,
			"-0.004": 11.6312871642,
			"-0.003": 16.6248663481,
			"-0.002": 18.1143660337,
			"-0.001": 20.0879521542,
			"0.0": 20.2107841098,
			"0.001": 21.653290718,
			"0.002": 17.9992156529,
			"0.003": 13.8627237497,
			"0.004": 11.9040480482,
			"0.005": 5.12008736107,
			"0.006": 5.76154435104,
			"0.007": 3.83708758341,
			"0.008": 2.43801985975,
			"0.009": 3.91874398796,
			"0.01": 2.96155185686,
			"0.011": 3.09568708584,
			"0.012": 5.10967622379,
			"0.013": 2.8091297262,
			"0.014": 0.0,
			"0.015": 0.0,
			"0.016": 0.0,
			"0.017": 0.0,
			"0.018": 0.0,
			"0.019": 0.0,
			"0.02": 0.0,
			"0.021": 0.0,
			"0.022": 0.0,
			"0.023": 0.0,
			"0.024": 0.0,
			"0.025": 0.0
		}
	}
}
