{
	 "smiles": "NC(=O)N(CCO)N=CC1=CC=C(O1)N(=O)=O", 
	 "Tm": 487.15, 
	 "num_atms": 27, 
	 "gaussian": { 
		 "optdone": 1, 
		 "sigma_profile": "yes", 
		 "theory": "DFT", 
		 "functional": "B3LYP", 
		 "basiset": "6-31G**", 
		 "properties": { 
			 "R2extent": 6468.6637, 
			 "electric_dipole_moment_norm": 3.74969775582, 
			 "electric_quadrupole_moment_norm": 38.0953572833, 
			 "total_energy": -905.846038341, 
			 "HOMO_LUMO_gap": 0.13105, 
			 "cosmo_polarized_energy": -24.88, 
			 "cosmo_cavitation_energy": 34.04, 
			 "cosmo_dispersion_energy": -24.02, 
			 "cosmo_repulsion_energy": 1.91, 
			 "cosmo_total_nonelectrostatic_energy": 11.93, 
			 "SMD_solvation_energy": 9.38 
		},
		"coords": [
			{
				"x": 1.3907956949,
				"y": -1.6235417757,
				"z": -2.5781070399,
				"element": "N" 
			},
			{
				"x": 0.1631013333,
				"y": -2.1497145826,
				"z": -2.336318172,
				"element": "C" 
			},
			{
				"x": -0.3410799957,
				"y": -3.0683393489,
				"z": -2.9637028952,
				"element": "O" 
			},
			{
				"x": -0.5493845261,
				"y": -1.534938302,
				"z": -1.2673321019,
				"element": "N" 
			},
			{
				"x": -1.9022408432,
				"y": -2.0138454337,
				"z": -0.9752725223,
				"element": "C" 
			},
			{
				"x": -1.9383974817,
				"y": -3.08155908,
				"z": 0.1321017469,
				"element": "C" 
			},
			{
				"x": -3.2634051361,
				"y": -3.5185299693,
				"z": 0.3758451259,
				"element": "O" 
			},
			{
				"x": 0.0850693085,
				"y": -0.5686268273,
				"z": -0.5811147504,
				"element": "N" 
			},
			{
				"x": -0.4682326393,
				"y": 0.0181728077,
				"z": 0.4287810006,
				"element": "C" 
			},
			{
				"x": 0.2418812226,
				"y": 1.0676651321,
				"z": 1.1186244631,
				"element": "C" 
			},
			{
				"x": 1.4675457016,
				"y": 1.6849623625,
				"z": 0.956694951,
				"element": "C" 
			},
			{
				"x": 1.5724211541,
				"y": 2.6535899215,
				"z": 1.9837222361,
				"element": "C" 
			},
			{
				"x": 0.4055187324,
				"y": 2.5587845602,
				"z": 2.6956790247,
				"element": "C" 
			},
			{
				"x": -0.4123296488,
				"y": 1.6063075675,
				"z": 2.1896113361,
				"element": "O" 
			},
			{
				"x": -0.0486999048,
				"y": 3.283554226,
				"z": 3.8344352284,
				"element": "N" 
			},
			{
				"x": 0.725963929,
				"y": 4.1438890464,
				"z": 4.2679770804,
				"element": "O" 
			},
			{
				"x": -1.1567678278,
				"y": 3.005256553,
				"z": 4.2938503817,
				"element": "O" 
			},
			{
				"x": 1.957364653,
				"y": -2.0916704783,
				"z": -3.2647745213,
				"element": "H" 
			},
			{
				"x": 1.7752289344,
				"y": -0.9209877209,
				"z": -1.9687431007,
				"element": "H" 
			},
			{
				"x": -2.2882360683,
				"y": -2.4473769058,
				"z": -1.8968151575,
				"element": "H" 
			},
			{
				"x": -2.5275332267,
				"y": -1.1518686209,
				"z": -0.7127340605,
				"element": "H" 
			},
			{
				"x": -1.3804258319,
				"y": -3.955821109,
				"z": -0.2136754823,
				"element": "H" 
			},
			{
				"x": -1.4491749714,
				"y": -2.7166993079,
				"z": 1.0478307201,
				"element": "H" 
			},
			{
				"x": -3.7350028254,
				"y": -2.8206404923,
				"z": 0.8483534229,
				"element": "H" 
			},
			{
				"x": -1.4570328875,
				"y": -0.2204165727,
				"z": 0.8181552227,
				"element": "H" 
			},
			{
				"x": 2.1909631903,
				"y": 1.4607190254,
				"z": 0.1879143031,
				"element": "H" 
			},
			{
				"x": 2.3819899607,
				"y": 3.3365753248,
				"z": 2.1885135604,
				"element": "H" 
			}
		],
		 "valence_orbital": [ 
			{
				"type": "occ",
				"energy": -0.29398,
				"method": "rhf"
			},
			{
				"type": "occ",
				"energy": -0.28674,
				"method": "rhf"
			},
			{
				"type": "occ",
				"energy": -0.28182,
				"method": "rhf"
			},
			{
				"type": "occ",
				"energy": -0.27991,
				"method": "rhf"
			},
			{
				"type": "occ",
				"energy": -0.23263,
				"method": "rhf"
			},
			{
				"type": "unocc",
				"energy": -0.10158,
				"method": "rhf"
			},
			{
				"type": "unocc",
				"energy": -0.05405,
				"method": "rhf"
			},
			{
				"type": "unocc",
				"energy": 0.03263,
				"method": "rhf"
			},
			{
				"type": "unocc",
				"energy": 0.04307,
				"method": "rhf"
			},
			{
				"type": "unocc",
				"energy": 0.05051,
				"method": "rhf"
			}
		],
		"cosmo_sigma_profile": { 
			"-0.025": 0.0,
			"-0.024": 0.0,
			"-0.023": 0.0,
			"-0.022": 0.0,
			"-0.021": 0.0,
			"-0.02": 0.0,
			"-0.019": 0.0,
			"-0.018": 0.0,
			"-0.017": 0.0,
			"-0.016": 0.790991685444,
			"-0.015": 1.44991309395,
			"-0.014": 2.56778553231,
			"-0.013": 2.63596587136,
			"-0.012": 2.8667579189,
			"-0.011": 3.88743604111,
			"-0.01": 5.48897252742,
			"-0.009": 7.1297676714,
			"-0.008": 7.68291333695,
			"-0.007": 8.04841766485,
			"-0.006": 9.37725120915,
			"-0.005": 13.0735047268,
			"-0.004": 13.3802817999,
			"-0.003": 20.5734952129,
			"-0.002": 22.2643595994,
			"-0.001": 18.7689675325,
			"0.0": 19.0675120636,
			"0.001": 15.9405758708,
			"0.002": 10.4998212311,
			"0.003": 8.06126947886,
			"0.004": 7.81232216408,
			"0.005": 5.57938258465,
			"0.006": 6.30199963643,
			"0.007": 7.69978663068,
			"0.008": 15.2788604764,
			"0.009": 9.64061788891,
			"0.01": 6.78136233965,
			"0.011": 3.68971080335,
			"0.012": 3.99497731646,
			"0.013": 6.83046543808,
			"0.014": 3.66226400373,
			"0.015": 0.043262461868,
			"0.016": 0.0,
			"0.017": 0.0,
			"0.018": 0.0,
			"0.019": 0.0,
			"0.02": 0.0,
			"0.021": 0.0,
			"0.022": 0.0,
			"0.023": 0.0,
			"0.024": 0.0,
			"0.025": 0.0
		}
	}
}
