{
	 "smiles": "CC(C)(C)N(NC(=O)C1=CC=CC=C1)C(=O)C1=CC=CC=C1[N+]([O-])=O", 
	 "Tm": 455.15, 
	 "num_atms": 44, 
	 "gaussian": { 
		 "optdone": 1, 
		 "sigma_profile": "yes", 
		 "theory": "DFT", 
		 "functional": "B3LYP", 
		 "basiset": "6-31G**", 
		 "properties": { 
			 "R2extent": 7941.801, 
			 "electric_dipole_moment_norm": 4.61066914558, 
			 "electric_quadrupole_moment_norm": 15.9868294277, 
			 "total_energy": -1162.41953361, 
			 "HOMO_LUMO_gap": 0.15346, 
			 "cosmo_polarized_energy": -18.47, 
			 "cosmo_cavitation_energy": 47.35, 
			 "cosmo_dispersion_energy": -30.17, 
			 "cosmo_repulsion_energy": 2.28, 
			 "cosmo_total_nonelectrostatic_energy": 19.45, 
			 "SMD_solvation_energy": 10.96 
		},
		"coords": [
			{
				"x": 2.5405071174,
				"y": 0.4490340847,
				"z": -2.845890952,
				"element": "C" 
			},
			{
				"x": 2.533611611,
				"y": 1.091455617,
				"z": -1.4464109267,
				"element": "C" 
			},
			{
				"x": 1.9418240175,
				"y": 2.506059972,
				"z": -1.5222993571,
				"element": "C" 
			},
			{
				"x": 3.9538502788,
				"y": 1.1787453354,
				"z": -0.8581832998,
				"element": "C" 
			},
			{
				"x": 1.6858249702,
				"y": 0.2569495545,
				"z": -0.5119364985,
				"element": "N" 
			},
			{
				"x": 0.4021561949,
				"y": 0.6684357318,
				"z": -0.199295286,
				"element": "N" 
			},
			{
				"x": 0.1361457145,
				"y": 1.3952987802,
				"z": 0.9416060819,
				"element": "C" 
			},
			{
				"x": 1.0261335478,
				"y": 1.8055445415,
				"z": 1.6756334978,
				"element": "O" 
			},
			{
				"x": -1.316377937,
				"y": 1.6727720717,
				"z": 1.2019727382,
				"element": "C" 
			},
			{
				"x": -1.6124845631,
				"y": 2.7390051709,
				"z": 2.0625458934,
				"element": "C" 
			},
			{
				"x": -2.9349069064,
				"y": 3.0607622519,
				"z": 2.3570565226,
				"element": "C" 
			},
			{
				"x": -3.9770602576,
				"y": 2.3119582153,
				"z": 1.8041979063,
				"element": "C" 
			},
			{
				"x": -3.6905866005,
				"y": 1.237066605,
				"z": 0.9606510661,
				"element": "C" 
			},
			{
				"x": -2.3667630323,
				"y": 0.9171119432,
				"z": 0.6592916152,
				"element": "C" 
			},
			{
				"x": 1.9890769977,
				"y": -1.0487270763,
				"z": -0.2134384472,
				"element": "C" 
			},
			{
				"x": 2.9665781848,
				"y": -1.6493502614,
				"z": -0.6342089767,
				"element": "O" 
			},
			{
				"x": 1.1017466966,
				"y": -1.7355605937,
				"z": 0.8138443667,
				"element": "C" 
			},
			{
				"x": 1.445264687,
				"y": -1.5959863685,
				"z": 2.1637397313,
				"element": "C" 
			},
			{
				"x": 0.8160666449,
				"y": -2.3613413908,
				"z": 3.1455117022,
				"element": "C" 
			},
			{
				"x": -0.1554480435,
				"y": -3.3031922866,
				"z": 2.7963032704,
				"element": "C" 
			},
			{
				"x": -0.5117807378,
				"y": -3.4630622755,
				"z": 1.4613461515,
				"element": "C" 
			},
			{
				"x": 0.1086604099,
				"y": -2.6707617193,
				"z": 0.4943588641,
				"element": "C" 
			},
			{
				"x": -0.3610240823,
				"y": -2.8060300923,
				"z": -0.8880140944,
				"element": "N" 
			},
			{
				"x": -0.2024934153,
				"y": -1.8381498772,
				"z": -1.6452587002,
				"element": "O" 
			},
			{
				"x": -0.9125344731,
				"y": -3.8516313407,
				"z": -1.2148844259,
				"element": "O" 
			},
			{
				"x": 3.1384642793,
				"y": 1.0604979207,
				"z": -3.5296094381,
				"element": "H" 
			},
			{
				"x": 1.5246727512,
				"y": 0.3846343376,
				"z": -3.2496791022,
				"element": "H" 
			},
			{
				"x": 2.9663258132,
				"y": -0.5546381103,
				"z": -2.8127350641,
				"element": "H" 
			},
			{
				"x": 0.9439794375,
				"y": 2.513787246,
				"z": -1.9687748979,
				"element": "H" 
			},
			{
				"x": 1.891936235,
				"y": 2.969020724,
				"z": -0.5339985079,
				"element": "H" 
			},
			{
				"x": 2.5942168781,
				"y": 3.1150367835,
				"z": -2.154668924,
				"element": "H" 
			},
			{
				"x": 4.5691655596,
				"y": 1.8264697605,
				"z": -1.4908676862,
				"element": "H" 
			},
			{
				"x": 4.4240233992,
				"y": 0.1967375217,
				"z": -0.8065692409,
				"element": "H" 
			},
			{
				"x": 3.9151723385,
				"y": 1.6101340906,
				"z": 0.1463638069,
				"element": "H" 
			},
			{
				"x": -0.3293803697,
				"y": 0.3195137573,
				"z": -0.8047345629,
				"element": "H" 
			},
			{
				"x": -0.7867741008,
				"y": 3.2983224334,
				"z": 2.4889344667,
				"element": "H" 
			},
			{
				"x": -3.1542398871,
				"y": 3.8934744587,
				"z": 3.0188185764,
				"element": "H" 
			},
			{
				"x": -5.0088544341,
				"y": 2.5608239423,
				"z": 2.034922551,
				"element": "H" 
			},
			{
				"x": -4.4967994747,
				"y": 0.6426465913,
				"z": 0.5412707251,
				"element": "H" 
			},
			{
				"x": -2.1680123703,
				"y": 0.0575886609,
				"z": 0.0256419596,
				"element": "H" 
			},
			{
				"x": 2.2060110191,
				"y": -0.8725221216,
				"z": 2.4365529359,
				"element": "H" 
			},
			{
				"x": 1.0916344107,
				"y": -2.2257275202,
				"z": 4.1868694087,
				"element": "H" 
			},
			{
				"x": -0.6388039094,
				"y": -3.9041763524,
				"z": 3.5595968388,
				"element": "H" 
			},
			{
				"x": -1.2662245995,
				"y": -4.175630717,
				"z": 1.1512277119,
				"element": "H" 
			}
		],
		 "valence_orbital": [ 
			{
				"type": "occ",
				"energy": -0.27189,
				"method": "rhf"
			},
			{
				"type": "occ",
				"energy": -0.26816,
				"method": "rhf"
			},
			{
				"type": "occ",
				"energy": -0.26053,
				"method": "rhf"
			},
			{
				"type": "occ",
				"energy": -0.25753,
				"method": "rhf"
			},
			{
				"type": "occ",
				"energy": -0.25146,
				"method": "rhf"
			},
			{
				"type": "unocc",
				"energy": -0.098,
				"method": "rhf"
			},
			{
				"type": "unocc",
				"energy": -0.04752,
				"method": "rhf"
			},
			{
				"type": "unocc",
				"energy": -0.03087,
				"method": "rhf"
			},
			{
				"type": "unocc",
				"energy": -0.01725,
				"method": "rhf"
			},
			{
				"type": "unocc",
				"energy": -0.0121,
				"method": "rhf"
			}
		],
		"cosmo_sigma_profile": { 
			"-0.025": 0.0,
			"-0.024": 0.0,
			"-0.023": 0.0,
			"-0.022": 0.0,
			"-0.021": 0.0,
			"-0.02": 0.0,
			"-0.019": 0.0,
			"-0.018": 0.0,
			"-0.017": 0.0,
			"-0.016": 0.0,
			"-0.015": 0.0,
			"-0.014": 0.0,
			"-0.013": 0.0,
			"-0.012": 0.396497275344,
			"-0.011": 0.542707827571,
			"-0.01": 0.805837343758,
			"-0.009": 2.2834930418,
			"-0.008": 5.58859428993,
			"-0.007": 15.6995563857,
			"-0.006": 21.1740606952,
			"-0.005": 20.8946308901,
			"-0.004": 27.0209067775,
			"-0.003": 25.4980628879,
			"-0.002": 26.5360438357,
			"-0.001": 32.5157788315,
			"0.0": 39.3514243132,
			"0.001": 36.9820768938,
			"0.002": 23.9463713974,
			"0.003": 19.1100843245,
			"0.004": 20.2966004037,
			"0.005": 8.91658384211,
			"0.006": 8.40904232018,
			"0.007": 8.80128816911,
			"0.008": 8.20551004997,
			"0.009": 6.29908265774,
			"0.01": 4.35405942097,
			"0.011": 3.13364381593,
			"0.012": 5.29331131832,
			"0.013": 3.92538849048,
			"0.014": 0.113361727513,
			"0.015": 0.0,
			"0.016": 0.0,
			"0.017": 0.0,
			"0.018": 0.0,
			"0.019": 0.0,
			"0.02": 0.0,
			"0.021": 0.0,
			"0.022": 0.0,
			"0.023": 0.0,
			"0.024": 0.0,
			"0.025": 0.0
		}
	}
}
