{
	 "smiles": "COC(=O)C1=C(C)NC(=O)C1CC(O)=O", 
	 "Tm": 434.15, 
	 "num_atms": 26, 
	 "gaussian": { 
		 "optdone": 1, 
		 "sigma_profile": "yes", 
		 "theory": "DFT", 
		 "functional": "B3LYP", 
		 "basiset": "6-31G**", 
		 "properties": { 
			 "R2extent": 4001.1591, 
			 "electric_dipole_moment_norm": 5.34024967019, 
			 "electric_quadrupole_moment_norm": 6.43307027165, 
			 "total_energy": -780.494231084, 
			 "HOMO_LUMO_gap": 0.18572, 
			 "cosmo_polarized_energy": -21.53, 
			 "cosmo_cavitation_energy": 30.77, 
			 "cosmo_dispersion_energy": -21.8, 
			 "cosmo_repulsion_energy": 1.75, 
			 "cosmo_total_nonelectrostatic_energy": 10.72, 
			 "SMD_solvation_energy": 8.58 
		},
		"coords": [
			{
				"x": -1.6303274533,
				"y": -3.6449341474,
				"z": -1.7165501236,
				"element": "C" 
			},
			{
				"x": -1.4576898513,
				"y": -2.4140228695,
				"z": -0.9969443216,
				"element": "O" 
			},
			{
				"x": -0.2551759234,
				"y": -1.804075285,
				"z": -1.1828920371,
				"element": "C" 
			},
			{
				"x": 0.6045590425,
				"y": -2.2775700966,
				"z": -1.9100045557,
				"element": "O" 
			},
			{
				"x": -0.0932546506,
				"y": -0.5513415721,
				"z": -0.4504327153,
				"element": "C" 
			},
			{
				"x": -0.9428694495,
				"y": 0.0746646712,
				"z": 0.4128769627,
				"element": "C" 
			},
			{
				"x": -2.3204789325,
				"y": -0.2552212879,
				"z": 0.8867276224,
				"element": "C" 
			},
			{
				"x": -0.336396404,
				"y": 1.2251549938,
				"z": 0.9161743801,
				"element": "N" 
			},
			{
				"x": 0.9264078698,
				"y": 1.4459013111,
				"z": 0.3692774967,
				"element": "C" 
			},
			{
				"x": 1.6101890044,
				"y": 2.4308271492,
				"z": 0.5560652488,
				"element": "O" 
			},
			{
				"x": 1.2087477228,
				"y": 0.225825475,
				"z": -0.5137426934,
				"element": "C" 
			},
			{
				"x": 1.7081327682,
				"y": 0.6412382443,
				"z": -1.9066983885,
				"element": "C" 
			},
			{
				"x": 3.1508510093,
				"y": 1.1005297862,
				"z": -1.8587443128,
				"element": "C" 
			},
			{
				"x": 3.4138438343,
				"y": 2.0318762817,
				"z": -2.8037085682,
				"element": "O" 
			},
			{
				"x": 3.9993269912,
				"y": 0.6655503986,
				"z": -1.1118231899,
				"element": "O" 
			},
			{
				"x": -2.6295879596,
				"y": -3.9968618838,
				"z": -1.4591866964,
				"element": "H" 
			},
			{
				"x": -1.5482265915,
				"y": -3.4788396969,
				"z": -2.7935906779,
				"element": "H" 
			},
			{
				"x": -0.8769742609,
				"y": -4.3775639289,
				"z": -1.4169003188,
				"element": "H" 
			},
			{
				"x": -2.3211180447,
				"y": -0.4025261598,
				"z": 1.9734990696,
				"element": "H" 
			},
			{
				"x": -2.6910811973,
				"y": -1.1564920494,
				"z": 0.4058695809,
				"element": "H" 
			},
			{
				"x": -3.0035046029,
				"y": 0.57538682,
				"z": 0.67043561,
				"element": "H" 
			},
			{
				"x": -0.7907202631,
				"y": 1.9032979673,
				"z": 1.511575719,
				"element": "H" 
			},
			{
				"x": 2.0226050947,
				"y": -0.343191055,
				"z": -0.0429733841,
				"element": "H" 
			},
			{
				"x": 1.6708132923,
				"y": -0.2398792806,
				"z": -2.5564111868,
				"element": "H" 
			},
			{
				"x": 1.082594468,
				"y": 1.4177015288,
				"z": -2.353980091,
				"element": "H" 
			},
			{
				"x": 4.3600344871,
				"y": 2.2388646856,
				"z": -2.7189184289,
				"element": "H" 
			}
		],
		 "valence_orbital": [ 
			{
				"type": "occ",
				"energy": -0.30261,
				"method": "rhf"
			},
			{
				"type": "occ",
				"energy": -0.27611,
				"method": "rhf"
			},
			{
				"type": "occ",
				"energy": -0.2697,
				"method": "rhf"
			},
			{
				"type": "occ",
				"energy": -0.26135,
				"method": "rhf"
			},
			{
				"type": "occ",
				"energy": -0.23224,
				"method": "rhf"
			},
			{
				"type": "unocc",
				"energy": -0.04652,
				"method": "rhf"
			},
			{
				"type": "unocc",
				"energy": 0.01019,
				"method": "rhf"
			},
			{
				"type": "unocc",
				"energy": 0.02761,
				"method": "rhf"
			},
			{
				"type": "unocc",
				"energy": 0.07388,
				"method": "rhf"
			},
			{
				"type": "unocc",
				"energy": 0.08128,
				"method": "rhf"
			}
		],
		"cosmo_sigma_profile": { 
			"-0.025": 0.0,
			"-0.024": 0.0,
			"-0.023": 0.0,
			"-0.022": 0.0,
			"-0.021": 0.0,
			"-0.02": 0.0,
			"-0.019": 0.0899060789895,
			"-0.018": 0.734461236421,
			"-0.017": 0.947898377605,
			"-0.016": 1.75063707843,
			"-0.015": 2.32973467072,
			"-0.014": 1.61238449305,
			"-0.013": 1.97916948304,
			"-0.012": 1.9000282455,
			"-0.011": 1.80226253046,
			"-0.01": 1.8260955329,
			"-0.009": 1.50111875003,
			"-0.008": 2.42102276672,
			"-0.007": 5.64599896868,
			"-0.006": 14.8520698899,
			"-0.005": 15.5650621533,
			"-0.004": 17.4364047395,
			"-0.003": 21.1071007399,
			"-0.002": 19.8991342509,
			"-0.001": 20.1377582443,
			"0.0": 13.9537769685,
			"0.001": 11.71298375,
			"0.002": 9.46429135153,
			"0.003": 7.63235716381,
			"0.004": 6.78784843581,
			"0.005": 6.14098357704,
			"0.006": 5.78788701298,
			"0.007": 5.89111242928,
			"0.008": 4.6544183633,
			"0.009": 6.89667355522,
			"0.01": 7.52222376659,
			"0.011": 8.68182566155,
			"0.012": 11.79255662,
			"0.013": 2.73504338303,
			"0.014": 0.0,
			"0.015": 0.0,
			"0.016": 0.0,
			"0.017": 0.0,
			"0.018": 0.0,
			"0.019": 0.0,
			"0.02": 0.0,
			"0.021": 0.0,
			"0.022": 0.0,
			"0.023": 0.0,
			"0.024": 0.0,
			"0.025": 0.0
		}
	}
}
