{
	 "smiles": "CC1=CC(C)=C(C(C)=C1)C1(C)CC(C1)C(=O)C1=CC2=C(O1)C=CC(Br)=C2", 
	 "Tm": 481.15, 
	 "num_atms": 49, 
	 "gaussian": { 
		 "optdone": 1, 
		 "sigma_profile": "yes", 
		 "theory": "DFT", 
		 "functional": "B3LYP", 
		 "basiset": "6-31G**", 
		 "properties": { 
			 "R2extent": 26814.2742, 
			 "electric_dipole_moment_norm": 2.24906712439, 
			 "electric_quadrupole_moment_norm": 5.71789513632, 
			 "total_energy": -3612.14270266, 
			 "HOMO_LUMO_gap": 0.14705, 
			 "cosmo_polarized_energy": -13.05, 
			 "cosmo_cavitation_energy": 52.04, 
			 "cosmo_dispersion_energy": -36.98, 
			 "cosmo_repulsion_energy": 2.75, 
			 "cosmo_total_nonelectrostatic_energy": 17.81, 
			 "SMD_solvation_energy": 7.94 
		},
		"coords": [
			{
				"x": -3.0823006681,
				"y": -4.7230939278,
				"z": 3.1932134557,
				"element": "C" 
			},
			{
				"x": -2.3632585732,
				"y": -3.6420294661,
				"z": 2.4221007371,
				"element": "C" 
			},
			{
				"x": -2.046580934,
				"y": -3.798391181,
				"z": 1.0734820264,
				"element": "C" 
			},
			{
				"x": -1.4162255806,
				"y": -2.7952087122,
				"z": 0.3270869128,
				"element": "C" 
			},
			{
				"x": -1.0747306427,
				"y": -3.1423381865,
				"z": -1.1113823748,
				"element": "C" 
			},
			{
				"x": -1.1007876825,
				"y": -1.5538039266,
				"z": 0.9361197799,
				"element": "C" 
			},
			{
				"x": -1.3428337345,
				"y": -1.4170441487,
				"z": 2.3266299696,
				"element": "C" 
			},
			{
				"x": -0.9171882483,
				"y": -0.2101341233,
				"z": 3.1447728129,
				"element": "C" 
			},
			{
				"x": -1.9751505983,
				"y": -2.4494369952,
				"z": 3.0305660155,
				"element": "C" 
			},
			{
				"x": -0.4367602579,
				"y": -0.4276456076,
				"z": 0.1319494083,
				"element": "C" 
			},
			{
				"x": 1.0976003994,
				"y": -0.576271715,
				"z": 0.1778553676,
				"element": "C" 
			},
			{
				"x": -0.8860262369,
				"y": 1.044966854,
				"z": 0.452706693,
				"element": "C" 
			},
			{
				"x": -1.0779863491,
				"y": 1.3330658295,
				"z": -1.0705717211,
				"element": "C" 
			},
			{
				"x": -0.9517583383,
				"y": -0.1806689131,
				"z": -1.3359995183,
				"element": "C" 
			},
			{
				"x": -0.0007865292,
				"y": 2.1999881826,
				"z": -1.6974295129,
				"element": "C" 
			},
			{
				"x": 0.9534059573,
				"y": 1.7502164385,
				"z": -2.3146666723,
				"element": "O" 
			},
			{
				"x": -0.1482350681,
				"y": 3.6595038749,
				"z": -1.5056086815,
				"element": "C" 
			},
			{
				"x": -1.1017076029,
				"y": 4.4146973653,
				"z": -0.8765720493,
				"element": "C" 
			},
			{
				"x": -0.695190159,
				"y": 5.7836351982,
				"z": -1.0152995701,
				"element": "C" 
			},
			{
				"x": 0.5116234377,
				"y": 5.7370981931,
				"z": -1.7427646364,
				"element": "C" 
			},
			{
				"x": 0.8435950889,
				"y": 4.4526201771,
				"z": -2.0390594482,
				"element": "O" 
			},
			{
				"x": 1.2360903312,
				"y": 6.8728721303,
				"z": -2.0923173183,
				"element": "C" 
			},
			{
				"x": 0.7153247914,
				"y": 8.0976370779,
				"z": -1.6869791181,
				"element": "C" 
			},
			{
				"x": -0.4898256911,
				"y": 8.1593307442,
				"z": -0.958915322,
				"element": "C" 
			},
			{
				"x": -1.1462447379,
				"y": 9.8787032039,
				"z": -0.4349370195,
				"element": "Br" 
			},
			{
				"x": -1.2115582835,
				"y": 7.027095357,
				"z": -0.6115307402,
				"element": "C" 
			},
			{
				"x": -2.8488469835,
				"y": -5.7179456355,
				"z": 2.8012272074,
				"element": "H" 
			},
			{
				"x": -4.1710087372,
				"y": -4.5982846633,
				"z": 3.1322564013,
				"element": "H" 
			},
			{
				"x": -2.8136581223,
				"y": -4.7051996492,
				"z": 4.2540176978,
				"element": "H" 
			},
			{
				"x": -2.2820705679,
				"y": -4.7397281829,
				"z": 0.580576698,
				"element": "H" 
			},
			{
				"x": -1.836302612,
				"y": -2.7971251003,
				"z": -1.819616157,
				"element": "H" 
			},
			{
				"x": -0.1207429218,
				"y": -2.7220024756,
				"z": -1.435145016,
				"element": "H" 
			},
			{
				"x": -1.007527887,
				"y": -4.2283493765,
				"z": -1.2214427716,
				"element": "H" 
			},
			{
				"x": -0.818322366,
				"y": -0.4946859057,
				"z": 4.1960648636,
				"element": "H" 
			},
			{
				"x": -1.6468593849,
				"y": 0.6066267963,
				"z": 3.1045611135,
				"element": "H" 
			},
			{
				"x": 0.0441941277,
				"y": 0.1993077749,
				"z": 2.8278671624,
				"element": "H" 
			},
			{
				"x": -2.1535208776,
				"y": -2.3166848688,
				"z": 4.0959772599,
				"element": "H" 
			},
			{
				"x": 1.403322093,
				"y": -1.5523971335,
				"z": -0.2119944798,
				"element": "H" 
			},
			{
				"x": 1.4670237233,
				"y": -0.5062406987,
				"z": 1.2064067604,
				"element": "H" 
			},
			{
				"x": 1.590988649,
				"y": 0.1921647846,
				"z": -0.4234323779,
				"element": "H" 
			},
			{
				"x": -0.1657112138,
				"y": 1.6746478764,
				"z": 0.9835221073,
				"element": "H" 
			},
			{
				"x": -1.8430639972,
				"y": 1.0914616596,
				"z": 0.974801436,
				"element": "H" 
			},
			{
				"x": -2.0539727222,
				"y": 1.7671057433,
				"z": -1.3117615505,
				"element": "H" 
			},
			{
				"x": -1.9294853551,
				"y": -0.6267832692,
				"z": -1.5224146215,
				"element": "H" 
			},
			{
				"x": -0.2642416161,
				"y": -0.4509040384,
				"z": -2.1402054797,
				"element": "H" 
			},
			{
				"x": -1.982454953,
				"y": 4.041135041,
				"z": -0.3749955334,
				"element": "H" 
			},
			{
				"x": 2.1612160171,
				"y": 6.8037484666,
				"z": -2.6531845397,
				"element": "H" 
			},
			{
				"x": 1.2358428513,
				"y": 9.0164182279,
				"z": -1.9299863907,
				"element": "H" 
			},
			{
				"x": -2.1359012334,
				"y": 7.1049509038,
				"z": -0.0512492658,
				"element": "H" 
			}
		],
		 "valence_orbital": [ 
			{
				"type": "occ",
				"energy": -0.25756,
				"method": "rhf"
			},
			{
				"type": "occ",
				"energy": -0.24526,
				"method": "rhf"
			},
			{
				"type": "occ",
				"energy": -0.24229,
				"method": "rhf"
			},
			{
				"type": "occ",
				"energy": -0.22897,
				"method": "rhf"
			},
			{
				"type": "occ",
				"energy": -0.22219,
				"method": "rhf"
			},
			{
				"type": "unocc",
				"energy": -0.07514,
				"method": "rhf"
			},
			{
				"type": "unocc",
				"energy": -0.01404,
				"method": "rhf"
			},
			{
				"type": "unocc",
				"energy": -0.00088,
				"method": "rhf"
			},
			{
				"type": "unocc",
				"energy": 0.00096,
				"method": "rhf"
			},
			{
				"type": "unocc",
				"energy": 0.00538,
				"method": "rhf"
			}
		],
		"cosmo_sigma_profile": { 
			"-0.025": 0.0,
			"-0.024": 0.0,
			"-0.023": 0.0,
			"-0.022": 0.0,
			"-0.021": 0.0,
			"-0.02": 0.0,
			"-0.019": 0.0,
			"-0.018": 0.0,
			"-0.017": 0.0,
			"-0.016": 0.0,
			"-0.015": 0.0,
			"-0.014": 0.0,
			"-0.013": 0.0,
			"-0.012": 0.0,
			"-0.011": 0.0,
			"-0.01": 0.000746047944821,
			"-0.009": 1.04160143597,
			"-0.008": 5.72671110588,
			"-0.007": 8.83584600199,
			"-0.006": 9.35524783432,
			"-0.005": 11.4073778594,
			"-0.004": 34.3875960338,
			"-0.003": 43.1342055688,
			"-0.002": 39.1525645904,
			"-0.001": 41.8506146682,
			"0.0": 51.7102449209,
			"0.001": 46.8177781126,
			"0.002": 35.3325032894,
			"0.003": 20.3197887821,
			"0.004": 16.9848401394,
			"0.005": 14.8812102562,
			"0.006": 8.0563865531,
			"0.007": 8.47515873309,
			"0.008": 3.78305435093,
			"0.009": 2.63997307959,
			"0.01": 2.55383310759,
			"0.011": 3.47825622594,
			"0.012": 3.98239643456,
			"0.013": 1.35635335327,
			"0.014": 0.0848851565961,
			"0.015": 0.0,
			"0.016": 0.0,
			"0.017": 0.0,
			"0.018": 0.0,
			"0.019": 0.0,
			"0.02": 0.0,
			"0.021": 0.0,
			"0.022": 0.0,
			"0.023": 0.0,
			"0.024": 0.0,
			"0.025": 0.0
		}
	}
}
