{
	 "smiles": "CC1N=C(S)N(C2CC2)C1=O", 
	 "Tm": 290.15, 
	 "num_atms": 21, 
	 "gaussian": { 
		 "optdone": 1, 
		 "sigma_profile": "yes", 
		 "theory": "DFT", 
		 "functional": "B3LYP", 
		 "basiset": "6-31G**", 
		 "properties": { 
			 "R2extent": 2316.7275, 
			 "electric_dipole_moment_norm": 1.85210857133, 
			 "electric_quadrupole_moment_norm": 7.10439126597, 
			 "total_energy": -855.658463713, 
			 "HOMO_LUMO_gap": 0.22639, 
			 "cosmo_polarized_energy": -10.51, 
			 "cosmo_cavitation_energy": 25.87, 
			 "cosmo_dispersion_energy": -19.09, 
			 "cosmo_repulsion_energy": 1.52, 
			 "cosmo_total_nonelectrostatic_energy": 8.3, 
			 "SMD_solvation_energy": 1.25 
		},
		"coords": [
			{
				"x": 3.5519878394,
				"y": 0.1088907957,
				"z": -1.5083694689,
				"element": "C" 
			},
			{
				"x": 2.6266250361,
				"y": -0.0137511366,
				"z": -0.2951233184,
				"element": "C" 
			},
			{
				"x": 1.5608651893,
				"y": 0.9993450398,
				"z": -0.289316525,
				"element": "N" 
			},
			{
				"x": 0.4598589415,
				"y": 0.352596411,
				"z": -0.2081142648,
				"element": "C" 
			},
			{
				"x": -1.1552161694,
				"y": 1.0882529329,
				"z": -0.1824495396,
				"element": "S" 
			},
			{
				"x": 0.5543774529,
				"y": -1.0473263242,
				"z": -0.1368181088,
				"element": "N" 
			},
			{
				"x": -0.5334488595,
				"y": -1.984533904,
				"z": -0.1651900676,
				"element": "C" 
			},
			{
				"x": -1.4601461474,
				"y": -2.0788390975,
				"z": 1.0312823358,
				"element": "C" 
			},
			{
				"x": -0.4736089642,
				"y": -3.1777540034,
				"z": 0.7499552121,
				"element": "C" 
			},
			{
				"x": 1.9159877497,
				"y": -1.3727476602,
				"z": -0.2391665135,
				"element": "C" 
			},
			{
				"x": 2.3885915429,
				"y": -2.4894221385,
				"z": -0.2775216327,
				"element": "O" 
			},
			{
				"x": 4.0609561582,
				"y": 1.0756014188,
				"z": -1.4963676195,
				"element": "H" 
			},
			{
				"x": 4.2953303453,
				"y": -0.6925764749,
				"z": -1.4888052166,
				"element": "H" 
			},
			{
				"x": 2.9807935798,
				"y": 0.0321243784,
				"z": -2.4381833112,
				"element": "H" 
			},
			{
				"x": 3.2221306146,
				"y": 0.0948977176,
				"z": 0.6223812355,
				"element": "H" 
			},
			{
				"x": -0.6575698691,
				"y": 2.3312118618,
				"z": -0.3274676791,
				"element": "H" 
			},
			{
				"x": -0.9700504586,
				"y": -2.129972908,
				"z": -1.1511372782,
				"element": "H" 
			},
			{
				"x": -2.5132577438,
				"y": -2.2471416618,
				"z": 0.8303639821,
				"element": "H" 
			},
			{
				"x": -1.2592499104,
				"y": -1.4192508746,
				"z": 1.8689490131,
				"element": "H" 
			},
			{
				"x": -0.8342205353,
				"y": -4.1198105462,
				"z": 0.3506894153,
				"element": "H" 
			},
			{
				"x": 0.396464208,
				"y": -3.2652938262,
				"z": 1.3893093499,
				"element": "H" 
			}
		],
		 "valence_orbital": [ 
			{
				"type": "occ",
				"energy": -0.31925,
				"method": "rhf"
			},
			{
				"type": "occ",
				"energy": -0.30062,
				"method": "rhf"
			},
			{
				"type": "occ",
				"energy": -0.27473,
				"method": "rhf"
			},
			{
				"type": "occ",
				"energy": -0.24616,
				"method": "rhf"
			},
			{
				"type": "occ",
				"energy": -0.23932,
				"method": "rhf"
			},
			{
				"type": "unocc",
				"energy": -0.01293,
				"method": "rhf"
			},
			{
				"type": "unocc",
				"energy": 0.00805,
				"method": "rhf"
			},
			{
				"type": "unocc",
				"energy": 0.03284,
				"method": "rhf"
			},
			{
				"type": "unocc",
				"energy": 0.06633,
				"method": "rhf"
			},
			{
				"type": "unocc",
				"energy": 0.09311,
				"method": "rhf"
			}
		],
		"cosmo_sigma_profile": { 
			"-0.025": 0.0,
			"-0.024": 0.0,
			"-0.023": 0.0,
			"-0.022": 0.0,
			"-0.021": 0.0,
			"-0.02": 0.0,
			"-0.019": 0.0,
			"-0.018": 0.0,
			"-0.017": 0.0,
			"-0.016": 0.0,
			"-0.015": 0.0,
			"-0.014": 0.0,
			"-0.013": 0.0,
			"-0.012": 0.692975032638,
			"-0.011": 1.51095650594,
			"-0.01": 1.31370748953,
			"-0.009": 1.02079377576,
			"-0.008": 1.31796824487,
			"-0.007": 4.87262571357,
			"-0.006": 10.5741437253,
			"-0.005": 16.9320307546,
			"-0.004": 20.4308625471,
			"-0.003": 20.6292335281,
			"-0.002": 16.2413549651,
			"-0.001": 17.5544245784,
			"0.0": 14.7609037086,
			"0.001": 12.4285268543,
			"0.002": 11.5417538643,
			"0.003": 10.580685743,
			"0.004": 6.3102629432,
			"0.005": 6.59474787471,
			"0.006": 5.10039428953,
			"0.007": 2.81654249804,
			"0.008": 2.79746090852,
			"0.009": 3.45858509327,
			"0.01": 3.06009326689,
			"0.011": 3.10926129408,
			"0.012": 6.18024559385,
			"0.013": 2.67361232854,
			"0.014": 0.618466028928,
			"0.015": 0.905801488923,
			"0.016": 0.587200326349,
			"0.017": 0.0,
			"0.018": 0.0,
			"0.019": 0.0,
			"0.02": 0.0,
			"0.021": 0.0,
			"0.022": 0.0,
			"0.023": 0.0,
			"0.024": 0.0,
			"0.025": 0.0
		}
	}
}
