{
	 "smiles": "CN1CCC(CC(O)=O)CC1", 
	 "Tm": 424.15, 
	 "num_atms": 26, 
	 "gaussian": { 
		 "optdone": 1, 
		 "sigma_profile": "yes", 
		 "theory": "DFT", 
		 "functional": "B3LYP", 
		 "basiset": "6-31G**", 
		 "properties": { 
			 "R2extent": 2546.7474, 
			 "electric_dipole_moment_norm": 1.67098004776, 
			 "electric_quadrupole_moment_norm": 6.14355803261, 
			 "total_energy": -519.097515736, 
			 "HOMO_LUMO_gap": 0.20521, 
			 "cosmo_polarized_energy": -9.52, 
			 "cosmo_cavitation_energy": 27.09, 
			 "cosmo_dispersion_energy": -19.64, 
			 "cosmo_repulsion_energy": 1.59, 
			 "cosmo_total_nonelectrostatic_energy": 9.04, 
			 "SMD_solvation_energy": 2.65 
		},
		"coords": [
			{
				"x": -1.7329032811,
				"y": 3.278749194,
				"z": 0.6663956909,
				"element": "C" 
			},
			{
				"x": -0.5074643844,
				"y": 2.5901328869,
				"z": 1.0345311302,
				"element": "N" 
			},
			{
				"x": -0.7779343343,
				"y": 1.4535143348,
				"z": 1.9209556174,
				"element": "C" 
			},
			{
				"x": 0.426814663,
				"y": 0.514256761,
				"z": 1.978932649,
				"element": "C" 
			},
			{
				"x": 0.6624543451,
				"y": -0.1710560134,
				"z": 0.6104160486,
				"element": "C" 
			},
			{
				"x": 2.1378078405,
				"y": -0.6319889484,
				"z": 0.4981127566,
				"element": "C" 
			},
			{
				"x": 2.3701029104,
				"y": -1.5046396857,
				"z": -0.7119118178,
				"element": "C" 
			},
			{
				"x": 2.0251562249,
				"y": -2.7964865837,
				"z": -0.4764746616,
				"element": "O" 
			},
			{
				"x": 2.7747745458,
				"y": -1.1314133142,
				"z": -1.792767573,
				"element": "O" 
			},
			{
				"x": 0.2446546102,
				"y": 0.7798059805,
				"z": -0.5447717138,
				"element": "C" 
			},
			{
				"x": 0.3596273881,
				"y": 2.2478747034,
				"z": -0.10947072,
				"element": "C" 
			},
			{
				"x": -2.2646487762,
				"y": 3.586353347,
				"z": 1.5741886771,
				"element": "H" 
			},
			{
				"x": -2.434038176,
				"y": 2.6640558119,
				"z": 0.0668711279,
				"element": "H" 
			},
			{
				"x": -1.5009092312,
				"y": 4.1839502254,
				"z": 0.0964648305,
				"element": "H" 
			},
			{
				"x": -1.0188950278,
				"y": 1.8358480377,
				"z": 2.9216255732,
				"element": "H" 
			},
			{
				"x": -1.6638701155,
				"y": 0.8731304294,
				"z": 1.5897416711,
				"element": "H" 
			},
			{
				"x": 0.281409236,
				"y": -0.2400634508,
				"z": 2.7598129129,
				"element": "H" 
			},
			{
				"x": 1.3099312445,
				"y": 1.0994773013,
				"z": 2.2660959318,
				"element": "H" 
			},
			{
				"x": 0.0344811004,
				"y": -1.0694166705,
				"z": 0.5665096838,
				"element": "H" 
			},
			{
				"x": 2.4125036915,
				"y": -1.1905879877,
				"z": 1.3988707233,
				"element": "H" 
			},
			{
				"x": 2.7950116393,
				"y": 0.2382257685,
				"z": 0.4112441184,
				"element": "H" 
			},
			{
				"x": 2.1676087374,
				"y": -3.2685432205,
				"z": -1.3143347338,
				"element": "H" 
			},
			{
				"x": 0.8581893325,
				"y": 0.601148439,
				"z": -1.4341041462,
				"element": "H" 
			},
			{
				"x": -0.7926765762,
				"y": 0.5733616987,
				"z": -0.8337461416,
				"element": "H" 
			},
			{
				"x": 0.1124941583,
				"y": 2.9115079836,
				"z": -0.943963186,
				"element": "H" 
			},
			{
				"x": 1.4059182348,
				"y": 2.4654029716,
				"z": 0.150875551,
				"element": "H" 
			}
		],
		 "valence_orbital": [ 
			{
				"type": "occ",
				"energy": -0.31903,
				"method": "rhf"
			},
			{
				"type": "occ",
				"energy": -0.314,
				"method": "rhf"
			},
			{
				"type": "occ",
				"energy": -0.3116,
				"method": "rhf"
			},
			{
				"type": "occ",
				"energy": -0.26972,
				"method": "rhf"
			},
			{
				"type": "occ",
				"energy": -0.1979,
				"method": "rhf"
			},
			{
				"type": "unocc",
				"energy": 0.00731,
				"method": "rhf"
			},
			{
				"type": "unocc",
				"energy": 0.06982,
				"method": "rhf"
			},
			{
				"type": "unocc",
				"energy": 0.08365,
				"method": "rhf"
			},
			{
				"type": "unocc",
				"energy": 0.10503,
				"method": "rhf"
			},
			{
				"type": "unocc",
				"energy": 0.11727,
				"method": "rhf"
			}
		],
		"cosmo_sigma_profile": { 
			"-0.025": 0.0,
			"-0.024": 0.0,
			"-0.023": 0.0,
			"-0.022": 0.0,
			"-0.021": 0.0,
			"-0.02": 0.0,
			"-0.019": 0.0,
			"-0.018": 0.487474931898,
			"-0.017": 1.18884295374,
			"-0.016": 0.475388154643,
			"-0.015": 1.03046319,
			"-0.014": 0.688987118647,
			"-0.013": 0.486251198069,
			"-0.012": 0.471796796958,
			"-0.011": 1.17782200542,
			"-0.01": 0.904255709351,
			"-0.009": 0.336007616194,
			"-0.008": 0.444248782116,
			"-0.007": 0.719516550773,
			"-0.006": 0.676028122331,
			"-0.005": 3.59049064704,
			"-0.004": 10.9880130712,
			"-0.003": 26.2325315687,
			"-0.002": 35.0360445594,
			"-0.001": 36.8005662762,
			"0.0": 28.4903564332,
			"0.001": 11.3319525036,
			"0.002": 5.94667732924,
			"0.003": 4.96816114856,
			"0.004": 3.30953958697,
			"0.005": 4.06354808998,
			"0.006": 3.89631310133,
			"0.007": 2.1047396778,
			"0.008": 3.9863646757,
			"0.009": 3.70465009088,
			"0.01": 2.78453668289,
			"0.011": 3.45735710772,
			"0.012": 5.52446201865,
			"0.013": 1.79485237894,
			"0.014": 0.438689690102,
			"0.015": 0.703167676309,
			"0.016": 0.21350399208,
			"0.017": 0.451349875447,
			"0.018": 0.0,
			"0.019": 0.0,
			"0.02": 0.0,
			"0.021": 0.0,
			"0.022": 0.0,
			"0.023": 0.0,
			"0.024": 0.0,
			"0.025": 0.0
		}
	}
}
