{
	 "smiles": "CC1=C2N=CN(CCC(O)=O)C(=O)C2=CC=C1", 
	 "Tm": 473.15, 
	 "num_atms": 29, 
	 "gaussian": { 
		 "optdone": 1, 
		 "sigma_profile": "yes", 
		 "theory": "DFT", 
		 "functional": "B3LYP", 
		 "basiset": "6-31G**", 
		 "properties": { 
			 "R2extent": 4923.5394, 
			 "electric_dipole_moment_norm": 2.23946544068, 
			 "electric_quadrupole_moment_norm": 23.0902051764, 
			 "total_energy": -799.730632123, 
			 "HOMO_LUMO_gap": 0.18558, 
			 "cosmo_polarized_energy": -19.81, 
			 "cosmo_cavitation_energy": 32.89, 
			 "cosmo_dispersion_energy": -23.79, 
			 "cosmo_repulsion_energy": 1.83, 
			 "cosmo_total_nonelectrostatic_energy": 10.93, 
			 "SMD_solvation_energy": 6.04 
		},
		"coords": [
			{
				"x": -1.0099128241,
				"y": 3.1181638026,
				"z": -0.6877283534,
				"element": "C" 
			},
			{
				"x": -1.3541542879,
				"y": 1.7409923508,
				"z": -0.182788477,
				"element": "C" 
			},
			{
				"x": -0.3360985782,
				"y": 0.7626394246,
				"z": -0.0337829915,
				"element": "C" 
			},
			{
				"x": 0.9672101473,
				"y": 1.1088100091,
				"z": -0.3637873617,
				"element": "N" 
			},
			{
				"x": 1.8788965065,
				"y": 0.2081458443,
				"z": -0.2175146686,
				"element": "C" 
			},
			{
				"x": 1.6697555482,
				"y": -1.0745465583,
				"z": 0.2467094477,
				"element": "N" 
			},
			{
				"x": 2.7872771751,
				"y": -2.010504248,
				"z": 0.4181835744,
				"element": "C" 
			},
			{
				"x": 2.8459645696,
				"y": -3.0716307481,
				"z": -0.6825110404,
				"element": "C" 
			},
			{
				"x": 3.2997749292,
				"y": -2.5026559395,
				"z": -2.0206332198,
				"element": "C" 
			},
			{
				"x": 3.140334374,
				"y": -3.319797732,
				"z": -3.090420863,
				"element": "O" 
			},
			{
				"x": 3.8022332662,
				"y": -1.4133993358,
				"z": -2.1593459079,
				"element": "O" 
			},
			{
				"x": 0.3840772186,
				"y": -1.5348898478,
				"z": 0.5904440621,
				"element": "C" 
			},
			{
				"x": 0.2230180169,
				"y": -2.6915920806,
				"z": 0.975803542,
				"element": "O" 
			},
			{
				"x": -0.6682493789,
				"y": -0.5285832734,
				"z": 0.4389544153,
				"element": "C" 
			},
			{
				"x": -1.995109475,
				"y": -0.8567631624,
				"z": 0.7644592275,
				"element": "C" 
			},
			{
				"x": -2.9838179215,
				"y": 0.1003277281,
				"z": 0.6193084287,
				"element": "C" 
			},
			{
				"x": -2.6570665445,
				"y": 1.3850596655,
				"z": 0.1486607727,
				"element": "C" 
			},
			{
				"x": -1.9028560679,
				"y": 3.7461514004,
				"z": -0.7475774995,
				"element": "H" 
			},
			{
				"x": -0.2817182736,
				"y": 3.6080283166,
				"z": -0.0335434501,
				"element": "H" 
			},
			{
				"x": -0.54835031,
				"y": 3.0707829843,
				"z": -1.6790512242,
				"element": "H" 
			},
			{
				"x": 2.9077651511,
				"y": 0.4307924154,
				"z": -0.4861254483,
				"element": "H" 
			},
			{
				"x": 3.7122181266,
				"y": -1.4318919629,
				"z": 0.4278301567,
				"element": "H" 
			},
			{
				"x": 2.6560379979,
				"y": -2.5029781343,
				"z": 1.3832669322,
				"element": "H" 
			},
			{
				"x": 3.5624362462,
				"y": -3.8519527658,
				"z": -0.3912772542,
				"element": "H" 
			},
			{
				"x": 1.8693269504,
				"y": -3.5597380415,
				"z": -0.7681531013,
				"element": "H" 
			},
			{
				"x": 2.7031177637,
				"y": -4.141640236,
				"z": -2.8248109028,
				"element": "H" 
			},
			{
				"x": -2.2085317238,
				"y": -1.8575485563,
				"z": 1.1239230116,
				"element": "H" 
			},
			{
				"x": -4.0145129749,
				"y": -0.1353776426,
				"z": 0.8668434276,
				"element": "H" 
			},
			{
				"x": -3.4457656271,
				"y": 2.1252963238,
				"z": 0.0390647652,
				"element": "H" 
			}
		],
		 "valence_orbital": [ 
			{
				"type": "occ",
				"energy": -0.28494,
				"method": "rhf"
			},
			{
				"type": "occ",
				"energy": -0.27125,
				"method": "rhf"
			},
			{
				"type": "occ",
				"energy": -0.26524,
				"method": "rhf"
			},
			{
				"type": "occ",
				"energy": -0.25253,
				"method": "rhf"
			},
			{
				"type": "occ",
				"energy": -0.22536,
				"method": "rhf"
			},
			{
				"type": "unocc",
				"energy": -0.03978,
				"method": "rhf"
			},
			{
				"type": "unocc",
				"energy": -0.03471,
				"method": "rhf"
			},
			{
				"type": "unocc",
				"energy": -0.00275,
				"method": "rhf"
			},
			{
				"type": "unocc",
				"energy": 0.03091,
				"method": "rhf"
			},
			{
				"type": "unocc",
				"energy": 0.04799,
				"method": "rhf"
			}
		],
		"cosmo_sigma_profile": { 
			"-0.025": 0.0,
			"-0.024": 0.0,
			"-0.023": 0.0,
			"-0.022": 0.0,
			"-0.021": 0.0,
			"-0.02": 0.139969105082,
			"-0.019": 0.82906411571,
			"-0.018": 0.951559687419,
			"-0.017": 1.03477663577,
			"-0.016": 1.4739575862,
			"-0.015": 1.14581541653,
			"-0.014": 0.772650712075,
			"-0.013": 1.49548760586,
			"-0.012": 0.874126163555,
			"-0.011": 1.68544001007,
			"-0.01": 1.21823915738,
			"-0.009": 2.54162894588,
			"-0.008": 6.13485442286,
			"-0.007": 7.79227692196,
			"-0.006": 15.0521069854,
			"-0.005": 15.8528156517,
			"-0.004": 18.797501154,
			"-0.003": 19.6788106852,
			"-0.002": 14.2327875287,
			"-0.001": 14.8605682102,
			"0.0": 18.2599101681,
			"0.001": 17.4148103377,
			"0.002": 16.9050952804,
			"0.003": 15.0485900997,
			"0.004": 14.5499211342,
			"0.005": 5.99394660126,
			"0.006": 4.99762974439,
			"0.007": 4.95564374832,
			"0.008": 5.19588123644,
			"0.009": 5.97170313539,
			"0.01": 7.52405282175,
			"0.011": 6.31133167888,
			"0.012": 5.87994164265,
			"0.013": 5.37100589875,
			"0.014": 0.620432828495,
			"0.015": 0.0,
			"0.016": 0.0,
			"0.017": 0.0,
			"0.018": 0.0,
			"0.019": 0.0,
			"0.02": 0.0,
			"0.021": 0.0,
			"0.022": 0.0,
			"0.023": 0.0,
			"0.024": 0.0,
			"0.025": 0.0
		}
	}
}
