{
	 "smiles": "CC1=C(SC(=C1)S(N)(=O)=O)C(O)=O", 
	 "Tm": 523.15, 
	 "num_atms": 20, 
	 "gaussian": { 
		 "optdone": 1, 
		 "sigma_profile": "yes", 
		 "theory": "DFT", 
		 "functional": "B3LYP", 
		 "basiset": "6-31G**", 
		 "properties": { 
			 "R2extent": 4228.7106, 
			 "electric_dipole_moment_norm": 4.43757957675, 
			 "electric_quadrupole_moment_norm": 22.3631120775, 
			 "total_energy": -1384.79406703, 
			 "HOMO_LUMO_gap": 0.18273, 
			 "cosmo_polarized_energy": -26.74, 
			 "cosmo_cavitation_energy": 27.89, 
			 "cosmo_dispersion_energy": -21.31, 
			 "cosmo_repulsion_energy": 1.6, 
			 "cosmo_total_nonelectrostatic_energy": 8.17, 
			 "SMD_solvation_energy": 5.34 
		},
		"coords": [
			{
				"x": -0.6374276088,
				"y": 1.8018672876,
				"z": 1.4001478489,
				"element": "C" 
			},
			{
				"x": -0.9313499161,
				"y": 0.6129356395,
				"z": 0.5275856748,
				"element": "C" 
			},
			{
				"x": -2.1705010882,
				"y": 0.2800467603,
				"z": 0.0039204814,
				"element": "C" 
			},
			{
				"x": -2.1004974195,
				"y": -1.1784884522,
				"z": -0.9624210292,
				"element": "S" 
			},
			{
				"x": -0.4042074343,
				"y": -1.3382745356,
				"z": -0.660535856,
				"element": "C" 
			},
			{
				"x": 0.0681598079,
				"y": -0.3264126037,
				"z": 0.1356855043,
				"element": "C" 
			},
			{
				"x": 0.5061353984,
				"y": -2.710998496,
				"z": -1.3659359612,
				"element": "S" 
			},
			{
				"x": 2.0707242238,
				"y": -2.5079860778,
				"z": -0.8525735042,
				"element": "N" 
			},
			{
				"x": 0.0084013678,
				"y": -3.928058695,
				"z": -0.7353169613,
				"element": "O" 
			},
			{
				"x": 0.5084001532,
				"y": -2.5288309107,
				"z": -2.812813853,
				"element": "O" 
			},
			{
				"x": -3.4234341666,
				"y": 1.0428437925,
				"z": 0.2156274945,
				"element": "C" 
			},
			{
				"x": -4.5606561659,
				"y": 0.5849520996,
				"z": -0.3671338987,
				"element": "O" 
			},
			{
				"x": -3.4599501934,
				"y": 2.0507547792,
				"z": 0.8856849474,
				"element": "O" 
			},
			{
				"x": -1.238498697,
				"y": 1.7777573519,
				"z": 2.3128564536,
				"element": "H" 
			},
			{
				"x": 0.4214345672,
				"y": 1.8243824177,
				"z": 1.6709053056,
				"element": "H" 
			},
			{
				"x": -0.8958192238,
				"y": 2.7351082047,
				"z": 0.893009246,
				"element": "H" 
			},
			{
				"x": 1.10442661,
				"y": -0.2441757476,
				"z": 0.441346406,
				"element": "H" 
			},
			{
				"x": 2.5824333074,
				"y": -1.7432029167,
				"z": -1.2747973191,
				"element": "H" 
			},
			{
				"x": 2.2447027752,
				"y": -2.6885088525,
				"z": 0.12832566,
				"element": "H" 
			},
			{
				"x": -4.4230762972,
				"y": -0.2248110454,
				"z": -0.87886664,
				"element": "H" 
			}
		],
		 "valence_orbital": [ 
			{
				"type": "occ",
				"energy": -0.32549,
				"method": "rhf"
			},
			{
				"type": "occ",
				"energy": -0.32326,
				"method": "rhf"
			},
			{
				"type": "occ",
				"energy": -0.28821,
				"method": "rhf"
			},
			{
				"type": "occ",
				"energy": -0.28779,
				"method": "rhf"
			},
			{
				"type": "occ",
				"energy": -0.2667,
				"method": "rhf"
			},
			{
				"type": "unocc",
				"energy": -0.08397,
				"method": "rhf"
			},
			{
				"type": "unocc",
				"energy": -0.02542,
				"method": "rhf"
			},
			{
				"type": "unocc",
				"energy": -0.00048,
				"method": "rhf"
			},
			{
				"type": "unocc",
				"energy": 0.01836,
				"method": "rhf"
			},
			{
				"type": "unocc",
				"energy": 0.03314,
				"method": "rhf"
			}
		],
		"cosmo_sigma_profile": { 
			"-0.025": 0.0,
			"-0.024": 0.0,
			"-0.023": 0.0,
			"-0.022": 0.0,
			"-0.021": 0.0,
			"-0.02": 0.0,
			"-0.019": 0.276795567041,
			"-0.018": 0.712022096022,
			"-0.017": 1.15150753963,
			"-0.016": 3.59500193478,
			"-0.015": 2.8673922291,
			"-0.014": 3.51989757457,
			"-0.013": 3.93938312718,
			"-0.012": 4.83160871798,
			"-0.011": 3.42357613867,
			"-0.01": 4.2521870378,
			"-0.009": 4.94060334849,
			"-0.008": 4.16202160917,
			"-0.007": 4.33983796023,
			"-0.006": 4.89187848873,
			"-0.005": 7.69743192097,
			"-0.004": 9.08575958379,
			"-0.003": 10.8988001827,
			"-0.002": 13.8350354018,
			"-0.001": 19.9084364477,
			"0.0": 18.1106323798,
			"0.001": 11.333575263,
			"0.002": 8.01457460413,
			"0.003": 5.81329929865,
			"0.004": 5.32913344865,
			"0.005": 5.32242566419,
			"0.006": 6.0726635197,
			"0.007": 7.33825851584,
			"0.008": 6.96784911896,
			"0.009": 8.62346222067,
			"0.01": 17.3074434373,
			"0.011": 11.9692056066,
			"0.012": 2.97671137242,
			"0.013": 0.731962920701,
			"0.014": 0.0,
			"0.015": 0.0,
			"0.016": 0.0,
			"0.017": 0.0,
			"0.018": 0.0,
			"0.019": 0.0,
			"0.02": 0.0,
			"0.021": 0.0,
			"0.022": 0.0,
			"0.023": 0.0,
			"0.024": 0.0,
			"0.025": 0.0
		}
	}
}
