{
	 "smiles": "C1CC(CCN1)C1=NN=CN1", 
	 "Tm": 482.15, 
	 "num_atms": 23, 
	 "gaussian": { 
		 "optdone": 1, 
		 "sigma_profile": "yes", 
		 "theory": "DFT", 
		 "functional": "B3LYP", 
		 "basiset": "6-31G**", 
		 "properties": { 
			 "R2extent": 2417.8442, 
			 "electric_dipole_moment_norm": 5.31910708578, 
			 "electric_quadrupole_moment_norm": 19.3339082852, 
			 "total_energy": -492.949112654, 
			 "HOMO_LUMO_gap": 0.22979, 
			 "cosmo_polarized_energy": -21.36, 
			 "cosmo_cavitation_energy": 24.7, 
			 "cosmo_dispersion_energy": -18.56, 
			 "cosmo_repulsion_energy": 1.49, 
			 "cosmo_total_nonelectrostatic_energy": 7.62, 
			 "SMD_solvation_energy": -0.21 
		},
		"coords": [
			{
				"x": 0.1007672028,
				"y": 1.0688850428,
				"z": -0.7692676846,
				"element": "C" 
			},
			{
				"x": 1.1783272794,
				"y": 0.0982369117,
				"z": -1.2696034157,
				"element": "C" 
			},
			{
				"x": 1.5805543378,
				"y": -0.895648326,
				"z": -0.1455908428,
				"element": "C" 
			},
			{
				"x": 1.3247771866,
				"y": -0.272763959,
				"z": 1.259226554,
				"element": "C" 
			},
			{
				"x": 1.5506433044,
				"y": 1.2398848641,
				"z": 1.2288176469,
				"element": "C" 
			},
			{
				"x": 0.5257344795,
				"y": 1.877771772,
				"z": 0.3903492508,
				"element": "N" 
			},
			{
				"x": 0.8751162391,
				"y": -2.2162809017,
				"z": -0.2930763368,
				"element": "C" 
			},
			{
				"x": 0.0891989825,
				"y": -2.5912928984,
				"z": -1.2770048708,
				"element": "N" 
			},
			{
				"x": -0.3404333701,
				"y": -3.8832151283,
				"z": -1.0200000737,
				"element": "N" 
			},
			{
				"x": 0.1998617373,
				"y": -4.2491753542,
				"z": 0.1131005922,
				"element": "C" 
			},
			{
				"x": 0.9765293703,
				"y": -3.2405901017,
				"z": 0.6189782428,
				"element": "N" 
			},
			{
				"x": -0.7950792904,
				"y": 0.492207776,
				"z": -0.5031351342,
				"element": "H" 
			},
			{
				"x": -0.2043023021,
				"y": 1.7490004975,
				"z": -1.5707619729,
				"element": "H" 
			},
			{
				"x": 2.0629213847,
				"y": 0.66705517,
				"z": -1.5786003058,
				"element": "H" 
			},
			{
				"x": 0.8191879797,
				"y": -0.4555586474,
				"z": -2.1401030863,
				"element": "H" 
			},
			{
				"x": 2.659561045,
				"y": -1.0890365967,
				"z": -0.2306651008,
				"element": "H" 
			},
			{
				"x": 0.2920682717,
				"y": -0.4638516869,
				"z": 1.5732337469,
				"element": "H" 
			},
			{
				"x": 1.9793765439,
				"y": -0.730351808,
				"z": 2.0105672727,
				"element": "H" 
			},
			{
				"x": 1.4880970261,
				"y": 1.6489856863,
				"z": 2.2452023472,
				"element": "H" 
			},
			{
				"x": 2.5823563456,
				"y": 1.4287449538,
				"z": 0.8780918458,
				"element": "H" 
			},
			{
				"x": 0.8666157593,
				"y": 2.77861653,
				"z": 0.0721874064,
				"element": "H" 
			},
			{
				"x": 0.0683343467,
				"y": -5.2045332826,
				"z": 0.6009498151,
				"element": "H" 
			},
			{
				"x": 1.5011861403,
				"y": -3.2444905134,
				"z": 1.4804041037,
				"element": "H" 
			}
		],
		 "valence_orbital": [ 
			{
				"type": "occ",
				"energy": -0.3008,
				"method": "rhf"
			},
			{
				"type": "occ",
				"energy": -0.29812,
				"method": "rhf"
			},
			{
				"type": "occ",
				"energy": -0.25171,
				"method": "rhf"
			},
			{
				"type": "occ",
				"energy": -0.24791,
				"method": "rhf"
			},
			{
				"type": "occ",
				"energy": -0.21084,
				"method": "rhf"
			},
			{
				"type": "unocc",
				"energy": 0.01895,
				"method": "rhf"
			},
			{
				"type": "unocc",
				"energy": 0.04802,
				"method": "rhf"
			},
			{
				"type": "unocc",
				"energy": 0.05549,
				"method": "rhf"
			},
			{
				"type": "unocc",
				"energy": 0.07877,
				"method": "rhf"
			},
			{
				"type": "unocc",
				"energy": 0.11202,
				"method": "rhf"
			}
		],
		"cosmo_sigma_profile": { 
			"-0.025": 0.0,
			"-0.024": 0.0,
			"-0.023": 0.0,
			"-0.022": 0.0,
			"-0.021": 0.0,
			"-0.02": 0.0,
			"-0.019": 0.0,
			"-0.018": 0.0117513714404,
			"-0.017": 0.980965840991,
			"-0.016": 1.52227552882,
			"-0.015": 1.09900710524,
			"-0.014": 1.02370453105,
			"-0.013": 1.48966471789,
			"-0.012": 1.98930221293,
			"-0.011": 1.1704031025,
			"-0.01": 3.72927360818,
			"-0.009": 5.2227421333,
			"-0.008": 4.32704478474,
			"-0.007": 3.58239711972,
			"-0.006": 4.6339854135,
			"-0.005": 7.89483537545,
			"-0.004": 9.36294668911,
			"-0.003": 18.9289015274,
			"-0.002": 25.2754607996,
			"-0.001": 19.3947886848,
			"0.0": 18.1029971278,
			"0.001": 9.47765732235,
			"0.002": 5.29147175235,
			"0.003": 4.61616362444,
			"0.004": 3.59595744194,
			"0.005": 2.64472556023,
			"0.006": 2.62766278526,
			"0.007": 3.06761827726,
			"0.008": 3.20961186247,
			"0.009": 2.90051928792,
			"0.01": 2.82766164768,
			"0.011": 2.77627565959,
			"0.012": 2.76385829813,
			"0.013": 3.66884894427,
			"0.014": 3.45702155766,
			"0.015": 3.64851303619,
			"0.016": 3.69036338967,
			"0.017": 1.68207141627,
			"0.018": 0.820679936323,
			"0.019": 0.324166768497,
			"0.02": 0.0444653640213,
			"0.021": 0.0,
			"0.022": 0.0,
			"0.023": 0.0,
			"0.024": 0.0,
			"0.025": 0.0
		}
	}
}
