{
	 "smiles": "CCOC(=O)C1=C(N(N=C1)C1=CC=C(C=C1)C(O)=O)C(F)(F)F", 
	 "Tm": 449.15, 
	 "num_atms": 34, 
	 "gaussian": { 
		 "optdone": 1, 
		 "sigma_profile": "yes", 
		 "theory": "DFT", 
		 "functional": "B3LYP", 
		 "basiset": "6-31G**", 
		 "properties": { 
			 "R2extent": 10460.8764, 
			 "electric_dipole_moment_norm": 4.62797560171, 
			 "electric_quadrupole_moment_norm": 27.1771671988, 
			 "total_energy": -1250.03678229, 
			 "HOMO_LUMO_gap": 0.18655, 
			 "cosmo_polarized_energy": -19.86, 
			 "cosmo_cavitation_energy": 41.1, 
			 "cosmo_dispersion_energy": -28.76, 
			 "cosmo_repulsion_energy": 2.14, 
			 "cosmo_total_nonelectrostatic_energy": 14.49, 
			 "SMD_solvation_energy": 9.54 
		},
		"coords": [
			{
				"x": -4.3673789358,
				"y": -4.3997483451,
				"z": 1.4695257801,
				"element": "C" 
			},
			{
				"x": -3.870521936,
				"y": -3.5906883507,
				"z": 0.2870319488,
				"element": "C" 
			},
			{
				"x": -2.8664632235,
				"y": -2.6719529765,
				"z": 0.7801035478,
				"element": "O" 
			},
			{
				"x": -2.3005731945,
				"y": -1.8697574503,
				"z": -0.1501677042,
				"element": "C" 
			},
			{
				"x": -2.6000939155,
				"y": -1.8798314904,
				"z": -1.3255411223,
				"element": "O" 
			},
			{
				"x": -1.2523903518,
				"y": -1.0306484122,
				"z": 0.4700561782,
				"element": "C" 
			},
			{
				"x": -0.5985530967,
				"y": 0.0874305812,
				"z": -0.0418996672,
				"element": "C" 
			},
			{
				"x": 0.3570739754,
				"y": 0.4341870001,
				"z": 0.8777125057,
				"element": "N" 
			},
			{
				"x": 0.3339219367,
				"y": -0.3865986766,
				"z": 1.96247662,
				"element": "N" 
			},
			{
				"x": -0.6309915135,
				"y": -1.2583727121,
				"z": 1.7210817656,
				"element": "C" 
			},
			{
				"x": 1.365616275,
				"y": 1.4466150833,
				"z": 0.8458913877,
				"element": "C" 
			},
			{
				"x": 1.6253402089,
				"y": 2.1616847531,
				"z": 2.0197379108,
				"element": "C" 
			},
			{
				"x": 2.6302170534,
				"y": 3.1204030392,
				"z": 2.0274943258,
				"element": "C" 
			},
			{
				"x": 3.3943913651,
				"y": 3.3632175064,
				"z": 0.8776740714,
				"element": "C" 
			},
			{
				"x": 3.1176376825,
				"y": 2.6408721762,
				"z": -0.2906905862,
				"element": "C" 
			},
			{
				"x": 2.1131025125,
				"y": 1.6768308831,
				"z": -0.3109861377,
				"element": "C" 
			},
			{
				"x": 4.4547947637,
				"y": 4.4218799228,
				"z": 0.9584673869,
				"element": "C" 
			},
			{
				"x": 5.4415991559,
				"y": 4.3761894311,
				"z": 0.0249329025,
				"element": "O" 
			},
			{
				"x": 4.4583028419,
				"y": 5.2870473681,
				"z": 1.8015426986,
				"element": "O" 
			},
			{
				"x": -0.8841679999,
				"y": 0.8847258031,
				"z": -1.2867646064,
				"element": "C" 
			},
			{
				"x": -2.1634570581,
				"y": 0.782667177,
				"z": -1.6529486995,
				"element": "F" 
			},
			{
				"x": -0.1168491137,
				"y": 0.479168703,
				"z": -2.326756172,
				"element": "F" 
			},
			{
				"x": -0.6258500577,
				"y": 2.1980443188,
				"z": -1.0905845123,
				"element": "F" 
			},
			{
				"x": -5.1328397418,
				"y": -5.1076391851,
				"z": 1.1371312784,
				"element": "H" 
			},
			{
				"x": -4.8076336383,
				"y": -3.7501941537,
				"z": 2.2314076662,
				"element": "H" 
			},
			{
				"x": -3.5517167276,
				"y": -4.9664441979,
				"z": 1.927800273,
				"element": "H" 
			},
			{
				"x": -4.6718895383,
				"y": -3.0135899512,
				"z": -0.1845036292,
				"element": "H" 
			},
			{
				"x": -3.4209134927,
				"y": -4.2214271121,
				"z": -0.486357334,
				"element": "H" 
			},
			{
				"x": -0.8553369562,
				"y": -2.0390833267,
				"z": 2.433172574,
				"element": "H" 
			},
			{
				"x": 1.0406807108,
				"y": 1.9538605102,
				"z": 2.9077400561,
				"element": "H" 
			},
			{
				"x": 2.8388004923,
				"y": 3.7004148663,
				"z": 2.9195627752,
				"element": "H" 
			},
			{
				"x": 3.6619093734,
				"y": 2.8355389994,
				"z": -1.2111156247,
				"element": "H" 
			},
			{
				"x": 1.9121747851,
				"y": 1.1156346955,
				"z": -1.2151592855,
				"element": "H" 
			},
			{
				"x": 5.402357359,
				"y": 3.545563523,
				"z": -0.4686685715,
				"element": "H" 
			}
		],
		 "valence_orbital": [ 
			{
				"type": "occ",
				"energy": -0.28841,
				"method": "rhf"
			},
			{
				"type": "occ",
				"energy": -0.28631,
				"method": "rhf"
			},
			{
				"type": "occ",
				"energy": -0.28231,
				"method": "rhf"
			},
			{
				"type": "occ",
				"energy": -0.27915,
				"method": "rhf"
			},
			{
				"type": "occ",
				"energy": -0.26277,
				"method": "rhf"
			},
			{
				"type": "unocc",
				"energy": -0.07622,
				"method": "rhf"
			},
			{
				"type": "unocc",
				"energy": -0.0419,
				"method": "rhf"
			},
			{
				"type": "unocc",
				"energy": -0.03549,
				"method": "rhf"
			},
			{
				"type": "unocc",
				"energy": -0.00834,
				"method": "rhf"
			},
			{
				"type": "unocc",
				"energy": 0.03747,
				"method": "rhf"
			}
		],
		"cosmo_sigma_profile": { 
			"-0.025": 0.0,
			"-0.024": 0.0,
			"-0.023": 0.0,
			"-0.022": 0.0,
			"-0.021": 0.0,
			"-0.02": 0.0354175486954,
			"-0.019": 0.517061395796,
			"-0.018": 1.26123252233,
			"-0.017": 0.920673656506,
			"-0.016": 1.11225536087,
			"-0.015": 0.679820764399,
			"-0.014": 0.723143264214,
			"-0.013": 1.25860813629,
			"-0.012": 1.621112285,
			"-0.011": 1.0567625774,
			"-0.01": 1.3115535411,
			"-0.009": 2.6476340771,
			"-0.008": 4.27277638116,
			"-0.007": 9.16651181933,
			"-0.006": 10.4114433311,
			"-0.005": 15.5707209242,
			"-0.004": 24.6812392238,
			"-0.003": 27.1225885927,
			"-0.002": 25.612662919,
			"-0.001": 27.3182394662,
			"0.0": 27.1983754783,
			"0.001": 32.5368197755,
			"0.002": 36.0015669241,
			"0.003": 11.1728973966,
			"0.004": 7.81456326016,
			"0.005": 7.44516623326,
			"0.006": 7.14032146963,
			"0.007": 5.6469234269,
			"0.008": 4.82684753271,
			"0.009": 7.37786300519,
			"0.01": 8.05103150758,
			"0.011": 9.64485572756,
			"0.012": 6.26059675919,
			"0.013": 1.12122855411,
			"0.014": 0.0,
			"0.015": 0.0,
			"0.016": 0.0,
			"0.017": 0.0,
			"0.018": 0.0,
			"0.019": 0.0,
			"0.02": 0.0,
			"0.021": 0.0,
			"0.022": 0.0,
			"0.023": 0.0,
			"0.024": 0.0,
			"0.025": 0.0
		}
	}
}
