{
	 "smiles": "CCNC1=NC(NCC)=NC(Cl)=N1", 
	 "Tm": 500.15, 
	 "num_atms": 25, 
	 "gaussian": { 
		 "optdone": 1, 
		 "sigma_profile": "yes", 
		 "theory": "DFT", 
		 "functional": "B3LYP", 
		 "basiset": "6-31G**", 
		 "properties": { 
			 "R2extent": 3855.7144, 
			 "electric_dipole_moment_norm": 4.40917670433, 
			 "electric_quadrupole_moment_norm": 14.4919035447, 
			 "total_energy": -1007.9761507, 
			 "HOMO_LUMO_gap": 0.22067, 
			 "cosmo_polarized_energy": -11.85, 
			 "cosmo_cavitation_energy": 30.73, 
			 "cosmo_dispersion_energy": -22.39, 
			 "cosmo_repulsion_energy": 1.87, 
			 "cosmo_total_nonelectrostatic_energy": 10.2, 
			 "SMD_solvation_energy": 0.7 
		},
		"coords": [
			{
				"x": 0.997477431,
				"y": 3.0288172357,
				"z": 1.674690221,
				"element": "C" 
			},
			{
				"x": 1.6777603904,
				"y": 2.3991579036,
				"z": 0.4552354457,
				"element": "C" 
			},
			{
				"x": 1.3002829032,
				"y": 1.0084137105,
				"z": 0.2336004243,
				"element": "N" 
			},
			{
				"x": 0.2183557841,
				"y": 0.6048417721,
				"z": -0.4697391653,
				"element": "C" 
			},
			{
				"x": -0.0335212821,
				"y": -0.7178610275,
				"z": -0.488366894,
				"element": "N" 
			},
			{
				"x": -1.0971364366,
				"y": -1.0660427076,
				"z": -1.22268093,
				"element": "C" 
			},
			{
				"x": -1.4213569749,
				"y": -2.3743077913,
				"z": -1.3305213204,
				"element": "N" 
			},
			{
				"x": -0.7502702521,
				"y": -3.4559264369,
				"z": -0.62352307,
				"element": "C" 
			},
			{
				"x": -1.3001033565,
				"y": -3.699264608,
				"z": 0.7858336328,
				"element": "C" 
			},
			{
				"x": -1.906031856,
				"y": -0.2048528036,
				"z": -1.9025905275,
				"element": "N" 
			},
			{
				"x": -1.5338012981,
				"y": 1.0512789171,
				"z": -1.776032832,
				"element": "C" 
			},
			{
				"x": -2.5342844887,
				"y": 2.2304078257,
				"z": -2.6200053982,
				"element": "Cl" 
			},
			{
				"x": -0.5147303985,
				"y": 1.5546247573,
				"z": -1.0995909522,
				"element": "N" 
			},
			{
				"x": 1.3309759437,
				"y": 4.0639727487,
				"z": 1.803521899,
				"element": "H" 
			},
			{
				"x": -0.0880141834,
				"y": 3.0325074216,
				"z": 1.5436716026,
				"element": "H" 
			},
			{
				"x": 1.2345982173,
				"y": 2.4789523815,
				"z": 2.5917506823,
				"element": "H" 
			},
			{
				"x": 1.4193339998,
				"y": 2.9567384146,
				"z": -0.4470509583,
				"element": "H" 
			},
			{
				"x": 2.7672137822,
				"y": 2.4288516877,
				"z": 0.5649501722,
				"element": "H" 
			},
			{
				"x": 1.7701688907,
				"y": 0.2749362477,
				"z": 0.743614176,
				"element": "H" 
			},
			{
				"x": -2.2728588969,
				"y": -2.5562076386,
				"z": -1.8412439876,
				"element": "H" 
			},
			{
				"x": -0.8500553973,
				"y": -4.359200508,
				"z": -1.234773416,
				"element": "H" 
			},
			{
				"x": 0.312154689,
				"y": -3.206770474,
				"z": -0.5731949512,
				"element": "H" 
			},
			{
				"x": -2.3657570602,
				"y": -3.9493049502,
				"z": 0.7586788263,
				"element": "H" 
			},
			{
				"x": -1.1712795196,
				"y": -2.8060024384,
				"z": 1.4031370871,
				"element": "H" 
			},
			{
				"x": -0.7683206305,
				"y": -4.5285596396,
				"z": 1.2645302335,
				"element": "H" 
			}
		],
		 "valence_orbital": [ 
			{
				"type": "occ",
				"energy": -0.28803,
				"method": "rhf"
			},
			{
				"type": "occ",
				"energy": -0.26628,
				"method": "rhf"
			},
			{
				"type": "occ",
				"energy": -0.26512,
				"method": "rhf"
			},
			{
				"type": "occ",
				"energy": -0.24271,
				"method": "rhf"
			},
			{
				"type": "occ",
				"energy": -0.23664,
				"method": "rhf"
			},
			{
				"type": "unocc",
				"energy": -0.01597,
				"method": "rhf"
			},
			{
				"type": "unocc",
				"energy": 0.00325,
				"method": "rhf"
			},
			{
				"type": "unocc",
				"energy": 0.04756,
				"method": "rhf"
			},
			{
				"type": "unocc",
				"energy": 0.08464,
				"method": "rhf"
			},
			{
				"type": "unocc",
				"energy": 0.08718,
				"method": "rhf"
			}
		],
		"cosmo_sigma_profile": { 
			"-0.025": 0.0,
			"-0.024": 0.0,
			"-0.023": 0.0,
			"-0.022": 0.0,
			"-0.021": 0.0,
			"-0.02": 0.0,
			"-0.019": 0.0,
			"-0.018": 0.0,
			"-0.017": 0.0,
			"-0.016": 0.0,
			"-0.015": 0.0,
			"-0.014": 1.39210478219,
			"-0.013": 2.0703165917,
			"-0.012": 2.45927195516,
			"-0.011": 1.54666117175,
			"-0.01": 1.75121777423,
			"-0.009": 2.10152038006,
			"-0.008": 1.90908500393,
			"-0.007": 2.15837126408,
			"-0.006": 3.70050426566,
			"-0.005": 6.9205025899,
			"-0.004": 13.0080175365,
			"-0.003": 24.719223297,
			"-0.002": 26.3962076776,
			"-0.001": 24.6452135218,
			"0.0": 26.0588160615,
			"0.001": 25.9402444595,
			"0.002": 14.3132632964,
			"0.003": 12.2873862999,
			"0.004": 14.4820467825,
			"0.005": 10.3587339013,
			"0.006": 5.46954341247,
			"0.007": 4.7532294864,
			"0.008": 5.51261508075,
			"0.009": 3.75559449553,
			"0.01": 2.81412499882,
			"0.011": 2.04122644272,
			"0.012": 0.896133296596,
			"0.013": 0.754436350763,
			"0.014": 0.470123863284,
			"0.015": 0.0,
			"0.016": 0.0,
			"0.017": 0.0,
			"0.018": 0.0,
			"0.019": 0.0,
			"0.02": 0.0,
			"0.021": 0.0,
			"0.022": 0.0,
			"0.023": 0.0,
			"0.024": 0.0,
			"0.025": 0.0
		}
	}
}
