{
	 "smiles": "OC(=O)C1CCN(CC1)C(=O)N1CCCC1", 
	 "Tm": 418.15, 
	 "num_atms": 34, 
	 "gaussian": { 
		 "optdone": 1, 
		 "sigma_profile": "yes", 
		 "theory": "DFT", 
		 "functional": "B3LYP", 
		 "basiset": "6-31G**", 
		 "properties": { 
			 "R2extent": 4820.59, 
			 "electric_dipole_moment_norm": 4.63778261673, 
			 "electric_quadrupole_moment_norm": 21.9764376849, 
			 "total_energy": -765.221667063, 
			 "HOMO_LUMO_gap": 0.24337, 
			 "cosmo_polarized_energy": -18.86, 
			 "cosmo_cavitation_energy": 34.1, 
			 "cosmo_dispersion_energy": -24.71, 
			 "cosmo_repulsion_energy": 1.93, 
			 "cosmo_total_nonelectrostatic_energy": 11.32, 
			 "SMD_solvation_energy": 4.93 
		},
		"coords": [
			{
				"x": -3.3193233632,
				"y": 0.4823239298,
				"z": -3.8589623401,
				"element": "O" 
			},
			{
				"x": -2.1052730371,
				"y": -0.1323801642,
				"z": -3.8157281558,
				"element": "C" 
			},
			{
				"x": -1.7264126396,
				"y": -0.779794477,
				"z": -4.7604297739,
				"element": "O" 
			},
			{
				"x": -1.3206909174,
				"y": 0.065410847,
				"z": -2.5234934214,
				"element": "C" 
			},
			{
				"x": -1.1713936294,
				"y": 1.5710799632,
				"z": -2.1542655509,
				"element": "C" 
			},
			{
				"x": 0.0970590269,
				"y": 1.7865973222,
				"z": -1.2996846198,
				"element": "C" 
			},
			{
				"x": 0.3906754446,
				"y": 0.6399276134,
				"z": -0.4410421678,
				"element": "N" 
			},
			{
				"x": 0.7055966547,
				"y": -0.5997124742,
				"z": -1.1787830085,
				"element": "C" 
			},
			{
				"x": 0.0549183951,
				"y": -0.6070507762,
				"z": -2.5786834526,
				"element": "C" 
			},
			{
				"x": -0.3064329298,
				"y": 0.6036207384,
				"z": 0.7688818693,
				"element": "C" 
			},
			{
				"x": -1.1889283117,
				"y": 1.420188394,
				"z": 1.0417454203,
				"element": "O" 
			},
			{
				"x": 0.0620858136,
				"y": -0.394152484,
				"z": 1.6497155223,
				"element": "N" 
			},
			{
				"x": 1.4396800896,
				"y": -0.9123191608,
				"z": 1.7814165817,
				"element": "C" 
			},
			{
				"x": 1.6456920915,
				"y": -1.0312278876,
				"z": 3.2992440562,
				"element": "C" 
			},
			{
				"x": 0.2313959812,
				"y": -1.3459149769,
				"z": 3.8113590869,
				"element": "C" 
			},
			{
				"x": -0.6571127759,
				"y": -0.4519402063,
				"z": 2.9376174396,
				"element": "C" 
			},
			{
				"x": -3.4788040266,
				"y": 0.9645476462,
				"z": -3.0346805224,
				"element": "H" 
			},
			{
				"x": -1.9062330688,
				"y": -0.418312169,
				"z": -1.7267612496,
				"element": "H" 
			},
			{
				"x": -2.0406646824,
				"y": 1.9120335774,
				"z": -1.5826338347,
				"element": "H" 
			},
			{
				"x": -1.1019675279,
				"y": 2.1841759372,
				"z": -3.0608129695,
				"element": "H" 
			},
			{
				"x": 0.9664825514,
				"y": 1.9421417687,
				"z": -1.9479616856,
				"element": "H" 
			},
			{
				"x": -0.015697225,
				"y": 2.6688817621,
				"z": -0.6701762932,
				"element": "H" 
			},
			{
				"x": 1.7915405627,
				"y": -0.7361544265,
				"z": -1.2708740596,
				"element": "H" 
			},
			{
				"x": 0.3181524677,
				"y": -1.4411922239,
				"z": -0.5990217283,
				"element": "H" 
			},
			{
				"x": -0.0341878857,
				"y": -1.6348061295,
				"z": -2.9394193728,
				"element": "H" 
			},
			{
				"x": 0.6821526601,
				"y": -0.0836969264,
				"z": -3.3085587181,
				"element": "H" 
			},
			{
				"x": 1.539855185,
				"y": -1.8959080955,
				"z": 1.3027495972,
				"element": "H" 
			},
			{
				"x": 2.150167265,
				"y": -0.2342700673,
				"z": 1.3004621096,
				"element": "H" 
			},
			{
				"x": 1.9878949263,
				"y": -0.0730556909,
				"z": 3.706772654,
				"element": "H" 
			},
			{
				"x": 2.3857235122,
				"y": -1.7924771202,
				"z": 3.5614996603,
				"element": "H" 
			},
			{
				"x": 0.1013324531,
				"y": -1.1418066563,
				"z": 4.8774387989,
				"element": "H" 
			},
			{
				"x": -0.003915647,
				"y": -2.4032438852,
				"z": 3.6419268431,
				"element": "H" 
			},
			{
				"x": -0.758616166,
				"y": 0.5574611324,
				"z": 3.3526372958,
				"element": "H" 
			},
			{
				"x": -1.6670512473,
				"y": -0.8498746342,
				"z": 2.7991059894,
				"element": "H" 
			}
		],
		 "valence_orbital": [ 
			{
				"type": "occ",
				"energy": -0.31226,
				"method": "rhf"
			},
			{
				"type": "occ",
				"energy": -0.26673,
				"method": "rhf"
			},
			{
				"type": "occ",
				"energy": -0.26198,
				"method": "rhf"
			},
			{
				"type": "occ",
				"energy": -0.23554,
				"method": "rhf"
			},
			{
				"type": "occ",
				"energy": -0.23047,
				"method": "rhf"
			},
			{
				"type": "unocc",
				"energy": 0.0129,
				"method": "rhf"
			},
			{
				"type": "unocc",
				"energy": 0.04247,
				"method": "rhf"
			},
			{
				"type": "unocc",
				"energy": 0.05677,
				"method": "rhf"
			},
			{
				"type": "unocc",
				"energy": 0.06948,
				"method": "rhf"
			},
			{
				"type": "unocc",
				"energy": 0.0863,
				"method": "rhf"
			}
		],
		"cosmo_sigma_profile": { 
			"-0.025": 0.0,
			"-0.024": 0.0,
			"-0.023": 0.0,
			"-0.022": 0.0,
			"-0.021": 0.0,
			"-0.02": 0.0,
			"-0.019": 0.0,
			"-0.018": 0.294672439986,
			"-0.017": 1.02897055014,
			"-0.016": 0.880506939002,
			"-0.015": 1.31405065263,
			"-0.014": 0.721744743028,
			"-0.013": 1.12260071413,
			"-0.012": 1.45577405586,
			"-0.011": 0.933424067629,
			"-0.01": 0.930231778136,
			"-0.009": 0.778599879634,
			"-0.008": 1.61214016211,
			"-0.007": 1.84547551932,
			"-0.006": 3.9309601394,
			"-0.005": 11.0754369798,
			"-0.004": 31.6572969739,
			"-0.003": 40.1938811179,
			"-0.002": 41.1393319226,
			"-0.001": 26.2797428196,
			"0.0": 17.5231226498,
			"0.001": 8.98629785672,
			"0.002": 6.49028382674,
			"0.003": 5.33369905046,
			"0.004": 5.86595337344,
			"0.005": 5.16859364124,
			"0.006": 4.01028114708,
			"0.007": 4.39100383006,
			"0.008": 4.66583433764,
			"0.009": 5.09363284205,
			"0.01": 5.28761882892,
			"0.011": 6.330448845,
			"0.012": 7.06107633924,
			"0.013": 4.48759151423,
			"0.014": 3.04638894477,
			"0.015": 3.47938891202,
			"0.016": 0.0371739267283,
			"0.017": 0.0,
			"0.018": 0.0,
			"0.019": 0.0,
			"0.02": 0.0,
			"0.021": 0.0,
			"0.022": 0.0,
			"0.023": 0.0,
			"0.024": 0.0,
			"0.025": 0.0
		}
	}
}
