{
	 "smiles": "OC(=O)C1CSCN1C(=O)C1CCCC1", 
	 "Tm": 388.15, 
	 "num_atms": 30, 
	 "gaussian": { 
		 "optdone": 1, 
		 "sigma_profile": "yes", 
		 "theory": "DFT", 
		 "functional": "B3LYP", 
		 "basiset": "6-31G**", 
		 "properties": { 
			 "R2extent": 4282.4863, 
			 "electric_dipole_moment_norm": 6.72238101122, 
			 "electric_quadrupole_moment_norm": 26.1718646651, 
			 "total_energy": -1068.72654252, 
			 "HOMO_LUMO_gap": 0.21677, 
			 "cosmo_polarized_energy": -15.81, 
			 "cosmo_cavitation_energy": 31.68, 
			 "cosmo_dispersion_energy": -23.67, 
			 "cosmo_repulsion_energy": 1.79, 
			 "cosmo_total_nonelectrostatic_energy": 9.8, 
			 "SMD_solvation_energy": 4.92 
		},
		"coords": [
			{
				"x": -0.3016990644,
				"y": 0.5300646375,
				"z": 4.178021155,
				"element": "O" 
			},
			{
				"x": -0.9754964077,
				"y": -0.4609609085,
				"z": 3.641349261,
				"element": "C" 
			},
			{
				"x": -1.8271098724,
				"y": -1.0943071186,
				"z": 4.2306387815,
				"element": "O" 
			},
			{
				"x": -0.758214316,
				"y": -0.900272348,
				"z": 2.161742626,
				"element": "C" 
			},
			{
				"x": -2.0340558798,
				"y": -0.5997855383,
				"z": 1.3447620589,
				"element": "C" 
			},
			{
				"x": -1.6357154005,
				"y": -1.0908992783,
				"z": -0.3894532659,
				"element": "S" 
			},
			{
				"x": 0.164589637,
				"y": -1.301471373,
				"z": 0.0438803707,
				"element": "C" 
			},
			{
				"x": 0.3800444138,
				"y": -0.5353722019,
				"z": 1.2628445308,
				"element": "N" 
			},
			{
				"x": 1.1719300653,
				"y": 0.5786562568,
				"z": 1.3283826629,
				"element": "C" 
			},
			{
				"x": 1.1433207509,
				"y": 1.3474021983,
				"z": 2.3043391778,
				"element": "O" 
			},
			{
				"x": 2.1797106315,
				"y": 0.902608763,
				"z": 0.2268947409,
				"element": "C" 
			},
			{
				"x": 1.5945892644,
				"y": 1.3443198165,
				"z": -1.162457962,
				"element": "C" 
			},
			{
				"x": 2.4622407188,
				"y": 0.6257397754,
				"z": -2.2278277268,
				"element": "C" 
			},
			{
				"x": 3.7506249186,
				"y": 0.2244113041,
				"z": -1.4870176841,
				"element": "C" 
			},
			{
				"x": 3.2563811673,
				"y": -0.1721541065,
				"z": -0.0854462497,
				"element": "C" 
			},
			{
				"x": 0.3122744519,
				"y": 0.9395842252,
				"z": 3.4873715591,
				"element": "H" 
			},
			{
				"x": -0.6876136378,
				"y": -1.988490598,
				"z": 2.2576929931,
				"element": "H" 
			},
			{
				"x": -2.2817221531,
				"y": 0.4641602241,
				"z": 1.3773248536,
				"element": "H" 
			},
			{
				"x": -2.8713584985,
				"y": -1.1810791316,
				"z": 1.728366801,
				"element": "H" 
			},
			{
				"x": 0.3681561436,
				"y": -2.3598831778,
				"z": 0.2287585409,
				"element": "H" 
			},
			{
				"x": 0.7734595687,
				"y": -0.9566573112,
				"z": -0.7820061917,
				"element": "H" 
			},
			{
				"x": 2.6987341313,
				"y": 1.7634690982,
				"z": 0.6528948254,
				"element": "H" 
			},
			{
				"x": 1.6860857402,
				"y": 2.4301481084,
				"z": -1.252963729,
				"element": "H" 
			},
			{
				"x": 0.529617343,
				"y": 1.1198767794,
				"z": -1.2734249439,
				"element": "H" 
			},
			{
				"x": 2.6501006328,
				"y": 1.2558391955,
				"z": -3.1019069189,
				"element": "H" 
			},
			{
				"x": 1.9534589814,
				"y": -0.2745994468,
				"z": -2.5955711336,
				"element": "H" 
			},
			{
				"x": 4.4250185582,
				"y": 1.0864087405,
				"z": -1.4111807623,
				"element": "H" 
			},
			{
				"x": 4.3021422152,
				"y": -0.5780121389,
				"z": -1.9862876112,
				"element": "H" 
			},
			{
				"x": 2.8332580834,
				"y": -1.1820407349,
				"z": -0.1081629782,
				"element": "H" 
			},
			{
				"x": 4.048247813,
				"y": -0.1769037107,
				"z": 0.6691422189,
				"element": "H" 
			}
		],
		 "valence_orbital": [ 
			{
				"type": "occ",
				"energy": -0.29533,
				"method": "rhf"
			},
			{
				"type": "occ",
				"energy": -0.28826,
				"method": "rhf"
			},
			{
				"type": "occ",
				"energy": -0.28151,
				"method": "rhf"
			},
			{
				"type": "occ",
				"energy": -0.26143,
				"method": "rhf"
			},
			{
				"type": "occ",
				"energy": -0.24355,
				"method": "rhf"
			},
			{
				"type": "unocc",
				"energy": -0.02678,
				"method": "rhf"
			},
			{
				"type": "unocc",
				"energy": -0.0018,
				"method": "rhf"
			},
			{
				"type": "unocc",
				"energy": 0.02612,
				"method": "rhf"
			},
			{
				"type": "unocc",
				"energy": 0.04192,
				"method": "rhf"
			},
			{
				"type": "unocc",
				"energy": 0.05718,
				"method": "rhf"
			}
		],
		"cosmo_sigma_profile": { 
			"-0.025": 0.0,
			"-0.024": 0.0,
			"-0.023": 0.0,
			"-0.022": 0.0,
			"-0.021": 0.0,
			"-0.02": 0.0,
			"-0.019": 0.0,
			"-0.018": 0.0,
			"-0.017": 0.0,
			"-0.016": 0.0,
			"-0.015": 0.0,
			"-0.014": 0.0,
			"-0.013": 0.0,
			"-0.012": 0.0,
			"-0.011": 0.0,
			"-0.01": 0.0972661646689,
			"-0.009": 2.09137293335,
			"-0.008": 6.20879950475,
			"-0.007": 10.5035997374,
			"-0.006": 12.4760082394,
			"-0.005": 12.0819677331,
			"-0.004": 19.5978792148,
			"-0.003": 28.7212289098,
			"-0.002": 28.2869190076,
			"-0.001": 26.8851851442,
			"0.0": 21.1765054516,
			"0.001": 12.4725732456,
			"0.002": 6.13490411289,
			"0.003": 6.3995796151,
			"0.004": 6.57848218306,
			"0.005": 6.44067421837,
			"0.006": 5.7370594592,
			"0.007": 4.68596563419,
			"0.008": 6.03529648323,
			"0.009": 5.5780554112,
			"0.01": 5.78877543005,
			"0.011": 6.10565371285,
			"0.012": 6.48519212504,
			"0.013": 3.26901289232,
			"0.014": 0.759083623248,
			"0.015": 0.0,
			"0.016": 0.0,
			"0.017": 0.0,
			"0.018": 0.0,
			"0.019": 0.0,
			"0.02": 0.0,
			"0.021": 0.0,
			"0.022": 0.0,
			"0.023": 0.0,
			"0.024": 0.0,
			"0.025": 0.0
		}
	}
}
