{
	 "smiles": "CC1=CC(=O)N(C1=O)C1=CC=C(C=C1)C(O)=O", 
	 "Tm": 475.15, 
	 "num_atms": 26, 
	 "gaussian": { 
		 "optdone": 1, 
		 "sigma_profile": "yes", 
		 "theory": "DFT", 
		 "functional": "B3LYP", 
		 "basiset": "6-31G**", 
		 "properties": { 
			 "R2extent": 5600.1455, 
			 "electric_dipole_moment_norm": 7.20686664231, 
			 "electric_quadrupole_moment_norm": 22.5889573932, 
			 "total_energy": -818.367488122, 
			 "HOMO_LUMO_gap": 0.14505, 
			 "cosmo_polarized_energy": -19.8, 
			 "cosmo_cavitation_energy": 31.73, 
			 "cosmo_dispersion_energy": -22.98, 
			 "cosmo_repulsion_energy": 1.75, 
			 "cosmo_total_nonelectrostatic_energy": 10.5, 
			 "SMD_solvation_energy": 8.09 
		},
		"coords": [
			{
				"x": -2.7845714505,
				"y": -3.0139490355,
				"z": -0.719018962,
				"element": "C" 
			},
			{
				"x": -2.4201120423,
				"y": -1.6026502147,
				"z": -0.4150977123,
				"element": "C" 
			},
			{
				"x": -3.1605508274,
				"y": -0.4881921124,
				"z": -0.3509031634,
				"element": "C" 
			},
			{
				"x": -2.2952011445,
				"y": 0.6713715711,
				"z": 0.0034376765,
				"element": "C" 
			},
			{
				"x": -2.6284555669,
				"y": 1.8271096345,
				"z": 0.1472048764,
				"element": "O" 
			},
			{
				"x": -0.9751567771,
				"y": 0.1597282669,
				"z": 0.142644284,
				"element": "N" 
			},
			{
				"x": -0.9922082761,
				"y": -1.2277481593,
				"z": -0.1067725689,
				"element": "C" 
			},
			{
				"x": -0.0416004268,
				"y": -1.9814185786,
				"z": -0.079793095,
				"element": "O" 
			},
			{
				"x": 0.1762077043,
				"y": 0.9236270235,
				"z": 0.4783781661,
				"element": "C" 
			},
			{
				"x": 1.427024075,
				"y": 0.5712156291,
				"z": -0.0471907697,
				"element": "C" 
			},
			{
				"x": 2.5535947385,
				"y": 1.3101906419,
				"z": 0.3008769868,
				"element": "C" 
			},
			{
				"x": 2.4547229018,
				"y": 2.4138011341,
				"z": 1.1587868311,
				"element": "C" 
			},
			{
				"x": 1.193664368,
				"y": 2.7743717074,
				"z": 1.6506348906,
				"element": "C" 
			},
			{
				"x": 0.0631935613,
				"y": 2.0325564298,
				"z": 1.3313852716,
				"element": "C" 
			},
			{
				"x": 3.6277744942,
				"y": 3.2568372564,
				"z": 1.5542910522,
				"element": "C" 
			},
			{
				"x": 4.8595331967,
				"y": 2.6926393195,
				"z": 1.4229691675,
				"element": "O" 
			},
			{
				"x": 3.5233004679,
				"y": 4.3852418518,
				"z": 1.9745724108,
				"element": "O" 
			},
			{
				"x": -2.5169116337,
				"y": -3.6664130202,
				"z": 0.1192870407,
				"element": "H" 
			},
			{
				"x": -2.2193815451,
				"y": -3.3762596279,
				"z": -1.5846850497,
				"element": "H" 
			},
			{
				"x": -3.8523368253,
				"y": -3.1157913612,
				"z": -0.9224386416,
				"element": "H" 
			},
			{
				"x": -4.2230194948,
				"y": -0.3653988487,
				"z": -0.5165968658,
				"element": "H" 
			},
			{
				"x": 1.5166469514,
				"y": -0.2763568661,
				"z": -0.7127540037,
				"element": "H" 
			},
			{
				"x": 3.505064989,
				"y": 1.0353491544,
				"z": -0.147965788,
				"element": "H" 
			},
			{
				"x": 1.1196079158,
				"y": 3.6422590267,
				"z": 2.296699597,
				"element": "H" 
			},
			{
				"x": -0.9037279661,
				"y": 2.3173171501,
				"z": 1.7231825663,
				"element": "H" 
			},
			{
				"x": 4.7754986127,
				"y": 1.7461620272,
				"z": 1.2431658025,
				"element": "H" 
			}
		],
		 "valence_orbital": [ 
			{
				"type": "occ",
				"energy": -0.30757,
				"method": "rhf"
			},
			{
				"type": "occ",
				"energy": -0.2835,
				"method": "rhf"
			},
			{
				"type": "occ",
				"energy": -0.27348,
				"method": "rhf"
			},
			{
				"type": "occ",
				"energy": -0.27074,
				"method": "rhf"
			},
			{
				"type": "occ",
				"energy": -0.25018,
				"method": "rhf"
			},
			{
				"type": "unocc",
				"energy": -0.10513,
				"method": "rhf"
			},
			{
				"type": "unocc",
				"energy": -0.05457,
				"method": "rhf"
			},
			{
				"type": "unocc",
				"energy": -0.02265,
				"method": "rhf"
			},
			{
				"type": "unocc",
				"energy": 0.02709,
				"method": "rhf"
			},
			{
				"type": "unocc",
				"energy": 0.05401,
				"method": "rhf"
			}
		],
		"cosmo_sigma_profile": { 
			"-0.025": 0.0,
			"-0.024": 0.0,
			"-0.023": 0.0,
			"-0.022": 0.0,
			"-0.021": 0.0,
			"-0.02": 0.0,
			"-0.019": 0.324253194229,
			"-0.018": 1.01479727999,
			"-0.017": 1.23762868209,
			"-0.016": 0.654198330731,
			"-0.015": 0.792452898862,
			"-0.014": 0.634624110615,
			"-0.013": 1.46994846609,
			"-0.012": 1.2796105657,
			"-0.011": 1.13719894608,
			"-0.01": 1.08195945628,
			"-0.009": 3.06013689423,
			"-0.008": 3.96522734848,
			"-0.007": 5.85347880324,
			"-0.006": 18.2944487171,
			"-0.005": 21.3704201246,
			"-0.004": 17.5310488717,
			"-0.003": 18.4534333195,
			"-0.002": 21.121559388,
			"-0.001": 18.3435413161,
			"0.0": 11.6066013054,
			"0.001": 11.3076223485,
			"0.002": 17.4586765822,
			"0.003": 11.3914786796,
			"0.004": 6.12421890547,
			"0.005": 6.00936642202,
			"0.006": 5.6174617916,
			"0.007": 5.60517161086,
			"0.008": 6.2570859291,
			"0.009": 7.94926053912,
			"0.01": 12.3587162687,
			"0.011": 9.17113341282,
			"0.012": 5.12331055391,
			"0.013": 1.52268150853,
			"0.014": 0.0419654564399,
			"0.015": 0.0,
			"0.016": 0.0,
			"0.017": 0.0,
			"0.018": 0.0,
			"0.019": 0.0,
			"0.02": 0.0,
			"0.021": 0.0,
			"0.022": 0.0,
			"0.023": 0.0,
			"0.024": 0.0,
			"0.025": 0.0
		}
	}
}
