{
	 "smiles": "CC(C)N1C(=O)NC2=C(C=CC(=C2)C(O)=O)C1=O", 
	 "Tm": 606.15, 
	 "num_atms": 30, 
	 "gaussian": { 
		 "optdone": 1, 
		 "sigma_profile": "yes", 
		 "theory": "DFT", 
		 "functional": "B3LYP", 
		 "basiset": "6-31G**", 
		 "properties": { 
			 "R2extent": 7326.5409, 
			 "electric_dipole_moment_norm": 2.10587441458, 
			 "electric_quadrupole_moment_norm": 24.8597989541, 
			 "total_energy": -874.980553925, 
			 "HOMO_LUMO_gap": 0.16769, 
			 "cosmo_polarized_energy": -21.58, 
			 "cosmo_cavitation_energy": 33.87, 
			 "cosmo_dispersion_energy": -24.66, 
			 "cosmo_repulsion_energy": 1.87, 
			 "cosmo_total_nonelectrostatic_energy": 11.07, 
			 "SMD_solvation_energy": 8.14 
		},
		"coords": [
			{
				"x": -0.1642281671,
				"y": 2.5075320209,
				"z": 1.2803720188,
				"element": "C" 
			},
			{
				"x": 1.2318482847,
				"y": 1.9632589007,
				"z": 0.9580549565,
				"element": "C" 
			},
			{
				"x": 2.272107012,
				"y": 2.2722509771,
				"z": 2.0404262865,
				"element": "C" 
			},
			{
				"x": 1.191928064,
				"y": 0.50217896,
				"z": 0.6332852651,
				"element": "N" 
			},
			{
				"x": 0.7939460227,
				"y": -0.3940118995,
				"z": 1.6324768451,
				"element": "C" 
			},
			{
				"x": 0.4746436381,
				"y": -0.05510034,
				"z": 2.7607199867,
				"element": "O" 
			},
			{
				"x": 0.7769633587,
				"y": -1.7332304794,
				"z": 1.2705468594,
				"element": "N" 
			},
			{
				"x": 1.11597486,
				"y": -2.2379942633,
				"z": 0.0306169314,
				"element": "C" 
			},
			{
				"x": 1.5137415174,
				"y": -1.3294012719,
				"z": -0.9629638177,
				"element": "C" 
			},
			{
				"x": 1.8735237591,
				"y": -1.8005140137,
				"z": -2.2302320831,
				"element": "C" 
			},
			{
				"x": 1.8238837056,
				"y": -3.1584374129,
				"z": -2.5138632714,
				"element": "C" 
			},
			{
				"x": 1.41127498,
				"y": -4.065997539,
				"z": -1.5194325959,
				"element": "C" 
			},
			{
				"x": 1.0721030148,
				"y": -3.6092267537,
				"z": -0.2473488926,
				"element": "C" 
			},
			{
				"x": 1.3409016375,
				"y": -5.5515329247,
				"z": -1.7470849484,
				"element": "C" 
			},
			{
				"x": 1.2543904015,
				"y": -5.9678554562,
				"z": -3.0351427296,
				"element": "O" 
			},
			{
				"x": 1.3556508448,
				"y": -6.3560059268,
				"z": -0.8460684363,
				"element": "O" 
			},
			{
				"x": 1.5623479818,
				"y": 0.1194631567,
				"z": -0.6717908168,
				"element": "C" 
			},
			{
				"x": 1.9030062272,
				"y": 0.9407882203,
				"z": -1.5119770171,
				"element": "O" 
			},
			{
				"x": -0.8661495986,
				"y": 2.2802480195,
				"z": 0.4718586595,
				"element": "H" 
			},
			{
				"x": -0.1084305218,
				"y": 3.5964879781,
				"z": 1.3780346337,
				"element": "H" 
			},
			{
				"x": -0.5504434905,
				"y": 2.0935562313,
				"z": 2.2129018653,
				"element": "H" 
			},
			{
				"x": 1.567037272,
				"y": 2.409318197,
				"z": 0.0217475702,
				"element": "H" 
			},
			{
				"x": 1.9856015798,
				"y": 1.8492813641,
				"z": 3.0043282175,
				"element": "H" 
			},
			{
				"x": 3.2547265026,
				"y": 1.8816352349,
				"z": 1.7578317393,
				"element": "H" 
			},
			{
				"x": 2.3625638102,
				"y": 3.3579385023,
				"z": 2.1480592996,
				"element": "H" 
			},
			{
				"x": 0.4890771017,
				"y": -2.3514928605,
				"z": 2.0166576473,
				"element": "H" 
			},
			{
				"x": 2.1944568908,
				"y": -1.0744551221,
				"z": -2.9689714166,
				"element": "H" 
			},
			{
				"x": 2.148886183,
				"y": -3.5076248752,
				"z": -3.4898399415,
				"element": "H" 
			},
			{
				"x": 0.7805004257,
				"y": -4.3306781586,
				"z": 0.5089215438,
				"element": "H" 
			},
			{
				"x": 1.0986667021,
				"y": -5.2164784654,
				"z": -3.6242243586,
				"element": "H" 
			}
		],
		 "valence_orbital": [ 
			{
				"type": "occ",
				"energy": -0.29083,
				"method": "rhf"
			},
			{
				"type": "occ",
				"energy": -0.28243,
				"method": "rhf"
			},
			{
				"type": "occ",
				"energy": -0.28074,
				"method": "rhf"
			},
			{
				"type": "occ",
				"energy": -0.27716,
				"method": "rhf"
			},
			{
				"type": "occ",
				"energy": -0.25195,
				"method": "rhf"
			},
			{
				"type": "unocc",
				"energy": -0.08426,
				"method": "rhf"
			},
			{
				"type": "unocc",
				"energy": -0.03962,
				"method": "rhf"
			},
			{
				"type": "unocc",
				"energy": -0.00252,
				"method": "rhf"
			},
			{
				"type": "unocc",
				"energy": 0.01889,
				"method": "rhf"
			},
			{
				"type": "unocc",
				"energy": 0.05071,
				"method": "rhf"
			}
		],
		"cosmo_sigma_profile": { 
			"-0.025": 0.0,
			"-0.024": 0.0,
			"-0.023": 0.0,
			"-0.022": 0.0,
			"-0.021": 0.0,
			"-0.02": 0.0,
			"-0.019": 0.414257052752,
			"-0.018": 1.2199588359,
			"-0.017": 1.13431429763,
			"-0.016": 2.39652358138,
			"-0.015": 2.29119918522,
			"-0.014": 2.08035581835,
			"-0.013": 2.53548108225,
			"-0.012": 2.52846806936,
			"-0.011": 2.02889975829,
			"-0.01": 2.37238343965,
			"-0.009": 2.61490882575,
			"-0.008": 3.34296498653,
			"-0.007": 5.969507848,
			"-0.006": 6.63467746764,
			"-0.005": 6.81960422551,
			"-0.004": 18.1401077696,
			"-0.003": 22.4802161298,
			"-0.002": 23.6843822167,
			"-0.001": 25.2072774629,
			"0.0": 29.285977841,
			"0.001": 25.2273041274,
			"0.002": 9.68528830694,
			"0.003": 5.70339525833,
			"0.004": 5.9090364277,
			"0.005": 5.13676992379,
			"0.006": 6.28620838427,
			"0.007": 5.37203681184,
			"0.008": 5.97946486891,
			"0.009": 5.8743104905,
			"0.01": 8.85030825547,
			"0.011": 10.3112785468,
			"0.012": 9.4387083574,
			"0.013": 2.59246267837,
			"0.014": 0.0,
			"0.015": 0.0,
			"0.016": 0.0,
			"0.017": 0.0,
			"0.018": 0.0,
			"0.019": 0.0,
			"0.02": 0.0,
			"0.021": 0.0,
			"0.022": 0.0,
			"0.023": 0.0,
			"0.024": 0.0,
			"0.025": 0.0
		}
	}
}
