{
	 "smiles": "CN1N=C(C)C(CCC(O)=O)=C1C", 
	 "Tm": 411.15, 
	 "num_atms": 27, 
	 "gaussian": { 
		 "optdone": 1, 
		 "sigma_profile": "yes", 
		 "theory": "DFT", 
		 "functional": "B3LYP", 
		 "basiset": "6-31G**", 
		 "properties": { 
			 "R2extent": 3145.8089, 
			 "electric_dipole_moment_norm": 3.10843042708, 
			 "electric_quadrupole_moment_norm": 16.1924038175, 
			 "total_energy": -611.361850912, 
			 "HOMO_LUMO_gap": 0.22976, 
			 "cosmo_polarized_energy": -14.24, 
			 "cosmo_cavitation_energy": 30.37, 
			 "cosmo_dispersion_energy": -20.71, 
			 "cosmo_repulsion_energy": 1.67, 
			 "cosmo_total_nonelectrostatic_energy": 11.32, 
			 "SMD_solvation_energy": 5.32 
		},
		"coords": [
			{
				"x": 0.202857376,
				"y": 4.107290259,
				"z": -0.0190945754,
				"element": "C" 
			},
			{
				"x": -0.098622026,
				"y": 2.7844678363,
				"z": 0.4886366146,
				"element": "N" 
			},
			{
				"x": -0.5789665105,
				"y": 2.6478507087,
				"z": 1.749180979,
				"element": "N" 
			},
			{
				"x": -0.7512803209,
				"y": 1.337494827,
				"z": 1.9144720224,
				"element": "C" 
			},
			{
				"x": -1.2721598382,
				"y": 0.8047655862,
				"z": 3.2153038151,
				"element": "C" 
			},
			{
				"x": -0.3760960988,
				"y": 0.6131968521,
				"z": 0.7483737081,
				"element": "C" 
			},
			{
				"x": -0.4166010157,
				"y": -0.8767924666,
				"z": 0.5544929917,
				"element": "C" 
			},
			{
				"x": -1.8256195025,
				"y": -1.4476580446,
				"z": 0.2657142394,
				"element": "C" 
			},
			{
				"x": -2.4363953522,
				"y": -0.9803689071,
				"z": -1.036507516,
				"element": "C" 
			},
			{
				"x": -1.5946317362,
				"y": -1.1658466271,
				"z": -2.0917552304,
				"element": "O" 
			},
			{
				"x": -3.5461978914,
				"y": -0.519793431,
				"z": -1.1788148182,
				"element": "O" 
			},
			{
				"x": 0.0398472408,
				"y": 1.587467467,
				"z": -0.1527925439,
				"element": "C" 
			},
			{
				"x": 0.5749119101,
				"y": 1.4886704182,
				"z": -1.5467273938,
				"element": "C" 
			},
			{
				"x": -0.0245733716,
				"y": 4.814108594,
				"z": 0.778029073,
				"element": "H" 
			},
			{
				"x": 1.2601505511,
				"y": 4.1979302835,
				"z": -0.291098977,
				"element": "H" 
			},
			{
				"x": -0.4083308287,
				"y": 4.3458315712,
				"z": -0.8964986538,
				"element": "H" 
			},
			{
				"x": -1.3466216519,
				"y": 1.6176138294,
				"z": 3.9411731043,
				"element": "H" 
			},
			{
				"x": -0.6122468743,
				"y": 0.0331038433,
				"z": 3.6294934364,
				"element": "H" 
			},
			{
				"x": -2.2671346296,
				"y": 0.356599625,
				"z": 3.1064162327,
				"element": "H" 
			},
			{
				"x": -0.0435921833,
				"y": -1.3730209508,
				"z": 1.4590434603,
				"element": "H" 
			},
			{
				"x": 0.2559766972,
				"y": -1.1747417329,
				"z": -0.2555205696,
				"element": "H" 
			},
			{
				"x": -2.5295815476,
				"y": -1.1835265744,
				"z": 1.0572342776,
				"element": "H" 
			},
			{
				"x": -1.7666410408,
				"y": -2.5432210487,
				"z": 0.2206714914,
				"element": "H" 
			},
			{
				"x": -2.0824295281,
				"y": -0.8556132616,
				"z": -2.8731180966,
				"element": "H" 
			},
			{
				"x": 1.6344643634,
				"y": 1.7694713894,
				"z": -1.6003823102,
				"element": "H" 
			},
			{
				"x": 0.030430269,
				"y": 2.1450517736,
				"z": -2.2361349959,
				"element": "H" 
			},
			{
				"x": 0.4733835404,
				"y": 0.4680681808,
				"z": -1.9190897654,
				"element": "H" 
			}
		],
		 "valence_orbital": [ 
			{
				"type": "occ",
				"energy": -0.31696,
				"method": "rhf"
			},
			{
				"type": "occ",
				"energy": -0.27139,
				"method": "rhf"
			},
			{
				"type": "occ",
				"energy": -0.27063,
				"method": "rhf"
			},
			{
				"type": "occ",
				"energy": -0.22511,
				"method": "rhf"
			},
			{
				"type": "occ",
				"energy": -0.22079,
				"method": "rhf"
			},
			{
				"type": "unocc",
				"energy": 0.00897,
				"method": "rhf"
			},
			{
				"type": "unocc",
				"energy": 0.0313,
				"method": "rhf"
			},
			{
				"type": "unocc",
				"energy": 0.0626,
				"method": "rhf"
			},
			{
				"type": "unocc",
				"energy": 0.07542,
				"method": "rhf"
			},
			{
				"type": "unocc",
				"energy": 0.09219,
				"method": "rhf"
			}
		],
		"cosmo_sigma_profile": { 
			"-0.025": 0.0,
			"-0.024": 0.0,
			"-0.023": 0.0,
			"-0.022": 0.0,
			"-0.021": 0.0,
			"-0.02": 0.0,
			"-0.019": 0.0,
			"-0.018": 0.37844604401,
			"-0.017": 0.730376486819,
			"-0.016": 0.87639597018,
			"-0.015": 0.994190322654,
			"-0.014": 0.842245848773,
			"-0.013": 0.623089171668,
			"-0.012": 0.488572706053,
			"-0.011": 0.509877312515,
			"-0.01": 1.08497023614,
			"-0.009": 0.668125728058,
			"-0.008": 0.450895403681,
			"-0.007": 0.862402975027,
			"-0.006": 7.12848275485,
			"-0.005": 14.5549808473,
			"-0.004": 26.7838279502,
			"-0.003": 29.2797252874,
			"-0.002": 29.1059446301,
			"-0.001": 20.7185151247,
			"0.0": 20.5737278471,
			"0.001": 12.5128522589,
			"0.002": 8.19693275746,
			"0.003": 6.96016226204,
			"0.004": 7.88755975459,
			"0.005": 7.03037180707,
			"0.006": 5.9763214104,
			"0.007": 4.74232036235,
			"0.008": 4.08939219904,
			"0.009": 3.53781206378,
			"0.01": 3.53250597132,
			"0.011": 5.10404292412,
			"0.012": 5.80935318384,
			"0.013": 2.36907479783,
			"0.014": 1.49797203465,
			"0.015": 0.785494806827,
			"0.016": 0.679346881862,
			"0.017": 0.412214077708,
			"0.018": 0.0,
			"0.019": 0.0,
			"0.02": 0.0,
			"0.021": 0.0,
			"0.022": 0.0,
			"0.023": 0.0,
			"0.024": 0.0,
			"0.025": 0.0
		}
	}
}
