{
	 "smiles": "CCCCCC(O)CC(=O)CCC1=CC(O)=C(OC)C=C1", 
	 "Tm": 304.15, 
	 "num_atms": 47, 
	 "gaussian": { 
		 "optdone": 1, 
		 "sigma_profile": "yes", 
		 "theory": "DFT", 
		 "functional": "B3LYP", 
		 "basiset": "6-31G**", 
		 "properties": { 
			 "R2extent": 11622.8335, 
			 "electric_dipole_moment_norm": 2.83229833351, 
			 "electric_quadrupole_moment_norm": 29.8053273215, 
			 "total_energy": -964.377347791, 
			 "HOMO_LUMO_gap": 0.18381, 
			 "cosmo_polarized_energy": -15.82, 
			 "cosmo_cavitation_energy": 48.24, 
			 "cosmo_dispersion_energy": -33.32, 
			 "cosmo_repulsion_energy": 2.64, 
			 "cosmo_total_nonelectrostatic_energy": 17.56, 
			 "SMD_solvation_energy": 8.62 
		},
		"coords": [
			{
				"x": 4.1327645677,
				"y": 1.9586277685,
				"z": -2.0397115476,
				"element": "C" 
			},
			{
				"x": 5.2077850664,
				"y": 1.2661301763,
				"z": -1.1934288119,
				"element": "C" 
			},
			{
				"x": 4.7329118845,
				"y": 0.8201009039,
				"z": 0.1994018146,
				"element": "C" 
			},
			{
				"x": 3.6670235578,
				"y": -0.2851572604,
				"z": 0.1847144448,
				"element": "C" 
			},
			{
				"x": 3.2473941603,
				"y": -0.7194767612,
				"z": 1.5950377126,
				"element": "C" 
			},
			{
				"x": 2.3562690619,
				"y": -1.9677693771,
				"z": 1.6504764714,
				"element": "C" 
			},
			{
				"x": 2.0129939883,
				"y": -2.2926536151,
				"z": 3.0015613854,
				"element": "O" 
			},
			{
				"x": 1.0193212599,
				"y": -1.8589821146,
				"z": 0.8896172917,
				"element": "C" 
			},
			{
				"x": 0.1556839398,
				"y": -0.6944303446,
				"z": 1.3682019031,
				"element": "C" 
			},
			{
				"x": 0.3685439677,
				"y": 0.4370776914,
				"z": 0.9621325102,
				"element": "O" 
			},
			{
				"x": -0.9075339957,
				"y": -1.0078150745,
				"z": 2.406743467,
				"element": "C" 
			},
			{
				"x": -1.8169417389,
				"y": 0.1739934434,
				"z": 2.7885797344,
				"element": "C" 
			},
			{
				"x": -2.9679342638,
				"y": 0.4065917937,
				"z": 1.8283056345,
				"element": "C" 
			},
			{
				"x": -2.7822206264,
				"y": 1.135093744,
				"z": 0.6414658305,
				"element": "C" 
			},
			{
				"x": -3.8360965735,
				"y": 1.3279694583,
				"z": -0.2439023755,
				"element": "C" 
			},
			{
				"x": -3.6446222694,
				"y": 2.0400043087,
				"z": -1.390784722,
				"element": "O" 
			},
			{
				"x": -5.1066110535,
				"y": 0.7888424273,
				"z": 0.0444085162,
				"element": "C" 
			},
			{
				"x": -6.0562049658,
				"y": 1.0584309491,
				"z": -0.9170118585,
				"element": "O" 
			},
			{
				"x": -7.3701168315,
				"y": 0.5685912104,
				"z": -0.7104003652,
				"element": "C" 
			},
			{
				"x": -5.3036664242,
				"y": 0.0665647129,
				"z": 1.2160956528,
				"element": "C" 
			},
			{
				"x": -4.2335630015,
				"y": -0.1193486819,
				"z": 2.1012652444,
				"element": "C" 
			},
			{
				"x": 4.5438407873,
				"y": 2.2980517705,
				"z": -2.996294624,
				"element": "H" 
			},
			{
				"x": 3.293137103,
				"y": 1.2924409047,
				"z": -2.2616444683,
				"element": "H" 
			},
			{
				"x": 3.7278598497,
				"y": 2.8354667578,
				"z": -1.5215065319,
				"element": "H" 
			},
			{
				"x": 5.5978285364,
				"y": 0.3945273976,
				"z": -1.7375984814,
				"element": "H" 
			},
			{
				"x": 6.0579730297,
				"y": 1.9492658598,
				"z": -1.0697454178,
				"element": "H" 
			},
			{
				"x": 4.3402151143,
				"y": 1.6909643784,
				"z": 0.7431097545,
				"element": "H" 
			},
			{
				"x": 5.6016139054,
				"y": 0.4685799422,
				"z": 0.7734545991,
				"element": "H" 
			},
			{
				"x": 4.0558221579,
				"y": -1.1513984677,
				"z": -0.3716347404,
				"element": "H" 
			},
			{
				"x": 2.7777805023,
				"y": 0.0659556725,
				"z": -0.3482649156,
				"element": "H" 
			},
			{
				"x": 4.1496733429,
				"y": -0.939116191,
				"z": 2.1875638911,
				"element": "H" 
			},
			{
				"x": 2.7333587157,
				"y": 0.1071760828,
				"z": 2.097677283,
				"element": "H" 
			},
			{
				"x": 2.9084258847,
				"y": -2.8084373589,
				"z": 1.196864103,
				"element": "H" 
			},
			{
				"x": 2.8222586562,
				"y": -2.2655179645,
				"z": 3.5283301566,
				"element": "H" 
			},
			{
				"x": 1.2263520674,
				"y": -1.7114994557,
				"z": -0.1738690897,
				"element": "H" 
			},
			{
				"x": 0.4910315916,
				"y": -2.8096740993,
				"z": 1.0125904011,
				"element": "H" 
			},
			{
				"x": -1.4992769626,
				"y": -1.8649220616,
				"z": 2.0597114221,
				"element": "H" 
			},
			{
				"x": -0.3457458656,
				"y": -1.3779361621,
				"z": 3.2768627938,
				"element": "H" 
			},
			{
				"x": -2.2242515136,
				"y": -0.0157500391,
				"z": 3.7875539738,
				"element": "H" 
			},
			{
				"x": -1.1987247983,
				"y": 1.0747993116,
				"z": 2.8580361557,
				"element": "H" 
			},
			{
				"x": -1.8110133502,
				"y": 1.5517632954,
				"z": 0.3982314985,
				"element": "H" 
			},
			{
				"x": -4.4957055591,
				"y": 2.060147169,
				"z": -1.8543717407,
				"element": "H" 
			},
			{
				"x": -7.9567506469,
				"y": 0.8894610717,
				"z": -1.5728110209,
				"element": "H" 
			},
			{
				"x": -7.3845206579,
				"y": -0.5272602203,
				"z": -0.6500346005,
				"element": "H" 
			},
			{
				"x": -7.8133328898,
				"y": 0.9832551249,
				"z": 0.2040695687,
				"element": "H" 
			},
			{
				"x": -6.2770915706,
				"y": -0.3480223375,
				"z": 1.4534846151,
				"element": "H" 
			},
			{
				"x": -4.3995371396,
				"y": -0.6785057396,
				"z": 3.0183674822,
				"element": "H" 
			}
		],
		 "valence_orbital": [ 
			{
				"type": "occ",
				"energy": -0.30168,
				"method": "rhf"
			},
			{
				"type": "occ",
				"energy": -0.27182,
				"method": "rhf"
			},
			{
				"type": "occ",
				"energy": -0.23877,
				"method": "rhf"
			},
			{
				"type": "occ",
				"energy": -0.2237,
				"method": "rhf"
			},
			{
				"type": "occ",
				"energy": -0.19476,
				"method": "rhf"
			},
			{
				"type": "unocc",
				"energy": -0.01095,
				"method": "rhf"
			},
			{
				"type": "unocc",
				"energy": 0.01734,
				"method": "rhf"
			},
			{
				"type": "unocc",
				"energy": 0.02594,
				"method": "rhf"
			},
			{
				"type": "unocc",
				"energy": 0.07165,
				"method": "rhf"
			},
			{
				"type": "unocc",
				"energy": 0.0863,
				"method": "rhf"
			}
		],
		"cosmo_sigma_profile": { 
			"-0.025": 0.0,
			"-0.024": 0.0,
			"-0.023": 0.0,
			"-0.022": 0.0,
			"-0.021": 0.0,
			"-0.02": 0.0,
			"-0.019": 0.0,
			"-0.018": 0.0,
			"-0.017": 0.0,
			"-0.016": 0.0,
			"-0.015": 0.700425283372,
			"-0.014": 1.07746722235,
			"-0.013": 1.88575068036,
			"-0.012": 1.62360517154,
			"-0.011": 1.37911697326,
			"-0.01": 1.0160996243,
			"-0.009": 1.59814932252,
			"-0.008": 2.01694603162,
			"-0.007": 1.59100257745,
			"-0.006": 8.3672106145,
			"-0.005": 18.6835054068,
			"-0.004": 25.1818106436,
			"-0.003": 35.363156302,
			"-0.002": 44.485356223,
			"-0.001": 43.8193529669,
			"0.0": 40.9818250485,
			"0.001": 35.7919581792,
			"0.002": 22.4130065935,
			"0.003": 14.6071829006,
			"0.004": 14.7324374585,
			"0.005": 15.8221558142,
			"0.006": 12.5206775236,
			"0.007": 6.69901176763,
			"0.008": 3.78700025653,
			"0.009": 5.37140658913,
			"0.01": 3.65979748018,
			"0.011": 4.08368219686,
			"0.012": 4.32786790107,
			"0.013": 1.19024964602,
			"0.014": 0.357353211108,
			"0.015": 0.0111541057674,
			"0.016": 0.0,
			"0.017": 0.0,
			"0.018": 0.0,
			"0.019": 0.0,
			"0.02": 0.0,
			"0.021": 0.0,
			"0.022": 0.0,
			"0.023": 0.0,
			"0.024": 0.0,
			"0.025": 0.0
		}
	}
}
