{
	 "smiles": "CC1=C(C(O)=O)C(F)=CC=C1", 
	 "Tm": 388.15, 
	 "num_atms": 18, 
	 "gaussian": { 
		 "optdone": 1, 
		 "sigma_profile": "yes", 
		 "theory": "DFT", 
		 "functional": "B3LYP", 
		 "basiset": "6-31G**", 
		 "properties": { 
			 "R2extent": 2544.5608, 
			 "electric_dipole_moment_norm": 4.69113528477, 
			 "electric_quadrupole_moment_norm": 15.249959918, 
			 "total_energy": -559.367097409, 
			 "HOMO_LUMO_gap": 0.20705, 
			 "cosmo_polarized_energy": -10.06, 
			 "cosmo_cavitation_energy": 22.02, 
			 "cosmo_dispersion_energy": -16.63, 
			 "cosmo_repulsion_energy": 1.29, 
			 "cosmo_total_nonelectrostatic_energy": 6.68, 
			 "SMD_solvation_energy": 5.3 
		},
		"coords": [
			{
				"x": 0.756911313,
				"y": -0.3107080581,
				"z": 2.7966197476,
				"element": "C" 
			},
			{
				"x": -0.0971227173,
				"y": -0.4496370096,
				"z": 1.5588384929,
				"element": "C" 
			},
			{
				"x": -1.3610426255,
				"y": 0.1873564605,
				"z": 1.4020318099,
				"element": "C" 
			},
			{
				"x": -1.9223888859,
				"y": 1.0497248603,
				"z": 2.5088283656,
				"element": "C" 
			},
			{
				"x": -3.0798046888,
				"y": 1.7045294658,
				"z": 2.2828642706,
				"element": "O" 
			},
			{
				"x": -1.371843383,
				"y": 1.1774091586,
				"z": 3.580391651,
				"element": "O" 
			},
			{
				"x": -2.0329423349,
				"y": -0.0391370642,
				"z": 0.1903606429,
				"element": "C" 
			},
			{
				"x": -3.2551297631,
				"y": 0.544138875,
				"z": -0.0331913555,
				"element": "F" 
			},
			{
				"x": -1.5546903242,
				"y": -0.8285574787,
				"z": -0.840616386,
				"element": "C" 
			},
			{
				"x": -0.3178730305,
				"y": -1.441756721,
				"z": -0.6676860146,
				"element": "C" 
			},
			{
				"x": 0.3914357078,
				"y": -1.2476071287,
				"z": 0.5151396169,
				"element": "C" 
			},
			{
				"x": 0.9869462018,
				"y": 0.7349800096,
				"z": 3.0130661309,
				"element": "H" 
			},
			{
				"x": 1.6911430134,
				"y": -0.862450002,
				"z": 2.6624423516,
				"element": "H" 
			},
			{
				"x": 0.2422730041,
				"y": -0.6884130173,
				"z": 3.683072917,
				"element": "H" 
			},
			{
				"x": -3.4271853777,
				"y": 1.5038432508,
				"z": 1.4004573443,
				"element": "H" 
			},
			{
				"x": -2.1475969815,
				"y": -0.9452358334,
				"z": -1.7404829231,
				"element": "H" 
			},
			{
				"x": 0.0911092436,
				"y": -2.0681979434,
				"z": -1.4543681238,
				"element": "H" 
			},
			{
				"x": 1.3566016289,
				"y": -1.7282818241,
				"z": 0.6409314617,
				"element": "H" 
			}
		],
		 "valence_orbital": [ 
			{
				"type": "occ",
				"energy": -0.35814,
				"method": "rhf"
			},
			{
				"type": "occ",
				"energy": -0.30948,
				"method": "rhf"
			},
			{
				"type": "occ",
				"energy": -0.27456,
				"method": "rhf"
			},
			{
				"type": "occ",
				"energy": -0.26909,
				"method": "rhf"
			},
			{
				"type": "occ",
				"energy": -0.26328,
				"method": "rhf"
			},
			{
				"type": "unocc",
				"energy": -0.05623,
				"method": "rhf"
			},
			{
				"type": "unocc",
				"energy": -0.019,
				"method": "rhf"
			},
			{
				"type": "unocc",
				"energy": 0.04839,
				"method": "rhf"
			},
			{
				"type": "unocc",
				"energy": 0.06789,
				"method": "rhf"
			},
			{
				"type": "unocc",
				"energy": 0.09977,
				"method": "rhf"
			}
		],
		"cosmo_sigma_profile": { 
			"-0.025": 0.0,
			"-0.024": 0.0,
			"-0.023": 0.0,
			"-0.022": 0.0,
			"-0.021": 0.0,
			"-0.02": 0.0,
			"-0.019": 0.0,
			"-0.018": 0.0,
			"-0.017": 0.0,
			"-0.016": 0.0,
			"-0.015": 0.0,
			"-0.014": 0.0,
			"-0.013": 0.0,
			"-0.012": 0.597720226537,
			"-0.011": 0.941673261769,
			"-0.01": 0.961557226205,
			"-0.009": 1.76216803251,
			"-0.008": 3.35071810359,
			"-0.007": 6.54698888937,
			"-0.006": 9.57235131597,
			"-0.005": 10.1146978052,
			"-0.004": 10.0247664043,
			"-0.003": 11.7556048463,
			"-0.002": 13.9086577804,
			"-0.001": 17.307067805,
			"0.0": 19.5220034226,
			"0.001": 16.0720672676,
			"0.002": 14.1187940771,
			"0.003": 10.1886283442,
			"0.004": 2.33903410544,
			"0.005": 2.54690706378,
			"0.006": 2.38003785159,
			"0.007": 1.6002653229,
			"0.008": 3.31655430555,
			"0.009": 2.43634874595,
			"0.01": 3.86448172935,
			"0.011": 4.46344489116,
			"0.012": 4.06647693304,
			"0.013": 2.3040786728,
			"0.014": 0.33789885968,
			"0.015": 0.0,
			"0.016": 0.0,
			"0.017": 0.0,
			"0.018": 0.0,
			"0.019": 0.0,
			"0.02": 0.0,
			"0.021": 0.0,
			"0.022": 0.0,
			"0.023": 0.0,
			"0.024": 0.0,
			"0.025": 0.0
		}
	}
}
