{
	 "smiles": "CC1=CC2=CC=CC=C2C(C)=C1", 
	 "Tm": 268.15, 
	 "num_atms": 24, 
	 "gaussian": { 
		 "optdone": 1, 
		 "sigma_profile": "yes", 
		 "theory": "DFT", 
		 "functional": "B3LYP", 
		 "basiset": "6-31G**", 
		 "properties": { 
			 "R2extent": 2451.9692, 
			 "electric_dipole_moment_norm": 0.484740394438, 
			 "electric_quadrupole_moment_norm": 6.27244651153, 
			 "total_energy": -464.536227175, 
			 "HOMO_LUMO_gap": 0.17466, 
			 "cosmo_polarized_energy": -4.48, 
			 "cosmo_cavitation_energy": 26.49, 
			 "cosmo_dispersion_energy": -19.6, 
			 "cosmo_repulsion_energy": 1.53, 
			 "cosmo_total_nonelectrostatic_energy": 8.42, 
			 "SMD_solvation_energy": 4.29 
		},
		"coords": [
			{
				"x": 1.6278725339,
				"y": -0.0241409738,
				"z": -2.4022395142,
				"element": "C" 
			},
			{
				"x": 0.7373983498,
				"y": -0.4085540604,
				"z": -1.2458321025,
				"element": "C" 
			},
			{
				"x": -0.3114643691,
				"y": 0.3853305089,
				"z": -0.8403177384,
				"element": "C" 
			},
			{
				"x": -1.1434477112,
				"y": 0.0123533557,
				"z": 0.2505755857,
				"element": "C" 
			},
			{
				"x": -2.2259268042,
				"y": 0.8307112464,
				"z": 0.6697528637,
				"element": "C" 
			},
			{
				"x": -3.0275593341,
				"y": 0.4625304251,
				"z": 1.7275001472,
				"element": "C" 
			},
			{
				"x": -2.77855248,
				"y": -0.7475882627,
				"z": 2.4149457104,
				"element": "C" 
			},
			{
				"x": -1.7352322647,
				"y": -1.5638306102,
				"z": 2.0320515547,
				"element": "C" 
			},
			{
				"x": -0.888441627,
				"y": -1.2149383458,
				"z": 0.9454279647,
				"element": "C" 
			},
			{
				"x": 0.2063306913,
				"y": -2.0384140677,
				"z": 0.5184467984,
				"element": "C" 
			},
			{
				"x": 0.5124454917,
				"y": -3.3395894855,
				"z": 1.2209420642,
				"element": "C" 
			},
			{
				"x": 0.9781150798,
				"y": -1.6240739363,
				"z": -0.5460020395,
				"element": "C" 
			},
			{
				"x": 1.3243143097,
				"y": 0.9302817273,
				"z": -2.8408415855,
				"element": "H" 
			},
			{
				"x": 2.6737547712,
				"y": 0.0685875147,
				"z": -2.0857511416,
				"element": "H" 
			},
			{
				"x": 1.6010338854,
				"y": -0.7819872436,
				"z": -3.1944601516,
				"element": "H" 
			},
			{
				"x": -0.519396035,
				"y": 1.3201128409,
				"z": -1.3564234748,
				"element": "H" 
			},
			{
				"x": -2.4117373809,
				"y": 1.7598985117,
				"z": 0.1366456292,
				"element": "H" 
			},
			{
				"x": -3.8517157547,
				"y": 1.0994752723,
				"z": 2.0359459695,
				"element": "H" 
			},
			{
				"x": -3.4133104338,
				"y": -1.0341192003,
				"z": 3.2486699758,
				"element": "H" 
			},
			{
				"x": -1.5569317728,
				"y": -2.4893490996,
				"z": 2.5696584906,
				"element": "H" 
			},
			{
				"x": -0.3336350857,
				"y": -4.0354635731,
				"z": 1.172963469,
				"element": "H" 
			},
			{
				"x": 0.7387879064,
				"y": -3.1841148978,
				"z": 2.2825457614,
				"element": "H" 
			},
			{
				"x": 1.3750069189,
				"y": -3.8330897314,
				"z": 0.7658861452,
				"element": "H" 
			},
			{
				"x": 1.8079911151,
				"y": -2.2503279148,
				"z": -0.8680903815,
				"element": "H" 
			}
		],
		 "valence_orbital": [ 
			{
				"type": "occ",
				"energy": -0.31929,
				"method": "rhf"
			},
			{
				"type": "occ",
				"energy": -0.30933,
				"method": "rhf"
			},
			{
				"type": "occ",
				"energy": -0.27014,
				"method": "rhf"
			},
			{
				"type": "occ",
				"energy": -0.23227,
				"method": "rhf"
			},
			{
				"type": "occ",
				"energy": -0.20559,
				"method": "rhf"
			},
			{
				"type": "unocc",
				"energy": -0.03093,
				"method": "rhf"
			},
			{
				"type": "unocc",
				"energy": -0.00329,
				"method": "rhf"
			},
			{
				"type": "unocc",
				"energy": 0.04148,
				"method": "rhf"
			},
			{
				"type": "unocc",
				"energy": 0.09664,
				"method": "rhf"
			},
			{
				"type": "unocc",
				"energy": 0.09715,
				"method": "rhf"
			}
		],
		"cosmo_sigma_profile": { 
			"-0.025": 0.0,
			"-0.024": 0.0,
			"-0.023": 0.0,
			"-0.022": 0.0,
			"-0.021": 0.0,
			"-0.02": 0.0,
			"-0.019": 0.0,
			"-0.018": 0.0,
			"-0.017": 0.0,
			"-0.016": 0.0,
			"-0.015": 0.0,
			"-0.014": 0.0,
			"-0.013": 0.0,
			"-0.012": 0.0,
			"-0.011": 0.0,
			"-0.01": 0.0,
			"-0.009": 0.0,
			"-0.008": 0.0,
			"-0.007": 0.0,
			"-0.006": 1.70376029788,
			"-0.005": 12.5895044816,
			"-0.004": 23.8487933929,
			"-0.003": 25.6988473222,
			"-0.002": 20.807503996,
			"-0.001": 18.8928024033,
			"0.0": 21.3339643889,
			"0.001": 15.7685542587,
			"0.002": 10.7807210821,
			"0.003": 11.7563156933,
			"0.004": 14.1859207423,
			"0.005": 22.1882092572,
			"0.006": 10.6583159432,
			"0.007": 0.0396598914944,
			"0.008": 0.0,
			"0.009": 0.0,
			"0.01": 0.0,
			"0.011": 0.0,
			"0.012": 0.0,
			"0.013": 0.0,
			"0.014": 0.0,
			"0.015": 0.0,
			"0.016": 0.0,
			"0.017": 0.0,
			"0.018": 0.0,
			"0.019": 0.0,
			"0.02": 0.0,
			"0.021": 0.0,
			"0.022": 0.0,
			"0.023": 0.0,
			"0.024": 0.0,
			"0.025": 0.0
		}
	}
}
