{
	 "smiles": "CC(=NO)C1=CN(C=C1)S(=O)(=O)C1=CC=CC=C1", 
	 "Tm": 437.15, 
	 "num_atms": 30, 
	 "gaussian": { 
		 "optdone": 1, 
		 "sigma_profile": "yes", 
		 "theory": "DFT", 
		 "functional": "B3LYP", 
		 "basiset": "6-31G**", 
		 "properties": { 
			 "R2extent": 6002.4679, 
			 "electric_dipole_moment_norm": 4.77399981567, 
			 "electric_quadrupole_moment_norm": 22.558131126, 
			 "total_energy": -1197.72861272, 
			 "HOMO_LUMO_gap": 0.16336, 
			 "cosmo_polarized_energy": -15.62, 
			 "cosmo_cavitation_energy": 36.18, 
			 "cosmo_dispersion_energy": -25.79, 
			 "cosmo_repulsion_energy": 1.96, 
			 "cosmo_total_nonelectrostatic_energy": 12.35, 
			 "SMD_solvation_energy": 6.02 
		},
		"coords": [
			{
				"x": -3.4132481191,
				"y": 0.6937807625,
				"z": -2.6880726881,
				"element": "C" 
			},
			{
				"x": -2.2047016489,
				"y": -0.1393652888,
				"z": -2.3320506795,
				"element": "C" 
			},
			{
				"x": -1.4644073349,
				"y": -0.4458152531,
				"z": -3.344168297,
				"element": "N" 
			},
			{
				"x": -0.3415894231,
				"y": -1.2170422139,
				"z": -2.9914959806,
				"element": "O" 
			},
			{
				"x": -2.0015207871,
				"y": -0.5001808304,
				"z": -0.926964212,
				"element": "C" 
			},
			{
				"x": -0.9983990499,
				"y": -1.2709368659,
				"z": -0.3630897972,
				"element": "C" 
			},
			{
				"x": -1.248427586,
				"y": -1.3570348749,
				"z": 0.9943243392,
				"element": "N" 
			},
			{
				"x": -2.3911493265,
				"y": -0.6286895072,
				"z": 1.3163736494,
				"element": "C" 
			},
			{
				"x": -2.8746268478,
				"y": -0.1030100505,
				"z": 0.1530476838,
				"element": "C" 
			},
			{
				"x": -0.1815555821,
				"y": -2.0660875878,
				"z": 2.1426583658,
				"element": "S" 
			},
			{
				"x": 0.543172313,
				"y": -3.1026598149,
				"z": 1.4152183189,
				"element": "O" 
			},
			{
				"x": -1.0079620023,
				"y": -2.3393402798,
				"z": 3.3148230182,
				"element": "O" 
			},
			{
				"x": 0.9586967801,
				"y": -0.7443982431,
				"z": 2.5426481793,
				"element": "C" 
			},
			{
				"x": 2.1103230563,
				"y": -0.5845433871,
				"z": 1.7688182953,
				"element": "C" 
			},
			{
				"x": 2.9901366674,
				"y": 0.4505571996,
				"z": 2.0833162173,
				"element": "C" 
			},
			{
				"x": 2.7162579757,
				"y": 1.3026664468,
				"z": 3.1561718294,
				"element": "C" 
			},
			{
				"x": 1.5647857374,
				"y": 1.1222933861,
				"z": 3.9263373037,
				"element": "C" 
			},
			{
				"x": 0.6744130239,
				"y": 0.0923282541,
				"z": 3.6238400984,
				"element": "C" 
			},
			{
				"x": -3.4257097699,
				"y": 0.8788741547,
				"z": -3.7629775742,
				"element": "H" 
			},
			{
				"x": -3.39654523,
				"y": 1.6567113334,
				"z": -2.1649242885,
				"element": "H" 
			},
			{
				"x": -4.3407905135,
				"y": 0.1823526435,
				"z": -2.4070269095,
				"element": "H" 
			},
			{
				"x": 0.0728440632,
				"y": -1.3665771611,
				"z": -3.8506978298,
				"element": "H" 
			},
			{
				"x": -0.1644276327,
				"y": -1.7815476313,
				"z": -0.8077098614,
				"element": "H" 
			},
			{
				"x": -2.752634265,
				"y": -0.5963280484,
				"z": 2.3314864023,
				"element": "H" 
			},
			{
				"x": -3.7716682059,
				"y": 0.4926805082,
				"z": 0.0655020389,
				"element": "H" 
			},
			{
				"x": 2.3153315126,
				"y": -1.267457705,
				"z": 0.9520093612,
				"element": "H" 
			},
			{
				"x": 3.8914412417,
				"y": 0.5873428095,
				"z": 1.4939822288,
				"element": "H" 
			},
			{
				"x": 3.4062297929,
				"y": 2.1058912851,
				"z": 3.3969970728,
				"element": "H" 
			},
			{
				"x": 1.361479769,
				"y": 1.7792468277,
				"z": 4.7663018302,
				"element": "H" 
			},
			{
				"x": -0.2149486088,
				"y": -0.0764108678,
				"z": 4.220621885,
				"element": "H" 
			}
		],
		 "valence_orbital": [ 
			{
				"type": "occ",
				"energy": -0.28027,
				"method": "rhf"
			},
			{
				"type": "occ",
				"energy": -0.27712,
				"method": "rhf"
			},
			{
				"type": "occ",
				"energy": -0.26696,
				"method": "rhf"
			},
			{
				"type": "occ",
				"energy": -0.24227,
				"method": "rhf"
			},
			{
				"type": "occ",
				"energy": -0.21755,
				"method": "rhf"
			},
			{
				"type": "unocc",
				"energy": -0.05419,
				"method": "rhf"
			},
			{
				"type": "unocc",
				"energy": -0.03073,
				"method": "rhf"
			},
			{
				"type": "unocc",
				"energy": -0.01527,
				"method": "rhf"
			},
			{
				"type": "unocc",
				"energy": 0.02108,
				"method": "rhf"
			},
			{
				"type": "unocc",
				"energy": 0.04184,
				"method": "rhf"
			}
		],
		"cosmo_sigma_profile": { 
			"-0.025": 0.0,
			"-0.024": 0.0,
			"-0.023": 0.0,
			"-0.022": 0.0,
			"-0.021": 0.0,
			"-0.02": 0.0,
			"-0.019": 0.0,
			"-0.018": 0.048191411065,
			"-0.017": 0.788964698855,
			"-0.016": 1.20801015706,
			"-0.015": 0.534859120752,
			"-0.014": 0.713392241508,
			"-0.013": 0.868401568141,
			"-0.012": 0.517657083417,
			"-0.011": 0.625501231803,
			"-0.01": 0.779539129208,
			"-0.009": 0.933366029715,
			"-0.008": 3.61975298232,
			"-0.007": 12.733242538,
			"-0.006": 18.6555570386,
			"-0.005": 18.8924051935,
			"-0.004": 18.9689375382,
			"-0.003": 16.6234153111,
			"-0.002": 18.4709348817,
			"-0.001": 21.2782557145,
			"0.0": 21.5841641732,
			"0.001": 20.6655741638,
			"0.002": 24.6218791873,
			"0.003": 17.9440497767,
			"0.004": 14.0260438665,
			"0.005": 11.4032998794,
			"0.006": 7.44107391003,
			"0.007": 6.97670197585,
			"0.008": 7.55470582179,
			"0.009": 9.86537298489,
			"0.01": 7.63592458248,
			"0.011": 1.36867539291,
			"0.012": 1.04418168421,
			"0.013": 0.841288427303,
			"0.014": 0.394775993114,
			"0.015": 0.0,
			"0.016": 0.0,
			"0.017": 0.0,
			"0.018": 0.0,
			"0.019": 0.0,
			"0.02": 0.0,
			"0.021": 0.0,
			"0.022": 0.0,
			"0.023": 0.0,
			"0.024": 0.0,
			"0.025": 0.0
		}
	}
}
