{
	 "smiles": "CCOC(=O)C1=C(N)SC2=C1CCCC2", 
	 "Tm": 389.15, 
	 "num_atms": 30, 
	 "gaussian": { 
		 "optdone": 1, 
		 "sigma_profile": "yes", 
		 "theory": "DFT", 
		 "functional": "B3LYP", 
		 "basiset": "6-31G**", 
		 "properties": { 
			 "R2extent": 4220.0127, 
			 "electric_dipole_moment_norm": 0.956447970357, 
			 "electric_quadrupole_moment_norm": 8.49853092481, 
			 "total_energy": -1031.62969417, 
			 "HOMO_LUMO_gap": 0.17396, 
			 "cosmo_polarized_energy": -8.65, 
			 "cosmo_cavitation_energy": 33.0, 
			 "cosmo_dispersion_energy": -24.75, 
			 "cosmo_repulsion_energy": 1.92, 
			 "cosmo_total_nonelectrostatic_energy": 10.17, 
			 "SMD_solvation_energy": 5.23 
		},
		"coords": [
			{
				"x": -0.9947395449,
				"y": -4.9709261947,
				"z": -0.3945099649,
				"element": "C" 
			},
			{
				"x": -0.3914670193,
				"y": -4.0717707799,
				"z": 0.6686808623,
				"element": "C" 
			},
			{
				"x": -0.5271556617,
				"y": -2.7093791676,
				"z": 0.2121972373,
				"element": "O" 
			},
			{
				"x": -0.0506014065,
				"y": -1.7557636677,
				"z": 1.0497418385,
				"element": "C" 
			},
			{
				"x": 0.4626301812,
				"y": -2.054550613,
				"z": 2.1302237371,
				"element": "O" 
			},
			{
				"x": -0.2073936043,
				"y": -0.3938278416,
				"z": 0.557105981,
				"element": "C" 
			},
			{
				"x": 0.2128376281,
				"y": 0.6660484054,
				"z": 1.3650085887,
				"element": "C" 
			},
			{
				"x": 0.7138360783,
				"y": 0.5918586796,
				"z": 2.6259727271,
				"element": "N" 
			},
			{
				"x": -0.0554857768,
				"y": 2.2082175406,
				"z": 0.587737518,
				"element": "S" 
			},
			{
				"x": -0.7298407866,
				"y": 1.4213963069,
				"z": -0.8442247685,
				"element": "C" 
			},
			{
				"x": -0.7417810289,
				"y": 0.0657172987,
				"z": -0.7177240124,
				"element": "C" 
			},
			{
				"x": -1.2682827762,
				"y": -0.8085110663,
				"z": -1.8350352828,
				"element": "C" 
			},
			{
				"x": -1.4352944271,
				"y": -0.0271573031,
				"z": -3.149594053,
				"element": "C" 
			},
			{
				"x": -2.0909304579,
				"y": 1.3410422107,
				"z": -2.9247679104,
				"element": "C" 
			},
			{
				"x": -1.2124714222,
				"y": 2.2232737328,
				"z": -2.0205617393,
				"element": "C" 
			},
			{
				"x": -0.916935192,
				"y": -6.0174349029,
				"z": -0.0832328311,
				"element": "H" 
			},
			{
				"x": -0.471509197,
				"y": -4.8570985772,
				"z": -1.3484927358,
				"element": "H" 
			},
			{
				"x": -2.05163311,
				"y": -4.7367298764,
				"z": -0.5515766106,
				"element": "H" 
			},
			{
				"x": -0.9010964021,
				"y": -4.1772880053,
				"z": 1.6316296204,
				"element": "H" 
			},
			{
				"x": 0.6683855641,
				"y": -4.2891430764,
				"z": 0.835881576,
				"element": "H" 
			},
			{
				"x": 0.9387893773,
				"y": -0.3544133141,
				"z": 2.9229541721,
				"element": "H" 
			},
			{
				"x": 1.2457327091,
				"y": 1.3640667865,
				"z": 2.9943155747,
				"element": "H" 
			},
			{
				"x": -0.6000330522,
				"y": -1.6603630202,
				"z": -1.9862941761,
				"element": "H" 
			},
			{
				"x": -2.2292797127,
				"y": -1.2451557173,
				"z": -1.5294602328,
				"element": "H" 
			},
			{
				"x": -2.0245463436,
				"y": -0.6225332851,
				"z": -3.8562883519,
				"element": "H" 
			},
			{
				"x": -0.4495659391,
				"y": 0.1222308318,
				"z": -3.6106197457,
				"element": "H" 
			},
			{
				"x": -3.0717830626,
				"y": 1.2018691175,
				"z": -2.4519658947,
				"element": "H" 
			},
			{
				"x": -2.265538809,
				"y": 1.8490837727,
				"z": -3.879913548,
				"element": "H" 
			},
			{
				"x": -0.3589627206,
				"y": 2.6112974208,
				"z": -2.5968350756,
				"element": "H" 
			},
			{
				"x": -1.7784840848,
				"y": 3.1022443047,
				"z": -1.6866524995,
				"element": "H" 
			}
		],
		 "valence_orbital": [ 
			{
				"type": "occ",
				"energy": -0.29507,
				"method": "rhf"
			},
			{
				"type": "occ",
				"energy": -0.28906,
				"method": "rhf"
			},
			{
				"type": "occ",
				"energy": -0.26537,
				"method": "rhf"
			},
			{
				"type": "occ",
				"energy": -0.24027,
				"method": "rhf"
			},
			{
				"type": "occ",
				"energy": -0.18653,
				"method": "rhf"
			},
			{
				"type": "unocc",
				"energy": -0.01257,
				"method": "rhf"
			},
			{
				"type": "unocc",
				"energy": 0.01608,
				"method": "rhf"
			},
			{
				"type": "unocc",
				"energy": 0.02607,
				"method": "rhf"
			},
			{
				"type": "unocc",
				"energy": 0.09105,
				"method": "rhf"
			},
			{
				"type": "unocc",
				"energy": 0.09673,
				"method": "rhf"
			}
		],
		"cosmo_sigma_profile": { 
			"-0.025": 0.0,
			"-0.024": 0.0,
			"-0.023": 0.0,
			"-0.022": 0.0,
			"-0.021": 0.0,
			"-0.02": 0.0,
			"-0.019": 0.0,
			"-0.018": 0.0,
			"-0.017": 0.0,
			"-0.016": 0.0,
			"-0.015": 0.33602416157,
			"-0.014": 1.41486275868,
			"-0.013": 1.05454706226,
			"-0.012": 1.31421352372,
			"-0.011": 1.15872428444,
			"-0.01": 1.52069135671,
			"-0.009": 2.24146694229,
			"-0.008": 1.95417503924,
			"-0.007": 1.17366499251,
			"-0.006": 1.29996111715,
			"-0.005": 4.38699133183,
			"-0.004": 15.4900457556,
			"-0.003": 25.1579625367,
			"-0.002": 33.0545997741,
			"-0.001": 35.1847506989,
			"0.0": 32.3424252597,
			"0.001": 21.0775528887,
			"0.002": 17.6802632576,
			"0.003": 14.9608058876,
			"0.004": 16.1505153711,
			"0.005": 12.7346821751,
			"0.006": 6.02067108017,
			"0.007": 2.43113304572,
			"0.008": 1.77464073657,
			"0.009": 1.94789289103,
			"0.01": 1.96194058572,
			"0.011": 1.85144379104,
			"0.012": 1.98898105984,
			"0.013": 1.17298660758,
			"0.014": 0.0251944108948,
			"0.015": 0.0,
			"0.016": 0.0,
			"0.017": 0.0,
			"0.018": 0.0,
			"0.019": 0.0,
			"0.02": 0.0,
			"0.021": 0.0,
			"0.022": 0.0,
			"0.023": 0.0,
			"0.024": 0.0,
			"0.025": 0.0
		}
	}
}
