{
	 "smiles": "CCN1C(S)=NN=C1C1=CC=NC=C1", 
	 "Tm": 414.15, 
	 "num_atms": 24, 
	 "gaussian": { 
		 "optdone": 1, 
		 "sigma_profile": "yes", 
		 "theory": "DFT", 
		 "functional": "B3LYP", 
		 "basiset": "6-31G**", 
		 "properties": { 
			 "R2extent": 4251.1056, 
			 "electric_dipole_moment_norm": 4.5645103067, 
			 "electric_quadrupole_moment_norm": 7.94388637444, 
			 "total_energy": -966.149226322, 
			 "HOMO_LUMO_gap": 0.18211, 
			 "cosmo_polarized_energy": -17.2, 
			 "cosmo_cavitation_energy": 29.74, 
			 "cosmo_dispersion_energy": -21.68, 
			 "cosmo_repulsion_energy": 1.66, 
			 "cosmo_total_nonelectrostatic_energy": 9.73, 
			 "SMD_solvation_energy": 1.18 
		},
		"coords": [
			{
				"x": 0.5483571774,
				"y": 2.1923587615,
				"z": 1.3160668246,
				"element": "C" 
			},
			{
				"x": 0.0779468106,
				"y": 1.1441175393,
				"z": 0.3052133519,
				"element": "C" 
			},
			{
				"x": -0.5927811902,
				"y": 0.0045603345,
				"z": 0.9436988826,
				"element": "N" 
			},
			{
				"x": -1.8895207046,
				"y": -0.017224581,
				"z": 1.3911679752,
				"element": "C" 
			},
			{
				"x": -3.063932903,
				"y": 1.242833518,
				"z": 0.9941109374,
				"element": "S" 
			},
			{
				"x": -2.1292619187,
				"y": -1.0798805736,
				"z": 2.1261704527,
				"element": "N" 
			},
			{
				"x": -0.9539052209,
				"y": -1.7911746811,
				"z": 2.1905662925,
				"element": "N" 
			},
			{
				"x": -0.0435432615,
				"y": -1.1458633179,
				"z": 1.4910234852,
				"element": "C" 
			},
			{
				"x": 1.3387636393,
				"y": -1.6197403447,
				"z": 1.32833406,
				"element": "C" 
			},
			{
				"x": 2.0327220502,
				"y": -1.5825822054,
				"z": 0.1100191732,
				"element": "C" 
			},
			{
				"x": 3.3330152411,
				"y": -2.0853234699,
				"z": 0.0593765515,
				"element": "C" 
			},
			{
				"x": 3.9696526615,
				"y": -2.6201332877,
				"z": 1.1074982385,
				"element": "N" 
			},
			{
				"x": 3.2906542001,
				"y": -2.6763491238,
				"z": 2.261880004,
				"element": "C" 
			},
			{
				"x": 1.9933587795,
				"y": -2.1966002046,
				"z": 2.4264747984,
				"element": "C" 
			},
			{
				"x": 1.0316535816,
				"y": 3.0216817652,
				"z": 0.7905357754,
				"element": "H" 
			},
			{
				"x": -0.2907358436,
				"y": 2.5933428722,
				"z": 1.8909498419,
				"element": "H" 
			},
			{
				"x": 1.2717076307,
				"y": 1.7599339585,
				"z": 2.0130859745,
				"element": "H" 
			},
			{
				"x": 0.9231498109,
				"y": 0.7611440959,
				"z": -0.2658901636,
				"element": "H" 
			},
			{
				"x": -0.6244928463,
				"y": 1.5770617903,
				"z": -0.4138159305,
				"element": "H" 
			},
			{
				"x": -4.0548455404,
				"y": 0.6104092002,
				"z": 1.6502751502,
				"element": "H" 
			},
			{
				"x": 1.5651582034,
				"y": -1.2110415213,
				"z": -0.7958268598,
				"element": "H" 
			},
			{
				"x": 3.8857570686,
				"y": -2.0633595272,
				"z": -0.8783162474,
				"element": "H" 
			},
			{
				"x": 3.8144876868,
				"y": -3.1251413137,
				"z": 3.1038132955,
				"element": "H" 
			},
			{
				"x": 1.4867348874,
				"y": -2.2665296835,
				"z": 3.3823881362,
				"element": "H" 
			}
		],
		 "valence_orbital": [ 
			{
				"type": "occ",
				"energy": -0.29006,
				"method": "rhf"
			},
			{
				"type": "occ",
				"energy": -0.27164,
				"method": "rhf"
			},
			{
				"type": "occ",
				"energy": -0.26328,
				"method": "rhf"
			},
			{
				"type": "occ",
				"energy": -0.25985,
				"method": "rhf"
			},
			{
				"type": "occ",
				"energy": -0.23294,
				"method": "rhf"
			},
			{
				"type": "unocc",
				"energy": -0.05083,
				"method": "rhf"
			},
			{
				"type": "unocc",
				"energy": -0.02153,
				"method": "rhf"
			},
			{
				"type": "unocc",
				"energy": -0.00171,
				"method": "rhf"
			},
			{
				"type": "unocc",
				"energy": 0.01875,
				"method": "rhf"
			},
			{
				"type": "unocc",
				"energy": 0.04169,
				"method": "rhf"
			}
		],
		"cosmo_sigma_profile": { 
			"-0.025": 0.0,
			"-0.024": 0.0,
			"-0.023": 0.0,
			"-0.022": 0.0,
			"-0.021": 0.0,
			"-0.02": 0.0,
			"-0.019": 0.0,
			"-0.018": 0.0,
			"-0.017": 0.0,
			"-0.016": 0.0,
			"-0.015": 0.0,
			"-0.014": 0.0,
			"-0.013": 0.176542103005,
			"-0.012": 1.29126506343,
			"-0.011": 1.5679181208,
			"-0.01": 1.71480668315,
			"-0.009": 2.7219276169,
			"-0.008": 4.21954650543,
			"-0.007": 9.67771706998,
			"-0.006": 15.3402925907,
			"-0.005": 16.3214306884,
			"-0.004": 20.0156704033,
			"-0.003": 18.4409279042,
			"-0.002": 19.0806246599,
			"-0.001": 19.1441886048,
			"0.0": 16.1716254172,
			"0.001": 19.2615593844,
			"0.002": 15.916968388,
			"0.003": 8.48236774036,
			"0.004": 7.55445324656,
			"0.005": 5.35519192611,
			"0.006": 5.19566884793,
			"0.007": 3.76808279345,
			"0.008": 3.51029374874,
			"0.009": 2.80516886208,
			"0.01": 2.68644817726,
			"0.011": 3.1606020703,
			"0.012": 3.4299317054,
			"0.013": 4.78382914332,
			"0.014": 3.42330443255,
			"0.015": 2.97293420778,
			"0.016": 2.23606614762,
			"0.017": 0.164495975952,
			"0.018": 0.0,
			"0.019": 0.0,
			"0.02": 0.0,
			"0.021": 0.0,
			"0.022": 0.0,
			"0.023": 0.0,
			"0.024": 0.0,
			"0.025": 0.0
		}
	}
}
