{
	 "smiles": "COC1=CC=C(C=C1)C1=CSC(CN)=C1", 
	 "Tm": 398.15, 
	 "num_atms": 28, 
	 "gaussian": { 
		 "optdone": 1, 
		 "sigma_profile": "yes", 
		 "theory": "DFT", 
		 "functional": "B3LYP", 
		 "basiset": "6-31G**", 
		 "properties": { 
			 "R2extent": 5562.0505, 
			 "electric_dipole_moment_norm": 2.16249601618, 
			 "electric_quadrupole_moment_norm": 15.6336646513, 
			 "total_energy": -993.250925978, 
			 "HOMO_LUMO_gap": 0.17965, 
			 "cosmo_polarized_energy": -11.03, 
			 "cosmo_cavitation_energy": 33.36, 
			 "cosmo_dispersion_energy": -24.73, 
			 "cosmo_repulsion_energy": 1.89, 
			 "cosmo_total_nonelectrostatic_energy": 10.53, 
			 "SMD_solvation_energy": 4.6 
		},
		"coords": [
			{
				"x": -3.9023927055,
				"y": 0.5651150759,
				"z": 3.8013408949,
				"element": "C" 
			},
			{
				"x": -2.510215348,
				"y": 0.3310157122,
				"z": 3.9380197248,
				"element": "O" 
			},
			{
				"x": -1.7613886883,
				"y": 0.2118173919,
				"z": 2.803128985,
				"element": "C" 
			},
			{
				"x": -2.2644436581,
				"y": 0.2990518306,
				"z": 1.5003135149,
				"element": "C" 
			},
			{
				"x": -1.3982413566,
				"y": 0.1600743125,
				"z": 0.4137378723,
				"element": "C" 
			},
			{
				"x": -0.0256104564,
				"y": -0.0635771593,
				"z": 0.5864465542,
				"element": "C" 
			},
			{
				"x": 0.458459905,
				"y": -0.1400566172,
				"z": 1.9071611031,
				"element": "C" 
			},
			{
				"x": -0.3892752431,
				"y": -0.009893214,
				"z": 2.9969871687,
				"element": "C" 
			},
			{
				"x": 0.8761700085,
				"y": -0.2179092669,
				"z": -0.5731692596,
				"element": "C" 
			},
			{
				"x": 2.0108461583,
				"y": -0.9945177053,
				"z": -0.5827339261,
				"element": "C" 
			},
			{
				"x": 2.8256504931,
				"y": -0.953839244,
				"z": -2.1120590073,
				"element": "S" 
			},
			{
				"x": 1.6348965888,
				"y": 0.1417222322,
				"z": -2.7807141261,
				"element": "C" 
			},
			{
				"x": 1.7772922184,
				"y": 0.7081329828,
				"z": -4.1729691332,
				"element": "C" 
			},
			{
				"x": 2.8086275636,
				"y": 1.7387323976,
				"z": -4.3598926979,
				"element": "N" 
			},
			{
				"x": 0.6789924443,
				"y": 0.4268048028,
				"z": -1.844683218,
				"element": "C" 
			},
			{
				"x": -4.4020714733,
				"y": -0.2565550872,
				"z": 3.2718648567,
				"element": "H" 
			},
			{
				"x": -4.2986859929,
				"y": 0.630495285,
				"z": 4.8158482533,
				"element": "H" 
			},
			{
				"x": -4.1057686932,
				"y": 1.5060832128,
				"z": 3.2736928343,
				"element": "H" 
			},
			{
				"x": -3.3197397006,
				"y": 0.4648081719,
				"z": 1.31845828,
				"element": "H" 
			},
			{
				"x": -1.8111072532,
				"y": 0.2054593297,
				"z": -0.5897775233,
				"element": "H" 
			},
			{
				"x": 1.5216733922,
				"y": -0.2814572909,
				"z": 2.0779539271,
				"element": "H" 
			},
			{
				"x": -0.0120781257,
				"y": -0.0625693778,
				"z": 4.0131531903,
				"element": "H" 
			},
			{
				"x": 2.3881957733,
				"y": -1.6255288715,
				"z": 0.2097626668,
				"element": "H" 
			},
			{
				"x": 1.9784064227,
				"y": -0.0947815558,
				"z": -4.891623166,
				"element": "H" 
			},
			{
				"x": 0.8104655888,
				"y": 1.1400565861,
				"z": -4.4557268653,
				"element": "H" 
			},
			{
				"x": 3.7263177541,
				"y": 1.3414684718,
				"z": -4.1700021737,
				"element": "H" 
			},
			{
				"x": 2.6760436112,
				"y": 2.4721656317,
				"z": -3.6663388537,
				"element": "H" 
			},
			{
				"x": -0.1407192276,
				"y": 1.1093819625,
				"z": -2.0439798765,
				"element": "H" 
			}
		],
		 "valence_orbital": [ 
			{
				"type": "occ",
				"energy": -0.25956,
				"method": "rhf"
			},
			{
				"type": "occ",
				"energy": -0.25165,
				"method": "rhf"
			},
			{
				"type": "occ",
				"energy": -0.2488,
				"method": "rhf"
			},
			{
				"type": "occ",
				"energy": -0.22832,
				"method": "rhf"
			},
			{
				"type": "occ",
				"energy": -0.20075,
				"method": "rhf"
			},
			{
				"type": "unocc",
				"energy": -0.0211,
				"method": "rhf"
			},
			{
				"type": "unocc",
				"energy": -0.00365,
				"method": "rhf"
			},
			{
				"type": "unocc",
				"energy": 0.01114,
				"method": "rhf"
			},
			{
				"type": "unocc",
				"energy": 0.03048,
				"method": "rhf"
			},
			{
				"type": "unocc",
				"energy": 0.08178,
				"method": "rhf"
			}
		],
		"cosmo_sigma_profile": { 
			"-0.025": 0.0,
			"-0.024": 0.0,
			"-0.023": 0.0,
			"-0.022": 0.0,
			"-0.021": 0.0,
			"-0.02": 0.0,
			"-0.019": 0.0,
			"-0.018": 0.0,
			"-0.017": 0.0,
			"-0.016": 0.0,
			"-0.015": 0.0,
			"-0.014": 0.0,
			"-0.013": 0.0,
			"-0.012": 0.0,
			"-0.011": 0.0,
			"-0.01": 0.491621173909,
			"-0.009": 2.5980993467,
			"-0.008": 3.35472680431,
			"-0.007": 6.17266749708,
			"-0.006": 15.76250012,
			"-0.005": 26.9362280216,
			"-0.004": 25.3320432532,
			"-0.003": 23.4250775479,
			"-0.002": 16.3861201904,
			"-0.001": 14.520327383,
			"0.0": 12.9773229774,
			"0.001": 12.4515613899,
			"0.002": 14.7732997504,
			"0.003": 18.5975623246,
			"0.004": 23.0895737506,
			"0.005": 26.8440462147,
			"0.006": 8.49510643751,
			"0.007": 2.12775517115,
			"0.008": 1.99162067397,
			"0.009": 2.10718588923,
			"0.01": 1.7963269435,
			"0.011": 0.746096787561,
			"0.012": 1.34226782625,
			"0.013": 0.760104884866,
			"0.014": 0.643288246121,
			"0.015": 0.734871665662,
			"0.016": 0.411334694414,
			"0.017": 0.287744299162,
			"0.018": 1.17984193472,
			"0.019": 0.409290736577,
			"0.02": 0.162365809536,
			"0.021": 0.0,
			"0.022": 0.0,
			"0.023": 0.0,
			"0.024": 0.0,
			"0.025": 0.0
		}
	}
}
