{
	 "smiles": "OC(=O)C1=CC=CC=C1C(=O)NC1=C2C=CC=CC2=CC=C1", 
	 "Tm": 458.15, 
	 "num_atms": 35, 
	 "gaussian": { 
		 "optdone": 1, 
		 "sigma_profile": "yes", 
		 "theory": "DFT", 
		 "functional": "B3LYP", 
		 "basiset": "6-31G**", 
		 "properties": { 
			 "R2extent": 8313.0695, 
			 "electric_dipole_moment_norm": 3.96107698612, 
			 "electric_quadrupole_moment_norm": 18.3294212369, 
			 "total_energy": -974.212002532, 
			 "HOMO_LUMO_gap": 0.13569, 
			 "cosmo_polarized_energy": -17.01, 
			 "cosmo_cavitation_energy": 39.41, 
			 "cosmo_dispersion_energy": -28.23, 
			 "cosmo_repulsion_energy": 2.12, 
			 "cosmo_total_nonelectrostatic_energy": 13.29, 
			 "SMD_solvation_energy": 7.77 
		},
		"coords": [
			{
				"x": 4.3097739072,
				"y": -0.6760268734,
				"z": 2.1196169645,
				"element": "O" 
			},
			{
				"x": 3.1087634963,
				"y": -1.2850637433,
				"z": 2.0251452273,
				"element": "C" 
			},
			{
				"x": 2.2021535189,
				"y": -0.9769011555,
				"z": 2.7844980726,
				"element": "O" 
			},
			{
				"x": 3.0889707246,
				"y": -2.3553752152,
				"z": 0.9833535799,
				"element": "C" 
			},
			{
				"x": 4.306012653,
				"y": -3.0472651505,
				"z": 0.8286813244,
				"element": "C" 
			},
			{
				"x": 4.4298519037,
				"y": -4.1224358803,
				"z": -0.0431397159,
				"element": "C" 
			},
			{
				"x": 3.3307798522,
				"y": -4.5064038608,
				"z": -0.8083327832,
				"element": "C" 
			},
			{
				"x": 2.1333763875,
				"y": -3.8080452664,
				"z": -0.6943271577,
				"element": "C" 
			},
			{
				"x": 1.9658085743,
				"y": -2.7373316482,
				"z": 0.1981640933,
				"element": "C" 
			},
			{
				"x": 0.5740950002,
				"y": -2.1062795302,
				"z": 0.0744761117,
				"element": "C" 
			},
			{
				"x": -0.0833300727,
				"y": -2.3238881436,
				"z": -0.9391224282,
				"element": "O" 
			},
			{
				"x": 0.1118277289,
				"y": -1.3442193527,
				"z": 1.1065241978,
				"element": "N" 
			},
			{
				"x": -1.2082248389,
				"y": -0.810031563,
				"z": 1.1799806988,
				"element": "C" 
			},
			{
				"x": -1.686478895,
				"y": 0.1515467081,
				"z": 0.2333434992,
				"element": "C" 
			},
			{
				"x": -0.9041154163,
				"y": 0.6392142589,
				"z": -0.8477218912,
				"element": "C" 
			},
			{
				"x": -1.4116315344,
				"y": 1.5722784129,
				"z": -1.7232505771,
				"element": "C" 
			},
			{
				"x": -2.7293319444,
				"y": 2.0654467501,
				"z": -1.5675197206,
				"element": "C" 
			},
			{
				"x": -3.508917892,
				"y": 1.6226926185,
				"z": -0.5247838615,
				"element": "C" 
			},
			{
				"x": -3.0142422961,
				"y": 0.6684811289,
				"z": 0.4060907899,
				"element": "C" 
			},
			{
				"x": -3.7998684075,
				"y": 0.2402996754,
				"z": 1.5091724585,
				"element": "C" 
			},
			{
				"x": -3.2974710058,
				"y": -0.661291677,
				"z": 2.4174827736,
				"element": "C" 
			},
			{
				"x": -1.9986407643,
				"y": -1.1897803756,
				"z": 2.247410042,
				"element": "C" 
			},
			{
				"x": 4.2341279477,
				"y": -0.0514050502,
				"z": 2.8608631503,
				"element": "H" 
			},
			{
				"x": 5.1592615469,
				"y": -2.7319893393,
				"z": 1.4168131962,
				"element": "H" 
			},
			{
				"x": 5.3770595522,
				"y": -4.6464570158,
				"z": -0.1260552699,
				"element": "H" 
			},
			{
				"x": 3.4054245874,
				"y": -5.338670011,
				"z": -1.5019978218,
				"element": "H" 
			},
			{
				"x": 1.2831817113,
				"y": -4.0615978955,
				"z": -1.3160306962,
				"element": "H" 
			},
			{
				"x": 0.6745845043,
				"y": -1.3057722886,
				"z": 1.9543989307,
				"element": "H" 
			},
			{
				"x": 0.1017185339,
				"y": 0.2638034026,
				"z": -0.9832082248,
				"element": "H" 
			},
			{
				"x": -0.7969844331,
				"y": 1.9318810096,
				"z": -2.5434645821,
				"element": "H" 
			},
			{
				"x": -3.1192007893,
				"y": 2.7962041269,
				"z": -2.2703559072,
				"element": "H" 
			},
			{
				"x": -4.5187751687,
				"y": 2.0020032772,
				"z": -0.3905847547,
				"element": "H" 
			},
			{
				"x": -4.8015570382,
				"y": 0.6451604887,
				"z": 1.6266988482,
				"element": "H" 
			},
			{
				"x": -3.8966914484,
				"y": -0.9823375043,
				"z": 3.2643303585,
				"element": "H" 
			},
			{
				"x": -1.6133101855,
				"y": -1.9179433174,
				"z": 2.9552510747,
				"element": "H" 
			}
		],
		 "valence_orbital": [ 
			{
				"type": "occ",
				"energy": -0.26927,
				"method": "rhf"
			},
			{
				"type": "occ",
				"energy": -0.25005,
				"method": "rhf"
			},
			{
				"type": "occ",
				"energy": -0.24766,
				"method": "rhf"
			},
			{
				"type": "occ",
				"energy": -0.23545,
				"method": "rhf"
			},
			{
				"type": "occ",
				"energy": -0.20349,
				"method": "rhf"
			},
			{
				"type": "unocc",
				"energy": -0.0678,
				"method": "rhf"
			},
			{
				"type": "unocc",
				"energy": -0.03624,
				"method": "rhf"
			},
			{
				"type": "unocc",
				"energy": -0.02621,
				"method": "rhf"
			},
			{
				"type": "unocc",
				"energy": -0.00183,
				"method": "rhf"
			},
			{
				"type": "unocc",
				"energy": 0.02272,
				"method": "rhf"
			}
		],
		"cosmo_sigma_profile": { 
			"-0.025": 0.0,
			"-0.024": 0.0,
			"-0.023": 0.0,
			"-0.022": 0.0,
			"-0.021": 0.0,
			"-0.02": 0.0,
			"-0.019": 0.428002885203,
			"-0.018": 0.920748016649,
			"-0.017": 1.20640207789,
			"-0.016": 0.749662177507,
			"-0.015": 0.588087234674,
			"-0.014": 0.429145328231,
			"-0.013": 0.432796201332,
			"-0.012": 1.36598930569,
			"-0.011": 0.989537218602,
			"-0.01": 0.381532420671,
			"-0.009": 0.544204226234,
			"-0.008": 1.29519103628,
			"-0.007": 6.38384937899,
			"-0.006": 20.1240458385,
			"-0.005": 25.0029728856,
			"-0.004": 26.3776260369,
			"-0.003": 23.6408778047,
			"-0.002": 17.7723941205,
			"-0.001": 19.5277167162,
			"0.0": 19.9267698695,
			"0.001": 21.828144256,
			"0.002": 26.381690453,
			"0.003": 26.7167692595,
			"0.004": 23.3835778463,
			"0.005": 17.7910066297,
			"0.006": 5.96319974213,
			"0.007": 4.77678991005,
			"0.008": 4.00937472371,
			"0.009": 3.65643858464,
			"0.01": 3.58132559591,
			"0.011": 2.58913080608,
			"0.012": 2.5194966893,
			"0.013": 3.83871861127,
			"0.014": 2.05533257608,
			"0.015": 0.021487214511,
			"0.016": 0.0,
			"0.017": 0.0,
			"0.018": 0.0,
			"0.019": 0.0,
			"0.02": 0.0,
			"0.021": 0.0,
			"0.022": 0.0,
			"0.023": 0.0,
			"0.024": 0.0,
			"0.025": 0.0
		}
	}
}
