{
	 "smiles": "NC1=C(C=C(Cl)C=N1)S(N)(=O)=O", 
	 "Tm": 500.15, 
	 "num_atms": 18, 
	 "gaussian": { 
		 "optdone": 1, 
		 "sigma_profile": "yes", 
		 "theory": "DFT", 
		 "functional": "B3LYP", 
		 "basiset": "6-31G**", 
		 "properties": { 
			 "R2extent": 3216.019, 
			 "electric_dipole_moment_norm": 3.97262447634, 
			 "electric_quadrupole_moment_norm": 14.7189507445, 
			 "total_energy": -1367.16701743, 
			 "HOMO_LUMO_gap": 0.18161, 
			 "cosmo_polarized_energy": -17.26, 
			 "cosmo_cavitation_energy": 25.34, 
			 "cosmo_dispersion_energy": -19.76, 
			 "cosmo_repulsion_energy": 1.53, 
			 "cosmo_total_nonelectrostatic_energy": 7.11, 
			 "SMD_solvation_energy": 2.36 
		},
		"coords": [
			{
				"x": -0.7693833913,
				"y": 1.7666837854,
				"z": -1.7025928562,
				"element": "N" 
			},
			{
				"x": 0.2385269367,
				"y": 1.2479698392,
				"z": -0.919952697,
				"element": "C" 
			},
			{
				"x": 0.634516963,
				"y": -0.1103225059,
				"z": -1.01694531,
				"element": "C" 
			},
			{
				"x": 1.6478745354,
				"y": -0.593514968,
				"z": -0.197555964,
				"element": "C" 
			},
			{
				"x": 2.222491838,
				"y": 0.2815865204,
				"z": 0.7212803158,
				"element": "C" 
			},
			{
				"x": 3.5043466478,
				"y": -0.2502072397,
				"z": 1.7875739501,
				"element": "Cl" 
			},
			{
				"x": 1.7512086206,
				"y": 1.5940350386,
				"z": 0.7860493131,
				"element": "C" 
			},
			{
				"x": 0.7939265758,
				"y": 2.0666122691,
				"z": -0.0133302309,
				"element": "N" 
			},
			{
				"x": -0.1868656843,
				"y": -1.229988745,
				"z": -2.1488248766,
				"element": "S" 
			},
			{
				"x": -1.7422376901,
				"y": -1.4304196151,
				"z": -1.5565688106,
				"element": "N" 
			},
			{
				"x": -0.3389006989,
				"y": -0.5188823087,
				"z": -3.4236620253,
				"element": "O" 
			},
			{
				"x": 0.468949014,
				"y": -2.5301987086,
				"z": -2.0494644347,
				"element": "O" 
			},
			{
				"x": -0.8543652676,
				"y": 2.7713815623,
				"z": -1.6191617753,
				"element": "H" 
			},
			{
				"x": -0.8213064313,
				"y": 1.4012607159,
				"z": -2.648319403,
				"element": "H" 
			},
			{
				"x": 1.9648259781,
				"y": -1.6271309963,
				"z": -0.2816048324,
				"element": "H" 
			},
			{
				"x": 2.1719381894,
				"y": 2.289786351,
				"z": 1.5080277507,
				"element": "H" 
			},
			{
				"x": -2.2453687703,
				"y": -0.5479557725,
				"z": -1.4980070307,
				"element": "H" 
			},
			{
				"x": -1.7562773653,
				"y": -1.9523952222,
				"z": -0.685341083,
				"element": "H" 
			}
		],
		 "valence_orbital": [ 
			{
				"type": "occ",
				"energy": -0.32448,
				"method": "rhf"
			},
			{
				"type": "occ",
				"energy": -0.3172,
				"method": "rhf"
			},
			{
				"type": "occ",
				"energy": -0.30279,
				"method": "rhf"
			},
			{
				"type": "occ",
				"energy": -0.28555,
				"method": "rhf"
			},
			{
				"type": "occ",
				"energy": -0.24265,
				"method": "rhf"
			},
			{
				"type": "unocc",
				"energy": -0.06104,
				"method": "rhf"
			},
			{
				"type": "unocc",
				"energy": -0.03209,
				"method": "rhf"
			},
			{
				"type": "unocc",
				"energy": 0.01336,
				"method": "rhf"
			},
			{
				"type": "unocc",
				"energy": 0.04803,
				"method": "rhf"
			},
			{
				"type": "unocc",
				"energy": 0.06741,
				"method": "rhf"
			}
		],
		"cosmo_sigma_profile": { 
			"-0.025": 0.0,
			"-0.024": 0.0,
			"-0.023": 0.0,
			"-0.022": 0.0,
			"-0.021": 0.0,
			"-0.02": 0.0,
			"-0.019": 0.0,
			"-0.018": 0.0,
			"-0.017": 0.0,
			"-0.016": 0.505600739891,
			"-0.015": 1.46102765504,
			"-0.014": 2.73192826992,
			"-0.013": 2.95897853868,
			"-0.012": 4.16187612824,
			"-0.011": 3.5352605566,
			"-0.01": 4.57372218959,
			"-0.009": 4.06580844661,
			"-0.008": 5.78340176923,
			"-0.007": 6.52833109148,
			"-0.006": 5.89737732865,
			"-0.005": 6.27553106551,
			"-0.004": 6.63905329352,
			"-0.003": 9.28420144654,
			"-0.002": 15.2766291151,
			"-0.001": 16.4259779311,
			"0.0": 15.6900595113,
			"0.001": 10.557590092,
			"0.002": 7.36529259598,
			"0.003": 12.1095671562,
			"0.004": 13.7159405843,
			"0.005": 7.14900248913,
			"0.006": 5.55644705498,
			"0.007": 5.03041554727,
			"0.008": 5.56364214988,
			"0.009": 6.89047567376,
			"0.01": 8.53573089184,
			"0.011": 8.05990429495,
			"0.012": 2.08340594006,
			"0.013": 0.460053561041,
			"0.014": 0.137003817571,
			"0.015": 0.0,
			"0.016": 0.0,
			"0.017": 0.0,
			"0.018": 0.0,
			"0.019": 0.0,
			"0.02": 0.0,
			"0.021": 0.0,
			"0.022": 0.0,
			"0.023": 0.0,
			"0.024": 0.0,
			"0.025": 0.0
		}
	}
}
