{
	 "smiles": "ClC1=CC=C(C=C1)C1=CC=CC=C1", 
	 "Tm": 351.55, 
	 "num_atms": 22, 
	 "gaussian": { 
		 "optdone": 1, 
		 "sigma_profile": "yes", 
		 "theory": "DFT", 
		 "functional": "B3LYP", 
		 "basiset": "6-31G**", 
		 "properties": { 
			 "R2extent": 4032.7272, 
			 "electric_dipole_moment_norm": 2.12958936417, 
			 "electric_quadrupole_moment_norm": 7.53423475079, 
			 "total_energy": -922.903120999, 
			 "HOMO_LUMO_gap": 0.19131, 
			 "cosmo_polarized_energy": -5.36, 
			 "cosmo_cavitation_energy": 27.77, 
			 "cosmo_dispersion_energy": -20.63, 
			 "cosmo_repulsion_energy": 1.61, 
			 "cosmo_total_nonelectrostatic_energy": 8.75, 
			 "SMD_solvation_energy": 4.22 
		},
		"coords": [
			{
				"x": -2.7988107441,
				"y": 2.8023661029,
				"z": 3.5150830783,
				"element": "Cl" 
			},
			{
				"x": -1.7745554882,
				"y": 1.8356300339,
				"z": 2.4611910788,
				"element": "C" 
			},
			{
				"x": -2.0838215289,
				"y": 1.7346789838,
				"z": 1.105645505,
				"element": "C" 
			},
			{
				"x": -1.2676723947,
				"y": 0.9661389817,
				"z": 0.278052394,
				"element": "C" 
			},
			{
				"x": -0.1406716872,
				"y": 0.2937875103,
				"z": 0.7801076368,
				"element": "C" 
			},
			{
				"x": 0.1420115646,
				"y": 0.4180532657,
				"z": 2.1508359103,
				"element": "C" 
			},
			{
				"x": -0.6646249563,
				"y": 1.1809011442,
				"z": 2.9929028321,
				"element": "C" 
			},
			{
				"x": 0.7242211405,
				"y": -0.5219704832,
				"z": -0.1096975624,
				"element": "C" 
			},
			{
				"x": 1.2816511077,
				"y": -1.7322420787,
				"z": 0.3371614445,
				"element": "C" 
			},
			{
				"x": 2.0945317016,
				"y": -2.4974879075,
				"z": -0.4978320309,
				"element": "C" 
			},
			{
				"x": 2.3663477898,
				"y": -2.0703371419,
				"z": -1.7989330555,
				"element": "C" 
			},
			{
				"x": 1.818765928,
				"y": -0.8705956745,
				"z": -2.257146801,
				"element": "C" 
			},
			{
				"x": 1.0075002387,
				"y": -0.1044435795,
				"z": -1.4214218679,
				"element": "C" 
			},
			{
				"x": -2.9559226458,
				"y": 2.2415697126,
				"z": 0.7075294923,
				"element": "H" 
			},
			{
				"x": -1.5264058204,
				"y": 0.8672446652,
				"z": -0.7717104699,
				"element": "H" 
			},
			{
				"x": 1.0210664922,
				"y": -0.068391015,
				"z": 2.5623698398,
				"element": "H" 
			},
			{
				"x": -0.430555604,
				"y": 1.2761098027,
				"z": 4.0474831108,
				"element": "H" 
			},
			{
				"x": 1.0536849812,
				"y": -2.0879680041,
				"z": 1.3376875847,
				"element": "H" 
			},
			{
				"x": 2.5086106227,
				"y": -3.4337745475,
				"z": -0.134394879,
				"element": "H" 
			},
			{
				"x": 2.9990083304,
				"y": -2.6668469126,
				"z": -2.4497161887,
				"element": "H" 
			},
			{
				"x": 2.0310796569,
				"y": -0.5249097621,
				"z": -3.2649185946,
				"element": "H" 
			},
			{
				"x": 0.6099613154,
				"y": 0.8410869036,
				"z": -1.7784784574,
				"element": "H" 
			}
		],
		 "valence_orbital": [ 
			{
				"type": "occ",
				"energy": -0.31132,
				"method": "rhf"
			},
			{
				"type": "occ",
				"energy": -0.27117,
				"method": "rhf"
			},
			{
				"type": "occ",
				"energy": -0.26393,
				"method": "rhf"
			},
			{
				"type": "occ",
				"energy": -0.255,
				"method": "rhf"
			},
			{
				"type": "occ",
				"energy": -0.22655,
				"method": "rhf"
			},
			{
				"type": "unocc",
				"energy": -0.03524,
				"method": "rhf"
			},
			{
				"type": "unocc",
				"energy": -0.01531,
				"method": "rhf"
			},
			{
				"type": "unocc",
				"energy": -0.00631,
				"method": "rhf"
			},
			{
				"type": "unocc",
				"energy": 0.02098,
				"method": "rhf"
			},
			{
				"type": "unocc",
				"energy": 0.03138,
				"method": "rhf"
			}
		],
		"cosmo_sigma_profile": { 
			"-0.025": 0.0,
			"-0.024": 0.0,
			"-0.023": 0.0,
			"-0.022": 0.0,
			"-0.021": 0.0,
			"-0.02": 0.0,
			"-0.019": 0.0,
			"-0.018": 0.0,
			"-0.017": 0.0,
			"-0.016": 0.0,
			"-0.015": 0.0,
			"-0.014": 0.0,
			"-0.013": 0.0,
			"-0.012": 0.0,
			"-0.011": 0.0,
			"-0.01": 0.0,
			"-0.009": 0.0,
			"-0.008": 0.254713006727,
			"-0.007": 3.53049904641,
			"-0.006": 13.2101681408,
			"-0.005": 19.8577851237,
			"-0.004": 17.2157180762,
			"-0.003": 15.9210904319,
			"-0.002": 13.8446063849,
			"-0.001": 14.4429580055,
			"0.0": 12.4228135142,
			"0.001": 18.4269611035,
			"0.002": 23.0191532193,
			"0.003": 24.3994964111,
			"0.004": 26.2630844285,
			"0.005": 17.6426712065,
			"0.006": 5.11675228481,
			"0.007": 0.0,
			"0.008": 0.0,
			"0.009": 0.0,
			"0.01": 0.0,
			"0.011": 0.0,
			"0.012": 0.0,
			"0.013": 0.0,
			"0.014": 0.0,
			"0.015": 0.0,
			"0.016": 0.0,
			"0.017": 0.0,
			"0.018": 0.0,
			"0.019": 0.0,
			"0.02": 0.0,
			"0.021": 0.0,
			"0.022": 0.0,
			"0.023": 0.0,
			"0.024": 0.0,
			"0.025": 0.0
		}
	}
}
