{
	 "smiles": "CCOC(=O)C(Br)C(Br)C1=CC=CC=C1", 
	 "Tm": 351.15, 
	 "num_atms": 27, 
	 "gaussian": { 
		 "optdone": 1, 
		 "sigma_profile": "yes", 
		 "theory": "DFT", 
		 "functional": "B3LYP", 
		 "basiset": "6-31G**", 
		 "properties": { 
			 "R2extent": 5869.4879, 
			 "electric_dipole_moment_norm": 3.84108887947, 
			 "electric_quadrupole_moment_norm": 15.8825875952, 
			 "total_energy": -5719.66935086, 
			 "HOMO_LUMO_gap": 0.21756, 
			 "cosmo_polarized_energy": -12.38, 
			 "cosmo_cavitation_energy": 34.93, 
			 "cosmo_dispersion_energy": -24.49, 
			 "cosmo_repulsion_energy": 1.94, 
			 "cosmo_total_nonelectrostatic_energy": 12.38, 
			 "SMD_solvation_energy": 4.75 
		},
		"coords": [
			{
				"x": -4.1273674079,
				"y": -1.5079124957,
				"z": 2.4620851773,
				"element": "C" 
			},
			{
				"x": -3.6841356227,
				"y": -0.0610071988,
				"z": 2.6036060572,
				"element": "C" 
			},
			{
				"x": -2.5077836886,
				"y": 0.2095244078,
				"z": 1.7925686444,
				"element": "O" 
			},
			{
				"x": -2.7301204517,
				"y": 0.5226385653,
				"z": 0.4973332262,
				"element": "C" 
			},
			{
				"x": -3.8167771506,
				"y": 0.6400560717,
				"z": -0.0089623861,
				"element": "O" 
			},
			{
				"x": -1.3700668154,
				"y": 0.740879931,
				"z": -0.1850472408,
				"element": "C" 
			},
			{
				"x": -1.6257179828,
				"y": 1.3561163163,
				"z": -2.0263409339,
				"element": "Br" 
			},
			{
				"x": -0.4376620018,
				"y": -0.4754986541,
				"z": -0.0387436583,
				"element": "C" 
			},
			{
				"x": -1.2636024253,
				"y": -2.0867528412,
				"z": -0.8723062992,
				"element": "Br" 
			},
			{
				"x": 0.9879208348,
				"y": -0.2578051629,
				"z": -0.4851408083,
				"element": "C" 
			},
			{
				"x": 1.9290596086,
				"y": 0.0975333517,
				"z": 0.4911325684,
				"element": "C" 
			},
			{
				"x": 3.2526983685,
				"y": 0.3667567787,
				"z": 0.1401228246,
				"element": "C" 
			},
			{
				"x": 3.6517398866,
				"y": 0.2737666112,
				"z": -1.1931237034,
				"element": "C" 
			},
			{
				"x": 2.721735324,
				"y": -0.0906093584,
				"z": -2.1696951582,
				"element": "C" 
			},
			{
				"x": 1.3983759127,
				"y": -0.3547633076,
				"z": -1.8209144768,
				"element": "C" 
			},
			{
				"x": -4.4436806686,
				"y": -1.7160600895,
				"z": 1.4374008451,
				"element": "H" 
			},
			{
				"x": -4.9738164301,
				"y": -1.6995984987,
				"z": 3.1298422216,
				"element": "H" 
			},
			{
				"x": -3.3174506921,
				"y": -2.1934809998,
				"z": 2.7269107089,
				"element": "H" 
			},
			{
				"x": -3.3636441777,
				"y": 0.1680624202,
				"z": 3.622375225,
				"element": "H" 
			},
			{
				"x": -4.475383759,
				"y": 0.6303191985,
				"z": 2.3054831373,
				"element": "H" 
			},
			{
				"x": -0.8736291566,
				"y": 1.5730146643,
				"z": 0.3220798342,
				"element": "H" 
			},
			{
				"x": -0.4487375204,
				"y": -0.7221246487,
				"z": 1.022985073,
				"element": "H" 
			},
			{
				"x": 1.6260110921,
				"y": 0.1619508012,
				"z": 1.5336560878,
				"element": "H" 
			},
			{
				"x": 3.9698963663,
				"y": 0.6382197847,
				"z": 0.9092128495,
				"element": "H" 
			},
			{
				"x": 4.6825707967,
				"y": 0.4752767029,
				"z": -1.4695792726,
				"element": "H" 
			},
			{
				"x": 3.0281443496,
				"y": -0.1733183916,
				"z": -3.208335104,
				"element": "H" 
			},
			{
				"x": 0.6832234114,
				"y": -0.6508839584,
				"z": -2.579405439,
				"element": "H" 
			}
		],
		 "valence_orbital": [ 
			{
				"type": "occ",
				"energy": -0.28123,
				"method": "rhf"
			},
			{
				"type": "occ",
				"energy": -0.27917,
				"method": "rhf"
			},
			{
				"type": "occ",
				"energy": -0.27018,
				"method": "rhf"
			},
			{
				"type": "occ",
				"energy": -0.25767,
				"method": "rhf"
			},
			{
				"type": "occ",
				"energy": -0.25103,
				"method": "rhf"
			},
			{
				"type": "unocc",
				"energy": -0.03347,
				"method": "rhf"
			},
			{
				"type": "unocc",
				"energy": -0.01562,
				"method": "rhf"
			},
			{
				"type": "unocc",
				"energy": -0.00609,
				"method": "rhf"
			},
			{
				"type": "unocc",
				"energy": -0.00125,
				"method": "rhf"
			},
			{
				"type": "unocc",
				"energy": 0.01888,
				"method": "rhf"
			}
		],
		"cosmo_sigma_profile": { 
			"-0.025": 0.0,
			"-0.024": 0.0,
			"-0.023": 0.0,
			"-0.022": 0.0,
			"-0.021": 0.0,
			"-0.02": 0.0,
			"-0.019": 0.0,
			"-0.018": 0.0,
			"-0.017": 0.0,
			"-0.016": 0.0,
			"-0.015": 0.0,
			"-0.014": 0.0,
			"-0.013": 0.0,
			"-0.012": 0.0,
			"-0.011": 0.521256661457,
			"-0.01": 1.9595131488,
			"-0.009": 3.39666431425,
			"-0.008": 4.35102811522,
			"-0.007": 4.40790458908,
			"-0.006": 13.1663575996,
			"-0.005": 17.9228583501,
			"-0.004": 25.6399063443,
			"-0.003": 22.5410874205,
			"-0.002": 18.9773391232,
			"-0.001": 21.3441396147,
			"0.0": 22.5535662168,
			"0.001": 18.0137286849,
			"0.002": 17.0730899082,
			"0.003": 20.6994906047,
			"0.004": 22.8239458083,
			"0.005": 24.2777804372,
			"0.006": 7.36130957035,
			"0.007": 2.47999056192,
			"0.008": 2.70099607606,
			"0.009": 2.26711137759,
			"0.01": 3.15367014254,
			"0.011": 4.18357217742,
			"0.012": 1.24177812131,
			"0.013": 0.00779390562335,
			"0.014": 0.0,
			"0.015": 0.0,
			"0.016": 0.0,
			"0.017": 0.0,
			"0.018": 0.0,
			"0.019": 0.0,
			"0.02": 0.0,
			"0.021": 0.0,
			"0.022": 0.0,
			"0.023": 0.0,
			"0.024": 0.0,
			"0.025": 0.0
		}
	}
}
