{
	 "smiles": "CN1C=CC2=C1C=CC=C2C#N", 
	 "Tm": 315.15, 
	 "num_atms": 20, 
	 "gaussian": { 
		 "optdone": 1, 
		 "sigma_profile": "yes", 
		 "theory": "DFT", 
		 "functional": "B3LYP", 
		 "basiset": "6-31G**", 
		 "properties": { 
			 "R2extent": 2168.7221, 
			 "electric_dipole_moment_norm": 6.9041295896, 
			 "electric_quadrupole_moment_norm": 9.0880200748, 
			 "total_energy": -495.37652182, 
			 "HOMO_LUMO_gap": 0.16946, 
			 "cosmo_polarized_energy": -12.1, 
			 "cosmo_cavitation_energy": 24.93, 
			 "cosmo_dispersion_energy": -17.71, 
			 "cosmo_repulsion_energy": 1.38, 
			 "cosmo_total_nonelectrostatic_energy": 8.61, 
			 "SMD_solvation_energy": 5.78 
		},
		"coords": [
			{
				"x": -1.1667184791,
				"y": -3.2345619981,
				"z": -1.5446633209,
				"element": "C" 
			},
			{
				"x": -0.8032271035,
				"y": -1.9066255764,
				"z": -1.0909332844,
				"element": "N" 
			},
			{
				"x": -0.7008825115,
				"y": -0.7740548263,
				"z": -1.8775562801,
				"element": "C" 
			},
			{
				"x": -0.3357066634,
				"y": 0.3075537621,
				"z": -1.1170314031,
				"element": "C" 
			},
			{
				"x": -0.1995518382,
				"y": -0.1663951106,
				"z": 0.2242626356,
				"element": "C" 
			},
			{
				"x": -0.498859685,
				"y": -1.5588022623,
				"z": 0.2106495383,
				"element": "C" 
			},
			{
				"x": -0.4620420413,
				"y": -2.3442785187,
				"z": 1.3662852021,
				"element": "C" 
			},
			{
				"x": -0.1176180453,
				"y": -1.7218482354,
				"z": 2.5637372633,
				"element": "C" 
			},
			{
				"x": 0.1834548113,
				"y": -0.3515103088,
				"z": 2.6138616585,
				"element": "C" 
			},
			{
				"x": 0.1467161327,
				"y": 0.4353263067,
				"z": 1.4570088444,
				"element": "C" 
			},
			{
				"x": 0.4545238018,
				"y": 1.8320894432,
				"z": 1.5132545701,
				"element": "C" 
			},
			{
				"x": 0.7028071712,
				"y": 2.9689784047,
				"z": 1.5462712003,
				"element": "N" 
			},
			{
				"x": -0.3611974816,
				"y": -3.9510719185,
				"z": -1.3498453308,
				"element": "H" 
			},
			{
				"x": -1.3505829372,
				"y": -3.2047717613,
				"z": -2.619801706,
				"element": "H" 
			},
			{
				"x": -2.0771655746,
				"y": -3.5850875869,
				"z": -1.046243361,
				"element": "H" 
			},
			{
				"x": -0.9017952525,
				"y": -0.8362992017,
				"z": -2.9381499382,
				"element": "H" 
			},
			{
				"x": -0.1824702556,
				"y": 1.3173351337,
				"z": -1.4679008507,
				"element": "H" 
			},
			{
				"x": -0.693144975,
				"y": -3.4047480895,
				"z": 1.3383052149,
				"element": "H" 
			},
			{
				"x": -0.0802124321,
				"y": -2.3047297807,
				"z": 3.4784359882,
				"element": "H" 
			},
			{
				"x": 0.4489733588,
				"y": 0.1102021246,
				"z": 3.5587533596,
				"element": "H" 
			}
		],
		 "valence_orbital": [ 
			{
				"type": "occ",
				"energy": -0.32682,
				"method": "rhf"
			},
			{
				"type": "occ",
				"energy": -0.31829,
				"method": "rhf"
			},
			{
				"type": "occ",
				"energy": -0.27937,
				"method": "rhf"
			},
			{
				"type": "occ",
				"energy": -0.23762,
				"method": "rhf"
			},
			{
				"type": "occ",
				"energy": -0.21575,
				"method": "rhf"
			},
			{
				"type": "unocc",
				"energy": -0.04629,
				"method": "rhf"
			},
			{
				"type": "unocc",
				"energy": 0.00457,
				"method": "rhf"
			},
			{
				"type": "unocc",
				"energy": 0.04795,
				"method": "rhf"
			},
			{
				"type": "unocc",
				"energy": 0.05272,
				"method": "rhf"
			},
			{
				"type": "unocc",
				"energy": 0.0753,
				"method": "rhf"
			}
		],
		"cosmo_sigma_profile": { 
			"-0.025": 0.0,
			"-0.024": 0.0,
			"-0.023": 0.0,
			"-0.022": 0.0,
			"-0.021": 0.0,
			"-0.02": 0.0,
			"-0.019": 0.0,
			"-0.018": 0.0,
			"-0.017": 0.0,
			"-0.016": 0.0,
			"-0.015": 0.0,
			"-0.014": 0.0,
			"-0.013": 0.0,
			"-0.012": 0.0,
			"-0.011": 0.0,
			"-0.01": 0.0,
			"-0.009": 1.58534472103,
			"-0.008": 3.52449323758,
			"-0.007": 6.95972118541,
			"-0.006": 15.9674035278,
			"-0.005": 18.0187741349,
			"-0.004": 16.2205023873,
			"-0.003": 15.9825125642,
			"-0.002": 12.2430606807,
			"-0.001": 8.97396000093,
			"0.0": 11.6810750998,
			"0.001": 12.9933423232,
			"0.002": 12.8019047637,
			"0.003": 16.4239805438,
			"0.004": 15.2318433832,
			"0.005": 7.14443629356,
			"0.006": 4.66437506335,
			"0.007": 2.79993660979,
			"0.008": 2.19002219734,
			"0.009": 4.07953548958,
			"0.01": 2.86140370322,
			"0.011": 3.48911195106,
			"0.012": 2.58673077491,
			"0.013": 2.25252418675,
			"0.014": 0.472746346933,
			"0.015": 0.0,
			"0.016": 0.0,
			"0.017": 0.0,
			"0.018": 0.0,
			"0.019": 0.0,
			"0.02": 0.0,
			"0.021": 0.0,
			"0.022": 0.0,
			"0.023": 0.0,
			"0.024": 0.0,
			"0.025": 0.0
		}
	}
}
