{
	 "smiles": "CC1=CC(Cl)=C(C=C1S(N)(=O)=O)S(N)(=O)=O", 
	 "Tm": 533.15, 
	 "num_atms": 25, 
	 "gaussian": { 
		 "optdone": 1, 
		 "sigma_profile": "yes", 
		 "theory": "DFT", 
		 "functional": "B3LYP", 
		 "basiset": "6-31G**", 
		 "properties": { 
			 "R2extent": 5717.4864, 
			 "electric_dipole_moment_norm": 3.62023407254, 
			 "electric_quadrupole_moment_norm": 25.3564451475, 
			 "total_energy": -1938.99286195, 
			 "HOMO_LUMO_gap": 0.2086, 
			 "cosmo_polarized_energy": -26.16, 
			 "cosmo_cavitation_energy": 33.11, 
			 "cosmo_dispersion_energy": -25.21, 
			 "cosmo_repulsion_energy": 1.87, 
			 "cosmo_total_nonelectrostatic_energy": 9.77, 
			 "SMD_solvation_energy": 4.78 
		},
		"coords": [
			{
				"x": -2.5921366319,
				"y": 2.6488874785,
				"z": 1.0990687366,
				"element": "C" 
			},
			{
				"x": -1.5883001464,
				"y": 1.83032994,
				"z": 0.326718017,
				"element": "C" 
			},
			{
				"x": -0.2873129987,
				"y": 2.3108909694,
				"z": 0.1503610711,
				"element": "C" 
			},
			{
				"x": 0.6714706926,
				"y": 1.5888391552,
				"z": -0.5599083032,
				"element": "C" 
			},
			{
				"x": 2.2713283323,
				"y": 2.2910616048,
				"z": -0.7016891199,
				"element": "Cl" 
			},
			{
				"x": 0.3550696548,
				"y": 0.3436016365,
				"z": -1.1121902448,
				"element": "C" 
			},
			{
				"x": -0.9397230295,
				"y": -0.1543157141,
				"z": -0.9453615132,
				"element": "C" 
			},
			{
				"x": -1.892096966,
				"y": 0.5752544865,
				"z": -0.2410918117,
				"element": "C" 
			},
			{
				"x": -3.5564222592,
				"y": -0.0833078901,
				"z": -0.0252832645,
				"element": "S" 
			},
			{
				"x": -3.5110927447,
				"y": -1.5330579343,
				"z": -0.8787812652,
				"element": "N" 
			},
			{
				"x": -3.7280473317,
				"y": -0.4146837098,
				"z": 1.3931165414,
				"element": "O" 
			},
			{
				"x": -4.4863351956,
				"y": 0.8180859533,
				"z": -0.712472281,
				"element": "O" 
			},
			{
				"x": 1.4925348412,
				"y": -0.6660157577,
				"z": -2.1015643389,
				"element": "S" 
			},
			{
				"x": 2.8053866078,
				"y": -1.01714673,
				"z": -1.1320606763,
				"element": "N" 
			},
			{
				"x": 1.9841892678,
				"y": 0.1580231945,
				"z": -3.198667355,
				"element": "O" 
			},
			{
				"x": 0.8056107481,
				"y": -1.937467244,
				"z": -2.3193115052,
				"element": "O" 
			},
			{
				"x": -3.4456130443,
				"y": 2.9091692218,
				"z": 0.4662002889,
				"element": "H" 
			},
			{
				"x": -2.9854434089,
				"y": 2.0797353131,
				"z": 1.9467429623,
				"element": "H" 
			},
			{
				"x": -2.1365598581,
				"y": 3.567741311,
				"z": 1.4733447018,
				"element": "H" 
			},
			{
				"x": -0.0120102845,
				"y": 3.2710170156,
				"z": 0.5731427262,
				"element": "H" 
			},
			{
				"x": -1.1916242618,
				"y": -1.1161925685,
				"z": -1.3739733266,
				"element": "H" 
			},
			{
				"x": -3.7215201729,
				"y": -2.307066994,
				"z": -0.2553447831,
				"element": "H" 
			},
			{
				"x": -4.1413867614,
				"y": -1.4921571412,
				"z": -1.6746247244,
				"element": "H" 
			},
			{
				"x": 3.352497983,
				"y": -0.2006268905,
				"z": -0.8788553478,
				"element": "H" 
			},
			{
				"x": 2.5764369679,
				"y": -1.624498706,
				"z": -0.3522151844,
				"element": "H" 
			}
		],
		 "valence_orbital": [ 
			{
				"type": "occ",
				"energy": -0.31697,
				"method": "rhf"
			},
			{
				"type": "occ",
				"energy": -0.3106,
				"method": "rhf"
			},
			{
				"type": "occ",
				"energy": -0.30489,
				"method": "rhf"
			},
			{
				"type": "occ",
				"energy": -0.28598,
				"method": "rhf"
			},
			{
				"type": "occ",
				"energy": -0.27567,
				"method": "rhf"
			},
			{
				"type": "unocc",
				"energy": -0.06707,
				"method": "rhf"
			},
			{
				"type": "unocc",
				"energy": -0.04816,
				"method": "rhf"
			},
			{
				"type": "unocc",
				"energy": -0.00638,
				"method": "rhf"
			},
			{
				"type": "unocc",
				"energy": 0.03805,
				"method": "rhf"
			},
			{
				"type": "unocc",
				"energy": 0.04786,
				"method": "rhf"
			}
		],
		"cosmo_sigma_profile": { 
			"-0.025": 0.0,
			"-0.024": 0.0,
			"-0.023": 0.0,
			"-0.022": 0.0,
			"-0.021": 0.0,
			"-0.02": 0.0,
			"-0.019": 0.0,
			"-0.018": 0.0,
			"-0.017": 0.0,
			"-0.016": 1.54701114489,
			"-0.015": 3.92135757742,
			"-0.014": 3.54491830171,
			"-0.013": 4.97134070873,
			"-0.012": 5.63952801254,
			"-0.011": 4.27432060756,
			"-0.01": 2.92916973915,
			"-0.009": 5.18907264717,
			"-0.008": 7.07903920568,
			"-0.007": 6.89174704541,
			"-0.006": 6.26835800508,
			"-0.005": 7.94195266523,
			"-0.004": 12.7731033417,
			"-0.003": 16.260680918,
			"-0.002": 22.5957001145,
			"-0.001": 25.2873204609,
			"0.0": 17.1111708404,
			"0.001": 10.1610954478,
			"0.002": 10.567449627,
			"0.003": 10.6945305434,
			"0.004": 6.87393520807,
			"0.005": 5.46391755486,
			"0.006": 6.14166360101,
			"0.007": 9.36925880513,
			"0.008": 6.47931621237,
			"0.009": 10.7815854392,
			"0.01": 19.0721185626,
			"0.011": 15.0765508086,
			"0.012": 0.966328184832,
			"0.013": 0.0,
			"0.014": 0.0,
			"0.015": 0.0,
			"0.016": 0.0,
			"0.017": 0.0,
			"0.018": 0.0,
			"0.019": 0.0,
			"0.02": 0.0,
			"0.021": 0.0,
			"0.022": 0.0,
			"0.023": 0.0,
			"0.024": 0.0,
			"0.025": 0.0
		}
	}
}
