{
	 "smiles": "CC(C)OC1=CC=C(C=C1)C1=NC(=CS1)C(O)=O", 
	 "Tm": 477.15, 
	 "num_atms": 31, 
	 "gaussian": { 
		 "optdone": 1, 
		 "sigma_profile": "yes", 
		 "theory": "DFT", 
		 "functional": "B3LYP", 
		 "basiset": "6-31G**", 
		 "properties": { 
			 "R2extent": 9609.9287, 
			 "electric_dipole_moment_norm": 7.33540470322, 
			 "electric_quadrupole_moment_norm": 41.8848388907, 
			 "total_energy": -1181.84744419, 
			 "HOMO_LUMO_gap": 0.15612, 
			 "cosmo_polarized_energy": -13.95, 
			 "cosmo_cavitation_energy": 37.06, 
			 "cosmo_dispersion_energy": -27.37, 
			 "cosmo_repulsion_energy": 2.07, 
			 "cosmo_total_nonelectrostatic_energy": 11.75, 
			 "SMD_solvation_energy": 7.04 
		},
		"coords": [
			{
				"x": -0.3210305688,
				"y": 2.8257696908,
				"z": -2.625481257,
				"element": "C" 
			},
			{
				"x": 0.9989997494,
				"y": 2.2054234917,
				"z": -2.1689161924,
				"element": "C" 
			},
			{
				"x": 2.2090264228,
				"y": 3.054054903,
				"z": -2.540911824,
				"element": "C" 
			},
			{
				"x": 1.0315148486,
				"y": 2.0952229108,
				"z": -0.7291628922,
				"element": "O" 
			},
			{
				"x": 0.3929107504,
				"y": 1.0832366875,
				"z": -0.0906131095,
				"element": "C" 
			},
			{
				"x": 0.4768114807,
				"y": 1.109844951,
				"z": 1.3130450263,
				"element": "C" 
			},
			{
				"x": -0.1213168133,
				"y": 0.1179960973,
				"z": 2.0718408521,
				"element": "C" 
			},
			{
				"x": -0.8263402384,
				"y": -0.9367006682,
				"z": 1.4614303011,
				"element": "C" 
			},
			{
				"x": -0.906131312,
				"y": -0.952900057,
				"z": 0.0599462035,
				"element": "C" 
			},
			{
				"x": -0.3102588833,
				"y": 0.0388558875,
				"z": -0.7127944458,
				"element": "C" 
			},
			{
				"x": -1.4696794207,
				"y": -1.998897316,
				"z": 2.234362325,
				"element": "C" 
			},
			{
				"x": -2.1419910874,
				"y": -2.9978712401,
				"z": 1.7193428674,
				"element": "N" 
			},
			{
				"x": -2.6340865888,
				"y": -3.8432719919,
				"z": 2.6868155266,
				"element": "C" 
			},
			{
				"x": -2.3463633476,
				"y": -3.5071315958,
				"z": 3.9793775224,
				"element": "C" 
			},
			{
				"x": -1.4102800427,
				"y": -2.0579665042,
				"z": 4.0069669144,
				"element": "S" 
			},
			{
				"x": -3.427119149,
				"y": -5.0376471107,
				"z": 2.2734653069,
				"element": "C" 
			},
			{
				"x": -3.5740724675,
				"y": -5.1516423948,
				"z": 0.9372756802,
				"element": "O" 
			},
			{
				"x": -3.8978261715,
				"y": -5.8337095618,
				"z": 3.0528962477,
				"element": "O" 
			},
			{
				"x": -1.1798964693,
				"y": 2.2277701171,
				"z": -2.309688326,
				"element": "H" 
			},
			{
				"x": -0.4295102012,
				"y": 3.8292057628,
				"z": -2.2023829162,
				"element": "H" 
			},
			{
				"x": -0.3448059505,
				"y": 2.9065991811,
				"z": -3.7169135887,
				"element": "H" 
			},
			{
				"x": 1.1191456741,
				"y": 1.2039019318,
				"z": -2.6020512012,
				"element": "H" 
			},
			{
				"x": 2.2674580763,
				"y": 3.175277355,
				"z": -3.6266890175,
				"element": "H" 
			},
			{
				"x": 2.1334003511,
				"y": 4.0459843196,
				"z": -2.0849493287,
				"element": "H" 
			},
			{
				"x": 3.13216517,
				"y": 2.5836696302,
				"z": -2.1923535875,
				"element": "H" 
			},
			{
				"x": 1.0226929594,
				"y": 1.9221070669,
				"z": 1.78075174,
				"element": "H" 
			},
			{
				"x": -0.0370055229,
				"y": 0.1669192923,
				"z": 3.1540817903,
				"element": "H" 
			},
			{
				"x": -1.4477199892,
				"y": -1.7581586688,
				"z": -0.4236930659,
				"element": "H" 
			},
			{
				"x": -0.4012296113,
				"y": -0.0108341934,
				"z": -1.7907394181,
				"element": "H" 
			},
			{
				"x": -2.6365772227,
				"y": -4.0334987508,
				"z": 4.8765055151,
				"element": "H" 
			},
			{
				"x": -3.109284425,
				"y": -4.3964092231,
				"z": 0.5300363518,
				"element": "H" 
			}
		],
		 "valence_orbital": [ 
			{
				"type": "occ",
				"energy": -0.30117,
				"method": "rhf"
			},
			{
				"type": "occ",
				"energy": -0.27534,
				"method": "rhf"
			},
			{
				"type": "occ",
				"energy": -0.26923,
				"method": "rhf"
			},
			{
				"type": "occ",
				"energy": -0.26628,
				"method": "rhf"
			},
			{
				"type": "occ",
				"energy": -0.22076,
				"method": "rhf"
			},
			{
				"type": "unocc",
				"energy": -0.06464,
				"method": "rhf"
			},
			{
				"type": "unocc",
				"energy": -0.03234,
				"method": "rhf"
			},
			{
				"type": "unocc",
				"energy": -0.01769,
				"method": "rhf"
			},
			{
				"type": "unocc",
				"energy": 0.00446,
				"method": "rhf"
			},
			{
				"type": "unocc",
				"energy": 0.03832,
				"method": "rhf"
			}
		],
		"cosmo_sigma_profile": { 
			"-0.025": 0.0,
			"-0.024": 0.0,
			"-0.023": 0.0,
			"-0.022": 0.0,
			"-0.021": 0.0,
			"-0.02": 0.0,
			"-0.019": 0.0,
			"-0.018": 0.0,
			"-0.017": 0.0,
			"-0.016": 0.0,
			"-0.015": 0.0,
			"-0.014": 0.0785843527513,
			"-0.013": 0.675546855324,
			"-0.012": 0.514297096268,
			"-0.011": 0.775739181495,
			"-0.01": 2.25217003425,
			"-0.009": 2.03105528663,
			"-0.008": 3.05939093105,
			"-0.007": 6.88420511812,
			"-0.006": 11.3717879032,
			"-0.005": 14.3793613648,
			"-0.004": 22.5924459452,
			"-0.003": 25.5049917117,
			"-0.002": 24.6129107119,
			"-0.001": 29.739584823,
			"0.0": 36.2816087726,
			"0.001": 25.8762154449,
			"0.002": 18.9777737823,
			"0.003": 17.6912222039,
			"0.004": 15.2741705386,
			"0.005": 5.68005450624,
			"0.006": 3.69623145781,
			"0.007": 3.52086270514,
			"0.008": 3.74451980309,
			"0.009": 5.47845374385,
			"0.01": 5.60740372751,
			"0.011": 4.56569733175,
			"0.012": 5.34809942328,
			"0.013": 1.51515916402,
			"0.014": 0.0415486142855,
			"0.015": 0.0,
			"0.016": 0.0,
			"0.017": 0.0,
			"0.018": 0.0,
			"0.019": 0.0,
			"0.02": 0.0,
			"0.021": 0.0,
			"0.022": 0.0,
			"0.023": 0.0,
			"0.024": 0.0,
			"0.025": 0.0
		}
	}
}
