{
	 "smiles": "OC(=O)C1=CC=C(NN=C2C(=O)NC(=S)NC2=O)C=C1", 
	 "Tm": 613.15, 
	 "num_atms": 28, 
	 "gaussian": { 
		 "optdone": 1, 
		 "sigma_profile": "yes", 
		 "theory": "DFT", 
		 "functional": "B3LYP", 
		 "basiset": "6-31G**", 
		 "properties": { 
			 "R2extent": 10853.6549, 
			 "electric_dipole_moment_norm": 4.19520641685, 
			 "electric_quadrupole_moment_norm": 14.0748254863, 
			 "total_energy": -1342.11732083, 
			 "HOMO_LUMO_gap": 0.12416, 
			 "cosmo_polarized_energy": -24.24, 
			 "cosmo_cavitation_energy": 37.04, 
			 "cosmo_dispersion_energy": -27.6, 
			 "cosmo_repulsion_energy": 2.05, 
			 "cosmo_total_nonelectrostatic_energy": 11.48, 
			 "SMD_solvation_energy": 7.31 
		},
		"coords": [
			{
				"x": 0.2822991914,
				"y": 1.4089140907,
				"z": -5.5587168733,
				"element": "O" 
			},
			{
				"x": 1.1915927032,
				"y": 0.9267575002,
				"z": -4.6747337319,
				"element": "C" 
			},
			{
				"x": 2.3536739464,
				"y": 0.740675906,
				"z": -4.976981104,
				"element": "O" 
			},
			{
				"x": 0.6124620817,
				"y": 0.6617626623,
				"z": -3.3329509267,
				"element": "C" 
			},
			{
				"x": 1.4619043393,
				"y": 0.1596253594,
				"z": -2.334231916,
				"element": "C" 
			},
			{
				"x": 0.9823948709,
				"y": -0.1085562012,
				"z": -1.0606652803,
				"element": "C" 
			},
			{
				"x": -0.3715219547,
				"y": 0.1296963587,
				"z": -0.7803610274,
				"element": "C" 
			},
			{
				"x": -0.9147255154,
				"y": -0.1222139846,
				"z": 0.4900287759,
				"element": "N" 
			},
			{
				"x": -0.1774298192,
				"y": -0.5875787966,
				"z": 1.4552460224,
				"element": "N" 
			},
			{
				"x": -0.6974765718,
				"y": -0.8203346184,
				"z": 2.6449973238,
				"element": "C" 
			},
			{
				"x": -2.1029145188,
				"y": -0.5846408554,
				"z": 2.9775142992,
				"element": "C" 
			},
			{
				"x": -2.9413570744,
				"y": -0.1458391611,
				"z": 2.1812313051,
				"element": "O" 
			},
			{
				"x": -2.4764652486,
				"y": -0.8859822505,
				"z": 4.2802604074,
				"element": "N" 
			},
			{
				"x": -1.6705553376,
				"y": -1.3798311599,
				"z": 5.2857880742,
				"element": "C" 
			},
			{
				"x": -2.2519103702,
				"y": -1.6975241135,
				"z": 6.8079364478,
				"element": "S" 
			},
			{
				"x": -0.3672266058,
				"y": -1.5802237949,
				"z": 4.9175644172,
				"element": "N" 
			},
			{
				"x": 0.235274325,
				"y": -1.348161902,
				"z": 3.6634821002,
				"element": "C" 
			},
			{
				"x": 1.4165729589,
				"y": -1.5822505297,
				"z": 3.5041926272,
				"element": "O" 
			},
			{
				"x": -1.2313747262,
				"y": 0.6308140251,
				"z": -1.7676747517,
				"element": "C" 
			},
			{
				"x": -0.7380166505,
				"y": 0.8953209113,
				"z": -3.0398645339,
				"element": "C" 
			},
			{
				"x": 0.7664147583,
				"y": 1.5431669653,
				"z": -6.3899633652,
				"element": "H" 
			},
			{
				"x": 2.5035889828,
				"y": -0.0142944261,
				"z": -2.5810972396,
				"element": "H" 
			},
			{
				"x": 1.6281087886,
				"y": -0.4960851113,
				"z": -0.2819345857,
				"element": "H" 
			},
			{
				"x": -1.9089205354,
				"y": 0.0561695204,
				"z": 0.6860924841,
				"element": "H" 
			},
			{
				"x": -3.4481825339,
				"y": -0.7258542589,
				"z": 4.5192247233,
				"element": "H" 
			},
			{
				"x": 0.2510037655,
				"y": -1.942541137,
				"z": 5.6338841436,
				"element": "H" 
			},
			{
				"x": -2.2776831441,
				"y": 0.8105781919,
				"z": -1.5366552303,
				"element": "H" 
			},
			{
				"x": -1.3962301053,
				"y": 1.28283081,
				"z": -3.8085125854,
				"element": "H" 
			}
		],
		 "valence_orbital": [ 
			{
				"type": "occ",
				"energy": -0.28668,
				"method": "rhf"
			},
			{
				"type": "occ",
				"energy": -0.28178,
				"method": "rhf"
			},
			{
				"type": "occ",
				"energy": -0.26003,
				"method": "rhf"
			},
			{
				"type": "occ",
				"energy": -0.24298,
				"method": "rhf"
			},
			{
				"type": "occ",
				"energy": -0.24041,
				"method": "rhf"
			},
			{
				"type": "unocc",
				"energy": -0.11625,
				"method": "rhf"
			},
			{
				"type": "unocc",
				"energy": -0.05369,
				"method": "rhf"
			},
			{
				"type": "unocc",
				"energy": -0.03475,
				"method": "rhf"
			},
			{
				"type": "unocc",
				"energy": -0.02765,
				"method": "rhf"
			},
			{
				"type": "unocc",
				"energy": -0.01965,
				"method": "rhf"
			}
		],
		"cosmo_sigma_profile": { 
			"-0.025": 0.0,
			"-0.024": 0.0,
			"-0.023": 0.0,
			"-0.022": 0.0,
			"-0.021": 0.0,
			"-0.02": 0.0,
			"-0.019": 0.0181964665048,
			"-0.018": 0.890648076594,
			"-0.017": 1.40352764616,
			"-0.016": 1.95071101952,
			"-0.015": 2.81702284035,
			"-0.014": 2.45636791675,
			"-0.013": 2.52586719171,
			"-0.012": 3.01850179977,
			"-0.011": 3.51501259016,
			"-0.01": 4.02570564396,
			"-0.009": 4.48565836916,
			"-0.008": 7.49082255819,
			"-0.007": 10.5472980137,
			"-0.006": 15.4452325928,
			"-0.005": 14.2090822,
			"-0.004": 15.1885157767,
			"-0.003": 19.1097337179,
			"-0.002": 17.8187911308,
			"-0.001": 14.7039487528,
			"0.0": 18.5843844562,
			"0.001": 20.1329768221,
			"0.002": 22.1522068478,
			"0.003": 11.0917123132,
			"0.004": 7.86879956671,
			"0.005": 10.782184338,
			"0.006": 9.37886102162,
			"0.007": 13.5952842708,
			"0.008": 10.1112586232,
			"0.009": 8.49605077467,
			"0.01": 7.45277776197,
			"0.011": 10.4547741482,
			"0.012": 7.8394201481,
			"0.013": 1.60700554773,
			"0.014": 0.00420795799599,
			"0.015": 0.0,
			"0.016": 0.0,
			"0.017": 0.0,
			"0.018": 0.0,
			"0.019": 0.0,
			"0.02": 0.0,
			"0.021": 0.0,
			"0.022": 0.0,
			"0.023": 0.0,
			"0.024": 0.0,
			"0.025": 0.0
		}
	}
}
