{
	 "smiles": "SC1=NNC(S1)C1=NC=CC=C1", 
	 "Tm": 388.15, 
	 "num_atms": 19, 
	 "gaussian": { 
		 "optdone": 1, 
		 "sigma_profile": "yes", 
		 "theory": "DFT", 
		 "functional": "B3LYP", 
		 "basiset": "6-31G**", 
		 "properties": { 
			 "R2extent": 2967.2897, 
			 "electric_dipole_moment_norm": 4.92071081959, 
			 "electric_quadrupole_moment_norm": 6.00877264506, 
			 "total_energy": -1231.53786236, 
			 "HOMO_LUMO_gap": 0.16851, 
			 "cosmo_polarized_energy": -11.46, 
			 "cosmo_cavitation_energy": 26.42, 
			 "cosmo_dispersion_energy": -20.55, 
			 "cosmo_repulsion_energy": 1.55, 
			 "cosmo_total_nonelectrostatic_energy": 7.42, 
			 "SMD_solvation_energy": 0.72 
		},
		"coords": [
			{
				"x": -0.4546745834,
				"y": -1.469818483,
				"z": -3.7055200179,
				"element": "S" 
			},
			{
				"x": -0.3379808433,
				"y": -1.5517646828,
				"z": -1.9431860139,
				"element": "C" 
			},
			{
				"x": -1.3377393997,
				"y": -1.8611563359,
				"z": -1.212553343,
				"element": "N" 
			},
			{
				"x": -0.9738113864,
				"y": -2.1073536012,
				"z": 0.1069557742,
				"element": "N" 
			},
			{
				"x": 0.2696850241,
				"y": -1.4040162963,
				"z": 0.4900532381,
				"element": "C" 
			},
			{
				"x": 1.2364466541,
				"y": -1.4010594695,
				"z": -1.081208037,
				"element": "S" 
			},
			{
				"x": 0.0130887149,
				"y": -0.0210109781,
				"z": 1.103740196,
				"element": "C" 
			},
			{
				"x": -1.1650867192,
				"y": 0.0932384152,
				"z": 1.7304618021,
				"element": "N" 
			},
			{
				"x": -1.4513041542,
				"y": 1.2496701934,
				"z": 2.3405767007,
				"element": "C" 
			},
			{
				"x": -0.5797673691,
				"y": 2.3372211626,
				"z": 2.36443702,
				"element": "C" 
			},
			{
				"x": 0.6494286771,
				"y": 2.2099328479,
				"z": 1.7170883918,
				"element": "C" 
			},
			{
				"x": 0.9542527232,
				"y": 1.0121922983,
				"z": 1.0738995771,
				"element": "C" 
			},
			{
				"x": 0.3425746114,
				"y": -0.3904477816,
				"z": -3.8498244608,
				"element": "H" 
			},
			{
				"x": -1.7309762899,
				"y": -1.8009021172,
				"z": 0.7174878549,
				"element": "H" 
			},
			{
				"x": 0.8154125549,
				"y": -2.0187344828,
				"z": 1.2130938547,
				"element": "H" 
			},
			{
				"x": -2.4209269736,
				"y": 1.3045931471,
				"z": 2.8314168263,
				"element": "H" 
			},
			{
				"x": -0.8590045024,
				"y": 3.2539043187,
				"z": 2.8734821094,
				"element": "H" 
			},
			{
				"x": 1.3583460527,
				"y": 3.0328727309,
				"z": 1.7083821681,
				"element": "H" 
			},
			{
				"x": 1.8932372087,
				"y": 0.8834391144,
				"z": 0.5462163593,
				"element": "H" 
			}
		],
		 "valence_orbital": [ 
			{
				"type": "occ",
				"energy": -0.28946,
				"method": "rhf"
			},
			{
				"type": "occ",
				"energy": -0.27662,
				"method": "rhf"
			},
			{
				"type": "occ",
				"energy": -0.27202,
				"method": "rhf"
			},
			{
				"type": "occ",
				"energy": -0.25736,
				"method": "rhf"
			},
			{
				"type": "occ",
				"energy": -0.20819,
				"method": "rhf"
			},
			{
				"type": "unocc",
				"energy": -0.03968,
				"method": "rhf"
			},
			{
				"type": "unocc",
				"energy": -0.02899,
				"method": "rhf"
			},
			{
				"type": "unocc",
				"energy": -0.01345,
				"method": "rhf"
			},
			{
				"type": "unocc",
				"energy": 0.00822,
				"method": "rhf"
			},
			{
				"type": "unocc",
				"energy": 0.02488,
				"method": "rhf"
			}
		],
		"cosmo_sigma_profile": { 
			"-0.025": 0.0,
			"-0.024": 0.0,
			"-0.023": 0.0,
			"-0.022": 0.0,
			"-0.021": 0.0,
			"-0.02": 0.0,
			"-0.019": 0.0,
			"-0.018": 0.0,
			"-0.017": 0.0,
			"-0.016": 0.0,
			"-0.015": 0.0,
			"-0.014": 0.0,
			"-0.013": 0.0,
			"-0.012": 0.291075185146,
			"-0.011": 2.24009658723,
			"-0.01": 1.84369608026,
			"-0.009": 2.49048479498,
			"-0.008": 6.55018971459,
			"-0.007": 10.6568590956,
			"-0.006": 14.2242736099,
			"-0.005": 13.2496452805,
			"-0.004": 10.8409703237,
			"-0.003": 10.661278687,
			"-0.002": 8.7982231014,
			"-0.001": 10.2794387491,
			"0.0": 16.3742313014,
			"0.001": 19.3150460519,
			"0.002": 24.0338354083,
			"0.003": 16.1098504321,
			"0.004": 9.06430604514,
			"0.005": 9.33908523492,
			"0.006": 7.76797924864,
			"0.007": 7.24047505948,
			"0.008": 4.81625760052,
			"0.009": 2.96367424237,
			"0.01": 2.18339904186,
			"0.011": 1.91864338207,
			"0.012": 1.53992597555,
			"0.013": 1.66075813484,
			"0.014": 0.18672201853,
			"0.015": 0.0,
			"0.016": 0.0,
			"0.017": 0.0,
			"0.018": 0.0,
			"0.019": 0.0,
			"0.02": 0.0,
			"0.021": 0.0,
			"0.022": 0.0,
			"0.023": 0.0,
			"0.024": 0.0,
			"0.025": 0.0
		}
	}
}
