{
	 "smiles": "OC1=C(C=CC=C1)C(=O)NCC1=CC=CC=C1", 
	 "Tm": 353.15, 
	 "num_atms": 30, 
	 "gaussian": { 
		 "optdone": 1, 
		 "sigma_profile": "yes", 
		 "theory": "DFT", 
		 "functional": "B3LYP", 
		 "basiset": "6-31G**", 
		 "properties": { 
			 "R2extent": 5823.0802, 
			 "electric_dipole_moment_norm": 4.3511262565, 
			 "electric_quadrupole_moment_norm": 8.56350750686, 
			 "total_energy": -746.546673179, 
			 "HOMO_LUMO_gap": 0.17844, 
			 "cosmo_polarized_energy": -11.86, 
			 "cosmo_cavitation_energy": 33.78, 
			 "cosmo_dispersion_energy": -24.57, 
			 "cosmo_repulsion_energy": 1.89, 
			 "cosmo_total_nonelectrostatic_energy": 11.11, 
			 "SMD_solvation_energy": 5.75 
		},
		"coords": [
			{
				"x": -0.6025899527,
				"y": 3.4466071261,
				"z": -0.7728484913,
				"element": "O" 
			},
			{
				"x": 0.6510046648,
				"y": 3.2876782448,
				"z": -0.3263113624,
				"element": "C" 
			},
			{
				"x": 1.0254436873,
				"y": 2.2191902231,
				"z": 0.5368295172,
				"element": "C" 
			},
			{
				"x": 2.3394481414,
				"y": 2.1942610275,
				"z": 1.0438046253,
				"element": "C" 
			},
			{
				"x": 3.2816785657,
				"y": 3.1399668554,
				"z": 0.6628301715,
				"element": "C" 
			},
			{
				"x": 2.9178465072,
				"y": 4.141265544,
				"z": -0.2487050257,
				"element": "C" 
			},
			{
				"x": 1.6211732686,
				"y": 4.2186866895,
				"z": -0.7352657958,
				"element": "C" 
			},
			{
				"x": -0.0201851573,
				"y": 1.2322152202,
				"z": 0.8996638929,
				"element": "C" 
			},
			{
				"x": -1.2312683887,
				"y": 1.5165050632,
				"z": 0.7808598688,
				"element": "O" 
			},
			{
				"x": 0.3074902724,
				"y": -0.0056727387,
				"z": 1.3816588991,
				"element": "N" 
			},
			{
				"x": 1.5208328235,
				"y": -0.8008917271,
				"z": 1.1670609656,
				"element": "C" 
			},
			{
				"x": 1.1850254093,
				"y": -2.2184011692,
				"z": 0.7434430088,
				"element": "C" 
			},
			{
				"x": 1.6531254302,
				"y": -3.3101089679,
				"z": 1.4821949533,
				"element": "C" 
			},
			{
				"x": 1.3615824002,
				"y": -4.6169412253,
				"z": 1.0843676752,
				"element": "C" 
			},
			{
				"x": 0.5912212539,
				"y": -4.8439914945,
				"z": -0.0560167376,
				"element": "C" 
			},
			{
				"x": 0.1148412983,
				"y": -3.7594725051,
				"z": -0.7978085127,
				"element": "C" 
			},
			{
				"x": 0.4102580859,
				"y": -2.4561583721,
				"z": -0.4012929751,
				"element": "C" 
			},
			{
				"x": -1.1550919703,
				"y": 2.7930046489,
				"z": -0.2658997223,
				"element": "H" 
			},
			{
				"x": 2.6141581532,
				"y": 1.4414685577,
				"z": 1.7738929805,
				"element": "H" 
			},
			{
				"x": 4.285794261,
				"y": 3.1064279983,
				"z": 1.0727814966,
				"element": "H" 
			},
			{
				"x": 3.6505404432,
				"y": 4.8795469114,
				"z": -0.5628718224,
				"element": "H" 
			},
			{
				"x": 1.3133957421,
				"y": 5.0072970644,
				"z": -1.4137151435,
				"element": "H" 
			},
			{
				"x": -0.5256813128,
				"y": -0.5379659954,
				"z": 1.6043677825,
				"element": "H" 
			},
			{
				"x": 2.1327523082,
				"y": -0.8324645401,
				"z": 2.0779151182,
				"element": "H" 
			},
			{
				"x": 2.1201999961,
				"y": -0.3120064442,
				"z": 0.393937593,
				"element": "H" 
			},
			{
				"x": 2.2493507877,
				"y": -3.136873292,
				"z": 2.3747981031,
				"element": "H" 
			},
			{
				"x": 1.7318264092,
				"y": -5.4544043308,
				"z": 1.6686348589,
				"element": "H" 
			},
			{
				"x": 0.3606460424,
				"y": -5.8591654194,
				"z": -0.3656208419,
				"element": "H" 
			},
			{
				"x": -0.4851259836,
				"y": -3.9296996051,
				"z": -1.6871052458,
				"element": "H" 
			},
			{
				"x": 0.0361068137,
				"y": -1.6159033476,
				"z": -0.9804798341,
				"element": "H" 
			}
		],
		 "valence_orbital": [ 
			{
				"type": "occ",
				"energy": -0.26383,
				"method": "rhf"
			},
			{
				"type": "occ",
				"energy": -0.26069,
				"method": "rhf"
			},
			{
				"type": "occ",
				"energy": -0.25636,
				"method": "rhf"
			},
			{
				"type": "occ",
				"energy": -0.25063,
				"method": "rhf"
			},
			{
				"type": "occ",
				"energy": -0.21907,
				"method": "rhf"
			},
			{
				"type": "unocc",
				"energy": -0.04063,
				"method": "rhf"
			},
			{
				"type": "unocc",
				"energy": -0.01756,
				"method": "rhf"
			},
			{
				"type": "unocc",
				"energy": -0.01184,
				"method": "rhf"
			},
			{
				"type": "unocc",
				"energy": 0.00786,
				"method": "rhf"
			},
			{
				"type": "unocc",
				"energy": 0.05368,
				"method": "rhf"
			}
		],
		"cosmo_sigma_profile": { 
			"-0.025": 0.0,
			"-0.024": 0.0,
			"-0.023": 0.0,
			"-0.022": 0.0,
			"-0.021": 0.0,
			"-0.02": 0.0,
			"-0.019": 0.0,
			"-0.018": 0.0,
			"-0.017": 0.0,
			"-0.016": 0.0,
			"-0.015": 0.0,
			"-0.014": 0.0,
			"-0.013": 0.482597111096,
			"-0.012": 0.768132729025,
			"-0.011": 0.375969397941,
			"-0.01": 0.78848378953,
			"-0.009": 0.88090733391,
			"-0.008": 1.1069178783,
			"-0.007": 3.27353506587,
			"-0.006": 17.809320994,
			"-0.005": 26.494307198,
			"-0.004": 25.1067813852,
			"-0.003": 22.8796160651,
			"-0.002": 18.1562975107,
			"-0.001": 16.7239716107,
			"0.0": 14.5914097833,
			"0.001": 18.2447664919,
			"0.002": 16.7245608314,
			"0.003": 21.7530609685,
			"0.004": 19.8992220317,
			"0.005": 16.8886456105,
			"0.006": 7.48309048784,
			"0.007": 1.91661490613,
			"0.008": 3.02338281308,
			"0.009": 2.77523954668,
			"0.01": 2.61011000651,
			"0.011": 4.19302766056,
			"0.012": 2.86222141134,
			"0.013": 1.98447148527,
			"0.014": 0.234186904924,
			"0.015": 0.0,
			"0.016": 0.0,
			"0.017": 0.0,
			"0.018": 0.0,
			"0.019": 0.0,
			"0.02": 0.0,
			"0.021": 0.0,
			"0.022": 0.0,
			"0.023": 0.0,
			"0.024": 0.0,
			"0.025": 0.0
		}
	}
}
