{
	 "smiles": "[O-][N+](=O)C1=CC=CC(=C1C#N)[N+]([O-])=O", 
	 "Tm": 421.15, 
	 "num_atms": 17, 
	 "gaussian": { 
		 "optdone": 1, 
		 "sigma_profile": "yes", 
		 "theory": "DFT", 
		 "functional": "B3LYP", 
		 "basiset": "6-31G**", 
		 "properties": { 
			 "R2extent": 3417.5287, 
			 "electric_dipole_moment_norm": 7.00759803356, 
			 "electric_quadrupole_moment_norm": 14.7383652852, 
			 "total_energy": -733.451723062, 
			 "HOMO_LUMO_gap": 0.18289, 
			 "cosmo_polarized_energy": -18.75, 
			 "cosmo_cavitation_energy": 24.61, 
			 "cosmo_dispersion_energy": -17.42, 
			 "cosmo_repulsion_energy": 1.36, 
			 "cosmo_total_nonelectrostatic_energy": 8.54, 
			 "SMD_solvation_energy": 9.68 
		},
		"coords": [
			{
				"x": -0.8121315536,
				"y": 0.5431962486,
				"z": 3.6427494618,
				"element": "O" 
			},
			{
				"x": -1.0552105856,
				"y": -0.3071756867,
				"z": 2.7892727799,
				"element": "N" 
			},
			{
				"x": -1.3210206477,
				"y": -1.4825518894,
				"z": 3.0034667759,
				"element": "O" 
			},
			{
				"x": -0.9902325446,
				"y": 0.1371121293,
				"z": 1.3787425929,
				"element": "C" 
			},
			{
				"x": -0.1601318159,
				"y": 1.2213247626,
				"z": 1.111707738,
				"element": "C" 
			},
			{
				"x": -0.002282727,
				"y": 1.6657311512,
				"z": -0.1974583663,
				"element": "C" 
			},
			{
				"x": -0.6930589706,
				"y": 1.0337744255,
				"z": -1.226914629,
				"element": "C" 
			},
			{
				"x": -1.5507992006,
				"y": -0.0228767673,
				"z": -0.9376631503,
				"element": "C" 
			},
			{
				"x": -1.7264421254,
				"y": -0.5212838524,
				"z": 0.3708236283,
				"element": "C" 
			},
			{
				"x": -2.5967129325,
				"y": -1.6251591549,
				"z": 0.657785426,
				"element": "C" 
			},
			{
				"x": -3.3014624473,
				"y": -2.5190897503,
				"z": 0.8904221784,
				"element": "N" 
			},
			{
				"x": -2.2905763242,
				"y": -0.5992676395,
				"z": -2.0829845564,
				"element": "N" 
			},
			{
				"x": -1.7684175001,
				"y": -0.4775387355,
				"z": -3.1889592008,
				"element": "O" 
			},
			{
				"x": -3.3691358434,
				"y": -1.1305321174,
				"z": -1.8538299073,
				"element": "O" 
			},
			{
				"x": 0.3521613563,
				"y": 1.692935435,
				"z": 1.9408778826,
				"element": "H" 
			},
			{
				"x": 0.655515365,
				"y": 2.5000927877,
				"z": -0.4142738356,
				"element": "H" 
			},
			{
				"x": -0.5892615027,
				"y": 1.3437086536,
				"z": -2.2591648183,
				"element": "H" 
			}
		],
		 "valence_orbital": [ 
			{
				"type": "occ",
				"energy": -0.33655,
				"method": "rhf"
			},
			{
				"type": "occ",
				"energy": -0.3291,
				"method": "rhf"
			},
			{
				"type": "occ",
				"energy": -0.31456,
				"method": "rhf"
			},
			{
				"type": "occ",
				"energy": -0.31439,
				"method": "rhf"
			},
			{
				"type": "occ",
				"energy": -0.31009,
				"method": "rhf"
			},
			{
				"type": "unocc",
				"energy": -0.1272,
				"method": "rhf"
			},
			{
				"type": "unocc",
				"energy": -0.12348,
				"method": "rhf"
			},
			{
				"type": "unocc",
				"energy": -0.06908,
				"method": "rhf"
			},
			{
				"type": "unocc",
				"energy": -0.03813,
				"method": "rhf"
			},
			{
				"type": "unocc",
				"energy": 0.0094,
				"method": "rhf"
			}
		],
		"cosmo_sigma_profile": { 
			"-0.025": 0.0,
			"-0.024": 0.0,
			"-0.023": 0.0,
			"-0.022": 0.0,
			"-0.021": 0.0,
			"-0.02": 0.0,
			"-0.019": 0.0,
			"-0.018": 0.0,
			"-0.017": 0.0,
			"-0.016": 0.0,
			"-0.015": 0.0,
			"-0.014": 0.0,
			"-0.013": 0.0,
			"-0.012": 0.218650065887,
			"-0.011": 1.3583010057,
			"-0.01": 7.30512139317,
			"-0.009": 10.4297814746,
			"-0.008": 8.9102550493,
			"-0.007": 9.22837472733,
			"-0.006": 11.3195030961,
			"-0.005": 14.2207578427,
			"-0.004": 10.421827522,
			"-0.003": 12.3943616572,
			"-0.002": 10.6799280092,
			"-0.001": 4.3330302527,
			"0.0": 5.23769611725,
			"0.001": 4.98162248971,
			"0.002": 4.61321598149,
			"0.003": 5.48659743164,
			"0.004": 7.40405529576,
			"0.005": 10.3865210987,
			"0.006": 20.0163061698,
			"0.007": 19.3331445657,
			"0.008": 11.7515470316,
			"0.009": 4.85034017502,
			"0.01": 2.39843562934,
			"0.011": 2.3069105771,
			"0.012": 0.683128640057,
			"0.013": 0.0,
			"0.014": 0.0,
			"0.015": 0.0,
			"0.016": 0.0,
			"0.017": 0.0,
			"0.018": 0.0,
			"0.019": 0.0,
			"0.02": 0.0,
			"0.021": 0.0,
			"0.022": 0.0,
			"0.023": 0.0,
			"0.024": 0.0,
			"0.025": 0.0
		}
	}
}
