{
	 "smiles": "CS(=O)(=O)NCCC1=CC=C(S1)C(=O)CCl", 
	 "Tm": 384.15, 
	 "num_atms": 28, 
	 "gaussian": { 
		 "optdone": 1, 
		 "sigma_profile": "yes", 
		 "theory": "DFT", 
		 "functional": "B3LYP", 
		 "basiset": "6-31G**", 
		 "properties": { 
			 "R2extent": 6175.847, 
			 "electric_dipole_moment_norm": 4.41155964371, 
			 "electric_quadrupole_moment_norm": 26.2746444518, 
			 "total_energy": -1887.1011921, 
			 "HOMO_LUMO_gap": 0.16968, 
			 "cosmo_polarized_energy": -21.58, 
			 "cosmo_cavitation_energy": 37.31, 
			 "cosmo_dispersion_energy": -25.69, 
			 "cosmo_repulsion_energy": 1.95, 
			 "cosmo_total_nonelectrostatic_energy": 13.57, 
			 "SMD_solvation_energy": 5.53 
		},
		"coords": [
			{
				"x": 1.9178869282,
				"y": -2.0042919337,
				"z": -1.8649124808,
				"element": "C" 
			},
			{
				"x": 2.4472161872,
				"y": -3.2348104989,
				"z": -0.6653663216,
				"element": "S" 
			},
			{
				"x": 2.3530633462,
				"y": -4.5596547278,
				"z": -1.2857636148,
				"element": "O" 
			},
			{
				"x": 3.6934314782,
				"y": -2.7554084979,
				"z": -0.0590489661,
				"element": "O" 
			},
			{
				"x": 1.2006738974,
				"y": -3.1817762074,
				"z": 0.4837616299,
				"element": "N" 
			},
			{
				"x": 1.4470754286,
				"y": -2.5219193408,
				"z": 1.7716175007,
				"element": "C" 
			},
			{
				"x": 0.1332030822,
				"y": -2.0052116169,
				"z": 2.3886849246,
				"element": "C" 
			},
			{
				"x": -0.5985701824,
				"y": -0.9975392347,
				"z": 1.5486262306,
				"element": "C" 
			},
			{
				"x": -1.8471832584,
				"y": -1.1173979348,
				"z": 0.9817071179,
				"element": "C" 
			},
			{
				"x": -2.2385388619,
				"y": 0.0173876699,
				"z": 0.2312181417,
				"element": "C" 
			},
			{
				"x": -1.2860240734,
				"y": 1.014316383,
				"z": 0.2113617839,
				"element": "C" 
			},
			{
				"x": 0.1189141787,
				"y": 0.5364202404,
				"z": 1.14442427,
				"element": "S" 
			},
			{
				"x": -1.4466594831,
				"y": 2.3071936458,
				"z": -0.47045764,
				"element": "C" 
			},
			{
				"x": -2.4844617716,
				"y": 2.5921188901,
				"z": -1.0495324171,
				"element": "O" 
			},
			{
				"x": -0.3085339816,
				"y": 3.3298117112,
				"z": -0.4333940162,
				"element": "C" 
			},
			{
				"x": 1.0896817451,
				"y": 2.8054412336,
				"z": -1.4674965957,
				"element": "Cl" 
			},
			{
				"x": 0.958745466,
				"y": -2.3128621204,
				"z": -2.2803148814,
				"element": "H" 
			},
			{
				"x": 2.6835250984,
				"y": -1.9687341529,
				"z": -2.6420394481,
				"element": "H" 
			},
			{
				"x": 1.8340316872,
				"y": -1.0362568355,
				"z": -1.3691539924,
				"element": "H" 
			},
			{
				"x": 0.8229128875,
				"y": -4.1226519743,
				"z": 0.5570066211,
				"element": "H" 
			},
			{
				"x": 2.1365092987,
				"y": -1.692869799,
				"z": 1.5960913639,
				"element": "H" 
			},
			{
				"x": 1.9422124836,
				"y": -3.1918464791,
				"z": 2.4862202848,
				"element": "H" 
			},
			{
				"x": -0.5445831803,
				"y": -2.8472007979,
				"z": 2.5714228209,
				"element": "H" 
			},
			{
				"x": 0.3727488664,
				"y": -1.5832365619,
				"z": 3.3734256483,
				"element": "H" 
			},
			{
				"x": -2.4610298767,
				"y": -2.0027716384,
				"z": 1.1056993481,
				"element": "H" 
			},
			{
				"x": -3.1828256594,
				"y": 0.127694775,
				"z": -0.2881889728,
				"element": "H" 
			},
			{
				"x": 0.0829006119,
				"y": 3.4792157424,
				"z": 0.5752731323,
				"element": "H" 
			},
			{
				"x": -0.6805223427,
				"y": 4.2669400609,
				"z": -0.8431714718,
				"element": "H" 
			}
		],
		 "valence_orbital": [ 
			{
				"type": "occ",
				"energy": -0.3021,
				"method": "rhf"
			},
			{
				"type": "occ",
				"energy": -0.27943,
				"method": "rhf"
			},
			{
				"type": "occ",
				"energy": -0.27426,
				"method": "rhf"
			},
			{
				"type": "occ",
				"energy": -0.26826,
				"method": "rhf"
			},
			{
				"type": "occ",
				"energy": -0.25282,
				"method": "rhf"
			},
			{
				"type": "unocc",
				"energy": -0.08314,
				"method": "rhf"
			},
			{
				"type": "unocc",
				"energy": -0.01331,
				"method": "rhf"
			},
			{
				"type": "unocc",
				"energy": 0.00378,
				"method": "rhf"
			},
			{
				"type": "unocc",
				"energy": 0.03026,
				"method": "rhf"
			},
			{
				"type": "unocc",
				"energy": 0.0484,
				"method": "rhf"
			}
		],
		"cosmo_sigma_profile": { 
			"-0.025": 0.0,
			"-0.024": 0.0,
			"-0.023": 0.0,
			"-0.022": 0.0,
			"-0.021": 0.0,
			"-0.02": 0.0,
			"-0.019": 0.0,
			"-0.018": 0.0,
			"-0.017": 0.0,
			"-0.016": 0.0,
			"-0.015": 0.0,
			"-0.014": 1.20006568936,
			"-0.013": 0.808494007365,
			"-0.012": 1.31384738384,
			"-0.011": 0.847069712828,
			"-0.01": 1.06641606373,
			"-0.009": 5.2629872948,
			"-0.008": 9.31600585323,
			"-0.007": 16.7189370801,
			"-0.006": 22.602888295,
			"-0.005": 24.3327424542,
			"-0.004": 20.3398798845,
			"-0.003": 20.1482611285,
			"-0.002": 14.7142925999,
			"-0.001": 11.1037255085,
			"0.0": 15.6051947707,
			"0.001": 17.3269863363,
			"0.002": 21.6485939243,
			"0.003": 18.0643431335,
			"0.004": 12.4792209981,
			"0.005": 11.6648564116,
			"0.006": 5.61778953511,
			"0.007": 4.30104723497,
			"0.008": 5.72629727118,
			"0.009": 5.54090917409,
			"0.01": 7.34429401536,
			"0.011": 15.5107474229,
			"0.012": 9.07497652009,
			"0.013": 0.242109309981,
			"0.014": 0.0,
			"0.015": 0.0,
			"0.016": 0.0,
			"0.017": 0.0,
			"0.018": 0.0,
			"0.019": 0.0,
			"0.02": 0.0,
			"0.021": 0.0,
			"0.022": 0.0,
			"0.023": 0.0,
			"0.024": 0.0,
			"0.025": 0.0
		}
	}
}
