{
	 "smiles": "OC(=O)C1=CC=C(NC(=O)C(CC2=CC=C(O)C=C2)NC(=O)C2=CC=CC=C2)C=C1", 
	 "Tm": 514.15, 
	 "num_atms": 50, 
	 "gaussian": { 
		 "optdone": 1, 
		 "sigma_profile": "yes", 
		 "theory": "DFT", 
		 "functional": "B3LYP", 
		 "basiset": "6-31G**", 
		 "properties": { 
			 "R2extent": 15547.0716, 
			 "electric_dipole_moment_norm": 5.31221271976, 
			 "electric_quadrupole_moment_norm": 22.1361653958, 
			 "total_energy": -1374.16727489, 
			 "HOMO_LUMO_gap": 0.14493, 
			 "cosmo_polarized_energy": -33.09, 
			 "cosmo_cavitation_energy": 55.94, 
			 "cosmo_dispersion_energy": -36.07, 
			 "cosmo_repulsion_energy": 2.7, 
			 "cosmo_total_nonelectrostatic_energy": 22.57, 
			 "SMD_solvation_energy": 11.31 
		},
		"coords": [
			{
				"x": 1.4508109608,
				"y": 5.6760725631,
				"z": 0.3381270268,
				"element": "O" 
			},
			{
				"x": 2.4746397477,
				"y": 4.8904657854,
				"z": 0.7565037644,
				"element": "C" 
			},
			{
				"x": 3.5944735753,
				"y": 5.3270339471,
				"z": 0.9372941417,
				"element": "O" 
			},
			{
				"x": 2.0749336167,
				"y": 3.4753119187,
				"z": 0.9583565014,
				"element": "C" 
			},
			{
				"x": 3.0483218128,
				"y": 2.5680536111,
				"z": 1.4026168258,
				"element": "C" 
			},
			{
				"x": 2.7308224374,
				"y": 1.2300990502,
				"z": 1.593375002,
				"element": "C" 
			},
			{
				"x": 1.4245698132,
				"y": 0.7666546086,
				"z": 1.3527563505,
				"element": "C" 
			},
			{
				"x": 1.1320644812,
				"y": -0.5875578262,
				"z": 1.596834794,
				"element": "N" 
			},
			{
				"x": 0.3983018361,
				"y": -1.5594747603,
				"z": 0.9160239088,
				"element": "C" 
			},
			{
				"x": 0.2104454039,
				"y": -2.63069425,
				"z": 1.4679881725,
				"element": "O" 
			},
			{
				"x": -0.1098780375,
				"y": -1.3485464054,
				"z": -0.5207536613,
				"element": "C" 
			},
			{
				"x": -1.6225992659,
				"y": -0.9761161665,
				"z": -0.6024136841,
				"element": "C" 
			},
			{
				"x": -2.5637186658,
				"y": -1.9979088698,
				"z": -0.0054484062,
				"element": "C" 
			},
			{
				"x": -3.1707228874,
				"y": -1.7956220927,
				"z": 1.2369691201,
				"element": "C" 
			},
			{
				"x": -4.0404852418,
				"y": -2.7407871158,
				"z": 1.7818903509,
				"element": "C" 
			},
			{
				"x": -4.3150316421,
				"y": -3.9178802501,
				"z": 1.0808068453,
				"element": "C" 
			},
			{
				"x": -5.1585405262,
				"y": -4.8834118908,
				"z": 1.5548710624,
				"element": "O" 
			},
			{
				"x": -3.7187177064,
				"y": -4.1373798513,
				"z": -0.1667334852,
				"element": "C" 
			},
			{
				"x": -2.8564920383,
				"y": -3.1843100439,
				"z": -0.6960077587,
				"element": "C" 
			},
			{
				"x": 0.7203637015,
				"y": -0.4807557297,
				"z": -1.3404310407,
				"element": "N" 
			},
			{
				"x": 1.1642767667,
				"y": -0.9006702851,
				"z": -2.5758059278,
				"element": "C" 
			},
			{
				"x": 0.9275411675,
				"y": -2.0233399529,
				"z": -3.0125116468,
				"element": "O" 
			},
			{
				"x": 1.9585848876,
				"y": 0.1028950471,
				"z": -3.3624165363,
				"element": "C" 
			},
			{
				"x": 2.0490543746,
				"y": -0.0929522117,
				"z": -4.747270493,
				"element": "C" 
			},
			{
				"x": 2.7686342219,
				"y": 0.7988640114,
				"z": -5.5388034617,
				"element": "C" 
			},
			{
				"x": 3.418354411,
				"y": 1.8884337667,
				"z": -4.952438648,
				"element": "C" 
			},
			{
				"x": 3.3503485314,
				"y": 2.0784353949,
				"z": -3.5709729623,
				"element": "C" 
			},
			{
				"x": 2.6235773631,
				"y": 1.1903864817,
				"z": -2.7773410389,
				"element": "C" 
			},
			{
				"x": 0.4411156994,
				"y": 1.6846886355,
				"z": 0.9458547052,
				"element": "C" 
			},
			{
				"x": 0.7686329958,
				"y": 3.0211981312,
				"z": 0.733236371,
				"element": "C" 
			},
			{
				"x": 1.822727444,
				"y": 6.5681842186,
				"z": 0.2424045479,
				"element": "H" 
			},
			{
				"x": 4.0545688025,
				"y": 2.9323263691,
				"z": 1.5802757855,
				"element": "H" 
			},
			{
				"x": 3.4932399408,
				"y": 0.5259230878,
				"z": 1.913173459,
				"element": "H" 
			},
			{
				"x": 1.5671604406,
				"y": -0.9957037564,
				"z": 2.4163308872,
				"element": "H" 
			},
			{
				"x": -0.005431814,
				"y": -2.3395362553,
				"z": -0.9668156406,
				"element": "H" 
			},
			{
				"x": -1.8322867094,
				"y": -0.8571533887,
				"z": -1.6713134691,
				"element": "H" 
			},
			{
				"x": -1.7969791746,
				"y": 0.0023332822,
				"z": -0.1412568031,
				"element": "H" 
			},
			{
				"x": -2.9672605278,
				"y": -0.8845805809,
				"z": 1.794846623,
				"element": "H" 
			},
			{
				"x": -4.5035620906,
				"y": -2.5618797535,
				"z": 2.7502597363,
				"element": "H" 
			},
			{
				"x": -5.481274338,
				"y": -4.6199332819,
				"z": 2.4262482095,
				"element": "H" 
			},
			{
				"x": -3.9440774194,
				"y": -5.0538064249,
				"z": -0.7019826141,
				"element": "H" 
			},
			{
				"x": -2.3991714564,
				"y": -3.3644273059,
				"z": -1.6661162362,
				"element": "H" 
			},
			{
				"x": 0.7362861526,
				"y": 0.5087847729,
				"z": -1.1455327139,
				"element": "H" 
			},
			{
				"x": 1.5487487089,
				"y": -0.9537737066,
				"z": -5.1777160527,
				"element": "H" 
			},
			{
				"x": 2.8268044656,
				"y": 0.6439310867,
				"z": -6.6122576082,
				"element": "H" 
			},
			{
				"x": 3.9831698128,
				"y": 2.581965695,
				"z": -5.5688872461,
				"element": "H" 
			},
			{
				"x": 3.8705371428,
				"y": 2.9122110577,
				"z": -3.1085769292,
				"element": "H" 
			},
			{
				"x": 2.6121302333,
				"y": 1.330949947,
				"z": -1.7003811655,
				"element": "H" 
			},
			{
				"x": -0.5854088486,
				"y": 1.355986122,
				"z": 0.8333465377,
				"element": "H" 
			},
			{
				"x": 0.0044974404,
				"y": 3.7219135645,
				"z": 0.4164945007,
				"element": "H" 
			}
		],
		 "valence_orbital": [ 
			{
				"type": "occ",
				"energy": -0.25269,
				"method": "rhf"
			},
			{
				"type": "occ",
				"energy": -0.24944,
				"method": "rhf"
			},
			{
				"type": "occ",
				"energy": -0.24703,
				"method": "rhf"
			},
			{
				"type": "occ",
				"energy": -0.24573,
				"method": "rhf"
			},
			{
				"type": "occ",
				"energy": -0.21155,
				"method": "rhf"
			},
			{
				"type": "unocc",
				"energy": -0.06662,
				"method": "rhf"
			},
			{
				"type": "unocc",
				"energy": -0.03847,
				"method": "rhf"
			},
			{
				"type": "unocc",
				"energy": -0.03419,
				"method": "rhf"
			},
			{
				"type": "unocc",
				"energy": -0.00992,
				"method": "rhf"
			},
			{
				"type": "unocc",
				"energy": 0.00066,
				"method": "rhf"
			}
		],
		"cosmo_sigma_profile": { 
			"-0.025": 0.0,
			"-0.024": 0.0,
			"-0.023": 0.0,
			"-0.022": 0.0,
			"-0.021": 0.0,
			"-0.02": 0.0,
			"-0.019": 0.0529138148498,
			"-0.018": 1.03884129846,
			"-0.017": 2.01459211763,
			"-0.016": 1.87379755451,
			"-0.015": 2.08093814625,
			"-0.014": 2.75825761706,
			"-0.013": 2.71718830446,
			"-0.012": 2.9327896623,
			"-0.011": 2.73471745208,
			"-0.01": 3.99619295193,
			"-0.009": 6.00464345112,
			"-0.008": 7.21049052647,
			"-0.007": 12.1097413289,
			"-0.006": 21.906297089,
			"-0.005": 25.8206018694,
			"-0.004": 29.7700491051,
			"-0.003": 30.0409566069,
			"-0.002": 31.6504591374,
			"-0.001": 30.4644685068,
			"0.0": 31.2057504451,
			"0.001": 28.7973440519,
			"0.002": 27.9309810865,
			"0.003": 22.9462819015,
			"0.004": 27.9001264295,
			"0.005": 18.7049133119,
			"0.006": 12.1376576843,
			"0.007": 7.41756348446,
			"0.008": 7.03657852829,
			"0.009": 6.08907477087,
			"0.01": 8.0410879909,
			"0.011": 9.26022409236,
			"0.012": 11.8845042519,
			"0.013": 8.41951348775,
			"0.014": 1.67358120295,
			"0.015": 0.0,
			"0.016": 0.0,
			"0.017": 0.0,
			"0.018": 0.0,
			"0.019": 0.0,
			"0.02": 0.0,
			"0.021": 0.0,
			"0.022": 0.0,
			"0.023": 0.0,
			"0.024": 0.0,
			"0.025": 0.0
		}
	}
}
