{
	 "smiles": "CCOC=C1C(=O)N(C(=O)C2=C1C=CC=C2)C1=CC(Cl)=CC=C1", 
	 "Tm": 480.15, 
	 "num_atms": 37, 
	 "gaussian": { 
		 "optdone": 1, 
		 "sigma_profile": "yes", 
		 "theory": "DFT", 
		 "functional": "B3LYP", 
		 "basiset": "6-31G**", 
		 "properties": { 
			 "R2extent": 9772.2454, 
			 "electric_dipole_moment_norm": 7.0533882475, 
			 "electric_quadrupole_moment_norm": 11.29111058, 
			 "total_energy": -1434.98747851, 
			 "HOMO_LUMO_gap": 0.15836, 
			 "cosmo_polarized_energy": -16.83, 
			 "cosmo_cavitation_energy": 43.62, 
			 "cosmo_dispersion_energy": -30.71, 
			 "cosmo_repulsion_energy": 2.35, 
			 "cosmo_total_nonelectrostatic_energy": 15.26, 
			 "SMD_solvation_energy": 8.83 
		},
		"coords": [
			{
				"x": 2.0128040364,
				"y": 4.5573172103,
				"z": -2.5586880965,
				"element": "C" 
			},
			{
				"x": 0.5539081792,
				"y": 4.1290504651,
				"z": -2.5687100496,
				"element": "C" 
			},
			{
				"x": 0.2035010423,
				"y": 3.4274446731,
				"z": -1.3544342653,
				"element": "O" 
			},
			{
				"x": 0.4466831184,
				"y": 2.1144367186,
				"z": -1.3306999114,
				"element": "C" 
			},
			{
				"x": 0.2618641469,
				"y": 1.3032512768,
				"z": -0.2527706208,
				"element": "C" 
			},
			{
				"x": 0.5959374112,
				"y": -0.1149869831,
				"z": -0.5526173302,
				"element": "C" 
			},
			{
				"x": 1.0037167302,
				"y": -0.4974981232,
				"z": -1.642700841,
				"element": "O" 
			},
			{
				"x": 0.4239373463,
				"y": -1.0433866449,
				"z": 0.4919396919,
				"element": "N" 
			},
			{
				"x": -0.0287936673,
				"y": -0.734268469,
				"z": 1.791734696,
				"element": "C" 
			},
			{
				"x": -0.1435775633,
				"y": -1.6156559684,
				"z": 2.6291946295,
				"element": "O" 
			},
			{
				"x": -0.344549976,
				"y": 0.6870384504,
				"z": 2.0652782233,
				"element": "C" 
			},
			{
				"x": -0.208708751,
				"y": 1.6891766747,
				"z": 1.0800531197,
				"element": "C" 
			},
			{
				"x": -0.5357681261,
				"y": 3.0126662247,
				"z": 1.440445311,
				"element": "C" 
			},
			{
				"x": -0.975856884,
				"y": 3.3120511567,
				"z": 2.7256405519,
				"element": "C" 
			},
			{
				"x": -1.1060279645,
				"y": 2.3092790962,
				"z": 3.692727455,
				"element": "C" 
			},
			{
				"x": -0.7893348137,
				"y": 1.0000861522,
				"z": 3.3567069468,
				"element": "C" 
			},
			{
				"x": 0.7406420469,
				"y": -2.4244571101,
				"z": 0.2102682538,
				"element": "C" 
			},
			{
				"x": -0.2976653628,
				"y": -3.3383793728,
				"z": 0.0350509375,
				"element": "C" 
			},
			{
				"x": 0.0188743765,
				"y": -4.6682073505,
				"z": -0.2313458946,
				"element": "C" 
			},
			{
				"x": -1.2831833185,
				"y": -5.8300141133,
				"z": -0.4512251935,
				"element": "Cl" 
			},
			{
				"x": 1.3421167636,
				"y": -5.0960967083,
				"z": -0.3293784581,
				"element": "C" 
			},
			{
				"x": 2.3653278088,
				"y": -4.1639908249,
				"z": -0.1528387623,
				"element": "C" 
			},
			{
				"x": 2.0715292187,
				"y": -2.8288031147,
				"z": 0.119408963,
				"element": "C" 
			},
			{
				"x": 2.2376141392,
				"y": 5.1335906656,
				"z": -3.4619174864,
				"element": "H" 
			},
			{
				"x": 2.2259753043,
				"y": 5.1827371551,
				"z": -1.6874125562,
				"element": "H" 
			},
			{
				"x": 2.6787824164,
				"y": 3.6894018796,
				"z": -2.5336657622,
				"element": "H" 
			},
			{
				"x": 0.3257353424,
				"y": 3.4885849239,
				"z": -3.4288062383,
				"element": "H" 
			},
			{
				"x": -0.1158090432,
				"y": 4.9916612489,
				"z": -2.5958557699,
				"element": "H" 
			},
			{
				"x": 0.8062294762,
				"y": 1.6598739802,
				"z": -2.2520388022,
				"element": "H" 
			},
			{
				"x": -0.4432700998,
				"y": 3.8031031442,
				"z": 0.7093545283,
				"element": "H" 
			},
			{
				"x": -1.2207594112,
				"y": 4.3408143112,
				"z": 2.9752953127,
				"element": "H" 
			},
			{
				"x": -1.4507715402,
				"y": 2.5508035545,
				"z": 4.6934295266,
				"element": "H" 
			},
			{
				"x": -0.8752225848,
				"y": 0.190119645,
				"z": 4.072534922,
				"element": "H" 
			},
			{
				"x": -1.3298926208,
				"y": -3.0191104299,
				"z": 0.1112120672,
				"element": "H" 
			},
			{
				"x": 1.5630091474,
				"y": -6.1366555339,
				"z": -0.5387032667,
				"element": "H" 
			},
			{
				"x": 3.3996447358,
				"y": -4.4851189785,
				"z": -0.2277665217,
				"element": "H" 
			},
			{
				"x": 2.8639589401,
				"y": -2.1014588817,
				"z": 0.2561006907,
				"element": "H" 
			}
		],
		 "valence_orbital": [ 
			{
				"type": "occ",
				"energy": -0.25986,
				"method": "rhf"
			},
			{
				"type": "occ",
				"energy": -0.25896,
				"method": "rhf"
			},
			{
				"type": "occ",
				"energy": -0.25035,
				"method": "rhf"
			},
			{
				"type": "occ",
				"energy": -0.24047,
				"method": "rhf"
			},
			{
				"type": "occ",
				"energy": -0.22392,
				"method": "rhf"
			},
			{
				"type": "unocc",
				"energy": -0.06556,
				"method": "rhf"
			},
			{
				"type": "unocc",
				"energy": -0.03151,
				"method": "rhf"
			},
			{
				"type": "unocc",
				"energy": -0.01246,
				"method": "rhf"
			},
			{
				"type": "unocc",
				"energy": -0.0075,
				"method": "rhf"
			},
			{
				"type": "unocc",
				"energy": -0.00194,
				"method": "rhf"
			}
		],
		"cosmo_sigma_profile": { 
			"-0.025": 0.0,
			"-0.024": 0.0,
			"-0.023": 0.0,
			"-0.022": 0.0,
			"-0.021": 0.0,
			"-0.02": 0.0,
			"-0.019": 0.0,
			"-0.018": 0.0,
			"-0.017": 0.0,
			"-0.016": 0.0,
			"-0.015": 0.0,
			"-0.014": 0.0,
			"-0.013": 0.0,
			"-0.012": 0.0,
			"-0.011": 0.0,
			"-0.01": 0.280303782306,
			"-0.009": 1.45612370563,
			"-0.008": 4.17692092608,
			"-0.007": 12.343302852,
			"-0.006": 19.9560070195,
			"-0.005": 28.7798173493,
			"-0.004": 30.5579476405,
			"-0.003": 23.4553203609,
			"-0.002": 22.1284869242,
			"-0.001": 25.0888074516,
			"0.0": 26.3497644565,
			"0.001": 29.9580603606,
			"0.002": 30.4972791402,
			"0.003": 29.3649146974,
			"0.004": 24.3212036225,
			"0.005": 8.96474036231,
			"0.006": 3.77352740736,
			"0.007": 3.52908154072,
			"0.008": 3.22417037073,
			"0.009": 3.42784561884,
			"0.01": 3.95241206009,
			"0.011": 5.06440829661,
			"0.012": 8.89319436564,
			"0.013": 2.6923177447,
			"0.014": 0.0119787807052,
			"0.015": 0.0,
			"0.016": 0.0,
			"0.017": 0.0,
			"0.018": 0.0,
			"0.019": 0.0,
			"0.02": 0.0,
			"0.021": 0.0,
			"0.022": 0.0,
			"0.023": 0.0,
			"0.024": 0.0,
			"0.025": 0.0
		}
	}
}
