{
	 "smiles": "CCCCCCCCCCCCCCC(=O)OC", 
	 "Tm": 291.65, 
	 "num_atms": 50, 
	 "gaussian": { 
		 "optdone": 1, 
		 "sigma_profile": "yes", 
		 "theory": "DFT", 
		 "functional": "B3LYP", 
		 "basiset": "6-31G**", 
		 "properties": { 
			 "R2extent": 9136.5986, 
			 "electric_dipole_moment_norm": 1.85287632345, 
			 "electric_quadrupole_moment_norm": 17.1659653614, 
			 "total_energy": -779.488100908, 
			 "HOMO_LUMO_gap": 0.27808, 
			 "cosmo_polarized_energy": -6.8, 
			 "cosmo_cavitation_energy": 49.6, 
			 "cosmo_dispersion_energy": -32.0, 
			 "cosmo_repulsion_energy": 2.64, 
			 "cosmo_total_nonelectrostatic_energy": 20.24, 
			 "SMD_solvation_energy": 8.08 
		},
		"coords": [
			{
				"x": 0.6847725924,
				"y": -3.9641947139,
				"z": 2.0705572752,
				"element": "C" 
			},
			{
				"x": -0.0533656865,
				"y": -4.7389799944,
				"z": 0.9720929052,
				"element": "C" 
			},
			{
				"x": -0.4873115636,
				"y": -3.8842349703,
				"z": -0.2303422349,
				"element": "C" 
			},
			{
				"x": -1.5526035319,
				"y": -2.8241726442,
				"z": 0.0843965511,
				"element": "C" 
			},
			{
				"x": -1.9993622312,
				"y": -2.0383437192,
				"z": -1.1565939489,
				"element": "C" 
			},
			{
				"x": -3.1373572109,
				"y": -1.0326553614,
				"z": -0.906314993,
				"element": "C" 
			},
			{
				"x": -2.8203321201,
				"y": 0.1233866949,
				"z": 0.0591743873,
				"element": "C" 
			},
			{
				"x": -1.7144191343,
				"y": 1.0747380126,
				"z": -0.4197208551,
				"element": "C" 
			},
			{
				"x": -1.4876305833,
				"y": 2.2566516856,
				"z": 0.5336507438,
				"element": "C" 
			},
			{
				"x": -0.4597273657,
				"y": 3.2917820847,
				"z": 0.0424785088,
				"element": "C" 
			},
			{
				"x": 0.985690324,
				"y": 2.7891012106,
				"z": -0.1330909753,
				"element": "C" 
			},
			{
				"x": 1.662357628,
				"y": 2.3563008325,
				"z": 1.1764787525,
				"element": "C" 
			},
			{
				"x": 3.0822510255,
				"y": 1.7828633069,
				"z": 1.0290927095,
				"element": "C" 
			},
			{
				"x": 4.1533961967,
				"y": 2.7775774017,
				"z": 0.5364136845,
				"element": "C" 
			},
			{
				"x": 4.1053829374,
				"y": 3.1324614039,
				"z": -0.9370342033,
				"element": "C" 
			},
			{
				"x": 4.1206643507,
				"y": 4.2565787032,
				"z": -1.3923587081,
				"element": "O" 
			},
			{
				"x": 4.0808206105,
				"y": 2.0218923613,
				"z": -1.7125519429,
				"element": "O" 
			},
			{
				"x": 4.0609678351,
				"y": 2.2627836208,
				"z": -3.1282407296,
				"element": "C" 
			},
			{
				"x": 1.5747889551,
				"y": -3.4645896805,
				"z": 1.669867541,
				"element": "H" 
			},
			{
				"x": 0.0514803868,
				"y": -3.1959512026,
				"z": 2.5259648717,
				"element": "H" 
			},
			{
				"x": 1.0136478401,
				"y": -4.6338761358,
				"z": 2.8721578513,
				"element": "H" 
			},
			{
				"x": 0.59563346,
				"y": -5.5472920334,
				"z": 0.6112552643,
				"element": "H" 
			},
			{
				"x": -0.9368714411,
				"y": -5.2304155367,
				"z": 1.402553058,
				"element": "H" 
			},
			{
				"x": 0.3971979946,
				"y": -3.3923944797,
				"z": -0.6610115158,
				"element": "H" 
			},
			{
				"x": -0.8741330136,
				"y": -4.5492397393,
				"z": -1.0147081804,
				"element": "H" 
			},
			{
				"x": -1.1691904729,
				"y": -2.130232434,
				"z": 0.8423496617,
				"element": "H" 
			},
			{
				"x": -2.427552302,
				"y": -3.3150058855,
				"z": 0.5359100963,
				"element": "H" 
			},
			{
				"x": -1.13193862,
				"y": -1.5226810618,
				"z": -1.5902927807,
				"element": "H" 
			},
			{
				"x": -2.3332448962,
				"y": -2.751128467,
				"z": -1.9231133149,
				"element": "H" 
			},
			{
				"x": -4.0096150166,
				"y": -1.579805227,
				"z": -0.5229192475,
				"element": "H" 
			},
			{
				"x": -3.4482284544,
				"y": -0.6080819445,
				"z": -1.8708404066,
				"element": "H" 
			},
			{
				"x": -2.5522210588,
				"y": -0.2762775638,
				"z": 1.0465193758,
				"element": "H" 
			},
			{
				"x": -3.7401462967,
				"y": 0.7035585816,
				"z": 0.2149755076,
				"element": "H" 
			},
			{
				"x": -0.7778271568,
				"y": 0.5175163059,
				"z": -0.5455848951,
				"element": "H" 
			},
			{
				"x": -1.9749544148,
				"y": 1.4591570574,
				"z": -1.4170337873,
				"element": "H" 
			},
			{
				"x": -2.4450873757,
				"y": 2.7725130945,
				"z": 0.6889050889,
				"element": "H" 
			},
			{
				"x": -1.1962482489,
				"y": 1.8741482526,
				"z": 1.5212425161,
				"element": "H" 
			},
			{
				"x": -0.8052148334,
				"y": 3.697520416,
				"z": -0.9180666485,
				"element": "H" 
			},
			{
				"x": -0.4530527031,
				"y": 4.1396973501,
				"z": 0.7411091637,
				"element": "H" 
			},
			{
				"x": 1.5653356184,
				"y": 3.5979134183,
				"z": -0.5927398161,
				"element": "H" 
			},
			{
				"x": 1.0091287173,
				"y": 1.9546258019,
				"z": -0.8464998389,
				"element": "H" 
			},
			{
				"x": 1.0477823851,
				"y": 1.5925602776,
				"z": 1.6694176125,
				"element": "H" 
			},
			{
				"x": 1.689239478,
				"y": 3.2122491657,
				"z": 1.8664530612,
				"element": "H" 
			},
			{
				"x": 3.0689994453,
				"y": 0.9154657419,
				"z": 0.3594507148,
				"element": "H" 
			},
			{
				"x": 3.4054644376,
				"y": 1.4115051774,
				"z": 2.0090289232,
				"element": "H" 
			},
			{
				"x": 5.1447708378,
				"y": 2.3418251004,
				"z": 0.7163015189,
				"element": "H" 
			},
			{
				"x": 4.1054785603,
				"y": 3.7186795346,
				"z": 1.0912489495,
				"element": "H" 
			},
			{
				"x": 4.0490378129,
				"y": 1.2779673326,
				"z": -3.5955205637,
				"element": "H" 
			},
			{
				"x": 4.9469341938,
				"y": 2.8233875093,
				"z": -3.4369025259,
				"element": "H" 
			},
			{
				"x": 3.171212109,
				"y": 2.8315453586,
				"z": -3.4102641819,
				"element": "H" 
			}
		],
		 "valence_orbital": [ 
			{
				"type": "occ",
				"energy": -0.30304,
				"method": "rhf"
			},
			{
				"type": "occ",
				"energy": -0.30024,
				"method": "rhf"
			},
			{
				"type": "occ",
				"energy": -0.29968,
				"method": "rhf"
			},
			{
				"type": "occ",
				"energy": -0.29571,
				"method": "rhf"
			},
			{
				"type": "occ",
				"energy": -0.26344,
				"method": "rhf"
			},
			{
				"type": "unocc",
				"energy": 0.01464,
				"method": "rhf"
			},
			{
				"type": "unocc",
				"energy": 0.0722,
				"method": "rhf"
			},
			{
				"type": "unocc",
				"energy": 0.09089,
				"method": "rhf"
			},
			{
				"type": "unocc",
				"energy": 0.10047,
				"method": "rhf"
			},
			{
				"type": "unocc",
				"energy": 0.10284,
				"method": "rhf"
			}
		],
		"cosmo_sigma_profile": { 
			"-0.025": 0.0,
			"-0.024": 0.0,
			"-0.023": 0.0,
			"-0.022": 0.0,
			"-0.021": 0.0,
			"-0.02": 0.0,
			"-0.019": 0.0,
			"-0.018": 0.0,
			"-0.017": 0.0,
			"-0.016": 0.0,
			"-0.015": 0.0,
			"-0.014": 0.0,
			"-0.013": 0.0,
			"-0.012": 0.0,
			"-0.011": 0.0,
			"-0.01": 0.0,
			"-0.009": 0.0,
			"-0.008": 0.0,
			"-0.007": 0.256196161185,
			"-0.006": 4.8746122068,
			"-0.005": 9.27460203017,
			"-0.004": 11.0897603314,
			"-0.003": 19.9321602137,
			"-0.002": 49.9093692718,
			"-0.001": 77.1014346917,
			"0.0": 83.2300867258,
			"0.001": 65.3661431528,
			"0.002": 28.4548735243,
			"0.003": 4.64606848058,
			"0.004": 3.45898611862,
			"0.005": 2.89244953172,
			"0.006": 2.5906518113,
			"0.007": 2.35116695224,
			"0.008": 2.55545578452,
			"0.009": 1.85507482131,
			"0.01": 1.07118630055,
			"0.011": 2.51552404597,
			"0.012": 4.39405460994,
			"0.013": 2.52481032547,
			"0.014": 0.181228467237,
			"0.015": 0.0,
			"0.016": 0.0,
			"0.017": 0.0,
			"0.018": 0.0,
			"0.019": 0.0,
			"0.02": 0.0,
			"0.021": 0.0,
			"0.022": 0.0,
			"0.023": 0.0,
			"0.024": 0.0,
			"0.025": 0.0
		}
	}
}
