{
	 "smiles": "CCCCCS(N)(=O)=O", 
	 "Tm": 336.15, 
	 "num_atms": 22, 
	 "gaussian": { 
		 "optdone": 1, 
		 "sigma_profile": "yes", 
		 "theory": "DFT", 
		 "functional": "B3LYP", 
		 "basiset": "6-31G**", 
		 "properties": { 
			 "R2extent": 2054.1758, 
			 "electric_dipole_moment_norm": 3.0067724307, 
			 "electric_quadrupole_moment_norm": 12.6298087333, 
			 "total_energy": -801.704999715, 
			 "HOMO_LUMO_gap": 0.3448, 
			 "cosmo_polarized_energy": -14.03, 
			 "cosmo_cavitation_energy": 25.59, 
			 "cosmo_dispersion_energy": -18.73, 
			 "cosmo_repulsion_energy": 1.51, 
			 "cosmo_total_nonelectrostatic_energy": 8.37, 
			 "SMD_solvation_energy": 3.64 
		},
		"coords": [
			{
				"x": 1.2806067764,
				"y": 2.4313128156,
				"z": 2.0843175471,
				"element": "C" 
			},
			{
				"x": 0.7236365743,
				"y": 2.0281450577,
				"z": 0.7137782791,
				"element": "C" 
			},
			{
				"x": 1.0699354783,
				"y": 0.5951399446,
				"z": 0.2760652546,
				"element": "C" 
			},
			{
				"x": 0.5744084726,
				"y": -0.5287889588,
				"z": 1.2045661724,
				"element": "C" 
			},
			{
				"x": -0.9374609486,
				"y": -0.5836759039,
				"z": 1.4622564432,
				"element": "C" 
			},
			{
				"x": -1.8917291036,
				"y": -0.9990793298,
				"z": -0.0206755368,
				"element": "S" 
			},
			{
				"x": -3.4460053745,
				"y": -1.2251252588,
				"z": 0.6308859154,
				"element": "N" 
			},
			{
				"x": -1.9646067736,
				"y": 0.1777678517,
				"z": -0.896350385,
				"element": "O" 
			},
			{
				"x": -1.4148418574,
				"y": -2.2950781684,
				"z": -0.5192010204,
				"element": "O" 
			},
			{
				"x": 1.0626326524,
				"y": 3.4815113252,
				"z": 2.3041693614,
				"element": "H" 
			},
			{
				"x": 0.8520493863,
				"y": 1.8348731908,
				"z": 2.8976272534,
				"element": "H" 
			},
			{
				"x": 2.3689360964,
				"y": 2.3037807704,
				"z": 2.1227761946,
				"element": "H" 
			},
			{
				"x": 1.1155520666,
				"y": 2.7150263376,
				"z": -0.0464158152,
				"element": "H" 
			},
			{
				"x": -0.364596549,
				"y": 2.1658194454,
				"z": 0.6953399461,
				"element": "H" 
			},
			{
				"x": 2.1612638739,
				"y": 0.4984038572,
				"z": 0.2012965535,
				"element": "H" 
			},
			{
				"x": 0.6751027511,
				"y": 0.4331788165,
				"z": -0.7320837525,
				"element": "H" 
			},
			{
				"x": 1.0500087492,
				"y": -0.4378891106,
				"z": 2.1885020935,
				"element": "H" 
			},
			{
				"x": 0.8881815938,
				"y": -1.4974385387,
				"z": 0.8008606004,
				"element": "H" 
			},
			{
				"x": -1.1833719601,
				"y": -1.3656281152,
				"z": 2.185649551,
				"element": "H" 
			},
			{
				"x": -1.3461498525,
				"y": 0.3626009956,
				"z": 1.8252638136,
				"element": "H" 
			},
			{
				"x": -4.0905245824,
				"y": -0.600412627,
				"z": 0.1526943962,
				"element": "H" 
			},
			{
				"x": -3.7230274694,
				"y": -2.195644397,
				"z": 0.5044771347,
				"element": "H" 
			}
		],
		 "valence_orbital": [ 
			{
				"type": "occ",
				"energy": -0.32259,
				"method": "rhf"
			},
			{
				"type": "occ",
				"energy": -0.31489,
				"method": "rhf"
			},
			{
				"type": "occ",
				"energy": -0.30559,
				"method": "rhf"
			},
			{
				"type": "occ",
				"energy": -0.29944,
				"method": "rhf"
			},
			{
				"type": "occ",
				"energy": -0.2884,
				"method": "rhf"
			},
			{
				"type": "unocc",
				"energy": 0.0564,
				"method": "rhf"
			},
			{
				"type": "unocc",
				"energy": 0.05743,
				"method": "rhf"
			},
			{
				"type": "unocc",
				"energy": 0.08738,
				"method": "rhf"
			},
			{
				"type": "unocc",
				"energy": 0.09392,
				"method": "rhf"
			},
			{
				"type": "unocc",
				"energy": 0.10236,
				"method": "rhf"
			}
		],
		"cosmo_sigma_profile": { 
			"-0.025": 0.0,
			"-0.024": 0.0,
			"-0.023": 0.0,
			"-0.022": 0.0,
			"-0.021": 0.0,
			"-0.02": 0.0,
			"-0.019": 0.0,
			"-0.018": 0.0,
			"-0.017": 0.0,
			"-0.016": 0.0,
			"-0.015": 0.303180918196,
			"-0.014": 2.41741032681,
			"-0.013": 2.33916491655,
			"-0.012": 2.52145158855,
			"-0.011": 2.56634974282,
			"-0.01": 1.82191354093,
			"-0.009": 1.4266446566,
			"-0.008": 3.22898566893,
			"-0.007": 4.64485843815,
			"-0.006": 5.4986035952,
			"-0.005": 5.68649207928,
			"-0.004": 12.7575604762,
			"-0.003": 13.5973801099,
			"-0.002": 19.1957758815,
			"-0.001": 24.8366468852,
			"0.0": 20.5357349435,
			"0.001": 17.2848537729,
			"0.002": 9.57980187491,
			"0.003": 4.96857637512,
			"0.004": 3.58327250862,
			"0.005": 3.55155940413,
			"0.006": 3.45351932472,
			"0.007": 3.41540745692,
			"0.008": 2.93211011815,
			"0.009": 4.94111779261,
			"0.01": 4.57522918324,
			"0.011": 9.50893417275,
			"0.012": 6.42005984553,
			"0.013": 0.793236013171,
			"0.014": 0.0,
			"0.015": 0.0,
			"0.016": 0.0,
			"0.017": 0.0,
			"0.018": 0.0,
			"0.019": 0.0,
			"0.02": 0.0,
			"0.021": 0.0,
			"0.022": 0.0,
			"0.023": 0.0,
			"0.024": 0.0,
			"0.025": 0.0
		}
	}
}
