{
	 "smiles": "CCCCC1=CC=C(C=NC2=CC=C(C=C2)C(C)=O)C=C1", 
	 "Tm": 361.15, 
	 "num_atms": 42, 
	 "gaussian": { 
		 "optdone": 1, 
		 "sigma_profile": "yes", 
		 "theory": "DFT", 
		 "functional": "B3LYP", 
		 "basiset": "6-31G**", 
		 "properties": { 
			 "R2extent": 10398.7969, 
			 "electric_dipole_moment_norm": 5.52739211292, 
			 "electric_quadrupole_moment_norm": 18.9293596585, 
			 "total_energy": -866.663347015, 
			 "HOMO_LUMO_gap": 0.15978, 
			 "cosmo_polarized_energy": -12.27, 
			 "cosmo_cavitation_energy": 45.67, 
			 "cosmo_dispersion_energy": -31.43, 
			 "cosmo_repulsion_energy": 2.44, 
			 "cosmo_total_nonelectrostatic_energy": 16.68, 
			 "SMD_solvation_energy": 6.62 
		},
		"coords": [
			{
				"x": -0.9686265398,
				"y": -5.4248896603,
				"z": 3.994995092,
				"element": "C" 
			},
			{
				"x": -0.4776955795,
				"y": -4.2060283146,
				"z": 4.7852128902,
				"element": "C" 
			},
			{
				"x": -0.3045873101,
				"y": -2.9286566299,
				"z": 3.9478736714,
				"element": "C" 
			},
			{
				"x": -1.6244133641,
				"y": -2.3582233034,
				"z": 3.3837901977,
				"element": "C" 
			},
			{
				"x": -1.4189102628,
				"y": -1.0758145221,
				"z": 2.6104333969,
				"element": "C" 
			},
			{
				"x": -1.4846807911,
				"y": 0.1713549549,
				"z": 3.2466599599,
				"element": "C" 
			},
			{
				"x": -1.2598323401,
				"y": 1.345897601,
				"z": 2.536343194,
				"element": "C" 
			},
			{
				"x": -0.9543512908,
				"y": 1.3209266455,
				"z": 1.1636743226,
				"element": "C" 
			},
			{
				"x": -0.7386756229,
				"y": 2.6278218036,
				"z": 0.5095579951,
				"element": "C" 
			},
			{
				"x": -0.3940404107,
				"y": 2.9530241429,
				"z": -0.6763506214,
				"element": "N" 
			},
			{
				"x": -0.0887442372,
				"y": 2.0935810823,
				"z": -1.7329534473,
				"element": "C" 
			},
			{
				"x": 1.2303976799,
				"y": 1.6425606887,
				"z": -1.9261373084,
				"element": "C" 
			},
			{
				"x": 1.5524237401,
				"y": 0.8772763369,
				"z": -3.0416147813,
				"element": "C" 
			},
			{
				"x": 0.5794895647,
				"y": 0.5450439699,
				"z": -3.9983591722,
				"element": "C" 
			},
			{
				"x": -0.7320670821,
				"y": 1.0141140676,
				"z": -3.805810665,
				"element": "C" 
			},
			{
				"x": -1.0654103822,
				"y": 1.7830499528,
				"z": -2.7012107341,
				"element": "C" 
			},
			{
				"x": 0.8699529032,
				"y": -0.2758976839,
				"z": -5.2094119482,
				"element": "C" 
			},
			{
				"x": 2.2912234111,
				"y": -0.7691454908,
				"z": -5.438560701,
				"element": "C" 
			},
			{
				"x": -0.0142485541,
				"y": -0.5523196022,
				"z": -6.0095033955,
				"element": "O" 
			},
			{
				"x": -0.891415679,
				"y": 0.0693209407,
				"z": 0.5218899009,
				"element": "C" 
			},
			{
				"x": -1.1219810515,
				"y": -1.1002212493,
				"z": 1.2387365541,
				"element": "C" 
			},
			{
				"x": -0.2948230424,
				"y": -5.6513082813,
				"z": 3.1604031351,
				"element": "H" 
			},
			{
				"x": -1.9699757382,
				"y": -5.2703632949,
				"z": 3.5798340002,
				"element": "H" 
			},
			{
				"x": -1.015101608,
				"y": -6.3131919022,
				"z": 4.6331944,
				"element": "H" 
			},
			{
				"x": 0.4872553051,
				"y": -4.4472559336,
				"z": 5.248615092,
				"element": "H" 
			},
			{
				"x": -1.1691771641,
				"y": -4.0033811356,
				"z": 5.6146577597,
				"element": "H" 
			},
			{
				"x": 0.1732394245,
				"y": -2.1557611501,
				"z": 4.5630043796,
				"element": "H" 
			},
			{
				"x": 0.3849759257,
				"y": -3.1244865183,
				"z": 3.1156002162,
				"element": "H" 
			},
			{
				"x": -2.0986813122,
				"y": -3.1010920517,
				"z": 2.7327632989,
				"element": "H" 
			},
			{
				"x": -2.3178664728,
				"y": -2.1792243702,
				"z": 4.2153098822,
				"element": "H" 
			},
			{
				"x": -1.7212455103,
				"y": 0.2203218333,
				"z": 4.3066575018,
				"element": "H" 
			},
			{
				"x": -1.3230487075,
				"y": 2.3035236654,
				"z": 3.0475283629,
				"element": "H" 
			},
			{
				"x": -0.910120112,
				"y": 3.4750321118,
				"z": 1.1830659602,
				"element": "H" 
			},
			{
				"x": 1.9891454129,
				"y": 1.9021810654,
				"z": -1.1948379956,
				"element": "H" 
			},
			{
				"x": 2.5765048914,
				"y": 0.5376420647,
				"z": -3.1618243506,
				"element": "H" 
			},
			{
				"x": -1.4779642202,
				"y": 0.7590173936,
				"z": -4.5515502203,
				"element": "H" 
			},
			{
				"x": -2.0768642358,
				"y": 2.1529784008,
				"z": -2.5655925173,
				"element": "H" 
			},
			{
				"x": 2.6299498306,
				"y": -1.3990283991,
				"z": -4.6084504716,
				"element": "H" 
			},
			{
				"x": 2.9916146707,
				"y": 0.0695918541,
				"z": -5.5184340804,
				"element": "H" 
			},
			{
				"x": 2.3133144136,
				"y": -1.3474513666,
				"z": -6.3626608827,
				"element": "H" 
			},
			{
				"x": -0.6731309061,
				"y": 0.0085701374,
				"z": -0.5361688844,
				"element": "H" 
			},
			{
				"x": -1.0768076457,
				"y": -2.055889853,
				"z": 0.7222310137,
				"element": "H" 
			}
		],
		 "valence_orbital": [ 
			{
				"type": "occ",
				"energy": -0.26444,
				"method": "rhf"
			},
			{
				"type": "occ",
				"energy": -0.25627,
				"method": "rhf"
			},
			{
				"type": "occ",
				"energy": -0.24708,
				"method": "rhf"
			},
			{
				"type": "occ",
				"energy": -0.23778,
				"method": "rhf"
			},
			{
				"type": "occ",
				"energy": -0.21769,
				"method": "rhf"
			},
			{
				"type": "unocc",
				"energy": -0.05791,
				"method": "rhf"
			},
			{
				"type": "unocc",
				"energy": -0.04272,
				"method": "rhf"
			},
			{
				"type": "unocc",
				"energy": -0.01611,
				"method": "rhf"
			},
			{
				"type": "unocc",
				"energy": -0.00202,
				"method": "rhf"
			},
			{
				"type": "unocc",
				"energy": 0.03872,
				"method": "rhf"
			}
		],
		"cosmo_sigma_profile": { 
			"-0.025": 0.0,
			"-0.024": 0.0,
			"-0.023": 0.0,
			"-0.022": 0.0,
			"-0.021": 0.0,
			"-0.02": 0.0,
			"-0.019": 0.0,
			"-0.018": 0.0,
			"-0.017": 0.0,
			"-0.016": 0.0,
			"-0.015": 0.0,
			"-0.014": 0.0,
			"-0.013": 0.0,
			"-0.012": 0.0,
			"-0.011": 0.0,
			"-0.01": 0.0,
			"-0.009": 0.0,
			"-0.008": 0.541347151011,
			"-0.007": 4.43091538429,
			"-0.006": 15.21327942,
			"-0.005": 22.6028267743,
			"-0.004": 24.6361407463,
			"-0.003": 28.9373260114,
			"-0.002": 40.4073560903,
			"-0.001": 43.9325111869,
			"0.0": 43.7092413136,
			"0.001": 34.4858550386,
			"0.002": 23.6440738319,
			"0.003": 21.3408644431,
			"0.004": 22.1728213373,
			"0.005": 7.61065099699,
			"0.006": 3.27385134163,
			"0.007": 3.34320016837,
			"0.008": 2.47130165724,
			"0.009": 2.2784890743,
			"0.01": 2.76756747756,
			"0.011": 3.97498497763,
			"0.012": 4.47000569922,
			"0.013": 4.09553078064,
			"0.014": 1.02086853749,
			"0.015": 0.0,
			"0.016": 0.0,
			"0.017": 0.0,
			"0.018": 0.0,
			"0.019": 0.0,
			"0.02": 0.0,
			"0.021": 0.0,
			"0.022": 0.0,
			"0.023": 0.0,
			"0.024": 0.0,
			"0.025": 0.0
		}
	}
}
