{
	 "smiles": "COC1=C(CCC(O)=O)C=C(Br)C=C1", 
	 "Tm": 390.15, 
	 "num_atms": 25, 
	 "gaussian": { 
		 "optdone": 1, 
		 "sigma_profile": "yes", 
		 "theory": "DFT", 
		 "functional": "B3LYP", 
		 "basiset": "6-31G**", 
		 "properties": { 
			 "R2extent": 5696.3775, 
			 "electric_dipole_moment_norm": 3.51759697663, 
			 "electric_quadrupole_moment_norm": 12.0919500627, 
			 "total_energy": -3184.78146806, 
			 "HOMO_LUMO_gap": 0.20632, 
			 "cosmo_polarized_energy": -12.23, 
			 "cosmo_cavitation_energy": 31.77, 
			 "cosmo_dispersion_energy": -22.98, 
			 "cosmo_repulsion_energy": 1.85, 
			 "cosmo_total_nonelectrostatic_energy": 10.63, 
			 "SMD_solvation_energy": 6.03 
		},
		"coords": [
			{
				"x": -0.4607699235,
				"y": 2.7926426055,
				"z": -2.4807746346,
				"element": "C" 
			},
			{
				"x": -0.4675407052,
				"y": 2.2013296012,
				"z": -1.1900204276,
				"element": "O" 
			},
			{
				"x": 0.5163252329,
				"y": 1.3036760302,
				"z": -0.877378855,
				"element": "C" 
			},
			{
				"x": 0.4771597157,
				"y": 0.7953811054,
				"z": 0.4400400353,
				"element": "C" 
			},
			{
				"x": -0.5980175297,
				"y": 1.2388054315,
				"z": 1.4061354828,
				"element": "C" 
			},
			{
				"x": -1.9662810211,
				"y": 0.6096450829,
				"z": 1.1022739467,
				"element": "C" 
			},
			{
				"x": -3.033770275,
				"y": 1.0459742938,
				"z": 2.0801960704,
				"element": "C" 
			},
			{
				"x": -4.2297643398,
				"y": 0.4704952394,
				"z": 1.7994493282,
				"element": "O" 
			},
			{
				"x": -2.8825789284,
				"y": 1.8093543373,
				"z": 3.0090138468,
				"element": "O" 
			},
			{
				"x": 1.451734835,
				"y": -0.125940146,
				"z": 0.8228339189,
				"element": "C" 
			},
			{
				"x": 2.440192295,
				"y": -0.5363647924,
				"z": -0.0734001979,
				"element": "C" 
			},
			{
				"x": 3.7587720907,
				"y": -1.8016653271,
				"z": 0.4934507166,
				"element": "Br" 
			},
			{
				"x": 2.4773436559,
				"y": -0.0337895735,
				"z": -1.3669049833,
				"element": "C" 
			},
			{
				"x": 1.5104130386,
				"y": 0.8920886962,
				"z": -1.769437251,
				"element": "C" 
			},
			{
				"x": -1.3055793874,
				"y": 3.4825721543,
				"z": -2.499987482,
				"element": "H" 
			},
			{
				"x": -0.5899825852,
				"y": 2.0416777995,
				"z": -3.270562508,
				"element": "H" 
			},
			{
				"x": 0.4660764816,
				"y": 3.3508348457,
				"z": -2.6631403967,
				"element": "H" 
			},
			{
				"x": -0.3024195818,
				"y": 0.9804631316,
				"z": 2.4270258167,
				"element": "H" 
			},
			{
				"x": -0.7014797326,
				"y": 2.3275881582,
				"z": 1.376082944,
				"element": "H" 
			},
			{
				"x": -2.2999911396,
				"y": 0.8766993693,
				"z": 0.0938449758,
				"element": "H" 
			},
			{
				"x": -1.9145962182,
				"y": -0.4856577023,
				"z": 1.1231228913,
				"element": "H" 
			},
			{
				"x": -4.8503315208,
				"y": 0.8017501024,
				"z": 2.470254999,
				"element": "H" 
			},
			{
				"x": 1.4420679917,
				"y": -0.5227922382,
				"z": 1.8326022464,
				"element": "H" 
			},
			{
				"x": 3.2475418313,
				"y": -0.3527090967,
				"z": -2.0597392855,
				"element": "H" 
			},
			{
				"x": 1.5467757198,
				"y": 1.2807408917,
				"z": -2.7799811973,
				"element": "H" 
			}
		],
		 "valence_orbital": [ 
			{
				"type": "occ",
				"energy": -0.2895,
				"method": "rhf"
			},
			{
				"type": "occ",
				"energy": -0.28278,
				"method": "rhf"
			},
			{
				"type": "occ",
				"energy": -0.27579,
				"method": "rhf"
			},
			{
				"type": "occ",
				"energy": -0.25722,
				"method": "rhf"
			},
			{
				"type": "occ",
				"energy": -0.21988,
				"method": "rhf"
			},
			{
				"type": "unocc",
				"energy": -0.01356,
				"method": "rhf"
			},
			{
				"type": "unocc",
				"energy": -0.00175,
				"method": "rhf"
			},
			{
				"type": "unocc",
				"energy": 0.01105,
				"method": "rhf"
			},
			{
				"type": "unocc",
				"energy": 0.01227,
				"method": "rhf"
			},
			{
				"type": "unocc",
				"energy": 0.08075,
				"method": "rhf"
			}
		],
		"cosmo_sigma_profile": { 
			"-0.025": 0.0,
			"-0.024": 0.0,
			"-0.023": 0.0,
			"-0.022": 0.0,
			"-0.021": 0.0,
			"-0.02": 0.0,
			"-0.019": 0.0,
			"-0.018": 0.395879199872,
			"-0.017": 1.21082603635,
			"-0.016": 0.788512894637,
			"-0.015": 0.477072716397,
			"-0.014": 0.977577560404,
			"-0.013": 0.968724698739,
			"-0.012": 0.639851354256,
			"-0.011": 0.541659843636,
			"-0.01": 0.533900109824,
			"-0.009": 0.547250033627,
			"-0.008": 0.480275457073,
			"-0.007": 4.97608736387,
			"-0.006": 14.9776202502,
			"-0.005": 18.7447455907,
			"-0.004": 22.2567222266,
			"-0.003": 20.0904537191,
			"-0.002": 16.3530302516,
			"-0.001": 16.0243518687,
			"0.0": 15.2297059548,
			"0.001": 14.5540946922,
			"0.002": 18.8865580774,
			"0.003": 21.4461520228,
			"0.004": 23.182535514,
			"0.005": 15.4751016302,
			"0.006": 4.58139133989,
			"0.007": 2.97779554295,
			"0.008": 2.48890236975,
			"0.009": 3.90689159286,
			"0.01": 2.57228316282,
			"0.011": 3.73844484175,
			"0.012": 4.36308492842,
			"0.013": 0.569703580749,
			"0.014": 0.0,
			"0.015": 0.0,
			"0.016": 0.0,
			"0.017": 0.0,
			"0.018": 0.0,
			"0.019": 0.0,
			"0.02": 0.0,
			"0.021": 0.0,
			"0.022": 0.0,
			"0.023": 0.0,
			"0.024": 0.0,
			"0.025": 0.0
		}
	}
}
