{
	 "smiles": "OC1=CC(=O)N(C(S)=N1)C1=CC=C(Cl)C=C1", 
	 "Tm": 462.15, 
	 "num_atms": 23, 
	 "gaussian": { 
		 "optdone": 1, 
		 "sigma_profile": "yes", 
		 "theory": "DFT", 
		 "functional": "B3LYP", 
		 "basiset": "6-31G**", 
		 "properties": { 
			 "R2extent": 5484.2054, 
			 "electric_dipole_moment_norm": 4.12408701775, 
			 "electric_quadrupole_moment_norm": 9.86850348128, 
			 "total_energy": -1503.61801208, 
			 "HOMO_LUMO_gap": 0.18994, 
			 "cosmo_polarized_energy": -15.77, 
			 "cosmo_cavitation_energy": 31.93, 
			 "cosmo_dispersion_energy": -23.26, 
			 "cosmo_repulsion_energy": 1.79, 
			 "cosmo_total_nonelectrostatic_energy": 10.46, 
			 "SMD_solvation_energy": 5.06 
		},
		"coords": [
			{
				"x": 1.171668368,
				"y": -4.1663816658,
				"z": -0.2049735685,
				"element": "O" 
			},
			{
				"x": 0.889356592,
				"y": -2.8586092587,
				"z": -0.3406637086,
				"element": "C" 
			},
			{
				"x": 0.1550799248,
				"y": -2.4153851539,
				"z": -1.4078385012,
				"element": "C" 
			},
			{
				"x": -0.1392201279,
				"y": -1.0204235361,
				"z": -1.5414754494,
				"element": "C" 
			},
			{
				"x": -0.7730309415,
				"y": -0.4603632111,
				"z": -2.4191759506,
				"element": "O" 
			},
			{
				"x": 0.4190249192,
				"y": -0.211428794,
				"z": -0.4542306306,
				"element": "N" 
			},
			{
				"x": 1.1356477634,
				"y": -0.7789899066,
				"z": 0.5553597155,
				"element": "C" 
			},
			{
				"x": 1.7577222358,
				"y": 0.3161050867,
				"z": 1.815738608,
				"element": "S" 
			},
			{
				"x": 1.3864610112,
				"y": -2.0570362481,
				"z": 0.6480378684,
				"element": "N" 
			},
			{
				"x": 0.173800457,
				"y": 1.208025457,
				"z": -0.5046363383,
				"element": "C" 
			},
			{
				"x": 1.0711670206,
				"y": 2.0424100656,
				"z": -1.1731794288,
				"element": "C" 
			},
			{
				"x": 0.8333908555,
				"y": 3.4139959062,
				"z": -1.2316025621,
				"element": "C" 
			},
			{
				"x": -0.3100846875,
				"y": 3.9318688478,
				"z": -0.6225914918,
				"element": "C" 
			},
			{
				"x": -0.613127907,
				"y": 5.6584503621,
				"z": -0.6914187674,
				"element": "Cl" 
			},
			{
				"x": -1.2187848389,
				"y": 3.1043679119,
				"z": 0.0378668218,
				"element": "C" 
			},
			{
				"x": -0.9734000598,
				"y": 1.7339710474,
				"z": 0.0917877987,
				"element": "C" 
			},
			{
				"x": 1.6931458732,
				"y": -4.2548461049,
				"z": 0.6079791672,
				"element": "H" 
			},
			{
				"x": -0.2151320439,
				"y": -3.0943601845,
				"z": -2.1635559151,
				"element": "H" 
			},
			{
				"x": 2.3324008343,
				"y": -0.6971761514,
				"z": 2.4919953935,
				"element": "H" 
			},
			{
				"x": 1.9491917309,
				"y": 1.617883955,
				"z": -1.6482714868,
				"element": "H" 
			},
			{
				"x": 1.5228685733,
				"y": 4.0733404727,
				"z": -1.7461110351,
				"element": "H" 
			},
			{
				"x": -2.104959498,
				"y": 3.5259997082,
				"z": 0.4980372128,
				"element": "H" 
			},
			{
				"x": -1.6717860546,
				"y": 1.0715813944,
				"z": 0.5921222484,
				"element": "H" 
			}
		],
		 "valence_orbital": [ 
			{
				"type": "occ",
				"energy": -0.28655,
				"method": "rhf"
			},
			{
				"type": "occ",
				"energy": -0.27716,
				"method": "rhf"
			},
			{
				"type": "occ",
				"energy": -0.26276,
				"method": "rhf"
			},
			{
				"type": "occ",
				"energy": -0.2594,
				"method": "rhf"
			},
			{
				"type": "occ",
				"energy": -0.23133,
				"method": "rhf"
			},
			{
				"type": "unocc",
				"energy": -0.04139,
				"method": "rhf"
			},
			{
				"type": "unocc",
				"energy": -0.03725,
				"method": "rhf"
			},
			{
				"type": "unocc",
				"energy": -0.02813,
				"method": "rhf"
			},
			{
				"type": "unocc",
				"energy": 0.00027,
				"method": "rhf"
			},
			{
				"type": "unocc",
				"energy": 0.00165,
				"method": "rhf"
			}
		],
		"cosmo_sigma_profile": { 
			"-0.025": 0.0,
			"-0.024": 0.0,
			"-0.023": 0.0,
			"-0.022": 0.0,
			"-0.021": 0.0,
			"-0.02": 0.0,
			"-0.019": 0.0,
			"-0.018": 0.25852475728,
			"-0.017": 1.01406312526,
			"-0.016": 0.625303523882,
			"-0.015": 0.681835954526,
			"-0.014": 0.774295321279,
			"-0.013": 1.06279767372,
			"-0.012": 1.6981902175,
			"-0.011": 1.91225258569,
			"-0.01": 2.0109753027,
			"-0.009": 1.54639566085,
			"-0.008": 8.90203949258,
			"-0.007": 13.9244683629,
			"-0.006": 11.595702213,
			"-0.005": 12.0578551064,
			"-0.004": 12.2229244737,
			"-0.003": 11.1996218319,
			"-0.002": 13.0950108547,
			"-0.001": 16.0369601376,
			"0.0": 19.7596779776,
			"0.001": 25.3320167721,
			"0.002": 27.7300030973,
			"0.003": 18.6235393889,
			"0.004": 17.5145299284,
			"0.005": 9.59031699776,
			"0.006": 5.4614957426,
			"0.007": 4.34001174144,
			"0.008": 3.04587428459,
			"0.009": 3.56980902586,
			"0.01": 3.24174774982,
			"0.011": 1.657408172,
			"0.012": 2.77811260368,
			"0.013": 5.74367698771,
			"0.014": 2.07595375926,
			"0.015": 0.154693684599,
			"0.016": 0.0,
			"0.017": 0.0,
			"0.018": 0.0,
			"0.019": 0.0,
			"0.02": 0.0,
			"0.021": 0.0,
			"0.022": 0.0,
			"0.023": 0.0,
			"0.024": 0.0,
			"0.025": 0.0
		}
	}
}
