{
	 "smiles": "CCCCCCCCCCC(C)Br", 
	 "Tm": 177.15, 
	 "num_atms": 38, 
	 "gaussian": { 
		 "optdone": 1, 
		 "sigma_profile": "yes", 
		 "theory": "DFT", 
		 "functional": "B3LYP", 
		 "basiset": "6-31G**", 
		 "properties": { 
			 "R2extent": 6408.9702, 
			 "electric_dipole_moment_norm": 2.35877286104, 
			 "electric_quadrupole_moment_norm": 8.9760216711, 
			 "total_energy": -3043.78581991, 
			 "HOMO_LUMO_gap": 0.26751, 
			 "cosmo_polarized_energy": -4.2, 
			 "cosmo_cavitation_energy": 38.87, 
			 "cosmo_dispersion_energy": -26.41, 
			 "cosmo_repulsion_energy": 2.14, 
			 "cosmo_total_nonelectrostatic_energy": 14.6, 
			 "SMD_solvation_energy": 4.32 
		},
		"coords": [
			{
				"x": -1.4248540035,
				"y": 1.2929882973,
				"z": -4.5742666165,
				"element": "C" 
			},
			{
				"x": -2.6820391275,
				"y": 1.4156682622,
				"z": -3.7023312491,
				"element": "C" 
			},
			{
				"x": -2.4298236539,
				"y": 1.6549818107,
				"z": -2.1977203595,
				"element": "C" 
			},
			{
				"x": -2.2639093745,
				"y": 0.396160534,
				"z": -1.3232067159,
				"element": "C" 
			},
			{
				"x": -1.034928827,
				"y": -0.4958928517,
				"z": -1.5732272506,
				"element": "C" 
			},
			{
				"x": 0.3158993811,
				"y": 0.1909841412,
				"z": -1.3235882429,
				"element": "C" 
			},
			{
				"x": 1.5339012898,
				"y": -0.7349867028,
				"z": -1.5151693066,
				"element": "C" 
			},
			{
				"x": 1.7382856171,
				"y": -1.8438473715,
				"z": -0.4567046328,
				"element": "C" 
			},
			{
				"x": 2.6597346229,
				"y": -1.4828467156,
				"z": 0.7244011649,
				"element": "C" 
			},
			{
				"x": 2.1841119907,
				"y": -0.3754858189,
				"z": 1.6774666982,
				"element": "C" 
			},
			{
				"x": 0.870780253,
				"y": -0.6219659438,
				"z": 2.4161018371,
				"element": "C" 
			},
			{
				"x": 0.4402364103,
				"y": 0.5459682731,
				"z": 3.2916613376,
				"element": "C" 
			},
			{
				"x": 1.0227518558,
				"y": -2.2600812928,
				"z": 3.5756892746,
				"element": "Br" 
			},
			{
				"x": -0.8035317715,
				"y": 0.4371886367,
				"z": -4.2953405478,
				"element": "H" 
			},
			{
				"x": -1.6913435748,
				"y": 1.1742480834,
				"z": -5.6301531389,
				"element": "H" 
			},
			{
				"x": -0.8035967434,
				"y": 2.1923790619,
				"z": -4.491073847,
				"element": "H" 
			},
			{
				"x": -3.2792004078,
				"y": 2.2507087697,
				"z": -4.0901311976,
				"element": "H" 
			},
			{
				"x": -3.3079050967,
				"y": 0.521113755,
				"z": -3.8268256862,
				"element": "H" 
			},
			{
				"x": -1.5650749609,
				"y": 2.3210650426,
				"z": -2.0751203527,
				"element": "H" 
			},
			{
				"x": -3.2850404141,
				"y": 2.2095546517,
				"z": -1.7908511258,
				"element": "H" 
			},
			{
				"x": -3.1672129256,
				"y": -0.2190148849,
				"z": -1.4357510786,
				"element": "H" 
			},
			{
				"x": -2.2499109379,
				"y": 0.7136928951,
				"z": -0.2706924153,
				"element": "H" 
			},
			{
				"x": -1.0562292341,
				"y": -0.8898797859,
				"z": -2.5975469857,
				"element": "H" 
			},
			{
				"x": -1.1226840202,
				"y": -1.374837435,
				"z": -0.9209520182,
				"element": "H" 
			},
			{
				"x": 0.420771037,
				"y": 1.040038494,
				"z": -2.0100656389,
				"element": "H" 
			},
			{
				"x": 0.31723279,
				"y": 0.6237086424,
				"z": -0.3140880676,
				"element": "H" 
			},
			{
				"x": 2.4456105463,
				"y": -0.1241771476,
				"z": -1.565783867,
				"element": "H" 
			},
			{
				"x": 1.439997761,
				"y": -1.2028824537,
				"z": -2.5042703907,
				"element": "H" 
			},
			{
				"x": 2.1873312795,
				"y": -2.7149923758,
				"z": -0.9489504381,
				"element": "H" 
			},
			{
				"x": 0.7693919645,
				"y": -2.1984271878,
				"z": -0.0829504811,
				"element": "H" 
			},
			{
				"x": 2.8406090148,
				"y": -2.3879609388,
				"z": 1.3149084175,
				"element": "H" 
			},
			{
				"x": 3.6353010898,
				"y": -1.1784250606,
				"z": 0.3224555556,
				"element": "H" 
			},
			{
				"x": 2.0544110334,
				"y": 0.5639406779,
				"z": 1.1211853672,
				"element": "H" 
			},
			{
				"x": 2.9674215186,
				"y": -0.1818519755,
				"z": 2.4203677439,
				"element": "H" 
			},
			{
				"x": 0.0733976238,
				"y": -0.8984715668,
				"z": 1.7250901479,
				"element": "H" 
			},
			{
				"x": 0.2838012758,
				"y": 1.4318778245,
				"z": 2.6632165298,
				"element": "H" 
			},
			{
				"x": -0.4920577472,
				"y": 0.3295495064,
				"z": 3.8178602969,
				"element": "H" 
			},
			{
				"x": 1.2075644654,
				"y": 0.7850101498,
				"z": 4.0336572794,
				"element": "H" 
			}
		],
		 "valence_orbital": [ 
			{
				"type": "occ",
				"energy": -0.30719,
				"method": "rhf"
			},
			{
				"type": "occ",
				"energy": -0.30576,
				"method": "rhf"
			},
			{
				"type": "occ",
				"energy": -0.30178,
				"method": "rhf"
			},
			{
				"type": "occ",
				"energy": -0.26529,
				"method": "rhf"
			},
			{
				"type": "occ",
				"energy": -0.2642,
				"method": "rhf"
			},
			{
				"type": "unocc",
				"energy": 0.00331,
				"method": "rhf"
			},
			{
				"type": "unocc",
				"energy": 0.06154,
				"method": "rhf"
			},
			{
				"type": "unocc",
				"energy": 0.08588,
				"method": "rhf"
			},
			{
				"type": "unocc",
				"energy": 0.08965,
				"method": "rhf"
			},
			{
				"type": "unocc",
				"energy": 0.09886,
				"method": "rhf"
			}
		],
		"cosmo_sigma_profile": { 
			"-0.025": 0.0,
			"-0.024": 0.0,
			"-0.023": 0.0,
			"-0.022": 0.0,
			"-0.021": 0.0,
			"-0.02": 0.0,
			"-0.019": 0.0,
			"-0.018": 0.0,
			"-0.017": 0.0,
			"-0.016": 0.0,
			"-0.015": 0.0,
			"-0.014": 0.0,
			"-0.013": 0.0,
			"-0.012": 0.0,
			"-0.011": 0.0,
			"-0.01": 0.0,
			"-0.009": 0.0,
			"-0.008": 0.0,
			"-0.007": 0.0,
			"-0.006": 0.0580065204294,
			"-0.005": 3.37216688429,
			"-0.004": 13.4246551518,
			"-0.003": 19.964308636,
			"-0.002": 38.3275290038,
			"-0.001": 60.887993633,
			"0.0": 60.2282945137,
			"0.001": 49.3681694796,
			"0.002": 22.7808329169,
			"0.003": 5.91019070668,
			"0.004": 5.70812976074,
			"0.005": 5.49957368499,
			"0.006": 8.07371827514,
			"0.007": 7.66573137309,
			"0.008": 0.326363799763,
			"0.009": 0.0,
			"0.01": 0.0,
			"0.011": 0.0,
			"0.012": 0.0,
			"0.013": 0.0,
			"0.014": 0.0,
			"0.015": 0.0,
			"0.016": 0.0,
			"0.017": 0.0,
			"0.018": 0.0,
			"0.019": 0.0,
			"0.02": 0.0,
			"0.021": 0.0,
			"0.022": 0.0,
			"0.023": 0.0,
			"0.024": 0.0,
			"0.025": 0.0
		}
	}
}
