{
	 "smiles": "BrCC1(CN2C(=O)C3=C(C=CC=C3)C2=O)CCCC1", 
	 "Tm": 342.15, 
	 "num_atms": 35, 
	 "gaussian": { 
		 "optdone": 1, 
		 "sigma_profile": "yes", 
		 "theory": "DFT", 
		 "functional": "B3LYP", 
		 "basiset": "6-31G**", 
		 "properties": { 
			 "R2extent": 7692.2394, 
			 "electric_dipole_moment_norm": 4.09220956819, 
			 "electric_quadrupole_moment_norm": 19.6529663453, 
			 "total_energy": -3357.88948454, 
			 "HOMO_LUMO_gap": 0.17556, 
			 "cosmo_polarized_energy": -11.35, 
			 "cosmo_cavitation_energy": 38.38, 
			 "cosmo_dispersion_energy": -27.4, 
			 "cosmo_repulsion_energy": 2.07, 
			 "cosmo_total_nonelectrostatic_energy": 13.06, 
			 "SMD_solvation_energy": 5.58 
		},
		"coords": [
			{
				"x": 2.6886346121,
				"y": 0.8328802225,
				"z": -3.4827639522,
				"element": "Br" 
			},
			{
				"x": 1.2159105397,
				"y": 1.2763718034,
				"z": -2.2182802355,
				"element": "C" 
			},
			{
				"x": 1.6841704062,
				"y": 1.5455648235,
				"z": -0.783097991,
				"element": "C" 
			},
			{
				"x": 0.4219834099,
				"y": 1.8746653218,
				"z": 0.0689464152,
				"element": "C" 
			},
			{
				"x": -0.5493121324,
				"y": 0.7974647408,
				"z": 0.2505154966,
				"element": "N" 
			},
			{
				"x": -0.6348678493,
				"y": 0.0076739197,
				"z": 1.4148817972,
				"element": "C" 
			},
			{
				"x": 0.1456063785,
				"y": 0.0389759187,
				"z": 2.3461349015,
				"element": "O" 
			},
			{
				"x": -1.8633639084,
				"y": -0.8233422043,
				"z": 1.2544927906,
				"element": "C" 
			},
			{
				"x": -2.4820332581,
				"y": -0.4628636598,
				"z": 0.0561864993,
				"element": "C" 
			},
			{
				"x": -3.6620414069,
				"y": -1.0614318003,
				"z": -0.3611732078,
				"element": "C" 
			},
			{
				"x": -4.2108870839,
				"y": -2.0483662104,
				"z": 0.4685596564,
				"element": "C" 
			},
			{
				"x": -3.5901326348,
				"y": -2.4100010502,
				"z": 1.6714817209,
				"element": "C" 
			},
			{
				"x": -2.3998566982,
				"y": -1.7967445154,
				"z": 2.0848731701,
				"element": "C" 
			},
			{
				"x": -1.6655369757,
				"y": 0.6075673507,
				"z": -0.5858428338,
				"element": "C" 
			},
			{
				"x": -1.8852172533,
				"y": 1.2245789448,
				"z": -1.610496737,
				"element": "O" 
			},
			{
				"x": 2.6351321224,
				"y": 2.7817683361,
				"z": -0.6868370318,
				"element": "C" 
			},
			{
				"x": 3.7005389749,
				"y": 2.3999638475,
				"z": 0.3539210058,
				"element": "C" 
			},
			{
				"x": 3.9239016978,
				"y": 0.904450444,
				"z": 0.084124708,
				"element": "C" 
			},
			{
				"x": 2.5021453196,
				"y": 0.3604792892,
				"z": -0.165281126,
				"element": "C" 
			},
			{
				"x": 0.7225107594,
				"y": 2.1414797614,
				"z": -2.6601471139,
				"element": "H" 
			},
			{
				"x": 0.5486926335,
				"y": 0.4199759419,
				"z": -2.2833089424,
				"element": "H" 
			},
			{
				"x": -0.1163803199,
				"y": 2.7154616523,
				"z": -0.3794513364,
				"element": "H" 
			},
			{
				"x": 0.7493111516,
				"y": 2.1635273476,
				"z": 1.0712041691,
				"element": "H" 
			},
			{
				"x": -4.135555963,
				"y": -0.7711431013,
				"z": -1.2934080448,
				"element": "H" 
			},
			{
				"x": -5.1332553165,
				"y": -2.5415887747,
				"z": 0.1769294039,
				"element": "H" 
			},
			{
				"x": -4.0414129176,
				"y": -3.177675506,
				"z": 2.2928563359,
				"element": "H" 
			},
			{
				"x": -1.911986762,
				"y": -2.0664094601,
				"z": 3.0158877686,
				"element": "H" 
			},
			{
				"x": 2.0938515715,
				"y": 3.70152301,
				"z": -0.436477368,
				"element": "H" 
			},
			{
				"x": 3.1153854587,
				"y": 2.9438649303,
				"z": -1.6566437716,
				"element": "H" 
			},
			{
				"x": 4.6117012941,
				"y": 2.9998469171,
				"z": 0.2627826701,
				"element": "H" 
			},
			{
				"x": 3.3157986014,
				"y": 2.5461075761,
				"z": 1.3717727852,
				"element": "H" 
			},
			{
				"x": 4.4323565041,
				"y": 0.3875357837,
				"z": 0.9041748162,
				"element": "H" 
			},
			{
				"x": 4.5350158957,
				"y": 0.7814910086,
				"z": -0.8170451816,
				"element": "H" 
			},
			{
				"x": 2.5055006395,
				"y": -0.5141915614,
				"z": -0.8216421947,
				"element": "H" 
			},
			{
				"x": 2.0539925094,
				"y": 0.0568389521,
				"z": 0.7845709578,
				"element": "H" 
			}
		],
		 "valence_orbital": [ 
			{
				"type": "occ",
				"energy": -0.28336,
				"method": "rhf"
			},
			{
				"type": "occ",
				"energy": -0.27487,
				"method": "rhf"
			},
			{
				"type": "occ",
				"energy": -0.27171,
				"method": "rhf"
			},
			{
				"type": "occ",
				"energy": -0.2652,
				"method": "rhf"
			},
			{
				"type": "occ",
				"energy": -0.26381,
				"method": "rhf"
			},
			{
				"type": "unocc",
				"energy": -0.08825,
				"method": "rhf"
			},
			{
				"type": "unocc",
				"energy": -0.04705,
				"method": "rhf"
			},
			{
				"type": "unocc",
				"energy": 0.00858,
				"method": "rhf"
			},
			{
				"type": "unocc",
				"energy": 0.02257,
				"method": "rhf"
			},
			{
				"type": "unocc",
				"energy": 0.06175,
				"method": "rhf"
			}
		],
		"cosmo_sigma_profile": { 
			"-0.025": 0.0,
			"-0.024": 0.0,
			"-0.023": 0.0,
			"-0.022": 0.0,
			"-0.021": 0.0,
			"-0.02": 0.0,
			"-0.019": 0.0,
			"-0.018": 0.0,
			"-0.017": 0.0,
			"-0.016": 0.0,
			"-0.015": 0.0,
			"-0.014": 0.0,
			"-0.013": 0.0,
			"-0.012": 0.0,
			"-0.011": 0.0,
			"-0.01": 0.0,
			"-0.009": 0.0,
			"-0.008": 1.96234821839,
			"-0.007": 9.55317053216,
			"-0.006": 16.6988878412,
			"-0.005": 19.1341278109,
			"-0.004": 20.5313924171,
			"-0.003": 21.8663048069,
			"-0.002": 25.4037201844,
			"-0.001": 32.3746081636,
			"0.0": 35.1272415596,
			"0.001": 33.4179911233,
			"0.002": 23.8486534474,
			"0.003": 11.6988395341,
			"0.004": 9.62465595567,
			"0.005": 9.24201779176,
			"0.006": 9.91412466195,
			"0.007": 4.93498874363,
			"0.008": 3.54804123364,
			"0.009": 3.01015131975,
			"0.01": 5.02855801963,
			"0.011": 7.33678202784,
			"0.012": 2.38819500008,
			"0.013": 0.0,
			"0.014": 0.0,
			"0.015": 0.0,
			"0.016": 0.0,
			"0.017": 0.0,
			"0.018": 0.0,
			"0.019": 0.0,
			"0.02": 0.0,
			"0.021": 0.0,
			"0.022": 0.0,
			"0.023": 0.0,
			"0.024": 0.0,
			"0.025": 0.0
		}
	}
}
