{
	 "smiles": "OC(=O)C(Br)C1=CC=CC=C1Cl", 
	 "Tm": 380.15, 
	 "num_atms": 18, 
	 "gaussian": { 
		 "optdone": 1, 
		 "sigma_profile": "yes", 
		 "theory": "DFT", 
		 "functional": "B3LYP", 
		 "basiset": "6-31G**", 
		 "properties": { 
			 "R2extent": 3667.5493, 
			 "electric_dipole_moment_norm": 2.78473807925, 
			 "electric_quadrupole_moment_norm": 12.1313904842, 
			 "total_energy": -3490.51711184, 
			 "HOMO_LUMO_gap": 0.19364, 
			 "cosmo_polarized_energy": -11.2, 
			 "cosmo_cavitation_energy": 26.35, 
			 "cosmo_dispersion_energy": -19.42, 
			 "cosmo_repulsion_energy": 1.56, 
			 "cosmo_total_nonelectrostatic_energy": 8.49, 
			 "SMD_solvation_energy": 4.3 
		},
		"coords": [
			{
				"x": -2.715872694,
				"y": 0.6496416879,
				"z": 1.8860133845,
				"element": "O" 
			},
			{
				"x": -2.049496848,
				"y": -0.1092632083,
				"z": 1.0085276843,
				"element": "C" 
			},
			{
				"x": -2.5236195531,
				"y": -0.4300589568,
				"z": -0.0532566754,
				"element": "O" 
			},
			{
				"x": -0.6756592647,
				"y": -0.6692095084,
				"z": 1.4283983467,
				"element": "C" 
			},
			{
				"x": 0.1222160857,
				"y": 0.3858318091,
				"z": 2.9742674314,
				"element": "Br" 
			},
			{
				"x": 0.3206490102,
				"y": -0.7804148537,
				"z": 0.3178608314,
				"element": "C" 
			},
			{
				"x": 0.4214001933,
				"y": 0.2220048773,
				"z": -0.6601712157,
				"element": "C" 
			},
			{
				"x": 1.3532818646,
				"y": 0.1404987131,
				"z": -1.6884135384,
				"element": "C" 
			},
			{
				"x": 2.2150252446,
				"y": -0.9559646754,
				"z": -1.7598922084,
				"element": "C" 
			},
			{
				"x": 2.1413578341,
				"y": -1.96462892,
				"z": -0.8021046982,
				"element": "C" 
			},
			{
				"x": 1.2031787577,
				"y": -1.8696471751,
				"z": 0.2255747942,
				"element": "C" 
			},
			{
				"x": 1.1637966144,
				"y": -3.165601718,
				"z": 1.4161691503,
				"element": "Cl" 
			},
			{
				"x": -2.1439351768,
				"y": 0.8460549581,
				"z": 2.6510656526,
				"element": "H" 
			},
			{
				"x": -0.8513623362,
				"y": -1.6394023317,
				"z": 1.8930168631,
				"element": "H" 
			},
			{
				"x": -0.2549125395,
				"y": 1.0689669711,
				"z": -0.6149907122,
				"element": "H" 
			},
			{
				"x": 1.4048298863,
				"y": 0.9278646039,
				"z": -2.43338469,
				"element": "H" 
			},
			{
				"x": 2.9448966484,
				"y": -1.0303045281,
				"z": -2.5601783463,
				"element": "H" 
			},
			{
				"x": 2.8027262729,
				"y": -2.8225677449,
				"z": -0.8432020538,
				"element": "H" 
			}
		],
		 "valence_orbital": [ 
			{
				"type": "occ",
				"energy": -0.31837,
				"method": "rhf"
			},
			{
				"type": "occ",
				"energy": -0.30213,
				"method": "rhf"
			},
			{
				"type": "occ",
				"energy": -0.28259,
				"method": "rhf"
			},
			{
				"type": "occ",
				"energy": -0.26965,
				"method": "rhf"
			},
			{
				"type": "occ",
				"energy": -0.26119,
				"method": "rhf"
			},
			{
				"type": "unocc",
				"energy": -0.06755,
				"method": "rhf"
			},
			{
				"type": "unocc",
				"energy": -0.02638,
				"method": "rhf"
			},
			{
				"type": "unocc",
				"energy": -0.01613,
				"method": "rhf"
			},
			{
				"type": "unocc",
				"energy": 0.00944,
				"method": "rhf"
			},
			{
				"type": "unocc",
				"energy": 0.01853,
				"method": "rhf"
			}
		],
		"cosmo_sigma_profile": { 
			"-0.025": 0.0,
			"-0.024": 0.0,
			"-0.023": 0.0,
			"-0.022": 0.0,
			"-0.021": 0.0,
			"-0.02": 0.0,
			"-0.019": 0.0,
			"-0.018": 0.0,
			"-0.017": 0.0,
			"-0.016": 0.0,
			"-0.015": 0.114595949101,
			"-0.014": 0.469116253399,
			"-0.013": 0.823114203623,
			"-0.012": 0.906605373054,
			"-0.011": 3.21575550318,
			"-0.01": 1.89480644907,
			"-0.009": 3.00534801313,
			"-0.008": 4.59973151745,
			"-0.007": 10.9244714749,
			"-0.006": 10.9655318197,
			"-0.005": 10.5398013779,
			"-0.004": 10.5430970414,
			"-0.003": 9.69050493114,
			"-0.002": 11.0083513372,
			"-0.001": 13.1386309749,
			"0.0": 14.772317109,
			"0.001": 19.359542929,
			"0.002": 21.2840193646,
			"0.003": 24.6091795666,
			"0.004": 14.9039565027,
			"0.005": 4.62437437361,
			"0.006": 2.54261968833,
			"0.007": 3.19118009716,
			"0.008": 3.98780605342,
			"0.009": 4.96863165147,
			"0.01": 4.38914801093,
			"0.011": 4.94294643712,
			"0.012": 1.37191213059,
			"0.013": 0.00366713924222,
			"0.014": 0.0,
			"0.015": 0.0,
			"0.016": 0.0,
			"0.017": 0.0,
			"0.018": 0.0,
			"0.019": 0.0,
			"0.02": 0.0,
			"0.021": 0.0,
			"0.022": 0.0,
			"0.023": 0.0,
			"0.024": 0.0,
			"0.025": 0.0
		}
	}
}
