{
	 "smiles": "COC(=O)CCC1=C(NC(C)=O)C=C2NC(=O)CCC2=C1", 
	 "Tm": 518.15, 
	 "num_atms": 39, 
	 "gaussian": { 
		 "optdone": 1, 
		 "sigma_profile": "yes", 
		 "theory": "DFT", 
		 "functional": "B3LYP", 
		 "basiset": "6-31G**", 
		 "properties": { 
			 "R2extent": 8014.8439, 
			 "electric_dipole_moment_norm": 6.79154200237, 
			 "electric_quadrupole_moment_norm": 26.8731672108, 
			 "total_energy": -992.911222747, 
			 "HOMO_LUMO_gap": 0.1875, 
			 "cosmo_polarized_energy": -23.68, 
			 "cosmo_cavitation_energy": 42.41, 
			 "cosmo_dispersion_energy": -29.45, 
			 "cosmo_repulsion_energy": 2.31, 
			 "cosmo_total_nonelectrostatic_energy": 15.27, 
			 "SMD_solvation_energy": 9.3 
		},
		"coords": [
			{
				"x": 0.0509578139,
				"y": -4.9243634753,
				"z": -0.9704724757,
				"element": "C" 
			},
			{
				"x": -0.4189205349,
				"y": -3.6467248037,
				"z": -1.4356429363,
				"element": "O" 
			},
			{
				"x": 0.503246006,
				"y": -2.6632156195,
				"z": -1.4559961662,
				"element": "C" 
			},
			{
				"x": 1.6540647874,
				"y": -2.8142826411,
				"z": -1.1030062179,
				"element": "O" 
			},
			{
				"x": -0.0803366632,
				"y": -1.3779341479,
				"z": -2.0165041958,
				"element": "C" 
			},
			{
				"x": 0.6750794657,
				"y": -0.1289899269,
				"z": -1.5182813616,
				"element": "C" 
			},
			{
				"x": 0.4126612148,
				"y": 0.2168517711,
				"z": -0.0648290514,
				"element": "C" 
			},
			{
				"x": -0.7447437151,
				"y": 0.9132141423,
				"z": 0.3572795072,
				"element": "C" 
			},
			{
				"x": -1.6782042284,
				"y": 1.3208264313,
				"z": -0.6236090631,
				"element": "N" 
			},
			{
				"x": -2.8704901449,
				"y": 1.9975690518,
				"z": -0.4680265655,
				"element": "C" 
			},
			{
				"x": -3.597303215,
				"y": 2.2945829248,
				"z": -1.7731500029,
				"element": "C" 
			},
			{
				"x": -3.3333599532,
				"y": 2.3477263729,
				"z": 0.6083254034,
				"element": "O" 
			},
			{
				"x": -0.9530838709,
				"y": 1.1816024711,
				"z": 1.7160110438,
				"element": "C" 
			},
			{
				"x": -0.0093642164,
				"y": 0.7676932114,
				"z": 2.6574998827,
				"element": "C" 
			},
			{
				"x": -0.2133850942,
				"y": 1.044336531,
				"z": 4.0200701267,
				"element": "N" 
			},
			{
				"x": 0.4409672666,
				"y": 0.4323048116,
				"z": 5.0720720441,
				"element": "C" 
			},
			{
				"x": 0.1739031451,
				"y": 0.7022978454,
				"z": 6.2322731251,
				"element": "O" 
			},
			{
				"x": 1.4640152414,
				"y": -0.616041513,
				"z": 4.6558864079,
				"element": "C" 
			},
			{
				"x": 2.1652707424,
				"y": -0.269573464,
				"z": 3.3339108975,
				"element": "C" 
			},
			{
				"x": 1.1561733314,
				"y": 0.0884769157,
				"z": 2.2685854,
				"element": "C" 
			},
			{
				"x": 1.3325129715,
				"y": -0.1778771778,
				"z": 0.9134727283,
				"element": "C" 
			},
			{
				"x": -0.810750238,
				"y": -5.5896706789,
				"z": -1.0184838052,
				"element": "H" 
			},
			{
				"x": 0.4195725798,
				"y": -4.8463474783,
				"z": 0.0550983792,
				"element": "H" 
			},
			{
				"x": 0.8579016172,
				"y": -5.2933556331,
				"z": -1.6084439603,
				"element": "H" 
			},
			{
				"x": -0.0042629651,
				"y": -1.4520801123,
				"z": -3.1100937659,
				"element": "H" 
			},
			{
				"x": -1.1473985522,
				"y": -1.3422820565,
				"z": -1.7780737748,
				"element": "H" 
			},
			{
				"x": 0.4368790133,
				"y": 0.7170670289,
				"z": -2.1774348205,
				"element": "H" 
			},
			{
				"x": 1.7446679796,
				"y": -0.3119697014,
				"z": -1.6499979357,
				"element": "H" 
			},
			{
				"x": -1.4212098346,
				"y": 1.1111155075,
				"z": -1.5746044167,
				"element": "H" 
			},
			{
				"x": -3.6653358647,
				"y": 3.3793230089,
				"z": -1.8962279163,
				"element": "H" 
			},
			{
				"x": -4.6181667294,
				"y": 1.9120456194,
				"z": -1.6960050331,
				"element": "H" 
			},
			{
				"x": -3.1238380276,
				"y": 1.8682247954,
				"z": -2.6621338356,
				"element": "H" 
			},
			{
				"x": -1.8514118124,
				"y": 1.7024617259,
				"z": 2.0180913493,
				"element": "H" 
			},
			{
				"x": -0.9666790982,
				"y": 1.6655130117,
				"z": 4.2869854111,
				"element": "H" 
			},
			{
				"x": 0.921815751,
				"y": -1.5662196157,
				"z": 4.5527961111,
				"element": "H" 
			},
			{
				"x": 2.1684104758,
				"y": -0.732407988,
				"z": 5.4819990217,
				"element": "H" 
			},
			{
				"x": 2.8395221666,
				"y": 0.5835834155,
				"z": 3.5008163791,
				"element": "H" 
			},
			{
				"x": 2.7951704174,
				"y": -1.1023699159,
				"z": 3.0053895269,
				"element": "H" 
			},
			{
				"x": 2.2174527714,
				"y": -0.7216106445,
				"z": 0.5943545553,
				"element": "H" 
			}
		],
		 "valence_orbital": [ 
			{
				"type": "occ",
				"energy": -0.28176,
				"method": "rhf"
			},
			{
				"type": "occ",
				"energy": -0.25772,
				"method": "rhf"
			},
			{
				"type": "occ",
				"energy": -0.2462,
				"method": "rhf"
			},
			{
				"type": "occ",
				"energy": -0.23044,
				"method": "rhf"
			},
			{
				"type": "occ",
				"energy": -0.20692,
				"method": "rhf"
			},
			{
				"type": "unocc",
				"energy": -0.01942,
				"method": "rhf"
			},
			{
				"type": "unocc",
				"energy": -0.00655,
				"method": "rhf"
			},
			{
				"type": "unocc",
				"energy": 0.00222,
				"method": "rhf"
			},
			{
				"type": "unocc",
				"energy": 0.02759,
				"method": "rhf"
			},
			{
				"type": "unocc",
				"energy": 0.04891,
				"method": "rhf"
			}
		],
		"cosmo_sigma_profile": { 
			"-0.025": 0.0,
			"-0.024": 0.0,
			"-0.023": 0.0,
			"-0.022": 0.0,
			"-0.021": 0.0,
			"-0.02": 0.0,
			"-0.019": 0.0,
			"-0.018": 0.0,
			"-0.017": 0.0,
			"-0.016": 0.0,
			"-0.015": 0.220568026547,
			"-0.014": 1.60877543598,
			"-0.013": 2.03161874113,
			"-0.012": 2.99480957493,
			"-0.011": 2.33897925121,
			"-0.01": 3.07276568175,
			"-0.009": 2.40020809089,
			"-0.008": 3.24292263551,
			"-0.007": 4.95111179656,
			"-0.006": 15.4169723408,
			"-0.005": 27.9016413321,
			"-0.004": 32.9694599559,
			"-0.003": 37.5276938696,
			"-0.002": 31.185167753,
			"-0.001": 24.5161067072,
			"0.0": 15.3251470327,
			"0.001": 13.6405197022,
			"0.002": 14.8739989071,
			"0.003": 14.32329822,
			"0.004": 16.1462062403,
			"0.005": 12.4411113225,
			"0.006": 5.27882678031,
			"0.007": 6.93064794549,
			"0.008": 5.25324745404,
			"0.009": 4.86467871169,
			"0.01": 4.65280991888,
			"0.011": 5.76630400725,
			"0.012": 7.43844963144,
			"0.013": 9.06118579265,
			"0.014": 5.59869020539,
			"0.015": 0.670783340866,
			"0.016": 0.0,
			"0.017": 0.0,
			"0.018": 0.0,
			"0.019": 0.0,
			"0.02": 0.0,
			"0.021": 0.0,
			"0.022": 0.0,
			"0.023": 0.0,
			"0.024": 0.0,
			"0.025": 0.0
		}
	}
}
