{
	 "smiles": "COC1=C(C=C(C=CC(O)=O)C=C1)S(=O)(=O)NC(C)C", 
	 "Tm": 476.15, 
	 "num_atms": 37, 
	 "gaussian": { 
		 "optdone": 1, 
		 "sigma_profile": "yes", 
		 "theory": "DFT", 
		 "functional": "B3LYP", 
		 "basiset": "6-31G**", 
		 "properties": { 
			 "R2extent": 9082.5116, 
			 "electric_dipole_moment_norm": 3.58794115197, 
			 "electric_quadrupole_moment_norm": 58.323516659, 
			 "total_energy": -1334.60207415, 
			 "HOMO_LUMO_gap": 0.1592, 
			 "cosmo_polarized_energy": -30.0, 
			 "cosmo_cavitation_energy": 42.8, 
			 "cosmo_dispersion_energy": -29.54, 
			 "cosmo_repulsion_energy": 2.24, 
			 "cosmo_total_nonelectrostatic_energy": 15.5, 
			 "SMD_solvation_energy": 8.82 
		},
		"coords": [
			{
				"x": -0.6726004758,
				"y": -4.5062059847,
				"z": 0.7247720599,
				"element": "C" 
			},
			{
				"x": -0.6226721305,
				"y": -3.0954713467,
				"z": 0.9096222536,
				"element": "O" 
			},
			{
				"x": -1.028332953,
				"y": -2.2828162715,
				"z": -0.0841871534,
				"element": "C" 
			},
			{
				"x": -0.9605074059,
				"y": -0.8933111243,
				"z": 0.1629639565,
				"element": "C" 
			},
			{
				"x": -1.3747651374,
				"y": 0.0090633087,
				"z": -0.8060277288,
				"element": "C" 
			},
			{
				"x": -1.8597969559,
				"y": -0.4225129225,
				"z": -2.055104751,
				"element": "C" 
			},
			{
				"x": -2.2770593908,
				"y": 0.5805843402,
				"z": -3.0338743832,
				"element": "C" 
			},
			{
				"x": -2.8162298727,
				"y": 0.3700857067,
				"z": -4.2505554783,
				"element": "C" 
			},
			{
				"x": -3.2749460283,
				"y": 1.4384002876,
				"z": -5.1727060259,
				"element": "C" 
			},
			{
				"x": -2.7393381562,
				"y": 2.6833408273,
				"z": -5.0118297817,
				"element": "O" 
			},
			{
				"x": -4.100044723,
				"y": 1.2421070747,
				"z": -6.0351401718,
				"element": "O" 
			},
			{
				"x": -1.9121848936,
				"y": -1.8063954554,
				"z": -2.2907923694,
				"element": "C" 
			},
			{
				"x": -1.5074888223,
				"y": -2.7227805492,
				"z": -1.3279177742,
				"element": "C" 
			},
			{
				"x": -0.3456336457,
				"y": -0.3482228414,
				"z": 1.7698650096,
				"element": "S" 
			},
			{
				"x": 1.0495281704,
				"y": -0.7845450077,
				"z": 1.8790245792,
				"element": "O" 
			},
			{
				"x": -1.3436630498,
				"y": -0.7009462223,
				"z": 2.7841957444,
				"element": "O" 
			},
			{
				"x": -0.3846695577,
				"y": 1.3335924827,
				"z": 1.6324103494,
				"element": "N" 
			},
			{
				"x": 0.8856215778,
				"y": 2.1014913764,
				"z": 1.6001742317,
				"element": "C" 
			},
			{
				"x": 0.611273882,
				"y": 3.4543568469,
				"z": 0.9357310089,
				"element": "C" 
			},
			{
				"x": 1.5130287981,
				"y": 2.25660476,
				"z": 2.9904963777,
				"element": "C" 
			},
			{
				"x": -1.6988150277,
				"y": -4.8480836676,
				"z": 0.5467634943,
				"element": "H" 
			},
			{
				"x": -0.0290963998,
				"y": -4.8217548633,
				"z": -0.1047358091,
				"element": "H" 
			},
			{
				"x": -0.3024926325,
				"y": -4.9357605837,
				"z": 1.6552611726,
				"element": "H" 
			},
			{
				"x": -1.3220993676,
				"y": 1.0675939651,
				"z": -0.5764441397,
				"element": "H" 
			},
			{
				"x": -2.1480110648,
				"y": 1.609157692,
				"z": -2.6939806832,
				"element": "H" 
			},
			{
				"x": -3.0417516449,
				"y": -0.6282468025,
				"z": -4.6112768034,
				"element": "H" 
			},
			{
				"x": -1.9685221374,
				"y": 2.6360566059,
				"z": -4.4298838463,
				"element": "H" 
			},
			{
				"x": -2.2748909153,
				"y": -2.1817664743,
				"z": -3.2422703796,
				"element": "H" 
			},
			{
				"x": -1.5652108558,
				"y": -3.782342166,
				"z": -1.5444915659,
				"element": "H" 
			},
			{
				"x": -1.0574816003,
				"y": 1.6771370886,
				"z": 2.3143036118,
				"element": "H" 
			},
			{
				"x": 1.5677143741,
				"y": 1.5240213927,
				"z": 0.9696461498,
				"element": "H" 
			},
			{
				"x": 1.5365507335,
				"y": 4.0338430187,
				"z": 0.8598040302,
				"element": "H" 
			},
			{
				"x": 0.2005607015,
				"y": 3.3261014631,
				"z": -0.0697897275,
				"element": "H" 
			},
			{
				"x": -0.1021816872,
				"y": 4.0445035221,
				"z": 1.5227451855,
				"element": "H" 
			},
			{
				"x": 2.4471371488,
				"y": 2.8247263217,
				"z": 2.9286541734,
				"element": "H" 
			},
			{
				"x": 0.8374313755,
				"y": 2.7976203429,
				"z": 3.6644326001,
				"element": "H" 
			},
			{
				"x": 1.7328397702,
				"y": 1.278673859,
				"z": 3.4238425835,
				"element": "H" 
			}
		],
		 "valence_orbital": [ 
			{
				"type": "occ",
				"energy": -0.29976,
				"method": "rhf"
			},
			{
				"type": "occ",
				"energy": -0.27867,
				"method": "rhf"
			},
			{
				"type": "occ",
				"energy": -0.27383,
				"method": "rhf"
			},
			{
				"type": "occ",
				"energy": -0.26975,
				"method": "rhf"
			},
			{
				"type": "occ",
				"energy": -0.2346,
				"method": "rhf"
			},
			{
				"type": "unocc",
				"energy": -0.0754,
				"method": "rhf"
			},
			{
				"type": "unocc",
				"energy": -0.03864,
				"method": "rhf"
			},
			{
				"type": "unocc",
				"energy": 0.00567,
				"method": "rhf"
			},
			{
				"type": "unocc",
				"energy": 0.04201,
				"method": "rhf"
			},
			{
				"type": "unocc",
				"energy": 0.05547,
				"method": "rhf"
			}
		],
		"cosmo_sigma_profile": { 
			"-0.025": 0.0,
			"-0.024": 0.0,
			"-0.023": 0.0,
			"-0.022": 0.0,
			"-0.021": 0.0,
			"-0.02": 0.0,
			"-0.019": 0.0842106468002,
			"-0.018": 0.821565215839,
			"-0.017": 0.998408043432,
			"-0.016": 0.902980617836,
			"-0.015": 1.39223462842,
			"-0.014": 0.571217389268,
			"-0.013": 1.93267199864,
			"-0.012": 2.21223007557,
			"-0.011": 2.00027116363,
			"-0.01": 3.22266416867,
			"-0.009": 5.36583974566,
			"-0.008": 7.30285147609,
			"-0.007": 13.4711954614,
			"-0.006": 17.6895203591,
			"-0.005": 16.5222596006,
			"-0.004": 26.1883349329,
			"-0.003": 26.7129195003,
			"-0.002": 25.0092236833,
			"-0.001": 25.1442225288,
			"0.0": 28.1848061828,
			"0.001": 26.2788883333,
			"0.002": 19.827028258,
			"0.003": 7.57467008927,
			"0.004": 4.60191529231,
			"0.005": 4.85080791875,
			"0.006": 6.28797544619,
			"0.007": 5.24233627487,
			"0.008": 4.97993496603,
			"0.009": 7.88286071451,
			"0.01": 11.7010516189,
			"0.011": 16.6788210023,
			"0.012": 12.376292929,
			"0.013": 4.29685623076,
			"0.014": 0.463986653769,
			"0.015": 0.0,
			"0.016": 0.0,
			"0.017": 0.0,
			"0.018": 0.0,
			"0.019": 0.0,
			"0.02": 0.0,
			"0.021": 0.0,
			"0.022": 0.0,
			"0.023": 0.0,
			"0.024": 0.0,
			"0.025": 0.0
		}
	}
}
