{
	 "smiles": "NNC(=O)CC1=CNC2=CC=CC=C12", 
	 "Tm": 416.65, 
	 "num_atms": 25, 
	 "gaussian": { 
		 "optdone": 1, 
		 "sigma_profile": "yes", 
		 "theory": "DFT", 
		 "functional": "B3LYP", 
		 "basiset": "6-31G**", 
		 "properties": { 
			 "R2extent": 3004.4315, 
			 "electric_dipole_moment_norm": 2.97647400291, 
			 "electric_quadrupole_moment_norm": 19.81184384, 
			 "total_energy": -627.155039854, 
			 "HOMO_LUMO_gap": 0.18997, 
			 "cosmo_polarized_energy": -17.41, 
			 "cosmo_cavitation_energy": 28.96, 
			 "cosmo_dispersion_energy": -20.64, 
			 "cosmo_repulsion_energy": 1.63, 
			 "cosmo_total_nonelectrostatic_energy": 9.95, 
			 "SMD_solvation_energy": 5.68 
		},
		"coords": [
			{
				"x": 1.639263419,
				"y": 1.5853135615,
				"z": -1.2703534158,
				"element": "N" 
			},
			{
				"x": 2.603313506,
				"y": 0.7081753686,
				"z": -0.7447374798,
				"element": "N" 
			},
			{
				"x": 2.3927107229,
				"y": -0.5777784307,
				"z": -0.3078909794,
				"element": "C" 
			},
			{
				"x": 3.240563325,
				"y": -1.1670696941,
				"z": 0.3505631525,
				"element": "O" 
			},
			{
				"x": 1.0456696675,
				"y": -1.2065306169,
				"z": -0.6598677132,
				"element": "C" 
			},
			{
				"x": -0.0148794443,
				"y": -0.7966388124,
				"z": 0.3340983337,
				"element": "C" 
			},
			{
				"x": 0.1329194061,
				"y": -0.7500296092,
				"z": 1.700143373,
				"element": "C" 
			},
			{
				"x": -1.0500413737,
				"y": -0.3445511679,
				"z": 2.2859503038,
				"element": "N" 
			},
			{
				"x": -1.9922740569,
				"y": -0.1143001237,
				"z": 1.3049521669,
				"element": "C" 
			},
			{
				"x": -3.3215942928,
				"y": 0.3109574682,
				"z": 1.4022397443,
				"element": "C" 
			},
			{
				"x": -4.0379816927,
				"y": 0.4554863996,
				"z": 0.2199582656,
				"element": "C" 
			},
			{
				"x": -3.4466637015,
				"y": 0.1811159285,
				"z": -1.0309720644,
				"element": "C" 
			},
			{
				"x": -2.1268898631,
				"y": -0.2415595327,
				"z": -1.123660812,
				"element": "C" 
			},
			{
				"x": -1.3720534037,
				"y": -0.3931576371,
				"z": 0.0540852722,
				"element": "C" 
			},
			{
				"x": 0.7827699734,
				"y": 1.5367960453,
				"z": -0.7225377886,
				"element": "H" 
			},
			{
				"x": 1.4258379135,
				"y": 1.3322027531,
				"z": -2.2317045248,
				"element": "H" 
			},
			{
				"x": 3.4402406047,
				"y": 1.1525835285,
				"z": -0.3886315059,
				"element": "H" 
			},
			{
				"x": 1.2027572044,
				"y": -2.2893294537,
				"z": -0.6546654289,
				"element": "H" 
			},
			{
				"x": 0.7344833762,
				"y": -0.9213444507,
				"z": -1.6698749591,
				"element": "H" 
			},
			{
				"x": 1.0032333167,
				"y": -0.9813985756,
				"z": 2.2978271062,
				"element": "H" 
			},
			{
				"x": -1.1943491135,
				"y": -0.2231289845,
				"z": 3.2749790956,
				"element": "H" 
			},
			{
				"x": -3.7785151007,
				"y": 0.5197049849,
				"z": 2.3655849225,
				"element": "H" 
			},
			{
				"x": -5.0724242698,
				"y": 0.7834611403,
				"z": 0.2602852159,
				"element": "H" 
			},
			{
				"x": -4.037528251,
				"y": 0.3000680429,
				"z": -1.9343928296,
				"element": "H" 
			},
			{
				"x": -1.6879678718,
				"y": -0.4592481323,
				"z": -2.0939774505,
				"element": "H" 
			}
		],
		 "valence_orbital": [ 
			{
				"type": "occ",
				"energy": -0.2788,
				"method": "rhf"
			},
			{
				"type": "occ",
				"energy": -0.25125,
				"method": "rhf"
			},
			{
				"type": "occ",
				"energy": -0.23984,
				"method": "rhf"
			},
			{
				"type": "occ",
				"energy": -0.22654,
				"method": "rhf"
			},
			{
				"type": "occ",
				"energy": -0.2054,
				"method": "rhf"
			},
			{
				"type": "unocc",
				"energy": -0.01543,
				"method": "rhf"
			},
			{
				"type": "unocc",
				"energy": 0.021,
				"method": "rhf"
			},
			{
				"type": "unocc",
				"energy": 0.02666,
				"method": "rhf"
			},
			{
				"type": "unocc",
				"energy": 0.06071,
				"method": "rhf"
			},
			{
				"type": "unocc",
				"energy": 0.06836,
				"method": "rhf"
			}
		],
		"cosmo_sigma_profile": { 
			"-0.025": 0.0,
			"-0.024": 0.0,
			"-0.023": 0.0,
			"-0.022": 0.0,
			"-0.021": 0.0,
			"-0.02": 0.0,
			"-0.019": 0.0,
			"-0.018": 0.0,
			"-0.017": 0.0,
			"-0.016": 0.497474193343,
			"-0.015": 1.56729894144,
			"-0.014": 1.15649991551,
			"-0.013": 1.98780122387,
			"-0.012": 3.36025580981,
			"-0.011": 3.1785496517,
			"-0.01": 3.27351433618,
			"-0.009": 4.46150034879,
			"-0.008": 5.08500928574,
			"-0.007": 7.24452779696,
			"-0.006": 9.84794588636,
			"-0.005": 14.0683695286,
			"-0.004": 14.5454370216,
			"-0.003": 16.3200064772,
			"-0.002": 14.8891390405,
			"-0.001": 11.7952223897,
			"0.0": 11.5957206144,
			"0.001": 12.5084856772,
			"0.002": 11.6805064673,
			"0.003": 12.2358583366,
			"0.004": 14.1008291966,
			"0.005": 12.4824992544,
			"0.006": 10.5167175585,
			"0.007": 8.62460967179,
			"0.008": 3.2117323147,
			"0.009": 0.983987298673,
			"0.01": 1.50206346194,
			"0.011": 2.56784538034,
			"0.012": 2.10152962109,
			"0.013": 3.88930466998,
			"0.014": 5.63850418829,
			"0.015": 2.07305299381,
			"0.016": 0.54471690206,
			"0.017": 0.0,
			"0.018": 0.0,
			"0.019": 0.0,
			"0.02": 0.0,
			"0.021": 0.0,
			"0.022": 0.0,
			"0.023": 0.0,
			"0.024": 0.0,
			"0.025": 0.0
		}
	}
}
