{
	 "smiles": "COC1=C(OC)C=C(C(O)=O)C(NC(=O)C2CC2)=C1", 
	 "Tm": 510.15, 
	 "num_atms": 34, 
	 "gaussian": { 
		 "optdone": 1, 
		 "sigma_profile": "yes", 
		 "theory": "DFT", 
		 "functional": "B3LYP", 
		 "basiset": "6-31G**", 
		 "properties": { 
			 "R2extent": 6509.9325, 
			 "electric_dipole_moment_norm": 4.12541943928, 
			 "electric_quadrupole_moment_norm": 23.8565397177, 
			 "total_energy": -935.257662317, 
			 "HOMO_LUMO_gap": 0.17535, 
			 "cosmo_polarized_energy": -20.96, 
			 "cosmo_cavitation_energy": 37.89, 
			 "cosmo_dispersion_energy": -26.42, 
			 "cosmo_repulsion_energy": 2.03, 
			 "cosmo_total_nonelectrostatic_energy": 13.5, 
			 "SMD_solvation_energy": 9.39 
		},
		"coords": [
			{
				"x": 3.4443281566,
				"y": 0.3683072283,
				"z": -0.0393212064,
				"element": "C" 
			},
			{
				"x": 2.4160836761,
				"y": 1.2222188807,
				"z": -0.5322890684,
				"element": "O" 
			},
			{
				"x": 1.1396622802,
				"y": 0.996910584,
				"z": -0.1324472716,
				"element": "C" 
			},
			{
				"x": 0.155800749,
				"y": 1.8598682668,
				"z": -0.6749803201,
				"element": "C" 
			},
			{
				"x": 0.4711144789,
				"y": 2.8236345051,
				"z": -1.5977784668,
				"element": "O" 
			},
			{
				"x": 1.2190406051,
				"y": 3.9388037138,
				"z": -1.1048350072,
				"element": "C" 
			},
			{
				"x": -1.1643542212,
				"y": 1.6743037059,
				"z": -0.3069316643,
				"element": "C" 
			},
			{
				"x": -1.5558444096,
				"y": 0.6742380316,
				"z": 0.6004397375,
				"element": "C" 
			},
			{
				"x": -3.0071938572,
				"y": 0.6360601316,
				"z": 0.9450389157,
				"element": "C" 
			},
			{
				"x": -3.329993668,
				"y": 0.1809271784,
				"z": 2.2050813551,
				"element": "O" 
			},
			{
				"x": -3.8932344784,
				"y": 0.9877950777,
				"z": 0.2049779508,
				"element": "O" 
			},
			{
				"x": -0.5712525019,
				"y": -0.2068594696,
				"z": 1.1052138669,
				"element": "C" 
			},
			{
				"x": -0.964439189,
				"y": -1.2954159889,
				"z": 1.9221686232,
				"element": "N" 
			},
			{
				"x": -0.1679127455,
				"y": -2.1432148658,
				"z": 2.677814905,
				"element": "C" 
			},
			{
				"x": 1.0398121549,
				"y": -1.9960130274,
				"z": 2.8137871384,
				"element": "O" 
			},
			{
				"x": -0.8809466263,
				"y": -3.2832451266,
				"z": 3.3440988,
				"element": "C" 
			},
			{
				"x": -2.3441869041,
				"y": -3.2524163113,
				"z": 3.7515626962,
				"element": "C" 
			},
			{
				"x": -1.9162312874,
				"y": -4.1266405025,
				"z": 2.6137726205,
				"element": "C" 
			},
			{
				"x": 0.7708971834,
				"y": -0.0286763075,
				"z": 0.7396178689,
				"element": "C" 
			},
			{
				"x": 3.2797958827,
				"y": -0.6712450622,
				"z": -0.3454572393,
				"element": "H" 
			},
			{
				"x": 4.3708323078,
				"y": 0.7346191267,
				"z": -0.4827544112,
				"element": "H" 
			},
			{
				"x": 3.5164240086,
				"y": 0.4152212382,
				"z": 1.0534638422,
				"element": "H" 
			},
			{
				"x": 1.3463719973,
				"y": 4.6159146544,
				"z": -1.9517172894,
				"element": "H" 
			},
			{
				"x": 2.2008647237,
				"y": 3.6316195647,
				"z": -0.7324474902,
				"element": "H" 
			},
			{
				"x": 0.6694961577,
				"y": 4.4569220397,
				"z": -0.3081624151,
				"element": "H" 
			},
			{
				"x": -1.9231552906,
				"y": 2.3247501811,
				"z": -0.7269612163,
				"element": "H" 
			},
			{
				"x": -2.5397009848,
				"y": 0.2008940181,
				"z": 2.7663407964,
				"element": "H" 
			},
			{
				"x": -1.9421497381,
				"y": -1.539679562,
				"z": 1.8597037335,
				"element": "H" 
			},
			{
				"x": -0.199507509,
				"y": -3.8133465173,
				"z": 4.0001270235,
				"element": "H" 
			},
			{
				"x": -2.9343938146,
				"y": -2.3657340571,
				"z": 3.5356050322,
				"element": "H" 
			},
			{
				"x": -2.5952042568,
				"y": -3.7185909315,
				"z": 4.6989203214,
				"element": "H" 
			},
			{
				"x": -2.1865532194,
				"y": -3.8343752814,
				"z": 1.602960325,
				"element": "H" 
			},
			{
				"x": -1.8727633301,
				"y": -5.2004248788,
				"z": 2.7643039828,
				"element": "H" 
			},
			{
				"x": 1.50329367,
				"y": -0.7061302367,
				"z": 1.1493835309,
				"element": "H" 
			}
		],
		 "valence_orbital": [ 
			{
				"type": "occ",
				"energy": -0.27827,
				"method": "rhf"
			},
			{
				"type": "occ",
				"energy": -0.276,
				"method": "rhf"
			},
			{
				"type": "occ",
				"energy": -0.26383,
				"method": "rhf"
			},
			{
				"type": "occ",
				"energy": -0.24585,
				"method": "rhf"
			},
			{
				"type": "occ",
				"energy": -0.21963,
				"method": "rhf"
			},
			{
				"type": "unocc",
				"energy": -0.04428,
				"method": "rhf"
			},
			{
				"type": "unocc",
				"energy": -0.01905,
				"method": "rhf"
			},
			{
				"type": "unocc",
				"energy": 0.02115,
				"method": "rhf"
			},
			{
				"type": "unocc",
				"energy": 0.04475,
				"method": "rhf"
			},
			{
				"type": "unocc",
				"energy": 0.05776,
				"method": "rhf"
			}
		],
		"cosmo_sigma_profile": { 
			"-0.025": 0.0,
			"-0.024": 0.0,
			"-0.023": 0.0,
			"-0.022": 0.0,
			"-0.021": 0.0,
			"-0.02": 0.0,
			"-0.019": 0.0,
			"-0.018": 0.133656150988,
			"-0.017": 0.799876593548,
			"-0.016": 0.775252560851,
			"-0.015": 0.315638271612,
			"-0.014": 0.892958500351,
			"-0.013": 2.90675842004,
			"-0.012": 2.46650279068,
			"-0.011": 1.96391031546,
			"-0.01": 1.6957868099,
			"-0.009": 2.5624268411,
			"-0.008": 2.15390403286,
			"-0.007": 4.06257164234,
			"-0.006": 15.6116897066,
			"-0.005": 23.7520782583,
			"-0.004": 28.3163744084,
			"-0.003": 27.1336025658,
			"-0.002": 24.2321010637,
			"-0.001": 19.7039026277,
			"0.0": 18.0754580181,
			"0.001": 19.9886870353,
			"0.002": 21.6319742189,
			"0.003": 13.5326208851,
			"0.004": 7.42675713947,
			"0.005": 6.05621513308,
			"0.006": 6.08272050352,
			"0.007": 6.59008743865,
			"0.008": 5.51681689666,
			"0.009": 6.13321869043,
			"0.01": 8.49918811889,
			"0.011": 9.98444508516,
			"0.012": 7.71510393217,
			"0.013": 3.7347635168,
			"0.014": 0.830042405545,
			"0.015": 0.0,
			"0.016": 0.0,
			"0.017": 0.0,
			"0.018": 0.0,
			"0.019": 0.0,
			"0.02": 0.0,
			"0.021": 0.0,
			"0.022": 0.0,
			"0.023": 0.0,
			"0.024": 0.0,
			"0.025": 0.0
		}
	}
}
