{
	 "smiles": "CC(C)CC1=CC(=CC2=CC=C(O2)C2=CC=CC=C2)C(=O)O1", 
	 "Tm": 348.65, 
	 "num_atms": 40, 
	 "gaussian": { 
		 "optdone": 1, 
		 "sigma_profile": "yes", 
		 "theory": "DFT", 
		 "functional": "B3LYP", 
		 "basiset": "6-31G**", 
		 "properties": { 
			 "R2extent": 10578.5259, 
			 "electric_dipole_moment_norm": 3.18842213955, 
			 "electric_quadrupole_moment_norm": 16.1730478701, 
			 "total_energy": -960.531594662, 
			 "HOMO_LUMO_gap": 0.10906, 
			 "cosmo_polarized_energy": -13.49, 
			 "cosmo_cavitation_energy": 44.11, 
			 "cosmo_dispersion_energy": -30.92, 
			 "cosmo_repulsion_energy": 2.33, 
			 "cosmo_total_nonelectrostatic_energy": 15.52, 
			 "SMD_solvation_energy": 8.42 
		},
		"coords": [
			{
				"x": 3.9805513623,
				"y": -1.6716357572,
				"z": -2.7053470461,
				"element": "C" 
			},
			{
				"x": 2.8555276196,
				"y": -2.566723159,
				"z": -3.2419219055,
				"element": "C" 
			},
			{
				"x": 2.4126085203,
				"y": -3.6030068787,
				"z": -2.1992727109,
				"element": "C" 
			},
			{
				"x": 1.668761208,
				"y": -1.7292322286,
				"z": -3.800897412,
				"element": "C" 
			},
			{
				"x": 0.9903000309,
				"y": -0.8205603063,
				"z": -2.833557232,
				"element": "C" 
			},
			{
				"x": 1.0053400897,
				"y": 0.5222901057,
				"z": -2.6912611821,
				"element": "C" 
			},
			{
				"x": 0.1415208628,
				"y": 0.8729883557,
				"z": -1.5834352585,
				"element": "C" 
			},
			{
				"x": -0.1010270448,
				"y": 2.1436951771,
				"z": -1.1336289473,
				"element": "C" 
			},
			{
				"x": -0.908365412,
				"y": 2.6556097819,
				"z": -0.0823915425,
				"element": "C" 
			},
			{
				"x": -1.105254355,
				"y": 3.969352337,
				"z": 0.3190703426,
				"element": "C" 
			},
			{
				"x": -2.0004593419,
				"y": 3.9375668022,
				"z": 1.409903965,
				"element": "C" 
			},
			{
				"x": -2.3109143216,
				"y": 2.6070914699,
				"z": 1.6269831145,
				"element": "C" 
			},
			{
				"x": -1.6486870698,
				"y": 1.8376281723,
				"z": 0.7230877751,
				"element": "O" 
			},
			{
				"x": -3.1599459192,
				"y": 1.9105295158,
				"z": 2.5801979208,
				"element": "C" 
			},
			{
				"x": -3.2642660361,
				"y": 0.5064279848,
				"z": 2.5402382577,
				"element": "C" 
			},
			{
				"x": -4.0788037988,
				"y": -0.1566044386,
				"z": 3.4549159019,
				"element": "C" 
			},
			{
				"x": -4.7967778992,
				"y": 0.5591322955,
				"z": 4.4160997604,
				"element": "C" 
			},
			{
				"x": -4.696545001,
				"y": 1.9527803107,
				"z": 4.4598804853,
				"element": "C" 
			},
			{
				"x": -3.8858495165,
				"y": 2.6253631776,
				"z": 3.55093322,
				"element": "C" 
			},
			{
				"x": -0.3911301029,
				"y": -0.4257826933,
				"z": -1.0812375511,
				"element": "C" 
			},
			{
				"x": -1.1424322542,
				"y": -0.7252708267,
				"z": -0.1868467175,
				"element": "O" 
			},
			{
				"x": 0.1680974157,
				"y": -1.4214982354,
				"z": -1.8923543399,
				"element": "O" 
			},
			{
				"x": 4.8393904849,
				"y": -2.2745383084,
				"z": -2.3923877392,
				"element": "H" 
			},
			{
				"x": 3.6465574651,
				"y": -1.0907803771,
				"z": -1.838882985,
				"element": "H" 
			},
			{
				"x": 4.3287126251,
				"y": -0.9638234267,
				"z": -3.4663456574,
				"element": "H" 
			},
			{
				"x": 3.2497182724,
				"y": -3.115671921,
				"z": -4.1089093348,
				"element": "H" 
			},
			{
				"x": 2.0188463651,
				"y": -3.1237334541,
				"z": -1.2985452435,
				"element": "H" 
			},
			{
				"x": 1.6264832659,
				"y": -4.2554533325,
				"z": -2.593973338,
				"element": "H" 
			},
			{
				"x": 3.2580049167,
				"y": -4.2348580124,
				"z": -1.9059846501,
				"element": "H" 
			},
			{
				"x": 2.0339226936,
				"y": -1.1118638785,
				"z": -4.6294330339,
				"element": "H" 
			},
			{
				"x": 0.9186729286,
				"y": -2.4157342046,
				"z": -4.2150043147,
				"element": "H" 
			},
			{
				"x": 1.5618550881,
				"y": 1.2162205255,
				"z": -3.3063358337,
				"element": "H" 
			},
			{
				"x": 0.416482153,
				"y": 2.9355401838,
				"z": -1.6727803281,
				"element": "H" 
			},
			{
				"x": -0.6503705768,
				"y": 4.840749826,
				"z": -0.1308777734,
				"element": "H" 
			},
			{
				"x": -2.3735118965,
				"y": 4.782386616,
				"z": 1.9697300855,
				"element": "H" 
			},
			{
				"x": -2.7053278765,
				"y": -0.0469917588,
				"z": 1.7925219074,
				"element": "H" 
			},
			{
				"x": -4.1526825277,
				"y": -1.239531649,
				"z": 3.4159968024,
				"element": "H" 
			},
			{
				"x": -5.4302769975,
				"y": 0.0362060061,
				"z": 5.1266475154,
				"element": "H" 
			},
			{
				"x": -5.2518309192,
				"y": 2.5161080441,
				"z": 5.2042973859,
				"element": "H" 
			},
			{
				"x": -3.8145945005,
				"y": 3.7082281593,
				"z": 3.592607637,
				"element": "H" 
			}
		],
		 "valence_orbital": [ 
			{
				"type": "occ",
				"energy": -0.279,
				"method": "rhf"
			},
			{
				"type": "occ",
				"energy": -0.26494,
				"method": "rhf"
			},
			{
				"type": "occ",
				"energy": -0.25046,
				"method": "rhf"
			},
			{
				"type": "occ",
				"energy": -0.23615,
				"method": "rhf"
			},
			{
				"type": "occ",
				"energy": -0.18827,
				"method": "rhf"
			},
			{
				"type": "unocc",
				"energy": -0.07921,
				"method": "rhf"
			},
			{
				"type": "unocc",
				"energy": -0.02007,
				"method": "rhf"
			},
			{
				"type": "unocc",
				"energy": 0.00041,
				"method": "rhf"
			},
			{
				"type": "unocc",
				"energy": 0.03598,
				"method": "rhf"
			},
			{
				"type": "unocc",
				"energy": 0.05113,
				"method": "rhf"
			}
		],
		"cosmo_sigma_profile": { 
			"-0.025": 0.0,
			"-0.024": 0.0,
			"-0.023": 0.0,
			"-0.022": 0.0,
			"-0.021": 0.0,
			"-0.02": 0.0,
			"-0.019": 0.0,
			"-0.018": 0.0,
			"-0.017": 0.0,
			"-0.016": 0.0,
			"-0.015": 0.0,
			"-0.014": 0.0,
			"-0.013": 0.0,
			"-0.012": 0.0,
			"-0.011": 0.0,
			"-0.01": 0.0,
			"-0.009": 0.348376380079,
			"-0.008": 8.08500296104,
			"-0.007": 9.83964847742,
			"-0.006": 12.1378239798,
			"-0.005": 17.2502192405,
			"-0.004": 20.4313435718,
			"-0.003": 24.9065695592,
			"-0.002": 33.2255832999,
			"-0.001": 33.48689302,
			"0.0": 31.5790031818,
			"0.001": 41.6466700572,
			"0.002": 37.34071643,
			"0.003": 24.6837133783,
			"0.004": 17.4976242573,
			"0.005": 12.9672761698,
			"0.006": 4.29348832898,
			"0.007": 3.6316187751,
			"0.008": 3.24285959092,
			"0.009": 5.45311165137,
			"0.01": 4.63987395508,
			"0.011": 2.24575805093,
			"0.012": 1.65458104803,
			"0.013": 0.790889406395,
			"0.014": 0.0,
			"0.015": 0.0,
			"0.016": 0.0,
			"0.017": 0.0,
			"0.018": 0.0,
			"0.019": 0.0,
			"0.02": 0.0,
			"0.021": 0.0,
			"0.022": 0.0,
			"0.023": 0.0,
			"0.024": 0.0,
			"0.025": 0.0
		}
	}
}
