{
	 "smiles": "C[C@H]1CC[C@@H](CC1)C(O)=O", 
	 "Tm": 382.65, 
	 "num_atms": 24, 
	 "gaussian": { 
		 "optdone": 1, 
		 "sigma_profile": "yes", 
		 "theory": "DFT", 
		 "functional": "B3LYP", 
		 "basiset": "6-31G**", 
		 "properties": { 
			 "R2extent": 1880.9129, 
			 "electric_dipole_moment_norm": 1.42165441652, 
			 "electric_quadrupole_moment_norm": 7.02781831581, 
			 "total_energy": -463.773095018, 
			 "HOMO_LUMO_gap": 0.27704, 
			 "cosmo_polarized_energy": -7.42, 
			 "cosmo_cavitation_energy": 24.36, 
			 "cosmo_dispersion_energy": -18.08, 
			 "cosmo_repulsion_energy": 1.47, 
			 "cosmo_total_nonelectrostatic_energy": 7.75, 
			 "SMD_solvation_energy": 4.58 
		},
		"coords": [
			{
				"x": 1.792729978,
				"y": -0.9183070373,
				"z": -0.1111253838,
				"element": "C" 
			},
			{
				"x": 0.8068374078,
				"y": 0.1623996612,
				"z": -0.5855201779,
				"element": "C" 
			},
			{
				"x": -0.5891713009,
				"y": -0.4102965983,
				"z": -0.9148747839,
				"element": "C" 
			},
			{
				"x": -1.3975900176,
				"y": -0.8032660922,
				"z": 0.3342631938,
				"element": "C" 
			},
			{
				"x": -1.507065423,
				"y": 0.3494915279,
				"z": 1.3485608882,
				"element": "C" 
			},
			{
				"x": -0.1119315447,
				"y": 0.9261326708,
				"z": 1.6896144673,
				"element": "C" 
			},
			{
				"x": 0.6704443786,
				"y": 1.3210739913,
				"z": 0.4272401674,
				"element": "C" 
			},
			{
				"x": -2.4759658765,
				"y": 1.4222394362,
				"z": 0.8686863396,
				"element": "C" 
			},
			{
				"x": -2.5183959891,
				"y": 2.4846116957,
				"z": 1.7143133797,
				"element": "O" 
			},
			{
				"x": -3.1754813657,
				"y": 1.3701745668,
				"z": -0.1208644688,
				"element": "O" 
			},
			{
				"x": 1.4672088987,
				"y": -1.4088602743,
				"z": 0.8121066963,
				"element": "H" 
			},
			{
				"x": 1.9079584343,
				"y": -1.6990455732,
				"z": -0.8710599534,
				"element": "H" 
			},
			{
				"x": 2.783216835,
				"y": -0.4895677824,
				"z": 0.078349071,
				"element": "H" 
			},
			{
				"x": 1.2177374766,
				"y": 0.583415895,
				"z": -1.5134051966,
				"element": "H" 
			},
			{
				"x": -0.4891279339,
				"y": -1.2812031602,
				"z": -1.5745369034,
				"element": "H" 
			},
			{
				"x": -1.162027637,
				"y": 0.3391645246,
				"z": -1.472445356,
				"element": "H" 
			},
			{
				"x": -0.923200323,
				"y": -1.6537517229,
				"z": 0.8389117445,
				"element": "H" 
			},
			{
				"x": -2.3987397013,
				"y": -1.1281782396,
				"z": 0.0358791453,
				"element": "H" 
			},
			{
				"x": -1.9518965998,
				"y": -0.0263165718,
				"z": 2.2813522361,
				"element": "H" 
			},
			{
				"x": 0.4404424478,
				"y": 0.1598982062,
				"z": 2.24642769,
				"element": "H" 
			},
			{
				"x": -0.2162973912,
				"y": 1.7854258334,
				"z": 2.3578291979,
				"element": "H" 
			},
			{
				"x": 0.1573385216,
				"y": 2.1610505567,
				"z": -0.0615202148,
				"element": "H" 
			},
			{
				"x": 1.6633037203,
				"y": 1.6919337033,
				"z": 0.7108008059,
				"element": "H" 
			},
			{
				"x": -3.1765269949,
				"y": 3.0939807831,
				"z": 1.3397174156,
				"element": "H" 
			}
		],
		 "valence_orbital": [ 
			{
				"type": "occ",
				"energy": -0.31979,
				"method": "rhf"
			},
			{
				"type": "occ",
				"energy": -0.30939,
				"method": "rhf"
			},
			{
				"type": "occ",
				"energy": -0.29691,
				"method": "rhf"
			},
			{
				"type": "occ",
				"energy": -0.29472,
				"method": "rhf"
			},
			{
				"type": "occ",
				"energy": -0.26823,
				"method": "rhf"
			},
			{
				"type": "unocc",
				"energy": 0.00881,
				"method": "rhf"
			},
			{
				"type": "unocc",
				"energy": 0.0729,
				"method": "rhf"
			},
			{
				"type": "unocc",
				"energy": 0.08397,
				"method": "rhf"
			},
			{
				"type": "unocc",
				"energy": 0.103,
				"method": "rhf"
			},
			{
				"type": "unocc",
				"energy": 0.13536,
				"method": "rhf"
			}
		],
		"cosmo_sigma_profile": { 
			"-0.025": 0.0,
			"-0.024": 0.0,
			"-0.023": 0.0,
			"-0.022": 0.0,
			"-0.021": 0.0,
			"-0.02": 0.0,
			"-0.019": 0.0,
			"-0.018": 0.253133137896,
			"-0.017": 0.94919423408,
			"-0.016": 1.14499779381,
			"-0.015": 0.421847697799,
			"-0.014": 0.52311259847,
			"-0.013": 0.716992329066,
			"-0.012": 1.3134384158,
			"-0.011": 0.777841000195,
			"-0.01": 0.377502357058,
			"-0.009": 0.547983720578,
			"-0.008": 0.484858148852,
			"-0.007": 0.569928716701,
			"-0.006": 2.22757674705,
			"-0.005": 4.04728574872,
			"-0.004": 3.84762527576,
			"-0.003": 16.0778492924,
			"-0.002": 26.1210750805,
			"-0.001": 30.059719538,
			"0.0": 31.9344168743,
			"0.001": 24.1533101158,
			"0.002": 9.35996818331,
			"0.003": 3.8243558126,
			"0.004": 3.72407636466,
			"0.005": 2.57316149415,
			"0.006": 2.55125764424,
			"0.007": 3.47850603813,
			"0.008": 2.9217851116,
			"0.009": 2.67589116913,
			"0.01": 2.39980539714,
			"0.011": 2.14099357643,
			"0.012": 4.78461779484,
			"0.013": 0.642443135866,
			"0.014": 0.0,
			"0.015": 0.0,
			"0.016": 0.0,
			"0.017": 0.0,
			"0.018": 0.0,
			"0.019": 0.0,
			"0.02": 0.0,
			"0.021": 0.0,
			"0.022": 0.0,
			"0.023": 0.0,
			"0.024": 0.0,
			"0.025": 0.0
		}
	}
}
