{
	 "smiles": "BrC1=CC(OC2=CC=C(Br)C=C2Br)=CC=C1", 
	 "Tm": 293.15, 
	 "num_atms": 23, 
	 "gaussian": { 
		 "optdone": 1, 
		 "sigma_profile": "yes", 
		 "theory": "DFT", 
		 "functional": "B3LYP", 
		 "basiset": "6-31G**", 
		 "properties": { 
			 "R2extent": 12022.0487, 
			 "electric_dipole_moment_norm": 2.15088276296, 
			 "electric_quadrupole_moment_norm": 6.73305320341, 
			 "total_energy": -8250.91745319, 
			 "HOMO_LUMO_gap": 0.19741, 
			 "cosmo_polarized_energy": -6.81, 
			 "cosmo_cavitation_energy": 35.27, 
			 "cosmo_dispersion_energy": -26.16, 
			 "cosmo_repulsion_energy": 2.07, 
			 "cosmo_total_nonelectrostatic_energy": 11.18, 
			 "SMD_solvation_energy": 2.75 
		},
		"coords": [
			{
				"x": 1.634768508,
				"y": 0.9275798185,
				"z": 3.1001325904,
				"element": "Br" 
			},
			{
				"x": 0.5519749362,
				"y": -0.2304260624,
				"z": 2.0317459356,
				"element": "C" 
			},
			{
				"x": 0.165234321,
				"y": 0.1950380614,
				"z": 0.7628827122,
				"element": "C" 
			},
			{
				"x": -0.6231844771,
				"y": -0.6614064352,
				"z": -0.0110062677,
				"element": "C" 
			},
			{
				"x": -1.1079043824,
				"y": -0.2959915261,
				"z": -1.2519019752,
				"element": "O" 
			},
			{
				"x": -0.3411085737,
				"y": 0.4361032952,
				"z": -2.1228170058,
				"element": "C" 
			},
			{
				"x": 1.0184334556,
				"y": 0.177471725,
				"z": -2.3260227541,
				"element": "C" 
			},
			{
				"x": 1.7436387578,
				"y": 0.8935186791,
				"z": -3.2749418014,
				"element": "C" 
			},
			{
				"x": 1.0983527961,
				"y": 1.8681885252,
				"z": -4.0344592096,
				"element": "C" 
			},
			{
				"x": 2.0801639834,
				"y": 2.8542936084,
				"z": -5.340036705,
				"element": "Br" 
			},
			{
				"x": -0.2569345894,
				"y": 2.1352162773,
				"z": -3.8560990733,
				"element": "C" 
			},
			{
				"x": -0.9718510099,
				"y": 1.4200761059,
				"z": -2.896214807,
				"element": "C" 
			},
			{
				"x": -2.8200360478,
				"y": 1.7894749802,
				"z": -2.6480320906,
				"element": "Br" 
			},
			{
				"x": -1.027742375,
				"y": -1.905704408,
				"z": 0.4751836589,
				"element": "C" 
			},
			{
				"x": -0.6322942257,
				"y": -2.297186979,
				"z": 1.7528838797,
				"element": "C" 
			},
			{
				"x": 0.1658038512,
				"y": -1.4680262188,
				"z": 2.5436858641,
				"element": "C" 
			},
			{
				"x": 0.462920138,
				"y": 1.1664292397,
				"z": 0.3885472878,
				"element": "H" 
			},
			{
				"x": 1.5050123796,
				"y": -0.5919033072,
				"z": -1.7364369982,
				"element": "H" 
			},
			{
				"x": 2.7966790581,
				"y": 0.6883165861,
				"z": -3.4270051179,
				"element": "H" 
			},
			{
				"x": -0.7553750173,
				"y": 2.8923517232,
				"z": -4.4476509228,
				"element": "H" 
			},
			{
				"x": -1.6462584166,
				"y": -2.539725089,
				"z": -0.1501967905,
				"element": "H" 
			},
			{
				"x": -0.9434963403,
				"y": -3.2634885968,
				"z": 2.1378983778,
				"element": "H" 
			},
			{
				"x": 0.48000327,
				"y": -1.7736000026,
				"z": 3.5343612126,
				"element": "H" 
			}
		],
		 "valence_orbital": [ 
			{
				"type": "occ",
				"energy": -0.2924,
				"method": "rhf"
			},
			{
				"type": "occ",
				"energy": -0.26867,
				"method": "rhf"
			},
			{
				"type": "occ",
				"energy": -0.26061,
				"method": "rhf"
			},
			{
				"type": "occ",
				"energy": -0.2511,
				"method": "rhf"
			},
			{
				"type": "occ",
				"energy": -0.23348,
				"method": "rhf"
			},
			{
				"type": "unocc",
				"energy": -0.03607,
				"method": "rhf"
			},
			{
				"type": "unocc",
				"energy": -0.03067,
				"method": "rhf"
			},
			{
				"type": "unocc",
				"energy": -0.02179,
				"method": "rhf"
			},
			{
				"type": "unocc",
				"energy": -0.0204,
				"method": "rhf"
			},
			{
				"type": "unocc",
				"energy": -0.01033,
				"method": "rhf"
			}
		],
		"cosmo_sigma_profile": { 
			"-0.025": 0.0,
			"-0.024": 0.0,
			"-0.023": 0.0,
			"-0.022": 0.0,
			"-0.021": 0.0,
			"-0.02": 0.0,
			"-0.019": 0.0,
			"-0.018": 0.0,
			"-0.017": 0.0,
			"-0.016": 0.0,
			"-0.015": 0.0,
			"-0.014": 0.0,
			"-0.013": 0.0,
			"-0.012": 0.0,
			"-0.011": 0.0,
			"-0.01": 0.0,
			"-0.009": 0.0805361890464,
			"-0.008": 4.2957336066,
			"-0.007": 11.8667551659,
			"-0.006": 12.4180583496,
			"-0.005": 15.6152357696,
			"-0.004": 14.9287181011,
			"-0.003": 16.7793101799,
			"-0.002": 17.0695843054,
			"-0.001": 17.7809468121,
			"0.0": 27.3476100308,
			"0.001": 38.1642769913,
			"0.002": 36.8828008028,
			"0.003": 31.3829511608,
			"0.004": 34.4937311833,
			"0.005": 10.2159210716,
			"0.006": 2.07730449408,
			"0.007": 1.66041277102,
			"0.008": 1.26015410476,
			"0.009": 0.0981317563695,
			"0.01": 0.0,
			"0.011": 0.0,
			"0.012": 0.0,
			"0.013": 0.0,
			"0.014": 0.0,
			"0.015": 0.0,
			"0.016": 0.0,
			"0.017": 0.0,
			"0.018": 0.0,
			"0.019": 0.0,
			"0.02": 0.0,
			"0.021": 0.0,
			"0.022": 0.0,
			"0.023": 0.0,
			"0.024": 0.0,
			"0.025": 0.0
		}
	}
}
