{
	 "smiles": "CN1C2CCC1CC(C2)OC(=O)C(CO)C1=CC=CC=C1", 
	 "Tm": 387.15, 
	 "num_atms": 44, 
	 "gaussian": { 
		 "optdone": 1, 
		 "sigma_profile": "yes", 
		 "theory": "DFT", 
		 "functional": "B3LYP", 
		 "basiset": "6-31G**", 
		 "properties": { 
			 "R2extent": 7314.5201, 
			 "electric_dipole_moment_norm": 2.34487809918, 
			 "electric_quadrupole_moment_norm": 10.4919817232, 
			 "total_energy": -942.092604089, 
			 "HOMO_LUMO_gap": 0.19681, 
			 "cosmo_polarized_energy": -14.11, 
			 "cosmo_cavitation_energy": 43.17, 
			 "cosmo_dispersion_energy": -28.98, 
			 "cosmo_repulsion_energy": 2.22, 
			 "cosmo_total_nonelectrostatic_energy": 16.4, 
			 "SMD_solvation_energy": 4.78 
		},
		"coords": [
			{
				"x": 0.641289911,
				"y": -3.4811581264,
				"z": -2.1721570672,
				"element": "C" 
			},
			{
				"x": 1.0166713247,
				"y": -2.0714548757,
				"z": -2.118499828,
				"element": "N" 
			},
			{
				"x": -0.0784946074,
				"y": -1.1818785819,
				"z": -1.673470793,
				"element": "C" 
			},
			{
				"x": -0.135593992,
				"y": -1.3409255821,
				"z": -0.1245858103,
				"element": "C" 
			},
			{
				"x": 1.3177449479,
				"y": -1.7376507654,
				"z": 0.2560727429,
				"element": "C" 
			},
			{
				"x": 2.0599030724,
				"y": -1.7730590608,
				"z": -1.1141665957,
				"element": "C" 
			},
			{
				"x": 2.6808661694,
				"y": -0.4182443147,
				"z": -1.499993229,
				"element": "C" 
			},
			{
				"x": 1.6518500137,
				"y": 0.7169480741,
				"z": -1.5992186841,
				"element": "C" 
			},
			{
				"x": 0.2853701486,
				"y": 0.243880617,
				"z": -2.1246710628,
				"element": "C" 
			},
			{
				"x": 1.5202889914,
				"y": 1.3062655725,
				"z": -0.260772979,
				"element": "O" 
			},
			{
				"x": 1.2459920149,
				"y": 2.6253225295,
				"z": -0.2146207123,
				"element": "C" 
			},
			{
				"x": 1.0126054322,
				"y": 3.3100786266,
				"z": -1.1880900835,
				"element": "O" 
			},
			{
				"x": 1.2808477783,
				"y": 3.1814296888,
				"z": 1.2126769299,
				"element": "C" 
			},
			{
				"x": 2.6405325948,
				"y": 2.8853830463,
				"z": 1.8780396355,
				"element": "C" 
			},
			{
				"x": 3.7332355593,
				"y": 3.2739472317,
				"z": 1.0617326372,
				"element": "O" 
			},
			{
				"x": 0.0961610149,
				"y": 2.7386819392,
				"z": 2.0605618381,
				"element": "C" 
			},
			{
				"x": -0.0075199663,
				"y": 1.434734642,
				"z": 2.5677931182,
				"element": "C" 
			},
			{
				"x": -1.0960176597,
				"y": 1.0626796555,
				"z": 3.3581470341,
				"element": "C" 
			},
			{
				"x": -2.1006885066,
				"y": 1.985619563,
				"z": 3.6542658295,
				"element": "C" 
			},
			{
				"x": -2.0093009622,
				"y": 3.2848789393,
				"z": 3.1535961583,
				"element": "C" 
			},
			{
				"x": -0.9189514197,
				"y": 3.6556969988,
				"z": 2.3656350984,
				"element": "C" 
			},
			{
				"x": 1.5062732685,
				"y": -4.0730283216,
				"z": -2.4889959858,
				"element": "H" 
			},
			{
				"x": 0.2749547884,
				"y": -3.9047537543,
				"z": -1.2199762484,
				"element": "H" 
			},
			{
				"x": -0.1456259607,
				"y": -3.6164244753,
				"z": -2.9213318576,
				"element": "H" 
			},
			{
				"x": -1.0160254496,
				"y": -1.4782054852,
				"z": -2.1555401764,
				"element": "H" 
			},
			{
				"x": -0.4673689206,
				"y": -0.4264505736,
				"z": 0.3713473745,
				"element": "H" 
			},
			{
				"x": -0.840390406,
				"y": -2.131864011,
				"z": 0.1501140023,
				"element": "H" 
			},
			{
				"x": 1.7812752759,
				"y": -1.0314687151,
				"z": 0.9490567394,
				"element": "H" 
			},
			{
				"x": 1.3447698136,
				"y": -2.723200836,
				"z": 0.7309913663,
				"element": "H" 
			},
			{
				"x": 2.837961289,
				"y": -2.5429464403,
				"z": -1.1458897856,
				"element": "H" 
			},
			{
				"x": 3.4673350598,
				"y": -0.1234839844,
				"z": -0.7970492752,
				"element": "H" 
			},
			{
				"x": 3.1443741662,
				"y": -0.5360465253,
				"z": -2.4854574641,
				"element": "H" 
			},
			{
				"x": 2.0268557863,
				"y": 1.5167455896,
				"z": -2.240183648,
				"element": "H" 
			},
			{
				"x": 0.3321578518,
				"y": 0.2444980359,
				"z": -3.2193053199,
				"element": "H" 
			},
			{
				"x": -0.4834592817,
				"y": 0.9660873061,
				"z": -1.8330888434,
				"element": "H" 
			},
			{
				"x": 1.2018714257,
				"y": 4.265083983,
				"z": 1.0709344044,
				"element": "H" 
			},
			{
				"x": 2.7583627294,
				"y": 1.8112716159,
				"z": 2.0353978395,
				"element": "H" 
			},
			{
				"x": 2.6659050211,
				"y": 3.3736817525,
				"z": 2.8639221906,
				"element": "H" 
			},
			{
				"x": 3.6737372396,
				"y": 4.2266781623,
				"z": 0.9109988382,
				"element": "H" 
			},
			{
				"x": 0.7593763265,
				"y": 0.7026540334,
				"z": 2.3388576081,
				"element": "H" 
			},
			{
				"x": -1.157891823,
				"y": 0.0483654338,
				"z": 3.7422336365,
				"element": "H" 
			},
			{
				"x": -2.9469739771,
				"y": 1.69426479,
				"z": 4.269606819,
				"element": "H" 
			},
			{
				"x": -2.7850310064,
				"y": 4.0120124416,
				"z": 3.376327886,
				"element": "H" 
			},
			{
				"x": -0.8546350759,
				"y": 4.6695541609,
				"z": 1.9789557224,
				"element": "H" 
			}
		],
		 "valence_orbital": [ 
			{
				"type": "occ",
				"energy": -0.27956,
				"method": "rhf"
			},
			{
				"type": "occ",
				"energy": -0.27053,
				"method": "rhf"
			},
			{
				"type": "occ",
				"energy": -0.25402,
				"method": "rhf"
			},
			{
				"type": "occ",
				"energy": -0.24176,
				"method": "rhf"
			},
			{
				"type": "occ",
				"energy": -0.20987,
				"method": "rhf"
			},
			{
				"type": "unocc",
				"energy": -0.01306,
				"method": "rhf"
			},
			{
				"type": "unocc",
				"energy": -0.0062,
				"method": "rhf"
			},
			{
				"type": "unocc",
				"energy": 0.02287,
				"method": "rhf"
			},
			{
				"type": "unocc",
				"energy": 0.0676,
				"method": "rhf"
			},
			{
				"type": "unocc",
				"energy": 0.07552,
				"method": "rhf"
			}
		],
		"cosmo_sigma_profile": { 
			"-0.025": 0.0,
			"-0.024": 0.0,
			"-0.023": 0.0,
			"-0.022": 0.0,
			"-0.021": 0.0,
			"-0.02": 0.0,
			"-0.019": 0.0,
			"-0.018": 0.0,
			"-0.017": 0.0181881020288,
			"-0.016": 0.634234522134,
			"-0.015": 1.22657941494,
			"-0.014": 0.640461116799,
			"-0.013": 1.15567305591,
			"-0.012": 1.15429965241,
			"-0.011": 1.28526395479,
			"-0.01": 0.53077818871,
			"-0.009": 1.04223626359,
			"-0.008": 1.25878814374,
			"-0.007": 1.82016525458,
			"-0.006": 7.94046821915,
			"-0.005": 15.2446322296,
			"-0.004": 26.3366646618,
			"-0.003": 38.752602224,
			"-0.002": 44.3416817953,
			"-0.001": 40.5034511522,
			"0.0": 33.872626216,
			"0.001": 24.3634302614,
			"0.002": 17.8787696428,
			"0.003": 12.4670333407,
			"0.004": 11.8451556029,
			"0.005": 13.167647906,
			"0.006": 7.57942830914,
			"0.007": 4.35963715698,
			"0.008": 3.37340242106,
			"0.009": 3.48629742539,
			"0.01": 3.03652542782,
			"0.011": 5.0211220937,
			"0.012": 6.3244805618,
			"0.013": 3.4584786618,
			"0.014": 1.93871461538,
			"0.015": 0.0845803514257,
			"0.016": 0.493388272187,
			"0.017": 0.0255727368261,
			"0.018": 0.0,
			"0.019": 0.0,
			"0.02": 0.0,
			"0.021": 0.0,
			"0.022": 0.0,
			"0.023": 0.0,
			"0.024": 0.0,
			"0.025": 0.0
		}
	}
}
