{
	 "smiles": "OC(=O)C1=CN=C(OCC(F)(F)C(F)F)C=C1", 
	 "Tm": 417.15, 
	 "num_atms": 24, 
	 "gaussian": { 
		 "optdone": 1, 
		 "sigma_profile": "yes", 
		 "theory": "DFT", 
		 "functional": "B3LYP", 
		 "basiset": "6-31G**", 
		 "properties": { 
			 "R2extent": 5907.3923, 
			 "electric_dipole_moment_norm": 1.87555195609, 
			 "electric_quadrupole_moment_norm": 14.6246116294, 
			 "total_energy": -1026.9606443, 
			 "HOMO_LUMO_gap": 0.19904, 
			 "cosmo_polarized_energy": -12.43, 
			 "cosmo_cavitation_energy": 31.51, 
			 "cosmo_dispersion_energy": -21.97, 
			 "cosmo_repulsion_energy": 1.64, 
			 "cosmo_total_nonelectrostatic_energy": 11.19, 
			 "SMD_solvation_energy": 7.69 
		},
		"coords": [
			{
				"x": -1.6467939039,
				"y": 4.8422586681,
				"z": -1.5257412401,
				"element": "O" 
			},
			{
				"x": -0.5671624916,
				"y": 4.0793911214,
				"z": -1.8364050571,
				"element": "C" 
			},
			{
				"x": 0.0736047372,
				"y": 4.2479610216,
				"z": -2.8553638683,
				"element": "O" 
			},
			{
				"x": -0.2784772407,
				"y": 3.0521458754,
				"z": -0.8114063853,
				"element": "C" 
			},
			{
				"x": 0.8086603984,
				"y": 2.1973862247,
				"z": -1.0068351504,
				"element": "C" 
			},
			{
				"x": 1.1554738889,
				"y": 1.2349406712,
				"z": -0.1460998742,
				"element": "N" 
			},
			{
				"x": 0.4194175385,
				"y": 1.0954554347,
				"z": 0.9505573125,
				"element": "C" 
			},
			{
				"x": 0.74469269,
				"y": 0.1501531591,
				"z": 1.8675610602,
				"element": "O" 
			},
			{
				"x": 1.7959434857,
				"y": -0.7638963198,
				"z": 1.5684774772,
				"element": "C" 
			},
			{
				"x": 1.2026823703,
				"y": -2.0844504919,
				"z": 1.0976595229,
				"element": "C" 
			},
			{
				"x": 0.3976458705,
				"y": -1.8828074976,
				"z": 0.0145098376,
				"element": "F" 
			},
			{
				"x": 0.4350370204,
				"y": -2.6417451395,
				"z": 2.0811117565,
				"element": "F" 
			},
			{
				"x": 2.2524580809,
				"y": -3.1274945684,
				"z": 0.7024998623,
				"element": "C" 
			},
			{
				"x": 3.0084029111,
				"y": -2.6363518838,
				"z": -0.3149694023,
				"element": "F" 
			},
			{
				"x": 3.0648732589,
				"y": -3.3553913814,
				"z": 1.7722971644,
				"element": "F" 
			},
			{
				"x": -0.6951931065,
				"y": 1.8966885526,
				"z": 1.2588695643,
				"element": "C" 
			},
			{
				"x": -1.042789475,
				"y": 2.886439995,
				"z": 0.3588828881,
				"element": "C" 
			},
			{
				"x": -1.7429500324,
				"y": 5.4740071691,
				"z": -2.2572222974,
				"element": "H" 
			},
			{
				"x": 1.4172824627,
				"y": 2.303274399,
				"z": -1.9007259293,
				"element": "H" 
			},
			{
				"x": 2.346928144,
				"y": -0.9363322177,
				"z": 2.4944539127,
				"element": "H" 
			},
			{
				"x": 2.4553942481,
				"y": -0.36854305,
				"z": 0.7953906245,
				"element": "H" 
			},
			{
				"x": 1.7822366917,
				"y": -4.066902349,
				"z": 0.392267824,
				"element": "H" 
			},
			{
				"x": -1.2463155961,
				"y": 1.7218448723,
				"z": 2.1752776796,
				"element": "H" 
			},
			{
				"x": -1.8944519509,
				"y": 3.531067735,
				"z": 0.5451527177,
				"element": "H" 
			}
		],
		 "valence_orbital": [ 
			{
				"type": "occ",
				"energy": -0.32171,
				"method": "rhf"
			},
			{
				"type": "occ",
				"energy": -0.30302,
				"method": "rhf"
			},
			{
				"type": "occ",
				"energy": -0.28903,
				"method": "rhf"
			},
			{
				"type": "occ",
				"energy": -0.27607,
				"method": "rhf"
			},
			{
				"type": "occ",
				"energy": -0.25071,
				"method": "rhf"
			},
			{
				"type": "unocc",
				"energy": -0.05167,
				"method": "rhf"
			},
			{
				"type": "unocc",
				"energy": -0.03607,
				"method": "rhf"
			},
			{
				"type": "unocc",
				"energy": 0.05013,
				"method": "rhf"
			},
			{
				"type": "unocc",
				"energy": 0.06557,
				"method": "rhf"
			},
			{
				"type": "unocc",
				"energy": 0.07424,
				"method": "rhf"
			}
		],
		"cosmo_sigma_profile": { 
			"-0.025": 0.0,
			"-0.024": 0.0,
			"-0.023": 0.0,
			"-0.022": 0.0,
			"-0.021": 0.0,
			"-0.02": 0.0,
			"-0.019": 0.173747056466,
			"-0.018": 0.746150473146,
			"-0.017": 1.26417893713,
			"-0.016": 0.553231461856,
			"-0.015": 0.601044896958,
			"-0.014": 0.668255940128,
			"-0.013": 0.41901695038,
			"-0.012": 0.881579183199,
			"-0.011": 2.73619291759,
			"-0.01": 3.51753074697,
			"-0.009": 2.67902032478,
			"-0.008": 5.83544417478,
			"-0.007": 8.21761628633,
			"-0.006": 10.875677428,
			"-0.005": 9.62952659373,
			"-0.004": 9.21245287904,
			"-0.003": 9.93414454242,
			"-0.002": 13.3930610223,
			"-0.001": 21.0614389337,
			"0.0": 23.1641756967,
			"0.001": 18.7233022075,
			"0.002": 19.3256820964,
			"0.003": 36.9626827654,
			"0.004": 18.2221232443,
			"0.005": 6.53828511117,
			"0.006": 6.36035102886,
			"0.007": 5.70083318267,
			"0.008": 3.2885203686,
			"0.009": 1.92157770469,
			"0.01": 2.03592312016,
			"0.011": 4.37931687499,
			"0.012": 3.20562327166,
			"0.013": 0.0328511881432,
			"0.014": 0.0,
			"0.015": 0.0,
			"0.016": 0.0,
			"0.017": 0.0,
			"0.018": 0.0,
			"0.019": 0.0,
			"0.02": 0.0,
			"0.021": 0.0,
			"0.022": 0.0,
			"0.023": 0.0,
			"0.024": 0.0,
			"0.025": 0.0
		}
	}
}
