{
	 "smiles": "COC(=O)C1=NC(Cl)=C2C=CC=CC2=C1", 
	 "Tm": 384.15, 
	 "num_atms": 23, 
	 "gaussian": { 
		 "optdone": 1, 
		 "sigma_profile": "yes", 
		 "theory": "DFT", 
		 "functional": "B3LYP", 
		 "basiset": "6-31G**", 
		 "properties": { 
			 "R2extent": 4871.6061, 
			 "electric_dipole_moment_norm": 5.61054941427, 
			 "electric_quadrupole_moment_norm": 18.1176609812, 
			 "total_energy": -1089.39653041, 
			 "HOMO_LUMO_gap": 0.1695, 
			 "cosmo_polarized_energy": -13.63, 
			 "cosmo_cavitation_energy": 29.77, 
			 "cosmo_dispersion_energy": -22.12, 
			 "cosmo_repulsion_energy": 1.72, 
			 "cosmo_total_nonelectrostatic_energy": 9.37, 
			 "SMD_solvation_energy": 5.04 
		},
		"coords": [
			{
				"x": -1.7694789075,
				"y": -2.949486302,
				"z": 0.7703567292,
				"element": "C" 
			},
			{
				"x": -1.1220961383,
				"y": -1.7212612993,
				"z": 0.4038545374,
				"element": "O" 
			},
			{
				"x": 0.0560270739,
				"y": -1.4872150916,
				"z": 1.0334363722,
				"element": "C" 
			},
			{
				"x": 0.5431268528,
				"y": -2.2402949493,
				"z": 1.844391301,
				"element": "O" 
			},
			{
				"x": 0.660684942,
				"y": -0.1860034284,
				"z": 0.5911889395,
				"element": "C" 
			},
			{
				"x": 1.8516457509,
				"y": 0.1231416548,
				"z": 1.1799639987,
				"element": "N" 
			},
			{
				"x": 2.4349605583,
				"y": 1.2303597819,
				"z": 0.8491819721,
				"element": "C" 
			},
			{
				"x": 3.9758448958,
				"y": 1.5670294835,
				"z": 1.6517758238,
				"element": "Cl" 
			},
			{
				"x": 1.9355318857,
				"y": 2.182716599,
				"z": -0.0985644813,
				"element": "C" 
			},
			{
				"x": 2.5805561896,
				"y": 3.3916519609,
				"z": -0.4543326898,
				"element": "C" 
			},
			{
				"x": 2.0064853039,
				"y": 4.235633539,
				"z": -1.381395822,
				"element": "C" 
			},
			{
				"x": 0.7707655157,
				"y": 3.9078769632,
				"z": -1.9877918708,
				"element": "C" 
			},
			{
				"x": 0.1227213867,
				"y": 2.7380743547,
				"z": -1.6593462294,
				"element": "C" 
			},
			{
				"x": 0.6859039299,
				"y": 1.8468167747,
				"z": -0.7088798767,
				"element": "C" 
			},
			{
				"x": 0.0563307654,
				"y": 0.630698016,
				"z": -0.338243832,
				"element": "C" 
			},
			{
				"x": -2.6879482091,
				"y": -2.9850590819,
				"z": 0.1845387237,
				"element": "H" 
			},
			{
				"x": -1.1309790224,
				"y": -3.8052008534,
				"z": 0.5369081683,
				"element": "H" 
			},
			{
				"x": -1.9946254889,
				"y": -2.9612253793,
				"z": 1.8397460103,
				"element": "H" 
			},
			{
				"x": 3.526750623,
				"y": 3.6422274237,
				"z": 0.0102307284,
				"element": "H" 
			},
			{
				"x": 2.5060630687,
				"y": 5.161387547,
				"z": -1.6500935445,
				"element": "H" 
			},
			{
				"x": 0.3344540691,
				"y": 4.5853488946,
				"z": -2.7157368173,
				"element": "H" 
			},
			{
				"x": -0.8261320492,
				"y": 2.4799736855,
				"z": -2.120807575,
				"element": "H" 
			},
			{
				"x": -0.8904929961,
				"y": 0.3476097067,
				"z": -0.7821805657,
				"element": "H" 
			}
		],
		 "valence_orbital": [ 
			{
				"type": "occ",
				"energy": -0.29608,
				"method": "rhf"
			},
			{
				"type": "occ",
				"energy": -0.28008,
				"method": "rhf"
			},
			{
				"type": "occ",
				"energy": -0.2782,
				"method": "rhf"
			},
			{
				"type": "occ",
				"energy": -0.27372,
				"method": "rhf"
			},
			{
				"type": "occ",
				"energy": -0.24293,
				"method": "rhf"
			},
			{
				"type": "unocc",
				"energy": -0.07343,
				"method": "rhf"
			},
			{
				"type": "unocc",
				"energy": -0.05613,
				"method": "rhf"
			},
			{
				"type": "unocc",
				"energy": 0.0047,
				"method": "rhf"
			},
			{
				"type": "unocc",
				"energy": 0.02792,
				"method": "rhf"
			},
			{
				"type": "unocc",
				"energy": 0.0329,
				"method": "rhf"
			}
		],
		"cosmo_sigma_profile": { 
			"-0.025": 0.0,
			"-0.024": 0.0,
			"-0.023": 0.0,
			"-0.022": 0.0,
			"-0.021": 0.0,
			"-0.02": 0.0,
			"-0.019": 0.0,
			"-0.018": 0.0,
			"-0.017": 0.0,
			"-0.016": 0.0,
			"-0.015": 0.0,
			"-0.014": 0.0,
			"-0.013": 0.0,
			"-0.012": 0.0,
			"-0.011": 0.0,
			"-0.01": 0.0,
			"-0.009": 0.425673015159,
			"-0.008": 2.96670057181,
			"-0.007": 9.67996978491,
			"-0.006": 15.1470776303,
			"-0.005": 15.4850421192,
			"-0.004": 16.355587432,
			"-0.003": 18.2555760451,
			"-0.002": 20.3822011668,
			"-0.001": 22.945879789,
			"0.0": 23.3539639053,
			"0.001": 20.9496166004,
			"0.002": 19.9537500853,
			"0.003": 12.0893968808,
			"0.004": 10.6184447207,
			"0.005": 6.63013901065,
			"0.006": 3.23461020219,
			"0.007": 2.1734647224,
			"0.008": 2.64915608451,
			"0.009": 1.82092996771,
			"0.01": 3.36862041563,
			"0.011": 4.26925491171,
			"0.012": 3.5004291409,
			"0.013": 1.81998586533,
			"0.014": 1.66827341168,
			"0.015": 1.05491304521,
			"0.016": 0.94537406931,
			"0.017": 0.194371159123,
			"0.018": 0.0,
			"0.019": 0.0,
			"0.02": 0.0,
			"0.021": 0.0,
			"0.022": 0.0,
			"0.023": 0.0,
			"0.024": 0.0,
			"0.025": 0.0
		}
	}
}
