{
	 "smiles": "FC1=C(CBr)C=CC(Br)=C1", 
	 "Tm": 308.15, 
	 "num_atms": 15, 
	 "gaussian": { 
		 "optdone": 1, 
		 "sigma_profile": "yes", 
		 "theory": "DFT", 
		 "functional": "B3LYP", 
		 "basiset": "6-31G**", 
		 "properties": { 
			 "R2extent": 4651.1894, 
			 "electric_dipole_moment_norm": 2.0749415293, 
			 "electric_quadrupole_moment_norm": 9.63288198724, 
			 "total_energy": -5512.4050742, 
			 "HOMO_LUMO_gap": 0.19809, 
			 "cosmo_polarized_energy": -6.16, 
			 "cosmo_cavitation_energy": 24.51, 
			 "cosmo_dispersion_energy": -18.46, 
			 "cosmo_repulsion_energy": 1.49, 
			 "cosmo_total_nonelectrostatic_energy": 7.53, 
			 "SMD_solvation_energy": 2.25 
		},
		"coords": [
			{
				"x": -1.5871848689,
				"y": 1.1424808343,
				"z": -0.426994281,
				"element": "F" 
			},
			{
				"x": -0.6458664535,
				"y": 0.2234034878,
				"z": -0.1360750986,
				"element": "C" 
			},
			{
				"x": -1.0151302373,
				"y": -0.9042259135,
				"z": 0.603960987,
				"element": "C" 
			},
			{
				"x": -2.421092334,
				"y": -1.0876391205,
				"z": 1.0610111288,
				"element": "C" 
			},
			{
				"x": -3.5253643186,
				"y": -2.0951877194,
				"z": -0.2758887685,
				"element": "Br" 
			},
			{
				"x": -0.0082312652,
				"y": -1.8356695313,
				"z": 0.8904964028,
				"element": "C" 
			},
			{
				"x": 1.3049918054,
				"y": -1.6482242867,
				"z": 0.4650444959,
				"element": "C" 
			},
			{
				"x": 1.6207529164,
				"y": -0.503380105,
				"z": -0.2677297682,
				"element": "C" 
			},
			{
				"x": 3.4130871945,
				"y": -0.2279665445,
				"z": -0.8562699405,
				"element": "Br" 
			},
			{
				"x": 0.6517081521,
				"y": 0.4486510164,
				"z": -0.5770552695,
				"element": "C" 
			},
			{
				"x": -2.4857039439,
				"y": -1.6831792385,
				"z": 1.9690376229,
				"element": "H" 
			},
			{
				"x": -2.9447921671,
				"y": -0.1433726381,
				"z": 1.1848659632,
				"element": "H" 
			},
			{
				"x": -0.2628478619,
				"y": -2.7274041922,
				"z": 1.45636845,
				"element": "H" 
			},
			{
				"x": 2.0719160942,
				"y": -2.3771924006,
				"z": 0.6972656742,
				"element": "H" 
			},
			{
				"x": 0.8836572877,
				"y": 1.3425063517,
				"z": -1.1423375984,
				"element": "H" 
			}
		],
		 "valence_orbital": [ 
			{
				"type": "occ",
				"energy": -0.29869,
				"method": "rhf"
			},
			{
				"type": "occ",
				"energy": -0.27849,
				"method": "rhf"
			},
			{
				"type": "occ",
				"energy": -0.27597,
				"method": "rhf"
			},
			{
				"type": "occ",
				"energy": -0.27077,
				"method": "rhf"
			},
			{
				"type": "occ",
				"energy": -0.25102,
				"method": "rhf"
			},
			{
				"type": "unocc",
				"energy": -0.05293,
				"method": "rhf"
			},
			{
				"type": "unocc",
				"energy": -0.02329,
				"method": "rhf"
			},
			{
				"type": "unocc",
				"energy": -0.00618,
				"method": "rhf"
			},
			{
				"type": "unocc",
				"energy": 0.01477,
				"method": "rhf"
			},
			{
				"type": "unocc",
				"energy": 0.0966,
				"method": "rhf"
			}
		],
		"cosmo_sigma_profile": { 
			"-0.025": 0.0,
			"-0.024": 0.0,
			"-0.023": 0.0,
			"-0.022": 0.0,
			"-0.021": 0.0,
			"-0.02": 0.0,
			"-0.019": 0.0,
			"-0.018": 0.0,
			"-0.017": 0.0,
			"-0.016": 0.0,
			"-0.015": 0.0,
			"-0.014": 0.0,
			"-0.013": 0.0,
			"-0.012": 0.0,
			"-0.011": 0.0,
			"-0.01": 0.0,
			"-0.009": 1.25893040267,
			"-0.008": 7.41041000344,
			"-0.007": 9.48112078676,
			"-0.006": 8.23451301333,
			"-0.005": 10.047915269,
			"-0.004": 9.56153299119,
			"-0.003": 8.74534694173,
			"-0.002": 10.3366790391,
			"-0.001": 13.1263642482,
			"0.0": 17.2627355941,
			"0.001": 23.8411914744,
			"0.002": 20.6480793717,
			"0.003": 21.9923301346,
			"0.004": 20.6871000039,
			"0.005": 8.28772419741,
			"0.006": 11.2475084976,
			"0.007": 1.28359614791,
			"0.008": 0.0,
			"0.009": 0.0,
			"0.01": 0.0,
			"0.011": 0.0,
			"0.012": 0.0,
			"0.013": 0.0,
			"0.014": 0.0,
			"0.015": 0.0,
			"0.016": 0.0,
			"0.017": 0.0,
			"0.018": 0.0,
			"0.019": 0.0,
			"0.02": 0.0,
			"0.021": 0.0,
			"0.022": 0.0,
			"0.023": 0.0,
			"0.024": 0.0,
			"0.025": 0.0
		}
	}
}
