{
	 "smiles": "CC1=C(C=CN1)C(O)=O", 
	 "Tm": 441.15, 
	 "num_atms": 16, 
	 "gaussian": { 
		 "optdone": 1, 
		 "sigma_profile": "yes", 
		 "theory": "DFT", 
		 "functional": "B3LYP", 
		 "basiset": "6-31G**", 
		 "properties": { 
			 "R2extent": 1254.3706, 
			 "electric_dipole_moment_norm": 6.95771237836, 
			 "electric_quadrupole_moment_norm": 4.6749678416, 
			 "total_energy": -438.060122492, 
			 "HOMO_LUMO_gap": 0.2124, 
			 "cosmo_polarized_energy": -19.56, 
			 "cosmo_cavitation_energy": 20.05, 
			 "cosmo_dispersion_energy": -14.98, 
			 "cosmo_repulsion_energy": 1.23, 
			 "cosmo_total_nonelectrostatic_energy": 6.31, 
			 "SMD_solvation_energy": 4.86 
		},
		"coords": [
			{
				"x": 0.5633795542,
				"y": -0.53511222,
				"z": 2.3536047539,
				"element": "C" 
			},
			{
				"x": -0.4435983272,
				"y": -0.8428188917,
				"z": 1.2858321591,
				"element": "C" 
			},
			{
				"x": -0.5184755966,
				"y": -0.5073239179,
				"z": -0.0673105739,
				"element": "C" 
			},
			{
				"x": -1.6902365527,
				"y": -1.1296614752,
				"z": -0.6033735452,
				"element": "C" 
			},
			{
				"x": -2.3037868844,
				"y": -1.8022119728,
				"z": 0.4192806014,
				"element": "C" 
			},
			{
				"x": -1.5373019073,
				"y": -1.6225319674,
				"z": 1.5551701167,
				"element": "N" 
			},
			{
				"x": 0.4160621423,
				"y": 0.2789618034,
				"z": -0.8947492946,
				"element": "C" 
			},
			{
				"x": 1.2770068817,
				"y": 1.117633763,
				"z": -0.2341736358,
				"element": "O" 
			},
			{
				"x": 0.4596566768,
				"y": 0.2180008689,
				"z": -2.1020293348,
				"element": "O" 
			},
			{
				"x": 0.3165378658,
				"y": 0.3736764329,
				"z": 2.9201335582,
				"element": "H" 
			},
			{
				"x": 1.5604581961,
				"y": -0.406616807,
				"z": 1.9243519678,
				"element": "H" 
			},
			{
				"x": 0.6292353734,
				"y": -1.353642484,
				"z": 3.0781111806,
				"element": "H" 
			},
			{
				"x": -2.0119524556,
				"y": -1.0632830284,
				"z": -1.6316772396,
				"element": "H" 
			},
			{
				"x": -3.2071511038,
				"y": -2.3926239566,
				"z": 0.4450956642,
				"element": "H" 
			},
			{
				"x": -1.7332689055,
				"y": -2.0327692396,
				"z": 2.4552497137,
				"element": "H" 
			},
			{
				"x": 0.9877350429,
				"y": 1.2264230924,
				"z": 0.6810839082,
				"element": "H" 
			}
		],
		 "valence_orbital": [ 
			{
				"type": "occ",
				"energy": -0.35759,
				"method": "rhf"
			},
			{
				"type": "occ",
				"energy": -0.30197,
				"method": "rhf"
			},
			{
				"type": "occ",
				"energy": -0.26248,
				"method": "rhf"
			},
			{
				"type": "occ",
				"energy": -0.25072,
				"method": "rhf"
			},
			{
				"type": "occ",
				"energy": -0.22383,
				"method": "rhf"
			},
			{
				"type": "unocc",
				"energy": -0.01143,
				"method": "rhf"
			},
			{
				"type": "unocc",
				"energy": 0.03467,
				"method": "rhf"
			},
			{
				"type": "unocc",
				"energy": 0.05635,
				"method": "rhf"
			},
			{
				"type": "unocc",
				"energy": 0.07178,
				"method": "rhf"
			},
			{
				"type": "unocc",
				"energy": 0.11457,
				"method": "rhf"
			}
		],
		"cosmo_sigma_profile": { 
			"-0.025": 0.0,
			"-0.024": 0.0,
			"-0.023": 0.0,
			"-0.022": 0.0,
			"-0.021": 0.0,
			"-0.02": 0.0,
			"-0.019": 0.0,
			"-0.018": 0.0,
			"-0.017": 0.0,
			"-0.016": 1.53481836329,
			"-0.015": 2.19387612844,
			"-0.014": 2.31562648636,
			"-0.013": 3.02121835792,
			"-0.012": 1.98786932097,
			"-0.011": 1.910975163,
			"-0.01": 2.51076039187,
			"-0.009": 2.24976532674,
			"-0.008": 4.56233129374,
			"-0.007": 5.52051994356,
			"-0.006": 7.15037941613,
			"-0.005": 8.60961427165,
			"-0.004": 10.6214900495,
			"-0.003": 8.88339964923,
			"-0.002": 10.5723464656,
			"-0.001": 8.45889073981,
			"0.0": 6.00757611036,
			"0.001": 6.07959098805,
			"0.002": 6.4470636521,
			"0.003": 6.66949473561,
			"0.004": 5.85338514386,
			"0.005": 7.70892290101,
			"0.006": 6.46987125675,
			"0.007": 5.64285998257,
			"0.008": 2.88138633825,
			"0.009": 2.49347186,
			"0.01": 3.30621316651,
			"0.011": 4.6981886064,
			"0.012": 5.82204607484,
			"0.013": 5.33038032735,
			"0.014": 1.85979546755,
			"0.015": 0.0849562799676,
			"0.016": 0.0,
			"0.017": 0.0,
			"0.018": 0.0,
			"0.019": 0.0,
			"0.02": 0.0,
			"0.021": 0.0,
			"0.022": 0.0,
			"0.023": 0.0,
			"0.024": 0.0,
			"0.025": 0.0
		}
	}
}
