{
	 "smiles": "OC(=O)C1=CC=C(SC2CC2)C=C1", 
	 "Tm": 430.15, 
	 "num_atms": 23, 
	 "gaussian": { 
		 "optdone": 1, 
		 "sigma_profile": "yes", 
		 "theory": "DFT", 
		 "functional": "B3LYP", 
		 "basiset": "6-31G**", 
		 "properties": { 
			 "R2extent": 4357.4644, 
			 "electric_dipole_moment_norm": 4.97450396924, 
			 "electric_quadrupole_moment_norm": 27.9218157377, 
			 "total_energy": -935.702012015, 
			 "HOMO_LUMO_gap": 0.17712, 
			 "cosmo_polarized_energy": -15.22, 
			 "cosmo_cavitation_energy": 28.61, 
			 "cosmo_dispersion_energy": -21.35, 
			 "cosmo_repulsion_energy": 1.64, 
			 "cosmo_total_nonelectrostatic_energy": 8.9, 
			 "SMD_solvation_energy": 5.27 
		},
		"coords": [
			{
				"x": -2.4836966777,
				"y": 3.0820789638,
				"z": -3.8055571272,
				"element": "O" 
			},
			{
				"x": -2.4507603373,
				"y": 1.8038142609,
				"z": -3.3359849047,
				"element": "C" 
			},
			{
				"x": -2.8751125864,
				"y": 0.9023452185,
				"z": -4.0217039858,
				"element": "O" 
			},
			{
				"x": -1.8749104123,
				"y": 1.5998595897,
				"z": -1.9714387455,
				"element": "C" 
			},
			{
				"x": -1.7387026216,
				"y": 2.6265090352,
				"z": -1.0236258153,
				"element": "C" 
			},
			{
				"x": -1.2070893483,
				"y": 2.3676907307,
				"z": 0.2339123671,
				"element": "C" 
			},
			{
				"x": -0.7919812429,
				"y": 1.0692027716,
				"z": 0.5753891531,
				"element": "C" 
			},
			{
				"x": -0.1186201309,
				"y": 0.8492389096,
				"z": 2.2082512985,
				"element": "S" 
			},
			{
				"x": 0.2346886729,
				"y": -0.9088681728,
				"z": 2.3068610658,
				"element": "C" 
			},
			{
				"x": 1.4186073445,
				"y": -1.3132038832,
				"z": 3.1560004736,
				"element": "C" 
			},
			{
				"x": 1.4727258276,
				"y": -1.4980590258,
				"z": 1.6646832207,
				"element": "C" 
			},
			{
				"x": -0.9394425989,
				"y": 0.0361135979,
				"z": -0.3630578,
				"element": "C" 
			},
			{
				"x": -1.4828669975,
				"y": 0.3031822531,
				"z": -1.61504065,
				"element": "C" 
			},
			{
				"x": -1.963982626,
				"y": 3.6615436848,
				"z": -3.2320037122,
				"element": "H" 
			},
			{
				"x": -2.0843911627,
				"y": 3.6351996076,
				"z": -1.2386093869,
				"element": "H" 
			},
			{
				"x": -1.1217004901,
				"y": 3.1717502393,
				"z": 0.9591600887,
				"element": "H" 
			},
			{
				"x": -0.6494762416,
				"y": -1.537897104,
				"z": 2.3674589271,
				"element": "H" 
			},
			{
				"x": 2.0245896994,
				"y": -0.5238034876,
				"z": 3.5894028621,
				"element": "H" 
			},
			{
				"x": 1.2961247353,
				"y": -2.1857227683,
				"z": 3.7898183017,
				"element": "H" 
			},
			{
				"x": 2.1091748918,
				"y": -0.8298879905,
				"z": 1.0939302247,
				"element": "H" 
			},
			{
				"x": 1.3931632211,
				"y": -2.5041043483,
				"z": 1.2626050537,
				"element": "H" 
			},
			{
				"x": -0.6293523594,
				"y": -0.9723178906,
				"z": -0.1173192179,
				"element": "H" 
			},
			{
				"x": -1.6111885592,
				"y": -0.4907641916,
				"z": -2.3432316914,
				"element": "H" 
			}
		],
		 "valence_orbital": [ 
			{
				"type": "occ",
				"energy": -0.31038,
				"method": "rhf"
			},
			{
				"type": "occ",
				"energy": -0.29351,
				"method": "rhf"
			},
			{
				"type": "occ",
				"energy": -0.27196,
				"method": "rhf"
			},
			{
				"type": "occ",
				"energy": -0.26794,
				"method": "rhf"
			},
			{
				"type": "occ",
				"energy": -0.22483,
				"method": "rhf"
			},
			{
				"type": "unocc",
				"energy": -0.04771,
				"method": "rhf"
			},
			{
				"type": "unocc",
				"energy": -0.02163,
				"method": "rhf"
			},
			{
				"type": "unocc",
				"energy": 0.0227,
				"method": "rhf"
			},
			{
				"type": "unocc",
				"energy": 0.04912,
				"method": "rhf"
			},
			{
				"type": "unocc",
				"energy": 0.05494,
				"method": "rhf"
			}
		],
		"cosmo_sigma_profile": { 
			"-0.025": 0.0,
			"-0.024": 0.0,
			"-0.023": 0.0,
			"-0.022": 0.0,
			"-0.021": 0.0,
			"-0.02": 0.0,
			"-0.019": 0.164070885808,
			"-0.018": 0.829962210587,
			"-0.017": 0.825603481311,
			"-0.016": 1.13407252025,
			"-0.015": 0.665449999799,
			"-0.014": 0.451938692308,
			"-0.013": 1.53969902936,
			"-0.012": 1.73933616202,
			"-0.011": 0.746624014043,
			"-0.01": 1.44101280101,
			"-0.009": 1.00263207719,
			"-0.008": 1.89639429554,
			"-0.007": 4.67267455878,
			"-0.006": 11.6905836462,
			"-0.005": 18.9211188981,
			"-0.004": 17.0799791192,
			"-0.003": 14.9770311571,
			"-0.002": 16.122607422,
			"-0.001": 15.9387513387,
			"0.0": 14.3067990021,
			"0.001": 14.6017674859,
			"0.002": 15.5246305984,
			"0.003": 21.6266511846,
			"0.004": 12.0452626129,
			"0.005": 6.06954422721,
			"0.006": 5.25582849757,
			"0.007": 4.21856588262,
			"0.008": 4.31957882168,
			"0.009": 3.04890025572,
			"0.01": 3.78690339133,
			"0.011": 5.81319264923,
			"0.012": 5.16032983949,
			"0.013": 2.25443300384,
			"0.014": 0.250609594144,
			"0.015": 0.0,
			"0.016": 0.0,
			"0.017": 0.0,
			"0.018": 0.0,
			"0.019": 0.0,
			"0.02": 0.0,
			"0.021": 0.0,
			"0.022": 0.0,
			"0.023": 0.0,
			"0.024": 0.0,
			"0.025": 0.0
		}
	}
}
