{
	 "smiles": "OC(=O)C1=CC(Cl)=C(OC2=C(C=CC=C2)C#N)C=C1", 
	 "Tm": 448.15, 
	 "num_atms": 27, 
	 "gaussian": { 
		 "optdone": 1, 
		 "sigma_profile": "yes", 
		 "theory": "DFT", 
		 "functional": "B3LYP", 
		 "basiset": "6-31G**", 
		 "properties": { 
			 "R2extent": 7799.4793, 
			 "electric_dipole_moment_norm": 8.14087133789, 
			 "electric_quadrupole_moment_norm": 17.4932955397, 
			 "total_energy": -1278.90187376, 
			 "HOMO_LUMO_gap": 0.18526, 
			 "cosmo_polarized_energy": -23.5, 
			 "cosmo_cavitation_energy": 36.08, 
			 "cosmo_dispersion_energy": -24.78, 
			 "cosmo_repulsion_energy": 1.92, 
			 "cosmo_total_nonelectrostatic_energy": 13.21, 
			 "SMD_solvation_energy": 8.6 
		},
		"coords": [
			{
				"x": -4.489627961,
				"y": -3.1973651099,
				"z": 2.1781797246,
				"element": "O" 
			},
			{
				"x": -4.6242256526,
				"y": -1.8504706684,
				"z": 2.3070461138,
				"element": "C" 
			},
			{
				"x": -5.5279133681,
				"y": -1.3927645795,
				"z": 2.9648717375,
				"element": "O" 
			},
			{
				"x": -3.6104291437,
				"y": -0.9989664021,
				"z": 1.6030951198,
				"element": "C" 
			},
			{
				"x": -3.4965337323,
				"y": 0.3337277098,
				"z": 2.0184566421,
				"element": "C" 
			},
			{
				"x": -2.5787597166,
				"y": 1.1836823822,
				"z": 1.4142977453,
				"element": "C" 
			},
			{
				"x": -2.4281442633,
				"y": 2.8337369479,
				"z": 1.9572506692,
				"element": "Cl" 
			},
			{
				"x": -1.7705123071,
				"y": 0.7165993621,
				"z": 0.3630366743,
				"element": "C" 
			},
			{
				"x": -0.9354104108,
				"y": 1.6165807479,
				"z": -0.2443289476,
				"element": "O" 
			},
			{
				"x": 0.2881962032,
				"y": 1.2283771428,
				"z": -0.7390023857,
				"element": "C" 
			},
			{
				"x": 0.6730322184,
				"y": 1.7645119597,
				"z": -1.9821213239,
				"element": "C" 
			},
			{
				"x": 1.9519047934,
				"y": 1.472105483,
				"z": -2.4882035079,
				"element": "C" 
			},
			{
				"x": 2.821461845,
				"y": 0.6554706608,
				"z": -1.7731902031,
				"element": "C" 
			},
			{
				"x": 2.4239148269,
				"y": 0.1288032841,
				"z": -0.5407265862,
				"element": "C" 
			},
			{
				"x": 1.1633116791,
				"y": 0.4145953151,
				"z": -0.018557892,
				"element": "C" 
			},
			{
				"x": -0.2270936983,
				"y": 2.5922815286,
				"z": -2.727124153,
				"element": "C" 
			},
			{
				"x": -0.9367776526,
				"y": 3.2584568304,
				"z": -3.3633871136,
				"element": "N" 
			},
			{
				"x": -1.9048985731,
				"y": -0.6040225166,
				"z": -0.0753566661,
				"element": "C" 
			},
			{
				"x": -2.815129314,
				"y": -1.4552958262,
				"z": 0.5434093279,
				"element": "C" 
			},
			{
				"x": -3.6374359893,
				"y": -3.416352067,
				"z": 1.7774827483,
				"element": "H" 
			},
			{
				"x": -4.1311641253,
				"y": 0.6904118013,
				"z": 2.8212143091,
				"element": "H" 
			},
			{
				"x": 2.243128572,
				"y": 1.8911837997,
				"z": -3.4452747478,
				"element": "H" 
			},
			{
				"x": 3.8057189966,
				"y": 0.4331162508,
				"z": -2.1715744407,
				"element": "H" 
			},
			{
				"x": 3.1031779816,
				"y": -0.5005102727,
				"z": 0.0261291566,
				"element": "H" 
			},
			{
				"x": 0.8582879832,
				"y": 0.022958667,
				"z": 0.9455591798,
				"element": "H" 
			},
			{
				"x": -1.306568243,
				"y": -0.949291403,
				"z": -0.9110646825,
				"element": "H" 
			},
			{
				"x": -2.9273109482,
				"y": -2.4625610276,
				"z": 0.1511835017,
				"element": "H" 
			}
		],
		 "valence_orbital": [ 
			{
				"type": "occ",
				"energy": -0.29292,
				"method": "rhf"
			},
			{
				"type": "occ",
				"energy": -0.28376,
				"method": "rhf"
			},
			{
				"type": "occ",
				"energy": -0.27894,
				"method": "rhf"
			},
			{
				"type": "occ",
				"energy": -0.2745,
				"method": "rhf"
			},
			{
				"type": "occ",
				"energy": -0.25433,
				"method": "rhf"
			},
			{
				"type": "unocc",
				"energy": -0.06907,
				"method": "rhf"
			},
			{
				"type": "unocc",
				"energy": -0.06058,
				"method": "rhf"
			},
			{
				"type": "unocc",
				"energy": -0.04316,
				"method": "rhf"
			},
			{
				"type": "unocc",
				"energy": -0.03404,
				"method": "rhf"
			},
			{
				"type": "unocc",
				"energy": 0.01395,
				"method": "rhf"
			}
		],
		"cosmo_sigma_profile": { 
			"-0.025": 0.0,
			"-0.024": 0.0,
			"-0.023": 0.0,
			"-0.022": 0.0,
			"-0.021": 0.0,
			"-0.02": 0.0,
			"-0.019": 0.823073774531,
			"-0.018": 0.705748634462,
			"-0.017": 1.18879225254,
			"-0.016": 1.3517763609,
			"-0.015": 0.803133726877,
			"-0.014": 0.738613382783,
			"-0.013": 1.30636142028,
			"-0.012": 0.912482704662,
			"-0.011": 1.77261150228,
			"-0.01": 0.967988391324,
			"-0.009": 2.33590485126,
			"-0.008": 9.47040675942,
			"-0.007": 16.0139916489,
			"-0.006": 15.5946383113,
			"-0.005": 12.9513008932,
			"-0.004": 12.495177136,
			"-0.003": 16.1216137548,
			"-0.002": 17.0332067732,
			"-0.001": 23.3666760908,
			"0.0": 28.3075979069,
			"0.001": 26.1639649986,
			"0.002": 18.7245845474,
			"0.003": 12.6453611422,
			"0.004": 13.1104257205,
			"0.005": 7.21654477047,
			"0.006": 7.99834695005,
			"0.007": 6.46078859224,
			"0.008": 6.54974353692,
			"0.009": 6.93577121199,
			"0.01": 8.20158122283,
			"0.011": 7.85950143302,
			"0.012": 6.14603598116,
			"0.013": 2.17615601094,
			"0.014": 0.0129966194603,
			"0.015": 0.0,
			"0.016": 0.0,
			"0.017": 0.0,
			"0.018": 0.0,
			"0.019": 0.0,
			"0.02": 0.0,
			"0.021": 0.0,
			"0.022": 0.0,
			"0.023": 0.0,
			"0.024": 0.0,
			"0.025": 0.0
		}
	}
}
