{
	 "smiles": "[O-][N+](=O)C1=CC(=C(OCCOC(=O)C2=CC=CC=C2)C=C1OCCOC(=O)C1=CC=CC=C1)[N+]([O-])=O", 
	 "Tm": 438.15, 
	 "num_atms": 56, 
	 "gaussian": { 
		 "optdone": 1, 
		 "sigma_profile": "yes", 
		 "theory": "DFT", 
		 "functional": "B3LYP", 
		 "basiset": "6-31G**", 
		 "properties": { 
			 "R2extent": 22864.4536, 
			 "electric_dipole_moment_norm": 6.67411243687, 
			 "electric_quadrupole_moment_norm": 39.5027637879, 
			 "total_energy": -1788.14078965, 
			 "HOMO_LUMO_gap": 0.16826, 
			 "cosmo_polarized_energy": -24.52, 
			 "cosmo_cavitation_energy": 63.97, 
			 "cosmo_dispersion_energy": -42.26, 
			 "cosmo_repulsion_energy": 3.15, 
			 "cosmo_total_nonelectrostatic_energy": 24.86, 
			 "SMD_solvation_energy": 16.87 
		},
		"coords": [
			{
				"x": 2.9698573741,
				"y": 1.2380985407,
				"z": 3.2906114355,
				"element": "O" 
			},
			{
				"x": 3.3345970425,
				"y": 2.1372717175,
				"z": 2.5387298741,
				"element": "N" 
			},
			{
				"x": 4.2278084181,
				"y": 2.9476691385,
				"z": 2.7933280635,
				"element": "O" 
			},
			{
				"x": 2.687859374,
				"y": 2.2528406173,
				"z": 1.2241452842,
				"element": "C" 
			},
			{
				"x": 3.3863640019,
				"y": 2.9393022522,
				"z": 0.243365085,
				"element": "C" 
			},
			{
				"x": 2.8835570222,
				"y": 3.0565091457,
				"z": -1.0485415862,
				"element": "C" 
			},
			{
				"x": 1.6184860561,
				"y": 2.5046279775,
				"z": -1.3620019144,
				"element": "C" 
			},
			{
				"x": 1.000807239,
				"y": 2.673534053,
				"z": -2.5619827987,
				"element": "O" 
			},
			{
				"x": 1.3323426095,
				"y": 1.7673655713,
				"z": -3.6314020018,
				"element": "C" 
			},
			{
				"x": 0.4327945035,
				"y": 0.5426638372,
				"z": -3.6385421556,
				"element": "C" 
			},
			{
				"x": -0.9175260728,
				"y": 0.9109543113,
				"z": -3.9748677918,
				"element": "O" 
			},
			{
				"x": -1.8537205862,
				"y": 0.890016229,
				"z": -2.9987417128,
				"element": "C" 
			},
			{
				"x": -1.6271768455,
				"y": 0.5531035452,
				"z": -1.8481574142,
				"element": "O" 
			},
			{
				"x": -3.1933167833,
				"y": 1.3063849177,
				"z": -3.4933316383,
				"element": "C" 
			},
			{
				"x": -3.4069381686,
				"y": 1.727717842,
				"z": -4.8139332983,
				"element": "C" 
			},
			{
				"x": -4.683679618,
				"y": 2.1086641524,
				"z": -5.2220790012,
				"element": "C" 
			},
			{
				"x": -5.749435529,
				"y": 2.0693471558,
				"z": -4.3194340611,
				"element": "C" 
			},
			{
				"x": -5.5392853501,
				"y": 1.6487651433,
				"z": -3.0032710018,
				"element": "C" 
			},
			{
				"x": -4.2651804854,
				"y": 1.2692211256,
				"z": -2.5900036517,
				"element": "C" 
			},
			{
				"x": 0.9059473418,
				"y": 1.8507686227,
				"z": -0.3567315784,
				"element": "C" 
			},
			{
				"x": 1.4122347529,
				"y": 1.6946489441,
				"z": 0.9422757968,
				"element": "C" 
			},
			{
				"x": 0.7369484916,
				"y": 1.081054808,
				"z": 1.9180531434,
				"element": "O" 
			},
			{
				"x": -0.5417062994,
				"y": 0.4879389007,
				"z": 1.6352247517,
				"element": "C" 
			},
			{
				"x": -1.0080474366,
				"y": -0.1870189844,
				"z": 2.9104088895,
				"element": "C" 
			},
			{
				"x": -0.1187419418,
				"y": -1.2391364315,
				"z": 3.3066552591,
				"element": "O" 
			},
			{
				"x": -0.325836305,
				"y": -2.4549543544,
				"z": 2.7373035472,
				"element": "C" 
			},
			{
				"x": -1.2333027249,
				"y": -2.6760037071,
				"z": 1.9573176609,
				"element": "O" 
			},
			{
				"x": 0.676640631,
				"y": -3.4595128293,
				"z": 3.1819922248,
				"element": "C" 
			},
			{
				"x": 0.5018685797,
				"y": -4.7871140233,
				"z": 2.766514364,
				"element": "C" 
			},
			{
				"x": 1.4155291878,
				"y": -5.7636560103,
				"z": 3.1538982341,
				"element": "C" 
			},
			{
				"x": 2.5101405594,
				"y": -5.4175796756,
				"z": 3.951538611,
				"element": "C" 
			},
			{
				"x": 2.6903845392,
				"y": -4.093875324,
				"z": 4.3607674092,
				"element": "C" 
			},
			{
				"x": 1.7765004299,
				"y": -3.1125016372,
				"z": 3.9803057499,
				"element": "C" 
			},
			{
				"x": 3.6985846999,
				"y": 3.7939151618,
				"z": -2.0132650772,
				"element": "N" 
			},
			{
				"x": 4.5749774602,
				"y": 4.5326424636,
				"z": -1.5644323343,
				"element": "O" 
			},
			{
				"x": 3.4760630732,
				"y": 3.6304829569,
				"z": -3.2141718904,
				"element": "O" 
			},
			{
				"x": 4.3376589731,
				"y": 3.3911327939,
				"z": 0.4901492908,
				"element": "H" 
			},
			{
				"x": 1.2003599355,
				"y": 2.3422133971,
				"z": -4.5501803779,
				"element": "H" 
			},
			{
				"x": 2.3807003326,
				"y": 1.4632796245,
				"z": -3.5686648041,
				"element": "H" 
			},
			{
				"x": 0.4415796337,
				"y": 0.0212782469,
				"z": -2.6795866389,
				"element": "H" 
			},
			{
				"x": 0.7661057054,
				"y": -0.1406502494,
				"z": -4.4263019773,
				"element": "H" 
			},
			{
				"x": -2.5752690816,
				"y": 1.756041815,
				"z": -5.5080103648,
				"element": "H" 
			},
			{
				"x": -4.8480959183,
				"y": 2.4365256438,
				"z": -6.2440995331,
				"element": "H" 
			},
			{
				"x": -6.7433957563,
				"y": 2.3663643866,
				"z": -4.6415892509,
				"element": "H" 
			},
			{
				"x": -6.3681040347,
				"y": 1.6171558519,
				"z": -2.3024960732,
				"element": "H" 
			},
			{
				"x": -4.0785098627,
				"y": 0.9380089996,
				"z": -1.5743161894,
				"element": "H" 
			},
			{
				"x": -0.0692508275,
				"y": 1.4658963907,
				"z": -0.6272126852,
				"element": "H" 
			},
			{
				"x": -0.4561227402,
				"y": -0.2370312852,
				"z": 0.8202862598,
				"element": "H" 
			},
			{
				"x": -1.2617432427,
				"y": 1.2613599775,
				"z": 1.3397902395,
				"element": "H" 
			},
			{
				"x": -2.014218815,
				"y": -0.5844104836,
				"z": 2.7545354861,
				"element": "H" 
			},
			{
				"x": -1.0039723835,
				"y": 0.5218642135,
				"z": 3.7406663549,
				"element": "H" 
			},
			{
				"x": -0.3535015126,
				"y": -5.0290523076,
				"z": 2.1447010153,
				"element": "H" 
			},
			{
				"x": 1.2773896042,
				"y": -6.7925292845,
				"z": 2.8350105975,
				"element": "H" 
			},
			{
				"x": 3.2239719599,
				"y": -6.1793846437,
				"z": 4.2521620572,
				"element": "H" 
			},
			{
				"x": 3.5443724303,
				"y": -3.8254627515,
				"z": 4.9754054501,
				"element": "H" 
			},
			{
				"x": 1.9131463594,
				"y": -2.0813564892,
				"z": 4.2855066678,
				"element": "H" 
			}
		],
		 "valence_orbital": [ 
			{
				"type": "occ",
				"energy": -0.27112,
				"method": "rhf"
			},
			{
				"type": "occ",
				"energy": -0.26914,
				"method": "rhf"
			},
			{
				"type": "occ",
				"energy": -0.26321,
				"method": "rhf"
			},
			{
				"type": "occ",
				"energy": -0.26137,
				"method": "rhf"
			},
			{
				"type": "occ",
				"energy": -0.25965,
				"method": "rhf"
			},
			{
				"type": "unocc",
				"energy": -0.09139,
				"method": "rhf"
			},
			{
				"type": "unocc",
				"energy": -0.08785,
				"method": "rhf"
			},
			{
				"type": "unocc",
				"energy": -0.06033,
				"method": "rhf"
			},
			{
				"type": "unocc",
				"energy": -0.0491,
				"method": "rhf"
			},
			{
				"type": "unocc",
				"energy": -0.02073,
				"method": "rhf"
			}
		],
		"cosmo_sigma_profile": { 
			"-0.025": 0.0,
			"-0.024": 0.0,
			"-0.023": 0.0,
			"-0.022": 0.0,
			"-0.021": 0.0,
			"-0.02": 0.0,
			"-0.019": 0.0,
			"-0.018": 0.0,
			"-0.017": 0.0,
			"-0.016": 0.0,
			"-0.015": 0.0,
			"-0.014": 0.0,
			"-0.013": 0.0,
			"-0.012": 0.0,
			"-0.011": 0.0,
			"-0.01": 0.0,
			"-0.009": 0.0150622968409,
			"-0.008": 6.74559189632,
			"-0.007": 25.3746379554,
			"-0.006": 37.3718857406,
			"-0.005": 41.1041351907,
			"-0.004": 38.0173175401,
			"-0.003": 38.4470870668,
			"-0.002": 34.0839944059,
			"-0.001": 29.9354782013,
			"0.0": 30.4216678442,
			"0.001": 35.5509322003,
			"0.002": 35.8953425947,
			"0.003": 35.4926633288,
			"0.004": 33.0640351508,
			"0.005": 14.6217918423,
			"0.006": 14.6078803807,
			"0.007": 18.7336705185,
			"0.008": 16.6849684326,
			"0.009": 13.9617797895,
			"0.01": 7.07342458077,
			"0.011": 3.82932734371,
			"0.012": 2.03402774617,
			"0.013": 0.0,
			"0.014": 0.0,
			"0.015": 0.0,
			"0.016": 0.0,
			"0.017": 0.0,
			"0.018": 0.0,
			"0.019": 0.0,
			"0.02": 0.0,
			"0.021": 0.0,
			"0.022": 0.0,
			"0.023": 0.0,
			"0.024": 0.0,
			"0.025": 0.0
		}
	}
}
