{
	 "smiles": "ClC1=NC(=NO1)C1=CC(OC2=CC=CC=C2)=CC=C1", 
	 "Tm": 324.15, 
	 "num_atms": 28, 
	 "gaussian": { 
		 "optdone": 1, 
		 "sigma_profile": "yes", 
		 "theory": "DFT", 
		 "functional": "B3LYP", 
		 "basiset": "6-31G**", 
		 "properties": { 
			 "R2extent": 9606.6329, 
			 "electric_dipole_moment_norm": 2.59041061803, 
			 "electric_quadrupole_moment_norm": 11.8509659045, 
			 "total_energy": -1258.99786714, 
			 "HOMO_LUMO_gap": 0.1678, 
			 "cosmo_polarized_energy": -7.87, 
			 "cosmo_cavitation_energy": 35.97, 
			 "cosmo_dispersion_energy": -26.45, 
			 "cosmo_repulsion_energy": 2.03, 
			 "cosmo_total_nonelectrostatic_energy": 11.54, 
			 "SMD_solvation_energy": 4.63 
		},
		"coords": [
			{
				"x": 5.6087411539,
				"y": -2.7845703201,
				"z": -3.2414556041,
				"element": "Cl" 
			},
			{
				"x": 4.2008402827,
				"y": -2.5681846572,
				"z": -2.3025248776,
				"element": "C" 
			},
			{
				"x": 3.7982481251,
				"y": -1.485481293,
				"z": -1.723695363,
				"element": "N" 
			},
			{
				"x": 2.6239302595,
				"y": -1.9140097142,
				"z": -1.1254398631,
				"element": "C" 
			},
			{
				"x": 2.3394292894,
				"y": -3.1826557247,
				"z": -1.3345175717,
				"element": "N" 
			},
			{
				"x": 3.4088877747,
				"y": -3.6325620529,
				"z": -2.1349259785,
				"element": "O" 
			},
			{
				"x": 1.7716990255,
				"y": -1.0244905221,
				"z": -0.3260601812,
				"element": "C" 
			},
			{
				"x": 0.5911043655,
				"y": -1.5121325397,
				"z": 0.2503189889,
				"element": "C" 
			},
			{
				"x": -0.2084339027,
				"y": -0.6584412333,
				"z": 1.0075585769,
				"element": "C" 
			},
			{
				"x": -1.3124556428,
				"y": -1.2263667019,
				"z": 1.6033510152,
				"element": "O" 
			},
			{
				"x": -2.4574002978,
				"y": -0.4816822888,
				"z": 1.831239666,
				"element": "C" 
			},
			{
				"x": -3.0156696482,
				"y": 0.3440050201,
				"z": 0.8510571089,
				"element": "C" 
			},
			{
				"x": -4.2141197724,
				"y": 1.0053711024,
				"z": 1.1215074513,
				"element": "C" 
			},
			{
				"x": -4.8566917589,
				"y": 0.838830731,
				"z": 2.3504915017,
				"element": "C" 
			},
			{
				"x": -4.2926727348,
				"y": 0.002350307,
				"z": 3.3160162415,
				"element": "C" 
			},
			{
				"x": -3.0899743685,
				"y": -0.6577313858,
				"z": 3.0626800975,
				"element": "C" 
			},
			{
				"x": 0.1581776166,
				"y": 0.680112192,
				"z": 1.1975518504,
				"element": "C" 
			},
			{
				"x": 1.3312025571,
				"y": 1.1551483511,
				"z": 0.6117035305,
				"element": "C" 
			},
			{
				"x": 2.1429933771,
				"y": 0.3157124468,
				"z": -0.1492767394,
				"element": "C" 
			},
			{
				"x": 0.2916844305,
				"y": -2.5457810871,
				"z": 0.1201577683,
				"element": "H" 
			},
			{
				"x": -2.5203994444,
				"y": 0.4596294292,
				"z": -0.107210642,
				"element": "H" 
			},
			{
				"x": -4.6507218826,
				"y": 1.6467704844,
				"z": 0.3613319023,
				"element": "H" 
			},
			{
				"x": -5.7907594232,
				"y": 1.3540622665,
				"z": 2.5520769629,
				"element": "H" 
			},
			{
				"x": -4.7862420918,
				"y": -0.1357607599,
				"z": 4.27359946,
				"element": "H" 
			},
			{
				"x": -2.6339011336,
				"y": -1.3118618841,
				"z": 3.7983568725,
				"element": "H" 
			},
			{
				"x": -0.4656067221,
				"y": 1.3333233441,
				"z": 1.7972939284,
				"element": "H" 
			},
			{
				"x": 1.6171863822,
				"y": 2.1922230834,
				"z": 0.7592068186,
				"element": "H" 
			},
			{
				"x": 3.056324184,
				"y": 0.6810734067,
				"z": -0.603992921,
				"element": "H" 
			}
		],
		 "valence_orbital": [ 
			{
				"type": "occ",
				"energy": -0.30149,
				"method": "rhf"
			},
			{
				"type": "occ",
				"energy": -0.26072,
				"method": "rhf"
			},
			{
				"type": "occ",
				"energy": -0.25778,
				"method": "rhf"
			},
			{
				"type": "occ",
				"energy": -0.25432,
				"method": "rhf"
			},
			{
				"type": "occ",
				"energy": -0.22643,
				"method": "rhf"
			},
			{
				"type": "unocc",
				"energy": -0.05863,
				"method": "rhf"
			},
			{
				"type": "unocc",
				"energy": -0.02017,
				"method": "rhf"
			},
			{
				"type": "unocc",
				"energy": -0.01274,
				"method": "rhf"
			},
			{
				"type": "unocc",
				"energy": -0.00708,
				"method": "rhf"
			},
			{
				"type": "unocc",
				"energy": 0.00343,
				"method": "rhf"
			}
		],
		"cosmo_sigma_profile": { 
			"-0.025": 0.0,
			"-0.024": 0.0,
			"-0.023": 0.0,
			"-0.022": 0.0,
			"-0.021": 0.0,
			"-0.02": 0.0,
			"-0.019": 0.0,
			"-0.018": 0.0,
			"-0.017": 0.0,
			"-0.016": 0.0,
			"-0.015": 0.0,
			"-0.014": 0.0,
			"-0.013": 0.0,
			"-0.012": 0.0,
			"-0.011": 0.0,
			"-0.01": 0.0,
			"-0.009": 0.0,
			"-0.008": 0.0,
			"-0.007": 3.68710973899,
			"-0.006": 18.2851147134,
			"-0.005": 21.7278246119,
			"-0.004": 22.1440081911,
			"-0.003": 20.7162212784,
			"-0.002": 21.1142433374,
			"-0.001": 22.1600579765,
			"0.0": 28.7593695604,
			"0.001": 31.4683417711,
			"0.002": 25.3177952945,
			"0.003": 25.2566702856,
			"0.004": 17.7416591945,
			"0.005": 15.6520944762,
			"0.006": 6.27288931519,
			"0.007": 3.48128683568,
			"0.008": 3.66321920897,
			"0.009": 2.99179703802,
			"0.01": 1.78543066771,
			"0.011": 1.0699116722,
			"0.012": 0.0801000992984,
			"0.013": 0.0,
			"0.014": 0.0,
			"0.015": 0.0,
			"0.016": 0.0,
			"0.017": 0.0,
			"0.018": 0.0,
			"0.019": 0.0,
			"0.02": 0.0,
			"0.021": 0.0,
			"0.022": 0.0,
			"0.023": 0.0,
			"0.024": 0.0,
			"0.025": 0.0
		}
	}
}
