{
	 "smiles": "OC(=O)C1CCC=CC1", 
	 "Tm": 290.15, 
	 "num_atms": 19, 
	 "gaussian": { 
		 "optdone": 1, 
		 "sigma_profile": "yes", 
		 "theory": "DFT", 
		 "functional": "B3LYP", 
		 "basiset": "6-31G**", 
		 "properties": { 
			 "R2extent": 1479.3797, 
			 "electric_dipole_moment_norm": 4.10855260889, 
			 "electric_quadrupole_moment_norm": 13.8560167039, 
			 "total_energy": -423.216423757, 
			 "HOMO_LUMO_gap": 0.26229, 
			 "cosmo_polarized_energy": -13.08, 
			 "cosmo_cavitation_energy": 21.39, 
			 "cosmo_dispersion_energy": -15.98, 
			 "cosmo_repulsion_energy": 1.32, 
			 "cosmo_total_nonelectrostatic_energy": 6.73, 
			 "SMD_solvation_energy": 4.33 
		},
		"coords": [
			{
				"x": -1.6630928554,
				"y": 2.9121300525,
				"z": 0.2599657177,
				"element": "O" 
			},
			{
				"x": -1.8366759988,
				"y": 1.6493813074,
				"z": 0.743693364,
				"element": "C" 
			},
			{
				"x": -2.7396018793,
				"y": 1.4223820909,
				"z": 1.5097691124,
				"element": "O" 
			},
			{
				"x": -0.8225665377,
				"y": 0.6157348008,
				"z": 0.2595813241,
				"element": "C" 
			},
			{
				"x": -1.1814123373,
				"y": -0.7943178184,
				"z": 0.7446037339,
				"element": "C" 
			},
			{
				"x": -0.2260232487,
				"y": -1.8389971933,
				"z": 0.1504579192,
				"element": "C" 
			},
			{
				"x": 1.2133705694,
				"y": -1.3932613178,
				"z": 0.2055813048,
				"element": "C" 
			},
			{
				"x": 1.5862487826,
				"y": -0.137065566,
				"z": 0.4668377625,
				"element": "C" 
			},
			{
				"x": 0.6129249262,
				"y": 0.9916526174,
				"z": 0.7041739792,
				"element": "C" 
			},
			{
				"x": -0.9129970532,
				"y": 2.9341986407,
				"z": -0.3509630613,
				"element": "H" 
			},
			{
				"x": -0.8439582769,
				"y": 0.6249242569,
				"z": -0.841641397,
				"element": "H" 
			},
			{
				"x": -2.219696259,
				"y": -1.0245036912,
				"z": 0.4905370204,
				"element": "H" 
			},
			{
				"x": -1.1214055284,
				"y": -0.8104232802,
				"z": 1.8385861104,
				"element": "H" 
			},
			{
				"x": -0.500668528,
				"y": -2.0588241745,
				"z": -0.8928202256,
				"element": "H" 
			},
			{
				"x": -0.3379523226,
				"y": -2.7906812466,
				"z": 0.685590534,
				"element": "H" 
			},
			{
				"x": 1.9759001792,
				"y": -2.1489466639,
				"z": 0.0251625958,
				"element": "H" 
			},
			{
				"x": 2.6440300125,
				"y": 0.1144592117,
				"z": 0.5160611431,
				"element": "H" 
			},
			{
				"x": 0.6096510387,
				"y": 1.2656431309,
				"z": 1.7696767736,
				"element": "H" 
			},
			{
				"x": 0.9639253165,
				"y": 1.8881148425,
				"z": 0.1733462886,
				"element": "H" 
			}
		],
		 "valence_orbital": [ 
			{
				"type": "occ",
				"energy": -0.33229,
				"method": "rhf"
			},
			{
				"type": "occ",
				"energy": -0.32344,
				"method": "rhf"
			},
			{
				"type": "occ",
				"energy": -0.31302,
				"method": "rhf"
			},
			{
				"type": "occ",
				"energy": -0.26687,
				"method": "rhf"
			},
			{
				"type": "occ",
				"energy": -0.25162,
				"method": "rhf"
			},
			{
				"type": "unocc",
				"energy": 0.01067,
				"method": "rhf"
			},
			{
				"type": "unocc",
				"energy": 0.01585,
				"method": "rhf"
			},
			{
				"type": "unocc",
				"energy": 0.04677,
				"method": "rhf"
			},
			{
				"type": "unocc",
				"energy": 0.09375,
				"method": "rhf"
			},
			{
				"type": "unocc",
				"energy": 0.11609,
				"method": "rhf"
			}
		],
		"cosmo_sigma_profile": { 
			"-0.025": 0.0,
			"-0.024": 0.0,
			"-0.023": 0.0,
			"-0.022": 0.0,
			"-0.021": 0.0,
			"-0.02": 0.0,
			"-0.019": 0.00241664625596,
			"-0.018": 0.683462381411,
			"-0.017": 0.957819796592,
			"-0.016": 1.34814013187,
			"-0.015": 0.886691468187,
			"-0.014": 1.18474452668,
			"-0.013": 0.677462963495,
			"-0.012": 0.948531909283,
			"-0.011": 1.56419878762,
			"-0.01": 1.4260800284,
			"-0.009": 0.96746241709,
			"-0.008": 1.05977223821,
			"-0.007": 2.12670378938,
			"-0.006": 3.34370299472,
			"-0.005": 7.29386090575,
			"-0.004": 12.378387241,
			"-0.003": 20.7255484137,
			"-0.002": 20.2148192171,
			"-0.001": 16.4999839462,
			"0.0": 12.989363731,
			"0.001": 7.24557287102,
			"0.002": 6.19406266881,
			"0.003": 4.15295392592,
			"0.004": 4.92434965987,
			"0.005": 5.29191654528,
			"0.006": 3.84074604094,
			"0.007": 4.19055622646,
			"0.008": 2.3870782141,
			"0.009": 3.24005528916,
			"0.01": 4.36234055202,
			"0.011": 5.58530671112,
			"0.012": 5.54714306373,
			"0.013": 2.64583318924,
			"0.014": 0.129073825337,
			"0.015": 0.0,
			"0.016": 0.0,
			"0.017": 0.0,
			"0.018": 0.0,
			"0.019": 0.0,
			"0.02": 0.0,
			"0.021": 0.0,
			"0.022": 0.0,
			"0.023": 0.0,
			"0.024": 0.0,
			"0.025": 0.0
		}
	}
}
