{
	 "smiles": "ClC1=CC=C(C=O)C=C1", 
	 "Tm": 320.35, 
	 "num_atms": 14, 
	 "gaussian": { 
		 "optdone": 1, 
		 "sigma_profile": "yes", 
		 "theory": "DFT", 
		 "functional": "B3LYP", 
		 "basiset": "6-31G**", 
		 "properties": { 
			 "R2extent": 1848.213, 
			 "electric_dipole_moment_norm": 1.96687619844, 
			 "electric_quadrupole_moment_norm": 14.671549686, 
			 "total_energy": -805.16602669, 
			 "HOMO_LUMO_gap": 0.18942, 
			 "cosmo_polarized_energy": -7.28, 
			 "cosmo_cavitation_energy": 20.62, 
			 "cosmo_dispersion_energy": -15.28, 
			 "cosmo_repulsion_energy": 1.24, 
			 "cosmo_total_nonelectrostatic_energy": 6.58, 
			 "SMD_solvation_energy": 4.39 
		},
		"coords": [
			{
				"x": 2.0417241364,
				"y": -0.6851374299,
				"z": 2.0822478723,
				"element": "Cl" 
			},
			{
				"x": 0.5992285951,
				"y": -0.1140993529,
				"z": 1.2660483835,
				"element": "C" 
			},
			{
				"x": -0.0334282644,
				"y": -0.9473274801,
				"z": 0.3366843913,
				"element": "C" 
			},
			{
				"x": -1.1763388013,
				"y": -0.4905306275,
				"z": -0.3077030902,
				"element": "C" 
			},
			{
				"x": -1.686128078,
				"y": 0.7870093481,
				"z": -0.0289410046,
				"element": "C" 
			},
			{
				"x": -2.9041047239,
				"y": 1.2697790772,
				"z": -0.7177812891,
				"element": "C" 
			},
			{
				"x": -3.5301310922,
				"y": 0.6285288584,
				"z": -1.5396285306,
				"element": "O" 
			},
			{
				"x": -1.0365846027,
				"y": 1.6039477803,
				"z": 0.9049084234,
				"element": "C" 
			},
			{
				"x": 0.1103095496,
				"y": 1.1601078431,
				"z": 1.5592083605,
				"element": "C" 
			},
			{
				"x": 0.3709853611,
				"y": -1.9320767382,
				"z": 0.1306761917,
				"element": "H" 
			},
			{
				"x": -1.6944100681,
				"y": -1.1082098324,
				"z": -1.0346929636,
				"element": "H" 
			},
			{
				"x": -3.225407567,
				"y": 2.294592025,
				"z": -0.4253854802,
				"element": "H" 
			},
			{
				"x": -1.4317030769,
				"y": 2.5939079132,
				"z": 1.1208568311,
				"element": "H" 
			},
			{
				"x": 0.6208886325,
				"y": 1.7843086155,
				"z": 2.2838019045,
				"element": "H" 
			}
		],
		 "valence_orbital": [ 
			{
				"type": "occ",
				"energy": -0.34167,
				"method": "rhf"
			},
			{
				"type": "occ",
				"energy": -0.32566,
				"method": "rhf"
			},
			{
				"type": "occ",
				"energy": -0.28098,
				"method": "rhf"
			},
			{
				"type": "occ",
				"energy": -0.26293,
				"method": "rhf"
			},
			{
				"type": "occ",
				"energy": -0.26264,
				"method": "rhf"
			},
			{
				"type": "unocc",
				"energy": -0.07322,
				"method": "rhf"
			},
			{
				"type": "unocc",
				"energy": -0.02914,
				"method": "rhf"
			},
			{
				"type": "unocc",
				"energy": 0.01815,
				"method": "rhf"
			},
			{
				"type": "unocc",
				"energy": 0.02613,
				"method": "rhf"
			},
			{
				"type": "unocc",
				"energy": 0.10459,
				"method": "rhf"
			}
		],
		"cosmo_sigma_profile": { 
			"-0.025": 0.0,
			"-0.024": 0.0,
			"-0.023": 0.0,
			"-0.022": 0.0,
			"-0.021": 0.0,
			"-0.02": 0.0,
			"-0.019": 0.0,
			"-0.018": 0.0,
			"-0.017": 0.0,
			"-0.016": 0.0,
			"-0.015": 0.0,
			"-0.014": 0.0,
			"-0.013": 0.0,
			"-0.012": 0.0,
			"-0.011": 0.0,
			"-0.01": 0.0,
			"-0.009": 0.154568760867,
			"-0.008": 5.38362089249,
			"-0.007": 9.40178114423,
			"-0.006": 11.3749380255,
			"-0.005": 8.5512292222,
			"-0.004": 8.78708018961,
			"-0.003": 7.96782362483,
			"-0.002": 9.5878825299,
			"-0.001": 11.4509725671,
			"0.0": 15.8163572643,
			"0.001": 19.5625243207,
			"0.002": 19.7150728529,
			"0.003": 9.59815457562,
			"0.004": 11.5515390466,
			"0.005": 2.95867428034,
			"0.006": 1.31075277338,
			"0.007": 0.894696291611,
			"0.008": 2.1441479118,
			"0.009": 2.28466088447,
			"0.01": 2.49400859535,
			"0.011": 4.27272509507,
			"0.012": 2.54444271409,
			"0.013": 0.508230763015,
			"0.014": 0.0,
			"0.015": 0.0,
			"0.016": 0.0,
			"0.017": 0.0,
			"0.018": 0.0,
			"0.019": 0.0,
			"0.02": 0.0,
			"0.021": 0.0,
			"0.022": 0.0,
			"0.023": 0.0,
			"0.024": 0.0,
			"0.025": 0.0
		}
	}
}
