{
	 "smiles": "ClCC(=O)NC1=CC=NN1CC1=CC=CC=C1", 
	 "Tm": 373.15, 
	 "num_atms": 29, 
	 "gaussian": { 
		 "optdone": 1, 
		 "sigma_profile": "yes", 
		 "theory": "DFT", 
		 "functional": "B3LYP", 
		 "basiset": "6-31G**", 
		 "properties": { 
			 "R2extent": 4775.0923, 
			 "electric_dipole_moment_norm": 2.69578868052, 
			 "electric_quadrupole_moment_norm": 10.5221148991, 
			 "total_energy": -1164.1712736, 
			 "HOMO_LUMO_gap": 0.21961, 
			 "cosmo_polarized_energy": -13.62, 
			 "cosmo_cavitation_energy": 34.93, 
			 "cosmo_dispersion_energy": -23.77, 
			 "cosmo_repulsion_energy": 1.86, 
			 "cosmo_total_nonelectrostatic_energy": 13.02, 
			 "SMD_solvation_energy": 5.41 
		},
		"coords": [
			{
				"x": -1.8539000076,
				"y": -3.7812537353,
				"z": -0.4547157215,
				"element": "Cl" 
			},
			{
				"x": -2.1287864535,
				"y": -2.285391738,
				"z": -1.4452009629,
				"element": "C" 
			},
			{
				"x": -2.329059767,
				"y": -0.9784016933,
				"z": -0.6753616167,
				"element": "C" 
			},
			{
				"x": -2.7516003903,
				"y": -0.0141446299,
				"z": -1.2973693234,
				"element": "O" 
			},
			{
				"x": -1.9611582047,
				"y": -0.9700808822,
				"z": 0.6370021773,
				"element": "N" 
			},
			{
				"x": -2.0725440056,
				"y": 0.1209428712,
				"z": 1.5167701516,
				"element": "C" 
			},
			{
				"x": -2.6426176862,
				"y": 0.1527838638,
				"z": 2.7786317269,
				"element": "C" 
			},
			{
				"x": -2.3822838958,
				"y": 1.4562025427,
				"z": 3.2418683355,
				"element": "C" 
			},
			{
				"x": -1.7100875787,
				"y": 2.1778990754,
				"z": 2.3455502762,
				"element": "N" 
			},
			{
				"x": -1.5139427876,
				"y": 1.3479296867,
				"z": 1.2940334234,
				"element": "N" 
			},
			{
				"x": -0.7775627487,
				"y": 1.8381777521,
				"z": 0.1293032666,
				"element": "C" 
			},
			{
				"x": 0.5313568221,
				"y": 1.1092318549,
				"z": -0.1116508924,
				"element": "C" 
			},
			{
				"x": 1.4586187489,
				"y": 0.9399098057,
				"z": 0.9252580601,
				"element": "C" 
			},
			{
				"x": 2.6730198593,
				"y": 0.2974767824,
				"z": 0.6881146954,
				"element": "C" 
			},
			{
				"x": 2.9786651915,
				"y": -0.1792090427,
				"z": -0.5899425038,
				"element": "C" 
			},
			{
				"x": 2.0618904445,
				"y": -0.0112911842,
				"z": -1.6280223882,
				"element": "C" 
			},
			{
				"x": 0.8422204378,
				"y": 0.6269409855,
				"z": -1.387696054,
				"element": "C" 
			},
			{
				"x": -1.2592975945,
				"y": -2.172477593,
				"z": -2.0951595574,
				"element": "H" 
			},
			{
				"x": -3.0142347572,
				"y": -2.4539089946,
				"z": -2.0562601714,
				"element": "H" 
			},
			{
				"x": -1.6820110366,
				"y": -1.8544562498,
				"z": 1.0421986615,
				"element": "H" 
			},
			{
				"x": -3.1766330245,
				"y": -0.6475651772,
				"z": 3.268902282,
				"element": "H" 
			},
			{
				"x": -2.6639600196,
				"y": 1.9039275279,
				"z": 4.1854795427,
				"element": "H" 
			},
			{
				"x": -0.6009129709,
				"y": 2.8940482426,
				"z": 0.3489678526,
				"element": "H" 
			},
			{
				"x": -1.424127789,
				"y": 1.763882966,
				"z": -0.7472596876,
				"element": "H" 
			},
			{
				"x": 1.221546456,
				"y": 1.3137345232,
				"z": 1.9178713694,
				"element": "H" 
			},
			{
				"x": 3.3844357533,
				"y": 0.1717454966,
				"z": 1.4994960485,
				"element": "H" 
			},
			{
				"x": 3.9260561883,
				"y": -0.6777591154,
				"z": -0.7736489107,
				"element": "H" 
			},
			{
				"x": 2.2927613993,
				"y": -0.3786799608,
				"z": -2.6241180168,
				"element": "H" 
			},
			{
				"x": 0.1237494169,
				"y": 0.7523860198,
				"z": -2.1940420629,
				"element": "H" 
			}
		],
		 "valence_orbital": [ 
			{
				"type": "occ",
				"energy": -0.27555,
				"method": "rhf"
			},
			{
				"type": "occ",
				"energy": -0.258,
				"method": "rhf"
			},
			{
				"type": "occ",
				"energy": -0.25581,
				"method": "rhf"
			},
			{
				"type": "occ",
				"energy": -0.24452,
				"method": "rhf"
			},
			{
				"type": "occ",
				"energy": -0.23554,
				"method": "rhf"
			},
			{
				"type": "unocc",
				"energy": -0.01593,
				"method": "rhf"
			},
			{
				"type": "unocc",
				"energy": -0.01094,
				"method": "rhf"
			},
			{
				"type": "unocc",
				"energy": -0.0072,
				"method": "rhf"
			},
			{
				"type": "unocc",
				"energy": 0.00883,
				"method": "rhf"
			},
			{
				"type": "unocc",
				"energy": 0.02691,
				"method": "rhf"
			}
		],
		"cosmo_sigma_profile": { 
			"-0.025": 0.0,
			"-0.024": 0.0,
			"-0.023": 0.0,
			"-0.022": 0.0,
			"-0.021": 0.0,
			"-0.02": 0.0,
			"-0.019": 0.0,
			"-0.018": 0.0,
			"-0.017": 0.0,
			"-0.016": 0.0,
			"-0.015": 0.0,
			"-0.014": 0.41241951257,
			"-0.013": 0.676423023577,
			"-0.012": 0.59301600815,
			"-0.011": 1.06262951162,
			"-0.01": 1.12876042772,
			"-0.009": 3.948098992,
			"-0.008": 4.71188229429,
			"-0.007": 9.17356704063,
			"-0.006": 13.5830107691,
			"-0.005": 21.6049232783,
			"-0.004": 23.1820314448,
			"-0.003": 22.3695636741,
			"-0.002": 16.6252365123,
			"-0.001": 18.1205298037,
			"0.0": 18.9451552462,
			"0.001": 16.5621526688,
			"0.002": 16.7737230327,
			"0.003": 19.1796738834,
			"0.004": 19.5447465089,
			"0.005": 22.627165079,
			"0.006": 8.44644470746,
			"0.007": 2.60379931176,
			"0.008": 2.7284869154,
			"0.009": 3.00317031671,
			"0.01": 2.79008964177,
			"0.011": 2.89007343432,
			"0.012": 4.04003335709,
			"0.013": 2.32301404299,
			"0.014": 0.640615464462,
			"0.015": 0.910203472538,
			"0.016": 0.150733079737,
			"0.017": 0.0,
			"0.018": 0.0,
			"0.019": 0.0,
			"0.02": 0.0,
			"0.021": 0.0,
			"0.022": 0.0,
			"0.023": 0.0,
			"0.024": 0.0,
			"0.025": 0.0
		}
	}
}
