{
	 "smiles": "COC1=CC=C(C(C#N)C(C)=O)C(Cl)=C1", 
	 "Tm": 352.15, 
	 "num_atms": 25, 
	 "gaussian": { 
		 "optdone": 1, 
		 "sigma_profile": "yes", 
		 "theory": "DFT", 
		 "functional": "B3LYP", 
		 "basiset": "6-31G**", 
		 "properties": { 
			 "R2extent": 3838.0126, 
			 "electric_dipole_moment_norm": 7.39582300627, 
			 "electric_quadrupole_moment_norm": 16.9226020777, 
			 "total_energy": -1090.54801722, 
			 "HOMO_LUMO_gap": 0.20733, 
			 "cosmo_polarized_energy": -18.73, 
			 "cosmo_cavitation_energy": 31.89, 
			 "cosmo_dispersion_energy": -21.68, 
			 "cosmo_repulsion_energy": 1.71, 
			 "cosmo_total_nonelectrostatic_energy": 11.92, 
			 "SMD_solvation_energy": 8.09 
		},
		"coords": [
			{
				"x": 3.1002452181,
				"y": -3.7066177414,
				"z": 0.9926634115,
				"element": "C" 
			},
			{
				"x": 1.9530567907,
				"y": -3.676587828,
				"z": 0.1518759988,
				"element": "O" 
			},
			{
				"x": 1.2777362495,
				"y": -2.5071891441,
				"z": 0.0158893553,
				"element": "C" 
			},
			{
				"x": 0.1440166192,
				"y": -2.5417841341,
				"z": -0.809961634,
				"element": "C" 
			},
			{
				"x": -0.6041591481,
				"y": -1.390398296,
				"z": -0.9987821786,
				"element": "C" 
			},
			{
				"x": -0.2663879677,
				"y": -0.1684899566,
				"z": -0.3925133431,
				"element": "C" 
			},
			{
				"x": -1.1354637977,
				"y": 1.0599995513,
				"z": -0.6305034281,
				"element": "C" 
			},
			{
				"x": -1.8553348359,
				"y": 1.4847933868,
				"z": 0.578332331,
				"element": "C" 
			},
			{
				"x": -2.4451560022,
				"y": 1.77339523,
				"z": 1.534426731,
				"element": "N" 
			},
			{
				"x": -0.4321619405,
				"y": 2.271109536,
				"z": -1.3252534142,
				"element": "C" 
			},
			{
				"x": 0.541434117,
				"y": 1.9279661664,
				"z": -2.4326197316,
				"element": "C" 
			},
			{
				"x": -0.7152195224,
				"y": 3.4060531873,
				"z": -1.0223852477,
				"element": "O" 
			},
			{
				"x": 0.871142471,
				"y": -0.1637267366,
				"z": 0.4238681047,
				"element": "C" 
			},
			{
				"x": 1.3844600368,
				"y": 1.3177056638,
				"z": 1.2165522605,
				"element": "Cl" 
			},
			{
				"x": 1.6437668914,
				"y": -1.3070826094,
				"z": 0.6359168805,
				"element": "C" 
			},
			{
				"x": 3.4682095477,
				"y": -4.7325098259,
				"z": 0.9587984585,
				"element": "H" 
			},
			{
				"x": 2.846526277,
				"y": -3.446420602,
				"z": 2.027534148,
				"element": "H" 
			},
			{
				"x": 3.8829828786,
				"y": -3.0292928663,
				"z": 0.6293148522,
				"element": "H" 
			},
			{
				"x": -0.1302018174,
				"y": -3.4782432081,
				"z": -1.2827011091,
				"element": "H" 
			},
			{
				"x": -1.4867712203,
				"y": -1.4341317974,
				"z": -1.6313543657,
				"element": "H" 
			},
			{
				"x": -1.9058618071,
				"y": 0.7613498057,
				"z": -1.3572455277,
				"element": "H" 
			},
			{
				"x": 0.7496176519,
				"y": 2.8280875264,
				"z": -3.0121044675,
				"element": "H" 
			},
			{
				"x": 0.1493375351,
				"y": 1.138809992,
				"z": -3.0825362868,
				"element": "H" 
			},
			{
				"x": 1.4759390343,
				"y": 1.5539969985,
				"z": -2.0014907534,
				"element": "H" 
			},
			{
				"x": 2.5110467412,
				"y": -1.2402922983,
				"z": 1.2788789554,
				"element": "H" 
			}
		],
		 "valence_orbital": [ 
			{
				"type": "occ",
				"energy": -0.321,
				"method": "rhf"
			},
			{
				"type": "occ",
				"energy": -0.31515,
				"method": "rhf"
			},
			{
				"type": "occ",
				"energy": -0.27151,
				"method": "rhf"
			},
			{
				"type": "occ",
				"energy": -0.26685,
				"method": "rhf"
			},
			{
				"type": "occ",
				"energy": -0.24109,
				"method": "rhf"
			},
			{
				"type": "unocc",
				"energy": -0.03376,
				"method": "rhf"
			},
			{
				"type": "unocc",
				"energy": -0.03308,
				"method": "rhf"
			},
			{
				"type": "unocc",
				"energy": -0.02157,
				"method": "rhf"
			},
			{
				"type": "unocc",
				"energy": 0.01496,
				"method": "rhf"
			},
			{
				"type": "unocc",
				"energy": 0.03632,
				"method": "rhf"
			}
		],
		"cosmo_sigma_profile": { 
			"-0.025": 0.0,
			"-0.024": 0.0,
			"-0.023": 0.0,
			"-0.022": 0.0,
			"-0.021": 0.0,
			"-0.02": 0.0,
			"-0.019": 0.0,
			"-0.018": 0.0,
			"-0.017": 0.0,
			"-0.016": 0.0,
			"-0.015": 0.0,
			"-0.014": 0.0,
			"-0.013": 0.0,
			"-0.012": 1.34484820378,
			"-0.011": 4.6582302537,
			"-0.01": 2.52848551519,
			"-0.009": 2.3770358247,
			"-0.008": 3.97260676141,
			"-0.007": 9.5254775967,
			"-0.006": 17.8347760584,
			"-0.005": 16.7891919834,
			"-0.004": 19.4510830636,
			"-0.003": 19.3303541422,
			"-0.002": 16.59919551,
			"-0.001": 13.4746941783,
			"0.0": 13.5669494841,
			"0.001": 18.1043860336,
			"0.002": 18.9862088607,
			"0.003": 16.3648792669,
			"0.004": 9.98023897124,
			"0.005": 6.18397225992,
			"0.006": 6.079421247,
			"0.007": 6.01147467203,
			"0.008": 7.99527025812,
			"0.009": 7.48682348546,
			"0.01": 7.79199732996,
			"0.011": 6.24932813839,
			"0.012": 2.87845168574,
			"0.013": 1.20995852309,
			"0.014": 0.019624696301,
			"0.015": 0.0,
			"0.016": 0.0,
			"0.017": 0.0,
			"0.018": 0.0,
			"0.019": 0.0,
			"0.02": 0.0,
			"0.021": 0.0,
			"0.022": 0.0,
			"0.023": 0.0,
			"0.024": 0.0,
			"0.025": 0.0
		}
	}
}
