{
	 "smiles": "OC(=O)C1=CC(=C(O)C(=C1)[N+]([O-])=O)[N+]([O-])=O", 
	 "Tm": 523.65, 
	 "num_atms": 20, 
	 "gaussian": { 
		 "optdone": 1, 
		 "sigma_profile": "yes", 
		 "theory": "DFT", 
		 "functional": "B3LYP", 
		 "basiset": "6-31G**", 
		 "properties": { 
			 "R2extent": 4006.1361, 
			 "electric_dipole_moment_norm": 3.82856740178, 
			 "electric_quadrupole_moment_norm": 18.378306188, 
			 "total_energy": -905.016528059, 
			 "HOMO_LUMO_gap": 0.15224, 
			 "cosmo_polarized_energy": -23.08, 
			 "cosmo_cavitation_energy": 27.13, 
			 "cosmo_dispersion_energy": -20.03, 
			 "cosmo_repulsion_energy": 1.54, 
			 "cosmo_total_nonelectrostatic_energy": 8.64, 
			 "SMD_solvation_energy": 10.68 
		},
		"coords": [
			{
				"x": 0.9490740484,
				"y": -2.1813580944,
				"z": 4.0431666693,
				"element": "O" 
			},
			{
				"x": 1.5162958854,
				"y": -1.4232893658,
				"z": 3.0737686907,
				"element": "C" 
			},
			{
				"x": 2.6525599765,
				"y": -1.032514883,
				"z": 3.1860722353,
				"element": "O" 
			},
			{
				"x": 0.6712888133,
				"y": -1.0900576727,
				"z": 1.8781630727,
				"element": "C" 
			},
			{
				"x": -0.715569966,
				"y": -1.1678991713,
				"z": 1.8617280842,
				"element": "C" 
			},
			{
				"x": -1.4298749151,
				"y": -0.8100843474,
				"z": 0.7161607762,
				"element": "C" 
			},
			{
				"x": -0.7898342829,
				"y": -0.3363713502,
				"z": -0.4637075931,
				"element": "C" 
			},
			{
				"x": -1.4386490005,
				"y": -0.0238881813,
				"z": -1.5674745792,
				"element": "O" 
			},
			{
				"x": 0.6262712024,
				"y": -0.2503585781,
				"z": -0.3988206148,
				"element": "C" 
			},
			{
				"x": 1.3313675568,
				"y": -0.6195353771,
				"z": 0.7304068525,
				"element": "C" 
			},
			{
				"x": 1.4058974515,
				"y": 0.2550613058,
				"z": -1.5449282228,
				"element": "N" 
			},
			{
				"x": 0.877433427,
				"y": 1.0866422352,
				"z": -2.2721624607,
				"element": "O" 
			},
			{
				"x": 2.5490727291,
				"y": -0.1822887381,
				"z": -1.6638963438,
				"element": "O" 
			},
			{
				"x": -2.8768623471,
				"y": -0.9354309971,
				"z": 0.7633678449,
				"element": "N" 
			},
			{
				"x": -3.4040680436,
				"y": -1.3220429854,
				"z": 1.7967640587,
				"element": "O" 
			},
			{
				"x": -3.526961511,
				"y": -0.6448434542,
				"z": -0.265261418,
				"element": "O" 
			},
			{
				"x": 0.115139532,
				"y": -2.5707472593,
				"z": 3.7467212557,
				"element": "H" 
			},
			{
				"x": -1.2972934617,
				"y": -1.4790812396,
				"z": 2.7222456968,
				"element": "H" 
			},
			{
				"x": -2.4011024464,
				"y": -0.1803567991,
				"z": -1.3815214667,
				"element": "H" 
			},
			{
				"x": 2.4123153519,
				"y": -0.542755047,
				"z": 0.7312074623,
				"element": "H" 
			}
		],
		 "valence_orbital": [ 
			{
				"type": "occ",
				"energy": -0.32787,
				"method": "rhf"
			},
			{
				"type": "occ",
				"energy": -0.32377,
				"method": "rhf"
			},
			{
				"type": "occ",
				"energy": -0.30793,
				"method": "rhf"
			},
			{
				"type": "occ",
				"energy": -0.30512,
				"method": "rhf"
			},
			{
				"type": "occ",
				"energy": -0.29157,
				"method": "rhf"
			},
			{
				"type": "unocc",
				"energy": -0.13933,
				"method": "rhf"
			},
			{
				"type": "unocc",
				"energy": -0.10615,
				"method": "rhf"
			},
			{
				"type": "unocc",
				"energy": -0.07924,
				"method": "rhf"
			},
			{
				"type": "unocc",
				"energy": -0.03527,
				"method": "rhf"
			},
			{
				"type": "unocc",
				"energy": 0.01754,
				"method": "rhf"
			}
		],
		"cosmo_sigma_profile": { 
			"-0.025": 0.0,
			"-0.024": 0.0,
			"-0.023": 0.0,
			"-0.022": 0.0,
			"-0.021": 0.360206592528,
			"-0.02": 0.951304834461,
			"-0.019": 1.29703319111,
			"-0.018": 1.15846984756,
			"-0.017": 0.795683448082,
			"-0.016": 1.17884524721,
			"-0.015": 1.02246991328,
			"-0.014": 0.865549295109,
			"-0.013": 0.853672025632,
			"-0.012": 1.76690121117,
			"-0.011": 2.46124573841,
			"-0.01": 4.31956728172,
			"-0.009": 5.90675582754,
			"-0.008": 7.02782031895,
			"-0.007": 8.21663569854,
			"-0.006": 13.5880718845,
			"-0.005": 14.4555730389,
			"-0.004": 13.0268101483,
			"-0.003": 13.0451803919,
			"-0.002": 8.16385893146,
			"-0.001": 5.755565386,
			"0.0": 5.75489849185,
			"0.001": 6.31080716589,
			"0.002": 7.15041243499,
			"0.003": 8.36839147509,
			"0.004": 8.53529762371,
			"0.005": 9.2568353769,
			"0.006": 14.5924032657,
			"0.007": 17.0744075366,
			"0.008": 13.3692095949,
			"0.009": 9.09255231402,
			"0.01": 6.60358016813,
			"0.011": 4.84748820865,
			"0.012": 1.79434532028,
			"0.013": 0.139426597869,
			"0.014": 0.0,
			"0.015": 0.0,
			"0.016": 0.0,
			"0.017": 0.0,
			"0.018": 0.0,
			"0.019": 0.0,
			"0.02": 0.0,
			"0.021": 0.0,
			"0.022": 0.0,
			"0.023": 0.0,
			"0.024": 0.0,
			"0.025": 0.0
		}
	}
}
