{
	 "smiles": "CCOC(=O)C1=CC(C)=NC2=CC(C)=NN12", 
	 "Tm": 355.15, 
	 "num_atms": 29, 
	 "gaussian": { 
		 "optdone": 1, 
		 "sigma_profile": "yes", 
		 "theory": "DFT", 
		 "functional": "B3LYP", 
		 "basiset": "6-31G**", 
		 "properties": { 
			 "R2extent": 4334.2295, 
			 "electric_dipole_moment_norm": 1.01529607504, 
			 "electric_quadrupole_moment_norm": 7.26167152314, 
			 "total_energy": -741.70401635, 
			 "HOMO_LUMO_gap": 0.14702, 
			 "cosmo_polarized_energy": -11.24, 
			 "cosmo_cavitation_energy": 33.41, 
			 "cosmo_dispersion_energy": -23.93, 
			 "cosmo_repulsion_energy": 1.9, 
			 "cosmo_total_nonelectrostatic_energy": 11.38, 
			 "SMD_solvation_energy": 4.86 
		},
		"coords": [
			{
				"x": -1.789876367,
				"y": 3.2699563984,
				"z": -0.2810268718,
				"element": "C" 
			},
			{
				"x": -1.0467157913,
				"y": 2.79242729,
				"z": 0.9567772731,
				"element": "C" 
			},
			{
				"x": -0.3598144965,
				"y": 1.5394176713,
				"z": 0.702489439,
				"element": "O" 
			},
			{
				"x": 0.846998699,
				"y": 1.6242726607,
				"z": 0.1409465261,
				"element": "C" 
			},
			{
				"x": 1.4189844263,
				"y": 2.6616273402,
				"z": -0.1361958636,
				"element": "O" 
			},
			{
				"x": 1.5066725536,
				"y": 0.2918030816,
				"z": -0.0797713502,
				"element": "C" 
			},
			{
				"x": 2.8702051352,
				"y": 0.2575407312,
				"z": -0.2444085999,
				"element": "C" 
			},
			{
				"x": 3.5501826589,
				"y": -0.9833032825,
				"z": -0.420813604,
				"element": "C" 
			},
			{
				"x": 5.0470734378,
				"y": -1.0092499202,
				"z": -0.582328069,
				"element": "C" 
			},
			{
				"x": 2.9027333917,
				"y": -2.1343617277,
				"z": -0.4458634875,
				"element": "N" 
			},
			{
				"x": 1.5620023149,
				"y": -2.1094659553,
				"z": -0.3088888176,
				"element": "C" 
			},
			{
				"x": 0.6029737706,
				"y": -3.1143538616,
				"z": -0.3251006128,
				"element": "C" 
			},
			{
				"x": -0.6275208548,
				"y": -2.4573505327,
				"z": -0.1565441246,
				"element": "C" 
			},
			{
				"x": -1.9986351393,
				"y": -3.0577163277,
				"z": -0.10520867,
				"element": "C" 
			},
			{
				"x": -0.4922288123,
				"y": -1.1236381384,
				"z": -0.0343954694,
				"element": "N" 
			},
			{
				"x": 0.837720353,
				"y": -0.9055538004,
				"z": -0.1194380281,
				"element": "N" 
			},
			{
				"x": -2.3692963272,
				"y": 4.1672111259,
				"z": -0.0394607533,
				"element": "H" 
			},
			{
				"x": -2.4776605328,
				"y": 2.4993691287,
				"z": -0.6398299944,
				"element": "H" 
			},
			{
				"x": -1.0881991332,
				"y": 3.5205728653,
				"z": -1.0802722011,
				"element": "H" 
			},
			{
				"x": -1.7330980259,
				"y": 2.553969222,
				"z": 1.771640547,
				"element": "H" 
			},
			{
				"x": -0.3172118582,
				"y": 3.5319164135,
				"z": 1.2952428977,
				"element": "H" 
			},
			{
				"x": 3.4049400671,
				"y": 1.1987011516,
				"z": -0.2285487645,
				"element": "H" 
			},
			{
				"x": 5.3582784973,
				"y": -0.4197211362,
				"z": -1.4524370002,
				"element": "H" 
			},
			{
				"x": 5.5447751903,
				"y": -0.577337569,
				"z": 0.2936670982,
				"element": "H" 
			},
			{
				"x": 5.3859439349,
				"y": -2.0380015999,
				"z": -0.71096762,
				"element": "H" 
			},
			{
				"x": 0.790888077,
				"y": -4.1690037618,
				"z": -0.4524627357,
				"element": "H" 
			},
			{
				"x": -2.2239977033,
				"y": -3.6086946598,
				"z": -1.0247303005,
				"element": "H" 
			},
			{
				"x": -2.0907111624,
				"y": -3.7624558154,
				"z": 0.7284315669,
				"element": "H" 
			},
			{
				"x": -2.7448063038,
				"y": -2.2706769918,
				"z": 0.0213975902,
				"element": "H" 
			}
		],
		 "valence_orbital": [ 
			{
				"type": "occ",
				"energy": -0.30031,
				"method": "rhf"
			},
			{
				"type": "occ",
				"energy": -0.28796,
				"method": "rhf"
			},
			{
				"type": "occ",
				"energy": -0.26026,
				"method": "rhf"
			},
			{
				"type": "occ",
				"energy": -0.24543,
				"method": "rhf"
			},
			{
				"type": "occ",
				"energy": -0.21972,
				"method": "rhf"
			},
			{
				"type": "unocc",
				"energy": -0.0727,
				"method": "rhf"
			},
			{
				"type": "unocc",
				"energy": -0.00932,
				"method": "rhf"
			},
			{
				"type": "unocc",
				"energy": 0.03008,
				"method": "rhf"
			},
			{
				"type": "unocc",
				"energy": 0.07487,
				"method": "rhf"
			},
			{
				"type": "unocc",
				"energy": 0.10541,
				"method": "rhf"
			}
		],
		"cosmo_sigma_profile": { 
			"-0.025": 0.0,
			"-0.024": 0.0,
			"-0.023": 0.0,
			"-0.022": 0.0,
			"-0.021": 0.0,
			"-0.02": 0.0,
			"-0.019": 0.0,
			"-0.018": 0.0,
			"-0.017": 0.0,
			"-0.016": 0.0,
			"-0.015": 0.0,
			"-0.014": 0.0,
			"-0.013": 0.0,
			"-0.012": 0.0,
			"-0.011": 0.0,
			"-0.01": 0.0,
			"-0.009": 0.0,
			"-0.008": 0.443056588313,
			"-0.007": 2.97344832243,
			"-0.006": 8.00654147784,
			"-0.005": 19.6695157204,
			"-0.004": 30.4401759986,
			"-0.003": 30.7358767458,
			"-0.002": 30.7626052372,
			"-0.001": 31.4833419587,
			"0.0": 24.9740671197,
			"0.001": 13.0843720515,
			"0.002": 9.88577007759,
			"0.003": 11.1498396249,
			"0.004": 9.57185905811,
			"0.005": 6.55413811662,
			"0.006": 5.67499074865,
			"0.007": 4.1860656425,
			"0.008": 4.35770910453,
			"0.009": 3.74425241658,
			"0.01": 4.2511186818,
			"0.011": 6.21657219903,
			"0.012": 1.91895352407,
			"0.013": 2.03968310921,
			"0.014": 1.69391594661,
			"0.015": 1.40130349925,
			"0.016": 0.354978424143,
			"0.017": 0.0,
			"0.018": 0.0,
			"0.019": 0.0,
			"0.02": 0.0,
			"0.021": 0.0,
			"0.022": 0.0,
			"0.023": 0.0,
			"0.024": 0.0,
			"0.025": 0.0
		}
	}
}
