{
	 "smiles": "OC(=O)C1=CNC(=O)N1", 
	 "Tm": 507.15, 
	 "num_atms": 13, 
	 "gaussian": { 
		 "optdone": 1, 
		 "sigma_profile": "yes", 
		 "theory": "DFT", 
		 "functional": "B3LYP", 
		 "basiset": "6-31G**", 
		 "properties": { 
			 "R2extent": 1852.1861, 
			 "electric_dipole_moment_norm": 5.39285404586, 
			 "electric_quadrupole_moment_norm": 17.4211126789, 
			 "total_energy": -490.026783664, 
			 "HOMO_LUMO_gap": 0.17563, 
			 "cosmo_polarized_energy": -24.73, 
			 "cosmo_cavitation_energy": 18.37, 
			 "cosmo_dispersion_energy": -13.98, 
			 "cosmo_repulsion_energy": 1.17, 
			 "cosmo_total_nonelectrostatic_energy": 5.56, 
			 "SMD_solvation_energy": 5.58 
		},
		"coords": [
			{
				"x": -0.2929632693,
				"y": 0.8523197363,
				"z": -1.2021999923,
				"element": "O" 
			},
			{
				"x": -0.2755893308,
				"y": 0.3567705315,
				"z": 0.0622984582,
				"element": "C" 
			},
			{
				"x": 0.1739684501,
				"y": 1.0123364395,
				"z": 0.976702047,
				"element": "O" 
			},
			{
				"x": -0.8152683403,
				"y": -0.9915392781,
				"z": 0.271428354,
				"element": "C" 
			},
			{
				"x": -1.3674011944,
				"y": -1.929665969,
				"z": -0.5517417762,
				"element": "C" 
			},
			{
				"x": -1.6920726954,
				"y": -3.0189293994,
				"z": 0.2277256209,
				"element": "N" 
			},
			{
				"x": -1.3538957215,
				"y": -2.8051130352,
				"z": 1.578552947,
				"element": "C" 
			},
			{
				"x": -1.5117134141,
				"y": -3.5703366658,
				"z": 2.5112336971,
				"element": "O" 
			},
			{
				"x": -0.8121471275,
				"y": -1.5310949938,
				"z": 1.5556823026,
				"element": "N" 
			},
			{
				"x": -0.6788064787,
				"y": 0.2174864924,
				"z": -1.8215047655,
				"element": "H" 
			},
			{
				"x": -1.5547515936,
				"y": -1.9144555293,
				"z": -1.6149131151,
				"element": "H" 
			},
			{
				"x": -2.1169929226,
				"y": -3.8790220301,
				"z": -0.080972478,
				"element": "H" 
			},
			{
				"x": -0.4558663619,
				"y": -1.0435562989,
				"z": 2.3637087002,
				"element": "H" 
			}
		],
		 "valence_orbital": [ 
			{
				"type": "occ",
				"energy": -0.33887,
				"method": "rhf"
			},
			{
				"type": "occ",
				"energy": -0.31988,
				"method": "rhf"
			},
			{
				"type": "occ",
				"energy": -0.29143,
				"method": "rhf"
			},
			{
				"type": "occ",
				"energy": -0.27525,
				"method": "rhf"
			},
			{
				"type": "occ",
				"energy": -0.22485,
				"method": "rhf"
			},
			{
				"type": "unocc",
				"energy": -0.04922,
				"method": "rhf"
			},
			{
				"type": "unocc",
				"energy": 0.03293,
				"method": "rhf"
			},
			{
				"type": "unocc",
				"energy": 0.05294,
				"method": "rhf"
			},
			{
				"type": "unocc",
				"energy": 0.0575,
				"method": "rhf"
			},
			{
				"type": "unocc",
				"energy": 0.09327,
				"method": "rhf"
			}
		],
		"cosmo_sigma_profile": { 
			"-0.025": 0.0,
			"-0.024": 0.0,
			"-0.023": 0.0,
			"-0.022": 0.0,
			"-0.021": 0.0,
			"-0.02": 0.236347327279,
			"-0.019": 1.35188071178,
			"-0.018": 1.44006791948,
			"-0.017": 1.8697619404,
			"-0.016": 3.20485605887,
			"-0.015": 3.03940838431,
			"-0.014": 2.72128076291,
			"-0.013": 2.43099758865,
			"-0.012": 4.25463264749,
			"-0.011": 4.12927272263,
			"-0.01": 3.46679991964,
			"-0.009": 3.58249724069,
			"-0.008": 2.7611197983,
			"-0.007": 2.50649907224,
			"-0.006": 3.75756599666,
			"-0.005": 3.56810233806,
			"-0.004": 3.0413687928,
			"-0.003": 4.29570547799,
			"-0.002": 5.6694117595,
			"-0.001": 10.5775169826,
			"0.0": 12.9389231053,
			"0.001": 8.76385120442,
			"0.002": 2.3192608672,
			"0.003": 2.70830229166,
			"0.004": 3.09817170117,
			"0.005": 3.40515607885,
			"0.006": 3.18791377634,
			"0.007": 3.02797964793,
			"0.008": 4.04391494798,
			"0.009": 4.21055844013,
			"0.01": 5.87003226014,
			"0.011": 6.35345777641,
			"0.012": 5.77111112604,
			"0.013": 5.94312068813,
			"0.014": 6.6821704148,
			"0.015": 0.659647619215,
			"0.016": 0.0,
			"0.017": 0.0,
			"0.018": 0.0,
			"0.019": 0.0,
			"0.02": 0.0,
			"0.021": 0.0,
			"0.022": 0.0,
			"0.023": 0.0,
			"0.024": 0.0,
			"0.025": 0.0
		}
	}
}
