{
	 "smiles": "CC=CC1NN2C(S1)=NN=C2C1=CC=C(C=C1)[N+]([O-])=O", 
	 "Tm": 423.15, 
	 "num_atms": 31, 
	 "gaussian": { 
		 "optdone": 1, 
		 "sigma_profile": "yes", 
		 "theory": "DFT", 
		 "functional": "B3LYP", 
		 "basiset": "6-31G**", 
		 "properties": { 
			 "R2extent": 9833.686, 
			 "electric_dipole_moment_norm": 8.53924366967, 
			 "electric_quadrupole_moment_norm": 25.4959608974, 
			 "total_energy": -1286.11528392, 
			 "HOMO_LUMO_gap": 0.13828, 
			 "cosmo_polarized_energy": -22.12, 
			 "cosmo_cavitation_energy": 38.51, 
			 "cosmo_dispersion_energy": -28.24, 
			 "cosmo_repulsion_energy": 2.11, 
			 "cosmo_total_nonelectrostatic_energy": 12.38, 
			 "SMD_solvation_energy": 5.98 
		},
		"coords": [
			{
				"x": -1.5765252444,
				"y": 2.0744233232,
				"z": -4.4559239763,
				"element": "C" 
			},
			{
				"x": -1.7557647339,
				"y": 1.4105009911,
				"z": -3.1254982827,
				"element": "C" 
			},
			{
				"x": -1.127925756,
				"y": 0.2983411451,
				"z": -2.7300912914,
				"element": "C" 
			},
			{
				"x": -1.3562589191,
				"y": -0.3399499814,
				"z": -1.4051425127,
				"element": "C" 
			},
			{
				"x": -0.1125607875,
				"y": -0.540562243,
				"z": -0.6515095067,
				"element": "N" 
			},
			{
				"x": -0.389407696,
				"y": -1.5802489131,
				"z": 0.2582515149,
				"element": "N" 
			},
			{
				"x": -1.3653820184,
				"y": -2.4860108483,
				"z": -0.0670467562,
				"element": "C" 
			},
			{
				"x": -2.1647661401,
				"y": -2.0808680335,
				"z": -1.578168844,
				"element": "S" 
			},
			{
				"x": -1.4661806973,
				"y": -3.4134417433,
				"z": 0.8528721473,
				"element": "N" 
			},
			{
				"x": -0.5115138232,
				"y": -3.1142001724,
				"z": 1.8071085136,
				"element": "N" 
			},
			{
				"x": 0.1297916246,
				"y": -2.0087355301,
				"z": 1.4614801739,
				"element": "C" 
			},
			{
				"x": 1.1904061183,
				"y": -1.3779722212,
				"z": 2.2453507924,
				"element": "C" 
			},
			{
				"x": 1.7408033368,
				"y": -0.1301083579,
				"z": 1.9020885945,
				"element": "C" 
			},
			{
				"x": 2.7442717242,
				"y": 0.4333960145,
				"z": 2.6832863086,
				"element": "C" 
			},
			{
				"x": 3.1929817586,
				"y": -0.256763829,
				"z": 3.8068754855,
				"element": "C" 
			},
			{
				"x": 2.6610143799,
				"y": -1.4945193159,
				"z": 4.172565109,
				"element": "C" 
			},
			{
				"x": 1.6605158222,
				"y": -2.0518564839,
				"z": 3.3895312672,
				"element": "C" 
			},
			{
				"x": 4.2557391382,
				"y": 0.3364756512,
				"z": 4.6297534827,
				"element": "N" 
			},
			{
				"x": 4.7073738826,
				"y": 1.4276681842,
				"z": 4.2802669098,
				"element": "O" 
			},
			{
				"x": 4.6308603925,
				"y": -0.2930787624,
				"z": 5.6187000827,
				"element": "O" 
			},
			{
				"x": -2.5297796168,
				"y": 2.1236314749,
				"z": -4.9962165488,
				"element": "H" 
			},
			{
				"x": -0.8535353772,
				"y": 1.5446719902,
				"z": -5.0820475506,
				"element": "H" 
			},
			{
				"x": -1.2343127879,
				"y": 3.1088396497,
				"z": -4.3308086391,
				"element": "H" 
			},
			{
				"x": -2.4604595046,
				"y": 1.8838482516,
				"z": -2.4407218466,
				"element": "H" 
			},
			{
				"x": -0.4293220487,
				"y": -0.2062408071,
				"z": -3.3977158677,
				"element": "H" 
			},
			{
				"x": -2.0457373105,
				"y": 0.2361781669,
				"z": -0.7847323057,
				"element": "H" 
			},
			{
				"x": 0.6121898452,
				"y": -0.8830111679,
				"z": -1.2888866421,
				"element": "H" 
			},
			{
				"x": 1.3752404207,
				"y": 0.4017018149,
				"z": 1.0310292073,
				"element": "H" 
			},
			{
				"x": 3.1811726505,
				"y": 1.3936626244,
				"z": 2.4399322234,
				"element": "H" 
			},
			{
				"x": 3.0376981174,
				"y": -1.9961568744,
				"z": 5.0550058699,
				"element": "H" 
			},
			{
				"x": 1.2244732501,
				"y": -3.0106139971,
				"z": 3.645512888,
				"element": "H" 
			}
		],
		 "valence_orbital": [ 
			{
				"type": "occ",
				"energy": -0.28627,
				"method": "rhf"
			},
			{
				"type": "occ",
				"energy": -0.2806,
				"method": "rhf"
			},
			{
				"type": "occ",
				"energy": -0.27932,
				"method": "rhf"
			},
			{
				"type": "occ",
				"energy": -0.26542,
				"method": "rhf"
			},
			{
				"type": "occ",
				"energy": -0.23303,
				"method": "rhf"
			},
			{
				"type": "unocc",
				"energy": -0.09475,
				"method": "rhf"
			},
			{
				"type": "unocc",
				"energy": -0.0456,
				"method": "rhf"
			},
			{
				"type": "unocc",
				"energy": -0.02926,
				"method": "rhf"
			},
			{
				"type": "unocc",
				"energy": -0.02863,
				"method": "rhf"
			},
			{
				"type": "unocc",
				"energy": -0.0115,
				"method": "rhf"
			}
		],
		"cosmo_sigma_profile": { 
			"-0.025": 0.0,
			"-0.024": 0.0,
			"-0.023": 0.0,
			"-0.022": 0.0,
			"-0.021": 0.0,
			"-0.02": 0.0,
			"-0.019": 0.0,
			"-0.018": 0.0,
			"-0.017": 0.0,
			"-0.016": 0.0,
			"-0.015": 1.25923553611,
			"-0.014": 2.16669793935,
			"-0.013": 1.49342481815,
			"-0.012": 1.70053348154,
			"-0.011": 1.25306885826,
			"-0.01": 1.67774768204,
			"-0.009": 1.85081597749,
			"-0.008": 7.1103028575,
			"-0.007": 10.4901628798,
			"-0.006": 13.657495114,
			"-0.005": 16.7935269556,
			"-0.004": 20.5149715764,
			"-0.003": 22.2454124671,
			"-0.002": 24.9058056829,
			"-0.001": 28.7408222614,
			"0.0": 31.2175311839,
			"0.001": 26.3505511386,
			"0.002": 14.9618884066,
			"0.003": 11.6248497416,
			"0.004": 9.23921065931,
			"0.005": 9.05132597335,
			"0.006": 7.58811415154,
			"0.007": 9.98565407033,
			"0.008": 10.0472788661,
			"0.009": 6.35145368557,
			"0.01": 4.96150424611,
			"0.011": 2.51562195074,
			"0.012": 3.14134802734,
			"0.013": 3.52175971493,
			"0.014": 2.59467332466,
			"0.015": 1.50689427528,
			"0.016": 0.684684513266,
			"0.017": 0.0,
			"0.018": 0.0,
			"0.019": 0.0,
			"0.02": 0.0,
			"0.021": 0.0,
			"0.022": 0.0,
			"0.023": 0.0,
			"0.024": 0.0,
			"0.025": 0.0
		}
	}
}
