{
	 "smiles": "O=C1OCCOC(=O)C2CCCCC2C(=O)OCCOC(=O)C2CCCCC12", 
	 "Tm": 483.15, 
	 "num_atms": 56, 
	 "gaussian": { 
		 "optdone": 1, 
		 "sigma_profile": "yes", 
		 "theory": "DFT", 
		 "functional": "B3LYP", 
		 "basiset": "6-31G**", 
		 "properties": { 
			 "R2extent": 11200.3005, 
			 "electric_dipole_moment_norm": 6.70214613836, 
			 "electric_quadrupole_moment_norm": 17.8885619458, 
			 "total_energy": -1380.83381842, 
			 "HOMO_LUMO_gap": 0.26051, 
			 "cosmo_polarized_energy": -26.5, 
			 "cosmo_cavitation_energy": 52.12, 
			 "cosmo_dispersion_energy": -35.23, 
			 "cosmo_repulsion_energy": 2.58, 
			 "cosmo_total_nonelectrostatic_energy": 19.46, 
			 "SMD_solvation_energy": 9.56 
		},
		"coords": [
			{
				"x": 2.7919388738,
				"y": -0.6663507726,
				"z": -0.5551635522,
				"element": "O" 
			},
			{
				"x": 2.0277443044,
				"y": 0.0889394577,
				"z": -1.1107875344,
				"element": "C" 
			},
			{
				"x": 1.2715575868,
				"y": -0.4305890442,
				"z": -2.1235491016,
				"element": "O" 
			},
			{
				"x": 0.1660824125,
				"y": 0.2227259505,
				"z": -2.7545925415,
				"element": "C" 
			},
			{
				"x": -1.1444602156,
				"y": -0.3823430531,
				"z": -2.2830214892,
				"element": "C" 
			},
			{
				"x": -1.4828481049,
				"y": 0.2046432065,
				"z": -1.0217152906,
				"element": "O" 
			},
			{
				"x": -2.0874541241,
				"y": -0.4439121196,
				"z": 0.0182128032,
				"element": "C" 
			},
			{
				"x": -2.391336627,
				"y": 0.2256847169,
				"z": 0.9783180848,
				"element": "O" 
			},
			{
				"x": -2.3294386193,
				"y": -1.9487876476,
				"z": -0.0857448354,
				"element": "C" 
			},
			{
				"x": -3.5187284989,
				"y": -2.2872063803,
				"z": -1.0260188604,
				"element": "C" 
			},
			{
				"x": -4.8823530198,
				"y": -1.9373405444,
				"z": -0.4150730831,
				"element": "C" 
			},
			{
				"x": -5.076437495,
				"y": -2.6489320033,
				"z": 0.9299639966,
				"element": "C" 
			},
			{
				"x": -3.952898131,
				"y": -2.2943068532,
				"z": 1.9105059613,
				"element": "C" 
			},
			{
				"x": -2.559473903,
				"y": -2.5760730077,
				"z": 1.3142077579,
				"element": "C" 
			},
			{
				"x": -1.4745893632,
				"y": -2.2168815203,
				"z": 2.3240416261,
				"element": "C" 
			},
			{
				"x": -1.6405340288,
				"y": -2.1911240458,
				"z": 3.5241622546,
				"element": "O" 
			},
			{
				"x": -0.2839415085,
				"y": -1.9675651623,
				"z": 1.7268016884,
				"element": "O" 
			},
			{
				"x": 0.7817629884,
				"y": -1.5402090277,
				"z": 2.6062029338,
				"element": "C" 
			},
			{
				"x": 0.6866261325,
				"y": -0.0528363972,
				"z": 2.911947121,
				"element": "C" 
			},
			{
				"x": 1.0926325676,
				"y": 0.7450636413,
				"z": 1.7792859768,
				"element": "O" 
			},
			{
				"x": 2.4137125038,
				"y": 1.0440368735,
				"z": 1.7108904958,
				"element": "C" 
			},
			{
				"x": 3.2183857064,
				"y": 0.7191568253,
				"z": 2.556481383,
				"element": "O" 
			},
			{
				"x": 2.7424221304,
				"y": 1.8992527048,
				"z": 0.4936722096,
				"element": "C" 
			},
			{
				"x": 4.2711940756,
				"y": 1.905284585,
				"z": 0.2505236592,
				"element": "C" 
			},
			{
				"x": 4.6444362446,
				"y": 2.3675262899,
				"z": -1.1731816247,
				"element": "C" 
			},
			{
				"x": 3.5703187178,
				"y": 3.2914099326,
				"z": -1.753284257,
				"element": "C" 
			},
			{
				"x": 2.2571576568,
				"y": 2.5146543076,
				"z": -1.9577933047,
				"element": "C" 
			},
			{
				"x": 1.8899867146,
				"y": 1.5683250848,
				"z": -0.7575414386,
				"element": "C" 
			},
			{
				"x": 0.1542356431,
				"y": 1.3001188278,
				"z": -2.5854047062,
				"element": "H" 
			},
			{
				"x": 0.2795388295,
				"y": 0.0415045994,
				"z": -3.8287000162,
				"element": "H" 
			},
			{
				"x": -1.9359330754,
				"y": -0.1399496529,
				"z": -3.0034115474,
				"element": "H" 
			},
			{
				"x": -1.0369553771,
				"y": -1.4671840849,
				"z": -2.2253671416,
				"element": "H" 
			},
			{
				"x": -1.4191662913,
				"y": -2.394698789,
				"z": -0.4979366432,
				"element": "H" 
			},
			{
				"x": -3.4820158861,
				"y": -3.3659333762,
				"z": -1.2280312525,
				"element": "H" 
			},
			{
				"x": -3.3986197567,
				"y": -1.7912436348,
				"z": -1.9947465693,
				"element": "H" 
			},
			{
				"x": -5.6766404779,
				"y": -2.2152598793,
				"z": -1.1176224798,
				"element": "H" 
			},
			{
				"x": -4.9559595296,
				"y": -0.8516394207,
				"z": -0.2684993987,
				"element": "H" 
			},
			{
				"x": -6.0456821901,
				"y": -2.3814199916,
				"z": 1.3657486896,
				"element": "H" 
			},
			{
				"x": -5.0990826991,
				"y": -3.7358359086,
				"z": 0.7624145871,
				"element": "H" 
			},
			{
				"x": -4.0093629152,
				"y": -1.2344837433,
				"z": 2.1733019519,
				"element": "H" 
			},
			{
				"x": -4.052418408,
				"y": -2.8582542335,
				"z": 2.8417145543,
				"element": "H" 
			},
			{
				"x": -2.47019373,
				"y": -3.6642896213,
				"z": 1.1674308083,
				"element": "H" 
			},
			{
				"x": 1.7057937194,
				"y": -1.769621165,
				"z": 2.0743382951,
				"element": "H" 
			},
			{
				"x": 0.7273077134,
				"y": -2.110071286,
				"z": 3.536448805,
				"element": "H" 
			},
			{
				"x": 1.3264017573,
				"y": 0.1838893082,
				"z": 3.7646945618,
				"element": "H" 
			},
			{
				"x": -0.3438767648,
				"y": 0.235465855,
				"z": 3.1200360918,
				"element": "H" 
			},
			{
				"x": 2.4351396529,
				"y": 2.9147088875,
				"z": 0.7834845953,
				"element": "H" 
			},
			{
				"x": 4.6665153039,
				"y": 0.9074646408,
				"z": 0.4436587535,
				"element": "H" 
			},
			{
				"x": 4.7246612004,
				"y": 2.5683272045,
				"z": 0.9939455509,
				"element": "H" 
			},
			{
				"x": 5.6212931016,
				"y": 2.8625555785,
				"z": -1.1632006503,
				"element": "H" 
			},
			{
				"x": 4.7484187448,
				"y": 1.4950615601,
				"z": -1.8317160762,
				"element": "H" 
			},
			{
				"x": 3.4103324759,
				"y": 4.1444575799,
				"z": -1.0810752272,
				"element": "H" 
			},
			{
				"x": 3.8873771837,
				"y": 3.7127304245,
				"z": -2.7139621106,
				"element": "H" 
			},
			{
				"x": 1.433970848,
				"y": 3.2157521792,
				"z": -2.1357487297,
				"element": "H" 
			},
			{
				"x": 2.3610147349,
				"y": 1.9198849466,
				"z": -2.8721987816,
				"element": "H" 
			},
			{
				"x": 0.8396412159,
				"y": 1.7196171979,
				"z": -0.491146953,
				"element": "H" 
			}
		],
		 "valence_orbital": [ 
			{
				"type": "occ",
				"energy": -0.28496,
				"method": "rhf"
			},
			{
				"type": "occ",
				"energy": -0.27317,
				"method": "rhf"
			},
			{
				"type": "occ",
				"energy": -0.26922,
				"method": "rhf"
			},
			{
				"type": "occ",
				"energy": -0.26724,
				"method": "rhf"
			},
			{
				"type": "occ",
				"energy": -0.26374,
				"method": "rhf"
			},
			{
				"type": "unocc",
				"energy": -0.00323,
				"method": "rhf"
			},
			{
				"type": "unocc",
				"energy": 0.00239,
				"method": "rhf"
			},
			{
				"type": "unocc",
				"energy": 0.01455,
				"method": "rhf"
			},
			{
				"type": "unocc",
				"energy": 0.02063,
				"method": "rhf"
			},
			{
				"type": "unocc",
				"energy": 0.06564,
				"method": "rhf"
			}
		],
		"cosmo_sigma_profile": { 
			"-0.025": 0.0,
			"-0.024": 0.0,
			"-0.023": 0.0,
			"-0.022": 0.0,
			"-0.021": 0.0,
			"-0.02": 0.0,
			"-0.019": 0.0,
			"-0.018": 0.0,
			"-0.017": 0.0,
			"-0.016": 0.0,
			"-0.015": 0.0,
			"-0.014": 0.0,
			"-0.013": 0.0,
			"-0.012": 0.0,
			"-0.011": 0.0,
			"-0.01": 0.0238206762358,
			"-0.009": 0.68596895665,
			"-0.008": 5.51022707798,
			"-0.007": 17.6254773611,
			"-0.006": 28.3054022018,
			"-0.005": 25.4548932139,
			"-0.004": 29.1619517186,
			"-0.003": 38.057678401,
			"-0.002": 41.5746975634,
			"-0.001": 42.6514150557,
			"0.0": 35.9194181849,
			"0.001": 24.3408680946,
			"0.002": 13.9332477342,
			"0.003": 12.2000094653,
			"0.004": 10.9685510184,
			"0.005": 9.03583568626,
			"0.006": 9.20783679898,
			"0.007": 8.45236918369,
			"0.008": 8.65427980299,
			"0.009": 7.83921714645,
			"0.01": 7.630548487,
			"0.011": 11.4179220555,
			"0.012": 12.313446141,
			"0.013": 3.48998683211,
			"0.014": 0.190803500473,
			"0.015": 0.0,
			"0.016": 0.0,
			"0.017": 0.0,
			"0.018": 0.0,
			"0.019": 0.0,
			"0.02": 0.0,
			"0.021": 0.0,
			"0.022": 0.0,
			"0.023": 0.0,
			"0.024": 0.0,
			"0.025": 0.0
		}
	}
}
