{
	 "smiles": "COC1=C(C(O)=O)C(C)=CC=C1Br", 
	 "Tm": 398.15, 
	 "num_atms": 22, 
	 "gaussian": { 
		 "optdone": 1, 
		 "sigma_profile": "yes", 
		 "theory": "DFT", 
		 "functional": "B3LYP", 
		 "basiset": "6-31G**", 
		 "properties": { 
			 "R2extent": 4538.3357, 
			 "electric_dipole_moment_norm": 2.28301451156, 
			 "electric_quadrupole_moment_norm": 11.9376094458, 
			 "total_energy": -3145.45557661, 
			 "HOMO_LUMO_gap": 0.1951, 
			 "cosmo_polarized_energy": -10.29, 
			 "cosmo_cavitation_energy": 27.85, 
			 "cosmo_dispersion_energy": -20.63, 
			 "cosmo_repulsion_energy": 1.63, 
			 "cosmo_total_nonelectrostatic_energy": 8.85, 
			 "SMD_solvation_energy": 5.6 
		},
		"coords": [
			{
				"x": 0.4056532862,
				"y": 1.3027482426,
				"z": -3.3490547501,
				"element": "C" 
			},
			{
				"x": 0.8926376802,
				"y": 1.6817140803,
				"z": -2.0519672162,
				"element": "O" 
			},
			{
				"x": 0.0694041683,
				"y": 1.4197270937,
				"z": -0.9933040653,
				"element": "C" 
			},
			{
				"x": 0.3587364882,
				"y": 0.3373071519,
				"z": -0.1376597573,
				"element": "C" 
			},
			{
				"x": 1.5310553883,
				"y": -0.5494134277,
				"z": -0.4257628864,
				"element": "C" 
			},
			{
				"x": 1.5533976553,
				"y": -1.0225446322,
				"z": -1.6940855523,
				"element": "O" 
			},
			{
				"x": 2.37115113,
				"y": -0.8679199545,
				"z": 0.3897526232,
				"element": "O" 
			},
			{
				"x": -0.4004760982,
				"y": 0.1103502051,
				"z": 1.0312731422,
				"element": "C" 
			},
			{
				"x": -0.0931495634,
				"y": -1.0205413655,
				"z": 1.9849974534,
				"element": "C" 
			},
			{
				"x": -1.475122559,
				"y": 0.9645837519,
				"z": 1.294263955,
				"element": "C" 
			},
			{
				"x": -1.7700200804,
				"y": 2.0420766238,
				"z": 0.4623036198,
				"element": "C" 
			},
			{
				"x": -0.9941095438,
				"y": 2.2753311639,
				"z": -0.6674565614,
				"element": "C" 
			},
			{
				"x": -1.3578759527,
				"y": 3.8145955882,
				"z": -1.7353735874,
				"element": "Br" 
			},
			{
				"x": 1.1652471737,
				"y": 1.6353759094,
				"z": -4.058437328,
				"element": "H" 
			},
			{
				"x": -0.5425930295,
				"y": 1.798041581,
				"z": -3.5779961909,
				"element": "H" 
			},
			{
				"x": 0.2945000547,
				"y": 0.2168316761,
				"z": -3.4108316774,
				"element": "H" 
			},
			{
				"x": 2.361836257,
				"y": -1.5592983233,
				"z": -1.7599792282,
				"element": "H" 
			},
			{
				"x": 0.872032581,
				"y": -0.867674313,
				"z": 2.474462503,
				"element": "H" 
			},
			{
				"x": -0.8696504286,
				"y": -1.0936688877,
				"z": 2.7503992608,
				"element": "H" 
			},
			{
				"x": -0.0323737283,
				"y": -1.9845292508,
				"z": 1.4695940065,
				"element": "H" 
			},
			{
				"x": -2.0838130187,
				"y": 0.7958205342,
				"z": 2.1775293846,
				"element": "H" 
			},
			{
				"x": -2.5899678602,
				"y": 2.7115865525,
				"z": 0.6969328524,
				"element": "H" 
			}
		],
		 "valence_orbital": [ 
			{
				"type": "occ",
				"energy": -0.29087,
				"method": "rhf"
			},
			{
				"type": "occ",
				"energy": -0.28491,
				"method": "rhf"
			},
			{
				"type": "occ",
				"energy": -0.28027,
				"method": "rhf"
			},
			{
				"type": "occ",
				"energy": -0.25645,
				"method": "rhf"
			},
			{
				"type": "occ",
				"energy": -0.2393,
				"method": "rhf"
			},
			{
				"type": "unocc",
				"energy": -0.0442,
				"method": "rhf"
			},
			{
				"type": "unocc",
				"energy": -0.0144,
				"method": "rhf"
			},
			{
				"type": "unocc",
				"energy": 0.00328,
				"method": "rhf"
			},
			{
				"type": "unocc",
				"energy": 0.02844,
				"method": "rhf"
			},
			{
				"type": "unocc",
				"energy": 0.07584,
				"method": "rhf"
			}
		],
		"cosmo_sigma_profile": { 
			"-0.025": 0.0,
			"-0.024": 0.0,
			"-0.023": 0.0,
			"-0.022": 0.0,
			"-0.021": 0.0,
			"-0.02": 0.0,
			"-0.019": 0.111737358993,
			"-0.018": 0.986043873202,
			"-0.017": 0.811954415055,
			"-0.016": 0.9823559176,
			"-0.015": 0.41306339915,
			"-0.014": 0.374368836665,
			"-0.013": 0.84060666069,
			"-0.012": 1.024900865,
			"-0.011": 0.670345174859,
			"-0.01": 0.498430885296,
			"-0.009": 0.430050257696,
			"-0.008": 1.54902708258,
			"-0.007": 4.02140806892,
			"-0.006": 8.02697855328,
			"-0.005": 11.4488096038,
			"-0.004": 14.9797945816,
			"-0.003": 19.6415081683,
			"-0.002": 18.282027688,
			"-0.001": 16.8382723438,
			"0.0": 19.4516624319,
			"0.001": 20.5321368241,
			"0.002": 21.2253941424,
			"0.003": 16.8427262173,
			"0.004": 11.8159134796,
			"0.005": 7.17366685679,
			"0.006": 4.33282503174,
			"0.007": 5.00347389797,
			"0.008": 3.31421544461,
			"0.009": 3.11612441829,
			"0.01": 3.53874392402,
			"0.011": 4.80573558274,
			"0.012": 1.51264645417,
			"0.013": 0.0,
			"0.014": 0.0,
			"0.015": 0.0,
			"0.016": 0.0,
			"0.017": 0.0,
			"0.018": 0.0,
			"0.019": 0.0,
			"0.02": 0.0,
			"0.021": 0.0,
			"0.022": 0.0,
			"0.023": 0.0,
			"0.024": 0.0,
			"0.025": 0.0
		}
	}
}
