{
	 "smiles": "CCCC(C)(C)C", 
	 "Tm": 149.15, 
	 "num_atms": 23, 
	 "gaussian": { 
		 "optdone": 1, 
		 "sigma_profile": "yes", 
		 "theory": "DFT", 
		 "functional": "B3LYP", 
		 "basiset": "6-31G**", 
		 "properties": { 
			 "R2extent": 1072.1369, 
			 "electric_dipole_moment_norm": 0.056483891509, 
			 "electric_quadrupole_moment_norm": 0.42212399837, 
			 "total_energy": -276.410462586, 
			 "HOMO_LUMO_gap": 0.37357, 
			 "cosmo_polarized_energy": -0.68, 
			 "cosmo_cavitation_energy": 22.9, 
			 "cosmo_dispersion_energy": -16.41, 
			 "cosmo_repulsion_energy": 1.37, 
			 "cosmo_total_nonelectrostatic_energy": 7.86, 
			 "SMD_solvation_energy": 4.04 
		},
		"coords": [
			{
				"x": -0.8176112404,
				"y": 2.6530033963,
				"z": -0.3733445776,
				"element": "C" 
			},
			{
				"x": 0.172898279,
				"y": 1.6301171502,
				"z": 0.2000819785,
				"element": "C" 
			},
			{
				"x": -0.4803037242,
				"y": 0.3637071923,
				"z": 0.8018517854,
				"element": "C" 
			},
			{
				"x": -0.6159918994,
				"y": -0.8898241199,
				"z": -0.1072896806,
				"element": "C" 
			},
			{
				"x": -1.373395675,
				"y": -0.5740614128,
				"z": -1.4111614127,
				"element": "C" 
			},
			{
				"x": 0.7760392477,
				"y": -1.4566333259,
				"z": -0.4517949944,
				"element": "C" 
			},
			{
				"x": -1.4021734644,
				"y": -1.9593703143,
				"z": 0.6776643802,
				"element": "C" 
			},
			{
				"x": -0.2942729172,
				"y": 3.5349483569,
				"z": -0.7586584268,
				"element": "H" 
			},
			{
				"x": -1.5154052587,
				"y": 2.9945959562,
				"z": 0.399978438,
				"element": "H" 
			},
			{
				"x": -1.4132656812,
				"y": 2.2383347315,
				"z": -1.1917072879,
				"element": "H" 
			},
			{
				"x": 0.9006364877,
				"y": 1.3521708422,
				"z": -0.5723454513,
				"element": "H" 
			},
			{
				"x": 0.7576769821,
				"y": 2.1271961676,
				"z": 0.9838685043,
				"element": "H" 
			},
			{
				"x": 0.0934755897,
				"y": 0.0541228859,
				"z": 1.6854438956,
				"element": "H" 
			},
			{
				"x": -1.4786532711,
				"y": 0.6298676281,
				"z": 1.1771342451,
				"element": "H" 
			},
			{
				"x": -0.8284535348,
				"y": 0.1421872956,
				"z": -2.0344745144,
				"element": "H" 
			},
			{
				"x": -2.3657978193,
				"y": -0.1570694832,
				"z": -1.2053223875,
				"element": "H" 
			},
			{
				"x": -1.5128232273,
				"y": -1.48462713,
				"z": -2.0054075415,
				"element": "H" 
			},
			{
				"x": 0.6861108718,
				"y": -2.3640405562,
				"z": -1.0598352821,
				"element": "H" 
			},
			{
				"x": 1.3316620686,
				"y": -1.7175960877,
				"z": 0.456378357,
				"element": "H" 
			},
			{
				"x": 1.3810501304,
				"y": -0.7420925867,
				"z": -1.0196362853,
				"element": "H" 
			},
			{
				"x": -2.4118411229,
				"y": -1.6094029071,
				"z": 0.9216605942,
				"element": "H" 
			},
			{
				"x": -0.8993613617,
				"y": -2.2102191418,
				"z": 1.61886944,
				"element": "H" 
			},
			{
				"x": -1.5003994595,
				"y": -2.8830145372,
				"z": 0.0958462236,
				"element": "H" 
			}
		],
		 "valence_orbital": [ 
			{
				"type": "occ",
				"energy": -0.33696,
				"method": "rhf"
			},
			{
				"type": "occ",
				"energy": -0.33112,
				"method": "rhf"
			},
			{
				"type": "occ",
				"energy": -0.30958,
				"method": "rhf"
			},
			{
				"type": "occ",
				"energy": -0.30422,
				"method": "rhf"
			},
			{
				"type": "occ",
				"energy": -0.29732,
				"method": "rhf"
			},
			{
				"type": "unocc",
				"energy": 0.07625,
				"method": "rhf"
			},
			{
				"type": "unocc",
				"energy": 0.11522,
				"method": "rhf"
			},
			{
				"type": "unocc",
				"energy": 0.12206,
				"method": "rhf"
			},
			{
				"type": "unocc",
				"energy": 0.12991,
				"method": "rhf"
			},
			{
				"type": "unocc",
				"energy": 0.13762,
				"method": "rhf"
			}
		],
		"cosmo_sigma_profile": { 
			"-0.025": 0.0,
			"-0.024": 0.0,
			"-0.023": 0.0,
			"-0.022": 0.0,
			"-0.021": 0.0,
			"-0.02": 0.0,
			"-0.019": 0.0,
			"-0.018": 0.0,
			"-0.017": 0.0,
			"-0.016": 0.0,
			"-0.015": 0.0,
			"-0.014": 0.0,
			"-0.013": 0.0,
			"-0.012": 0.0,
			"-0.011": 0.0,
			"-0.01": 0.0,
			"-0.009": 0.0,
			"-0.008": 0.0,
			"-0.007": 0.0,
			"-0.006": 0.0,
			"-0.005": 0.0,
			"-0.004": 0.0,
			"-0.003": 2.98914174808,
			"-0.002": 26.9667198574,
			"-0.001": 41.5367597382,
			"0.0": 34.9439315123,
			"0.001": 34.6605724779,
			"0.002": 31.2304695545,
			"0.003": 2.61292210973,
			"0.004": 0.0,
			"0.005": 0.0,
			"0.006": 0.0,
			"0.007": 0.0,
			"0.008": 0.0,
			"0.009": 0.0,
			"0.01": 0.0,
			"0.011": 0.0,
			"0.012": 0.0,
			"0.013": 0.0,
			"0.014": 0.0,
			"0.015": 0.0,
			"0.016": 0.0,
			"0.017": 0.0,
			"0.018": 0.0,
			"0.019": 0.0,
			"0.02": 0.0,
			"0.021": 0.0,
			"0.022": 0.0,
			"0.023": 0.0,
			"0.024": 0.0,
			"0.025": 0.0
		}
	}
}
