{
	 "smiles": "FC1=CC=C(C=C1)C(=O)NC1=CC=C(C=C1)C1=NNC(=O)CC1", 
	 "Tm": 559.15, 
	 "num_atms": 37, 
	 "gaussian": { 
		 "optdone": 1, 
		 "sigma_profile": "yes", 
		 "theory": "DFT", 
		 "functional": "B3LYP", 
		 "basiset": "6-31G**", 
		 "properties": { 
			 "R2extent": 11182.6264, 
			 "electric_dipole_moment_norm": 0.815395480733, 
			 "electric_quadrupole_moment_norm": 33.3235973591, 
			 "total_energy": -1070.78632825, 
			 "HOMO_LUMO_gap": 0.15569, 
			 "cosmo_polarized_energy": -20.44, 
			 "cosmo_cavitation_energy": 42.33, 
			 "cosmo_dispersion_energy": -30.02, 
			 "cosmo_repulsion_energy": 2.27, 
			 "cosmo_total_nonelectrostatic_energy": 14.57, 
			 "SMD_solvation_energy": 7.99 
		},
		"coords": [
			{
				"x": -1.7171550653,
				"y": -0.6223502433,
				"z": 5.3479917676,
				"element": "F" 
			},
			{
				"x": -0.6372219381,
				"y": -0.3048446416,
				"z": 4.6088578031,
				"element": "C" 
			},
			{
				"x": 0.0340046774,
				"y": 0.8853373212,
				"z": 4.8732009392,
				"element": "C" 
			},
			{
				"x": 1.1530404905,
				"y": 1.2006525083,
				"z": 4.1084261384,
				"element": "C" 
			},
			{
				"x": 1.5779768276,
				"y": 0.3531951059,
				"z": 3.0743834274,
				"element": "C" 
			},
			{
				"x": 0.8855472446,
				"y": -0.8445225568,
				"z": 2.8402134938,
				"element": "C" 
			},
			{
				"x": -0.2249244414,
				"y": -1.1820597459,
				"z": 3.6105451647,
				"element": "C" 
			},
			{
				"x": 2.8380799282,
				"y": 0.7252159357,
				"z": 2.3562462499,
				"element": "C" 
			},
			{
				"x": 3.730563397,
				"y": 1.3442684476,
				"z": 2.9240025642,
				"element": "O" 
			},
			{
				"x": 3.0338384168,
				"y": 0.2929050144,
				"z": 1.0505636112,
				"element": "N" 
			},
			{
				"x": 2.1168048045,
				"y": 0.0204837205,
				"z": 0.0102671621,
				"element": "C" 
			},
			{
				"x": 0.848684074,
				"y": 0.610365096,
				"z": -0.0609415574,
				"element": "C" 
			},
			{
				"x": -0.0028135779,
				"y": 0.3143186626,
				"z": -1.1228513536,
				"element": "C" 
			},
			{
				"x": 0.3879611612,
				"y": -0.5468273308,
				"z": -2.1612803373,
				"element": "C" 
			},
			{
				"x": 1.6763178236,
				"y": -1.111729972,
				"z": -2.090955841,
				"element": "C" 
			},
			{
				"x": 2.5202404657,
				"y": -0.8408476036,
				"z": -1.024958477,
				"element": "C" 
			},
			{
				"x": -0.4975618433,
				"y": -0.8385793757,
				"z": -3.3087948261,
				"element": "C" 
			},
			{
				"x": 0.0308559024,
				"y": -1.4360772609,
				"z": -4.3267872971,
				"element": "N" 
			},
			{
				"x": -0.7773540722,
				"y": -1.6972251584,
				"z": -5.4091081526,
				"element": "N" 
			},
			{
				"x": -2.1571659923,
				"y": -1.7863701452,
				"z": -5.4283174172,
				"element": "C" 
			},
			{
				"x": -2.7571512581,
				"y": -2.1611018929,
				"z": -6.4220042218,
				"element": "O" 
			},
			{
				"x": -2.7997118963,
				"y": -1.4253500965,
				"z": -4.1039736459,
				"element": "C" 
			},
			{
				"x": -1.9531014426,
				"y": -0.4170313877,
				"z": -3.3166323607,
				"element": "C" 
			},
			{
				"x": -0.3161858942,
				"y": 1.5335071215,
				"z": 5.6690061512,
				"element": "H" 
			},
			{
				"x": 1.7207454624,
				"y": 2.1034563134,
				"z": 4.3058923547,
				"element": "H" 
			},
			{
				"x": 1.2207739289,
				"y": -1.5249538888,
				"z": 2.0655020654,
				"element": "H" 
			},
			{
				"x": -0.7668287829,
				"y": -2.1082505655,
				"z": 3.4539995119,
				"element": "H" 
			},
			{
				"x": 3.9936308371,
				"y": 0.4460918825,
				"z": 0.7628110385,
				"element": "H" 
			},
			{
				"x": 0.5297559187,
				"y": 1.3067775632,
				"z": 0.7055422427,
				"element": "H" 
			},
			{
				"x": -0.9732487223,
				"y": 0.7985358332,
				"z": -1.1472992776,
				"element": "H" 
			},
			{
				"x": 1.9967872652,
				"y": -1.7774445835,
				"z": -2.8841486954,
				"element": "H" 
			},
			{
				"x": 3.5015479215,
				"y": -1.3052192348,
				"z": -0.9771529353,
				"element": "H" 
			},
			{
				"x": -0.2892568456,
				"y": -2.0800667773,
				"z": -6.2079361675,
				"element": "H" 
			},
			{
				"x": -2.903095975,
				"y": -2.3590150268,
				"z": -3.5346253743,
				"element": "H" 
			},
			{
				"x": -3.807974163,
				"y": -1.055233396,
				"z": -4.3000517903,
				"element": "H" 
			},
			{
				"x": -2.0235171685,
				"y": 0.5753557681,
				"z": -3.7859014801,
				"element": "H" 
			},
			{
				"x": -2.3441874682,
				"y": -0.3135654102,
				"z": -2.3025304778,
				"element": "H" 
			}
		],
		 "valence_orbital": [ 
			{
				"type": "occ",
				"energy": -0.26618,
				"method": "rhf"
			},
			{
				"type": "occ",
				"energy": -0.25891,
				"method": "rhf"
			},
			{
				"type": "occ",
				"energy": -0.25249,
				"method": "rhf"
			},
			{
				"type": "occ",
				"energy": -0.2519,
				"method": "rhf"
			},
			{
				"type": "occ",
				"energy": -0.21692,
				"method": "rhf"
			},
			{
				"type": "unocc",
				"energy": -0.06123,
				"method": "rhf"
			},
			{
				"type": "unocc",
				"energy": -0.04023,
				"method": "rhf"
			},
			{
				"type": "unocc",
				"energy": -0.02681,
				"method": "rhf"
			},
			{
				"type": "unocc",
				"energy": -0.01327,
				"method": "rhf"
			},
			{
				"type": "unocc",
				"energy": 0.00852,
				"method": "rhf"
			}
		],
		"cosmo_sigma_profile": { 
			"-0.025": 0.0,
			"-0.024": 0.0,
			"-0.023": 0.0,
			"-0.022": 0.0,
			"-0.021": 0.0,
			"-0.02": 0.0,
			"-0.019": 0.0,
			"-0.018": 0.0,
			"-0.017": 0.0,
			"-0.016": 0.0,
			"-0.015": 0.766715781389,
			"-0.014": 1.89491021097,
			"-0.013": 1.93000973976,
			"-0.012": 2.30020880567,
			"-0.011": 1.65552018439,
			"-0.01": 1.35901603968,
			"-0.009": 2.42216440083,
			"-0.008": 3.92955814289,
			"-0.007": 11.2268579564,
			"-0.006": 24.3486199854,
			"-0.005": 27.5117074908,
			"-0.004": 24.5565608887,
			"-0.003": 20.3002932924,
			"-0.002": 19.4024892547,
			"-0.001": 19.8713836845,
			"0.0": 22.5863275597,
			"0.001": 23.1440798318,
			"0.002": 26.2754324451,
			"0.003": 26.3994408296,
			"0.004": 26.1523652395,
			"0.005": 5.68980345259,
			"0.006": 4.10043250669,
			"0.007": 4.97632393528,
			"0.008": 3.33043311169,
			"0.009": 4.29234374547,
			"0.01": 3.77293000986,
			"0.011": 4.07255385888,
			"0.012": 7.01532171243,
			"0.013": 10.3751692051,
			"0.014": 2.77964350158,
			"0.015": 0.0178263983541,
			"0.016": 0.0,
			"0.017": 0.0,
			"0.018": 0.0,
			"0.019": 0.0,
			"0.02": 0.0,
			"0.021": 0.0,
			"0.022": 0.0,
			"0.023": 0.0,
			"0.024": 0.0,
			"0.025": 0.0
		}
	}
}
