{
	 "smiles": "CC(O)(CS(=O)(=O)C1=CC=C(F)C=C1)C(=O)NC1=CC(=C(C=C1)C#N)C(F)(F)F", 
	 "Tm": 465.15, 
	 "num_atms": 43, 
	 "gaussian": { 
		 "optdone": 1, 
		 "sigma_profile": "yes", 
		 "theory": "DFT", 
		 "functional": "B3LYP", 
		 "basiset": "6-31G**", 
		 "properties": { 
			 "R2extent": 17796.1699, 
			 "electric_dipole_moment_norm": 12.5426795327, 
			 "electric_quadrupole_moment_norm": 36.3211577479, 
			 "total_energy": -1902.23333544, 
			 "HOMO_LUMO_gap": 0.18121, 
			 "cosmo_polarized_energy": -32.7, 
			 "cosmo_cavitation_energy": 51.98, 
			 "cosmo_dispersion_energy": -34.34, 
			 "cosmo_repulsion_energy": 2.44, 
			 "cosmo_total_nonelectrostatic_energy": 20.09, 
			 "SMD_solvation_energy": 11.23 
		},
		"coords": [
			{
				"x": 0.2300702043,
				"y": 1.9363062469,
				"z": 1.8299407336,
				"element": "C" 
			},
			{
				"x": 0.3475838823,
				"y": 1.2117986488,
				"z": 0.4782603528,
				"element": "C" 
			},
			{
				"x": 1.7211425072,
				"y": 1.0041449996,
				"z": 0.137825616,
				"element": "O" 
			},
			{
				"x": -0.3940995345,
				"y": 2.0159204333,
				"z": -0.6014414961,
				"element": "C" 
			},
			{
				"x": -0.1886065506,
				"y": 1.4231641233,
				"z": -2.3234384537,
				"element": "S" 
			},
			{
				"x": -1.2923309051,
				"y": 2.0370958132,
				"z": -3.0780797529,
				"element": "O" 
			},
			{
				"x": 0.0065389434,
				"y": -0.0352489537,
				"z": -2.2881716834,
				"element": "O" 
			},
			{
				"x": 1.3338172334,
				"y": 2.1754984852,
				"z": -2.9232233647,
				"element": "C" 
			},
			{
				"x": 2.5310985371,
				"y": 1.4580574747,
				"z": -2.8682195661,
				"element": "C" 
			},
			{
				"x": 3.6972302697,
				"y": 2.0350185219,
				"z": -3.3666623268,
				"element": "C" 
			},
			{
				"x": 3.6309538702,
				"y": 3.3158770451,
				"z": -3.909572274,
				"element": "C" 
			},
			{
				"x": 4.756157846,
				"y": 3.8744202005,
				"z": -4.387171536,
				"element": "F" 
			},
			{
				"x": 2.4416914214,
				"y": 4.0362647283,
				"z": -3.9826397004,
				"element": "C" 
			},
			{
				"x": 1.276912356,
				"y": 3.4527690207,
				"z": -3.4881770056,
				"element": "C" 
			},
			{
				"x": -0.3377865591,
				"y": -0.1710785907,
				"z": 0.6391193913,
				"element": "C" 
			},
			{
				"x": -1.5461150471,
				"y": -0.2250545882,
				"z": 0.8137457363,
				"element": "O" 
			},
			{
				"x": 0.5257735479,
				"y": -1.2306470057,
				"z": 0.6520253676,
				"element": "N" 
			},
			{
				"x": 0.2293880732,
				"y": -2.5918417456,
				"z": 0.7842946352,
				"element": "C" 
			},
			{
				"x": -1.0702059834,
				"y": -3.0720121901,
				"z": 1.0218307666,
				"element": "C" 
			},
			{
				"x": -1.2912987229,
				"y": -4.4370448253,
				"z": 1.1571240401,
				"element": "C" 
			},
			{
				"x": -0.2250409274,
				"y": -5.3556467872,
				"z": 1.058471239,
				"element": "C" 
			},
			{
				"x": 1.0677907301,
				"y": -4.8640884077,
				"z": 0.8174951648,
				"element": "C" 
			},
			{
				"x": 1.2925666465,
				"y": -3.5024623262,
				"z": 0.6828815937,
				"element": "C" 
			},
			{
				"x": -0.4081264922,
				"y": -6.7697272678,
				"z": 1.196276204,
				"element": "C" 
			},
			{
				"x": -0.4976212278,
				"y": -7.9245012318,
				"z": 1.3019895067,
				"element": "N" 
			},
			{
				"x": -2.6962591948,
				"y": -4.9356281352,
				"z": 1.4167522727,
				"element": "C" 
			},
			{
				"x": -3.5853479977,
				"y": -3.9251659099,
				"z": 1.4770360685,
				"element": "F" 
			},
			{
				"x": -3.1028029157,
				"y": -5.7786009821,
				"z": 0.4460489711,
				"element": "F" 
			},
			{
				"x": -2.7650739627,
				"y": -5.6065992264,
				"z": 2.5861012516,
				"element": "F" 
			},
			{
				"x": 0.6619849684,
				"y": 2.9419906176,
				"z": 1.7653122272,
				"element": "H" 
			},
			{
				"x": 0.7638848823,
				"y": 1.3736280727,
				"z": 2.6015228436,
				"element": "H" 
			},
			{
				"x": -0.8168645431,
				"y": 2.0254391776,
				"z": 2.1261932875,
				"element": "H" 
			},
			{
				"x": 2.2279265964,
				"y": 1.7902219297,
				"z": 0.3791087161,
				"element": "H" 
			},
			{
				"x": -1.471566106,
				"y": 1.946432423,
				"z": -0.4324331489,
				"element": "H" 
			},
			{
				"x": -0.1002986532,
				"y": 3.0696072215,
				"z": -0.5970973045,
				"element": "H" 
			},
			{
				"x": 2.5371730849,
				"y": 0.4596162151,
				"z": -2.4484195911,
				"element": "H" 
			},
			{
				"x": 4.6455332875,
				"y": 1.5091925384,
				"z": -3.3513106018,
				"element": "H" 
			},
			{
				"x": 2.4388622007,
				"y": 5.0230400177,
				"z": -4.4320614555,
				"element": "H" 
			},
			{
				"x": 0.3257228121,
				"y": 3.9692067224,
				"z": -3.5605854504,
				"element": "H" 
			},
			{
				"x": 1.4832273837,
				"y": -0.9844130669,
				"z": 0.4334879431,
				"element": "H" 
			},
			{
				"x": -1.8912132384,
				"y": -2.3745693405,
				"z": 1.0926151816,
				"element": "H" 
			},
			{
				"x": 1.8930566392,
				"y": -5.5629176308,
				"z": 0.737229877,
				"element": "H" 
			},
			{
				"x": 2.2995706379,
				"y": -3.1399624655,
				"z": 0.495615724,
				"element": "H" 
			}
		],
		 "valence_orbital": [ 
			{
				"type": "occ",
				"energy": -0.29163,
				"method": "rhf"
			},
			{
				"type": "occ",
				"energy": -0.28765,
				"method": "rhf"
			},
			{
				"type": "occ",
				"energy": -0.28013,
				"method": "rhf"
			},
			{
				"type": "occ",
				"energy": -0.27933,
				"method": "rhf"
			},
			{
				"type": "occ",
				"energy": -0.24661,
				"method": "rhf"
			},
			{
				"type": "unocc",
				"energy": -0.0654,
				"method": "rhf"
			},
			{
				"type": "unocc",
				"energy": -0.05014,
				"method": "rhf"
			},
			{
				"type": "unocc",
				"energy": -0.04263,
				"method": "rhf"
			},
			{
				"type": "unocc",
				"energy": -0.03804,
				"method": "rhf"
			},
			{
				"type": "unocc",
				"energy": 0.00307,
				"method": "rhf"
			}
		],
		"cosmo_sigma_profile": { 
			"-0.025": 0.0,
			"-0.024": 0.0,
			"-0.023": 0.0,
			"-0.022": 0.0,
			"-0.021": 0.0,
			"-0.02": 0.0,
			"-0.019": 0.0,
			"-0.018": 0.036089059712,
			"-0.017": 0.689502314923,
			"-0.016": 0.954341134534,
			"-0.015": 1.48595384698,
			"-0.014": 1.90824368985,
			"-0.013": 1.81982969489,
			"-0.012": 2.13971908243,
			"-0.011": 1.82324243015,
			"-0.01": 3.09006778919,
			"-0.009": 6.30020425969,
			"-0.008": 13.9699543801,
			"-0.007": 16.0435761185,
			"-0.006": 16.4188336367,
			"-0.005": 19.3277210373,
			"-0.004": 18.8353093736,
			"-0.003": 19.6255828029,
			"-0.002": 28.1456887756,
			"-0.001": 36.193289762,
			"0.0": 39.4586723717,
			"0.001": 34.344046816,
			"0.002": 41.9297223014,
			"0.003": 26.0569229697,
			"0.004": 15.8982162582,
			"0.005": 9.06871879633,
			"0.006": 6.71713278158,
			"0.007": 7.94289777265,
			"0.008": 7.65666053142,
			"0.009": 7.95847784256,
			"0.01": 9.54047869907,
			"0.011": 12.1152628172,
			"0.012": 8.57907777623,
			"0.013": 0.796366848831,
			"0.014": 0.0,
			"0.015": 0.0,
			"0.016": 0.0,
			"0.017": 0.0,
			"0.018": 0.0,
			"0.019": 0.0,
			"0.02": 0.0,
			"0.021": 0.0,
			"0.022": 0.0,
			"0.023": 0.0,
			"0.024": 0.0,
			"0.025": 0.0
		}
	}
}
