{
	 "smiles": "CCOC1=CC=C(NC(N)=O)C=C1", 
	 "Tm": 446.15, 
	 "num_atms": 25, 
	 "gaussian": { 
		 "optdone": 1, 
		 "sigma_profile": "yes", 
		 "theory": "DFT", 
		 "functional": "B3LYP", 
		 "basiset": "6-31G**", 
		 "properties": { 
			 "R2extent": 3963.6743, 
			 "electric_dipole_moment_norm": 4.63005921128, 
			 "electric_quadrupole_moment_norm": 14.6116317357, 
			 "total_energy": -610.163424737, 
			 "HOMO_LUMO_gap": 0.19371, 
			 "cosmo_polarized_energy": -15.41, 
			 "cosmo_cavitation_energy": 28.94, 
			 "cosmo_dispersion_energy": -21.4, 
			 "cosmo_repulsion_energy": 1.73, 
			 "cosmo_total_nonelectrostatic_energy": 9.28, 
			 "SMD_solvation_energy": 6.31 
		},
		"coords": [
			{
				"x": -3.7657219738,
				"y": -3.4579128823,
				"z": 0.4510227297,
				"element": "C" 
			},
			{
				"x": -2.7706643663,
				"y": -2.402400878,
				"z": 0.0013730935,
				"element": "C" 
			},
			{
				"x": -2.177707114,
				"y": -1.8429392271,
				"z": 1.1721316726,
				"element": "O" 
			},
			{
				"x": -1.2397969905,
				"y": -0.8624827491,
				"z": 1.0265739664,
				"element": "C" 
			},
			{
				"x": -0.6831912598,
				"y": -0.366305269,
				"z": 2.215741502,
				"element": "C" 
			},
			{
				"x": 0.2657131887,
				"y": 0.6448274565,
				"z": 2.1793267478,
				"element": "C" 
			},
			{
				"x": 0.7075009006,
				"y": 1.1767922369,
				"z": 0.9549880275,
				"element": "C" 
			},
			{
				"x": 1.7114829435,
				"y": 2.1733820318,
				"z": 0.9595661725,
				"element": "N" 
			},
			{
				"x": 1.8268833864,
				"y": 3.339642851,
				"z": 0.2149944065,
				"element": "C" 
			},
			{
				"x": 0.816132978,
				"y": 3.5879812181,
				"z": -0.6965493709,
				"element": "N" 
			},
			{
				"x": 2.7917518381,
				"y": 4.0796499964,
				"z": 0.3534612981,
				"element": "O" 
			},
			{
				"x": 0.1694324789,
				"y": 0.6592086853,
				"z": -0.2289128687,
				"element": "C" 
			},
			{
				"x": -0.8096746535,
				"y": -0.3387112338,
				"z": -0.1972565261,
				"element": "C" 
			},
			{
				"x": -4.2472450174,
				"y": -3.9156942268,
				"z": -0.418471789,
				"element": "H" 
			},
			{
				"x": -4.5396626639,
				"y": -3.0134950656,
				"z": 1.0829621135,
				"element": "H" 
			},
			{
				"x": -3.2627792902,
				"y": -4.2426487314,
				"z": 1.0228693457,
				"element": "H" 
			},
			{
				"x": -3.2719148203,
				"y": -1.6136639275,
				"z": -0.5781122299,
				"element": "H" 
			},
			{
				"x": -1.9928972591,
				"y": -2.8445347586,
				"z": -0.6376856518,
				"element": "H" 
			},
			{
				"x": -1.0222247737,
				"y": -0.7813942437,
				"z": 3.1592098093,
				"element": "H" 
			},
			{
				"x": 0.6732065066,
				"y": 1.0356513073,
				"z": 3.1078404909,
				"element": "H" 
			},
			{
				"x": 2.427520389,
				"y": 2.1173048844,
				"z": 1.669687146,
				"element": "H" 
			},
			{
				"x": 0.8367958285,
				"y": 4.5357188793,
				"z": -1.0434676623,
				"element": "H" 
			},
			{
				"x": -0.1016380976,
				"y": 3.2047292255,
				"z": -0.5179878541,
				"element": "H" 
			},
			{
				"x": 0.5264631276,
				"y": 1.026039903,
				"z": -1.1850685235,
				"element": "H" 
			},
			{
				"x": -1.2068652859,
				"y": -0.7108454825,
				"z": -1.1340360455,
				"element": "H" 
			}
		],
		 "valence_orbital": [ 
			{
				"type": "occ",
				"energy": -0.27506,
				"method": "rhf"
			},
			{
				"type": "occ",
				"energy": -0.26601,
				"method": "rhf"
			},
			{
				"type": "occ",
				"energy": -0.25966,
				"method": "rhf"
			},
			{
				"type": "occ",
				"energy": -0.24988,
				"method": "rhf"
			},
			{
				"type": "occ",
				"energy": -0.2057,
				"method": "rhf"
			},
			{
				"type": "unocc",
				"energy": -0.01199,
				"method": "rhf"
			},
			{
				"type": "unocc",
				"energy": 0.00272,
				"method": "rhf"
			},
			{
				"type": "unocc",
				"energy": 0.06996,
				"method": "rhf"
			},
			{
				"type": "unocc",
				"energy": 0.0889,
				"method": "rhf"
			},
			{
				"type": "unocc",
				"energy": 0.09227,
				"method": "rhf"
			}
		],
		"cosmo_sigma_profile": { 
			"-0.025": 0.0,
			"-0.024": 0.0,
			"-0.023": 0.0,
			"-0.022": 0.0,
			"-0.021": 0.0,
			"-0.02": 0.0,
			"-0.019": 0.0,
			"-0.018": 0.0,
			"-0.017": 0.0,
			"-0.016": 0.0,
			"-0.015": 0.0,
			"-0.014": 0.561527594117,
			"-0.013": 1.99212058676,
			"-0.012": 3.47144558574,
			"-0.011": 2.29129004144,
			"-0.01": 3.1897174343,
			"-0.009": 4.02701313935,
			"-0.008": 3.20737818477,
			"-0.007": 4.489482767,
			"-0.006": 6.99209899042,
			"-0.005": 14.0451982883,
			"-0.004": 20.4510683993,
			"-0.003": 21.7638072761,
			"-0.002": 14.9370762973,
			"-0.001": 14.4782566879,
			"0.0": 17.145306931,
			"0.001": 13.5576024912,
			"0.002": 10.2221435695,
			"0.003": 13.0789012353,
			"0.004": 14.3573344432,
			"0.005": 12.9339514225,
			"0.006": 3.93470640486,
			"0.007": 3.3406273738,
			"0.008": 3.14628966441,
			"0.009": 3.35713250014,
			"0.01": 2.87221128365,
			"0.011": 0.951048516675,
			"0.012": 1.67484430152,
			"0.013": 2.12899240435,
			"0.014": 6.31304565164,
			"0.015": 3.57611372426,
			"0.016": 0.0317003191486,
			"0.017": 0.0,
			"0.018": 0.0,
			"0.019": 0.0,
			"0.02": 0.0,
			"0.021": 0.0,
			"0.022": 0.0,
			"0.023": 0.0,
			"0.024": 0.0,
			"0.025": 0.0
		}
	}
}
