{
	 "smiles": "NC1=NC(=NC(N)=N1)C1=CC(=CC=C1)C(F)(F)F", 
	 "Tm": 482.15, 
	 "num_atms": 26, 
	 "gaussian": { 
		 "optdone": 1, 
		 "sigma_profile": "yes", 
		 "theory": "DFT", 
		 "functional": "B3LYP", 
		 "basiset": "6-31G**", 
		 "properties": { 
			 "R2extent": 5649.2766, 
			 "electric_dipole_moment_norm": 4.16169713098, 
			 "electric_quadrupole_moment_norm": 14.0189262674, 
			 "total_energy": -959.224552038, 
			 "HOMO_LUMO_gap": 0.18976, 
			 "cosmo_polarized_energy": -13.86, 
			 "cosmo_cavitation_energy": 32.82, 
			 "cosmo_dispersion_energy": -23.83, 
			 "cosmo_repulsion_energy": 1.81, 
			 "cosmo_total_nonelectrostatic_energy": 10.8, 
			 "SMD_solvation_energy": 3.09 
		},
		"coords": [
			{
				"x": -2.7585132121,
				"y": 3.5140546768,
				"z": 2.1100759973,
				"element": "N" 
			},
			{
				"x": -1.6308259539,
				"y": 2.918111964,
				"z": 1.6516747971,
				"element": "C" 
			},
			{
				"x": -1.7658635828,
				"y": 1.6772102564,
				"z": 1.1390209937,
				"element": "N" 
			},
			{
				"x": -0.6272091526,
				"y": 1.1419007137,
				"z": 0.6826742085,
				"element": "C" 
			},
			{
				"x": 0.5729197873,
				"y": 1.7329102285,
				"z": 0.7020830455,
				"element": "N" 
			},
			{
				"x": 0.5762629064,
				"y": 2.9706127181,
				"z": 1.2394321475,
				"element": "C" 
			},
			{
				"x": 1.7648382284,
				"y": 3.6187275954,
				"z": 1.2682230309,
				"element": "N" 
			},
			{
				"x": -0.4891622654,
				"y": 3.6172922193,
				"z": 1.7368997337,
				"element": "N" 
			},
			{
				"x": -0.7011366202,
				"y": -0.2286346291,
				"z": 0.107256719,
				"element": "C" 
			},
			{
				"x": 0.4549624093,
				"y": -0.8486815348,
				"z": -0.3831880206,
				"element": "C" 
			},
			{
				"x": 0.383773803,
				"y": -2.1307423006,
				"z": -0.9254607218,
				"element": "C" 
			},
			{
				"x": -0.838673961,
				"y": -2.8078770561,
				"z": -0.9856349884,
				"element": "C" 
			},
			{
				"x": -1.9906254838,
				"y": -2.1913134498,
				"z": -0.498418515,
				"element": "C" 
			},
			{
				"x": -1.9248314221,
				"y": -0.9101365181,
				"z": 0.0459958918,
				"element": "C" 
			},
			{
				"x": 1.6383619889,
				"y": -2.8151454078,
				"z": -1.3963991071,
				"element": "C" 
			},
			{
				"x": 1.3931571424,
				"y": -3.6672654219,
				"z": -2.4183851844,
				"element": "F" 
			},
			{
				"x": 2.2094669776,
				"y": -3.5466534468,
				"z": -0.4095027209,
				"element": "F" 
			},
			{
				"x": 2.5706909041,
				"y": -1.9333900923,
				"z": -1.818613654,
				"element": "F" 
			},
			{
				"x": -2.6796129972,
				"y": 4.3870512385,
				"z": 2.6042153445,
				"element": "H" 
			},
			{
				"x": -3.601441991,
				"y": 2.9679507442,
				"z": 2.1694566771,
				"element": "H" 
			},
			{
				"x": 2.5946532747,
				"y": 3.1221378765,
				"z": 0.9908467924,
				"element": "H" 
			},
			{
				"x": 1.8286902122,
				"y": 4.5032158073,
				"z": 1.7432684897,
				"element": "H" 
			},
			{
				"x": 1.3954497792,
				"y": -0.3135877879,
				"z": -0.3401161375,
				"element": "H" 
			},
			{
				"x": -0.8847958273,
				"y": -3.801783694,
				"z": -1.4179398827,
				"element": "H" 
			},
			{
				"x": -2.9426717811,
				"y": -2.7111045651,
				"z": -0.5472804217,
				"element": "H" 
			},
			{
				"x": -2.8116631632,
				"y": -0.4169601345,
				"z": 0.4269154855,
				"element": "H" 
			}
		],
		 "valence_orbital": [ 
			{
				"type": "occ",
				"energy": -0.26122,
				"method": "rhf"
			},
			{
				"type": "occ",
				"energy": -0.26094,
				"method": "rhf"
			},
			{
				"type": "occ",
				"energy": -0.26024,
				"method": "rhf"
			},
			{
				"type": "occ",
				"energy": -0.24796,
				"method": "rhf"
			},
			{
				"type": "occ",
				"energy": -0.24213,
				"method": "rhf"
			},
			{
				"type": "unocc",
				"energy": -0.05237,
				"method": "rhf"
			},
			{
				"type": "unocc",
				"energy": -0.01887,
				"method": "rhf"
			},
			{
				"type": "unocc",
				"energy": 0.01046,
				"method": "rhf"
			},
			{
				"type": "unocc",
				"energy": 0.02917,
				"method": "rhf"
			},
			{
				"type": "unocc",
				"energy": 0.08493,
				"method": "rhf"
			}
		],
		"cosmo_sigma_profile": { 
			"-0.025": 0.0,
			"-0.024": 0.0,
			"-0.023": 0.0,
			"-0.022": 0.0,
			"-0.021": 0.0,
			"-0.02": 0.0,
			"-0.019": 0.0,
			"-0.018": 0.0,
			"-0.017": 0.0,
			"-0.016": 0.0,
			"-0.015": 0.266509486739,
			"-0.014": 3.40602552474,
			"-0.013": 4.07056406923,
			"-0.012": 3.64897037881,
			"-0.011": 3.35670655565,
			"-0.01": 5.47869614734,
			"-0.009": 3.5561704344,
			"-0.008": 2.90348434945,
			"-0.007": 5.71853023286,
			"-0.006": 7.81599144681,
			"-0.005": 8.32667128761,
			"-0.004": 9.69701513285,
			"-0.003": 8.56977321211,
			"-0.002": 10.437976678,
			"-0.001": 14.6219538689,
			"0.0": 18.4099300733,
			"0.001": 24.4594828518,
			"0.002": 39.7469105922,
			"0.003": 44.9800806477,
			"0.004": 11.2029249794,
			"0.005": 8.08497087625,
			"0.006": 5.95024904293,
			"0.007": 5.01506914945,
			"0.008": 4.18182867663,
			"0.009": 3.61490476213,
			"0.01": 2.4632063459,
			"0.011": 0.76732759323,
			"0.012": 1.29575264639,
			"0.013": 0.829741899699,
			"0.014": 0.21936734744,
			"0.015": 0.0,
			"0.016": 0.0,
			"0.017": 0.0,
			"0.018": 0.0,
			"0.019": 0.0,
			"0.02": 0.0,
			"0.021": 0.0,
			"0.022": 0.0,
			"0.023": 0.0,
			"0.024": 0.0,
			"0.025": 0.0
		}
	}
}
