{
	 "smiles": "NC1=C(C=CC2=CC=CC=C2)C=CC=C1", 
	 "Tm": 379.15, 
	 "num_atms": 28, 
	 "gaussian": { 
		 "optdone": 1, 
		 "sigma_profile": "yes", 
		 "theory": "DFT", 
		 "functional": "B3LYP", 
		 "basiset": "6-31G**", 
		 "properties": { 
			 "R2extent": 4833.2086, 
			 "electric_dipole_moment_norm": 1.63076574345, 
			 "electric_quadrupole_moment_norm": 10.9619350865, 
			 "total_energy": -596.073569265, 
			 "HOMO_LUMO_gap": 0.14762, 
			 "cosmo_polarized_energy": -9.96, 
			 "cosmo_cavitation_energy": 31.86, 
			 "cosmo_dispersion_energy": -23.27, 
			 "cosmo_repulsion_energy": 1.81, 
			 "cosmo_total_nonelectrostatic_energy": 10.39, 
			 "SMD_solvation_energy": 5.17 
		},
		"coords": [
			{
				"x": -2.9011539848,
				"y": 1.1940177406,
				"z": 0.1374814659,
				"element": "N" 
			},
			{
				"x": -1.9408120039,
				"y": 2.2089235931,
				"z": 0.2284661062,
				"element": "C" 
			},
			{
				"x": -0.5881580072,
				"y": 1.9443656082,
				"z": -0.1149099737,
				"element": "C" 
			},
			{
				"x": -0.2043242272,
				"y": 0.6112244838,
				"z": -0.5904609511,
				"element": "C" 
			},
			{
				"x": 1.0048127519,
				"y": 0.034139224,
				"z": -0.4280141406,
				"element": "C" 
			},
			{
				"x": 1.4341232613,
				"y": -1.269345459,
				"z": -0.9450262346,
				"element": "C" 
			},
			{
				"x": 0.7080960751,
				"y": -1.9952304308,
				"z": -1.9103941493,
				"element": "C" 
			},
			{
				"x": 1.1511439733,
				"y": -3.2379247629,
				"z": -2.353250406,
				"element": "C" 
			},
			{
				"x": 2.3360284072,
				"y": -3.7876413899,
				"z": -1.8538362714,
				"element": "C" 
			},
			{
				"x": 3.0756462939,
				"y": -3.0765642031,
				"z": -0.9076435898,
				"element": "C" 
			},
			{
				"x": 2.6302867632,
				"y": -1.83333364,
				"z": -0.4625603023,
				"element": "C" 
			},
			{
				"x": 0.3402841985,
				"y": 2.9958512383,
				"z": -0.0223779172,
				"element": "C" 
			},
			{
				"x": -0.0326983573,
				"y": 4.2731706159,
				"z": 0.3849366898,
				"element": "C" 
			},
			{
				"x": -1.3706194133,
				"y": 4.525452967,
				"z": 0.6998247311,
				"element": "C" 
			},
			{
				"x": -2.3121570917,
				"y": 3.5031402382,
				"z": 0.624092832,
				"element": "C" 
			},
			{
				"x": -3.780815315,
				"y": 1.4178061511,
				"z": 0.5834162755,
				"element": "H" 
			},
			{
				"x": -2.5759965924,
				"y": 0.2771221768,
				"z": 0.4132726043,
				"element": "H" 
			},
			{
				"x": -0.9817660896,
				"y": 0.0632964278,
				"z": -1.1218702594,
				"element": "H" 
			},
			{
				"x": 1.7502971851,
				"y": 0.5591206038,
				"z": 0.1682996237,
				"element": "H" 
			},
			{
				"x": -0.200913623,
				"y": -1.5746270561,
				"z": -2.3296692497,
				"element": "H" 
			},
			{
				"x": 0.5753310606,
				"y": -3.7776562116,
				"z": -3.1000884464,
				"element": "H" 
			},
			{
				"x": 2.6812145324,
				"y": -4.7554604024,
				"z": -2.2056469445,
				"element": "H" 
			},
			{
				"x": 4.0011902664,
				"y": -3.4894758146,
				"z": -0.5161521094,
				"element": "H" 
			},
			{
				"x": 3.2102774537,
				"y": -1.2859849035,
				"z": 0.27652466,
				"element": "H" 
			},
			{
				"x": 1.3684022804,
				"y": 2.803618894,
				"z": -0.314985005,
				"element": "H" 
			},
			{
				"x": 0.7051619347,
				"y": 5.0677963337,
				"z": 0.4353044032,
				"element": "H" 
			},
			{
				"x": -1.6831033043,
				"y": 5.5189348224,
				"z": 1.0090454723,
				"element": "H" 
			},
			{
				"x": -3.350078428,
				"y": 3.698863155,
				"z": 0.8844210861,
				"element": "H" 
			}
		],
		 "valence_orbital": [ 
			{
				"type": "occ",
				"energy": -0.29955,
				"method": "rhf"
			},
			{
				"type": "occ",
				"energy": -0.25427,
				"method": "rhf"
			},
			{
				"type": "occ",
				"energy": -0.2482,
				"method": "rhf"
			},
			{
				"type": "occ",
				"energy": -0.21776,
				"method": "rhf"
			},
			{
				"type": "occ",
				"energy": -0.19182,
				"method": "rhf"
			},
			{
				"type": "unocc",
				"energy": -0.0442,
				"method": "rhf"
			},
			{
				"type": "unocc",
				"energy": 0.00224,
				"method": "rhf"
			},
			{
				"type": "unocc",
				"energy": 0.01348,
				"method": "rhf"
			},
			{
				"type": "unocc",
				"energy": 0.02197,
				"method": "rhf"
			},
			{
				"type": "unocc",
				"energy": 0.06642,
				"method": "rhf"
			}
		],
		"cosmo_sigma_profile": { 
			"-0.025": 0.0,
			"-0.024": 0.0,
			"-0.023": 0.0,
			"-0.022": 0.0,
			"-0.021": 0.0,
			"-0.02": 0.0,
			"-0.019": 0.0,
			"-0.018": 0.0,
			"-0.017": 0.0,
			"-0.016": 0.0,
			"-0.015": 0.0,
			"-0.014": 0.0,
			"-0.013": 0.100795751337,
			"-0.012": 1.55001688416,
			"-0.011": 2.79001450568,
			"-0.01": 2.73999713421,
			"-0.009": 3.22774690213,
			"-0.008": 2.58655988187,
			"-0.007": 3.10062852024,
			"-0.006": 9.22085904865,
			"-0.005": 22.396082115,
			"-0.004": 21.032552686,
			"-0.003": 21.8762874116,
			"-0.002": 15.4529396231,
			"-0.001": 14.9146115031,
			"0.0": 13.2538803198,
			"0.001": 12.4599624426,
			"0.002": 15.3899514141,
			"0.003": 17.2062508931,
			"0.004": 21.2933362154,
			"0.005": 24.3182800848,
			"0.006": 18.230908841,
			"0.007": 6.40988452864,
			"0.008": 1.21027778057,
			"0.009": 0.561950395659,
			"0.01": 0.517158074288,
			"0.011": 1.03584501721,
			"0.012": 0.283704119206,
			"0.013": 0.676311796587,
			"0.014": 0.582950237491,
			"0.015": 0.0316008575559,
			"0.016": 0.0,
			"0.017": 0.0,
			"0.018": 0.0,
			"0.019": 0.0,
			"0.02": 0.0,
			"0.021": 0.0,
			"0.022": 0.0,
			"0.023": 0.0,
			"0.024": 0.0,
			"0.025": 0.0
		}
	}
}
