{
	 "smiles": "OC(=O)C1=CC2=C(N1)C(F)=CC=C2F", 
	 "Tm": 503.15, 
	 "num_atms": 19, 
	 "gaussian": { 
		 "optdone": 1, 
		 "sigma_profile": "yes", 
		 "theory": "DFT", 
		 "functional": "B3LYP", 
		 "basiset": "6-31G**", 
		 "properties": { 
			 "R2extent": 3518.5273, 
			 "electric_dipole_moment_norm": 2.84348600665, 
			 "electric_quadrupole_moment_norm": 8.93059906277, 
			 "total_energy": -750.849473459, 
			 "HOMO_LUMO_gap": 0.16356, 
			 "cosmo_polarized_energy": -14.13, 
			 "cosmo_cavitation_energy": 25.47, 
			 "cosmo_dispersion_energy": -18.58, 
			 "cosmo_repulsion_energy": 1.4, 
			 "cosmo_total_nonelectrostatic_energy": 8.29, 
			 "SMD_solvation_energy": 6.21 
		},
		"coords": [
			{
				"x": -1.22479545,
				"y": -2.0435572173,
				"z": 1.7385459371,
				"element": "O" 
			},
			{
				"x": -0.7287240768,
				"y": -0.8084132003,
				"z": 1.4951640473,
				"element": "C" 
			},
			{
				"x": -0.5220043102,
				"y": -0.0300151249,
				"z": 2.4013695787,
				"element": "O" 
			},
			{
				"x": -0.4506256363,
				"y": -0.4578909061,
				"z": 0.0892079855,
				"element": "C" 
			},
			{
				"x": -0.5878427316,
				"y": -1.1365012381,
				"z": -1.1071254053,
				"element": "C" 
			},
			{
				"x": -0.144359072,
				"y": -0.2520367432,
				"z": -2.1353918874,
				"element": "C" 
			},
			{
				"x": 0.2528787833,
				"y": 0.95625188,
				"z": -1.49943744,
				"element": "C" 
			},
			{
				"x": 0.0568464903,
				"y": 0.8029835693,
				"z": -0.1554606964,
				"element": "N" 
			},
			{
				"x": 0.7421119135,
				"y": 2.0358014842,
				"z": -2.2454539382,
				"element": "C" 
			},
			{
				"x": 1.1079627801,
				"y": 3.1646770065,
				"z": -1.5991964079,
				"element": "F" 
			},
			{
				"x": 0.8394535274,
				"y": 1.9242969321,
				"z": -3.6155692459,
				"element": "C" 
			},
			{
				"x": 0.4491354114,
				"y": 0.7296984687,
				"z": -4.2680360019,
				"element": "C" 
			},
			{
				"x": -0.0322974998,
				"y": -0.3328664322,
				"z": -3.5344578769,
				"element": "C" 
			},
			{
				"x": -0.4067506196,
				"y": -1.4753413849,
				"z": -4.1469139825,
				"element": "F" 
			},
			{
				"x": -1.3304546814,
				"y": -2.5393600791,
				"z": 0.9143933668,
				"element": "H" 
			},
			{
				"x": -0.9570750776,
				"y": -2.1415966377,
				"z": -1.2566673949,
				"element": "H" 
			},
			{
				"x": 0.2372300503,
				"y": 1.4712038155,
				"z": 0.5796584063,
				"element": "H" 
			},
			{
				"x": 1.2190654926,
				"y": 2.76398259,
				"z": -4.186812247,
				"element": "H" 
			},
			{
				"x": 0.5256447063,
				"y": 0.6418832176,
				"z": -5.3456167972,
				"element": "H" 
			}
		],
		 "valence_orbital": [ 
			{
				"type": "occ",
				"energy": -0.32653,
				"method": "rhf"
			},
			{
				"type": "occ",
				"energy": -0.29747,
				"method": "rhf"
			},
			{
				"type": "occ",
				"energy": -0.29079,
				"method": "rhf"
			},
			{
				"type": "occ",
				"energy": -0.25283,
				"method": "rhf"
			},
			{
				"type": "occ",
				"energy": -0.22587,
				"method": "rhf"
			},
			{
				"type": "unocc",
				"energy": -0.06231,
				"method": "rhf"
			},
			{
				"type": "unocc",
				"energy": -0.00114,
				"method": "rhf"
			},
			{
				"type": "unocc",
				"energy": 0.01455,
				"method": "rhf"
			},
			{
				"type": "unocc",
				"energy": 0.04257,
				"method": "rhf"
			},
			{
				"type": "unocc",
				"energy": 0.07704,
				"method": "rhf"
			}
		],
		"cosmo_sigma_profile": { 
			"-0.025": 0.0,
			"-0.024": 0.0,
			"-0.023": 0.0,
			"-0.022": 0.0,
			"-0.021": 0.0,
			"-0.02": 0.0,
			"-0.019": 0.682706557653,
			"-0.018": 1.23495104451,
			"-0.017": 1.27336000602,
			"-0.016": 0.869159605448,
			"-0.015": 2.39526297358,
			"-0.014": 1.07482928771,
			"-0.013": 1.28908143599,
			"-0.012": 2.09010418485,
			"-0.011": 2.45383911795,
			"-0.01": 1.88679394888,
			"-0.009": 2.31368435325,
			"-0.008": 4.06998782736,
			"-0.007": 6.235727185,
			"-0.006": 5.82669422774,
			"-0.005": 7.35391076066,
			"-0.004": 7.63094504771,
			"-0.003": 7.8742249717,
			"-0.002": 9.71259487931,
			"-0.001": 9.95742148712,
			"0.0": 15.9654121559,
			"0.001": 26.2401711368,
			"0.002": 19.4558982932,
			"0.003": 18.289494839,
			"0.004": 20.5181533211,
			"0.005": 4.53198807967,
			"0.006": 2.03786267907,
			"0.007": 2.44884118292,
			"0.008": 2.75778693648,
			"0.009": 3.33285146959,
			"0.01": 5.29277015037,
			"0.011": 4.43551144184,
			"0.012": 2.90105005154,
			"0.013": 1.07330774206,
			"0.014": 0.0,
			"0.015": 0.0,
			"0.016": 0.0,
			"0.017": 0.0,
			"0.018": 0.0,
			"0.019": 0.0,
			"0.02": 0.0,
			"0.021": 0.0,
			"0.022": 0.0,
			"0.023": 0.0,
			"0.024": 0.0,
			"0.025": 0.0
		}
	}
}
