{
	 "smiles": "OC1=CC(F)=C(Br)C(F)=C1", 
	 "Tm": 347.15, 
	 "num_atms": 13, 
	 "gaussian": { 
		 "optdone": 1, 
		 "sigma_profile": "yes", 
		 "theory": "DFT", 
		 "functional": "B3LYP", 
		 "basiset": "6-31G**", 
		 "properties": { 
			 "R2extent": 4304.2481, 
			 "electric_dipole_moment_norm": 3.14903858027, 
			 "electric_quadrupole_moment_norm": 6.38203235185, 
			 "total_energy": -3076.72873113, 
			 "HOMO_LUMO_gap": 0.2188, 
			 "cosmo_polarized_energy": -8.61, 
			 "cosmo_cavitation_energy": 20.97, 
			 "cosmo_dispersion_energy": -15.87, 
			 "cosmo_repulsion_energy": 1.24, 
			 "cosmo_total_nonelectrostatic_energy": 6.34, 
			 "SMD_solvation_energy": 3.94 
		},
		"coords": [
			{
				"x": -0.6076528269,
				"y": -1.2514438762,
				"z": 0.4488257446,
				"element": "O" 
			},
			{
				"x": 0.22629995,
				"y": -0.1892640141,
				"z": 0.2897800846,
				"element": "C" 
			},
			{
				"x": -0.2249518853,
				"y": 0.8583315701,
				"z": -0.5203474221,
				"element": "C" 
			},
			{
				"x": 0.5958873921,
				"y": 1.9600581898,
				"z": -0.7077735047,
				"element": "C" 
			},
			{
				"x": 0.1600809966,
				"y": 2.9607945372,
				"z": -1.4839420851,
				"element": "F" 
			},
			{
				"x": 1.858461047,
				"y": 2.0627080111,
				"z": -0.116791358,
				"element": "C" 
			},
			{
				"x": 2.9539754748,
				"y": 3.5776558931,
				"z": -0.3908058277,
				"element": "Br" 
			},
			{
				"x": 2.2755207203,
				"y": 1.0003576813,
				"z": 0.6838372333,
				"element": "C" 
			},
			{
				"x": 3.4786893484,
				"y": 1.055013508,
				"z": 1.2708756648,
				"element": "F" 
			},
			{
				"x": 1.4845059846,
				"y": -0.1222557581,
				"z": 0.8981065344,
				"element": "C" 
			},
			{
				"x": -0.1921958847,
				"y": -1.9067675076,
				"z": 1.0241652283,
				"element": "H" 
			},
			{
				"x": -1.1974701582,
				"y": 0.8135602,
				"z": -0.9944198313,
				"element": "H" 
			},
			{
				"x": 1.8622498413,
				"y": -0.9183484346,
				"z": 1.5315895389,
				"element": "H" 
			}
		],
		 "valence_orbital": [ 
			{
				"type": "occ",
				"energy": -0.35583,
				"method": "rhf"
			},
			{
				"type": "occ",
				"energy": -0.30539,
				"method": "rhf"
			},
			{
				"type": "occ",
				"energy": -0.29266,
				"method": "rhf"
			},
			{
				"type": "occ",
				"energy": -0.26167,
				"method": "rhf"
			},
			{
				"type": "occ",
				"energy": -0.234,
				"method": "rhf"
			},
			{
				"type": "unocc",
				"energy": -0.0152,
				"method": "rhf"
			},
			{
				"type": "unocc",
				"energy": -0.01116,
				"method": "rhf"
			},
			{
				"type": "unocc",
				"energy": -0.00597,
				"method": "rhf"
			},
			{
				"type": "unocc",
				"energy": 0.05363,
				"method": "rhf"
			},
			{
				"type": "unocc",
				"energy": 0.10008,
				"method": "rhf"
			}
		],
		"cosmo_sigma_profile": { 
			"-0.025": 0.0,
			"-0.024": 0.0,
			"-0.023": 0.0,
			"-0.022": 0.0,
			"-0.021": 0.0,
			"-0.02": 0.0,
			"-0.019": 0.527678634149,
			"-0.018": 1.36996773863,
			"-0.017": 1.28550803246,
			"-0.016": 1.1822909063,
			"-0.015": 0.969678419241,
			"-0.014": 0.514663236309,
			"-0.013": 0.701006622252,
			"-0.012": 1.36450070219,
			"-0.011": 1.73935483975,
			"-0.01": 1.00739407158,
			"-0.009": 1.70661827861,
			"-0.008": 2.84935569538,
			"-0.007": 3.10498926849,
			"-0.006": 3.55697981437,
			"-0.005": 4.10748871401,
			"-0.004": 4.0705295213,
			"-0.003": 4.70312065807,
			"-0.002": 5.56609201387,
			"-0.001": 13.5397558493,
			"0.0": 22.4003976306,
			"0.001": 19.3608044461,
			"0.002": 16.9890269717,
			"0.003": 23.5732431922,
			"0.004": 22.7170881887,
			"0.005": 5.66324536402,
			"0.006": 1.5490446832,
			"0.007": 0.999739537032,
			"0.008": 1.15603369092,
			"0.009": 1.70842657586,
			"0.01": 1.90249530479,
			"0.011": 0.337297083616,
			"0.012": 0.0,
			"0.013": 0.0,
			"0.014": 0.0,
			"0.015": 0.0,
			"0.016": 0.0,
			"0.017": 0.0,
			"0.018": 0.0,
			"0.019": 0.0,
			"0.02": 0.0,
			"0.021": 0.0,
			"0.022": 0.0,
			"0.023": 0.0,
			"0.024": 0.0,
			"0.025": 0.0
		}
	}
}
