{
	 "smiles": "COC1=C(C=O)C2=C(C=CC=C2)C=C1", 
	 "Tm": 356.65, 
	 "num_atms": 24, 
	 "gaussian": { 
		 "optdone": 1, 
		 "sigma_profile": "yes", 
		 "theory": "DFT", 
		 "functional": "B3LYP", 
		 "basiset": "6-31G**", 
		 "properties": { 
			 "R2extent": 3274.9886, 
			 "electric_dipole_moment_norm": 4.92643910548, 
			 "electric_quadrupole_moment_norm": 18.2892701229, 
			 "total_energy": -613.738359749, 
			 "HOMO_LUMO_gap": 0.14739, 
			 "cosmo_polarized_energy": -10.74, 
			 "cosmo_cavitation_energy": 27.51, 
			 "cosmo_dispersion_energy": -20.54, 
			 "cosmo_repulsion_energy": 1.57, 
			 "cosmo_total_nonelectrostatic_energy": 8.55, 
			 "SMD_solvation_energy": 6.22 
		},
		"coords": [
			{
				"x": 0.1609082303,
				"y": -4.5719288087,
				"z": -0.1612607272,
				"element": "C" 
			},
			{
				"x": 0.1760141134,
				"y": -3.1957538827,
				"z": -0.5160848072,
				"element": "O" 
			},
			{
				"x": 0.1872686248,
				"y": -2.2461317801,
				"z": 0.4590123319,
				"element": "C" 
			},
			{
				"x": 0.1985383611,
				"y": -0.9017376617,
				"z": 0.0469028764,
				"element": "C" 
			},
			{
				"x": 0.1967162824,
				"y": -0.6351014641,
				"z": -1.4066188443,
				"element": "C" 
			},
			{
				"x": 0.2053425592,
				"y": 0.4634036957,
				"z": -1.9465659053,
				"element": "O" 
			},
			{
				"x": 0.2111624462,
				"y": 0.1370380237,
				"z": 1.0466221331,
				"element": "C" 
			},
			{
				"x": 0.2118970326,
				"y": -0.2278160393,
				"z": 2.4341808386,
				"element": "C" 
			},
			{
				"x": 0.2243461521,
				"y": 0.7781611213,
				"z": 3.4362678149,
				"element": "C" 
			},
			{
				"x": 0.2357393859,
				"y": 2.1103326667,
				"z": 3.0948502012,
				"element": "C" 
			},
			{
				"x": 0.2349710433,
				"y": 2.4764096316,
				"z": 1.7295797216,
				"element": "C" 
			},
			{
				"x": 0.2230725594,
				"y": 1.5249486763,
				"z": 0.7306352743,
				"element": "C" 
			},
			{
				"x": 0.2000444629,
				"y": -1.6004998911,
				"z": 2.7851561476,
				"element": "C" 
			},
			{
				"x": 0.1879939083,
				"y": -2.5908641359,
				"z": 1.8331031601,
				"element": "C" 
			},
			{
				"x": -0.7356772503,
				"y": -4.8321357361,
				"z": 0.4139937602,
				"element": "H" 
			},
			{
				"x": 0.1517949704,
				"y": -5.1183228881,
				"z": -1.105195992,
				"element": "H" 
			},
			{
				"x": 1.0544848066,
				"y": -4.8531612862,
				"z": 0.4087845898,
				"element": "H" 
			},
			{
				"x": 0.1863514988,
				"y": -1.5461599486,
				"z": -2.0297252026,
				"element": "H" 
			},
			{
				"x": 0.2245668419,
				"y": 0.4720877614,
				"z": 4.4794499453,
				"element": "H" 
			},
			{
				"x": 0.2452351329,
				"y": 2.876318871,
				"z": 3.8645848274,
				"element": "H" 
			},
			{
				"x": 0.2439031658,
				"y": 3.5287149247,
				"z": 1.459050091,
				"element": "H" 
			},
			{
				"x": 0.2226030397,
				"y": 1.8158525935,
				"z": -0.3100567509,
				"element": "H" 
			},
			{
				"x": 0.2006074272,
				"y": -1.8698519573,
				"z": 3.8384675504,
				"element": "H" 
			},
			{
				"x": 0.179215205,
				"y": -3.6292024862,
				"z": 2.1390669655,
				"element": "H" 
			}
		],
		 "valence_orbital": [ 
			{
				"type": "occ",
				"energy": -0.31104,
				"method": "rhf"
			},
			{
				"type": "occ",
				"energy": -0.27813,
				"method": "rhf"
			},
			{
				"type": "occ",
				"energy": -0.2399,
				"method": "rhf"
			},
			{
				"type": "occ",
				"energy": -0.23345,
				"method": "rhf"
			},
			{
				"type": "occ",
				"energy": -0.21449,
				"method": "rhf"
			},
			{
				"type": "unocc",
				"energy": -0.0671,
				"method": "rhf"
			},
			{
				"type": "unocc",
				"energy": -0.00752,
				"method": "rhf"
			},
			{
				"type": "unocc",
				"energy": -0.00249,
				"method": "rhf"
			},
			{
				"type": "unocc",
				"energy": 0.05496,
				"method": "rhf"
			},
			{
				"type": "unocc",
				"energy": 0.0825,
				"method": "rhf"
			}
		],
		"cosmo_sigma_profile": { 
			"-0.025": 0.0,
			"-0.024": 0.0,
			"-0.023": 0.0,
			"-0.022": 0.0,
			"-0.021": 0.0,
			"-0.02": 0.0,
			"-0.019": 0.0,
			"-0.018": 0.0,
			"-0.017": 0.0,
			"-0.016": 0.0,
			"-0.015": 0.0,
			"-0.014": 0.0,
			"-0.013": 0.0,
			"-0.012": 0.0,
			"-0.011": 0.0,
			"-0.01": 0.0,
			"-0.009": 0.0,
			"-0.008": 0.998789156562,
			"-0.007": 7.6093261531,
			"-0.006": 17.4297151618,
			"-0.005": 17.5788262668,
			"-0.004": 18.9234625447,
			"-0.003": 16.4561921543,
			"-0.002": 12.9419883927,
			"-0.001": 12.5851143561,
			"0.0": 12.8527616785,
			"0.001": 16.4542035726,
			"0.002": 19.2380298158,
			"0.003": 21.9967247416,
			"0.004": 15.7942004474,
			"0.005": 12.1294142235,
			"0.006": 2.6084298614,
			"0.007": 1.99409941172,
			"0.008": 2.06588411698,
			"0.009": 1.73775146263,
			"0.01": 1.98243072021,
			"0.011": 2.89651603659,
			"0.012": 2.29697110128,
			"0.013": 1.94811093705,
			"0.014": 0.409541934588,
			"0.015": 0.0,
			"0.016": 0.0,
			"0.017": 0.0,
			"0.018": 0.0,
			"0.019": 0.0,
			"0.02": 0.0,
			"0.021": 0.0,
			"0.022": 0.0,
			"0.023": 0.0,
			"0.024": 0.0,
			"0.025": 0.0
		}
	}
}
