{
	 "smiles": "CCOC(=O)C1=C(NC2=CC3=C(C=C12)C(C(=O)OCC)=C(N3)C1=CC=CC=C1)C1=CC=CC=C1", 
	 "Tm": 413.15, 
	 "num_atms": 58, 
	 "gaussian": { 
		 "optdone": 1, 
		 "sigma_profile": "yes", 
		 "theory": "DFT", 
		 "functional": "B3LYP", 
		 "basiset": "6-31G**", 
		 "properties": { 
			 "R2extent": 22907.3944, 
			 "electric_dipole_moment_norm": 5.74337437836, 
			 "electric_quadrupole_moment_norm": 29.7453299815, 
			 "total_energy": -1491.90968499, 
			 "HOMO_LUMO_gap": 0.13732, 
			 "cosmo_polarized_energy": -29.76, 
			 "cosmo_cavitation_energy": 62.59, 
			 "cosmo_dispersion_energy": -42.13, 
			 "cosmo_repulsion_energy": 3.14, 
			 "cosmo_total_nonelectrostatic_energy": 23.6, 
			 "SMD_solvation_energy": 11.18 
		},
		"coords": [
			{
				"x": -3.052273258,
				"y": -6.3145741677,
				"z": 0.6511110126,
				"element": "C" 
			},
			{
				"x": -1.9011740598,
				"y": -5.3296948365,
				"z": 0.7442559628,
				"element": "C" 
			},
			{
				"x": -2.4417335268,
				"y": -4.0097297274,
				"z": 0.5304955103,
				"element": "O" 
			},
			{
				"x": -1.5297479944,
				"y": -3.0027580627,
				"z": 0.4954794575,
				"element": "C" 
			},
			{
				"x": -0.3347911869,
				"y": -3.2023100083,
				"z": 0.6344065709,
				"element": "O" 
			},
			{
				"x": -2.1198319473,
				"y": -1.6828816137,
				"z": 0.2501168954,
				"element": "C" 
			},
			{
				"x": -3.4585889591,
				"y": -1.3068991939,
				"z": 0.1740296461,
				"element": "C" 
			},
			{
				"x": -3.5115210343,
				"y": 0.0191948147,
				"z": -0.2149556423,
				"element": "N" 
			},
			{
				"x": -2.2385347631,
				"y": 0.5418305642,
				"z": -0.3576106189,
				"element": "C" 
			},
			{
				"x": -1.8492158526,
				"y": 1.8334029887,
				"z": -0.7046520458,
				"element": "C" 
			},
			{
				"x": -0.4709538538,
				"y": 2.0224035504,
				"z": -0.7742641708,
				"element": "C" 
			},
			{
				"x": 0.4841950543,
				"y": 0.9899748973,
				"z": -0.5275989774,
				"element": "C" 
			},
			{
				"x": 0.0595139374,
				"y": -0.2946479405,
				"z": -0.1692485041,
				"element": "C" 
			},
			{
				"x": -1.3197040713,
				"y": -0.5150409459,
				"z": -0.0786270605,
				"element": "C" 
			},
			{
				"x": 1.7961333277,
				"y": 1.5871891504,
				"z": -0.7127813472,
				"element": "C" 
			},
			{
				"x": 3.041243629,
				"y": 0.8607782892,
				"z": -0.4435583884,
				"element": "C" 
			},
			{
				"x": 3.1007363408,
				"y": -0.3384232489,
				"z": -0.2304167989,
				"element": "O" 
			},
			{
				"x": 4.1433498543,
				"y": 1.6557482499,
				"z": -0.4257658546,
				"element": "O" 
			},
			{
				"x": 5.3878375951,
				"y": 0.9853924289,
				"z": -0.1393524098,
				"element": "C" 
			},
			{
				"x": 6.4708847959,
				"y": 2.0462186103,
				"z": -0.0662521419,
				"element": "C" 
			},
			{
				"x": 1.6021583786,
				"y": 2.9200840363,
				"z": -1.0666695951,
				"element": "C" 
			},
			{
				"x": 0.2418945513,
				"y": 3.1695378806,
				"z": -1.074139732,
				"element": "N" 
			},
			{
				"x": 2.5037228467,
				"y": 4.0278934455,
				"z": -1.428512104,
				"element": "C" 
			},
			{
				"x": 3.5594944642,
				"y": 3.8512200015,
				"z": -2.3382489558,
				"element": "C" 
			},
			{
				"x": 4.3538879344,
				"y": 4.930438043,
				"z": -2.7170231088,
				"element": "C" 
			},
			{
				"x": 4.1097026613,
				"y": 6.2054731313,
				"z": -2.1991070665,
				"element": "C" 
			},
			{
				"x": 3.0621333848,
				"y": 6.394254584,
				"z": -1.2971014566,
				"element": "C" 
			},
			{
				"x": 2.263919955,
				"y": 5.3154678612,
				"z": -0.9167984287,
				"element": "C" 
			},
			{
				"x": -4.7347949586,
				"y": -1.9969264469,
				"z": 0.4310934313,
				"element": "C" 
			},
			{
				"x": -5.8146448201,
				"y": -1.8139668491,
				"z": -0.4507524646,
				"element": "C" 
			},
			{
				"x": -7.0531416248,
				"y": -2.4017845764,
				"z": -0.1935303531,
				"element": "C" 
			},
			{
				"x": -7.2347265982,
				"y": -3.1776898313,
				"z": 0.9517420333,
				"element": "C" 
			},
			{
				"x": -6.1690189589,
				"y": -3.362315108,
				"z": 1.8370459158,
				"element": "C" 
			},
			{
				"x": -4.9310244047,
				"y": -2.7777571597,
				"z": 1.582294776,
				"element": "C" 
			},
			{
				"x": -2.6846642835,
				"y": -7.3328103556,
				"z": 0.8137833739,
				"element": "H" 
			},
			{
				"x": -3.5234051478,
				"y": -6.2710880189,
				"z": -0.335051495,
				"element": "H" 
			},
			{
				"x": -3.8167663687,
				"y": -6.0990355127,
				"z": 1.4030778157,
				"element": "H" 
			},
			{
				"x": -1.131442551,
				"y": -5.5262785353,
				"z": -0.0084300309,
				"element": "H" 
			},
			{
				"x": -1.4114468806,
				"y": -5.3626541027,
				"z": 1.7236242689,
				"element": "H" 
			},
			{
				"x": -4.3624225796,
				"y": 0.5596630926,
				"z": -0.2017573648,
				"element": "H" 
			},
			{
				"x": -2.5617811337,
				"y": 2.6278402026,
				"z": -0.9045386754,
				"element": "H" 
			},
			{
				"x": 0.7689129721,
				"y": -1.0855642005,
				"z": 0.02978643,
				"element": "H" 
			},
			{
				"x": 5.5877138968,
				"y": 0.248612113,
				"z": -0.9250266564,
				"element": "H" 
			},
			{
				"x": 5.2885594811,
				"y": 0.4352619783,
				"z": 0.8014842972,
				"element": "H" 
			},
			{
				"x": 6.2563813283,
				"y": 2.7678687069,
				"z": 0.727210162,
				"element": "H" 
			},
			{
				"x": 7.4372290756,
				"y": 1.5772952772,
				"z": 0.1451370572,
				"element": "H" 
			},
			{
				"x": 6.5511945404,
				"y": 2.5926732458,
				"z": -1.0103406098,
				"element": "H" 
			},
			{
				"x": -0.1560788112,
				"y": 4.0216754151,
				"z": -1.4371639458,
				"element": "H" 
			},
			{
				"x": 3.7453608614,
				"y": 2.8657634934,
				"z": -2.7485431025,
				"element": "H" 
			},
			{
				"x": 5.1618865158,
				"y": 4.7782394021,
				"z": -3.4269968317,
				"element": "H" 
			},
			{
				"x": 4.7316465996,
				"y": 7.0444212019,
				"z": -2.4974884666,
				"element": "H" 
			},
			{
				"x": 2.8687771713,
				"y": 7.3795092226,
				"z": -0.8825706765,
				"element": "H" 
			},
			{
				"x": 1.4653090863,
				"y": 5.4633101785,
				"z": -0.1949161025,
				"element": "H" 
			},
			{
				"x": -5.6717510672,
				"y": -1.2314488019,
				"z": -1.3568479681,
				"element": "H" 
			},
			{
				"x": -7.8725338974,
				"y": -2.2584552764,
				"z": -0.8921033153,
				"element": "H" 
			},
			{
				"x": -8.1986676548,
				"y": -3.6352590503,
				"z": 1.1545369874,
				"element": "H" 
			},
			{
				"x": -6.3061782336,
				"y": -3.9573737891,
				"z": 2.735480818,
				"element": "H" 
			},
			{
				"x": -4.1094197575,
				"y": -2.9148686969,
				"z": 2.2752500448,
				"element": "H" 
			}
		],
		 "valence_orbital": [ 
			{
				"type": "occ",
				"energy": -0.24891,
				"method": "rhf"
			},
			{
				"type": "occ",
				"energy": -0.24868,
				"method": "rhf"
			},
			{
				"type": "occ",
				"energy": -0.24406,
				"method": "rhf"
			},
			{
				"type": "occ",
				"energy": -0.19792,
				"method": "rhf"
			},
			{
				"type": "occ",
				"energy": -0.1858,
				"method": "rhf"
			},
			{
				"type": "unocc",
				"energy": -0.04848,
				"method": "rhf"
			},
			{
				"type": "unocc",
				"energy": -0.02943,
				"method": "rhf"
			},
			{
				"type": "unocc",
				"energy": -0.00665,
				"method": "rhf"
			},
			{
				"type": "unocc",
				"energy": -0.00663,
				"method": "rhf"
			},
			{
				"type": "unocc",
				"energy": 0.01126,
				"method": "rhf"
			}
		],
		"cosmo_sigma_profile": { 
			"-0.025": 0.0,
			"-0.024": 0.0,
			"-0.023": 0.0,
			"-0.022": 0.0,
			"-0.021": 0.0,
			"-0.02": 0.0,
			"-0.019": 0.0,
			"-0.018": 0.0,
			"-0.017": 0.0,
			"-0.016": 0.776736696143,
			"-0.015": 2.42336879436,
			"-0.014": 2.39281531761,
			"-0.013": 2.3057625358,
			"-0.012": 2.00062973815,
			"-0.011": 2.36673682261,
			"-0.01": 3.41945710529,
			"-0.009": 2.55032655592,
			"-0.008": 3.71649254484,
			"-0.007": 7.10978125189,
			"-0.006": 17.7721897045,
			"-0.005": 28.1515552776,
			"-0.004": 42.9155037904,
			"-0.003": 44.5776965322,
			"-0.002": 40.926604916,
			"-0.001": 37.6869452132,
			"0.0": 39.6031660782,
			"0.001": 31.0672252074,
			"0.002": 29.2874526042,
			"0.003": 33.6115447682,
			"0.004": 37.1405772153,
			"0.005": 36.091367475,
			"0.006": 13.9126466956,
			"0.007": 7.66597000208,
			"0.008": 6.21295863202,
			"0.009": 5.04393643704,
			"0.01": 3.8466141117,
			"0.011": 3.7900068647,
			"0.012": 6.04835250366,
			"0.013": 4.77107331679,
			"0.014": 0.197152471697,
			"0.015": 0.0,
			"0.016": 0.0,
			"0.017": 0.0,
			"0.018": 0.0,
			"0.019": 0.0,
			"0.02": 0.0,
			"0.021": 0.0,
			"0.022": 0.0,
			"0.023": 0.0,
			"0.024": 0.0,
			"0.025": 0.0
		}
	}
}
