{
	 "smiles": "CCCCCCCCCCCCCCCCCCCC(O)=O", 
	 "Tm": 348.35, 
	 "num_atms": 62, 
	 "gaussian": { 
		 "optdone": 1, 
		 "sigma_profile": "yes", 
		 "theory": "DFT", 
		 "functional": "B3LYP", 
		 "basiset": "6-31G**", 
		 "properties": { 
			 "R2extent": 15602.0107, 
			 "electric_dipole_moment_norm": 4.5496746543, 
			 "electric_quadrupole_moment_norm": 34.21523165, 
			 "total_energy": -936.745696486, 
			 "HOMO_LUMO_gap": 0.276, 
			 "cosmo_polarized_energy": -13.49, 
			 "cosmo_cavitation_energy": 59.94, 
			 "cosmo_dispersion_energy": -39.04, 
			 "cosmo_repulsion_energy": 3.16, 
			 "cosmo_total_nonelectrostatic_energy": 24.06, 
			 "SMD_solvation_energy": 8.68 
		},
		"coords": [
			{
				"x": -5.257878643,
				"y": 3.9985241504,
				"z": -0.4603961765,
				"element": "C" 
			},
			{
				"x": -3.9630360528,
				"y": 4.2438328033,
				"z": 0.3215232333,
				"element": "C" 
			},
			{
				"x": -3.9502762395,
				"y": 3.5488736916,
				"z": 1.6902990228,
				"element": "C" 
			},
			{
				"x": -2.7078031055,
				"y": 3.8397292197,
				"z": 2.5500478755,
				"element": "C" 
			},
			{
				"x": -1.3612321457,
				"y": 3.3699215383,
				"z": 1.9670367934,
				"element": "C" 
			},
			{
				"x": -1.2355028326,
				"y": 1.8588047267,
				"z": 1.703333768,
				"element": "C" 
			},
			{
				"x": -1.3427025899,
				"y": 0.9844876909,
				"z": 2.9622408728,
				"element": "C" 
			},
			{
				"x": -1.0483450235,
				"y": -0.5071735832,
				"z": 2.728255023,
				"element": "C" 
			},
			{
				"x": -2.0729215365,
				"y": -1.2247023521,
				"z": 1.8360813071,
				"element": "C" 
			},
			{
				"x": -1.8760484587,
				"y": -2.748619839,
				"z": 1.7427185487,
				"element": "C" 
			},
			{
				"x": -0.5525164333,
				"y": -3.220132476,
				"z": 1.1134659197,
				"element": "C" 
			},
			{
				"x": -0.3688698831,
				"y": -2.8072273164,
				"z": -0.3549642886,
				"element": "C" 
			},
			{
				"x": 0.8613775976,
				"y": -3.4236409648,
				"z": -1.0439015169,
				"element": "C" 
			},
			{
				"x": 2.211051858,
				"y": -2.9513759452,
				"z": -0.4829451496,
				"element": "C" 
			},
			{
				"x": 3.440800655,
				"y": -3.5727282965,
				"z": -1.1688373671,
				"element": "C" 
			},
			{
				"x": 3.6701123056,
				"y": -3.2486385839,
				"z": -2.6583926316,
				"element": "C" 
			},
			{
				"x": 3.9776164974,
				"y": -1.771645253,
				"z": -2.9896386352,
				"element": "C" 
			},
			{
				"x": 2.7504515187,
				"y": -0.9095404446,
				"z": -3.3251857352,
				"element": "C" 
			},
			{
				"x": 3.0940135867,
				"y": 0.5647200213,
				"z": -3.612634971,
				"element": "C" 
			},
			{
				"x": 4.0744132198,
				"y": 0.7919151647,
				"z": -4.7585938679,
				"element": "C" 
			},
			{
				"x": 3.7722536713,
				"y": 0.1659641558,
				"z": -5.9318994683,
				"element": "O" 
			},
			{
				"x": 5.055960204,
				"y": 1.4868707399,
				"z": -4.6861203432,
				"element": "O" 
			},
			{
				"x": -5.2432459263,
				"y": 4.5045762184,
				"z": -1.4313852807,
				"element": "H" 
			},
			{
				"x": -5.4124420351,
				"y": 2.9291543255,
				"z": -0.6455539725,
				"element": "H" 
			},
			{
				"x": -6.1302525268,
				"y": 4.3651953076,
				"z": 0.092723223,
				"element": "H" 
			},
			{
				"x": -3.1099147574,
				"y": 3.9033294026,
				"z": -0.2789933492,
				"element": "H" 
			},
			{
				"x": -3.8204892928,
				"y": 5.3239914097,
				"z": 0.4648822988,
				"element": "H" 
			},
			{
				"x": -4.8401842675,
				"y": 3.8645118792,
				"z": 2.2521094344,
				"element": "H" 
			},
			{
				"x": -4.0614283209,
				"y": 2.4653673641,
				"z": 1.545437436,
				"element": "H" 
			},
			{
				"x": -2.6466682282,
				"y": 4.9227306447,
				"z": 2.7246363167,
				"element": "H" 
			},
			{
				"x": -2.8520391258,
				"y": 3.3879467927,
				"z": 3.5395867403,
				"element": "H" 
			},
			{
				"x": -1.1633386531,
				"y": 3.9074783876,
				"z": 1.0310341626,
				"element": "H" 
			},
			{
				"x": -0.5632319229,
				"y": 3.6737598734,
				"z": 2.6584518844,
				"element": "H" 
			},
			{
				"x": -0.2616109198,
				"y": 1.6717249822,
				"z": 1.2291769822,
				"element": "H" 
			},
			{
				"x": -1.9891698313,
				"y": 1.5493383956,
				"z": 0.9684513496,
				"element": "H" 
			},
			{
				"x": -0.6406537513,
				"y": 1.368262393,
				"z": 3.715572221,
				"element": "H" 
			},
			{
				"x": -2.3437372238,
				"y": 1.0841589357,
				"z": 3.4031355338,
				"element": "H" 
			},
			{
				"x": -1.0137896473,
				"y": -1.0166609861,
				"z": 3.7013692973,
				"element": "H" 
			},
			{
				"x": -0.0421335198,
				"y": -0.6074485484,
				"z": 2.2987478524,
				"element": "H" 
			},
			{
				"x": -2.0625612538,
				"y": -0.7896003189,
				"z": 0.8291990064,
				"element": "H" 
			},
			{
				"x": -3.0791897383,
				"y": -1.0321576977,
				"z": 2.2336823039,
				"element": "H" 
			},
			{
				"x": -2.7094707749,
				"y": -3.1756938612,
				"z": 1.1679698939,
				"element": "H" 
			},
			{
				"x": -1.9547944593,
				"y": -3.1750138772,
				"z": 2.7522048886,
				"element": "H" 
			},
			{
				"x": -0.5129372528,
				"y": -4.3165584275,
				"z": 1.1761792592,
				"element": "H" 
			},
			{
				"x": 0.2897582329,
				"y": -2.8563618313,
				"z": 1.714310514,
				"element": "H" 
			},
			{
				"x": -0.3090005675,
				"y": -1.7127347645,
				"z": -0.4308378372,
				"element": "H" 
			},
			{
				"x": -1.2678587065,
				"y": -3.0992813,
				"z": -0.9154691813,
				"element": "H" 
			},
			{
				"x": 0.8068141968,
				"y": -4.5194994129,
				"z": -0.9693198558,
				"element": "H" 
			},
			{
				"x": 0.8097112845,
				"y": -3.1934419198,
				"z": -2.1157627235,
				"element": "H" 
			},
			{
				"x": 2.2653881887,
				"y": -1.8549210894,
				"z": -0.531419136,
				"element": "H" 
			},
			{
				"x": 2.2647262524,
				"y": -3.1995839656,
				"z": 0.5841471057,
				"element": "H" 
			},
			{
				"x": 4.338869915,
				"y": -3.2700757259,
				"z": -0.6134069952,
				"element": "H" 
			},
			{
				"x": 3.3787742408,
				"y": -4.6647509611,
				"z": -1.0639918371,
				"element": "H" 
			},
			{
				"x": 4.5193372862,
				"y": -3.8583051259,
				"z": -2.9897978635,
				"element": "H" 
			},
			{
				"x": 2.8158219286,
				"y": -3.5894782967,
				"z": -3.2587824416,
				"element": "H" 
			},
			{
				"x": 4.5244042157,
				"y": -1.3120920857,
				"z": -2.1548378883,
				"element": "H" 
			},
			{
				"x": 4.660796074,
				"y": -1.7357144135,
				"z": -3.847475888,
				"element": "H" 
			},
			{
				"x": 2.0267175499,
				"y": -0.9313077699,
				"z": -2.5043766206,
				"element": "H" 
			},
			{
				"x": 2.221946276,
				"y": -1.3556788306,
				"z": -4.1824397353,
				"element": "H" 
			},
			{
				"x": 3.5380759748,
				"y": 1.0342485897,
				"z": -2.731769134,
				"element": "H" 
			},
			{
				"x": 2.1746220489,
				"y": 1.1195835515,
				"z": -3.8453210125,
				"element": "H" 
			},
			{
				"x": 2.9583608684,
				"y": -0.3485160911,
				"z": -5.835159165,
				"element": "H" 
			}
		],
		 "valence_orbital": [ 
			{
				"type": "occ",
				"energy": -0.30651,
				"method": "rhf"
			},
			{
				"type": "occ",
				"energy": -0.30382,
				"method": "rhf"
			},
			{
				"type": "occ",
				"energy": -0.30096,
				"method": "rhf"
			},
			{
				"type": "occ",
				"energy": -0.29934,
				"method": "rhf"
			},
			{
				"type": "occ",
				"energy": -0.26399,
				"method": "rhf"
			},
			{
				"type": "unocc",
				"energy": 0.01201,
				"method": "rhf"
			},
			{
				"type": "unocc",
				"energy": 0.04306,
				"method": "rhf"
			},
			{
				"type": "unocc",
				"energy": 0.07092,
				"method": "rhf"
			},
			{
				"type": "unocc",
				"energy": 0.07909,
				"method": "rhf"
			},
			{
				"type": "unocc",
				"energy": 0.08705,
				"method": "rhf"
			}
		],
		"cosmo_sigma_profile": { 
			"-0.025": 0.0,
			"-0.024": 0.0,
			"-0.023": 0.0,
			"-0.022": 0.0,
			"-0.021": 0.0,
			"-0.02": 0.0,
			"-0.019": 0.0,
			"-0.018": 0.122701352923,
			"-0.017": 1.00236145317,
			"-0.016": 1.08881743929,
			"-0.015": 1.16059132903,
			"-0.014": 0.72339085059,
			"-0.013": 0.539244320349,
			"-0.012": 1.01319242946,
			"-0.011": 1.7252395243,
			"-0.01": 1.04404110317,
			"-0.009": 1.28523732731,
			"-0.008": 1.15017582494,
			"-0.007": 2.6736535561,
			"-0.006": 3.54950966534,
			"-0.005": 4.25708667868,
			"-0.004": 6.17953033696,
			"-0.003": 14.7513938056,
			"-0.002": 57.5785980817,
			"-0.001": 100.058613123,
			"0.0": 102.644610466,
			"0.001": 87.3453311682,
			"0.002": 33.1355969564,
			"0.003": 1.92293374808,
			"0.004": 2.03865106217,
			"0.005": 2.32893735854,
			"0.006": 2.41713688112,
			"0.007": 1.41522240803,
			"0.008": 2.30611208158,
			"0.009": 3.54889702165,
			"0.01": 3.98891170358,
			"0.011": 5.64367092342,
			"0.012": 6.25506446001,
			"0.013": 3.33616854622,
			"0.014": 0.304133730406,
			"0.015": 0.0,
			"0.016": 0.0,
			"0.017": 0.0,
			"0.018": 0.0,
			"0.019": 0.0,
			"0.02": 0.0,
			"0.021": 0.0,
			"0.022": 0.0,
			"0.023": 0.0,
			"0.024": 0.0,
			"0.025": 0.0
		}
	}
}
