{
	 "smiles": "CN1C=C(C=O)C(=N1)C1=CC=C(C=C1)[N+]([O-])=O", 
	 "Tm": 449.15, 
	 "num_atms": 26, 
	 "gaussian": { 
		 "optdone": 1, 
		 "sigma_profile": "yes", 
		 "theory": "DFT", 
		 "functional": "B3LYP", 
		 "basiset": "6-31G**", 
		 "properties": { 
			 "R2extent": 6632.9432, 
			 "electric_dipole_moment_norm": 6.73911467405, 
			 "electric_quadrupole_moment_norm": 31.3084047668, 
			 "total_energy": -814.396992392, 
			 "HOMO_LUMO_gap": 0.16091, 
			 "cosmo_polarized_energy": -16.48, 
			 "cosmo_cavitation_energy": 32.27, 
			 "cosmo_dispersion_energy": -23.15, 
			 "cosmo_repulsion_energy": 1.78, 
			 "cosmo_total_nonelectrostatic_energy": 10.9, 
			 "SMD_solvation_energy": 8.3 
		},
		"coords": [
			{
				"x": -2.8253810739,
				"y": -3.6218557286,
				"z": -0.7163257689,
				"element": "C" 
			},
			{
				"x": -2.1689338185,
				"y": -2.3491881959,
				"z": -0.4672031426,
				"element": "N" 
			},
			{
				"x": -2.1544365701,
				"y": -1.6271333475,
				"z": 0.6688590134,
				"element": "C" 
			},
			{
				"x": -1.4155211651,
				"y": -0.4760716988,
				"z": 0.4120226212,
				"element": "C" 
			},
			{
				"x": -1.0757414686,
				"y": 0.5209239911,
				"z": 1.4275084488,
				"element": "C" 
			},
			{
				"x": -1.5203511042,
				"y": 0.5015152947,
				"z": 2.5640005343,
				"element": "O" 
			},
			{
				"x": -1.0267503362,
				"y": -0.6076887145,
				"z": -0.9601307181,
				"element": "C" 
			},
			{
				"x": -1.4905532477,
				"y": -1.7510715458,
				"z": -1.4744069578,
				"element": "N" 
			},
			{
				"x": -0.2335743101,
				"y": 0.2948711553,
				"z": -1.812369351,
				"element": "C" 
			},
			{
				"x": -0.2855485428,
				"y": 1.691198923,
				"z": -1.6550585825,
				"element": "C" 
			},
			{
				"x": 0.4663607774,
				"y": 2.5290262333,
				"z": -2.4725514495,
				"element": "C" 
			},
			{
				"x": 1.2665002894,
				"y": 1.9600441086,
				"z": -3.4605338317,
				"element": "C" 
			},
			{
				"x": 1.327449445,
				"y": 0.5803125811,
				"z": -3.6550102699,
				"element": "C" 
			},
			{
				"x": 0.5764184036,
				"y": -0.2455843604,
				"z": -2.8284188624,
				"element": "C" 
			},
			{
				"x": 2.0634942952,
				"y": 2.8401195431,
				"z": -4.3276614405,
				"element": "N" 
			},
			{
				"x": 1.9883710372,
				"y": 4.053351263,
				"z": -4.1336720124,
				"element": "O" 
			},
			{
				"x": 2.7576783774,
				"y": 2.3100806399,
				"z": -5.194980191,
				"element": "O" 
			},
			{
				"x": -2.091659313,
				"y": -4.3499538563,
				"z": -1.068827966,
				"element": "H" 
			},
			{
				"x": -3.2754891706,
				"y": -3.9746238979,
				"z": 0.2122605013,
				"element": "H" 
			},
			{
				"x": -3.6006559209,
				"y": -3.4991128058,
				"z": -1.4765139309,
				"element": "H" 
			},
			{
				"x": -2.6324453642,
				"y": -1.9542150171,
				"z": 1.5802074062,
				"element": "H" 
			},
			{
				"x": -0.3581128033,
				"y": 1.3056493436,
				"z": 1.1140778978,
				"element": "H" 
			},
			{
				"x": -0.9410767544,
				"y": 2.1288194667,
				"z": -0.9104370671,
				"element": "H" 
			},
			{
				"x": 0.4347907336,
				"y": 3.6060721331,
				"z": -2.3669049011,
				"element": "H" 
			},
			{
				"x": 1.9598969174,
				"y": 0.1807891095,
				"z": -4.4377890122,
				"element": "H" 
			},
			{
				"x": 0.6083706874,
				"y": -1.3215746174,
				"z": -2.9562409676,
				"element": "H" 
			}
		],
		 "valence_orbital": [ 
			{
				"type": "occ",
				"energy": -0.29023,
				"method": "rhf"
			},
			{
				"type": "occ",
				"energy": -0.28123,
				"method": "rhf"
			},
			{
				"type": "occ",
				"energy": -0.27152,
				"method": "rhf"
			},
			{
				"type": "occ",
				"energy": -0.25941,
				"method": "rhf"
			},
			{
				"type": "occ",
				"energy": -0.25461,
				"method": "rhf"
			},
			{
				"type": "unocc",
				"energy": -0.0937,
				"method": "rhf"
			},
			{
				"type": "unocc",
				"energy": -0.05488,
				"method": "rhf"
			},
			{
				"type": "unocc",
				"energy": -0.03024,
				"method": "rhf"
			},
			{
				"type": "unocc",
				"energy": -0.02445,
				"method": "rhf"
			},
			{
				"type": "unocc",
				"energy": 0.02068,
				"method": "rhf"
			}
		],
		"cosmo_sigma_profile": { 
			"-0.025": 0.0,
			"-0.024": 0.0,
			"-0.023": 0.0,
			"-0.022": 0.0,
			"-0.021": 0.0,
			"-0.02": 0.0,
			"-0.019": 0.0,
			"-0.018": 0.0,
			"-0.017": 0.0,
			"-0.016": 0.0,
			"-0.015": 0.0,
			"-0.014": 0.0,
			"-0.013": 0.0,
			"-0.012": 0.0,
			"-0.011": 0.977704600267,
			"-0.01": 2.65229810563,
			"-0.009": 3.03274103127,
			"-0.008": 6.85389223164,
			"-0.007": 12.9756752386,
			"-0.006": 17.7661793587,
			"-0.005": 18.4951245703,
			"-0.004": 20.4871646849,
			"-0.003": 14.8034150685,
			"-0.002": 14.3859716643,
			"-0.001": 18.3678927944,
			"0.0": 20.645203725,
			"0.001": 23.9548154556,
			"0.002": 13.7994525122,
			"0.003": 6.84799838185,
			"0.004": 5.49848803246,
			"0.005": 5.48848336797,
			"0.006": 7.8504619408,
			"0.007": 9.41912258037,
			"0.008": 10.9733432483,
			"0.009": 6.62254765497,
			"0.01": 6.2344605905,
			"0.011": 4.79816828736,
			"0.012": 4.48796050115,
			"0.013": 2.16009856158,
			"0.014": 0.206765068406,
			"0.015": 0.0,
			"0.016": 0.0,
			"0.017": 0.0,
			"0.018": 0.0,
			"0.019": 0.0,
			"0.02": 0.0,
			"0.021": 0.0,
			"0.022": 0.0,
			"0.023": 0.0,
			"0.024": 0.0,
			"0.025": 0.0
		}
	}
}
