{
	 "smiles": "C(SC1=NN=C(O1)C1=CC=NC=C1)C1=NC(=NO1)C1=CC=CC=C1", 
	 "Tm": 408.15, 
	 "num_atms": 35, 
	 "gaussian": { 
		 "optdone": 1, 
		 "sigma_profile": "yes", 
		 "theory": "DFT", 
		 "functional": "B3LYP", 
		 "basiset": "6-31G**", 
		 "properties": { 
			 "R2extent": 10430.8743, 
			 "electric_dipole_moment_norm": 3.20177222488, 
			 "electric_quadrupole_moment_norm": 27.7939325686, 
			 "total_energy": -1438.6436682, 
			 "HOMO_LUMO_gap": 0.17074, 
			 "cosmo_polarized_energy": -18.53, 
			 "cosmo_cavitation_energy": 44.29, 
			 "cosmo_dispersion_energy": -30.46, 
			 "cosmo_repulsion_energy": 2.26, 
			 "cosmo_total_nonelectrostatic_energy": 16.09, 
			 "SMD_solvation_energy": 2.53 
		},
		"coords": [
			{
				"x": 3.915047867,
				"y": 0.4379843881,
				"z": 1.0626756809,
				"element": "C" 
			},
			{
				"x": 3.5212070453,
				"y": 1.6834844755,
				"z": 2.3788573325,
				"element": "S" 
			},
			{
				"x": 2.0450867322,
				"y": 2.3627899275,
				"z": 1.7269119286,
				"element": "C" 
			},
			{
				"x": 0.9885229256,
				"y": 2.7085723132,
				"z": 2.3982582053,
				"element": "N" 
			},
			{
				"x": 0.1267013153,
				"y": 3.3008822927,
				"z": 1.4828822917,
				"element": "N" 
			},
			{
				"x": 0.7143991073,
				"y": 3.2501360675,
				"z": 0.3235697938,
				"element": "C" 
			},
			{
				"x": 1.9552114516,
				"y": 2.6790533073,
				"z": 0.4017518018,
				"element": "O" 
			},
			{
				"x": 0.2080484579,
				"y": 3.7020146782,
				"z": -0.9668077558,
				"element": "C" 
			},
			{
				"x": 0.9492752215,
				"y": 3.5537730736,
				"z": -2.1455187287,
				"element": "C" 
			},
			{
				"x": 0.3932425893,
				"y": 4.0130104849,
				"z": -3.3389416047,
				"element": "C" 
			},
			{
				"x": -0.8107643673,
				"y": 4.59044773,
				"z": -3.4290399533,
				"element": "N" 
			},
			{
				"x": -1.5089654052,
				"y": 4.7262603497,
				"z": -2.2923775619,
				"element": "C" 
			},
			{
				"x": -1.0552375873,
				"y": 4.3049174747,
				"z": -1.0454508702,
				"element": "C" 
			},
			{
				"x": 2.9558646053,
				"y": -0.6973771217,
				"z": 1.0261816264,
				"element": "C" 
			},
			{
				"x": 1.8318446225,
				"y": -0.7720364711,
				"z": 0.3799596152,
				"element": "N" 
			},
			{
				"x": 1.3616995187,
				"y": -2.0223517912,
				"z": 0.7452755604,
				"element": "C" 
			},
			{
				"x": 2.1589712743,
				"y": -2.6742386906,
				"z": 1.5658741376,
				"element": "N" 
			},
			{
				"x": 3.2294077502,
				"y": -1.788387954,
				"z": 1.7583471156,
				"element": "O" 
			},
			{
				"x": 0.0916915297,
				"y": -2.5743633539,
				"z": 0.257188011,
				"element": "C" 
			},
			{
				"x": -0.3326664314,
				"y": -3.8520556054,
				"z": 0.6561796438,
				"element": "C" 
			},
			{
				"x": -1.5390828786,
				"y": -4.3619088997,
				"z": 0.1852258648,
				"element": "C" 
			},
			{
				"x": -2.330910775,
				"y": -3.605939522,
				"z": -0.6844641098,
				"element": "C" 
			},
			{
				"x": -1.9112129492,
				"y": -2.3352189465,
				"z": -1.0821869586,
				"element": "C" 
			},
			{
				"x": -0.7041980962,
				"y": -1.8180019674,
				"z": -0.614624565,
				"element": "C" 
			},
			{
				"x": 4.917541184,
				"y": 0.0867190988,
				"z": 1.3144736805,
				"element": "H" 
			},
			{
				"x": 3.9379652501,
				"y": 0.9395123588,
				"z": 0.0955399959,
				"element": "H" 
			},
			{
				"x": 1.9301362687,
				"y": 3.092126741,
				"z": -2.1343188097,
				"element": "H" 
			},
			{
				"x": 0.9470313259,
				"y": 3.9098671507,
				"z": -4.2701567303,
				"element": "H" 
			},
			{
				"x": -2.485363502,
				"y": 5.1977733291,
				"z": -2.3837479162,
				"element": "H" 
			},
			{
				"x": -1.6557294261,
				"y": 4.4350770108,
				"z": -0.1522398429,
				"element": "H" 
			},
			{
				"x": 0.2864002568,
				"y": -4.4327291899,
				"z": 1.3319856939,
				"element": "H" 
			},
			{
				"x": -1.8637405816,
				"y": -5.3502139746,
				"z": 0.4968374859,
				"element": "H" 
			},
			{
				"x": -3.2720665443,
				"y": -4.0069299382,
				"z": -1.049382787,
				"element": "H" 
			},
			{
				"x": -2.5244524393,
				"y": -1.7448682379,
				"z": -1.7564879947,
				"element": "H" 
			},
			{
				"x": -0.3687053158,
				"y": -0.831580588,
				"z": -0.9153292768,
				"element": "H" 
			}
		],
		 "valence_orbital": [ 
			{
				"type": "occ",
				"energy": -0.27851,
				"method": "rhf"
			},
			{
				"type": "occ",
				"energy": -0.268,
				"method": "rhf"
			},
			{
				"type": "occ",
				"energy": -0.26095,
				"method": "rhf"
			},
			{
				"type": "occ",
				"energy": -0.25541,
				"method": "rhf"
			},
			{
				"type": "occ",
				"energy": -0.24865,
				"method": "rhf"
			},
			{
				"type": "unocc",
				"energy": -0.07791,
				"method": "rhf"
			},
			{
				"type": "unocc",
				"energy": -0.05901,
				"method": "rhf"
			},
			{
				"type": "unocc",
				"energy": -0.03931,
				"method": "rhf"
			},
			{
				"type": "unocc",
				"energy": -0.02618,
				"method": "rhf"
			},
			{
				"type": "unocc",
				"energy": -0.01146,
				"method": "rhf"
			}
		],
		"cosmo_sigma_profile": { 
			"-0.025": 0.0,
			"-0.024": 0.0,
			"-0.023": 0.0,
			"-0.022": 0.0,
			"-0.021": 0.0,
			"-0.02": 0.0,
			"-0.019": 0.0,
			"-0.018": 0.0,
			"-0.017": 0.0,
			"-0.016": 0.0,
			"-0.015": 0.0,
			"-0.014": 0.0,
			"-0.013": 0.0,
			"-0.012": 0.117932585238,
			"-0.011": 2.05635640079,
			"-0.01": 2.95607202851,
			"-0.009": 4.15875166088,
			"-0.008": 5.16825656673,
			"-0.007": 13.852368042,
			"-0.006": 21.7944074846,
			"-0.005": 22.6029682448,
			"-0.004": 23.5750610683,
			"-0.003": 23.4593159785,
			"-0.002": 24.2058489559,
			"-0.001": 27.0108460339,
			"0.0": 31.6717855864,
			"0.001": 34.5264629075,
			"0.002": 22.5998250382,
			"0.003": 21.1433064165,
			"0.004": 23.178670449,
			"0.005": 10.5666738224,
			"0.006": 9.23424718617,
			"0.007": 5.40566882307,
			"0.008": 5.4576527758,
			"0.009": 5.60722512797,
			"0.01": 5.92174339196,
			"0.011": 5.45230568945,
			"0.012": 3.56067058538,
			"0.013": 2.93723041687,
			"0.014": 1.11201425432,
			"0.015": 0.913678108163,
			"0.016": 0.504007172598,
			"0.017": 0.0,
			"0.018": 0.0,
			"0.019": 0.0,
			"0.02": 0.0,
			"0.021": 0.0,
			"0.022": 0.0,
			"0.023": 0.0,
			"0.024": 0.0,
			"0.025": 0.0
		}
	}
}
