{
	 "smiles": "CCC(C)=C", 
	 "Tm": 135.15, 
	 "num_atms": 15, 
	 "gaussian": { 
		 "optdone": 1, 
		 "sigma_profile": "yes", 
		 "theory": "DFT", 
		 "functional": "B3LYP", 
		 "basiset": "6-31G**", 
		 "properties": { 
			 "R2extent": 596.2577, 
			 "electric_dipole_moment_norm": 0.513238745615, 
			 "electric_quadrupole_moment_norm": 1.38157534358, 
			 "total_energy": -196.549908569, 
			 "HOMO_LUMO_gap": 0.26848, 
			 "cosmo_polarized_energy": -1.56, 
			 "cosmo_cavitation_energy": 17.35, 
			 "cosmo_dispersion_energy": -12.49, 
			 "cosmo_repulsion_energy": 1.1, 
			 "cosmo_total_nonelectrostatic_energy": 5.96, 
			 "SMD_solvation_energy": 3.92 
		},
		"coords": [
			{
				"x": 1.1411489072,
				"y": 0.3414103435,
				"z": -0.4765618428,
				"element": "C" 
			},
			{
				"x": 0.1401213361,
				"y": 0.3905118863,
				"z": 0.6917969918,
				"element": "C" 
			},
			{
				"x": -0.8084489638,
				"y": -0.7900364058,
				"z": 0.741465891,
				"element": "C" 
			},
			{
				"x": -1.8005810961,
				"y": -0.9133602081,
				"z": -0.3899361543,
				"element": "C" 
			},
			{
				"x": -0.7711416284,
				"y": -1.6751708428,
				"z": 1.7430996101,
				"element": "C" 
			},
			{
				"x": 1.8128551045,
				"y": 1.2055074513,
				"z": -0.4469045908,
				"element": "H" 
			},
			{
				"x": 1.7532493287,
				"y": -0.5650637154,
				"z": -0.4274868915,
				"element": "H" 
			},
			{
				"x": 0.6354662226,
				"y": 0.351640334,
				"z": -1.447368757,
				"element": "H" 
			},
			{
				"x": 0.6924085777,
				"y": 0.4483176521,
				"z": 1.6363997116,
				"element": "H" 
			},
			{
				"x": -0.4451190444,
				"y": 1.3186031562,
				"z": 0.6146457588,
				"element": "H" 
			},
			{
				"x": -1.2980367679,
				"y": -1.0336883514,
				"z": -1.3574441139,
				"element": "H" 
			},
			{
				"x": -2.4180182738,
				"y": -0.0089384214,
				"z": -0.4699572198,
				"element": "H" 
			},
			{
				"x": -2.4664745958,
				"y": -1.7689587698,
				"z": -0.2497436924,
				"element": "H" 
			},
			{
				"x": -1.449197459,
				"y": -2.5236288762,
				"z": 1.7825052576,
				"element": "H" 
			},
			{
				"x": -0.0608316475,
				"y": -1.5816452326,
				"z": 2.5603900417,
				"element": "H" 
			}
		],
		 "valence_orbital": [ 
			{
				"type": "occ",
				"energy": -0.36329,
				"method": "rhf"
			},
			{
				"type": "occ",
				"energy": -0.35985,
				"method": "rhf"
			},
			{
				"type": "occ",
				"energy": -0.33407,
				"method": "rhf"
			},
			{
				"type": "occ",
				"energy": -0.3219,
				"method": "rhf"
			},
			{
				"type": "occ",
				"energy": -0.23937,
				"method": "rhf"
			},
			{
				"type": "unocc",
				"energy": 0.02911,
				"method": "rhf"
			},
			{
				"type": "unocc",
				"energy": 0.09225,
				"method": "rhf"
			},
			{
				"type": "unocc",
				"energy": 0.13027,
				"method": "rhf"
			},
			{
				"type": "unocc",
				"energy": 0.1391,
				"method": "rhf"
			},
			{
				"type": "unocc",
				"energy": 0.1478,
				"method": "rhf"
			}
		],
		"cosmo_sigma_profile": { 
			"-0.025": 0.0,
			"-0.024": 0.0,
			"-0.023": 0.0,
			"-0.022": 0.0,
			"-0.021": 0.0,
			"-0.02": 0.0,
			"-0.019": 0.0,
			"-0.018": 0.0,
			"-0.017": 0.0,
			"-0.016": 0.0,
			"-0.015": 0.0,
			"-0.014": 0.0,
			"-0.013": 0.0,
			"-0.012": 0.0,
			"-0.011": 0.0,
			"-0.01": 0.0,
			"-0.009": 0.0,
			"-0.008": 0.0,
			"-0.007": 0.0,
			"-0.006": 0.0,
			"-0.005": 0.0,
			"-0.004": 3.90235266849,
			"-0.003": 19.0275841293,
			"-0.002": 19.9231848885,
			"-0.001": 20.4527049615,
			"0.0": 22.6530913679,
			"0.001": 21.1196110762,
			"0.002": 8.80494522577,
			"0.003": 4.34833683975,
			"0.004": 4.18201928841,
			"0.005": 3.78444492022,
			"0.006": 3.01021632407,
			"0.007": 2.86203198011,
			"0.008": 0.829470789719,
			"0.009": 0.0,
			"0.01": 0.0,
			"0.011": 0.0,
			"0.012": 0.0,
			"0.013": 0.0,
			"0.014": 0.0,
			"0.015": 0.0,
			"0.016": 0.0,
			"0.017": 0.0,
			"0.018": 0.0,
			"0.019": 0.0,
			"0.02": 0.0,
			"0.021": 0.0,
			"0.022": 0.0,
			"0.023": 0.0,
			"0.024": 0.0,
			"0.025": 0.0
		}
	}
}
