{
	 "smiles": "CC(=C/NNC1=NC(C)=CC(C)=N1)C1=CC=CN=C1", 
	 "Tm": 421.15, 
	 "num_atms": 36, 
	 "gaussian": { 
		 "optdone": 1, 
		 "sigma_profile": "yes", 
		 "theory": "DFT", 
		 "functional": "B3LYP", 
		 "basiset": "6-31G**", 
		 "properties": { 
			 "R2extent": 8023.9509, 
			 "electric_dipole_moment_norm": 4.98337844941, 
			 "electric_quadrupole_moment_norm": 13.6321133912, 
			 "total_energy": -817.470636537, 
			 "HOMO_LUMO_gap": 0.1561, 
			 "cosmo_polarized_energy": -14.26, 
			 "cosmo_cavitation_energy": 40.37, 
			 "cosmo_dispersion_energy": -28.4, 
			 "cosmo_repulsion_energy": 2.23, 
			 "cosmo_total_nonelectrostatic_energy": 14.2, 
			 "SMD_solvation_energy": 3.36 
		},
		"coords": [
			{
				"x": -3.0426499279,
				"y": 0.8726756827,
				"z": -0.5238912291,
				"element": "C" 
			},
			{
				"x": -2.3249727817,
				"y": -0.3276817674,
				"z": -1.1060983788,
				"element": "C" 
			},
			{
				"x": -1.6688306454,
				"y": -1.2002542127,
				"z": -0.3112379584,
				"element": "C" 
			},
			{
				"x": -1.6501546219,
				"y": -1.1588694129,
				"z": 1.0898699721,
				"element": "N" 
			},
			{
				"x": -0.6584976705,
				"y": -1.9274490207,
				"z": 1.7020895156,
				"element": "N" 
			},
			{
				"x": 0.5092907911,
				"y": -1.3394826266,
				"z": 2.1537379436,
				"element": "C" 
			},
			{
				"x": 1.2443958425,
				"y": -2.1048028261,
				"z": 2.978794151,
				"element": "N" 
			},
			{
				"x": 2.3990642967,
				"y": -1.5744650113,
				"z": 3.3954364735,
				"element": "C" 
			},
			{
				"x": 3.240905426,
				"y": -2.4246456271,
				"z": 4.3096844621,
				"element": "C" 
			},
			{
				"x": 2.7989782431,
				"y": -0.2917078537,
				"z": 2.996776077,
				"element": "C" 
			},
			{
				"x": 1.9413266035,
				"y": 0.4262614455,
				"z": 2.1620579179,
				"element": "C" 
			},
			{
				"x": 2.2590012111,
				"y": 1.8208419934,
				"z": 1.6932450094,
				"element": "C" 
			},
			{
				"x": 0.7793748442,
				"y": -0.0967991719,
				"z": 1.7358857464,
				"element": "N" 
			},
			{
				"x": -2.314187981,
				"y": -0.5083152612,
				"z": -2.5712413719,
				"element": "C" 
			},
			{
				"x": -2.3876441535,
				"y": 0.5837821789,
				"z": -3.4530425799,
				"element": "C" 
			},
			{
				"x": -2.3588652688,
				"y": 0.3680758576,
				"z": -4.8287100295,
				"element": "C" 
			},
			{
				"x": -2.2575469842,
				"y": -0.9393973241,
				"z": -5.3012499465,
				"element": "C" 
			},
			{
				"x": -2.209422783,
				"y": -2.0047187796,
				"z": -4.4892684643,
				"element": "N" 
			},
			{
				"x": -2.2498734582,
				"y": -1.7825628808,
				"z": -3.1745846252,
				"element": "C" 
			},
			{
				"x": -3.8833457703,
				"y": 1.1738717754,
				"z": -1.1557855931,
				"element": "H" 
			},
			{
				"x": -3.4526466354,
				"y": 0.6489276283,
				"z": 0.4667998847,
				"element": "H" 
			},
			{
				"x": -2.3848803343,
				"y": 1.7464720266,
				"z": -0.4172502175,
				"element": "H" 
			},
			{
				"x": -1.1233846927,
				"y": -2.0456594797,
				"z": -0.7156874774,
				"element": "H" 
			},
			{
				"x": -1.6772147953,
				"y": -0.2202574258,
				"z": 1.4763810145,
				"element": "H" 
			},
			{
				"x": -0.9984428778,
				"y": -2.6824518582,
				"z": 2.2836660442,
				"element": "H" 
			},
			{
				"x": 4.1207698269,
				"y": -1.8864283423,
				"z": 4.6697340538,
				"element": "H" 
			},
			{
				"x": 3.571984944,
				"y": -3.3263858518,
				"z": 3.7836143774,
				"element": "H" 
			},
			{
				"x": 2.6478843482,
				"y": -2.7558590271,
				"z": 5.1676269491,
				"element": "H" 
			},
			{
				"x": 3.7358487044,
				"y": 0.133734504,
				"z": 3.3379565784,
				"element": "H" 
			},
			{
				"x": 3.2037787703,
				"y": 2.182922723,
				"z": 2.1051729696,
				"element": "H" 
			},
			{
				"x": 2.3169274258,
				"y": 1.8447751471,
				"z": 0.6000901175,
				"element": "H" 
			},
			{
				"x": 1.4579908199,
				"y": 2.5079087596,
				"z": 1.9847900787,
				"element": "H" 
			},
			{
				"x": -2.4502375471,
				"y": 1.5959233186,
				"z": -3.0642080776,
				"element": "H" 
			},
			{
				"x": -2.4077431457,
				"y": 1.2011791072,
				"z": -5.5237847659,
				"element": "H" 
			},
			{
				"x": -2.2246168695,
				"y": -1.1442152027,
				"z": -6.3698452921,
				"element": "H" 
			},
			{
				"x": -2.2545631534,
				"y": -2.6719431842,
				"z": -2.5465233296,
				"element": "H" 
			}
		],
		 "valence_orbital": [ 
			{
				"type": "occ",
				"energy": -0.25984,
				"method": "rhf"
			},
			{
				"type": "occ",
				"energy": -0.25078,
				"method": "rhf"
			},
			{
				"type": "occ",
				"energy": -0.23904,
				"method": "rhf"
			},
			{
				"type": "occ",
				"energy": -0.23311,
				"method": "rhf"
			},
			{
				"type": "occ",
				"energy": -0.19115,
				"method": "rhf"
			},
			{
				"type": "unocc",
				"energy": -0.03505,
				"method": "rhf"
			},
			{
				"type": "unocc",
				"energy": -0.016,
				"method": "rhf"
			},
			{
				"type": "unocc",
				"energy": -0.00695,
				"method": "rhf"
			},
			{
				"type": "unocc",
				"energy": -0.00061,
				"method": "rhf"
			},
			{
				"type": "unocc",
				"energy": 0.05446,
				"method": "rhf"
			}
		],
		"cosmo_sigma_profile": { 
			"-0.025": 0.0,
			"-0.024": 0.0,
			"-0.023": 0.0,
			"-0.022": 0.0,
			"-0.021": 0.0,
			"-0.02": 0.0,
			"-0.019": 0.0,
			"-0.018": 0.0,
			"-0.017": 0.0,
			"-0.016": 0.0,
			"-0.015": 0.0,
			"-0.014": 0.217902629079,
			"-0.013": 1.06797854078,
			"-0.012": 0.707871544065,
			"-0.011": 1.23776977207,
			"-0.01": 1.59434017935,
			"-0.009": 1.72753059062,
			"-0.008": 1.78664788452,
			"-0.007": 3.53050047428,
			"-0.006": 12.7164573592,
			"-0.005": 23.6908529101,
			"-0.004": 27.4037787161,
			"-0.003": 27.6927852329,
			"-0.002": 27.7057786482,
			"-0.001": 32.7005052652,
			"0.0": 30.4898224937,
			"0.001": 22.2609647954,
			"0.002": 18.4562424142,
			"0.003": 24.4199808553,
			"0.004": 15.2533246162,
			"0.005": 8.63146799785,
			"0.006": 8.22635478119,
			"0.007": 5.4736172718,
			"0.008": 4.72751336745,
			"0.009": 3.64074127078,
			"0.01": 3.77367214026,
			"0.011": 3.52590172208,
			"0.012": 2.26482163492,
			"0.013": 1.48275408957,
			"0.014": 1.26989728874,
			"0.015": 1.22247527003,
			"0.016": 1.07751466684,
			"0.017": 0.612403481471,
			"0.018": 0.0674672908363,
			"0.019": 0.0,
			"0.02": 0.0,
			"0.021": 0.0,
			"0.022": 0.0,
			"0.023": 0.0,
			"0.024": 0.0,
			"0.025": 0.0
		}
	}
}
