{
	 "smiles": "ClC1=CC=C(CCC(CN2C=NC=N2)(C#N)C2=CC=CC=C2)C=C1", 
	 "Tm": 399.15, 
	 "num_atms": 41, 
	 "gaussian": { 
		 "optdone": 1, 
		 "sigma_profile": "yes", 
		 "theory": "DFT", 
		 "functional": "B3LYP", 
		 "basiset": "6-31G**", 
		 "properties": { 
			 "R2extent": 8002.2169, 
			 "electric_dipole_moment_norm": 1.75708222061, 
			 "electric_quadrupole_moment_norm": 25.2285329086, 
			 "total_energy": -1413.4182754, 
			 "HOMO_LUMO_gap": 0.21698, 
			 "cosmo_polarized_energy": -18.71, 
			 "cosmo_cavitation_energy": 44.37, 
			 "cosmo_dispersion_energy": -29.09, 
			 "cosmo_repulsion_energy": 2.17, 
			 "cosmo_total_nonelectrostatic_energy": 17.45, 
			 "SMD_solvation_energy": 5.68 
		},
		"coords": [
			{
				"x": -0.2028545789,
				"y": -3.4986204848,
				"z": -4.2024422997,
				"element": "Cl" 
			},
			{
				"x": -0.6712480986,
				"y": -2.5605244163,
				"z": -2.788453519,
				"element": "C" 
			},
			{
				"x": -1.7161635673,
				"y": -1.6427222469,
				"z": -2.8891289235,
				"element": "C" 
			},
			{
				"x": -2.0807757529,
				"y": -0.9078984355,
				"z": -1.7621547368,
				"element": "C" 
			},
			{
				"x": -1.4141479945,
				"y": -1.0636224039,
				"z": -0.538636814,
				"element": "C" 
			},
			{
				"x": -1.8769763543,
				"y": -0.3143684398,
				"z": 0.6957877581,
				"element": "C" 
			},
			{
				"x": -1.7592444393,
				"y": 1.2282880601,
				"z": 0.7113037594,
				"element": "C" 
			},
			{
				"x": -0.3530376587,
				"y": 1.8917811978,
				"z": 1.0414871262,
				"element": "C" 
			},
			{
				"x": 0.2899211463,
				"y": 2.6197333835,
				"z": -0.2060875348,
				"element": "C" 
			},
			{
				"x": 0.2176234389,
				"y": 1.9790345209,
				"z": -1.5075111482,
				"element": "N" 
			},
			{
				"x": -0.6026510559,
				"y": 2.292665489,
				"z": -2.5429856197,
				"element": "C" 
			},
			{
				"x": -0.2843616662,
				"y": 1.5993930381,
				"z": -3.6187760991,
				"element": "N" 
			},
			{
				"x": 0.7754036872,
				"y": 0.8587744025,
				"z": -3.1872706275,
				"element": "C" 
			},
			{
				"x": 1.1258685727,
				"y": 1.0569960887,
				"z": -1.9260687051,
				"element": "N" 
			},
			{
				"x": -0.6416979937,
				"y": 3.0305393081,
				"z": 1.9459610583,
				"element": "C" 
			},
			{
				"x": -0.886198005,
				"y": 3.9433788685,
				"z": 2.6211535148,
				"element": "N" 
			},
			{
				"x": 0.6100802366,
				"y": 0.9485768657,
				"z": 1.7945301565,
				"element": "C" 
			},
			{
				"x": 1.6888068909,
				"y": 0.3200559074,
				"z": 1.1610626371,
				"element": "C" 
			},
			{
				"x": 2.5273368128,
				"y": -0.5364432872,
				"z": 1.8815286072,
				"element": "C" 
			},
			{
				"x": 2.3003276985,
				"y": -0.7825181852,
				"z": 3.2346405361,
				"element": "C" 
			},
			{
				"x": 1.2235622312,
				"y": -0.1625099721,
				"z": 3.871826371,
				"element": "C" 
			},
			{
				"x": 0.3895029346,
				"y": 0.6968386215,
				"z": 3.1587527437,
				"element": "C" 
			},
			{
				"x": -0.3713439732,
				"y": -1.9959764839,
				"z": -0.4714506935,
				"element": "C" 
			},
			{
				"x": 0.0060446504,
				"y": -2.7462481899,
				"z": -1.5857214937,
				"element": "C" 
			},
			{
				"x": -2.2351129759,
				"y": -1.5076003141,
				"z": -3.8313102769,
				"element": "H" 
			},
			{
				"x": -2.9085499837,
				"y": -0.2074564648,
				"z": -1.8419332379,
				"element": "H" 
			},
			{
				"x": -2.9459784649,
				"y": -0.52506231,
				"z": 0.8304134381,
				"element": "H" 
			},
			{
				"x": -1.3796852618,
				"y": -0.7227664929,
				"z": 1.57928251,
				"element": "H" 
			},
			{
				"x": -2.4603628847,
				"y": 1.5832167504,
				"z": 1.4713245178,
				"element": "H" 
			},
			{
				"x": -2.1173659863,
				"y": 1.6369352895,
				"z": -0.2391799966,
				"element": "H" 
			},
			{
				"x": 1.3378180122,
				"y": 2.8358411833,
				"z": 0.0099130272,
				"element": "H" 
			},
			{
				"x": -0.2252136005,
				"y": 3.5753214706,
				"z": -0.3235751101,
				"element": "H" 
			},
			{
				"x": -1.3910045637,
				"y": 3.0291945195,
				"z": -2.462934701,
				"element": "H" 
			},
			{
				"x": 1.3039597616,
				"y": 0.1577589184,
				"z": -3.8177937233,
				"element": "H" 
			},
			{
				"x": 1.87159333,
				"y": 0.473795237,
				"z": 0.1031984149,
				"element": "H" 
			},
			{
				"x": 3.3623206051,
				"y": -1.0106572403,
				"z": 1.3736128688,
				"element": "H" 
			},
			{
				"x": 2.9565783339,
				"y": -1.446374343,
				"z": 3.7897803845,
				"element": "H" 
			},
			{
				"x": 1.036466069,
				"y": -0.3379245321,
				"z": 4.9271499739,
				"element": "H" 
			},
			{
				"x": -0.4303727396,
				"y": 1.1887405814,
				"z": 3.674349017,
				"element": "H" 
			},
			{
				"x": 0.1573608417,
				"y": -2.1409159457,
				"z": 0.4656887575,
				"element": "H" 
			},
			{
				"x": 0.8141723458,
				"y": -3.4665495137,
				"z": -1.5209319178,
				"element": "H" 
			}
		],
		 "valence_orbital": [ 
			{
				"type": "occ",
				"energy": -0.27683,
				"method": "rhf"
			},
			{
				"type": "occ",
				"energy": -0.26451,
				"method": "rhf"
			},
			{
				"type": "occ",
				"energy": -0.26047,
				"method": "rhf"
			},
			{
				"type": "occ",
				"energy": -0.25859,
				"method": "rhf"
			},
			{
				"type": "occ",
				"energy": -0.24032,
				"method": "rhf"
			},
			{
				"type": "unocc",
				"energy": -0.02334,
				"method": "rhf"
			},
			{
				"type": "unocc",
				"energy": -0.02024,
				"method": "rhf"
			},
			{
				"type": "unocc",
				"energy": -0.01627,
				"method": "rhf"
			},
			{
				"type": "unocc",
				"energy": -0.01175,
				"method": "rhf"
			},
			{
				"type": "unocc",
				"energy": -0.00632,
				"method": "rhf"
			}
		],
		"cosmo_sigma_profile": { 
			"-0.025": 0.0,
			"-0.024": 0.0,
			"-0.023": 0.0,
			"-0.022": 0.0,
			"-0.021": 0.0,
			"-0.02": 0.0,
			"-0.019": 0.0,
			"-0.018": 0.0,
			"-0.017": 0.0,
			"-0.016": 0.0,
			"-0.015": 0.0,
			"-0.014": 0.0,
			"-0.013": 0.0167004955747,
			"-0.012": 1.15618176925,
			"-0.011": 2.85569407716,
			"-0.01": 3.61354415244,
			"-0.009": 3.59753790017,
			"-0.008": 6.38846563618,
			"-0.007": 8.54099605659,
			"-0.006": 21.8173098555,
			"-0.005": 27.9490856445,
			"-0.004": 29.2474266326,
			"-0.003": 24.0547478772,
			"-0.002": 23.0279186021,
			"-0.001": 22.193577521,
			"0.0": 21.6487230722,
			"0.001": 21.7055132329,
			"0.002": 23.736654751,
			"0.003": 25.3653386636,
			"0.004": 26.0252109499,
			"0.005": 20.7151596168,
			"0.006": 6.49057719422,
			"0.007": 7.23884147281,
			"0.008": 6.78548533828,
			"0.009": 5.26650548549,
			"0.01": 4.48878673613,
			"0.011": 3.66982434475,
			"0.012": 3.80161385618,
			"0.013": 2.27856367565,
			"0.014": 1.04092991455,
			"0.015": 1.03318199731,
			"0.016": 0.958785173933,
			"0.017": 0.16397147492,
			"0.018": 0.0,
			"0.019": 0.0,
			"0.02": 0.0,
			"0.021": 0.0,
			"0.022": 0.0,
			"0.023": 0.0,
			"0.024": 0.0,
			"0.025": 0.0
		}
	}
}
