{
	 "smiles": "CCOC1=C(SC=C1)C(O)=O", 
	 "Tm": 395.15, 
	 "num_atms": 19, 
	 "gaussian": { 
		 "optdone": 1, 
		 "sigma_profile": "yes", 
		 "theory": "DFT", 
		 "functional": "B3LYP", 
		 "basiset": "6-31G**", 
		 "properties": { 
			 "R2extent": 2908.926, 
			 "electric_dipole_moment_norm": 3.15036016671, 
			 "electric_quadrupole_moment_norm": 6.02658672965, 
			 "total_energy": -895.416178821, 
			 "HOMO_LUMO_gap": 0.17785, 
			 "cosmo_polarized_energy": -14.02, 
			 "cosmo_cavitation_energy": 25.09, 
			 "cosmo_dispersion_energy": -18.92, 
			 "cosmo_repulsion_energy": 1.5, 
			 "cosmo_total_nonelectrostatic_energy": 7.67, 
			 "SMD_solvation_energy": 6.03 
		},
		"coords": [
			{
				"x": 0.8952697031,
				"y": 1.3734523597,
				"z": -2.0101470763,
				"element": "C" 
			},
			{
				"x": 0.34960517,
				"y": 1.3719903701,
				"z": -0.5941205909,
				"element": "C" 
			},
			{
				"x": 0.480567796,
				"y": 0.0377797105,
				"z": -0.088352563,
				"element": "O" 
			},
			{
				"x": 0.0586037675,
				"y": -0.2135795204,
				"z": 1.1639672883,
				"element": "C" 
			},
			{
				"x": 0.1563479549,
				"y": -1.4871583076,
				"z": 1.7169524406,
				"element": "C" 
			},
			{
				"x": -0.4699172189,
				"y": -1.5042710305,
				"z": 3.3505770081,
				"element": "S" 
			},
			{
				"x": -0.8487277248,
				"y": 0.17289563,
				"z": 3.2693762918,
				"element": "C" 
			},
			{
				"x": -0.5212558007,
				"y": 0.7359242726,
				"z": 2.0649373312,
				"element": "C" 
			},
			{
				"x": 0.6932087638,
				"y": -2.6873390644,
				"z": 1.0854949238,
				"element": "C" 
			},
			{
				"x": 0.6340926955,
				"y": -3.7650588104,
				"z": 1.9231877083,
				"element": "O" 
			},
			{
				"x": 1.1476678186,
				"y": -2.7692431137,
				"z": -0.0387041405,
				"element": "O" 
			},
			{
				"x": 1.9456654412,
				"y": 1.0709268061,
				"z": -2.0168927071,
				"element": "H" 
			},
			{
				"x": 0.3337525283,
				"y": 0.6771283788,
				"z": -2.6384216388,
				"element": "H" 
			},
			{
				"x": 0.8163687003,
				"y": 2.3763608685,
				"z": -2.4409606357,
				"element": "H" 
			},
			{
				"x": -0.7074203793,
				"y": 1.6711503681,
				"z": -0.5781239408,
				"element": "H" 
			},
			{
				"x": 0.9108615272,
				"y": 2.0665362749,
				"z": 0.0459227884,
				"element": "H" 
			},
			{
				"x": -1.2980074895,
				"y": 0.6678049267,
				"z": 4.1197404867,
				"element": "H" 
			},
			{
				"x": -0.6860327842,
				"y": 1.7792484181,
				"z": 1.8313020173,
				"element": "H" 
			},
			{
				"x": 1.009549531,
				"y": -4.505548537,
				"z": 1.4201650086,
				"element": "H" 
			}
		],
		 "valence_orbital": [ 
			{
				"type": "occ",
				"energy": -0.32888,
				"method": "rhf"
			},
			{
				"type": "occ",
				"energy": -0.30541,
				"method": "rhf"
			},
			{
				"type": "occ",
				"energy": -0.26226,
				"method": "rhf"
			},
			{
				"type": "occ",
				"energy": -0.25323,
				"method": "rhf"
			},
			{
				"type": "occ",
				"energy": -0.22291,
				"method": "rhf"
			},
			{
				"type": "unocc",
				"energy": -0.04506,
				"method": "rhf"
			},
			{
				"type": "unocc",
				"energy": 0.02597,
				"method": "rhf"
			},
			{
				"type": "unocc",
				"energy": 0.0392,
				"method": "rhf"
			},
			{
				"type": "unocc",
				"energy": 0.08159,
				"method": "rhf"
			},
			{
				"type": "unocc",
				"energy": 0.09258,
				"method": "rhf"
			}
		],
		"cosmo_sigma_profile": { 
			"-0.025": 0.0,
			"-0.024": 0.0,
			"-0.023": 0.0,
			"-0.022": 0.0,
			"-0.021": 0.0,
			"-0.02": 0.0,
			"-0.019": 0.0,
			"-0.018": 0.498461627641,
			"-0.017": 0.780846333543,
			"-0.016": 0.975654170189,
			"-0.015": 0.837453026012,
			"-0.014": 0.56391862229,
			"-0.013": 0.732239390557,
			"-0.012": 0.749984202816,
			"-0.011": 0.830545762149,
			"-0.01": 1.13142574123,
			"-0.009": 2.88266065091,
			"-0.008": 3.90300656062,
			"-0.007": 5.50217722626,
			"-0.006": 7.66007343017,
			"-0.005": 13.7219977642,
			"-0.004": 15.3089937198,
			"-0.003": 13.8406042022,
			"-0.002": 12.591208574,
			"-0.001": 13.9139185726,
			"0.0": 14.0369342695,
			"0.001": 14.7596854313,
			"0.002": 18.2964045988,
			"0.003": 15.2967830713,
			"0.004": 8.88282535255,
			"0.005": 3.92546761688,
			"0.006": 4.48290848725,
			"0.007": 3.72443248552,
			"0.008": 2.91328949564,
			"0.009": 2.19781116595,
			"0.01": 2.47410588375,
			"0.011": 2.27398951338,
			"0.012": 5.10683512889,
			"0.013": 3.32324414947,
			"0.014": 1.87135984412,
			"0.015": 1.30133743277,
			"0.016": 0.102596385718,
			"0.017": 0.0,
			"0.018": 0.0,
			"0.019": 0.0,
			"0.02": 0.0,
			"0.021": 0.0,
			"0.022": 0.0,
			"0.023": 0.0,
			"0.024": 0.0,
			"0.025": 0.0
		}
	}
}
