{
	 "smiles": "[O-][N+](=O)C1=C(C=CC(C=O)=C1)N1CCOCC1", 
	 "Tm": 327.15, 
	 "num_atms": 29, 
	 "gaussian": { 
		 "optdone": 1, 
		 "sigma_profile": "yes", 
		 "theory": "DFT", 
		 "functional": "B3LYP", 
		 "basiset": "6-31G**", 
		 "properties": { 
			 "R2extent": 4591.2779, 
			 "electric_dipole_moment_norm": 3.87538280045, 
			 "electric_quadrupole_moment_norm": 19.0793929382, 
			 "total_energy": -836.65854746, 
			 "HOMO_LUMO_gap": 0.14311, 
			 "cosmo_polarized_energy": -16.75, 
			 "cosmo_cavitation_energy": 32.3, 
			 "cosmo_dispersion_energy": -23.44, 
			 "cosmo_repulsion_energy": 1.79, 
			 "cosmo_total_nonelectrostatic_energy": 10.65, 
			 "SMD_solvation_energy": 7.83 
		},
		"coords": [
			{
				"x": -0.366675589,
				"y": -1.3266357723,
				"z": 2.1459890536,
				"element": "O" 
			},
			{
				"x": -0.8076795529,
				"y": -0.1892074662,
				"z": 1.9565259568,
				"element": "N" 
			},
			{
				"x": -1.7340695183,
				"y": 0.3113459415,
				"z": 2.5983005775,
				"element": "O" 
			},
			{
				"x": -0.1333697672,
				"y": 0.6481301156,
				"z": 0.9632929099,
				"element": "C" 
			},
			{
				"x": 0.5188545966,
				"y": 0.1116218423,
				"z": -0.1889867728,
				"element": "C" 
			},
			{
				"x": 1.3935224479,
				"y": 1.005543117,
				"z": -0.8738488732,
				"element": "C" 
			},
			{
				"x": 1.5231695585,
				"y": 2.327202521,
				"z": -0.5039237553,
				"element": "C" 
			},
			{
				"x": 0.7901539503,
				"y": 2.8560624194,
				"z": 0.576670252,
				"element": "C" 
			},
			{
				"x": 0.9106261016,
				"y": 4.2756418265,
				"z": 0.9512383682,
				"element": "C" 
			},
			{
				"x": 1.6216731085,
				"y": 5.080405589,
				"z": 0.3764463685,
				"element": "O" 
			},
			{
				"x": -0.0306536919,
				"y": 1.9974747961,
				"z": 1.3007363046,
				"element": "C" 
			},
			{
				"x": 0.3119324701,
				"y": -1.1515982717,
				"z": -0.6756444241,
				"element": "N" 
			},
			{
				"x": -0.9423031945,
				"y": -1.8950406852,
				"z": -0.4861483079,
				"element": "C" 
			},
			{
				"x": -1.3267570506,
				"y": -2.5989477122,
				"z": -1.7864368762,
				"element": "C" 
			},
			{
				"x": -0.3419997755,
				"y": -3.5293254589,
				"z": -2.2277625744,
				"element": "O" 
			},
			{
				"x": 0.9775784498,
				"y": -3.2184684754,
				"z": -1.8001885364,
				"element": "C" 
			},
			{
				"x": 1.2184543972,
				"y": -1.7162172957,
				"z": -1.6835741983,
				"element": "C" 
			},
			{
				"x": 1.9330302663,
				"y": 0.6519499846,
				"z": -1.7427384413,
				"element": "H" 
			},
			{
				"x": 2.1761010841,
				"y": 2.9947003036,
				"z": -1.0577606252,
				"element": "H" 
			},
			{
				"x": 0.2880408284,
				"y": 4.5794939865,
				"z": 1.8218192492,
				"element": "H" 
			},
			{
				"x": -0.5755331161,
				"y": 2.3466778594,
				"z": 2.1716859085,
				"element": "H" 
			},
			{
				"x": -0.8556869942,
				"y": -2.6150914395,
				"z": 0.3336442191,
				"element": "H" 
			},
			{
				"x": -1.7389478838,
				"y": -1.193342427,
				"z": -0.2209727664,
				"element": "H" 
			},
			{
				"x": -2.2546878811,
				"y": -3.1590969457,
				"z": -1.6315052788,
				"element": "H" 
			},
			{
				"x": -1.5144833349,
				"y": -1.8492212988,
				"z": -2.5705166876,
				"element": "H" 
			},
			{
				"x": 1.6617776251,
				"y": -3.6403156096,
				"z": -2.5428468829,
				"element": "H" 
			},
			{
				"x": 1.194011581,
				"y": -3.6960385984,
				"z": -0.832688261,
				"element": "H" 
			},
			{
				"x": 2.2557165947,
				"y": -1.543064188,
				"z": -1.3783374557,
				"element": "H" 
			},
			{
				"x": 1.0737042897,
				"y": -1.2454386578,
				"z": -2.6677684504,
				"element": "H" 
			}
		],
		 "valence_orbital": [ 
			{
				"type": "occ",
				"energy": -0.30106,
				"method": "rhf"
			},
			{
				"type": "occ",
				"energy": -0.27889,
				"method": "rhf"
			},
			{
				"type": "occ",
				"energy": -0.2691,
				"method": "rhf"
			},
			{
				"type": "occ",
				"energy": -0.25777,
				"method": "rhf"
			},
			{
				"type": "occ",
				"energy": -0.22995,
				"method": "rhf"
			},
			{
				"type": "unocc",
				"energy": -0.08684,
				"method": "rhf"
			},
			{
				"type": "unocc",
				"energy": -0.06398,
				"method": "rhf"
			},
			{
				"type": "unocc",
				"energy": -0.02046,
				"method": "rhf"
			},
			{
				"type": "unocc",
				"energy": 0.03133,
				"method": "rhf"
			},
			{
				"type": "unocc",
				"energy": 0.06348,
				"method": "rhf"
			}
		],
		"cosmo_sigma_profile": { 
			"-0.025": 0.0,
			"-0.024": 0.0,
			"-0.023": 0.0,
			"-0.022": 0.0,
			"-0.021": 0.0,
			"-0.02": 0.0,
			"-0.019": 0.0,
			"-0.018": 0.0,
			"-0.017": 0.0,
			"-0.016": 0.0,
			"-0.015": 0.0,
			"-0.014": 0.0,
			"-0.013": 0.0,
			"-0.012": 0.0,
			"-0.011": 0.0,
			"-0.01": 0.0,
			"-0.009": 0.731012720797,
			"-0.008": 5.65667521312,
			"-0.007": 12.9104055822,
			"-0.006": 22.8898229101,
			"-0.005": 29.8550960373,
			"-0.004": 23.6047587539,
			"-0.003": 16.5668862616,
			"-0.002": 14.2164355309,
			"-0.001": 12.4128424216,
			"0.0": 15.9310431099,
			"0.001": 16.3187907595,
			"0.002": 11.1770375737,
			"0.003": 6.99373481327,
			"0.004": 5.66827176436,
			"0.005": 6.1309808772,
			"0.006": 6.37238127313,
			"0.007": 7.47772564981,
			"0.008": 11.9197982045,
			"0.009": 8.09963165007,
			"0.01": 6.80714348195,
			"0.011": 6.12114014402,
			"0.012": 5.33694832682,
			"0.013": 2.77930204439,
			"0.014": 0.197227165847,
			"0.015": 0.0,
			"0.016": 0.0,
			"0.017": 0.0,
			"0.018": 0.0,
			"0.019": 0.0,
			"0.02": 0.0,
			"0.021": 0.0,
			"0.022": 0.0,
			"0.023": 0.0,
			"0.024": 0.0,
			"0.025": 0.0
		}
	}
}
