{
	 "smiles": "OC(=O)C1=CC(OCC2=CN=CC=C2)=CC=C1", 
	 "Tm": 469.15, 
	 "num_atms": 28, 
	 "gaussian": { 
		 "optdone": 1, 
		 "sigma_profile": "yes", 
		 "theory": "DFT", 
		 "functional": "B3LYP", 
		 "basiset": "6-31G**", 
		 "properties": { 
			 "R2extent": 5876.7111, 
			 "electric_dipole_moment_norm": 3.91652642146, 
			 "electric_quadrupole_moment_norm": 36.3465985332, 
			 "total_energy": -782.426468215, 
			 "HOMO_LUMO_gap": 0.19144, 
			 "cosmo_polarized_energy": -19.06, 
			 "cosmo_cavitation_energy": 33.08, 
			 "cosmo_dispersion_energy": -23.68, 
			 "cosmo_repulsion_energy": 1.83, 
			 "cosmo_total_nonelectrostatic_energy": 11.23, 
			 "SMD_solvation_energy": 5.49 
		},
		"coords": [
			{
				"x": 3.7975204077,
				"y": -3.7450541338,
				"z": 2.5826268956,
				"element": "O" 
			},
			{
				"x": 3.1624305456,
				"y": -3.7642311079,
				"z": 1.379688712,
				"element": "C" 
			},
			{
				"x": 3.6373340739,
				"y": -4.3807915835,
				"z": 0.4556473389,
				"element": "O" 
			},
			{
				"x": 1.8799892781,
				"y": -2.9889137577,
				"z": 1.2878268797,
				"element": "C" 
			},
			{
				"x": 1.4449570694,
				"y": -2.6248795365,
				"z": 0.0136729005,
				"element": "C" 
			},
			{
				"x": 0.2591001195,
				"y": -1.9002934479,
				"z": -0.1484132268,
				"element": "C" 
			},
			{
				"x": -0.0653558094,
				"y": -1.5953870624,
				"z": -1.4411255676,
				"element": "O" 
			},
			{
				"x": -1.3162211819,
				"y": -0.9694342876,
				"z": -1.7245308604,
				"element": "C" 
			},
			{
				"x": -1.3326939673,
				"y": 0.517643873,
				"z": -1.4394605237,
				"element": "C" 
			},
			{
				"x": -2.504637477,
				"y": 1.1522271502,
				"z": -1.0130537279,
				"element": "C" 
			},
			{
				"x": -2.611806937,
				"y": 2.46714608,
				"z": -0.790894567,
				"element": "N" 
			},
			{
				"x": -1.5170713547,
				"y": 3.2113883798,
				"z": -0.9866830068,
				"element": "C" 
			},
			{
				"x": -0.2924117286,
				"y": 2.6838203275,
				"z": -1.4027557874,
				"element": "C" 
			},
			{
				"x": -0.2002877448,
				"y": 1.3142681265,
				"z": -1.6357439492,
				"element": "C" 
			},
			{
				"x": -0.501899971,
				"y": -1.5478551437,
				"z": 0.9744005349,
				"element": "C" 
			},
			{
				"x": -0.0723961823,
				"y": -1.9386851633,
				"z": 2.2450924451,
				"element": "C" 
			},
			{
				"x": 1.1096709371,
				"y": -2.653726563,
				"z": 2.4138333667,
				"element": "C" 
			},
			{
				"x": 3.3870340085,
				"y": -3.0892135905,
				"z": 3.163142028,
				"element": "H" 
			},
			{
				"x": 2.0278941832,
				"y": -2.9083952923,
				"z": -0.8550530164,
				"element": "H" 
			},
			{
				"x": -1.4624809672,
				"y": -1.1482054942,
				"z": -2.7949317703,
				"element": "H" 
			},
			{
				"x": -2.1329724085,
				"y": -1.4760357022,
				"z": -1.1940844712,
				"element": "H" 
			},
			{
				"x": -3.4077690263,
				"y": 0.565382221,
				"z": -0.8404025773,
				"element": "H" 
			},
			{
				"x": -1.6220185625,
				"y": 4.2783588386,
				"z": -0.7985259354,
				"element": "H" 
			},
			{
				"x": 0.5658685465,
				"y": 3.3340538126,
				"z": -1.5403924765,
				"element": "H" 
			},
			{
				"x": 0.7325418386,
				"y": 0.859980593,
				"z": -1.956021018,
				"element": "H" 
			},
			{
				"x": -1.4110859934,
				"y": -0.9683264163,
				"z": 0.874445943,
				"element": "H" 
			},
			{
				"x": -0.675564177,
				"y": -1.6787505195,
				"z": 3.1097651327,
				"element": "H" 
			},
			{
				"x": 1.3963324808,
				"y": -2.9807905997,
				"z": 3.409630305,
				"element": "H" 
			}
		],
		 "valence_orbital": [ 
			{
				"type": "occ",
				"energy": -0.27751,
				"method": "rhf"
			},
			{
				"type": "occ",
				"energy": -0.2706,
				"method": "rhf"
			},
			{
				"type": "occ",
				"energy": -0.26447,
				"method": "rhf"
			},
			{
				"type": "occ",
				"energy": -0.26402,
				"method": "rhf"
			},
			{
				"type": "occ",
				"energy": -0.24122,
				"method": "rhf"
			},
			{
				"type": "unocc",
				"energy": -0.04978,
				"method": "rhf"
			},
			{
				"type": "unocc",
				"energy": -0.03687,
				"method": "rhf"
			},
			{
				"type": "unocc",
				"energy": -0.02553,
				"method": "rhf"
			},
			{
				"type": "unocc",
				"energy": -0.01431,
				"method": "rhf"
			},
			{
				"type": "unocc",
				"energy": 0.05089,
				"method": "rhf"
			}
		],
		"cosmo_sigma_profile": { 
			"-0.025": 0.0,
			"-0.024": 0.0,
			"-0.023": 0.0,
			"-0.022": 0.0,
			"-0.021": 0.0,
			"-0.02": 0.0,
			"-0.019": 0.0355604339328,
			"-0.018": 0.730338173794,
			"-0.017": 0.890960693314,
			"-0.016": 0.988017744982,
			"-0.015": 0.46169857099,
			"-0.014": 0.864352115544,
			"-0.013": 1.2933972214,
			"-0.012": 1.52637433984,
			"-0.011": 1.35795973857,
			"-0.01": 0.944214901593,
			"-0.009": 1.01769017308,
			"-0.008": 4.61995960046,
			"-0.007": 13.3046412662,
			"-0.006": 19.1637883623,
			"-0.005": 19.3897511292,
			"-0.004": 16.9372573863,
			"-0.003": 15.4825503095,
			"-0.002": 13.0795281564,
			"-0.001": 13.9852634335,
			"0.0": 14.8696637252,
			"0.001": 19.8895997465,
			"0.002": 24.6258970117,
			"0.003": 20.7089612615,
			"0.004": 9.6985982821,
			"0.005": 6.63372830914,
			"0.006": 3.41607861402,
			"0.007": 4.84808133402,
			"0.008": 5.37278915053,
			"0.009": 6.16795831167,
			"0.01": 5.48438774637,
			"0.011": 6.5026758185,
			"0.012": 5.78962478222,
			"0.013": 1.96239126268,
			"0.014": 1.35925282189,
			"0.015": 0.723593345707,
			"0.016": 0.866145178424,
			"0.017": 0.255737497873,
			"0.018": 0.0,
			"0.019": 0.0,
			"0.02": 0.0,
			"0.021": 0.0,
			"0.022": 0.0,
			"0.023": 0.0,
			"0.024": 0.0,
			"0.025": 0.0
		}
	}
}
