{
	 "smiles": "OC(=O)C=CC1=CC=C2C=CC(=O)NC2=C1", 
	 "Tm": 603.15, 
	 "num_atms": 25, 
	 "gaussian": { 
		 "optdone": 1, 
		 "sigma_profile": "yes", 
		 "theory": "DFT", 
		 "functional": "B3LYP", 
		 "basiset": "6-31G**", 
		 "properties": { 
			 "R2extent": 5619.8699, 
			 "electric_dipole_moment_norm": 5.54660383568, 
			 "electric_quadrupole_moment_norm": 24.0326326165, 
			 "total_energy": -743.14180327, 
			 "HOMO_LUMO_gap": 0.13878, 
			 "cosmo_polarized_energy": -25.42, 
			 "cosmo_cavitation_energy": 30.85, 
			 "cosmo_dispersion_energy": -22.61, 
			 "cosmo_repulsion_energy": 1.73, 
			 "cosmo_total_nonelectrostatic_energy": 9.96, 
			 "SMD_solvation_energy": 7.05 
		},
		"coords": [
			{
				"x": -5.447490606,
				"y": 2.8658628795,
				"z": -0.7801764763,
				"element": "O" 
			},
			{
				"x": -4.1455720654,
				"y": 2.7567058934,
				"z": -1.1648927372,
				"element": "C" 
			},
			{
				"x": -3.6882960889,
				"y": 3.5388441745,
				"z": -1.9672997011,
				"element": "O" 
			},
			{
				"x": -3.3780832449,
				"y": 1.6465066765,
				"z": -0.5410640345,
				"element": "C" 
			},
			{
				"x": -2.0844702379,
				"y": 1.470908723,
				"z": -0.866651029,
				"element": "C" 
			},
			{
				"x": -1.1623148841,
				"y": 0.4506305387,
				"z": -0.3716913559,
				"element": "C" 
			},
			{
				"x": -1.5366347587,
				"y": -0.5398037531,
				"z": 0.5689650786,
				"element": "C" 
			},
			{
				"x": -0.6181716828,
				"y": -1.4778800603,
				"z": 0.998114348,
				"element": "C" 
			},
			{
				"x": 0.7071672256,
				"y": -1.4789478052,
				"z": 0.5182179738,
				"element": "C" 
			},
			{
				"x": 1.7025330868,
				"y": -2.4335908579,
				"z": 0.9328228861,
				"element": "C" 
			},
			{
				"x": 2.9668864733,
				"y": -2.3985685953,
				"z": 0.4457177734,
				"element": "C" 
			},
			{
				"x": 3.3927461563,
				"y": -1.3904093333,
				"z": -0.5279740316,
				"element": "C" 
			},
			{
				"x": 4.5149183205,
				"y": -1.298121062,
				"z": -1.0100802745,
				"element": "O" 
			},
			{
				"x": 2.3828747557,
				"y": -0.4910763017,
				"z": -0.8923396806,
				"element": "N" 
			},
			{
				"x": 1.0852748962,
				"y": -0.4895851251,
				"z": -0.4228416426,
				"element": "C" 
			},
			{
				"x": 0.1503754134,
				"y": 0.460912715,
				"z": -0.856055234,
				"element": "C" 
			},
			{
				"x": -5.6704011342,
				"y": 2.1776050899,
				"z": -0.1384010434,
				"element": "H" 
			},
			{
				"x": -3.8822122396,
				"y": 0.9954223092,
				"z": 0.1699403999,
				"element": "H" 
			},
			{
				"x": -1.680102484,
				"y": 2.1792307771,
				"z": -1.5882011607,
				"element": "H" 
			},
			{
				"x": -2.5487193095,
				"y": -0.5659919924,
				"z": 0.9575188983,
				"element": "H" 
			},
			{
				"x": -0.9105591996,
				"y": -2.2356318409,
				"z": 1.7199402546,
				"element": "H" 
			},
			{
				"x": 1.4143716792,
				"y": -3.1938245294,
				"z": 1.6550535678,
				"element": "H" 
			},
			{
				"x": 3.7251256655,
				"y": -3.1108612231,
				"z": 0.7494207219,
				"element": "H" 
			},
			{
				"x": 2.6714989735,
				"y": 0.2085197466,
				"z": -1.5656085181,
				"element": "H" 
			},
			{
				"x": 0.4500552898,
				"y": 1.2159429565,
				"z": -1.578234983,
				"element": "H" 
			}
		],
		 "valence_orbital": [ 
			{
				"type": "occ",
				"energy": -0.28991,
				"method": "rhf"
			},
			{
				"type": "occ",
				"energy": -0.27618,
				"method": "rhf"
			},
			{
				"type": "occ",
				"energy": -0.2606,
				"method": "rhf"
			},
			{
				"type": "occ",
				"energy": -0.25452,
				"method": "rhf"
			},
			{
				"type": "occ",
				"energy": -0.2302,
				"method": "rhf"
			},
			{
				"type": "unocc",
				"energy": -0.09142,
				"method": "rhf"
			},
			{
				"type": "unocc",
				"energy": -0.04463,
				"method": "rhf"
			},
			{
				"type": "unocc",
				"energy": -0.01628,
				"method": "rhf"
			},
			{
				"type": "unocc",
				"energy": 0.01279,
				"method": "rhf"
			},
			{
				"type": "unocc",
				"energy": 0.05088,
				"method": "rhf"
			}
		],
		"cosmo_sigma_profile": { 
			"-0.025": 0.0,
			"-0.024": 0.0,
			"-0.023": 0.0,
			"-0.022": 0.0,
			"-0.021": 0.0,
			"-0.02": 0.0,
			"-0.019": 0.722675171887,
			"-0.018": 1.61863744682,
			"-0.017": 0.873943025197,
			"-0.016": 1.16706293896,
			"-0.015": 2.669353687,
			"-0.014": 1.96013795369,
			"-0.013": 2.98286830519,
			"-0.012": 2.17742988833,
			"-0.011": 1.76616365542,
			"-0.01": 2.97754859407,
			"-0.009": 3.41781804684,
			"-0.008": 8.89800915506,
			"-0.007": 12.5123568687,
			"-0.006": 11.6373315388,
			"-0.005": 10.3501713527,
			"-0.004": 9.4176100643,
			"-0.003": 9.08964879209,
			"-0.002": 11.1439846054,
			"-0.001": 16.13069748,
			"0.0": 19.413589266,
			"0.001": 24.5786620786,
			"0.002": 22.4432212921,
			"0.003": 12.443849785,
			"0.004": 5.43236877633,
			"0.005": 3.06489388135,
			"0.006": 3.83675383685,
			"0.007": 3.15058921074,
			"0.008": 4.19337976708,
			"0.009": 4.36955937559,
			"0.01": 4.42905646978,
			"0.011": 7.00049392153,
			"0.012": 7.58667082749,
			"0.013": 6.58388621861,
			"0.014": 6.06365872559,
			"0.015": 1.43837824419,
			"0.016": 0.011941425744,
			"0.017": 0.0,
			"0.018": 0.0,
			"0.019": 0.0,
			"0.02": 0.0,
			"0.021": 0.0,
			"0.022": 0.0,
			"0.023": 0.0,
			"0.024": 0.0,
			"0.025": 0.0
		}
	}
}
