{
	 "smiles": "CC(=O)C(O)=O", 
	 "Tm": 285.55, 
	 "num_atms": 10, 
	 "gaussian": { 
		 "optdone": 1, 
		 "sigma_profile": "yes", 
		 "theory": "DFT", 
		 "functional": "B3LYP", 
		 "basiset": "6-31G**", 
		 "properties": { 
			 "R2extent": 1578.2473, 
			 "electric_dipole_moment_norm": 2.36293641472, 
			 "electric_quadrupole_moment_norm": 6.78612562734, 
			 "total_energy": -342.402988709, 
			 "HOMO_LUMO_gap": 0.18018, 
			 "cosmo_polarized_energy": -9.47, 
			 "cosmo_cavitation_energy": 14.76, 
			 "cosmo_dispersion_energy": -10.9, 
			 "cosmo_repulsion_energy": 0.96, 
			 "cosmo_total_nonelectrostatic_energy": 4.83, 
			 "SMD_solvation_energy": 5.04 
		},
		"coords": [
			{
				"x": 1.4282038113,
				"y": 0.079706631,
				"z": -0.9473877805,
				"element": "C" 
			},
			{
				"x": 1.133144495,
				"y": -0.9217964156,
				"z": -2.021387111,
				"element": "C" 
			},
			{
				"x": 1.9125322406,
				"y": -1.765129754,
				"z": -2.4316152101,
				"element": "O" 
			},
			{
				"x": -0.2776663057,
				"y": -0.8804251348,
				"z": -2.658008641,
				"element": "C" 
			},
			{
				"x": -0.4327127502,
				"y": -1.8136199568,
				"z": -3.6021297834,
				"element": "O" 
			},
			{
				"x": -1.1266506526,
				"y": -0.0881120252,
				"z": -2.3280166238,
				"element": "O" 
			},
			{
				"x": 1.2860517159,
				"y": 1.0925018337,
				"z": -1.3391174288,
				"element": "H" 
			},
			{
				"x": 0.7065247157,
				"y": -0.0320479088,
				"z": -0.1312353786,
				"element": "H" 
			},
			{
				"x": 2.4461830891,
				"y": -0.0509035295,
				"z": -0.5805760194,
				"element": "H" 
			},
			{
				"x": 0.4171896409,
				"y": -2.29797374,
				"z": -3.6460260234,
				"element": "H" 
			}
		],
		 "valence_orbital": [ 
			{
				"type": "occ",
				"energy": -0.39203,
				"method": "rhf"
			},
			{
				"type": "occ",
				"energy": -0.3909,
				"method": "rhf"
			},
			{
				"type": "occ",
				"energy": -0.34039,
				"method": "rhf"
			},
			{
				"type": "occ",
				"energy": -0.3319,
				"method": "rhf"
			},
			{
				"type": "occ",
				"energy": -0.27051,
				"method": "rhf"
			},
			{
				"type": "unocc",
				"energy": -0.09033,
				"method": "rhf"
			},
			{
				"type": "unocc",
				"energy": 0.04874,
				"method": "rhf"
			},
			{
				"type": "unocc",
				"energy": 0.08648,
				"method": "rhf"
			},
			{
				"type": "unocc",
				"energy": 0.11082,
				"method": "rhf"
			},
			{
				"type": "unocc",
				"energy": 0.13365,
				"method": "rhf"
			}
		],
		"cosmo_sigma_profile": { 
			"-0.025": 0.0,
			"-0.024": 0.0,
			"-0.023": 0.0,
			"-0.022": 0.0,
			"-0.021": 0.0,
			"-0.02": 0.0,
			"-0.019": 0.0,
			"-0.018": 0.0,
			"-0.017": 0.0,
			"-0.016": 0.0628520239319,
			"-0.015": 0.670343662638,
			"-0.014": 0.436171928673,
			"-0.013": 0.510075777791,
			"-0.012": 0.862587526314,
			"-0.011": 1.35017366346,
			"-0.01": 0.686496358003,
			"-0.009": 3.80378903009,
			"-0.008": 6.13447021208,
			"-0.007": 7.03017275111,
			"-0.006": 7.25783358887,
			"-0.005": 7.26852927948,
			"-0.004": 7.55108205667,
			"-0.003": 9.11289022525,
			"-0.002": 7.09395108223,
			"-0.001": 3.95468970881,
			"0.0": 3.49727901455,
			"0.001": 2.98786372573,
			"0.002": 2.80440883488,
			"0.003": 3.87896744244,
			"0.004": 3.62359984729,
			"0.005": 3.05301094922,
			"0.006": 4.43531206734,
			"0.007": 4.78251120422,
			"0.008": 6.51331559026,
			"0.009": 7.0517813642,
			"0.01": 5.86481904827,
			"0.011": 4.42644483015,
			"0.012": 0.757457927058,
			"0.013": 0.0,
			"0.014": 0.0,
			"0.015": 0.0,
			"0.016": 0.0,
			"0.017": 0.0,
			"0.018": 0.0,
			"0.019": 0.0,
			"0.02": 0.0,
			"0.021": 0.0,
			"0.022": 0.0,
			"0.023": 0.0,
			"0.024": 0.0,
			"0.025": 0.0
		}
	}
}
