{
	 "smiles": "CNS(=O)(=O)CC1=CC=C(C=C1)[N+]([O-])=O", 
	 "Tm": 425.15, 
	 "num_atms": 25, 
	 "gaussian": { 
		 "optdone": 1, 
		 "sigma_profile": "yes", 
		 "theory": "DFT", 
		 "functional": "B3LYP", 
		 "basiset": "6-31G**", 
		 "properties": { 
			 "R2extent": 5800.5579, 
			 "electric_dipole_moment_norm": 7.30843819431, 
			 "electric_quadrupole_moment_norm": 13.8288298764, 
			 "total_energy": -1119.29759187, 
			 "HOMO_LUMO_gap": 0.18473, 
			 "cosmo_polarized_energy": -19.87, 
			 "cosmo_cavitation_energy": 31.6, 
			 "cosmo_dispersion_energy": -22.84, 
			 "cosmo_repulsion_energy": 1.74, 
			 "cosmo_total_nonelectrostatic_energy": 10.51, 
			 "SMD_solvation_energy": 6.49 
		},
		"coords": [
			{
				"x": -2.0494470623,
				"y": 0.4832647133,
				"z": -2.8269487245,
				"element": "C" 
			},
			{
				"x": -2.2862508389,
				"y": 0.2012624634,
				"z": -1.4036128764,
				"element": "N" 
			},
			{
				"x": -1.1497440097,
				"y": -0.7548939258,
				"z": -0.5918645914,
				"element": "S" 
			},
			{
				"x": -1.9104468955,
				"y": -1.5444820703,
				"z": 0.3822793035,
				"element": "O" 
			},
			{
				"x": -0.2373545074,
				"y": -1.3825471947,
				"z": -1.5532651487,
				"element": "O" 
			},
			{
				"x": -0.2012934563,
				"y": 0.5161587556,
				"z": 0.3224017838,
				"element": "C" 
			},
			{
				"x": 0.9037404487,
				"y": -0.1027201994,
				"z": 1.1330594715,
				"element": "C" 
			},
			{
				"x": 0.6500871449,
				"y": -0.5654567705,
				"z": 2.4327144592,
				"element": "C" 
			},
			{
				"x": 1.6619017963,
				"y": -1.1510886109,
				"z": 3.1870326683,
				"element": "C" 
			},
			{
				"x": 2.9293971507,
				"y": -1.2730814788,
				"z": 2.621749801,
				"element": "C" 
			},
			{
				"x": 3.2095153968,
				"y": -0.8358440865,
				"z": 1.3290193986,
				"element": "C" 
			},
			{
				"x": 2.186713382,
				"y": -0.2530454048,
				"z": 0.5874570245,
				"element": "C" 
			},
			{
				"x": 4.0087965006,
				"y": -1.8824285995,
				"z": 3.4170289008,
				"element": "N" 
			},
			{
				"x": 5.1185209793,
				"y": -1.976164485,
				"z": 2.8941391403,
				"element": "O" 
			},
			{
				"x": 3.7348312376,
				"y": -2.2584839586,
				"z": 4.5558961456,
				"element": "O" 
			},
			{
				"x": -1.1248267227,
				"y": 1.0537697252,
				"z": -2.9388952725,
				"element": "H" 
			},
			{
				"x": -2.8742253368,
				"y": 1.1070800334,
				"z": -3.1796406002,
				"element": "H" 
			},
			{
				"x": -1.9778242844,
				"y": -0.4170997187,
				"z": -3.4456060699,
				"element": "H" 
			},
			{
				"x": -3.1994383349,
				"y": -0.2017399811,
				"z": -1.2085337485,
				"element": "H" 
			},
			{
				"x": 0.1786286637,
				"y": 1.2078926433,
				"z": -0.4335081919,
				"element": "H" 
			},
			{
				"x": -0.9373174534,
				"y": 1.0326886466,
				"z": 0.9415741283,
				"element": "H" 
			},
			{
				"x": -0.3467647045,
				"y": -0.4719217667,
				"z": 2.8515209123,
				"element": "H" 
			},
			{
				"x": 1.4891788132,
				"y": -1.5112420102,
				"z": 4.1932237427,
				"element": "H" 
			},
			{
				"x": 4.2081509628,
				"y": -0.9573011726,
				"z": 0.9291249464,
				"element": "H" 
			},
			{
				"x": 2.3839711302,
				"y": 0.0840244534,
				"z": -0.4252466028,
				"element": "H" 
			}
		],
		 "valence_orbital": [ 
			{
				"type": "occ",
				"energy": -0.30789,
				"method": "rhf"
			},
			{
				"type": "occ",
				"energy": -0.29176,
				"method": "rhf"
			},
			{
				"type": "occ",
				"energy": -0.28703,
				"method": "rhf"
			},
			{
				"type": "occ",
				"energy": -0.28112,
				"method": "rhf"
			},
			{
				"type": "occ",
				"energy": -0.27738,
				"method": "rhf"
			},
			{
				"type": "unocc",
				"energy": -0.09265,
				"method": "rhf"
			},
			{
				"type": "unocc",
				"energy": -0.03162,
				"method": "rhf"
			},
			{
				"type": "unocc",
				"energy": -0.0134,
				"method": "rhf"
			},
			{
				"type": "unocc",
				"energy": 0.05052,
				"method": "rhf"
			},
			{
				"type": "unocc",
				"energy": 0.0601,
				"method": "rhf"
			}
		],
		"cosmo_sigma_profile": { 
			"-0.025": 0.0,
			"-0.024": 0.0,
			"-0.023": 0.0,
			"-0.022": 0.0,
			"-0.021": 0.0,
			"-0.02": 0.0,
			"-0.019": 0.0,
			"-0.018": 0.0,
			"-0.017": 0.0,
			"-0.016": 0.0,
			"-0.015": 0.280299627895,
			"-0.014": 1.11151409188,
			"-0.013": 0.757378496727,
			"-0.012": 1.18704146461,
			"-0.011": 1.09186820663,
			"-0.01": 1.47495372675,
			"-0.009": 6.62138237701,
			"-0.008": 10.0681392237,
			"-0.007": 13.3147004887,
			"-0.006": 16.5846841165,
			"-0.005": 14.891107057,
			"-0.004": 16.2766551198,
			"-0.003": 16.267050238,
			"-0.002": 17.3785230209,
			"-0.001": 12.6042049224,
			"0.0": 15.5184599708,
			"0.001": 16.1723046171,
			"0.002": 9.6862788034,
			"0.003": 5.85914684557,
			"0.004": 6.34833092174,
			"0.005": 7.28323377009,
			"0.006": 7.6515891514,
			"0.007": 11.5816595879,
			"0.008": 11.6129939884,
			"0.009": 8.04477950461,
			"0.01": 9.79349936014,
			"0.011": 8.92148002215,
			"0.012": 2.99689168412,
			"0.013": 0.0,
			"0.014": 0.0,
			"0.015": 0.0,
			"0.016": 0.0,
			"0.017": 0.0,
			"0.018": 0.0,
			"0.019": 0.0,
			"0.02": 0.0,
			"0.021": 0.0,
			"0.022": 0.0,
			"0.023": 0.0,
			"0.024": 0.0,
			"0.025": 0.0
		}
	}
}
