{
	 "smiles": "CC1=C(C)C(N)=CC(=C1)S(N)(=O)=O", 
	 "Tm": 433.15, 
	 "num_atms": 25, 
	 "gaussian": { 
		 "optdone": 1, 
		 "sigma_profile": "yes", 
		 "theory": "DFT", 
		 "functional": "B3LYP", 
		 "basiset": "6-31G**", 
		 "properties": { 
			 "R2extent": 4341.3172, 
			 "electric_dipole_moment_norm": 7.77005018581, 
			 "electric_quadrupole_moment_norm": 26.0779102915, 
			 "total_energy": -970.168600085, 
			 "HOMO_LUMO_gap": 0.18853, 
			 "cosmo_polarized_energy": -22.74, 
			 "cosmo_cavitation_energy": 29.33, 
			 "cosmo_dispersion_energy": -21.93, 
			 "cosmo_repulsion_energy": 1.7, 
			 "cosmo_total_nonelectrostatic_energy": 9.1, 
			 "SMD_solvation_energy": 4.59 
		},
		"coords": [
			{
				"x": 2.8162197836,
				"y": -0.6639347615,
				"z": -1.6985286666,
				"element": "C" 
			},
			{
				"x": 1.3841972719,
				"y": -0.7340473508,
				"z": -1.2133579912,
				"element": "C" 
			},
			{
				"x": 1.0057353409,
				"y": -0.2018178527,
				"z": 0.0343150855,
				"element": "C" 
			},
			{
				"x": 1.9961129125,
				"y": 0.4555748097,
				"z": 0.9652502882,
				"element": "C" 
			},
			{
				"x": -0.3430507959,
				"y": -0.3006482112,
				"z": 0.4554225258,
				"element": "C" 
			},
			{
				"x": -0.7179929013,
				"y": 0.1615039997,
				"z": 1.7161636517,
				"element": "N" 
			},
			{
				"x": -1.2938342932,
				"y": -0.9225400417,
				"z": -0.3676568678,
				"element": "C" 
			},
			{
				"x": -0.8931439093,
				"y": -1.4407637383,
				"z": -1.593219738,
				"element": "C" 
			},
			{
				"x": 0.428437395,
				"y": -1.3559932716,
				"z": -2.0264935231,
				"element": "C" 
			},
			{
				"x": -2.1262604951,
				"y": -2.1931146646,
				"z": -2.6625325775,
				"element": "S" 
			},
			{
				"x": -2.6588205087,
				"y": -0.9804966922,
				"z": -3.7083411198,
				"element": "N" 
			},
			{
				"x": -3.2855334864,
				"y": -2.5311485777,
				"z": -1.8368193956,
				"element": "O" 
			},
			{
				"x": -1.446425507,
				"y": -3.1684247803,
				"z": -3.5135182861,
				"element": "O" 
			},
			{
				"x": 3.4995432192,
				"y": -1.19924106,
				"z": -1.0293912993,
				"element": "H" 
			},
			{
				"x": 2.9093504101,
				"y": -1.1139614761,
				"z": -2.6897650718,
				"element": "H" 
			},
			{
				"x": 3.1751981236,
				"y": 0.3691918501,
				"z": -1.7679053661,
				"element": "H" 
			},
			{
				"x": 1.7853659778,
				"y": 1.5276811249,
				"z": 1.0923085106,
				"element": "H" 
			},
			{
				"x": 3.0219250651,
				"y": 0.3744330736,
				"z": 0.6067541342,
				"element": "H" 
			},
			{
				"x": 1.9532263744,
				"y": 0.0009773776,
				"z": 1.962606574,
				"element": "H" 
			},
			{
				"x": -1.7127379599,
				"y": 0.2614438228,
				"z": 1.8606505269,
				"element": "H" 
			},
			{
				"x": -0.1957307632,
				"y": 0.9438615306,
				"z": 2.0825004463,
				"element": "H" 
			},
			{
				"x": -2.3246905601,
				"y": -1.0290770931,
				"z": -0.0445613687,
				"element": "H" 
			},
			{
				"x": 0.7165971792,
				"y": -1.7989680538,
				"z": -2.9736204255,
				"element": "H" 
			},
			{
				"x": -1.9162096772,
				"y": -0.6454442429,
				"z": -4.3147200619,
				"element": "H" 
			},
			{
				"x": -3.124878196,
				"y": -0.2260457201,
				"z": -3.2134399841,
				"element": "H" 
			}
		],
		 "valence_orbital": [ 
			{
				"type": "occ",
				"energy": -0.29811,
				"method": "rhf"
			},
			{
				"type": "occ",
				"energy": -0.29503,
				"method": "rhf"
			},
			{
				"type": "occ",
				"energy": -0.2929,
				"method": "rhf"
			},
			{
				"type": "occ",
				"energy": -0.25002,
				"method": "rhf"
			},
			{
				"type": "occ",
				"energy": -0.21675,
				"method": "rhf"
			},
			{
				"type": "unocc",
				"energy": -0.02822,
				"method": "rhf"
			},
			{
				"type": "unocc",
				"energy": 0.00014,
				"method": "rhf"
			},
			{
				"type": "unocc",
				"energy": 0.05828,
				"method": "rhf"
			},
			{
				"type": "unocc",
				"energy": 0.06302,
				"method": "rhf"
			},
			{
				"type": "unocc",
				"energy": 0.08535,
				"method": "rhf"
			}
		],
		"cosmo_sigma_profile": { 
			"-0.025": 0.0,
			"-0.024": 0.0,
			"-0.023": 0.0,
			"-0.022": 0.0,
			"-0.021": 0.0,
			"-0.02": 0.0,
			"-0.019": 0.0,
			"-0.018": 0.0,
			"-0.017": 0.0,
			"-0.016": 0.0,
			"-0.015": 1.46993511172,
			"-0.014": 2.72001553999,
			"-0.013": 2.50461133884,
			"-0.012": 5.55168886175,
			"-0.011": 4.63733064183,
			"-0.01": 5.46031619147,
			"-0.009": 5.72277185523,
			"-0.008": 5.21625678922,
			"-0.007": 4.75656537591,
			"-0.006": 5.4360272227,
			"-0.005": 7.59290778918,
			"-0.004": 16.2438986601,
			"-0.003": 17.1870254421,
			"-0.002": 15.2272038154,
			"-0.001": 14.8772641925,
			"0.0": 17.9435436902,
			"0.001": 10.0409170426,
			"0.002": 9.38228935831,
			"0.003": 9.27427934665,
			"0.004": 12.3759297854,
			"0.005": 9.52056536864,
			"0.006": 4.39345001322,
			"0.007": 4.46470741864,
			"0.008": 5.13481735657,
			"0.009": 5.08826914865,
			"0.01": 7.81586584074,
			"0.011": 11.1115244679,
			"0.012": 8.49123091317,
			"0.013": 1.14518044287,
			"0.014": 0.271081507377,
			"0.015": 0.0,
			"0.016": 0.0,
			"0.017": 0.0,
			"0.018": 0.0,
			"0.019": 0.0,
			"0.02": 0.0,
			"0.021": 0.0,
			"0.022": 0.0,
			"0.023": 0.0,
			"0.024": 0.0,
			"0.025": 0.0
		}
	}
}
