{
	 "smiles": "CCOC(=O)C1=C(C)NC(C)=C(C1C1=CC=CC=C1)C(=O)OCC", 
	 "Tm": 430.15, 
	 "num_atms": 47, 
	 "gaussian": { 
		 "optdone": 1, 
		 "sigma_profile": "yes", 
		 "theory": "DFT", 
		 "functional": "B3LYP", 
		 "basiset": "6-31G**", 
		 "properties": { 
			 "R2extent": 8821.9452, 
			 "electric_dipole_moment_norm": 6.01953416885, 
			 "electric_quadrupole_moment_norm": 10.6213062139, 
			 "total_energy": -1093.55915342, 
			 "HOMO_LUMO_gap": 0.1556, 
			 "cosmo_polarized_energy": -21.56, 
			 "cosmo_cavitation_energy": 48.89, 
			 "cosmo_dispersion_energy": -32.52, 
			 "cosmo_repulsion_energy": 2.55, 
			 "cosmo_total_nonelectrostatic_energy": 18.92, 
			 "SMD_solvation_energy": 10.26 
		},
		"coords": [
			{
				"x": 0.9883457554,
				"y": 0.2762474706,
				"z": 5.8829390793,
				"element": "C" 
			},
			{
				"x": -0.0224342712,
				"y": -0.7272653328,
				"z": 5.3467647341,
				"element": "C" 
			},
			{
				"x": 0.2685474276,
				"y": -1.0964048839,
				"z": 3.9798752126,
				"element": "O" 
			},
			{
				"x": -0.214327132,
				"y": -0.258434456,
				"z": 3.0181800115,
				"element": "C" 
			},
			{
				"x": -0.845041364,
				"y": 0.7495876749,
				"z": 3.2905677731,
				"element": "O" 
			},
			{
				"x": 0.1000152142,
				"y": -0.6629140705,
				"z": 1.6370355331,
				"element": "C" 
			},
			{
				"x": 0.8296225355,
				"y": -1.7566789211,
				"z": 1.2847114685,
				"element": "C" 
			},
			{
				"x": 1.3828909703,
				"y": -2.8361775834,
				"z": 2.1830903554,
				"element": "C" 
			},
			{
				"x": 1.1555956126,
				"y": -1.929619811,
				"z": -0.0555574166,
				"element": "N" 
			},
			{
				"x": 1.0516038418,
				"y": -0.9342060225,
				"z": -1.0194414159,
				"element": "C" 
			},
			{
				"x": 1.8091907782,
				"y": -1.2441449414,
				"z": -2.287632034,
				"element": "C" 
			},
			{
				"x": 0.335127987,
				"y": 0.1840316393,
				"z": -0.7198708673,
				"element": "C" 
			},
			{
				"x": -0.4830947458,
				"y": 0.2544875706,
				"z": 0.5687807157,
				"element": "C" 
			},
			{
				"x": -1.9677724782,
				"y": -0.0319641189,
				"z": 0.3012747898,
				"element": "C" 
			},
			{
				"x": -2.8897932083,
				"y": 1.0216102535,
				"z": 0.2631302028,
				"element": "C" 
			},
			{
				"x": -4.2390580957,
				"y": 0.7810558416,
				"z": 0.0001112715,
				"element": "C" 
			},
			{
				"x": -4.6896209916,
				"y": -0.5200109555,
				"z": -0.2301689739,
				"element": "C" 
			},
			{
				"x": -3.7794109449,
				"y": -1.5782586854,
				"z": -0.1958946962,
				"element": "C" 
			},
			{
				"x": -2.4310900868,
				"y": -1.3341488841,
				"z": 0.0682349604,
				"element": "C" 
			},
			{
				"x": 0.2609533278,
				"y": 1.3924937161,
				"z": -1.5575528776,
				"element": "C" 
			},
			{
				"x": -0.3294992066,
				"y": 2.4065602068,
				"z": -1.2199495225,
				"element": "O" 
			},
			{
				"x": 0.9275937911,
				"y": 1.304412904,
				"z": -2.7436511807,
				"element": "O" 
			},
			{
				"x": 0.8747160509,
				"y": 2.4746174029,
				"z": -3.5907585364,
				"element": "C" 
			},
			{
				"x": -0.3964424648,
				"y": 2.5042591245,
				"z": -4.4270700667,
				"element": "C" 
			},
			{
				"x": 2.008068642,
				"y": -0.1113189049,
				"z": 5.7952252417,
				"element": "H" 
			},
			{
				"x": 0.7879305862,
				"y": 0.4781935021,
				"z": 6.9407148497,
				"element": "H" 
			},
			{
				"x": 0.9176174957,
				"y": 1.2177808269,
				"z": 5.3337329595,
				"element": "H" 
			},
			{
				"x": -1.0365988117,
				"y": -0.3244180967,
				"z": 5.3962893051,
				"element": "H" 
			},
			{
				"x": 0.0213173228,
				"y": -1.6702796483,
				"z": 5.8983675962,
				"element": "H" 
			},
			{
				"x": 0.6253683973,
				"y": -3.2014600587,
				"z": 2.8754681817,
				"element": "H" 
			},
			{
				"x": 1.7508860814,
				"y": -3.6791006941,
				"z": 1.5884051024,
				"element": "H" 
			},
			{
				"x": 2.2107293355,
				"y": -2.4575823701,
				"z": 2.7894293071,
				"element": "H" 
			},
			{
				"x": 1.7100449666,
				"y": -2.7378284937,
				"z": -0.2909518322,
				"element": "H" 
			},
			{
				"x": 2.1164134584,
				"y": -2.2953360069,
				"z": -2.3034527973,
				"element": "H" 
			},
			{
				"x": 2.7061840831,
				"y": -0.6239242156,
				"z": -2.3722257526,
				"element": "H" 
			},
			{
				"x": 1.2019603814,
				"y": -1.0443492412,
				"z": -3.1695375086,
				"element": "H" 
			},
			{
				"x": -0.4304898366,
				"y": 1.2785379175,
				"z": 0.9426000644,
				"element": "H" 
			},
			{
				"x": -2.5383190509,
				"y": 2.0342054183,
				"z": 0.4321479836,
				"element": "H" 
			},
			{
				"x": -4.9395916661,
				"y": 1.6116062994,
				"z": -0.0215397064,
				"element": "H" 
			},
			{
				"x": -5.7404713982,
				"y": -0.7084727522,
				"z": -0.4323986857,
				"element": "H" 
			},
			{
				"x": -4.1198245383,
				"y": -2.5954560262,
				"z": -0.3719523334,
				"element": "H" 
			},
			{
				"x": -1.7339926743,
				"y": -2.1668666767,
				"z": 0.0992557698,
				"element": "H" 
			},
			{
				"x": 0.952374718,
				"y": 3.3671959436,
				"z": -2.9658458069,
				"element": "H" 
			},
			{
				"x": 1.7648133454,
				"y": 2.3937931793,
				"z": -4.2205056104,
				"element": "H" 
			},
			{
				"x": -0.4919797398,
				"y": 1.5930990429,
				"z": -5.0255989725,
				"element": "H" 
			},
			{
				"x": -0.3740720231,
				"y": 3.3616461255,
				"z": -5.1084266908,
				"element": "H" 
			},
			{
				"x": -1.2737873772,
				"y": 2.5987997918,
				"z": -3.783349184,
				"element": "H" 
			}
		],
		 "valence_orbital": [ 
			{
				"type": "occ",
				"energy": -0.25823,
				"method": "rhf"
			},
			{
				"type": "occ",
				"energy": -0.25737,
				"method": "rhf"
			},
			{
				"type": "occ",
				"energy": -0.22924,
				"method": "rhf"
			},
			{
				"type": "occ",
				"energy": -0.22258,
				"method": "rhf"
			},
			{
				"type": "occ",
				"energy": -0.2013,
				"method": "rhf"
			},
			{
				"type": "unocc",
				"energy": -0.0457,
				"method": "rhf"
			},
			{
				"type": "unocc",
				"energy": 0.00546,
				"method": "rhf"
			},
			{
				"type": "unocc",
				"energy": 0.01732,
				"method": "rhf"
			},
			{
				"type": "unocc",
				"energy": 0.02194,
				"method": "rhf"
			},
			{
				"type": "unocc",
				"energy": 0.05847,
				"method": "rhf"
			}
		],
		"cosmo_sigma_profile": { 
			"-0.025": 0.0,
			"-0.024": 0.0,
			"-0.023": 0.0,
			"-0.022": 0.0,
			"-0.021": 0.0,
			"-0.02": 0.0,
			"-0.019": 0.0,
			"-0.018": 0.0,
			"-0.017": 0.0,
			"-0.016": 0.118931960587,
			"-0.015": 1.04358308771,
			"-0.014": 1.49173189991,
			"-0.013": 1.19627175717,
			"-0.012": 1.59035387165,
			"-0.011": 1.91165341547,
			"-0.01": 1.31716013166,
			"-0.009": 1.04214051759,
			"-0.008": 2.34645606034,
			"-0.007": 1.94990866355,
			"-0.006": 4.60341557417,
			"-0.005": 17.655693561,
			"-0.004": 33.8373238857,
			"-0.003": 45.3983866464,
			"-0.002": 42.8880732863,
			"-0.001": 38.8486111641,
			"0.0": 39.5464305784,
			"0.001": 32.3589838295,
			"0.002": 22.4866386654,
			"0.003": 19.5393104122,
			"0.004": 15.0717923211,
			"0.005": 12.1232185778,
			"0.006": 12.4404091062,
			"0.007": 9.10217713225,
			"0.008": 4.50223571363,
			"0.009": 4.34735553641,
			"0.01": 3.33515687494,
			"0.011": 4.05570510924,
			"0.012": 4.43970394145,
			"0.013": 4.77836695903,
			"0.014": 0.102708922026,
			"0.015": 0.0,
			"0.016": 0.0,
			"0.017": 0.0,
			"0.018": 0.0,
			"0.019": 0.0,
			"0.02": 0.0,
			"0.021": 0.0,
			"0.022": 0.0,
			"0.023": 0.0,
			"0.024": 0.0,
			"0.025": 0.0
		}
	}
}
