{
	 "smiles": "OC(=O)C1=CC2=CC=CC=C2OC1=O", 
	 "Tm": 464.65, 
	 "num_atms": 20, 
	 "gaussian": { 
		 "optdone": 1, 
		 "sigma_profile": "yes", 
		 "theory": "DFT", 
		 "functional": "B3LYP", 
		 "basiset": "6-31G**", 
		 "properties": { 
			 "R2extent": 3391.4016, 
			 "electric_dipole_moment_norm": 7.14223716352, 
			 "electric_quadrupole_moment_norm": 13.1063882794, 
			 "total_energy": -685.598826414, 
			 "HOMO_LUMO_gap": 0.16148, 
			 "cosmo_polarized_energy": -14.53, 
			 "cosmo_cavitation_energy": 25.11, 
			 "cosmo_dispersion_energy": -19.1, 
			 "cosmo_repulsion_energy": 1.46, 
			 "cosmo_total_nonelectrostatic_energy": 7.47, 
			 "SMD_solvation_energy": 6.54 
		},
		"coords": [
			{
				"x": 2.2797270285,
				"y": 2.0858775416,
				"z": -3.6817288557,
				"element": "O" 
			},
			{
				"x": 2.1013459654,
				"y": 0.8981236765,
				"z": -3.0980007848,
				"element": "C" 
			},
			{
				"x": 2.7769620618,
				"y": -0.071344621,
				"z": -3.3713410448,
				"element": "O" 
			},
			{
				"x": 1.0037986759,
				"y": 0.8134273464,
				"z": -2.0640409883,
				"element": "C" 
			},
			{
				"x": 0.7794814993,
				"y": -0.3737046804,
				"z": -1.437742677,
				"element": "C" 
			},
			{
				"x": -0.2475152902,
				"y": -0.5121186541,
				"z": -0.4494067566,
				"element": "C" 
			},
			{
				"x": -0.5294023872,
				"y": -1.7129056759,
				"z": 0.2342536066,
				"element": "C" 
			},
			{
				"x": -1.5433143489,
				"y": -1.7599891954,
				"z": 1.1780973252,
				"element": "C" 
			},
			{
				"x": -2.2959915974,
				"y": -0.6065787458,
				"z": 1.4573061883,
				"element": "C" 
			},
			{
				"x": -2.0405216269,
				"y": 0.5916513779,
				"z": 0.7987380387,
				"element": "C" 
			},
			{
				"x": -1.0181985297,
				"y": 0.6285585543,
				"z": -0.1491930779,
				"element": "C" 
			},
			{
				"x": -0.7888770983,
				"y": 1.8194123182,
				"z": -0.7812441129,
				"element": "O" 
			},
			{
				"x": 0.1897769634,
				"y": 1.979218443,
				"z": -1.7329601995,
				"element": "C" 
			},
			{
				"x": 0.3052555475,
				"y": 3.0895993694,
				"z": -2.232693219,
				"element": "O" 
			},
			{
				"x": 1.6272159187,
				"y": 2.728549026,
				"z": -3.3129543847,
				"element": "H" 
			},
			{
				"x": 1.4048351122,
				"y": -1.2200704952,
				"z": -1.7094627318,
				"element": "H" 
			},
			{
				"x": 0.061005967,
				"y": -2.5957926289,
				"z": 0.0074929268,
				"element": "H" 
			},
			{
				"x": -1.75723736,
				"y": -2.6856679344,
				"z": 1.7020294924,
				"element": "H" 
			},
			{
				"x": -3.0893312999,
				"y": -0.6474264586,
				"z": 2.1972456521,
				"element": "H" 
			},
			{
				"x": -2.6102152012,
				"y": 1.4918814364,
				"z": 1.0004056028,
				"element": "H" 
			}
		],
		 "valence_orbital": [ 
			{
				"type": "occ",
				"energy": -0.30692,
				"method": "rhf"
			},
			{
				"type": "occ",
				"energy": -0.30537,
				"method": "rhf"
			},
			{
				"type": "occ",
				"energy": -0.2783,
				"method": "rhf"
			},
			{
				"type": "occ",
				"energy": -0.2733,
				"method": "rhf"
			},
			{
				"type": "occ",
				"energy": -0.26248,
				"method": "rhf"
			},
			{
				"type": "unocc",
				"energy": -0.101,
				"method": "rhf"
			},
			{
				"type": "unocc",
				"energy": -0.0383,
				"method": "rhf"
			},
			{
				"type": "unocc",
				"energy": -0.02293,
				"method": "rhf"
			},
			{
				"type": "unocc",
				"energy": 0.00973,
				"method": "rhf"
			},
			{
				"type": "unocc",
				"energy": 0.06726,
				"method": "rhf"
			}
		],
		"cosmo_sigma_profile": { 
			"-0.025": 0.0,
			"-0.024": 0.0,
			"-0.023": 0.0,
			"-0.022": 0.0,
			"-0.021": 0.0,
			"-0.02": 0.0,
			"-0.019": 0.0,
			"-0.018": 0.0,
			"-0.017": 0.0,
			"-0.016": 0.0,
			"-0.015": 0.0,
			"-0.014": 0.0,
			"-0.013": 0.0,
			"-0.012": 0.0,
			"-0.011": 0.0,
			"-0.01": 0.526386910517,
			"-0.009": 2.52491922717,
			"-0.008": 7.27889857759,
			"-0.007": 12.5683576554,
			"-0.006": 16.0973260602,
			"-0.005": 15.1996836401,
			"-0.004": 12.3886397862,
			"-0.003": 11.806496705,
			"-0.002": 16.2757187732,
			"-0.001": 13.6137167164,
			"0.0": 14.3564540411,
			"0.001": 13.031088852,
			"0.002": 12.9027065284,
			"0.003": 5.85222279914,
			"0.004": 3.84877740219,
			"0.005": 4.72357486842,
			"0.006": 4.54376017498,
			"0.007": 4.07668815925,
			"0.008": 5.02442256516,
			"0.009": 4.99715700113,
			"0.01": 7.31566117059,
			"0.011": 7.14711505976,
			"0.012": 5.14666386279,
			"0.013": 1.83691873185,
			"0.014": 0.159063261615,
			"0.015": 0.0,
			"0.016": 0.0,
			"0.017": 0.0,
			"0.018": 0.0,
			"0.019": 0.0,
			"0.02": 0.0,
			"0.021": 0.0,
			"0.022": 0.0,
			"0.023": 0.0,
			"0.024": 0.0,
			"0.025": 0.0
		}
	}
}
