{
	 "smiles": "OC(=O)[C@@H]1[C@H]2C[C@H](C=C2)[C@H]1C(O)=O", 
	 "Tm": 458.15, 
	 "num_atms": 23, 
	 "gaussian": { 
		 "optdone": 1, 
		 "sigma_profile": "yes", 
		 "theory": "DFT", 
		 "functional": "B3LYP", 
		 "basiset": "6-31G**", 
		 "properties": { 
			 "R2extent": 2684.2985, 
			 "electric_dipole_moment_norm": 5.82867105437, 
			 "electric_quadrupole_moment_norm": 14.5431218956, 
			 "total_energy": -649.863427654, 
			 "HOMO_LUMO_gap": 0.23957, 
			 "cosmo_polarized_energy": -19.15, 
			 "cosmo_cavitation_energy": 25.14, 
			 "cosmo_dispersion_energy": -18.68, 
			 "cosmo_repulsion_energy": 1.46, 
			 "cosmo_total_nonelectrostatic_energy": 7.91, 
			 "SMD_solvation_energy": 5.85 
		},
		"coords": [
			{
				"x": 3.3858830357,
				"y": -0.0203355961,
				"z": 0.3348035377,
				"element": "O" 
			},
			{
				"x": 2.6733162923,
				"y": 0.5637096838,
				"z": -0.6437283398,
				"element": "C" 
			},
			{
				"x": 3.1648805746,
				"y": 0.7046287435,
				"z": -1.7485376641,
				"element": "O" 
			},
			{
				"x": 1.2815059258,
				"y": 1.0798420112,
				"z": -0.3322615261,
				"element": "C" 
			},
			{
				"x": 0.5159992292,
				"y": 0.6152158815,
				"z": 0.956021849,
				"element": "C" 
			},
			{
				"x": -0.8975339341,
				"y": 1.1329127879,
				"z": 0.5826230712,
				"element": "C" 
			},
			{
				"x": -0.9918860214,
				"y": 0.2563468693,
				"z": -0.6887188803,
				"element": "C" 
			},
			{
				"x": -0.6120464506,
				"y": -1.1001040634,
				"z": -0.1088735172,
				"element": "C" 
			},
			{
				"x": 0.2875864157,
				"y": -0.8924389024,
				"z": 0.8631323367,
				"element": "C" 
			},
			{
				"x": 0.2716145684,
				"y": 0.7200330625,
				"z": -1.4836011167,
				"element": "C" 
			},
			{
				"x": 0.0583433151,
				"y": 1.8928955693,
				"z": -2.4363181464,
				"element": "C" 
			},
			{
				"x": 1.1749705805,
				"y": 2.2882194986,
				"z": -3.0780196484,
				"element": "O" 
			},
			{
				"x": -1.0066510546,
				"y": 2.4369209724,
				"z": -2.6160779859,
				"element": "O" 
			},
			{
				"x": 2.8559296662,
				"y": -0.0783174784,
				"z": 1.1426457427,
				"element": "H" 
			},
			{
				"x": 1.3974025071,
				"y": 2.1707126192,
				"z": -0.2815058554,
				"element": "H" 
			},
			{
				"x": 0.9423582177,
				"y": 0.9941843495,
				"z": 1.8902242808,
				"element": "H" 
			},
			{
				"x": -1.647477966,
				"y": 0.8738291634,
				"z": 1.333497734,
				"element": "H" 
			},
			{
				"x": -0.9368237805,
				"y": 2.2059173005,
				"z": 0.3714376514,
				"element": "H" 
			},
			{
				"x": -1.9115615267,
				"y": 0.3157243353,
				"z": -1.2690193643,
				"element": "H" 
			},
			{
				"x": -0.9444786125,
				"y": -2.0560786665,
				"z": -0.498775331,
				"element": "H" 
			},
			{
				"x": 0.8195180173,
				"y": -1.6469532642,
				"z": 1.4333923803,
				"element": "H" 
			},
			{
				"x": 0.6733054522,
				"y": -0.1051990394,
				"z": -2.0810910285,
				"element": "H" 
			},
			{
				"x": 1.9446455485,
				"y": 1.7451341626,
				"z": -2.7967501796,
				"element": "H" 
			}
		],
		 "valence_orbital": [ 
			{
				"type": "occ",
				"energy": -0.33487,
				"method": "rhf"
			},
			{
				"type": "occ",
				"energy": -0.30545,
				"method": "rhf"
			},
			{
				"type": "occ",
				"energy": -0.30189,
				"method": "rhf"
			},
			{
				"type": "occ",
				"energy": -0.26977,
				"method": "rhf"
			},
			{
				"type": "occ",
				"energy": -0.2604,
				"method": "rhf"
			},
			{
				"type": "unocc",
				"energy": -0.02083,
				"method": "rhf"
			},
			{
				"type": "unocc",
				"energy": -0.01421,
				"method": "rhf"
			},
			{
				"type": "unocc",
				"energy": 0.0138,
				"method": "rhf"
			},
			{
				"type": "unocc",
				"energy": 0.04275,
				"method": "rhf"
			},
			{
				"type": "unocc",
				"energy": 0.08286,
				"method": "rhf"
			}
		],
		"cosmo_sigma_profile": { 
			"-0.025": 0.0,
			"-0.024": 0.0,
			"-0.023": 0.0,
			"-0.022": 0.0,
			"-0.021": 0.0,
			"-0.02": 0.0,
			"-0.019": 0.120979697842,
			"-0.018": 0.653498446626,
			"-0.017": 0.749508543612,
			"-0.016": 1.21608869135,
			"-0.015": 0.919368904278,
			"-0.014": 0.967242164527,
			"-0.013": 1.34381565701,
			"-0.012": 1.01085003309,
			"-0.011": 1.2232934257,
			"-0.01": 1.27835705304,
			"-0.009": 3.1988789392,
			"-0.008": 6.79121387555,
			"-0.007": 9.16556091352,
			"-0.006": 9.7085329852,
			"-0.005": 10.7586731261,
			"-0.004": 14.4755161524,
			"-0.003": 15.90011632,
			"-0.002": 15.0597826256,
			"-0.001": 12.7314678159,
			"0.0": 12.4317895108,
			"0.001": 8.45152164518,
			"0.002": 6.20631579271,
			"0.003": 6.12622033338,
			"0.004": 5.3230462962,
			"0.005": 5.17196636237,
			"0.006": 4.96786867604,
			"0.007": 5.12333133333,
			"0.008": 6.10356585241,
			"0.009": 7.48937375782,
			"0.01": 6.30037000156,
			"0.011": 7.59957251108,
			"0.012": 7.10250051631,
			"0.013": 2.32447513488,
			"0.014": 0.223522309423,
			"0.015": 0.0,
			"0.016": 0.0,
			"0.017": 0.0,
			"0.018": 0.0,
			"0.019": 0.0,
			"0.02": 0.0,
			"0.021": 0.0,
			"0.022": 0.0,
			"0.023": 0.0,
			"0.024": 0.0,
			"0.025": 0.0
		}
	}
}
