{
	 "smiles": "CC(C)(C)C1=CC=C(C=C1)S(=O)(=O)NCCBr", 
	 "Tm": 350.15, 
	 "num_atms": 35, 
	 "gaussian": { 
		 "optdone": 1, 
		 "sigma_profile": "yes", 
		 "theory": "DFT", 
		 "functional": "B3LYP", 
		 "basiset": "6-31G**", 
		 "properties": { 
			 "R2extent": 9158.3723, 
			 "electric_dipole_moment_norm": 4.43697625416, 
			 "electric_quadrupole_moment_norm": 17.4920857133, 
			 "total_energy": -3642.86443614, 
			 "HOMO_LUMO_gap": 0.21837, 
			 "cosmo_polarized_energy": -15.97, 
			 "cosmo_cavitation_energy": 40.72, 
			 "cosmo_dispersion_energy": -28.92, 
			 "cosmo_repulsion_energy": 2.25, 
			 "cosmo_total_nonelectrostatic_energy": 14.05, 
			 "SMD_solvation_energy": 4.39 
		},
		"coords": [
			{
				"x": -2.5628699855,
				"y": -3.7639665575,
				"z": -1.4109579752,
				"element": "C" 
			},
			{
				"x": -2.0750402692,
				"y": -2.3952559633,
				"z": -1.9440641539,
				"element": "C" 
			},
			{
				"x": -1.6769744275,
				"y": -2.5682858544,
				"z": -3.422126789,
				"element": "C" 
			},
			{
				"x": -3.2341170027,
				"y": -1.3721431096,
				"z": -1.8716616841,
				"element": "C" 
			},
			{
				"x": -0.9047692456,
				"y": -1.8995947749,
				"z": -1.0758340907,
				"element": "C" 
			},
			{
				"x": 0.3743948463,
				"y": -1.6483049607,
				"z": -1.5989906109,
				"element": "C" 
			},
			{
				"x": 1.4181377566,
				"y": -1.201030696,
				"z": -0.7908181753,
				"element": "C" 
			},
			{
				"x": 1.187565848,
				"y": -0.9946525362,
				"z": 0.5687119772,
				"element": "C" 
			},
			{
				"x": -0.0678465621,
				"y": -1.2419421439,
				"z": 1.1251845562,
				"element": "C" 
			},
			{
				"x": -1.0977591458,
				"y": -1.6877457669,
				"z": 0.3003830554,
				"element": "C" 
			},
			{
				"x": 2.5263861183,
				"y": -0.4444776032,
				"z": 1.6192184476,
				"element": "S" 
			},
			{
				"x": 3.7728732447,
				"y": -1.1028485127,
				"z": 1.2176346651,
				"element": "O" 
			},
			{
				"x": 2.0497880688,
				"y": -0.4969378066,
				"z": 3.006569357,
				"element": "O" 
			},
			{
				"x": 2.7338055321,
				"y": 1.168794526,
				"z": 1.1195301901,
				"element": "N" 
			},
			{
				"x": 1.8768184618,
				"y": 2.1869598777,
				"z": 1.7470029075,
				"element": "C" 
			},
			{
				"x": 1.94140157,
				"y": 3.4476598567,
				"z": 0.8934834055,
				"element": "C" 
			},
			{
				"x": 0.7964028484,
				"y": 4.8591266453,
				"z": 1.6633141461,
				"element": "Br" 
			},
			{
				"x": -2.906831802,
				"y": -3.70042113,
				"z": -0.3745233694,
				"element": "H" 
			},
			{
				"x": -3.3992859578,
				"y": -4.1287784433,
				"z": -2.0171382854,
				"element": "H" 
			},
			{
				"x": -1.7624792597,
				"y": -4.5097536382,
				"z": -1.4527206322,
				"element": "H" 
			},
			{
				"x": -0.8785109185,
				"y": -3.3070074909,
				"z": -3.5469901343,
				"element": "H" 
			},
			{
				"x": -2.54086777,
				"y": -2.9189756408,
				"z": -3.9953460455,
				"element": "H" 
			},
			{
				"x": -1.3466422855,
				"y": -1.6252849053,
				"z": -3.8700857218,
				"element": "H" 
			},
			{
				"x": -4.0779239635,
				"y": -1.7137854591,
				"z": -2.481039448,
				"element": "H" 
			},
			{
				"x": -3.5970217014,
				"y": -1.2365220696,
				"z": -0.8486652187,
				"element": "H" 
			},
			{
				"x": -2.9186507446,
				"y": -0.393379957,
				"z": -2.2476103235,
				"element": "H" 
			},
			{
				"x": 0.5730394208,
				"y": -1.8049479295,
				"z": -2.6523621484,
				"element": "H" 
			},
			{
				"x": 2.4029881764,
				"y": -1.0231356751,
				"z": -1.2093470584,
				"element": "H" 
			},
			{
				"x": -0.2220055807,
				"y": -1.0969349565,
				"z": 2.1887633637,
				"element": "H" 
			},
			{
				"x": -2.0692556462,
				"y": -1.8775290985,
				"z": 0.7457046387,
				"element": "H" 
			},
			{
				"x": 3.7308557376,
				"y": 1.3642870951,
				"z": 1.1941487527,
				"element": "H" 
			},
			{
				"x": 2.1597901224,
				"y": 2.4011842525,
				"z": 2.7837121821,
				"element": "H" 
			},
			{
				"x": 0.8513981852,
				"y": 1.8091493829,
				"z": 1.759013288,
				"element": "H" 
			},
			{
				"x": 1.5791496248,
				"y": 3.2672957898,
				"z": -0.117332047,
				"element": "H" 
			},
			{
				"x": 2.9456567059,
				"y": 3.8712852536,
				"z": 0.8541389788,
				"element": "H" 
			}
		],
		 "valence_orbital": [ 
			{
				"type": "occ",
				"energy": -0.28575,
				"method": "rhf"
			},
			{
				"type": "occ",
				"energy": -0.2813,
				"method": "rhf"
			},
			{
				"type": "occ",
				"energy": -0.28037,
				"method": "rhf"
			},
			{
				"type": "occ",
				"energy": -0.27074,
				"method": "rhf"
			},
			{
				"type": "occ",
				"energy": -0.25872,
				"method": "rhf"
			},
			{
				"type": "unocc",
				"energy": -0.04035,
				"method": "rhf"
			},
			{
				"type": "unocc",
				"energy": -0.02087,
				"method": "rhf"
			},
			{
				"type": "unocc",
				"energy": -0.00991,
				"method": "rhf"
			},
			{
				"type": "unocc",
				"energy": 0.05996,
				"method": "rhf"
			},
			{
				"type": "unocc",
				"energy": 0.07339,
				"method": "rhf"
			}
		],
		"cosmo_sigma_profile": { 
			"-0.025": 0.0,
			"-0.024": 0.0,
			"-0.023": 0.0,
			"-0.022": 0.0,
			"-0.021": 0.0,
			"-0.02": 0.0,
			"-0.019": 0.0,
			"-0.018": 0.0,
			"-0.017": 0.0,
			"-0.016": 0.0,
			"-0.015": 0.623508464975,
			"-0.014": 1.50870218962,
			"-0.013": 1.0412317726,
			"-0.012": 1.71511596074,
			"-0.011": 1.46797676722,
			"-0.01": 1.01903699242,
			"-0.009": 1.42423153329,
			"-0.008": 2.88760935224,
			"-0.007": 7.79294559077,
			"-0.006": 14.3573750788,
			"-0.005": 17.3687142832,
			"-0.004": 17.4154457233,
			"-0.003": 31.5369703586,
			"-0.002": 31.5228747994,
			"-0.001": 25.9658123734,
			"0.0": 27.8724370474,
			"0.001": 32.8143972008,
			"0.002": 18.6747920871,
			"0.003": 19.6928342894,
			"0.004": 11.9303255179,
			"0.005": 11.8586256851,
			"0.006": 12.6109213363,
			"0.007": 3.16830913325,
			"0.008": 3.55391064846,
			"0.009": 3.52954652886,
			"0.01": 7.38993555501,
			"0.011": 9.13874832457,
			"0.012": 3.22289555921,
			"0.013": 0.0,
			"0.014": 0.0,
			"0.015": 0.0,
			"0.016": 0.0,
			"0.017": 0.0,
			"0.018": 0.0,
			"0.019": 0.0,
			"0.02": 0.0,
			"0.021": 0.0,
			"0.022": 0.0,
			"0.023": 0.0,
			"0.024": 0.0,
			"0.025": 0.0
		}
	}
}
