{
	 "smiles": "CC1=CC(N2C=CN=C2SCC(O)=O)=C(C)C=C1", 
	 "Tm": 402.15, 
	 "num_atms": 32, 
	 "gaussian": { 
		 "optdone": 1, 
		 "sigma_profile": "yes", 
		 "theory": "DFT", 
		 "functional": "B3LYP", 
		 "basiset": "6-31G**", 
		 "properties": { 
			 "R2extent": 5752.3491, 
			 "electric_dipole_moment_norm": 4.37444086599, 
			 "electric_quadrupole_moment_norm": 12.008221427, 
			 "total_energy": -1161.97154383, 
			 "HOMO_LUMO_gap": 0.18254, 
			 "cosmo_polarized_energy": -16.15, 
			 "cosmo_cavitation_energy": 37.89, 
			 "cosmo_dispersion_energy": -26.06, 
			 "cosmo_repulsion_energy": 2.03, 
			 "cosmo_total_nonelectrostatic_energy": 13.86, 
			 "SMD_solvation_energy": 7.22 
		},
		"coords": [
			{
				"x": 2.0596426007,
				"y": -3.2692021698,
				"z": -3.0189694911,
				"element": "C" 
			},
			{
				"x": 0.9454643876,
				"y": -2.7003464203,
				"z": -2.1726756081,
				"element": "C" 
			},
			{
				"x": 1.2217688169,
				"y": -1.9849444307,
				"z": -1.003131858,
				"element": "C" 
			},
			{
				"x": 0.1929779153,
				"y": -1.4325539611,
				"z": -0.2373316276,
				"element": "C" 
			},
			{
				"x": 0.5379691628,
				"y": -0.7230832288,
				"z": 0.9616697477,
				"element": "N" 
			},
			{
				"x": 0.7828552546,
				"y": -1.2844482967,
				"z": 2.212683506,
				"element": "C" 
			},
			{
				"x": 1.0617252606,
				"y": -0.2338128063,
				"z": 3.0432334042,
				"element": "C" 
			},
			{
				"x": 1.0028280435,
				"y": 0.9614529833,
				"z": 2.3552386604,
				"element": "N" 
			},
			{
				"x": 0.6883932332,
				"y": 0.6330093689,
				"z": 1.1214402431,
				"element": "C" 
			},
			{
				"x": 0.4825808508,
				"y": 1.75867532,
				"z": -0.2291523126,
				"element": "S" 
			},
			{
				"x": 0.7332790924,
				"y": 3.3090554363,
				"z": 0.6992815954,
				"element": "C" 
			},
			{
				"x": 2.11927555,
				"y": 3.603304669,
				"z": 1.2546839201,
				"element": "C" 
			},
			{
				"x": 3.1171868634,
				"y": 2.9529502974,
				"z": 0.6260307557,
				"element": "O" 
			},
			{
				"x": 2.3022162119,
				"y": 4.406089016,
				"z": 2.1408970429,
				"element": "O" 
			},
			{
				"x": -1.1570914489,
				"y": -1.574419402,
				"z": -0.6028639293,
				"element": "C" 
			},
			{
				"x": -2.2694337165,
				"y": -0.9796282494,
				"z": 0.2244882145,
				"element": "C" 
			},
			{
				"x": -1.421389843,
				"y": -2.2943887307,
				"z": -1.7740686659,
				"element": "C" 
			},
			{
				"x": -0.3971949769,
				"y": -2.8465475414,
				"z": -2.5419943089,
				"element": "C" 
			},
			{
				"x": 2.3666168187,
				"y": -2.5593528285,
				"z": -3.7970741472,
				"element": "H" 
			},
			{
				"x": 2.9450031792,
				"y": -3.4947037666,
				"z": -2.4174030419,
				"element": "H" 
			},
			{
				"x": 1.7483951521,
				"y": -4.1891654004,
				"z": -3.5229757753,
				"element": "H" 
			},
			{
				"x": 2.2472097095,
				"y": -1.8455922251,
				"z": -0.6726705338,
				"element": "H" 
			},
			{
				"x": 0.7311599238,
				"y": -2.3513846847,
				"z": 2.3639543497,
				"element": "H" 
			},
			{
				"x": 1.3047133583,
				"y": -0.2611855474,
				"z": 4.0963041847,
				"element": "H" 
			},
			{
				"x": 0.479196035,
				"y": 4.104086592,
				"z": -0.0097898474,
				"element": "H" 
			},
			{
				"x": 0.0378729682,
				"y": 3.358958041,
				"z": 1.5369630051,
				"element": "H" 
			},
			{
				"x": 3.9347413662,
				"y": 3.2361266091,
				"z": 1.0685611981,
				"element": "H" 
			},
			{
				"x": -2.2663917022,
				"y": 0.1145411748,
				"z": 0.1628959757,
				"element": "H" 
			},
			{
				"x": -3.2426438578,
				"y": -1.3341121699,
				"z": -0.1244142939,
				"element": "H" 
			},
			{
				"x": -2.1673293489,
				"y": -1.240243466,
				"z": 1.2826584374,
				"element": "H" 
			},
			{
				"x": -2.4541131022,
				"y": -2.4298128148,
				"z": -2.0844368885,
				"element": "H" 
			},
			{
				"x": -0.6464837583,
				"y": -3.4032213669,
				"z": -3.4420319112,
				"element": "H" 
			}
		],
		 "valence_orbital": [ 
			{
				"type": "occ",
				"energy": -0.27148,
				"method": "rhf"
			},
			{
				"type": "occ",
				"energy": -0.26328,
				"method": "rhf"
			},
			{
				"type": "occ",
				"energy": -0.25664,
				"method": "rhf"
			},
			{
				"type": "occ",
				"energy": -0.24407,
				"method": "rhf"
			},
			{
				"type": "occ",
				"energy": -0.2027,
				"method": "rhf"
			},
			{
				"type": "unocc",
				"energy": -0.02016,
				"method": "rhf"
			},
			{
				"type": "unocc",
				"energy": -0.00938,
				"method": "rhf"
			},
			{
				"type": "unocc",
				"energy": 0.01174,
				"method": "rhf"
			},
			{
				"type": "unocc",
				"energy": 0.02962,
				"method": "rhf"
			},
			{
				"type": "unocc",
				"energy": 0.03292,
				"method": "rhf"
			}
		],
		"cosmo_sigma_profile": { 
			"-0.025": 0.0,
			"-0.024": 0.0,
			"-0.023": 0.0,
			"-0.022": 0.0,
			"-0.021": 0.0,
			"-0.02": 0.0,
			"-0.019": 0.294383326727,
			"-0.018": 0.688793627552,
			"-0.017": 0.942569206942,
			"-0.016": 0.912888739814,
			"-0.015": 0.997875003196,
			"-0.014": 0.875664147158,
			"-0.013": 0.382320841308,
			"-0.012": 0.706684890724,
			"-0.011": 0.700050054031,
			"-0.01": 1.8639262449,
			"-0.009": 4.15084826315,
			"-0.008": 4.22330711357,
			"-0.007": 6.50158754873,
			"-0.006": 11.4715407963,
			"-0.005": 17.2483135694,
			"-0.004": 22.470964496,
			"-0.003": 22.371457331,
			"-0.002": 25.2018408507,
			"-0.001": 26.8882355471,
			"0.0": 27.4772794697,
			"0.001": 19.3313110572,
			"0.002": 17.4989856809,
			"0.003": 16.0200317973,
			"0.004": 17.6262053826,
			"0.005": 13.3713847916,
			"0.006": 6.89720198256,
			"0.007": 5.63587403625,
			"0.008": 6.52575389295,
			"0.009": 5.39518805066,
			"0.01": 5.09883857104,
			"0.011": 6.90983947614,
			"0.012": 4.99476307064,
			"0.013": 0.79264462274,
			"0.014": 0.206365414385,
			"0.015": 0.0,
			"0.016": 0.0,
			"0.017": 0.0,
			"0.018": 0.0,
			"0.019": 0.0,
			"0.02": 0.0,
			"0.021": 0.0,
			"0.022": 0.0,
			"0.023": 0.0,
			"0.024": 0.0,
			"0.025": 0.0
		}
	}
}
