{
	 "smiles": "CN1CCN(C(C1)C1=CC=CC=C1)C(N)=O", 
	 "Tm": 368.15, 
	 "num_atms": 33, 
	 "gaussian": { 
		 "optdone": 1, 
		 "sigma_profile": "yes", 
		 "theory": "DFT", 
		 "functional": "B3LYP", 
		 "basiset": "6-31G**", 
		 "properties": { 
			 "R2extent": 3770.6223, 
			 "electric_dipole_moment_norm": 3.52051794059, 
			 "electric_quadrupole_moment_norm": 16.605511404, 
			 "total_energy": -707.009931998, 
			 "HOMO_LUMO_gap": 0.19262, 
			 "cosmo_polarized_energy": -13.73, 
			 "cosmo_cavitation_energy": 33.59, 
			 "cosmo_dispersion_energy": -23.81, 
			 "cosmo_repulsion_energy": 1.85, 
			 "cosmo_total_nonelectrostatic_energy": 11.63, 
			 "SMD_solvation_energy": 2.83 
		},
		"coords": [
			{
				"x": 2.6957994715,
				"y": 2.0901867471,
				"z": -0.2402913838,
				"element": "C" 
			},
			{
				"x": 1.2409648462,
				"y": 2.1685356642,
				"z": -0.1706862744,
				"element": "N" 
			},
			{
				"x": 0.5621583879,
				"y": 2.1273816663,
				"z": -1.4648047094,
				"element": "C" 
			},
			{
				"x": 0.6201970059,
				"y": 0.7585633474,
				"z": -2.1365209938,
				"element": "C" 
			},
			{
				"x": 0.1836743316,
				"y": -0.3395963175,
				"z": -1.2423735324,
				"element": "N" 
			},
			{
				"x": 0.591348762,
				"y": -0.2875169687,
				"z": 0.1782624189,
				"element": "C" 
			},
			{
				"x": 0.6168465873,
				"y": 1.1894206874,
				"z": 0.6957890742,
				"element": "C" 
			},
			{
				"x": -0.3486932977,
				"y": -1.0331727234,
				"z": 1.1171402526,
				"element": "C" 
			},
			{
				"x": -1.7420965763,
				"y": -0.9520861139,
				"z": 0.9674347028,
				"element": "C" 
			},
			{
				"x": -2.5913955151,
				"y": -1.5616235168,
				"z": 1.8905737932,
				"element": "C" 
			},
			{
				"x": -2.0640485195,
				"y": -2.2561405355,
				"z": 2.9824596494,
				"element": "C" 
			},
			{
				"x": -0.6803108185,
				"y": -2.3417486974,
				"z": 3.1415285097,
				"element": "C" 
			},
			{
				"x": 0.169884883,
				"y": -1.7356101379,
				"z": 2.2138894467,
				"element": "C" 
			},
			{
				"x": 0.1313691122,
				"y": -1.5613820785,
				"z": -1.9342269625,
				"element": "C" 
			},
			{
				"x": 0.1816197239,
				"y": -2.7247040175,
				"z": -1.1909089113,
				"element": "N" 
			},
			{
				"x": 0.0925158226,
				"y": -1.5995402272,
				"z": -3.1603987623,
				"element": "O" 
			},
			{
				"x": 3.0701177667,
				"y": 2.9176147397,
				"z": -0.8520839326,
				"element": "H" 
			},
			{
				"x": 3.0998285179,
				"y": 1.153970955,
				"z": -0.6625551073,
				"element": "H" 
			},
			{
				"x": 3.1084221625,
				"y": 2.2059483646,
				"z": 0.7675331316,
				"element": "H" 
			},
			{
				"x": -0.4835591194,
				"y": 2.4181093803,
				"z": -1.2996408976,
				"element": "H" 
			},
			{
				"x": 1.0068783293,
				"y": 2.8713009202,
				"z": -2.1351909715,
				"element": "H" 
			},
			{
				"x": 1.6403673564,
				"y": 0.5591301964,
				"z": -2.4960317027,
				"element": "H" 
			},
			{
				"x": -0.0215227488,
				"y": 0.7358466661,
				"z": -3.0176496667,
				"element": "H" 
			},
			{
				"x": 1.5997547679,
				"y": -0.7162865757,
				"z": 0.2902588563,
				"element": "H" 
			},
			{
				"x": -0.4226178962,
				"y": 1.5012412397,
				"z": 0.8558254658,
				"element": "H" 
			},
			{
				"x": 1.108025725,
				"y": 1.1872081898,
				"z": 1.6745603686,
				"element": "H" 
			},
			{
				"x": -2.1499367034,
				"y": -0.4223839234,
				"z": 0.1117313022,
				"element": "H" 
			},
			{
				"x": -3.6674499803,
				"y": -1.4951506863,
				"z": 1.7568026431,
				"element": "H" 
			},
			{
				"x": -2.7269248981,
				"y": -2.7313413844,
				"z": 3.6996215162,
				"element": "H" 
			},
			{
				"x": -0.2600376197,
				"y": -2.8839546762,
				"z": 3.9837798285,
				"element": "H" 
			},
			{
				"x": 1.247671562,
				"y": -1.8116826363,
				"z": 2.3378980494,
				"element": "H" 
			},
			{
				"x": -0.043545308,
				"y": -3.5364654916,
				"z": -1.7474969656,
				"element": "H" 
			},
			{
				"x": -0.1448061205,
				"y": -2.7382720561,
				"z": -0.2364282352,
				"element": "H" 
			}
		],
		 "valence_orbital": [ 
			{
				"type": "occ",
				"energy": -0.26117,
				"method": "rhf"
			},
			{
				"type": "occ",
				"energy": -0.2549,
				"method": "rhf"
			},
			{
				"type": "occ",
				"energy": -0.24587,
				"method": "rhf"
			},
			{
				"type": "occ",
				"energy": -0.23377,
				"method": "rhf"
			},
			{
				"type": "occ",
				"energy": -0.20798,
				"method": "rhf"
			},
			{
				"type": "unocc",
				"energy": -0.01536,
				"method": "rhf"
			},
			{
				"type": "unocc",
				"energy": -0.01267,
				"method": "rhf"
			},
			{
				"type": "unocc",
				"energy": 0.05548,
				"method": "rhf"
			},
			{
				"type": "unocc",
				"energy": 0.08143,
				"method": "rhf"
			},
			{
				"type": "unocc",
				"energy": 0.08871,
				"method": "rhf"
			}
		],
		"cosmo_sigma_profile": { 
			"-0.025": 0.0,
			"-0.024": 0.0,
			"-0.023": 0.0,
			"-0.022": 0.0,
			"-0.021": 0.0,
			"-0.02": 0.0,
			"-0.019": 0.0,
			"-0.018": 0.0,
			"-0.017": 0.0,
			"-0.016": 0.0,
			"-0.015": 0.0,
			"-0.014": 0.00489021284212,
			"-0.013": 0.580855701032,
			"-0.012": 1.31538675725,
			"-0.011": 0.587002737508,
			"-0.01": 1.15634388668,
			"-0.009": 2.39779458576,
			"-0.008": 1.59603116623,
			"-0.007": 1.18900390153,
			"-0.006": 6.81879031788,
			"-0.005": 14.7068716662,
			"-0.004": 32.1554780203,
			"-0.003": 37.5676461243,
			"-0.002": 27.3893924697,
			"-0.001": 24.4138505993,
			"0.0": 20.1398548486,
			"0.001": 13.3357006528,
			"0.002": 11.7591952563,
			"0.003": 12.3627387262,
			"0.004": 10.2421112035,
			"0.005": 9.52743565421,
			"0.006": 6.38090114192,
			"0.007": 2.80911044282,
			"0.008": 2.52764296413,
			"0.009": 2.67597536404,
			"0.01": 2.41354420629,
			"0.011": 2.41126501323,
			"0.012": 2.16384948181,
			"0.013": 2.63465484694,
			"0.014": 4.60819219676,
			"0.015": 4.6905695141,
			"0.016": 0.476218671782,
			"0.017": 0.0,
			"0.018": 0.0,
			"0.019": 0.0,
			"0.02": 0.0,
			"0.021": 0.0,
			"0.022": 0.0,
			"0.023": 0.0,
			"0.024": 0.0,
			"0.025": 0.0
		}
	}
}
