{
	 "smiles": "[O-][N+](=O)C1=CC=CC(F)=C1", 
	 "Tm": 314.15, 
	 "num_atms": 14, 
	 "gaussian": { 
		 "optdone": 1, 
		 "sigma_profile": "yes", 
		 "theory": "DFT", 
		 "functional": "B3LYP", 
		 "basiset": "6-31G**", 
		 "properties": { 
			 "R2extent": 1762.1943, 
			 "electric_dipole_moment_norm": 3.93697586099, 
			 "electric_quadrupole_moment_norm": 3.98571097045, 
			 "total_energy": -535.978705246, 
			 "HOMO_LUMO_gap": 0.17819, 
			 "cosmo_polarized_energy": -7.2, 
			 "cosmo_cavitation_energy": 19.77, 
			 "cosmo_dispersion_energy": -14.54, 
			 "cosmo_repulsion_energy": 1.15, 
			 "cosmo_total_nonelectrostatic_energy": 6.37, 
			 "SMD_solvation_energy": 6.31 
		},
		"coords": [
			{
				"x": 0.1351469189,
				"y": 1.3800459023,
				"z": 2.3980362714,
				"element": "O" 
			},
			{
				"x": -0.2332055904,
				"y": 1.2228209655,
				"z": 1.2354762788,
				"element": "N" 
			},
			{
				"x": -0.5151917275,
				"y": 2.1318791918,
				"z": 0.4568835009,
				"element": "O" 
			},
			{
				"x": -0.3455721699,
				"y": -0.1606698552,
				"z": 0.7367408935,
				"element": "C" 
			},
			{
				"x": -0.7606233708,
				"y": -0.3725859256,
				"z": -0.5761487884,
				"element": "C" 
			},
			{
				"x": -0.8621101926,
				"y": -1.6862123002,
				"z": -1.0334435228,
				"element": "C" 
			},
			{
				"x": -0.5545968784,
				"y": -2.7579537283,
				"z": -0.1934684137,
				"element": "C" 
			},
			{
				"x": -0.1439246056,
				"y": -2.4950283458,
				"z": 1.1112863683,
				"element": "C" 
			},
			{
				"x": 0.1524912174,
				"y": -3.5268749904,
				"z": 1.921084057,
				"element": "F" 
			},
			{
				"x": -0.0298630105,
				"y": -1.2029930339,
				"z": 1.6053841685,
				"element": "C" 
			},
			{
				"x": -0.9927101275,
				"y": 0.4763089553,
				"z": -1.2057839756,
				"element": "H" 
			},
			{
				"x": -1.1832144564,
				"y": -1.8779005915,
				"z": -2.0520415828,
				"element": "H" 
			},
			{
				"x": -0.6273530026,
				"y": -3.7860928831,
				"z": -0.5306375001,
				"element": "H" 
			},
			{
				"x": 0.2899269959,
				"y": -1.0079433611,
				"z": 2.620332245,
				"element": "H" 
			}
		],
		 "valence_orbital": [ 
			{
				"type": "occ",
				"energy": -0.31646,
				"method": "rhf"
			},
			{
				"type": "occ",
				"energy": -0.31389,
				"method": "rhf"
			},
			{
				"type": "occ",
				"energy": -0.29788,
				"method": "rhf"
			},
			{
				"type": "occ",
				"energy": -0.29349,
				"method": "rhf"
			},
			{
				"type": "occ",
				"energy": -0.27497,
				"method": "rhf"
			},
			{
				"type": "unocc",
				"energy": -0.09678,
				"method": "rhf"
			},
			{
				"type": "unocc",
				"energy": -0.03132,
				"method": "rhf"
			},
			{
				"type": "unocc",
				"energy": -0.00513,
				"method": "rhf"
			},
			{
				"type": "unocc",
				"energy": 0.06536,
				"method": "rhf"
			},
			{
				"type": "unocc",
				"energy": 0.12434,
				"method": "rhf"
			}
		],
		"cosmo_sigma_profile": { 
			"-0.025": 0.0,
			"-0.024": 0.0,
			"-0.023": 0.0,
			"-0.022": 0.0,
			"-0.021": 0.0,
			"-0.02": 0.0,
			"-0.019": 0.0,
			"-0.018": 0.0,
			"-0.017": 0.0,
			"-0.016": 0.0,
			"-0.015": 0.0,
			"-0.014": 0.0,
			"-0.013": 0.0,
			"-0.012": 0.0,
			"-0.011": 0.0,
			"-0.01": 0.0,
			"-0.009": 1.08716947429,
			"-0.008": 5.75193670039,
			"-0.007": 8.12878520245,
			"-0.006": 8.96549382286,
			"-0.005": 6.77739371639,
			"-0.004": 8.06756087478,
			"-0.003": 7.28896355818,
			"-0.002": 12.1301001036,
			"-0.001": 18.4977819228,
			"0.0": 16.8091766852,
			"0.001": 12.7108405757,
			"0.002": 7.4876828552,
			"0.003": 9.30962685671,
			"0.004": 7.77873427587,
			"0.005": 3.75574144629,
			"0.006": 4.16864871101,
			"0.007": 8.79122565669,
			"0.008": 6.44573804522,
			"0.009": 3.80963987661,
			"0.01": 1.86248415276,
			"0.011": 0.0,
			"0.012": 0.0,
			"0.013": 0.0,
			"0.014": 0.0,
			"0.015": 0.0,
			"0.016": 0.0,
			"0.017": 0.0,
			"0.018": 0.0,
			"0.019": 0.0,
			"0.02": 0.0,
			"0.021": 0.0,
			"0.022": 0.0,
			"0.023": 0.0,
			"0.024": 0.0,
			"0.025": 0.0
		}
	}
}
