{
	 "smiles": "FC(F)(F)COC(=O)NCC1=CC=CO1", 
	 "Tm": 309.15, 
	 "num_atms": 23, 
	 "gaussian": { 
		 "optdone": 1, 
		 "sigma_profile": "yes", 
		 "theory": "DFT", 
		 "functional": "B3LYP", 
		 "basiset": "6-31G**", 
		 "properties": { 
			 "R2extent": 5053.7169, 
			 "electric_dipole_moment_norm": 2.16798748382, 
			 "electric_quadrupole_moment_norm": 7.19532777085, 
			 "total_energy": -889.612553073, 
			 "HOMO_LUMO_gap": 0.23267, 
			 "cosmo_polarized_energy": -10.8, 
			 "cosmo_cavitation_energy": 30.3, 
			 "cosmo_dispersion_energy": -20.62, 
			 "cosmo_repulsion_energy": 1.6, 
			 "cosmo_total_nonelectrostatic_energy": 11.28, 
			 "SMD_solvation_energy": 7.65 
		},
		"coords": [
			{
				"x": -0.6783101814,
				"y": -1.9596887213,
				"z": -1.5216092171,
				"element": "F" 
			},
			{
				"x": -1.2560273623,
				"y": -1.9357991227,
				"z": -2.7364713661,
				"element": "C" 
			},
			{
				"x": -1.5422533873,
				"y": -3.2061548372,
				"z": -3.0945828661,
				"element": "F" 
			},
			{
				"x": -0.3511696213,
				"y": -1.4542994396,
				"z": -3.6108454866,
				"element": "F" 
			},
			{
				"x": -2.5327690183,
				"y": -1.1128913277,
				"z": -2.7323508027,
				"element": "C" 
			},
			{
				"x": -2.2396776402,
				"y": 0.2218488877,
				"z": -2.3455455933,
				"element": "O" 
			},
			{
				"x": -2.6186836543,
				"y": 0.571805766,
				"z": -1.0691957724,
				"element": "C" 
			},
			{
				"x": -3.2508397467,
				"y": -0.1451596151,
				"z": -0.3181653976,
				"element": "O" 
			},
			{
				"x": -2.2201121613,
				"y": 1.8468037821,
				"z": -0.8176260327,
				"element": "N" 
			},
			{
				"x": -2.3259684494,
				"y": 2.4098814339,
				"z": 0.5288014947,
				"element": "C" 
			},
			{
				"x": -1.088940152,
				"y": 2.2594459728,
				"z": 1.3517602973,
				"element": "C" 
			},
			{
				"x": -0.72390432,
				"y": 1.4171025663,
				"z": 2.3598856458,
				"element": "C" 
			},
			{
				"x": 0.6255769836,
				"y": 1.7561749341,
				"z": 2.707424981,
				"element": "C" 
			},
			{
				"x": 0.9828465644,
				"y": 2.7770511298,
				"z": 1.8818576244,
				"element": "C" 
			},
			{
				"x": -0.0482856771,
				"y": 3.1001011399,
				"z": 1.0485165477,
				"element": "O" 
			},
			{
				"x": -2.9399463861,
				"y": -1.0928936125,
				"z": -3.7456734087,
				"element": "H" 
			},
			{
				"x": -3.2459555795,
				"y": -1.5655613081,
				"z": -2.0410032568,
				"element": "H" 
			},
			{
				"x": -1.5673558928,
				"y": 2.2600945604,
				"z": -1.4681376889,
				"element": "H" 
			},
			{
				"x": -3.1503686087,
				"y": 1.8932058364,
				"z": 1.0218325962,
				"element": "H" 
			},
			{
				"x": -2.5895939017,
				"y": 3.4689141938,
				"z": 0.4365125315,
				"element": "H" 
			},
			{
				"x": -1.3409212641,
				"y": 0.6442135733,
				"z": 2.7952446764,
				"element": "H" 
			},
			{
				"x": 1.240915114,
				"y": 1.2994362923,
				"z": 3.4690779082,
				"element": "H" 
			},
			{
				"x": 1.8825443425,
				"y": 3.3611679154,
				"z": 1.7653925858,
				"element": "H" 
			}
		],
		 "valence_orbital": [ 
			{
				"type": "occ",
				"energy": -0.30966,
				"method": "rhf"
			},
			{
				"type": "occ",
				"energy": -0.28994,
				"method": "rhf"
			},
			{
				"type": "occ",
				"energy": -0.28074,
				"method": "rhf"
			},
			{
				"type": "occ",
				"energy": -0.27117,
				"method": "rhf"
			},
			{
				"type": "occ",
				"energy": -0.22846,
				"method": "rhf"
			},
			{
				"type": "unocc",
				"energy": 0.00421,
				"method": "rhf"
			},
			{
				"type": "unocc",
				"energy": 0.04242,
				"method": "rhf"
			},
			{
				"type": "unocc",
				"energy": 0.06796,
				"method": "rhf"
			},
			{
				"type": "unocc",
				"energy": 0.09044,
				"method": "rhf"
			},
			{
				"type": "unocc",
				"energy": 0.09848,
				"method": "rhf"
			}
		],
		"cosmo_sigma_profile": { 
			"-0.025": 0.0,
			"-0.024": 0.0,
			"-0.023": 0.0,
			"-0.022": 0.0,
			"-0.021": 0.0,
			"-0.02": 0.0,
			"-0.019": 0.0,
			"-0.018": 0.0,
			"-0.017": 0.0,
			"-0.016": 0.0,
			"-0.015": 0.23043759935,
			"-0.014": 1.05032678922,
			"-0.013": 0.870671275767,
			"-0.012": 0.744789324953,
			"-0.011": 0.880600688051,
			"-0.01": 1.35380844441,
			"-0.009": 3.58411260746,
			"-0.008": 6.35192160122,
			"-0.007": 9.69814947761,
			"-0.006": 14.478496185,
			"-0.005": 11.925726239,
			"-0.004": 12.7459769938,
			"-0.003": 11.9066980232,
			"-0.002": 11.757013493,
			"-0.001": 12.1957115366,
			"0.0": 13.5079306874,
			"0.001": 15.489271862,
			"0.002": 31.848664848,
			"0.003": 36.7661385851,
			"0.004": 12.3855674894,
			"0.005": 9.86300442007,
			"0.006": 7.01599230212,
			"0.007": 3.00843309194,
			"0.008": 2.45419817443,
			"0.009": 1.54020381099,
			"0.01": 1.65320931347,
			"0.011": 1.827251365,
			"0.012": 4.25339487246,
			"0.013": 0.593616411994,
			"0.014": 0.0,
			"0.015": 0.0,
			"0.016": 0.0,
			"0.017": 0.0,
			"0.018": 0.0,
			"0.019": 0.0,
			"0.02": 0.0,
			"0.021": 0.0,
			"0.022": 0.0,
			"0.023": 0.0,
			"0.024": 0.0,
			"0.025": 0.0
		}
	}
}
