{
	 "smiles": "ClC1=CC=CC=C1C=C(C#N)C1=NC2=C(S1)C=CC=C2", 
	 "Tm": 412.15, 
	 "num_atms": 29, 
	 "gaussian": { 
		 "optdone": 1, 
		 "sigma_profile": "yes", 
		 "theory": "DFT", 
		 "functional": "B3LYP", 
		 "basiset": "6-31G**", 
		 "properties": { 
			 "R2extent": 6551.767, 
			 "electric_dipole_moment_norm": 4.82291052581, 
			 "electric_quadrupole_moment_norm": 20.7591061751, 
			 "total_energy": -1582.97684745, 
			 "HOMO_LUMO_gap": 0.14528, 
			 "cosmo_polarized_energy": -12.48, 
			 "cosmo_cavitation_energy": 38.33, 
			 "cosmo_dispersion_energy": -26.45, 
			 "cosmo_repulsion_energy": 1.99, 
			 "cosmo_total_nonelectrostatic_energy": 13.88, 
			 "SMD_solvation_energy": 5.87 
		},
		"coords": [
			{
				"x": -2.362959127,
				"y": 0.577691332,
				"z": -2.2026314003,
				"element": "Cl" 
			},
			{
				"x": -1.7729825628,
				"y": -1.0395301353,
				"z": -2.5406088612,
				"element": "C" 
			},
			{
				"x": -1.4088845544,
				"y": -1.3325113288,
				"z": -3.8542509047,
				"element": "C" 
			},
			{
				"x": -0.9891668932,
				"y": -2.6184943696,
				"z": -4.1907023426,
				"element": "C" 
			},
			{
				"x": -0.9560473598,
				"y": -3.6173113773,
				"z": -3.2169483672,
				"element": "C" 
			},
			{
				"x": -1.3352078143,
				"y": -3.3187975961,
				"z": -1.9119856233,
				"element": "C" 
			},
			{
				"x": -1.7221588313,
				"y": -2.0199917382,
				"z": -1.5328857733,
				"element": "C" 
			},
			{
				"x": -2.1350190554,
				"y": -1.815341479,
				"z": -0.1323697111,
				"element": "C" 
			},
			{
				"x": -1.6671004524,
				"y": -0.939480745,
				"z": 0.7953728323,
				"element": "C" 
			},
			{
				"x": -2.3079892313,
				"y": -0.9463737035,
				"z": 2.0837893292,
				"element": "C" 
			},
			{
				"x": -2.8286698007,
				"y": -0.9465080424,
				"z": 3.124156624,
				"element": "N" 
			},
			{
				"x": -0.534507195,
				"y": -0.0149460669,
				"z": 0.635167987,
				"element": "C" 
			},
			{
				"x": 0.3417839234,
				"y": -0.0872900518,
				"z": -0.3187344087,
				"element": "N" 
			},
			{
				"x": 1.2926351,
				"y": 0.9047712884,
				"z": -0.2046685417,
				"element": "C" 
			},
			{
				"x": 1.13094548,
				"y": 1.7757797834,
				"z": 0.9036605087,
				"element": "C" 
			},
			{
				"x": -0.2803375699,
				"y": 1.298402001,
				"z": 1.8157170593,
				"element": "S" 
			},
			{
				"x": 2.0261648761,
				"y": 2.8227212489,
				"z": 1.1424468562,
				"element": "C" 
			},
			{
				"x": 3.0866272771,
				"y": 2.9906881881,
				"z": 0.2572958328,
				"element": "C" 
			},
			{
				"x": 3.2579317836,
				"y": 2.1331766262,
				"z": -0.8461349769,
				"element": "C" 
			},
			{
				"x": 2.3719083192,
				"y": 1.0922750446,
				"z": -1.0843222375,
				"element": "C" 
			},
			{
				"x": -1.464908113,
				"y": -0.5523695972,
				"z": -4.605167805,
				"element": "H" 
			},
			{
				"x": -0.7040183574,
				"y": -2.8381126774,
				"z": -5.2150422277,
				"element": "H" 
			},
			{
				"x": -0.644055954,
				"y": -4.6250056863,
				"z": -3.4724997107,
				"element": "H" 
			},
			{
				"x": -1.3159174656,
				"y": -4.0951073115,
				"z": -1.1523107797,
				"element": "H" 
			},
			{
				"x": -2.9049288852,
				"y": -2.5009109236,
				"z": 0.2174403711,
				"element": "H" 
			},
			{
				"x": 1.9006078947,
				"y": 3.4863930536,
				"z": 1.9916823983,
				"element": "H" 
			},
			{
				"x": 3.7940873881,
				"y": 3.7976666084,
				"z": 0.4226726091,
				"element": "H" 
			},
			{
				"x": 4.0958589725,
				"y": 2.2908823843,
				"z": -1.5182743641,
				"element": "H" 
			},
			{
				"x": 2.4886082079,
				"y": 0.422135271,
				"z": -1.9293643725,
				"element": "H" 
			}
		],
		 "valence_orbital": [ 
			{
				"type": "occ",
				"energy": -0.28712,
				"method": "rhf"
			},
			{
				"type": "occ",
				"energy": -0.26671,
				"method": "rhf"
			},
			{
				"type": "occ",
				"energy": -0.25381,
				"method": "rhf"
			},
			{
				"type": "occ",
				"energy": -0.24234,
				"method": "rhf"
			},
			{
				"type": "occ",
				"energy": -0.23504,
				"method": "rhf"
			},
			{
				"type": "unocc",
				"energy": -0.08976,
				"method": "rhf"
			},
			{
				"type": "unocc",
				"energy": -0.02808,
				"method": "rhf"
			},
			{
				"type": "unocc",
				"energy": -0.02168,
				"method": "rhf"
			},
			{
				"type": "unocc",
				"energy": -0.0129,
				"method": "rhf"
			},
			{
				"type": "unocc",
				"energy": -0.00801,
				"method": "rhf"
			}
		],
		"cosmo_sigma_profile": { 
			"-0.025": 0.0,
			"-0.024": 0.0,
			"-0.023": 0.0,
			"-0.022": 0.0,
			"-0.021": 0.0,
			"-0.02": 0.0,
			"-0.019": 0.0,
			"-0.018": 0.0,
			"-0.017": 0.0,
			"-0.016": 0.0,
			"-0.015": 0.0,
			"-0.014": 0.0,
			"-0.013": 0.0,
			"-0.012": 0.0,
			"-0.011": 0.0,
			"-0.01": 0.742621830961,
			"-0.009": 2.65967640398,
			"-0.008": 4.7198587019,
			"-0.007": 14.5961785937,
			"-0.006": 19.5270971129,
			"-0.005": 19.5404116766,
			"-0.004": 18.2046476167,
			"-0.003": 16.7066594785,
			"-0.002": 19.8474052302,
			"-0.001": 20.2769871278,
			"0.0": 22.844881102,
			"0.001": 29.5887010368,
			"0.002": 32.8942819785,
			"0.003": 31.827037836,
			"0.004": 25.1605690895,
			"0.005": 8.64183818488,
			"0.006": 4.45974210014,
			"0.007": 4.8080295699,
			"0.008": 4.02068171695,
			"0.009": 3.97902700514,
			"0.01": 3.95704548052,
			"0.011": 3.42032609944,
			"0.012": 2.12617526328,
			"0.013": 0.225072405491,
			"0.014": 0.0,
			"0.015": 0.0,
			"0.016": 0.0,
			"0.017": 0.0,
			"0.018": 0.0,
			"0.019": 0.0,
			"0.02": 0.0,
			"0.021": 0.0,
			"0.022": 0.0,
			"0.023": 0.0,
			"0.024": 0.0,
			"0.025": 0.0
		}
	}
}
