{
	 "smiles": "COC1=CC=CC=C1NC(C)=O", 
	 "Tm": 360.65, 
	 "num_atms": 23, 
	 "gaussian": { 
		 "optdone": 1, 
		 "sigma_profile": "yes", 
		 "theory": "DFT", 
		 "functional": "B3LYP", 
		 "basiset": "6-31G**", 
		 "properties": { 
			 "R2extent": 2156.553, 
			 "electric_dipole_moment_norm": 2.10113782032, 
			 "electric_quadrupole_moment_norm": 12.8429452315, 
			 "total_energy": -554.786040625, 
			 "HOMO_LUMO_gap": 0.20982, 
			 "cosmo_polarized_energy": -13.65, 
			 "cosmo_cavitation_energy": 26.51, 
			 "cosmo_dispersion_energy": -19.17, 
			 "cosmo_repulsion_energy": 1.54, 
			 "cosmo_total_nonelectrostatic_energy": 8.87, 
			 "SMD_solvation_energy": 6.12 
		},
		"coords": [
			{
				"x": -1.3054068262,
				"y": 0.097459699,
				"z": -2.4016616332,
				"element": "C" 
			},
			{
				"x": -1.434846062,
				"y": 0.4796215796,
				"z": -1.0309043742,
				"element": "O" 
			},
			{
				"x": -0.2825273547,
				"y": 0.7913547668,
				"z": -0.3674850628,
				"element": "C" 
			},
			{
				"x": 0.6144870926,
				"y": 1.7594351567,
				"z": -0.8328147783,
				"element": "C" 
			},
			{
				"x": 1.7165137223,
				"y": 2.1345087408,
				"z": -0.0651451896,
				"element": "C" 
			},
			{
				"x": 1.9379272043,
				"y": 1.5435877167,
				"z": 1.1794630505,
				"element": "C" 
			},
			{
				"x": 1.0651530921,
				"y": 0.5569281903,
				"z": 1.6351365559,
				"element": "C" 
			},
			{
				"x": -0.0370311981,
				"y": 0.1634295233,
				"z": 0.8700363918,
				"element": "C" 
			},
			{
				"x": -0.9166928979,
				"y": -0.8344926898,
				"z": 1.3642521953,
				"element": "N" 
			},
			{
				"x": -1.2495885271,
				"y": -1.9883671215,
				"z": 0.6876687645,
				"element": "C" 
			},
			{
				"x": -2.2480453371,
				"y": -2.8775571643,
				"z": 1.4153844414,
				"element": "C" 
			},
			{
				"x": -0.807651659,
				"y": -2.2734315089,
				"z": -0.4142943921,
				"element": "O" 
			},
			{
				"x": -0.9304198165,
				"y": 0.9188309224,
				"z": -3.0246042132,
				"element": "H" 
			},
			{
				"x": -2.3108327144,
				"y": -0.1644878762,
				"z": -2.7363440316,
				"element": "H" 
			},
			{
				"x": -0.6528586016,
				"y": -0.7755012888,
				"z": -2.4894148968,
				"element": "H" 
			},
			{
				"x": 0.4240943839,
				"y": 2.2432172762,
				"z": -1.7852111943,
				"element": "H" 
			},
			{
				"x": 2.394485045,
				"y": 2.8971428803,
				"z": -0.4370817489,
				"element": "H" 
			},
			{
				"x": 2.790431716,
				"y": 1.835502525,
				"z": 1.7847432293,
				"element": "H" 
			},
			{
				"x": 1.2429830122,
				"y": 0.0625769974,
				"z": 2.5865938298,
				"element": "H" 
			},
			{
				"x": -1.2302595637,
				"y": -0.7404964434,
				"z": 2.3189451639,
				"element": "H" 
			},
			{
				"x": -3.2519908295,
				"y": -2.6765926512,
				"z": 1.0266247878,
				"element": "H" 
			},
			{
				"x": -2.2643596623,
				"y": -2.7235961159,
				"z": 2.498670132,
				"element": "H" 
			},
			{
				"x": -2.0082642182,
				"y": -3.9199731147,
				"z": 1.2000429727,
				"element": "H" 
			}
		],
		 "valence_orbital": [ 
			{
				"type": "occ",
				"energy": -0.28617,
				"method": "rhf"
			},
			{
				"type": "occ",
				"energy": -0.27789,
				"method": "rhf"
			},
			{
				"type": "occ",
				"energy": -0.24505,
				"method": "rhf"
			},
			{
				"type": "occ",
				"energy": -0.23692,
				"method": "rhf"
			},
			{
				"type": "occ",
				"energy": -0.21811,
				"method": "rhf"
			},
			{
				"type": "unocc",
				"energy": -0.00829,
				"method": "rhf"
			},
			{
				"type": "unocc",
				"energy": 0.00565,
				"method": "rhf"
			},
			{
				"type": "unocc",
				"energy": 0.03968,
				"method": "rhf"
			},
			{
				"type": "unocc",
				"energy": 0.07706,
				"method": "rhf"
			},
			{
				"type": "unocc",
				"energy": 0.09109,
				"method": "rhf"
			}
		],
		"cosmo_sigma_profile": { 
			"-0.025": 0.0,
			"-0.024": 0.0,
			"-0.023": 0.0,
			"-0.022": 0.0,
			"-0.021": 0.0,
			"-0.02": 0.0,
			"-0.019": 0.0,
			"-0.018": 0.0,
			"-0.017": 0.0,
			"-0.016": 0.0,
			"-0.015": 0.370858748158,
			"-0.014": 1.24031553288,
			"-0.013": 1.02405937863,
			"-0.012": 1.53849799595,
			"-0.011": 1.2940967455,
			"-0.01": 1.66856753885,
			"-0.009": 1.3067837243,
			"-0.008": 1.6605735803,
			"-0.007": 3.57561736956,
			"-0.006": 11.5312558409,
			"-0.005": 16.6838072945,
			"-0.004": 17.8225774769,
			"-0.003": 21.721683435,
			"-0.002": 19.6369074784,
			"-0.001": 14.9098113364,
			"0.0": 9.7284418984,
			"0.001": 9.2675125568,
			"0.002": 8.91951126225,
			"0.003": 9.26808505766,
			"0.004": 10.6170186556,
			"0.005": 12.5666423818,
			"0.006": 7.12072872902,
			"0.007": 3.48917628029,
			"0.008": 4.79411567554,
			"0.009": 3.51226305286,
			"0.01": 2.45951283278,
			"0.011": 3.3747704901,
			"0.012": 2.74177332411,
			"0.013": 2.68028013392,
			"0.014": 2.43847303816,
			"0.015": 1.05108077234,
			"0.016": 0.0635004181252,
			"0.017": 0.0,
			"0.018": 0.0,
			"0.019": 0.0,
			"0.02": 0.0,
			"0.021": 0.0,
			"0.022": 0.0,
			"0.023": 0.0,
			"0.024": 0.0,
			"0.025": 0.0
		}
	}
}
