{
	 "smiles": "NC1=CC=C(CSC2=NC=CC=C2)C=C1", 
	 "Tm": 377.15, 
	 "num_atms": 27, 
	 "gaussian": { 
		 "optdone": 1, 
		 "sigma_profile": "yes", 
		 "theory": "DFT", 
		 "functional": "B3LYP", 
		 "basiset": "6-31G**", 
		 "properties": { 
			 "R2extent": 4876.783, 
			 "electric_dipole_moment_norm": 2.33430616886, 
			 "electric_quadrupole_moment_norm": 14.2635376604, 
			 "total_energy": -972.202431639, 
			 "HOMO_LUMO_gap": 0.16894, 
			 "cosmo_polarized_energy": -12.44, 
			 "cosmo_cavitation_energy": 32.49, 
			 "cosmo_dispersion_energy": -23.88, 
			 "cosmo_repulsion_energy": 1.83, 
			 "cosmo_total_nonelectrostatic_energy": 10.44, 
			 "SMD_solvation_energy": 4.64 
		},
		"coords": [
			{
				"x": 0.443385776,
				"y": -2.638143623,
				"z": 4.4576416693,
				"element": "N" 
			},
			{
				"x": 0.2615412263,
				"y": -1.5305163348,
				"z": 3.6250808024,
				"element": "C" 
			},
			{
				"x": 0.5988684573,
				"y": -1.5911603078,
				"z": 2.261655428,
				"element": "C" 
			},
			{
				"x": 0.4715938585,
				"y": -0.4704760507,
				"z": 1.4477392676,
				"element": "C" 
			},
			{
				"x": 0.0052110735,
				"y": 0.7498699617,
				"z": 1.9575483869,
				"element": "C" 
			},
			{
				"x": -0.1304168478,
				"y": 1.9611221092,
				"z": 1.076257925,
				"element": "C" 
			},
			{
				"x": -1.7621473786,
				"y": 2.1202473587,
				"z": 0.2015227389,
				"element": "S" 
			},
			{
				"x": -1.4430386698,
				"y": 1.3593111702,
				"z": -1.3810845794,
				"element": "C" 
			},
			{
				"x": -0.2173199828,
				"y": 0.9266329399,
				"z": -1.6814057278,
				"element": "N" 
			},
			{
				"x": -0.0177561118,
				"y": 0.3864325209,
				"z": -2.8938622797,
				"element": "C" 
			},
			{
				"x": -1.015076866,
				"y": 0.252184715,
				"z": -3.8530190757,
				"element": "C" 
			},
			{
				"x": -2.2988755037,
				"y": 0.7050227887,
				"z": -3.5273756997,
				"element": "C" 
			},
			{
				"x": -2.5245555143,
				"y": 1.2649061913,
				"z": -2.2783132194,
				"element": "C" 
			},
			{
				"x": -0.3272154377,
				"y": 0.8047208028,
				"z": 3.3172392877,
				"element": "C" 
			},
			{
				"x": -0.2042994106,
				"y": -0.3098502371,
				"z": 4.1416198803,
				"element": "C" 
			},
			{
				"x": -0.1309459991,
				"y": -2.6452347275,
				"z": 5.2895402549,
				"element": "H" 
			},
			{
				"x": 0.4277269835,
				"y": -3.5322870932,
				"z": 3.9862559321,
				"element": "H" 
			},
			{
				"x": 0.9693910696,
				"y": -2.5246647534,
				"z": 1.8441053142,
				"element": "H" 
			},
			{
				"x": 0.7293306214,
				"y": -0.5362326995,
				"z": 0.3948909958,
				"element": "H" 
			},
			{
				"x": -0.0562099266,
				"y": 2.8838384293,
				"z": 1.6572036273,
				"element": "H" 
			},
			{
				"x": 0.6235712365,
				"y": 1.9784885664,
				"z": 0.2877278275,
				"element": "H" 
			},
			{
				"x": 0.9961245275,
				"y": 0.0465199309,
				"z": -3.0974150664,
				"element": "H" 
			},
			{
				"x": -0.7974049295,
				"y": -0.1928391386,
				"z": -4.8180453662,
				"element": "H" 
			},
			{
				"x": -3.1134586442,
				"y": 0.6199804872,
				"z": -4.2411934287,
				"element": "H" 
			},
			{
				"x": -3.5074216324,
				"y": 1.6248636875,
				"z": -1.9913854281,
				"element": "H" 
			},
			{
				"x": -0.6909733637,
				"y": 1.7374351842,
				"z": 3.7428565015,
				"element": "H" 
			},
			{
				"x": -0.4625286115,
				"y": -0.2370718782,
				"z": 5.1955140318,
				"element": "H" 
			}
		],
		 "valence_orbital": [ 
			{
				"type": "occ",
				"energy": -0.28184,
				"method": "rhf"
			},
			{
				"type": "occ",
				"energy": -0.2595,
				"method": "rhf"
			},
			{
				"type": "occ",
				"energy": -0.24012,
				"method": "rhf"
			},
			{
				"type": "occ",
				"energy": -0.21342,
				"method": "rhf"
			},
			{
				"type": "occ",
				"energy": -0.19254,
				"method": "rhf"
			},
			{
				"type": "unocc",
				"energy": -0.0236,
				"method": "rhf"
			},
			{
				"type": "unocc",
				"energy": -0.00985,
				"method": "rhf"
			},
			{
				"type": "unocc",
				"energy": 0.00715,
				"method": "rhf"
			},
			{
				"type": "unocc",
				"energy": 0.01032,
				"method": "rhf"
			},
			{
				"type": "unocc",
				"energy": 0.05184,
				"method": "rhf"
			}
		],
		"cosmo_sigma_profile": { 
			"-0.025": 0.0,
			"-0.024": 0.0,
			"-0.023": 0.0,
			"-0.022": 0.0,
			"-0.021": 0.0,
			"-0.02": 0.0,
			"-0.019": 0.0,
			"-0.018": 0.0,
			"-0.017": 0.0,
			"-0.016": 0.0,
			"-0.015": 0.0,
			"-0.014": 0.0,
			"-0.013": 0.163321223966,
			"-0.012": 2.03442694843,
			"-0.011": 2.9283234549,
			"-0.01": 2.64810161704,
			"-0.009": 3.71773077853,
			"-0.008": 2.78790959985,
			"-0.007": 8.58923326947,
			"-0.006": 15.611248731,
			"-0.005": 19.8440492865,
			"-0.004": 15.2693951987,
			"-0.003": 16.6255555727,
			"-0.002": 14.8760989916,
			"-0.001": 13.305190985,
			"0.0": 14.6462907318,
			"0.001": 15.4593042088,
			"0.002": 22.3744599064,
			"0.003": 25.0170057385,
			"0.004": 13.423926052,
			"0.005": 13.0441143757,
			"0.006": 12.7906542322,
			"0.007": 13.6599455244,
			"0.008": 5.62733519176,
			"0.009": 2.99723985147,
			"0.01": 0.881033186025,
			"0.011": 0.605253643675,
			"0.012": 0.758922820928,
			"0.013": 0.573150029154,
			"0.014": 0.796733807723,
			"0.015": 0.222698743781,
			"0.016": 0.0,
			"0.017": 0.0,
			"0.018": 0.0,
			"0.019": 0.0,
			"0.02": 0.0,
			"0.021": 0.0,
			"0.022": 0.0,
			"0.023": 0.0,
			"0.024": 0.0,
			"0.025": 0.0
		}
	}
}
