{
	 "smiles": "CCN(CC)C1=NC(NN)=NC=C1", 
	 "Tm": 358.15, 
	 "num_atms": 28, 
	 "gaussian": { 
		 "optdone": 1, 
		 "sigma_profile": "yes", 
		 "theory": "DFT", 
		 "functional": "B3LYP", 
		 "basiset": "6-31G**", 
		 "properties": { 
			 "R2extent": 2805.9575, 
			 "electric_dipole_moment_norm": 3.80306864913, 
			 "electric_quadrupole_moment_norm": 4.41713804969, 
			 "total_energy": -587.639227561, 
			 "HOMO_LUMO_gap": 0.19679, 
			 "cosmo_polarized_energy": -11.22, 
			 "cosmo_cavitation_energy": 30.17, 
			 "cosmo_dispersion_energy": -21.43, 
			 "cosmo_repulsion_energy": 1.71, 
			 "cosmo_total_nonelectrostatic_energy": 10.45, 
			 "SMD_solvation_energy": 3.65 
		},
		"coords": [
			{
				"x": -2.7614998191,
				"y": 0.0863562974,
				"z": -0.958515772,
				"element": "C" 
			},
			{
				"x": -1.6356140673,
				"y": -0.9464225766,
				"z": -0.8326147893,
				"element": "C" 
			},
			{
				"x": -0.7879964572,
				"y": -0.778098459,
				"z": 0.3520784448,
				"element": "N" 
			},
			{
				"x": -1.1374535168,
				"y": -1.4917941139,
				"z": 1.5788714165,
				"element": "C" 
			},
			{
				"x": -1.9205648631,
				"y": -0.6637789765,
				"z": 2.6073317504,
				"element": "C" 
			},
			{
				"x": 0.2829494721,
				"y": 0.0784626929,
				"z": 0.3123476613,
				"element": "C" 
			},
			{
				"x": 0.500622602,
				"y": 0.7261981739,
				"z": -0.8513581053,
				"element": "N" 
			},
			{
				"x": 1.5634466317,
				"y": 1.539443279,
				"z": -0.9065449538,
				"element": "C" 
			},
			{
				"x": 1.8118796725,
				"y": 2.1647054088,
				"z": -2.1030338247,
				"element": "N" 
			},
			{
				"x": 0.8853558376,
				"y": 2.2009517675,
				"z": -3.1580993504,
				"element": "N" 
			},
			{
				"x": 2.4377103013,
				"y": 1.8207556918,
				"z": 0.0800669539,
				"element": "N" 
			},
			{
				"x": 2.1942947713,
				"y": 1.1730660491,
				"z": 1.2232824599,
				"element": "C" 
			},
			{
				"x": 1.1440392388,
				"y": 0.2879789453,
				"z": 1.4183173303,
				"element": "C" 
			},
			{
				"x": -3.4563796772,
				"y": 0.0360188453,
				"z": -0.1145223123,
				"element": "H" 
			},
			{
				"x": -2.344967522,
				"y": 1.0959450119,
				"z": -1.003234112,
				"element": "H" 
			},
			{
				"x": -3.334040224,
				"y": -0.0903214989,
				"z": -1.8759973958,
				"element": "H" 
			},
			{
				"x": -2.0550069726,
				"y": -1.9576323866,
				"z": -0.7908192953,
				"element": "H" 
			},
			{
				"x": -0.992655963,
				"y": -0.8881969621,
				"z": -1.712701679,
				"element": "H" 
			},
			{
				"x": -1.727853506,
				"y": -2.3655497685,
				"z": 1.2861029825,
				"element": "H" 
			},
			{
				"x": -0.2219958721,
				"y": -1.8850287586,
				"z": 2.0354825248,
				"element": "H" 
			},
			{
				"x": -1.3612372408,
				"y": 0.2271986298,
				"z": 2.9060075899,
				"element": "H" 
			},
			{
				"x": -2.8828688146,
				"y": -0.3374737175,
				"z": 2.2028877082,
				"element": "H" 
			},
			{
				"x": -2.1142623729,
				"y": -1.2617082482,
				"z": 3.5045971173,
				"element": "H" 
			},
			{
				"x": 2.4632127467,
				"y": 2.9349521014,
				"z": -2.0678069603,
				"element": "H" 
			},
			{
				"x": -0.049177931,
				"y": 2.3040878365,
				"z": -2.7604216592,
				"element": "H" 
			},
			{
				"x": 0.8891038333,
				"y": 1.2845361704,
				"z": -3.6035315151,
				"element": "H" 
			},
			{
				"x": 2.8831141376,
				"y": 1.3790001877,
				"z": 2.0422133884,
				"element": "H" 
			},
			{
				"x": 1.0047455749,
				"y": -0.1937516223,
				"z": 2.3755143962,
				"element": "H" 
			}
		],
		 "valence_orbital": [ 
			{
				"type": "occ",
				"energy": -0.29381,
				"method": "rhf"
			},
			{
				"type": "occ",
				"energy": -0.26561,
				"method": "rhf"
			},
			{
				"type": "occ",
				"energy": -0.23659,
				"method": "rhf"
			},
			{
				"type": "occ",
				"energy": -0.22826,
				"method": "rhf"
			},
			{
				"type": "occ",
				"energy": -0.20038,
				"method": "rhf"
			},
			{
				"type": "unocc",
				"energy": -0.00359,
				"method": "rhf"
			},
			{
				"type": "unocc",
				"energy": 0.01982,
				"method": "rhf"
			},
			{
				"type": "unocc",
				"energy": 0.07599,
				"method": "rhf"
			},
			{
				"type": "unocc",
				"energy": 0.0894,
				"method": "rhf"
			},
			{
				"type": "unocc",
				"energy": 0.10409,
				"method": "rhf"
			}
		],
		"cosmo_sigma_profile": { 
			"-0.025": 0.0,
			"-0.024": 0.0,
			"-0.023": 0.0,
			"-0.022": 0.0,
			"-0.021": 0.0,
			"-0.02": 0.0,
			"-0.019": 0.0,
			"-0.018": 0.0,
			"-0.017": 0.0,
			"-0.016": 0.0,
			"-0.015": 0.0,
			"-0.014": 0.0,
			"-0.013": 0.340249501575,
			"-0.012": 0.678214638964,
			"-0.011": 1.45142730148,
			"-0.01": 1.7017127148,
			"-0.009": 3.54672537452,
			"-0.008": 2.13132024406,
			"-0.007": 2.76283913823,
			"-0.006": 8.33912862675,
			"-0.005": 11.4953677727,
			"-0.004": 17.1558352154,
			"-0.003": 22.6730517265,
			"-0.002": 24.2998707146,
			"-0.001": 23.7932179691,
			"0.0": 21.3500184392,
			"0.001": 20.2050174049,
			"0.002": 15.9358003177,
			"0.003": 14.9487148607,
			"0.004": 10.3862403351,
			"0.005": 7.41520786278,
			"0.006": 5.27602924583,
			"0.007": 3.77445058489,
			"0.008": 2.53167533224,
			"0.009": 2.24435992654,
			"0.01": 2.13508882838,
			"0.011": 1.5710685669,
			"0.012": 1.4227257483,
			"0.013": 1.79750646575,
			"0.014": 1.25839182283,
			"0.015": 1.82008192738,
			"0.016": 1.34090242492,
			"0.017": 0.576820836565,
			"0.018": 0.0408562894807,
			"0.019": 0.0,
			"0.02": 0.0,
			"0.021": 0.0,
			"0.022": 0.0,
			"0.023": 0.0,
			"0.024": 0.0,
			"0.025": 0.0
		}
	}
}
