{
	 "smiles": "CC1=C(SC(NCCC2=CC=CC=C2)=N1)C(O)=O", 
	 "Tm": 444.15, 
	 "num_atms": 32, 
	 "gaussian": { 
		 "optdone": 1, 
		 "sigma_profile": "yes", 
		 "theory": "DFT", 
		 "functional": "B3LYP", 
		 "basiset": "6-31G**", 
		 "properties": { 
			 "R2extent": 6909.8232, 
			 "electric_dipole_moment_norm": 3.89192595767, 
			 "electric_quadrupole_moment_norm": 8.31034765879, 
			 "total_energy": -1161.98999693, 
			 "HOMO_LUMO_gap": 0.17166, 
			 "cosmo_polarized_energy": -14.63, 
			 "cosmo_cavitation_energy": 38.02, 
			 "cosmo_dispersion_energy": -26.95, 
			 "cosmo_repulsion_energy": 2.07, 
			 "cosmo_total_nonelectrostatic_energy": 13.14, 
			 "SMD_solvation_energy": 5.24 
		},
		"coords": [
			{
				"x": -1.819854236,
				"y": 1.3280421904,
				"z": 3.654173569,
				"element": "C" 
			},
			{
				"x": -1.2721729267,
				"y": 1.4926883098,
				"z": 2.2689403111,
				"element": "C" 
			},
			{
				"x": -0.5509433705,
				"y": 2.5743725282,
				"z": 1.7995418675,
				"element": "C" 
			},
			{
				"x": -0.1239658721,
				"y": 2.3141294065,
				"z": 0.1026053781,
				"element": "S" 
			},
			{
				"x": -0.9602347136,
				"y": 0.7653419795,
				"z": 0.1968674513,
				"element": "C" 
			},
			{
				"x": -1.0678858894,
				"y": -0.0411335956,
				"z": -0.8919205444,
				"element": "N" 
			},
			{
				"x": -1.591073616,
				"y": -1.4002590404,
				"z": -0.7832545541,
				"element": "C" 
			},
			{
				"x": -0.5354064169,
				"y": -2.4424131331,
				"z": -0.3499438397,
				"element": "C" 
			},
			{
				"x": 0.6082478785,
				"y": -2.5700885406,
				"z": -1.3326050403,
				"element": "C" 
			},
			{
				"x": 1.779493923,
				"y": -1.8138543348,
				"z": -1.1789603775,
				"element": "C" 
			},
			{
				"x": 2.8138397698,
				"y": -1.8949723266,
				"z": -2.114172754,
				"element": "C" 
			},
			{
				"x": 2.6936986515,
				"y": -2.7367585505,
				"z": -3.220735657,
				"element": "C" 
			},
			{
				"x": 1.5341357609,
				"y": -3.4979979977,
				"z": -3.3846656571,
				"element": "C" 
			},
			{
				"x": 0.5027561884,
				"y": -3.4129562715,
				"z": -2.4491428218,
				"element": "C" 
			},
			{
				"x": -1.4909996299,
				"y": 0.4840532594,
				"z": 1.3667911768,
				"element": "N" 
			},
			{
				"x": -0.1503248282,
				"y": 3.7817691441,
				"z": 2.5069337543,
				"element": "C" 
			},
			{
				"x": 0.5618450677,
				"y": 4.6258751685,
				"z": 1.7066144833,
				"element": "O" 
			},
			{
				"x": -0.391617914,
				"y": 4.0600141707,
				"z": 3.6701371239,
				"element": "O" 
			},
			{
				"x": -2.9079338508,
				"y": 1.2086696993,
				"z": 3.6065838567,
				"element": "H" 
			},
			{
				"x": -1.572163533,
				"y": 2.182512129,
				"z": 4.2809821823,
				"element": "H" 
			},
			{
				"x": -1.4184604233,
				"y": 0.4120131502,
				"z": 4.1014052722,
				"element": "H" 
			},
			{
				"x": -0.4448149823,
				"y": 0.1445438771,
				"z": -1.6647189728,
				"element": "H" 
			},
			{
				"x": -2.0076085933,
				"y": -1.6708887788,
				"z": -1.7591140467,
				"element": "H" 
			},
			{
				"x": -2.4056588041,
				"y": -1.3756417588,
				"z": -0.0572827339,
				"element": "H" 
			},
			{
				"x": -1.0461046379,
				"y": -3.4066406667,
				"z": -0.239155548,
				"element": "H" 
			},
			{
				"x": -0.163195716,
				"y": -2.1602033858,
				"z": 0.6403313864,
				"element": "H" 
			},
			{
				"x": 1.8867348257,
				"y": -1.1658401969,
				"z": -0.3124493694,
				"element": "H" 
			},
			{
				"x": 3.7149102794,
				"y": -1.3045237515,
				"z": -1.9736270893,
				"element": "H" 
			},
			{
				"x": 3.498893686,
				"y": -2.8042776233,
				"z": -3.9465323921,
				"element": "H" 
			},
			{
				"x": 1.4349152219,
				"y": -4.1619502117,
				"z": -4.2388979624,
				"element": "H" 
			},
			{
				"x": -0.3942836928,
				"y": -4.0140124705,
				"z": -2.581430452,
				"element": "H" 
			},
			{
				"x": 0.7786323939,
				"y": 5.3920876219,
				"z": 2.2622019993,
				"element": "H" 
			}
		],
		 "valence_orbital": [ 
			{
				"type": "occ",
				"energy": -0.2749,
				"method": "rhf"
			},
			{
				"type": "occ",
				"energy": -0.26828,
				"method": "rhf"
			},
			{
				"type": "occ",
				"energy": -0.25702,
				"method": "rhf"
			},
			{
				"type": "occ",
				"energy": -0.25015,
				"method": "rhf"
			},
			{
				"type": "occ",
				"energy": -0.21031,
				"method": "rhf"
			},
			{
				"type": "unocc",
				"energy": -0.03865,
				"method": "rhf"
			},
			{
				"type": "unocc",
				"energy": -0.00972,
				"method": "rhf"
			},
			{
				"type": "unocc",
				"energy": -0.00873,
				"method": "rhf"
			},
			{
				"type": "unocc",
				"energy": 0.00805,
				"method": "rhf"
			},
			{
				"type": "unocc",
				"energy": 0.0332,
				"method": "rhf"
			}
		],
		"cosmo_sigma_profile": { 
			"-0.025": 0.0,
			"-0.024": 0.0,
			"-0.023": 0.0,
			"-0.022": 0.0,
			"-0.021": 0.0,
			"-0.02": 0.0,
			"-0.019": 0.0,
			"-0.018": 0.399171989582,
			"-0.017": 1.18219998577,
			"-0.016": 0.554635867796,
			"-0.015": 0.908221281053,
			"-0.014": 1.47743101183,
			"-0.013": 2.252451046,
			"-0.012": 1.2093840684,
			"-0.011": 1.91892389069,
			"-0.01": 1.86224199165,
			"-0.009": 1.44636555942,
			"-0.008": 2.21393135929,
			"-0.007": 2.53387677529,
			"-0.006": 4.47932611595,
			"-0.005": 20.4359982835,
			"-0.004": 27.914789859,
			"-0.003": 27.0108074779,
			"-0.002": 20.7555842003,
			"-0.001": 25.1492345294,
			"0.0": 24.1571923682,
			"0.001": 22.3823874823,
			"0.002": 22.7550466267,
			"0.003": 20.34526413,
			"0.004": 18.2918925411,
			"0.005": 15.085556219,
			"0.006": 12.5855121192,
			"0.007": 5.80879494224,
			"0.008": 4.44942730129,
			"0.009": 2.12711711839,
			"0.01": 3.14631327749,
			"0.011": 3.32519499958,
			"0.012": 4.93602990784,
			"0.013": 0.982143217922,
			"0.014": 0.0,
			"0.015": 0.0,
			"0.016": 0.0,
			"0.017": 0.0,
			"0.018": 0.0,
			"0.019": 0.0,
			"0.02": 0.0,
			"0.021": 0.0,
			"0.022": 0.0,
			"0.023": 0.0,
			"0.024": 0.0,
			"0.025": 0.0
		}
	}
}
