{
	 "smiles": "NC1=NC=CC(=N1)C1=CC(=NO1)C1=CC=CC(=C1)C(F)(F)F", 
	 "Tm": 457.15, 
	 "num_atms": 31, 
	 "gaussian": { 
		 "optdone": 1, 
		 "sigma_profile": "yes", 
		 "theory": "DFT", 
		 "functional": "B3LYP", 
		 "basiset": "6-31G**", 
		 "properties": { 
			 "R2extent": 10258.4161, 
			 "electric_dipole_moment_norm": 1.46883445289, 
			 "electric_quadrupole_moment_norm": 22.106464144, 
			 "total_energy": -1132.64302171, 
			 "HOMO_LUMO_gap": 0.16289, 
			 "cosmo_polarized_energy": -13.16, 
			 "cosmo_cavitation_energy": 38.88, 
			 "cosmo_dispersion_energy": -27.95, 
			 "cosmo_repulsion_energy": 2.04, 
			 "cosmo_total_nonelectrostatic_energy": 12.98, 
			 "SMD_solvation_energy": 4.8 
		},
		"coords": [
			{
				"x": -4.9518905448,
				"y": -2.3600222338,
				"z": 1.2697269752,
				"element": "N" 
			},
			{
				"x": -3.7784949412,
				"y": -2.4496790348,
				"z": 1.955076062,
				"element": "C" 
			},
			{
				"x": -3.7555059052,
				"y": -3.3019840855,
				"z": 3.0039389912,
				"element": "N" 
			},
			{
				"x": -2.5876963542,
				"y": -3.4037695184,
				"z": 3.6363284508,
				"element": "C" 
			},
			{
				"x": -1.4475948746,
				"y": -2.6904992443,
				"z": 3.2675245076,
				"element": "C" 
			},
			{
				"x": -1.5967540273,
				"y": -1.8313385416,
				"z": 2.1737387539,
				"element": "C" 
			},
			{
				"x": -2.7545309958,
				"y": -1.6999916104,
				"z": 1.5104073962,
				"element": "N" 
			},
			{
				"x": -0.4888996442,
				"y": -1.0113277372,
				"z": 1.6799591723,
				"element": "C" 
			},
			{
				"x": -0.3917608058,
				"y": -0.1248159765,
				"z": 0.6480598971,
				"element": "C" 
			},
			{
				"x": 0.9591662471,
				"y": 0.3291196213,
				"z": 0.7068055741,
				"element": "C" 
			},
			{
				"x": 1.6117449899,
				"y": -0.2491529371,
				"z": 1.7028654679,
				"element": "N" 
			},
			{
				"x": 0.7019275256,
				"y": -1.095132303,
				"z": 2.3184372949,
				"element": "O" 
			},
			{
				"x": 1.6459814984,
				"y": 1.3005536523,
				"z": -0.163726735,
				"element": "C" 
			},
			{
				"x": 2.9999962491,
				"y": 1.6118442749,
				"z": 0.0453428375,
				"element": "C" 
			},
			{
				"x": 3.6454166744,
				"y": 2.5346409611,
				"z": -0.772821014,
				"element": "C" 
			},
			{
				"x": 2.9567112256,
				"y": 3.1606503548,
				"z": -1.8124795383,
				"element": "C" 
			},
			{
				"x": 1.6110235163,
				"y": 2.8537976614,
				"z": -2.0255508888,
				"element": "C" 
			},
			{
				"x": 0.9581812127,
				"y": 1.9306552147,
				"z": -1.2079434568,
				"element": "C" 
			},
			{
				"x": 0.875953186,
				"y": 3.4793184212,
				"z": -3.1808619221,
				"element": "C" 
			},
			{
				"x": 1.0443523618,
				"y": 2.7697431927,
				"z": -4.3209804132,
				"element": "F" 
			},
			{
				"x": -0.4552946487,
				"y": 3.5482017689,
				"z": -2.9551573126,
				"element": "F" 
			},
			{
				"x": 1.3117056894,
				"y": 4.7332940852,
				"z": -3.4326446487,
				"element": "F" 
			},
			{
				"x": -5.7707577129,
				"y": -2.7691844057,
				"z": 1.6889398247,
				"element": "H" 
			},
			{
				"x": -5.0579546931,
				"y": -1.6091642684,
				"z": 0.6076683931,
				"element": "H" 
			},
			{
				"x": -2.5605757123,
				"y": -4.0881426241,
				"z": 4.4829705673,
				"element": "H" 
			},
			{
				"x": -0.5078008168,
				"y": -2.7868740496,
				"z": 3.7949792467,
				"element": "H" 
			},
			{
				"x": -1.178186135,
				"y": 0.1448469959,
				"z": -0.0371483683,
				"element": "H" 
			},
			{
				"x": 3.5324061393,
				"y": 1.1248658972,
				"z": 0.854959052,
				"element": "H" 
			},
			{
				"x": 4.6906091375,
				"y": 2.7707567272,
				"z": -0.5986499748,
				"element": "H" 
			},
			{
				"x": 3.4533964549,
				"y": 3.8861730568,
				"z": -2.4475093525,
				"element": "H" 
			},
			{
				"x": -0.0891742963,
				"y": 1.7158166846,
				"z": -1.3857548394,
				"element": "H" 
			}
		],
		 "valence_orbital": [ 
			{
				"type": "occ",
				"energy": -0.27462,
				"method": "rhf"
			},
			{
				"type": "occ",
				"energy": -0.26532,
				"method": "rhf"
			},
			{
				"type": "occ",
				"energy": -0.25815,
				"method": "rhf"
			},
			{
				"type": "occ",
				"energy": -0.2535,
				"method": "rhf"
			},
			{
				"type": "occ",
				"energy": -0.23472,
				"method": "rhf"
			},
			{
				"type": "unocc",
				"energy": -0.07183,
				"method": "rhf"
			},
			{
				"type": "unocc",
				"energy": -0.04739,
				"method": "rhf"
			},
			{
				"type": "unocc",
				"energy": -0.0286,
				"method": "rhf"
			},
			{
				"type": "unocc",
				"energy": -0.01265,
				"method": "rhf"
			},
			{
				"type": "unocc",
				"energy": 0.0343,
				"method": "rhf"
			}
		],
		"cosmo_sigma_profile": { 
			"-0.025": 0.0,
			"-0.024": 0.0,
			"-0.023": 0.0,
			"-0.022": 0.0,
			"-0.021": 0.0,
			"-0.02": 0.0,
			"-0.019": 0.0,
			"-0.018": 0.0,
			"-0.017": 0.0,
			"-0.016": 0.0,
			"-0.015": 0.0,
			"-0.014": 1.17087366113,
			"-0.013": 2.0330596094,
			"-0.012": 2.54763387598,
			"-0.011": 2.03507695331,
			"-0.01": 3.12825128942,
			"-0.009": 4.19392831733,
			"-0.008": 3.88840880195,
			"-0.007": 10.8742617416,
			"-0.006": 14.3296608175,
			"-0.005": 12.937452301,
			"-0.004": 11.5880343711,
			"-0.003": 12.2374532122,
			"-0.002": 14.6832425559,
			"-0.001": 26.7151789375,
			"0.0": 32.6271721724,
			"0.001": 34.9040987109,
			"0.002": 40.5544110084,
			"0.003": 37.5654292273,
			"0.004": 8.8452324588,
			"0.005": 5.49686085499,
			"0.006": 7.03938840028,
			"0.007": 6.67783091542,
			"0.008": 4.097381979,
			"0.009": 4.5023190887,
			"0.01": 3.19200592038,
			"0.011": 2.17082110375,
			"0.012": 1.84155891483,
			"0.013": 0.753738471526,
			"0.014": 0.811481013606,
			"0.015": 0.360594372358,
			"0.016": 0.0,
			"0.017": 0.0,
			"0.018": 0.0,
			"0.019": 0.0,
			"0.02": 0.0,
			"0.021": 0.0,
			"0.022": 0.0,
			"0.023": 0.0,
			"0.024": 0.0,
			"0.025": 0.0
		}
	}
}
