{
	 "smiles": "O=C1NC=NC2=C1CCNC2", 
	 "Tm": 525.15, 
	 "num_atms": 20, 
	 "gaussian": { 
		 "optdone": 1, 
		 "sigma_profile": "yes", 
		 "theory": "DFT", 
		 "functional": "B3LYP", 
		 "basiset": "6-31G**", 
		 "properties": { 
			 "R2extent": 2047.345, 
			 "electric_dipole_moment_norm": 2.27135002366, 
			 "electric_quadrupole_moment_norm": 16.8512318354, 
			 "total_energy": -511.65544604, 
			 "HOMO_LUMO_gap": 0.18789, 
			 "cosmo_polarized_energy": -15.65, 
			 "cosmo_cavitation_energy": 22.71, 
			 "cosmo_dispersion_energy": -17.55, 
			 "cosmo_repulsion_energy": 1.41, 
			 "cosmo_total_nonelectrostatic_energy": 6.57, 
			 "SMD_solvation_energy": 0.73 
		},
		"coords": [
			{
				"x": 1.5253895293,
				"y": -2.7275268958,
				"z": -0.6164198465,
				"element": "O" 
			},
			{
				"x": 1.5879164891,
				"y": -1.5528514736,
				"z": -0.9601571297,
				"element": "C" 
			},
			{
				"x": 2.1545761485,
				"y": -1.2013870096,
				"z": -2.2062009637,
				"element": "N" 
			},
			{
				"x": 2.2470117835,
				"y": 0.0791948082,
				"z": -2.6558804521,
				"element": "C" 
			},
			{
				"x": 1.8365968317,
				"y": 1.1113883942,
				"z": -1.9882450425,
				"element": "N" 
			},
			{
				"x": 1.2798744264,
				"y": 0.858349799,
				"z": -0.7479031532,
				"element": "C" 
			},
			{
				"x": 1.1238651057,
				"y": -0.3940723059,
				"z": -0.2145486741,
				"element": "C" 
			},
			{
				"x": 0.4742173344,
				"y": -0.6229347141,
				"z": 1.1251745638,
				"element": "C" 
			},
			{
				"x": -0.3002252335,
				"y": 0.6195635303,
				"z": 1.5710455674,
				"element": "C" 
			},
			{
				"x": 0.55740801,
				"y": 1.7935835855,
				"z": 1.4006890485,
				"element": "N" 
			},
			{
				"x": 0.8183405555,
				"y": 2.0875578168,
				"z": -0.003585018,
				"element": "C" 
			},
			{
				"x": 2.4943858976,
				"y": -1.9754381536,
				"z": -2.7650947229,
				"element": "H" 
			},
			{
				"x": 2.698441308,
				"y": 0.2118490104,
				"z": -3.6372510999,
				"element": "H" 
			},
			{
				"x": -0.1823808204,
				"y": -1.49779676,
				"z": 1.0629518224,
				"element": "H" 
			},
			{
				"x": 1.2452871788,
				"y": -0.8681895221,
				"z": 1.8666349123,
				"element": "H" 
			},
			{
				"x": -0.5733130613,
				"y": 0.5352649084,
				"z": 2.6274731368,
				"element": "H" 
			},
			{
				"x": -1.2418265583,
				"y": 0.6887270906,
				"z": 0.9927633381,
				"element": "H" 
			},
			{
				"x": 0.1438936591,
				"y": 2.6054523378,
				"z": 1.8481842174,
				"element": "H" 
			},
			{
				"x": -0.0597549864,
				"y": 2.4869213545,
				"z": -0.5505313555,
				"element": "H" 
			},
			{
				"x": 1.6020964022,
				"y": 2.8495441989,
				"z": -0.0833991486,
				"element": "H" 
			}
		],
		 "valence_orbital": [ 
			{
				"type": "occ",
				"energy": -0.30027,
				"method": "rhf"
			},
			{
				"type": "occ",
				"energy": -0.27965,
				"method": "rhf"
			},
			{
				"type": "occ",
				"energy": -0.25646,
				"method": "rhf"
			},
			{
				"type": "occ",
				"energy": -0.23168,
				"method": "rhf"
			},
			{
				"type": "occ",
				"energy": -0.22509,
				"method": "rhf"
			},
			{
				"type": "unocc",
				"energy": -0.0372,
				"method": "rhf"
			},
			{
				"type": "unocc",
				"energy": -0.00021,
				"method": "rhf"
			},
			{
				"type": "unocc",
				"energy": 0.07206,
				"method": "rhf"
			},
			{
				"type": "unocc",
				"energy": 0.08393,
				"method": "rhf"
			},
			{
				"type": "unocc",
				"energy": 0.11812,
				"method": "rhf"
			}
		],
		"cosmo_sigma_profile": { 
			"-0.025": 0.0,
			"-0.024": 0.0,
			"-0.023": 0.0,
			"-0.022": 0.0,
			"-0.021": 0.0,
			"-0.02": 0.0,
			"-0.019": 0.0,
			"-0.018": 0.0,
			"-0.017": 0.620988326019,
			"-0.016": 1.52494506483,
			"-0.015": 1.39380964672,
			"-0.014": 1.24847698074,
			"-0.013": 1.21490299171,
			"-0.012": 0.986404035202,
			"-0.011": 2.4256776712,
			"-0.01": 4.01559996218,
			"-0.009": 3.82099086402,
			"-0.008": 3.25695915152,
			"-0.007": 3.51814988889,
			"-0.006": 3.32638562975,
			"-0.005": 4.59874061181,
			"-0.004": 12.2114279963,
			"-0.003": 17.1715625942,
			"-0.002": 25.2037315338,
			"-0.001": 18.3839923876,
			"0.0": 12.0991256391,
			"0.001": 8.0599513274,
			"0.002": 5.44131347337,
			"0.003": 4.26585448787,
			"0.004": 3.95342722301,
			"0.005": 3.84040517138,
			"0.006": 2.94759709572,
			"0.007": 3.64302230831,
			"0.008": 3.55191216034,
			"0.009": 2.73978076842,
			"0.01": 2.83988578276,
			"0.011": 3.04466243989,
			"0.012": 2.74281936306,
			"0.013": 6.34826298526,
			"0.014": 5.79782988543,
			"0.015": 1.53847697035,
			"0.016": 0.661969541354,
			"0.017": 0.470897968957,
			"0.018": 0.0518317843967,
			"0.019": 0.0,
			"0.02": 0.0,
			"0.021": 0.0,
			"0.022": 0.0,
			"0.023": 0.0,
			"0.024": 0.0,
			"0.025": 0.0
		}
	}
}
