{
	 "smiles": "CNC1=C(C=C(Cl)C=C1)[N+]([O-])=O", 
	 "Tm": 380.15, 
	 "num_atms": 19, 
	 "gaussian": { 
		 "optdone": 1, 
		 "sigma_profile": "yes", 
		 "theory": "DFT", 
		 "functional": "B3LYP", 
		 "basiset": "6-31G**", 
		 "properties": { 
			 "R2extent": 2985.6214, 
			 "electric_dipole_moment_norm": 5.14835171584, 
			 "electric_quadrupole_moment_norm": 13.2721486851, 
			 "total_energy": -991.010851268, 
			 "HOMO_LUMO_gap": 0.13073, 
			 "cosmo_polarized_energy": -9.8, 
			 "cosmo_cavitation_energy": 25.11, 
			 "cosmo_dispersion_energy": -18.98, 
			 "cosmo_repulsion_energy": 1.51, 
			 "cosmo_total_nonelectrostatic_energy": 7.65, 
			 "SMD_solvation_energy": 5.54 
		},
		"coords": [
			{
				"x": -0.2657902029,
				"y": 3.0403057315,
				"z": -1.604738339,
				"element": "C" 
			},
			{
				"x": 0.6779348735,
				"y": 1.9443482868,
				"z": -1.5540568825,
				"element": "N" 
			},
			{
				"x": 0.6139480958,
				"y": 0.9174998787,
				"z": -0.6717419775,
				"element": "C" 
			},
			{
				"x": 1.5600774786,
				"y": -0.1542243526,
				"z": -0.6431638461,
				"element": "C" 
			},
			{
				"x": 1.4608456475,
				"y": -1.2010146335,
				"z": 0.2864186019,
				"element": "C" 
			},
			{
				"x": 0.4311156866,
				"y": -1.2139605473,
				"z": 1.204102831,
				"element": "C" 
			},
			{
				"x": 0.3008688516,
				"y": -2.5197789271,
				"z": 2.3695340812,
				"element": "Cl" 
			},
			{
				"x": -0.5177377894,
				"y": -0.1798030444,
				"z": 1.2081925969,
				"element": "C" 
			},
			{
				"x": -0.4259188904,
				"y": 0.8534229862,
				"z": 0.2960419939,
				"element": "C" 
			},
			{
				"x": 2.6741083246,
				"y": -0.2254740769,
				"z": -1.5671628447,
				"element": "N" 
			},
			{
				"x": 3.4504992339,
				"y": -1.1771040684,
				"z": -1.4853737572,
				"element": "O" 
			},
			{
				"x": 2.8108720739,
				"y": 0.6793796491,
				"z": -2.415643168,
				"element": "O" 
			},
			{
				"x": -1.2872148684,
				"y": 2.6956901833,
				"z": -1.8123407599,
				"element": "H" 
			},
			{
				"x": -0.2803826105,
				"y": 3.6155824791,
				"z": -0.6698410481,
				"element": "H" 
			},
			{
				"x": 0.0342041273,
				"y": 3.7122884336,
				"z": -2.4102211001,
				"element": "H" 
			},
			{
				"x": 1.4537013685,
				"y": 1.901535615,
				"z": -2.2030866088,
				"element": "H" 
			},
			{
				"x": 2.2075066271,
				"y": -1.9829941737,
				"z": 0.2578018819,
				"element": "H" 
			},
			{
				"x": -1.3261199529,
				"y": -0.1933678658,
				"z": 1.9314331331,
				"element": "H" 
			},
			{
				"x": -1.1697180744,
				"y": 1.6401684461,
				"z": 0.318545212,
				"element": "H" 
			}
		],
		 "valence_orbital": [ 
			{
				"type": "occ",
				"energy": -0.30822,
				"method": "rhf"
			},
			{
				"type": "occ",
				"energy": -0.30036,
				"method": "rhf"
			},
			{
				"type": "occ",
				"energy": -0.29037,
				"method": "rhf"
			},
			{
				"type": "occ",
				"energy": -0.28566,
				"method": "rhf"
			},
			{
				"type": "occ",
				"energy": -0.22058,
				"method": "rhf"
			},
			{
				"type": "unocc",
				"energy": -0.08985,
				"method": "rhf"
			},
			{
				"type": "unocc",
				"energy": -0.01398,
				"method": "rhf"
			},
			{
				"type": "unocc",
				"energy": -0.00113,
				"method": "rhf"
			},
			{
				"type": "unocc",
				"energy": 0.02203,
				"method": "rhf"
			},
			{
				"type": "unocc",
				"energy": 0.08275,
				"method": "rhf"
			}
		],
		"cosmo_sigma_profile": { 
			"-0.025": 0.0,
			"-0.024": 0.0,
			"-0.023": 0.0,
			"-0.022": 0.0,
			"-0.021": 0.0,
			"-0.02": 0.0,
			"-0.019": 0.0,
			"-0.018": 0.0,
			"-0.017": 0.0,
			"-0.016": 0.0,
			"-0.015": 0.0,
			"-0.014": 0.0,
			"-0.013": 0.0,
			"-0.012": 0.0,
			"-0.011": 0.437914825574,
			"-0.01": 0.853238768086,
			"-0.009": 0.984646355534,
			"-0.008": 3.09587387681,
			"-0.007": 7.1887593101,
			"-0.006": 10.5638397479,
			"-0.005": 14.0448182901,
			"-0.004": 12.9413397667,
			"-0.003": 14.6602305989,
			"-0.002": 15.5256338623,
			"-0.001": 15.146692066,
			"0.0": 18.3841788485,
			"0.001": 20.2178457043,
			"0.002": 16.4562311548,
			"0.003": 9.61074077735,
			"0.004": 11.241329471,
			"0.005": 7.91288232299,
			"0.006": 2.97838978961,
			"0.007": 3.49263958829,
			"0.008": 6.44985113984,
			"0.009": 4.96507852004,
			"0.01": 3.83621711239,
			"0.011": 2.35305718101,
			"0.012": 0.033879149902,
			"0.013": 0.0,
			"0.014": 0.0,
			"0.015": 0.0,
			"0.016": 0.0,
			"0.017": 0.0,
			"0.018": 0.0,
			"0.019": 0.0,
			"0.02": 0.0,
			"0.021": 0.0,
			"0.022": 0.0,
			"0.023": 0.0,
			"0.024": 0.0,
			"0.025": 0.0
		}
	}
}
