{
	 "smiles": "CC1=C(CCC(O)=O)C(C)=NO1", 
	 "Tm": 383.15, 
	 "num_atms": 23, 
	 "gaussian": { 
		 "optdone": 1, 
		 "sigma_profile": "yes", 
		 "theory": "DFT", 
		 "functional": "B3LYP", 
		 "basiset": "6-31G**", 
		 "properties": { 
			 "R2extent": 2899.3123, 
			 "electric_dipole_moment_norm": 2.77470766929, 
			 "electric_quadrupole_moment_norm": 15.253867387, 
			 "total_energy": -591.887335497, 
			 "HOMO_LUMO_gap": 0.24054, 
			 "cosmo_polarized_energy": -14.91, 
			 "cosmo_cavitation_energy": 27.7, 
			 "cosmo_dispersion_energy": -19.36, 
			 "cosmo_repulsion_energy": 1.58, 
			 "cosmo_total_nonelectrostatic_energy": 9.92, 
			 "SMD_solvation_energy": 5.99 
		},
		"coords": [
			{
				"x": -2.4280952215,
				"y": 0.9721040368,
				"z": -2.1676650367,
				"element": "C" 
			},
			{
				"x": -2.1317257659,
				"y": 1.0878065362,
				"z": -0.711807213,
				"element": "C" 
			},
			{
				"x": -1.0783097389,
				"y": 0.7026612543,
				"z": 0.0698586304,
				"element": "C" 
			},
			{
				"x": 0.1912986362,
				"y": 0.0104581487,
				"z": -0.3335681937,
				"element": "C" 
			},
			{
				"x": 1.3810461607,
				"y": 0.971489826,
				"z": -0.4910728581,
				"element": "C" 
			},
			{
				"x": 2.6499786908,
				"y": 0.2619426225,
				"z": -0.9113128378,
				"element": "C" 
			},
			{
				"x": 3.6974777859,
				"y": 1.1184533724,
				"z": -0.9849209656,
				"element": "O" 
			},
			{
				"x": 2.7529200484,
				"y": -0.9188147231,
				"z": -1.1629907487,
				"element": "O" 
			},
			{
				"x": -1.4695233502,
				"y": 1.1264646513,
				"z": 1.3845596581,
				"element": "C" 
			},
			{
				"x": -0.7227246809,
				"y": 0.9642590076,
				"z": 2.6729036725,
				"element": "C" 
			},
			{
				"x": -2.6470856382,
				"y": 1.7085499983,
				"z": 1.3824214965,
				"element": "N" 
			},
			{
				"x": -3.0734240928,
				"y": 1.6881139852,
				"z": 0.0486753349,
				"element": "O" 
			},
			{
				"x": -3.394900044,
				"y": 0.4846275335,
				"z": -2.3295600256,
				"element": "H" 
			},
			{
				"x": -2.4736540039,
				"y": 1.9590737507,
				"z": -2.6411601164,
				"element": "H" 
			},
			{
				"x": -1.6557674383,
				"y": 0.3854105484,
				"z": -2.669887173,
				"element": "H" 
			},
			{
				"x": 0.4529980932,
				"y": -0.7568034113,
				"z": 0.4035858835,
				"element": "H" 
			},
			{
				"x": 0.0477603607,
				"y": -0.527777568,
				"z": -1.2755958442,
				"element": "H" 
			},
			{
				"x": 1.1639934313,
				"y": 1.7460111308,
				"z": -1.2367768528,
				"element": "H" 
			},
			{
				"x": 1.5871106176,
				"y": 1.5141217532,
				"z": 0.4389061894,
				"element": "H" 
			},
			{
				"x": 4.4622993045,
				"y": 0.5877299742,
				"z": -1.2649673015,
				"element": "H" 
			},
			{
				"x": 0.2215774533,
				"y": 1.5197952628,
				"z": 2.660900945,
				"element": "H" 
			},
			{
				"x": -1.3287490175,
				"y": 1.3341960885,
				"z": 3.5023228347,
				"element": "H" 
			},
			{
				"x": -0.4822015906,
				"y": -0.088273779,
				"z": 2.8584505221,
				"element": "H" 
			}
		],
		 "valence_orbital": [ 
			{
				"type": "occ",
				"energy": -0.32585,
				"method": "rhf"
			},
			{
				"type": "occ",
				"energy": -0.29266,
				"method": "rhf"
			},
			{
				"type": "occ",
				"energy": -0.28465,
				"method": "rhf"
			},
			{
				"type": "occ",
				"energy": -0.27513,
				"method": "rhf"
			},
			{
				"type": "occ",
				"energy": -0.24325,
				"method": "rhf"
			},
			{
				"type": "unocc",
				"energy": -0.00271,
				"method": "rhf"
			},
			{
				"type": "unocc",
				"energy": 0.00309,
				"method": "rhf"
			},
			{
				"type": "unocc",
				"energy": 0.05397,
				"method": "rhf"
			},
			{
				"type": "unocc",
				"energy": 0.07537,
				"method": "rhf"
			},
			{
				"type": "unocc",
				"energy": 0.07881,
				"method": "rhf"
			}
		],
		"cosmo_sigma_profile": { 
			"-0.025": 0.0,
			"-0.024": 0.0,
			"-0.023": 0.0,
			"-0.022": 0.0,
			"-0.021": 0.0,
			"-0.02": 0.0,
			"-0.019": 0.0,
			"-0.018": 0.566311747946,
			"-0.017": 0.962794157286,
			"-0.016": 0.838057105129,
			"-0.015": 0.75930450427,
			"-0.014": 0.790122212276,
			"-0.013": 0.953060653796,
			"-0.012": 0.784082148341,
			"-0.011": 0.308130585633,
			"-0.01": 0.946105864804,
			"-0.009": 0.420415150949,
			"-0.008": 0.427260683596,
			"-0.007": 1.85748114542,
			"-0.006": 13.5215923022,
			"-0.005": 21.986237754,
			"-0.004": 22.3187906994,
			"-0.003": 19.5625240669,
			"-0.002": 21.7424654301,
			"-0.001": 18.9208333315,
			"0.0": 11.237840689,
			"0.001": 7.94666443543,
			"0.002": 10.4589626142,
			"0.003": 6.26626615546,
			"0.004": 4.65202165448,
			"0.005": 5.53210566447,
			"0.006": 5.23545215956,
			"0.007": 4.53294172025,
			"0.008": 5.746916466,
			"0.009": 8.19245519913,
			"0.01": 5.59465345916,
			"0.011": 4.96634306341,
			"0.012": 5.77697999896,
			"0.013": 1.91451151716,
			"0.014": 0.969951714299,
			"0.015": 1.28968042442,
			"0.016": 0.08236612898,
			"0.017": 0.0,
			"0.018": 0.0,
			"0.019": 0.0,
			"0.02": 0.0,
			"0.021": 0.0,
			"0.022": 0.0,
			"0.023": 0.0,
			"0.024": 0.0,
			"0.025": 0.0
		}
	}
}
