{
	 "smiles": "CNC(=O)C1=C(C=CC(Cl)=C1)[N+]([O-])=O", 
	 "Tm": 411.15, 
	 "num_atms": 21, 
	 "gaussian": { 
		 "optdone": 1, 
		 "sigma_profile": "yes", 
		 "theory": "DFT", 
		 "functional": "B3LYP", 
		 "basiset": "6-31G**", 
		 "properties": { 
			 "R2extent": 3587.2814, 
			 "electric_dipole_moment_norm": 4.33695891265, 
			 "electric_quadrupole_moment_norm": 17.1109904351, 
			 "total_energy": -1104.33932827, 
			 "HOMO_LUMO_gap": 0.15496, 
			 "cosmo_polarized_energy": -14.95, 
			 "cosmo_cavitation_energy": 28.16, 
			 "cosmo_dispersion_energy": -20.03, 
			 "cosmo_repulsion_energy": 1.6, 
			 "cosmo_total_nonelectrostatic_energy": 9.73, 
			 "SMD_solvation_energy": 6.7 
		},
		"coords": [
			{
				"x": -1.6618560919,
				"y": -0.2636775824,
				"z": 1.3152351589,
				"element": "C" 
			},
			{
				"x": -2.0100310221,
				"y": 0.1019902897,
				"z": -0.0502378947,
				"element": "N" 
			},
			{
				"x": -1.1361499294,
				"y": 0.2351786904,
				"z": -1.0878188512,
				"element": "C" 
			},
			{
				"x": -1.4786205842,
				"y": 0.2557208747,
				"z": -2.2603624656,
				"element": "O" 
			},
			{
				"x": 0.3125614524,
				"y": 0.551174112,
				"z": -0.7418356495,
				"element": "C" 
			},
			{
				"x": 1.3557604373,
				"y": -0.3840223117,
				"z": -0.7402707308,
				"element": "C" 
			},
			{
				"x": 2.690017255,
				"y": -0.0038851485,
				"z": -0.5922333276,
				"element": "C" 
			},
			{
				"x": 3.0107344681,
				"y": 1.3374354317,
				"z": -0.4249812755,
				"element": "C" 
			},
			{
				"x": 1.9793319289,
				"y": 2.2794108778,
				"z": -0.4165554593,
				"element": "C" 
			},
			{
				"x": 2.364394041,
				"y": 3.9713437102,
				"z": -0.2020484876,
				"element": "Cl" 
			},
			{
				"x": 0.6475023094,
				"y": 1.8996591611,
				"z": -0.5815167757,
				"element": "C" 
			},
			{
				"x": 1.0702944718,
				"y": -1.8199251749,
				"z": -0.8674397915,
				"element": "N" 
			},
			{
				"x": 2.0161263918,
				"y": -2.5754907492,
				"z": -1.0792575959,
				"element": "O" 
			},
			{
				"x": -0.0999763422,
				"y": -2.1826927563,
				"z": -0.738006012,
				"element": "O" 
			},
			{
				"x": -0.7524167286,
				"y": 0.2586984631,
				"z": 1.6187570642,
				"element": "H" 
			},
			{
				"x": -2.4656959986,
				"y": 0.0489601577,
				"z": 1.9862522956,
				"element": "H" 
			},
			{
				"x": -1.4979894604,
				"y": -1.3419295552,
				"z": 1.4262470239,
				"element": "H" 
			},
			{
				"x": -2.9430345607,
				"y": -0.1336162298,
				"z": -0.3669814832,
				"element": "H" 
			},
			{
				"x": 3.4564760686,
				"y": -0.7685886031,
				"z": -0.6066837824,
				"element": "H" 
			},
			{
				"x": 4.0406440427,
				"y": 1.6507549553,
				"z": -0.3010380869,
				"element": "H" 
			},
			{
				"x": -0.1323721489,
				"y": 2.6526013874,
				"z": -0.5970238733,
				"element": "H" 
			}
		],
		 "valence_orbital": [ 
			{
				"type": "occ",
				"energy": -0.30329,
				"method": "rhf"
			},
			{
				"type": "occ",
				"energy": -0.29884,
				"method": "rhf"
			},
			{
				"type": "occ",
				"energy": -0.28068,
				"method": "rhf"
			},
			{
				"type": "occ",
				"energy": -0.26622,
				"method": "rhf"
			},
			{
				"type": "occ",
				"energy": -0.25641,
				"method": "rhf"
			},
			{
				"type": "unocc",
				"energy": -0.10145,
				"method": "rhf"
			},
			{
				"type": "unocc",
				"energy": -0.04586,
				"method": "rhf"
			},
			{
				"type": "unocc",
				"energy": -0.0177,
				"method": "rhf"
			},
			{
				"type": "unocc",
				"energy": 0.0035,
				"method": "rhf"
			},
			{
				"type": "unocc",
				"energy": 0.0191,
				"method": "rhf"
			}
		],
		"cosmo_sigma_profile": { 
			"-0.025": 0.0,
			"-0.024": 0.0,
			"-0.023": 0.0,
			"-0.022": 0.0,
			"-0.021": 0.0,
			"-0.02": 0.0,
			"-0.019": 0.0,
			"-0.018": 0.0,
			"-0.017": 0.0,
			"-0.016": 0.0,
			"-0.015": 0.00278108819583,
			"-0.014": 0.863833221665,
			"-0.013": 1.14861443317,
			"-0.012": 0.923635286,
			"-0.011": 1.3184011307,
			"-0.01": 0.758635472315,
			"-0.009": 4.38499419609,
			"-0.008": 6.47234129449,
			"-0.007": 7.11313348495,
			"-0.006": 10.2070205697,
			"-0.005": 12.5024506985,
			"-0.004": 15.7192221453,
			"-0.003": 19.257934102,
			"-0.002": 19.5359547902,
			"-0.001": 21.4748300599,
			"0.0": 16.6105050563,
			"0.001": 10.7796966337,
			"0.002": 9.58461664301,
			"0.003": 14.9991793653,
			"0.004": 8.16575320781,
			"0.005": 5.13285067272,
			"0.006": 4.98994352538,
			"0.007": 9.12841863723,
			"0.008": 6.68851903094,
			"0.009": 5.1486476051,
			"0.01": 2.41398352852,
			"0.011": 1.35465741958,
			"0.012": 3.59863330156,
			"0.013": 5.83686179656,
			"0.014": 1.36384886521,
			"0.015": 0.0,
			"0.016": 0.0,
			"0.017": 0.0,
			"0.018": 0.0,
			"0.019": 0.0,
			"0.02": 0.0,
			"0.021": 0.0,
			"0.022": 0.0,
			"0.023": 0.0,
			"0.024": 0.0,
			"0.025": 0.0
		}
	}
}
