{
	 "smiles": "NC(C(O)C1=CC=CC=C1)C(O)=O", 
	 "Tm": 459.15, 
	 "num_atms": 24, 
	 "gaussian": { 
		 "optdone": 1, 
		 "sigma_profile": "yes", 
		 "theory": "DFT", 
		 "functional": "B3LYP", 
		 "basiset": "6-31G**", 
		 "properties": { 
			 "R2extent": 2749.3151, 
			 "electric_dipole_moment_norm": 4.52408527108, 
			 "electric_quadrupole_moment_norm": 14.2711174391, 
			 "total_energy": -630.018824492, 
			 "HOMO_LUMO_gap": 0.23504, 
			 "cosmo_polarized_energy": -15.28, 
			 "cosmo_cavitation_energy": 26.96, 
			 "cosmo_dispersion_energy": -19.57, 
			 "cosmo_repulsion_energy": 1.56, 
			 "cosmo_total_nonelectrostatic_energy": 8.95, 
			 "SMD_solvation_energy": 5.13 
		},
		"coords": [
			{
				"x": 0.9009859957,
				"y": -0.5565067685,
				"z": -1.7728343568,
				"element": "N" 
			},
			{
				"x": -0.4962350919,
				"y": -0.9474544345,
				"z": -1.9916478337,
				"element": "C" 
			},
			{
				"x": -1.5677775769,
				"y": 0.0633105573,
				"z": -1.5244409922,
				"element": "C" 
			},
			{
				"x": -1.4101006738,
				"y": 1.1800973678,
				"z": -2.4001229719,
				"element": "O" 
			},
			{
				"x": -1.4348982585,
				"y": 0.4528850318,
				"z": -0.0587037078,
				"element": "C" 
			},
			{
				"x": -2.0340823728,
				"y": -0.3283862441,
				"z": 0.9412012904,
				"element": "C" 
			},
			{
				"x": -1.8937294958,
				"y": 0.0174464176,
				"z": 2.2848633073,
				"element": "C" 
			},
			{
				"x": -1.1571184452,
				"y": 1.1475359608,
				"z": 2.6499492691,
				"element": "C" 
			},
			{
				"x": -0.5608522316,
				"y": 1.9316108264,
				"z": 1.6622495895,
				"element": "C" 
			},
			{
				"x": -0.6983317753,
				"y": 1.5859967061,
				"z": 0.3153613425,
				"element": "C" 
			},
			{
				"x": -0.7292794752,
				"y": -2.3546373065,
				"z": -1.405528913,
				"element": "C" 
			},
			{
				"x": 0.4050480991,
				"y": -3.0323812952,
				"z": -1.1994983504,
				"element": "O" 
			},
			{
				"x": -1.8291343583,
				"y": -2.8170169268,
				"z": -1.1956908609,
				"element": "O" 
			},
			{
				"x": 1.1913016098,
				"y": 0.1195966178,
				"z": -2.4724435314,
				"element": "H" 
			},
			{
				"x": 0.9968506561,
				"y": -0.102810765,
				"z": -0.8651202062,
				"element": "H" 
			},
			{
				"x": -0.6389914985,
				"y": -1.0530818843,
				"z": -3.0746259261,
				"element": "H" 
			},
			{
				"x": -2.539629654,
				"y": -0.4228235944,
				"z": -1.6781030742,
				"element": "H" 
			},
			{
				"x": -2.0653926448,
				"y": 1.8445004917,
				"z": -2.1491191248,
				"element": "H" 
			},
			{
				"x": -2.6003743094,
				"y": -1.2106183297,
				"z": 0.6589070676,
				"element": "H" 
			},
			{
				"x": -2.3646452984,
				"y": -0.5946887693,
				"z": 3.0487164813,
				"element": "H" 
			},
			{
				"x": -1.0533920298,
				"y": 1.4164163795,
				"z": 3.6972194506,
				"element": "H" 
			},
			{
				"x": 0.0087980559,
				"y": 2.815089309,
				"z": 1.9369457369,
				"element": "H" 
			},
			{
				"x": -0.2512304482,
				"y": 2.2038974459,
				"z": -0.4575700323,
				"element": "H" 
			},
			{
				"x": 1.1221112218,
				"y": -2.3926767933,
				"z": -1.4311636535,
				"element": "H" 
			}
		],
		 "valence_orbital": [ 
			{
				"type": "occ",
				"energy": -0.29523,
				"method": "rhf"
			},
			{
				"type": "occ",
				"energy": -0.28989,
				"method": "rhf"
			},
			{
				"type": "occ",
				"energy": -0.25868,
				"method": "rhf"
			},
			{
				"type": "occ",
				"energy": -0.25763,
				"method": "rhf"
			},
			{
				"type": "occ",
				"energy": -0.24875,
				"method": "rhf"
			},
			{
				"type": "unocc",
				"energy": -0.01371,
				"method": "rhf"
			},
			{
				"type": "unocc",
				"energy": -0.01159,
				"method": "rhf"
			},
			{
				"type": "unocc",
				"energy": 0.01402,
				"method": "rhf"
			},
			{
				"type": "unocc",
				"energy": 0.06389,
				"method": "rhf"
			},
			{
				"type": "unocc",
				"energy": 0.09187,
				"method": "rhf"
			}
		],
		"cosmo_sigma_profile": { 
			"-0.025": 0.0,
			"-0.024": 0.0,
			"-0.023": 0.0,
			"-0.022": 0.0,
			"-0.021": 0.0,
			"-0.02": 0.0,
			"-0.019": 0.0,
			"-0.018": 0.0,
			"-0.017": 0.0,
			"-0.016": 0.277132505686,
			"-0.015": 1.17632240845,
			"-0.014": 0.462203861983,
			"-0.013": 1.13175432631,
			"-0.012": 1.29105821631,
			"-0.011": 2.26880818837,
			"-0.01": 1.88425017855,
			"-0.009": 3.26816306135,
			"-0.008": 7.57459737889,
			"-0.007": 6.8419068167,
			"-0.006": 10.1987042169,
			"-0.005": 14.241654745,
			"-0.004": 17.69916365,
			"-0.003": 17.7576504847,
			"-0.002": 10.0906704913,
			"-0.001": 10.8330590065,
			"0.0": 11.5236899863,
			"0.001": 11.7967158246,
			"0.002": 10.7248817511,
			"0.003": 10.45132129,
			"0.004": 10.9388188461,
			"0.005": 10.983553867,
			"0.006": 7.70309549371,
			"0.007": 4.05975188174,
			"0.008": 4.03087192408,
			"0.009": 3.65898836564,
			"0.01": 5.9801923925,
			"0.011": 5.46713456023,
			"0.012": 5.40402885067,
			"0.013": 2.52775301019,
			"0.014": 0.388280403155,
			"0.015": 0.0,
			"0.016": 0.0,
			"0.017": 0.0,
			"0.018": 0.0,
			"0.019": 0.0,
			"0.02": 0.0,
			"0.021": 0.0,
			"0.022": 0.0,
			"0.023": 0.0,
			"0.024": 0.0,
			"0.025": 0.0
		}
	}
}
