{
	 "smiles": "O=CC1=CC=C(S1)N1CCNCC1", 
	 "Tm": 334.15, 
	 "num_atms": 25, 
	 "gaussian": { 
		 "optdone": 1, 
		 "sigma_profile": "yes", 
		 "theory": "DFT", 
		 "functional": "B3LYP", 
		 "basiset": "6-31G**", 
		 "properties": { 
			 "R2extent": 4393.0679, 
			 "electric_dipole_moment_norm": 6.61477774986, 
			 "electric_quadrupole_moment_norm": 29.3245297558, 
			 "total_energy": -933.065927592, 
			 "HOMO_LUMO_gap": 0.14848, 
			 "cosmo_polarized_energy": -14.16, 
			 "cosmo_cavitation_energy": 28.76, 
			 "cosmo_dispersion_energy": -21.65, 
			 "cosmo_repulsion_energy": 1.65, 
			 "cosmo_total_nonelectrostatic_energy": 8.77, 
			 "SMD_solvation_energy": 2.1 
		},
		"coords": [
			{
				"x": 4.6916046021,
				"y": -4.2946024449,
				"z": -1.3879425356,
				"element": "O" 
			},
			{
				"x": 3.530495613,
				"y": -3.9801959554,
				"z": -1.614575689,
				"element": "C" 
			},
			{
				"x": 2.9596878055,
				"y": -2.6910758557,
				"z": -1.2790182327,
				"element": "C" 
			},
			{
				"x": 3.5782075228,
				"y": -1.6234596109,
				"z": -0.6639836933,
				"element": "C" 
			},
			{
				"x": 2.7477346681,
				"y": -0.5052351468,
				"z": -0.4571580329,
				"element": "C" 
			},
			{
				"x": 1.4489771161,
				"y": -0.6937774461,
				"z": -0.9289913399,
				"element": "C" 
			},
			{
				"x": 1.2723063453,
				"y": -2.2994984108,
				"z": -1.6244951872,
				"element": "S" 
			},
			{
				"x": 0.409128825,
				"y": 0.2026608013,
				"z": -0.9568035265,
				"element": "N" 
			},
			{
				"x": 0.4804369555,
				"y": 1.4433477945,
				"z": -0.1768729952,
				"element": "C" 
			},
			{
				"x": -0.2268165793,
				"y": 1.272093943,
				"z": 1.1731265923,
				"element": "C" 
			},
			{
				"x": -1.6118024297,
				"y": 0.867100723,
				"z": 0.9228967687,
				"element": "N" 
			},
			{
				"x": -1.6881483555,
				"y": -0.4006524978,
				"z": 0.1936561477,
				"element": "C" 
			},
			{
				"x": -0.9775615068,
				"y": -0.2314717677,
				"z": -1.1555183628,
				"element": "C" 
			},
			{
				"x": 2.8330834213,
				"y": -4.6949533889,
				"z": -2.1064836265,
				"element": "H" 
			},
			{
				"x": 4.6200174806,
				"y": -1.6739696012,
				"z": -0.368613554,
				"element": "H" 
			},
			{
				"x": 3.0880417314,
				"y": 0.4041280076,
				"z": 0.0197384992,
				"element": "H" 
			},
			{
				"x": 1.5192701238,
				"y": 1.7463812907,
				"z": -0.0491439532,
				"element": "H" 
			},
			{
				"x": -0.0301554338,
				"y": 2.2255676219,
				"z": -0.7508599988,
				"element": "H" 
			},
			{
				"x": -0.2268532859,
				"y": 2.2257359175,
				"z": 1.7124145258,
				"element": "H" 
			},
			{
				"x": 0.3400661155,
				"y": 0.5399468233,
				"z": 1.7776911729,
				"element": "H" 
			},
			{
				"x": -2.1202942971,
				"y": 0.7977124045,
				"z": 1.7991725968,
				"element": "H" 
			},
			{
				"x": -1.2203103549,
				"y": -1.2444054705,
				"z": 0.733918687,
				"element": "H" 
			},
			{
				"x": -2.7410877442,
				"y": -0.6518755149,
				"z": 0.0253541389,
				"element": "H" 
			},
			{
				"x": -1.0014030927,
				"y": -1.157286032,
				"z": -1.7333090315,
				"element": "H" 
			},
			{
				"x": -1.4916252462,
				"y": 0.5418838163,
				"z": -1.7380993701,
				"element": "H" 
			}
		],
		 "valence_orbital": [ 
			{
				"type": "occ",
				"energy": -0.29078,
				"method": "rhf"
			},
			{
				"type": "occ",
				"energy": -0.25795,
				"method": "rhf"
			},
			{
				"type": "occ",
				"energy": -0.24367,
				"method": "rhf"
			},
			{
				"type": "occ",
				"energy": -0.23486,
				"method": "rhf"
			},
			{
				"type": "occ",
				"energy": -0.19291,
				"method": "rhf"
			},
			{
				"type": "unocc",
				"energy": -0.04443,
				"method": "rhf"
			},
			{
				"type": "unocc",
				"energy": 0.01446,
				"method": "rhf"
			},
			{
				"type": "unocc",
				"energy": 0.03743,
				"method": "rhf"
			},
			{
				"type": "unocc",
				"energy": 0.06574,
				"method": "rhf"
			},
			{
				"type": "unocc",
				"energy": 0.083,
				"method": "rhf"
			}
		],
		"cosmo_sigma_profile": { 
			"-0.025": 0.0,
			"-0.024": 0.0,
			"-0.023": 0.0,
			"-0.022": 0.0,
			"-0.021": 0.0,
			"-0.02": 0.0,
			"-0.019": 0.0,
			"-0.018": 0.0,
			"-0.017": 0.0,
			"-0.016": 0.0,
			"-0.015": 0.0,
			"-0.014": 0.0,
			"-0.013": 0.0,
			"-0.012": 0.0,
			"-0.011": 0.49998580419,
			"-0.01": 1.42328047799,
			"-0.009": 2.16961121583,
			"-0.008": 2.73053679736,
			"-0.007": 5.24334926786,
			"-0.006": 9.36318609504,
			"-0.005": 18.7999615478,
			"-0.004": 25.8757751216,
			"-0.003": 22.0723731122,
			"-0.002": 26.9403004489,
			"-0.001": 16.6227631297,
			"0.0": 9.89088070196,
			"0.001": 8.74303426054,
			"0.002": 12.5248483413,
			"0.003": 13.7812354132,
			"0.004": 15.1580306168,
			"0.005": 8.91670172694,
			"0.006": 3.09738383213,
			"0.007": 2.01365272087,
			"0.008": 2.20946471405,
			"0.009": 1.76644668132,
			"0.01": 3.01177100747,
			"0.011": 2.67047694763,
			"0.012": 3.39006402194,
			"0.013": 5.90143435345,
			"0.014": 2.498860921,
			"0.015": 0.913558373041,
			"0.016": 0.341782050452,
			"0.017": 0.372808159694,
			"0.018": 0.0489999197113,
			"0.019": 0.0,
			"0.02": 0.0,
			"0.021": 0.0,
			"0.022": 0.0,
			"0.023": 0.0,
			"0.024": 0.0,
			"0.025": 0.0
		}
	}
}
