{
	 "smiles": "CC1=CC(Cl)=C(C)C=C1SC1=CC=C(C=C1[N+]([O-])=O)C(O)=O", 
	 "Tm": 519.15, 
	 "num_atms": 34, 
	 "gaussian": { 
		 "optdone": 1, 
		 "sigma_profile": "yes", 
		 "theory": "DFT", 
		 "functional": "B3LYP", 
		 "basiset": "6-31G**", 
		 "properties": { 
			 "R2extent": 11529.494, 
			 "electric_dipole_moment_norm": 3.31547249875, 
			 "electric_quadrupole_moment_norm": 31.5025646992, 
			 "total_energy": -1792.77188473, 
			 "HOMO_LUMO_gap": 0.14545, 
			 "cosmo_polarized_energy": -19.01, 
			 "cosmo_cavitation_energy": 42.33, 
			 "cosmo_dispersion_energy": -30.14, 
			 "cosmo_repulsion_energy": 2.26, 
			 "cosmo_total_nonelectrostatic_energy": 14.46, 
			 "SMD_solvation_energy": 9.93 
		},
		"coords": [
			{
				"x": -0.5480908552,
				"y": -1.9044373506,
				"z": 0.8413409724,
				"element": "C" 
			},
			{
				"x": -0.1275217001,
				"y": -0.5154667469,
				"z": 1.2542545329,
				"element": "C" 
			},
			{
				"x": 0.1251095072,
				"y": -0.2318086908,
				"z": 2.600414556,
				"element": "C" 
			},
			{
				"x": 0.5102666725,
				"y": 1.0440329092,
				"z": 3.0096310139,
				"element": "C" 
			},
			{
				"x": 0.8008678169,
				"y": 1.3080230749,
				"z": 4.7236900517,
				"element": "Cl" 
			},
			{
				"x": 0.6652406934,
				"y": 2.1055550127,
				"z": 2.1076056463,
				"element": "C" 
			},
			{
				"x": 1.0735754057,
				"y": 3.4888646181,
				"z": 2.5418710985,
				"element": "C" 
			},
			{
				"x": 0.415568701,
				"y": 1.8116358804,
				"z": 0.7617855987,
				"element": "C" 
			},
			{
				"x": 0.0347418183,
				"y": 0.5365386004,
				"z": 0.3285448592,
				"element": "C" 
			},
			{
				"x": -0.4037287722,
				"y": 0.3406324916,
				"z": -1.4075509823,
				"element": "S" 
			},
			{
				"x": 1.0640974696,
				"y": -0.3865655714,
				"z": -2.1020286943,
				"element": "C" 
			},
			{
				"x": 2.2268298228,
				"y": -0.5857534857,
				"z": -1.3263328597,
				"element": "C" 
			},
			{
				"x": 3.3722288304,
				"y": -1.1531345296,
				"z": -1.8570605952,
				"element": "C" 
			},
			{
				"x": 3.422057745,
				"y": -1.5719747272,
				"z": -3.1977653267,
				"element": "C" 
			},
			{
				"x": 2.2977512682,
				"y": -1.370907564,
				"z": -3.9895509869,
				"element": "C" 
			},
			{
				"x": 1.1440518338,
				"y": -0.7917009338,
				"z": -3.4550732585,
				"element": "C" 
			},
			{
				"x": 0.0240600764,
				"y": -0.6200394162,
				"z": -4.38013784,
				"element": "N" 
			},
			{
				"x": 0.1435037506,
				"y": -1.0492601246,
				"z": -5.5285740804,
				"element": "O" 
			},
			{
				"x": -0.9850895189,
				"y": -0.0523048543,
				"z": -3.9547429152,
				"element": "O" 
			},
			{
				"x": 4.7035572869,
				"y": -2.1656090798,
				"z": -3.7004899464,
				"element": "C" 
			},
			{
				"x": 4.6616756557,
				"y": -2.8314549167,
				"z": -4.8814204666,
				"element": "O" 
			},
			{
				"x": 5.745388595,
				"y": -2.0674428228,
				"z": -3.0955195221,
				"element": "O" 
			},
			{
				"x": 0.1927806628,
				"y": -2.3658239927,
				"z": 0.1790353489,
				"element": "H" 
			},
			{
				"x": -1.4958757216,
				"y": -1.8867540827,
				"z": 0.2945125886,
				"element": "H" 
			},
			{
				"x": -0.6661337292,
				"y": -2.5503959931,
				"z": 1.7145061881,
				"element": "H" 
			},
			{
				"x": 0.0144967707,
				"y": -1.0131840005,
				"z": 3.3448953843,
				"element": "H" 
			},
			{
				"x": 2.0481577078,
				"y": 3.4776640432,
				"z": 3.0412672991,
				"element": "H" 
			},
			{
				"x": 1.1355461599,
				"y": 4.1612841153,
				"z": 1.6830896805,
				"element": "H" 
			},
			{
				"x": 0.3567716428,
				"y": 3.9082553114,
				"z": 3.2557222377,
				"element": "H" 
			},
			{
				"x": 0.5184157476,
				"y": 2.6045090425,
				"z": 0.0267769206,
				"element": "H" 
			},
			{
				"x": 2.2220501029,
				"y": -0.2763176556,
				"z": -0.2888601929,
				"element": "H" 
			},
			{
				"x": 4.2581771204,
				"y": -1.2823885256,
				"z": -1.2445924579,
				"element": "H" 
			},
			{
				"x": 2.2638776308,
				"y": -1.6183189263,
				"z": -5.0446097027,
				"element": "H" 
			},
			{
				"x": 3.7501938023,
				"y": -2.9564511089,
				"z": -5.1791341498,
				"element": "H" 
			}
		],
		 "valence_orbital": [ 
			{
				"type": "occ",
				"energy": -0.29892,
				"method": "rhf"
			},
			{
				"type": "occ",
				"energy": -0.28619,
				"method": "rhf"
			},
			{
				"type": "occ",
				"energy": -0.27166,
				"method": "rhf"
			},
			{
				"type": "occ",
				"energy": -0.26001,
				"method": "rhf"
			},
			{
				"type": "occ",
				"energy": -0.24944,
				"method": "rhf"
			},
			{
				"type": "unocc",
				"energy": -0.10399,
				"method": "rhf"
			},
			{
				"type": "unocc",
				"energy": -0.0704,
				"method": "rhf"
			},
			{
				"type": "unocc",
				"energy": -0.04744,
				"method": "rhf"
			},
			{
				"type": "unocc",
				"energy": -0.02937,
				"method": "rhf"
			},
			{
				"type": "unocc",
				"energy": -0.0206,
				"method": "rhf"
			}
		],
		"cosmo_sigma_profile": { 
			"-0.025": 0.0,
			"-0.024": 0.0,
			"-0.023": 0.0,
			"-0.022": 0.0,
			"-0.021": 0.0,
			"-0.02": 0.295980285715,
			"-0.019": 1.22952197909,
			"-0.018": 1.04791765891,
			"-0.017": 0.840566744749,
			"-0.016": 1.03283308915,
			"-0.015": 0.728277143171,
			"-0.014": 0.907540855942,
			"-0.013": 1.26483264571,
			"-0.012": 0.992763157473,
			"-0.011": 1.40622449304,
			"-0.01": 0.627798418761,
			"-0.009": 1.16695624036,
			"-0.008": 2.23837966254,
			"-0.007": 9.43990943153,
			"-0.006": 11.481969197,
			"-0.005": 16.0960209248,
			"-0.004": 21.6511912004,
			"-0.003": 27.3003806109,
			"-0.002": 33.6300371069,
			"-0.001": 40.0864175623,
			"0.0": 31.9115234786,
			"0.001": 22.984815245,
			"0.002": 21.1081685876,
			"0.003": 15.8887783757,
			"0.004": 14.3268637471,
			"0.005": 9.9240383525,
			"0.006": 8.51491983014,
			"0.007": 11.9132418463,
			"0.008": 9.30621446939,
			"0.009": 7.76362201583,
			"0.01": 6.28939455319,
			"0.011": 5.44132248767,
			"0.012": 3.02789637822,
			"0.013": 0.781004079292,
			"0.014": 0.0,
			"0.015": 0.0,
			"0.016": 0.0,
			"0.017": 0.0,
			"0.018": 0.0,
			"0.019": 0.0,
			"0.02": 0.0,
			"0.021": 0.0,
			"0.022": 0.0,
			"0.023": 0.0,
			"0.024": 0.0,
			"0.025": 0.0
		}
	}
}
