{
	 "smiles": "CC1=CC=C(NC2=NC(CCl)=NC(N)=N2)C=C1", 
	 "Tm": 432.15, 
	 "num_atms": 29, 
	 "gaussian": { 
		 "optdone": 1, 
		 "sigma_profile": "yes", 
		 "theory": "DFT", 
		 "functional": "B3LYP", 
		 "basiset": "6-31G**", 
		 "properties": { 
			 "R2extent": 6381.2898, 
			 "electric_dipole_moment_norm": 3.30862474905, 
			 "electric_quadrupole_moment_norm": 18.8294709015, 
			 "total_energy": -1160.40497368, 
			 "HOMO_LUMO_gap": 0.16397, 
			 "cosmo_polarized_energy": -14.64, 
			 "cosmo_cavitation_energy": 35.55, 
			 "cosmo_dispersion_energy": -25.99, 
			 "cosmo_repulsion_energy": 2.05, 
			 "cosmo_total_nonelectrostatic_energy": 11.62, 
			 "SMD_solvation_energy": 1.98 
		},
		"coords": [
			{
				"x": -1.4095323515,
				"y": -1.1546076393,
				"z": -5.33449696,
				"element": "C" 
			},
			{
				"x": -1.528420284,
				"y": -0.8165346274,
				"z": -3.867225916,
				"element": "C" 
			},
			{
				"x": -0.50304718,
				"y": -0.1486028175,
				"z": -3.1875513433,
				"element": "C" 
			},
			{
				"x": -0.5776822449,
				"y": 0.1468908032,
				"z": -1.82685675,
				"element": "C" 
			},
			{
				"x": -1.7168405013,
				"y": -0.2290860107,
				"z": -1.1002261422,
				"element": "C" 
			},
			{
				"x": -1.9036714419,
				"y": 0.0099821371,
				"z": 0.2759374006,
				"element": "N" 
			},
			{
				"x": -1.1570421217,
				"y": 0.6679110457,
				"z": 1.2077781181,
				"element": "C" 
			},
			{
				"x": -0.0017043935,
				"y": 1.2663424706,
				"z": 0.8601428101,
				"element": "N" 
			},
			{
				"x": 0.6245576495,
				"y": 1.8714225791,
				"z": 1.8747248235,
				"element": "C" 
			},
			{
				"x": 1.9323160629,
				"y": 2.5481138846,
				"z": 1.5515004147,
				"element": "C" 
			},
			{
				"x": 3.3046855308,
				"y": 1.353818102,
				"z": 1.5968038,
				"element": "Cl" 
			},
			{
				"x": 0.2144001723,
				"y": 1.9433525551,
				"z": 3.1371217559,
				"element": "N" 
			},
			{
				"x": -0.9628101105,
				"y": 1.3078412755,
				"z": 3.3635004494,
				"element": "C" 
			},
			{
				"x": -1.4443392359,
				"y": 1.3627590778,
				"z": 4.6277594288,
				"element": "N" 
			},
			{
				"x": -1.685132678,
				"y": 0.6547546975,
				"z": 2.4481777307,
				"element": "N" 
			},
			{
				"x": -2.7562065675,
				"y": -0.8968988252,
				"z": -1.7685329565,
				"element": "C" 
			},
			{
				"x": -2.6594773844,
				"y": -1.1825428174,
				"z": -3.1260397481,
				"element": "C" 
			},
			{
				"x": -0.9474003712,
				"y": -2.1390858306,
				"z": -5.4829431725,
				"element": "H" 
			},
			{
				"x": -0.7905440488,
				"y": -0.4240727578,
				"z": -5.8643470449,
				"element": "H" 
			},
			{
				"x": -2.389788283,
				"y": -1.1811141381,
				"z": -5.8207266291,
				"element": "H" 
			},
			{
				"x": 0.3874802337,
				"y": 0.1533434344,
				"z": -3.7339106578,
				"element": "H" 
			},
			{
				"x": 0.2270878951,
				"y": 0.6646920971,
				"z": -1.3254933512,
				"element": "H" 
			},
			{
				"x": -2.7497808595,
				"y": -0.3716344373,
				"z": 0.6769428112,
				"element": "H" 
			},
			{
				"x": 1.9146138408,
				"y": 2.9595730728,
				"z": 0.543385557,
				"element": "H" 
			},
			{
				"x": 2.1582272428,
				"y": 3.312345601,
				"z": 2.2925808747,
				"element": "H" 
			},
			{
				"x": -0.8478895467,
				"y": 1.7323083732,
				"z": 5.3495377476,
				"element": "H" 
			},
			{
				"x": -2.2440552238,
				"y": 0.8008517523,
				"z": 4.8680439996,
				"element": "H" 
			},
			{
				"x": -3.6486223328,
				"y": -1.1889521388,
				"z": -1.2189658301,
				"element": "H" 
			},
			{
				"x": -3.4812814671,
				"y": -1.697870919,
				"z": -3.6172212199,
				"element": "H" 
			}
		],
		 "valence_orbital": [ 
			{
				"type": "occ",
				"energy": -0.26764,
				"method": "rhf"
			},
			{
				"type": "occ",
				"energy": -0.26509,
				"method": "rhf"
			},
			{
				"type": "occ",
				"energy": -0.25378,
				"method": "rhf"
			},
			{
				"type": "occ",
				"energy": -0.24673,
				"method": "rhf"
			},
			{
				"type": "occ",
				"energy": -0.20681,
				"method": "rhf"
			},
			{
				"type": "unocc",
				"energy": -0.04284,
				"method": "rhf"
			},
			{
				"type": "unocc",
				"energy": -0.01491,
				"method": "rhf"
			},
			{
				"type": "unocc",
				"energy": 0.00196,
				"method": "rhf"
			},
			{
				"type": "unocc",
				"energy": 0.0301,
				"method": "rhf"
			},
			{
				"type": "unocc",
				"energy": 0.04876,
				"method": "rhf"
			}
		],
		"cosmo_sigma_profile": { 
			"-0.025": 0.0,
			"-0.024": 0.0,
			"-0.023": 0.0,
			"-0.022": 0.0,
			"-0.021": 0.0,
			"-0.02": 0.0,
			"-0.019": 0.0,
			"-0.018": 0.0,
			"-0.017": 0.0,
			"-0.016": 0.0,
			"-0.015": 0.491974023516,
			"-0.014": 3.13443898293,
			"-0.013": 2.51214788917,
			"-0.012": 3.06293623547,
			"-0.011": 3.7479047748,
			"-0.01": 2.75152238113,
			"-0.009": 2.87977081831,
			"-0.008": 5.14984078478,
			"-0.007": 6.3780410918,
			"-0.006": 6.72166081716,
			"-0.005": 12.1223450686,
			"-0.004": 17.9119424889,
			"-0.003": 19.4421427601,
			"-0.002": 16.7565844639,
			"-0.001": 19.2954433498,
			"0.0": 24.2173993235,
			"0.001": 21.2726453325,
			"0.002": 18.029252783,
			"0.003": 19.3938178353,
			"0.004": 20.0787522848,
			"0.005": 21.5392052087,
			"0.006": 22.4680739666,
			"0.007": 5.9303906514,
			"0.008": 2.61057249798,
			"0.009": 2.21154260619,
			"0.01": 1.72940820316,
			"0.011": 1.60496772434,
			"0.012": 1.27247006837,
			"0.013": 0.757656459353,
			"0.014": 0.0817629323181,
			"0.015": 0.0,
			"0.016": 0.0,
			"0.017": 0.0,
			"0.018": 0.0,
			"0.019": 0.0,
			"0.02": 0.0,
			"0.021": 0.0,
			"0.022": 0.0,
			"0.023": 0.0,
			"0.024": 0.0,
			"0.025": 0.0
		}
	}
}
