{
	 "smiles": "CC1=CC=C(C=C1)S(=O)(=O)OC1=CC=CC(N)=C1", 
	 "Tm": 378.0, 
	 "num_atms": 31, 
	 "gaussian": { 
		 "optdone": 1, 
		 "sigma_profile": "yes", 
		 "theory": "DFT", 
		 "functional": "B3LYP", 
		 "basiset": "6-31G**", 
		 "properties": { 
			 "R2extent": 6388.7456, 
			 "electric_dipole_moment_norm": 5.32684436979, 
			 "electric_quadrupole_moment_norm": 21.537530991, 
			 "total_energy": -1181.76583627, 
			 "HOMO_LUMO_gap": 0.16622, 
			 "cosmo_polarized_energy": -17.01, 
			 "cosmo_cavitation_energy": 36.77, 
			 "cosmo_dispersion_energy": -26.03, 
			 "cosmo_repulsion_energy": 2.0, 
			 "cosmo_total_nonelectrostatic_energy": 12.74, 
			 "SMD_solvation_energy": 5.28 
		},
		"coords": [
			{
				"x": -1.4112685113,
				"y": -4.3792232939,
				"z": 0.6081418079,
				"element": "C" 
			},
			{
				"x": -0.9309845927,
				"y": -2.9639712471,
				"z": 0.3962885507,
				"element": "C" 
			},
			{
				"x": -0.5683270884,
				"y": -2.1572655737,
				"z": 1.4836449269,
				"element": "C" 
			},
			{
				"x": -0.1469651937,
				"y": -0.8415929393,
				"z": 1.2981371731,
				"element": "C" 
			},
			{
				"x": -0.0873240341,
				"y": -0.3300860577,
				"z": 0.0011874004,
				"element": "C" 
			},
			{
				"x": -0.4361607653,
				"y": -1.1104024466,
				"z": -1.104065276,
				"element": "C" 
			},
			{
				"x": -0.8534925277,
				"y": -2.4218498812,
				"z": -0.8964155832,
				"element": "C" 
			},
			{
				"x": 0.4421538442,
				"y": 1.352244406,
				"z": -0.2579270982,
				"element": "S" 
			},
			{
				"x": 1.1942964423,
				"y": 1.7944965378,
				"z": 0.9132112181,
				"element": "O" 
			},
			{
				"x": 0.964178584,
				"y": 1.4966001546,
				"z": -1.6086246649,
				"element": "O" 
			},
			{
				"x": -0.9986587572,
				"y": 2.1894858411,
				"z": -0.3271659652,
				"element": "O" 
			},
			{
				"x": -1.7619824776,
				"y": 2.3765243471,
				"z": 0.8338190408,
				"element": "C" 
			},
			{
				"x": -2.9958242434,
				"y": 1.7310459909,
				"z": 0.9046379633,
				"element": "C" 
			},
			{
				"x": -3.8026876636,
				"y": 1.9838752129,
				"z": 2.015237893,
				"element": "C" 
			},
			{
				"x": -3.3843768169,
				"y": 2.8440015799,
				"z": 3.0269744743,
				"element": "C" 
			},
			{
				"x": -2.1342456743,
				"y": 3.485428542,
				"z": 2.9456428888,
				"element": "C" 
			},
			{
				"x": -1.6862226545,
				"y": 4.3039496415,
				"z": 3.9800905379,
				"element": "N" 
			},
			{
				"x": -1.3211689231,
				"y": 3.2486484969,
				"z": 1.8244960335,
				"element": "C" 
			},
			{
				"x": -2.5074143174,
				"y": -4.4207374491,
				"z": 0.6274572478,
				"element": "H" 
			},
			{
				"x": -1.0765015578,
				"y": -5.039899886,
				"z": -0.1971405322,
				"element": "H" 
			},
			{
				"x": -1.0515698764,
				"y": -4.7869719541,
				"z": 1.5567530706,
				"element": "H" 
			},
			{
				"x": -0.6103026974,
				"y": -2.5649669662,
				"z": 2.4899381178,
				"element": "H" 
			},
			{
				"x": 0.1477329606,
				"y": -0.2234493982,
				"z": 2.1385265694,
				"element": "H" 
			},
			{
				"x": -0.3605276649,
				"y": -0.6968830986,
				"z": -2.1037827446,
				"element": "H" 
			},
			{
				"x": -1.1163511506,
				"y": -3.0385729318,
				"z": -1.7517530128,
				"element": "H" 
			},
			{
				"x": -3.3060144098,
				"y": 1.069144765,
				"z": 0.1047977792,
				"element": "H" 
			},
			{
				"x": -4.7733164537,
				"y": 1.5025984315,
				"z": 2.0931581637,
				"element": "H" 
			},
			{
				"x": -4.0222227647,
				"y": 3.0239003916,
				"z": 3.8884196024,
				"element": "H" 
			},
			{
				"x": -0.9583531647,
				"y": 4.9595696844,
				"z": 3.7328943983,
				"element": "H" 
			},
			{
				"x": -2.4087803965,
				"y": 4.7273985351,
				"z": 4.5450543959,
				"element": "H" 
			},
			{
				"x": -0.3525174533,
				"y": 3.7246605654,
				"z": 1.7254656235,
				"element": "H" 
			}
		],
		 "valence_orbital": [ 
			{
				"type": "occ",
				"energy": -0.3007,
				"method": "rhf"
			},
			{
				"type": "occ",
				"energy": -0.27057,
				"method": "rhf"
			},
			{
				"type": "occ",
				"energy": -0.26435,
				"method": "rhf"
			},
			{
				"type": "occ",
				"energy": -0.24551,
				"method": "rhf"
			},
			{
				"type": "occ",
				"energy": -0.20801,
				"method": "rhf"
			},
			{
				"type": "unocc",
				"energy": -0.04179,
				"method": "rhf"
			},
			{
				"type": "unocc",
				"energy": -0.02152,
				"method": "rhf"
			},
			{
				"type": "unocc",
				"energy": -0.00595,
				"method": "rhf"
			},
			{
				"type": "unocc",
				"energy": 0.01099,
				"method": "rhf"
			},
			{
				"type": "unocc",
				"energy": 0.05399,
				"method": "rhf"
			}
		],
		"cosmo_sigma_profile": { 
			"-0.025": 0.0,
			"-0.024": 0.0,
			"-0.023": 0.0,
			"-0.022": 0.0,
			"-0.021": 0.0,
			"-0.02": 0.0,
			"-0.019": 0.0,
			"-0.018": 0.0,
			"-0.017": 0.0,
			"-0.016": 0.0,
			"-0.015": 0.0,
			"-0.014": 0.0,
			"-0.013": 0.797420806168,
			"-0.012": 3.10055792272,
			"-0.011": 2.69270330185,
			"-0.01": 3.77309964433,
			"-0.009": 2.66551450747,
			"-0.008": 3.5838410425,
			"-0.007": 8.31728536065,
			"-0.006": 15.6653251814,
			"-0.005": 20.5927037524,
			"-0.004": 19.5361928627,
			"-0.003": 19.7422170175,
			"-0.002": 18.4588293798,
			"-0.001": 22.3195565326,
			"0.0": 21.688143349,
			"0.001": 16.8453014543,
			"0.002": 20.1528327604,
			"0.003": 22.1511448564,
			"0.004": 14.3476269636,
			"0.005": 13.8327593461,
			"0.006": 7.86525249196,
			"0.007": 5.63734010181,
			"0.008": 5.57452220475,
			"0.009": 9.83242968599,
			"0.01": 9.8653163309,
			"0.011": 2.37858494063,
			"0.012": 0.644569535985,
			"0.013": 0.65335994082,
			"0.014": 0.479597332184,
			"0.015": 0.0,
			"0.016": 0.0,
			"0.017": 0.0,
			"0.018": 0.0,
			"0.019": 0.0,
			"0.02": 0.0,
			"0.021": 0.0,
			"0.022": 0.0,
			"0.023": 0.0,
			"0.024": 0.0,
			"0.025": 0.0
		}
	}
}
