{
	 "smiles": "COC1=C(C=C(O)C(N)=C1)[N+]([O-])=O", 
	 "Tm": 423.15, 
	 "num_atms": 21, 
	 "gaussian": { 
		 "optdone": 1, 
		 "sigma_profile": "yes", 
		 "theory": "DFT", 
		 "functional": "B3LYP", 
		 "basiset": "6-31G**", 
		 "properties": { 
			 "R2extent": 2629.1423, 
			 "electric_dipole_moment_norm": 7.04380694582, 
			 "electric_quadrupole_moment_norm": 18.2506358103, 
			 "total_energy": -681.842881155, 
			 "HOMO_LUMO_gap": 0.14674, 
			 "cosmo_polarized_energy": -21.95, 
			 "cosmo_cavitation_energy": 25.75, 
			 "cosmo_dispersion_energy": -19.28, 
			 "cosmo_repulsion_energy": 1.54, 
			 "cosmo_total_nonelectrostatic_energy": 8.02, 
			 "SMD_solvation_energy": 7.75 
		},
		"coords": [
			{
				"x": 1.8319935845,
				"y": -0.6835964222,
				"z": -2.7754342568,
				"element": "C" 
			},
			{
				"x": 1.8333325136,
				"y": 0.0134046634,
				"z": -1.5381303579,
				"element": "O" 
			},
			{
				"x": 0.9374952042,
				"y": -0.3330773377,
				"z": -0.5882810986,
				"element": "C" 
			},
			{
				"x": 0.9224965665,
				"y": 0.3655765004,
				"z": 0.6440940754,
				"element": "C" 
			},
			{
				"x": -0.0070310436,
				"y": 0.0117641329,
				"z": 1.6371948018,
				"element": "C" 
			},
			{
				"x": -0.9129746461,
				"y": -1.0050479924,
				"z": 1.441655503,
				"element": "C" 
			},
			{
				"x": -1.8417491763,
				"y": -1.4100425766,
				"z": 2.3713522194,
				"element": "O" 
			},
			{
				"x": -0.9199465757,
				"y": -1.7188450501,
				"z": 0.2183605923,
				"element": "C" 
			},
			{
				"x": -1.8625081133,
				"y": -2.7020934513,
				"z": 0.0295477392,
				"element": "N" 
			},
			{
				"x": 0.007870559,
				"y": -1.3675853138,
				"z": -0.7697033145,
				"element": "C" 
			},
			{
				"x": 1.8309841046,
				"y": 1.4533196117,
				"z": 0.9655882141,
				"element": "N" 
			},
			{
				"x": 1.7028233935,
				"y": 1.9881737578,
				"z": 2.0777825593,
				"element": "O" 
			},
			{
				"x": 2.677307657,
				"y": 1.7957166874,
				"z": 0.1398737447,
				"element": "O" 
			},
			{
				"x": 2.6248862556,
				"y": -0.2254555615,
				"z": -3.3673840696,
				"element": "H" 
			},
			{
				"x": 2.0515763901,
				"y": -1.7502610331,
				"z": -2.6406099896,
				"element": "H" 
			},
			{
				"x": 0.8760210551,
				"y": -0.572748151,
				"z": -3.3024082456,
				"element": "H" 
			},
			{
				"x": 0.0239128283,
				"y": 0.5718990376,
				"z": 2.5648141463,
				"element": "H" 
			},
			{
				"x": -1.7449169346,
				"y": -0.8793356102,
				"z": 3.1719193749,
				"element": "H" 
			},
			{
				"x": -1.6885199905,
				"y": -3.3944318959,
				"z": -0.6820742105,
				"element": "H" 
			},
			{
				"x": -2.3288095731,
				"y": -3.0358528623,
				"z": 0.8599176431,
				"element": "H" 
			},
			{
				"x": -0.0105440587,
				"y": -1.916581133,
				"z": -1.7028750705,
				"element": "H" 
			}
		],
		 "valence_orbital": [ 
			{
				"type": "occ",
				"energy": -0.27899,
				"method": "rhf"
			},
			{
				"type": "occ",
				"energy": -0.27838,
				"method": "rhf"
			},
			{
				"type": "occ",
				"energy": -0.25699,
				"method": "rhf"
			},
			{
				"type": "occ",
				"energy": -0.24089,
				"method": "rhf"
			},
			{
				"type": "occ",
				"energy": -0.20797,
				"method": "rhf"
			},
			{
				"type": "unocc",
				"energy": -0.06123,
				"method": "rhf"
			},
			{
				"type": "unocc",
				"energy": 0.00247,
				"method": "rhf"
			},
			{
				"type": "unocc",
				"energy": 0.03094,
				"method": "rhf"
			},
			{
				"type": "unocc",
				"energy": 0.05213,
				"method": "rhf"
			},
			{
				"type": "unocc",
				"energy": 0.07592,
				"method": "rhf"
			}
		],
		"cosmo_sigma_profile": { 
			"-0.025": 0.0,
			"-0.024": 0.0,
			"-0.023": 0.0,
			"-0.022": 0.0,
			"-0.021": 0.0,
			"-0.02": 0.0,
			"-0.019": 0.125177106188,
			"-0.018": 0.960402627669,
			"-0.017": 1.39531044937,
			"-0.016": 0.931706355101,
			"-0.015": 1.14399157459,
			"-0.014": 1.78140530315,
			"-0.013": 2.98146888816,
			"-0.012": 3.09459295734,
			"-0.011": 3.73599766762,
			"-0.01": 3.96093669791,
			"-0.009": 3.70064838722,
			"-0.008": 3.47806238425,
			"-0.007": 5.43519835715,
			"-0.006": 10.669099018,
			"-0.005": 10.2166251097,
			"-0.004": 11.8901454859,
			"-0.003": 10.7927489102,
			"-0.002": 9.18331338445,
			"-0.001": 7.04170055698,
			"0.0": 8.88873527274,
			"0.001": 14.4073170357,
			"0.002": 18.0246306474,
			"0.003": 11.6670515344,
			"0.004": 5.31238212937,
			"0.005": 5.60006784187,
			"0.006": 5.90978679596,
			"0.007": 6.31469438088,
			"0.008": 5.62205472688,
			"0.009": 8.91422105716,
			"0.01": 8.73373348614,
			"0.011": 6.55565384709,
			"0.012": 4.02187724494,
			"0.013": 1.78884657975,
			"0.014": 0.279846660726,
			"0.015": 0.0,
			"0.016": 0.0,
			"0.017": 0.0,
			"0.018": 0.0,
			"0.019": 0.0,
			"0.02": 0.0,
			"0.021": 0.0,
			"0.022": 0.0,
			"0.023": 0.0,
			"0.024": 0.0,
			"0.025": 0.0
		}
	}
}
