{
	 "smiles": "OC(=O)C1=CC(Cl)=CC=C1N=NC1SC(=S)NC1=O", 
	 "Tm": 483.15, 
	 "num_atms": 25, 
	 "gaussian": { 
		 "optdone": 1, 
		 "sigma_profile": "yes", 
		 "theory": "DFT", 
		 "functional": "B3LYP", 
		 "basiset": "6-31G**", 
		 "properties": { 
			 "R2extent": 8673.6031, 
			 "electric_dipole_moment_norm": 5.33771487717, 
			 "electric_quadrupole_moment_norm": 11.0769353284, 
			 "total_energy": -2031.12878603, 
			 "HOMO_LUMO_gap": 0.13578, 
			 "cosmo_polarized_energy": -21.49, 
			 "cosmo_cavitation_energy": 36.31, 
			 "cosmo_dispersion_energy": -27.14, 
			 "cosmo_repulsion_energy": 2.0, 
			 "cosmo_total_nonelectrostatic_energy": 11.16, 
			 "SMD_solvation_energy": 3.72 
		},
		"coords": [
			{
				"x": -2.5057763007,
				"y": -1.7921264324,
				"z": -1.1312276768,
				"element": "O" 
			},
			{
				"x": -1.6604040102,
				"y": -2.7667603764,
				"z": -0.7780580257,
				"element": "C" 
			},
			{
				"x": -1.8007662939,
				"y": -3.9025100195,
				"z": -1.1739969908,
				"element": "O" 
			},
			{
				"x": -0.5335046049,
				"y": -2.413531621,
				"z": 0.1800157734,
				"element": "C" 
			},
			{
				"x": 0.1278018336,
				"y": -3.4981768875,
				"z": 0.7580735768,
				"element": "C" 
			},
			{
				"x": 1.1349948186,
				"y": -3.2880939263,
				"z": 1.6975250392,
				"element": "C" 
			},
			{
				"x": 1.9309720554,
				"y": -4.6615780388,
				"z": 2.4280539171,
				"element": "Cl" 
			},
			{
				"x": 1.5024085024,
				"y": -1.9970398166,
				"z": 2.0813740056,
				"element": "C" 
			},
			{
				"x": 0.8814311273,
				"y": -0.9045027252,
				"z": 1.4835644605,
				"element": "C" 
			},
			{
				"x": -0.111993315,
				"y": -1.1025740397,
				"z": 0.5094219318,
				"element": "C" 
			},
			{
				"x": -0.8570095444,
				"y": -0.0276800156,
				"z": -0.0570042242,
				"element": "N" 
			},
			{
				"x": -0.4090107089,
				"y": 1.0392377703,
				"z": -0.5235637279,
				"element": "N" 
			},
			{
				"x": 1.0595869581,
				"y": 1.2600117493,
				"z": -0.6671406575,
				"element": "C" 
			},
			{
				"x": 1.352873365,
				"y": 1.898103144,
				"z": -2.3626250441,
				"element": "S" 
			},
			{
				"x": 1.8213106208,
				"y": 3.5094488612,
				"z": -1.7906765193,
				"element": "C" 
			},
			{
				"x": 2.230974853,
				"y": 4.7668891084,
				"z": -2.7533130379,
				"element": "S" 
			},
			{
				"x": 1.8127003165,
				"y": 3.523775003,
				"z": -0.4092163723,
				"element": "N" 
			},
			{
				"x": 1.4833283691,
				"y": 2.3834127268,
				"z": 0.2941524009,
				"element": "C" 
			},
			{
				"x": 1.5028435062,
				"y": 2.2818694074,
				"z": 1.5027396861,
				"element": "O" 
			},
			{
				"x": -2.2372999242,
				"y": -0.9375714155,
				"z": -0.7184350041,
				"element": "H" 
			},
			{
				"x": -0.1745773585,
				"y": -4.4965870643,
				"z": 0.4649737211,
				"element": "H" 
			},
			{
				"x": 2.2603274935,
				"y": -1.847719665,
				"z": 2.8421745279,
				"element": "H" 
			},
			{
				"x": 1.1306837198,
				"y": 0.1025107192,
				"z": 1.8033458533,
				"element": "H" 
			},
			{
				"x": 1.6621085807,
				"y": 0.3660234644,
				"z": -0.4882830831,
				"element": "H" 
			},
			{
				"x": 2.0828959409,
				"y": 4.3661700898,
				"z": 0.08642547,
				"element": "H" 
			}
		],
		 "valence_orbital": [ 
			{
				"type": "occ",
				"energy": -0.29662,
				"method": "rhf"
			},
			{
				"type": "occ",
				"energy": -0.28247,
				"method": "rhf"
			},
			{
				"type": "occ",
				"energy": -0.27748,
				"method": "rhf"
			},
			{
				"type": "occ",
				"energy": -0.2655,
				"method": "rhf"
			},
			{
				"type": "occ",
				"energy": -0.25792,
				"method": "rhf"
			},
			{
				"type": "unocc",
				"energy": -0.12214,
				"method": "rhf"
			},
			{
				"type": "unocc",
				"energy": -0.0993,
				"method": "rhf"
			},
			{
				"type": "unocc",
				"energy": -0.06886,
				"method": "rhf"
			},
			{
				"type": "unocc",
				"energy": -0.0405,
				"method": "rhf"
			},
			{
				"type": "unocc",
				"energy": -0.02988,
				"method": "rhf"
			}
		],
		"cosmo_sigma_profile": { 
			"-0.025": 0.0,
			"-0.024": 0.0,
			"-0.023": 0.0,
			"-0.022": 0.0,
			"-0.021": 0.0,
			"-0.02": 0.0,
			"-0.019": 0.0568452572654,
			"-0.018": 0.895247115637,
			"-0.017": 1.17853394027,
			"-0.016": 0.782638442173,
			"-0.015": 1.03117397723,
			"-0.014": 0.896090345927,
			"-0.013": 0.9668636615,
			"-0.012": 1.94700993791,
			"-0.011": 4.75871105193,
			"-0.01": 4.54266036115,
			"-0.009": 6.74888523019,
			"-0.008": 7.34329011166,
			"-0.007": 9.34462149219,
			"-0.006": 10.9527468385,
			"-0.005": 12.7397062172,
			"-0.004": 13.1668353067,
			"-0.003": 15.6966162266,
			"-0.002": 17.3404102436,
			"-0.001": 28.2662462308,
			"0.0": 26.660845262,
			"0.001": 18.3005839852,
			"0.002": 16.3820900017,
			"0.003": 21.0988382892,
			"0.004": 16.5335209986,
			"0.005": 12.0824235063,
			"0.006": 9.51087180994,
			"0.007": 8.50979379507,
			"0.008": 8.28806575753,
			"0.009": 7.51108685978,
			"0.01": 7.24579212594,
			"0.011": 6.34478900875,
			"0.012": 2.9154262386,
			"0.013": 1.18320299996,
			"0.014": 0.0,
			"0.015": 0.0,
			"0.016": 0.0,
			"0.017": 0.0,
			"0.018": 0.0,
			"0.019": 0.0,
			"0.02": 0.0,
			"0.021": 0.0,
			"0.022": 0.0,
			"0.023": 0.0,
			"0.024": 0.0,
			"0.025": 0.0
		}
	}
}
