{
	 "smiles": "O=C1OC(=O)C2=CC=CC3=C2C1=CC=C3", 
	 "Tm": 543.15, 
	 "num_atms": 21, 
	 "gaussian": { 
		 "optdone": 1, 
		 "sigma_profile": "yes", 
		 "theory": "DFT", 
		 "functional": "B3LYP", 
		 "basiset": "6-31G**", 
		 "properties": { 
			 "R2extent": 3189.648, 
			 "electric_dipole_moment_norm": 7.06462812751, 
			 "electric_quadrupole_moment_norm": 15.0628897961, 
			 "total_energy": -686.598029452, 
			 "HOMO_LUMO_gap": 0.15083, 
			 "cosmo_polarized_energy": -13.77, 
			 "cosmo_cavitation_energy": 25.8, 
			 "cosmo_dispersion_energy": -19.46, 
			 "cosmo_repulsion_energy": 1.46, 
			 "cosmo_total_nonelectrostatic_energy": 7.8, 
			 "SMD_solvation_energy": 5.93 
		},
		"coords": [
			{
				"x": 0.7909297551,
				"y": 0.0190902198,
				"z": -4.3957567449,
				"element": "O" 
			},
			{
				"x": 0.9618265534,
				"y": -0.0562621508,
				"z": -3.2050029139,
				"element": "C" 
			},
			{
				"x": 2.2111962073,
				"y": -0.4586497224,
				"z": -2.7515346273,
				"element": "O" 
			},
			{
				"x": 2.5840017355,
				"y": -0.5993068206,
				"z": -1.421229588,
				"element": "C" 
			},
			{
				"x": 3.7100370004,
				"y": -0.9589045756,
				"z": -1.1856160862,
				"element": "O" 
			},
			{
				"x": 1.5588837693,
				"y": -0.2924111586,
				"z": -0.4009741912,
				"element": "C" 
			},
			{
				"x": 1.8679450716,
				"y": -0.4126868484,
				"z": 0.9430272189,
				"element": "C" 
			},
			{
				"x": 0.8957632968,
				"y": -0.1217863153,
				"z": 1.9229773353,
				"element": "C" 
			},
			{
				"x": -0.3706382818,
				"y": 0.2848068172,
				"z": 1.5527793752,
				"element": "C" 
			},
			{
				"x": -0.7224908253,
				"y": 0.41909571,
				"z": 0.1835946545,
				"element": "C" 
			},
			{
				"x": 0.2649143336,
				"y": 0.1235430788,
				"z": -0.8043289137,
				"element": "C" 
			},
			{
				"x": -0.0581441724,
				"y": 0.2489351614,
				"z": -2.1790966497,
				"element": "C" 
			},
			{
				"x": -1.323469143,
				"y": 0.6555682712,
				"z": -2.5662905618,
				"element": "C" 
			},
			{
				"x": -2.3025872928,
				"y": 0.9486720507,
				"z": -1.5939338404,
				"element": "C" 
			},
			{
				"x": -2.0097940777,
				"y": 0.8334119505,
				"z": -0.2496385245,
				"element": "C" 
			},
			{
				"x": 2.8662254765,
				"y": -0.7329554097,
				"z": 1.2217272882,
				"element": "H" 
			},
			{
				"x": 1.1499271867,
				"y": -0.2197811794,
				"z": 2.97357913,
				"element": "H" 
			},
			{
				"x": -1.1176174238,
				"y": 0.5082416491,
				"z": 2.3098601995,
				"element": "H" 
			},
			{
				"x": -1.5417711309,
				"y": 0.7424562272,
				"z": -3.6253488091,
				"element": "H" 
			},
			{
				"x": -3.2911165133,
				"y": 1.2665091336,
				"z": -1.909775673,
				"element": "H" 
			},
			{
				"x": -2.7660215253,
				"y": 1.0599139113,
				"z": 0.4972819221,
				"element": "H" 
			}
		],
		 "valence_orbital": [ 
			{
				"type": "occ",
				"energy": -0.31216,
				"method": "rhf"
			},
			{
				"type": "occ",
				"energy": -0.30246,
				"method": "rhf"
			},
			{
				"type": "occ",
				"energy": -0.28007,
				"method": "rhf"
			},
			{
				"type": "occ",
				"energy": -0.27698,
				"method": "rhf"
			},
			{
				"type": "occ",
				"energy": -0.25083,
				"method": "rhf"
			},
			{
				"type": "unocc",
				"energy": -0.1,
				"method": "rhf"
			},
			{
				"type": "unocc",
				"energy": -0.0442,
				"method": "rhf"
			},
			{
				"type": "unocc",
				"energy": -0.03993,
				"method": "rhf"
			},
			{
				"type": "unocc",
				"energy": 0.00268,
				"method": "rhf"
			},
			{
				"type": "unocc",
				"energy": 0.07134,
				"method": "rhf"
			}
		],
		"cosmo_sigma_profile": { 
			"-0.025": 0.0,
			"-0.024": 0.0,
			"-0.023": 0.0,
			"-0.022": 0.0,
			"-0.021": 0.0,
			"-0.02": 0.0,
			"-0.019": 0.0,
			"-0.018": 0.0,
			"-0.017": 0.0,
			"-0.016": 0.0,
			"-0.015": 0.0,
			"-0.014": 0.0,
			"-0.013": 0.0,
			"-0.012": 0.0,
			"-0.011": 0.0,
			"-0.01": 0.0,
			"-0.009": 0.813864373743,
			"-0.008": 7.14238398173,
			"-0.007": 14.8349661344,
			"-0.006": 14.800346847,
			"-0.005": 12.8903717277,
			"-0.004": 10.6788482252,
			"-0.003": 10.8664664935,
			"-0.002": 13.2331511418,
			"-0.001": 16.4059285025,
			"0.0": 23.9330111427,
			"0.001": 22.3966126278,
			"0.002": 12.7232058811,
			"0.003": 4.00259950296,
			"0.004": 3.15609616957,
			"0.005": 2.94507512819,
			"0.006": 2.94814039795,
			"0.007": 4.28294476402,
			"0.008": 5.58394173171,
			"0.009": 6.78811688752,
			"0.01": 9.82572146271,
			"0.011": 7.4694345054,
			"0.012": 1.60918893097,
			"0.013": 0.0,
			"0.014": 0.0,
			"0.015": 0.0,
			"0.016": 0.0,
			"0.017": 0.0,
			"0.018": 0.0,
			"0.019": 0.0,
			"0.02": 0.0,
			"0.021": 0.0,
			"0.022": 0.0,
			"0.023": 0.0,
			"0.024": 0.0,
			"0.025": 0.0
		}
	}
}
