{
	 "smiles": "COC1=CC=C(C=C1)C1=NN=C2SCNN12", 
	 "Tm": 473.15, 
	 "num_atms": 26, 
	 "gaussian": { 
		 "optdone": 1, 
		 "sigma_profile": "yes", 
		 "theory": "DFT", 
		 "functional": "B3LYP", 
		 "basiset": "6-31G**", 
		 "properties": { 
			 "R2extent": 7594.7139, 
			 "electric_dipole_moment_norm": 7.33266949003, 
			 "electric_quadrupole_moment_norm": 33.3363727073, 
			 "total_energy": -1079.42341711, 
			 "HOMO_LUMO_gap": 0.17796, 
			 "cosmo_polarized_energy": -21.73, 
			 "cosmo_cavitation_energy": 31.65, 
			 "cosmo_dispersion_energy": -24.2, 
			 "cosmo_repulsion_energy": 1.8, 
			 "cosmo_total_nonelectrostatic_energy": 9.25, 
			 "SMD_solvation_energy": 3.29 
		},
		"coords": [
			{
				"x": -1.4296471244,
				"y": -4.0951760823,
				"z": 0.5119616196,
				"element": "C" 
			},
			{
				"x": -1.9979687779,
				"y": -3.1517681321,
				"z": -0.3832959313,
				"element": "O" 
			},
			{
				"x": -1.1932037972,
				"y": -2.1805388704,
				"z": -0.897264988,
				"element": "C" 
			},
			{
				"x": -1.8125013851,
				"y": -1.2813364464,
				"z": -1.7827207635,
				"element": "C" 
			},
			{
				"x": -1.085086986,
				"y": -0.2550933401,
				"z": -2.35871818,
				"element": "C" 
			},
			{
				"x": 0.2853894752,
				"y": -0.0934383578,
				"z": -2.0695590631,
				"element": "C" 
			},
			{
				"x": 0.8953202326,
				"y": -0.9950505805,
				"z": -1.188483575,
				"element": "C" 
			},
			{
				"x": 0.1670923643,
				"y": -2.0328814487,
				"z": -0.6031157842,
				"element": "C" 
			},
			{
				"x": 1.0084812225,
				"y": 1.0020989392,
				"z": -2.7138411168,
				"element": "C" 
			},
			{
				"x": 0.5182187671,
				"y": 1.7923564774,
				"z": -3.6558992656,
				"element": "N" 
			},
			{
				"x": 1.4872191866,
				"y": 2.7095246203,
				"z": -4.0460363159,
				"element": "N" 
			},
			{
				"x": 2.5360961402,
				"y": 2.4592304554,
				"z": -3.3122132226,
				"element": "C" 
			},
			{
				"x": 4.1675681423,
				"y": 3.1054833016,
				"z": -3.1241087172,
				"element": "S" 
			},
			{
				"x": 4.5506805268,
				"y": 1.4976828709,
				"z": -2.2074685417,
				"element": "C" 
			},
			{
				"x": 3.3248389233,
				"y": 1.0505216474,
				"z": -1.5547544269,
				"element": "N" 
			},
			{
				"x": 2.3056352509,
				"y": 1.4010536439,
				"z": -2.4669774897,
				"element": "N" 
			},
			{
				"x": -1.0357289811,
				"y": -3.6102783749,
				"z": 1.4144010471,
				"element": "H" 
			},
			{
				"x": -0.6271244513,
				"y": -4.6725386145,
				"z": 0.0353838785,
				"element": "H" 
			},
			{
				"x": -2.2396034725,
				"y": -4.7701959345,
				"z": 0.7920720487,
				"element": "H" 
			},
			{
				"x": -2.8675597948,
				"y": -1.4125303147,
				"z": -1.9990762321,
				"element": "H" 
			},
			{
				"x": -1.557937983,
				"y": 0.439636687,
				"z": -3.0440709642,
				"element": "H" 
			},
			{
				"x": 1.9514098782,
				"y": -0.8980044959,
				"z": -0.9604938885,
				"element": "H" 
			},
			{
				"x": 0.6698556505,
				"y": -2.7147557234,
				"z": 0.0722068831,
				"element": "H" 
			},
			{
				"x": 5.3379691436,
				"y": 1.662034439,
				"z": -1.4723630839,
				"element": "H" 
			},
			{
				"x": 4.8605862832,
				"y": 0.7584748014,
				"z": -2.9478407754,
				"element": "H" 
			},
			{
				"x": 3.1685015658,
				"y": 1.6072888329,
				"z": -0.7103231513,
				"element": "H" 
			}
		],
		 "valence_orbital": [ 
			{
				"type": "occ",
				"energy": -0.2758,
				"method": "rhf"
			},
			{
				"type": "occ",
				"energy": -0.25794,
				"method": "rhf"
			},
			{
				"type": "occ",
				"energy": -0.25123,
				"method": "rhf"
			},
			{
				"type": "occ",
				"energy": -0.24657,
				"method": "rhf"
			},
			{
				"type": "occ",
				"energy": -0.2065,
				"method": "rhf"
			},
			{
				"type": "unocc",
				"energy": -0.02854,
				"method": "rhf"
			},
			{
				"type": "unocc",
				"energy": -0.01265,
				"method": "rhf"
			},
			{
				"type": "unocc",
				"energy": -0.00646,
				"method": "rhf"
			},
			{
				"type": "unocc",
				"energy": 0.03156,
				"method": "rhf"
			},
			{
				"type": "unocc",
				"energy": 0.04462,
				"method": "rhf"
			}
		],
		"cosmo_sigma_profile": { 
			"-0.025": 0.0,
			"-0.024": 0.0,
			"-0.023": 0.0,
			"-0.022": 0.0,
			"-0.021": 0.0,
			"-0.02": 0.0,
			"-0.019": 0.0,
			"-0.018": 0.0,
			"-0.017": 0.0,
			"-0.016": 0.0,
			"-0.015": 1.5035751524,
			"-0.014": 2.21384577788,
			"-0.013": 1.59648812187,
			"-0.012": 1.4544033727,
			"-0.011": 2.01988103312,
			"-0.01": 3.55347583409,
			"-0.009": 3.79161085119,
			"-0.008": 5.67706399787,
			"-0.007": 6.46520972352,
			"-0.006": 15.2963108001,
			"-0.005": 19.0239634425,
			"-0.004": 17.2592698189,
			"-0.003": 16.8328781559,
			"-0.002": 13.1373288281,
			"-0.001": 13.0736172026,
			"0.0": 13.9594690787,
			"0.001": 14.7889107136,
			"0.002": 17.9012434589,
			"0.003": 19.4071081109,
			"0.004": 19.7224834539,
			"0.005": 9.93910523829,
			"0.006": 6.02800791957,
			"0.007": 4.57850645617,
			"0.008": 3.34054808251,
			"0.009": 3.55292341418,
			"0.01": 3.41136255091,
			"0.011": 2.38393632209,
			"0.012": 2.57819732619,
			"0.013": 3.53133905316,
			"0.014": 3.53264410035,
			"0.015": 2.66642105817,
			"0.016": 1.39331207782,
			"0.017": 0.286832062825,
			"0.018": 0.0,
			"0.019": 0.0,
			"0.02": 0.0,
			"0.021": 0.0,
			"0.022": 0.0,
			"0.023": 0.0,
			"0.024": 0.0,
			"0.025": 0.0
		}
	}
}
