{
	 "smiles": "CC1=CC(=O)NC2=C(N=NC3=CC=CC(=C3)[N+]([O-])=O)C(N)=NN12", 
	 "Tm": 591.15, 
	 "num_atms": 34, 
	 "gaussian": { 
		 "optdone": 1, 
		 "sigma_profile": "yes", 
		 "theory": "DFT", 
		 "functional": "B3LYP", 
		 "basiset": "6-31G**", 
		 "properties": { 
			 "R2extent": 8128.3168, 
			 "electric_dipole_moment_norm": 7.24135881517, 
			 "electric_quadrupole_moment_norm": 24.2020644411, 
			 "total_energy": -1110.78472324, 
			 "HOMO_LUMO_gap": 0.12906, 
			 "cosmo_polarized_energy": -23.23, 
			 "cosmo_cavitation_energy": 40.02, 
			 "cosmo_dispersion_energy": -27.77, 
			 "cosmo_repulsion_energy": 2.11, 
			 "cosmo_total_nonelectrostatic_energy": 14.35, 
			 "SMD_solvation_energy": 7.12 
		},
		"coords": [
			{
				"x": -0.5819154945,
				"y": -2.7033476269,
				"z": 3.2643534538,
				"element": "C" 
			},
			{
				"x": -0.3047817199,
				"y": -1.5752688026,
				"z": 2.3219547576,
				"element": "C" 
			},
			{
				"x": 0.859333254,
				"y": -0.8719362057,
				"z": 2.2615136879,
				"element": "C" 
			},
			{
				"x": 1.0659089471,
				"y": 0.222011916,
				"z": 1.3264478287,
				"element": "C" 
			},
			{
				"x": 2.0752666779,
				"y": 0.8977373873,
				"z": 1.2023804674,
				"element": "O" 
			},
			{
				"x": -0.0569850124,
				"y": 0.4803677785,
				"z": 0.4975586993,
				"element": "N" 
			},
			{
				"x": -1.2190017606,
				"y": -0.2205259072,
				"z": 0.5351237712,
				"element": "C" 
			},
			{
				"x": -2.4690977241,
				"y": -0.1479601519,
				"z": -0.1210006516,
				"element": "C" 
			},
			{
				"x": -3.1431536104,
				"y": 0.683375495,
				"z": -0.9943542481,
				"element": "N" 
			},
			{
				"x": -2.671309868,
				"y": 1.533637825,
				"z": -1.7977320791,
				"element": "N" 
			},
			{
				"x": -1.2875193895,
				"y": 1.6326922421,
				"z": -2.1120103483,
				"element": "C" 
			},
			{
				"x": -0.5762220863,
				"y": 0.5469337137,
				"z": -2.6585396643,
				"element": "C" 
			},
			{
				"x": 0.7233098219,
				"y": 0.724210653,
				"z": -3.1340147327,
				"element": "C" 
			},
			{
				"x": 1.341790219,
				"y": 1.9726215116,
				"z": -3.0692877994,
				"element": "C" 
			},
			{
				"x": 0.6181753491,
				"y": 3.036037006,
				"z": -2.5321243515,
				"element": "C" 
			},
			{
				"x": -0.6873295712,
				"y": 2.8993768221,
				"z": -2.0700534226,
				"element": "C" 
			},
			{
				"x": 1.2519263545,
				"y": 4.3686154963,
				"z": -2.4692081314,
				"element": "N" 
			},
			{
				"x": 0.6037883572,
				"y": 5.2823477968,
				"z": -1.963034906,
				"element": "O" 
			},
			{
				"x": 2.3861321273,
				"y": 4.4789460225,
				"z": -2.9297240203,
				"element": "O" 
			},
			{
				"x": -3.2427458188,
				"y": -1.1854141389,
				"z": 0.5325640937,
				"element": "C" 
			},
			{
				"x": -4.5244407457,
				"y": -1.4894025194,
				"z": 0.1833645557,
				"element": "N" 
			},
			{
				"x": -2.5677423431,
				"y": -1.8470794467,
				"z": 1.4561374533,
				"element": "N" 
			},
			{
				"x": -1.3219727521,
				"y": -1.2312628939,
				"z": 1.4523055993,
				"element": "N" 
			},
			{
				"x": -0.8340913088,
				"y": -3.6126635458,
				"z": 2.7105981772,
				"element": "H" 
			},
			{
				"x": 0.2897981222,
				"y": -2.8884871346,
				"z": 3.8932510309,
				"element": "H" 
			},
			{
				"x": -1.445317583,
				"y": -2.4711570347,
				"z": 3.8950147204,
				"element": "H" 
			},
			{
				"x": 1.6806371715,
				"y": -1.1110358275,
				"z": 2.9235786463,
				"element": "H" 
			},
			{
				"x": 0.0575913661,
				"y": 1.2261947422,
				"z": -0.1774467023,
				"element": "H" 
			},
			{
				"x": -1.0552338956,
				"y": -0.4249185362,
				"z": -2.7202297703,
				"element": "H" 
			},
			{
				"x": 1.2605400929,
				"y": -0.1191222265,
				"z": -3.5561814556,
				"element": "H" 
			},
			{
				"x": 2.3512830894,
				"y": 2.1363200847,
				"z": -3.4229526155,
				"element": "H" 
			},
			{
				"x": -1.2276921358,
				"y": 3.7578802885,
				"z": -1.6916349308,
				"element": "H" 
			},
			{
				"x": -5.0004520853,
				"y": -0.7576184853,
				"z": -0.3274405888,
				"element": "H" 
			},
			{
				"x": -5.0695760448,
				"y": -1.9973062975,
				"z": 0.8639234759,
				"element": "H" 
			}
		],
		 "valence_orbital": [ 
			{
				"type": "occ",
				"energy": -0.28631,
				"method": "rhf"
			},
			{
				"type": "occ",
				"energy": -0.27171,
				"method": "rhf"
			},
			{
				"type": "occ",
				"energy": -0.25567,
				"method": "rhf"
			},
			{
				"type": "occ",
				"energy": -0.22922,
				"method": "rhf"
			},
			{
				"type": "occ",
				"energy": -0.22325,
				"method": "rhf"
			},
			{
				"type": "unocc",
				"energy": -0.09419,
				"method": "rhf"
			},
			{
				"type": "unocc",
				"energy": -0.08454,
				"method": "rhf"
			},
			{
				"type": "unocc",
				"energy": -0.04945,
				"method": "rhf"
			},
			{
				"type": "unocc",
				"energy": -0.02784,
				"method": "rhf"
			},
			{
				"type": "unocc",
				"energy": -0.00534,
				"method": "rhf"
			}
		],
		"cosmo_sigma_profile": { 
			"-0.025": 0.0,
			"-0.024": 0.0,
			"-0.023": 0.0,
			"-0.022": 0.0,
			"-0.021": 0.0,
			"-0.02": 0.0,
			"-0.019": 0.0,
			"-0.018": 0.0,
			"-0.017": 0.0,
			"-0.016": 0.0,
			"-0.015": 0.00371781424538,
			"-0.014": 0.850919407212,
			"-0.013": 1.37973415934,
			"-0.012": 2.19487490046,
			"-0.011": 2.55687752048,
			"-0.01": 3.30602408011,
			"-0.009": 3.58523205007,
			"-0.008": 9.82208317014,
			"-0.007": 14.3140960682,
			"-0.006": 19.9888739714,
			"-0.005": 19.9633559242,
			"-0.004": 21.9502701442,
			"-0.003": 23.8995816513,
			"-0.002": 27.5991928299,
			"-0.001": 22.1969469081,
			"0.0": 21.4770918127,
			"0.001": 19.9308939927,
			"0.002": 10.4871643089,
			"0.003": 8.15214903637,
			"0.004": 8.95584826968,
			"0.005": 8.25599576223,
			"0.006": 9.74020876651,
			"0.007": 13.9018747162,
			"0.008": 10.4689986689,
			"0.009": 8.85102863462,
			"0.01": 7.30922714924,
			"0.011": 4.97741285737,
			"0.012": 5.5593268368,
			"0.013": 7.5024004193,
			"0.014": 2.14487124535,
			"0.015": 0.0655672118082,
			"0.016": 0.0,
			"0.017": 0.0,
			"0.018": 0.0,
			"0.019": 0.0,
			"0.02": 0.0,
			"0.021": 0.0,
			"0.022": 0.0,
			"0.023": 0.0,
			"0.024": 0.0,
			"0.025": 0.0
		}
	}
}
