{
	 "smiles": "FC1=C(F)C(F)=C(OC(=O)C2=CN=CN=C2)C(F)=C1F", 
	 "Tm": 395.15, 
	 "num_atms": 23, 
	 "gaussian": { 
		 "optdone": 1, 
		 "sigma_profile": "yes", 
		 "theory": "DFT", 
		 "functional": "B3LYP", 
		 "basiset": "6-31G**", 
		 "properties": { 
			 "R2extent": 7148.9778, 
			 "electric_dipole_moment_norm": 1.08669374251, 
			 "electric_quadrupole_moment_norm": 2.33828654574, 
			 "total_energy": -1180.04480359, 
			 "HOMO_LUMO_gap": 0.18221, 
			 "cosmo_polarized_energy": -8.74, 
			 "cosmo_cavitation_energy": 33.29, 
			 "cosmo_dispersion_energy": -22.6, 
			 "cosmo_repulsion_energy": 1.61, 
			 "cosmo_total_nonelectrostatic_energy": 12.3, 
			 "SMD_solvation_energy": 6.36 
		},
		"coords": [
			{
				"x": 4.5779770362,
				"y": -2.9896120391,
				"z": -1.3667054069,
				"element": "F" 
			},
			{
				"x": 3.5823840401,
				"y": -2.2571032714,
				"z": -0.8640645054,
				"element": "C" 
			},
			{
				"x": 2.6559214751,
				"y": -1.6630447981,
				"z": -1.719897238,
				"element": "C" 
			},
			{
				"x": 2.7628383126,
				"y": -1.8322397383,
				"z": -3.0404200288,
				"element": "F" 
			},
			{
				"x": 1.6188784687,
				"y": -0.8979345999,
				"z": -1.1915307743,
				"element": "C" 
			},
			{
				"x": 0.7232821623,
				"y": -0.3376915871,
				"z": -2.0085772664,
				"element": "F" 
			},
			{
				"x": 1.5106127646,
				"y": -0.7127779296,
				"z": 0.1856185579,
				"element": "C" 
			},
			{
				"x": 0.5209620024,
				"y": 0.1005377144,
				"z": 0.7014058097,
				"element": "O" 
			},
			{
				"x": -0.6753935511,
				"y": -0.5119827395,
				"z": 1.0229277432,
				"element": "C" 
			},
			{
				"x": -0.8746731501,
				"y": -1.6911647832,
				"z": 0.8721069838,
				"element": "O" 
			},
			{
				"x": -1.6479995443,
				"y": 0.4646659698,
				"z": 1.5630444926,
				"element": "C" 
			},
			{
				"x": -1.3880019713,
				"y": 1.8302265753,
				"z": 1.7271226231,
				"element": "C" 
			},
			{
				"x": -2.3019886405,
				"y": 2.6702516031,
				"z": 2.2200101779,
				"element": "N" 
			},
			{
				"x": -3.4812515374,
				"y": 2.1288230531,
				"z": 2.5477263085,
				"element": "C" 
			},
			{
				"x": -3.844829228,
				"y": 0.844367113,
				"z": 2.4368213433,
				"element": "N" 
			},
			{
				"x": -2.9204201169,
				"y": 0.0192543427,
				"z": 1.9429774186,
				"element": "C" 
			},
			{
				"x": 2.4332599831,
				"y": -1.319512705,
				"z": 1.0359987228,
				"element": "C" 
			},
			{
				"x": 2.3194719879,
				"y": -1.1639753065,
				"z": 2.3575103381,
				"element": "F" 
			},
			{
				"x": 3.4730753494,
				"y": -2.0860756932,
				"z": 0.5152440862,
				"element": "C" 
			},
			{
				"x": 4.3611222246,
				"y": -2.6596919427,
				"z": 1.3314474797,
				"element": "F" 
			},
			{
				"x": -0.4235787086,
				"y": 2.2505660441,
				"z": 1.4548872439,
				"element": "H" 
			},
			{
				"x": -4.2293629716,
				"y": 2.8089472351,
				"z": 2.9496581527,
				"element": "H" 
			},
			{
				"x": -3.1812863871,
				"y": -1.0314325168,
				"z": 1.8389877377,
				"element": "H" 
			}
		],
		 "valence_orbital": [ 
			{
				"type": "occ",
				"energy": -0.3108,
				"method": "rhf"
			},
			{
				"type": "occ",
				"energy": -0.30853,
				"method": "rhf"
			},
			{
				"type": "occ",
				"energy": -0.27612,
				"method": "rhf"
			},
			{
				"type": "occ",
				"energy": -0.27197,
				"method": "rhf"
			},
			{
				"type": "occ",
				"energy": -0.26918,
				"method": "rhf"
			},
			{
				"type": "unocc",
				"energy": -0.08697,
				"method": "rhf"
			},
			{
				"type": "unocc",
				"energy": -0.06226,
				"method": "rhf"
			},
			{
				"type": "unocc",
				"energy": -0.03698,
				"method": "rhf"
			},
			{
				"type": "unocc",
				"energy": -0.02904,
				"method": "rhf"
			},
			{
				"type": "unocc",
				"energy": -0.00946,
				"method": "rhf"
			}
		],
		"cosmo_sigma_profile": { 
			"-0.025": 0.0,
			"-0.024": 0.0,
			"-0.023": 0.0,
			"-0.022": 0.0,
			"-0.021": 0.0,
			"-0.02": 0.0,
			"-0.019": 0.0,
			"-0.018": 0.0,
			"-0.017": 0.0,
			"-0.016": 0.0,
			"-0.015": 0.0,
			"-0.014": 0.0,
			"-0.013": 0.0,
			"-0.012": 0.0,
			"-0.011": 0.0,
			"-0.01": 0.0,
			"-0.009": 1.96501733585,
			"-0.008": 4.54771046161,
			"-0.007": 5.00810353257,
			"-0.006": 5.69810974367,
			"-0.005": 14.0512861846,
			"-0.004": 32.4438585009,
			"-0.003": 25.571046444,
			"-0.002": 19.4032246825,
			"-0.001": 19.6025298104,
			"0.0": 15.1581769476,
			"0.001": 23.7633787682,
			"0.002": 55.0044200644,
			"0.003": 14.9005417689,
			"0.004": 4.08907929703,
			"0.005": 4.44321890276,
			"0.006": 2.61716164862,
			"0.007": 3.08626368991,
			"0.008": 4.72930637583,
			"0.009": 5.40060821521,
			"0.01": 3.37292750462,
			"0.011": 1.88242903424,
			"0.012": 1.55471293113,
			"0.013": 1.96741295192,
			"0.014": 1.25297900986,
			"0.015": 0.12186945155,
			"0.016": 0.0,
			"0.017": 0.0,
			"0.018": 0.0,
			"0.019": 0.0,
			"0.02": 0.0,
			"0.021": 0.0,
			"0.022": 0.0,
			"0.023": 0.0,
			"0.024": 0.0,
			"0.025": 0.0
		}
	}
}
