{
	 "smiles": "CCCCCCCCCCN", 
	 "Tm": 288.15, 
	 "num_atms": 34, 
	 "gaussian": { 
		 "optdone": 1, 
		 "sigma_profile": "yes", 
		 "theory": "DFT", 
		 "functional": "B3LYP", 
		 "basiset": "6-31G**", 
		 "properties": { 
			 "R2extent": 3778.7266, 
			 "electric_dipole_moment_norm": 1.39975621092, 
			 "electric_quadrupole_moment_norm": 7.17509184053, 
			 "total_energy": -449.699052628, 
			 "HOMO_LUMO_gap": 0.30528, 
			 "cosmo_polarized_energy": -4.76, 
			 "cosmo_cavitation_energy": 33.74, 
			 "cosmo_dispersion_energy": -23.76, 
			 "cosmo_repulsion_energy": 2.0, 
			 "cosmo_total_nonelectrostatic_energy": 11.99, 
			 "SMD_solvation_energy": 3.89 
		},
		"coords": [
			{
				"x": 4.664959264,
				"y": 1.632900598,
				"z": -1.1903402796,
				"element": "C" 
			},
			{
				"x": 4.1073465421,
				"y": 0.880772635,
				"z": 0.0224304818,
				"element": "C" 
			},
			{
				"x": 2.6053048905,
				"y": 1.1061135423,
				"z": 0.2377268848,
				"element": "C" 
			},
			{
				"x": 2.0521960589,
				"y": 0.3756278187,
				"z": 1.4711902217,
				"element": "C" 
			},
			{
				"x": 0.5411570426,
				"y": 0.5734820296,
				"z": 1.7307995248,
				"element": "C" 
			},
			{
				"x": -0.3916806604,
				"y": -0.5038725337,
				"z": 1.1465112933,
				"element": "C" 
			},
			{
				"x": -0.3991097346,
				"y": -0.6259959719,
				"z": -0.3840015929,
				"element": "C" 
			},
			{
				"x": -1.3737206957,
				"y": -1.6827551261,
				"z": -0.935158676,
				"element": "C" 
			},
			{
				"x": -2.8686197938,
				"y": -1.4097164867,
				"z": -0.6931705472,
				"element": "C" 
			},
			{
				"x": -3.4176727916,
				"y": -0.1549061568,
				"z": -1.3847796089,
				"element": "C" 
			},
			{
				"x": -3.2252160187,
				"y": -0.2249839896,
				"z": -2.8380631089,
				"element": "N" 
			},
			{
				"x": 4.5215602637,
				"y": 2.7145963547,
				"z": -1.0859177503,
				"element": "H" 
			},
			{
				"x": 5.7372991859,
				"y": 1.4509935327,
				"z": -1.3177061083,
				"element": "H" 
			},
			{
				"x": 4.1631730521,
				"y": 1.3225905741,
				"z": -2.1140835236,
				"element": "H" 
			},
			{
				"x": 4.2982627856,
				"y": -0.1948798563,
				"z": -0.0947710592,
				"element": "H" 
			},
			{
				"x": 4.652521004,
				"y": 1.1871634287,
				"z": 0.9259743496,
				"element": "H" 
			},
			{
				"x": 2.4142929256,
				"y": 2.183490586,
				"z": 0.3479777285,
				"element": "H" 
			},
			{
				"x": 2.0618247272,
				"y": 0.7962057286,
				"z": -0.6635474551,
				"element": "H" 
			},
			{
				"x": 2.6137472749,
				"y": 0.7255403461,
				"z": 2.3477210325,
				"element": "H" 
			},
			{
				"x": 2.2711533891,
				"y": -0.6989800667,
				"z": 1.390568691,
				"element": "H" 
			},
			{
				"x": 0.2353379001,
				"y": 1.5616639382,
				"z": 1.3583909016,
				"element": "H" 
			},
			{
				"x": 0.3704560155,
				"y": 0.6004560306,
				"z": 2.8143890084,
				"element": "H" 
			},
			{
				"x": -0.1212279107,
				"y": -1.4786313688,
				"z": 1.5788250803,
				"element": "H" 
			},
			{
				"x": -1.4095203455,
				"y": -0.2929705342,
				"z": 1.4998895375,
				"element": "H" 
			},
			{
				"x": -0.6208515658,
				"y": 0.3523958511,
				"z": -0.8311099062,
				"element": "H" 
			},
			{
				"x": 0.6077606177,
				"y": -0.8892109255,
				"z": -0.7302324264,
				"element": "H" 
			},
			{
				"x": -1.2150849302,
				"y": -1.7717708431,
				"z": -2.0149027907,
				"element": "H" 
			},
			{
				"x": -1.1227218,
				"y": -2.6584365636,
				"z": -0.4964017333,
				"element": "H" 
			},
			{
				"x": -3.080219096,
				"y": -1.3321205897,
				"z": 0.3806554334,
				"element": "H" 
			},
			{
				"x": -3.442892587,
				"y": -2.2792026619,
				"z": -1.0449590837,
				"element": "H" 
			},
			{
				"x": -2.8825718425,
				"y": 0.7316178594,
				"z": -1.0231913669,
				"element": "H" 
			},
			{
				"x": -4.4715842971,
				"y": -0.0229830644,
				"z": -1.0801377605,
				"element": "H" 
			},
			{
				"x": -3.5453843735,
				"y": 0.635026576,
				"z": -3.2758535304,
				"element": "H" 
			},
			{
				"x": -3.7998744964,
				"y": -0.9718206909,
				"z": -3.223421861,
				"element": "H" 
			}
		],
		 "valence_orbital": [ 
			{
				"type": "occ",
				"energy": -0.31364,
				"method": "rhf"
			},
			{
				"type": "occ",
				"energy": -0.30584,
				"method": "rhf"
			},
			{
				"type": "occ",
				"energy": -0.29383,
				"method": "rhf"
			},
			{
				"type": "occ",
				"energy": -0.29127,
				"method": "rhf"
			},
			{
				"type": "occ",
				"energy": -0.22868,
				"method": "rhf"
			},
			{
				"type": "unocc",
				"energy": 0.0766,
				"method": "rhf"
			},
			{
				"type": "unocc",
				"energy": 0.09432,
				"method": "rhf"
			},
			{
				"type": "unocc",
				"energy": 0.10378,
				"method": "rhf"
			},
			{
				"type": "unocc",
				"energy": 0.1157,
				"method": "rhf"
			},
			{
				"type": "unocc",
				"energy": 0.12119,
				"method": "rhf"
			}
		],
		"cosmo_sigma_profile": { 
			"-0.025": 0.0,
			"-0.024": 0.0,
			"-0.023": 0.0,
			"-0.022": 0.0,
			"-0.021": 0.0,
			"-0.02": 0.0,
			"-0.019": 0.0,
			"-0.018": 0.0,
			"-0.017": 0.0,
			"-0.016": 0.0,
			"-0.015": 0.0,
			"-0.014": 0.0,
			"-0.013": 0.0,
			"-0.012": 0.0,
			"-0.011": 0.0,
			"-0.01": 0.161183447773,
			"-0.009": 2.29667392022,
			"-0.008": 2.55992356693,
			"-0.007": 2.55020946744,
			"-0.006": 3.30028636209,
			"-0.005": 2.6955875711,
			"-0.004": 2.4091399642,
			"-0.003": 5.5018789907,
			"-0.002": 28.4464915088,
			"-0.001": 52.0651549068,
			"0.0": 64.7672123418,
			"0.001": 49.9410283184,
			"0.002": 25.3397478386,
			"0.003": 2.58979433707,
			"0.004": 1.6744491603,
			"0.005": 1.33268016447,
			"0.006": 1.37459627174,
			"0.007": 0.802116248431,
			"0.008": 0.701072162508,
			"0.009": 0.998244948472,
			"0.01": 0.40488814883,
			"0.011": 0.934731315894,
			"0.012": 0.573389587767,
			"0.013": 1.18295267741,
			"0.014": 0.338183708784,
			"0.015": 0.453947941295,
			"0.016": 0.691024183076,
			"0.017": 0.540798425493,
			"0.018": 0.426752060785,
			"0.019": 0.268490209871,
			"0.02": 0.0,
			"0.021": 0.0,
			"0.022": 0.0,
			"0.023": 0.0,
			"0.024": 0.0,
			"0.025": 0.0
		}
	}
}
