{
	 "smiles": "COC(=O)C(=NO)C#N", 
	 "Tm": 396.15, 
	 "num_atms": 13, 
	 "gaussian": { 
		 "optdone": 1, 
		 "sigma_profile": "yes", 
		 "theory": "DFT", 
		 "functional": "B3LYP", 
		 "basiset": "6-31G**", 
		 "properties": { 
			 "R2extent": 1273.8762, 
			 "electric_dipole_moment_norm": 5.97435482123, 
			 "electric_quadrupole_moment_norm": 12.9279454806, 
			 "total_energy": -489.908823044, 
			 "HOMO_LUMO_gap": 0.19698, 
			 "cosmo_polarized_energy": -14.98, 
			 "cosmo_cavitation_energy": 19.91, 
			 "cosmo_dispersion_energy": -13.93, 
			 "cosmo_repulsion_energy": 1.19, 
			 "cosmo_total_nonelectrostatic_energy": 7.17, 
			 "SMD_solvation_energy": 7.04 
		},
		"coords": [
			{
				"x": 1.2027926228,
				"y": -2.0123838147,
				"z": -1.6200147122,
				"element": "C" 
			},
			{
				"x": 0.2714428906,
				"y": -1.2653644816,
				"z": -0.8106055652,
				"element": "O" 
			},
			{
				"x": 0.4475955663,
				"y": 0.0584882202,
				"z": -0.8304118999,
				"element": "C" 
			},
			{
				"x": 1.3045680633,
				"y": 0.6398175491,
				"z": -1.4599310407,
				"element": "O" 
			},
			{
				"x": -0.5395861318,
				"y": 0.8193330734,
				"z": 0.0246665425,
				"element": "C" 
			},
			{
				"x": -1.5181225301,
				"y": 0.4214497326,
				"z": 0.7719181987,
				"element": "N" 
			},
			{
				"x": -1.7171738797,
				"y": -0.9252389533,
				"z": 0.8131139704,
				"element": "O" 
			},
			{
				"x": -0.3634384235,
				"y": 2.2498716721,
				"z": 0.0094258817,
				"element": "C" 
			},
			{
				"x": -0.2318551639,
				"y": 3.4037690512,
				"z": 0.0053589912,
				"element": "N" 
			},
			{
				"x": 2.2259558483,
				"y": -1.8398780474,
				"z": -1.2787875568,
				"element": "H" 
			},
			{
				"x": 0.9217136566,
				"y": -3.0565640595,
				"z": -1.4914161288,
				"element": "H" 
			},
			{
				"x": 1.1206959064,
				"y": -1.7133465373,
				"z": -2.667341134,
				"element": "H" 
			},
			{
				"x": -2.4750884252,
				"y": -1.0054534048,
				"z": 1.4121244532,
				"element": "H" 
			}
		],
		 "valence_orbital": [ 
			{
				"type": "occ",
				"energy": -0.34361,
				"method": "rhf"
			},
			{
				"type": "occ",
				"energy": -0.32947,
				"method": "rhf"
			},
			{
				"type": "occ",
				"energy": -0.32532,
				"method": "rhf"
			},
			{
				"type": "occ",
				"energy": -0.2956,
				"method": "rhf"
			},
			{
				"type": "occ",
				"energy": -0.29264,
				"method": "rhf"
			},
			{
				"type": "unocc",
				"energy": -0.09566,
				"method": "rhf"
			},
			{
				"type": "unocc",
				"energy": 0.00977,
				"method": "rhf"
			},
			{
				"type": "unocc",
				"energy": 0.01308,
				"method": "rhf"
			},
			{
				"type": "unocc",
				"energy": 0.0485,
				"method": "rhf"
			},
			{
				"type": "unocc",
				"energy": 0.09787,
				"method": "rhf"
			}
		],
		"cosmo_sigma_profile": { 
			"-0.025": 0.0,
			"-0.024": 0.0,
			"-0.023": 0.0,
			"-0.022": 0.0,
			"-0.021": 0.17178073066,
			"-0.02": 1.17743287452,
			"-0.019": 1.23191995786,
			"-0.018": 0.98152119284,
			"-0.017": 0.418300096018,
			"-0.016": 0.747616936608,
			"-0.015": 1.09407676592,
			"-0.014": 1.01679554531,
			"-0.013": 0.809041226789,
			"-0.012": 0.594929330484,
			"-0.011": 0.447268625194,
			"-0.01": 0.647569564659,
			"-0.009": 0.971537159634,
			"-0.008": 1.26636140796,
			"-0.007": 8.13624297923,
			"-0.006": 10.6153524773,
			"-0.005": 12.7250374263,
			"-0.004": 12.8633480243,
			"-0.003": 8.54588019312,
			"-0.002": 7.86294987433,
			"-0.001": 7.91279233533,
			"0.0": 6.05640710482,
			"0.001": 5.52418199119,
			"0.002": 7.42528095505,
			"0.003": 5.65198906351,
			"0.004": 6.67345920981,
			"0.005": 6.40240887147,
			"0.006": 7.16303327549,
			"0.007": 7.68540042528,
			"0.008": 7.39643919542,
			"0.009": 6.87762441273,
			"0.01": 8.11049092707,
			"0.011": 4.07453902888,
			"0.012": 0.975505697883,
			"0.013": 0.0,
			"0.014": 0.0,
			"0.015": 0.0,
			"0.016": 0.0,
			"0.017": 0.0,
			"0.018": 0.0,
			"0.019": 0.0,
			"0.02": 0.0,
			"0.021": 0.0,
			"0.022": 0.0,
			"0.023": 0.0,
			"0.024": 0.0,
			"0.025": 0.0
		}
	}
}
