{
	 "smiles": "CCOC(=O)CSC1=NC(C)=NN1", 
	 "Tm": 373.15, 
	 "num_atms": 24, 
	 "gaussian": { 
		 "optdone": 1, 
		 "sigma_profile": "yes", 
		 "theory": "DFT", 
		 "functional": "B3LYP", 
		 "basiset": "6-31G**", 
		 "properties": { 
			 "R2extent": 5323.2383, 
			 "electric_dipole_moment_norm": 2.25582865262, 
			 "electric_quadrupole_moment_norm": 6.72223300697, 
			 "total_energy": -986.265970481, 
			 "HOMO_LUMO_gap": 0.22397, 
			 "cosmo_polarized_energy": -14.74, 
			 "cosmo_cavitation_energy": 30.64, 
			 "cosmo_dispersion_energy": -22.99, 
			 "cosmo_repulsion_energy": 1.85, 
			 "cosmo_total_nonelectrostatic_energy": 9.49, 
			 "SMD_solvation_energy": 3.96 
		},
		"coords": [
			{
				"x": 3.4261618004,
				"y": 2.7055304291,
				"z": 0.0758262968,
				"element": "C" 
			},
			{
				"x": 2.9274765011,
				"y": 1.8784245594,
				"z": 1.2444243471,
				"element": "C" 
			},
			{
				"x": 1.8445772081,
				"y": 1.0455777718,
				"z": 0.7565612245,
				"element": "O" 
			},
			{
				"x": 1.2736944277,
				"y": 0.2349637417,
				"z": 1.6638295666,
				"element": "C" 
			},
			{
				"x": 1.6026585498,
				"y": 0.1632126695,
				"z": 2.8280169063,
				"element": "O" 
			},
			{
				"x": 0.1653556065,
				"y": -0.5712918962,
				"z": 1.0158394769,
				"element": "C" 
			},
			{
				"x": -0.5829595992,
				"y": -1.6617838998,
				"z": 2.2812888436,
				"element": "S" 
			},
			{
				"x": -1.7816386884,
				"y": -2.4256469038,
				"z": 1.2376413248,
				"element": "C" 
			},
			{
				"x": -1.9931014948,
				"y": -2.2059043454,
				"z": -0.0508227789,
				"element": "N" 
			},
			{
				"x": -3.0275178317,
				"y": -3.0583109501,
				"z": -0.3495383166,
				"element": "C" 
			},
			{
				"x": -3.6168764491,
				"y": -3.1579677472,
				"z": -1.7222412276,
				"element": "C" 
			},
			{
				"x": -3.4596664449,
				"y": -3.7823208557,
				"z": 0.6720578508,
				"element": "N" 
			},
			{
				"x": -2.6477143295,
				"y": -3.3636105508,
				"z": 1.6863936838,
				"element": "N" 
			},
			{
				"x": 3.793601931,
				"y": 2.0636771083,
				"z": -0.7297854964,
				"element": "H" 
			},
			{
				"x": 2.6295910206,
				"y": 3.3395605076,
				"z": -0.3235238387,
				"element": "H" 
			},
			{
				"x": 4.2473242337,
				"y": 3.3501553857,
				"z": 0.404134139,
				"element": "H" 
			},
			{
				"x": 2.5487597765,
				"y": 2.5010072948,
				"z": 2.0608670933,
				"element": "H" 
			},
			{
				"x": 3.7076274005,
				"y": 1.2310065729,
				"z": 1.6565183458,
				"element": "H" 
			},
			{
				"x": 0.5598778952,
				"y": -1.1687254069,
				"z": 0.1906646346,
				"element": "H" 
			},
			{
				"x": -0.5937165285,
				"y": 0.0921928822,
				"z": 0.5950083534,
				"element": "H" 
			},
			{
				"x": -3.5211168889,
				"y": -4.1734765548,
				"z": -2.1185319792,
				"element": "H" 
			},
			{
				"x": -3.0992306686,
				"y": -2.4688933243,
				"z": -2.3912472806,
				"element": "H" 
			},
			{
				"x": -4.6819181488,
				"y": -2.9068532995,
				"z": -1.7120960668,
				"element": "H" 
			},
			{
				"x": -2.7490492787,
				"y": -3.7534231882,
				"z": 2.6112148973,
				"element": "H" 
			}
		],
		 "valence_orbital": [ 
			{
				"type": "occ",
				"energy": -0.3045,
				"method": "rhf"
			},
			{
				"type": "occ",
				"energy": -0.28857,
				"method": "rhf"
			},
			{
				"type": "occ",
				"energy": -0.28129,
				"method": "rhf"
			},
			{
				"type": "occ",
				"energy": -0.2725,
				"method": "rhf"
			},
			{
				"type": "occ",
				"energy": -0.22473,
				"method": "rhf"
			},
			{
				"type": "unocc",
				"energy": -0.00076,
				"method": "rhf"
			},
			{
				"type": "unocc",
				"energy": 0.01072,
				"method": "rhf"
			},
			{
				"type": "unocc",
				"energy": 0.01262,
				"method": "rhf"
			},
			{
				"type": "unocc",
				"energy": 0.05784,
				"method": "rhf"
			},
			{
				"type": "unocc",
				"energy": 0.07415,
				"method": "rhf"
			}
		],
		"cosmo_sigma_profile": { 
			"-0.025": 0.0,
			"-0.024": 0.0,
			"-0.023": 0.0,
			"-0.022": 0.0,
			"-0.021": 0.0,
			"-0.02": 0.0,
			"-0.019": 0.0,
			"-0.018": 0.380971583823,
			"-0.017": 1.67655536701,
			"-0.016": 1.78645478174,
			"-0.015": 0.71614640925,
			"-0.014": 1.07500161909,
			"-0.013": 1.25478397801,
			"-0.012": 1.16233840747,
			"-0.011": 0.865591061314,
			"-0.01": 0.496436345018,
			"-0.009": 1.78418074204,
			"-0.008": 4.57812277387,
			"-0.007": 3.97996437095,
			"-0.006": 5.70710029412,
			"-0.005": 15.4737841581,
			"-0.004": 23.0505660898,
			"-0.003": 21.1624405993,
			"-0.002": 19.5384970079,
			"-0.001": 21.7279622266,
			"0.0": 20.9361866681,
			"0.001": 13.940063766,
			"0.002": 10.5998072272,
			"0.003": 9.3001221251,
			"0.004": 10.3674138635,
			"0.005": 9.08484047849,
			"0.006": 9.81277230803,
			"0.007": 6.25519884342,
			"0.008": 4.38847290404,
			"0.009": 5.01962672279,
			"0.01": 4.39113972703,
			"0.011": 7.3571958583,
			"0.012": 2.16797411444,
			"0.013": 2.02300878906,
			"0.014": 1.11427552881,
			"0.015": 0.955176831246,
			"0.016": 0.0940695549269,
			"0.017": 0.0,
			"0.018": 0.0,
			"0.019": 0.0,
			"0.02": 0.0,
			"0.021": 0.0,
			"0.022": 0.0,
			"0.023": 0.0,
			"0.024": 0.0,
			"0.025": 0.0
		}
	}
}
