{
	 "smiles": "CC(CO)CC(C)(C)N", 
	 "Tm": 338.15, 
	 "num_atms": 26, 
	 "gaussian": { 
		 "optdone": 1, 
		 "sigma_profile": "yes", 
		 "theory": "DFT", 
		 "functional": "B3LYP", 
		 "basiset": "6-31G**", 
		 "properties": { 
			 "R2extent": 1770.612, 
			 "electric_dipole_moment_norm": 1.11992583237, 
			 "electric_quadrupole_moment_norm": 5.29864979311, 
			 "total_energy": -406.963416828, 
			 "HOMO_LUMO_gap": 0.29453, 
			 "cosmo_polarized_energy": -8.33, 
			 "cosmo_cavitation_energy": 25.56, 
			 "cosmo_dispersion_energy": -18.33, 
			 "cosmo_repulsion_energy": 1.5, 
			 "cosmo_total_nonelectrostatic_energy": 8.73, 
			 "SMD_solvation_energy": 4.22 
		},
		"coords": [
			{
				"x": 3.219756705,
				"y": -0.8449058551,
				"z": 0.5691239649,
				"element": "C" 
			},
			{
				"x": 2.2836381745,
				"y": -0.8017314524,
				"z": -0.6512420123,
				"element": "C" 
			},
			{
				"x": 1.8614575498,
				"y": -2.2224258952,
				"z": -1.0220927118,
				"element": "C" 
			},
			{
				"x": 1.1304375846,
				"y": -2.1814425283,
				"z": -2.2476361737,
				"element": "O" 
			},
			{
				"x": 1.1231664138,
				"y": 0.2216321818,
				"z": -0.5228096178,
				"element": "C" 
			},
			{
				"x": -0.1181827683,
				"y": -0.0479913495,
				"z": 0.3794185008,
				"element": "C" 
			},
			{
				"x": -0.7890673291,
				"y": 1.3154361675,
				"z": 0.6713896706,
				"element": "C" 
			},
			{
				"x": -1.1565283624,
				"y": -0.9470517246,
				"z": -0.317285636,
				"element": "C" 
			},
			{
				"x": 0.2899321244,
				"y": -0.7274413017,
				"z": 1.6289766418,
				"element": "N" 
			},
			{
				"x": 2.7304600352,
				"y": -1.308129909,
				"z": 1.4289420906,
				"element": "H" 
			},
			{
				"x": 3.5350124026,
				"y": 0.1648137437,
				"z": 0.855374491,
				"element": "H" 
			},
			{
				"x": 4.1265006282,
				"y": -1.4175400488,
				"z": 0.3423599452,
				"element": "H" 
			},
			{
				"x": 2.8802721447,
				"y": -0.4349745028,
				"z": -1.4994461057,
				"element": "H" 
			},
			{
				"x": 2.7664610065,
				"y": -2.8419044433,
				"z": -1.1331319634,
				"element": "H" 
			},
			{
				"x": 1.2629410497,
				"y": -2.6506307517,
				"z": -0.2059266155,
				"element": "H" 
			},
			{
				"x": 0.8458487899,
				"y": -3.0795494865,
				"z": -2.4560687058,
				"element": "H" 
			},
			{
				"x": 1.5845704029,
				"y": 1.1612130288,
				"z": -0.1864941983,
				"element": "H" 
			},
			{
				"x": 0.741252756,
				"y": 0.425074594,
				"z": -1.5291223842,
				"element": "H" 
			},
			{
				"x": -0.1155395362,
				"y": 1.9680691366,
				"z": 1.2394787757,
				"element": "H" 
			},
			{
				"x": -1.7040615756,
				"y": 1.1791752777,
				"z": 1.2603666922,
				"element": "H" 
			},
			{
				"x": -1.0619570864,
				"y": 1.841075697,
				"z": -0.2511794253,
				"element": "H" 
			},
			{
				"x": -0.7434035779,
				"y": -1.915957737,
				"z": -0.5938480918,
				"element": "H" 
			},
			{
				"x": -2.0168544817,
				"y": -1.1108787842,
				"z": 0.3440058916,
				"element": "H" 
			},
			{
				"x": -1.5251174474,
				"y": -0.4700813438,
				"z": -1.2303709683,
				"element": "H" 
			},
			{
				"x": 0.8902815884,
				"y": -0.1069448488,
				"z": 2.1702469173,
				"element": "H" 
			},
			{
				"x": -0.537577191,
				"y": -0.8790078643,
				"z": 2.2048710284,
				"element": "H" 
			}
		],
		 "valence_orbital": [ 
			{
				"type": "occ",
				"energy": -0.31587,
				"method": "rhf"
			},
			{
				"type": "occ",
				"energy": -0.30425,
				"method": "rhf"
			},
			{
				"type": "occ",
				"energy": -0.2948,
				"method": "rhf"
			},
			{
				"type": "occ",
				"energy": -0.25875,
				"method": "rhf"
			},
			{
				"type": "occ",
				"energy": -0.2278,
				"method": "rhf"
			},
			{
				"type": "unocc",
				"energy": 0.06673,
				"method": "rhf"
			},
			{
				"type": "unocc",
				"energy": 0.08492,
				"method": "rhf"
			},
			{
				"type": "unocc",
				"energy": 0.11294,
				"method": "rhf"
			},
			{
				"type": "unocc",
				"energy": 0.12974,
				"method": "rhf"
			},
			{
				"type": "unocc",
				"energy": 0.13263,
				"method": "rhf"
			}
		],
		"cosmo_sigma_profile": { 
			"-0.025": 0.0,
			"-0.024": 0.0,
			"-0.023": 0.0,
			"-0.022": 0.0,
			"-0.021": 0.0,
			"-0.02": 0.0,
			"-0.019": 0.0,
			"-0.018": 0.0,
			"-0.017": 0.0,
			"-0.016": 0.00275735135755,
			"-0.015": 0.823141765787,
			"-0.014": 1.03005527972,
			"-0.013": 0.803673124675,
			"-0.012": 0.957779171395,
			"-0.011": 1.01042843473,
			"-0.01": 1.06180631085,
			"-0.009": 1.34906975844,
			"-0.008": 2.53617278816,
			"-0.007": 3.0714037238,
			"-0.006": 4.59570304401,
			"-0.005": 4.55906289241,
			"-0.004": 5.28945267647,
			"-0.003": 10.6942658598,
			"-0.002": 28.8011229884,
			"-0.001": 26.6980897157,
			"0.0": 27.0013159352,
			"0.001": 23.6294344153,
			"0.002": 19.5475089106,
			"0.003": 5.01813307182,
			"0.004": 2.48153824029,
			"0.005": 2.72626036734,
			"0.006": 2.22394302841,
			"0.007": 2.3601446472,
			"0.008": 2.6627409217,
			"0.009": 2.19765665408,
			"0.01": 2.27663584272,
			"0.011": 2.18987347276,
			"0.012": 1.83583144761,
			"0.013": 2.39807350209,
			"0.014": 1.71777839759,
			"0.015": 0.817743252765,
			"0.016": 0.349390218627,
			"0.017": 0.0133552881871,
			"0.018": 0.0,
			"0.019": 0.0,
			"0.02": 0.0,
			"0.021": 0.0,
			"0.022": 0.0,
			"0.023": 0.0,
			"0.024": 0.0,
			"0.025": 0.0
		}
	}
}
