{
	 "smiles": "CN1N=C(C)C(C(=O)C(O)=O)=C1C", 
	 "Tm": 437.15, 
	 "num_atms": 23, 
	 "gaussian": { 
		 "optdone": 1, 
		 "sigma_profile": "yes", 
		 "theory": "DFT", 
		 "functional": "B3LYP", 
		 "basiset": "6-31G**", 
		 "properties": { 
			 "R2extent": 2699.8895, 
			 "electric_dipole_moment_norm": 5.71803803677, 
			 "electric_quadrupole_moment_norm": 4.11327281857, 
			 "total_energy": -646.055485627, 
			 "HOMO_LUMO_gap": 0.17391, 
			 "cosmo_polarized_energy": -12.55, 
			 "cosmo_cavitation_energy": 26.82, 
			 "cosmo_dispersion_energy": -19.79, 
			 "cosmo_repulsion_energy": 1.56, 
			 "cosmo_total_nonelectrostatic_energy": 8.58, 
			 "SMD_solvation_energy": 5.58 
		},
		"coords": [
			{
				"x": 1.0491325653,
				"y": 0.0712946628,
				"z": 3.3204271437,
				"element": "C" 
			},
			{
				"x": 0.5182943893,
				"y": -0.2932658926,
				"z": 2.0157204533,
				"element": "N" 
			},
			{
				"x": -0.5960371212,
				"y": -1.0877201824,
				"z": 1.9709152657,
				"element": "N" 
			},
			{
				"x": -0.8704016859,
				"y": -1.2688629566,
				"z": 0.688148924,
				"element": "C" 
			},
			{
				"x": -2.0600708344,
				"y": -2.114348321,
				"z": 0.3531860389,
				"element": "C" 
			},
			{
				"x": 0.0949181678,
				"y": -0.5712894508,
				"z": -0.1299323734,
				"element": "C" 
			},
			{
				"x": 0.3005348149,
				"y": -0.410007589,
				"z": -1.550374868,
				"element": "C" 
			},
			{
				"x": 1.2371675059,
				"y": 0.257451617,
				"z": -2.017926243,
				"element": "O" 
			},
			{
				"x": -0.6191632131,
				"y": -1.0468550608,
				"z": -2.6287483975,
				"element": "C" 
			},
			{
				"x": -0.1882103025,
				"y": -0.7308305599,
				"z": -3.8516258288,
				"element": "O" 
			},
			{
				"x": -1.591010927,
				"y": -1.7328948132,
				"z": -2.4181491132,
				"element": "O" 
			},
			{
				"x": 0.9708970968,
				"y": 0.0429658604,
				"z": 0.7976331156,
				"element": "C" 
			},
			{
				"x": 2.1725622254,
				"y": 0.9023364844,
				"z": 0.5812574743,
				"element": "C" 
			},
			{
				"x": 2.0717120586,
				"y": -0.2959265383,
				"z": 3.444896742,
				"element": "H" 
			},
			{
				"x": 0.4037732456,
				"y": -0.3982927439,
				"z": 4.0609082052,
				"element": "H" 
			},
			{
				"x": 1.0343668447,
				"y": 1.1557046494,
				"z": 3.4614193464,
				"element": "H" 
			},
			{
				"x": -2.7962805176,
				"y": -1.5591592385,
				"z": -0.2314204124,
				"element": "H" 
			},
			{
				"x": -1.7812544079,
				"y": -2.9793286925,
				"z": -0.2519526512,
				"element": "H" 
			},
			{
				"x": -2.5125301276,
				"y": -2.4514271628,
				"z": 1.2882817007,
				"element": "H" 
			},
			{
				"x": 0.6073007185,
				"y": -0.1713023046,
				"z": -3.6961205023,
				"element": "H" 
			},
			{
				"x": 2.6176084532,
				"y": 1.2147721632,
				"z": 1.5284985893,
				"element": "H" 
			},
			{
				"x": 2.9242663274,
				"y": 0.3699979515,
				"z": -0.0080298699,
				"element": "H" 
			},
			{
				"x": 1.9097247237,
				"y": 1.7903881181,
				"z": -0.0000127395,
				"element": "H" 
			}
		],
		 "valence_orbital": [ 
			{
				"type": "occ",
				"energy": -0.31558,
				"method": "rhf"
			},
			{
				"type": "occ",
				"energy": -0.29949,
				"method": "rhf"
			},
			{
				"type": "occ",
				"energy": -0.26073,
				"method": "rhf"
			},
			{
				"type": "occ",
				"energy": -0.25744,
				"method": "rhf"
			},
			{
				"type": "occ",
				"energy": -0.25456,
				"method": "rhf"
			},
			{
				"type": "unocc",
				"energy": -0.08065,
				"method": "rhf"
			},
			{
				"type": "unocc",
				"energy": 0.00698,
				"method": "rhf"
			},
			{
				"type": "unocc",
				"energy": 0.02934,
				"method": "rhf"
			},
			{
				"type": "unocc",
				"energy": 0.07838,
				"method": "rhf"
			},
			{
				"type": "unocc",
				"energy": 0.11034,
				"method": "rhf"
			}
		],
		"cosmo_sigma_profile": { 
			"-0.025": 0.0,
			"-0.024": 0.0,
			"-0.023": 0.0,
			"-0.022": 0.0,
			"-0.021": 0.0,
			"-0.02": 0.0,
			"-0.019": 0.0,
			"-0.018": 0.0,
			"-0.017": 0.0,
			"-0.016": 0.0,
			"-0.015": 0.0,
			"-0.014": 0.0279546617345,
			"-0.013": 0.514599761655,
			"-0.012": 0.338886650572,
			"-0.011": 0.869473458534,
			"-0.01": 0.648719192189,
			"-0.009": 0.503793948012,
			"-0.008": 1.19561778806,
			"-0.007": 8.77390105251,
			"-0.006": 15.0905712355,
			"-0.005": 14.039102203,
			"-0.004": 18.1097065451,
			"-0.003": 19.2285692628,
			"-0.002": 20.920180747,
			"-0.001": 17.2118111829,
			"0.0": 16.0739467619,
			"0.001": 13.1591254722,
			"0.002": 8.73160651632,
			"0.003": 5.95416532506,
			"0.004": 6.33727734449,
			"0.005": 5.94501995235,
			"0.006": 6.05357431951,
			"0.007": 5.8106711664,
			"0.008": 5.96600358007,
			"0.009": 7.26534246696,
			"0.01": 5.75998707079,
			"0.011": 3.88318393399,
			"0.012": 2.76826728193,
			"0.013": 0.74063029301,
			"0.014": 0.847534897132,
			"0.015": 0.201100765186,
			"0.016": 0.0,
			"0.017": 0.0,
			"0.018": 0.0,
			"0.019": 0.0,
			"0.02": 0.0,
			"0.021": 0.0,
			"0.022": 0.0,
			"0.023": 0.0,
			"0.024": 0.0,
			"0.025": 0.0
		}
	}
}
