{
	 "smiles": "CC1=CC=C(C=C1)N1C(N)=NC2=C1C=CC(C)=C2", 
	 "Tm": 436.15, 
	 "num_atms": 33, 
	 "gaussian": { 
		 "optdone": 1, 
		 "sigma_profile": "yes", 
		 "theory": "DFT", 
		 "functional": "B3LYP", 
		 "basiset": "6-31G**", 
		 "properties": { 
			 "R2extent": 6432.625, 
			 "electric_dipole_moment_norm": 4.50752132996, 
			 "electric_quadrupole_moment_norm": 8.84694012413, 
			 "total_energy": -744.924754826, 
			 "HOMO_LUMO_gap": 0.17437, 
			 "cosmo_polarized_energy": -13.43, 
			 "cosmo_cavitation_energy": 36.16, 
			 "cosmo_dispersion_energy": -26.16, 
			 "cosmo_repulsion_energy": 2.01, 
			 "cosmo_total_nonelectrostatic_energy": 12.02, 
			 "SMD_solvation_energy": 4.1 
		},
		"coords": [
			{
				"x": 0.9141929557,
				"y": 2.1611458544,
				"z": -3.4790195166,
				"element": "C" 
			},
			{
				"x": 0.5408903634,
				"y": 1.3335290975,
				"z": -2.272050353,
				"element": "C" 
			},
			{
				"x": -0.5119485329,
				"y": 1.7143924422,
				"z": -1.4299987442,
				"element": "C" 
			},
			{
				"x": -0.8720655281,
				"y": 0.9479087971,
				"z": -0.3223942855,
				"element": "C" 
			},
			{
				"x": -0.1880125076,
				"y": -0.2424129285,
				"z": -0.0452664028,
				"element": "C" 
			},
			{
				"x": 0.8632679479,
				"y": -0.6416370272,
				"z": -0.8807847778,
				"element": "C" 
			},
			{
				"x": 1.2238254167,
				"y": 0.1466814822,
				"z": -1.9711523324,
				"element": "C" 
			},
			{
				"x": -0.5458543735,
				"y": -1.0364318186,
				"z": 1.0778899571,
				"element": "N" 
			},
			{
				"x": -1.8131608966,
				"y": -1.5091371508,
				"z": 1.4099087505,
				"element": "C" 
			},
			{
				"x": -2.9265805482,
				"y": -1.1583485448,
				"z": 0.6728760049,
				"element": "N" 
			},
			{
				"x": -1.8424005273,
				"y": -2.2564864975,
				"z": 2.4850167241,
				"element": "N" 
			},
			{
				"x": -0.5233496543,
				"y": -2.2995999672,
				"z": 2.9222025466,
				"element": "C" 
			},
			{
				"x": 0.3134187634,
				"y": -1.5583078602,
				"z": 2.0590194387,
				"element": "C" 
			},
			{
				"x": 1.6795984318,
				"y": -1.4247293042,
				"z": 2.286125358,
				"element": "C" 
			},
			{
				"x": 2.2027119824,
				"y": -2.0740562333,
				"z": 3.4060722708,
				"element": "C" 
			},
			{
				"x": 1.3976189222,
				"y": -2.8330759871,
				"z": 4.2806520163,
				"element": "C" 
			},
			{
				"x": 2.0258128377,
				"y": -3.5398452999,
				"z": 5.4615325837,
				"element": "C" 
			},
			{
				"x": 0.0244197577,
				"y": -2.9395779698,
				"z": 4.0371044693,
				"element": "C" 
			},
			{
				"x": 0.626854873,
				"y": 3.2086808855,
				"z": -3.3500209752,
				"element": "H" 
			},
			{
				"x": 1.9909451534,
				"y": 2.1264590368,
				"z": -3.6708550855,
				"element": "H" 
			},
			{
				"x": 0.4120348954,
				"y": 1.7939339216,
				"z": -4.3829677618,
				"element": "H" 
			},
			{
				"x": -1.0507706038,
				"y": 2.6366978759,
				"z": -1.6319753087,
				"element": "H" 
			},
			{
				"x": -1.674097944,
				"y": 1.2688254213,
				"z": 0.3337364665,
				"element": "H" 
			},
			{
				"x": 1.3895008108,
				"y": -1.567348591,
				"z": -0.6724062277,
				"element": "H" 
			},
			{
				"x": 2.0463421524,
				"y": -0.1727225957,
				"z": -2.6062362658,
				"element": "H" 
			},
			{
				"x": -2.7768385568,
				"y": -1.0515649438,
				"z": -0.3222069428,
				"element": "H" 
			},
			{
				"x": -3.716378287,
				"y": -1.7487705541,
				"z": 0.8983580322,
				"element": "H" 
			},
			{
				"x": 2.3147330355,
				"y": -0.8342877474,
				"z": 1.6338123325,
				"element": "H" 
			},
			{
				"x": 3.2664199779,
				"y": -1.9874796147,
				"z": 3.612799024,
				"element": "H" 
			},
			{
				"x": 1.2746005384,
				"y": -3.8126376657,
				"z": 6.2084268119,
				"element": "H" 
			},
			{
				"x": 2.5321989144,
				"y": -4.4639270378,
				"z": 5.1543864943,
				"element": "H" 
			},
			{
				"x": 2.7757071936,
				"y": -2.9111687342,
				"z": 5.9535975223,
				"element": "H" 
			},
			{
				"x": -0.6194369634,
				"y": -3.5063007411,
				"z": 4.7034181764,
				"element": "H" 
			}
		],
		 "valence_orbital": [ 
			{
				"type": "occ",
				"energy": -0.26511,
				"method": "rhf"
			},
			{
				"type": "occ",
				"energy": -0.26345,
				"method": "rhf"
			},
			{
				"type": "occ",
				"energy": -0.24693,
				"method": "rhf"
			},
			{
				"type": "occ",
				"energy": -0.20556,
				"method": "rhf"
			},
			{
				"type": "occ",
				"energy": -0.19233,
				"method": "rhf"
			},
			{
				"type": "unocc",
				"energy": -0.01796,
				"method": "rhf"
			},
			{
				"type": "unocc",
				"energy": -0.01594,
				"method": "rhf"
			},
			{
				"type": "unocc",
				"energy": 0.00825,
				"method": "rhf"
			},
			{
				"type": "unocc",
				"energy": 0.03524,
				"method": "rhf"
			},
			{
				"type": "unocc",
				"energy": 0.07514,
				"method": "rhf"
			}
		],
		"cosmo_sigma_profile": { 
			"-0.025": 0.0,
			"-0.024": 0.0,
			"-0.023": 0.0,
			"-0.022": 0.0,
			"-0.021": 0.0,
			"-0.02": 0.0,
			"-0.019": 0.0,
			"-0.018": 0.0,
			"-0.017": 0.0,
			"-0.016": 0.0,
			"-0.015": 0.0,
			"-0.014": 0.248802461631,
			"-0.013": 2.09271572999,
			"-0.012": 1.69383267782,
			"-0.011": 2.8528037488,
			"-0.01": 2.50337613469,
			"-0.009": 1.93607980455,
			"-0.008": 1.61778243298,
			"-0.007": 2.18723035667,
			"-0.006": 6.90333474431,
			"-0.005": 14.3509977677,
			"-0.004": 26.1592473077,
			"-0.003": 26.7604926094,
			"-0.002": 25.4082037049,
			"-0.001": 27.7404942448,
			"0.0": 27.6293120499,
			"0.001": 22.7901584064,
			"0.002": 15.5888930057,
			"0.003": 15.3986665505,
			"0.004": 15.9592584676,
			"0.005": 14.7664558229,
			"0.006": 11.1965057522,
			"0.007": 7.24192432555,
			"0.008": 2.40621869925,
			"0.009": 2.67280612677,
			"0.01": 1.69253959593,
			"0.011": 1.12578260449,
			"0.012": 0.890101684286,
			"0.013": 1.07641370723,
			"0.014": 1.33329361968,
			"0.015": 0.964592379222,
			"0.016": 0.879284889339,
			"0.017": 1.00524081355,
			"0.018": 0.476611785207,
			"0.019": 0.0109120044114,
			"0.02": 0.0,
			"0.021": 0.0,
			"0.022": 0.0,
			"0.023": 0.0,
			"0.024": 0.0,
			"0.025": 0.0
		}
	}
}
