{
	 "smiles": "CSC1=NC(N)=NC(=N1)C1CC1", 
	 "Tm": 431.15, 
	 "num_atms": 22, 
	 "gaussian": { 
		 "optdone": 1, 
		 "sigma_profile": "yes", 
		 "theory": "DFT", 
		 "functional": "B3LYP", 
		 "basiset": "6-31G**", 
		 "properties": { 
			 "R2extent": 2742.0582, 
			 "electric_dipole_moment_norm": 1.49856425288, 
			 "electric_quadrupole_moment_norm": 13.6140049813, 
			 "total_energy": -889.969310908, 
			 "HOMO_LUMO_gap": 0.20687, 
			 "cosmo_polarized_energy": -11.31, 
			 "cosmo_cavitation_energy": 27.6, 
			 "cosmo_dispersion_energy": -20.57, 
			 "cosmo_repulsion_energy": 1.62, 
			 "cosmo_total_nonelectrostatic_energy": 8.65, 
			 "SMD_solvation_energy": 1.04 
		},
		"coords": [
			{
				"x": 2.7142870539,
				"y": 1.936454596,
				"z": -1.2614273968,
				"element": "C" 
			},
			{
				"x": 1.3508918689,
				"y": 1.5501608905,
				"z": -2.4101615126,
				"element": "S" 
			},
			{
				"x": 0.1163248836,
				"y": 0.9217658359,
				"z": -1.3058900135,
				"element": "C" 
			},
			{
				"x": -1.0150278657,
				"y": 0.5572366428,
				"z": -1.9127158184,
				"element": "N" 
			},
			{
				"x": -1.9498814648,
				"y": 0.0805990812,
				"z": -1.0721514951,
				"element": "C" 
			},
			{
				"x": -3.1237731681,
				"y": -0.3163965146,
				"z": -1.6112408618,
				"element": "N" 
			},
			{
				"x": -1.818447026,
				"y": -0.04062672,
				"z": 0.2673809163,
				"element": "N" 
			},
			{
				"x": -0.6385711965,
				"y": 0.3598247827,
				"z": 0.744749114,
				"element": "C" 
			},
			{
				"x": 0.374928052,
				"y": 0.8528686561,
				"z": 0.0021631489,
				"element": "N" 
			},
			{
				"x": -0.4355534877,
				"y": 0.250780178,
				"z": 2.2064856791,
				"element": "C" 
			},
			{
				"x": 0.4039208705,
				"y": 1.2942077271,
				"z": 2.9289003346,
				"element": "C" 
			},
			{
				"x": 0.9448608888,
				"y": -0.0861096704,
				"z": 2.7506670259,
				"element": "C" 
			},
			{
				"x": 3.5199414583,
				"y": 2.3336283563,
				"z": -1.8829813384,
				"element": "H" 
			},
			{
				"x": 3.0524969707,
				"y": 1.0382989174,
				"z": -0.7444179595,
				"element": "H" 
			},
			{
				"x": 2.406028388,
				"y": 2.6842776578,
				"z": -0.5305949914,
				"element": "H" 
			},
			{
				"x": -3.854651767,
				"y": -0.6489540911,
				"z": -1.005515799,
				"element": "H" 
			},
			{
				"x": -3.271830477,
				"y": -0.2141349631,
				"z": -2.6010158872,
				"element": "H" 
			},
			{
				"x": -1.2952602415,
				"y": -0.1536227879,
				"z": 2.728881957,
				"element": "H" 
			},
			{
				"x": 0.0626085042,
				"y": 1.6034923802,
				"z": 3.9119161583,
				"element": "H" 
			},
			{
				"x": 0.8236158775,
				"y": 2.0815922967,
				"z": 2.3121587252,
				"element": "H" 
			},
			{
				"x": 0.9853016868,
				"y": -0.7509241709,
				"z": 3.6078999295,
				"element": "H" 
			},
			{
				"x": 1.7283901912,
				"y": -0.2272190805,
				"z": 2.0140100848,
				"element": "H" 
			}
		],
		 "valence_orbital": [ 
			{
				"type": "occ",
				"energy": -0.27585,
				"method": "rhf"
			},
			{
				"type": "occ",
				"energy": -0.26249,
				"method": "rhf"
			},
			{
				"type": "occ",
				"energy": -0.25641,
				"method": "rhf"
			},
			{
				"type": "occ",
				"energy": -0.24813,
				"method": "rhf"
			},
			{
				"type": "occ",
				"energy": -0.2316,
				"method": "rhf"
			},
			{
				"type": "unocc",
				"energy": -0.02473,
				"method": "rhf"
			},
			{
				"type": "unocc",
				"energy": -0.00637,
				"method": "rhf"
			},
			{
				"type": "unocc",
				"energy": 0.0414,
				"method": "rhf"
			},
			{
				"type": "unocc",
				"energy": 0.0865,
				"method": "rhf"
			},
			{
				"type": "unocc",
				"energy": 0.09184,
				"method": "rhf"
			}
		],
		"cosmo_sigma_profile": { 
			"-0.025": 0.0,
			"-0.024": 0.0,
			"-0.023": 0.0,
			"-0.022": 0.0,
			"-0.021": 0.0,
			"-0.02": 0.0,
			"-0.019": 0.0,
			"-0.018": 0.0,
			"-0.017": 0.0,
			"-0.016": 0.0,
			"-0.015": 0.557315831837,
			"-0.014": 2.37071113775,
			"-0.013": 1.46426278519,
			"-0.012": 2.32581605233,
			"-0.011": 1.83681667045,
			"-0.01": 2.01106854253,
			"-0.009": 1.60868005727,
			"-0.008": 1.78801985959,
			"-0.007": 3.26506418931,
			"-0.006": 5.46628053515,
			"-0.005": 12.3622699575,
			"-0.004": 16.0567805256,
			"-0.003": 15.8481233015,
			"-0.002": 17.8108815929,
			"-0.001": 16.6059007726,
			"0.0": 15.7673201057,
			"0.001": 17.7900118389,
			"0.002": 17.9189102509,
			"0.003": 16.20815322,
			"0.004": 13.5792369218,
			"0.005": 9.9038783377,
			"0.006": 7.85832595312,
			"0.007": 7.30134522971,
			"0.008": 4.0017504577,
			"0.009": 1.78804632021,
			"0.01": 1.68683849744,
			"0.011": 2.23240607665,
			"0.012": 1.30559153519,
			"0.013": 1.66818923838,
			"0.014": 0.585765367066,
			"0.015": 0.0,
			"0.016": 0.0,
			"0.017": 0.0,
			"0.018": 0.0,
			"0.019": 0.0,
			"0.02": 0.0,
			"0.021": 0.0,
			"0.022": 0.0,
			"0.023": 0.0,
			"0.024": 0.0,
			"0.025": 0.0
		}
	}
}
