{
	 "smiles": "ClCC(=O)NC1=CC2=C(NC(=O)N2)C=C1", 
	 "Tm": 504.15, 
	 "num_atms": 23, 
	 "gaussian": { 
		 "optdone": 1, 
		 "sigma_profile": "yes", 
		 "theory": "DFT", 
		 "functional": "B3LYP", 
		 "basiset": "6-31G**", 
		 "properties": { 
			 "R2extent": 5622.7605, 
			 "electric_dipole_moment_norm": 3.43543669568, 
			 "electric_quadrupole_moment_norm": 17.2108265263, 
			 "total_energy": -1122.72712796, 
			 "HOMO_LUMO_gap": 0.18277, 
			 "cosmo_polarized_energy": -20.04, 
			 "cosmo_cavitation_energy": 29.65, 
			 "cosmo_dispersion_energy": -22.47, 
			 "cosmo_repulsion_energy": 1.77, 
			 "cosmo_total_nonelectrostatic_energy": 8.95, 
			 "SMD_solvation_energy": 5.79 
		},
		"coords": [
			{
				"x": -1.0481994132,
				"y": 0.8530743272,
				"z": 4.3582752553,
				"element": "Cl" 
			},
			{
				"x": -0.5606640967,
				"y": -0.888051871,
				"z": 4.1738320712,
				"element": "C" 
			},
			{
				"x": -0.1844848622,
				"y": -1.367355088,
				"z": 2.7666559893,
				"element": "C" 
			},
			{
				"x": 0.1420475529,
				"y": -2.5439571038,
				"z": 2.6632314775,
				"element": "O" 
			},
			{
				"x": -0.2451458684,
				"y": -0.453897178,
				"z": 1.7633728873,
				"element": "N" 
			},
			{
				"x": 0.0462333298,
				"y": -0.63438218,
				"z": 0.3900143541,
				"element": "C" 
			},
			{
				"x": 0.4638594854,
				"y": -1.8727529481,
				"z": -0.1301837037,
				"element": "C" 
			},
			{
				"x": 0.7202201369,
				"y": -1.9274974564,
				"z": -1.4923493839,
				"element": "C" 
			},
			{
				"x": 0.5746525106,
				"y": -0.8037311836,
				"z": -2.333302482,
				"element": "C" 
			},
			{
				"x": 0.912239636,
				"y": -1.220671782,
				"z": -3.6166704556,
				"element": "N" 
			},
			{
				"x": 1.2695458507,
				"y": -2.5705676032,
				"z": -3.6345685624,
				"element": "C" 
			},
			{
				"x": 1.6150206368,
				"y": -3.2404510592,
				"z": -4.5894798807,
				"element": "O" 
			},
			{
				"x": 1.1392352931,
				"y": -2.9744178696,
				"z": -2.3032380222,
				"element": "N" 
			},
			{
				"x": 0.1624610616,
				"y": 0.4151940901,
				"z": -1.8143849179,
				"element": "C" 
			},
			{
				"x": -0.1001084959,
				"y": 0.4869766426,
				"z": -0.4431838367,
				"element": "C" 
			},
			{
				"x": -1.395849207,
				"y": -1.4930569805,
				"z": 4.5272316051,
				"element": "H" 
			},
			{
				"x": 0.2952790683,
				"y": -1.0514911809,
				"z": 4.8288815281,
				"element": "H" 
			},
			{
				"x": -0.5367238185,
				"y": 0.4767980418,
				"z": 2.0330476749,
				"element": "H" 
			},
			{
				"x": 0.5732012439,
				"y": -2.7292220377,
				"z": 0.5197353589,
				"element": "H" 
			},
			{
				"x": 0.9156171721,
				"y": -0.6658038818,
				"z": -4.4569169202,
				"element": "H" 
			},
			{
				"x": 1.3362895077,
				"y": -3.9199157183,
				"z": -2.0173085216,
				"element": "H" 
			},
			{
				"x": 0.0447814132,
				"y": 1.2903502744,
				"z": -2.4449031483,
				"element": "H" 
			},
			{
				"x": -0.4242081371,
				"y": 1.4317297462,
				"z": -0.0153883665,
				"element": "H" 
			}
		],
		 "valence_orbital": [ 
			{
				"type": "occ",
				"energy": -0.28372,
				"method": "rhf"
			},
			{
				"type": "occ",
				"energy": -0.27038,
				"method": "rhf"
			},
			{
				"type": "occ",
				"energy": -0.26955,
				"method": "rhf"
			},
			{
				"type": "occ",
				"energy": -0.24094,
				"method": "rhf"
			},
			{
				"type": "occ",
				"energy": -0.20483,
				"method": "rhf"
			},
			{
				"type": "unocc",
				"energy": -0.02206,
				"method": "rhf"
			},
			{
				"type": "unocc",
				"energy": -0.00795,
				"method": "rhf"
			},
			{
				"type": "unocc",
				"energy": 0.00481,
				"method": "rhf"
			},
			{
				"type": "unocc",
				"energy": 0.0396,
				"method": "rhf"
			},
			{
				"type": "unocc",
				"energy": 0.06703,
				"method": "rhf"
			}
		],
		"cosmo_sigma_profile": { 
			"-0.025": 0.0,
			"-0.024": 0.0,
			"-0.023": 0.0,
			"-0.022": 0.0,
			"-0.021": 0.0,
			"-0.02": 0.0,
			"-0.019": 0.0,
			"-0.018": 0.0,
			"-0.017": 0.0424866324046,
			"-0.016": 2.17267082921,
			"-0.015": 2.59671826603,
			"-0.014": 2.35335826735,
			"-0.013": 3.16841364902,
			"-0.012": 2.60420615313,
			"-0.011": 2.52363741786,
			"-0.01": 3.36960956627,
			"-0.009": 7.40637656278,
			"-0.008": 7.84856428192,
			"-0.007": 9.75229551707,
			"-0.006": 10.1100169162,
			"-0.005": 11.5133478306,
			"-0.004": 9.28230088429,
			"-0.003": 7.78920364812,
			"-0.002": 8.54586410073,
			"-0.001": 11.4836122175,
			"0.0": 16.9938389488,
			"0.001": 18.012415561,
			"0.002": 16.2636618323,
			"0.003": 17.3080177406,
			"0.004": 17.5167480536,
			"0.005": 14.5014312321,
			"0.006": 4.40501913109,
			"0.007": 2.18513230802,
			"0.008": 2.27754459239,
			"0.009": 2.33433976548,
			"0.01": 3.3315710825,
			"0.011": 3.62684127551,
			"0.012": 4.96591534022,
			"0.013": 6.7294064796,
			"0.014": 6.22289940579,
			"0.015": 0.489290464619,
			"0.016": 0.0,
			"0.017": 0.0,
			"0.018": 0.0,
			"0.019": 0.0,
			"0.02": 0.0,
			"0.021": 0.0,
			"0.022": 0.0,
			"0.023": 0.0,
			"0.024": 0.0,
			"0.025": 0.0
		}
	}
}
