{
	 "smiles": "OC(=O)C(CC1=CNC=N1)NC(=O)C1CCCCC1", 
	 "Tm": 401.15, 
	 "num_atms": 38, 
	 "gaussian": { 
		 "optdone": 1, 
		 "sigma_profile": "yes", 
		 "theory": "DFT", 
		 "functional": "B3LYP", 
		 "basiset": "6-31G**", 
		 "properties": { 
			 "R2extent": 6746.5066, 
			 "electric_dipole_moment_norm": 6.13162468029, 
			 "electric_quadrupole_moment_norm": 27.822149624, 
			 "total_energy": -896.821786899, 
			 "HOMO_LUMO_gap": 0.23848, 
			 "cosmo_polarized_energy": -19.88, 
			 "cosmo_cavitation_energy": 39.13, 
			 "cosmo_dispersion_energy": -27.66, 
			 "cosmo_repulsion_energy": 2.17, 
			 "cosmo_total_nonelectrostatic_energy": 13.64, 
			 "SMD_solvation_energy": 5.83 
		},
		"coords": [
			{
				"x": -2.7111170467,
				"y": -1.2571459865,
				"z": -1.7465575369,
				"element": "O" 
			},
			{
				"x": -1.7591951366,
				"y": -1.10627948,
				"z": -2.6680263612,
				"element": "C" 
			},
			{
				"x": -1.7414886047,
				"y": -1.7508417104,
				"z": -3.6945408336,
				"element": "O" 
			},
			{
				"x": -0.7149176946,
				"y": -0.0011007663,
				"z": -2.3600550844,
				"element": "C" 
			},
			{
				"x": 0.3550153362,
				"y": 0.0898080669,
				"z": -3.4641549932,
				"element": "C" 
			},
			{
				"x": 1.3382166171,
				"y": -1.0435646417,
				"z": -3.4560801104,
				"element": "C" 
			},
			{
				"x": 1.4881269722,
				"y": -2.073438799,
				"z": -4.3500386651,
				"element": "C" 
			},
			{
				"x": 2.5269516117,
				"y": -2.8390769943,
				"z": -3.8614344214,
				"element": "N" 
			},
			{
				"x": 2.9532976446,
				"y": -2.2621926418,
				"z": -2.7030039511,
				"element": "C" 
			},
			{
				"x": 2.2612080306,
				"y": -1.1753637249,
				"z": -2.4289440968,
				"element": "N" 
			},
			{
				"x": -0.0657486812,
				"y": -0.1619337134,
				"z": -1.0532983185,
				"element": "N" 
			},
			{
				"x": -0.6822515835,
				"y": 0.098548685,
				"z": 0.1166391706,
				"element": "C" 
			},
			{
				"x": -1.8999939078,
				"y": 0.3602828756,
				"z": 0.1741600511,
				"element": "O" 
			},
			{
				"x": 0.1744064862,
				"y": 0.0689130169,
				"z": 1.3729050099,
				"element": "C" 
			},
			{
				"x": -0.3948756693,
				"y": -0.95034749,
				"z": 2.3837280836,
				"element": "C" 
			},
			{
				"x": 0.3896405504,
				"y": -0.938378561,
				"z": 3.7036809362,
				"element": "C" 
			},
			{
				"x": 0.4453006923,
				"y": 0.4688116562,
				"z": 4.3163215196,
				"element": "C" 
			},
			{
				"x": 1.0130646568,
				"y": 1.4879967676,
				"z": 3.3175516387,
				"element": "C" 
			},
			{
				"x": 0.2296800243,
				"y": 1.4827154744,
				"z": 1.9968087045,
				"element": "C" 
			},
			{
				"x": -2.5771735472,
				"y": -0.6071516447,
				"z": -1.0016960056,
				"element": "H" 
			},
			{
				"x": -1.2791867979,
				"y": 0.9417114888,
				"z": -2.3284725695,
				"element": "H" 
			},
			{
				"x": -0.1611229887,
				"y": 0.1227454346,
				"z": -4.4250711013,
				"element": "H" 
			},
			{
				"x": 0.8952480577,
				"y": 1.0348597769,
				"z": -3.3364857702,
				"element": "H" 
			},
			{
				"x": 0.9419374995,
				"y": -2.3346147519,
				"z": -5.2419616895,
				"element": "H" 
			},
			{
				"x": 2.8969370332,
				"y": -3.6771666566,
				"z": -4.2832713682,
				"element": "H" 
			},
			{
				"x": 3.7617589051,
				"y": -2.6678777755,
				"z": -2.1110916672,
				"element": "H" 
			},
			{
				"x": 0.9136280024,
				"y": -0.4461230635,
				"z": -1.0754640642,
				"element": "H" 
			},
			{
				"x": 1.1965008573,
				"y": -0.2323574469,
				"z": 1.1033067707,
				"element": "H" 
			},
			{
				"x": -1.4456464819,
				"y": -0.6963562372,
				"z": 2.5666346932,
				"element": "H" 
			},
			{
				"x": -0.3850978252,
				"y": -1.9550789325,
				"z": 1.94398485,
				"element": "H" 
			},
			{
				"x": -0.0643200479,
				"y": -1.6442261445,
				"z": 4.409200626,
				"element": "H" 
			},
			{
				"x": 1.4138147741,
				"y": -1.2955168228,
				"z": 3.5229763734,
				"element": "H" 
			},
			{
				"x": 1.0459910221,
				"y": 0.4608465983,
				"z": 5.2335980728,
				"element": "H" 
			},
			{
				"x": -0.5688439236,
				"y": 0.7758000628,
				"z": 4.6079609025,
				"element": "H" 
			},
			{
				"x": 2.0675741825,
				"y": 1.2503332807,
				"z": 3.1165141925,
				"element": "H" 
			},
			{
				"x": 0.9994604812,
				"y": 2.4953669686,
				"z": 3.7502702033,
				"element": "H" 
			},
			{
				"x": -0.7999071257,
				"y": 1.8190803097,
				"z": 2.1687478666,
				"element": "H" 
			},
			{
				"x": 0.6790276248,
				"y": 2.1856135226,
				"z": 1.2847589433,
				"element": "H" 
			}
		],
		 "valence_orbital": [ 
			{
				"type": "occ",
				"energy": -0.28912,
				"method": "rhf"
			},
			{
				"type": "occ",
				"energy": -0.27989,
				"method": "rhf"
			},
			{
				"type": "occ",
				"energy": -0.26085,
				"method": "rhf"
			},
			{
				"type": "occ",
				"energy": -0.24512,
				"method": "rhf"
			},
			{
				"type": "occ",
				"energy": -0.23042,
				"method": "rhf"
			},
			{
				"type": "unocc",
				"energy": 0.00806,
				"method": "rhf"
			},
			{
				"type": "unocc",
				"energy": 0.01719,
				"method": "rhf"
			},
			{
				"type": "unocc",
				"energy": 0.02748,
				"method": "rhf"
			},
			{
				"type": "unocc",
				"energy": 0.05027,
				"method": "rhf"
			},
			{
				"type": "unocc",
				"energy": 0.06431,
				"method": "rhf"
			}
		],
		"cosmo_sigma_profile": { 
			"-0.025": 0.0,
			"-0.024": 0.0,
			"-0.023": 0.0,
			"-0.022": 0.0,
			"-0.021": 0.0,
			"-0.02": 0.0,
			"-0.019": 0.0,
			"-0.018": 0.0,
			"-0.017": 0.526363989938,
			"-0.016": 2.07412455566,
			"-0.015": 1.29361235736,
			"-0.014": 1.39678304649,
			"-0.013": 1.68750487622,
			"-0.012": 0.839200194849,
			"-0.011": 0.995953127938,
			"-0.01": 1.25091379401,
			"-0.009": 3.16353371958,
			"-0.008": 7.15243982444,
			"-0.007": 7.73614654655,
			"-0.006": 7.46493059892,
			"-0.005": 10.9489205953,
			"-0.004": 13.5849566024,
			"-0.003": 24.5949601813,
			"-0.002": 38.3622159958,
			"-0.001": 38.4460845309,
			"0.0": 35.2190275104,
			"0.001": 23.2756311161,
			"0.002": 10.6927377115,
			"0.003": 9.27606583571,
			"0.004": 10.8870799448,
			"0.005": 6.79533676228,
			"0.006": 5.39122440044,
			"0.007": 6.5958174884,
			"0.008": 4.97096953029,
			"0.009": 5.79420789158,
			"0.01": 5.67821646914,
			"0.011": 7.02305851723,
			"0.012": 7.33558060579,
			"0.013": 4.25506229121,
			"0.014": 1.31465622993,
			"0.015": 0.178396740496,
			"0.016": 0.0,
			"0.017": 0.0,
			"0.018": 0.0,
			"0.019": 0.0,
			"0.02": 0.0,
			"0.021": 0.0,
			"0.022": 0.0,
			"0.023": 0.0,
			"0.024": 0.0,
			"0.025": 0.0
		}
	}
}
