{
	 "smiles": "FC(F)(F)C1=CC=CC(CS(=O)(=O)CC#N)=C1", 
	 "Tm": 393.15, 
	 "num_atms": 25, 
	 "gaussian": { 
		 "optdone": 1, 
		 "sigma_profile": "yes", 
		 "theory": "DFT", 
		 "functional": "B3LYP", 
		 "basiset": "6-31G**", 
		 "properties": { 
			 "R2extent": 5456.275, 
			 "electric_dipole_moment_norm": 3.12910143971, 
			 "electric_quadrupole_moment_norm": 18.6100381969, 
			 "total_energy": -1288.71385798, 
			 "HOMO_LUMO_gap": 0.22547, 
			 "cosmo_polarized_energy": -18.32, 
			 "cosmo_cavitation_energy": 33.39, 
			 "cosmo_dispersion_energy": -22.36, 
			 "cosmo_repulsion_energy": 1.63, 
			 "cosmo_total_nonelectrostatic_energy": 12.66, 
			 "SMD_solvation_energy": 7.18 
		},
		"coords": [
			{
				"x": 1.7687954465,
				"y": -4.8116315028,
				"z": 0.4250488534,
				"element": "F" 
			},
			{
				"x": 2.1840667255,
				"y": -3.5308981077,
				"z": 0.30902474,
				"element": "C" 
			},
			{
				"x": 2.993984522,
				"y": -3.4588055328,
				"z": -0.7675090099,
				"element": "F" 
			},
			{
				"x": 2.9410203896,
				"y": -3.2633085285,
				"z": 1.3968955624,
				"element": "F" 
			},
			{
				"x": 1.0196717163,
				"y": -2.5795723083,
				"z": 0.2027504564,
				"element": "C" 
			},
			{
				"x": -0.1521846128,
				"y": -2.8427306442,
				"z": 0.9193383887,
				"element": "C" 
			},
			{
				"x": -1.210595428,
				"y": -1.938835547,
				"z": 0.8629902783,
				"element": "C" 
			},
			{
				"x": -1.1013788669,
				"y": -0.7788142964,
				"z": 0.0943955996,
				"element": "C" 
			},
			{
				"x": 0.0688304531,
				"y": -0.5141973205,
				"z": -0.6308895596,
				"element": "C" 
			},
			{
				"x": 0.1739001475,
				"y": 0.7308930228,
				"z": -1.4674152549,
				"element": "C" 
			},
			{
				"x": 1.2871438206,
				"y": 2.0202485774,
				"z": -0.7798497131,
				"element": "S" 
			},
			{
				"x": 2.6173100777,
				"y": 1.4420996423,
				"z": -0.5508191177,
				"element": "O" 
			},
			{
				"x": 1.1114672715,
				"y": 3.2334068798,
				"z": -1.5839262993,
				"element": "O" 
			},
			{
				"x": 0.6058524643,
				"y": 2.3506093194,
				"z": 0.9139733002,
				"element": "C" 
			},
			{
				"x": -0.7984329045,
				"y": 2.7192143956,
				"z": 0.8986069045,
				"element": "C" 
			},
			{
				"x": -1.9312087248,
				"y": 2.9693978994,
				"z": 0.8508296072,
				"element": "N" 
			},
			{
				"x": 1.1333714314,
				"y": -1.4239775281,
				"z": -0.5690019269,
				"element": "C" 
			},
			{
				"x": -0.2336583775,
				"y": -3.7520627595,
				"z": 1.5049493968,
				"element": "H" 
			},
			{
				"x": -2.1251504909,
				"y": -2.1388043623,
				"z": 1.4122223402,
				"element": "H" 
			},
			{
				"x": -1.9307022452,
				"y": -0.0780509967,
				"z": 0.0528197268,
				"element": "H" 
			},
			{
				"x": 0.6244296249,
				"y": 0.5479559224,
				"z": -2.448214023,
				"element": "H" 
			},
			{
				"x": -0.7887750053,
				"y": 1.2248309771,
				"z": -1.6154971674,
				"element": "H" 
			},
			{
				"x": 0.7732854467,
				"y": 1.4510632438,
				"z": 1.5110306645,
				"element": "H" 
			},
			{
				"x": 1.2325776028,
				"y": 3.162159838,
				"z": 1.2952548252,
				"element": "H" 
			},
			{
				"x": 2.0481795157,
				"y": -1.2282902832,
				"z": -1.1170085722,
				"element": "H" 
			}
		],
		 "valence_orbital": [ 
			{
				"type": "occ",
				"energy": -0.33949,
				"method": "rhf"
			},
			{
				"type": "occ",
				"energy": -0.32318,
				"method": "rhf"
			},
			{
				"type": "occ",
				"energy": -0.31694,
				"method": "rhf"
			},
			{
				"type": "occ",
				"energy": -0.28797,
				"method": "rhf"
			},
			{
				"type": "occ",
				"energy": -0.27903,
				"method": "rhf"
			},
			{
				"type": "unocc",
				"energy": -0.05356,
				"method": "rhf"
			},
			{
				"type": "unocc",
				"energy": -0.0459,
				"method": "rhf"
			},
			{
				"type": "unocc",
				"energy": -0.02358,
				"method": "rhf"
			},
			{
				"type": "unocc",
				"energy": 0.00467,
				"method": "rhf"
			},
			{
				"type": "unocc",
				"energy": 0.04391,
				"method": "rhf"
			}
		],
		"cosmo_sigma_profile": { 
			"-0.025": 0.0,
			"-0.024": 0.0,
			"-0.023": 0.0,
			"-0.022": 0.0,
			"-0.021": 0.0,
			"-0.02": 0.0,
			"-0.019": 0.0,
			"-0.018": 0.0,
			"-0.017": 0.0,
			"-0.016": 0.0,
			"-0.015": 0.0,
			"-0.014": 0.0,
			"-0.013": 1.53748229454,
			"-0.012": 2.59648211338,
			"-0.011": 4.25818479938,
			"-0.01": 5.54556341578,
			"-0.009": 7.94691791356,
			"-0.008": 9.15925596596,
			"-0.007": 12.258869972,
			"-0.006": 13.4272642305,
			"-0.005": 12.4692456232,
			"-0.004": 10.8283808256,
			"-0.003": 9.90671777611,
			"-0.002": 11.5690925726,
			"-0.001": 13.6272058315,
			"0.0": 15.077128134,
			"0.001": 18.5783208589,
			"0.002": 31.6274637293,
			"0.003": 31.9055894264,
			"0.004": 5.88000891264,
			"0.005": 4.01638285588,
			"0.006": 5.32697511565,
			"0.007": 5.50991447218,
			"0.008": 5.19628455739,
			"0.009": 8.47242590768,
			"0.01": 12.1180362155,
			"0.011": 8.28147475025,
			"0.012": 1.03282875008,
			"0.013": 0.0,
			"0.014": 0.0,
			"0.015": 0.0,
			"0.016": 0.0,
			"0.017": 0.0,
			"0.018": 0.0,
			"0.019": 0.0,
			"0.02": 0.0,
			"0.021": 0.0,
			"0.022": 0.0,
			"0.023": 0.0,
			"0.024": 0.0,
			"0.025": 0.0
		}
	}
}
