{
	 "smiles": "CC12CCC3C(CCC4=CC(=O)CCC34C)C1CC[C@@]2(O)C#CC1=CC=CC=C1", 
	 "Tm": 459.15, 
	 "num_atms": 61, 
	 "gaussian": { 
		 "optdone": 1, 
		 "sigma_profile": "yes", 
		 "theory": "DFT", 
		 "functional": "B3LYP", 
		 "basiset": "6-31G**", 
		 "properties": { 
			 "R2extent": 14420.3874, 
			 "electric_dipole_moment_norm": 5.30957466658, 
			 "electric_quadrupole_moment_norm": 31.0156982452, 
			 "total_energy": -1198.53943707, 
			 "HOMO_LUMO_gap": 0.18606, 
			 "cosmo_polarized_energy": -16.56, 
			 "cosmo_cavitation_energy": 56.82, 
			 "cosmo_dispersion_energy": -37.77, 
			 "cosmo_repulsion_energy": 2.79, 
			 "cosmo_total_nonelectrostatic_energy": 21.83, 
			 "SMD_solvation_energy": 8.88 
		},
		"coords": [
			{
				"x": 2.0102047208,
				"y": -2.3920597507,
				"z": -1.2949547637,
				"element": "C" 
			},
			{
				"x": 1.2572417847,
				"y": -1.5963354541,
				"z": -0.2048442899,
				"element": "C" 
			},
			{
				"x": -0.2310722204,
				"y": -2.0547453701,
				"z": -0.2105182319,
				"element": "C" 
			},
			{
				"x": -1.2462412887,
				"y": -0.8934894972,
				"z": -0.2815425101,
				"element": "C" 
			},
			{
				"x": -0.9373609336,
				"y": 0.2322224383,
				"z": -1.3153131717,
				"element": "C" 
			},
			{
				"x": 0.5791348405,
				"y": 0.4067270136,
				"z": -1.6133134998,
				"element": "C" 
			},
			{
				"x": 0.8189952452,
				"y": 1.8573303424,
				"z": -2.0681930212,
				"element": "C" 
			},
			{
				"x": -0.3326512646,
				"y": 2.3378740132,
				"z": -3.0066483653,
				"element": "C" 
			},
			{
				"x": -1.0448636381,
				"y": 1.1652134375,
				"z": -3.6359650779,
				"element": "C" 
			},
			{
				"x": -1.038028053,
				"y": 0.9638021306,
				"z": -4.9699593886,
				"element": "C" 
			},
			{
				"x": -1.665988458,
				"y": -0.19404437,
				"z": -5.6298211269,
				"element": "C" 
			},
			{
				"x": -1.6564872917,
				"y": -0.3246649649,
				"z": -6.8470018118,
				"element": "O" 
			},
			{
				"x": -2.3396822417,
				"y": -1.216641547,
				"z": -4.7217956905,
				"element": "C" 
			},
			{
				"x": -1.7780633831,
				"y": -1.2101162441,
				"z": -3.2935570339,
				"element": "C" 
			},
			{
				"x": -1.739603011,
				"y": 0.2024004564,
				"z": -2.6623473716,
				"element": "C" 
			},
			{
				"x": -3.1795759013,
				"y": 0.7123733593,
				"z": -2.4007251894,
				"element": "C" 
			},
			{
				"x": 1.3635241011,
				"y": -0.0588433983,
				"z": -0.3898001757,
				"element": "C" 
			},
			{
				"x": 2.8613527204,
				"y": 0.2305148079,
				"z": -0.1978439586,
				"element": "C" 
			},
			{
				"x": 3.2737236501,
				"y": -0.7648301813,
				"z": 0.9262835863,
				"element": "C" 
			},
			{
				"x": 2.0693484889,
				"y": -1.7475018573,
				"z": 1.1380450219,
				"element": "C" 
			},
			{
				"x": 2.6129666529,
				"y": -3.0538364012,
				"z": 1.3521187088,
				"element": "O" 
			},
			{
				"x": 1.2556338456,
				"y": -1.3672103217,
				"z": 2.3059199652,
				"element": "C" 
			},
			{
				"x": 0.5819134554,
				"y": -1.1126883878,
				"z": 3.2843244189,
				"element": "C" 
			},
			{
				"x": -0.1884228892,
				"y": -0.7954508474,
				"z": 4.4464424385,
				"element": "C" 
			},
			{
				"x": -1.5960092852,
				"y": -0.8338610632,
				"z": 4.4095673822,
				"element": "C" 
			},
			{
				"x": -2.3394221146,
				"y": -0.522756557,
				"z": 5.545455519,
				"element": "C" 
			},
			{
				"x": -1.69536408,
				"y": -0.1707932692,
				"z": 6.7340970583,
				"element": "C" 
			},
			{
				"x": -0.299647882,
				"y": -0.1309648053,
				"z": 6.7818212635,
				"element": "C" 
			},
			{
				"x": 0.451102129,
				"y": -0.4396092631,
				"z": 5.6502520607,
				"element": "C" 
			},
			{
				"x": 3.0747266701,
				"y": -2.1551163152,
				"z": -1.3508823457,
				"element": "H" 
			},
			{
				"x": 1.9353334927,
				"y": -3.4612903379,
				"z": -1.0820381081,
				"element": "H" 
			},
			{
				"x": 1.5727269831,
				"y": -2.2154066858,
				"z": -2.2819644686,
				"element": "H" 
			},
			{
				"x": -0.3873991213,
				"y": -2.7222100453,
				"z": -1.0646118177,
				"element": "H" 
			},
			{
				"x": -0.4553625645,
				"y": -2.6539206584,
				"z": 0.6810897804,
				"element": "H" 
			},
			{
				"x": -2.2476869821,
				"y": -1.3049924768,
				"z": -0.4527797288,
				"element": "H" 
			},
			{
				"x": -1.2906232679,
				"y": -0.4286843139,
				"z": 0.708839752,
				"element": "H" 
			},
			{
				"x": -1.2442159914,
				"y": 1.1618645098,
				"z": -0.8156512909,
				"element": "H" 
			},
			{
				"x": 0.8451847884,
				"y": -0.2383737883,
				"z": -2.4615821707,
				"element": "H" 
			},
			{
				"x": 0.8792190332,
				"y": 2.5220975422,
				"z": -1.1973403508,
				"element": "H" 
			},
			{
				"x": 1.7783821609,
				"y": 1.9304218986,
				"z": -2.591281532,
				"element": "H" 
			},
			{
				"x": -1.0573427788,
				"y": 2.9146299594,
				"z": -2.4171178688,
				"element": "H" 
			},
			{
				"x": 0.0473381274,
				"y": 3.0129481956,
				"z": -3.7784378536,
				"element": "H" 
			},
			{
				"x": -0.5444696958,
				"y": 1.6669726589,
				"z": -5.637357927,
				"element": "H" 
			},
			{
				"x": -2.2398538016,
				"y": -2.2001231489,
				"z": -5.190934684,
				"element": "H" 
			},
			{
				"x": -3.4141517085,
				"y": -0.9888953334,
				"z": -4.7189507959,
				"element": "H" 
			},
			{
				"x": -2.3662381201,
				"y": -1.8853359674,
				"z": -2.6623787491,
				"element": "H" 
			},
			{
				"x": -0.7584655195,
				"y": -1.6131941804,
				"z": -3.3197266001,
				"element": "H" 
			},
			{
				"x": -3.7860026278,
				"y": 0.7113077534,
				"z": -3.3101354602,
				"element": "H" 
			},
			{
				"x": -3.1697170022,
				"y": 1.736403802,
				"z": -2.0134198403,
				"element": "H" 
			},
			{
				"x": -3.6811300343,
				"y": 0.0822231253,
				"z": -1.6580514259,
				"element": "H" 
			},
			{
				"x": 0.8694347591,
				"y": 0.3922459405,
				"z": 0.4840804678,
				"element": "H" 
			},
			{
				"x": 3.0469737577,
				"y": 1.2706521618,
				"z": 0.0852929319,
				"element": "H" 
			},
			{
				"x": 3.4296613455,
				"y": 0.0438910985,
				"z": -1.1150943917,
				"element": "H" 
			},
			{
				"x": 3.5203555878,
				"y": -0.2564951058,
				"z": 1.8607150072,
				"element": "H" 
			},
			{
				"x": 4.1410702696,
				"y": -1.3685092334,
				"z": 0.6477719961,
				"element": "H" 
			},
			{
				"x": 1.9021830303,
				"y": -3.6148048213,
				"z": 1.6914561876,
				"element": "H" 
			},
			{
				"x": -2.0938049016,
				"y": -1.1097564238,
				"z": 3.4852941233,
				"element": "H" 
			},
			{
				"x": -3.424305808,
				"y": -0.5557781925,
				"z": 5.5035381814,
				"element": "H" 
			},
			{
				"x": -2.2778213889,
				"y": 0.0706445682,
				"z": 7.6183865157,
				"element": "H" 
			},
			{
				"x": 0.2057132384,
				"y": 0.1415389479,
				"z": 7.7038275722,
				"element": "H" 
			},
			{
				"x": 1.5354303717,
				"y": -0.4099695818,
				"z": 5.6831621497,
				"element": "H" 
			}
		],
		 "valence_orbital": [ 
			{
				"type": "occ",
				"energy": -0.2607,
				"method": "rhf"
			},
			{
				"type": "occ",
				"energy": -0.25683,
				"method": "rhf"
			},
			{
				"type": "occ",
				"energy": -0.25061,
				"method": "rhf"
			},
			{
				"type": "occ",
				"energy": -0.23151,
				"method": "rhf"
			},
			{
				"type": "occ",
				"energy": -0.22836,
				"method": "rhf"
			},
			{
				"type": "unocc",
				"energy": -0.0423,
				"method": "rhf"
			},
			{
				"type": "unocc",
				"energy": -0.03586,
				"method": "rhf"
			},
			{
				"type": "unocc",
				"energy": -0.00978,
				"method": "rhf"
			},
			{
				"type": "unocc",
				"energy": 0.04638,
				"method": "rhf"
			},
			{
				"type": "unocc",
				"energy": 0.05443,
				"method": "rhf"
			}
		],
		"cosmo_sigma_profile": { 
			"-0.025": 0.0,
			"-0.024": 0.0,
			"-0.023": 0.0,
			"-0.022": 0.0,
			"-0.021": 0.0,
			"-0.02": 0.0,
			"-0.019": 0.0,
			"-0.018": 0.0,
			"-0.017": 0.0,
			"-0.016": 0.0,
			"-0.015": 0.449343435827,
			"-0.014": 0.734311462841,
			"-0.013": 0.873597626154,
			"-0.012": 0.474380242221,
			"-0.011": 0.77902046864,
			"-0.01": 0.479664657478,
			"-0.009": 1.06879897415,
			"-0.008": 1.41153975786,
			"-0.007": 1.79350012068,
			"-0.006": 9.22651302922,
			"-0.005": 16.3984984579,
			"-0.004": 33.6374680109,
			"-0.003": 47.1869752132,
			"-0.002": 61.0641048222,
			"-0.001": 60.4391610652,
			"0.0": 51.4375633732,
			"0.001": 37.734495533,
			"0.002": 23.705775159,
			"0.003": 23.5211604799,
			"0.004": 20.6338783265,
			"0.005": 15.0592621464,
			"0.006": 3.98469031904,
			"0.007": 3.14978854655,
			"0.008": 3.77945584221,
			"0.009": 2.84264451919,
			"0.01": 2.64742904149,
			"0.011": 2.71074413615,
			"0.012": 4.4907780038,
			"0.013": 6.67830428237,
			"0.014": 3.75334303278,
			"0.015": 0.784899205962,
			"0.016": 0.0,
			"0.017": 0.0,
			"0.018": 0.0,
			"0.019": 0.0,
			"0.02": 0.0,
			"0.021": 0.0,
			"0.022": 0.0,
			"0.023": 0.0,
			"0.024": 0.0,
			"0.025": 0.0
		}
	}
}
