{
	 "smiles": "COC1=C(C=C(Br)C=C1)C(=O)C(O)=O", 
	 "Tm": 411.15, 
	 "num_atms": 21, 
	 "gaussian": { 
		 "optdone": 1, 
		 "sigma_profile": "yes", 
		 "theory": "DFT", 
		 "functional": "B3LYP", 
		 "basiset": "6-31G**", 
		 "properties": { 
			 "R2extent": 6696.226, 
			 "electric_dipole_moment_norm": 5.38055137881, 
			 "electric_quadrupole_moment_norm": 8.8142724487, 
			 "total_energy": -3219.457142, 
			 "HOMO_LUMO_gap": 0.1601, 
			 "cosmo_polarized_energy": -15.19, 
			 "cosmo_cavitation_energy": 29.16, 
			 "cosmo_dispersion_energy": -20.91, 
			 "cosmo_repulsion_energy": 1.66, 
			 "cosmo_total_nonelectrostatic_energy": 9.91, 
			 "SMD_solvation_energy": 6.45 
		},
		"coords": [
			{
				"x": 0.1268441315,
				"y": 2.3000862545,
				"z": -0.7725402744,
				"element": "C" 
			},
			{
				"x": 0.2056328179,
				"y": 0.8808291441,
				"z": -0.6979461597,
				"element": "O" 
			},
			{
				"x": 1.3112882914,
				"y": 0.3060699303,
				"z": -0.1645910842,
				"element": "C" 
			},
			{
				"x": 1.3835271166,
				"y": -1.1041459508,
				"z": -0.2295326291,
				"element": "C" 
			},
			{
				"x": 2.4587902779,
				"y": -1.7693146629,
				"z": 0.3749245951,
				"element": "C" 
			},
			{
				"x": 3.4665111328,
				"y": -1.0479437528,
				"z": 0.9982609403,
				"element": "C" 
			},
			{
				"x": 4.9388939602,
				"y": -1.9600825747,
				"z": 1.8016746646,
				"element": "Br" 
			},
			{
				"x": 3.414000198,
				"y": 0.3457368729,
				"z": 1.0382039321,
				"element": "C" 
			},
			{
				"x": 2.3392889459,
				"y": 1.0216855027,
				"z": 0.4632616687,
				"element": "C" 
			},
			{
				"x": 0.3583812348,
				"y": -1.9469759833,
				"z": -0.8979973743,
				"element": "C" 
			},
			{
				"x": 0.2670066296,
				"y": -3.1482940308,
				"z": -0.7067707166,
				"element": "O" 
			},
			{
				"x": -0.5221282834,
				"y": -1.3465095384,
				"z": -2.0005231151,
				"element": "C" 
			},
			{
				"x": -1.830319567,
				"y": -1.4214624992,
				"z": -1.7093867499,
				"element": "O" 
			},
			{
				"x": -0.0701155579,
				"y": -0.9640591768,
				"z": -3.0548455022,
				"element": "O" 
			},
			{
				"x": 0.9655982706,
				"y": 2.7158531759,
				"z": -1.3424036546,
				"element": "H" 
			},
			{
				"x": -0.8069525513,
				"y": 2.5179650196,
				"z": -1.2911521532,
				"element": "H" 
			},
			{
				"x": 0.100290254,
				"y": 2.750568991,
				"z": 0.2267219231,
				"element": "H" 
			},
			{
				"x": 2.4804003101,
				"y": -2.8518544143,
				"z": 0.3291656818,
				"element": "H" 
			},
			{
				"x": 4.2063988986,
				"y": 0.9053851068,
				"z": 1.5225487769,
				"element": "H" 
			},
			{
				"x": 2.3075346777,
				"y": 2.1026856875,
				"z": 0.5189951808,
				"element": "H" 
			},
			{
				"x": -2.307671188,
				"y": -1.1175231012,
				"z": -2.5011679502,
				"element": "H" 
			}
		],
		 "valence_orbital": [ 
			{
				"type": "occ",
				"energy": -0.3014,
				"method": "rhf"
			},
			{
				"type": "occ",
				"energy": -0.29247,
				"method": "rhf"
			},
			{
				"type": "occ",
				"energy": -0.27899,
				"method": "rhf"
			},
			{
				"type": "occ",
				"energy": -0.25454,
				"method": "rhf"
			},
			{
				"type": "occ",
				"energy": -0.23684,
				"method": "rhf"
			},
			{
				"type": "unocc",
				"energy": -0.07674,
				"method": "rhf"
			},
			{
				"type": "unocc",
				"energy": -0.01694,
				"method": "rhf"
			},
			{
				"type": "unocc",
				"energy": -0.01011,
				"method": "rhf"
			},
			{
				"type": "unocc",
				"energy": 0.00333,
				"method": "rhf"
			},
			{
				"type": "unocc",
				"energy": 0.03387,
				"method": "rhf"
			}
		],
		"cosmo_sigma_profile": { 
			"-0.025": 0.0,
			"-0.024": 0.0,
			"-0.023": 0.0,
			"-0.022": 0.0,
			"-0.021": 0.0,
			"-0.02": 0.0109279277856,
			"-0.019": 0.669630959348,
			"-0.018": 1.06314044137,
			"-0.017": 0.890203426837,
			"-0.016": 0.800026398508,
			"-0.015": 0.985105898426,
			"-0.014": 0.573880322214,
			"-0.013": 0.790585757362,
			"-0.012": 0.864182806128,
			"-0.011": 0.62476326963,
			"-0.01": 0.570707639677,
			"-0.009": 0.824107589221,
			"-0.008": 5.50385076734,
			"-0.007": 10.206879798,
			"-0.006": 13.8489648236,
			"-0.005": 12.5110518779,
			"-0.004": 14.4998988321,
			"-0.003": 12.8198602459,
			"-0.002": 12.1112696281,
			"-0.001": 13.9026488644,
			"0.0": 17.4699327459,
			"0.001": 24.2070310683,
			"0.002": 18.5437264575,
			"0.003": 11.4158563858,
			"0.004": 15.1594333058,
			"0.005": 9.90123541964,
			"0.006": 4.89421652412,
			"0.007": 5.94635225742,
			"0.008": 5.39455397299,
			"0.009": 5.88607578711,
			"0.01": 7.93605687325,
			"0.011": 5.65514534337,
			"0.012": 0.285615205036,
			"0.013": 0.0,
			"0.014": 0.0,
			"0.015": 0.0,
			"0.016": 0.0,
			"0.017": 0.0,
			"0.018": 0.0,
			"0.019": 0.0,
			"0.02": 0.0,
			"0.021": 0.0,
			"0.022": 0.0,
			"0.023": 0.0,
			"0.024": 0.0,
			"0.025": 0.0
		}
	}
}
