{
	 "smiles": "CC(=O)OC(CCC(=O)C1=CC=CC=C1)C1=CC=CC=C1", 
	 "Tm": 346.15, 
	 "num_atms": 39, 
	 "gaussian": { 
		 "optdone": 1, 
		 "sigma_profile": "yes", 
		 "theory": "DFT", 
		 "functional": "B3LYP", 
		 "basiset": "6-31G**", 
		 "properties": { 
			 "R2extent": 8355.5452, 
			 "electric_dipole_moment_norm": 3.95832806751, 
			 "electric_quadrupole_moment_norm": 17.1857787214, 
			 "total_energy": -922.45237673, 
			 "HOMO_LUMO_gap": 0.18844, 
			 "cosmo_polarized_energy": -15.01, 
			 "cosmo_cavitation_energy": 42.92, 
			 "cosmo_dispersion_energy": -29.35, 
			 "cosmo_repulsion_energy": 2.28, 
			 "cosmo_total_nonelectrostatic_energy": 15.86, 
			 "SMD_solvation_energy": 8.5 
		},
		"coords": [
			{
				"x": -0.786023212,
				"y": 1.3508491389,
				"z": -4.4665709505,
				"element": "C" 
			},
			{
				"x": -0.1720453087,
				"y": 0.7602783004,
				"z": -3.2165313051,
				"element": "C" 
			},
			{
				"x": 0.9926355081,
				"y": 0.4421706891,
				"z": -3.1048111322,
				"element": "O" 
			},
			{
				"x": -1.1106593495,
				"y": 0.6362050396,
				"z": -2.2523850852,
				"element": "O" 
			},
			{
				"x": -0.7903154287,
				"y": 0.0212269575,
				"z": -0.9582144267,
				"element": "C" 
			},
			{
				"x": 0.3132575025,
				"y": 0.7881994573,
				"z": -0.2163385059,
				"element": "C" 
			},
			{
				"x": 0.3855099359,
				"y": 0.3836072457,
				"z": 1.271729462,
				"element": "C" 
			},
			{
				"x": 1.473429929,
				"y": 1.1640230921,
				"z": 2.0028159633,
				"element": "C" 
			},
			{
				"x": 2.5836678775,
				"y": 0.6713893513,
				"z": 2.1414827007,
				"element": "O" 
			},
			{
				"x": 1.1874119305,
				"y": 2.5462591424,
				"z": 2.5149836415,
				"element": "C" 
			},
			{
				"x": 2.2407522955,
				"y": 3.2483824816,
				"z": 3.1241043226,
				"element": "C" 
			},
			{
				"x": 2.0422623574,
				"y": 4.532816966,
				"z": 3.6198252229,
				"element": "C" 
			},
			{
				"x": 0.7856345507,
				"y": 5.1372941401,
				"z": 3.5126496226,
				"element": "C" 
			},
			{
				"x": -0.2687818269,
				"y": 4.450430553,
				"z": 2.9087534361,
				"element": "C" 
			},
			{
				"x": -0.0700448712,
				"y": 3.161476324,
				"z": 2.4130495141,
				"element": "C" 
			},
			{
				"x": -0.6094367995,
				"y": -1.4831462102,
				"z": -1.0787576501,
				"element": "C" 
			},
			{
				"x": 0.6171708571,
				"y": -2.0804926706,
				"z": -1.4063637699,
				"element": "C" 
			},
			{
				"x": 0.7227485289,
				"y": -3.4684352098,
				"z": -1.5000904104,
				"element": "C" 
			},
			{
				"x": -0.3900816401,
				"y": -4.2804477059,
				"z": -1.2712621242,
				"element": "C" 
			},
			{
				"x": -1.6150544268,
				"y": -3.6969422313,
				"z": -0.946053789,
				"element": "C" 
			},
			{
				"x": -1.7188003039,
				"y": -2.3089854095,
				"z": -0.8496208793,
				"element": "C" 
			},
			{
				"x": 0.0005148924,
				"y": 1.5596774529,
				"z": -5.1911343222,
				"element": "H" 
			},
			{
				"x": -1.3360327119,
				"y": 2.265241071,
				"z": -4.2286564997,
				"element": "H" 
			},
			{
				"x": -1.5010281479,
				"y": 0.6410566183,
				"z": -4.8944497445,
				"element": "H" 
			},
			{
				"x": -1.7281114639,
				"y": 0.1912273808,
				"z": -0.4193663699,
				"element": "H" 
			},
			{
				"x": 0.0883721939,
				"y": 1.8573587953,
				"z": -0.3044646761,
				"element": "H" 
			},
			{
				"x": 1.2827465669,
				"y": 0.6270142836,
				"z": -0.6891042788,
				"element": "H" 
			},
			{
				"x": 0.6516123097,
				"y": -0.67279554,
				"z": 1.3540646281,
				"element": "H" 
			},
			{
				"x": -0.5905829242,
				"y": 0.523698948,
				"z": 1.7510568421,
				"element": "H" 
			},
			{
				"x": 3.2057112428,
				"y": 2.757773973,
				"z": 3.1943358147,
				"element": "H" 
			},
			{
				"x": 2.8637180135,
				"y": 5.0661157794,
				"z": 4.0895021663,
				"element": "H" 
			},
			{
				"x": 0.6293951358,
				"y": 6.1404084791,
				"z": 3.8993377474,
				"element": "H" 
			},
			{
				"x": -1.2459518213,
				"y": 4.9169693043,
				"z": 2.8247154554,
				"element": "H" 
			},
			{
				"x": -0.9010902855,
				"y": 2.6410463742,
				"z": 1.9485524256,
				"element": "H" 
			},
			{
				"x": 1.4810909687,
				"y": -1.4592837362,
				"z": -1.60881076,
				"element": "H" 
			},
			{
				"x": 1.679266946,
				"y": -3.9161564946,
				"z": -1.7540627749,
				"element": "H" 
			},
			{
				"x": -0.3018938438,
				"y": -5.3607339612,
				"z": -1.3441909957,
				"element": "H" 
			},
			{
				"x": -2.4865895079,
				"y": -4.3190543398,
				"z": -0.7632209051,
				"element": "H" 
			},
			{
				"x": -2.6745856692,
				"y": -1.85862383,
				"z": -0.5916976101,
				"element": "H" 
			}
		],
		 "valence_orbital": [ 
			{
				"type": "occ",
				"energy": -0.26157,
				"method": "rhf"
			},
			{
				"type": "occ",
				"energy": -0.25786,
				"method": "rhf"
			},
			{
				"type": "occ",
				"energy": -0.25105,
				"method": "rhf"
			},
			{
				"type": "occ",
				"energy": -0.24801,
				"method": "rhf"
			},
			{
				"type": "occ",
				"energy": -0.24436,
				"method": "rhf"
			},
			{
				"type": "unocc",
				"energy": -0.05592,
				"method": "rhf"
			},
			{
				"type": "unocc",
				"energy": -0.01202,
				"method": "rhf"
			},
			{
				"type": "unocc",
				"energy": -0.01013,
				"method": "rhf"
			},
			{
				"type": "unocc",
				"energy": -0.00208,
				"method": "rhf"
			},
			{
				"type": "unocc",
				"energy": 0.01295,
				"method": "rhf"
			}
		],
		"cosmo_sigma_profile": { 
			"-0.025": 0.0,
			"-0.024": 0.0,
			"-0.023": 0.0,
			"-0.022": 0.0,
			"-0.021": 0.0,
			"-0.02": 0.0,
			"-0.019": 0.0,
			"-0.018": 0.0,
			"-0.017": 0.0,
			"-0.016": 0.0,
			"-0.015": 0.0,
			"-0.014": 0.0,
			"-0.013": 0.0,
			"-0.012": 0.0,
			"-0.011": 0.0,
			"-0.01": 0.0,
			"-0.009": 0.0,
			"-0.008": 0.926660843606,
			"-0.007": 7.02795947396,
			"-0.006": 23.4713705523,
			"-0.005": 27.3635913441,
			"-0.004": 33.9542300835,
			"-0.003": 33.1573509008,
			"-0.002": 29.511348812,
			"-0.001": 24.7010466877,
			"0.0": 20.5317990114,
			"0.001": 19.0419216263,
			"0.002": 19.8744921775,
			"0.003": 23.4889246225,
			"0.004": 25.155050373,
			"0.005": 15.7758114427,
			"0.006": 7.67147206989,
			"0.007": 4.84189064843,
			"0.008": 3.63141039454,
			"0.009": 3.48140389743,
			"0.01": 3.99840143465,
			"0.011": 4.53669619644,
			"0.012": 6.16167396157,
			"0.013": 2.73058508187,
			"0.014": 0.254339364898,
			"0.015": 0.0,
			"0.016": 0.0,
			"0.017": 0.0,
			"0.018": 0.0,
			"0.019": 0.0,
			"0.02": 0.0,
			"0.021": 0.0,
			"0.022": 0.0,
			"0.023": 0.0,
			"0.024": 0.0,
			"0.025": 0.0
		}
	}
}
