{
	 "smiles": "CC1=C(CC(O)=O)C(=O)N=C(N1)C1=NC=CC=N1", 
	 "Tm": 468.15, 
	 "num_atms": 28, 
	 "gaussian": { 
		 "optdone": 1, 
		 "sigma_profile": "yes", 
		 "theory": "DFT", 
		 "functional": "B3LYP", 
		 "basiset": "6-31G**", 
		 "properties": { 
			 "R2extent": 6035.9745, 
			 "electric_dipole_moment_norm": 7.88398201419, 
			 "electric_quadrupole_moment_norm": 37.8841210353, 
			 "total_energy": -869.894159423, 
			 "HOMO_LUMO_gap": 0.14698, 
			 "cosmo_polarized_energy": -31.97, 
			 "cosmo_cavitation_energy": 33.52, 
			 "cosmo_dispersion_energy": -24.42, 
			 "cosmo_repulsion_energy": 1.88, 
			 "cosmo_total_nonelectrostatic_energy": 10.99, 
			 "SMD_solvation_energy": 3.84 
		},
		"coords": [
			{
				"x": -0.5265073957,
				"y": 0.3189555285,
				"z": -1.8869747814,
				"element": "C" 
			},
			{
				"x": -0.3139282135,
				"y": -0.0129946161,
				"z": -0.4371281957,
				"element": "C" 
			},
			{
				"x": -1.2169127324,
				"y": -0.6149335258,
				"z": 0.3873104703,
				"element": "C" 
			},
			{
				"x": -2.5930345361,
				"y": -1.0333522734,
				"z": -0.04682091,
				"element": "C" 
			},
			{
				"x": -2.623848161,
				"y": -2.1792483947,
				"z": -1.043130938,
				"element": "C" 
			},
			{
				"x": -3.8788476932,
				"y": -2.6703020223,
				"z": -1.1723782201,
				"element": "O" 
			},
			{
				"x": -1.6887123489,
				"y": -2.6131814958,
				"z": -1.6811582659,
				"element": "O" 
			},
			{
				"x": -0.8553743239,
				"y": -0.8981256584,
				"z": 1.7937507507,
				"element": "C" 
			},
			{
				"x": -1.6442682827,
				"y": -1.4190601636,
				"z": 2.5758496692,
				"element": "O" 
			},
			{
				"x": 0.4422839139,
				"y": -0.5442734012,
				"z": 2.2212233745,
				"element": "N" 
			},
			{
				"x": 1.244077797,
				"y": 0.0146926451,
				"z": 1.3769264716,
				"element": "C" 
			},
			{
				"x": 0.9245840041,
				"y": 0.3031511477,
				"z": 0.0779698617,
				"element": "N" 
			},
			{
				"x": 2.6383225435,
				"y": 0.4100119678,
				"z": 1.7661001324,
				"element": "C" 
			},
			{
				"x": 3.3683308787,
				"y": 0.9863810538,
				"z": 0.7957700848,
				"element": "N" 
			},
			{
				"x": 4.615204967,
				"y": 1.3465569966,
				"z": 1.1154670598,
				"element": "C" 
			},
			{
				"x": 5.137009168,
				"y": 1.1374676472,
				"z": 2.388976942,
				"element": "C" 
			},
			{
				"x": 4.2870351529,
				"y": 0.5315790791,
				"z": 3.3155782173,
				"element": "C" 
			},
			{
				"x": 3.0386366434,
				"y": 0.1647104281,
				"z": 3.0164164855,
				"element": "N" 
			},
			{
				"x": 0.1120876548,
				"y": 1.1508658936,
				"z": -2.2004431723,
				"element": "H" 
			},
			{
				"x": -1.5649465303,
				"y": 0.6002133643,
				"z": -2.076210942,
				"element": "H" 
			},
			{
				"x": -0.3059030199,
				"y": -0.5536775594,
				"z": -2.5088761132,
				"element": "H" 
			},
			{
				"x": -3.1470178842,
				"y": -1.3374426163,
				"z": 0.8459698653,
				"element": "H" 
			},
			{
				"x": -3.1572137525,
				"y": -0.2068304796,
				"z": -0.5007586903,
				"element": "H" 
			},
			{
				"x": -3.8230405506,
				"y": -3.3844022174,
				"z": -1.8293685932,
				"element": "H" 
			},
			{
				"x": 1.6478554482,
				"y": 0.7425946737,
				"z": -0.480731578,
				"element": "H" 
			},
			{
				"x": 5.2052001524,
				"y": 1.8128298111,
				"z": 0.3290834216,
				"element": "H" 
			},
			{
				"x": 6.1488078857,
				"y": 1.4299125095,
				"z": 2.6461812803,
				"element": "H" 
			},
			{
				"x": 4.6167192154,
				"y": 0.3327016777,
				"z": 4.3337063131,
				"element": "H" 
			}
		],
		 "valence_orbital": [ 
			{
				"type": "occ",
				"energy": -0.27783,
				"method": "rhf"
			},
			{
				"type": "occ",
				"energy": -0.27397,
				"method": "rhf"
			},
			{
				"type": "occ",
				"energy": -0.26034,
				"method": "rhf"
			},
			{
				"type": "occ",
				"energy": -0.22785,
				"method": "rhf"
			},
			{
				"type": "occ",
				"energy": -0.22378,
				"method": "rhf"
			},
			{
				"type": "unocc",
				"energy": -0.0768,
				"method": "rhf"
			},
			{
				"type": "unocc",
				"energy": -0.06159,
				"method": "rhf"
			},
			{
				"type": "unocc",
				"energy": -0.01522,
				"method": "rhf"
			},
			{
				"type": "unocc",
				"energy": 0.01268,
				"method": "rhf"
			},
			{
				"type": "unocc",
				"energy": 0.0182,
				"method": "rhf"
			}
		],
		"cosmo_sigma_profile": { 
			"-0.025": 0.0,
			"-0.024": 0.0,
			"-0.023": 0.0,
			"-0.022": 0.0,
			"-0.021": 0.0,
			"-0.02": 0.0,
			"-0.019": 0.0,
			"-0.018": 0.623361017866,
			"-0.017": 0.92749285157,
			"-0.016": 0.974778137352,
			"-0.015": 0.871199001574,
			"-0.014": 0.833590512755,
			"-0.013": 1.5230663283,
			"-0.012": 1.68029843221,
			"-0.011": 2.07835298976,
			"-0.01": 2.16894990131,
			"-0.009": 5.69449424959,
			"-0.008": 13.0118182209,
			"-0.007": 13.3501222588,
			"-0.006": 11.355630381,
			"-0.005": 13.0264456434,
			"-0.004": 18.6194140262,
			"-0.003": 24.6438209468,
			"-0.002": 26.9391473868,
			"-0.001": 21.3090589584,
			"0.0": 14.0611479547,
			"0.001": 9.56648887315,
			"0.002": 7.62299417997,
			"0.003": 6.22875100273,
			"0.004": 5.75794345134,
			"0.005": 8.01329470337,
			"0.006": 5.75288160553,
			"0.007": 3.98842670773,
			"0.008": 4.9410329337,
			"0.009": 6.34409892761,
			"0.01": 5.08204748755,
			"0.011": 5.45232585899,
			"0.012": 4.77448025641,
			"0.013": 4.13176910983,
			"0.014": 6.17397140194,
			"0.015": 3.29606079634,
			"0.016": 3.48219236719,
			"0.017": 2.34234430007,
			"0.018": 1.0714488148,
			"0.019": 0.857438228734,
			"0.02": 0.0162466916389,
			"0.021": 0.0,
			"0.022": 0.0,
			"0.023": 0.0,
			"0.024": 0.0,
			"0.025": 0.0
		}
	}
}
