{
	 "smiles": "NC1=CC=C(Cl)N=C1Cl", 
	 "Tm": 395.15, 
	 "num_atms": 13, 
	 "gaussian": { 
		 "optdone": 1, 
		 "sigma_profile": "yes", 
		 "theory": "DFT", 
		 "functional": "B3LYP", 
		 "basiset": "6-31G**", 
		 "properties": { 
			 "R2extent": 2104.8143, 
			 "electric_dipole_moment_norm": 5.10962971848, 
			 "electric_quadrupole_moment_norm": 10.5421141457, 
			 "total_energy": -1222.83130791, 
			 "HOMO_LUMO_gap": 0.18429, 
			 "cosmo_polarized_energy": -11.32, 
			 "cosmo_cavitation_energy": 20.95, 
			 "cosmo_dispersion_energy": -16.24, 
			 "cosmo_repulsion_energy": 1.35, 
			 "cosmo_total_nonelectrostatic_energy": 6.06, 
			 "SMD_solvation_energy": 1.72 
		},
		"coords": [
			{
				"x": 0.624610994,
				"y": 0.9270295068,
				"z": 3.3848170499,
				"element": "N" 
			},
			{
				"x": 0.3482429662,
				"y": 0.6698921332,
				"z": 2.0581225061,
				"element": "C" 
			},
			{
				"x": 1.363427813,
				"y": 0.5252666721,
				"z": 1.095116378,
				"element": "C" 
			},
			{
				"x": 1.0476603864,
				"y": 0.3227100746,
				"z": -0.2423371879,
				"element": "C" 
			},
			{
				"x": -0.3030128828,
				"y": 0.2687977244,
				"z": -0.5888158034,
				"element": "C" 
			},
			{
				"x": -0.7599026479,
				"y": 0.0133182661,
				"z": -2.268535496,
				"element": "Cl" 
			},
			{
				"x": -1.2804745157,
				"y": 0.3969092917,
				"z": 0.2909068293,
				"element": "N" 
			},
			{
				"x": -0.9679113707,
				"y": 0.5876907897,
				"z": 1.5551116398,
				"element": "C" 
			},
			{
				"x": -2.3130090578,
				"y": 0.7426090919,
				"z": 2.6916964352,
				"element": "Cl" 
			},
			{
				"x": -0.127771124,
				"y": 0.7614626173,
				"z": 4.0378308149,
				"element": "H" 
			},
			{
				"x": 1.5348909424,
				"y": 0.6471431532,
				"z": 3.7185572746,
				"element": "H" 
			},
			{
				"x": 2.4031868027,
				"y": 0.5794047942,
				"z": 1.4062752768,
				"element": "H" 
			},
			{
				"x": 1.8203616941,
				"y": 0.2096658848,
				"z": -0.9929457173,
				"element": "H" 
			}
		],
		 "valence_orbital": [ 
			{
				"type": "occ",
				"energy": -0.31375,
				"method": "rhf"
			},
			{
				"type": "occ",
				"energy": -0.31206,
				"method": "rhf"
			},
			{
				"type": "occ",
				"energy": -0.28968,
				"method": "rhf"
			},
			{
				"type": "occ",
				"energy": -0.28761,
				"method": "rhf"
			},
			{
				"type": "occ",
				"energy": -0.22439,
				"method": "rhf"
			},
			{
				"type": "unocc",
				"energy": -0.0401,
				"method": "rhf"
			},
			{
				"type": "unocc",
				"energy": -0.01586,
				"method": "rhf"
			},
			{
				"type": "unocc",
				"energy": 0.01801,
				"method": "rhf"
			},
			{
				"type": "unocc",
				"energy": 0.04569,
				"method": "rhf"
			},
			{
				"type": "unocc",
				"energy": 0.07072,
				"method": "rhf"
			}
		],
		"cosmo_sigma_profile": { 
			"-0.025": 0.0,
			"-0.024": 0.0,
			"-0.023": 0.0,
			"-0.022": 0.0,
			"-0.021": 0.0,
			"-0.02": 0.0,
			"-0.019": 0.0,
			"-0.018": 0.0,
			"-0.017": 0.0,
			"-0.016": 0.0,
			"-0.015": 0.0486333292033,
			"-0.014": 1.34383763764,
			"-0.013": 1.93954858373,
			"-0.012": 2.58457637261,
			"-0.011": 2.75351518244,
			"-0.01": 2.55297740318,
			"-0.009": 2.81368473013,
			"-0.008": 6.31900710796,
			"-0.007": 5.28666548128,
			"-0.006": 5.22882007112,
			"-0.005": 4.23877524663,
			"-0.004": 4.42161318732,
			"-0.003": 4.47531757473,
			"-0.002": 7.56909848585,
			"-0.001": 13.1167293785,
			"0.0": 17.6621440661,
			"0.001": 17.8859760185,
			"0.002": 14.1197276313,
			"0.003": 11.8572137542,
			"0.004": 17.3925803568,
			"0.005": 12.2451897885,
			"0.006": 4.60077369315,
			"0.007": 3.14904647492,
			"0.008": 2.55103923435,
			"0.009": 1.69532576289,
			"0.01": 1.8208696908,
			"0.011": 1.72253849908,
			"0.012": 0.954159745126,
			"0.013": 0.461425268869,
			"0.014": 0.0,
			"0.015": 0.0,
			"0.016": 0.0,
			"0.017": 0.0,
			"0.018": 0.0,
			"0.019": 0.0,
			"0.02": 0.0,
			"0.021": 0.0,
			"0.022": 0.0,
			"0.023": 0.0,
			"0.024": 0.0,
			"0.025": 0.0
		}
	}
}
