{
	 "smiles": "CCCCCCCCCCCCCCCCCCC(C)C1=CC=CC=C1", 
	 "Tm": 302.15, 
	 "num_atms": 72, 
	 "gaussian": { 
		 "optdone": 1, 
		 "sigma_profile": "yes", 
		 "theory": "DFT", 
		 "functional": "B3LYP", 
		 "basiset": "6-31G**", 
		 "properties": { 
			 "R2extent": 13726.0162, 
			 "electric_dipole_moment_norm": 0.296186849809, 
			 "electric_quadrupole_moment_norm": 4.5010593342, 
			 "total_energy": -1018.55719863, 
			 "HOMO_LUMO_gap": 0.23799, 
			 "cosmo_polarized_energy": -3.96, 
			 "cosmo_cavitation_energy": 69.19, 
			 "cosmo_dispersion_energy": -39.93, 
			 "cosmo_repulsion_energy": 3.13, 
			 "cosmo_total_nonelectrostatic_energy": 32.39, 
			 "SMD_solvation_energy": 8.89 
		},
		"coords": [
			{
				"x": -3.0374777159,
				"y": -4.3414246735,
				"z": 4.3667910645,
				"element": "C" 
			},
			{
				"x": -2.7245514117,
				"y": -2.8669443573,
				"z": 4.0927292707,
				"element": "C" 
			},
			{
				"x": -1.2276240925,
				"y": -2.5395872283,
				"z": 4.1713243289,
				"element": "C" 
			},
			{
				"x": -0.9170118945,
				"y": -1.0617339203,
				"z": 3.8955449013,
				"element": "C" 
			},
			{
				"x": 0.5652129555,
				"y": -0.6755734286,
				"z": 4.0335058134,
				"element": "C" 
			},
			{
				"x": 1.4968442852,
				"y": -1.3063553742,
				"z": 2.9880581318,
				"element": "C" 
			},
			{
				"x": 2.9538235473,
				"y": -0.8437281047,
				"z": 3.1272293449,
				"element": "C" 
			},
			{
				"x": 3.9324856664,
				"y": -1.4927534101,
				"z": 2.1335868426,
				"element": "C" 
			},
			{
				"x": 3.7647332253,
				"y": -1.1286265694,
				"z": 0.6452028521,
				"element": "C" 
			},
			{
				"x": 4.019934887,
				"y": 0.355952393,
				"z": 0.2947579567,
				"element": "C" 
			},
			{
				"x": 2.7621559201,
				"y": 1.2331750253,
				"z": 0.1850450693,
				"element": "C" 
			},
			{
				"x": 3.09169656,
				"y": 2.7124624148,
				"z": -0.061693895,
				"element": "C" 
			},
			{
				"x": 1.8718416263,
				"y": 3.6290492637,
				"z": -0.2584651443,
				"element": "C" 
			},
			{
				"x": 1.1796859209,
				"y": 3.491488282,
				"z": -1.6246342852,
				"element": "C" 
			},
			{
				"x": 0.0021752447,
				"y": 4.4670518524,
				"z": -1.816772222,
				"element": "C" 
			},
			{
				"x": -1.3028899565,
				"y": 4.0602434042,
				"z": -1.1055437267,
				"element": "C" 
			},
			{
				"x": -2.1204501267,
				"y": 3.0107760149,
				"z": -1.876781318,
				"element": "C" 
			},
			{
				"x": -3.3802055836,
				"y": 2.5286369006,
				"z": -1.1370040266,
				"element": "C" 
			},
			{
				"x": -3.1210706862,
				"y": 1.507940638,
				"z": -0.0013923491,
				"element": "C" 
			},
			{
				"x": -4.3835356288,
				"y": 1.3159728667,
				"z": 0.8602640645,
				"element": "C" 
			},
			{
				"x": -2.597942291,
				"y": 0.1812982036,
				"z": -0.5394447367,
				"element": "C" 
			},
			{
				"x": -3.4001995768,
				"y": -0.6473862865,
				"z": -1.3397684494,
				"element": "C" 
			},
			{
				"x": -2.9181958724,
				"y": -1.8601429868,
				"z": -1.8317981551,
				"element": "C" 
			},
			{
				"x": -1.6170750824,
				"y": -2.2730450966,
				"z": -1.5353872949,
				"element": "C" 
			},
			{
				"x": -0.8056936728,
				"y": -1.460461114,
				"z": -0.7440816264,
				"element": "C" 
			},
			{
				"x": -1.2944656003,
				"y": -0.246772606,
				"z": -0.2530335652,
				"element": "C" 
			},
			{
				"x": -2.7017730641,
				"y": -4.6390679164,
				"z": 5.3669957033,
				"element": "H" 
			},
			{
				"x": -4.1121661825,
				"y": -4.5422014427,
				"z": 4.3039225191,
				"element": "H" 
			},
			{
				"x": -2.5350576512,
				"y": -4.993903801,
				"z": 3.6434014003,
				"element": "H" 
			},
			{
				"x": -3.2702292416,
				"y": -2.2375146357,
				"z": 4.8092651767,
				"element": "H" 
			},
			{
				"x": -3.1013536067,
				"y": -2.591431003,
				"z": 3.0984321909,
				"element": "H" 
			},
			{
				"x": -0.6875394233,
				"y": -3.1762274349,
				"z": 3.458071953,
				"element": "H" 
			},
			{
				"x": -0.8489835982,
				"y": -2.8100753067,
				"z": 5.1681701578,
				"element": "H" 
			},
			{
				"x": -1.5061033165,
				"y": -0.4448117614,
				"z": 4.588202991,
				"element": "H" 
			},
			{
				"x": -1.2665334994,
				"y": -0.8032544838,
				"z": 2.8859278427,
				"element": "H" 
			},
			{
				"x": 0.6517999739,
				"y": 0.4178515808,
				"z": 3.9655348178,
				"element": "H" 
			},
			{
				"x": 0.9177901063,
				"y": -0.9421562848,
				"z": 5.0405039583,
				"element": "H" 
			},
			{
				"x": 1.4647019752,
				"y": -2.4010753043,
				"z": 3.0687462588,
				"element": "H" 
			},
			{
				"x": 1.1188049033,
				"y": -1.066096711,
				"z": 1.9852977165,
				"element": "H" 
			},
			{
				"x": 3.2959262925,
				"y": -1.0739965564,
				"z": 4.1457030281,
				"element": "H" 
			},
			{
				"x": 3.0026964413,
				"y": 0.2502739354,
				"z": 3.0407450309,
				"element": "H" 
			},
			{
				"x": 4.9570835647,
				"y": -1.2316149217,
				"z": 2.4320963935,
				"element": "H" 
			},
			{
				"x": 3.8598843015,
				"y": -2.5846315435,
				"z": 2.2358346541,
				"element": "H" 
			},
			{
				"x": 2.7668765984,
				"y": -1.4229075425,
				"z": 0.2927581595,
				"element": "H" 
			},
			{
				"x": 4.468185643,
				"y": -1.7526301673,
				"z": 0.0802719115,
				"element": "H" 
			},
			{
				"x": 4.5529314494,
				"y": 0.4145380269,
				"z": -0.6632599846,
				"element": "H" 
			},
			{
				"x": 4.7030286972,
				"y": 0.7916709939,
				"z": 1.0380944674,
				"element": "H" 
			},
			{
				"x": 2.1630850045,
				"y": 1.1516299123,
				"z": 1.1019474798,
				"element": "H" 
			},
			{
				"x": 2.1310694975,
				"y": 0.8450386997,
				"z": -0.6257762408,
				"element": "H" 
			},
			{
				"x": 3.6792983472,
				"y": 3.0808187791,
				"z": 0.7902567544,
				"element": "H" 
			},
			{
				"x": 3.7500443608,
				"y": 2.7975763208,
				"z": -0.9386164142,
				"element": "H" 
			},
			{
				"x": 1.1513793199,
				"y": 3.4494155414,
				"z": 0.5518374593,
				"element": "H" 
			},
			{
				"x": 2.1945221298,
				"y": 4.6731239736,
				"z": -0.1456216117,
				"element": "H" 
			},
			{
				"x": 1.927842693,
				"y": 3.6766820779,
				"z": -2.4072782525,
				"element": "H" 
			},
			{
				"x": 0.8352176342,
				"y": 2.4602761964,
				"z": -1.776235231,
				"element": "H" 
			},
			{
				"x": 0.3149454595,
				"y": 5.460105996,
				"z": -1.4668901637,
				"element": "H" 
			},
			{
				"x": -0.2064948474,
				"y": 4.5798914665,
				"z": -2.8891736317,
				"element": "H" 
			},
			{
				"x": -1.0730222578,
				"y": 3.696781556,
				"z": -0.0952262638,
				"element": "H" 
			},
			{
				"x": -1.9314572101,
				"y": 4.9498592666,
				"z": -0.9650020362,
				"element": "H" 
			},
			{
				"x": -2.4182412345,
				"y": 3.4509000161,
				"z": -2.8377589469,
				"element": "H" 
			},
			{
				"x": -1.4925957193,
				"y": 2.1455430576,
				"z": -2.1241527756,
				"element": "H" 
			},
			{
				"x": -3.904571411,
				"y": 3.3976000295,
				"z": -0.7153894853,
				"element": "H" 
			},
			{
				"x": -4.0754381463,
				"y": 2.0759384425,
				"z": -1.8556051727,
				"element": "H" 
			},
			{
				"x": -2.3417291473,
				"y": 1.9206171232,
				"z": 0.6525362607,
				"element": "H" 
			},
			{
				"x": -4.6912197676,
				"y": 2.2659813432,
				"z": 1.3105277136,
				"element": "H" 
			},
			{
				"x": -5.2244720769,
				"y": 0.9465392391,
				"z": 0.2630866552,
				"element": "H" 
			},
			{
				"x": -4.2070940778,
				"y": 0.5972984802,
				"z": 1.6665676734,
				"element": "H" 
			},
			{
				"x": -4.415404445,
				"y": -0.3438297509,
				"z": -1.5818646188,
				"element": "H" 
			},
			{
				"x": -3.5597119557,
				"y": -2.4845148014,
				"z": -2.4478517092,
				"element": "H" 
			},
			{
				"x": -1.241303818,
				"y": -3.2175608872,
				"z": -1.9182775881,
				"element": "H" 
			},
			{
				"x": 0.2088741914,
				"y": -1.7685170005,
				"z": -0.5064624409,
				"element": "H" 
			},
			{
				"x": -0.6519935326,
				"y": 0.3802550994,
				"z": 0.360467394,
				"element": "H" 
			}
		],
		 "valence_orbital": [ 
			{
				"type": "occ",
				"energy": -0.29966,
				"method": "rhf"
			},
			{
				"type": "occ",
				"energy": -0.29667,
				"method": "rhf"
			},
			{
				"type": "occ",
				"energy": -0.29147,
				"method": "rhf"
			},
			{
				"type": "occ",
				"energy": -0.24554,
				"method": "rhf"
			},
			{
				"type": "occ",
				"energy": -0.23735,
				"method": "rhf"
			},
			{
				"type": "unocc",
				"energy": 0.00064,
				"method": "rhf"
			},
			{
				"type": "unocc",
				"energy": 0.00312,
				"method": "rhf"
			},
			{
				"type": "unocc",
				"energy": 0.05691,
				"method": "rhf"
			},
			{
				"type": "unocc",
				"energy": 0.07997,
				"method": "rhf"
			},
			{
				"type": "unocc",
				"energy": 0.08574,
				"method": "rhf"
			}
		],
		"cosmo_sigma_profile": { 
			"-0.025": 0.0,
			"-0.024": 0.0,
			"-0.023": 0.0,
			"-0.022": 0.0,
			"-0.021": 0.0,
			"-0.02": 0.0,
			"-0.019": 0.0,
			"-0.018": 0.0,
			"-0.017": 0.0,
			"-0.016": 0.0,
			"-0.015": 0.0,
			"-0.014": 0.0,
			"-0.013": 0.0,
			"-0.012": 0.0,
			"-0.011": 0.0,
			"-0.01": 0.0,
			"-0.009": 0.0,
			"-0.008": 0.0,
			"-0.007": 0.0,
			"-0.006": 0.480745794928,
			"-0.005": 5.32962829162,
			"-0.004": 11.5035065723,
			"-0.003": 20.7353636527,
			"-0.002": 59.4179458258,
			"-0.001": 119.156163338,
			"0.0": 123.675655249,
			"0.001": 103.15434672,
			"0.002": 54.3497563835,
			"0.003": 8.26512495319,
			"0.004": 7.7430311703,
			"0.005": 6.84913749351,
			"0.006": 7.3682658102,
			"0.007": 3.49686703271,
			"0.008": 0.0,
			"0.009": 0.0,
			"0.01": 0.0,
			"0.011": 0.0,
			"0.012": 0.0,
			"0.013": 0.0,
			"0.014": 0.0,
			"0.015": 0.0,
			"0.016": 0.0,
			"0.017": 0.0,
			"0.018": 0.0,
			"0.019": 0.0,
			"0.02": 0.0,
			"0.021": 0.0,
			"0.022": 0.0,
			"0.023": 0.0,
			"0.024": 0.0,
			"0.025": 0.0
		}
	}
}
