{
	 "smiles": "CC1=CC=C(C=C1)C(=O)C1=CC=C(C)C=C1", 
	 "Tm": 368.35, 
	 "num_atms": 30, 
	 "gaussian": { 
		 "optdone": 1, 
		 "sigma_profile": "yes", 
		 "theory": "DFT", 
		 "functional": "B3LYP", 
		 "basiset": "6-31G**", 
		 "properties": { 
			 "R2extent": 5142.7121, 
			 "electric_dipole_moment_norm": 3.3449718818, 
			 "electric_quadrupole_moment_norm": 15.8023761992, 
			 "total_energy": -655.277110673, 
			 "HOMO_LUMO_gap": 0.17866, 
			 "cosmo_polarized_energy": -9.39, 
			 "cosmo_cavitation_energy": 33.71, 
			 "cosmo_dispersion_energy": -24.3, 
			 "cosmo_repulsion_energy": 1.89, 
			 "cosmo_total_nonelectrostatic_energy": 11.3, 
			 "SMD_solvation_energy": 6.21 
		},
		"coords": [
			{
				"x": -2.200776022,
				"y": -1.8604784336,
				"z": 4.6929733247,
				"element": "C" 
			},
			{
				"x": -2.0405137285,
				"y": -1.4330280265,
				"z": 3.2541315123,
				"element": "C" 
			},
			{
				"x": -3.1624264063,
				"y": -1.1116841925,
				"z": 2.4720500948,
				"element": "C" 
			},
			{
				"x": -3.0216130156,
				"y": -0.7022753368,
				"z": 1.1522827967,
				"element": "C" 
			},
			{
				"x": -1.7481121274,
				"y": -0.5751828526,
				"z": 0.572815332,
				"element": "C" 
			},
			{
				"x": -0.6250807262,
				"y": -0.9056247651,
				"z": 1.3449759083,
				"element": "C" 
			},
			{
				"x": -0.7747928434,
				"y": -1.3342198749,
				"z": 2.6640266387,
				"element": "C" 
			},
			{
				"x": -1.6717797524,
				"y": -0.1820076122,
				"z": -0.8718358998,
				"element": "C" 
			},
			{
				"x": -2.6160193744,
				"y": -0.4242930715,
				"z": -1.6181828304,
				"element": "O" 
			},
			{
				"x": -0.4542118644,
				"y": 0.5039179357,
				"z": -1.4144798706,
				"element": "C" 
			},
			{
				"x": 0.3730459313,
				"y": 1.3348293379,
				"z": -0.645203227,
				"element": "C" 
			},
			{
				"x": 1.4491309842,
				"y": 2.0008152765,
				"z": -1.2322041179,
				"element": "C" 
			},
			{
				"x": 1.7394254748,
				"y": 1.8489497049,
				"z": -2.5933246661,
				"element": "C" 
			},
			{
				"x": 2.9259584114,
				"y": 2.5392774712,
				"z": -3.2212077042,
				"element": "C" 
			},
			{
				"x": 0.900256709,
				"y": 1.0244344078,
				"z": -3.3611890939,
				"element": "C" 
			},
			{
				"x": -0.1839344566,
				"y": 0.3733069491,
				"z": -2.7869469378,
				"element": "C" 
			},
			{
				"x": -2.3980521043,
				"y": -0.9970954818,
				"z": 5.3406462572,
				"element": "H" 
			},
			{
				"x": -3.0419935513,
				"y": -2.5507773088,
				"z": 4.8132307951,
				"element": "H" 
			},
			{
				"x": -1.2996786175,
				"y": -2.3535116449,
				"z": 5.0681294266,
				"element": "H" 
			},
			{
				"x": -4.1561209151,
				"y": -1.1932024566,
				"z": 2.9061060773,
				"element": "H" 
			},
			{
				"x": -3.8898484669,
				"y": -0.4778104491,
				"z": 0.5414832723,
				"element": "H" 
			},
			{
				"x": 0.3669283625,
				"y": -0.8581062125,
				"z": 0.9083340554,
				"element": "H" 
			},
			{
				"x": 0.1062137389,
				"y": -1.6012644225,
				"z": 3.2422566646,
				"element": "H" 
			},
			{
				"x": 0.1606608555,
				"y": 1.4876025425,
				"z": 0.4076749444,
				"element": "H" 
			},
			{
				"x": 2.0700113049,
				"y": 2.6532582998,
				"z": -0.6233842983,
				"element": "H" 
			},
			{
				"x": 3.756773205,
				"y": 1.8380217723,
				"z": -3.368895221,
				"element": "H" 
			},
			{
				"x": 3.2932333849,
				"y": 3.3564075792,
				"z": -2.5941485103,
				"element": "H" 
			},
			{
				"x": 2.6745982923,
				"y": 2.9506475319,
				"z": -4.2041764872,
				"element": "H" 
			},
			{
				"x": 1.0996231121,
				"y": 0.901880513,
				"z": -4.4231281603,
				"element": "H" 
			},
			{
				"x": -0.8459057948,
				"y": -0.2437871797,
				"z": -3.3855100755,
				"element": "H" 
			}
		],
		 "valence_orbital": [ 
			{
				"type": "occ",
				"energy": -0.25578,
				"method": "rhf"
			},
			{
				"type": "occ",
				"energy": -0.2544,
				"method": "rhf"
			},
			{
				"type": "occ",
				"energy": -0.25076,
				"method": "rhf"
			},
			{
				"type": "occ",
				"energy": -0.24545,
				"method": "rhf"
			},
			{
				"type": "occ",
				"energy": -0.23579,
				"method": "rhf"
			},
			{
				"type": "unocc",
				"energy": -0.05713,
				"method": "rhf"
			},
			{
				"type": "unocc",
				"energy": -0.01208,
				"method": "rhf"
			},
			{
				"type": "unocc",
				"energy": -0.00388,
				"method": "rhf"
			},
			{
				"type": "unocc",
				"energy": -0.00129,
				"method": "rhf"
			},
			{
				"type": "unocc",
				"energy": 0.05915,
				"method": "rhf"
			}
		],
		"cosmo_sigma_profile": { 
			"-0.025": 0.0,
			"-0.024": 0.0,
			"-0.023": 0.0,
			"-0.022": 0.0,
			"-0.021": 0.0,
			"-0.02": 0.0,
			"-0.019": 0.0,
			"-0.018": 0.0,
			"-0.017": 0.0,
			"-0.016": 0.0,
			"-0.015": 0.0,
			"-0.014": 0.0,
			"-0.013": 0.0,
			"-0.012": 0.0,
			"-0.011": 0.0,
			"-0.01": 0.0,
			"-0.009": 0.0,
			"-0.008": 0.0,
			"-0.007": 0.0,
			"-0.006": 5.49547958632,
			"-0.005": 21.7289816597,
			"-0.004": 30.0541155613,
			"-0.003": 26.6310516139,
			"-0.002": 27.9745866078,
			"-0.001": 29.1814056439,
			"0.0": 26.9687372934,
			"0.001": 16.1821414778,
			"0.002": 14.9020063996,
			"0.003": 16.9390255044,
			"0.004": 22.6877286914,
			"0.005": 11.5083636353,
			"0.006": 2.18595222878,
			"0.007": 2.21583360676,
			"0.008": 1.31988869553,
			"0.009": 1.79768082206,
			"0.01": 2.06804701649,
			"0.011": 2.33992242046,
			"0.012": 4.02316403593,
			"0.013": 2.35614290829,
			"0.014": 0.0,
			"0.015": 0.0,
			"0.016": 0.0,
			"0.017": 0.0,
			"0.018": 0.0,
			"0.019": 0.0,
			"0.02": 0.0,
			"0.021": 0.0,
			"0.022": 0.0,
			"0.023": 0.0,
			"0.024": 0.0,
			"0.025": 0.0
		}
	}
}
