{
	 "smiles": "ClC1=CNC(=C1)C(=O)N1CCCNCC1", 
	 "Tm": 390.15, 
	 "num_atms": 29, 
	 "gaussian": { 
		 "optdone": 1, 
		 "sigma_profile": "yes", 
		 "theory": "DFT", 
		 "functional": "B3LYP", 
		 "basiset": "6-31G**", 
		 "properties": { 
			 "R2extent": 5108.7844, 
			 "electric_dipole_moment_norm": 4.95787708702, 
			 "electric_quadrupole_moment_norm": 14.2540269159, 
			 "total_energy": -1089.1518448, 
			 "HOMO_LUMO_gap": 0.20055, 
			 "cosmo_polarized_energy": -18.26, 
			 "cosmo_cavitation_energy": 32.17, 
			 "cosmo_dispersion_energy": -23.66, 
			 "cosmo_repulsion_energy": 1.84, 
			 "cosmo_total_nonelectrostatic_energy": 10.36, 
			 "SMD_solvation_energy": 3.27 
		},
		"coords": [
			{
				"x": 1.820704569,
				"y": -0.0835148296,
				"z": 5.5490179606,
				"element": "Cl" 
			},
			{
				"x": 1.1989142387,
				"y": -0.2951923797,
				"z": 3.9390059177,
				"element": "C" 
			},
			{
				"x": -0.1334836176,
				"y": -0.4728580513,
				"z": 3.619500335,
				"element": "C" 
			},
			{
				"x": -0.2046366586,
				"y": -0.5699618881,
				"z": 2.2544032043,
				"element": "N" 
			},
			{
				"x": 1.0618984419,
				"y": -0.4850729957,
				"z": 1.703442814,
				"element": "C" 
			},
			{
				"x": 1.9575579394,
				"y": -0.3134623689,
				"z": 2.7459660683,
				"element": "C" 
			},
			{
				"x": 1.3939018474,
				"y": -0.6558699369,
				"z": 0.2681718478,
				"element": "C" 
			},
			{
				"x": 2.4728621292,
				"y": -1.1481592613,
				"z": -0.0559640724,
				"element": "O" 
			},
			{
				"x": 0.4490314952,
				"y": -0.3077724782,
				"z": -0.6815679266,
				"element": "N" 
			},
			{
				"x": -0.5554202725,
				"y": 0.7437153084,
				"z": -0.5043471549,
				"element": "C" 
			},
			{
				"x": -2.0193960409,
				"y": 0.2465122763,
				"z": -0.7110423892,
				"element": "C" 
			},
			{
				"x": -2.1267646106,
				"y": -1.1533369016,
				"z": -1.3266565299,
				"element": "C" 
			},
			{
				"x": -1.6606382557,
				"y": -1.2077378886,
				"z": -2.715462158,
				"element": "N" 
			},
			{
				"x": -0.4141281358,
				"y": -0.5056027232,
				"z": -3.0228290445,
				"element": "C" 
			},
			{
				"x": 0.7743083534,
				"y": -0.6906729348,
				"z": -2.0663305596,
				"element": "C" 
			},
			{
				"x": -1.0063131448,
				"y": -0.5362430386,
				"z": 4.2503053434,
				"element": "H" 
			},
			{
				"x": -1.0351983522,
				"y": -0.8198766473,
				"z": 1.7409696042,
				"element": "H" 
			},
			{
				"x": 3.0267727645,
				"y": -0.2122374763,
				"z": 2.6426184155,
				"element": "H" 
			},
			{
				"x": -0.4320645991,
				"y": 1.1722115972,
				"z": 0.4901686046,
				"element": "H" 
			},
			{
				"x": -0.3350920859,
				"y": 1.5550820793,
				"z": -1.2082534128,
				"element": "H" 
			},
			{
				"x": -2.5402530253,
				"y": 0.2209579812,
				"z": 0.2552790514,
				"element": "H" 
			},
			{
				"x": -2.567671465,
				"y": 0.9638554831,
				"z": -1.3309740931,
				"element": "H" 
			},
			{
				"x": -1.5863076267,
				"y": -1.8554590158,
				"z": -0.6680734565,
				"element": "H" 
			},
			{
				"x": -3.1805380624,
				"y": -1.4589975081,
				"z": -1.3146237743,
				"element": "H" 
			},
			{
				"x": -1.5895609982,
				"y": -2.1791507659,
				"z": -3.0023581397,
				"element": "H" 
			},
			{
				"x": -0.0884495124,
				"y": -0.8298226778,
				"z": -4.017033136,
				"element": "H" 
			},
			{
				"x": -0.6350322053,
				"y": 0.5636682841,
				"z": -3.1275505074,
				"element": "H" 
			},
			{
				"x": 1.6248686155,
				"y": -0.0972825631,
				"z": -2.4336657322,
				"element": "H" 
			},
			{
				"x": 1.1098282751,
				"y": -1.731518679,
				"z": -2.0505170802,
				"element": "H" 
			}
		],
		 "valence_orbital": [ 
			{
				"type": "occ",
				"energy": -0.26054,
				"method": "rhf"
			},
			{
				"type": "occ",
				"energy": -0.24981,
				"method": "rhf"
			},
			{
				"type": "occ",
				"energy": -0.24123,
				"method": "rhf"
			},
			{
				"type": "occ",
				"energy": -0.22491,
				"method": "rhf"
			},
			{
				"type": "occ",
				"energy": -0.2205,
				"method": "rhf"
			},
			{
				"type": "unocc",
				"energy": -0.01995,
				"method": "rhf"
			},
			{
				"type": "unocc",
				"energy": 0.0297,
				"method": "rhf"
			},
			{
				"type": "unocc",
				"energy": 0.04745,
				"method": "rhf"
			},
			{
				"type": "unocc",
				"energy": 0.05805,
				"method": "rhf"
			},
			{
				"type": "unocc",
				"energy": 0.07893,
				"method": "rhf"
			}
		],
		"cosmo_sigma_profile": { 
			"-0.025": 0.0,
			"-0.024": 0.0,
			"-0.023": 0.0,
			"-0.022": 0.0,
			"-0.021": 0.0,
			"-0.02": 0.0,
			"-0.019": 0.0,
			"-0.018": 0.0,
			"-0.017": 0.0,
			"-0.016": 0.0,
			"-0.015": 0.34864843174,
			"-0.014": 0.871731397124,
			"-0.013": 0.850076371457,
			"-0.012": 1.71874520108,
			"-0.011": 1.64517904613,
			"-0.01": 3.34212869286,
			"-0.009": 5.70936759771,
			"-0.008": 4.76089561061,
			"-0.007": 5.50418630025,
			"-0.006": 6.69832321685,
			"-0.005": 12.8661857371,
			"-0.004": 20.6866968904,
			"-0.003": 25.6499142345,
			"-0.002": 25.902340362,
			"-0.001": 19.9488426114,
			"0.0": 16.6077730994,
			"0.001": 11.6364161858,
			"0.002": 11.2106127486,
			"0.003": 14.5472862076,
			"0.004": 18.4325903156,
			"0.005": 15.930176219,
			"0.006": 4.27626125281,
			"0.007": 2.34215010997,
			"0.008": 2.23499187435,
			"0.009": 1.81834544781,
			"0.01": 1.98336668771,
			"0.011": 3.0534389973,
			"0.012": 2.37683077392,
			"0.013": 3.65315754642,
			"0.014": 5.7219956576,
			"0.015": 1.29289759774,
			"0.016": 0.292201064681,
			"0.017": 0.758045761894,
			"0.018": 0.491372100167,
			"0.019": 0.0189139432578,
			"0.02": 0.0,
			"0.021": 0.0,
			"0.022": 0.0,
			"0.023": 0.0,
			"0.024": 0.0,
			"0.025": 0.0
		}
	}
}
