{
	 "smiles": "FC(F)(F)C1=CC=C(Br)N=C1", 
	 "Tm": 319.65, 
	 "num_atms": 14, 
	 "gaussian": { 
		 "optdone": 1, 
		 "sigma_profile": "yes", 
		 "theory": "DFT", 
		 "functional": "B3LYP", 
		 "basiset": "6-31G**", 
		 "properties": { 
			 "R2extent": 3518.1677, 
			 "electric_dipole_moment_norm": 1.8613397836, 
			 "electric_quadrupole_moment_norm": 7.40724654713, 
			 "total_energy": -3156.11996648, 
			 "HOMO_LUMO_gap": 0.2132, 
			 "cosmo_polarized_energy": -6.04, 
			 "cosmo_cavitation_energy": 22.65, 
			 "cosmo_dispersion_energy": -16.77, 
			 "cosmo_repulsion_energy": 1.29, 
			 "cosmo_total_nonelectrostatic_energy": 7.17, 
			 "SMD_solvation_energy": 2.55 
		},
		"coords": [
			{
				"x": 2.4507180382,
				"y": 1.0734953119,
				"z": 2.02531754,
				"element": "F" 
			},
			{
				"x": 1.0994206309,
				"y": 1.0998777391,
				"z": 2.0113716542,
				"element": "C" 
			},
			{
				"x": 0.6798071588,
				"y": 0.2003987879,
				"z": 2.9284086466,
				"element": "F" 
			},
			{
				"x": 0.7181048087,
				"y": 2.3241568085,
				"z": 2.4288394494,
				"element": "F" 
			},
			{
				"x": 0.5572311444,
				"y": 0.7810126583,
				"z": 0.6456604618,
				"element": "C" 
			},
			{
				"x": 0.4682707897,
				"y": -0.5458903667,
				"z": 0.2113959327,
				"element": "C" 
			},
			{
				"x": 0.0043041772,
				"y": -0.8041691543,
				"z": -1.071710744,
				"element": "C" 
			},
			{
				"x": -0.3485927018,
				"y": 0.2972574818,
				"z": -1.8595576658,
				"element": "C" 
			},
			{
				"x": -0.9892395381,
				"y": -0.0241871169,
				"z": -3.6369082092,
				"element": "Br" 
			},
			{
				"x": -0.2769401377,
				"y": 1.55600793,
				"z": -1.4702914487,
				"element": "N" 
			},
			{
				"x": 0.1715580426,
				"y": 1.7947584263,
				"z": -0.2305347455,
				"element": "C" 
			},
			{
				"x": 0.7498260492,
				"y": -1.360272317,
				"z": 0.8710409959,
				"element": "H" 
			},
			{
				"x": -0.0867898025,
				"y": -1.8129763538,
				"z": -1.4543132115,
				"element": "H" 
			},
			{
				"x": 0.2165213403,
				"y": 2.836430165,
				"z": 0.0734813442,
				"element": "H" 
			}
		],
		 "valence_orbital": [ 
			{
				"type": "occ",
				"energy": -0.33527,
				"method": "rhf"
			},
			{
				"type": "occ",
				"energy": -0.31612,
				"method": "rhf"
			},
			{
				"type": "occ",
				"energy": -0.29892,
				"method": "rhf"
			},
			{
				"type": "occ",
				"energy": -0.28774,
				"method": "rhf"
			},
			{
				"type": "occ",
				"energy": -0.27121,
				"method": "rhf"
			},
			{
				"type": "unocc",
				"energy": -0.05801,
				"method": "rhf"
			},
			{
				"type": "unocc",
				"energy": -0.04963,
				"method": "rhf"
			},
			{
				"type": "unocc",
				"energy": -0.00234,
				"method": "rhf"
			},
			{
				"type": "unocc",
				"energy": 0.09422,
				"method": "rhf"
			},
			{
				"type": "unocc",
				"energy": 0.09647,
				"method": "rhf"
			}
		],
		"cosmo_sigma_profile": { 
			"-0.025": 0.0,
			"-0.024": 0.0,
			"-0.023": 0.0,
			"-0.022": 0.0,
			"-0.021": 0.0,
			"-0.02": 0.0,
			"-0.019": 0.0,
			"-0.018": 0.0,
			"-0.017": 0.0,
			"-0.016": 0.0,
			"-0.015": 0.0,
			"-0.014": 0.0,
			"-0.013": 0.0,
			"-0.012": 0.0,
			"-0.011": 0.0,
			"-0.01": 0.184717495145,
			"-0.009": 3.27016934895,
			"-0.008": 5.76572540185,
			"-0.007": 5.53315038528,
			"-0.006": 5.25616417539,
			"-0.005": 6.38758193155,
			"-0.004": 7.96537901723,
			"-0.003": 9.61947531577,
			"-0.002": 16.2329517669,
			"-0.001": 20.2651534423,
			"0.0": 15.2121594231,
			"0.001": 13.3863641181,
			"0.002": 29.5612506501,
			"0.003": 24.115427894,
			"0.004": 10.3029896221,
			"0.005": 3.60917262007,
			"0.006": 2.51837699817,
			"0.007": 1.19846073062,
			"0.008": 1.19903422384,
			"0.009": 0.860445558241,
			"0.01": 1.12170801933,
			"0.011": 1.10070090754,
			"0.012": 0.925476692169,
			"0.013": 0.606936929938,
			"0.014": 0.224530230342,
			"0.015": 0.0,
			"0.016": 0.0,
			"0.017": 0.0,
			"0.018": 0.0,
			"0.019": 0.0,
			"0.02": 0.0,
			"0.021": 0.0,
			"0.022": 0.0,
			"0.023": 0.0,
			"0.024": 0.0,
			"0.025": 0.0
		}
	}
}
