{
	 "smiles": "[O-][N+](=O)C1=CC=C(C=C1)C1=CC=C(C=C1)N=NC1=CC=CC=C1", 
	 "Tm": 451.15, 
	 "num_atms": 36, 
	 "gaussian": { 
		 "optdone": 1, 
		 "sigma_profile": "yes", 
		 "theory": "DFT", 
		 "functional": "B3LYP", 
		 "basiset": "6-31G**", 
		 "properties": { 
			 "R2extent": 12698.2, 
			 "electric_dipole_moment_norm": 4.00046194458, 
			 "electric_quadrupole_moment_norm": 43.4244108928, 
			 "total_energy": -1008.29634374, 
			 "HOMO_LUMO_gap": 0.12221, 
			 "cosmo_polarized_energy": -15.26, 
			 "cosmo_cavitation_energy": 42.18, 
			 "cosmo_dispersion_energy": -29.58, 
			 "cosmo_repulsion_energy": 2.23, 
			 "cosmo_total_nonelectrostatic_energy": 14.83, 
			 "SMD_solvation_energy": 7.16 
		},
		"coords": [
			{
				"x": -2.5417097646,
				"y": 4.7718062884,
				"z": 6.0495397565,
				"element": "O" 
			},
			{
				"x": -2.1106054375,
				"y": 3.6517996433,
				"z": 6.3248985748,
				"element": "N" 
			},
			{
				"x": -2.1036273274,
				"y": 3.1615934845,
				"z": 7.4542864612,
				"element": "O" 
			},
			{
				"x": -1.5659614689,
				"y": 2.8423768439,
				"z": 5.2271269508,
				"element": "C" 
			},
			{
				"x": -1.0655326655,
				"y": 1.5713402581,
				"z": 5.5040735583,
				"element": "C" 
			},
			{
				"x": -0.5511942286,
				"y": 0.8118886134,
				"z": 4.4596876357,
				"element": "C" 
			},
			{
				"x": -0.5319133768,
				"y": 1.3035670471,
				"z": 3.1402535972,
				"element": "C" 
			},
			{
				"x": -1.0472913018,
				"y": 2.5921847008,
				"z": 2.9013977091,
				"element": "C" 
			},
			{
				"x": -1.5628446499,
				"y": 3.3651785392,
				"z": 3.9350724501,
				"element": "C" 
			},
			{
				"x": 0.0142645645,
				"y": 0.4871851295,
				"z": 2.0308281559,
				"element": "C" 
			},
			{
				"x": -0.1562197864,
				"y": -0.9090347868,
				"z": 2.0051276192,
				"element": "C" 
			},
			{
				"x": 0.3725173445,
				"y": -1.6763031426,
				"z": 0.9739284275,
				"element": "C" 
			},
			{
				"x": 1.040343872,
				"y": -1.0603810745,
				"z": -0.093283632,
				"element": "C" 
			},
			{
				"x": 1.2342597998,
				"y": 0.3292193125,
				"z": -0.0745902585,
				"element": "C" 
			},
			{
				"x": 0.7319170352,
				"y": 1.0848223921,
				"z": 0.9785741035,
				"element": "C" 
			},
			{
				"x": 1.6702038693,
				"y": -1.9239317962,
				"z": -1.0469307462,
				"element": "N" 
			},
			{
				"x": 1.6497585463,
				"y": -1.740122463,
				"z": -2.2823810267,
				"element": "N" 
			},
			{
				"x": 0.8228347335,
				"y": -0.7663053934,
				"z": -2.933792834,
				"element": "C" 
			},
			{
				"x": 1.409089176,
				"y": -0.0648248256,
				"z": -3.9964435816,
				"element": "C" 
			},
			{
				"x": 0.6448731606,
				"y": 0.8244872239,
				"z": -4.7485801491,
				"element": "C" 
			},
			{
				"x": -0.7194709942,
				"y": 0.9731890852,
				"z": -4.4849727996,
				"element": "C" 
			},
			{
				"x": -1.3143122989,
				"y": 0.2322626326,
				"z": -3.4601490614,
				"element": "C" 
			},
			{
				"x": -0.5498465552,
				"y": -0.6299276358,
				"z": -2.6765480899,
				"element": "C" 
			},
			{
				"x": -1.0766937473,
				"y": 1.205524782,
				"z": 6.5231454369,
				"element": "H" 
			},
			{
				"x": -0.1329090926,
				"y": -0.16624554,
				"z": 4.6731058096,
				"element": "H" 
			},
			{
				"x": -1.0678879863,
				"y": 2.9811872828,
				"z": 1.888644785,
				"element": "H" 
			},
			{
				"x": -1.9693142643,
				"y": 4.3534022986,
				"z": 3.7600493185,
				"element": "H" 
			},
			{
				"x": -0.7162683178,
				"y": -1.3969633165,
				"z": 2.7968433594,
				"element": "H" 
			},
			{
				"x": 0.2643337558,
				"y": -2.7564223822,
				"z": 0.9713260589,
				"element": "H" 
			},
			{
				"x": 1.7937057584,
				"y": 0.8088176995,
				"z": -0.8701299433,
				"element": "H" 
			},
			{
				"x": 0.9206879518,
				"y": 2.1538245804,
				"z": 0.9981470631,
				"element": "H" 
			},
			{
				"x": 2.4609308516,
				"y": -0.2256832147,
				"z": -4.2114564093,
				"element": "H" 
			},
			{
				"x": 1.108675693,
				"y": 1.3848692216,
				"z": -5.5549647005,
				"element": "H" 
			},
			{
				"x": -1.320036072,
				"y": 1.6489772146,
				"z": -5.086375604,
				"element": "H" 
			},
			{
				"x": -2.3792878211,
				"y": 0.326655262,
				"z": -3.2687245894,
				"element": "H" 
			},
			{
				"x": -1.0129689554,
				"y": -1.2075139642,
				"z": -1.8841334058,
				"element": "H" 
			}
		],
		 "valence_orbital": [ 
			{
				"type": "occ",
				"energy": -0.27787,
				"method": "rhf"
			},
			{
				"type": "occ",
				"energy": -0.26907,
				"method": "rhf"
			},
			{
				"type": "occ",
				"energy": -0.26458,
				"method": "rhf"
			},
			{
				"type": "occ",
				"energy": -0.25548,
				"method": "rhf"
			},
			{
				"type": "occ",
				"energy": -0.21869,
				"method": "rhf"
			},
			{
				"type": "unocc",
				"energy": -0.09648,
				"method": "rhf"
			},
			{
				"type": "unocc",
				"energy": -0.07886,
				"method": "rhf"
			},
			{
				"type": "unocc",
				"energy": -0.03193,
				"method": "rhf"
			},
			{
				"type": "unocc",
				"energy": -0.02671,
				"method": "rhf"
			},
			{
				"type": "unocc",
				"energy": -0.02632,
				"method": "rhf"
			}
		],
		"cosmo_sigma_profile": { 
			"-0.025": 0.0,
			"-0.024": 0.0,
			"-0.023": 0.0,
			"-0.022": 0.0,
			"-0.021": 0.0,
			"-0.02": 0.0,
			"-0.019": 0.0,
			"-0.018": 0.0,
			"-0.017": 0.0,
			"-0.016": 0.0,
			"-0.015": 0.0,
			"-0.014": 0.0,
			"-0.013": 0.0,
			"-0.012": 0.0,
			"-0.011": 0.0,
			"-0.01": 0.0,
			"-0.009": 0.0,
			"-0.008": 1.43700864077,
			"-0.007": 14.212219166,
			"-0.006": 28.8401378182,
			"-0.005": 28.0422696151,
			"-0.004": 23.9090902399,
			"-0.003": 22.4462890178,
			"-0.002": 22.264734581,
			"-0.001": 21.6122778051,
			"0.0": 25.9166380611,
			"0.001": 28.4462180011,
			"0.002": 28.4032235685,
			"0.003": 24.6981857793,
			"0.004": 18.0414504735,
			"0.005": 8.4392913532,
			"0.006": 4.61946961949,
			"0.007": 8.83471480565,
			"0.008": 10.3599106736,
			"0.009": 6.84465763666,
			"0.01": 4.52016381018,
			"0.011": 2.89501469538,
			"0.012": 2.58003743444,
			"0.013": 1.90688382429,
			"0.014": 0.692622880678,
			"0.015": 0.0,
			"0.016": 0.0,
			"0.017": 0.0,
			"0.018": 0.0,
			"0.019": 0.0,
			"0.02": 0.0,
			"0.021": 0.0,
			"0.022": 0.0,
			"0.023": 0.0,
			"0.024": 0.0,
			"0.025": 0.0
		}
	}
}
