{
	 "smiles": "CCCCCCCCCCCCCCCCCC#N", 
	 "Tm": 314.15, 
	 "num_atms": 54, 
	 "gaussian": { 
		 "optdone": 1, 
		 "sigma_profile": "yes", 
		 "theory": "DFT", 
		 "functional": "B3LYP", 
		 "basiset": "6-31G**", 
		 "properties": { 
			 "R2extent": 9069.8166, 
			 "electric_dipole_moment_norm": 4.26147999995, 
			 "electric_quadrupole_moment_norm": 14.9995369259, 
			 "total_energy": -761.792657232, 
			 "HOMO_LUMO_gap": 0.31862, 
			 "cosmo_polarized_energy": -8.74, 
			 "cosmo_cavitation_energy": 53.46, 
			 "cosmo_dispersion_energy": -33.13, 
			 "cosmo_repulsion_energy": 2.66, 
			 "cosmo_total_nonelectrostatic_energy": 22.99, 
			 "SMD_solvation_energy": 8.15 
		},
		"coords": [
			{
				"x": 0.9714491046,
				"y": -2.8430772219,
				"z": 4.3982831182,
				"element": "C" 
			},
			{
				"x": 1.5341050792,
				"y": -2.4601685742,
				"z": 3.0238953101,
				"element": "C" 
			},
			{
				"x": 1.7652346602,
				"y": -0.9532422141,
				"z": 2.8240130511,
				"element": "C" 
			},
			{
				"x": 0.4865541541,
				"y": -0.1027369584,
				"z": 2.8198663817,
				"element": "C" 
			},
			{
				"x": 0.771479514,
				"y": 1.385711393,
				"z": 2.5631024137,
				"element": "C" 
			},
			{
				"x": -0.4611250536,
				"y": 2.3173341583,
				"z": 2.5563708519,
				"element": "C" 
			},
			{
				"x": -1.1432763106,
				"y": 2.5349128633,
				"z": 1.192655002,
				"element": "C" 
			},
			{
				"x": -1.885574763,
				"y": 1.3300725559,
				"z": 0.5981452842,
				"element": "C" 
			},
			{
				"x": -2.5487647225,
				"y": 1.642390542,
				"z": -0.7496219634,
				"element": "C" 
			},
			{
				"x": -3.3694634596,
				"y": 0.4745438562,
				"z": -1.3209428004,
				"element": "C" 
			},
			{
				"x": -3.8740398982,
				"y": 0.69294654,
				"z": -2.7668967729,
				"element": "C" 
			},
			{
				"x": -3.0084507849,
				"y": 0.04635812,
				"z": -3.8641882922,
				"element": "C" 
			},
			{
				"x": -1.547108463,
				"y": 0.5136188413,
				"z": -3.9158238698,
				"element": "C" 
			},
			{
				"x": -0.7457281006,
				"y": -0.1552786751,
				"z": -5.0412094418,
				"element": "C" 
			},
			{
				"x": 0.7271346822,
				"y": 0.2766441291,
				"z": -5.1652982256,
				"element": "C" 
			},
			{
				"x": 1.6138176595,
				"y": -0.0408586568,
				"z": -3.940420077,
				"element": "C" 
			},
			{
				"x": 1.7317315218,
				"y": 1.1383007049,
				"z": -2.9466849013,
				"element": "C" 
			},
			{
				"x": 2.4690417376,
				"y": 0.7836376326,
				"z": -1.7307284632,
				"element": "C" 
			},
			{
				"x": 3.0439701948,
				"y": 0.483150047,
				"z": -0.767749976,
				"element": "N" 
			},
			{
				"x": 1.6275854007,
				"y": -2.4918366823,
				"z": 5.2035834468,
				"element": "H" 
			},
			{
				"x": -0.0200519987,
				"y": -2.4110520915,
				"z": 4.5693522913,
				"element": "H" 
			},
			{
				"x": 0.8766544121,
				"y": -3.9297108196,
				"z": 4.4986287256,
				"element": "H" 
			},
			{
				"x": 0.8597382888,
				"y": -2.8292372985,
				"z": 2.2383506329,
				"element": "H" 
			},
			{
				"x": 2.4869645366,
				"y": -2.9835046447,
				"z": 2.8723198342,
				"element": "H" 
			},
			{
				"x": 2.4410023597,
				"y": -0.5855018544,
				"z": 3.6103290389,
				"element": "H" 
			},
			{
				"x": 2.2924380124,
				"y": -0.7966690183,
				"z": 1.8741399002,
				"element": "H" 
			},
			{
				"x": -0.2003089551,
				"y": -0.4981240632,
				"z": 2.0605736218,
				"element": "H" 
			},
			{
				"x": -0.0373504307,
				"y": -0.2002039976,
				"z": 3.7805167966,
				"element": "H" 
			},
			{
				"x": 1.3189952164,
				"y": 1.4932090167,
				"z": 1.6165239384,
				"element": "H" 
			},
			{
				"x": 1.4638786465,
				"y": 1.7291754766,
				"z": 3.3434815792,
				"element": "H" 
			},
			{
				"x": -1.2019784063,
				"y": 1.9549117655,
				"z": 3.2837031663,
				"element": "H" 
			},
			{
				"x": -0.1490886217,
				"y": 3.304563119,
				"z": 2.9201177435,
				"element": "H" 
			},
			{
				"x": -0.3858929554,
				"y": 2.8800846413,
				"z": 0.4734967977,
				"element": "H" 
			},
			{
				"x": -1.8588278367,
				"y": 3.3633611136,
				"z": 1.2928157408,
				"element": "H" 
			},
			{
				"x": -2.6469185121,
				"y": 0.9827658045,
				"z": 1.3114935948,
				"element": "H" 
			},
			{
				"x": -1.1921074816,
				"y": 0.491122353,
				"z": 0.4612632869,
				"element": "H" 
			},
			{
				"x": -1.7727754871,
				"y": 1.9413434347,
				"z": -1.467019336,
				"element": "H" 
			},
			{
				"x": -3.205296977,
				"y": 2.5179139201,
				"z": -0.6438945568,
				"element": "H" 
			},
			{
				"x": -4.2247704025,
				"y": 0.3016363657,
				"z": -0.6555687218,
				"element": "H" 
			},
			{
				"x": -2.7740739347,
				"y": -0.4488904247,
				"z": -1.2781982544,
				"element": "H" 
			},
			{
				"x": -3.9667276135,
				"y": 1.7707474174,
				"z": -2.9610313807,
				"element": "H" 
			},
			{
				"x": -4.8877051012,
				"y": 0.2858832385,
				"z": -2.8646417323,
				"element": "H" 
			},
			{
				"x": -3.0227118686,
				"y": -1.0444391838,
				"z": -3.7265380159,
				"element": "H" 
			},
			{
				"x": -3.4770173558,
				"y": 0.2330209961,
				"z": -4.8403161817,
				"element": "H" 
			},
			{
				"x": -1.5145503863,
				"y": 1.6060212568,
				"z": -4.0406534204,
				"element": "H" 
			},
			{
				"x": -1.0727128517,
				"y": 0.2953794181,
				"z": -2.9515443419,
				"element": "H" 
			},
			{
				"x": -0.7805202182,
				"y": -1.2453262436,
				"z": -4.9031399418,
				"element": "H" 
			},
			{
				"x": -1.2452786328,
				"y": 0.0421210375,
				"z": -5.999222461,
				"element": "H" 
			},
			{
				"x": 0.7807706872,
				"y": 1.3512867562,
				"z": -5.3899813889,
				"element": "H" 
			},
			{
				"x": 1.1514185048,
				"y": -0.2296003126,
				"z": -6.0400759237,
				"element": "H" 
			},
			{
				"x": 1.2241544912,
				"y": -0.9195410869,
				"z": -3.4131558108,
				"element": "H" 
			},
			{
				"x": 2.6252783155,
				"y": -0.3046419094,
				"z": -4.2666332576,
				"element": "H" 
			},
			{
				"x": 2.2403337669,
				"y": 1.9832613053,
				"z": -3.4262792776,
				"element": "H" 
			},
			{
				"x": 0.7423666368,
				"y": 1.4986121114,
				"z": -2.646862762,
				"element": "H" 
			}
		],
		 "valence_orbital": [ 
			{
				"type": "occ",
				"energy": -0.30535,
				"method": "rhf"
			},
			{
				"type": "occ",
				"energy": -0.30491,
				"method": "rhf"
			},
			{
				"type": "occ",
				"energy": -0.30003,
				"method": "rhf"
			},
			{
				"type": "occ",
				"energy": -0.28935,
				"method": "rhf"
			},
			{
				"type": "occ",
				"energy": -0.28659,
				"method": "rhf"
			},
			{
				"type": "unocc",
				"energy": 0.03203,
				"method": "rhf"
			},
			{
				"type": "unocc",
				"energy": 0.03622,
				"method": "rhf"
			},
			{
				"type": "unocc",
				"energy": 0.06296,
				"method": "rhf"
			},
			{
				"type": "unocc",
				"energy": 0.08127,
				"method": "rhf"
			},
			{
				"type": "unocc",
				"energy": 0.09037,
				"method": "rhf"
			}
		],
		"cosmo_sigma_profile": { 
			"-0.025": 0.0,
			"-0.024": 0.0,
			"-0.023": 0.0,
			"-0.022": 0.0,
			"-0.021": 0.0,
			"-0.02": 0.0,
			"-0.019": 0.0,
			"-0.018": 0.0,
			"-0.017": 0.0,
			"-0.016": 0.0,
			"-0.015": 0.0,
			"-0.014": 0.0,
			"-0.013": 0.0,
			"-0.012": 0.0,
			"-0.011": 0.0,
			"-0.01": 0.0,
			"-0.009": 0.0,
			"-0.008": 0.547490660973,
			"-0.007": 2.96432486577,
			"-0.006": 3.14719965355,
			"-0.005": 8.89554579896,
			"-0.004": 15.9581950365,
			"-0.003": 17.0393392901,
			"-0.002": 49.1642669906,
			"-0.001": 84.5718047568,
			"0.0": 85.7448439818,
			"0.001": 68.9385280697,
			"0.002": 35.0246171773,
			"0.003": 7.24025110945,
			"0.004": 6.67046277973,
			"0.005": 4.2127070936,
			"0.006": 4.75002594421,
			"0.007": 2.57779105374,
			"0.008": 2.9011327922,
			"0.009": 3.26951673416,
			"0.01": 2.11093507449,
			"0.011": 2.16065357031,
			"0.012": 1.81235596696,
			"0.013": 0.917498004852,
			"0.014": 0.0368691631443,
			"0.015": 0.0,
			"0.016": 0.0,
			"0.017": 0.0,
			"0.018": 0.0,
			"0.019": 0.0,
			"0.02": 0.0,
			"0.021": 0.0,
			"0.022": 0.0,
			"0.023": 0.0,
			"0.024": 0.0,
			"0.025": 0.0
		}
	}
}
