{
	 "smiles": "CC(=O)CCC1C(=O)N(N(C1=O)C1=CC=CC=C1)C1=CC=CC=C1", 
	 "Tm": 389.15, 
	 "num_atms": 42, 
	 "gaussian": { 
		 "optdone": 1, 
		 "sigma_profile": "yes", 
		 "theory": "DFT", 
		 "functional": "B3LYP", 
		 "basiset": "6-31G**", 
		 "properties": { 
			 "R2extent": 9193.6389, 
			 "electric_dipole_moment_norm": 4.55765655793, 
			 "electric_quadrupole_moment_norm": 16.119033409, 
			 "total_energy": -1070.03468981, 
			 "HOMO_LUMO_gap": 0.18796, 
			 "cosmo_polarized_energy": -18.49, 
			 "cosmo_cavitation_energy": 46.02, 
			 "cosmo_dispersion_energy": -30.51, 
			 "cosmo_repulsion_energy": 2.37, 
			 "cosmo_total_nonelectrostatic_energy": 17.87, 
			 "SMD_solvation_energy": 9.31 
		},
		"coords": [
			{
				"x": 1.0577073093,
				"y": 1.7985217385,
				"z": 4.4529660434,
				"element": "C" 
			},
			{
				"x": 1.8777806649,
				"y": 2.3932533301,
				"z": 3.3218280427,
				"element": "C" 
			},
			{
				"x": 2.7102126071,
				"y": 3.2580099132,
				"z": 3.5180578251,
				"element": "O" 
			},
			{
				"x": 1.6047184619,
				"y": 1.8469761386,
				"z": 1.9234610706,
				"element": "C" 
			},
			{
				"x": 2.493901596,
				"y": 2.4835759582,
				"z": 0.854250223,
				"element": "C" 
			},
			{
				"x": 2.2247116446,
				"y": 1.9614680445,
				"z": -0.5658946297,
				"element": "C" 
			},
			{
				"x": 0.8289177623,
				"y": 2.2134875519,
				"z": -1.11177877,
				"element": "C" 
			},
			{
				"x": 0.2290851287,
				"y": 3.2685992514,
				"z": -1.1478977988,
				"element": "O" 
			},
			{
				"x": 0.3598900917,
				"y": 1.0042925915,
				"z": -1.6444949121,
				"element": "N" 
			},
			{
				"x": 1.3225750501,
				"y": -0.0328326783,
				"z": -1.4471416021,
				"element": "N" 
			},
			{
				"x": 2.4172762897,
				"y": 0.4630678544,
				"z": -0.7251641922,
				"element": "C" 
			},
			{
				"x": 3.3163479499,
				"y": -0.2170458841,
				"z": -0.2733280958,
				"element": "O" 
			},
			{
				"x": 0.8464441994,
				"y": -1.3718054121,
				"z": -1.2612677014,
				"element": "C" 
			},
			{
				"x": 1.7397980275,
				"y": -2.4314441502,
				"z": -1.4588050131,
				"element": "C" 
			},
			{
				"x": 1.3037555731,
				"y": -3.7407323316,
				"z": -1.2600505895,
				"element": "C" 
			},
			{
				"x": -0.0161200078,
				"y": -4.0022218367,
				"z": -0.8882051519,
				"element": "C" 
			},
			{
				"x": -0.902236021,
				"y": -2.939548692,
				"z": -0.7062282124,
				"element": "C" 
			},
			{
				"x": -0.4780102494,
				"y": -1.6231354464,
				"z": -0.8854658832,
				"element": "C" 
			},
			{
				"x": -0.4842099989,
				"y": 0.946175828,
				"z": -2.7987982887,
				"element": "C" 
			},
			{
				"x": -0.1442462391,
				"y": 0.1479948783,
				"z": -3.8976228748,
				"element": "C" 
			},
			{
				"x": -0.9830344172,
				"y": 0.1197179113,
				"z": -5.0110427269,
				"element": "C" 
			},
			{
				"x": -2.1497100324,
				"y": 0.8850420661,
				"z": -5.0415674145,
				"element": "C" 
			},
			{
				"x": -2.4782047805,
				"y": 1.679696164,
				"z": -3.9421805581,
				"element": "C" 
			},
			{
				"x": -1.6592340921,
				"y": 1.7084503856,
				"z": -2.8139337743,
				"element": "C" 
			},
			{
				"x": 1.3234041028,
				"y": 2.2818589163,
				"z": 5.3939907662,
				"element": "H" 
			},
			{
				"x": 1.2406542318,
				"y": 0.7203717498,
				"z": 4.5299673631,
				"element": "H" 
			},
			{
				"x": -0.0138796252,
				"y": 1.9272341928,
				"z": 4.2617204185,
				"element": "H" 
			},
			{
				"x": 0.540215712,
				"y": 2.0095185628,
				"z": 1.7009926369,
				"element": "H" 
			},
			{
				"x": 1.7421492842,
				"y": 0.7571863505,
				"z": 1.9522750903,
				"element": "H" 
			},
			{
				"x": 2.349619933,
				"y": 3.5670095259,
				"z": 0.8529065713,
				"element": "H" 
			},
			{
				"x": 3.5438463647,
				"y": 2.299952055,
				"z": 1.0957172598,
				"element": "H" 
			},
			{
				"x": 2.9112506682,
				"y": 2.4715314822,
				"z": -1.2567931135,
				"element": "H" 
			},
			{
				"x": 2.7626058085,
				"y": -2.224774994,
				"z": -1.7460926612,
				"element": "H" 
			},
			{
				"x": 2.0018233443,
				"y": -4.5596080788,
				"z": -1.406362857,
				"element": "H" 
			},
			{
				"x": -0.3522624706,
				"y": -5.0247544683,
				"z": -0.746011294,
				"element": "H" 
			},
			{
				"x": -1.9320660256,
				"y": -3.1303194633,
				"z": -0.4189202208,
				"element": "H" 
			},
			{
				"x": -1.1677070275,
				"y": -0.8004131467,
				"z": -0.7391121416,
				"element": "H" 
			},
			{
				"x": 0.7640839229,
				"y": -0.4423140532,
				"z": -3.8810898747,
				"element": "H" 
			},
			{
				"x": -0.7157308538,
				"y": -0.5027327076,
				"z": -5.8599007054,
				"element": "H" 
			},
			{
				"x": -2.7979680597,
				"y": 0.8594592223,
				"z": -5.9121077445,
				"element": "H" 
			},
			{
				"x": -3.3838349783,
				"y": 2.2789259999,
				"z": -3.9534570912,
				"element": "H" 
			},
			{
				"x": -1.9085208492,
				"y": 2.3267056801,
				"z": -1.9618174175,
				"element": "H" 
			}
		],
		 "valence_orbital": [ 
			{
				"type": "occ",
				"energy": -0.26078,
				"method": "rhf"
			},
			{
				"type": "occ",
				"energy": -0.25773,
				"method": "rhf"
			},
			{
				"type": "occ",
				"energy": -0.2487,
				"method": "rhf"
			},
			{
				"type": "occ",
				"energy": -0.24684,
				"method": "rhf"
			},
			{
				"type": "occ",
				"energy": -0.2208,
				"method": "rhf"
			},
			{
				"type": "unocc",
				"energy": -0.03284,
				"method": "rhf"
			},
			{
				"type": "unocc",
				"energy": -0.01784,
				"method": "rhf"
			},
			{
				"type": "unocc",
				"energy": -0.01486,
				"method": "rhf"
			},
			{
				"type": "unocc",
				"energy": -0.0116,
				"method": "rhf"
			},
			{
				"type": "unocc",
				"energy": -0.00952,
				"method": "rhf"
			}
		],
		"cosmo_sigma_profile": { 
			"-0.025": 0.0,
			"-0.024": 0.0,
			"-0.023": 0.0,
			"-0.022": 0.0,
			"-0.021": 0.0,
			"-0.02": 0.0,
			"-0.019": 0.0,
			"-0.018": 0.0,
			"-0.017": 0.0,
			"-0.016": 0.0,
			"-0.015": 0.0,
			"-0.014": 0.0,
			"-0.013": 0.0,
			"-0.012": 0.0,
			"-0.011": 0.0296534669723,
			"-0.01": 1.85876532703,
			"-0.009": 3.57162066243,
			"-0.008": 2.94700718905,
			"-0.007": 7.34668860806,
			"-0.006": 26.8813204912,
			"-0.005": 33.3559842878,
			"-0.004": 35.943240268,
			"-0.003": 31.3854715428,
			"-0.002": 29.174246494,
			"-0.001": 25.7428707472,
			"0.0": 21.0203116897,
			"0.001": 16.0652791674,
			"0.002": 17.7253208567,
			"0.003": 19.4951388492,
			"0.004": 23.4752399746,
			"0.005": 21.5945394866,
			"0.006": 5.65369053997,
			"0.007": 4.43780169796,
			"0.008": 5.04577050798,
			"0.009": 6.32687692271,
			"0.01": 5.54643709441,
			"0.011": 10.7044930038,
			"0.012": 9.14874854085,
			"0.013": 1.70796747956,
			"0.014": 0.0,
			"0.015": 0.0,
			"0.016": 0.0,
			"0.017": 0.0,
			"0.018": 0.0,
			"0.019": 0.0,
			"0.02": 0.0,
			"0.021": 0.0,
			"0.022": 0.0,
			"0.023": 0.0,
			"0.024": 0.0,
			"0.025": 0.0
		}
	}
}
