{
	 "smiles": "CC(=O)NC1=CC=CC2=C1C1=CC=CC=C1C2=O", 
	 "Tm": 536.15, 
	 "num_atms": 29, 
	 "gaussian": { 
		 "optdone": 1, 
		 "sigma_profile": "yes", 
		 "theory": "DFT", 
		 "functional": "B3LYP", 
		 "basiset": "6-31G**", 
		 "properties": { 
			 "R2extent": 5243.6854, 
			 "electric_dipole_moment_norm": 0.693031269136, 
			 "electric_quadrupole_moment_norm": 24.3064859009, 
			 "total_energy": -783.449293252, 
			 "HOMO_LUMO_gap": 0.14104, 
			 "cosmo_polarized_energy": -15.44, 
			 "cosmo_cavitation_energy": 33.56, 
			 "cosmo_dispersion_energy": -23.81, 
			 "cosmo_repulsion_energy": 1.8, 
			 "cosmo_total_nonelectrostatic_energy": 11.55, 
			 "SMD_solvation_energy": 6.78 
		},
		"coords": [
			{
				"x": -4.4265860837,
				"y": 0.8606685561,
				"z": 0.1116810213,
				"element": "C" 
			},
			{
				"x": -3.8499953261,
				"y": 0.2390005376,
				"z": -1.1463193633,
				"element": "C" 
			},
			{
				"x": -4.2209036214,
				"y": 0.5634546084,
				"z": -2.2642465831,
				"element": "O" 
			},
			{
				"x": -2.8550875645,
				"y": -0.7176546346,
				"z": -1.0088641325,
				"element": "N" 
			},
			{
				"x": -2.257369878,
				"y": -1.2729018603,
				"z": 0.1467486347,
				"element": "C" 
			},
			{
				"x": -3.0397225605,
				"y": -1.8136896022,
				"z": 1.187934393,
				"element": "C" 
			},
			{
				"x": -2.4586318337,
				"y": -2.4064855604,
				"z": 2.3077403045,
				"element": "C" 
			},
			{
				"x": -1.0656086924,
				"y": -2.5178516443,
				"z": 2.408777686,
				"element": "C" 
			},
			{
				"x": -0.298512915,
				"y": -2.0035274241,
				"z": 1.3767866043,
				"element": "C" 
			},
			{
				"x": -0.8651046673,
				"y": -1.3643261576,
				"z": 0.2545991951,
				"element": "C" 
			},
			{
				"x": 0.2354530978,
				"y": -0.895407,
				"z": -0.6289579208,
				"element": "C" 
			},
			{
				"x": 0.2420166229,
				"y": -0.1740770877,
				"z": -1.8211241365,
				"element": "C" 
			},
			{
				"x": 1.4767021099,
				"y": 0.1250340446,
				"z": -2.4195071139,
				"element": "C" 
			},
			{
				"x": 2.6836133552,
				"y": -0.2796921895,
				"z": -1.8452369897,
				"element": "C" 
			},
			{
				"x": 2.6826109826,
				"y": -0.992019314,
				"z": -0.6386250705,
				"element": "C" 
			},
			{
				"x": 1.4630169788,
				"y": -1.2866644728,
				"z": -0.0497284306,
				"element": "C" 
			},
			{
				"x": 1.1947044743,
				"y": -1.996871271,
				"z": 1.2384686726,
				"element": "C" 
			},
			{
				"x": 2.0086993783,
				"y": -2.4649476449,
				"z": 2.0149104118,
				"element": "O" 
			},
			{
				"x": -4.7670301848,
				"y": 1.8639829715,
				"z": -0.1472242839,
				"element": "H" 
			},
			{
				"x": -5.2988980924,
				"y": 0.2890352519,
				"z": 0.4459326049,
				"element": "H" 
			},
			{
				"x": -3.7123648863,
				"y": 0.9064218267,
				"z": 0.9363534355,
				"element": "H" 
			},
			{
				"x": -2.486494673,
				"y": -1.0111142123,
				"z": -1.9054977861,
				"element": "H" 
			},
			{
				"x": -4.120172732,
				"y": -1.7845110659,
				"z": 1.0959155354,
				"element": "H" 
			},
			{
				"x": -3.0975137462,
				"y": -2.8070255701,
				"z": 3.0888267639,
				"element": "H" 
			},
			{
				"x": -0.5885544174,
				"y": -2.9935772103,
				"z": 3.259858222,
				"element": "H" 
			},
			{
				"x": -0.6734500801,
				"y": 0.17950918,
				"z": -2.2822189594,
				"element": "H" 
			},
			{
				"x": 1.4888981943,
				"y": 0.6874845923,
				"z": -3.348689944,
				"element": "H" 
			},
			{
				"x": 3.6224043281,
				"y": -0.0342742922,
				"z": -2.3322691733,
				"element": "H" 
			},
			{
				"x": 3.6057824326,
				"y": -1.3080733549,
				"z": -0.1619235971,
				"element": "H" 
			}
		],
		 "valence_orbital": [ 
			{
				"type": "occ",
				"energy": -0.26949,
				"method": "rhf"
			},
			{
				"type": "occ",
				"energy": -0.26194,
				"method": "rhf"
			},
			{
				"type": "occ",
				"energy": -0.2546,
				"method": "rhf"
			},
			{
				"type": "occ",
				"energy": -0.25029,
				"method": "rhf"
			},
			{
				"type": "occ",
				"energy": -0.23227,
				"method": "rhf"
			},
			{
				"type": "unocc",
				"energy": -0.09123,
				"method": "rhf"
			},
			{
				"type": "unocc",
				"energy": -0.04735,
				"method": "rhf"
			},
			{
				"type": "unocc",
				"energy": -0.01516,
				"method": "rhf"
			},
			{
				"type": "unocc",
				"energy": 0.01382,
				"method": "rhf"
			},
			{
				"type": "unocc",
				"energy": 0.02526,
				"method": "rhf"
			}
		],
		"cosmo_sigma_profile": { 
			"-0.025": 0.0,
			"-0.024": 0.0,
			"-0.023": 0.0,
			"-0.022": 0.0,
			"-0.021": 0.0,
			"-0.02": 0.0,
			"-0.019": 0.0,
			"-0.018": 0.0,
			"-0.017": 0.0,
			"-0.016": 0.0,
			"-0.015": 0.0,
			"-0.014": 0.269864200985,
			"-0.013": 0.881039787332,
			"-0.012": 1.26603324335,
			"-0.011": 1.29096337532,
			"-0.01": 1.05778012903,
			"-0.009": 1.05939897469,
			"-0.008": 3.55882918903,
			"-0.007": 10.17028828,
			"-0.006": 17.2438235626,
			"-0.005": 19.4393310514,
			"-0.004": 20.01925952,
			"-0.003": 17.7385467852,
			"-0.002": 21.5360347197,
			"-0.001": 21.3462393008,
			"0.0": 19.4202893476,
			"0.001": 21.982676401,
			"0.002": 22.69819278,
			"0.003": 21.6388930954,
			"0.004": 7.83028123399,
			"0.005": 3.47152097867,
			"0.006": 2.6790626662,
			"0.007": 2.03680775504,
			"0.008": 3.69741763489,
			"0.009": 3.00824913118,
			"0.01": 3.21749091356,
			"0.011": 6.67998459652,
			"0.012": 4.86077124519,
			"0.013": 5.6016759024,
			"0.014": 3.50544577969,
			"0.015": 0.418821197259,
			"0.016": 0.0,
			"0.017": 0.0,
			"0.018": 0.0,
			"0.019": 0.0,
			"0.02": 0.0,
			"0.021": 0.0,
			"0.022": 0.0,
			"0.023": 0.0,
			"0.024": 0.0,
			"0.025": 0.0
		}
	}
}
