{
	 "smiles": "CC1=CN(N=C1N)C1=C(F)C=CC=N1", 
	 "Tm": 405.15, 
	 "num_atms": 23, 
	 "gaussian": { 
		 "optdone": 1, 
		 "sigma_profile": "yes", 
		 "theory": "DFT", 
		 "functional": "B3LYP", 
		 "basiset": "6-31G**", 
		 "properties": { 
			 "R2extent": 3140.3563, 
			 "electric_dipole_moment_norm": 1.28262504654, 
			 "electric_quadrupole_moment_norm": 15.7716997828, 
			 "total_energy": -667.200277946, 
			 "HOMO_LUMO_gap": 0.16251, 
			 "cosmo_polarized_energy": -12.15, 
			 "cosmo_cavitation_energy": 27.96, 
			 "cosmo_dispersion_energy": -20.62, 
			 "cosmo_repulsion_energy": 1.61, 
			 "cosmo_total_nonelectrostatic_energy": 8.95, 
			 "SMD_solvation_energy": 3.98 
		},
		"coords": [
			{
				"x": -2.6063824283,
				"y": -0.3711043541,
				"z": -3.5604918993,
				"element": "C" 
			},
			{
				"x": -1.8057338857,
				"y": 0.0406625152,
				"z": -2.3644767414,
				"element": "C" 
			},
			{
				"x": -0.820751431,
				"y": -0.6502430531,
				"z": -1.705387998,
				"element": "C" 
			},
			{
				"x": -0.3654699375,
				"y": 0.1504527838,
				"z": -0.6855648253,
				"element": "N" 
			},
			{
				"x": -1.0340795766,
				"y": 1.3502634051,
				"z": -0.6430094018,
				"element": "N" 
			},
			{
				"x": -1.8869602654,
				"y": 1.2834882879,
				"z": -1.6533555338,
				"element": "C" 
			},
			{
				"x": -2.6979724312,
				"y": 2.3641914827,
				"z": -1.9851310782,
				"element": "N" 
			},
			{
				"x": 0.6423506401,
				"y": -0.1866163705,
				"z": 0.2256421828,
				"element": "C" 
			},
			{
				"x": 1.1191973699,
				"y": 0.6859432162,
				"z": 1.2271409691,
				"element": "C" 
			},
			{
				"x": 0.6412935631,
				"y": 1.9282148441,
				"z": 1.3852603605,
				"element": "F" 
			},
			{
				"x": 2.1208640096,
				"y": 0.2540369882,
				"z": 2.0816856018,
				"element": "C" 
			},
			{
				"x": 2.640961275,
				"y": -1.0323773582,
				"z": 1.9332437821,
				"element": "C" 
			},
			{
				"x": 2.1166754702,
				"y": -1.8254135923,
				"z": 0.9165179786,
				"element": "C" 
			},
			{
				"x": 1.1490732691,
				"y": -1.4163805934,
				"z": 0.0922988228,
				"element": "N" 
			},
			{
				"x": -3.6758634068,
				"y": -0.4633524026,
				"z": -3.3285589389,
				"element": "H" 
			},
			{
				"x": -2.2733942249,
				"y": -1.3392991933,
				"z": -3.9438293669,
				"element": "H" 
			},
			{
				"x": -2.5150580674,
				"y": 0.3609988802,
				"z": -4.3716761589,
				"element": "H" 
			},
			{
				"x": -0.396076693,
				"y": -1.6280182715,
				"z": -1.8653776528,
				"element": "H" 
			},
			{
				"x": -2.7144204867,
				"y": 3.0670066961,
				"z": -1.2558191216,
				"element": "H" 
			},
			{
				"x": -3.634092525,
				"y": 2.1045184317,
				"z": -2.2694559975,
				"element": "H" 
			},
			{
				"x": 2.4753999231,
				"y": 0.9375736679,
				"z": 2.8461722099,
				"element": "H" 
			},
			{
				"x": 3.4254483157,
				"y": -1.4012196594,
				"z": 2.5847688154,
				"element": "H" 
			},
			{
				"x": 2.4842915236,
				"y": -2.8358263506,
				"z": 0.7516039914,
				"element": "H" 
			}
		],
		 "valence_orbital": [ 
			{
				"type": "occ",
				"energy": -0.27853,
				"method": "rhf"
			},
			{
				"type": "occ",
				"energy": -0.2701,
				"method": "rhf"
			},
			{
				"type": "occ",
				"energy": -0.26176,
				"method": "rhf"
			},
			{
				"type": "occ",
				"energy": -0.23223,
				"method": "rhf"
			},
			{
				"type": "occ",
				"energy": -0.19631,
				"method": "rhf"
			},
			{
				"type": "unocc",
				"energy": -0.0338,
				"method": "rhf"
			},
			{
				"type": "unocc",
				"energy": -0.01207,
				"method": "rhf"
			},
			{
				"type": "unocc",
				"energy": 0.04665,
				"method": "rhf"
			},
			{
				"type": "unocc",
				"energy": 0.07387,
				"method": "rhf"
			},
			{
				"type": "unocc",
				"energy": 0.09027,
				"method": "rhf"
			}
		],
		"cosmo_sigma_profile": { 
			"-0.025": 0.0,
			"-0.024": 0.0,
			"-0.023": 0.0,
			"-0.022": 0.0,
			"-0.021": 0.0,
			"-0.02": 0.0,
			"-0.019": 0.0,
			"-0.018": 0.0,
			"-0.017": 0.0,
			"-0.016": 0.0,
			"-0.015": 0.0,
			"-0.014": 0.0,
			"-0.013": 0.357238198419,
			"-0.012": 2.18216297657,
			"-0.011": 2.23793355971,
			"-0.01": 2.02596763524,
			"-0.009": 2.99422543274,
			"-0.008": 5.94840547364,
			"-0.007": 7.7840418891,
			"-0.006": 10.1229988099,
			"-0.005": 10.9026943429,
			"-0.004": 13.7431878814,
			"-0.003": 10.9455243271,
			"-0.002": 13.2489706268,
			"-0.001": 19.338080855,
			"0.0": 20.8971862004,
			"0.001": 18.8424989245,
			"0.002": 17.328642095,
			"0.003": 13.3801034991,
			"0.004": 15.4595062772,
			"0.005": 6.71211120409,
			"0.006": 5.32642623322,
			"0.007": 4.73009170524,
			"0.008": 4.28839404857,
			"0.009": 3.13598399595,
			"0.01": 3.86914978552,
			"0.011": 1.12737214039,
			"0.012": 2.70662212862,
			"0.013": 2.26641609441,
			"0.014": 1.42891075042,
			"0.015": 0.34691912386,
			"0.016": 0.0,
			"0.017": 0.0,
			"0.018": 0.0,
			"0.019": 0.0,
			"0.02": 0.0,
			"0.021": 0.0,
			"0.022": 0.0,
			"0.023": 0.0,
			"0.024": 0.0,
			"0.025": 0.0
		}
	}
}
