{
	 "smiles": "ClC1=NC=CC=C1C1=NC(Br)=CC=C1", 
	 "Tm": 413.65, 
	 "num_atms": 20, 
	 "gaussian": { 
		 "optdone": 1, 
		 "sigma_profile": "yes", 
		 "theory": "DFT", 
		 "functional": "B3LYP", 
		 "basiset": "6-31G**", 
		 "properties": { 
			 "R2extent": 5137.6147, 
			 "electric_dipole_moment_norm": 2.38690947671, 
			 "electric_quadrupole_moment_norm": 22.0913628077, 
			 "total_energy": -3525.77370263, 
			 "HOMO_LUMO_gap": 0.18357, 
			 "cosmo_polarized_energy": -9.26, 
			 "cosmo_cavitation_energy": 28.93, 
			 "cosmo_dispersion_energy": -21.84, 
			 "cosmo_repulsion_energy": 1.72, 
			 "cosmo_total_nonelectrostatic_energy": 8.81, 
			 "SMD_solvation_energy": 1.13 
		},
		"coords": [
			{
				"x": 3.483247182,
				"y": 0.3521344444,
				"z": -1.9762303651,
				"element": "Cl" 
			},
			{
				"x": 2.9017477136,
				"y": -1.029330214,
				"z": -1.0344871927,
				"element": "C" 
			},
			{
				"x": 3.7359903405,
				"y": -2.0518996135,
				"z": -1.0111381594,
				"element": "N" 
			},
			{
				"x": 3.357458291,
				"y": -3.16844663,
				"z": -0.3785586459,
				"element": "C" 
			},
			{
				"x": 2.112619526,
				"y": -3.3015870129,
				"z": 0.2308870589,
				"element": "C" 
			},
			{
				"x": 1.2490256732,
				"y": -2.2127591374,
				"z": 0.1972112106,
				"element": "C" 
			},
			{
				"x": 1.6287834959,
				"y": -1.013388809,
				"z": -0.4270602424,
				"element": "C" 
			},
			{
				"x": 0.664952357,
				"y": 0.1217461477,
				"z": -0.403896196,
				"element": "C" 
			},
			{
				"x": -0.63430381,
				"y": -0.238821383,
				"z": -0.4772720201,
				"element": "N" 
			},
			{
				"x": -1.5520320494,
				"y": 0.7012635509,
				"z": -0.4210302125,
				"element": "C" 
			},
			{
				"x": -3.3851975956,
				"y": 0.1285476225,
				"z": -0.533200353,
				"element": "Br" 
			},
			{
				"x": -1.2914135892,
				"y": 2.0662622835,
				"z": -0.2825671304,
				"element": "C" 
			},
			{
				"x": 0.0463755162,
				"y": 2.435978498,
				"z": -0.1816942661,
				"element": "C" 
			},
			{
				"x": 1.0417836777,
				"y": 1.4604668903,
				"z": -0.2390266931,
				"element": "C" 
			},
			{
				"x": 4.0797941485,
				"y": -3.9815140847,
				"z": -0.3735212557,
				"element": "H" 
			},
			{
				"x": 1.8291424846,
				"y": -4.228201045,
				"z": 0.718487821,
				"element": "H" 
			},
			{
				"x": 0.2638003158,
				"y": -2.2626104919,
				"z": 0.6476071111,
				"element": "H" 
			},
			{
				"x": -2.0966725919,
				"y": 2.7891906912,
				"z": -0.247511502,
				"element": "H" 
			},
			{
				"x": 0.31353929,
				"y": 3.4806028014,
				"z": -0.0528637637,
				"element": "H" 
			},
			{
				"x": 2.0845596242,
				"y": 1.7328654914,
				"z": -0.1478352034,
				"element": "H" 
			}
		],
		 "valence_orbital": [ 
			{
				"type": "occ",
				"energy": -0.29074,
				"method": "rhf"
			},
			{
				"type": "occ",
				"energy": -0.28088,
				"method": "rhf"
			},
			{
				"type": "occ",
				"energy": -0.27755,
				"method": "rhf"
			},
			{
				"type": "occ",
				"energy": -0.27087,
				"method": "rhf"
			},
			{
				"type": "occ",
				"energy": -0.24853,
				"method": "rhf"
			},
			{
				"type": "unocc",
				"energy": -0.06496,
				"method": "rhf"
			},
			{
				"type": "unocc",
				"energy": -0.03807,
				"method": "rhf"
			},
			{
				"type": "unocc",
				"energy": -0.03562,
				"method": "rhf"
			},
			{
				"type": "unocc",
				"energy": -0.00491,
				"method": "rhf"
			},
			{
				"type": "unocc",
				"energy": 0.00492,
				"method": "rhf"
			}
		],
		"cosmo_sigma_profile": { 
			"-0.025": 0.0,
			"-0.024": 0.0,
			"-0.023": 0.0,
			"-0.022": 0.0,
			"-0.021": 0.0,
			"-0.02": 0.0,
			"-0.019": 0.0,
			"-0.018": 0.0,
			"-0.017": 0.0,
			"-0.016": 0.0,
			"-0.015": 0.0,
			"-0.014": 0.0,
			"-0.013": 0.0,
			"-0.012": 0.0,
			"-0.011": 0.0,
			"-0.01": 0.0,
			"-0.009": 0.440671067687,
			"-0.008": 6.29258500974,
			"-0.007": 12.2790040436,
			"-0.006": 13.9330911501,
			"-0.005": 9.77278284422,
			"-0.004": 11.7304923562,
			"-0.003": 10.2292723342,
			"-0.002": 13.9979724687,
			"-0.001": 25.0409310984,
			"0.0": 27.9362565536,
			"0.001": 28.49469945,
			"0.002": 15.5720651201,
			"0.003": 14.3582744032,
			"0.004": 18.9092487978,
			"0.005": 10.9015825105,
			"0.006": 4.53761659196,
			"0.007": 3.81355721557,
			"0.008": 3.03609897764,
			"0.009": 2.04305972431,
			"0.01": 1.68210453424,
			"0.011": 2.17059851732,
			"0.012": 0.827104926605,
			"0.013": 0.961947668618,
			"0.014": 0.728782748021,
			"0.015": 0.0658132706519,
			"0.016": 0.0,
			"0.017": 0.0,
			"0.018": 0.0,
			"0.019": 0.0,
			"0.02": 0.0,
			"0.021": 0.0,
			"0.022": 0.0,
			"0.023": 0.0,
			"0.024": 0.0,
			"0.025": 0.0
		}
	}
}
