{
	 "smiles": "CC1=NN(C(N)=C1)C1=NC(C)=NC(C)=C1", 
	 "Tm": 378.15, 
	 "num_atms": 28, 
	 "gaussian": { 
		 "optdone": 1, 
		 "sigma_profile": "yes", 
		 "theory": "DFT", 
		 "functional": "B3LYP", 
		 "basiset": "6-31G**", 
		 "properties": { 
			 "R2extent": 3922.4398, 
			 "electric_dipole_moment_norm": 4.12687567053, 
			 "electric_quadrupole_moment_norm": 7.12926717272, 
			 "total_energy": -662.653909103, 
			 "HOMO_LUMO_gap": 0.17461, 
			 "cosmo_polarized_energy": -18.38, 
			 "cosmo_cavitation_energy": 31.94, 
			 "cosmo_dispersion_energy": -23.36, 
			 "cosmo_repulsion_energy": 1.88, 
			 "cosmo_total_nonelectrostatic_energy": 10.46, 
			 "SMD_solvation_energy": 2.42 
		},
		"coords": [
			{
				"x": -3.805722971,
				"y": -2.0321555721,
				"z": -1.0551990619,
				"element": "C" 
			},
			{
				"x": -2.7538319971,
				"y": -0.966344267,
				"z": -1.0779059471,
				"element": "C" 
			},
			{
				"x": -1.5010438913,
				"y": -1.2635278427,
				"z": -0.7792955499,
				"element": "N" 
			},
			{
				"x": -0.810640332,
				"y": -0.0770062963,
				"z": -0.9204383373,
				"element": "N" 
			},
			{
				"x": -1.6551075146,
				"y": 0.9566493357,
				"z": -1.2791122108,
				"element": "C" 
			},
			{
				"x": -1.2123429811,
				"y": 2.2621788142,
				"z": -1.4992823472,
				"element": "N" 
			},
			{
				"x": -2.9153072203,
				"y": 0.4134000795,
				"z": -1.3924705944,
				"element": "C" 
			},
			{
				"x": 0.5804072995,
				"y": -0.048389541,
				"z": -0.6907638455,
				"element": "C" 
			},
			{
				"x": 1.0561739591,
				"y": -0.9119309464,
				"z": 0.2036248317,
				"element": "N" 
			},
			{
				"x": 2.3818439472,
				"y": -0.8930323824,
				"z": 0.410918996,
				"element": "C" 
			},
			{
				"x": 2.9162411074,
				"y": -1.8855048955,
				"z": 1.408406973,
				"element": "C" 
			},
			{
				"x": 3.261344944,
				"y": -0.0733104822,
				"z": -0.1797263203,
				"element": "N" 
			},
			{
				"x": 2.7706056029,
				"y": 0.7905989679,
				"z": -1.0872431269,
				"element": "C" 
			},
			{
				"x": 3.7689656488,
				"y": 1.6883184904,
				"z": -1.7686655519,
				"element": "C" 
			},
			{
				"x": 1.4113185778,
				"y": 0.838758473,
				"z": -1.3911524492,
				"element": "C" 
			},
			{
				"x": -4.2695696385,
				"y": -2.1547176038,
				"z": -2.040484792,
				"element": "H" 
			},
			{
				"x": -4.6050473838,
				"y": -1.7866356384,
				"z": -0.3467522174,
				"element": "H" 
			},
			{
				"x": -3.3597471404,
				"y": -2.9838774785,
				"z": -0.7593104795,
				"element": "H" 
			},
			{
				"x": -0.5359221794,
				"y": 2.587296185,
				"z": -0.816703303,
				"element": "H" 
			},
			{
				"x": -1.9888866594,
				"y": 2.9095090923,
				"z": -1.5552535744,
				"element": "H" 
			},
			{
				"x": -3.8252123184,
				"y": 0.9383927309,
				"z": -1.6454980404,
				"element": "H" 
			},
			{
				"x": 3.9915301441,
				"y": -1.7557497326,
				"z": 1.5342376123,
				"element": "H" 
			},
			{
				"x": 2.7078296774,
				"y": -2.9058096921,
				"z": 1.0699752739,
				"element": "H" 
			},
			{
				"x": 2.4127687702,
				"y": -1.7623202248,
				"z": 2.3723501346,
				"element": "H" 
			},
			{
				"x": 4.3033648164,
				"y": 2.2872573751,
				"z": -1.0240561891,
				"element": "H" 
			},
			{
				"x": 4.5202363067,
				"y": 1.0859103314,
				"z": -2.2892632014,
				"element": "H" 
			},
			{
				"x": 3.2920820537,
				"y": 2.3583852034,
				"z": -2.4881465045,
				"element": "H" 
			},
			{
				"x": 1.0219693718,
				"y": 1.5032575171,
				"z": -2.1516901774,
				"element": "H" 
			}
		],
		 "valence_orbital": [ 
			{
				"type": "occ",
				"energy": -0.27543,
				"method": "rhf"
			},
			{
				"type": "occ",
				"energy": -0.27068,
				"method": "rhf"
			},
			{
				"type": "occ",
				"energy": -0.24342,
				"method": "rhf"
			},
			{
				"type": "occ",
				"energy": -0.23349,
				"method": "rhf"
			},
			{
				"type": "occ",
				"energy": -0.21042,
				"method": "rhf"
			},
			{
				"type": "unocc",
				"energy": -0.03581,
				"method": "rhf"
			},
			{
				"type": "unocc",
				"energy": -0.0191,
				"method": "rhf"
			},
			{
				"type": "unocc",
				"energy": 0.04406,
				"method": "rhf"
			},
			{
				"type": "unocc",
				"energy": 0.06904,
				"method": "rhf"
			},
			{
				"type": "unocc",
				"energy": 0.08189,
				"method": "rhf"
			}
		],
		"cosmo_sigma_profile": { 
			"-0.025": 0.0,
			"-0.024": 0.0,
			"-0.023": 0.0,
			"-0.022": 0.0,
			"-0.021": 0.0,
			"-0.02": 0.0,
			"-0.019": 0.0,
			"-0.018": 0.0,
			"-0.017": 0.0,
			"-0.016": 0.0,
			"-0.015": 0.0,
			"-0.014": 0.553417032838,
			"-0.013": 2.19950190021,
			"-0.012": 3.19279394834,
			"-0.011": 2.89541546393,
			"-0.01": 2.91755129387,
			"-0.009": 2.55554792466,
			"-0.008": 2.72623848033,
			"-0.007": 3.47422566786,
			"-0.006": 7.04035742054,
			"-0.005": 13.1115227674,
			"-0.004": 19.6703270526,
			"-0.003": 20.8079416002,
			"-0.002": 26.0865371994,
			"-0.001": 33.4116809433,
			"0.0": 26.6369334005,
			"0.001": 12.3986187452,
			"0.002": 9.65015743582,
			"0.003": 8.30499064272,
			"0.004": 9.35574921976,
			"0.005": 8.85594290481,
			"0.006": 6.26944030269,
			"0.007": 4.51818226551,
			"0.008": 3.27827618856,
			"0.009": 3.16463339127,
			"0.01": 4.11813969867,
			"0.011": 2.75819946129,
			"0.012": 2.38033158608,
			"0.013": 1.75779188385,
			"0.014": 2.04482956264,
			"0.015": 1.54396520825,
			"0.016": 1.74299844879,
			"0.017": 1.20328907549,
			"0.018": 1.28167371321,
			"0.019": 0.832947528401,
			"0.02": 0.656786181945,
			"0.021": 0.00826744699942,
			"0.022": 0.0,
			"0.023": 0.0,
			"0.024": 0.0,
			"0.025": 0.0
		}
	}
}
