{
	 "smiles": "FC1=CC(F)=C(C=C1)N1CCNCC1", 
	 "Tm": 348.15, 
	 "num_atms": 26, 
	 "gaussian": { 
		 "optdone": 1, 
		 "sigma_profile": "yes", 
		 "theory": "DFT", 
		 "functional": "B3LYP", 
		 "basiset": "6-31G**", 
		 "properties": { 
			 "R2extent": 3530.2374, 
			 "electric_dipole_moment_norm": 2.17067720769, 
			 "electric_quadrupole_moment_norm": 7.90870664521, 
			 "total_energy": -697.439919316, 
			 "HOMO_LUMO_gap": 0.18652, 
			 "cosmo_polarized_energy": -7.31, 
			 "cosmo_cavitation_energy": 28.53, 
			 "cosmo_dispersion_energy": -21.08, 
			 "cosmo_repulsion_energy": 1.6, 
			 "cosmo_total_nonelectrostatic_energy": 9.05, 
			 "SMD_solvation_energy": 1.83 
		},
		"coords": [
			{
				"x": 1.6972939839,
				"y": -1.5384075915,
				"z": -4.7148348982,
				"element": "F" 
			},
			{
				"x": 1.3005939535,
				"y": -1.1646903558,
				"z": -3.4781774834,
				"element": "C" 
			},
			{
				"x": 2.2669295656,
				"y": -0.9062931718,
				"z": -2.5110724061,
				"element": "C" 
			},
			{
				"x": 1.8468070231,
				"y": -0.5120275503,
				"z": -1.2517580543,
				"element": "C" 
			},
			{
				"x": 2.8005415352,
				"y": -0.2110713642,
				"z": -0.3355120878,
				"element": "F" 
			},
			{
				"x": 0.4882265734,
				"y": -0.3916224324,
				"z": -0.8874470656,
				"element": "C" 
			},
			{
				"x": -0.4442702018,
				"y": -0.6637777942,
				"z": -1.9081271428,
				"element": "C" 
			},
			{
				"x": -0.0502090476,
				"y": -1.0385807228,
				"z": -3.1947979463,
				"element": "C" 
			},
			{
				"x": 0.116483672,
				"y": 0.0269249506,
				"z": 0.3905826113,
				"element": "N" 
			},
			{
				"x": -1.2586111661,
				"y": 0.4653861183,
				"z": 0.6132170769,
				"element": "C" 
			},
			{
				"x": -1.3691802386,
				"y": 1.1785533489,
				"z": 1.9594934313,
				"element": "C" 
			},
			{
				"x": -1.0628962087,
				"y": 0.2559335546,
				"z": 3.0657850067,
				"element": "N" 
			},
			{
				"x": -0.1768624111,
				"y": -0.8480433664,
				"z": 2.6772142674,
				"element": "C" 
			},
			{
				"x": 0.8296544614,
				"y": -0.4845439247,
				"z": 1.5783002577,
				"element": "C" 
			},
			{
				"x": 3.3244601331,
				"y": -0.9810725246,
				"z": -2.7342695473,
				"element": "H" 
			},
			{
				"x": -1.5033501925,
				"y": -0.5935915337,
				"z": -1.6918835659,
				"element": "H" 
			},
			{
				"x": -0.7841770715,
				"y": -1.2447641084,
				"z": -3.9658414679,
				"element": "H" 
			},
			{
				"x": -1.5373920159,
				"y": 1.1631449505,
				"z": -0.1836238475,
				"element": "H" 
			},
			{
				"x": -1.9842285351,
				"y": -0.3666174473,
				"z": 0.5827136635,
				"element": "H" 
			},
			{
				"x": -0.6932409412,
				"y": 2.0481012351,
				"z": 1.9336202972,
				"element": "H" 
			},
			{
				"x": -2.3901825946,
				"y": 1.5656174448,
				"z": 2.0722774308,
				"element": "H" 
			},
			{
				"x": -0.6491210847,
				"y": 0.7748174864,
				"z": 3.8326477804,
				"element": "H" 
			},
			{
				"x": -0.7835727247,
				"y": -1.6955343141,
				"z": 2.3306535231,
				"element": "H" 
			},
			{
				"x": 0.3616695362,
				"y": -1.1966182515,
				"z": 3.5642883721,
				"element": "H" 
			},
			{
				"x": 1.4052606527,
				"y": -1.3737225397,
				"z": 1.3056570895,
				"element": "H" 
			},
			{
				"x": 1.545173344,
				"y": 0.2600999042,
				"z": 1.9532947052,
				"element": "H" 
			}
		],
		 "valence_orbital": [ 
			{
				"type": "occ",
				"energy": -0.34094,
				"method": "rhf"
			},
			{
				"type": "occ",
				"energy": -0.27463,
				"method": "rhf"
			},
			{
				"type": "occ",
				"energy": -0.25085,
				"method": "rhf"
			},
			{
				"type": "occ",
				"energy": -0.22036,
				"method": "rhf"
			},
			{
				"type": "occ",
				"energy": -0.19107,
				"method": "rhf"
			},
			{
				"type": "unocc",
				"energy": -0.00455,
				"method": "rhf"
			},
			{
				"type": "unocc",
				"energy": 0.01478,
				"method": "rhf"
			},
			{
				"type": "unocc",
				"energy": 0.06998,
				"method": "rhf"
			},
			{
				"type": "unocc",
				"energy": 0.0809,
				"method": "rhf"
			},
			{
				"type": "unocc",
				"energy": 0.10422,
				"method": "rhf"
			}
		],
		"cosmo_sigma_profile": { 
			"-0.025": 0.0,
			"-0.024": 0.0,
			"-0.023": 0.0,
			"-0.022": 0.0,
			"-0.021": 0.0,
			"-0.02": 0.0,
			"-0.019": 0.0,
			"-0.018": 0.0,
			"-0.017": 0.0,
			"-0.016": 0.0,
			"-0.015": 0.0,
			"-0.014": 0.0,
			"-0.013": 0.0,
			"-0.012": 0.0,
			"-0.011": 0.000875150268791,
			"-0.01": 1.15009591283,
			"-0.009": 1.55505435647,
			"-0.008": 2.63176313516,
			"-0.007": 3.79919724482,
			"-0.006": 6.2645366724,
			"-0.005": 11.1869302318,
			"-0.004": 17.4868002774,
			"-0.003": 27.5601012936,
			"-0.002": 25.5432435161,
			"-0.001": 15.3222876328,
			"0.0": 13.2484838819,
			"0.001": 13.6949235167,
			"0.002": 18.2065926448,
			"0.003": 19.0583118677,
			"0.004": 21.689014451,
			"0.005": 15.5738401333,
			"0.006": 2.33041151306,
			"0.007": 1.71676872977,
			"0.008": 0.958159546886,
			"0.009": 0.503587790196,
			"0.01": 0.801220392258,
			"0.011": 0.717882956559,
			"0.012": 0.620571406466,
			"0.013": 0.463615629401,
			"0.014": 0.847840577208,
			"0.015": 0.326676273025,
			"0.016": 0.279028848445,
			"0.017": 0.718169388842,
			"0.018": 0.574773525174,
			"0.019": 0.00735180198387,
			"0.02": 0.0,
			"0.021": 0.0,
			"0.022": 0.0,
			"0.023": 0.0,
			"0.024": 0.0,
			"0.025": 0.0
		}
	}
}
