{
	 "smiles": "CC1=CC=C(C=C1)C1=CN=C(CCl)O1", 
	 "Tm": 332.15, 
	 "num_atms": 24, 
	 "gaussian": { 
		 "optdone": 1, 
		 "sigma_profile": "yes", 
		 "theory": "DFT", 
		 "functional": "B3LYP", 
		 "basiset": "6-31G**", 
		 "properties": { 
			 "R2extent": 5497.0551, 
			 "electric_dipole_moment_norm": 3.45457706384, 
			 "electric_quadrupole_moment_norm": 12.7383775851, 
			 "total_energy": -1015.36735767, 
			 "HOMO_LUMO_gap": 0.1679, 
			 "cosmo_polarized_energy": -9.03, 
			 "cosmo_cavitation_energy": 30.53, 
			 "cosmo_dispersion_energy": -22.29, 
			 "cosmo_repulsion_energy": 1.76, 
			 "cosmo_total_nonelectrostatic_energy": 10.01, 
			 "SMD_solvation_energy": 3.46 
		},
		"coords": [
			{
				"x": 0.5170937729,
				"y": -1.1109276623,
				"z": 3.6027682426,
				"element": "C" 
			},
			{
				"x": 0.5033291724,
				"y": -0.6569761656,
				"z": 2.1631786008,
				"element": "C" 
			},
			{
				"x": 1.6882696134,
				"y": -0.6001418642,
				"z": 1.413503346,
				"element": "C" 
			},
			{
				"x": 1.6810569064,
				"y": -0.2095978786,
				"z": 0.0797262933,
				"element": "C" 
			},
			{
				"x": 0.4768529031,
				"y": 0.1417337319,
				"z": -0.5562109739,
				"element": "C" 
			},
			{
				"x": -0.7124717095,
				"y": 0.0903386382,
				"z": 0.1889572734,
				"element": "C" 
			},
			{
				"x": -0.6917997543,
				"y": -0.3013545557,
				"z": 1.5249262685,
				"element": "C" 
			},
			{
				"x": 0.4737422364,
				"y": 0.5493554543,
				"z": -1.9529798282,
				"element": "C" 
			},
			{
				"x": 1.4232927952,
				"y": 0.6598407088,
				"z": -2.9346215404,
				"element": "C" 
			},
			{
				"x": 0.8400878489,
				"y": 1.104918983,
				"z": -4.1051483855,
				"element": "N" 
			},
			{
				"x": -0.4170717166,
				"y": 1.253059728,
				"z": -3.8073488404,
				"element": "C" 
			},
			{
				"x": -1.5089811821,
				"y": 1.7090248429,
				"z": -4.6923209052,
				"element": "C" 
			},
			{
				"x": -2.5996572213,
				"y": 0.3369072951,
				"z": -5.2278412128,
				"element": "Cl" 
			},
			{
				"x": -0.7184840566,
				"y": 0.9371709108,
				"z": -2.5181359663,
				"element": "O" 
			},
			{
				"x": -0.3556410257,
				"y": -0.7400793015,
				"z": 4.1478645524,
				"element": "H" 
			},
			{
				"x": 1.4153679106,
				"y": -0.764714231,
				"z": 4.1236131611,
				"element": "H" 
			},
			{
				"x": 0.5049834583,
				"y": -2.2060449562,
				"z": 3.6724277639,
				"element": "H" 
			},
			{
				"x": 2.6317851964,
				"y": -0.863831777,
				"z": 1.8848548447,
				"element": "H" 
			},
			{
				"x": 2.616308917,
				"y": -0.1711044512,
				"z": -0.470871577,
				"element": "H" 
			},
			{
				"x": -1.6509154379,
				"y": 0.3592507902,
				"z": -0.2837133407,
				"element": "H" 
			},
			{
				"x": -1.6241569803,
				"y": -0.3314177463,
				"z": 2.0830996326,
				"element": "H" 
			},
			{
				"x": 2.4805569432,
				"y": 0.4479257452,
				"z": -2.8773656596,
				"element": "H" 
			},
			{
				"x": -1.0797928445,
				"y": 2.140594405,
				"z": -5.5940218638,
				"element": "H" 
			},
			{
				"x": -2.1622557453,
				"y": 2.425769356,
				"z": -4.1948398855,
				"element": "H" 
			}
		],
		 "valence_orbital": [ 
			{
				"type": "occ",
				"energy": -0.29995,
				"method": "rhf"
			},
			{
				"type": "occ",
				"energy": -0.29415,
				"method": "rhf"
			},
			{
				"type": "occ",
				"energy": -0.28478,
				"method": "rhf"
			},
			{
				"type": "occ",
				"energy": -0.2596,
				"method": "rhf"
			},
			{
				"type": "occ",
				"energy": -0.21849,
				"method": "rhf"
			},
			{
				"type": "unocc",
				"energy": -0.05059,
				"method": "rhf"
			},
			{
				"type": "unocc",
				"energy": -0.01208,
				"method": "rhf"
			},
			{
				"type": "unocc",
				"energy": -0.0067,
				"method": "rhf"
			},
			{
				"type": "unocc",
				"energy": 0.05106,
				"method": "rhf"
			},
			{
				"type": "unocc",
				"energy": 0.07128,
				"method": "rhf"
			}
		],
		"cosmo_sigma_profile": { 
			"-0.025": 0.0,
			"-0.024": 0.0,
			"-0.023": 0.0,
			"-0.022": 0.0,
			"-0.021": 0.0,
			"-0.02": 0.0,
			"-0.019": 0.0,
			"-0.018": 0.0,
			"-0.017": 0.0,
			"-0.016": 0.0,
			"-0.015": 0.0,
			"-0.014": 0.0,
			"-0.013": 0.0,
			"-0.012": 0.0,
			"-0.011": 0.0,
			"-0.01": 0.174159532737,
			"-0.009": 4.32113652513,
			"-0.008": 6.78517875223,
			"-0.007": 6.23499769889,
			"-0.006": 9.84937262807,
			"-0.005": 14.0529567758,
			"-0.004": 18.1129754062,
			"-0.003": 15.8744772445,
			"-0.002": 16.2843178493,
			"-0.001": 18.7190583214,
			"0.0": 23.0978556437,
			"0.001": 20.5432159985,
			"0.002": 19.5897693531,
			"0.003": 17.2782792803,
			"0.004": 17.7858723727,
			"0.005": 18.0324904734,
			"0.006": 10.3389335417,
			"0.007": 1.19243734586,
			"0.008": 1.44013408907,
			"0.009": 1.17218406914,
			"0.01": 1.17848849913,
			"0.011": 0.518310523732,
			"0.012": 1.29488298636,
			"0.013": 0.960107128993,
			"0.014": 0.928755517102,
			"0.015": 0.634456649028,
			"0.016": 0.169894620835,
			"0.017": 0.0,
			"0.018": 0.0,
			"0.019": 0.0,
			"0.02": 0.0,
			"0.021": 0.0,
			"0.022": 0.0,
			"0.023": 0.0,
			"0.024": 0.0,
			"0.025": 0.0
		}
	}
}
