{
	 "smiles": "COC1=C(OC)C=C2N=C(C)SC2=C1", 
	 "Tm": 344.15, 
	 "num_atms": 25, 
	 "gaussian": { 
		 "optdone": 1, 
		 "sigma_profile": "yes", 
		 "theory": "DFT", 
		 "functional": "B3LYP", 
		 "basiset": "6-31G**", 
		 "properties": { 
			 "R2extent": 3848.4376, 
			 "electric_dipole_moment_norm": 0.714455771899, 
			 "electric_quadrupole_moment_norm": 10.6803011086, 
			 "total_energy": -991.059204713, 
			 "HOMO_LUMO_gap": 0.1921, 
			 "cosmo_polarized_energy": -8.11, 
			 "cosmo_cavitation_energy": 30.24, 
			 "cosmo_dispersion_energy": -22.49, 
			 "cosmo_repulsion_energy": 1.73, 
			 "cosmo_total_nonelectrostatic_energy": 9.47, 
			 "SMD_solvation_energy": 4.52 
		},
		"coords": [
			{
				"x": -0.5715770019,
				"y": -3.3993234619,
				"z": 2.2653869288,
				"element": "C" 
			},
			{
				"x": -0.6644655128,
				"y": -3.1120497988,
				"z": 0.8639049411,
				"element": "O" 
			},
			{
				"x": -0.6090474339,
				"y": -1.7745179401,
				"z": 0.542424907,
				"element": "C" 
			},
			{
				"x": 0.6006868316,
				"y": -1.0443335209,
				"z": 0.6710191783,
				"element": "C" 
			},
			{
				"x": 1.7313782573,
				"y": -1.6479759675,
				"z": 1.1774693662,
				"element": "O" 
			},
			{
				"x": 2.3521857084,
				"y": -2.5890161775,
				"z": 0.2933468473,
				"element": "C" 
			},
			{
				"x": 0.65140159,
				"y": 0.3001486396,
				"z": 0.3267006342,
				"element": "C" 
			},
			{
				"x": -0.5006829362,
				"y": 0.9310641968,
				"z": -0.1635192799,
				"element": "C" 
			},
			{
				"x": -0.5776388145,
				"y": 2.2636404204,
				"z": -0.5436075512,
				"element": "N" 
			},
			{
				"x": -1.7593135924,
				"y": 2.5683970274,
				"z": -0.9695564505,
				"element": "C" 
			},
			{
				"x": -2.161333402,
				"y": 3.927894386,
				"z": -1.4501987042,
				"element": "C" 
			},
			{
				"x": -2.9449255787,
				"y": 1.2305469692,
				"z": -0.9564075512,
				"element": "S" 
			},
			{
				"x": -1.6940229008,
				"y": 0.1859589621,
				"z": -0.3118423863,
				"element": "C" 
			},
			{
				"x": -1.7567869241,
				"y": -1.1621990822,
				"z": 0.0451362102,
				"element": "C" 
			},
			{
				"x": -1.4113159664,
				"y": -2.9484267048,
				"z": 2.80900439,
				"element": "H" 
			},
			{
				"x": -0.6244952251,
				"y": -4.4860513556,
				"z": 2.357513161,
				"element": "H" 
			},
			{
				"x": 0.3719656813,
				"y": -3.0367052091,
				"z": 2.6837891983,
				"element": "H" 
			},
			{
				"x": 2.6841819208,
				"y": -2.0945021913,
				"z": -0.6282017502,
				"element": "H" 
			},
			{
				"x": 3.2216337264,
				"y": -2.980847598,
				"z": 0.8252945673,
				"element": "H" 
			},
			{
				"x": 1.671606466,
				"y": -3.4088837469,
				"z": 0.04302097,
				"element": "H" 
			},
			{
				"x": 1.5783346203,
				"y": 0.851748976,
				"z": 0.4366995161,
				"element": "H" 
			},
			{
				"x": -1.299919895,
				"y": 4.593695383,
				"z": -1.3744569972,
				"element": "H" 
			},
			{
				"x": -2.9807983261,
				"y": 4.3363701006,
				"z": -0.8490599233,
				"element": "H" 
			},
			{
				"x": -2.4978710126,
				"y": 3.8985513223,
				"z": -2.4921416375,
				"element": "H" 
			},
			{
				"x": -2.6631802797,
				"y": -1.750083629,
				"z": -0.0492185842,
				"element": "H" 
			}
		],
		 "valence_orbital": [ 
			{
				"type": "occ",
				"energy": -0.28958,
				"method": "rhf"
			},
			{
				"type": "occ",
				"energy": -0.27242,
				"method": "rhf"
			},
			{
				"type": "occ",
				"energy": -0.26364,
				"method": "rhf"
			},
			{
				"type": "occ",
				"energy": -0.2292,
				"method": "rhf"
			},
			{
				"type": "occ",
				"energy": -0.22148,
				"method": "rhf"
			},
			{
				"type": "unocc",
				"energy": -0.02938,
				"method": "rhf"
			},
			{
				"type": "unocc",
				"energy": -0.00291,
				"method": "rhf"
			},
			{
				"type": "unocc",
				"energy": 0.01199,
				"method": "rhf"
			},
			{
				"type": "unocc",
				"energy": 0.03863,
				"method": "rhf"
			},
			{
				"type": "unocc",
				"energy": 0.08654,
				"method": "rhf"
			}
		],
		"cosmo_sigma_profile": { 
			"-0.025": 0.0,
			"-0.024": 0.0,
			"-0.023": 0.0,
			"-0.022": 0.0,
			"-0.021": 0.0,
			"-0.02": 0.0,
			"-0.019": 0.0,
			"-0.018": 0.0,
			"-0.017": 0.0,
			"-0.016": 0.0,
			"-0.015": 0.0,
			"-0.014": 0.0,
			"-0.013": 0.0,
			"-0.012": 0.0,
			"-0.011": 0.0,
			"-0.01": 0.0,
			"-0.009": 0.0,
			"-0.008": 0.48984408077,
			"-0.007": 2.96362135645,
			"-0.006": 9.60838926062,
			"-0.005": 18.1389180614,
			"-0.004": 20.3631608984,
			"-0.003": 27.11916296,
			"-0.002": 27.3198274448,
			"-0.001": 20.0960877248,
			"0.0": 17.618039759,
			"0.001": 16.8092041087,
			"0.002": 19.8357056053,
			"0.003": 23.0408518573,
			"0.004": 10.732511,
			"0.005": 5.40409452315,
			"0.006": 4.52131848005,
			"0.007": 3.75088208212,
			"0.008": 2.33178230561,
			"0.009": 2.63139492789,
			"0.01": 3.30202733375,
			"0.011": 3.2416517256,
			"0.012": 1.36904638812,
			"0.013": 0.877528081415,
			"0.014": 0.94600507708,
			"0.015": 0.496685925723,
			"0.016": 0.0,
			"0.017": 0.0,
			"0.018": 0.0,
			"0.019": 0.0,
			"0.02": 0.0,
			"0.021": 0.0,
			"0.022": 0.0,
			"0.023": 0.0,
			"0.024": 0.0,
			"0.025": 0.0
		}
	}
}
