{
	 "smiles": "CC1=C(N=C(O1)C1=CC=C(Cl)C=C1)C(O)=O", 
	 "Tm": 509.15, 
	 "num_atms": 24, 
	 "gaussian": { 
		 "optdone": 1, 
		 "sigma_profile": "yes", 
		 "theory": "DFT", 
		 "functional": "B3LYP", 
		 "basiset": "6-31G**", 
		 "properties": { 
			 "R2extent": 6314.5016, 
			 "electric_dipole_moment_norm": 5.53265195905, 
			 "electric_quadrupole_moment_norm": 26.893750124, 
			 "total_energy": -1164.61248256, 
			 "HOMO_LUMO_gap": 0.17463, 
			 "cosmo_polarized_energy": -18.96, 
			 "cosmo_cavitation_energy": 31.7, 
			 "cosmo_dispersion_energy": -23.28, 
			 "cosmo_repulsion_energy": 1.82, 
			 "cosmo_total_nonelectrostatic_energy": 10.24, 
			 "SMD_solvation_energy": 5.25 
		},
		"coords": [
			{
				"x": 4.1414240366,
				"y": 1.5069180845,
				"z": -0.3927702911,
				"element": "C" 
			},
			{
				"x": 3.1443626309,
				"y": 0.4117189794,
				"z": -0.5341613653,
				"element": "C" 
			},
			{
				"x": 3.0769656297,
				"y": -0.7812192737,
				"z": -1.2087795817,
				"element": "C" 
			},
			{
				"x": 1.8252390503,
				"y": -1.3486970186,
				"z": -1.0219896644,
				"element": "N" 
			},
			{
				"x": 1.1929787686,
				"y": -0.5191379245,
				"z": -0.2485726349,
				"element": "C" 
			},
			{
				"x": 1.9376708773,
				"y": 0.5856868188,
				"z": 0.0857902601,
				"element": "O" 
			},
			{
				"x": -0.1609738525,
				"y": -0.6297379887,
				"z": 0.2817851566,
				"element": "C" 
			},
			{
				"x": -0.9381575459,
				"y": -1.7479295076,
				"z": -0.0625366143,
				"element": "C" 
			},
			{
				"x": -2.2329617608,
				"y": -1.8822032591,
				"z": 0.4256333609,
				"element": "C" 
			},
			{
				"x": -2.7532739406,
				"y": -0.8926068849,
				"z": 1.2630198668,
				"element": "C" 
			},
			{
				"x": -4.3863658011,
				"y": -1.0583019412,
				"z": 1.881799877,
				"element": "Cl" 
			},
			{
				"x": -1.9972671658,
				"y": 0.2256129689,
				"z": 1.6162137955,
				"element": "C" 
			},
			{
				"x": -0.7012954262,
				"y": 0.3539504499,
				"z": 1.123814477,
				"element": "C" 
			},
			{
				"x": 4.0792022262,
				"y": -1.4153072462,
				"z": -2.1079205868,
				"element": "C" 
			},
			{
				"x": 5.3869926167,
				"y": -1.1656041501,
				"z": -1.7924193359,
				"element": "O" 
			},
			{
				"x": 3.7974083801,
				"y": -2.0811269998,
				"z": -3.0691842176,
				"element": "O" 
			},
			{
				"x": 4.991740742,
				"y": 1.3337016307,
				"z": -1.0550922611,
				"element": "H" 
			},
			{
				"x": 4.505695799,
				"y": 1.592678041,
				"z": 0.6378624094,
				"element": "H" 
			},
			{
				"x": 3.692333449,
				"y": 2.4685318728,
				"z": -0.6620820484,
				"element": "H" 
			},
			{
				"x": -0.5139384824,
				"y": -2.5033442923,
				"z": -0.7150871033,
				"element": "H" 
			},
			{
				"x": -2.8366231005,
				"y": -2.7432743849,
				"z": 0.1619615448,
				"element": "H" 
			},
			{
				"x": -2.4189538004,
				"y": 0.9831444424,
				"z": 2.2671080673,
				"element": "H" 
			},
			{
				"x": -0.1070221144,
				"y": 1.2202069212,
				"z": 1.3933422184,
				"element": "H" 
			},
			{
				"x": 5.445918784,
				"y": -0.8349593379,
				"z": -0.885235329,
				"element": "H" 
			}
		],
		 "valence_orbital": [ 
			{
				"type": "occ",
				"energy": -0.30551,
				"method": "rhf"
			},
			{
				"type": "occ",
				"energy": -0.288,
				"method": "rhf"
			},
			{
				"type": "occ",
				"energy": -0.27713,
				"method": "rhf"
			},
			{
				"type": "occ",
				"energy": -0.27628,
				"method": "rhf"
			},
			{
				"type": "occ",
				"energy": -0.23635,
				"method": "rhf"
			},
			{
				"type": "unocc",
				"energy": -0.06172,
				"method": "rhf"
			},
			{
				"type": "unocc",
				"energy": -0.03616,
				"method": "rhf"
			},
			{
				"type": "unocc",
				"energy": -0.02469,
				"method": "rhf"
			},
			{
				"type": "unocc",
				"energy": 0.02183,
				"method": "rhf"
			},
			{
				"type": "unocc",
				"energy": 0.03563,
				"method": "rhf"
			}
		],
		"cosmo_sigma_profile": { 
			"-0.025": 0.0,
			"-0.024": 0.0,
			"-0.023": 0.0,
			"-0.022": 0.0,
			"-0.021": 0.0,
			"-0.02": 0.0,
			"-0.019": 0.341684412618,
			"-0.018": 0.85720384542,
			"-0.017": 0.423918298068,
			"-0.016": 0.850741571145,
			"-0.015": 1.25818785316,
			"-0.014": 1.02312962142,
			"-0.013": 1.02579531115,
			"-0.012": 0.8628981113,
			"-0.011": 1.04136090772,
			"-0.01": 0.794056370136,
			"-0.009": 1.22548707696,
			"-0.008": 3.38273199895,
			"-0.007": 10.7642003126,
			"-0.006": 16.04133721,
			"-0.005": 15.2683962875,
			"-0.004": 13.2895159536,
			"-0.003": 18.7934607189,
			"-0.002": 18.3962836861,
			"-0.001": 16.9188809817,
			"0.0": 16.6308030619,
			"0.001": 21.5313944404,
			"0.002": 25.2958435297,
			"0.003": 14.8606318745,
			"0.004": 13.9917233147,
			"0.005": 5.06465634745,
			"0.006": 3.55296647973,
			"0.007": 3.6881442575,
			"0.008": 3.11742723006,
			"0.009": 4.5866935546,
			"0.01": 6.60290766927,
			"0.011": 6.87675752399,
			"0.012": 5.58856524457,
			"0.013": 2.6686932249,
			"0.014": 0.749452254818,
			"0.015": 0.0209332056189,
			"0.016": 0.0,
			"0.017": 0.0,
			"0.018": 0.0,
			"0.019": 0.0,
			"0.02": 0.0,
			"0.021": 0.0,
			"0.022": 0.0,
			"0.023": 0.0,
			"0.024": 0.0,
			"0.025": 0.0
		}
	}
}
