{
	 "smiles": "CN1C(CC(O)=O)=CC=C1C(=O)C1=CC=C(C)C=C1", 
	 "Tm": 429.15, 
	 "num_atms": 34, 
	 "gaussian": { 
		 "optdone": 1, 
		 "sigma_profile": "yes", 
		 "theory": "DFT", 
		 "functional": "B3LYP", 
		 "basiset": "6-31G**", 
		 "properties": { 
			 "R2extent": 7757.6449, 
			 "electric_dipole_moment_norm": 4.72016957111, 
			 "electric_quadrupole_moment_norm": 19.9347358623, 
			 "total_energy": -861.071791272, 
			 "HOMO_LUMO_gap": 0.15908, 
			 "cosmo_polarized_energy": -18.18, 
			 "cosmo_cavitation_energy": 38.05, 
			 "cosmo_dispersion_energy": -26.09, 
			 "cosmo_repulsion_energy": 2.01, 
			 "cosmo_total_nonelectrostatic_energy": 13.97, 
			 "SMD_solvation_energy": 8.49 
		},
		"coords": [
			{
				"x": 0.2652884709,
				"y": -0.3484060097,
				"z": 0.8293463143,
				"element": "C" 
			},
			{
				"x": -0.2348631075,
				"y": -0.5418360359,
				"z": -0.5301315023,
				"element": "N" 
			},
			{
				"x": -1.5374926874,
				"y": -0.2873993717,
				"z": -0.9022263375,
				"element": "C" 
			},
			{
				"x": -2.6511876726,
				"y": -0.0808505212,
				"z": 0.0829695506,
				"element": "C" 
			},
			{
				"x": -3.3035289747,
				"y": -1.3738824177,
				"z": 0.5576961829,
				"element": "C" 
			},
			{
				"x": -2.4097765181,
				"y": -2.2107361367,
				"z": 1.1451271789,
				"element": "O" 
			},
			{
				"x": -4.4755145445,
				"y": -1.6480085416,
				"z": 0.448905576,
				"element": "O" 
			},
			{
				"x": -1.6045042217,
				"y": -0.2716807635,
				"z": -2.287351295,
				"element": "C" 
			},
			{
				"x": -0.3018061721,
				"y": -0.4920606708,
				"z": -2.776125793,
				"element": "C" 
			},
			{
				"x": 0.5384477208,
				"y": -0.6676156273,
				"z": -1.6842778341,
				"element": "C" 
			},
			{
				"x": 1.9727499087,
				"y": -1.0096456801,
				"z": -1.783693347,
				"element": "C" 
			},
			{
				"x": 2.6362988151,
				"y": -0.5525153878,
				"z": -2.7128102624,
				"element": "O" 
			},
			{
				"x": 2.6044771302,
				"y": -1.9823351945,
				"z": -0.8309876791,
				"element": "C" 
			},
			{
				"x": 4.0016823939,
				"y": -1.9607633,
				"z": -0.6903393379,
				"element": "C" 
			},
			{
				"x": 4.6444755071,
				"y": -2.8829386916,
				"z": 0.1260595234,
				"element": "C" 
			},
			{
				"x": 3.9200187073,
				"y": -3.8747667719,
				"z": 0.8084201858,
				"element": "C" 
			},
			{
				"x": 4.6308757961,
				"y": -4.8899848425,
				"z": 1.6704875988,
				"element": "C" 
			},
			{
				"x": 2.5291286087,
				"y": -3.9045437277,
				"z": 0.6488660117,
				"element": "C" 
			},
			{
				"x": 1.8753089198,
				"y": -2.971383386,
				"z": -0.1556920214,
				"element": "C" 
			},
			{
				"x": 0.0552614883,
				"y": 0.6714992672,
				"z": 1.1697240994,
				"element": "H" 
			},
			{
				"x": 1.3414625745,
				"y": -0.4991841335,
				"z": 0.8460758565,
				"element": "H" 
			},
			{
				"x": -0.2019717324,
				"y": -1.0604858836,
				"z": 1.5127176512,
				"element": "H" 
			},
			{
				"x": -2.3027561792,
				"y": 0.4610387329,
				"z": 0.9711049625,
				"element": "H" 
			},
			{
				"x": -3.4426823137,
				"y": 0.5125495677,
				"z": -0.3765607531,
				"element": "H" 
			},
			{
				"x": -2.9111727857,
				"y": -3.0025383759,
				"z": 1.4035786825,
				"element": "H" 
			},
			{
				"x": -2.5058025955,
				"y": -0.1228019242,
				"z": -2.8661673134,
				"element": "H" 
			},
			{
				"x": 0.0189103116,
				"y": -0.5648198186,
				"z": -3.8049469535,
				"element": "H" 
			},
			{
				"x": 4.5626089694,
				"y": -1.2108786713,
				"z": -1.238514218,
				"element": "H" 
			},
			{
				"x": 5.7257372274,
				"y": -2.842513458,
				"z": 0.2347900946,
				"element": "H" 
			},
			{
				"x": 3.9261952556,
				"y": -5.4701873043,
				"z": 2.2723763158,
				"element": "H" 
			},
			{
				"x": 5.2031883991,
				"y": -5.5963033152,
				"z": 1.0568617488,
				"element": "H" 
			},
			{
				"x": 5.3415946506,
				"y": -4.4080967819,
				"z": 2.3504593139,
				"element": "H" 
			},
			{
				"x": 1.9505405963,
				"y": -4.6718755273,
				"z": 1.157164156,
				"element": "H" 
			},
			{
				"x": 0.7966080539,
				"y": -3.0215492957,
				"z": -0.2698063558,
				"element": "H" 
			}
		],
		 "valence_orbital": [ 
			{
				"type": "occ",
				"energy": -0.25782,
				"method": "rhf"
			},
			{
				"type": "occ",
				"energy": -0.25024,
				"method": "rhf"
			},
			{
				"type": "occ",
				"energy": -0.2445,
				"method": "rhf"
			},
			{
				"type": "occ",
				"energy": -0.23955,
				"method": "rhf"
			},
			{
				"type": "occ",
				"energy": -0.21297,
				"method": "rhf"
			},
			{
				"type": "unocc",
				"energy": -0.05389,
				"method": "rhf"
			},
			{
				"type": "unocc",
				"energy": -0.00972,
				"method": "rhf"
			},
			{
				"type": "unocc",
				"energy": -0.00528,
				"method": "rhf"
			},
			{
				"type": "unocc",
				"energy": 0.01264,
				"method": "rhf"
			},
			{
				"type": "unocc",
				"energy": 0.05058,
				"method": "rhf"
			}
		],
		"cosmo_sigma_profile": { 
			"-0.025": 0.0,
			"-0.024": 0.0,
			"-0.023": 0.0,
			"-0.022": 0.0,
			"-0.021": 0.0,
			"-0.02": 0.0,
			"-0.019": 0.00958395867028,
			"-0.018": 1.02231217124,
			"-0.017": 0.865288621873,
			"-0.016": 0.677206928418,
			"-0.015": 0.952554259196,
			"-0.014": 1.00035603827,
			"-0.013": 0.500456112308,
			"-0.012": 0.301523316899,
			"-0.011": 0.815977839612,
			"-0.01": 0.875172364138,
			"-0.009": 0.643795271682,
			"-0.008": 2.79852795509,
			"-0.007": 6.59219966467,
			"-0.006": 13.4836130075,
			"-0.005": 21.9256582651,
			"-0.004": 29.2449775501,
			"-0.003": 28.2429326876,
			"-0.002": 24.2484481224,
			"-0.001": 24.7507302168,
			"0.0": 21.0214638081,
			"0.001": 17.3926489609,
			"0.002": 15.7367801821,
			"0.003": 16.2708291774,
			"0.004": 19.1372058524,
			"0.005": 12.6181480449,
			"0.006": 6.43016132437,
			"0.007": 4.11664741633,
			"0.008": 3.83086271263,
			"0.009": 3.90852737281,
			"0.01": 3.67784720678,
			"0.011": 7.61315856932,
			"0.012": 6.24812952747,
			"0.013": 4.25279892543,
			"0.014": 1.21087138993,
			"0.015": 0.015846335481,
			"0.016": 0.0,
			"0.017": 0.0,
			"0.018": 0.0,
			"0.019": 0.0,
			"0.02": 0.0,
			"0.021": 0.0,
			"0.022": 0.0,
			"0.023": 0.0,
			"0.024": 0.0,
			"0.025": 0.0
		}
	}
}
