{
	 "smiles": "FC1=CC=C(C=C1)C1=NOC(CBr)=C1", 
	 "Tm": 348.15, 
	 "num_atms": 21, 
	 "gaussian": { 
		 "optdone": 1, 
		 "sigma_profile": "yes", 
		 "theory": "DFT", 
		 "functional": "B3LYP", 
		 "basiset": "6-31G**", 
		 "properties": { 
			 "R2extent": 8310.9435, 
			 "electric_dipole_moment_norm": 2.96344403355, 
			 "electric_quadrupole_moment_norm": 15.9495113609, 
			 "total_energy": -3186.4498216, 
			 "HOMO_LUMO_gap": 0.18241, 
			 "cosmo_polarized_energy": -10.87, 
			 "cosmo_cavitation_energy": 29.16, 
			 "cosmo_dispersion_energy": -21.61, 
			 "cosmo_repulsion_energy": 1.67, 
			 "cosmo_total_nonelectrostatic_energy": 9.22, 
			 "SMD_solvation_energy": 4.23 
		},
		"coords": [
			{
				"x": -1.0512818508,
				"y": 1.9483929594,
				"z": 3.1603732845,
				"element": "F" 
			},
			{
				"x": -0.6089909213,
				"y": 1.4151255305,
				"z": 2.0047936556,
				"element": "C" 
			},
			{
				"x": -0.7652403939,
				"y": 2.136238222,
				"z": 0.8242579054,
				"element": "C" 
			},
			{
				"x": -0.3068644537,
				"y": 1.5821031157,
				"z": -0.3658360777,
				"element": "C" 
			},
			{
				"x": 0.3043830801,
				"y": 0.315828848,
				"z": -0.3819448888,
				"element": "C" 
			},
			{
				"x": 0.4445072197,
				"y": -0.3828411894,
				"z": 0.8263280192,
				"element": "C" 
			},
			{
				"x": -0.0102176073,
				"y": 0.161212037,
				"z": 2.0260133993,
				"element": "C" 
			},
			{
				"x": 0.7854956864,
				"y": -0.2601738057,
				"z": -1.6491166545,
				"element": "C" 
			},
			{
				"x": 0.6343181202,
				"y": 0.399464045,
				"z": -2.7854829219,
				"element": "N" 
			},
			{
				"x": 1.187827871,
				"y": -0.4014508984,
				"z": -3.7753587223,
				"element": "O" 
			},
			{
				"x": 1.6642150164,
				"y": -1.5353303496,
				"z": -3.2159582457,
				"element": "C" 
			},
			{
				"x": 2.3026584345,
				"y": -2.513272563,
				"z": -4.118325156,
				"element": "C" 
			},
			{
				"x": 0.9732815293,
				"y": -3.7310344319,
				"z": -4.9790941889,
				"element": "Br" 
			},
			{
				"x": 1.4433383766,
				"y": -1.5097763092,
				"z": -1.8720252633,
				"element": "C" 
			},
			{
				"x": -1.2385502078,
				"y": 3.1116496928,
				"z": 0.851188212,
				"element": "H" 
			},
			{
				"x": -0.4180654969,
				"y": 2.125636453,
				"z": -1.2975141667,
				"element": "H" 
			},
			{
				"x": 0.9106361145,
				"y": -1.3627891574,
				"z": 0.839552197,
				"element": "H" 
			},
			{
				"x": 0.0920130693,
				"y": -0.3694569308,
				"z": 2.9661162708,
				"element": "H" 
			},
			{
				"x": 2.9844419033,
				"y": -3.1668511398,
				"z": -3.5795614761,
				"element": "H" 
			},
			{
				"x": 2.8121539764,
				"y": -2.0232324418,
				"z": -4.945649124,
				"element": "H" 
			},
			{
				"x": 1.706840534,
				"y": -2.2706416863,
				"z": -1.154356058,
				"element": "H" 
			}
		],
		 "valence_orbital": [ 
			{
				"type": "occ",
				"energy": -0.28913,
				"method": "rhf"
			},
			{
				"type": "occ",
				"energy": -0.28312,
				"method": "rhf"
			},
			{
				"type": "occ",
				"energy": -0.27285,
				"method": "rhf"
			},
			{
				"type": "occ",
				"energy": -0.26804,
				"method": "rhf"
			},
			{
				"type": "occ",
				"energy": -0.24073,
				"method": "rhf"
			},
			{
				"type": "unocc",
				"energy": -0.05832,
				"method": "rhf"
			},
			{
				"type": "unocc",
				"energy": -0.03377,
				"method": "rhf"
			},
			{
				"type": "unocc",
				"energy": -0.01947,
				"method": "rhf"
			},
			{
				"type": "unocc",
				"energy": 0.03063,
				"method": "rhf"
			},
			{
				"type": "unocc",
				"energy": 0.0709,
				"method": "rhf"
			}
		],
		"cosmo_sigma_profile": { 
			"-0.025": 0.0,
			"-0.024": 0.0,
			"-0.023": 0.0,
			"-0.022": 0.0,
			"-0.021": 0.0,
			"-0.02": 0.0,
			"-0.019": 0.0,
			"-0.018": 0.0,
			"-0.017": 0.0,
			"-0.016": 0.0,
			"-0.015": 0.0,
			"-0.014": 0.0,
			"-0.013": 0.0,
			"-0.012": 0.0,
			"-0.011": 0.022571647869,
			"-0.01": 1.93669908492,
			"-0.009": 8.03847790491,
			"-0.008": 8.8745275016,
			"-0.007": 10.7849987565,
			"-0.006": 11.3480422602,
			"-0.005": 11.1812351475,
			"-0.004": 8.97287485942,
			"-0.003": 9.72091701457,
			"-0.002": 9.84249144007,
			"-0.001": 12.2756072826,
			"0.0": 21.0456365336,
			"0.001": 22.2172503246,
			"0.002": 23.2084747488,
			"0.003": 23.2419306006,
			"0.004": 20.70202479,
			"0.005": 13.3664673574,
			"0.006": 7.94972963461,
			"0.007": 4.65936803169,
			"0.008": 3.13501621336,
			"0.009": 1.38874272433,
			"0.01": 1.79015164906,
			"0.011": 1.29106208364,
			"0.012": 0.854005108321,
			"0.013": 0.542036408878,
			"0.014": 0.0,
			"0.015": 0.0,
			"0.016": 0.0,
			"0.017": 0.0,
			"0.018": 0.0,
			"0.019": 0.0,
			"0.02": 0.0,
			"0.021": 0.0,
			"0.022": 0.0,
			"0.023": 0.0,
			"0.024": 0.0,
			"0.025": 0.0
		}
	}
}
