{
	 "smiles": "OC(=O)CNC(=O)CC12CC3CC(CC(C3)C1)C2", 
	 "Tm": 439.15, 
	 "num_atms": 39, 
	 "gaussian": { 
		 "optdone": 1, 
		 "sigma_profile": "yes", 
		 "theory": "DFT", 
		 "functional": "B3LYP", 
		 "basiset": "6-31G**", 
		 "properties": { 
			 "R2extent": 6076.0968, 
			 "electric_dipole_moment_norm": 6.49619520104, 
			 "electric_quadrupole_moment_norm": 35.034316342, 
			 "total_energy": -826.635371824, 
			 "HOMO_LUMO_gap": 0.24249, 
			 "cosmo_polarized_energy": -17.12, 
			 "cosmo_cavitation_energy": 36.78, 
			 "cosmo_dispersion_energy": -26.83, 
			 "cosmo_repulsion_energy": 2.04, 
			 "cosmo_total_nonelectrostatic_energy": 11.99, 
			 "SMD_solvation_energy": 5.79 
		},
		"coords": [
			{
				"x": -1.2702204332,
				"y": 0.2973161778,
				"z": -4.6516869142,
				"element": "O" 
			},
			{
				"x": -0.5443421355,
				"y": -0.8243900721,
				"z": -4.7195204118,
				"element": "C" 
			},
			{
				"x": -0.0604934131,
				"y": -1.2304301843,
				"z": -5.7499087897,
				"element": "O" 
			},
			{
				"x": -0.3954128096,
				"y": -1.592410629,
				"z": -3.3905512501,
				"element": "C" 
			},
			{
				"x": 0.2259134012,
				"y": -0.8243176082,
				"z": -2.3119758042,
				"element": "N" 
			},
			{
				"x": -0.433792468,
				"y": 0.1526849731,
				"z": -1.6382861691,
				"element": "C" 
			},
			{
				"x": -1.5667121475,
				"y": 0.5152988629,
				"z": -1.9925966568,
				"element": "O" 
			},
			{
				"x": 0.2758213912,
				"y": 0.7584271402,
				"z": -0.4423117392,
				"element": "C" 
			},
			{
				"x": -0.3020883977,
				"y": 0.3455906962,
				"z": 0.9389007119,
				"element": "C" 
			},
			{
				"x": 0.5905694655,
				"y": 0.9705885595,
				"z": 2.041540468,
				"element": "C" 
			},
			{
				"x": 0.0712537835,
				"y": 0.5927320072,
				"z": 3.4438252551,
				"element": "C" 
			},
			{
				"x": -1.3716589479,
				"y": 1.110251272,
				"z": 3.6133264779,
				"element": "C" 
			},
			{
				"x": -2.2726574772,
				"y": 0.4783127311,
				"z": 2.5331959847,
				"element": "C" 
			},
			{
				"x": -2.2569927336,
				"y": -1.0568178853,
				"z": 2.6855465906,
				"element": "C" 
			},
			{
				"x": -0.8140636691,
				"y": -1.5765678496,
				"z": 2.5196928336,
				"element": "C" 
			},
			{
				"x": 0.0890415161,
				"y": -0.9420525231,
				"z": 3.596956361,
				"element": "C" 
			},
			{
				"x": -0.2924550497,
				"y": -1.1928707151,
				"z": 1.1187275192,
				"element": "C" 
			},
			{
				"x": -1.7497749162,
				"y": 0.861767346,
				"z": 1.1329821004,
				"element": "C" 
			},
			{
				"x": -1.5775216694,
				"y": 0.44429632,
				"z": -3.722065732,
				"element": "H" 
			},
			{
				"x": 0.2148279242,
				"y": -2.4726494272,
				"z": -3.5878408243,
				"element": "H" 
			},
			{
				"x": -1.3906570858,
				"y": -1.9145954791,
				"z": -3.0606485089,
				"element": "H" 
			},
			{
				"x": 1.1683915224,
				"y": -1.0590453754,
				"z": -2.0409122962,
				"element": "H" 
			},
			{
				"x": 0.1999787008,
				"y": 1.8464132702,
				"z": -0.5469843974,
				"element": "H" 
			},
			{
				"x": 1.3421643589,
				"y": 0.5005597498,
				"z": -0.4699011828,
				"element": "H" 
			},
			{
				"x": 0.6057922015,
				"y": 2.0629574782,
				"z": 1.9267707124,
				"element": "H" 
			},
			{
				"x": 1.6265733182,
				"y": 0.6239556629,
				"z": 1.9207491526,
				"element": "H" 
			},
			{
				"x": 0.7203422466,
				"y": 1.0476086933,
				"z": 4.2026909562,
				"element": "H" 
			},
			{
				"x": -1.7460230947,
				"y": 0.8597902287,
				"z": 4.6144351926,
				"element": "H" 
			},
			{
				"x": -1.3926216067,
				"y": 2.2047418449,
				"z": 3.529732066,
				"element": "H" 
			},
			{
				"x": -3.2992120122,
				"y": 0.8486549425,
				"z": 2.6456247993,
				"element": "H" 
			},
			{
				"x": -2.9128597302,
				"y": -1.517293593,
				"z": 1.9352271024,
				"element": "H" 
			},
			{
				"x": -2.6483346289,
				"y": -1.3434122556,
				"z": 3.670272982,
				"element": "H" 
			},
			{
				"x": -0.7998541448,
				"y": -2.6690228764,
				"z": 2.622179517,
				"element": "H" 
			},
			{
				"x": 1.1156530262,
				"y": -1.3201605379,
				"z": 3.5011492826,
				"element": "H" 
			},
			{
				"x": -0.2623027748,
				"y": -1.2254264019,
				"z": 4.5974239541,
				"element": "H" 
			},
			{
				"x": -0.9181872581,
				"y": -1.665614807,
				"z": 0.3505081764,
				"element": "H" 
			},
			{
				"x": 0.7284534862,
				"y": -1.5779417299,
				"z": 0.9807996298,
				"element": "H" 
			},
			{
				"x": -1.7669951249,
				"y": 1.9531166324,
				"z": 1.0108278025,
				"element": "H" 
			},
			{
				"x": -2.4017426139,
				"y": 0.4529553613,
				"z": 0.3548050484,
				"element": "H" 
			}
		],
		 "valence_orbital": [ 
			{
				"type": "occ",
				"energy": -0.29411,
				"method": "rhf"
			},
			{
				"type": "occ",
				"energy": -0.28844,
				"method": "rhf"
			},
			{
				"type": "occ",
				"energy": -0.2866,
				"method": "rhf"
			},
			{
				"type": "occ",
				"energy": -0.27275,
				"method": "rhf"
			},
			{
				"type": "occ",
				"energy": -0.25277,
				"method": "rhf"
			},
			{
				"type": "unocc",
				"energy": -0.01028,
				"method": "rhf"
			},
			{
				"type": "unocc",
				"energy": 0.01538,
				"method": "rhf"
			},
			{
				"type": "unocc",
				"energy": 0.04811,
				"method": "rhf"
			},
			{
				"type": "unocc",
				"energy": 0.06422,
				"method": "rhf"
			},
			{
				"type": "unocc",
				"energy": 0.09986,
				"method": "rhf"
			}
		],
		"cosmo_sigma_profile": { 
			"-0.025": 0.0,
			"-0.024": 0.0,
			"-0.023": 0.0,
			"-0.022": 0.0,
			"-0.021": 0.0,
			"-0.02": 0.0,
			"-0.019": 0.0,
			"-0.018": 0.0,
			"-0.017": 0.0,
			"-0.016": 0.446584896508,
			"-0.015": 1.31430814312,
			"-0.014": 1.68537394428,
			"-0.013": 1.27030100987,
			"-0.012": 1.16048422901,
			"-0.011": 1.74068645227,
			"-0.01": 1.51046588582,
			"-0.009": 2.20311723785,
			"-0.008": 4.1983442545,
			"-0.007": 4.6896987367,
			"-0.006": 5.30874314501,
			"-0.005": 8.05410816663,
			"-0.004": 10.4227032917,
			"-0.003": 16.6729138313,
			"-0.002": 40.1575041117,
			"-0.001": 47.9621964009,
			"0.0": 41.3781195364,
			"0.001": 32.6144391237,
			"0.002": 11.1857171748,
			"0.003": 3.30370926355,
			"0.004": 2.48935873707,
			"0.005": 3.34110188316,
			"0.006": 3.26403979573,
			"0.007": 3.91046361985,
			"0.008": 4.20287406688,
			"0.009": 4.22835725157,
			"0.01": 5.74173961535,
			"0.011": 7.18283906321,
			"0.012": 7.66768657988,
			"0.013": 3.98987840598,
			"0.014": 0.27163920673,
			"0.015": 0.0,
			"0.016": 0.0,
			"0.017": 0.0,
			"0.018": 0.0,
			"0.019": 0.0,
			"0.02": 0.0,
			"0.021": 0.0,
			"0.022": 0.0,
			"0.023": 0.0,
			"0.024": 0.0,
			"0.025": 0.0
		}
	}
}
