{
	 "smiles": "OC(=O)C1CCN(CC1)C(=O)C=CC1=CC=CC=C1", 
	 "Tm": 467.15, 
	 "num_atms": 36, 
	 "gaussian": { 
		 "optdone": 1, 
		 "sigma_profile": "yes", 
		 "theory": "DFT", 
		 "functional": "B3LYP", 
		 "basiset": "6-31G**", 
		 "properties": { 
			 "R2extent": 7762.6805, 
			 "electric_dipole_moment_norm": 4.91744567128, 
			 "electric_quadrupole_moment_norm": 21.8458943914, 
			 "total_energy": -862.268059134, 
			 "HOMO_LUMO_gap": 0.16787, 
			 "cosmo_polarized_energy": -18.47, 
			 "cosmo_cavitation_energy": 37.8, 
			 "cosmo_dispersion_energy": -27.35, 
			 "cosmo_repulsion_energy": 2.08, 
			 "cosmo_total_nonelectrostatic_energy": 12.53, 
			 "SMD_solvation_energy": 7.6 
		},
		"coords": [
			{
				"x": 0.8825855076,
				"y": 2.152381816,
				"z": -1.7611031329,
				"element": "O" 
			},
			{
				"x": 1.3215728857,
				"y": 3.1548835127,
				"z": -0.9628311863,
				"element": "C" 
			},
			{
				"x": 1.2546155428,
				"y": 4.3048722794,
				"z": -1.3268349051,
				"element": "O" 
			},
			{
				"x": 1.8734095849,
				"y": 2.7510543602,
				"z": 0.4120872132,
				"element": "C" 
			},
			{
				"x": 0.724589772,
				"y": 2.4401105286,
				"z": 1.3979503856,
				"element": "C" 
			},
			{
				"x": -0.0929790133,
				"y": 1.2052752086,
				"z": 0.9750221987,
				"element": "C" 
			},
			{
				"x": 0.7872259952,
				"y": 0.1831635052,
				"z": 0.3517971167,
				"element": "N" 
			},
			{
				"x": 2.1852947458,
				"y": 0.2300018309,
				"z": 0.8177668252,
				"element": "C" 
			},
			{
				"x": 2.8516299992,
				"y": 1.541084416,
				"z": 0.3653708222,
				"element": "C" 
			},
			{
				"x": 0.2845303908,
				"y": -1.0824704081,
				"z": -0.0112210178,
				"element": "C" 
			},
			{
				"x": 1.0396807676,
				"y": -2.0505543215,
				"z": -0.0639312949,
				"element": "O" 
			},
			{
				"x": -1.1464839491,
				"y": -1.1075680858,
				"z": -0.3867037668,
				"element": "C" 
			},
			{
				"x": -2.0287628664,
				"y": -2.1366686558,
				"z": -0.4188399563,
				"element": "C" 
			},
			{
				"x": -2.0005842519,
				"y": -3.5629502594,
				"z": -0.0802108982,
				"element": "C" 
			},
			{
				"x": -0.8450417877,
				"y": -4.3333703079,
				"z": 0.1647351348,
				"element": "C" 
			},
			{
				"x": -0.9570352933,
				"y": -5.6840260738,
				"z": 0.4868413998,
				"element": "C" 
			},
			{
				"x": -2.2082577038,
				"y": -6.2997011961,
				"z": 0.5698270009,
				"element": "C" 
			},
			{
				"x": -3.3622248842,
				"y": -5.5541945955,
				"z": 0.3190644898,
				"element": "C" 
			},
			{
				"x": -3.2558494227,
				"y": -4.2061973328,
				"z": -0.0073981255,
				"element": "C" 
			},
			{
				"x": 0.9446468808,
				"y": 1.2966839985,
				"z": -1.2883800941,
				"element": "H" 
			},
			{
				"x": 2.3970235589,
				"y": 3.642784043,
				"z": 0.762636671,
				"element": "H" 
			},
			{
				"x": 0.050737218,
				"y": 3.2976758682,
				"z": 1.4861800451,
				"element": "H" 
			},
			{
				"x": 1.1626004485,
				"y": 2.2808919139,
				"z": 2.38930324,
				"element": "H" 
			},
			{
				"x": -0.6192249234,
				"y": 0.7859303017,
				"z": 1.8423497602,
				"element": "H" 
			},
			{
				"x": -0.8500860242,
				"y": 1.5125563607,
				"z": 0.2499471033,
				"element": "H" 
			},
			{
				"x": 2.2101097861,
				"y": 0.1360597505,
				"z": 1.9125768058,
				"element": "H" 
			},
			{
				"x": 2.694595115,
				"y": -0.6424259567,
				"z": 0.4126608724,
				"element": "H" 
			},
			{
				"x": 3.7071119243,
				"y": 1.7404087729,
				"z": 1.0188012845,
				"element": "H" 
			},
			{
				"x": 3.2556672301,
				"y": 1.4229537804,
				"z": -0.645612545,
				"element": "H" 
			},
			{
				"x": -1.5582489212,
				"y": -0.1470058193,
				"z": -0.6798485061,
				"element": "H" 
			},
			{
				"x": -3.0241801407,
				"y": -1.8249721103,
				"z": -0.7365958526,
				"element": "H" 
			},
			{
				"x": 0.1259446448,
				"y": -3.8641712287,
				"z": 0.081849655,
				"element": "H" 
			},
			{
				"x": -0.0559820759,
				"y": -6.2631935862,
				"z": 0.6679527863,
				"element": "H" 
			},
			{
				"x": -2.2834432758,
				"y": -7.3543016897,
				"z": 0.8195084868,
				"element": "H" 
			},
			{
				"x": -4.3404580492,
				"y": -6.0229228229,
				"z": 0.3731208364,
				"element": "H" 
			},
			{
				"x": -4.1573294151,
				"y": -3.6309777969,
				"z": -0.2038388521,
				"element": "H" 
			}
		],
		 "valence_orbital": [ 
			{
				"type": "occ",
				"energy": -0.27576,
				"method": "rhf"
			},
			{
				"type": "occ",
				"energy": -0.26039,
				"method": "rhf"
			},
			{
				"type": "occ",
				"energy": -0.25561,
				"method": "rhf"
			},
			{
				"type": "occ",
				"energy": -0.25258,
				"method": "rhf"
			},
			{
				"type": "occ",
				"energy": -0.23724,
				"method": "rhf"
			},
			{
				"type": "unocc",
				"energy": -0.06937,
				"method": "rhf"
			},
			{
				"type": "unocc",
				"energy": -0.00469,
				"method": "rhf"
			},
			{
				"type": "unocc",
				"energy": 0.00798,
				"method": "rhf"
			},
			{
				"type": "unocc",
				"energy": 0.01496,
				"method": "rhf"
			},
			{
				"type": "unocc",
				"energy": 0.05867,
				"method": "rhf"
			}
		],
		"cosmo_sigma_profile": { 
			"-0.025": 0.0,
			"-0.024": 0.0,
			"-0.023": 0.0,
			"-0.022": 0.0,
			"-0.021": 0.0,
			"-0.02": 0.0,
			"-0.019": 0.0,
			"-0.018": 0.0,
			"-0.017": 0.0,
			"-0.016": 0.0,
			"-0.015": 0.0,
			"-0.014": 0.0,
			"-0.013": 0.0,
			"-0.012": 0.0,
			"-0.011": 0.0,
			"-0.01": 0.651508850668,
			"-0.009": 2.01099828715,
			"-0.008": 3.50907010183,
			"-0.007": 6.05974392455,
			"-0.006": 19.3053851288,
			"-0.005": 36.6173814683,
			"-0.004": 36.5155283657,
			"-0.003": 27.6127406653,
			"-0.002": 20.1472044578,
			"-0.001": 16.1726388759,
			"0.0": 9.69951238834,
			"0.001": 12.4571183921,
			"0.002": 14.4176604109,
			"0.003": 17.4360843587,
			"0.004": 16.9307709369,
			"0.005": 15.4322721248,
			"0.006": 5.31148295828,
			"0.007": 3.68184952069,
			"0.008": 4.32962491668,
			"0.009": 4.98400880886,
			"0.01": 4.70610075245,
			"0.011": 7.89237638886,
			"0.012": 8.61919391787,
			"0.013": 4.13792992868,
			"0.014": 0.651839746006,
			"0.015": 0.0,
			"0.016": 0.0,
			"0.017": 0.0,
			"0.018": 0.0,
			"0.019": 0.0,
			"0.02": 0.0,
			"0.021": 0.0,
			"0.022": 0.0,
			"0.023": 0.0,
			"0.024": 0.0,
			"0.025": 0.0
		}
	}
}
