{
	 "smiles": "BrC1=CC=CC2=C1C=CC=C2C=NNC1=CC=CC=C1", 
	 "Tm": 378.15, 
	 "num_atms": 33, 
	 "gaussian": { 
		 "optdone": 1, 
		 "sigma_profile": "yes", 
		 "theory": "DFT", 
		 "functional": "B3LYP", 
		 "basiset": "6-31G**", 
		 "properties": { 
			 "R2extent": 12456.2586, 
			 "electric_dipole_moment_norm": 0.706053000843, 
			 "electric_quadrupole_moment_norm": 10.797333306, 
			 "total_energy": -3336.52502332, 
			 "HOMO_LUMO_gap": 0.12979, 
			 "cosmo_polarized_energy": -9.96, 
			 "cosmo_cavitation_energy": 39.37, 
			 "cosmo_dispersion_energy": -29.11, 
			 "cosmo_repulsion_energy": 2.21, 
			 "cosmo_total_nonelectrostatic_energy": 12.47, 
			 "SMD_solvation_energy": 4.68 
		},
		"coords": [
			{
				"x": 3.3732712681,
				"y": 4.9305548694,
				"z": 2.7411115304,
				"element": "Br" 
			},
			{
				"x": 1.8690556792,
				"y": 4.2227789288,
				"z": 1.785691266,
				"element": "C" 
			},
			{
				"x": 0.6608580762,
				"y": 4.8611433044,
				"z": 1.9392515406,
				"element": "C" 
			},
			{
				"x": -0.4783378388,
				"y": 4.3684795037,
				"z": 1.2661298596,
				"element": "C" 
			},
			{
				"x": -0.3861145302,
				"y": 3.2635050058,
				"z": 0.4514505242,
				"element": "C" 
			},
			{
				"x": 0.8536628815,
				"y": 2.5971323614,
				"z": 0.2608225751,
				"element": "C" 
			},
			{
				"x": 2.0207187046,
				"y": 3.0737710779,
				"z": 0.9551679865,
				"element": "C" 
			},
			{
				"x": 3.2518482178,
				"y": 2.3854703347,
				"z": 0.7920760012,
				"element": "C" 
			},
			{
				"x": 3.3341927823,
				"y": 1.2801676646,
				"z": -0.022050544,
				"element": "C" 
			},
			{
				"x": 2.1986351058,
				"y": 0.8141557288,
				"z": -0.7179795652,
				"element": "C" 
			},
			{
				"x": 0.9696804969,
				"y": 1.4472744515,
				"z": -0.5967166422,
				"element": "C" 
			},
			{
				"x": -0.1938060512,
				"y": 1.0049814232,
				"z": -1.4002292837,
				"element": "C" 
			},
			{
				"x": -0.6351526789,
				"y": -0.1931445933,
				"z": -1.5989267537,
				"element": "N" 
			},
			{
				"x": -0.058266894,
				"y": -1.2468205992,
				"z": -0.9955668519,
				"element": "N" 
			},
			{
				"x": -0.6282370479,
				"y": -2.5221323089,
				"z": -1.0886203754,
				"element": "C" 
			},
			{
				"x": -1.6851978791,
				"y": -2.7971951791,
				"z": -1.9694067463,
				"element": "C" 
			},
			{
				"x": -2.1990569948,
				"y": -4.0898980483,
				"z": -2.042335522,
				"element": "C" 
			},
			{
				"x": -1.6783449402,
				"y": -5.1195590797,
				"z": -1.254137015,
				"element": "C" 
			},
			{
				"x": -0.6260208572,
				"y": -4.8393946909,
				"z": -0.3802569373,
				"element": "C" 
			},
			{
				"x": -0.1013166698,
				"y": -3.5518843882,
				"z": -0.2935908718,
				"element": "C" 
			},
			{
				"x": 0.5842092921,
				"y": 5.7321442916,
				"z": 2.5796313044,
				"element": "H" 
			},
			{
				"x": -1.4320718246,
				"y": 4.8685394212,
				"z": 1.4042555689,
				"element": "H" 
			},
			{
				"x": -1.2734001226,
				"y": 2.8815422714,
				"z": -0.0403942791,
				"element": "H" 
			},
			{
				"x": 4.1270378962,
				"y": 2.7464910637,
				"z": 1.3188100227,
				"element": "H" 
			},
			{
				"x": 4.2834769173,
				"y": 0.7676045621,
				"z": -0.145685468,
				"element": "H" 
			},
			{
				"x": 2.3002585478,
				"y": -0.0298314084,
				"z": -1.3939308634,
				"element": "H" 
			},
			{
				"x": -0.7617557834,
				"y": 1.7722168783,
				"z": -1.921909776,
				"element": "H" 
			},
			{
				"x": 0.6254658123,
				"y": -1.0882444422,
				"z": -0.2606033799,
				"element": "H" 
			},
			{
				"x": -2.0859082841,
				"y": -1.9960624997,
				"z": -2.577975805,
				"element": "H" 
			},
			{
				"x": -3.0185448086,
				"y": -4.2930729016,
				"z": -2.7263935487,
				"element": "H" 
			},
			{
				"x": -2.0862561014,
				"y": -6.1233638991,
				"z": -1.3196369369,
				"element": "H" 
			},
			{
				"x": -0.2089493522,
				"y": -5.6257777069,
				"z": 0.2425922548,
				"element": "H" 
			},
			{
				"x": 0.7168669807,
				"y": -3.340571397,
				"z": 0.3913567311,
				"element": "H" 
			}
		],
		 "valence_orbital": [ 
			{
				"type": "occ",
				"energy": -0.26817,
				"method": "rhf"
			},
			{
				"type": "occ",
				"energy": -0.26143,
				"method": "rhf"
			},
			{
				"type": "occ",
				"energy": -0.24613,
				"method": "rhf"
			},
			{
				"type": "occ",
				"energy": -0.22906,
				"method": "rhf"
			},
			{
				"type": "occ",
				"energy": -0.19421,
				"method": "rhf"
			},
			{
				"type": "unocc",
				"energy": -0.06442,
				"method": "rhf"
			},
			{
				"type": "unocc",
				"energy": -0.02797,
				"method": "rhf"
			},
			{
				"type": "unocc",
				"energy": -0.01723,
				"method": "rhf"
			},
			{
				"type": "unocc",
				"energy": 0.00344,
				"method": "rhf"
			},
			{
				"type": "unocc",
				"energy": 0.00412,
				"method": "rhf"
			}
		],
		"cosmo_sigma_profile": { 
			"-0.025": 0.0,
			"-0.024": 0.0,
			"-0.023": 0.0,
			"-0.022": 0.0,
			"-0.021": 0.0,
			"-0.02": 0.0,
			"-0.019": 0.0,
			"-0.018": 0.0,
			"-0.017": 0.0,
			"-0.016": 0.0,
			"-0.015": 0.0,
			"-0.014": 0.0,
			"-0.013": 0.0473485890046,
			"-0.012": 0.815968750738,
			"-0.011": 1.51322004476,
			"-0.01": 0.897413140367,
			"-0.009": 1.90115444774,
			"-0.008": 1.66401369484,
			"-0.007": 7.57978143846,
			"-0.006": 17.7829852999,
			"-0.005": 21.6827550925,
			"-0.004": 22.3120000461,
			"-0.003": 21.2368753559,
			"-0.002": 20.9760400827,
			"-0.001": 17.8235733695,
			"0.0": 19.9053075152,
			"0.001": 27.0620253077,
			"0.002": 37.5946803598,
			"0.003": 33.9837965809,
			"0.004": 27.9674205917,
			"0.005": 15.8492244082,
			"0.006": 11.2944576034,
			"0.007": 5.52195412796,
			"0.008": 1.51567786148,
			"0.009": 1.49303174649,
			"0.01": 1.34499507379,
			"0.011": 0.35391501772,
			"0.012": 0.0,
			"0.013": 0.0,
			"0.014": 0.0,
			"0.015": 0.0,
			"0.016": 0.0,
			"0.017": 0.0,
			"0.018": 0.0,
			"0.019": 0.0,
			"0.02": 0.0,
			"0.021": 0.0,
			"0.022": 0.0,
			"0.023": 0.0,
			"0.024": 0.0,
			"0.025": 0.0
		}
	}
}
