{
	 "smiles": "CN1CC(=O)N(C1=O)C1=CC(N)=CC=C1", 
	 "Tm": 405.15, 
	 "num_atms": 26, 
	 "gaussian": { 
		 "optdone": 1, 
		 "sigma_profile": "yes", 
		 "theory": "DFT", 
		 "functional": "B3LYP", 
		 "basiset": "6-31G**", 
		 "properties": { 
			 "R2extent": 3565.2997, 
			 "electric_dipole_moment_norm": 2.458981102, 
			 "electric_quadrupole_moment_norm": 19.650721687, 
			 "total_energy": -702.434129459, 
			 "HOMO_LUMO_gap": 0.18421, 
			 "cosmo_polarized_energy": -17.85, 
			 "cosmo_cavitation_energy": 29.9, 
			 "cosmo_dispersion_energy": -21.98, 
			 "cosmo_repulsion_energy": 1.72, 
			 "cosmo_total_nonelectrostatic_energy": 9.64, 
			 "SMD_solvation_energy": 6.28 
		},
		"coords": [
			{
				"x": -3.6386243252,
				"y": 1.2036881137,
				"z": 1.2212326276,
				"element": "C" 
			},
			{
				"x": -2.2444411917,
				"y": 0.8222412592,
				"z": 1.1751655557,
				"element": "N" 
			},
			{
				"x": -1.4896188457,
				"y": 0.3413901498,
				"z": 2.3069422746,
				"element": "C" 
			},
			{
				"x": -0.0906765116,
				"y": 0.1305452425,
				"z": 1.7306959539,
				"element": "C" 
			},
			{
				"x": 0.8759409822,
				"y": -0.2733853543,
				"z": 2.3413991899,
				"element": "O" 
			},
			{
				"x": -0.1627928472,
				"y": 0.4945927898,
				"z": 0.3886394133,
				"element": "N" 
			},
			{
				"x": -1.4802678353,
				"y": 0.9305391955,
				"z": 0.0433049569,
				"element": "C" 
			},
			{
				"x": -1.8438017564,
				"y": 1.319129586,
				"z": -1.0503584003,
				"element": "O" 
			},
			{
				"x": 0.9293353388,
				"y": 0.4505148138,
				"z": -0.5358103919,
				"element": "C" 
			},
			{
				"x": 0.6903153526,
				"y": 0.0774325128,
				"z": -1.8596145383,
				"element": "C" 
			},
			{
				"x": 1.7471914776,
				"y": 0.0394554468,
				"z": -2.7819647372,
				"element": "C" 
			},
			{
				"x": 1.5136328903,
				"y": -0.3712401758,
				"z": -4.0967209364,
				"element": "N" 
			},
			{
				"x": 3.0441284806,
				"y": 0.3586303076,
				"z": -2.3467030888,
				"element": "C" 
			},
			{
				"x": 3.26484809,
				"y": 0.716760852,
				"z": -1.0199091022,
				"element": "C" 
			},
			{
				"x": 2.2191170757,
				"y": 0.7757980578,
				"z": -0.0997381885,
				"element": "C" 
			},
			{
				"x": -3.9259359652,
				"y": 1.53397282,
				"z": 0.2223238539,
				"element": "H" 
			},
			{
				"x": -3.801360159,
				"y": 2.0239227651,
				"z": 1.9313062708,
				"element": "H" 
			},
			{
				"x": -4.2691667626,
				"y": 0.3560485471,
				"z": 1.5156508268,
				"element": "H" 
			},
			{
				"x": -1.873749425,
				"y": -0.6061129294,
				"z": 2.7072055137,
				"element": "H" 
			},
			{
				"x": -1.448513579,
				"y": 1.0655010088,
				"z": 3.1317316296,
				"element": "H" 
			},
			{
				"x": -0.3167454703,
				"y": -0.157206503,
				"z": -2.1805789331,
				"element": "H" 
			},
			{
				"x": 0.5678684096,
				"y": -0.2292734413,
				"z": -4.424430511,
				"element": "H" 
			},
			{
				"x": 2.1947073639,
				"y": -0.048766232,
				"z": -4.7703399817,
				"element": "H" 
			},
			{
				"x": 3.8722300859,
				"y": 0.3212493544,
				"z": -3.0498889165,
				"element": "H" 
			},
			{
				"x": 4.271844788,
				"y": 0.962104042,
				"z": -0.6949698699,
				"element": "H" 
			},
			{
				"x": 2.3986343389,
				"y": 1.0464677711,
				"z": 0.9314295289,
				"element": "H" 
			}
		],
		 "valence_orbital": [ 
			{
				"type": "occ",
				"energy": -0.28406,
				"method": "rhf"
			},
			{
				"type": "occ",
				"energy": -0.26242,
				"method": "rhf"
			},
			{
				"type": "occ",
				"energy": -0.25751,
				"method": "rhf"
			},
			{
				"type": "occ",
				"energy": -0.2302,
				"method": "rhf"
			},
			{
				"type": "occ",
				"energy": -0.19952,
				"method": "rhf"
			},
			{
				"type": "unocc",
				"energy": -0.01531,
				"method": "rhf"
			},
			{
				"type": "unocc",
				"energy": 0.00361,
				"method": "rhf"
			},
			{
				"type": "unocc",
				"energy": 0.01994,
				"method": "rhf"
			},
			{
				"type": "unocc",
				"energy": 0.06868,
				"method": "rhf"
			},
			{
				"type": "unocc",
				"energy": 0.08339,
				"method": "rhf"
			}
		],
		"cosmo_sigma_profile": { 
			"-0.025": 0.0,
			"-0.024": 0.0,
			"-0.023": 0.0,
			"-0.022": 0.0,
			"-0.021": 0.0,
			"-0.02": 0.0,
			"-0.019": 0.0,
			"-0.018": 0.0,
			"-0.017": 0.0,
			"-0.016": 0.0,
			"-0.015": 0.0,
			"-0.014": 0.0,
			"-0.013": 0.615385239002,
			"-0.012": 2.51084238441,
			"-0.011": 3.00064700376,
			"-0.01": 2.52452955839,
			"-0.009": 2.35476567911,
			"-0.008": 7.87371934537,
			"-0.007": 11.1117901446,
			"-0.006": 15.2688482251,
			"-0.005": 19.2001242448,
			"-0.004": 17.849235326,
			"-0.003": 19.9688457906,
			"-0.002": 16.3423917804,
			"-0.001": 12.5396676737,
			"0.0": 8.62952579302,
			"0.001": 7.86539521527,
			"0.002": 9.86681699349,
			"0.003": 7.3473498893,
			"0.004": 9.0772154966,
			"0.005": 13.0210284546,
			"0.006": 12.341221401,
			"0.007": 5.10665845443,
			"0.008": 4.05359490034,
			"0.009": 4.58858089767,
			"0.01": 4.4400722487,
			"0.011": 6.86270161646,
			"0.012": 8.6596633219,
			"0.013": 3.88449100543,
			"0.014": 0.691811977111,
			"0.015": 0.16481003143,
			"0.016": 0.0,
			"0.017": 0.0,
			"0.018": 0.0,
			"0.019": 0.0,
			"0.02": 0.0,
			"0.021": 0.0,
			"0.022": 0.0,
			"0.023": 0.0,
			"0.024": 0.0,
			"0.025": 0.0
		}
	}
}
