{
	 "smiles": "OC(=O)C1=NN(C(=C1)C1=CC=CS1)C1=CC=CC=C1", 
	 "Tm": 467.15, 
	 "num_atms": 29, 
	 "gaussian": { 
		 "optdone": 1, 
		 "sigma_profile": "yes", 
		 "theory": "DFT", 
		 "functional": "B3LYP", 
		 "basiset": "6-31G**", 
		 "properties": { 
			 "R2extent": 6033.0785, 
			 "electric_dipole_moment_norm": 7.77394767026, 
			 "electric_quadrupole_moment_norm": 28.3801662465, 
			 "total_energy": -1197.63520591, 
			 "HOMO_LUMO_gap": 0.1758, 
			 "cosmo_polarized_energy": -14.45, 
			 "cosmo_cavitation_energy": 36.08, 
			 "cosmo_dispersion_energy": -25.74, 
			 "cosmo_repulsion_energy": 1.94, 
			 "cosmo_total_nonelectrostatic_energy": 12.29, 
			 "SMD_solvation_energy": 6.58 
		},
		"coords": [
			{
				"x": -2.2779353651,
				"y": 0.6738226222,
				"z": 4.2290144458,
				"element": "O" 
			},
			{
				"x": -0.9401534758,
				"y": 0.5219776331,
				"z": 4.1093380726,
				"element": "C" 
			},
			{
				"x": -0.2168699607,
				"y": 0.3893287829,
				"z": 5.068939897,
				"element": "O" 
			},
			{
				"x": -0.4454502516,
				"y": 0.5325793623,
				"z": 2.7081903626,
				"element": "C" 
			},
			{
				"x": -1.3100427672,
				"y": 0.6725295389,
				"z": 1.7008129501,
				"element": "N" 
			},
			{
				"x": -0.5617517844,
				"y": 0.6462356571,
				"z": 0.5783220936,
				"element": "N" 
			},
			{
				"x": 0.7827273697,
				"y": 0.4701485338,
				"z": 0.862509469,
				"element": "C" 
			},
			{
				"x": 0.8762122278,
				"y": 0.4051453983,
				"z": 2.2449455994,
				"element": "C" 
			},
			{
				"x": 1.8322182724,
				"y": 0.3243364983,
				"z": -0.1381463845,
				"element": "C" 
			},
			{
				"x": 1.8165980267,
				"y": -0.3417726317,
				"z": -1.3430877538,
				"element": "C" 
			},
			{
				"x": 3.0711148656,
				"y": -0.3134511967,
				"z": -2.0167033497,
				"element": "C" 
			},
			{
				"x": 4.0326122412,
				"y": 0.3691597822,
				"z": -1.3217483835,
				"element": "C" 
			},
			{
				"x": 3.4182926582,
				"y": 1.0005241464,
				"z": 0.1684602568,
				"element": "S" 
			},
			{
				"x": -1.2115523823,
				"y": 0.8396383416,
				"z": -0.6811562128,
				"element": "C" 
			},
			{
				"x": -0.7342373983,
				"y": 1.7947365494,
				"z": -1.5826483797,
				"element": "C" 
			},
			{
				"x": -1.3986303563,
				"y": 1.980374294,
				"z": -2.7945455068,
				"element": "C" 
			},
			{
				"x": -2.5381066449,
				"y": 1.23178853,
				"z": -3.0973442919,
				"element": "C" 
			},
			{
				"x": -3.0158299946,
				"y": 0.2913608898,
				"z": -2.1822545759,
				"element": "C" 
			},
			{
				"x": -2.3527548486,
				"y": 0.0880646276,
				"z": -0.9725400589,
				"element": "C" 
			},
			{
				"x": -2.652279298,
				"y": 0.7709031006,
				"z": 3.3351457367,
				"element": "H" 
			},
			{
				"x": 1.7641153689,
				"y": 0.2447020391,
				"z": 2.8361711389,
				"element": "H" 
			},
			{
				"x": 0.9391243296,
				"y": -0.8491572343,
				"z": -1.7248819928,
				"element": "H" 
			},
			{
				"x": 3.2508091682,
				"y": -0.7893488971,
				"z": -2.9737767451,
				"element": "H" 
			},
			{
				"x": 5.0644352744,
				"y": 0.5406189319,
				"z": -1.5953932753,
				"element": "H" 
			},
			{
				"x": 0.1392265162,
				"y": 2.3863085515,
				"z": -1.3331801133,
				"element": "H" 
			},
			{
				"x": -1.0304943145,
				"y": 2.722172356,
				"z": -3.496685501,
				"element": "H" 
			},
			{
				"x": -3.0545604559,
				"y": 1.3849215296,
				"z": -4.0400516916,
				"element": "H" 
			},
			{
				"x": -3.9041898031,
				"y": -0.2898696815,
				"z": -2.4099526675,
				"element": "H" 
			},
			{
				"x": -2.7102472178,
				"y": -0.6366780554,
				"z": -0.2496531384,
				"element": "H" 
			}
		],
		 "valence_orbital": [ 
			{
				"type": "occ",
				"energy": -0.27411,
				"method": "rhf"
			},
			{
				"type": "occ",
				"energy": -0.26648,
				"method": "rhf"
			},
			{
				"type": "occ",
				"energy": -0.26587,
				"method": "rhf"
			},
			{
				"type": "occ",
				"energy": -0.2525,
				"method": "rhf"
			},
			{
				"type": "occ",
				"energy": -0.23116,
				"method": "rhf"
			},
			{
				"type": "unocc",
				"energy": -0.05536,
				"method": "rhf"
			},
			{
				"type": "unocc",
				"energy": -0.03233,
				"method": "rhf"
			},
			{
				"type": "unocc",
				"energy": -0.02309,
				"method": "rhf"
			},
			{
				"type": "unocc",
				"energy": -0.01671,
				"method": "rhf"
			},
			{
				"type": "unocc",
				"energy": 0.01165,
				"method": "rhf"
			}
		],
		"cosmo_sigma_profile": { 
			"-0.025": 0.0,
			"-0.024": 0.0,
			"-0.023": 0.0,
			"-0.022": 0.0,
			"-0.021": 0.0,
			"-0.02": 0.0,
			"-0.019": 0.0,
			"-0.018": 0.0,
			"-0.017": 0.0,
			"-0.016": 0.0,
			"-0.015": 0.181857179259,
			"-0.014": 0.622242193235,
			"-0.013": 0.47039820111,
			"-0.012": 0.238420283993,
			"-0.011": 1.1578317581,
			"-0.01": 0.780969328664,
			"-0.009": 1.57135077273,
			"-0.008": 3.85379765083,
			"-0.007": 8.83354891191,
			"-0.006": 19.2635163449,
			"-0.005": 21.4514150689,
			"-0.004": 20.8958498981,
			"-0.003": 19.0700340082,
			"-0.002": 19.9614358177,
			"-0.001": 18.4969234218,
			"0.0": 19.9199421931,
			"0.001": 25.4893777017,
			"0.002": 24.5124587484,
			"0.003": 26.6837774349,
			"0.004": 21.4142533691,
			"0.005": 7.62949531167,
			"0.006": 3.61632534975,
			"0.007": 3.53507450549,
			"0.008": 3.00194884179,
			"0.009": 3.06835627231,
			"0.01": 5.6216596085,
			"0.011": 5.28449292807,
			"0.012": 4.80245697401,
			"0.013": 1.49806308848,
			"0.014": 0.00962214928797,
			"0.015": 0.0,
			"0.016": 0.0,
			"0.017": 0.0,
			"0.018": 0.0,
			"0.019": 0.0,
			"0.02": 0.0,
			"0.021": 0.0,
			"0.022": 0.0,
			"0.023": 0.0,
			"0.024": 0.0,
			"0.025": 0.0
		}
	}
}
