{
	 "smiles": "COC1=CC2=C(C3CCOC3O2)C2=C1C1=C(C(=O)CC1)C(=O)O2", 
	 "Tm": 561.15, 
	 "num_atms": 37, 
	 "gaussian": { 
		 "optdone": 1, 
		 "sigma_profile": "yes", 
		 "theory": "DFT", 
		 "functional": "B3LYP", 
		 "basiset": "6-31G**", 
		 "properties": { 
			 "R2extent": 7885.7458, 
			 "electric_dipole_moment_norm": 7.88345767795, 
			 "electric_quadrupole_moment_norm": 36.4235700167, 
			 "total_energy": -1107.58193102, 
			 "HOMO_LUMO_gap": 0.15243, 
			 "cosmo_polarized_energy": -24.19, 
			 "cosmo_cavitation_energy": 39.72, 
			 "cosmo_dispersion_energy": -28.98, 
			 "cosmo_repulsion_energy": 2.18, 
			 "cosmo_total_nonelectrostatic_energy": 12.92, 
			 "SMD_solvation_energy": 8.5 
		},
		"coords": [
			{
				"x": -3.4006729992,
				"y": 1.5731128595,
				"z": -0.385053099,
				"element": "C" 
			},
			{
				"x": -2.1793507248,
				"y": 1.1214604131,
				"z": -0.9614459269,
				"element": "O" 
			},
			{
				"x": -1.0669168333,
				"y": 1.0734847689,
				"z": -0.1854911164,
				"element": "C" 
			},
			{
				"x": -1.0654531638,
				"y": 1.4455299414,
				"z": 1.157715142,
				"element": "C" 
			},
			{
				"x": 0.1461635905,
				"y": 1.3538653183,
				"z": 1.8491720806,
				"element": "C" 
			},
			{
				"x": 1.3314663421,
				"y": 0.9136756021,
				"z": 1.2684644284,
				"element": "C" 
			},
			{
				"x": 2.4323017588,
				"y": 0.9415641996,
				"z": 2.2933748776,
				"element": "C" 
			},
			{
				"x": 2.9671824543,
				"y": -0.4412617546,
				"z": 2.738184132,
				"element": "C" 
			},
			{
				"x": 2.0094719554,
				"y": -0.8123124392,
				"z": 3.8719072513,
				"element": "C" 
			},
			{
				"x": 1.727561179,
				"y": 0.442075738,
				"z": 4.5228550297,
				"element": "O" 
			},
			{
				"x": 1.6684025205,
				"y": 1.442010774,
				"z": 3.5640852929,
				"element": "C" 
			},
			{
				"x": 0.28203768,
				"y": 1.6960716599,
				"z": 3.1487263857,
				"element": "O" 
			},
			{
				"x": 1.3168202178,
				"y": 0.5401502909,
				"z": -0.0673228075,
				"element": "C" 
			},
			{
				"x": 0.1204336828,
				"y": 0.6111543672,
				"z": -0.835812017,
				"element": "C" 
			},
			{
				"x": 0.2259241554,
				"y": 0.2069099869,
				"z": -2.2056029652,
				"element": "C" 
			},
			{
				"x": 1.4232668956,
				"y": -0.2265453219,
				"z": -2.7239464843,
				"element": "C" 
			},
			{
				"x": 1.291852961,
				"y": -0.5902074591,
				"z": -4.1531881803,
				"element": "C" 
			},
			{
				"x": 2.1490377307,
				"y": -1.0077058325,
				"z": -4.9048002855,
				"element": "O" 
			},
			{
				"x": -0.1774960591,
				"y": -0.3362258267,
				"z": -4.532634117,
				"element": "C" 
			},
			{
				"x": -0.8667419397,
				"y": 0.181189413,
				"z": -3.2567269849,
				"element": "C" 
			},
			{
				"x": 2.6425194536,
				"y": -0.3096361259,
				"z": -1.9433835324,
				"element": "C" 
			},
			{
				"x": 3.7381041776,
				"y": -0.6762342634,
				"z": -2.2743713352,
				"element": "O" 
			},
			{
				"x": 2.4898436327,
				"y": 0.1082615422,
				"z": -0.5942303086,
				"element": "O" 
			},
			{
				"x": -3.7154570048,
				"y": 0.924749933,
				"z": 0.4408028854,
				"element": "H" 
			},
			{
				"x": -3.3143186497,
				"y": 2.605188095,
				"z": -0.0261172189,
				"element": "H" 
			},
			{
				"x": -4.1403547375,
				"y": 1.5274079918,
				"z": -1.184886905,
				"element": "H" 
			},
			{
				"x": -1.951074709,
				"y": 1.7962807404,
				"z": 1.668215086,
				"element": "H" 
			},
			{
				"x": 3.2449678161,
				"y": 1.6139618816,
				"z": 2.004627921,
				"element": "H" 
			},
			{
				"x": 3.9860495479,
				"y": -0.3409775196,
				"z": 3.1242120777,
				"element": "H" 
			},
			{
				"x": 2.9797156507,
				"y": -1.1638467496,
				"z": 1.9200369983,
				"element": "H" 
			},
			{
				"x": 2.4391396427,
				"y": -1.4766093293,
				"z": 4.6243734294,
				"element": "H" 
			},
			{
				"x": 1.0805023264,
				"y": -1.260656286,
				"z": 3.4944243137,
				"element": "H" 
			},
			{
				"x": 2.0113518376,
				"y": 2.3742902862,
				"z": 4.0154728259,
				"element": "H" 
			},
			{
				"x": -0.6149076173,
				"y": -1.2672936572,
				"z": -4.9060112274,
				"element": "H" 
			},
			{
				"x": -0.2128091963,
				"y": 0.3824249343,
				"z": -5.3572461197,
				"element": "H" 
			},
			{
				"x": -1.691704098,
				"y": -0.4570436705,
				"z": -2.9261471579,
				"element": "H" 
			},
			{
				"x": -1.2968594765,
				"y": 1.180135498,
				"z": -3.3764323684,
				"element": "H" 
			}
		],
		 "valence_orbital": [ 
			{
				"type": "occ",
				"energy": -0.28157,
				"method": "rhf"
			},
			{
				"type": "occ",
				"energy": -0.27489,
				"method": "rhf"
			},
			{
				"type": "occ",
				"energy": -0.24383,
				"method": "rhf"
			},
			{
				"type": "occ",
				"energy": -0.23197,
				"method": "rhf"
			},
			{
				"type": "occ",
				"energy": -0.22409,
				"method": "rhf"
			},
			{
				"type": "unocc",
				"energy": -0.07166,
				"method": "rhf"
			},
			{
				"type": "unocc",
				"energy": -0.02074,
				"method": "rhf"
			},
			{
				"type": "unocc",
				"energy": -0.00192,
				"method": "rhf"
			},
			{
				"type": "unocc",
				"energy": 0.01677,
				"method": "rhf"
			},
			{
				"type": "unocc",
				"energy": 0.07562,
				"method": "rhf"
			}
		],
		"cosmo_sigma_profile": { 
			"-0.025": 0.0,
			"-0.024": 0.0,
			"-0.023": 0.0,
			"-0.022": 0.0,
			"-0.021": 0.0,
			"-0.02": 0.0,
			"-0.019": 0.0,
			"-0.018": 0.0,
			"-0.017": 0.0,
			"-0.016": 0.0,
			"-0.015": 0.0,
			"-0.014": 0.0,
			"-0.013": 0.0,
			"-0.012": 0.0,
			"-0.011": 0.0,
			"-0.01": 0.0,
			"-0.009": 0.0337456116065,
			"-0.008": 2.85886935354,
			"-0.007": 7.99557372618,
			"-0.006": 22.1442959564,
			"-0.005": 34.2636095872,
			"-0.004": 39.8007955619,
			"-0.003": 30.0359056793,
			"-0.002": 26.8073550528,
			"-0.001": 24.2280418472,
			"0.0": 22.4030248324,
			"0.001": 14.8091656464,
			"0.002": 13.6035863385,
			"0.003": 7.950301309,
			"0.004": 4.35336258371,
			"0.005": 5.7108362718,
			"0.006": 5.86780955724,
			"0.007": 4.60251138959,
			"0.008": 4.32204777921,
			"0.009": 7.16179211264,
			"0.01": 7.66682422149,
			"0.011": 9.60696336761,
			"0.012": 9.96294552313,
			"0.013": 5.57584782302,
			"0.014": 2.25616126338,
			"0.015": 1.37615002653,
			"0.016": 0.544798671251,
			"0.017": 0.0,
			"0.018": 0.0,
			"0.019": 0.0,
			"0.02": 0.0,
			"0.021": 0.0,
			"0.022": 0.0,
			"0.023": 0.0,
			"0.024": 0.0,
			"0.025": 0.0
		}
	}
}
