{
	 "smiles": "CC1=C(I)C(=NO1)C1=CC=CC=C1", 
	 "Tm": 377.15, 
	 "num_atms": 21, 
	 "gaussian": { 
		 "optdone": 1, 
		 "sigma_profile": "no", 
		 "theory": "DFT", 
		 "functional": "B3LYP", 
		 "basiset": "6-31G**", 
		 "properties": { 
			 "R2extent": 2846.23, 
			 "electric_dipole_moment_norm": 1.75714311882, 
			 "electric_quadrupole_moment_norm": 12.3547461666, 
			 "total_energy": -527.199663412, 
			 "HOMO_LUMO_gap": 0.20115, 
			 "cosmo_polarized_energy": -78448.73, 
			 "cosmo_cavitation_energy": 28.41, 
			 "cosmo_dispersion_energy": -22.0, 
			 "cosmo_repulsion_energy": 1.71, 
			 "cosmo_total_nonelectrostatic_energy": 8.12, 
			 "SMD_solvation_energy": 4.16 
		},
		"coords": [
			{
				"x": -2.5125336467,
				"y": -1.1457884709,
				"z": 2.6680803688,
				"element": "C" 
			},
			{
				"x": -1.7294756862,
				"y": -0.4495290141,
				"z": 1.6123705901,
				"element": "C" 
			},
			{
				"x": -0.7617013374,
				"y": -0.8390019007,
				"z": 0.7283233722,
				"element": "C" 
			},
			{
				"x": -0.0448834946,
				"y": -2.7843101252,
				"z": 0.5014457127,
				"element": "I" 
			},
			{
				"x": -0.4531540948,
				"y": 0.3441163019,
				"z": -0.0278079598,
				"element": "C" 
			},
			{
				"x": -1.1860162152,
				"y": 1.357095484,
				"z": 0.3927160417,
				"element": "N" 
			},
			{
				"x": -1.9899230223,
				"y": 0.8586842055,
				"z": 1.4218772026,
				"element": "O" 
			},
			{
				"x": 0.4880227526,
				"y": 0.5594358027,
				"z": -1.1452756524,
				"element": "C" 
			},
			{
				"x": 1.7605961733,
				"y": -0.0304549398,
				"z": -1.1585869585,
				"element": "C" 
			},
			{
				"x": 2.6380627568,
				"y": 0.214432256,
				"z": -2.2146441354,
				"element": "C" 
			},
			{
				"x": 2.2575103989,
				"y": 1.0502149578,
				"z": -3.2657827269,
				"element": "C" 
			},
			{
				"x": 0.9949835944,
				"y": 1.6477077713,
				"z": -3.2545382562,
				"element": "C" 
			},
			{
				"x": 0.1149618165,
				"y": 1.405893885,
				"z": -2.2020772168,
				"element": "C" 
			},
			{
				"x": -2.4243492944,
				"y": -0.6164284219,
				"z": 3.62197613,
				"element": "H" 
			},
			{
				"x": -3.5748493962,
				"y": -1.1807074607,
				"z": 2.4034920354,
				"element": "H" 
			},
			{
				"x": -2.1515630335,
				"y": -2.1673449331,
				"z": 2.795824757,
				"element": "H" 
			},
			{
				"x": 2.0717259618,
				"y": -0.6664799471,
				"z": -0.3372665062,
				"element": "H" 
			},
			{
				"x": 3.6223030601,
				"y": -0.2447198763,
				"z": -2.2117867416,
				"element": "H" 
			},
			{
				"x": 2.9416578438,
				"y": 1.2366677007,
				"z": -4.0885801406,
				"element": "H" 
			},
			{
				"x": 0.693530528,
				"y": 2.3006066148,
				"z": -4.0684443782,
				"element": "H" 
			},
			{
				"x": -0.867405665,
				"y": 1.86571011,
				"z": -2.1868155378,
				"element": "H" 
			}
		],
		 "valence_orbital": [ 
			{
				"type": "occ",
				"energy": -0.29648,
				"method": "rhf"
			},
			{
				"type": "occ",
				"energy": -0.2777,
				"method": "rhf"
			},
			{
				"type": "occ",
				"energy": -0.25442,
				"method": "rhf"
			},
			{
				"type": "occ",
				"energy": -0.24559,
				"method": "rhf"
			},
			{
				"type": "occ",
				"energy": -0.24354,
				"method": "rhf"
			},
			{
				"type": "unocc",
				"energy": -0.04239,
				"method": "rhf"
			},
			{
				"type": "unocc",
				"energy": -0.03553,
				"method": "rhf"
			},
			{
				"type": "unocc",
				"energy": -0.00634,
				"method": "rhf"
			},
			{
				"type": "unocc",
				"energy": -0.00271,
				"method": "rhf"
			},
			{
				"type": "unocc",
				"energy": 0.03902,
				"method": "rhf"
			}
		],
		"cosmo_sigma_profile": { 
			"0.0": 0.0,
			"0.0": 0.0,
			"0.0": 0.0,
			"0.0": 0.0,
			"0.0": 0.0,
			"0.0": 0.0,
			"0.0": 0.0,
			"0.0": 0.0,
			"0.0": 0.0,
			"0.0": 0.0,
			"0.0": 0.0,
			"0.0": 0.0,
			"0.0": 0.0,
			"0.0": 0.0,
			"0.0": 0.0,
			"0.0": 0.0,
			"0.0": 0.0,
			"0.0": 0.0,
			"0.0": 0.0,
			"0.0": 0.0,
			"0.0": 0.0,
			"0.0": 0.0,
			"0.0": 0.0,
			"0.0": 0.0,
			"0.0": 0.0,
			"0.0": 0.0,
			"0.0": 0.0,
			"0.0": 0.0,
			"0.0": 0.0,
			"0.0": 0.0,
			"0.0": 0.0,
			"0.0": 0.0,
			"0.0": 0.0,
			"0.0": 0.0,
			"0.0": 0.0,
			"0.0": 0.0,
			"0.0": 0.0,
			"0.0": 0.0,
			"0.0": 0.0,
			"0.0": 0.0,
			"0.0": 0.0,
			"0.0": 0.0,
			"0.0": 0.0,
			"0.0": 0.0,
			"0.0": 0.0,
			"0.0": 0.0,
			"0.0": 0.0,
			"0.0": 0.0,
			"0.0": 0.0,
			"0.0": 0.0,
			"0.0": 0.0
		}
	}
}
