{
	 "smiles": "OC(=O)C(=CC1=CC2=C(OCO2)C=C1)C#N", 
	 "Tm": 479.15, 
	 "num_atms": 23, 
	 "gaussian": { 
		 "optdone": 1, 
		 "sigma_profile": "yes", 
		 "theory": "DFT", 
		 "functional": "B3LYP", 
		 "basiset": "6-31G**", 
		 "properties": { 
			 "R2extent": 4545.8171, 
			 "electric_dipole_moment_norm": 8.53272720588, 
			 "electric_quadrupole_moment_norm": 18.7937122432, 
			 "total_energy": -778.977746523, 
			 "HOMO_LUMO_gap": 0.13501, 
			 "cosmo_polarized_energy": -23.62, 
			 "cosmo_cavitation_energy": 29.53, 
			 "cosmo_dispersion_energy": -21.39, 
			 "cosmo_repulsion_energy": 1.65, 
			 "cosmo_total_nonelectrostatic_energy": 9.79, 
			 "SMD_solvation_energy": 8.21 
		},
		"coords": [
			{
				"x": -0.550750006,
				"y": -4.2415989352,
				"z": -0.6527969196,
				"element": "O" 
			},
			{
				"x": 0.047499576,
				"y": -3.4286795953,
				"z": -1.5664200743,
				"element": "C" 
			},
			{
				"x": 0.5749329499,
				"y": -3.8887593689,
				"z": -2.5473698283,
				"element": "O" 
			},
			{
				"x": 0.029548322,
				"y": -1.9546570785,
				"z": -1.2631036306,
				"element": "C" 
			},
			{
				"x": -0.004733282,
				"y": -1.4891743638,
				"z": 0.0198176079,
				"element": "C" 
			},
			{
				"x": 0.0364552552,
				"y": -0.1485111829,
				"z": 0.5740401402,
				"element": "C" 
			},
			{
				"x": 0.0600598155,
				"y": 1.0408449289,
				"z": -0.2096584184,
				"element": "C" 
			},
			{
				"x": 0.0952912618,
				"y": 2.2343058499,
				"z": 0.4688383463,
				"element": "C" 
			},
			{
				"x": 0.1077505271,
				"y": 2.3086972734,
				"z": 1.8660295752,
				"element": "C" 
			},
			{
				"x": 0.1385829114,
				"y": 3.6099319064,
				"z": 2.2618034033,
				"element": "O" 
			},
			{
				"x": 0.1843434183,
				"y": 4.3974249939,
				"z": 1.0575120848,
				"element": "C" 
			},
			{
				"x": 0.1149891181,
				"y": 3.5007179497,
				"z": -0.0539634954,
				"element": "O" 
			},
			{
				"x": 0.0834064586,
				"y": 1.1734456535,
				"z": 2.6555510794,
				"element": "C" 
			},
			{
				"x": 0.0467795338,
				"y": -0.0527246293,
				"z": 1.9827436218,
				"element": "C" 
			},
			{
				"x": 0.1677289627,
				"y": -1.1197462725,
				"z": -2.4143289304,
				"element": "C" 
			},
			{
				"x": 0.2608183734,
				"y": -0.43608629,
				"z": -3.3518600571,
				"element": "N" 
			},
			{
				"x": -1.1335456533,
				"y": -3.7261719724,
				"z": -0.078216313,
				"element": "H" 
			},
			{
				"x": -0.0366997429,
				"y": -2.2633774609,
				"z": 0.7846579066,
				"element": "H" 
			},
			{
				"x": 0.0523624996,
				"y": 1.0208094835,
				"z": -1.2906708332,
				"element": "H" 
			},
			{
				"x": 1.1282641257,
				"y": 4.9543463696,
				"z": 1.0274096361,
				"element": "H" 
			},
			{
				"x": -0.6742208289,
				"y": 5.0771415833,
				"z": 1.0390173806,
				"element": "H" 
			},
			{
				"x": 0.0922352184,
				"y": 1.2350671533,
				"z": 3.7372774585,
				"element": "H" 
			},
			{
				"x": 0.0296011856,
				"y": -0.9667459961,
				"z": 2.5688902594,
				"element": "H" 
			}
		],
		 "valence_orbital": [ 
			{
				"type": "occ",
				"energy": -0.3264,
				"method": "rhf"
			},
			{
				"type": "occ",
				"energy": -0.30103,
				"method": "rhf"
			},
			{
				"type": "occ",
				"energy": -0.28437,
				"method": "rhf"
			},
			{
				"type": "occ",
				"energy": -0.26823,
				"method": "rhf"
			},
			{
				"type": "occ",
				"energy": -0.23075,
				"method": "rhf"
			},
			{
				"type": "unocc",
				"energy": -0.09574,
				"method": "rhf"
			},
			{
				"type": "unocc",
				"energy": -0.02463,
				"method": "rhf"
			},
			{
				"type": "unocc",
				"energy": 0.00372,
				"method": "rhf"
			},
			{
				"type": "unocc",
				"energy": 0.01388,
				"method": "rhf"
			},
			{
				"type": "unocc",
				"energy": 0.02441,
				"method": "rhf"
			}
		],
		"cosmo_sigma_profile": { 
			"-0.025": 0.0,
			"-0.024": 0.0,
			"-0.023": 0.0,
			"-0.022": 0.0,
			"-0.021": 0.0,
			"-0.02": 0.314878764299,
			"-0.019": 0.86645840313,
			"-0.018": 1.46263009614,
			"-0.017": 1.10664559136,
			"-0.016": 0.345208449497,
			"-0.015": 0.78324754008,
			"-0.014": 1.35319905863,
			"-0.013": 1.32313559488,
			"-0.012": 1.49616853843,
			"-0.011": 1.58087044681,
			"-0.01": 2.30584709236,
			"-0.009": 4.02021500014,
			"-0.008": 12.7987476794,
			"-0.007": 12.2312907228,
			"-0.006": 11.3237159324,
			"-0.005": 8.99483719306,
			"-0.004": 9.32305640922,
			"-0.003": 11.3621771517,
			"-0.002": 15.2484330674,
			"-0.001": 15.8784079816,
			"0.0": 17.2258052385,
			"0.001": 16.1188442995,
			"0.002": 15.0373517124,
			"0.003": 7.28451804573,
			"0.004": 5.78818134952,
			"0.005": 7.61213356905,
			"0.006": 7.20987669544,
			"0.007": 8.1583185086,
			"0.008": 9.79040188733,
			"0.009": 8.50053451405,
			"0.01": 8.04983014996,
			"0.011": 8.14201313033,
			"0.012": 4.99425371507,
			"0.013": 1.06992952907,
			"0.014": 0.0,
			"0.015": 0.0,
			"0.016": 0.0,
			"0.017": 0.0,
			"0.018": 0.0,
			"0.019": 0.0,
			"0.02": 0.0,
			"0.021": 0.0,
			"0.022": 0.0,
			"0.023": 0.0,
			"0.024": 0.0,
			"0.0": 0.0
		}
	}
}
