{
	 "smiles": "NC(=O)C1=C(N)C=CS1", 
	 "Tm": 394.15, 
	 "num_atms": 15, 
	 "gaussian": { 
		 "optdone": 1, 
		 "sigma_profile": "yes", 
		 "theory": "DFT", 
		 "functional": "B3LYP", 
		 "basiset": "6-31G**", 
		 "properties": { 
			 "R2extent": 1522.0441, 
			 "electric_dipole_moment_norm": 4.85707416559, 
			 "electric_quadrupole_moment_norm": 9.43071697168, 
			 "total_energy": -777.06733751, 
			 "HOMO_LUMO_gap": 0.17794, 
			 "cosmo_polarized_energy": -16.69, 
			 "cosmo_cavitation_energy": 20.49, 
			 "cosmo_dispersion_energy": -16.15, 
			 "cosmo_repulsion_energy": 1.28, 
			 "cosmo_total_nonelectrostatic_energy": 5.62, 
			 "SMD_solvation_energy": 4.42 
		},
		"coords": [
			{
				"x": 2.8317268692,
				"y": -1.0330330253,
				"z": -0.2354421697,
				"element": "N" 
			},
			{
				"x": 1.9497142389,
				"y": -0.0429833415,
				"z": -0.6666762756,
				"element": "C" 
			},
			{
				"x": 2.0625136677,
				"y": 0.4849827711,
				"z": -1.7678462948,
				"element": "O" 
			},
			{
				"x": 0.869464442,
				"y": 0.2938696926,
				"z": 0.2681589942,
				"element": "C" 
			},
			{
				"x": 0.4362353723,
				"y": -0.3425009124,
				"z": 1.425140768,
				"element": "C" 
			},
			{
				"x": 0.9970381403,
				"y": -1.5053554718,
				"z": 1.9595567907,
				"element": "N" 
			},
			{
				"x": -0.6489221018,
				"y": 0.3533885687,
				"z": 2.0476886538,
				"element": "C" 
			},
			{
				"x": -1.0208465303,
				"y": 1.4741239975,
				"z": 1.3572938929,
				"element": "C" 
			},
			{
				"x": -0.0853999854,
				"y": 1.7201221006,
				"z": -0.0699218962,
				"element": "S" 
			},
			{
				"x": 3.6398112093,
				"y": -1.1140371824,
				"z": -0.8403481099,
				"element": "H" 
			},
			{
				"x": 3.0435559447,
				"y": -1.0585282137,
				"z": 0.7552985447,
				"element": "H" 
			},
			{
				"x": 0.4073393397,
				"y": -1.9627526471,
				"z": 2.6425947524,
				"element": "H" 
			},
			{
				"x": 1.3282507561,
				"y": -2.1589147994,
				"z": 1.2586979379,
				"element": "H" 
			},
			{
				"x": -1.1241157879,
				"y": 0.0207935107,
				"z": 2.9646591107,
				"element": "H" 
			},
			{
				"x": -1.8115655749,
				"y": 2.1663249525,
				"z": 1.6135453009,
				"element": "H" 
			}
		],
		 "valence_orbital": [ 
			{
				"type": "occ",
				"energy": -0.32312,
				"method": "rhf"
			},
			{
				"type": "occ",
				"energy": -0.27458,
				"method": "rhf"
			},
			{
				"type": "occ",
				"energy": -0.2497,
				"method": "rhf"
			},
			{
				"type": "occ",
				"energy": -0.24217,
				"method": "rhf"
			},
			{
				"type": "occ",
				"energy": -0.21376,
				"method": "rhf"
			},
			{
				"type": "unocc",
				"energy": -0.03582,
				"method": "rhf"
			},
			{
				"type": "unocc",
				"energy": 0.02787,
				"method": "rhf"
			},
			{
				"type": "unocc",
				"energy": 0.04257,
				"method": "rhf"
			},
			{
				"type": "unocc",
				"energy": 0.08051,
				"method": "rhf"
			},
			{
				"type": "unocc",
				"energy": 0.08958,
				"method": "rhf"
			}
		],
		"cosmo_sigma_profile": { 
			"-0.025": 0.0,
			"-0.024": 0.0,
			"-0.023": 0.0,
			"-0.022": 0.0,
			"-0.021": 0.0,
			"-0.02": 0.0,
			"-0.019": 0.0,
			"-0.018": 0.0,
			"-0.017": 0.0,
			"-0.016": 0.0,
			"-0.015": 0.0,
			"-0.014": 0.240630437913,
			"-0.013": 2.05767849544,
			"-0.012": 3.94112941849,
			"-0.011": 4.32599403914,
			"-0.01": 5.39097408679,
			"-0.009": 5.58987034933,
			"-0.008": 7.8635597443,
			"-0.007": 6.91074429908,
			"-0.006": 7.05957196642,
			"-0.005": 6.40331069526,
			"-0.004": 5.47383366622,
			"-0.003": 6.52207941033,
			"-0.002": 5.64756875614,
			"-0.001": 6.3294182236,
			"0.0": 6.39174480386,
			"0.001": 6.81178807193,
			"0.002": 9.48437431412,
			"0.003": 15.384190454,
			"0.004": 16.2391833761,
			"0.005": 9.97183236357,
			"0.006": 3.06386693644,
			"0.007": 2.17993313893,
			"0.008": 3.25391972506,
			"0.009": 2.30489011286,
			"0.01": 2.04644348059,
			"0.011": 2.38135962342,
			"0.012": 2.50390371788,
			"0.013": 3.7342264352,
			"0.014": 5.09634034679,
			"0.015": 0.520837955854,
			"0.016": 0.0,
			"0.017": 0.0,
			"0.018": 0.0,
			"0.019": 0.0,
			"0.02": 0.0,
			"0.021": 0.0,
			"0.022": 0.0,
			"0.023": 0.0,
			"0.024": 0.0,
			"0.025": 0.0
		}
	}
}
