{
	 "smiles": "COC1=CC=C(C=C1)C1=C(C(=NO1)C(=O)C1=CC=CS1)S(=O)(=O)C1=CC=CC=C1", 
	 "Tm": 393.15, 
	 "num_atms": 44, 
	 "gaussian": { 
		 "optdone": 1, 
		 "sigma_profile": "yes", 
		 "theory": "DFT", 
		 "functional": "B3LYP", 
		 "basiset": "6-31G**", 
		 "properties": { 
			 "R2extent": 14121.3334, 
			 "electric_dipole_moment_norm": 9.69111605596, 
			 "electric_quadrupole_moment_norm": 38.5613233533, 
			 "total_energy": -2036.36076578, 
			 "HOMO_LUMO_gap": 0.16071, 
			 "cosmo_polarized_energy": -24.82, 
			 "cosmo_cavitation_energy": 52.68, 
			 "cosmo_dispersion_energy": -35.45, 
			 "cosmo_repulsion_energy": 2.58, 
			 "cosmo_total_nonelectrostatic_energy": 19.82, 
			 "SMD_solvation_energy": 9.12 
		},
		"coords": [
			{
				"x": -2.0814286151,
				"y": 6.2377573663,
				"z": -0.8471862776,
				"element": "C" 
			},
			{
				"x": -0.8097960814,
				"y": 5.6280098811,
				"z": -0.6641043794,
				"element": "O" 
			},
			{
				"x": -0.6840863288,
				"y": 4.2989736139,
				"z": -0.9078153982,
				"element": "C" 
			},
			{
				"x": 0.604383476,
				"y": 3.7659715189,
				"z": -0.7357030627,
				"element": "C" 
			},
			{
				"x": 0.8446470124,
				"y": 2.4192491299,
				"z": -0.9554494452,
				"element": "C" 
			},
			{
				"x": -0.2043490719,
				"y": 1.5636321863,
				"z": -1.3507235417,
				"element": "C" 
			},
			{
				"x": -1.4863957427,
				"y": 2.1085765307,
				"z": -1.5336498939,
				"element": "C" 
			},
			{
				"x": -1.7331881927,
				"y": 3.4599373019,
				"z": -1.3120740986,
				"element": "C" 
			},
			{
				"x": 0.0138237507,
				"y": 0.1463754987,
				"z": -1.6264257912,
				"element": "C" 
			},
			{
				"x": 0.8582947626,
				"y": -0.8496246703,
				"z": -1.1677551237,
				"element": "C" 
			},
			{
				"x": 0.4748276169,
				"y": -2.0117609722,
				"z": -1.9108724074,
				"element": "C" 
			},
			{
				"x": -0.5188959776,
				"y": -1.7577215088,
				"z": -2.7260976438,
				"element": "N" 
			},
			{
				"x": -0.8067172984,
				"y": -0.3973168547,
				"z": -2.5517170863,
				"element": "O" 
			},
			{
				"x": 1.1233430141,
				"y": -3.3855120648,
				"z": -1.9633072198,
				"element": "C" 
			},
			{
				"x": 2.1856265172,
				"y": -3.5194790279,
				"z": -2.5445558421,
				"element": "O" 
			},
			{
				"x": 0.3975715093,
				"y": -4.4871907628,
				"z": -1.3357963051,
				"element": "C" 
			},
			{
				"x": -0.8458895475,
				"y": -4.4900790064,
				"z": -0.732949495,
				"element": "C" 
			},
			{
				"x": -1.2194276955,
				"y": -5.7697082692,
				"z": -0.2473515559,
				"element": "C" 
			},
			{
				"x": -0.2548817549,
				"y": -6.7189671725,
				"z": -0.4876778564,
				"element": "C" 
			},
			{
				"x": 1.1183493363,
				"y": -6.0765617066,
				"z": -1.3095804817,
				"element": "S" 
			},
			{
				"x": 2.014522688,
				"y": -0.8612305825,
				"z": 0.1890275532,
				"element": "S" 
			},
			{
				"x": 2.9073550694,
				"y": 0.3026388021,
				"z": 0.0814472359,
				"element": "O" 
			},
			{
				"x": 2.5474269514,
				"y": -2.2283731433,
				"z": 0.242624504,
				"element": "O" 
			},
			{
				"x": 0.9811115528,
				"y": -0.6291855919,
				"z": 1.6459110206,
				"element": "C" 
			},
			{
				"x": 0.8823049919,
				"y": 0.6338334641,
				"z": 2.2310096699,
				"element": "C" 
			},
			{
				"x": 0.0892840209,
				"y": 0.788857749,
				"z": 3.3694710921,
				"element": "C" 
			},
			{
				"x": -0.5869708956,
				"y": -0.3074689126,
				"z": 3.9077448585,
				"element": "C" 
			},
			{
				"x": -0.4698818577,
				"y": -1.5689936251,
				"z": 3.3167646943,
				"element": "C" 
			},
			{
				"x": 0.3196813767,
				"y": -1.7386298722,
				"z": 2.180578277,
				"element": "C" 
			},
			{
				"x": -2.4271986221,
				"y": 6.1431945342,
				"z": -1.8837868903,
				"element": "H" 
			},
			{
				"x": -2.834182872,
				"y": 5.8093777829,
				"z": -0.1738827155,
				"element": "H" 
			},
			{
				"x": -1.9440135434,
				"y": 7.2928760602,
				"z": -0.6081530872,
				"element": "H" 
			},
			{
				"x": 1.4057341573,
				"y": 4.4357703649,
				"z": -0.4423088537,
				"element": "H" 
			},
			{
				"x": 1.8470599811,
				"y": 2.0242364375,
				"z": -0.8388817987,
				"element": "H" 
			},
			{
				"x": -2.3000308117,
				"y": 1.4642180663,
				"z": -1.8485965293,
				"element": "H" 
			},
			{
				"x": -2.7350480751,
				"y": 3.8460396058,
				"z": -1.4548026719,
				"element": "H" 
			},
			{
				"x": -1.467163549,
				"y": -3.6051145715,
				"z": -0.6657128023,
				"element": "H" 
			},
			{
				"x": -2.1577110544,
				"y": -5.9809439719,
				"z": 0.2521247781,
				"element": "H" 
			},
			{
				"x": -0.2813479447,
				"y": -7.7675569737,
				"z": -0.2222990071,
				"element": "H" 
			},
			{
				"x": 1.4290105578,
				"y": 1.4690187246,
				"z": 1.8095348036,
				"element": "H" 
			},
			{
				"x": 0.006705426,
				"y": 1.7648909078,
				"z": 3.837848231,
				"element": "H" 
			},
			{
				"x": -1.2004354659,
				"y": -0.1817003369,
				"z": 4.7951306339,
				"element": "H" 
			},
			{
				"x": -0.9857458664,
				"y": -2.4223591799,
				"z": 3.7464538796,
				"element": "H" 
			},
			{
				"x": 0.4389230958,
				"y": -2.7144567493,
				"z": 1.7216460299,
				"element": "H" 
			}
		],
		 "valence_orbital": [ 
			{
				"type": "occ",
				"energy": -0.2699,
				"method": "rhf"
			},
			{
				"type": "occ",
				"energy": -0.26594,
				"method": "rhf"
			},
			{
				"type": "occ",
				"energy": -0.26283,
				"method": "rhf"
			},
			{
				"type": "occ",
				"energy": -0.25069,
				"method": "rhf"
			},
			{
				"type": "occ",
				"energy": -0.23215,
				"method": "rhf"
			},
			{
				"type": "unocc",
				"energy": -0.07144,
				"method": "rhf"
			},
			{
				"type": "unocc",
				"energy": -0.06161,
				"method": "rhf"
			},
			{
				"type": "unocc",
				"energy": -0.04225,
				"method": "rhf"
			},
			{
				"type": "unocc",
				"energy": -0.0257,
				"method": "rhf"
			},
			{
				"type": "unocc",
				"energy": -0.01818,
				"method": "rhf"
			}
		],
		"cosmo_sigma_profile": { 
			"-0.025": 0.0,
			"-0.024": 0.0,
			"-0.023": 0.0,
			"-0.022": 0.0,
			"-0.021": 0.0,
			"-0.02": 0.0,
			"-0.019": 0.0,
			"-0.018": 0.0,
			"-0.017": 0.0,
			"-0.016": 0.0,
			"-0.015": 0.0,
			"-0.014": 0.0,
			"-0.013": 0.0,
			"-0.012": 0.0,
			"-0.011": 0.0,
			"-0.01": 1.07214469968,
			"-0.009": 2.58544568692,
			"-0.008": 4.7069663447,
			"-0.007": 17.8798701218,
			"-0.006": 31.7489056428,
			"-0.005": 31.0950801809,
			"-0.004": 30.2249715767,
			"-0.003": 29.044291554,
			"-0.002": 27.4581075056,
			"-0.001": 26.8386152767,
			"0.0": 26.3545491675,
			"0.001": 37.7696463771,
			"0.002": 48.4813105466,
			"0.003": 34.2167133299,
			"0.004": 10.8242034057,
			"0.005": 8.96013359373,
			"0.006": 9.96636186174,
			"0.007": 6.92536025682,
			"0.008": 7.15108236219,
			"0.009": 9.19632386756,
			"0.01": 11.7790196866,
			"0.011": 11.0386702353,
			"0.012": 1.69191578233,
			"0.013": 0.0257154350796,
			"0.014": 0.0,
			"0.015": 0.0,
			"0.016": 0.0,
			"0.017": 0.0,
			"0.018": 0.0,
			"0.019": 0.0,
			"0.02": 0.0,
			"0.021": 0.0,
			"0.022": 0.0,
			"0.023": 0.0,
			"0.024": 0.0,
			"0.025": 0.0
		}
	}
}
