{
	 "smiles": "CC1CCCN1CC(O)=O", 
	 "Tm": 441.15, 
	 "num_atms": 23, 
	 "gaussian": { 
		 "optdone": 1, 
		 "sigma_profile": "yes", 
		 "theory": "DFT", 
		 "functional": "B3LYP", 
		 "basiset": "6-31G**", 
		 "properties": { 
			 "R2extent": 2157.6696, 
			 "electric_dipole_moment_norm": 4.82139738458, 
			 "electric_quadrupole_moment_norm": 20.2010807345, 
			 "total_energy": -479.776649024, 
			 "HOMO_LUMO_gap": 0.23275, 
			 "cosmo_polarized_energy": -13.97, 
			 "cosmo_cavitation_energy": 24.55, 
			 "cosmo_dispersion_energy": -17.96, 
			 "cosmo_repulsion_energy": 1.47, 
			 "cosmo_total_nonelectrostatic_energy": 8.06, 
			 "SMD_solvation_energy": 2.77 
		},
		"coords": [
			{
				"x": -2.0691922701,
				"y": 0.4537060602,
				"z": -1.3062756207,
				"element": "C" 
			},
			{
				"x": -0.9056120172,
				"y": 0.2435823973,
				"z": -0.3409754943,
				"element": "C" 
			},
			{
				"x": -1.106484731,
				"y": -0.950653615,
				"z": 0.6107446091,
				"element": "C" 
			},
			{
				"x": 0.3228582641,
				"y": -1.4437167754,
				"z": 0.9507411751,
				"element": "C" 
			},
			{
				"x": 1.2443670071,
				"y": -0.6167694436,
				"z": 0.0306230091,
				"element": "C" 
			},
			{
				"x": 0.3594458721,
				"y": -0.1022399456,
				"z": -1.0179931869,
				"element": "N" 
			},
			{
				"x": 0.9328789855,
				"y": 0.977526972,
				"z": -1.8074640728,
				"element": "C" 
			},
			{
				"x": 2.069880333,
				"y": 0.4793308997,
				"z": -2.7078033667,
				"element": "C" 
			},
			{
				"x": 3.3002508691,
				"y": 0.4074693039,
				"z": -2.1253330449,
				"element": "O" 
			},
			{
				"x": 1.9251432497,
				"y": 0.1572941337,
				"z": -3.8580706621,
				"element": "O" 
			},
			{
				"x": -1.9392877298,
				"y": 1.3408192752,
				"z": -1.9339170807,
				"element": "H" 
			},
			{
				"x": -3.0001362222,
				"y": 0.5882727545,
				"z": -0.7459560268,
				"element": "H" 
			},
			{
				"x": -2.1780588588,
				"y": -0.4169309654,
				"z": -1.96041945,
				"element": "H" 
			},
			{
				"x": -0.7704463923,
				"y": 1.1644007611,
				"z": 0.264569555,
				"element": "H" 
			},
			{
				"x": -1.6814113801,
				"y": -0.6631531817,
				"z": 1.4954764398,
				"element": "H" 
			},
			{
				"x": -1.6682322966,
				"y": -1.7349360756,
				"z": 0.0934199278,
				"element": "H" 
			},
			{
				"x": 0.4261612644,
				"y": -2.5127672794,
				"z": 0.7488807217,
				"element": "H" 
			},
			{
				"x": 0.5791302206,
				"y": -1.2860520272,
				"z": 2.0018030471,
				"element": "H" 
			},
			{
				"x": 1.7048281138,
				"y": 0.2156520514,
				"z": 0.6068153455,
				"element": "H" 
			},
			{
				"x": 2.0568503644,
				"y": -1.2089983178,
				"z": -0.4003643884,
				"element": "H" 
			},
			{
				"x": 0.1724694566,
				"y": 1.3766777453,
				"z": -2.479280581,
				"element": "H" 
			},
			{
				"x": 1.2966324107,
				"y": 1.8124528236,
				"z": -1.168252254,
				"element": "H" 
			},
			{
				"x": 3.2543654871,
				"y": 0.7286324489,
				"z": -1.213668601,
				"element": "H" 
			}
		],
		 "valence_orbital": [ 
			{
				"type": "occ",
				"energy": -0.33658,
				"method": "rhf"
			},
			{
				"type": "occ",
				"energy": -0.32831,
				"method": "rhf"
			},
			{
				"type": "occ",
				"energy": -0.31285,
				"method": "rhf"
			},
			{
				"type": "occ",
				"energy": -0.27068,
				"method": "rhf"
			},
			{
				"type": "occ",
				"energy": -0.22787,
				"method": "rhf"
			},
			{
				"type": "unocc",
				"energy": 0.00488,
				"method": "rhf"
			},
			{
				"type": "unocc",
				"energy": 0.0523,
				"method": "rhf"
			},
			{
				"type": "unocc",
				"energy": 0.08524,
				"method": "rhf"
			},
			{
				"type": "unocc",
				"energy": 0.09646,
				"method": "rhf"
			},
			{
				"type": "unocc",
				"energy": 0.10049,
				"method": "rhf"
			}
		],
		"cosmo_sigma_profile": { 
			"-0.025": 0.0,
			"-0.024": 0.0,
			"-0.023": 0.0,
			"-0.022": 0.0,
			"-0.021": 0.0,
			"-0.02": 0.0,
			"-0.019": 0.0,
			"-0.018": 0.024560654949,
			"-0.017": 0.728573124113,
			"-0.016": 1.18743521496,
			"-0.015": 0.725062149206,
			"-0.014": 1.03077322782,
			"-0.013": 1.44144739718,
			"-0.012": 1.18111986428,
			"-0.011": 1.07669317434,
			"-0.01": 1.19883597373,
			"-0.009": 0.728635762789,
			"-0.008": 1.46383374049,
			"-0.007": 2.042407955,
			"-0.006": 4.36820530238,
			"-0.005": 5.72536819969,
			"-0.004": 10.0056934144,
			"-0.003": 21.577397465,
			"-0.002": 31.3863675886,
			"-0.001": 25.8385017837,
			"0.0": 19.2763633618,
			"0.001": 12.6048327951,
			"0.002": 4.27558004009,
			"0.003": 2.42306340797,
			"0.004": 1.97924740404,
			"0.005": 3.44089600313,
			"0.006": 3.27693919291,
			"0.007": 2.26917071874,
			"0.008": 4.10246302551,
			"0.009": 4.70724027663,
			"0.01": 5.6930033735,
			"0.011": 6.43164909839,
			"0.012": 5.57475483848,
			"0.013": 1.99635932791,
			"0.014": 0.401855564133,
			"0.015": 0.101264779999,
			"0.016": 0.0,
			"0.017": 0.0,
			"0.018": 0.0,
			"0.019": 0.0,
			"0.02": 0.0,
			"0.021": 0.0,
			"0.022": 0.0,
			"0.023": 0.0,
			"0.024": 0.0,
			"0.025": 0.0
		}
	}
}
