{
	 "smiles": "CC1=C(C)C2=C(N=CN=C2N)N1C1=CC=C(Cl)C=C1", 
	 "Tm": 523.15, 
	 "num_atms": 32, 
	 "gaussian": { 
		 "optdone": 1, 
		 "sigma_profile": "yes", 
		 "theory": "DFT", 
		 "functional": "B3LYP", 
		 "basiset": "6-31G**", 
		 "properties": { 
			 "R2extent": 6763.4286, 
			 "electric_dipole_moment_norm": 4.63940239363, 
			 "electric_quadrupole_moment_norm": 11.626429885, 
			 "total_energy": -1220.55429259, 
			 "HOMO_LUMO_gap": 0.17313, 
			 "cosmo_polarized_energy": -14.69, 
			 "cosmo_cavitation_energy": 37.11, 
			 "cosmo_dispersion_energy": -26.83, 
			 "cosmo_repulsion_energy": 2.06, 
			 "cosmo_total_nonelectrostatic_energy": 12.33, 
			 "SMD_solvation_energy": 3.28 
		},
		"coords": [
			{
				"x": -2.2054198471,
				"y": -1.1692427941,
				"z": -1.2538375784,
				"element": "C" 
			},
			{
				"x": -0.9078405269,
				"y": -0.4583606417,
				"z": -1.4775135886,
				"element": "C" 
			},
			{
				"x": -0.4192479998,
				"y": 0.1221716818,
				"z": -2.6265544159,
				"element": "C" 
			},
			{
				"x": -1.0688014119,
				"y": 0.1340560493,
				"z": -3.9802446173,
				"element": "C" 
			},
			{
				"x": 0.8386919152,
				"y": 0.7323360851,
				"z": -2.2771191552,
				"element": "C" 
			},
			{
				"x": 1.0636865181,
				"y": 0.497456635,
				"z": -0.9071136604,
				"element": "C" 
			},
			{
				"x": 2.1263981255,
				"y": 0.8972709453,
				"z": -0.1962508206,
				"element": "N" 
			},
			{
				"x": 3.0046457943,
				"y": 1.5775658718,
				"z": -0.9319834634,
				"element": "C" 
			},
			{
				"x": 2.9323152296,
				"y": 1.8875274134,
				"z": -2.2360776865,
				"element": "N" 
			},
			{
				"x": 1.8571609867,
				"y": 1.4695979043,
				"z": -2.923143076,
				"element": "C" 
			},
			{
				"x": 1.8352530101,
				"y": 1.7617282142,
				"z": -4.263429551,
				"element": "N" 
			},
			{
				"x": -0.0012961279,
				"y": -0.2384286582,
				"z": -0.420270342,
				"element": "N" 
			},
			{
				"x": -0.124283491,
				"y": -0.6940088526,
				"z": 0.9226207254,
				"element": "C" 
			},
			{
				"x": -0.3295923791,
				"y": -2.0506928632,
				"z": 1.1961669666,
				"element": "C" 
			},
			{
				"x": -0.4606735124,
				"y": -2.4938506629,
				"z": 2.5114165774,
				"element": "C" 
			},
			{
				"x": -0.3600771293,
				"y": -1.5732109876,
				"z": 3.5530437675,
				"element": "C" 
			},
			{
				"x": -0.5175888175,
				"y": -2.1261080702,
				"z": 5.2137893019,
				"element": "Cl" 
			},
			{
				"x": -0.1303807813,
				"y": -0.2212116358,
				"z": 3.2977389967,
				"element": "C" 
			},
			{
				"x": -0.0188242158,
				"y": 0.216869959,
				"z": 1.9803929299,
				"element": "C" 
			},
			{
				"x": -2.0909720634,
				"y": -2.2568103131,
				"z": -1.1745093758,
				"element": "H" 
			},
			{
				"x": -2.6932192292,
				"y": -0.8291688474,
				"z": -0.3344339785,
				"element": "H" 
			},
			{
				"x": -2.8864070241,
				"y": -0.9730494484,
				"z": -2.0843600189,
				"element": "H" 
			},
			{
				"x": -0.4068404779,
				"y": -0.2888149928,
				"z": -4.7457805502,
				"element": "H" 
			},
			{
				"x": -1.989865621,
				"y": -0.4535958362,
				"z": -3.9949565167,
				"element": "H" 
			},
			{
				"x": -1.3347866561,
				"y": 1.1511261008,
				"z": -4.2993400295,
				"element": "H" 
			},
			{
				"x": 3.8928216228,
				"y": 1.9336041549,
				"z": -0.4132491557,
				"element": "H" 
			},
			{
				"x": 0.9514370554,
				"y": 1.7703339775,
				"z": -4.7459513442,
				"element": "H" 
			},
			{
				"x": 2.5192547689,
				"y": 2.4433725974,
				"z": -4.5588385675,
				"element": "H" 
			},
			{
				"x": -0.3682862398,
				"y": -2.7651665844,
				"z": 0.3813321729,
				"element": "H" 
			},
			{
				"x": -0.6226819165,
				"y": -3.5442362799,
				"z": 2.7256118048,
				"element": "H" 
			},
			{
				"x": -0.0467145374,
				"y": 0.4809583803,
				"z": 4.1195379363,
				"element": "H" 
			},
			{
				"x": 0.1625349785,
				"y": 1.2634814984,
				"z": 1.7676063128,
				"element": "H" 
			}
		],
		 "valence_orbital": [ 
			{
				"type": "occ",
				"energy": -0.26621,
				"method": "rhf"
			},
			{
				"type": "occ",
				"energy": -0.25622,
				"method": "rhf"
			},
			{
				"type": "occ",
				"energy": -0.24433,
				"method": "rhf"
			},
			{
				"type": "occ",
				"energy": -0.23227,
				"method": "rhf"
			},
			{
				"type": "occ",
				"energy": -0.19726,
				"method": "rhf"
			},
			{
				"type": "unocc",
				"energy": -0.02413,
				"method": "rhf"
			},
			{
				"type": "unocc",
				"energy": -0.01796,
				"method": "rhf"
			},
			{
				"type": "unocc",
				"energy": -0.0088,
				"method": "rhf"
			},
			{
				"type": "unocc",
				"energy": 0.01685,
				"method": "rhf"
			},
			{
				"type": "unocc",
				"energy": 0.02805,
				"method": "rhf"
			}
		],
		"cosmo_sigma_profile": { 
			"-0.025": 0.0,
			"-0.024": 0.0,
			"-0.023": 0.0,
			"-0.022": 0.0,
			"-0.021": 0.0,
			"-0.02": 0.0,
			"-0.019": 0.0,
			"-0.018": 0.0,
			"-0.017": 0.0,
			"-0.016": 0.0,
			"-0.015": 0.0,
			"-0.014": 0.0,
			"-0.013": 0.745252171404,
			"-0.012": 2.0287731212,
			"-0.011": 2.48000307272,
			"-0.01": 2.40683216714,
			"-0.009": 2.42996084024,
			"-0.008": 4.54765206715,
			"-0.007": 9.7767695707,
			"-0.006": 14.1383763209,
			"-0.005": 15.8804685031,
			"-0.004": 16.9687347918,
			"-0.003": 19.0624857669,
			"-0.002": 19.4608982916,
			"-0.001": 23.8825020636,
			"0.0": 25.9833469033,
			"0.001": 25.8784446918,
			"0.002": 28.5937700785,
			"0.003": 26.3736949838,
			"0.004": 18.7507274855,
			"0.005": 12.2464201876,
			"0.006": 4.10260009157,
			"0.007": 3.39648262843,
			"0.008": 3.95373875077,
			"0.009": 3.35247249488,
			"0.01": 2.80231045895,
			"0.011": 2.2234541787,
			"0.012": 2.0329566333,
			"0.013": 1.51325029759,
			"0.014": 1.61311630351,
			"0.015": 1.57471365064,
			"0.016": 0.472922152163,
			"0.017": 0.0165802634974,
			"0.018": 0.0,
			"0.019": 0.0,
			"0.02": 0.0,
			"0.021": 0.0,
			"0.022": 0.0,
			"0.023": 0.0,
			"0.024": 0.0,
			"0.025": 0.0
		}
	}
}
