{
	 "smiles": "CC(C)COC(=O)NC1=CC(N)=CC=C1", 
	 "Tm": 366.15, 
	 "num_atms": 31, 
	 "gaussian": { 
		 "optdone": 1, 
		 "sigma_profile": "yes", 
		 "theory": "DFT", 
		 "functional": "B3LYP", 
		 "basiset": "6-31G**", 
		 "properties": { 
			 "R2extent": 4736.5064, 
			 "electric_dipole_moment_norm": 3.05712330468, 
			 "electric_quadrupole_moment_norm": 12.867237348, 
			 "total_energy": -688.802396264, 
			 "HOMO_LUMO_gap": 0.19925, 
			 "cosmo_polarized_energy": -14.24, 
			 "cosmo_cavitation_energy": 34.3, 
			 "cosmo_dispersion_energy": -23.57, 
			 "cosmo_repulsion_energy": 1.86, 
			 "cosmo_total_nonelectrostatic_energy": 12.59, 
			 "SMD_solvation_energy": 6.9 
		},
		"coords": [
			{
				"x": -0.5082129777,
				"y": -0.2766752769,
				"z": -2.5943468165,
				"element": "C" 
			},
			{
				"x": -0.6720327758,
				"y": -1.7921151492,
				"z": -2.40348286,
				"element": "C" 
			},
			{
				"x": 0.6481496703,
				"y": -2.4666597004,
				"z": -2.0010195969,
				"element": "C" 
			},
			{
				"x": -1.8058720354,
				"y": -2.1293673601,
				"z": -1.4374074398,
				"element": "C" 
			},
			{
				"x": -1.4727478153,
				"y": -1.6099342203,
				"z": -0.1273757101,
				"element": "O" 
			},
			{
				"x": -2.3982744892,
				"y": -1.8525844908,
				"z": 0.826448456,
				"element": "C" 
			},
			{
				"x": -3.4452918464,
				"y": -2.4446816536,
				"z": 0.6300810022,
				"element": "O" 
			},
			{
				"x": -2.0601951113,
				"y": -1.3664008577,
				"z": 2.069410555,
				"element": "N" 
			},
			{
				"x": -0.9427992733,
				"y": -0.6861808363,
				"z": 2.5974138478,
				"element": "C" 
			},
			{
				"x": 0.1391385202,
				"y": -0.2405315028,
				"z": 1.8319612233,
				"element": "C" 
			},
			{
				"x": 1.2077985275,
				"y": 0.436090139,
				"z": 2.4438826535,
				"element": "C" 
			},
			{
				"x": 2.3096221531,
				"y": 0.8237424827,
				"z": 1.6781672367,
				"element": "N" 
			},
			{
				"x": 1.1849722824,
				"y": 0.6703263604,
				"z": 3.828244365,
				"element": "C" 
			},
			{
				"x": 0.1003990899,
				"y": 0.2253434292,
				"z": 4.5791633498,
				"element": "C" 
			},
			{
				"x": -0.9611795163,
				"y": -0.4481280247,
				"z": 3.983522503,
				"element": "C" 
			},
			{
				"x": 0.2610766819,
				"y": -0.0601407728,
				"z": -3.3426664799,
				"element": "H" 
			},
			{
				"x": -0.2146430423,
				"y": 0.209795809,
				"z": -1.6586306394,
				"element": "H" 
			},
			{
				"x": -1.4427165105,
				"y": 0.1862503519,
				"z": -2.9295130219,
				"element": "H" 
			},
			{
				"x": -0.9903125395,
				"y": -2.2194388881,
				"z": -3.3658584443,
				"element": "H" 
			},
			{
				"x": 1.0027491983,
				"y": -2.097526924,
				"z": -1.033694189,
				"element": "H" 
			},
			{
				"x": 0.5305745221,
				"y": -3.5526063938,
				"z": -1.9188642095,
				"element": "H" 
			},
			{
				"x": 1.4276098748,
				"y": -2.2693604018,
				"z": -2.7441266311,
				"element": "H" 
			},
			{
				"x": -2.7530746955,
				"y": -1.6853707189,
				"z": -1.7594241177,
				"element": "H" 
			},
			{
				"x": -1.9545400211,
				"y": -3.2106893713,
				"z": -1.356881325,
				"element": "H" 
			},
			{
				"x": -2.7836651998,
				"y": -1.5913771888,
				"z": 2.7375196673,
				"element": "H" 
			},
			{
				"x": 0.159388686,
				"y": -0.4205779729,
				"z": 0.7667228363,
				"element": "H" 
			},
			{
				"x": 2.1246790695,
				"y": 0.9504073349,
				"z": 0.6927141824,
				"element": "H" 
			},
			{
				"x": 2.8492958179,
				"y": 1.5874432935,
				"z": 2.0613125855,
				"element": "H" 
			},
			{
				"x": 2.0116561816,
				"y": 1.1899083746,
				"z": 4.3047884227,
				"element": "H" 
			},
			{
				"x": 0.0806912668,
				"y": 0.4075825903,
				"z": 5.6499916521,
				"element": "H" 
			},
			{
				"x": -1.8006436929,
				"y": -0.7906424604,
				"z": 4.5823469426,
				"element": "H" 
			}
		],
		 "valence_orbital": [ 
			{
				"type": "occ",
				"energy": -0.29608,
				"method": "rhf"
			},
			{
				"type": "occ",
				"energy": -0.28395,
				"method": "rhf"
			},
			{
				"type": "occ",
				"energy": -0.27308,
				"method": "rhf"
			},
			{
				"type": "occ",
				"energy": -0.22025,
				"method": "rhf"
			},
			{
				"type": "occ",
				"energy": -0.19762,
				"method": "rhf"
			},
			{
				"type": "unocc",
				"energy": 0.00163,
				"method": "rhf"
			},
			{
				"type": "unocc",
				"energy": 0.01696,
				"method": "rhf"
			},
			{
				"type": "unocc",
				"energy": 0.06365,
				"method": "rhf"
			},
			{
				"type": "unocc",
				"energy": 0.06948,
				"method": "rhf"
			},
			{
				"type": "unocc",
				"energy": 0.08444,
				"method": "rhf"
			}
		],
		"cosmo_sigma_profile": { 
			"-0.025": 0.0,
			"-0.024": 0.0,
			"-0.023": 0.0,
			"-0.022": 0.0,
			"-0.021": 0.0,
			"-0.02": 0.0,
			"-0.019": 0.0,
			"-0.018": 0.0,
			"-0.017": 0.0,
			"-0.016": 0.0,
			"-0.015": 0.136435559378,
			"-0.014": 1.04170598612,
			"-0.013": 1.35498897322,
			"-0.012": 2.27623366285,
			"-0.011": 3.43709546701,
			"-0.01": 3.3785846941,
			"-0.009": 4.51829040535,
			"-0.008": 4.12633145323,
			"-0.007": 3.72147444237,
			"-0.006": 6.17655153473,
			"-0.005": 10.1861604712,
			"-0.004": 17.4546169517,
			"-0.003": 27.5785997309,
			"-0.002": 24.4319562541,
			"-0.001": 25.5234485696,
			"0.0": 22.4843996091,
			"0.001": 23.7067217323,
			"0.002": 15.8678962374,
			"0.003": 11.428279154,
			"0.004": 10.4478622501,
			"0.005": 8.78175637532,
			"0.006": 12.2753063579,
			"0.007": 8.3987239459,
			"0.008": 2.42204925917,
			"0.009": 1.87918709791,
			"0.01": 2.52647996527,
			"0.011": 2.26680768823,
			"0.012": 3.29064979039,
			"0.013": 6.45191089367,
			"0.014": 1.4294816491,
			"0.015": 0.223760552371,
			"0.016": 0.0,
			"0.017": 0.0,
			"0.018": 0.0,
			"0.019": 0.0,
			"0.02": 0.0,
			"0.021": 0.0,
			"0.022": 0.0,
			"0.023": 0.0,
			"0.024": 0.0,
			"0.025": 0.0
		}
	}
}
