{
	 "smiles": "CCOC(=O)COC1=CC=C(C=C1)C#N", 
	 "Tm": 328.15, 
	 "num_atms": 26, 
	 "gaussian": { 
		 "optdone": 1, 
		 "sigma_profile": "yes", 
		 "theory": "DFT", 
		 "functional": "B3LYP", 
		 "basiset": "6-31G**", 
		 "properties": { 
			 "R2extent": 5738.0755, 
			 "electric_dipole_moment_norm": 4.98449827064, 
			 "electric_quadrupole_moment_norm": 34.8727376971, 
			 "total_energy": -706.20677691, 
			 "HOMO_LUMO_gap": 0.19979, 
			 "cosmo_polarized_energy": -14.77, 
			 "cosmo_cavitation_energy": 32.11, 
			 "cosmo_dispersion_energy": -21.74, 
			 "cosmo_repulsion_energy": 1.76, 
			 "cosmo_total_nonelectrostatic_energy": 12.13, 
			 "SMD_solvation_energy": 8.3 
		},
		"coords": [
			{
				"x": 1.2882868332,
				"y": 0.9155141934,
				"z": 2.3302633782,
				"element": "C" 
			},
			{
				"x": 0.8725249144,
				"y": 1.1700520472,
				"z": 0.8950847549,
				"element": "C" 
			},
			{
				"x": 0.5918954029,
				"y": -0.1191405828,
				"z": 0.2883424491,
				"element": "O" 
			},
			{
				"x": 0.17389447,
				"y": -0.0887085739,
				"z": -0.9814996704,
				"element": "C" 
			},
			{
				"x": 0.0372967847,
				"y": 0.9115140284,
				"z": -1.6524650876,
				"element": "O" 
			},
			{
				"x": -0.0776474211,
				"y": -1.4872464876,
				"z": -1.5484254392,
				"element": "C" 
			},
			{
				"x": -0.3248694056,
				"y": -2.5000308047,
				"z": -0.5909517982,
				"element": "O" 
			},
			{
				"x": -1.5158864291,
				"y": -2.5052126383,
				"z": 0.070769798,
				"element": "C" 
			},
			{
				"x": -2.5352298968,
				"y": -1.5602777017,
				"z": -0.1118363365,
				"element": "C" 
			},
			{
				"x": -3.7174275824,
				"y": -1.6756668058,
				"z": 0.6157558703,
				"element": "C" 
			},
			{
				"x": -3.8981954478,
				"y": -2.7252346548,
				"z": 1.528320251,
				"element": "C" 
			},
			{
				"x": -2.8665282867,
				"y": -3.6683148923,
				"z": 1.7048675172,
				"element": "C" 
			},
			{
				"x": -1.6895454223,
				"y": -3.5581608924,
				"z": 0.9833948399,
				"element": "C" 
			},
			{
				"x": -5.1156108217,
				"y": -2.8352100249,
				"z": 2.273835674,
				"element": "C" 
			},
			{
				"x": -6.1043479168,
				"y": -2.9251625474,
				"z": 2.8812005546,
				"element": "N" 
			},
			{
				"x": 0.4899165547,
				"y": 0.4158260683,
				"z": 2.8857686445,
				"element": "H" 
			},
			{
				"x": 2.1838616607,
				"y": 0.2894356321,
				"z": 2.3736369745,
				"element": "H" 
			},
			{
				"x": 1.5087566031,
				"y": 1.8669947008,
				"z": 2.8238447662,
				"element": "H" 
			},
			{
				"x": 1.6589781917,
				"y": 1.6623780208,
				"z": 0.3150332145,
				"element": "H" 
			},
			{
				"x": -0.0270236844,
				"y": 1.7890611374,
				"z": 0.8265954413,
				"element": "H" 
			},
			{
				"x": 0.8304052948,
				"y": -1.7993851143,
				"z": -2.0732377162,
				"element": "H" 
			},
			{
				"x": -0.8818036497,
				"y": -1.4096477569,
				"z": -2.2879462479,
				"element": "H" 
			},
			{
				"x": -2.4234499553,
				"y": -0.7351579888,
				"z": -0.8052095967,
				"element": "H" 
			},
			{
				"x": -4.5074057531,
				"y": -0.9451786175,
				"z": 0.4768155646,
				"element": "H" 
			},
			{
				"x": -2.9996804697,
				"y": -4.4825420658,
				"z": 2.4092328762,
				"element": "H" 
			},
			{
				"x": -0.8850645679,
				"y": -4.2750976785,
				"z": 1.1057093237,
				"element": "H" 
			}
		],
		 "valence_orbital": [ 
			{
				"type": "occ",
				"energy": -0.32539,
				"method": "rhf"
			},
			{
				"type": "occ",
				"energy": -0.31734,
				"method": "rhf"
			},
			{
				"type": "occ",
				"energy": -0.28818,
				"method": "rhf"
			},
			{
				"type": "occ",
				"energy": -0.27823,
				"method": "rhf"
			},
			{
				"type": "occ",
				"energy": -0.24145,
				"method": "rhf"
			},
			{
				"type": "unocc",
				"energy": -0.04166,
				"method": "rhf"
			},
			{
				"type": "unocc",
				"energy": -0.02849,
				"method": "rhf"
			},
			{
				"type": "unocc",
				"energy": -0.00702,
				"method": "rhf"
			},
			{
				"type": "unocc",
				"energy": 0.04048,
				"method": "rhf"
			},
			{
				"type": "unocc",
				"energy": 0.07243,
				"method": "rhf"
			}
		],
		"cosmo_sigma_profile": { 
			"-0.025": 0.0,
			"-0.024": 0.0,
			"-0.023": 0.0,
			"-0.022": 0.0,
			"-0.021": 0.0,
			"-0.02": 0.0,
			"-0.019": 0.0,
			"-0.018": 0.0,
			"-0.017": 0.0,
			"-0.016": 0.0,
			"-0.015": 0.0,
			"-0.014": 0.0,
			"-0.013": 0.0,
			"-0.012": 0.0,
			"-0.011": 0.0,
			"-0.01": 0.631266422965,
			"-0.009": 3.59479190722,
			"-0.008": 9.09118724019,
			"-0.007": 12.3434913333,
			"-0.006": 14.2103692008,
			"-0.005": 17.8809088962,
			"-0.004": 21.3255126032,
			"-0.003": 19.8713549804,
			"-0.002": 16.5913428194,
			"-0.001": 18.3098783189,
			"0.0": 17.9472506405,
			"0.001": 16.9026542006,
			"0.002": 19.3998994609,
			"0.003": 10.8048467252,
			"0.004": 6.16185641796,
			"0.005": 5.02080986008,
			"0.006": 6.48770977827,
			"0.007": 5.39709828158,
			"0.008": 7.63413732474,
			"0.009": 6.12954915695,
			"0.01": 5.23337713532,
			"0.011": 7.4147834537,
			"0.012": 5.87492123497,
			"0.013": 2.09978955919,
			"0.014": 0.321891786546,
			"0.015": 0.0,
			"0.016": 0.0,
			"0.017": 0.0,
			"0.018": 0.0,
			"0.019": 0.0,
			"0.02": 0.0,
			"0.021": 0.0,
			"0.022": 0.0,
			"0.023": 0.0,
			"0.024": 0.0,
			"0.025": 0.0
		}
	}
}
