{
	 "smiles": "O=C(C(=O)C1=CC=C2CCC3=C2C1=CC=C3)C1=CC=CC=C1", 
	 "Tm": 421.15, 
	 "num_atms": 36, 
	 "gaussian": { 
		 "optdone": 1, 
		 "sigma_profile": "yes", 
		 "theory": "DFT", 
		 "functional": "B3LYP", 
		 "basiset": "6-31G**", 
		 "properties": { 
			 "R2extent": 8632.3543, 
			 "electric_dipole_moment_norm": 3.79669023361, 
			 "electric_quadrupole_moment_norm": 20.7696610514, 
			 "total_energy": -921.021458867, 
			 "HOMO_LUMO_gap": 0.13782, 
			 "cosmo_polarized_energy": -11.85, 
			 "cosmo_cavitation_energy": 39.62, 
			 "cosmo_dispersion_energy": -28.87, 
			 "cosmo_repulsion_energy": 2.16, 
			 "cosmo_total_nonelectrostatic_energy": 12.91, 
			 "SMD_solvation_energy": 6.59 
		},
		"coords": [
			{
				"x": 2.2413018921,
				"y": 2.4308870818,
				"z": -0.1680156099,
				"element": "O" 
			},
			{
				"x": 2.4586357166,
				"y": 1.3974468076,
				"z": -0.7868671248,
				"element": "C" 
			},
			{
				"x": 1.2633718672,
				"y": 0.4936124247,
				"z": -1.1625056181,
				"element": "C" 
			},
			{
				"x": 1.1225734248,
				"y": 0.2736686195,
				"z": -2.3632487837,
				"element": "O" 
			},
			{
				"x": 0.3463503297,
				"y": 0.0114735605,
				"z": -0.1097363073,
				"element": "C" 
			},
			{
				"x": 0.6594799535,
				"y": 0.2436488447,
				"z": 1.2334620434,
				"element": "C" 
			},
			{
				"x": -0.1283547835,
				"y": -0.2218238055,
				"z": 2.309110981,
				"element": "C" 
			},
			{
				"x": -1.2699026287,
				"y": -0.9415102375,
				"z": 2.0267461234,
				"element": "C" 
			},
			{
				"x": -2.315146774,
				"y": -1.5666606481,
				"z": 2.9283421592,
				"element": "C" 
			},
			{
				"x": -3.3419363087,
				"y": -2.2323039494,
				"z": 1.9523594474,
				"element": "C" 
			},
			{
				"x": -2.8046075406,
				"y": -1.9334371733,
				"z": 0.5646039832,
				"element": "C" 
			},
			{
				"x": -1.6091005195,
				"y": -1.1877548881,
				"z": 0.6775659578,
				"element": "C" 
			},
			{
				"x": -0.8453246849,
				"y": -0.7408020815,
				"z": -0.4294485588,
				"element": "C" 
			},
			{
				"x": -1.3554407071,
				"y": -1.0872358009,
				"z": -1.7105989072,
				"element": "C" 
			},
			{
				"x": -2.5287330752,
				"y": -1.8184686927,
				"z": -1.8172380819,
				"element": "C" 
			},
			{
				"x": -3.2717895078,
				"y": -2.2541275262,
				"z": -0.6907355103,
				"element": "C" 
			},
			{
				"x": 3.8203135526,
				"y": 1.0343229411,
				"z": -1.2734872026,
				"element": "C" 
			},
			{
				"x": 4.8700086112,
				"y": 1.9222970954,
				"z": -0.9828905436,
				"element": "C" 
			},
			{
				"x": 6.1716027155,
				"y": 1.6246940208,
				"z": -1.3715216204,
				"element": "C" 
			},
			{
				"x": 6.4405778778,
				"y": 0.4327377064,
				"z": -2.0523164348,
				"element": "C" 
			},
			{
				"x": 5.403916978,
				"y": -0.4564560511,
				"z": -2.3432755369,
				"element": "C" 
			},
			{
				"x": 4.097085004,
				"y": -0.1603399343,
				"z": -1.9581017664,
				"element": "C" 
			},
			{
				"x": 1.5438735902,
				"y": 0.8230076766,
				"z": 1.4683329332,
				"element": "H" 
			},
			{
				"x": 0.1742541998,
				"y": -0.0030606216,
				"z": 3.3289823094,
				"element": "H" 
			},
			{
				"x": -2.7907345601,
				"y": -0.8107297121,
				"z": 3.5636316522,
				"element": "H" 
			},
			{
				"x": -1.8649378862,
				"y": -2.3004162394,
				"z": 3.606717229,
				"element": "H" 
			},
			{
				"x": -4.3490066776,
				"y": -1.8224487404,
				"z": 2.0893185418,
				"element": "H" 
			},
			{
				"x": -3.420085123,
				"y": -3.3113057451,
				"z": 2.1277517376,
				"element": "H" 
			},
			{
				"x": -0.8215871194,
				"y": -0.7760729559,
				"z": -2.5971145448,
				"element": "H" 
			},
			{
				"x": -2.8957474287,
				"y": -2.0678318233,
				"z": -2.8093700862,
				"element": "H" 
			},
			{
				"x": -4.1859007559,
				"y": -2.8245188682,
				"z": -0.831950242,
				"element": "H" 
			},
			{
				"x": 4.635398719,
				"y": 2.8379458623,
				"z": -0.4502040403,
				"element": "H" 
			},
			{
				"x": 6.9778164028,
				"y": 2.3164884826,
				"z": -1.1455038911,
				"element": "H" 
			},
			{
				"x": 7.4571624082,
				"y": 0.1985042309,
				"z": -2.3557243286,
				"element": "H" 
			},
			{
				"x": 5.612539284,
				"y": -1.3799756231,
				"z": -2.8751491306,
				"element": "H" 
			},
			{
				"x": 3.293573554,
				"y": -0.844254237,
				"z": -2.2038212281,
				"element": "H" 
			}
		],
		 "valence_orbital": [ 
			{
				"type": "occ",
				"energy": -0.26005,
				"method": "rhf"
			},
			{
				"type": "occ",
				"energy": -0.25754,
				"method": "rhf"
			},
			{
				"type": "occ",
				"energy": -0.24942,
				"method": "rhf"
			},
			{
				"type": "occ",
				"energy": -0.22777,
				"method": "rhf"
			},
			{
				"type": "occ",
				"energy": -0.21532,
				"method": "rhf"
			},
			{
				"type": "unocc",
				"energy": -0.0775,
				"method": "rhf"
			},
			{
				"type": "unocc",
				"energy": -0.057,
				"method": "rhf"
			},
			{
				"type": "unocc",
				"energy": -0.01583,
				"method": "rhf"
			},
			{
				"type": "unocc",
				"energy": -0.00989,
				"method": "rhf"
			},
			{
				"type": "unocc",
				"energy": -0.00396,
				"method": "rhf"
			}
		],
		"cosmo_sigma_profile": { 
			"-0.025": 0.0,
			"-0.024": 0.0,
			"-0.023": 0.0,
			"-0.022": 0.0,
			"-0.021": 0.0,
			"-0.02": 0.0,
			"-0.019": 0.0,
			"-0.018": 0.0,
			"-0.017": 0.0,
			"-0.016": 0.0,
			"-0.015": 0.0,
			"-0.014": 0.0,
			"-0.013": 0.0,
			"-0.012": 0.0,
			"-0.011": 0.0,
			"-0.01": 0.0,
			"-0.009": 0.0,
			"-0.008": 0.0,
			"-0.007": 3.17448804585,
			"-0.006": 16.6644097673,
			"-0.005": 28.3278764177,
			"-0.004": 30.2623004354,
			"-0.003": 29.3205390746,
			"-0.002": 25.2155709586,
			"-0.001": 23.5255022883,
			"0.0": 19.5279474268,
			"0.001": 21.2723779282,
			"0.002": 28.8823874392,
			"0.003": 33.635298926,
			"0.004": 24.2968010964,
			"0.005": 8.66250651466,
			"0.006": 4.24401439461,
			"0.007": 4.3641704902,
			"0.008": 2.17396149792,
			"0.009": 4.26134799511,
			"0.01": 4.63095141906,
			"0.011": 5.09405121607,
			"0.012": 1.07025043481,
			"0.013": 0.0,
			"0.014": 0.0,
			"0.015": 0.0,
			"0.016": 0.0,
			"0.017": 0.0,
			"0.018": 0.0,
			"0.019": 0.0,
			"0.02": 0.0,
			"0.021": 0.0,
			"0.022": 0.0,
			"0.023": 0.0,
			"0.024": 0.0,
			"0.025": 0.0
		}
	}
}
