{
	 "smiles": "OC1=C(Br)C=CC2=C1N=CC=C2", 
	 "Tm": 412.65, 
	 "num_atms": 18, 
	 "gaussian": { 
		 "optdone": 1, 
		 "sigma_profile": "yes", 
		 "theory": "DFT", 
		 "functional": "B3LYP", 
		 "basiset": "6-31G**", 
		 "properties": { 
			 "R2extent": 3523.3232, 
			 "electric_dipole_moment_norm": 4.1428798305, 
			 "electric_quadrupole_moment_norm": 6.93506459811, 
			 "total_energy": -3047.96086224, 
			 "HOMO_LUMO_gap": 0.15438, 
			 "cosmo_polarized_energy": -8.06, 
			 "cosmo_cavitation_energy": 24.34, 
			 "cosmo_dispersion_energy": -18.99, 
			 "cosmo_repulsion_energy": 1.49, 
			 "cosmo_total_nonelectrostatic_energy": 6.83, 
			 "SMD_solvation_energy": 2.39 
		},
		"coords": [
			{
				"x": 0.4197021397,
				"y": -1.671000918,
				"z": 0.0552556656,
				"element": "O" 
			},
			{
				"x": 0.4288592856,
				"y": -0.5205360184,
				"z": -0.6375845828,
				"element": "C" 
			},
			{
				"x": 1.5251780203,
				"y": -0.0854804415,
				"z": -1.3595746391,
				"element": "C" 
			},
			{
				"x": 3.111239897,
				"y": -1.134365823,
				"z": -1.3986510114,
				"element": "Br" 
			},
			{
				"x": 1.484060858,
				"y": 1.1353573109,
				"z": -2.0734738343,
				"element": "C" 
			},
			{
				"x": 0.3570399047,
				"y": 1.927054469,
				"z": -2.0731644549,
				"element": "C" 
			},
			{
				"x": -0.791791164,
				"y": 1.5206276091,
				"z": -1.3460767335,
				"element": "C" 
			},
			{
				"x": -0.7510156274,
				"y": 0.2917301637,
				"z": -0.6273427372,
				"element": "C" 
			},
			{
				"x": -1.7923071692,
				"y": -0.1922854231,
				"z": 0.1009324064,
				"element": "N" 
			},
			{
				"x": -2.9023334569,
				"y": 0.5208745434,
				"z": 0.1412723838,
				"element": "C" 
			},
			{
				"x": -3.0559947677,
				"y": 1.7561617692,
				"z": -0.5337201771,
				"element": "C" 
			},
			{
				"x": -2.0044340717,
				"y": 2.2515420809,
				"z": -1.2731522122,
				"element": "C" 
			},
			{
				"x": -0.4724583522,
				"y": -1.7147449603,
				"z": 0.4570397469,
				"element": "H" 
			},
			{
				"x": 2.3671042559,
				"y": 1.4368969347,
				"z": -2.6258290134,
				"element": "H" 
			},
			{
				"x": 0.3419698755,
				"y": 2.8611938946,
				"z": -2.6262617357,
				"element": "H" 
			},
			{
				"x": -3.7231087142,
				"y": 0.115203656,
				"z": 0.7297790262,
				"element": "H" 
			},
			{
				"x": -3.9951344167,
				"y": 2.2947712565,
				"z": -0.4607816778,
				"element": "H" 
			},
			{
				"x": -2.0908764967,
				"y": 3.1967998963,
				"z": -1.8027664195,
				"element": "H" 
			}
		],
		 "valence_orbital": [ 
			{
				"type": "occ",
				"energy": -0.29497,
				"method": "rhf"
			},
			{
				"type": "occ",
				"energy": -0.28368,
				"method": "rhf"
			},
			{
				"type": "occ",
				"energy": -0.28045,
				"method": "rhf"
			},
			{
				"type": "occ",
				"energy": -0.25263,
				"method": "rhf"
			},
			{
				"type": "occ",
				"energy": -0.21664,
				"method": "rhf"
			},
			{
				"type": "unocc",
				"energy": -0.06226,
				"method": "rhf"
			},
			{
				"type": "unocc",
				"energy": -0.02895,
				"method": "rhf"
			},
			{
				"type": "unocc",
				"energy": 0.01238,
				"method": "rhf"
			},
			{
				"type": "unocc",
				"energy": 0.01838,
				"method": "rhf"
			},
			{
				"type": "unocc",
				"energy": 0.07832,
				"method": "rhf"
			}
		],
		"cosmo_sigma_profile": { 
			"-0.025": 0.0,
			"-0.024": 0.0,
			"-0.023": 0.0,
			"-0.022": 0.0,
			"-0.021": 0.0,
			"-0.02": 0.0,
			"-0.019": 0.0,
			"-0.018": 0.0,
			"-0.017": 0.0,
			"-0.016": 0.0,
			"-0.015": 0.0,
			"-0.014": 0.0,
			"-0.013": 0.0737494605979,
			"-0.012": 0.367665234224,
			"-0.011": 0.601958473164,
			"-0.01": 0.749958764672,
			"-0.009": 0.3726504825,
			"-0.008": 2.41054125827,
			"-0.007": 11.8459702586,
			"-0.006": 11.4422499666,
			"-0.005": 11.127496798,
			"-0.004": 10.1926599171,
			"-0.003": 9.67438070347,
			"-0.002": 8.45289963449,
			"-0.001": 10.8812196042,
			"0.0": 18.1126097836,
			"0.001": 25.2975843501,
			"0.002": 23.5916770765,
			"0.003": 15.3932614613,
			"0.004": 14.4139755134,
			"0.005": 8.72272375071,
			"0.006": 3.88712886919,
			"0.007": 3.84062800833,
			"0.008": 2.28035661628,
			"0.009": 2.03302001941,
			"0.01": 2.28975335548,
			"0.011": 1.48810062781,
			"0.012": 0.0,
			"0.013": 0.0,
			"0.014": 0.0,
			"0.015": 0.0,
			"0.016": 0.0,
			"0.017": 0.0,
			"0.018": 0.0,
			"0.019": 0.0,
			"0.02": 0.0,
			"0.021": 0.0,
			"0.022": 0.0,
			"0.023": 0.0,
			"0.024": 0.0,
			"0.025": 0.0
		}
	}
}
