{
	 "smiles": "NNC1=C(F)C=CC(F)=C1", 
	 "Tm": 348.15, 
	 "num_atms": 16, 
	 "gaussian": { 
		 "optdone": 1, 
		 "sigma_profile": "yes", 
		 "theory": "DFT", 
		 "functional": "B3LYP", 
		 "basiset": "6-31G**", 
		 "properties": { 
			 "R2extent": 1541.7672, 
			 "electric_dipole_moment_norm": 2.6002340087, 
			 "electric_quadrupole_moment_norm": 11.3570756967, 
			 "total_energy": -541.377828557, 
			 "HOMO_LUMO_gap": 0.20531, 
			 "cosmo_polarized_energy": -11.17, 
			 "cosmo_cavitation_energy": 21.13, 
			 "cosmo_dispersion_energy": -15.51, 
			 "cosmo_repulsion_energy": 1.24, 
			 "cosmo_total_nonelectrostatic_energy": 6.86, 
			 "SMD_solvation_energy": 5.18 
		},
		"coords": [
			{
				"x": -1.2885345765,
				"y": 0.5354455798,
				"z": 2.1675248236,
				"element": "N" 
			},
			{
				"x": -1.4173087087,
				"y": 0.9197501199,
				"z": 0.8068351455,
				"element": "N" 
			},
			{
				"x": -0.4962113214,
				"y": 0.3364047829,
				"z": -0.0782730505,
				"element": "C" 
			},
			{
				"x": -0.3104664212,
				"y": -1.057838946,
				"z": -0.1339152448,
				"element": "C" 
			},
			{
				"x": -1.0079538632,
				"y": -1.8560922873,
				"z": 0.696689136,
				"element": "F" 
			},
			{
				"x": 0.5561016663,
				"y": -1.6411334913,
				"z": -1.04552023,
				"element": "C" 
			},
			{
				"x": 1.2523254739,
				"y": -0.8534904325,
				"z": -1.9671254661,
				"element": "C" 
			},
			{
				"x": 1.0508841521,
				"y": 0.518324912,
				"z": -1.9297786205,
				"element": "C" 
			},
			{
				"x": 1.7099252357,
				"y": 1.3086059783,
				"z": -2.8066754857,
				"element": "F" 
			},
			{
				"x": 0.2083792625,
				"y": 1.1208769486,
				"z": -1.0019568037,
				"element": "C" 
			},
			{
				"x": -2.2144915718,
				"y": 0.505486352,
				"z": 2.5812858599,
				"element": "H" 
			},
			{
				"x": -0.7164318337,
				"y": 1.2013353756,
				"z": 2.685341238,
				"element": "H" 
			},
			{
				"x": -1.4902708248,
				"y": 1.922916551,
				"z": 0.6589309803,
				"element": "H" 
			},
			{
				"x": 0.6596163514,
				"y": -2.7208726335,
				"z": -1.0393886397,
				"element": "H" 
			},
			{
				"x": 1.9265393881,
				"y": -1.2878762645,
				"z": -2.6957049272,
				"element": "H" 
			},
			{
				"x": 0.1095975912,
				"y": 2.2021574552,
				"z": -0.9987687152,
				"element": "H" 
			}
		],
		 "valence_orbital": [ 
			{
				"type": "occ",
				"energy": -0.34883,
				"method": "rhf"
			},
			{
				"type": "occ",
				"energy": -0.29885,
				"method": "rhf"
			},
			{
				"type": "occ",
				"energy": -0.26225,
				"method": "rhf"
			},
			{
				"type": "occ",
				"energy": -0.24134,
				"method": "rhf"
			},
			{
				"type": "occ",
				"energy": -0.21067,
				"method": "rhf"
			},
			{
				"type": "unocc",
				"energy": -0.00536,
				"method": "rhf"
			},
			{
				"type": "unocc",
				"energy": 0.01319,
				"method": "rhf"
			},
			{
				"type": "unocc",
				"energy": 0.06717,
				"method": "rhf"
			},
			{
				"type": "unocc",
				"energy": 0.0889,
				"method": "rhf"
			},
			{
				"type": "unocc",
				"energy": 0.10088,
				"method": "rhf"
			}
		],
		"cosmo_sigma_profile": { 
			"-0.025": 0.0,
			"-0.024": 0.0,
			"-0.023": 0.0,
			"-0.022": 0.0,
			"-0.021": 0.0,
			"-0.02": 0.0,
			"-0.019": 0.0,
			"-0.018": 0.0,
			"-0.017": 0.0,
			"-0.016": 0.0,
			"-0.015": 0.0,
			"-0.014": 0.0,
			"-0.013": 0.627745519716,
			"-0.012": 1.85618614451,
			"-0.011": 4.63889584146,
			"-0.01": 6.12933666361,
			"-0.009": 4.98174707111,
			"-0.008": 4.13389338393,
			"-0.007": 7.63588372346,
			"-0.006": 7.680355053,
			"-0.005": 5.57179393214,
			"-0.004": 6.56666169409,
			"-0.003": 5.35571074165,
			"-0.002": 5.46701085677,
			"-0.001": 5.04200623678,
			"0.0": 6.14395654083,
			"0.001": 10.911683474,
			"0.002": 15.6876740631,
			"0.003": 19.2677415547,
			"0.004": 19.5651156314,
			"0.005": 13.4637842532,
			"0.006": 3.00501911219,
			"0.007": 3.09604735634,
			"0.008": 2.98524948931,
			"0.009": 1.58423810081,
			"0.01": 1.27162479666,
			"0.011": 1.22390231043,
			"0.012": 1.68550367803,
			"0.013": 0.76735104174,
			"0.014": 0.866604137706,
			"0.015": 0.739143418658,
			"0.016": 0.254796686723,
			"0.017": 0.0,
			"0.018": 0.0,
			"0.019": 0.0,
			"0.02": 0.0,
			"0.021": 0.0,
			"0.022": 0.0,
			"0.023": 0.0,
			"0.024": 0.0,
			"0.025": 0.0
		}
	}
}
