{
	 "smiles": "CCCCCCCCCCCCCCCCC1=CC=CC=C1", 
	 "Tm": 300.15, 
	 "num_atms": 60, 
	 "gaussian": { 
		 "optdone": 1, 
		 "sigma_profile": "yes", 
		 "theory": "DFT", 
		 "functional": "B3LYP", 
		 "basiset": "6-31G**", 
		 "properties": { 
			 "R2extent": 15500.459, 
			 "electric_dipole_moment_norm": 0.23547876762, 
			 "electric_quadrupole_moment_norm": 4.06590694434, 
			 "total_energy": -861.298388494, 
			 "HOMO_LUMO_gap": 0.23825, 
			 "cosmo_polarized_energy": -3.71, 
			 "cosmo_cavitation_energy": 58.33, 
			 "cosmo_dispersion_energy": -38.68, 
			 "cosmo_repulsion_energy": 3.11, 
			 "cosmo_total_nonelectrostatic_energy": 22.76, 
			 "SMD_solvation_energy": 7.55 
		},
		"coords": [
			{
				"x": 7.1011037745,
				"y": -1.2234911611,
				"z": 0.4178043938,
				"element": "C" 
			},
			{
				"x": 5.8119891338,
				"y": -0.4267569314,
				"z": 0.1849603698,
				"element": "C" 
			},
			{
				"x": 4.5765975221,
				"y": -1.2936735568,
				"z": -0.1176257334,
				"element": "C" 
			},
			{
				"x": 4.1327595424,
				"y": -2.2541642195,
				"z": 1.0009291621,
				"element": "C" 
			},
			{
				"x": 3.6621395662,
				"y": -1.5572893258,
				"z": 2.2860689866,
				"element": "C" 
			},
			{
				"x": 3.2262834231,
				"y": -2.5162311088,
				"z": 3.408946181,
				"element": "C" 
			},
			{
				"x": 2.0158951884,
				"y": -3.4170268974,
				"z": 3.0967175796,
				"element": "C" 
			},
			{
				"x": 0.7060114537,
				"y": -2.6854689339,
				"z": 2.7536347864,
				"element": "C" 
			},
			{
				"x": 0.1519987532,
				"y": -1.8109981086,
				"z": 3.888971351,
				"element": "C" 
			},
			{
				"x": -1.24023226,
				"y": -1.2172937668,
				"z": 3.6154928959,
				"element": "C" 
			},
			{
				"x": -1.2917496744,
				"y": -0.1944437557,
				"z": 2.4711237138,
				"element": "C" 
			},
			{
				"x": -2.6834127853,
				"y": 0.4269464279,
				"z": 2.2861456449,
				"element": "C" 
			},
			{
				"x": -2.7601668626,
				"y": 1.5237669491,
				"z": 1.2089403035,
				"element": "C" 
			},
			{
				"x": -2.4580460393,
				"y": 1.0820227081,
				"z": -0.2342976488,
				"element": "C" 
			},
			{
				"x": -3.4442840588,
				"y": 0.052481786,
				"z": -0.8009150151,
				"element": "C" 
			},
			{
				"x": -3.1850764719,
				"y": -0.3180487592,
				"z": -2.2788720543,
				"element": "C" 
			},
			{
				"x": -3.4094351906,
				"y": 0.8194214242,
				"z": -3.2548198479,
				"element": "C" 
			},
			{
				"x": -4.7111265253,
				"y": 1.2172080798,
				"z": -3.5958859668,
				"element": "C" 
			},
			{
				"x": -4.9328382761,
				"y": 2.2725797999,
				"z": -4.4801650549,
				"element": "C" 
			},
			{
				"x": -3.8516008156,
				"y": 2.9534873482,
				"z": -5.0448885951,
				"element": "C" 
			},
			{
				"x": -2.5512950541,
				"y": 2.5677957635,
				"z": -4.7180819239,
				"element": "C" 
			},
			{
				"x": -2.3354529732,
				"y": 1.5101272968,
				"z": -3.8316775767,
				"element": "C" 
			},
			{
				"x": 7.0326810821,
				"y": -1.8633048437,
				"z": 1.3038238822,
				"element": "H" 
			},
			{
				"x": 7.9566488535,
				"y": -0.5554977269,
				"z": 0.5627646405,
				"element": "H" 
			},
			{
				"x": 7.3259283362,
				"y": -1.8698782967,
				"z": -0.4388336438,
				"element": "H" 
			},
			{
				"x": 5.616298701,
				"y": 0.2135617864,
				"z": 1.0544288447,
				"element": "H" 
			},
			{
				"x": 5.9645446501,
				"y": 0.2580019683,
				"z": -0.6592283703,
				"element": "H" 
			},
			{
				"x": 3.7351867238,
				"y": -0.6322511072,
				"z": -0.3668501411,
				"element": "H" 
			},
			{
				"x": 4.7774291654,
				"y": -1.8811803332,
				"z": -1.0242687895,
				"element": "H" 
			},
			{
				"x": 3.3211440254,
				"y": -2.8786361137,
				"z": 0.606975824,
				"element": "H" 
			},
			{
				"x": 4.9491097584,
				"y": -2.9479502766,
				"z": 1.2445535101,
				"element": "H" 
			},
			{
				"x": 2.8413281632,
				"y": -0.8685489534,
				"z": 2.0420960332,
				"element": "H" 
			},
			{
				"x": 4.4710484222,
				"y": -0.9270341258,
				"z": 2.6765666124,
				"element": "H" 
			},
			{
				"x": 4.0762368769,
				"y": -3.1620135584,
				"z": 3.6694545103,
				"element": "H" 
			},
			{
				"x": 3.0155038415,
				"y": -1.926663586,
				"z": 4.3101481392,
				"element": "H" 
			},
			{
				"x": 2.2680531021,
				"y": -4.0921562425,
				"z": 2.2692538232,
				"element": "H" 
			},
			{
				"x": 1.8392152965,
				"y": -4.0659158381,
				"z": 3.9656674838,
				"element": "H" 
			},
			{
				"x": -0.0502042717,
				"y": -3.4382191287,
				"z": 2.4901431168,
				"element": "H" 
			},
			{
				"x": 0.8492232793,
				"y": -2.0790051217,
				"z": 1.8506425247,
				"element": "H" 
			},
			{
				"x": 0.1022176158,
				"y": -2.4167293478,
				"z": 4.8046395305,
				"element": "H" 
			},
			{
				"x": 0.8510252517,
				"y": -0.9921357411,
				"z": 4.1065351189,
				"element": "H" 
			},
			{
				"x": -1.9460928744,
				"y": -2.0335651199,
				"z": 3.4033331945,
				"element": "H" 
			},
			{
				"x": -1.6041811178,
				"y": -0.7355511272,
				"z": 4.5333807333,
				"element": "H" 
			},
			{
				"x": -0.5624387096,
				"y": 0.605282341,
				"z": 2.6686135385,
				"element": "H" 
			},
			{
				"x": -0.9732834171,
				"y": -0.6715317738,
				"z": 1.5362390941,
				"element": "H" 
			},
			{
				"x": -3.0046778522,
				"y": 0.8613837014,
				"z": 3.2427659959,
				"element": "H" 
			},
			{
				"x": -3.4082959209,
				"y": -0.3680798659,
				"z": 2.0646493832,
				"element": "H" 
			},
			{
				"x": -2.0646693673,
				"y": 2.3299254446,
				"z": 1.4799716269,
				"element": "H" 
			},
			{
				"x": -3.7634167976,
				"y": 1.9709113601,
				"z": 1.2345848242,
				"element": "H" 
			},
			{
				"x": -1.438679275,
				"y": 0.6769191278,
				"z": -0.2969655412,
				"element": "H" 
			},
			{
				"x": -2.465762026,
				"y": 1.9716748679,
				"z": -0.8756335165,
				"element": "H" 
			},
			{
				"x": -4.4686437875,
				"y": 0.4376710476,
				"z": -0.7025196395,
				"element": "H" 
			},
			{
				"x": -3.4050779294,
				"y": -0.8695877806,
				"z": -0.2075917353,
				"element": "H" 
			},
			{
				"x": -2.1571686354,
				"y": -0.6882926114,
				"z": -2.3798198558,
				"element": "H" 
			},
			{
				"x": -3.8423879562,
				"y": -1.1549045824,
				"z": -2.5467849072,
				"element": "H" 
			},
			{
				"x": -5.5595418065,
				"y": 0.6883276438,
				"z": -3.1670334053,
				"element": "H" 
			},
			{
				"x": -5.949591015,
				"y": 2.5607675799,
				"z": -4.7331408146,
				"element": "H" 
			},
			{
				"x": -4.0223267522,
				"y": 3.773805147,
				"z": -5.7362153012,
				"element": "H" 
			},
			{
				"x": -1.7026366394,
				"y": 3.0874170113,
				"z": -5.1545831906,
				"element": "H" 
			},
			{
				"x": -1.3187083644,
				"y": 1.2125331173,
				"z": -3.5864690847,
				"element": "H" 
			}
		],
		 "valence_orbital": [ 
			{
				"type": "occ",
				"energy": -0.30051,
				"method": "rhf"
			},
			{
				"type": "occ",
				"energy": -0.29579,
				"method": "rhf"
			},
			{
				"type": "occ",
				"energy": -0.29337,
				"method": "rhf"
			},
			{
				"type": "occ",
				"energy": -0.24423,
				"method": "rhf"
			},
			{
				"type": "occ",
				"energy": -0.23567,
				"method": "rhf"
			},
			{
				"type": "unocc",
				"energy": 0.00258,
				"method": "rhf"
			},
			{
				"type": "unocc",
				"energy": 0.00529,
				"method": "rhf"
			},
			{
				"type": "unocc",
				"energy": 0.0733,
				"method": "rhf"
			},
			{
				"type": "unocc",
				"energy": 0.0854,
				"method": "rhf"
			},
			{
				"type": "unocc",
				"energy": 0.09668,
				"method": "rhf"
			}
		],
		"cosmo_sigma_profile": { 
			"-0.025": 0.0,
			"-0.024": 0.0,
			"-0.023": 0.0,
			"-0.022": 0.0,
			"-0.021": 0.0,
			"-0.02": 0.0,
			"-0.019": 0.0,
			"-0.018": 0.0,
			"-0.017": 0.0,
			"-0.016": 0.0,
			"-0.015": 0.0,
			"-0.014": 0.0,
			"-0.013": 0.0,
			"-0.012": 0.0,
			"-0.011": 0.0,
			"-0.01": 0.0,
			"-0.009": 0.0,
			"-0.008": 0.0,
			"-0.007": 0.0,
			"-0.006": 0.770604979206,
			"-0.005": 8.19394444157,
			"-0.004": 11.2889635205,
			"-0.003": 19.1683153262,
			"-0.002": 50.8314390119,
			"-0.001": 94.0774392354,
			"0.0": 99.7380377627,
			"0.001": 87.1939783462,
			"0.002": 41.0497610846,
			"0.003": 8.65899632504,
			"0.004": 8.1933050854,
			"0.005": 7.63921533324,
			"0.006": 8.08212762688,
			"0.007": 4.19311761621,
			"0.008": 0.0201555698485,
			"0.009": 0.0,
			"0.01": 0.0,
			"0.011": 0.0,
			"0.012": 0.0,
			"0.013": 0.0,
			"0.014": 0.0,
			"0.015": 0.0,
			"0.016": 0.0,
			"0.017": 0.0,
			"0.018": 0.0,
			"0.019": 0.0,
			"0.02": 0.0,
			"0.021": 0.0,
			"0.022": 0.0,
			"0.023": 0.0,
			"0.024": 0.0,
			"0.025": 0.0
		}
	}
}
