{
	 "smiles": "[O-][N+](=O)C1=CC=C(NN=CC2=CC=CC3=C(Br)C=CC(=C23)[N+]([O-])=O)C=C1", 
	 "Tm": 478.15, 
	 "num_atms": 37, 
	 "gaussian": { 
		 "optdone": 1, 
		 "sigma_profile": "yes", 
		 "theory": "DFT", 
		 "functional": "B3LYP", 
		 "basiset": "6-31G**", 
		 "properties": { 
			 "R2extent": 14592.0385, 
			 "electric_dipole_moment_norm": 9.79748660065, 
			 "electric_quadrupole_moment_norm": 41.6591482517, 
			 "total_energy": -3745.5010742, 
			 "HOMO_LUMO_gap": 0.1121, 
			 "cosmo_polarized_energy": -21.43, 
			 "cosmo_cavitation_energy": 45.84, 
			 "cosmo_dispersion_energy": -31.8, 
			 "cosmo_repulsion_energy": 2.38, 
			 "cosmo_total_nonelectrostatic_energy": 16.42, 
			 "SMD_solvation_energy": 10.3 
		},
		"coords": [
			{
				"x": -3.5771563497,
				"y": -1.1208432898,
				"z": 6.0184413477,
				"element": "O" 
			},
			{
				"x": -4.1752484233,
				"y": -0.8179484559,
				"z": 4.9821128392,
				"element": "N" 
			},
			{
				"x": -5.4032637403,
				"y": -0.7653565168,
				"z": 4.8780227974,
				"element": "O" 
			},
			{
				"x": -3.3773058284,
				"y": -0.5004723664,
				"z": 3.8041581615,
				"element": "C" 
			},
			{
				"x": -1.9843268712,
				"y": -0.5481167619,
				"z": 3.8889929811,
				"element": "C" 
			},
			{
				"x": -1.2279088673,
				"y": -0.2431216393,
				"z": 2.7689670223,
				"element": "C" 
			},
			{
				"x": -1.857454503,
				"y": 0.109866204,
				"z": 1.5586204662,
				"element": "C" 
			},
			{
				"x": -1.0661666745,
				"y": 0.3985651203,
				"z": 0.4592310667,
				"element": "N" 
			},
			{
				"x": -1.6150440758,
				"y": 0.8401813981,
				"z": -0.6957944308,
				"element": "N" 
			},
			{
				"x": -0.8546306173,
				"y": 1.1387256203,
				"z": -1.6893239169,
				"element": "C" 
			},
			{
				"x": 0.6385046613,
				"y": 1.1223002638,
				"z": -1.7110660683,
				"element": "C" 
			},
			{
				"x": 1.2597760919,
				"y": 2.3592777196,
				"z": -1.7746910131,
				"element": "C" 
			},
			{
				"x": 2.6555623391,
				"y": 2.498673575,
				"z": -1.6530885857,
				"element": "C" 
			},
			{
				"x": 3.4355002975,
				"y": 1.3925748716,
				"z": -1.4168982727,
				"element": "C" 
			},
			{
				"x": 2.8631496434,
				"y": 0.0955466252,
				"z": -1.3610521191,
				"element": "C" 
			},
			{
				"x": 3.6479402491,
				"y": -1.0666903736,
				"z": -1.0838614351,
				"element": "C" 
			},
			{
				"x": 5.5250480276,
				"y": -0.9198690643,
				"z": -0.772492445,
				"element": "Br" 
			},
			{
				"x": 3.0960618276,
				"y": -2.3241392465,
				"z": -1.021353626,
				"element": "C" 
			},
			{
				"x": 1.7293757183,
				"y": -2.4911595424,
				"z": -1.3054235561,
				"element": "C" 
			},
			{
				"x": 0.9456576492,
				"y": -1.4037885024,
				"z": -1.6157741759,
				"element": "C" 
			},
			{
				"x": 1.4435840052,
				"y": -0.0625148722,
				"z": -1.5834550368,
				"element": "C" 
			},
			{
				"x": -0.3965684515,
				"y": -1.7372163792,
				"z": -2.1256222707,
				"element": "N" 
			},
			{
				"x": -0.7937764989,
				"y": -1.1089983095,
				"z": -3.1056256446,
				"element": "O" 
			},
			{
				"x": -0.9974582454,
				"y": -2.6629848576,
				"z": -1.5852844034,
				"element": "O" 
			},
			{
				"x": -3.2636423412,
				"y": 0.1501378809,
				"z": 1.4886616213,
				"element": "C" 
			},
			{
				"x": -4.017447725,
				"y": -0.1540520116,
				"z": 2.6113449227,
				"element": "C" 
			},
			{
				"x": -1.5195013259,
				"y": -0.8203895174,
				"z": 4.8281614738,
				"element": "H" 
			},
			{
				"x": -0.1429833615,
				"y": -0.276122951,
				"z": 2.824518905,
				"element": "H" 
			},
			{
				"x": -0.0579789049,
				"y": 0.4003416341,
				"z": 0.5789730027,
				"element": "H" 
			},
			{
				"x": -1.3738817788,
				"y": 1.5033017628,
				"z": -2.5712392229,
				"element": "H" 
			},
			{
				"x": 0.641666631,
				"y": 3.2455552099,
				"z": -1.8863799614,
				"element": "H" 
			},
			{
				"x": 3.1066720182,
				"y": 3.4842898716,
				"z": -1.7069197156,
				"element": "H" 
			},
			{
				"x": 4.502843076,
				"y": 1.495675537,
				"z": -1.2662624638,
				"element": "H" 
			},
			{
				"x": 3.712377289,
				"y": -3.1852381718,
				"z": -0.794049835,
				"element": "H" 
			},
			{
				"x": 1.2867643438,
				"y": -3.479799094,
				"z": -1.3250944118,
				"element": "H" 
			},
			{
				"x": -3.7373314132,
				"y": 0.4175977914,
				"z": 0.5531540221,
				"element": "H" 
			},
			{
				"x": -5.0997078709,
				"y": -0.1299891621,
				"z": 2.5821919812,
				"element": "H" 
			}
		],
		 "valence_orbital": [ 
			{
				"type": "occ",
				"energy": -0.29125,
				"method": "rhf"
			},
			{
				"type": "occ",
				"energy": -0.27394,
				"method": "rhf"
			},
			{
				"type": "occ",
				"energy": -0.27103,
				"method": "rhf"
			},
			{
				"type": "occ",
				"energy": -0.25801,
				"method": "rhf"
			},
			{
				"type": "occ",
				"energy": -0.22017,
				"method": "rhf"
			},
			{
				"type": "unocc",
				"energy": -0.10807,
				"method": "rhf"
			},
			{
				"type": "unocc",
				"energy": -0.07867,
				"method": "rhf"
			},
			{
				"type": "unocc",
				"energy": -0.06904,
				"method": "rhf"
			},
			{
				"type": "unocc",
				"energy": -0.05854,
				"method": "rhf"
			},
			{
				"type": "unocc",
				"energy": -0.02644,
				"method": "rhf"
			}
		],
		"cosmo_sigma_profile": { 
			"-0.025": 0.0,
			"-0.024": 0.0,
			"-0.023": 0.0,
			"-0.022": 0.0,
			"-0.021": 0.0,
			"-0.02": 0.0,
			"-0.019": 0.0,
			"-0.018": 0.0,
			"-0.017": 0.0,
			"-0.016": 0.0,
			"-0.015": 0.0943284094017,
			"-0.014": 1.16586857866,
			"-0.013": 1.35314927103,
			"-0.012": 1.23072544812,
			"-0.011": 1.20632777073,
			"-0.01": 1.44355918651,
			"-0.009": 3.9574025802,
			"-0.008": 9.4846445215,
			"-0.007": 16.4993513917,
			"-0.006": 19.9162447214,
			"-0.005": 20.096542959,
			"-0.004": 17.5895656887,
			"-0.003": 18.4804326445,
			"-0.002": 22.0555579758,
			"-0.001": 32.6603644831,
			"0.0": 37.3818487343,
			"0.001": 34.5045257297,
			"0.002": 35.0461039751,
			"0.003": 21.7060418616,
			"0.004": 9.01061743758,
			"0.005": 8.53521868326,
			"0.006": 8.54524914375,
			"0.007": 15.0776199434,
			"0.008": 15.1102432472,
			"0.009": 12.4179822193,
			"0.01": 5.60558568266,
			"0.011": 2.70791342843,
			"0.012": 0.0231149854338,
			"0.013": 0.0,
			"0.014": 0.0,
			"0.015": 0.0,
			"0.016": 0.0,
			"0.017": 0.0,
			"0.018": 0.0,
			"0.019": 0.0,
			"0.02": 0.0,
			"0.021": 0.0,
			"0.022": 0.0,
			"0.023": 0.0,
			"0.024": 0.0,
			"0.025": 0.0
		}
	}
}
