{
	 "smiles": "O=C1NC(=NO1)C1=CN=CC=C1", 
	 "Tm": 508.15, 
	 "num_atms": 17, 
	 "gaussian": { 
		 "optdone": 1, 
		 "sigma_profile": "yes", 
		 "theory": "DFT", 
		 "functional": "B3LYP", 
		 "basiset": "6-31G**", 
		 "properties": { 
			 "R2extent": 2501.9741, 
			 "electric_dipole_moment_norm": 6.02997317075, 
			 "electric_quadrupole_moment_norm": 9.33718176861, 
			 "total_energy": -584.421710106, 
			 "HOMO_LUMO_gap": 0.18257, 
			 "cosmo_polarized_energy": -19.48, 
			 "cosmo_cavitation_energy": 22.62, 
			 "cosmo_dispersion_energy": -17.12, 
			 "cosmo_repulsion_energy": 1.34, 
			 "cosmo_total_nonelectrostatic_energy": 6.84, 
			 "SMD_solvation_energy": 3.57 
		},
		"coords": [
			{
				"x": 3.3682163148,
				"y": 0.2207437044,
				"z": 1.0575447954,
				"element": "O" 
			},
			{
				"x": 2.3663184371,
				"y": -0.3700884652,
				"z": 0.7516922612,
				"element": "C" 
			},
			{
				"x": 1.1324627271,
				"y": 0.1212798907,
				"z": 0.3420922038,
				"element": "N" 
			},
			{
				"x": 0.2941496119,
				"y": -0.9427170108,
				"z": 0.1017891534,
				"element": "C" 
			},
			{
				"x": 0.8957081603,
				"y": -2.0746407785,
				"z": 0.3257815348,
				"element": "N" 
			},
			{
				"x": 2.2054944697,
				"y": -1.7361937061,
				"z": 0.7373241983,
				"element": "O" 
			},
			{
				"x": -1.0968606643,
				"y": -0.8403556554,
				"z": -0.3476452631,
				"element": "C" 
			},
			{
				"x": -1.8506517126,
				"y": -2.0104913699,
				"z": -0.5573813212,
				"element": "C" 
			},
			{
				"x": -3.1190495982,
				"y": -2.0072355255,
				"z": -0.9646616162,
				"element": "N" 
			},
			{
				"x": -3.6999641291,
				"y": -0.8187937007,
				"z": -1.1838937569,
				"element": "C" 
			},
			{
				"x": -3.0469015652,
				"y": 0.4011112471,
				"z": -1.0078709544,
				"element": "C" 
			},
			{
				"x": -1.7215163364,
				"y": 0.3899546273,
				"z": -0.5820868347,
				"element": "C" 
			},
			{
				"x": 0.9407200785,
				"y": 1.1054660416,
				"z": 0.2538080813,
				"element": "H" 
			},
			{
				"x": -1.3914220634,
				"y": -2.9801738507,
				"z": -0.3831954711,
				"element": "H" 
			},
			{
				"x": -4.7358420228,
				"y": -0.8456831724,
				"z": -1.5156914497,
				"element": "H" 
			},
			{
				"x": -3.5635766197,
				"y": 1.3356418514,
				"z": -1.1995068097,
				"element": "H" 
			},
			{
				"x": -1.1941850875,
				"y": 1.3289758727,
				"z": -0.4386987511,
				"element": "H" 
			}
		],
		 "valence_orbital": [ 
			{
				"type": "occ",
				"energy": -0.31604,
				"method": "rhf"
			},
			{
				"type": "occ",
				"energy": -0.29742,
				"method": "rhf"
			},
			{
				"type": "occ",
				"energy": -0.29432,
				"method": "rhf"
			},
			{
				"type": "occ",
				"energy": -0.27585,
				"method": "rhf"
			},
			{
				"type": "occ",
				"energy": -0.25564,
				"method": "rhf"
			},
			{
				"type": "unocc",
				"energy": -0.07307,
				"method": "rhf"
			},
			{
				"type": "unocc",
				"energy": -0.04812,
				"method": "rhf"
			},
			{
				"type": "unocc",
				"energy": 0.02034,
				"method": "rhf"
			},
			{
				"type": "unocc",
				"energy": 0.03562,
				"method": "rhf"
			},
			{
				"type": "unocc",
				"energy": 0.04147,
				"method": "rhf"
			}
		],
		"cosmo_sigma_profile": { 
			"-0.025": 0.0,
			"-0.024": 0.0,
			"-0.023": 0.0,
			"-0.022": 0.0,
			"-0.021": 0.0,
			"-0.02": 0.0,
			"-0.019": 0.55704434143,
			"-0.018": 1.58434215758,
			"-0.017": 1.36401872531,
			"-0.016": 1.33601798109,
			"-0.015": 1.63589109876,
			"-0.014": 1.26330894622,
			"-0.013": 1.28413339301,
			"-0.012": 1.28976944507,
			"-0.011": 1.33732341415,
			"-0.01": 1.47575468797,
			"-0.009": 1.87026908684,
			"-0.008": 3.77699688399,
			"-0.007": 9.01919137486,
			"-0.006": 8.88880789757,
			"-0.005": 10.1492489059,
			"-0.004": 11.3825720623,
			"-0.003": 8.97479252314,
			"-0.002": 10.9484036848,
			"-0.001": 11.8843294671,
			"0.0": 14.5378560111,
			"0.001": 12.8910040052,
			"0.002": 5.15601011818,
			"0.003": 5.127508463,
			"0.004": 4.94225052613,
			"0.005": 4.41381917,
			"0.006": 6.53138714997,
			"0.007": 9.19325427596,
			"0.008": 5.48135955967,
			"0.009": 3.69136887743,
			"0.01": 4.79798188681,
			"0.011": 8.91211537822,
			"0.012": 4.70291460243,
			"0.013": 0.830009660184,
			"0.014": 0.670474775387,
			"0.015": 0.98088492256,
			"0.016": 0.311905066728,
			"0.017": 0.0,
			"0.018": 0.0,
			"0.019": 0.0,
			"0.02": 0.0,
			"0.021": 0.0,
			"0.022": 0.0,
			"0.023": 0.0,
			"0.024": 0.0,
			"0.025": 0.0
		}
	}
}
