{
	 "smiles": "CC1=C(C)C=C2N(CC(O)C(O)C(O)CO)C3=NC(=O)NC(=O)C3=NC2=C1", 
	 "Tm": 563.15, 
	 "num_atms": 47, 
	 "gaussian": { 
		 "optdone": 1, 
		 "sigma_profile": "yes", 
		 "theory": "DFT", 
		 "functional": "B3LYP", 
		 "basiset": "6-31G**", 
		 "properties": { 
			 "R2extent": 12437.5662, 
			 "electric_dipole_moment_norm": 9.33958971797, 
			 "electric_quadrupole_moment_norm": 30.6076381199, 
			 "total_energy": -1330.22794995, 
			 "HOMO_LUMO_gap": 0.12502, 
			 "cosmo_polarized_energy": -36.77, 
			 "cosmo_cavitation_energy": 49.65, 
			 "cosmo_dispersion_energy": -34.23, 
			 "cosmo_repulsion_energy": 2.6, 
			 "cosmo_total_nonelectrostatic_energy": 18.01, 
			 "SMD_solvation_energy": 7.37 
		},
		"coords": [
			{
				"x": 3.076452166,
				"y": -0.6127357284,
				"z": -3.8847719189,
				"element": "C" 
			},
			{
				"x": 1.8877966257,
				"y": -0.3420985945,
				"z": -2.9955511927,
				"element": "C" 
			},
			{
				"x": 1.5672518802,
				"y": -1.2123447718,
				"z": -1.9147458624,
				"element": "C" 
			},
			{
				"x": 2.4142735839,
				"y": -2.4305802684,
				"z": -1.6444601858,
				"element": "C" 
			},
			{
				"x": 0.469471505,
				"y": -0.9475053255,
				"z": -1.100429134,
				"element": "C" 
			},
			{
				"x": -0.3536848619,
				"y": 0.1721171745,
				"z": -1.3203195368,
				"element": "C" 
			},
			{
				"x": -1.4616115005,
				"y": 0.4655964873,
				"z": -0.5373937784,
				"element": "N" 
			},
			{
				"x": -1.800491013,
				"y": -0.3500501656,
				"z": 0.6398433948,
				"element": "C" 
			},
			{
				"x": -0.9252580758,
				"y": -0.0106722414,
				"z": 1.857635951,
				"element": "C" 
			},
			{
				"x": -1.0099015946,
				"y": 1.4059989697,
				"z": 2.0326417094,
				"element": "O" 
			},
			{
				"x": -1.4121072724,
				"y": -0.6869355143,
				"z": 3.1532039528,
				"element": "C" 
			},
			{
				"x": -2.742185613,
				"y": -0.2748678654,
				"z": 3.4507798538,
				"element": "O" 
			},
			{
				"x": -1.4261702589,
				"y": -2.2227266135,
				"z": 3.1349531578,
				"element": "C" 
			},
			{
				"x": -2.5056859732,
				"y": -2.7121552494,
				"z": 2.3547850492,
				"element": "O" 
			},
			{
				"x": -1.4988345043,
				"y": -2.7987903296,
				"z": 4.5530837042,
				"element": "C" 
			},
			{
				"x": -0.2952776155,
				"y": -2.4436084897,
				"z": 5.2254604975,
				"element": "O" 
			},
			{
				"x": -2.2669042963,
				"y": 1.5575183772,
				"z": -0.8248826885,
				"element": "C" 
			},
			{
				"x": -3.327855941,
				"y": 1.772163845,
				"z": -0.0945451594,
				"element": "N" 
			},
			{
				"x": -4.1385883379,
				"y": 2.8591603129,
				"z": -0.3634840594,
				"element": "C" 
			},
			{
				"x": -5.1470196691,
				"y": 3.1166458554,
				"z": 0.2694198917,
				"element": "O" 
			},
			{
				"x": -3.7627938073,
				"y": 3.7121286925,
				"z": -1.4291865521,
				"element": "N" 
			},
			{
				"x": -2.6760178391,
				"y": 3.5866863417,
				"z": -2.2719376586,
				"element": "C" 
			},
			{
				"x": -2.4359066799,
				"y": 4.3730056576,
				"z": -3.1698252067,
				"element": "O" 
			},
			{
				"x": -1.8404889851,
				"y": 2.3821334085,
				"z": -1.955127553,
				"element": "C" 
			},
			{
				"x": -0.7961910241,
				"y": 2.1433272103,
				"z": -2.6896533767,
				"element": "N" 
			},
			{
				"x": -0.0409912446,
				"y": 1.0375969379,
				"z": -2.4018686168,
				"element": "C" 
			},
			{
				"x": 1.077772394,
				"y": 0.7584400999,
				"z": -3.2128897012,
				"element": "C" 
			},
			{
				"x": 3.1691019144,
				"y": 0.1555519576,
				"z": -4.6558767901,
				"element": "H" 
			},
			{
				"x": 4.0134663423,
				"y": -0.6301603437,
				"z": -3.3154256632,
				"element": "H" 
			},
			{
				"x": 2.9935863498,
				"y": -1.5834549047,
				"z": -4.3880115136,
				"element": "H" 
			},
			{
				"x": 2.0403865652,
				"y": -2.9966450364,
				"z": -0.7881320675,
				"element": "H" 
			},
			{
				"x": 3.4555052458,
				"y": -2.1549996573,
				"z": -1.4393067745,
				"element": "H" 
			},
			{
				"x": 2.4327690618,
				"y": -3.1026230556,
				"z": -2.5104618288,
				"element": "H" 
			},
			{
				"x": 0.2524298202,
				"y": -1.6342459686,
				"z": -0.2920719267,
				"element": "H" 
			},
			{
				"x": -1.7264414142,
				"y": -1.4087293876,
				"z": 0.3937900411,
				"element": "H" 
			},
			{
				"x": -2.8385455067,
				"y": -0.1243834554,
				"z": 0.8724576576,
				"element": "H" 
			},
			{
				"x": 0.1167149982,
				"y": -0.3099938085,
				"z": 1.6717952382,
				"element": "H" 
			},
			{
				"x": -0.3247093135,
				"y": 1.673941871,
				"z": 2.6595231514,
				"element": "H" 
			},
			{
				"x": -0.7228104485,
				"y": -0.375774337,
				"z": 3.9545638155,
				"element": "H" 
			},
			{
				"x": -2.8122375857,
				"y": 0.6593346272,
				"z": 3.1969819735,
				"element": "H" 
			},
			{
				"x": -0.4978770017,
				"y": -2.5864601362,
				"z": 2.675792104,
				"element": "H" 
			},
			{
				"x": -3.2569507964,
				"y": -2.1360414584,
				"z": 2.5720048816,
				"element": "H" 
			},
			{
				"x": -1.618799239,
				"y": -3.88829751,
				"z": 4.4719592578,
				"element": "H" 
			},
			{
				"x": -2.3861384457,
				"y": -2.3907826742,
				"z": 5.0590881285,
				"element": "H" 
			},
			{
				"x": -0.3855959543,
				"y": -2.6808664126,
				"z": 6.1558371056,
				"element": "H" 
			},
			{
				"x": -4.3758519173,
				"y": 4.502429681,
				"z": -1.5917345626,
				"element": "H" 
			},
			{
				"x": 1.2740452779,
				"y": 1.4508517966,
				"z": -4.0256072088,
				"element": "H" 
			}
		],
		 "valence_orbital": [ 
			{
				"type": "occ",
				"energy": -0.26844,
				"method": "rhf"
			},
			{
				"type": "occ",
				"energy": -0.26211,
				"method": "rhf"
			},
			{
				"type": "occ",
				"energy": -0.25893,
				"method": "rhf"
			},
			{
				"type": "occ",
				"energy": -0.24766,
				"method": "rhf"
			},
			{
				"type": "occ",
				"energy": -0.22481,
				"method": "rhf"
			},
			{
				"type": "unocc",
				"energy": -0.09979,
				"method": "rhf"
			},
			{
				"type": "unocc",
				"energy": -0.0347,
				"method": "rhf"
			},
			{
				"type": "unocc",
				"energy": -0.01295,
				"method": "rhf"
			},
			{
				"type": "unocc",
				"energy": 0.01942,
				"method": "rhf"
			},
			{
				"type": "unocc",
				"energy": 0.0431,
				"method": "rhf"
			}
		],
		"cosmo_sigma_profile": { 
			"-0.025": 0.0,
			"-0.024": 0.0,
			"-0.023": 0.0,
			"-0.022": 0.0,
			"-0.021": 0.0,
			"-0.02": 0.0,
			"-0.019": 0.0,
			"-0.018": 0.0,
			"-0.017": 0.374504685212,
			"-0.016": 2.13424327161,
			"-0.015": 3.11424218655,
			"-0.014": 2.70567907729,
			"-0.013": 3.01119325474,
			"-0.012": 3.30488171387,
			"-0.011": 3.19644986051,
			"-0.01": 4.19877995527,
			"-0.009": 4.72535012969,
			"-0.008": 6.85765495532,
			"-0.007": 12.7072336116,
			"-0.006": 17.5031696053,
			"-0.005": 27.5771473838,
			"-0.004": 30.5590503535,
			"-0.003": 31.8060866641,
			"-0.002": 31.2076669827,
			"-0.001": 33.1434533645,
			"0.0": 27.2182046766,
			"0.001": 19.4449101263,
			"0.002": 16.1141416502,
			"0.003": 10.8616498792,
			"0.004": 7.64601956464,
			"0.005": 7.6549784345,
			"0.006": 9.57740654728,
			"0.007": 6.91835132957,
			"0.008": 7.70267451733,
			"0.009": 7.46204609296,
			"0.01": 8.10281314614,
			"0.011": 10.320232641,
			"0.012": 12.083412765,
			"0.013": 11.7560737655,
			"0.014": 6.19824914201,
			"0.015": 2.75767109695,
			"0.016": 0.990398933492,
			"0.017": 0.0138371327147,
			"0.018": 0.0,
			"0.019": 0.0,
			"0.02": 0.0,
			"0.021": 0.0,
			"0.022": 0.0,
			"0.023": 0.0,
			"0.024": 0.0,
			"0.025": 0.0
		}
	}
}
