{
	 "smiles": "NNC1=NC2=CC=CC=C2N=C1", 
	 "Tm": 439.15, 
	 "num_atms": 20, 
	 "gaussian": { 
		 "optdone": 1, 
		 "sigma_profile": "yes", 
		 "theory": "DFT", 
		 "functional": "B3LYP", 
		 "basiset": "6-31G**", 
		 "properties": { 
			 "R2extent": 2829.4475, 
			 "electric_dipole_moment_norm": 0.58707779723, 
			 "electric_quadrupole_moment_norm": 8.47334320384, 
			 "total_energy": -528.65182366, 
			 "HOMO_LUMO_gap": 0.1582, 
			 "cosmo_polarized_energy": -11.25, 
			 "cosmo_cavitation_energy": 24.21, 
			 "cosmo_dispersion_energy": -18.34, 
			 "cosmo_repulsion_energy": 1.45, 
			 "cosmo_total_nonelectrostatic_energy": 7.32, 
			 "SMD_solvation_energy": 1.82 
		},
		"coords": [
			{
				"x": 1.940887091,
				"y": 1.7547697007,
				"z": 1.3400866401,
				"element": "N" 
			},
			{
				"x": 2.4738908134,
				"y": 0.8242487527,
				"z": 0.423004595,
				"element": "N" 
			},
			{
				"x": 1.6725474576,
				"y": 0.2196032516,
				"z": -0.520217452,
				"element": "C" 
			},
			{
				"x": 0.4545592031,
				"y": 0.6835744386,
				"z": -0.7183040246,
				"element": "N" 
			},
			{
				"x": -0.2832871455,
				"y": 0.0686864585,
				"z": -1.6927000041,
				"element": "C" 
			},
			{
				"x": -1.5983658925,
				"y": 0.5160191661,
				"z": -1.9666241264,
				"element": "C" 
			},
			{
				"x": -2.3506547782,
				"y": -0.1009971873,
				"z": -2.9461116525,
				"element": "C" 
			},
			{
				"x": -1.82674334,
				"y": -1.1843812134,
				"z": -3.6899569383,
				"element": "C" 
			},
			{
				"x": -0.5482015333,
				"y": -1.6406201669,
				"z": -3.4416701988,
				"element": "C" 
			},
			{
				"x": 0.2420246885,
				"y": -1.0259345482,
				"z": -2.4432852367,
				"element": "C" 
			},
			{
				"x": 1.5114438919,
				"y": -1.4926744085,
				"z": -2.2036952862,
				"element": "N" 
			},
			{
				"x": 2.2005581704,
				"y": -0.8887077155,
				"z": -1.2757713173,
				"element": "C" 
			},
			{
				"x": 1.8870890233,
				"y": 2.6523100084,
				"z": 0.8600887879,
				"element": "H" 
			},
			{
				"x": 0.9698953429,
				"y": 1.4913257982,
				"z": 1.5190725407,
				"element": "H" 
			},
			{
				"x": 3.2274767216,
				"y": 0.27386226,
				"z": 0.8099554327,
				"element": "H" 
			},
			{
				"x": -1.985869577,
				"y": 1.3484554779,
				"z": -1.3878433895,
				"element": "H" 
			},
			{
				"x": -3.3586987135,
				"y": 0.2487185415,
				"z": -3.1505454526,
				"element": "H" 
			},
			{
				"x": -2.435259954,
				"y": -1.654898851,
				"z": -4.4562619292,
				"element": "H" 
			},
			{
				"x": -0.1156809293,
				"y": -2.4696801621,
				"z": -3.992907025,
				"element": "H" 
			},
			{
				"x": 3.2118894594,
				"y": -1.2469796012,
				"z": -1.0779139634,
				"element": "H" 
			}
		],
		 "valence_orbital": [ 
			{
				"type": "occ",
				"energy": -0.29371,
				"method": "rhf"
			},
			{
				"type": "occ",
				"energy": -0.27267,
				"method": "rhf"
			},
			{
				"type": "occ",
				"energy": -0.24833,
				"method": "rhf"
			},
			{
				"type": "occ",
				"energy": -0.24256,
				"method": "rhf"
			},
			{
				"type": "occ",
				"energy": -0.2168,
				"method": "rhf"
			},
			{
				"type": "unocc",
				"energy": -0.0586,
				"method": "rhf"
			},
			{
				"type": "unocc",
				"energy": -0.0108,
				"method": "rhf"
			},
			{
				"type": "unocc",
				"energy": 0.01624,
				"method": "rhf"
			},
			{
				"type": "unocc",
				"energy": 0.07952,
				"method": "rhf"
			},
			{
				"type": "unocc",
				"energy": 0.09232,
				"method": "rhf"
			}
		],
		"cosmo_sigma_profile": { 
			"-0.025": 0.0,
			"-0.024": 0.0,
			"-0.023": 0.0,
			"-0.022": 0.0,
			"-0.021": 0.0,
			"-0.02": 0.0,
			"-0.019": 0.0,
			"-0.018": 0.0,
			"-0.017": 0.0,
			"-0.016": 0.0,
			"-0.015": 0.157185113347,
			"-0.014": 1.62096705857,
			"-0.013": 1.44138574644,
			"-0.012": 1.57526472251,
			"-0.011": 2.07590230931,
			"-0.01": 2.83276185431,
			"-0.009": 4.54216336908,
			"-0.008": 4.39047917562,
			"-0.007": 3.4795988505,
			"-0.006": 9.68327949163,
			"-0.005": 11.606935383,
			"-0.004": 11.4860913261,
			"-0.003": 11.1466408428,
			"-0.002": 11.1880254878,
			"-0.001": 11.33265188,
			"0.0": 11.5757116382,
			"0.001": 11.9287914916,
			"0.002": 13.3868438855,
			"0.003": 17.7299305503,
			"0.004": 16.4962082855,
			"0.005": 8.98727103442,
			"0.006": 3.5291423163,
			"0.007": 4.33142890373,
			"0.008": 3.49612191108,
			"0.009": 2.28367418276,
			"0.01": 2.08363393283,
			"0.011": 2.75322714744,
			"0.012": 1.53199355769,
			"0.013": 1.02777398135,
			"0.014": 2.22390744984,
			"0.015": 0.822033473081,
			"0.016": 0.56385734369,
			"0.017": 0.269416485559,
			"0.018": 0.0,
			"0.019": 0.0,
			"0.02": 0.0,
			"0.021": 0.0,
			"0.022": 0.0,
			"0.023": 0.0,
			"0.024": 0.0,
			"0.025": 0.0
		}
	}
}
