{
	 "smiles": "FC1=C(C=CC(C=O)=C1)N1C=CN=C1", 
	 "Tm": 343.15, 
	 "num_atms": 21, 
	 "gaussian": { 
		 "optdone": 1, 
		 "sigma_profile": "yes", 
		 "theory": "DFT", 
		 "functional": "B3LYP", 
		 "basiset": "6-31G**", 
		 "properties": { 
			 "R2extent": 3283.0674, 
			 "electric_dipole_moment_norm": 1.9985056167, 
			 "electric_quadrupole_moment_norm": 18.4579838406, 
			 "total_energy": -669.818307976, 
			 "HOMO_LUMO_gap": 0.15475, 
			 "cosmo_polarized_energy": -13.32, 
			 "cosmo_cavitation_energy": 26.69, 
			 "cosmo_dispersion_energy": -19.29, 
			 "cosmo_repulsion_energy": 1.45, 
			 "cosmo_total_nonelectrostatic_energy": 8.85, 
			 "SMD_solvation_energy": 5.19 
		},
		"coords": [
			{
				"x": -1.7918320889,
				"y": 2.0075242611,
				"z": 0.4865944086,
				"element": "F" 
			},
			{
				"x": -0.79896826,
				"y": 1.1517697704,
				"z": 0.803517389,
				"element": "C" 
			},
			{
				"x": -0.5417411209,
				"y": 0.0550339872,
				"z": -0.0334502613,
				"element": "C" 
			},
			{
				"x": 0.5004263834,
				"y": -0.8181219214,
				"z": 0.3244086671,
				"element": "C" 
			},
			{
				"x": 1.2620343474,
				"y": -0.5876335744,
				"z": 1.4613333583,
				"element": "C" 
			},
			{
				"x": 0.9872072251,
				"y": 0.5140454464,
				"z": 2.2841817884,
				"element": "C" 
			},
			{
				"x": 1.7883988203,
				"y": 0.7579859718,
				"z": 3.5060779902,
				"element": "C" 
			},
			{
				"x": 2.7093980743,
				"y": 0.0540724729,
				"z": 3.8715162957,
				"element": "O" 
			},
			{
				"x": -0.0573485204,
				"y": 1.3838922095,
				"z": 1.949524697,
				"element": "C" 
			},
			{
				"x": -1.2881311126,
				"y": -0.1635134701,
				"z": -1.208737717,
				"element": "N" 
			},
			{
				"x": -2.6423529732,
				"y": 0.0773432266,
				"z": -1.4270593619,
				"element": "C" 
			},
			{
				"x": -2.8868272455,
				"y": -0.3387626867,
				"z": -2.7061758223,
				"element": "C" 
			},
			{
				"x": -1.7345757468,
				"y": -0.8177022923,
				"z": -3.2992122401,
				"element": "N" 
			},
			{
				"x": -0.804218657,
				"y": -0.7060351712,
				"z": -2.3867849715,
				"element": "C" 
			},
			{
				"x": 0.6869547107,
				"y": -1.690490243,
				"z": -0.2922141015,
				"element": "H" 
			},
			{
				"x": 2.0662666126,
				"y": -1.2587572092,
				"z": 1.7428789244,
				"element": "H" 
			},
			{
				"x": 1.485557729,
				"y": 1.6558975632,
				"z": 4.0886224209,
				"element": "H" 
			},
			{
				"x": -0.2943980777,
				"y": 2.2478391548,
				"z": 2.5634566013,
				"element": "H" 
			},
			{
				"x": -3.2720990515,
				"y": 0.5024900238,
				"z": -0.6645222243,
				"element": "H" 
			},
			{
				"x": -3.8277395313,
				"y": -0.321112948,
				"z": -3.2380469485,
				"element": "H" 
			},
			{
				"x": 0.2400884832,
				"y": -0.9564645716,
				"z": -2.5085088927,
				"element": "H" 
			}
		],
		 "valence_orbital": [ 
			{
				"type": "occ",
				"energy": -0.2831,
				"method": "rhf"
			},
			{
				"type": "occ",
				"energy": -0.27715,
				"method": "rhf"
			},
			{
				"type": "occ",
				"energy": -0.27008,
				"method": "rhf"
			},
			{
				"type": "occ",
				"energy": -0.25896,
				"method": "rhf"
			},
			{
				"type": "occ",
				"energy": -0.23808,
				"method": "rhf"
			},
			{
				"type": "unocc",
				"energy": -0.08333,
				"method": "rhf"
			},
			{
				"type": "unocc",
				"energy": -0.03397,
				"method": "rhf"
			},
			{
				"type": "unocc",
				"energy": 0.00059,
				"method": "rhf"
			},
			{
				"type": "unocc",
				"energy": 0.04006,
				"method": "rhf"
			},
			{
				"type": "unocc",
				"energy": 0.05931,
				"method": "rhf"
			}
		],
		"cosmo_sigma_profile": { 
			"-0.025": 0.0,
			"-0.024": 0.0,
			"-0.023": 0.0,
			"-0.022": 0.0,
			"-0.021": 0.0,
			"-0.02": 0.0,
			"-0.019": 0.0,
			"-0.018": 0.0,
			"-0.017": 0.0,
			"-0.016": 0.0,
			"-0.015": 0.0,
			"-0.014": 0.0,
			"-0.013": 0.0,
			"-0.012": 0.0,
			"-0.011": 0.0,
			"-0.01": 0.862780171915,
			"-0.009": 6.93322833625,
			"-0.008": 8.0790252147,
			"-0.007": 11.2623445011,
			"-0.006": 13.0214293134,
			"-0.005": 10.7118830496,
			"-0.004": 11.6825018551,
			"-0.003": 12.8012757077,
			"-0.002": 14.6962434087,
			"-0.001": 17.305799832,
			"0.0": 19.0596152969,
			"0.001": 17.4692159149,
			"0.002": 12.4752124883,
			"0.003": 11.9554856492,
			"0.004": 9.27809649364,
			"0.005": 5.94284435778,
			"0.006": 3.29428113106,
			"0.007": 2.83813302749,
			"0.008": 4.14585510724,
			"0.009": 3.59492391625,
			"0.01": 3.62991771224,
			"0.011": 6.08153889981,
			"0.012": 3.16307088287,
			"0.013": 1.33796855693,
			"0.014": 1.10659313233,
			"0.015": 1.02275781613,
			"0.016": 1.2938725468,
			"0.017": 0.827423332302,
			"0.018": 0.0846315033289,
			"0.019": 0.0,
			"0.02": 0.0,
			"0.021": 0.0,
			"0.022": 0.0,
			"0.023": 0.0,
			"0.024": 0.0,
			"0.025": 0.0
		}
	}
}
