{
	 "smiles": "CC(Cl)C(=O)NC1=CC=C(C=C1)S(=O)(=O)N1CCCCC1", 
	 "Tm": 405.15, 
	 "num_atms": 40, 
	 "gaussian": { 
		 "optdone": 1, 
		 "sigma_profile": "yes", 
		 "theory": "DFT", 
		 "functional": "B3LYP", 
		 "basiset": "6-31G**", 
		 "properties": { 
			 "R2extent": 10488.4192, 
			 "electric_dipole_moment_norm": 2.18347327211, 
			 "electric_quadrupole_moment_norm": 30.3197284366, 
			 "total_energy": -1738.45073946, 
			 "HOMO_LUMO_gap": 0.18931, 
			 "cosmo_polarized_energy": -20.72, 
			 "cosmo_cavitation_energy": 44.64, 
			 "cosmo_dispersion_energy": -31.03, 
			 "cosmo_repulsion_energy": 2.37, 
			 "cosmo_total_nonelectrostatic_energy": 15.97, 
			 "SMD_solvation_energy": 5.87 
		},
		"coords": [
			{
				"x": 2.582181169,
				"y": -2.6292568839,
				"z": -5.3577775583,
				"element": "C" 
			},
			{
				"x": 1.4819322252,
				"y": -2.2529238284,
				"z": -4.3830331531,
				"element": "C" 
			},
			{
				"x": 0.8665346782,
				"y": -0.5577602542,
				"z": -4.7362896686,
				"element": "Cl" 
			},
			{
				"x": 0.2736411228,
				"y": -3.1958076296,
				"z": -4.4940845029,
				"element": "C" 
			},
			{
				"x": 0.0717881191,
				"y": -3.8491228917,
				"z": -5.5041045124,
				"element": "O" 
			},
			{
				"x": -0.6091951403,
				"y": -3.2544063754,
				"z": -3.4338237768,
				"element": "N" 
			},
			{
				"x": -0.5862387603,
				"y": -2.6010514319,
				"z": -2.1745393084,
				"element": "C" 
			},
			{
				"x": -1.6858492864,
				"y": -1.8150845322,
				"z": -1.7944881581,
				"element": "C" 
			},
			{
				"x": -1.7108127295,
				"y": -1.1990427504,
				"z": -0.5491323327,
				"element": "C" 
			},
			{
				"x": -0.6217523787,
				"y": -1.3521024275,
				"z": 0.3137697377,
				"element": "C" 
			},
			{
				"x": 0.4702829844,
				"y": -2.1412878302,
				"z": -0.0427960339,
				"element": "C" 
			},
			{
				"x": 0.4790796002,
				"y": -2.7790598154,
				"z": -1.2832896073,
				"element": "C" 
			},
			{
				"x": -0.6688794827,
				"y": -0.6016971221,
				"z": 1.9465532423,
				"element": "S" 
			},
			{
				"x": 0.6115115213,
				"y": -0.9281055983,
				"z": 2.5947393058,
				"element": "O" 
			},
			{
				"x": -1.9356879887,
				"y": -0.9606303304,
				"z": 2.5940483984,
				"element": "O" 
			},
			{
				"x": -0.7840472664,
				"y": 1.0362372947,
				"z": 1.5537934043,
				"element": "N" 
			},
			{
				"x": -1.6110577355,
				"y": 1.8844834065,
				"z": 2.4393160796,
				"element": "C" 
			},
			{
				"x": -0.8219282722,
				"y": 2.4550133128,
				"z": 3.6249852965,
				"element": "C" 
			},
			{
				"x": 0.4460235775,
				"y": 3.1781293927,
				"z": 3.1445595915,
				"element": "C" 
			},
			{
				"x": 1.2978615195,
				"y": 2.2601776261,
				"z": 2.2538460546,
				"element": "C" 
			},
			{
				"x": 0.463559086,
				"y": 1.6876099384,
				"z": 1.099779797,
				"element": "C" 
			},
			{
				"x": 3.3948519356,
				"y": -1.901273881,
				"z": -5.3151455255,
				"element": "H" 
			},
			{
				"x": 2.9777050521,
				"y": -3.6155755841,
				"z": -5.0918657005,
				"element": "H" 
			},
			{
				"x": 2.1883341014,
				"y": -2.6866478629,
				"z": -6.3730139248,
				"element": "H" 
			},
			{
				"x": 1.8551550583,
				"y": -2.1900979035,
				"z": -3.3625781864,
				"element": "H" 
			},
			{
				"x": -1.4596541306,
				"y": -3.7465321133,
				"z": -3.6819773582,
				"element": "H" 
			},
			{
				"x": -2.5099128381,
				"y": -1.6814365617,
				"z": -2.4885017053,
				"element": "H" 
			},
			{
				"x": -2.5577267319,
				"y": -0.5898491154,
				"z": -0.253074017,
				"element": "H" 
			},
			{
				"x": 1.2859977055,
				"y": -2.2707570318,
				"z": 0.6596748211,
				"element": "H" 
			},
			{
				"x": 1.2972243693,
				"y": -3.4415259531,
				"z": -1.5465338052,
				"element": "H" 
			},
			{
				"x": -2.4688537363,
				"y": 1.2972678811,
				"z": 2.7682844052,
				"element": "H" 
			},
			{
				"x": -1.9852672109,
				"y": 2.7025043119,
				"z": 1.8088357157,
				"element": "H" 
			},
			{
				"x": -1.4671944947,
				"y": 3.1389897106,
				"z": 4.1894455213,
				"element": "H" 
			},
			{
				"x": -0.5515455904,
				"y": 1.6362131895,
				"z": 4.3033020286,
				"element": "H" 
			},
			{
				"x": 1.0337573712,
				"y": 3.5282422662,
				"z": 4.0003262022,
				"element": "H" 
			},
			{
				"x": 0.1572430088,
				"y": 4.0740142092,
				"z": 2.5754988472,
				"element": "H" 
			},
			{
				"x": 2.1524376455,
				"y": 2.8088168582,
				"z": 1.8396231489,
				"element": "H" 
			},
			{
				"x": 1.695801209,
				"y": 1.4284446958,
				"z": 2.8448028275,
				"element": "H" 
			},
			{
				"x": 1.0396294514,
				"y": 0.9715567823,
				"z": 0.5075194206,
				"element": "H" 
			},
			{
				"x": 0.1569712624,
				"y": 2.4912348323,
				"z": 0.4170449892,
				"element": "H" 
			}
		],
		 "valence_orbital": [ 
			{
				"type": "occ",
				"energy": -0.30034,
				"method": "rhf"
			},
			{
				"type": "occ",
				"energy": -0.28253,
				"method": "rhf"
			},
			{
				"type": "occ",
				"energy": -0.27184,
				"method": "rhf"
			},
			{
				"type": "occ",
				"energy": -0.26011,
				"method": "rhf"
			},
			{
				"type": "occ",
				"energy": -0.24318,
				"method": "rhf"
			},
			{
				"type": "unocc",
				"energy": -0.05387,
				"method": "rhf"
			},
			{
				"type": "unocc",
				"energy": -0.03425,
				"method": "rhf"
			},
			{
				"type": "unocc",
				"energy": -0.0266,
				"method": "rhf"
			},
			{
				"type": "unocc",
				"energy": 0.04781,
				"method": "rhf"
			},
			{
				"type": "unocc",
				"energy": 0.05555,
				"method": "rhf"
			}
		],
		"cosmo_sigma_profile": { 
			"-0.025": 0.0,
			"-0.024": 0.0,
			"-0.023": 0.0,
			"-0.022": 0.0,
			"-0.021": 0.0,
			"-0.02": 0.0,
			"-0.019": 0.0,
			"-0.018": 0.0,
			"-0.017": 0.0,
			"-0.016": 0.0732043927919,
			"-0.015": 0.786079282934,
			"-0.014": 1.23932306071,
			"-0.013": 1.32123500913,
			"-0.012": 0.86150099666,
			"-0.011": 1.31403717146,
			"-0.01": 2.0362750109,
			"-0.009": 3.63876261394,
			"-0.008": 7.29415849836,
			"-0.007": 10.2240483882,
			"-0.006": 10.6223043792,
			"-0.005": 16.8368289463,
			"-0.004": 24.3486057393,
			"-0.003": 33.7262574071,
			"-0.002": 34.9259057993,
			"-0.001": 36.7149738795,
			"0.0": 31.9955605734,
			"0.001": 23.6816194436,
			"0.002": 20.4355378986,
			"0.003": 13.3968079495,
			"0.004": 13.5903459903,
			"0.005": 12.7144922809,
			"0.006": 8.50156943169,
			"0.007": 4.98254536094,
			"0.008": 5.00128484731,
			"0.009": 5.34852037403,
			"0.01": 7.21490775729,
			"0.011": 9.61670530754,
			"0.012": 9.06614655632,
			"0.013": 2.04134392866,
			"0.014": 0.0,
			"0.015": 0.0,
			"0.016": 0.0,
			"0.017": 0.0,
			"0.018": 0.0,
			"0.019": 0.0,
			"0.02": 0.0,
			"0.021": 0.0,
			"0.022": 0.0,
			"0.023": 0.0,
			"0.024": 0.0,
			"0.025": 0.0
		}
	}
}
