{
	 "smiles": "S=C(NC1CCCCC1)NC1=CC=CC=C1", 
	 "Tm": 423.15, 
	 "num_atms": 34, 
	 "gaussian": { 
		 "optdone": 1, 
		 "sigma_profile": "yes", 
		 "theory": "DFT", 
		 "functional": "B3LYP", 
		 "basiset": "6-31G**", 
		 "properties": { 
			 "R2extent": 5182.0415, 
			 "electric_dipole_moment_norm": 5.14213570027, 
			 "electric_quadrupole_moment_norm": 17.6050725744, 
			 "total_energy": -1013.95532099, 
			 "HOMO_LUMO_gap": 0.16788, 
			 "cosmo_polarized_energy": -13.72, 
			 "cosmo_cavitation_energy": 36.69, 
			 "cosmo_dispersion_energy": -25.57, 
			 "cosmo_repulsion_energy": 1.98, 
			 "cosmo_total_nonelectrostatic_energy": 13.09, 
			 "SMD_solvation_energy": 3.88 
		},
		"coords": [
			{
				"x": 1.2307395219,
				"y": 2.7243430255,
				"z": 2.4973497592,
				"element": "S" 
			},
			{
				"x": 1.1943184535,
				"y": 1.2581433901,
				"z": 1.6744957357,
				"element": "C" 
			},
			{
				"x": 1.4050322756,
				"y": 1.1812818242,
				"z": 0.3265725632,
				"element": "N" 
			},
			{
				"x": 0.6877991479,
				"y": 0.2896106902,
				"z": -0.6055473333,
				"element": "C" 
			},
			{
				"x": -0.7606969791,
				"y": 0.7603872256,
				"z": -0.8391108884,
				"element": "C" 
			},
			{
				"x": -1.4814257248,
				"y": -0.1342850989,
				"z": -1.8603213241,
				"element": "C" 
			},
			{
				"x": -0.7059592663,
				"y": -0.2132369394,
				"z": -3.1838514825,
				"element": "C" 
			},
			{
				"x": 0.7412003185,
				"y": -0.6744229559,
				"z": -2.9541099042,
				"element": "C" 
			},
			{
				"x": 1.4651829889,
				"y": 0.2115101465,
				"z": -1.9277080437,
				"element": "C" 
			},
			{
				"x": 0.9372713135,
				"y": 0.0884434183,
				"z": 2.3571783248,
				"element": "N" 
			},
			{
				"x": 1.4652903534,
				"y": -1.2144414371,
				"z": 2.1601668757,
				"element": "C" 
			},
			{
				"x": 2.6202269672,
				"y": -1.4646385333,
				"z": 1.4043487524,
				"element": "C" 
			},
			{
				"x": 3.1069764904,
				"y": -2.767142173,
				"z": 1.2946357167,
				"element": "C" 
			},
			{
				"x": 2.4706907726,
				"y": -3.8268285646,
				"z": 1.9434881598,
				"element": "C" 
			},
			{
				"x": 1.3300824845,
				"y": -3.5731114495,
				"z": 2.7080394329,
				"element": "C" 
			},
			{
				"x": 0.824850801,
				"y": -2.2789804243,
				"z": 2.8121104561,
				"element": "C" 
			},
			{
				"x": 1.5882404684,
				"y": 2.1033558477,
				"z": -0.0528405392,
				"element": "H" 
			},
			{
				"x": 0.6646941613,
				"y": -0.7098409628,
				"z": -0.1643236384,
				"element": "H" 
			},
			{
				"x": -1.2994394708,
				"y": 0.7739026705,
				"z": 0.1148045988,
				"element": "H" 
			},
			{
				"x": -0.7409490789,
				"y": 1.7964380459,
				"z": -1.2060430536,
				"element": "H" 
			},
			{
				"x": -1.5908866618,
				"y": -1.1453427135,
				"z": -1.4431327125,
				"element": "H" 
			},
			{
				"x": -2.4966181564,
				"y": 0.2414112566,
				"z": -2.0321962953,
				"element": "H" 
			},
			{
				"x": -0.6994957698,
				"y": 0.7779357175,
				"z": -3.6590466112,
				"element": "H" 
			},
			{
				"x": -1.2120684193,
				"y": -0.8903852193,
				"z": -3.8817379247,
				"element": "H" 
			},
			{
				"x": 0.7377600196,
				"y": -1.7123471556,
				"z": -2.5929450166,
				"element": "H" 
			},
			{
				"x": 1.2975380876,
				"y": -0.6767025933,
				"z": -3.8984566748,
				"element": "H" 
			},
			{
				"x": 2.4768946139,
				"y": -0.1634938358,
				"z": -1.7371251034,
				"element": "H" 
			},
			{
				"x": 1.5747983382,
				"y": 1.2274164861,
				"z": -2.3363301172,
				"element": "H" 
			},
			{
				"x": 0.6399762807,
				"y": 0.281986335,
				"z": 3.3047972301,
				"element": "H" 
			},
			{
				"x": 3.1320950944,
				"y": -0.643255649,
				"z": 0.9165356586,
				"element": "H" 
			},
			{
				"x": 4.0026117661,
				"y": -2.9486278914,
				"z": 0.7072735213,
				"element": "H" 
			},
			{
				"x": 2.8600764715,
				"y": -4.8364320454,
				"z": 1.8571503994,
				"element": "H" 
			},
			{
				"x": 0.8245230778,
				"y": -4.3858000515,
				"z": 3.2215126661,
				"element": "H" 
			},
			{
				"x": -0.0707307412,
				"y": -2.0842503862,
				"z": 3.3960668123,
				"element": "H" 
			}
		],
		 "valence_orbital": [ 
			{
				"type": "occ",
				"energy": -0.28871,
				"method": "rhf"
			},
			{
				"type": "occ",
				"energy": -0.26152,
				"method": "rhf"
			},
			{
				"type": "occ",
				"energy": -0.23414,
				"method": "rhf"
			},
			{
				"type": "occ",
				"energy": -0.21584,
				"method": "rhf"
			},
			{
				"type": "occ",
				"energy": -0.1996,
				"method": "rhf"
			},
			{
				"type": "unocc",
				"energy": -0.03172,
				"method": "rhf"
			},
			{
				"type": "unocc",
				"energy": -0.01292,
				"method": "rhf"
			},
			{
				"type": "unocc",
				"energy": 0.01451,
				"method": "rhf"
			},
			{
				"type": "unocc",
				"energy": 0.06586,
				"method": "rhf"
			},
			{
				"type": "unocc",
				"energy": 0.07862,
				"method": "rhf"
			}
		],
		"cosmo_sigma_profile": { 
			"-0.025": 0.0,
			"-0.024": 0.0,
			"-0.023": 0.0,
			"-0.022": 0.0,
			"-0.021": 0.0,
			"-0.02": 0.0,
			"-0.019": 0.0,
			"-0.018": 0.0,
			"-0.017": 0.0,
			"-0.016": 0.0,
			"-0.015": 0.0656046529491,
			"-0.014": 0.535040516117,
			"-0.013": 0.746248479747,
			"-0.012": 1.98797301354,
			"-0.011": 1.99135276789,
			"-0.01": 2.28650029641,
			"-0.009": 1.89924954615,
			"-0.008": 2.58782792792,
			"-0.007": 3.05603590979,
			"-0.006": 8.51334701887,
			"-0.005": 12.217419605,
			"-0.004": 14.5145200925,
			"-0.003": 25.1193928445,
			"-0.002": 37.9000415567,
			"-0.001": 36.589935118,
			"0.0": 36.1628708704,
			"0.001": 24.9896636205,
			"0.002": 11.3589553627,
			"0.003": 10.9479569106,
			"0.004": 10.6186912082,
			"0.005": 12.2438145702,
			"0.006": 4.91242046461,
			"0.007": 2.52248572216,
			"0.008": 3.93731617654,
			"0.009": 4.45726503623,
			"0.01": 6.78961969495,
			"0.011": 6.73642896945,
			"0.012": 3.59793733802,
			"0.013": 1.02366778255,
			"0.014": 0.0,
			"0.015": 0.0,
			"0.016": 0.0,
			"0.017": 0.0,
			"0.018": 0.0,
			"0.019": 0.0,
			"0.02": 0.0,
			"0.021": 0.0,
			"0.022": 0.0,
			"0.023": 0.0,
			"0.024": 0.0,
			"0.025": 0.0
		}
	}
}
