{
	 "smiles": "CCOC(=O)C1=C(C=CC=C1)C(=O)C1=CC=CC=C1", 
	 "Tm": 332.65, 
	 "num_atms": 33, 
	 "gaussian": { 
		 "optdone": 1, 
		 "sigma_profile": "yes", 
		 "theory": "DFT", 
		 "functional": "B3LYP", 
		 "basiset": "6-31G**", 
		 "properties": { 
			 "R2extent": 5422.2802, 
			 "electric_dipole_moment_norm": 2.15957702572, 
			 "electric_quadrupole_moment_norm": 17.8347487229, 
			 "total_energy": -843.82681557, 
			 "HOMO_LUMO_gap": 0.18478, 
			 "cosmo_polarized_energy": -12.14, 
			 "cosmo_cavitation_energy": 37.47, 
			 "cosmo_dispersion_energy": -24.81, 
			 "cosmo_repulsion_energy": 1.91, 
			 "cosmo_total_nonelectrostatic_energy": 14.57, 
			 "SMD_solvation_energy": 7.69 
		},
		"coords": [
			{
				"x": -2.2189942972,
				"y": 0.1324940867,
				"z": -3.8005896387,
				"element": "C" 
			},
			{
				"x": -0.8870765617,
				"y": 0.8650785547,
				"z": -3.7441318419,
				"element": "C" 
			},
			{
				"x": -0.0499174875,
				"y": 0.3746434828,
				"z": -2.6668570161,
				"element": "O" 
			},
			{
				"x": 0.6874649936,
				"y": -0.724969516,
				"z": -2.9185243971,
				"element": "C" 
			},
			{
				"x": 0.7028520301,
				"y": -1.2993605505,
				"z": -3.9907703568,
				"element": "O" 
			},
			{
				"x": 1.5268010917,
				"y": -1.1288254897,
				"z": -1.7470362459,
				"element": "C" 
			},
			{
				"x": 1.3421719167,
				"y": -0.6544793361,
				"z": -0.4310859031,
				"element": "C" 
			},
			{
				"x": 2.260361929,
				"y": -1.0324297371,
				"z": 0.5575570249,
				"element": "C" 
			},
			{
				"x": 3.3186141697,
				"y": -1.8919485473,
				"z": 0.2667495268,
				"element": "C" 
			},
			{
				"x": 3.4819729388,
				"y": -2.3824671551,
				"z": -1.0300697796,
				"element": "C" 
			},
			{
				"x": 2.5929988815,
				"y": -1.9955037091,
				"z": -2.0280545034,
				"element": "C" 
			},
			{
				"x": 0.2213667793,
				"y": 0.2570276352,
				"z": 0.0278341961,
				"element": "C" 
			},
			{
				"x": 0.4980842726,
				"y": 1.3572692881,
				"z": 0.4813756055,
				"element": "O" 
			},
			{
				"x": -1.1856362195,
				"y": -0.2561954085,
				"z": 0.0435831631,
				"element": "C" 
			},
			{
				"x": -2.2103706919,
				"y": 0.6435853359,
				"z": 0.3765348894,
				"element": "C" 
			},
			{
				"x": -3.533488258,
				"y": 0.215270439,
				"z": 0.4258309137,
				"element": "C" 
			},
			{
				"x": -3.8466831031,
				"y": -1.1217267348,
				"z": 0.1561124721,
				"element": "C" 
			},
			{
				"x": -2.8314605319,
				"y": -2.0260468407,
				"z": -0.1608219378,
				"element": "C" 
			},
			{
				"x": -1.5053136828,
				"y": -1.5960283272,
				"z": -0.2185902939,
				"element": "C" 
			},
			{
				"x": -2.7486827509,
				"y": 0.2076404898,
				"z": -2.8472224104,
				"element": "H" 
			},
			{
				"x": -2.0676058069,
				"y": -0.922328826,
				"z": -4.041614417,
				"element": "H" 
			},
			{
				"x": -2.8463118051,
				"y": 0.5755481941,
				"z": -4.5815755269,
				"element": "H" 
			},
			{
				"x": -0.3373416298,
				"y": 0.7604791588,
				"z": -4.6824369505,
				"element": "H" 
			},
			{
				"x": -1.019665481,
				"y": 1.9246096114,
				"z": -3.5149981754,
				"element": "H" 
			},
			{
				"x": 2.1314585173,
				"y": -0.6467285387,
				"z": 1.5640016766,
				"element": "H" 
			},
			{
				"x": 4.013880109,
				"y": -2.1756600769,
				"z": 1.0514844919,
				"element": "H" 
			},
			{
				"x": 4.3031846102,
				"y": -3.0530567622,
				"z": -1.264206744,
				"element": "H" 
			},
			{
				"x": 2.7074672258,
				"y": -2.3434680176,
				"z": -3.0489336136,
				"element": "H" 
			},
			{
				"x": -1.9404289396,
				"y": 1.6722498936,
				"z": 0.5911838741,
				"element": "H" 
			},
			{
				"x": -4.3225587028,
				"y": 0.9179704307,
				"z": 0.6779230311,
				"element": "H" 
			},
			{
				"x": -4.8791812851,
				"y": -1.4570190095,
				"z": 0.1978632759,
				"element": "H" 
			},
			{
				"x": -3.0713721146,
				"y": -3.065979868,
				"z": -0.3619418683,
				"element": "H" 
			},
			{
				"x": -0.7195901159,
				"y": -2.3042441496,
				"z": -0.4605725207,
				"element": "H" 
			}
		],
		 "valence_orbital": [ 
			{
				"type": "occ",
				"energy": -0.2688,
				"method": "rhf"
			},
			{
				"type": "occ",
				"energy": -0.26488,
				"method": "rhf"
			},
			{
				"type": "occ",
				"energy": -0.26046,
				"method": "rhf"
			},
			{
				"type": "occ",
				"energy": -0.25745,
				"method": "rhf"
			},
			{
				"type": "occ",
				"energy": -0.24625,
				"method": "rhf"
			},
			{
				"type": "unocc",
				"energy": -0.06147,
				"method": "rhf"
			},
			{
				"type": "unocc",
				"energy": -0.0457,
				"method": "rhf"
			},
			{
				"type": "unocc",
				"energy": -0.01636,
				"method": "rhf"
			},
			{
				"type": "unocc",
				"energy": -0.00926,
				"method": "rhf"
			},
			{
				"type": "unocc",
				"energy": 0.04277,
				"method": "rhf"
			}
		],
		"cosmo_sigma_profile": { 
			"-0.025": 0.0,
			"-0.024": 0.0,
			"-0.023": 0.0,
			"-0.022": 0.0,
			"-0.021": 0.0,
			"-0.02": 0.0,
			"-0.019": 0.0,
			"-0.018": 0.0,
			"-0.017": 0.0,
			"-0.016": 0.0,
			"-0.015": 0.0,
			"-0.014": 0.0,
			"-0.013": 0.0,
			"-0.012": 0.0,
			"-0.011": 0.0,
			"-0.01": 0.0,
			"-0.009": 0.0,
			"-0.008": 0.0522089443192,
			"-0.007": 6.27276106262,
			"-0.006": 18.1786944037,
			"-0.005": 25.5345388917,
			"-0.004": 27.0136671251,
			"-0.003": 23.9920198235,
			"-0.002": 22.2920912428,
			"-0.001": 23.3717934206,
			"0.0": 24.9680934942,
			"0.001": 28.1038365358,
			"0.002": 28.7683322398,
			"0.003": 22.0786530407,
			"0.004": 10.9636811866,
			"0.005": 4.66259854614,
			"0.006": 4.67420516179,
			"0.007": 4.02136729379,
			"0.008": 3.61003132041,
			"0.009": 3.20640008707,
			"0.01": 4.51988971453,
			"0.011": 6.87478965655,
			"0.012": 5.65017480165,
			"0.013": 0.603672273725,
			"0.014": 0.0,
			"0.015": 0.0,
			"0.016": 0.0,
			"0.017": 0.0,
			"0.018": 0.0,
			"0.019": 0.0,
			"0.02": 0.0,
			"0.021": 0.0,
			"0.022": 0.0,
			"0.023": 0.0,
			"0.024": 0.0,
			"0.025": 0.0
		}
	}
}
