{
	 "smiles": "S=C(SN1CCOCC1)N1CCOCC1", 
	 "Tm": 412.15, 
	 "num_atms": 31, 
	 "gaussian": { 
		 "optdone": 1, 
		 "sigma_profile": "yes", 
		 "theory": "DFT", 
		 "functional": "B3LYP", 
		 "basiset": "6-31G**", 
		 "properties": { 
			 "R2extent": 5581.5075, 
			 "electric_dipole_moment_norm": 3.80227204313, 
			 "electric_quadrupole_moment_norm": 22.1103442443, 
			 "total_energy": -1408.85117366, 
			 "HOMO_LUMO_gap": 0.1721, 
			 "cosmo_polarized_energy": -17.09, 
			 "cosmo_cavitation_energy": 34.34, 
			 "cosmo_dispersion_energy": -25.49, 
			 "cosmo_repulsion_energy": 1.93, 
			 "cosmo_total_nonelectrostatic_energy": 10.78, 
			 "SMD_solvation_energy": 3.45 
		},
		"coords": [
			{
				"x": -2.426041825,
				"y": -3.3446009119,
				"z": -0.1348323059,
				"element": "S" 
			},
			{
				"x": -1.3372916184,
				"y": -2.204673421,
				"z": -0.6917463824,
				"element": "C" 
			},
			{
				"x": 0.3539428318,
				"y": -2.8119282093,
				"z": -0.7071828827,
				"element": "S" 
			},
			{
				"x": 1.4177252444,
				"y": -1.4525997893,
				"z": -0.6282883323,
				"element": "N" 
			},
			{
				"x": 1.9262802128,
				"y": -1.0975174262,
				"z": 0.7176865246,
				"element": "C" 
			},
			{
				"x": 3.4138191805,
				"y": -1.4090174193,
				"z": 0.8579121878,
				"element": "C" 
			},
			{
				"x": 4.2061892714,
				"y": -0.7197663213,
				"z": -0.1097807332,
				"element": "O" 
			},
			{
				"x": 3.5182766122,
				"y": -0.3963662332,
				"z": -1.3125729898,
				"element": "C" 
			},
			{
				"x": 2.4540947389,
				"y": -1.427738457,
				"z": -1.6786915906,
				"element": "C" 
			},
			{
				"x": -1.6565978965,
				"y": -0.9624381239,
				"z": -1.1089281221,
				"element": "N" 
			},
			{
				"x": -3.0304079807,
				"y": -0.466980137,
				"z": -0.9025322558,
				"element": "C" 
			},
			{
				"x": -3.0506690245,
				"y": 1.0527719275,
				"z": -1.0124420412,
				"element": "C" 
			},
			{
				"x": -2.6101971636,
				"y": 1.5336777942,
				"z": -2.2812854178,
				"element": "O" 
			},
			{
				"x": -1.7282711218,
				"y": 0.6477190399,
				"z": -2.9563954553,
				"element": "C" 
			},
			{
				"x": -0.8255692936,
				"y": -0.1360381873,
				"z": -2.0054210304,
				"element": "C" 
			},
			{
				"x": 1.7588471317,
				"y": -0.0263157635,
				"z": 0.895318689,
				"element": "H" 
			},
			{
				"x": 1.3569880556,
				"y": -1.6467283878,
				"z": 1.4716308628,
				"element": "H" 
			},
			{
				"x": 3.572337944,
				"y": -2.4950110614,
				"z": 0.7688961271,
				"element": "H" 
			},
			{
				"x": 3.7743478097,
				"y": -1.1003906833,
				"z": 1.8455090474,
				"element": "H" 
			},
			{
				"x": 3.0513866081,
				"y": 0.5987334616,
				"z": -1.2350776182,
				"element": "H" 
			},
			{
				"x": 4.2720965462,
				"y": -0.3477124403,
				"z": -2.105084688,
				"element": "H" 
			},
			{
				"x": 2.9393955792,
				"y": -2.4066421534,
				"z": -1.8108907486,
				"element": "H" 
			},
			{
				"x": 1.9981173244,
				"y": -1.1605065427,
				"z": -2.6400372852,
				"element": "H" 
			},
			{
				"x": -3.7116945882,
				"y": -0.925409185,
				"z": -1.6299369501,
				"element": "H" 
			},
			{
				"x": -3.3668708513,
				"y": -0.7828449666,
				"z": 0.088013654,
				"element": "H" 
			},
			{
				"x": -4.0753169057,
				"y": 1.4106394291,
				"z": -0.868234456,
				"element": "H" 
			},
			{
				"x": -2.4303743365,
				"y": 1.4855762058,
				"z": -0.2126297943,
				"element": "H" 
			},
			{
				"x": -2.2935235567,
				"y": -0.0554752471,
				"z": -3.587546972,
				"element": "H" 
			},
			{
				"x": -1.1066633273,
				"y": 1.2605275618,
				"z": -3.6173324145,
				"element": "H" 
			},
			{
				"x": -0.1734865992,
				"y": -0.7889961377,
				"z": -2.587917464,
				"element": "H" 
			},
			{
				"x": -0.191169002,
				"y": 0.5451517857,
				"z": -1.4295791625,
				"element": "H" 
			}
		],
		 "valence_orbital": [ 
			{
				"type": "occ",
				"energy": -0.26018,
				"method": "rhf"
			},
			{
				"type": "occ",
				"energy": -0.25751,
				"method": "rhf"
			},
			{
				"type": "occ",
				"energy": -0.23913,
				"method": "rhf"
			},
			{
				"type": "occ",
				"energy": -0.2233,
				"method": "rhf"
			},
			{
				"type": "occ",
				"energy": -0.20901,
				"method": "rhf"
			},
			{
				"type": "unocc",
				"energy": -0.03691,
				"method": "rhf"
			},
			{
				"type": "unocc",
				"energy": 0.01728,
				"method": "rhf"
			},
			{
				"type": "unocc",
				"energy": 0.03829,
				"method": "rhf"
			},
			{
				"type": "unocc",
				"energy": 0.06036,
				"method": "rhf"
			},
			{
				"type": "unocc",
				"energy": 0.08445,
				"method": "rhf"
			}
		],
		"cosmo_sigma_profile": { 
			"-0.025": 0.0,
			"-0.024": 0.0,
			"-0.023": 0.0,
			"-0.022": 0.0,
			"-0.021": 0.0,
			"-0.02": 0.0,
			"-0.019": 0.0,
			"-0.018": 0.0,
			"-0.017": 0.0,
			"-0.016": 0.0,
			"-0.015": 0.0,
			"-0.014": 0.0,
			"-0.013": 0.0,
			"-0.012": 0.0,
			"-0.011": 0.0,
			"-0.01": 0.0,
			"-0.009": 0.0,
			"-0.008": 0.281001972198,
			"-0.007": 3.10247342644,
			"-0.006": 17.6856422921,
			"-0.005": 38.8472018638,
			"-0.004": 40.9295768985,
			"-0.003": 28.3142261097,
			"-0.002": 19.6146088625,
			"-0.001": 15.8098477455,
			"0.0": 10.3595739955,
			"0.001": 8.55104739849,
			"0.002": 6.18991126803,
			"0.003": 9.7281245293,
			"0.004": 10.1745602695,
			"0.005": 7.80386428789,
			"0.006": 8.4741631305,
			"0.007": 7.74672324482,
			"0.008": 8.53293226413,
			"0.009": 9.42672352977,
			"0.01": 7.3758681689,
			"0.011": 5.42589507076,
			"0.012": 4.29914137798,
			"0.013": 3.29264342651,
			"0.014": 0.692334475229,
			"0.015": 0.0,
			"0.016": 0.0,
			"0.017": 0.0,
			"0.018": 0.0,
			"0.019": 0.0,
			"0.02": 0.0,
			"0.021": 0.0,
			"0.022": 0.0,
			"0.023": 0.0,
			"0.024": 0.0,
			"0.025": 0.0
		}
	}
}
