{
	 "smiles": "CC(C)C1=CC=C(C)C=C1O", 
	 "Tm": 323.35, 
	 "num_atms": 25, 
	 "gaussian": { 
		 "optdone": 1, 
		 "sigma_profile": "yes", 
		 "theory": "DFT", 
		 "functional": "B3LYP", 
		 "basiset": "6-31G**", 
		 "properties": { 
			 "R2extent": 2125.5537, 
			 "electric_dipole_moment_norm": 1.45657518172, 
			 "electric_quadrupole_moment_norm": 7.04061786067, 
			 "total_energy": -464.739815508, 
			 "HOMO_LUMO_gap": 0.21714, 
			 "cosmo_polarized_energy": -6.52, 
			 "cosmo_cavitation_energy": 26.63, 
			 "cosmo_dispersion_energy": -19.43, 
			 "cosmo_repulsion_energy": 1.56, 
			 "cosmo_total_nonelectrostatic_energy": 8.77, 
			 "SMD_solvation_energy": 4.84 
		},
		"coords": [
			{
				"x": -2.5996806355,
				"y": 1.8607424316,
				"z": 1.2730487488,
				"element": "C" 
			},
			{
				"x": -1.9642731439,
				"y": 1.7992864853,
				"z": -0.1330532889,
				"element": "C" 
			},
			{
				"x": -1.5079070162,
				"y": 3.1900595219,
				"z": -0.6251163485,
				"element": "C" 
			},
			{
				"x": -0.8779015153,
				"y": 0.733544939,
				"z": -0.2553248597,
				"element": "C" 
			},
			{
				"x": -1.0679401529,
				"y": -0.352570647,
				"z": -1.1201951719,
				"element": "C" 
			},
			{
				"x": -0.119813159,
				"y": -1.3613432685,
				"z": -1.2771721029,
				"element": "C" 
			},
			{
				"x": 1.081434982,
				"y": -1.3167239495,
				"z": -0.559251372,
				"element": "C" 
			},
			{
				"x": 2.139601935,
				"y": -2.3806114343,
				"z": -0.7352481168,
				"element": "C" 
			},
			{
				"x": 1.2891786351,
				"y": -0.2440704246,
				"z": 0.3104540992,
				"element": "C" 
			},
			{
				"x": 0.3344346072,
				"y": 0.7649527569,
				"z": 0.4641235905,
				"element": "C" 
			},
			{
				"x": 0.6656922859,
				"y": 1.7586193178,
				"z": 1.3512796929,
				"element": "O" 
			},
			{
				"x": -2.9853707867,
				"y": 0.8797945518,
				"z": 1.5653360045,
				"element": "H" 
			},
			{
				"x": -3.430028084,
				"y": 2.5749383953,
				"z": 1.2889228452,
				"element": "H" 
			},
			{
				"x": -1.8928233837,
				"y": 2.1692309905,
				"z": 2.0524426352,
				"element": "H" 
			},
			{
				"x": -2.7655618469,
				"y": 1.4857940445,
				"z": -0.8133538419,
				"element": "H" 
			},
			{
				"x": -2.3419215022,
				"y": 3.8997168838,
				"z": -0.6001502711,
				"element": "H" 
			},
			{
				"x": -0.7005413634,
				"y": 3.6178206996,
				"z": -0.0190254368,
				"element": "H" 
			},
			{
				"x": -1.1367444062,
				"y": 3.133098396,
				"z": -1.6524714895,
				"element": "H" 
			},
			{
				"x": -1.9961418005,
				"y": -0.4056249596,
				"z": -1.6850347353,
				"element": "H" 
			},
			{
				"x": -0.3146975146,
				"y": -2.1854849258,
				"z": -1.9580565312,
				"element": "H" 
			},
			{
				"x": 2.8942819536,
				"y": -2.0715859936,
				"z": -1.4694986369,
				"element": "H" 
			},
			{
				"x": 2.6657002116,
				"y": -2.5825083627,
				"z": 0.2029994282,
				"element": "H" 
			},
			{
				"x": 1.7054561987,
				"y": -3.3200649323,
				"z": -1.0899611728,
				"element": "H" 
			},
			{
				"x": 2.2024311424,
				"y": -0.1676949423,
				"z": 0.8938080416,
				"element": "H" 
			},
			{
				"x": -0.0471656406,
				"y": 2.404484426,
				"z": 1.3966982903,
				"element": "H" 
			}
		],
		 "valence_orbital": [ 
			{
				"type": "occ",
				"energy": -0.3295,
				"method": "rhf"
			},
			{
				"type": "occ",
				"energy": -0.3176,
				"method": "rhf"
			},
			{
				"type": "occ",
				"energy": -0.31519,
				"method": "rhf"
			},
			{
				"type": "occ",
				"energy": -0.23219,
				"method": "rhf"
			},
			{
				"type": "occ",
				"energy": -0.21026,
				"method": "rhf"
			},
			{
				"type": "unocc",
				"energy": 0.00688,
				"method": "rhf"
			},
			{
				"type": "unocc",
				"energy": 0.01946,
				"method": "rhf"
			},
			{
				"type": "unocc",
				"energy": 0.06106,
				"method": "rhf"
			},
			{
				"type": "unocc",
				"energy": 0.09805,
				"method": "rhf"
			},
			{
				"type": "unocc",
				"energy": 0.11587,
				"method": "rhf"
			}
		],
		"cosmo_sigma_profile": { 
			"-0.025": 0.0,
			"-0.024": 0.0,
			"-0.023": 0.0,
			"-0.022": 0.0,
			"-0.021": 0.0,
			"-0.02": 0.0,
			"-0.019": 0.0,
			"-0.018": 0.0,
			"-0.017": 0.0,
			"-0.016": 0.0,
			"-0.015": 0.152503272802,
			"-0.014": 0.754967476802,
			"-0.013": 0.828103976486,
			"-0.012": 0.839128285099,
			"-0.011": 0.426749970305,
			"-0.01": 0.591722455291,
			"-0.009": 1.17844032304,
			"-0.008": 1.11551192583,
			"-0.007": 0.775909021581,
			"-0.006": 1.5752925203,
			"-0.005": 5.28407204674,
			"-0.004": 15.158151183,
			"-0.003": 23.7380897329,
			"-0.002": 26.6823130398,
			"-0.001": 23.9702889717,
			"0.0": 29.7110985634,
			"0.001": 19.7631054877,
			"0.002": 8.0184284526,
			"0.003": 8.54579660911,
			"0.004": 7.97682350807,
			"0.005": 9.62752086137,
			"0.006": 8.64429096384,
			"0.007": 5.8189561141,
			"0.008": 1.83985909922,
			"0.009": 1.00799470963,
			"0.01": 1.92404458027,
			"0.011": 1.68434071993,
			"0.012": 1.24986802909,
			"0.013": 0.0,
			"0.014": 0.0,
			"0.015": 0.0,
			"0.016": 0.0,
			"0.017": 0.0,
			"0.018": 0.0,
			"0.019": 0.0,
			"0.02": 0.0,
			"0.021": 0.0,
			"0.022": 0.0,
			"0.023": 0.0,
			"0.024": 0.0,
			"0.025": 0.0
		}
	}
}
