{
	 "smiles": "BrC1=CC=C(C=C1)C1=CSC=N1", 
	 "Tm": 343.15, 
	 "num_atms": 18, 
	 "gaussian": { 
		 "optdone": 1, 
		 "sigma_profile": "yes", 
		 "theory": "DFT", 
		 "functional": "B3LYP", 
		 "basiset": "6-31G**", 
		 "properties": { 
			 "R2extent": 6645.1396, 
			 "electric_dipole_moment_norm": 2.60247851288, 
			 "electric_quadrupole_moment_norm": 8.00606378878, 
			 "total_energy": -3370.9099124, 
			 "HOMO_LUMO_gap": 0.17494, 
			 "cosmo_polarized_energy": -7.29, 
			 "cosmo_cavitation_energy": 26.49, 
			 "cosmo_dispersion_energy": -20.83, 
			 "cosmo_repulsion_energy": 1.58, 
			 "cosmo_total_nonelectrostatic_energy": 7.24, 
			 "SMD_solvation_energy": 2.42 
		},
		"coords": [
			{
				"x": -4.363862443,
				"y": 3.051673076,
				"z": -2.0176754318,
				"element": "Br" 
			},
			{
				"x": -3.1634543692,
				"y": 1.815911851,
				"z": -1.1909225805,
				"element": "C" 
			},
			{
				"x": -3.654102758,
				"y": 0.606021049,
				"z": -0.7005579507,
				"element": "C" 
			},
			{
				"x": -2.7757874446,
				"y": -0.2908062193,
				"z": -0.0990505452,
				"element": "C" 
			},
			{
				"x": -1.4072840652,
				"y": 0.0017369828,
				"z": 0.0217703213,
				"element": "C" 
			},
			{
				"x": -0.9420860065,
				"y": 1.2277424367,
				"z": -0.4811247458,
				"element": "C" 
			},
			{
				"x": -1.8109094022,
				"y": 2.1335942915,
				"z": -1.08511401,
				"element": "C" 
			},
			{
				"x": -0.4603483355,
				"y": -0.9353965858,
				"z": 0.655733442,
				"element": "C" 
			},
			{
				"x": -0.7520500211,
				"y": -2.1679003792,
				"z": 1.1913293802,
				"element": "C" 
			},
			{
				"x": 0.6723847153,
				"y": -2.9128511426,
				"z": 1.8256510725,
				"element": "S" 
			},
			{
				"x": 1.5767801485,
				"y": -1.504369914,
				"z": 1.3240820703,
				"element": "C" 
			},
			{
				"x": 0.8770410959,
				"y": -0.5801277583,
				"z": 0.7443000418,
				"element": "N" 
			},
			{
				"x": -4.7082403612,
				"y": 0.3689212556,
				"z": -0.7879155732,
				"element": "H" 
			},
			{
				"x": -3.171854576,
				"y": -1.2285100694,
				"z": 0.2783899731,
				"element": "H" 
			},
			{
				"x": 0.1124207343,
				"y": 1.4621458911,
				"z": -0.3921528969,
				"element": "H" 
			},
			{
				"x": -1.4402794568,
				"y": 3.0770260683,
				"z": -1.4696655017,
				"element": "H" 
			},
			{
				"x": -1.7042558683,
				"y": -2.6735573686,
				"z": 1.2491514669,
				"element": "H" 
			},
			{
				"x": 2.6439884138,
				"y": -1.4405534646,
				"z": 1.5004714678,
				"element": "H" 
			}
		],
		 "valence_orbital": [ 
			{
				"type": "occ",
				"energy": -0.28698,
				"method": "rhf"
			},
			{
				"type": "occ",
				"energy": -0.28311,
				"method": "rhf"
			},
			{
				"type": "occ",
				"energy": -0.27258,
				"method": "rhf"
			},
			{
				"type": "occ",
				"energy": -0.2635,
				"method": "rhf"
			},
			{
				"type": "occ",
				"energy": -0.22294,
				"method": "rhf"
			},
			{
				"type": "unocc",
				"energy": -0.048,
				"method": "rhf"
			},
			{
				"type": "unocc",
				"energy": -0.02048,
				"method": "rhf"
			},
			{
				"type": "unocc",
				"energy": -0.00912,
				"method": "rhf"
			},
			{
				"type": "unocc",
				"energy": 0.00582,
				"method": "rhf"
			},
			{
				"type": "unocc",
				"energy": 0.01244,
				"method": "rhf"
			}
		],
		"cosmo_sigma_profile": { 
			"-0.025": 0.0,
			"-0.024": 0.0,
			"-0.023": 0.0,
			"-0.022": 0.0,
			"-0.021": 0.0,
			"-0.02": 0.0,
			"-0.019": 0.0,
			"-0.018": 0.0,
			"-0.017": 0.0,
			"-0.016": 0.0,
			"-0.015": 0.0,
			"-0.014": 0.0,
			"-0.013": 0.0,
			"-0.012": 0.0,
			"-0.011": 0.0469076858627,
			"-0.01": 3.44774283252,
			"-0.009": 4.77388384786,
			"-0.008": 4.76744194233,
			"-0.007": 7.03913988065,
			"-0.006": 8.53362767594,
			"-0.005": 9.69606575816,
			"-0.004": 10.5893359607,
			"-0.003": 10.0244298599,
			"-0.002": 10.7549680031,
			"-0.001": 12.3750244148,
			"0.0": 16.7640444718,
			"0.001": 22.8888388762,
			"0.002": 33.2452020445,
			"0.003": 27.8071167964,
			"0.004": 19.9935067672,
			"0.005": 8.15338663954,
			"0.006": 2.03659674153,
			"0.007": 1.89446631589,
			"0.008": 0.819175898304,
			"0.009": 0.82078938731,
			"0.01": 1.5131589942,
			"0.011": 1.30061859925,
			"0.012": 0.531694707893,
			"0.013": 0.0,
			"0.014": 0.0,
			"0.015": 0.0,
			"0.016": 0.0,
			"0.017": 0.0,
			"0.018": 0.0,
			"0.019": 0.0,
			"0.02": 0.0,
			"0.021": 0.0,
			"0.022": 0.0,
			"0.023": 0.0,
			"0.024": 0.0,
			"0.025": 0.0
		}
	}
}
