{
	 "smiles": "N#CCC1=CC=C(CC2=CC=CC=C2)C=C1", 
	 "Tm": 308.65, 
	 "num_atms": 29, 
	 "gaussian": { 
		 "optdone": 1, 
		 "sigma_profile": "yes", 
		 "theory": "DFT", 
		 "functional": "B3LYP", 
		 "basiset": "6-31G**", 
		 "properties": { 
			 "R2extent": 5207.4961, 
			 "electric_dipole_moment_norm": 4.02812491986, 
			 "electric_quadrupole_moment_norm": 25.692045619, 
			 "total_energy": -634.174323688, 
			 "HOMO_LUMO_gap": 0.22325, 
			 "cosmo_polarized_energy": -12.0, 
			 "cosmo_cavitation_energy": 34.05, 
			 "cosmo_dispersion_energy": -23.47, 
			 "cosmo_repulsion_energy": 1.84, 
			 "cosmo_total_nonelectrostatic_energy": 12.42, 
			 "SMD_solvation_energy": 6.75 
		},
		"coords": [
			{
				"x": 4.9466719578,
				"y": 0.6537593049,
				"z": 3.5641427487,
				"element": "N" 
			},
			{
				"x": 4.762865248,
				"y": 0.1543915953,
				"z": 2.5327786784,
				"element": "C" 
			},
			{
				"x": 4.5202811462,
				"y": -0.4878163861,
				"z": 1.236697182,
				"element": "C" 
			},
			{
				"x": 3.1822790346,
				"y": -0.1257243888,
				"z": 0.6029969173,
				"element": "C" 
			},
			{
				"x": 2.0289211572,
				"y": 0.054548318,
				"z": 1.3764645678,
				"element": "C" 
			},
			{
				"x": 0.8077390772,
				"y": 0.3354571674,
				"z": 0.7697186198,
				"element": "C" 
			},
			{
				"x": 0.7002364632,
				"y": 0.4476444996,
				"z": -0.624114813,
				"element": "C" 
			},
			{
				"x": -0.6292395377,
				"y": 0.7864760609,
				"z": -1.2794035916,
				"element": "C" 
			},
			{
				"x": -1.7769585747,
				"y": -0.1301575891,
				"z": -0.8889805108,
				"element": "C" 
			},
			{
				"x": -1.7154019703,
				"y": -1.5054559637,
				"z": -1.1588274798,
				"element": "C" 
			},
			{
				"x": -2.7712456175,
				"y": -2.348051937,
				"z": -0.815989716,
				"element": "C" 
			},
			{
				"x": -3.9099459123,
				"y": -1.8302230321,
				"z": -0.1922340997,
				"element": "C" 
			},
			{
				"x": -3.9820027414,
				"y": -0.4653542689,
				"z": 0.0837202446,
				"element": "C" 
			},
			{
				"x": -2.9217560625,
				"y": 0.3763202774,
				"z": -0.2633055718,
				"element": "C" 
			},
			{
				"x": 1.8562917355,
				"y": 0.2657961695,
				"z": -1.389903879,
				"element": "C" 
			},
			{
				"x": 3.0834199665,
				"y": -0.0145626236,
				"z": -0.7857081502,
				"element": "C" 
			},
			{
				"x": 4.5907561304,
				"y": -1.573965988,
				"z": 1.3881634847,
				"element": "H" 
			},
			{
				"x": 5.3414935724,
				"y": -0.2184990519,
				"z": 0.5631668605,
				"element": "H" 
			},
			{
				"x": 2.0890469068,
				"y": -0.0148183571,
				"z": 2.4590935265,
				"element": "H" 
			},
			{
				"x": -0.0777192486,
				"y": 0.4656258663,
				"z": 1.3858478396,
				"element": "H" 
			},
			{
				"x": -0.9016306946,
				"y": 1.8191826168,
				"z": -1.0277744762,
				"element": "H" 
			},
			{
				"x": -0.4986007238,
				"y": 0.7655775305,
				"z": -2.3683707342,
				"element": "H" 
			},
			{
				"x": -0.8295903187,
				"y": -1.9161978481,
				"z": -1.6369393609,
				"element": "H" 
			},
			{
				"x": -2.7066906016,
				"y": -3.4103518152,
				"z": -1.0348247582,
				"element": "H" 
			},
			{
				"x": -4.732474094,
				"y": -2.487019663,
				"z": 0.0758636426,
				"element": "H" 
			},
			{
				"x": -4.8618483112,
				"y": -0.0522159474,
				"z": 0.5690653651,
				"element": "H" 
			},
			{
				"x": -2.9864909268,
				"y": 1.4404465901,
				"z": -0.0486562124,
				"element": "H" 
			},
			{
				"x": 1.8019057802,
				"y": 0.3527773866,
				"z": -2.4722581858,
				"element": "H" 
			},
			{
				"x": 3.9677871599,
				"y": -0.1475885234,
				"z": -1.4043281381,
				"element": "H" 
			}
		],
		 "valence_orbital": [ 
			{
				"type": "occ",
				"energy": -0.32232,
				"method": "rhf"
			},
			{
				"type": "occ",
				"energy": -0.25971,
				"method": "rhf"
			},
			{
				"type": "occ",
				"energy": -0.2541,
				"method": "rhf"
			},
			{
				"type": "occ",
				"energy": -0.25073,
				"method": "rhf"
			},
			{
				"type": "occ",
				"energy": -0.23895,
				"method": "rhf"
			},
			{
				"type": "unocc",
				"energy": -0.0157,
				"method": "rhf"
			},
			{
				"type": "unocc",
				"energy": -0.01401,
				"method": "rhf"
			},
			{
				"type": "unocc",
				"energy": -0.00569,
				"method": "rhf"
			},
			{
				"type": "unocc",
				"energy": 0.00365,
				"method": "rhf"
			},
			{
				"type": "unocc",
				"energy": 0.03294,
				"method": "rhf"
			}
		],
		"cosmo_sigma_profile": { 
			"-0.025": 0.0,
			"-0.024": 0.0,
			"-0.023": 0.0,
			"-0.022": 0.0,
			"-0.021": 0.0,
			"-0.02": 0.0,
			"-0.019": 0.0,
			"-0.018": 0.0,
			"-0.017": 0.0,
			"-0.016": 0.0,
			"-0.015": 0.0,
			"-0.014": 0.0,
			"-0.013": 0.0,
			"-0.012": 0.0,
			"-0.011": 0.0,
			"-0.01": 0.0,
			"-0.009": 3.05107297873,
			"-0.008": 5.75785154682,
			"-0.007": 5.98975676287,
			"-0.006": 10.9623400518,
			"-0.005": 24.9433220993,
			"-0.004": 25.7293309161,
			"-0.003": 25.9412753319,
			"-0.002": 18.817733852,
			"-0.001": 19.5527477342,
			"0.0": 15.4481851677,
			"0.001": 14.9241491202,
			"0.002": 15.531745939,
			"0.003": 15.2123843029,
			"0.004": 17.311401077,
			"0.005": 18.9188457815,
			"0.006": 12.7752146277,
			"0.007": 4.47042899012,
			"0.008": 3.19541944633,
			"0.009": 3.23818090435,
			"0.01": 3.32774171292,
			"0.011": 2.87698726833,
			"0.012": 2.42625952429,
			"0.013": 1.99740336851,
			"0.014": 0.236979916444,
			"0.015": 0.0,
			"0.016": 0.0,
			"0.017": 0.0,
			"0.018": 0.0,
			"0.019": 0.0,
			"0.02": 0.0,
			"0.021": 0.0,
			"0.022": 0.0,
			"0.023": 0.0,
			"0.024": 0.0,
			"0.025": 0.0
		}
	}
}
