{
	 "smiles": "OC(=O)C1=CC(OCC2=CC=C(Cl)C=C2)=CC=C1", 
	 "Tm": 445.15, 
	 "num_atms": 29, 
	 "gaussian": { 
		 "optdone": 1, 
		 "sigma_profile": "yes", 
		 "theory": "DFT", 
		 "functional": "B3LYP", 
		 "basiset": "6-31G**", 
		 "properties": { 
			 "R2extent": 7612.9972, 
			 "electric_dipole_moment_norm": 2.42272658177, 
			 "electric_quadrupole_moment_norm": 14.9350229146, 
			 "total_energy": -1225.99464069, 
			 "HOMO_LUMO_gap": 0.1849, 
			 "cosmo_polarized_energy": -13.18, 
			 "cosmo_cavitation_energy": 36.06, 
			 "cosmo_dispersion_energy": -25.86, 
			 "cosmo_repulsion_energy": 2.01, 
			 "cosmo_total_nonelectrostatic_energy": 12.21, 
			 "SMD_solvation_energy": 7.16 
		},
		"coords": [
			{
				"x": -5.6526785528,
				"y": -1.2963610284,
				"z": -0.545349158,
				"element": "O" 
			},
			{
				"x": -4.5732088497,
				"y": -1.0048516165,
				"z": -1.3144365166,
				"element": "C" 
			},
			{
				"x": -4.6827302692,
				"y": -0.6864993022,
				"z": -2.4820633402,
				"element": "O" 
			},
			{
				"x": -3.2853123503,
				"y": -1.1188153992,
				"z": -0.5770211752,
				"element": "C" 
			},
			{
				"x": -2.1139328052,
				"y": -0.8428667577,
				"z": -1.2839120915,
				"element": "C" 
			},
			{
				"x": -0.8725627968,
				"y": -0.9340607283,
				"z": -0.6469802955,
				"element": "C" 
			},
			{
				"x": 0.212053038,
				"y": -0.6515065896,
				"z": -1.4349691854,
				"element": "O" 
			},
			{
				"x": 1.5234976997,
				"y": -0.8642597705,
				"z": -0.9210657473,
				"element": "C" 
			},
			{
				"x": 2.0110256435,
				"y": 0.2326051538,
				"z": 0.0066338037,
				"element": "C" 
			},
			{
				"x": 1.5704714973,
				"y": 1.5516221878,
				"z": -0.1485254634,
				"element": "C" 
			},
			{
				"x": 2.0585791719,
				"y": 2.5687043412,
				"z": 0.6706024625,
				"element": "C" 
			},
			{
				"x": 3.0040012441,
				"y": 2.260686261,
				"z": 1.6487984004,
				"element": "C" 
			},
			{
				"x": 3.6254239666,
				"y": 3.5375455246,
				"z": 2.6848659828,
				"element": "Cl" 
			},
			{
				"x": 3.4606778771,
				"y": 0.9549361134,
				"z": 1.8212773466,
				"element": "C" 
			},
			{
				"x": 2.9556414982,
				"y": -0.0524001944,
				"z": 0.9987580913,
				"element": "C" 
			},
			{
				"x": -0.8084933924,
				"y": -1.2967524687,
				"z": 0.7045247885,
				"element": "C" 
			},
			{
				"x": -1.9894113692,
				"y": -1.5745483168,
				"z": 1.4005660662,
				"element": "C" 
			},
			{
				"x": -3.2289893556,
				"y": -1.4908666732,
				"z": 0.7753400501,
				"element": "C" 
			},
			{
				"x": -6.4238854183,
				"y": -1.1885155037,
				"z": -1.1257143261,
				"element": "H" 
			},
			{
				"x": -2.1667690942,
				"y": -0.5621652211,
				"z": -2.3295277005,
				"element": "H" 
			},
			{
				"x": 2.1548630108,
				"y": -0.9035007666,
				"z": -1.8155277388,
				"element": "H" 
			},
			{
				"x": 1.5917706806,
				"y": -1.8442679369,
				"z": -0.4302629885,
				"element": "H" 
			},
			{
				"x": 0.83282416,
				"y": 1.7803767847,
				"z": -0.9109688898,
				"element": "H" 
			},
			{
				"x": 1.7118718752,
				"y": 3.589424351,
				"z": 0.5527606772,
				"element": "H" 
			},
			{
				"x": 4.1915326633,
				"y": 0.730477518,
				"z": 2.5902387331,
				"element": "H" 
			},
			{
				"x": 3.3059771174,
				"y": -1.0727632249,
				"z": 1.136836333,
				"element": "H" 
			},
			{
				"x": 0.1407928162,
				"y": -1.3447919919,
				"z": 1.2237992329,
				"element": "H" 
			},
			{
				"x": -1.9300277359,
				"y": -1.8530298307,
				"z": 2.4485516805,
				"element": "H" 
			},
			{
				"x": -4.1422019705,
				"y": -1.7041549142,
				"z": 1.3172709682,
				"element": "H" 
			}
		],
		 "valence_orbital": [ 
			{
				"type": "occ",
				"energy": -0.276,
				"method": "rhf"
			},
			{
				"type": "occ",
				"energy": -0.27057,
				"method": "rhf"
			},
			{
				"type": "occ",
				"energy": -0.26312,
				"method": "rhf"
			},
			{
				"type": "occ",
				"energy": -0.24864,
				"method": "rhf"
			},
			{
				"type": "occ",
				"energy": -0.23255,
				"method": "rhf"
			},
			{
				"type": "unocc",
				"energy": -0.04765,
				"method": "rhf"
			},
			{
				"type": "unocc",
				"energy": -0.02284,
				"method": "rhf"
			},
			{
				"type": "unocc",
				"energy": -0.02217,
				"method": "rhf"
			},
			{
				"type": "unocc",
				"energy": -0.00187,
				"method": "rhf"
			},
			{
				"type": "unocc",
				"energy": 0.02611,
				"method": "rhf"
			}
		],
		"cosmo_sigma_profile": { 
			"-0.025": 0.0,
			"-0.024": 0.0,
			"-0.023": 0.0,
			"-0.022": 0.0,
			"-0.021": 0.0,
			"-0.02": 0.0,
			"-0.019": 0.0731269024684,
			"-0.018": 0.56993765238,
			"-0.017": 0.980835702458,
			"-0.016": 1.0605953861,
			"-0.015": 0.649197283598,
			"-0.014": 0.630541103692,
			"-0.013": 0.915291203605,
			"-0.012": 0.301710616949,
			"-0.011": 0.910372133395,
			"-0.01": 0.918621231931,
			"-0.009": 0.280569948561,
			"-0.008": 1.49479222753,
			"-0.007": 11.7720720804,
			"-0.006": 18.2857203673,
			"-0.005": 18.997616466,
			"-0.004": 16.7280350382,
			"-0.003": 15.0141121668,
			"-0.002": 16.2352757165,
			"-0.001": 17.5045407985,
			"0.0": 19.7470075515,
			"0.001": 22.2593512133,
			"0.002": 32.2714486814,
			"0.003": 32.2887508653,
			"0.004": 25.1986902401,
			"0.005": 11.9663099973,
			"0.006": 3.63521107348,
			"0.007": 4.66692261073,
			"0.008": 3.06553628208,
			"0.009": 2.37033956947,
			"0.01": 2.36687521448,
			"0.011": 3.96366015555,
			"0.012": 3.87264822013,
			"0.013": 0.0953869017076,
			"0.014": 0.0,
			"0.015": 0.0,
			"0.016": 0.0,
			"0.017": 0.0,
			"0.018": 0.0,
			"0.019": 0.0,
			"0.02": 0.0,
			"0.021": 0.0,
			"0.022": 0.0,
			"0.023": 0.0,
			"0.024": 0.0,
			"0.025": 0.0
		}
	}
}
