{
	 "smiles": "OC1=C2CC(=O)CCC2=CC=C1", 
	 "Tm": 429.15, 
	 "num_atms": 22, 
	 "gaussian": { 
		 "optdone": 1, 
		 "sigma_profile": "yes", 
		 "theory": "DFT", 
		 "functional": "B3LYP", 
		 "basiset": "6-31G**", 
		 "properties": { 
			 "R2extent": 2640.5967, 
			 "electric_dipole_moment_norm": 3.89887183939, 
			 "electric_quadrupole_moment_norm": 10.2654931796, 
			 "total_energy": -537.543208226, 
			 "HOMO_LUMO_gap": 0.20922, 
			 "cosmo_polarized_energy": -12.23, 
			 "cosmo_cavitation_energy": 24.82, 
			 "cosmo_dispersion_energy": -18.64, 
			 "cosmo_repulsion_energy": 1.49, 
			 "cosmo_total_nonelectrostatic_energy": 7.67, 
			 "SMD_solvation_energy": 4.56 
		},
		"coords": [
			{
				"x": -0.5976153976,
				"y": -0.1214972,
				"z": -2.4658338478,
				"element": "O" 
			},
			{
				"x": -1.0835887052,
				"y": -1.0718540011,
				"z": -1.6073300022,
				"element": "C" 
			},
			{
				"x": -1.1552541786,
				"y": -0.7133565652,
				"z": -0.2493952453,
				"element": "C" 
			},
			{
				"x": -0.7160062052,
				"y": 0.673854242,
				"z": 0.1672712518,
				"element": "C" 
			},
			{
				"x": -0.5935391673,
				"y": 0.911600431,
				"z": 1.6697698099,
				"element": "C" 
			},
			{
				"x": -0.4788870411,
				"y": 2.0363342875,
				"z": 2.1175124336,
				"element": "O" 
			},
			{
				"x": -0.607058125,
				"y": -0.3235359331,
				"z": 2.5516752912,
				"element": "C" 
			},
			{
				"x": -1.7382326036,
				"y": -1.2792312427,
				"z": 2.1352545256,
				"element": "C" 
			},
			{
				"x": -1.6474467712,
				"y": -1.6522776858,
				"z": 0.6697277256,
				"element": "C" 
			},
			{
				"x": -2.0508457936,
				"y": -2.9209194456,
				"z": 0.2303059471,
				"element": "C" 
			},
			{
				"x": -1.9755725629,
				"y": -3.2573233453,
				"z": -1.1182236776,
				"element": "C" 
			},
			{
				"x": -1.4901123098,
				"y": -2.3336486736,
				"z": -2.044165122,
				"element": "C" 
			},
			{
				"x": -0.5815388769,
				"y": -0.4829067666,
				"z": -3.3613159281,
				"element": "H" 
			},
			{
				"x": 0.2615511422,
				"y": 0.9057257717,
				"z": -0.2775352845,
				"element": "H" 
			},
			{
				"x": -1.3870612317,
				"y": 1.443915645,
				"z": -0.2339431255,
				"element": "H" 
			},
			{
				"x": -0.6891852754,
				"y": -0.0074231489,
				"z": 3.5944543528,
				"element": "H" 
			},
			{
				"x": 0.3576744259,
				"y": -0.8359594355,
				"z": 2.4256411274,
				"element": "H" 
			},
			{
				"x": -1.7135336207,
				"y": -2.1824074358,
				"z": 2.7537408786,
				"element": "H" 
			},
			{
				"x": -2.706260181,
				"y": -0.7982432388,
				"z": 2.3366455383,
				"element": "H" 
			},
			{
				"x": -2.4226613982,
				"y": -3.6426905667,
				"z": 0.9522918573,
				"element": "H" 
			},
			{
				"x": -2.288501619,
				"y": -4.2414084516,
				"z": -1.4546590054,
				"element": "H" 
			},
			{
				"x": -1.4246245045,
				"y": -2.5900472411,
				"z": -3.0995895007,
				"element": "H" 
			}
		],
		 "valence_orbital": [ 
			{
				"type": "occ",
				"energy": -0.33067,
				"method": "rhf"
			},
			{
				"type": "occ",
				"energy": -0.32907,
				"method": "rhf"
			},
			{
				"type": "occ",
				"energy": -0.24375,
				"method": "rhf"
			},
			{
				"type": "occ",
				"energy": -0.23733,
				"method": "rhf"
			},
			{
				"type": "occ",
				"energy": -0.22307,
				"method": "rhf"
			},
			{
				"type": "unocc",
				"energy": -0.01385,
				"method": "rhf"
			},
			{
				"type": "unocc",
				"energy": -0.00389,
				"method": "rhf"
			},
			{
				"type": "unocc",
				"energy": 0.00973,
				"method": "rhf"
			},
			{
				"type": "unocc",
				"energy": 0.06463,
				"method": "rhf"
			},
			{
				"type": "unocc",
				"energy": 0.09718,
				"method": "rhf"
			}
		],
		"cosmo_sigma_profile": { 
			"-0.025": 0.0,
			"-0.024": 0.0,
			"-0.023": 0.0,
			"-0.022": 0.0,
			"-0.021": 0.0,
			"-0.02": 0.0,
			"-0.019": 0.0,
			"-0.018": 0.290017421037,
			"-0.017": 0.975694600695,
			"-0.016": 1.19710855245,
			"-0.015": 1.20742180476,
			"-0.014": 0.558838626335,
			"-0.013": 1.07563970122,
			"-0.012": 0.62948041131,
			"-0.011": 1.02590779001,
			"-0.01": 1.35072537975,
			"-0.009": 1.46721969708,
			"-0.008": 0.783472298684,
			"-0.007": 1.16833562358,
			"-0.006": 8.26976705897,
			"-0.005": 16.9698029788,
			"-0.004": 20.1431625544,
			"-0.003": 17.4914662942,
			"-0.002": 16.4526336823,
			"-0.001": 14.5819195958,
			"0.0": 9.8757771554,
			"0.001": 7.20745575558,
			"0.002": 8.69411013773,
			"0.003": 10.3953889313,
			"0.004": 9.4077950547,
			"0.005": 9.63723156503,
			"0.006": 9.54017306971,
			"0.007": 5.08868796402,
			"0.008": 2.83065473215,
			"0.009": 3.25399523816,
			"0.01": 3.362949419,
			"0.011": 3.16167205764,
			"0.012": 4.59157969299,
			"0.013": 2.9918592034,
			"0.014": 0.374524449806,
			"0.015": 0.0,
			"0.016": 0.0,
			"0.017": 0.0,
			"0.018": 0.0,
			"0.019": 0.0,
			"0.02": 0.0,
			"0.021": 0.0,
			"0.022": 0.0,
			"0.023": 0.0,
			"0.024": 0.0,
			"0.025": 0.0
		}
	}
}
