{
	 "smiles": "CC1=CC=CC(NC2=CC=CC=C2C(O)=O)=C1C", 
	 "Tm": 504.15, 
	 "num_atms": 33, 
	 "gaussian": { 
		 "optdone": 1, 
		 "sigma_profile": "yes", 
		 "theory": "DFT", 
		 "functional": "B3LYP", 
		 "basiset": "6-31G**", 
		 "properties": { 
			 "R2extent": 5410.874, 
			 "electric_dipole_moment_norm": 2.77964990242, 
			 "electric_quadrupole_moment_norm": 11.9497617692, 
			 "total_energy": -785.872246795, 
			 "HOMO_LUMO_gap": 0.15309, 
			 "cosmo_polarized_energy": -10.87, 
			 "cosmo_cavitation_energy": 35.86, 
			 "cosmo_dispersion_energy": -25.65, 
			 "cosmo_repulsion_energy": 1.97, 
			 "cosmo_total_nonelectrostatic_energy": 12.18, 
			 "SMD_solvation_energy": 7.05 
		},
		"coords": [
			{
				"x": -3.7742711526,
				"y": 1.5473717564,
				"z": 3.5919722829,
				"element": "C" 
			},
			{
				"x": -2.6874104807,
				"y": 0.6473575392,
				"z": 3.0479376729,
				"element": "C" 
			},
			{
				"x": -2.3122911533,
				"y": -0.4905318384,
				"z": 3.7700791406,
				"element": "C" 
			},
			{
				"x": -1.3212006587,
				"y": -1.3470268003,
				"z": 3.2922347973,
				"element": "C" 
			},
			{
				"x": -0.6999812823,
				"y": -1.0808887023,
				"z": 2.078137122,
				"element": "C" 
			},
			{
				"x": -1.0482477228,
				"y": 0.0653448588,
				"z": 1.3469028475,
				"element": "C" 
			},
			{
				"x": -0.4655610926,
				"y": 0.3230792767,
				"z": 0.08203686,
				"element": "N" 
			},
			{
				"x": 0.8520083944,
				"y": 0.150010337,
				"z": -0.2944254112,
				"element": "C" 
			},
			{
				"x": 1.8686112705,
				"y": 0.0473462593,
				"z": 0.6849267125,
				"element": "C" 
			},
			{
				"x": 3.1988050058,
				"y": -0.1145191869,
				"z": 0.3341098446,
				"element": "C" 
			},
			{
				"x": 3.5883704021,
				"y": -0.1773870818,
				"z": -1.0107074381,
				"element": "C" 
			},
			{
				"x": 2.613872777,
				"y": -0.0574977875,
				"z": -1.9854505055,
				"element": "C" 
			},
			{
				"x": 1.2511407586,
				"y": 0.1111229407,
				"z": -1.666606565,
				"element": "C" 
			},
			{
				"x": 0.3597091968,
				"y": 0.2327842528,
				"z": -2.8402384327,
				"element": "C" 
			},
			{
				"x": -0.9509488391,
				"y": 0.5172038197,
				"z": -2.5488603998,
				"element": "O" 
			},
			{
				"x": 0.7033816878,
				"y": 0.1135402817,
				"z": -4.0010428121,
				"element": "O" 
			},
			{
				"x": -2.0424873762,
				"y": 0.9456277631,
				"z": 1.828452663,
				"element": "C" 
			},
			{
				"x": -2.410824793,
				"y": 2.1801432511,
				"z": 1.0378493637,
				"element": "C" 
			},
			{
				"x": -4.5941137653,
				"y": 1.6767391092,
				"z": 2.8761204876,
				"element": "H" 
			},
			{
				"x": -3.3962269068,
				"y": 2.550143268,
				"z": 3.8262563255,
				"element": "H" 
			},
			{
				"x": -4.1969461703,
				"y": 1.1333361408,
				"z": 4.5110263458,
				"element": "H" 
			},
			{
				"x": -2.8073307725,
				"y": -0.7079572764,
				"z": 4.7126749368,
				"element": "H" 
			},
			{
				"x": -1.0491500561,
				"y": -2.2353343014,
				"z": 3.8550700896,
				"element": "H" 
			},
			{
				"x": 0.0417065456,
				"y": -1.7635048979,
				"z": 1.6778760135,
				"element": "H" 
			},
			{
				"x": -1.1025497021,
				"y": 0.5448776481,
				"z": -0.6695379584,
				"element": "H" 
			},
			{
				"x": 1.5932422431,
				"y": 0.1158168641,
				"z": 1.730172101,
				"element": "H" 
			},
			{
				"x": 3.9452245693,
				"y": -0.1818091683,
				"z": 1.1211865707,
				"element": "H" 
			},
			{
				"x": 4.6303800113,
				"y": -0.3069516968,
				"z": -1.2832424197,
				"element": "H" 
			},
			{
				"x": 2.8701759641,
				"y": -0.0883697805,
				"z": -3.0386952513,
				"element": "H" 
			},
			{
				"x": -1.4002144208,
				"y": 0.5621008774,
				"z": -3.4090322624,
				"element": "H" 
			},
			{
				"x": -1.5657575484,
				"y": 2.5315648378,
				"z": 0.4406242571,
				"element": "H" 
			},
			{
				"x": -2.7232351278,
				"y": 2.9981213142,
				"z": 1.6913526333,
				"element": "H" 
			},
			{
				"x": -3.244179805,
				"y": 1.9920461223,
				"z": 0.3462403885,
				"element": "H" 
			}
		],
		 "valence_orbital": [ 
			{
				"type": "occ",
				"energy": -0.27718,
				"method": "rhf"
			},
			{
				"type": "occ",
				"energy": -0.25458,
				"method": "rhf"
			},
			{
				"type": "occ",
				"energy": -0.25021,
				"method": "rhf"
			},
			{
				"type": "occ",
				"energy": -0.23742,
				"method": "rhf"
			},
			{
				"type": "occ",
				"energy": -0.19509,
				"method": "rhf"
			},
			{
				"type": "unocc",
				"energy": -0.042,
				"method": "rhf"
			},
			{
				"type": "unocc",
				"energy": -0.00777,
				"method": "rhf"
			},
			{
				"type": "unocc",
				"energy": -0.0008,
				"method": "rhf"
			},
			{
				"type": "unocc",
				"energy": 0.02463,
				"method": "rhf"
			},
			{
				"type": "unocc",
				"energy": 0.06047,
				"method": "rhf"
			}
		],
		"cosmo_sigma_profile": { 
			"-0.025": 0.0,
			"-0.024": 0.0,
			"-0.023": 0.0,
			"-0.022": 0.0,
			"-0.021": 0.0,
			"-0.02": 0.0,
			"-0.019": 0.0542916415872,
			"-0.018": 0.751932254163,
			"-0.017": 1.0069876749,
			"-0.016": 0.515343999915,
			"-0.015": 0.988650253129,
			"-0.014": 0.864930223397,
			"-0.013": 0.0671634699077,
			"-0.012": 0.622704331814,
			"-0.011": 0.996188922911,
			"-0.01": 0.792352525883,
			"-0.009": 0.30472424562,
			"-0.008": 0.933231637705,
			"-0.007": 1.77432603673,
			"-0.006": 5.43681207118,
			"-0.005": 14.900296977,
			"-0.004": 23.9841788783,
			"-0.003": 26.5816541166,
			"-0.002": 28.8244939206,
			"-0.001": 27.5446319411,
			"0.0": 27.4120054816,
			"0.001": 23.4486114633,
			"0.002": 20.1932614194,
			"0.003": 19.1485921407,
			"0.004": 18.2407563155,
			"0.005": 15.6003620091,
			"0.006": 8.60247756382,
			"0.007": 3.0185430344,
			"0.008": 1.28327739056,
			"0.009": 1.89185902752,
			"0.01": 1.35533300059,
			"0.011": 3.02639584912,
			"0.012": 5.00166896255,
			"0.013": 0.27798688436,
			"0.014": 0.0,
			"0.015": 0.0,
			"0.016": 0.0,
			"0.017": 0.0,
			"0.018": 0.0,
			"0.019": 0.0,
			"0.02": 0.0,
			"0.021": 0.0,
			"0.022": 0.0,
			"0.023": 0.0,
			"0.024": 0.0,
			"0.025": 0.0
		}
	}
}
