{
	 "smiles": "CCN(CC)C1=C(N)C=C(C=C1)S(=O)(=O)N1CCOCC1", 
	 "Tm": 373.15, 
	 "num_atms": 44, 
	 "gaussian": { 
		 "optdone": 1, 
		 "sigma_profile": "yes", 
		 "theory": "DFT", 
		 "functional": "B3LYP", 
		 "basiset": "6-31G**", 
		 "properties": { 
			 "R2extent": 9341.7539, 
			 "electric_dipole_moment_norm": 5.87687656583, 
			 "electric_quadrupole_moment_norm": 20.1143648018, 
			 "total_energy": -1335.38432986, 
			 "HOMO_LUMO_gap": 0.18107, 
			 "cosmo_polarized_energy": -18.41, 
			 "cosmo_cavitation_energy": 45.0, 
			 "cosmo_dispersion_energy": -31.73, 
			 "cosmo_repulsion_energy": 2.41, 
			 "cosmo_total_nonelectrostatic_energy": 15.68, 
			 "SMD_solvation_energy": 5.45 
		},
		"coords": [
			{
				"x": -0.6860681345,
				"y": 2.292601267,
				"z": 4.2327739894,
				"element": "C" 
			},
			{
				"x": -0.5302095482,
				"y": 2.4434630369,
				"z": 2.7155770282,
				"element": "C" 
			},
			{
				"x": -1.1867118674,
				"y": 1.3568173831,
				"z": 1.9647922617,
				"element": "N" 
			},
			{
				"x": -2.4995808181,
				"y": 1.7074058294,
				"z": 1.3801951148,
				"element": "C" 
			},
			{
				"x": -3.5669620777,
				"y": 2.074645433,
				"z": 2.4096481875,
				"element": "C" 
			},
			{
				"x": -0.3718222691,
				"y": 0.6192711863,
				"z": 1.0493287047,
				"element": "C" 
			},
			{
				"x": -0.6030848466,
				"y": -0.7811434557,
				"z": 0.9652296095,
				"element": "C" 
			},
			{
				"x": -1.6118742415,
				"y": -1.344034874,
				"z": 1.7369153017,
				"element": "N" 
			},
			{
				"x": 0.1708704586,
				"y": -1.5521908009,
				"z": 0.0886329721,
				"element": "C" 
			},
			{
				"x": 1.15946,
				"y": -0.9443830852,
				"z": -0.6868298688,
				"element": "C" 
			},
			{
				"x": 1.4040712643,
				"y": 0.4274462856,
				"z": -0.6134611662,
				"element": "C" 
			},
			{
				"x": 0.6240796612,
				"y": 1.1942291658,
				"z": 0.2536540358,
				"element": "C" 
			},
			{
				"x": 2.1035113058,
				"y": -1.9514782302,
				"z": -1.8327356023,
				"element": "S" 
			},
			{
				"x": 3.3750347712,
				"y": -1.2688094174,
				"z": -2.0839875697,
				"element": "O" 
			},
			{
				"x": 2.0413363935,
				"y": -3.3386914472,
				"z": -1.3637073582,
				"element": "O" 
			},
			{
				"x": 1.2709971192,
				"y": -1.9293479548,
				"z": -3.308492854,
				"element": "N" 
			},
			{
				"x": -0.0183096022,
				"y": -2.6355938168,
				"z": -3.3569129287,
				"element": "C" 
			},
			{
				"x": -0.399231162,
				"y": -2.8312887717,
				"z": -4.8248816206,
				"element": "C" 
			},
			{
				"x": -0.4440275266,
				"y": -1.5923384428,
				"z": -5.518510516,
				"element": "O" 
			},
			{
				"x": 0.8206199812,
				"y": -0.9459781068,
				"z": -5.4838621555,
				"element": "C" 
			},
			{
				"x": 1.2607819351,
				"y": -0.6579391705,
				"z": -4.048179837,
				"element": "C" 
			},
			{
				"x": -1.7344788899,
				"y": 2.3088649947,
				"z": 4.5406728394,
				"element": "H" 
			},
			{
				"x": -0.1671558766,
				"y": 3.1067827502,
				"z": 4.7513968334,
				"element": "H" 
			},
			{
				"x": -0.2518106225,
				"y": 1.344959141,
				"z": 4.5660589456,
				"element": "H" 
			},
			{
				"x": -0.9163659041,
				"y": 3.4211996591,
				"z": 2.38952615,
				"element": "H" 
			},
			{
				"x": 0.5374037396,
				"y": 2.4397879125,
				"z": 2.4816270912,
				"element": "H" 
			},
			{
				"x": -2.8400159476,
				"y": 0.8370825676,
				"z": 0.8120813294,
				"element": "H" 
			},
			{
				"x": -2.3846056261,
				"y": 2.5361192086,
				"z": 0.6588189334,
				"element": "H" 
			},
			{
				"x": -4.5190671739,
				"y": 2.2556059635,
				"z": 1.9002148894,
				"element": "H" 
			},
			{
				"x": -3.7149976902,
				"y": 1.264875543,
				"z": 3.1314044971,
				"element": "H" 
			},
			{
				"x": -3.3145331019,
				"y": 2.9839997227,
				"z": 2.9629045261,
				"element": "H" 
			},
			{
				"x": -1.5086847895,
				"y": -2.3309558258,
				"z": 1.9298783842,
				"element": "H" 
			},
			{
				"x": -1.8179782565,
				"y": -0.7864350242,
				"z": 2.5592454478,
				"element": "H" 
			},
			{
				"x": 0.0383331908,
				"y": -2.6282959508,
				"z": 0.0428752201,
				"element": "H" 
			},
			{
				"x": 2.1958451776,
				"y": 0.875622849,
				"z": -1.2016597961,
				"element": "H" 
			},
			{
				"x": 0.7995767436,
				"y": 2.2639134815,
				"z": 0.3146062474,
				"element": "H" 
			},
			{
				"x": 0.0960573757,
				"y": -3.6029331548,
				"z": -2.8637825221,
				"element": "H" 
			},
			{
				"x": -0.8083213832,
				"y": -2.0613885908,
				"z": -2.8467362713,
				"element": "H" 
			},
			{
				"x": -1.3988239693,
				"y": -3.2690652172,
				"z": -4.8989669024,
				"element": "H" 
			},
			{
				"x": 0.3235803627,
				"y": -3.511706917,
				"z": -5.3019060097,
				"element": "H" 
			},
			{
				"x": 1.5821119537,
				"y": -1.5667251994,
				"z": -5.9816072233,
				"element": "H" 
			},
			{
				"x": 0.7101159335,
				"y": -0.009768768,
				"z": -6.0384892444,
				"element": "H" 
			},
			{
				"x": 2.269882462,
				"y": -0.2412785937,
				"z": -4.0380948889,
				"element": "H" 
			},
			{
				"x": 0.5670514958,
				"y": 0.0652774351,
				"z": -3.5901542047,
				"element": "H" 
			}
		],
		 "valence_orbital": [ 
			{
				"type": "occ",
				"energy": -0.27744,
				"method": "rhf"
			},
			{
				"type": "occ",
				"energy": -0.26544,
				"method": "rhf"
			},
			{
				"type": "occ",
				"energy": -0.24649,
				"method": "rhf"
			},
			{
				"type": "occ",
				"energy": -0.23167,
				"method": "rhf"
			},
			{
				"type": "occ",
				"energy": -0.208,
				"method": "rhf"
			},
			{
				"type": "unocc",
				"energy": -0.02693,
				"method": "rhf"
			},
			{
				"type": "unocc",
				"energy": -0.00229,
				"method": "rhf"
			},
			{
				"type": "unocc",
				"energy": 0.0635,
				"method": "rhf"
			},
			{
				"type": "unocc",
				"energy": 0.07102,
				"method": "rhf"
			},
			{
				"type": "unocc",
				"energy": 0.08942,
				"method": "rhf"
			}
		],
		"cosmo_sigma_profile": { 
			"-0.025": 0.0,
			"-0.024": 0.0,
			"-0.023": 0.0,
			"-0.022": 0.0,
			"-0.021": 0.0,
			"-0.02": 0.0,
			"-0.019": 0.0,
			"-0.018": 0.0,
			"-0.017": 0.0,
			"-0.016": 0.0,
			"-0.015": 0.0,
			"-0.014": 0.0,
			"-0.013": 0.696814973896,
			"-0.012": 1.12171211532,
			"-0.011": 1.73057432006,
			"-0.01": 1.90549000159,
			"-0.009": 2.36034619705,
			"-0.008": 2.18616937783,
			"-0.007": 2.90495943382,
			"-0.006": 12.751342058,
			"-0.005": 20.5402588234,
			"-0.004": 32.1953653206,
			"-0.003": 42.698705377,
			"-0.002": 41.6243427631,
			"-0.001": 35.1248306408,
			"0.0": 25.334726676,
			"0.001": 26.1980729548,
			"0.002": 15.3119943218,
			"0.003": 14.801432439,
			"0.004": 13.1847690493,
			"0.005": 8.20023001748,
			"0.006": 5.61167153584,
			"0.007": 7.31871835185,
			"0.008": 6.36200368424,
			"0.009": 4.48678780967,
			"0.01": 7.74231049332,
			"0.011": 9.8146518217,
			"0.012": 7.51322427316,
			"0.013": 1.92153299686,
			"0.014": 0.0511097674529,
			"0.015": 0.0,
			"0.016": 0.0,
			"0.017": 0.0,
			"0.018": 0.0,
			"0.019": 0.0,
			"0.02": 0.0,
			"0.021": 0.0,
			"0.022": 0.0,
			"0.023": 0.0,
			"0.024": 0.0,
			"0.025": 0.0
		}
	}
}
