{
	 "smiles": "COC1=CC=C(NS(=O)(=O)C2=CC=C(N)C=C2)N=N1", 
	 "Tm": 455.15, 
	 "num_atms": 31, 
	 "gaussian": { 
		 "optdone": 1, 
		 "sigma_profile": "yes", 
		 "theory": "DFT", 
		 "functional": "B3LYP", 
		 "basiset": "6-31G**", 
		 "properties": { 
			 "R2extent": 7317.5948, 
			 "electric_dipole_moment_norm": 7.97079853653, 
			 "electric_quadrupole_moment_norm": 21.7981171655, 
			 "total_energy": -1269.1584009, 
			 "HOMO_LUMO_gap": 0.17735, 
			 "cosmo_polarized_energy": -23.91, 
			 "cosmo_cavitation_energy": 37.44, 
			 "cosmo_dispersion_energy": -27.45, 
			 "cosmo_repulsion_energy": 2.08, 
			 "cosmo_total_nonelectrostatic_energy": 12.07, 
			 "SMD_solvation_energy": 4.93 
		},
		"coords": [
			{
				"x": 3.5572626638,
				"y": -4.0199185088,
				"z": 3.3022933102,
				"element": "C" 
			},
			{
				"x": 3.5818295877,
				"y": -3.0189913324,
				"z": 2.2768587747,
				"element": "O" 
			},
			{
				"x": 2.463863742,
				"y": -2.2827913291,
				"z": 2.1148309252,
				"element": "C" 
			},
			{
				"x": 2.4853030373,
				"y": -1.2915164148,
				"z": 1.1092642124,
				"element": "C" 
			},
			{
				"x": 1.3465502109,
				"y": -0.5459252246,
				"z": 0.9399237684,
				"element": "C" 
			},
			{
				"x": 0.2628196299,
				"y": -0.8268217689,
				"z": 1.8022415779,
				"element": "C" 
			},
			{
				"x": -0.9823473283,
				"y": -0.1756327745,
				"z": 1.6956237349,
				"element": "N" 
			},
			{
				"x": -1.1370510712,
				"y": 1.5188755033,
				"z": 1.4980001337,
				"element": "S" 
			},
			{
				"x": -2.4217255093,
				"y": 1.8086711946,
				"z": 2.1385438587,
				"element": "O" 
			},
			{
				"x": 0.1027343802,
				"y": 2.1850392785,
				"z": 1.9062129828,
				"element": "O" 
			},
			{
				"x": -1.2948100752,
				"y": 1.7123988415,
				"z": -0.2630171925,
				"element": "C" 
			},
			{
				"x": -0.3454958961,
				"y": 2.4618686473,
				"z": -0.9629517134,
				"element": "C" 
			},
			{
				"x": -0.4853036303,
				"y": 2.6479792056,
				"z": -2.3328355394,
				"element": "C" 
			},
			{
				"x": -1.5810432762,
				"y": 2.0944284804,
				"z": -3.0236585735,
				"element": "C" 
			},
			{
				"x": -1.7485424388,
				"y": 2.3172998696,
				"z": -4.376194585,
				"element": "N" 
			},
			{
				"x": -2.5353270886,
				"y": 1.3493621329,
				"z": -2.2971835343,
				"element": "C" 
			},
			{
				"x": -2.3967542558,
				"y": 1.1647470113,
				"z": -0.9308002754,
				"element": "C" 
			},
			{
				"x": 0.3071314422,
				"y": -1.7700336138,
				"z": 2.7358640626,
				"element": "N" 
			},
			{
				"x": 1.4104786853,
				"y": -2.5144779155,
				"z": 2.8838098415,
				"element": "N" 
			},
			{
				"x": 3.3781464287,
				"y": -3.5717223598,
				"z": 4.2835220134,
				"element": "H" 
			},
			{
				"x": 2.7743390956,
				"y": -4.7590471571,
				"z": 3.1107408106,
				"element": "H" 
			},
			{
				"x": 4.5417254264,
				"y": -4.4881241034,
				"z": 3.2694228196,
				"element": "H" 
			},
			{
				"x": 3.373494083,
				"y": -1.1519294207,
				"z": 0.5033570954,
				"element": "H" 
			},
			{
				"x": 1.2758725496,
				"y": 0.2211302434,
				"z": 0.1785074242,
				"element": "H" 
			},
			{
				"x": -1.6253496935,
				"y": -0.4859726091,
				"z": 2.422054352,
				"element": "H" 
			},
			{
				"x": 0.4906271547,
				"y": 2.8977661302,
				"z": -0.4269725126,
				"element": "H" 
			},
			{
				"x": 0.2501855019,
				"y": 3.2349049368,
				"z": -2.8762998503,
				"element": "H" 
			},
			{
				"x": -0.9380444043,
				"y": 2.6056255281,
				"z": -4.9031321557,
				"element": "H" 
			},
			{
				"x": -2.3643340272,
				"y": 1.6944590688,
				"z": -4.8767599091,
				"element": "H" 
			},
			{
				"x": -3.3904472701,
				"y": 0.9250547736,
				"z": -2.8163089932,
				"element": "H" 
			},
			{
				"x": -3.1390876544,
				"y": 0.5960936867,
				"z": -0.3808568637,
				"element": "H" 
			}
		],
		 "valence_orbital": [ 
			{
				"type": "occ",
				"energy": -0.29354,
				"method": "rhf"
			},
			{
				"type": "occ",
				"energy": -0.27385,
				"method": "rhf"
			},
			{
				"type": "occ",
				"energy": -0.23702,
				"method": "rhf"
			},
			{
				"type": "occ",
				"energy": -0.23416,
				"method": "rhf"
			},
			{
				"type": "occ",
				"energy": -0.22429,
				"method": "rhf"
			},
			{
				"type": "unocc",
				"energy": -0.04694,
				"method": "rhf"
			},
			{
				"type": "unocc",
				"energy": -0.02839,
				"method": "rhf"
			},
			{
				"type": "unocc",
				"energy": -0.02281,
				"method": "rhf"
			},
			{
				"type": "unocc",
				"energy": -0.00498,
				"method": "rhf"
			},
			{
				"type": "unocc",
				"energy": 0.0536,
				"method": "rhf"
			}
		],
		"cosmo_sigma_profile": { 
			"-0.025": 0.0,
			"-0.024": 0.0,
			"-0.023": 0.0,
			"-0.022": 0.0,
			"-0.021": 0.0,
			"-0.02": 0.0,
			"-0.019": 0.0,
			"-0.018": 0.0,
			"-0.017": 0.0,
			"-0.016": 0.0,
			"-0.015": 0.0285493030534,
			"-0.014": 0.674618106097,
			"-0.013": 4.20282260163,
			"-0.012": 3.48678524298,
			"-0.011": 3.44485247388,
			"-0.01": 4.5772117178,
			"-0.009": 5.35437843163,
			"-0.008": 5.93122009357,
			"-0.007": 11.3453639288,
			"-0.006": 16.3409507063,
			"-0.005": 17.4038231835,
			"-0.004": 18.2039795389,
			"-0.003": 20.8713681146,
			"-0.002": 17.0234196998,
			"-0.001": 20.862816558,
			"0.0": 18.3325248924,
			"0.001": 18.0692355031,
			"0.002": 13.4232587537,
			"0.003": 19.0678395121,
			"0.004": 15.6787421714,
			"0.005": 7.58539584957,
			"0.006": 6.02869357867,
			"0.007": 6.50997947721,
			"0.008": 8.1455483894,
			"0.009": 7.40507470574,
			"0.01": 11.5273173543,
			"0.011": 10.0368882074,
			"0.012": 2.69702865108,
			"0.013": 3.03419223255,
			"0.014": 1.64656256461,
			"0.015": 0.240354230261,
			"0.016": 0.0,
			"0.017": 0.0,
			"0.018": 0.0,
			"0.019": 0.0,
			"0.02": 0.0,
			"0.021": 0.0,
			"0.022": 0.0,
			"0.023": 0.0,
			"0.024": 0.0,
			"0.025": 0.0
		}
	}
}
