{
	 "smiles": "OC(=O)C(=O)NCCCC1=CC=CC=C1", 
	 "Tm": 394.15, 
	 "num_atms": 28, 
	 "gaussian": { 
		 "optdone": 1, 
		 "sigma_profile": "yes", 
		 "theory": "DFT", 
		 "functional": "B3LYP", 
		 "basiset": "6-31G**", 
		 "properties": { 
			 "R2extent": 3566.793, 
			 "electric_dipole_moment_norm": 5.34036023598, 
			 "electric_quadrupole_moment_norm": 24.04116311, 
			 "total_energy": -707.455015379, 
			 "HOMO_LUMO_gap": 0.2043, 
			 "cosmo_polarized_energy": -17.49, 
			 "cosmo_cavitation_energy": 32.4, 
			 "cosmo_dispersion_energy": -21.69, 
			 "cosmo_repulsion_energy": 1.73, 
			 "cosmo_total_nonelectrostatic_energy": 12.44, 
			 "SMD_solvation_energy": 6.71 
		},
		"coords": [
			{
				"x": -0.5014678866,
				"y": 2.9507115531,
				"z": 0.1992459442,
				"element": "O" 
			},
			{
				"x": -0.1454111968,
				"y": 2.7973860126,
				"z": 1.5010731301,
				"element": "C" 
			},
			{
				"x": -0.5667314802,
				"y": 3.4874779343,
				"z": 2.3925988361,
				"element": "O" 
			},
			{
				"x": 0.8570000384,
				"y": 1.6408233873,
				"z": 1.7090909211,
				"element": "C" 
			},
			{
				"x": 1.3131366667,
				"y": 1.4314965327,
				"z": 2.821275708,
				"element": "O" 
			},
			{
				"x": 1.1478198717,
				"y": 0.9367368227,
				"z": 0.5843183172,
				"element": "N" 
			},
			{
				"x": 2.0469072126,
				"y": -0.2101576157,
				"z": 0.607542388,
				"element": "C" 
			},
			{
				"x": 1.3585561238,
				"y": -1.5615269031,
				"z": 0.3519969943,
				"element": "C" 
			},
			{
				"x": 0.9662596122,
				"y": -1.8430332167,
				"z": -1.1155624966,
				"element": "C" 
			},
			{
				"x": -0.087714565,
				"y": -0.9206755572,
				"z": -1.6967857027,
				"element": "C" 
			},
			{
				"x": 0.2454754724,
				"y": 0.0493865731,
				"z": -2.6529614539,
				"element": "C" 
			},
			{
				"x": -0.7247683777,
				"y": 0.9102914758,
				"z": -3.1743708984,
				"element": "C" 
			},
			{
				"x": -2.049625284,
				"y": 0.80951348,
				"z": -2.750088007,
				"element": "C" 
			},
			{
				"x": -2.3976382695,
				"y": -0.1581330181,
				"z": -1.8037453672,
				"element": "C" 
			},
			{
				"x": -1.4261676891,
				"y": -1.0124548296,
				"z": -1.2841142657,
				"element": "C" 
			},
			{
				"x": -1.1395292702,
				"y": 3.6830364709,
				"z": 0.1676210304,
				"element": "H" 
			},
			{
				"x": 0.6764112811,
				"y": 1.1823335471,
				"z": -0.2751357154,
				"element": "H" 
			},
			{
				"x": 2.5027109369,
				"y": -0.2099561253,
				"z": 1.5998462886,
				"element": "H" 
			},
			{
				"x": 2.8479142435,
				"y": -0.0534725814,
				"z": -0.1274025243,
				"element": "H" 
			},
			{
				"x": 0.4788398475,
				"y": -1.6380487967,
				"z": 1.0016833599,
				"element": "H" 
			},
			{
				"x": 2.0517308363,
				"y": -2.3503362741,
				"z": 0.6705758697,
				"element": "H" 
			},
			{
				"x": 0.6072607842,
				"y": -2.8781581944,
				"z": -1.1761870626,
				"element": "H" 
			},
			{
				"x": 1.8694182062,
				"y": -1.7954545887,
				"z": -1.7368209778,
				"element": "H" 
			},
			{
				"x": 1.2737679752,
				"y": 0.1256645426,
				"z": -2.9992758208,
				"element": "H" 
			},
			{
				"x": -0.4438873798,
				"y": 1.6527393175,
				"z": -3.9161304839,
				"element": "H" 
			},
			{
				"x": -2.8069349553,
				"y": 1.4730136743,
				"z": -3.1575224129,
				"element": "H" 
			},
			{
				"x": -3.4284320718,
				"y": -0.2492346496,
				"z": -1.4727966492,
				"element": "H" 
			},
			{
				"x": -1.7086006825,
				"y": -1.7640689733,
				"z": -0.5506689493,
				"element": "H" 
			}
		],
		 "valence_orbital": [ 
			{
				"type": "occ",
				"energy": -0.29294,
				"method": "rhf"
			},
			{
				"type": "occ",
				"energy": -0.26164,
				"method": "rhf"
			},
			{
				"type": "occ",
				"energy": -0.26031,
				"method": "rhf"
			},
			{
				"type": "occ",
				"energy": -0.25606,
				"method": "rhf"
			},
			{
				"type": "occ",
				"energy": -0.24792,
				"method": "rhf"
			},
			{
				"type": "unocc",
				"energy": -0.04362,
				"method": "rhf"
			},
			{
				"type": "unocc",
				"energy": -0.01383,
				"method": "rhf"
			},
			{
				"type": "unocc",
				"energy": -0.01111,
				"method": "rhf"
			},
			{
				"type": "unocc",
				"energy": 0.06569,
				"method": "rhf"
			},
			{
				"type": "unocc",
				"energy": 0.07789,
				"method": "rhf"
			}
		],
		"cosmo_sigma_profile": { 
			"-0.025": 0.0,
			"-0.024": 0.0,
			"-0.023": 0.0,
			"-0.022": 0.0,
			"-0.021": 0.0,
			"-0.02": 0.103110825698,
			"-0.019": 0.901314001561,
			"-0.018": 0.998076093632,
			"-0.017": 1.08124853507,
			"-0.016": 0.387306905096,
			"-0.015": 0.366291945349,
			"-0.014": 0.603365673261,
			"-0.013": 1.03761818488,
			"-0.012": 1.07452875764,
			"-0.011": 0.485659667291,
			"-0.01": 0.548626006876,
			"-0.009": 0.626859383494,
			"-0.008": 1.37220751761,
			"-0.007": 1.0149996286,
			"-0.006": 5.40125852218,
			"-0.005": 19.0413016374,
			"-0.004": 30.7077821342,
			"-0.003": 30.4646535179,
			"-0.002": 24.2199861754,
			"-0.001": 22.2792370863,
			"0.0": 17.0362395658,
			"0.001": 12.5733885179,
			"0.002": 10.5062311196,
			"0.003": 11.8150595477,
			"0.004": 11.4670491652,
			"0.005": 10.7263601204,
			"0.006": 7.38158841344,
			"0.007": 3.07533486808,
			"0.008": 1.87331809442,
			"0.009": 3.25153428823,
			"0.01": 6.10112981177,
			"0.011": 5.0399854146,
			"0.012": 5.1871788283,
			"0.013": 5.10302696436,
			"0.014": 1.99657607675,
			"0.015": 0.469807329034,
			"0.016": 0.0,
			"0.017": 0.0,
			"0.018": 0.0,
			"0.019": 0.0,
			"0.02": 0.0,
			"0.021": 0.0,
			"0.022": 0.0,
			"0.023": 0.0,
			"0.024": 0.0,
			"0.025": 0.0
		}
	}
}
