{
	 "smiles": "N1C(SC2=NN=C(N12)C1=CN=CC=C1)C1=CC=CC=C1", 
	 "Tm": 493.15, 
	 "num_atms": 31, 
	 "gaussian": { 
		 "optdone": 1, 
		 "sigma_profile": "yes", 
		 "theory": "DFT", 
		 "functional": "B3LYP", 
		 "basiset": "6-31G**", 
		 "properties": { 
			 "R2extent": 7454.1612, 
			 "electric_dipole_moment_norm": 5.34289602837, 
			 "electric_quadrupole_moment_norm": 29.8792818473, 
			 "total_energy": -1211.98809244, 
			 "HOMO_LUMO_gap": 0.17284, 
			 "cosmo_polarized_energy": -19.93, 
			 "cosmo_cavitation_energy": 37.25, 
			 "cosmo_dispersion_energy": -27.51, 
			 "cosmo_repulsion_energy": 2.02, 
			 "cosmo_total_nonelectrostatic_energy": 11.76, 
			 "SMD_solvation_energy": 1.73 
		},
		"coords": [
			{
				"x": 0.4305532973,
				"y": 0.0445954932,
				"z": -0.4729401961,
				"element": "N" 
			},
			{
				"x": 0.955967803,
				"y": 0.5592153869,
				"z": -1.7437978614,
				"element": "C" 
			},
			{
				"x": 2.2745752389,
				"y": 1.8794490652,
				"z": -1.2956661175,
				"element": "S" 
			},
			{
				"x": 2.5381073096,
				"y": 0.9566285888,
				"z": 0.1788818511,
				"element": "C" 
			},
			{
				"x": 3.4557295515,
				"y": 0.8780240806,
				"z": 1.1071812533,
				"element": "N" 
			},
			{
				"x": 3.0198985884,
				"y": -0.0919269871,
				"z": 1.9971975778,
				"element": "N" 
			},
			{
				"x": 1.8684706746,
				"y": -0.5905999984,
				"z": 1.5781647691,
				"element": "C" 
			},
			{
				"x": 1.5234340763,
				"y": 0.0637517538,
				"z": 0.415351496,
				"element": "N" 
			},
			{
				"x": 1.1216653858,
				"y": -1.6499865102,
				"z": 2.2560224026,
				"element": "C" 
			},
			{
				"x": -0.0373750808,
				"y": -2.2381686674,
				"z": 1.7235430958,
				"element": "C" 
			},
			{
				"x": -0.7244850464,
				"y": -3.2096383177,
				"z": 2.334550587,
				"element": "N" 
			},
			{
				"x": -0.2720761532,
				"y": -3.6389980158,
				"z": 3.5180351571,
				"element": "C" 
			},
			{
				"x": 0.8729948083,
				"y": -3.1279279504,
				"z": 4.1359994185,
				"element": "C" 
			},
			{
				"x": 1.5812391155,
				"y": -2.1184256733,
				"z": 3.4980205224,
				"element": "C" 
			},
			{
				"x": -0.133753372,
				"y": 1.0715938677,
				"z": -2.6454032041,
				"element": "C" 
			},
			{
				"x": -0.8333042479,
				"y": 2.2509764231,
				"z": -2.3509455354,
				"element": "C" 
			},
			{
				"x": -1.8727672657,
				"y": 2.6761942754,
				"z": -3.1771809179,
				"element": "C" 
			},
			{
				"x": -2.2193934271,
				"y": 1.9322789162,
				"z": -4.3073727363,
				"element": "C" 
			},
			{
				"x": -1.5229238828,
				"y": 0.761250533,
				"z": -4.6099129649,
				"element": "C" 
			},
			{
				"x": -0.4850282358,
				"y": 0.3328961717,
				"z": -3.7820810237,
				"element": "C" 
			},
			{
				"x": -0.2741662206,
				"y": 0.6936838402,
				"z": -0.1129834169,
				"element": "H" 
			},
			{
				"x": 1.5166236567,
				"y": -0.2461926786,
				"z": -2.2220392818,
				"element": "H" 
			},
			{
				"x": -0.420021066,
				"y": -1.9147254623,
				"z": 0.7588928651,
				"element": "H" 
			},
			{
				"x": -0.8500606385,
				"y": -4.4285708099,
				"z": 3.9950470366,
				"element": "H" 
			},
			{
				"x": 1.1973979261,
				"y": -3.5150815115,
				"z": 5.0967768861,
				"element": "H" 
			},
			{
				"x": 2.4769710793,
				"y": -1.6841453975,
				"z": 3.9288847248,
				"element": "H" 
			},
			{
				"x": -0.5481338639,
				"y": 2.8473196815,
				"z": -1.4887016351,
				"element": "H" 
			},
			{
				"x": -2.4058606188,
				"y": 3.5927499627,
				"z": -2.9432376579,
				"element": "H" 
			},
			{
				"x": -3.0261388625,
				"y": 2.2676066123,
				"z": -4.9523503302,
				"element": "H" 
			},
			{
				"x": -1.7858883717,
				"y": 0.1810686904,
				"z": -5.4891799698,
				"element": "H" 
			},
			{
				"x": 0.0532478423,
				"y": -0.5815953626,
				"z": -4.0157567942,
				"element": "H" 
			}
		],
		 "valence_orbital": [ 
			{
				"type": "occ",
				"energy": -0.27331,
				"method": "rhf"
			},
			{
				"type": "occ",
				"energy": -0.26691,
				"method": "rhf"
			},
			{
				"type": "occ",
				"energy": -0.2623,
				"method": "rhf"
			},
			{
				"type": "occ",
				"energy": -0.25194,
				"method": "rhf"
			},
			{
				"type": "occ",
				"energy": -0.22327,
				"method": "rhf"
			},
			{
				"type": "unocc",
				"energy": -0.05043,
				"method": "rhf"
			},
			{
				"type": "unocc",
				"energy": -0.04147,
				"method": "rhf"
			},
			{
				"type": "unocc",
				"energy": -0.02876,
				"method": "rhf"
			},
			{
				"type": "unocc",
				"energy": -0.02363,
				"method": "rhf"
			},
			{
				"type": "unocc",
				"energy": -0.0076,
				"method": "rhf"
			}
		],
		"cosmo_sigma_profile": { 
			"-0.025": 0.0,
			"-0.024": 0.0,
			"-0.023": 0.0,
			"-0.022": 0.0,
			"-0.021": 0.0,
			"-0.02": 0.0,
			"-0.019": 0.0,
			"-0.018": 0.0,
			"-0.017": 0.0,
			"-0.016": 0.0,
			"-0.015": 0.416596372126,
			"-0.014": 1.0828362708,
			"-0.013": 1.88368738178,
			"-0.012": 1.71470826955,
			"-0.011": 1.73386151992,
			"-0.01": 1.17209706854,
			"-0.009": 3.0184938882,
			"-0.008": 6.04140771214,
			"-0.007": 11.1139174981,
			"-0.006": 19.7897460886,
			"-0.005": 20.2360092615,
			"-0.004": 18.407229252,
			"-0.003": 18.2642238611,
			"-0.002": 17.4534852029,
			"-0.001": 19.700831169,
			"0.0": 24.6524318943,
			"0.001": 28.5417032417,
			"0.002": 23.9456447002,
			"0.003": 18.3844456058,
			"0.004": 18.0311817942,
			"0.005": 10.0835069571,
			"0.006": 4.24838080913,
			"0.007": 3.19546311638,
			"0.008": 3.47587855941,
			"0.009": 2.62745794257,
			"0.01": 3.71777462727,
			"0.011": 2.71386613446,
			"0.012": 3.82786519802,
			"0.013": 5.12056713131,
			"0.014": 3.27608697944,
			"0.015": 2.99932676184,
			"0.016": 1.57190733412,
			"0.017": 0.15468532853,
			"0.018": 0.0,
			"0.019": 0.0,
			"0.02": 0.0,
			"0.021": 0.0,
			"0.022": 0.0,
			"0.023": 0.0,
			"0.024": 0.0,
			"0.025": 0.0
		}
	}
}
