{
	 "smiles": "ClS(=O)(=O)C1=CC(=CS1)S(=O)(=O)C1=CC=CC=C1", 
	 "Tm": 375.15, 
	 "num_atms": 25, 
	 "gaussian": { 
		 "optdone": 1, 
		 "sigma_profile": "yes", 
		 "theory": "DFT", 
		 "functional": "B3LYP", 
		 "basiset": "6-31G**", 
		 "properties": { 
			 "R2extent": 10010.9708, 
			 "electric_dipole_moment_norm": 5.0724101096, 
			 "electric_quadrupole_moment_norm": 27.5958926373, 
			 "total_energy": -2340.76436251, 
			 "HOMO_LUMO_gap": 0.17575, 
			 "cosmo_polarized_energy": -17.08, 
			 "cosmo_cavitation_energy": 37.2, 
			 "cosmo_dispersion_energy": -27.29, 
			 "cosmo_repulsion_energy": 2.0, 
			 "cosmo_total_nonelectrostatic_energy": 11.91, 
			 "SMD_solvation_energy": 4.2 
		},
		"coords": [
			{
				"x": -3.862520501,
				"y": 3.8389532639,
				"z": -3.3094420561,
				"element": "Cl" 
			},
			{
				"x": -2.078734814,
				"y": 2.6956714788,
				"z": -3.2192375605,
				"element": "S" 
			},
			{
				"x": -2.3651405232,
				"y": 1.4370269976,
				"z": -3.891546552,
				"element": "O" 
			},
			{
				"x": -1.0015238034,
				"y": 3.5889513392,
				"z": -3.6224926997,
				"element": "O" 
			},
			{
				"x": -1.9278583889,
				"y": 2.3822076099,
				"z": -1.4914455644,
				"element": "C" 
			},
			{
				"x": -2.4206538942,
				"y": 1.2780466958,
				"z": -0.8465556333,
				"element": "C" 
			},
			{
				"x": -2.1152065807,
				"y": 1.3291491349,
				"z": 0.5415068776,
				"element": "C" 
			},
			{
				"x": -1.4268566847,
				"y": 2.4571017127,
				"z": 0.9130985505,
				"element": "C" 
			},
			{
				"x": -1.1098791025,
				"y": 3.4926269135,
				"z": -0.4252702849,
				"element": "S" 
			},
			{
				"x": -2.6087370773,
				"y": 0.0787387156,
				"z": 1.7323421761,
				"element": "S" 
			},
			{
				"x": -3.9439530091,
				"y": -0.3828913496,
				"z": 1.3306458271,
				"element": "O" 
			},
			{
				"x": -2.3392248674,
				"y": 0.6543088236,
				"z": 3.057827442,
				"element": "O" 
			},
			{
				"x": -1.455450195,
				"y": -1.2721033709,
				"z": 1.4619894883,
				"element": "C" 
			},
			{
				"x": -0.2284882272,
				"y": -1.264114632,
				"z": 2.1296944584,
				"element": "C" 
			},
			{
				"x": 0.6604683325,
				"y": -2.3164997426,
				"z": 1.9144480614,
				"element": "C" 
			},
			{
				"x": 0.3180347285,
				"y": -3.3566407513,
				"z": 1.0459648644,
				"element": "C" 
			},
			{
				"x": -0.9176457445,
				"y": -3.3565941897,
				"z": 0.3946319843,
				"element": "C" 
			},
			{
				"x": -1.8170932883,
				"y": -2.3101025205,
				"z": 0.6006847344,
				"element": "C" 
			},
			{
				"x": -2.9740598114,
				"y": 0.4864171262,
				"z": -1.3352306627,
				"element": "H" 
			},
			{
				"x": -1.1020365574,
				"y": 2.7177798881,
				"z": 1.9113930644,
				"element": "H" 
			},
			{
				"x": 0.0093536704,
				"y": -0.4594479404,
				"z": 2.816987996,
				"element": "H" 
			},
			{
				"x": 1.616206494,
				"y": -2.3283363116,
				"z": 2.4292231333,
				"element": "H" 
			},
			{
				"x": 1.0140344717,
				"y": -4.1740192652,
				"z": 0.8825777158,
				"element": "H" 
			},
			{
				"x": -1.1850432369,
				"y": -4.1734113682,
				"z": -0.268512148,
				"element": "H" 
			},
			{
				"x": -2.7916913902,
				"y": -2.3029182578,
				"z": 0.1248167876,
				"element": "H" 
			}
		],
		 "valence_orbital": [ 
			{
				"type": "occ",
				"energy": -0.31108,
				"method": "rhf"
			},
			{
				"type": "occ",
				"energy": -0.30816,
				"method": "rhf"
			},
			{
				"type": "occ",
				"energy": -0.29828,
				"method": "rhf"
			},
			{
				"type": "occ",
				"energy": -0.28373,
				"method": "rhf"
			},
			{
				"type": "occ",
				"energy": -0.2814,
				"method": "rhf"
			},
			{
				"type": "unocc",
				"energy": -0.10565,
				"method": "rhf"
			},
			{
				"type": "unocc",
				"energy": -0.07112,
				"method": "rhf"
			},
			{
				"type": "unocc",
				"energy": -0.05376,
				"method": "rhf"
			},
			{
				"type": "unocc",
				"energy": -0.03445,
				"method": "rhf"
			},
			{
				"type": "unocc",
				"energy": -0.02111,
				"method": "rhf"
			}
		],
		"cosmo_sigma_profile": { 
			"-0.025": 0.0,
			"-0.024": 0.0,
			"-0.023": 0.0,
			"-0.022": 0.0,
			"-0.021": 0.0,
			"-0.02": 0.0,
			"-0.019": 0.0,
			"-0.018": 0.0,
			"-0.017": 0.0,
			"-0.016": 0.0,
			"-0.015": 0.0,
			"-0.014": 0.0,
			"-0.013": 0.0935144638515,
			"-0.012": 1.46022603544,
			"-0.011": 1.50777073848,
			"-0.01": 2.66267178593,
			"-0.009": 3.18331325516,
			"-0.008": 4.55284855902,
			"-0.007": 13.1671374583,
			"-0.006": 17.5214322364,
			"-0.005": 18.177024561,
			"-0.004": 15.6220841274,
			"-0.003": 21.2789325276,
			"-0.002": 29.6533837202,
			"-0.001": 22.5749915472,
			"0.0": 21.037510543,
			"0.001": 19.1938037233,
			"0.002": 25.5810471558,
			"0.003": 25.5422449587,
			"0.004": 6.97968991585,
			"0.005": 4.81521351403,
			"0.006": 6.0628282986,
			"0.007": 12.5283388819,
			"0.008": 11.4036245364,
			"0.009": 5.44611681742,
			"0.01": 6.89593348708,
			"0.011": 7.36382650462,
			"0.012": 0.904193329312,
			"0.013": 0.0,
			"0.014": 0.0,
			"0.015": 0.0,
			"0.016": 0.0,
			"0.017": 0.0,
			"0.018": 0.0,
			"0.019": 0.0,
			"0.02": 0.0,
			"0.021": 0.0,
			"0.022": 0.0,
			"0.023": 0.0,
			"0.024": 0.0,
			"0.025": 0.0
		}
	}
}
