{
	 "smiles": "CCCCC#CC1=CN=CC(=C1)C(=O)NN", 
	 "Tm": 433.15, 
	 "num_atms": 31, 
	 "gaussian": { 
		 "optdone": 1, 
		 "sigma_profile": "yes", 
		 "theory": "DFT", 
		 "functional": "B3LYP", 
		 "basiset": "6-31G**", 
		 "properties": { 
			 "R2extent": 6000.9515, 
			 "electric_dipole_moment_norm": 6.05822306786, 
			 "electric_quadrupole_moment_norm": 24.9003676467, 
			 "total_energy": -705.716430085, 
			 "HOMO_LUMO_gap": 0.18482, 
			 "cosmo_polarized_energy": -17.33, 
			 "cosmo_cavitation_energy": 36.01, 
			 "cosmo_dispersion_energy": -25.03, 
			 "cosmo_repulsion_energy": 2.05, 
			 "cosmo_total_nonelectrostatic_energy": 13.03, 
			 "SMD_solvation_energy": 6.02 
		},
		"coords": [
			{
				"x": 1.8837672873,
				"y": 1.6768189968,
				"z": 1.9397510971,
				"element": "C" 
			},
			{
				"x": 2.4006513989,
				"y": 3.0526798694,
				"z": 1.5033155705,
				"element": "C" 
			},
			{
				"x": 2.7458059775,
				"y": 3.1925320124,
				"z": 0.0115924076,
				"element": "C" 
			},
			{
				"x": 1.5406808576,
				"y": 3.1873872777,
				"z": -0.9626502244,
				"element": "C" 
			},
			{
				"x": 0.9335612633,
				"y": 1.8802093907,
				"z": -1.2159118487,
				"element": "C" 
			},
			{
				"x": 0.4410589477,
				"y": 0.7997494342,
				"z": -1.4657643018,
				"element": "C" 
			},
			{
				"x": -0.1321404019,
				"y": -0.474436386,
				"z": -1.7562176732,
				"element": "C" 
			},
			{
				"x": 0.554585211,
				"y": -1.4098539104,
				"z": -2.5558356398,
				"element": "C" 
			},
			{
				"x": 0.071297748,
				"y": -2.610947008,
				"z": -2.8787187813,
				"element": "N" 
			},
			{
				"x": -1.1383599385,
				"y": -2.9365873444,
				"z": -2.4127418873,
				"element": "C" 
			},
			{
				"x": -1.9099795665,
				"y": -2.1017885248,
				"z": -1.5886808547,
				"element": "C" 
			},
			{
				"x": -1.3936899354,
				"y": -0.8462233885,
				"z": -1.2624047908,
				"element": "C" 
			},
			{
				"x": -3.2663867278,
				"y": -2.6152850071,
				"z": -1.2072825936,
				"element": "C" 
			},
			{
				"x": -3.845240725,
				"y": -3.447110512,
				"z": -1.8981492923,
				"element": "O" 
			},
			{
				"x": -3.90142225,
				"y": -2.1321668944,
				"z": -0.0791926379,
				"element": "N" 
			},
			{
				"x": -3.2335081372,
				"y": -1.5011126551,
				"z": 0.981591418,
				"element": "N" 
			},
			{
				"x": 0.9417140346,
				"y": 1.4194005802,
				"z": 1.4492635243,
				"element": "H" 
			},
			{
				"x": 2.6054464221,
				"y": 0.889535973,
				"z": 1.694371409,
				"element": "H" 
			},
			{
				"x": 1.7196186214,
				"y": 1.6521137416,
				"z": 3.0225049971,
				"element": "H" 
			},
			{
				"x": 1.6647738599,
				"y": 3.8240649403,
				"z": 1.7708552192,
				"element": "H" 
			},
			{
				"x": 3.3043852631,
				"y": 3.290024304,
				"z": 2.0795041745,
				"element": "H" 
			},
			{
				"x": 3.4501601549,
				"y": 2.4062719761,
				"z": -0.2865876697,
				"element": "H" 
			},
			{
				"x": 3.2662453609,
				"y": 4.1473467556,
				"z": -0.132954439,
				"element": "H" 
			},
			{
				"x": 1.8709539244,
				"y": 3.5990860617,
				"z": -1.9259314459,
				"element": "H" 
			},
			{
				"x": 0.7730595097,
				"y": 3.8793292675,
				"z": -0.5887194778,
				"element": "H" 
			},
			{
				"x": 1.5374231112,
				"y": -1.1564836295,
				"z": -2.9481923749,
				"element": "H" 
			},
			{
				"x": -1.5350355495,
				"y": -3.9069591916,
				"z": -2.697846847,
				"element": "H" 
			},
			{
				"x": -1.9479169886,
				"y": -0.161707072,
				"z": -0.6355609613,
				"element": "H" 
			},
			{
				"x": -4.7730384361,
				"y": -2.625196063,
				"z": 0.0987876218,
				"element": "H" 
			},
			{
				"x": -3.1035537284,
				"y": -2.1446025162,
				"z": 1.7600641771,
				"element": "H" 
			},
			{
				"x": -3.7842165688,
				"y": -0.7095904783,
				"z": 1.3016421257,
				"element": "H" 
			}
		],
		 "valence_orbital": [ 
			{
				"type": "occ",
				"energy": -0.26993,
				"method": "rhf"
			},
			{
				"type": "occ",
				"energy": -0.26697,
				"method": "rhf"
			},
			{
				"type": "occ",
				"energy": -0.25847,
				"method": "rhf"
			},
			{
				"type": "occ",
				"energy": -0.24208,
				"method": "rhf"
			},
			{
				"type": "occ",
				"energy": -0.22859,
				"method": "rhf"
			},
			{
				"type": "unocc",
				"energy": -0.04377,
				"method": "rhf"
			},
			{
				"type": "unocc",
				"energy": -0.03293,
				"method": "rhf"
			},
			{
				"type": "unocc",
				"energy": 0.03407,
				"method": "rhf"
			},
			{
				"type": "unocc",
				"energy": 0.05162,
				"method": "rhf"
			},
			{
				"type": "unocc",
				"energy": 0.05773,
				"method": "rhf"
			}
		],
		"cosmo_sigma_profile": { 
			"-0.025": 0.0,
			"-0.024": 0.0,
			"-0.023": 0.0,
			"-0.022": 0.0,
			"-0.021": 0.0,
			"-0.02": 0.0,
			"-0.019": 0.0,
			"-0.018": 0.0,
			"-0.017": 0.0,
			"-0.016": 0.0,
			"-0.015": 0.0,
			"-0.014": 0.14400129744,
			"-0.013": 1.56358477466,
			"-0.012": 4.04205240478,
			"-0.011": 5.22111736232,
			"-0.01": 5.9035766778,
			"-0.009": 3.84200010521,
			"-0.008": 2.92760066876,
			"-0.007": 3.85092862745,
			"-0.006": 5.51494047376,
			"-0.005": 9.81658360336,
			"-0.004": 12.2307218194,
			"-0.003": 20.6314516811,
			"-0.002": 29.0335654666,
			"-0.001": 28.2516068972,
			"0.0": 33.7235676153,
			"0.001": 31.866565031,
			"0.002": 18.2914611689,
			"0.003": 10.0810196006,
			"0.004": 11.7423646734,
			"0.005": 10.7098172006,
			"0.006": 5.52029645571,
			"0.007": 4.23205284074,
			"0.008": 3.49101317812,
			"0.009": 2.87038774326,
			"0.01": 2.55580087514,
			"0.011": 2.71163107319,
			"0.012": 3.6046507312,
			"0.013": 5.92406952871,
			"0.014": 2.8462350586,
			"0.015": 0.824742118153,
			"0.016": 0.558029377678,
			"0.017": 0.0192925429122,
			"0.018": 0.0,
			"0.019": 0.0,
			"0.02": 0.0,
			"0.021": 0.0,
			"0.022": 0.0,
			"0.023": 0.0,
			"0.024": 0.0,
			"0.025": 0.0
		}
	}
}
